PSF EXT CMAP XPLOR

         2 !NTITLE
* GENERATED BY CHARMM-GUI FF-Converter
* DATE:   02/03/23   16:10:50

     78974 !NATOM
         1 MEMB     1        POPC     N        NTL     -0.600000       14.0070           0
         2 MEMB     1        POPC     C12      CTL2    -0.100000       12.0110           0
         3 MEMB     1        POPC     H12A     HL       0.250000       1.00800           0
         4 MEMB     1        POPC     H12B     HL       0.250000       1.00800           0
         5 MEMB     1        POPC     C13      CTL5    -0.350000       12.0110           0
         6 MEMB     1        POPC     H13A     HL       0.250000       1.00800           0
         7 MEMB     1        POPC     H13B     HL       0.250000       1.00800           0
         8 MEMB     1        POPC     H13C     HL       0.250000       1.00800           0
         9 MEMB     1        POPC     C14      CTL5    -0.350000       12.0110           0
        10 MEMB     1        POPC     H14A     HL       0.250000       1.00800           0
        11 MEMB     1        POPC     H14B     HL       0.250000       1.00800           0
        12 MEMB     1        POPC     H14C     HL       0.250000       1.00800           0
        13 MEMB     1        POPC     C15      CTL5    -0.350000       12.0110           0
        14 MEMB     1        POPC     H15A     HL       0.250000       1.00800           0
        15 MEMB     1        POPC     H15B     HL       0.250000       1.00800           0
        16 MEMB     1        POPC     H15C     HL       0.250000       1.00800           0
        17 MEMB     1        POPC     C11      CTL2    -0.800000E-01   12.0110           0
        18 MEMB     1        POPC     H11A     HAL2     0.900000E-01   1.00800           0
        19 MEMB     1        POPC     H11B     HAL2     0.900000E-01   1.00800           0
        20 MEMB     1        POPC     P        PL       1.50000        30.9740           0
        21 MEMB     1        POPC     O13      O2L     -0.780000       15.9994           0
        22 MEMB     1        POPC     O14      O2L     -0.780000       15.9994           0
        23 MEMB     1        POPC     O12      OSLP    -0.570000       15.9994           0
        24 MEMB     1        POPC     O11      OSLP    -0.570000       15.9994           0
        25 MEMB     1        POPC     C1       CTL2    -0.800000E-01   12.0110           0
        26 MEMB     1        POPC     HA       HAL2     0.900000E-01   1.00800           0
        27 MEMB     1        POPC     HB       HAL2     0.900000E-01   1.00800           0
        28 MEMB     1        POPC     C2       CTL1     0.170000       12.0110           0
        29 MEMB     1        POPC     HS       HAL1     0.900000E-01   1.00800           0
        30 MEMB     1        POPC     O21      OSL     -0.490000       15.9994           0
        31 MEMB     1        POPC     C21      CL       0.900000       12.0110           0
        32 MEMB     1        POPC     O22      OBL     -0.630000       15.9994           0
        33 MEMB     1        POPC     C22      CTL2    -0.220000       12.0110           0
        34 MEMB     1        POPC     H2R      HAL2     0.900000E-01   1.00800           0
        35 MEMB     1        POPC     H2S      HAL2     0.900000E-01   1.00800           0
        36 MEMB     1        POPC     C3       CTL2     0.800000E-01   12.0110           0
        37 MEMB     1        POPC     HX       HAL2     0.900000E-01   1.00800           0
        38 MEMB     1        POPC     HY       HAL2     0.900000E-01   1.00800           0
        39 MEMB     1        POPC     O31      OSL     -0.490000       15.9994           0
        40 MEMB     1        POPC     C31      CL       0.900000       12.0110           0
        41 MEMB     1        POPC     O32      OBL     -0.630000       15.9994           0
        42 MEMB     1        POPC     C32      CTL2    -0.220000       12.0110           0
        43 MEMB     1        POPC     H2X      HAL2     0.900000E-01   1.00800           0
        44 MEMB     1        POPC     H2Y      HAL2     0.900000E-01   1.00800           0
        45 MEMB     1        POPC     C23      CTL2    -0.180000       12.0110           0
        46 MEMB     1        POPC     H3R      HAL2     0.900000E-01   1.00800           0
        47 MEMB     1        POPC     H3S      HAL2     0.900000E-01   1.00800           0
        48 MEMB     1        POPC     C24      CTL2    -0.180000       12.0110           0
        49 MEMB     1        POPC     H4R      HAL2     0.900000E-01   1.00800           0
        50 MEMB     1        POPC     H4S      HAL2     0.900000E-01   1.00800           0
        51 MEMB     1        POPC     C25      CTL2    -0.180000       12.0110           0
        52 MEMB     1        POPC     H5R      HAL2     0.900000E-01   1.00800           0
        53 MEMB     1        POPC     H5S      HAL2     0.900000E-01   1.00800           0
        54 MEMB     1        POPC     C26      CTL2    -0.180000       12.0110           0
        55 MEMB     1        POPC     H6R      HAL2     0.900000E-01   1.00800           0
        56 MEMB     1        POPC     H6S      HAL2     0.900000E-01   1.00800           0
        57 MEMB     1        POPC     C27      CTL2    -0.180000       12.0110           0
        58 MEMB     1        POPC     H7R      HAL2     0.900000E-01   1.00800           0
        59 MEMB     1        POPC     H7S      HAL2     0.900000E-01   1.00800           0
        60 MEMB     1        POPC     C28      CTL2    -0.180000       12.0110           0
        61 MEMB     1        POPC     H8R      HAL2     0.900000E-01   1.00800           0
        62 MEMB     1        POPC     H8S      HAL2     0.900000E-01   1.00800           0
        63 MEMB     1        POPC     C29      CEL1    -0.150000       12.0110           0
        64 MEMB     1        POPC     H91      HEL1     0.150000       1.00800           0
        65 MEMB     1        POPC     C210     CEL1    -0.150000       12.0110           0
        66 MEMB     1        POPC     H101     HEL1     0.150000       1.00800           0
        67 MEMB     1        POPC     C211     CTL2    -0.180000       12.0110           0
        68 MEMB     1        POPC     H11R     HAL2     0.900000E-01   1.00800           0
        69 MEMB     1        POPC     H11S     HAL2     0.900000E-01   1.00800           0
        70 MEMB     1        POPC     C212     CTL2    -0.180000       12.0110           0
        71 MEMB     1        POPC     H12R     HAL2     0.900000E-01   1.00800           0
        72 MEMB     1        POPC     H12S     HAL2     0.900000E-01   1.00800           0
        73 MEMB     1        POPC     C213     CTL2    -0.180000       12.0110           0
        74 MEMB     1        POPC     H13R     HAL2     0.900000E-01   1.00800           0
        75 MEMB     1        POPC     H13S     HAL2     0.900000E-01   1.00800           0
        76 MEMB     1        POPC     C214     CTL2    -0.180000       12.0110           0
        77 MEMB     1        POPC     H14R     HAL2     0.900000E-01   1.00800           0
        78 MEMB     1        POPC     H14S     HAL2     0.900000E-01   1.00800           0
        79 MEMB     1        POPC     C215     CTL2    -0.180000       12.0110           0
        80 MEMB     1        POPC     H15R     HAL2     0.900000E-01   1.00800           0
        81 MEMB     1        POPC     H15S     HAL2     0.900000E-01   1.00800           0
        82 MEMB     1        POPC     C216     CTL2    -0.180000       12.0110           0
        83 MEMB     1        POPC     H16R     HAL2     0.900000E-01   1.00800           0
        84 MEMB     1        POPC     H16S     HAL2     0.900000E-01   1.00800           0
        85 MEMB     1        POPC     C217     CTL2    -0.180000       12.0110           0
        86 MEMB     1        POPC     H17R     HAL2     0.900000E-01   1.00800           0
        87 MEMB     1        POPC     H17S     HAL2     0.900000E-01   1.00800           0
        88 MEMB     1        POPC     C218     CTL3    -0.270000       12.0110           0
        89 MEMB     1        POPC     H18R     HAL3     0.900000E-01   1.00800           0
        90 MEMB     1        POPC     H18S     HAL3     0.900000E-01   1.00800           0
        91 MEMB     1        POPC     H18T     HAL3     0.900000E-01   1.00800           0
        92 MEMB     1        POPC     C33      CTL2    -0.180000       12.0110           0
        93 MEMB     1        POPC     H3X      HAL2     0.900000E-01   1.00800           0
        94 MEMB     1        POPC     H3Y      HAL2     0.900000E-01   1.00800           0
        95 MEMB     1        POPC     C34      CTL2    -0.180000       12.0110           0
        96 MEMB     1        POPC     H4X      HAL2     0.900000E-01   1.00800           0
        97 MEMB     1        POPC     H4Y      HAL2     0.900000E-01   1.00800           0
        98 MEMB     1        POPC     C35      CTL2    -0.180000       12.0110           0
        99 MEMB     1        POPC     H5X      HAL2     0.900000E-01   1.00800           0
       100 MEMB     1        POPC     H5Y      HAL2     0.900000E-01   1.00800           0
       101 MEMB     1        POPC     C36      CTL2    -0.180000       12.0110           0
       102 MEMB     1        POPC     H6X      HAL2     0.900000E-01   1.00800           0
       103 MEMB     1        POPC     H6Y      HAL2     0.900000E-01   1.00800           0
       104 MEMB     1        POPC     C37      CTL2    -0.180000       12.0110           0
       105 MEMB     1        POPC     H7X      HAL2     0.900000E-01   1.00800           0
       106 MEMB     1        POPC     H7Y      HAL2     0.900000E-01   1.00800           0
       107 MEMB     1        POPC     C38      CTL2    -0.180000       12.0110           0
       108 MEMB     1        POPC     H8X      HAL2     0.900000E-01   1.00800           0
       109 MEMB     1        POPC     H8Y      HAL2     0.900000E-01   1.00800           0
       110 MEMB     1        POPC     C39      CTL2    -0.180000       12.0110           0
       111 MEMB     1        POPC     H9X      HAL2     0.900000E-01   1.00800           0
       112 MEMB     1        POPC     H9Y      HAL2     0.900000E-01   1.00800           0
       113 MEMB     1        POPC     C310     CTL2    -0.180000       12.0110           0
       114 MEMB     1        POPC     H10X     HAL2     0.900000E-01   1.00800           0
       115 MEMB     1        POPC     H10Y     HAL2     0.900000E-01   1.00800           0
       116 MEMB     1        POPC     C311     CTL2    -0.180000       12.0110           0
       117 MEMB     1        POPC     H11X     HAL2     0.900000E-01   1.00800           0
       118 MEMB     1        POPC     H11Y     HAL2     0.900000E-01   1.00800           0
       119 MEMB     1        POPC     C312     CTL2    -0.180000       12.0110           0
       120 MEMB     1        POPC     H12X     HAL2     0.900000E-01   1.00800           0
       121 MEMB     1        POPC     H12Y     HAL2     0.900000E-01   1.00800           0
       122 MEMB     1        POPC     C313     CTL2    -0.180000       12.0110           0
       123 MEMB     1        POPC     H13X     HAL2     0.900000E-01   1.00800           0
       124 MEMB     1        POPC     H13Y     HAL2     0.900000E-01   1.00800           0
       125 MEMB     1        POPC     C314     CTL2    -0.180000       12.0110           0
       126 MEMB     1        POPC     H14X     HAL2     0.900000E-01   1.00800           0
       127 MEMB     1        POPC     H14Y     HAL2     0.900000E-01   1.00800           0
       128 MEMB     1        POPC     C315     CTL2    -0.180000       12.0110           0
       129 MEMB     1        POPC     H15X     HAL2     0.900000E-01   1.00800           0
       130 MEMB     1        POPC     H15Y     HAL2     0.900000E-01   1.00800           0
       131 MEMB     1        POPC     C316     CTL3    -0.270000       12.0110           0
       132 MEMB     1        POPC     H16X     HAL3     0.900000E-01   1.00800           0
       133 MEMB     1        POPC     H16Y     HAL3     0.900000E-01   1.00800           0
       134 MEMB     1        POPC     H16Z     HAL3     0.900000E-01   1.00800           0
       135 MEMB     2        POPC     N        NTL     -0.600000       14.0070           0
       136 MEMB     2        POPC     C12      CTL2    -0.100000       12.0110           0
       137 MEMB     2        POPC     H12A     HL       0.250000       1.00800           0
       138 MEMB     2        POPC     H12B     HL       0.250000       1.00800           0
       139 MEMB     2        POPC     C13      CTL5    -0.350000       12.0110           0
       140 MEMB     2        POPC     H13A     HL       0.250000       1.00800           0
       141 MEMB     2        POPC     H13B     HL       0.250000       1.00800           0
       142 MEMB     2        POPC     H13C     HL       0.250000       1.00800           0
       143 MEMB     2        POPC     C14      CTL5    -0.350000       12.0110           0
       144 MEMB     2        POPC     H14A     HL       0.250000       1.00800           0
       145 MEMB     2        POPC     H14B     HL       0.250000       1.00800           0
       146 MEMB     2        POPC     H14C     HL       0.250000       1.00800           0
       147 MEMB     2        POPC     C15      CTL5    -0.350000       12.0110           0
       148 MEMB     2        POPC     H15A     HL       0.250000       1.00800           0
       149 MEMB     2        POPC     H15B     HL       0.250000       1.00800           0
       150 MEMB     2        POPC     H15C     HL       0.250000       1.00800           0
       151 MEMB     2        POPC     C11      CTL2    -0.800000E-01   12.0110           0
       152 MEMB     2        POPC     H11A     HAL2     0.900000E-01   1.00800           0
       153 MEMB     2        POPC     H11B     HAL2     0.900000E-01   1.00800           0
       154 MEMB     2        POPC     P        PL       1.50000        30.9740           0
       155 MEMB     2        POPC     O13      O2L     -0.780000       15.9994           0
       156 MEMB     2        POPC     O14      O2L     -0.780000       15.9994           0
       157 MEMB     2        POPC     O12      OSLP    -0.570000       15.9994           0
       158 MEMB     2        POPC     O11      OSLP    -0.570000       15.9994           0
       159 MEMB     2        POPC     C1       CTL2    -0.800000E-01   12.0110           0
       160 MEMB     2        POPC     HA       HAL2     0.900000E-01   1.00800           0
       161 MEMB     2        POPC     HB       HAL2     0.900000E-01   1.00800           0
       162 MEMB     2        POPC     C2       CTL1     0.170000       12.0110           0
       163 MEMB     2        POPC     HS       HAL1     0.900000E-01   1.00800           0
       164 MEMB     2        POPC     O21      OSL     -0.490000       15.9994           0
       165 MEMB     2        POPC     C21      CL       0.900000       12.0110           0
       166 MEMB     2        POPC     O22      OBL     -0.630000       15.9994           0
       167 MEMB     2        POPC     C22      CTL2    -0.220000       12.0110           0
       168 MEMB     2        POPC     H2R      HAL2     0.900000E-01   1.00800           0
       169 MEMB     2        POPC     H2S      HAL2     0.900000E-01   1.00800           0
       170 MEMB     2        POPC     C3       CTL2     0.800000E-01   12.0110           0
       171 MEMB     2        POPC     HX       HAL2     0.900000E-01   1.00800           0
       172 MEMB     2        POPC     HY       HAL2     0.900000E-01   1.00800           0
       173 MEMB     2        POPC     O31      OSL     -0.490000       15.9994           0
       174 MEMB     2        POPC     C31      CL       0.900000       12.0110           0
       175 MEMB     2        POPC     O32      OBL     -0.630000       15.9994           0
       176 MEMB     2        POPC     C32      CTL2    -0.220000       12.0110           0
       177 MEMB     2        POPC     H2X      HAL2     0.900000E-01   1.00800           0
       178 MEMB     2        POPC     H2Y      HAL2     0.900000E-01   1.00800           0
       179 MEMB     2        POPC     C23      CTL2    -0.180000       12.0110           0
       180 MEMB     2        POPC     H3R      HAL2     0.900000E-01   1.00800           0
       181 MEMB     2        POPC     H3S      HAL2     0.900000E-01   1.00800           0
       182 MEMB     2        POPC     C24      CTL2    -0.180000       12.0110           0
       183 MEMB     2        POPC     H4R      HAL2     0.900000E-01   1.00800           0
       184 MEMB     2        POPC     H4S      HAL2     0.900000E-01   1.00800           0
       185 MEMB     2        POPC     C25      CTL2    -0.180000       12.0110           0
       186 MEMB     2        POPC     H5R      HAL2     0.900000E-01   1.00800           0
       187 MEMB     2        POPC     H5S      HAL2     0.900000E-01   1.00800           0
       188 MEMB     2        POPC     C26      CTL2    -0.180000       12.0110           0
       189 MEMB     2        POPC     H6R      HAL2     0.900000E-01   1.00800           0
       190 MEMB     2        POPC     H6S      HAL2     0.900000E-01   1.00800           0
       191 MEMB     2        POPC     C27      CTL2    -0.180000       12.0110           0
       192 MEMB     2        POPC     H7R      HAL2     0.900000E-01   1.00800           0
       193 MEMB     2        POPC     H7S      HAL2     0.900000E-01   1.00800           0
       194 MEMB     2        POPC     C28      CTL2    -0.180000       12.0110           0
       195 MEMB     2        POPC     H8R      HAL2     0.900000E-01   1.00800           0
       196 MEMB     2        POPC     H8S      HAL2     0.900000E-01   1.00800           0
       197 MEMB     2        POPC     C29      CEL1    -0.150000       12.0110           0
       198 MEMB     2        POPC     H91      HEL1     0.150000       1.00800           0
       199 MEMB     2        POPC     C210     CEL1    -0.150000       12.0110           0
       200 MEMB     2        POPC     H101     HEL1     0.150000       1.00800           0
       201 MEMB     2        POPC     C211     CTL2    -0.180000       12.0110           0
       202 MEMB     2        POPC     H11R     HAL2     0.900000E-01   1.00800           0
       203 MEMB     2        POPC     H11S     HAL2     0.900000E-01   1.00800           0
       204 MEMB     2        POPC     C212     CTL2    -0.180000       12.0110           0
       205 MEMB     2        POPC     H12R     HAL2     0.900000E-01   1.00800           0
       206 MEMB     2        POPC     H12S     HAL2     0.900000E-01   1.00800           0
       207 MEMB     2        POPC     C213     CTL2    -0.180000       12.0110           0
       208 MEMB     2        POPC     H13R     HAL2     0.900000E-01   1.00800           0
       209 MEMB     2        POPC     H13S     HAL2     0.900000E-01   1.00800           0
       210 MEMB     2        POPC     C214     CTL2    -0.180000       12.0110           0
       211 MEMB     2        POPC     H14R     HAL2     0.900000E-01   1.00800           0
       212 MEMB     2        POPC     H14S     HAL2     0.900000E-01   1.00800           0
       213 MEMB     2        POPC     C215     CTL2    -0.180000       12.0110           0
       214 MEMB     2        POPC     H15R     HAL2     0.900000E-01   1.00800           0
       215 MEMB     2        POPC     H15S     HAL2     0.900000E-01   1.00800           0
       216 MEMB     2        POPC     C216     CTL2    -0.180000       12.0110           0
       217 MEMB     2        POPC     H16R     HAL2     0.900000E-01   1.00800           0
       218 MEMB     2        POPC     H16S     HAL2     0.900000E-01   1.00800           0
       219 MEMB     2        POPC     C217     CTL2    -0.180000       12.0110           0
       220 MEMB     2        POPC     H17R     HAL2     0.900000E-01   1.00800           0
       221 MEMB     2        POPC     H17S     HAL2     0.900000E-01   1.00800           0
       222 MEMB     2        POPC     C218     CTL3    -0.270000       12.0110           0
       223 MEMB     2        POPC     H18R     HAL3     0.900000E-01   1.00800           0
       224 MEMB     2        POPC     H18S     HAL3     0.900000E-01   1.00800           0
       225 MEMB     2        POPC     H18T     HAL3     0.900000E-01   1.00800           0
       226 MEMB     2        POPC     C33      CTL2    -0.180000       12.0110           0
       227 MEMB     2        POPC     H3X      HAL2     0.900000E-01   1.00800           0
       228 MEMB     2        POPC     H3Y      HAL2     0.900000E-01   1.00800           0
       229 MEMB     2        POPC     C34      CTL2    -0.180000       12.0110           0
       230 MEMB     2        POPC     H4X      HAL2     0.900000E-01   1.00800           0
       231 MEMB     2        POPC     H4Y      HAL2     0.900000E-01   1.00800           0
       232 MEMB     2        POPC     C35      CTL2    -0.180000       12.0110           0
       233 MEMB     2        POPC     H5X      HAL2     0.900000E-01   1.00800           0
       234 MEMB     2        POPC     H5Y      HAL2     0.900000E-01   1.00800           0
       235 MEMB     2        POPC     C36      CTL2    -0.180000       12.0110           0
       236 MEMB     2        POPC     H6X      HAL2     0.900000E-01   1.00800           0
       237 MEMB     2        POPC     H6Y      HAL2     0.900000E-01   1.00800           0
       238 MEMB     2        POPC     C37      CTL2    -0.180000       12.0110           0
       239 MEMB     2        POPC     H7X      HAL2     0.900000E-01   1.00800           0
       240 MEMB     2        POPC     H7Y      HAL2     0.900000E-01   1.00800           0
       241 MEMB     2        POPC     C38      CTL2    -0.180000       12.0110           0
       242 MEMB     2        POPC     H8X      HAL2     0.900000E-01   1.00800           0
       243 MEMB     2        POPC     H8Y      HAL2     0.900000E-01   1.00800           0
       244 MEMB     2        POPC     C39      CTL2    -0.180000       12.0110           0
       245 MEMB     2        POPC     H9X      HAL2     0.900000E-01   1.00800           0
       246 MEMB     2        POPC     H9Y      HAL2     0.900000E-01   1.00800           0
       247 MEMB     2        POPC     C310     CTL2    -0.180000       12.0110           0
       248 MEMB     2        POPC     H10X     HAL2     0.900000E-01   1.00800           0
       249 MEMB     2        POPC     H10Y     HAL2     0.900000E-01   1.00800           0
       250 MEMB     2        POPC     C311     CTL2    -0.180000       12.0110           0
       251 MEMB     2        POPC     H11X     HAL2     0.900000E-01   1.00800           0
       252 MEMB     2        POPC     H11Y     HAL2     0.900000E-01   1.00800           0
       253 MEMB     2        POPC     C312     CTL2    -0.180000       12.0110           0
       254 MEMB     2        POPC     H12X     HAL2     0.900000E-01   1.00800           0
       255 MEMB     2        POPC     H12Y     HAL2     0.900000E-01   1.00800           0
       256 MEMB     2        POPC     C313     CTL2    -0.180000       12.0110           0
       257 MEMB     2        POPC     H13X     HAL2     0.900000E-01   1.00800           0
       258 MEMB     2        POPC     H13Y     HAL2     0.900000E-01   1.00800           0
       259 MEMB     2        POPC     C314     CTL2    -0.180000       12.0110           0
       260 MEMB     2        POPC     H14X     HAL2     0.900000E-01   1.00800           0
       261 MEMB     2        POPC     H14Y     HAL2     0.900000E-01   1.00800           0
       262 MEMB     2        POPC     C315     CTL2    -0.180000       12.0110           0
       263 MEMB     2        POPC     H15X     HAL2     0.900000E-01   1.00800           0
       264 MEMB     2        POPC     H15Y     HAL2     0.900000E-01   1.00800           0
       265 MEMB     2        POPC     C316     CTL3    -0.270000       12.0110           0
       266 MEMB     2        POPC     H16X     HAL3     0.900000E-01   1.00800           0
       267 MEMB     2        POPC     H16Y     HAL3     0.900000E-01   1.00800           0
       268 MEMB     2        POPC     H16Z     HAL3     0.900000E-01   1.00800           0
       269 MEMB     3        POPC     N        NTL     -0.600000       14.0070           0
       270 MEMB     3        POPC     C12      CTL2    -0.100000       12.0110           0
       271 MEMB     3        POPC     H12A     HL       0.250000       1.00800           0
       272 MEMB     3        POPC     H12B     HL       0.250000       1.00800           0
       273 MEMB     3        POPC     C13      CTL5    -0.350000       12.0110           0
       274 MEMB     3        POPC     H13A     HL       0.250000       1.00800           0
       275 MEMB     3        POPC     H13B     HL       0.250000       1.00800           0
       276 MEMB     3        POPC     H13C     HL       0.250000       1.00800           0
       277 MEMB     3        POPC     C14      CTL5    -0.350000       12.0110           0
       278 MEMB     3        POPC     H14A     HL       0.250000       1.00800           0
       279 MEMB     3        POPC     H14B     HL       0.250000       1.00800           0
       280 MEMB     3        POPC     H14C     HL       0.250000       1.00800           0
       281 MEMB     3        POPC     C15      CTL5    -0.350000       12.0110           0
       282 MEMB     3        POPC     H15A     HL       0.250000       1.00800           0
       283 MEMB     3        POPC     H15B     HL       0.250000       1.00800           0
       284 MEMB     3        POPC     H15C     HL       0.250000       1.00800           0
       285 MEMB     3        POPC     C11      CTL2    -0.800000E-01   12.0110           0
       286 MEMB     3        POPC     H11A     HAL2     0.900000E-01   1.00800           0
       287 MEMB     3        POPC     H11B     HAL2     0.900000E-01   1.00800           0
       288 MEMB     3        POPC     P        PL       1.50000        30.9740           0
       289 MEMB     3        POPC     O13      O2L     -0.780000       15.9994           0
       290 MEMB     3        POPC     O14      O2L     -0.780000       15.9994           0
       291 MEMB     3        POPC     O12      OSLP    -0.570000       15.9994           0
       292 MEMB     3        POPC     O11      OSLP    -0.570000       15.9994           0
       293 MEMB     3        POPC     C1       CTL2    -0.800000E-01   12.0110           0
       294 MEMB     3        POPC     HA       HAL2     0.900000E-01   1.00800           0
       295 MEMB     3        POPC     HB       HAL2     0.900000E-01   1.00800           0
       296 MEMB     3        POPC     C2       CTL1     0.170000       12.0110           0
       297 MEMB     3        POPC     HS       HAL1     0.900000E-01   1.00800           0
       298 MEMB     3        POPC     O21      OSL     -0.490000       15.9994           0
       299 MEMB     3        POPC     C21      CL       0.900000       12.0110           0
       300 MEMB     3        POPC     O22      OBL     -0.630000       15.9994           0
       301 MEMB     3        POPC     C22      CTL2    -0.220000       12.0110           0
       302 MEMB     3        POPC     H2R      HAL2     0.900000E-01   1.00800           0
       303 MEMB     3        POPC     H2S      HAL2     0.900000E-01   1.00800           0
       304 MEMB     3        POPC     C3       CTL2     0.800000E-01   12.0110           0
       305 MEMB     3        POPC     HX       HAL2     0.900000E-01   1.00800           0
       306 MEMB     3        POPC     HY       HAL2     0.900000E-01   1.00800           0
       307 MEMB     3        POPC     O31      OSL     -0.490000       15.9994           0
       308 MEMB     3        POPC     C31      CL       0.900000       12.0110           0
       309 MEMB     3        POPC     O32      OBL     -0.630000       15.9994           0
       310 MEMB     3        POPC     C32      CTL2    -0.220000       12.0110           0
       311 MEMB     3        POPC     H2X      HAL2     0.900000E-01   1.00800           0
       312 MEMB     3        POPC     H2Y      HAL2     0.900000E-01   1.00800           0
       313 MEMB     3        POPC     C23      CTL2    -0.180000       12.0110           0
       314 MEMB     3        POPC     H3R      HAL2     0.900000E-01   1.00800           0
       315 MEMB     3        POPC     H3S      HAL2     0.900000E-01   1.00800           0
       316 MEMB     3        POPC     C24      CTL2    -0.180000       12.0110           0
       317 MEMB     3        POPC     H4R      HAL2     0.900000E-01   1.00800           0
       318 MEMB     3        POPC     H4S      HAL2     0.900000E-01   1.00800           0
       319 MEMB     3        POPC     C25      CTL2    -0.180000       12.0110           0
       320 MEMB     3        POPC     H5R      HAL2     0.900000E-01   1.00800           0
       321 MEMB     3        POPC     H5S      HAL2     0.900000E-01   1.00800           0
       322 MEMB     3        POPC     C26      CTL2    -0.180000       12.0110           0
       323 MEMB     3        POPC     H6R      HAL2     0.900000E-01   1.00800           0
       324 MEMB     3        POPC     H6S      HAL2     0.900000E-01   1.00800           0
       325 MEMB     3        POPC     C27      CTL2    -0.180000       12.0110           0
       326 MEMB     3        POPC     H7R      HAL2     0.900000E-01   1.00800           0
       327 MEMB     3        POPC     H7S      HAL2     0.900000E-01   1.00800           0
       328 MEMB     3        POPC     C28      CTL2    -0.180000       12.0110           0
       329 MEMB     3        POPC     H8R      HAL2     0.900000E-01   1.00800           0
       330 MEMB     3        POPC     H8S      HAL2     0.900000E-01   1.00800           0
       331 MEMB     3        POPC     C29      CEL1    -0.150000       12.0110           0
       332 MEMB     3        POPC     H91      HEL1     0.150000       1.00800           0
       333 MEMB     3        POPC     C210     CEL1    -0.150000       12.0110           0
       334 MEMB     3        POPC     H101     HEL1     0.150000       1.00800           0
       335 MEMB     3        POPC     C211     CTL2    -0.180000       12.0110           0
       336 MEMB     3        POPC     H11R     HAL2     0.900000E-01   1.00800           0
       337 MEMB     3        POPC     H11S     HAL2     0.900000E-01   1.00800           0
       338 MEMB     3        POPC     C212     CTL2    -0.180000       12.0110           0
       339 MEMB     3        POPC     H12R     HAL2     0.900000E-01   1.00800           0
       340 MEMB     3        POPC     H12S     HAL2     0.900000E-01   1.00800           0
       341 MEMB     3        POPC     C213     CTL2    -0.180000       12.0110           0
       342 MEMB     3        POPC     H13R     HAL2     0.900000E-01   1.00800           0
       343 MEMB     3        POPC     H13S     HAL2     0.900000E-01   1.00800           0
       344 MEMB     3        POPC     C214     CTL2    -0.180000       12.0110           0
       345 MEMB     3        POPC     H14R     HAL2     0.900000E-01   1.00800           0
       346 MEMB     3        POPC     H14S     HAL2     0.900000E-01   1.00800           0
       347 MEMB     3        POPC     C215     CTL2    -0.180000       12.0110           0
       348 MEMB     3        POPC     H15R     HAL2     0.900000E-01   1.00800           0
       349 MEMB     3        POPC     H15S     HAL2     0.900000E-01   1.00800           0
       350 MEMB     3        POPC     C216     CTL2    -0.180000       12.0110           0
       351 MEMB     3        POPC     H16R     HAL2     0.900000E-01   1.00800           0
       352 MEMB     3        POPC     H16S     HAL2     0.900000E-01   1.00800           0
       353 MEMB     3        POPC     C217     CTL2    -0.180000       12.0110           0
       354 MEMB     3        POPC     H17R     HAL2     0.900000E-01   1.00800           0
       355 MEMB     3        POPC     H17S     HAL2     0.900000E-01   1.00800           0
       356 MEMB     3        POPC     C218     CTL3    -0.270000       12.0110           0
       357 MEMB     3        POPC     H18R     HAL3     0.900000E-01   1.00800           0
       358 MEMB     3        POPC     H18S     HAL3     0.900000E-01   1.00800           0
       359 MEMB     3        POPC     H18T     HAL3     0.900000E-01   1.00800           0
       360 MEMB     3        POPC     C33      CTL2    -0.180000       12.0110           0
       361 MEMB     3        POPC     H3X      HAL2     0.900000E-01   1.00800           0
       362 MEMB     3        POPC     H3Y      HAL2     0.900000E-01   1.00800           0
       363 MEMB     3        POPC     C34      CTL2    -0.180000       12.0110           0
       364 MEMB     3        POPC     H4X      HAL2     0.900000E-01   1.00800           0
       365 MEMB     3        POPC     H4Y      HAL2     0.900000E-01   1.00800           0
       366 MEMB     3        POPC     C35      CTL2    -0.180000       12.0110           0
       367 MEMB     3        POPC     H5X      HAL2     0.900000E-01   1.00800           0
       368 MEMB     3        POPC     H5Y      HAL2     0.900000E-01   1.00800           0
       369 MEMB     3        POPC     C36      CTL2    -0.180000       12.0110           0
       370 MEMB     3        POPC     H6X      HAL2     0.900000E-01   1.00800           0
       371 MEMB     3        POPC     H6Y      HAL2     0.900000E-01   1.00800           0
       372 MEMB     3        POPC     C37      CTL2    -0.180000       12.0110           0
       373 MEMB     3        POPC     H7X      HAL2     0.900000E-01   1.00800           0
       374 MEMB     3        POPC     H7Y      HAL2     0.900000E-01   1.00800           0
       375 MEMB     3        POPC     C38      CTL2    -0.180000       12.0110           0
       376 MEMB     3        POPC     H8X      HAL2     0.900000E-01   1.00800           0
       377 MEMB     3        POPC     H8Y      HAL2     0.900000E-01   1.00800           0
       378 MEMB     3        POPC     C39      CTL2    -0.180000       12.0110           0
       379 MEMB     3        POPC     H9X      HAL2     0.900000E-01   1.00800           0
       380 MEMB     3        POPC     H9Y      HAL2     0.900000E-01   1.00800           0
       381 MEMB     3        POPC     C310     CTL2    -0.180000       12.0110           0
       382 MEMB     3        POPC     H10X     HAL2     0.900000E-01   1.00800           0
       383 MEMB     3        POPC     H10Y     HAL2     0.900000E-01   1.00800           0
       384 MEMB     3        POPC     C311     CTL2    -0.180000       12.0110           0
       385 MEMB     3        POPC     H11X     HAL2     0.900000E-01   1.00800           0
       386 MEMB     3        POPC     H11Y     HAL2     0.900000E-01   1.00800           0
       387 MEMB     3        POPC     C312     CTL2    -0.180000       12.0110           0
       388 MEMB     3        POPC     H12X     HAL2     0.900000E-01   1.00800           0
       389 MEMB     3        POPC     H12Y     HAL2     0.900000E-01   1.00800           0
       390 MEMB     3        POPC     C313     CTL2    -0.180000       12.0110           0
       391 MEMB     3        POPC     H13X     HAL2     0.900000E-01   1.00800           0
       392 MEMB     3        POPC     H13Y     HAL2     0.900000E-01   1.00800           0
       393 MEMB     3        POPC     C314     CTL2    -0.180000       12.0110           0
       394 MEMB     3        POPC     H14X     HAL2     0.900000E-01   1.00800           0
       395 MEMB     3        POPC     H14Y     HAL2     0.900000E-01   1.00800           0
       396 MEMB     3        POPC     C315     CTL2    -0.180000       12.0110           0
       397 MEMB     3        POPC     H15X     HAL2     0.900000E-01   1.00800           0
       398 MEMB     3        POPC     H15Y     HAL2     0.900000E-01   1.00800           0
       399 MEMB     3        POPC     C316     CTL3    -0.270000       12.0110           0
       400 MEMB     3        POPC     H16X     HAL3     0.900000E-01   1.00800           0
       401 MEMB     3        POPC     H16Y     HAL3     0.900000E-01   1.00800           0
       402 MEMB     3        POPC     H16Z     HAL3     0.900000E-01   1.00800           0
       403 MEMB     4        POPC     N        NTL     -0.600000       14.0070           0
       404 MEMB     4        POPC     C12      CTL2    -0.100000       12.0110           0
       405 MEMB     4        POPC     H12A     HL       0.250000       1.00800           0
       406 MEMB     4        POPC     H12B     HL       0.250000       1.00800           0
       407 MEMB     4        POPC     C13      CTL5    -0.350000       12.0110           0
       408 MEMB     4        POPC     H13A     HL       0.250000       1.00800           0
       409 MEMB     4        POPC     H13B     HL       0.250000       1.00800           0
       410 MEMB     4        POPC     H13C     HL       0.250000       1.00800           0
       411 MEMB     4        POPC     C14      CTL5    -0.350000       12.0110           0
       412 MEMB     4        POPC     H14A     HL       0.250000       1.00800           0
       413 MEMB     4        POPC     H14B     HL       0.250000       1.00800           0
       414 MEMB     4        POPC     H14C     HL       0.250000       1.00800           0
       415 MEMB     4        POPC     C15      CTL5    -0.350000       12.0110           0
       416 MEMB     4        POPC     H15A     HL       0.250000       1.00800           0
       417 MEMB     4        POPC     H15B     HL       0.250000       1.00800           0
       418 MEMB     4        POPC     H15C     HL       0.250000       1.00800           0
       419 MEMB     4        POPC     C11      CTL2    -0.800000E-01   12.0110           0
       420 MEMB     4        POPC     H11A     HAL2     0.900000E-01   1.00800           0
       421 MEMB     4        POPC     H11B     HAL2     0.900000E-01   1.00800           0
       422 MEMB     4        POPC     P        PL       1.50000        30.9740           0
       423 MEMB     4        POPC     O13      O2L     -0.780000       15.9994           0
       424 MEMB     4        POPC     O14      O2L     -0.780000       15.9994           0
       425 MEMB     4        POPC     O12      OSLP    -0.570000       15.9994           0
       426 MEMB     4        POPC     O11      OSLP    -0.570000       15.9994           0
       427 MEMB     4        POPC     C1       CTL2    -0.800000E-01   12.0110           0
       428 MEMB     4        POPC     HA       HAL2     0.900000E-01   1.00800           0
       429 MEMB     4        POPC     HB       HAL2     0.900000E-01   1.00800           0
       430 MEMB     4        POPC     C2       CTL1     0.170000       12.0110           0
       431 MEMB     4        POPC     HS       HAL1     0.900000E-01   1.00800           0
       432 MEMB     4        POPC     O21      OSL     -0.490000       15.9994           0
       433 MEMB     4        POPC     C21      CL       0.900000       12.0110           0
       434 MEMB     4        POPC     O22      OBL     -0.630000       15.9994           0
       435 MEMB     4        POPC     C22      CTL2    -0.220000       12.0110           0
       436 MEMB     4        POPC     H2R      HAL2     0.900000E-01   1.00800           0
       437 MEMB     4        POPC     H2S      HAL2     0.900000E-01   1.00800           0
       438 MEMB     4        POPC     C3       CTL2     0.800000E-01   12.0110           0
       439 MEMB     4        POPC     HX       HAL2     0.900000E-01   1.00800           0
       440 MEMB     4        POPC     HY       HAL2     0.900000E-01   1.00800           0
       441 MEMB     4        POPC     O31      OSL     -0.490000       15.9994           0
       442 MEMB     4        POPC     C31      CL       0.900000       12.0110           0
       443 MEMB     4        POPC     O32      OBL     -0.630000       15.9994           0
       444 MEMB     4        POPC     C32      CTL2    -0.220000       12.0110           0
       445 MEMB     4        POPC     H2X      HAL2     0.900000E-01   1.00800           0
       446 MEMB     4        POPC     H2Y      HAL2     0.900000E-01   1.00800           0
       447 MEMB     4        POPC     C23      CTL2    -0.180000       12.0110           0
       448 MEMB     4        POPC     H3R      HAL2     0.900000E-01   1.00800           0
       449 MEMB     4        POPC     H3S      HAL2     0.900000E-01   1.00800           0
       450 MEMB     4        POPC     C24      CTL2    -0.180000       12.0110           0
       451 MEMB     4        POPC     H4R      HAL2     0.900000E-01   1.00800           0
       452 MEMB     4        POPC     H4S      HAL2     0.900000E-01   1.00800           0
       453 MEMB     4        POPC     C25      CTL2    -0.180000       12.0110           0
       454 MEMB     4        POPC     H5R      HAL2     0.900000E-01   1.00800           0
       455 MEMB     4        POPC     H5S      HAL2     0.900000E-01   1.00800           0
       456 MEMB     4        POPC     C26      CTL2    -0.180000       12.0110           0
       457 MEMB     4        POPC     H6R      HAL2     0.900000E-01   1.00800           0
       458 MEMB     4        POPC     H6S      HAL2     0.900000E-01   1.00800           0
       459 MEMB     4        POPC     C27      CTL2    -0.180000       12.0110           0
       460 MEMB     4        POPC     H7R      HAL2     0.900000E-01   1.00800           0
       461 MEMB     4        POPC     H7S      HAL2     0.900000E-01   1.00800           0
       462 MEMB     4        POPC     C28      CTL2    -0.180000       12.0110           0
       463 MEMB     4        POPC     H8R      HAL2     0.900000E-01   1.00800           0
       464 MEMB     4        POPC     H8S      HAL2     0.900000E-01   1.00800           0
       465 MEMB     4        POPC     C29      CEL1    -0.150000       12.0110           0
       466 MEMB     4        POPC     H91      HEL1     0.150000       1.00800           0
       467 MEMB     4        POPC     C210     CEL1    -0.150000       12.0110           0
       468 MEMB     4        POPC     H101     HEL1     0.150000       1.00800           0
       469 MEMB     4        POPC     C211     CTL2    -0.180000       12.0110           0
       470 MEMB     4        POPC     H11R     HAL2     0.900000E-01   1.00800           0
       471 MEMB     4        POPC     H11S     HAL2     0.900000E-01   1.00800           0
       472 MEMB     4        POPC     C212     CTL2    -0.180000       12.0110           0
       473 MEMB     4        POPC     H12R     HAL2     0.900000E-01   1.00800           0
       474 MEMB     4        POPC     H12S     HAL2     0.900000E-01   1.00800           0
       475 MEMB     4        POPC     C213     CTL2    -0.180000       12.0110           0
       476 MEMB     4        POPC     H13R     HAL2     0.900000E-01   1.00800           0
       477 MEMB     4        POPC     H13S     HAL2     0.900000E-01   1.00800           0
       478 MEMB     4        POPC     C214     CTL2    -0.180000       12.0110           0
       479 MEMB     4        POPC     H14R     HAL2     0.900000E-01   1.00800           0
       480 MEMB     4        POPC     H14S     HAL2     0.900000E-01   1.00800           0
       481 MEMB     4        POPC     C215     CTL2    -0.180000       12.0110           0
       482 MEMB     4        POPC     H15R     HAL2     0.900000E-01   1.00800           0
       483 MEMB     4        POPC     H15S     HAL2     0.900000E-01   1.00800           0
       484 MEMB     4        POPC     C216     CTL2    -0.180000       12.0110           0
       485 MEMB     4        POPC     H16R     HAL2     0.900000E-01   1.00800           0
       486 MEMB     4        POPC     H16S     HAL2     0.900000E-01   1.00800           0
       487 MEMB     4        POPC     C217     CTL2    -0.180000       12.0110           0
       488 MEMB     4        POPC     H17R     HAL2     0.900000E-01   1.00800           0
       489 MEMB     4        POPC     H17S     HAL2     0.900000E-01   1.00800           0
       490 MEMB     4        POPC     C218     CTL3    -0.270000       12.0110           0
       491 MEMB     4        POPC     H18R     HAL3     0.900000E-01   1.00800           0
       492 MEMB     4        POPC     H18S     HAL3     0.900000E-01   1.00800           0
       493 MEMB     4        POPC     H18T     HAL3     0.900000E-01   1.00800           0
       494 MEMB     4        POPC     C33      CTL2    -0.180000       12.0110           0
       495 MEMB     4        POPC     H3X      HAL2     0.900000E-01   1.00800           0
       496 MEMB     4        POPC     H3Y      HAL2     0.900000E-01   1.00800           0
       497 MEMB     4        POPC     C34      CTL2    -0.180000       12.0110           0
       498 MEMB     4        POPC     H4X      HAL2     0.900000E-01   1.00800           0
       499 MEMB     4        POPC     H4Y      HAL2     0.900000E-01   1.00800           0
       500 MEMB     4        POPC     C35      CTL2    -0.180000       12.0110           0
       501 MEMB     4        POPC     H5X      HAL2     0.900000E-01   1.00800           0
       502 MEMB     4        POPC     H5Y      HAL2     0.900000E-01   1.00800           0
       503 MEMB     4        POPC     C36      CTL2    -0.180000       12.0110           0
       504 MEMB     4        POPC     H6X      HAL2     0.900000E-01   1.00800           0
       505 MEMB     4        POPC     H6Y      HAL2     0.900000E-01   1.00800           0
       506 MEMB     4        POPC     C37      CTL2    -0.180000       12.0110           0
       507 MEMB     4        POPC     H7X      HAL2     0.900000E-01   1.00800           0
       508 MEMB     4        POPC     H7Y      HAL2     0.900000E-01   1.00800           0
       509 MEMB     4        POPC     C38      CTL2    -0.180000       12.0110           0
       510 MEMB     4        POPC     H8X      HAL2     0.900000E-01   1.00800           0
       511 MEMB     4        POPC     H8Y      HAL2     0.900000E-01   1.00800           0
       512 MEMB     4        POPC     C39      CTL2    -0.180000       12.0110           0
       513 MEMB     4        POPC     H9X      HAL2     0.900000E-01   1.00800           0
       514 MEMB     4        POPC     H9Y      HAL2     0.900000E-01   1.00800           0
       515 MEMB     4        POPC     C310     CTL2    -0.180000       12.0110           0
       516 MEMB     4        POPC     H10X     HAL2     0.900000E-01   1.00800           0
       517 MEMB     4        POPC     H10Y     HAL2     0.900000E-01   1.00800           0
       518 MEMB     4        POPC     C311     CTL2    -0.180000       12.0110           0
       519 MEMB     4        POPC     H11X     HAL2     0.900000E-01   1.00800           0
       520 MEMB     4        POPC     H11Y     HAL2     0.900000E-01   1.00800           0
       521 MEMB     4        POPC     C312     CTL2    -0.180000       12.0110           0
       522 MEMB     4        POPC     H12X     HAL2     0.900000E-01   1.00800           0
       523 MEMB     4        POPC     H12Y     HAL2     0.900000E-01   1.00800           0
       524 MEMB     4        POPC     C313     CTL2    -0.180000       12.0110           0
       525 MEMB     4        POPC     H13X     HAL2     0.900000E-01   1.00800           0
       526 MEMB     4        POPC     H13Y     HAL2     0.900000E-01   1.00800           0
       527 MEMB     4        POPC     C314     CTL2    -0.180000       12.0110           0
       528 MEMB     4        POPC     H14X     HAL2     0.900000E-01   1.00800           0
       529 MEMB     4        POPC     H14Y     HAL2     0.900000E-01   1.00800           0
       530 MEMB     4        POPC     C315     CTL2    -0.180000       12.0110           0
       531 MEMB     4        POPC     H15X     HAL2     0.900000E-01   1.00800           0
       532 MEMB     4        POPC     H15Y     HAL2     0.900000E-01   1.00800           0
       533 MEMB     4        POPC     C316     CTL3    -0.270000       12.0110           0
       534 MEMB     4        POPC     H16X     HAL3     0.900000E-01   1.00800           0
       535 MEMB     4        POPC     H16Y     HAL3     0.900000E-01   1.00800           0
       536 MEMB     4        POPC     H16Z     HAL3     0.900000E-01   1.00800           0
       537 MEMB     5        POPC     N        NTL     -0.600000       14.0070           0
       538 MEMB     5        POPC     C12      CTL2    -0.100000       12.0110           0
       539 MEMB     5        POPC     H12A     HL       0.250000       1.00800           0
       540 MEMB     5        POPC     H12B     HL       0.250000       1.00800           0
       541 MEMB     5        POPC     C13      CTL5    -0.350000       12.0110           0
       542 MEMB     5        POPC     H13A     HL       0.250000       1.00800           0
       543 MEMB     5        POPC     H13B     HL       0.250000       1.00800           0
       544 MEMB     5        POPC     H13C     HL       0.250000       1.00800           0
       545 MEMB     5        POPC     C14      CTL5    -0.350000       12.0110           0
       546 MEMB     5        POPC     H14A     HL       0.250000       1.00800           0
       547 MEMB     5        POPC     H14B     HL       0.250000       1.00800           0
       548 MEMB     5        POPC     H14C     HL       0.250000       1.00800           0
       549 MEMB     5        POPC     C15      CTL5    -0.350000       12.0110           0
       550 MEMB     5        POPC     H15A     HL       0.250000       1.00800           0
       551 MEMB     5        POPC     H15B     HL       0.250000       1.00800           0
       552 MEMB     5        POPC     H15C     HL       0.250000       1.00800           0
       553 MEMB     5        POPC     C11      CTL2    -0.800000E-01   12.0110           0
       554 MEMB     5        POPC     H11A     HAL2     0.900000E-01   1.00800           0
       555 MEMB     5        POPC     H11B     HAL2     0.900000E-01   1.00800           0
       556 MEMB     5        POPC     P        PL       1.50000        30.9740           0
       557 MEMB     5        POPC     O13      O2L     -0.780000       15.9994           0
       558 MEMB     5        POPC     O14      O2L     -0.780000       15.9994           0
       559 MEMB     5        POPC     O12      OSLP    -0.570000       15.9994           0
       560 MEMB     5        POPC     O11      OSLP    -0.570000       15.9994           0
       561 MEMB     5        POPC     C1       CTL2    -0.800000E-01   12.0110           0
       562 MEMB     5        POPC     HA       HAL2     0.900000E-01   1.00800           0
       563 MEMB     5        POPC     HB       HAL2     0.900000E-01   1.00800           0
       564 MEMB     5        POPC     C2       CTL1     0.170000       12.0110           0
       565 MEMB     5        POPC     HS       HAL1     0.900000E-01   1.00800           0
       566 MEMB     5        POPC     O21      OSL     -0.490000       15.9994           0
       567 MEMB     5        POPC     C21      CL       0.900000       12.0110           0
       568 MEMB     5        POPC     O22      OBL     -0.630000       15.9994           0
       569 MEMB     5        POPC     C22      CTL2    -0.220000       12.0110           0
       570 MEMB     5        POPC     H2R      HAL2     0.900000E-01   1.00800           0
       571 MEMB     5        POPC     H2S      HAL2     0.900000E-01   1.00800           0
       572 MEMB     5        POPC     C3       CTL2     0.800000E-01   12.0110           0
       573 MEMB     5        POPC     HX       HAL2     0.900000E-01   1.00800           0
       574 MEMB     5        POPC     HY       HAL2     0.900000E-01   1.00800           0
       575 MEMB     5        POPC     O31      OSL     -0.490000       15.9994           0
       576 MEMB     5        POPC     C31      CL       0.900000       12.0110           0
       577 MEMB     5        POPC     O32      OBL     -0.630000       15.9994           0
       578 MEMB     5        POPC     C32      CTL2    -0.220000       12.0110           0
       579 MEMB     5        POPC     H2X      HAL2     0.900000E-01   1.00800           0
       580 MEMB     5        POPC     H2Y      HAL2     0.900000E-01   1.00800           0
       581 MEMB     5        POPC     C23      CTL2    -0.180000       12.0110           0
       582 MEMB     5        POPC     H3R      HAL2     0.900000E-01   1.00800           0
       583 MEMB     5        POPC     H3S      HAL2     0.900000E-01   1.00800           0
       584 MEMB     5        POPC     C24      CTL2    -0.180000       12.0110           0
       585 MEMB     5        POPC     H4R      HAL2     0.900000E-01   1.00800           0
       586 MEMB     5        POPC     H4S      HAL2     0.900000E-01   1.00800           0
       587 MEMB     5        POPC     C25      CTL2    -0.180000       12.0110           0
       588 MEMB     5        POPC     H5R      HAL2     0.900000E-01   1.00800           0
       589 MEMB     5        POPC     H5S      HAL2     0.900000E-01   1.00800           0
       590 MEMB     5        POPC     C26      CTL2    -0.180000       12.0110           0
       591 MEMB     5        POPC     H6R      HAL2     0.900000E-01   1.00800           0
       592 MEMB     5        POPC     H6S      HAL2     0.900000E-01   1.00800           0
       593 MEMB     5        POPC     C27      CTL2    -0.180000       12.0110           0
       594 MEMB     5        POPC     H7R      HAL2     0.900000E-01   1.00800           0
       595 MEMB     5        POPC     H7S      HAL2     0.900000E-01   1.00800           0
       596 MEMB     5        POPC     C28      CTL2    -0.180000       12.0110           0
       597 MEMB     5        POPC     H8R      HAL2     0.900000E-01   1.00800           0
       598 MEMB     5        POPC     H8S      HAL2     0.900000E-01   1.00800           0
       599 MEMB     5        POPC     C29      CEL1    -0.150000       12.0110           0
       600 MEMB     5        POPC     H91      HEL1     0.150000       1.00800           0
       601 MEMB     5        POPC     C210     CEL1    -0.150000       12.0110           0
       602 MEMB     5        POPC     H101     HEL1     0.150000       1.00800           0
       603 MEMB     5        POPC     C211     CTL2    -0.180000       12.0110           0
       604 MEMB     5        POPC     H11R     HAL2     0.900000E-01   1.00800           0
       605 MEMB     5        POPC     H11S     HAL2     0.900000E-01   1.00800           0
       606 MEMB     5        POPC     C212     CTL2    -0.180000       12.0110           0
       607 MEMB     5        POPC     H12R     HAL2     0.900000E-01   1.00800           0
       608 MEMB     5        POPC     H12S     HAL2     0.900000E-01   1.00800           0
       609 MEMB     5        POPC     C213     CTL2    -0.180000       12.0110           0
       610 MEMB     5        POPC     H13R     HAL2     0.900000E-01   1.00800           0
       611 MEMB     5        POPC     H13S     HAL2     0.900000E-01   1.00800           0
       612 MEMB     5        POPC     C214     CTL2    -0.180000       12.0110           0
       613 MEMB     5        POPC     H14R     HAL2     0.900000E-01   1.00800           0
       614 MEMB     5        POPC     H14S     HAL2     0.900000E-01   1.00800           0
       615 MEMB     5        POPC     C215     CTL2    -0.180000       12.0110           0
       616 MEMB     5        POPC     H15R     HAL2     0.900000E-01   1.00800           0
       617 MEMB     5        POPC     H15S     HAL2     0.900000E-01   1.00800           0
       618 MEMB     5        POPC     C216     CTL2    -0.180000       12.0110           0
       619 MEMB     5        POPC     H16R     HAL2     0.900000E-01   1.00800           0
       620 MEMB     5        POPC     H16S     HAL2     0.900000E-01   1.00800           0
       621 MEMB     5        POPC     C217     CTL2    -0.180000       12.0110           0
       622 MEMB     5        POPC     H17R     HAL2     0.900000E-01   1.00800           0
       623 MEMB     5        POPC     H17S     HAL2     0.900000E-01   1.00800           0
       624 MEMB     5        POPC     C218     CTL3    -0.270000       12.0110           0
       625 MEMB     5        POPC     H18R     HAL3     0.900000E-01   1.00800           0
       626 MEMB     5        POPC     H18S     HAL3     0.900000E-01   1.00800           0
       627 MEMB     5        POPC     H18T     HAL3     0.900000E-01   1.00800           0
       628 MEMB     5        POPC     C33      CTL2    -0.180000       12.0110           0
       629 MEMB     5        POPC     H3X      HAL2     0.900000E-01   1.00800           0
       630 MEMB     5        POPC     H3Y      HAL2     0.900000E-01   1.00800           0
       631 MEMB     5        POPC     C34      CTL2    -0.180000       12.0110           0
       632 MEMB     5        POPC     H4X      HAL2     0.900000E-01   1.00800           0
       633 MEMB     5        POPC     H4Y      HAL2     0.900000E-01   1.00800           0
       634 MEMB     5        POPC     C35      CTL2    -0.180000       12.0110           0
       635 MEMB     5        POPC     H5X      HAL2     0.900000E-01   1.00800           0
       636 MEMB     5        POPC     H5Y      HAL2     0.900000E-01   1.00800           0
       637 MEMB     5        POPC     C36      CTL2    -0.180000       12.0110           0
       638 MEMB     5        POPC     H6X      HAL2     0.900000E-01   1.00800           0
       639 MEMB     5        POPC     H6Y      HAL2     0.900000E-01   1.00800           0
       640 MEMB     5        POPC     C37      CTL2    -0.180000       12.0110           0
       641 MEMB     5        POPC     H7X      HAL2     0.900000E-01   1.00800           0
       642 MEMB     5        POPC     H7Y      HAL2     0.900000E-01   1.00800           0
       643 MEMB     5        POPC     C38      CTL2    -0.180000       12.0110           0
       644 MEMB     5        POPC     H8X      HAL2     0.900000E-01   1.00800           0
       645 MEMB     5        POPC     H8Y      HAL2     0.900000E-01   1.00800           0
       646 MEMB     5        POPC     C39      CTL2    -0.180000       12.0110           0
       647 MEMB     5        POPC     H9X      HAL2     0.900000E-01   1.00800           0
       648 MEMB     5        POPC     H9Y      HAL2     0.900000E-01   1.00800           0
       649 MEMB     5        POPC     C310     CTL2    -0.180000       12.0110           0
       650 MEMB     5        POPC     H10X     HAL2     0.900000E-01   1.00800           0
       651 MEMB     5        POPC     H10Y     HAL2     0.900000E-01   1.00800           0
       652 MEMB     5        POPC     C311     CTL2    -0.180000       12.0110           0
       653 MEMB     5        POPC     H11X     HAL2     0.900000E-01   1.00800           0
       654 MEMB     5        POPC     H11Y     HAL2     0.900000E-01   1.00800           0
       655 MEMB     5        POPC     C312     CTL2    -0.180000       12.0110           0
       656 MEMB     5        POPC     H12X     HAL2     0.900000E-01   1.00800           0
       657 MEMB     5        POPC     H12Y     HAL2     0.900000E-01   1.00800           0
       658 MEMB     5        POPC     C313     CTL2    -0.180000       12.0110           0
       659 MEMB     5        POPC     H13X     HAL2     0.900000E-01   1.00800           0
       660 MEMB     5        POPC     H13Y     HAL2     0.900000E-01   1.00800           0
       661 MEMB     5        POPC     C314     CTL2    -0.180000       12.0110           0
       662 MEMB     5        POPC     H14X     HAL2     0.900000E-01   1.00800           0
       663 MEMB     5        POPC     H14Y     HAL2     0.900000E-01   1.00800           0
       664 MEMB     5        POPC     C315     CTL2    -0.180000       12.0110           0
       665 MEMB     5        POPC     H15X     HAL2     0.900000E-01   1.00800           0
       666 MEMB     5        POPC     H15Y     HAL2     0.900000E-01   1.00800           0
       667 MEMB     5        POPC     C316     CTL3    -0.270000       12.0110           0
       668 MEMB     5        POPC     H16X     HAL3     0.900000E-01   1.00800           0
       669 MEMB     5        POPC     H16Y     HAL3     0.900000E-01   1.00800           0
       670 MEMB     5        POPC     H16Z     HAL3     0.900000E-01   1.00800           0
       671 MEMB     6        POPC     N        NTL     -0.600000       14.0070           0
       672 MEMB     6        POPC     C12      CTL2    -0.100000       12.0110           0
       673 MEMB     6        POPC     H12A     HL       0.250000       1.00800           0
       674 MEMB     6        POPC     H12B     HL       0.250000       1.00800           0
       675 MEMB     6        POPC     C13      CTL5    -0.350000       12.0110           0
       676 MEMB     6        POPC     H13A     HL       0.250000       1.00800           0
       677 MEMB     6        POPC     H13B     HL       0.250000       1.00800           0
       678 MEMB     6        POPC     H13C     HL       0.250000       1.00800           0
       679 MEMB     6        POPC     C14      CTL5    -0.350000       12.0110           0
       680 MEMB     6        POPC     H14A     HL       0.250000       1.00800           0
       681 MEMB     6        POPC     H14B     HL       0.250000       1.00800           0
       682 MEMB     6        POPC     H14C     HL       0.250000       1.00800           0
       683 MEMB     6        POPC     C15      CTL5    -0.350000       12.0110           0
       684 MEMB     6        POPC     H15A     HL       0.250000       1.00800           0
       685 MEMB     6        POPC     H15B     HL       0.250000       1.00800           0
       686 MEMB     6        POPC     H15C     HL       0.250000       1.00800           0
       687 MEMB     6        POPC     C11      CTL2    -0.800000E-01   12.0110           0
       688 MEMB     6        POPC     H11A     HAL2     0.900000E-01   1.00800           0
       689 MEMB     6        POPC     H11B     HAL2     0.900000E-01   1.00800           0
       690 MEMB     6        POPC     P        PL       1.50000        30.9740           0
       691 MEMB     6        POPC     O13      O2L     -0.780000       15.9994           0
       692 MEMB     6        POPC     O14      O2L     -0.780000       15.9994           0
       693 MEMB     6        POPC     O12      OSLP    -0.570000       15.9994           0
       694 MEMB     6        POPC     O11      OSLP    -0.570000       15.9994           0
       695 MEMB     6        POPC     C1       CTL2    -0.800000E-01   12.0110           0
       696 MEMB     6        POPC     HA       HAL2     0.900000E-01   1.00800           0
       697 MEMB     6        POPC     HB       HAL2     0.900000E-01   1.00800           0
       698 MEMB     6        POPC     C2       CTL1     0.170000       12.0110           0
       699 MEMB     6        POPC     HS       HAL1     0.900000E-01   1.00800           0
       700 MEMB     6        POPC     O21      OSL     -0.490000       15.9994           0
       701 MEMB     6        POPC     C21      CL       0.900000       12.0110           0
       702 MEMB     6        POPC     O22      OBL     -0.630000       15.9994           0
       703 MEMB     6        POPC     C22      CTL2    -0.220000       12.0110           0
       704 MEMB     6        POPC     H2R      HAL2     0.900000E-01   1.00800           0
       705 MEMB     6        POPC     H2S      HAL2     0.900000E-01   1.00800           0
       706 MEMB     6        POPC     C3       CTL2     0.800000E-01   12.0110           0
       707 MEMB     6        POPC     HX       HAL2     0.900000E-01   1.00800           0
       708 MEMB     6        POPC     HY       HAL2     0.900000E-01   1.00800           0
       709 MEMB     6        POPC     O31      OSL     -0.490000       15.9994           0
       710 MEMB     6        POPC     C31      CL       0.900000       12.0110           0
       711 MEMB     6        POPC     O32      OBL     -0.630000       15.9994           0
       712 MEMB     6        POPC     C32      CTL2    -0.220000       12.0110           0
       713 MEMB     6        POPC     H2X      HAL2     0.900000E-01   1.00800           0
       714 MEMB     6        POPC     H2Y      HAL2     0.900000E-01   1.00800           0
       715 MEMB     6        POPC     C23      CTL2    -0.180000       12.0110           0
       716 MEMB     6        POPC     H3R      HAL2     0.900000E-01   1.00800           0
       717 MEMB     6        POPC     H3S      HAL2     0.900000E-01   1.00800           0
       718 MEMB     6        POPC     C24      CTL2    -0.180000       12.0110           0
       719 MEMB     6        POPC     H4R      HAL2     0.900000E-01   1.00800           0
       720 MEMB     6        POPC     H4S      HAL2     0.900000E-01   1.00800           0
       721 MEMB     6        POPC     C25      CTL2    -0.180000       12.0110           0
       722 MEMB     6        POPC     H5R      HAL2     0.900000E-01   1.00800           0
       723 MEMB     6        POPC     H5S      HAL2     0.900000E-01   1.00800           0
       724 MEMB     6        POPC     C26      CTL2    -0.180000       12.0110           0
       725 MEMB     6        POPC     H6R      HAL2     0.900000E-01   1.00800           0
       726 MEMB     6        POPC     H6S      HAL2     0.900000E-01   1.00800           0
       727 MEMB     6        POPC     C27      CTL2    -0.180000       12.0110           0
       728 MEMB     6        POPC     H7R      HAL2     0.900000E-01   1.00800           0
       729 MEMB     6        POPC     H7S      HAL2     0.900000E-01   1.00800           0
       730 MEMB     6        POPC     C28      CTL2    -0.180000       12.0110           0
       731 MEMB     6        POPC     H8R      HAL2     0.900000E-01   1.00800           0
       732 MEMB     6        POPC     H8S      HAL2     0.900000E-01   1.00800           0
       733 MEMB     6        POPC     C29      CEL1    -0.150000       12.0110           0
       734 MEMB     6        POPC     H91      HEL1     0.150000       1.00800           0
       735 MEMB     6        POPC     C210     CEL1    -0.150000       12.0110           0
       736 MEMB     6        POPC     H101     HEL1     0.150000       1.00800           0
       737 MEMB     6        POPC     C211     CTL2    -0.180000       12.0110           0
       738 MEMB     6        POPC     H11R     HAL2     0.900000E-01   1.00800           0
       739 MEMB     6        POPC     H11S     HAL2     0.900000E-01   1.00800           0
       740 MEMB     6        POPC     C212     CTL2    -0.180000       12.0110           0
       741 MEMB     6        POPC     H12R     HAL2     0.900000E-01   1.00800           0
       742 MEMB     6        POPC     H12S     HAL2     0.900000E-01   1.00800           0
       743 MEMB     6        POPC     C213     CTL2    -0.180000       12.0110           0
       744 MEMB     6        POPC     H13R     HAL2     0.900000E-01   1.00800           0
       745 MEMB     6        POPC     H13S     HAL2     0.900000E-01   1.00800           0
       746 MEMB     6        POPC     C214     CTL2    -0.180000       12.0110           0
       747 MEMB     6        POPC     H14R     HAL2     0.900000E-01   1.00800           0
       748 MEMB     6        POPC     H14S     HAL2     0.900000E-01   1.00800           0
       749 MEMB     6        POPC     C215     CTL2    -0.180000       12.0110           0
       750 MEMB     6        POPC     H15R     HAL2     0.900000E-01   1.00800           0
       751 MEMB     6        POPC     H15S     HAL2     0.900000E-01   1.00800           0
       752 MEMB     6        POPC     C216     CTL2    -0.180000       12.0110           0
       753 MEMB     6        POPC     H16R     HAL2     0.900000E-01   1.00800           0
       754 MEMB     6        POPC     H16S     HAL2     0.900000E-01   1.00800           0
       755 MEMB     6        POPC     C217     CTL2    -0.180000       12.0110           0
       756 MEMB     6        POPC     H17R     HAL2     0.900000E-01   1.00800           0
       757 MEMB     6        POPC     H17S     HAL2     0.900000E-01   1.00800           0
       758 MEMB     6        POPC     C218     CTL3    -0.270000       12.0110           0
       759 MEMB     6        POPC     H18R     HAL3     0.900000E-01   1.00800           0
       760 MEMB     6        POPC     H18S     HAL3     0.900000E-01   1.00800           0
       761 MEMB     6        POPC     H18T     HAL3     0.900000E-01   1.00800           0
       762 MEMB     6        POPC     C33      CTL2    -0.180000       12.0110           0
       763 MEMB     6        POPC     H3X      HAL2     0.900000E-01   1.00800           0
       764 MEMB     6        POPC     H3Y      HAL2     0.900000E-01   1.00800           0
       765 MEMB     6        POPC     C34      CTL2    -0.180000       12.0110           0
       766 MEMB     6        POPC     H4X      HAL2     0.900000E-01   1.00800           0
       767 MEMB     6        POPC     H4Y      HAL2     0.900000E-01   1.00800           0
       768 MEMB     6        POPC     C35      CTL2    -0.180000       12.0110           0
       769 MEMB     6        POPC     H5X      HAL2     0.900000E-01   1.00800           0
       770 MEMB     6        POPC     H5Y      HAL2     0.900000E-01   1.00800           0
       771 MEMB     6        POPC     C36      CTL2    -0.180000       12.0110           0
       772 MEMB     6        POPC     H6X      HAL2     0.900000E-01   1.00800           0
       773 MEMB     6        POPC     H6Y      HAL2     0.900000E-01   1.00800           0
       774 MEMB     6        POPC     C37      CTL2    -0.180000       12.0110           0
       775 MEMB     6        POPC     H7X      HAL2     0.900000E-01   1.00800           0
       776 MEMB     6        POPC     H7Y      HAL2     0.900000E-01   1.00800           0
       777 MEMB     6        POPC     C38      CTL2    -0.180000       12.0110           0
       778 MEMB     6        POPC     H8X      HAL2     0.900000E-01   1.00800           0
       779 MEMB     6        POPC     H8Y      HAL2     0.900000E-01   1.00800           0
       780 MEMB     6        POPC     C39      CTL2    -0.180000       12.0110           0
       781 MEMB     6        POPC     H9X      HAL2     0.900000E-01   1.00800           0
       782 MEMB     6        POPC     H9Y      HAL2     0.900000E-01   1.00800           0
       783 MEMB     6        POPC     C310     CTL2    -0.180000       12.0110           0
       784 MEMB     6        POPC     H10X     HAL2     0.900000E-01   1.00800           0
       785 MEMB     6        POPC     H10Y     HAL2     0.900000E-01   1.00800           0
       786 MEMB     6        POPC     C311     CTL2    -0.180000       12.0110           0
       787 MEMB     6        POPC     H11X     HAL2     0.900000E-01   1.00800           0
       788 MEMB     6        POPC     H11Y     HAL2     0.900000E-01   1.00800           0
       789 MEMB     6        POPC     C312     CTL2    -0.180000       12.0110           0
       790 MEMB     6        POPC     H12X     HAL2     0.900000E-01   1.00800           0
       791 MEMB     6        POPC     H12Y     HAL2     0.900000E-01   1.00800           0
       792 MEMB     6        POPC     C313     CTL2    -0.180000       12.0110           0
       793 MEMB     6        POPC     H13X     HAL2     0.900000E-01   1.00800           0
       794 MEMB     6        POPC     H13Y     HAL2     0.900000E-01   1.00800           0
       795 MEMB     6        POPC     C314     CTL2    -0.180000       12.0110           0
       796 MEMB     6        POPC     H14X     HAL2     0.900000E-01   1.00800           0
       797 MEMB     6        POPC     H14Y     HAL2     0.900000E-01   1.00800           0
       798 MEMB     6        POPC     C315     CTL2    -0.180000       12.0110           0
       799 MEMB     6        POPC     H15X     HAL2     0.900000E-01   1.00800           0
       800 MEMB     6        POPC     H15Y     HAL2     0.900000E-01   1.00800           0
       801 MEMB     6        POPC     C316     CTL3    -0.270000       12.0110           0
       802 MEMB     6        POPC     H16X     HAL3     0.900000E-01   1.00800           0
       803 MEMB     6        POPC     H16Y     HAL3     0.900000E-01   1.00800           0
       804 MEMB     6        POPC     H16Z     HAL3     0.900000E-01   1.00800           0
       805 MEMB     7        POPC     N        NTL     -0.600000       14.0070           0
       806 MEMB     7        POPC     C12      CTL2    -0.100000       12.0110           0
       807 MEMB     7        POPC     H12A     HL       0.250000       1.00800           0
       808 MEMB     7        POPC     H12B     HL       0.250000       1.00800           0
       809 MEMB     7        POPC     C13      CTL5    -0.350000       12.0110           0
       810 MEMB     7        POPC     H13A     HL       0.250000       1.00800           0
       811 MEMB     7        POPC     H13B     HL       0.250000       1.00800           0
       812 MEMB     7        POPC     H13C     HL       0.250000       1.00800           0
       813 MEMB     7        POPC     C14      CTL5    -0.350000       12.0110           0
       814 MEMB     7        POPC     H14A     HL       0.250000       1.00800           0
       815 MEMB     7        POPC     H14B     HL       0.250000       1.00800           0
       816 MEMB     7        POPC     H14C     HL       0.250000       1.00800           0
       817 MEMB     7        POPC     C15      CTL5    -0.350000       12.0110           0
       818 MEMB     7        POPC     H15A     HL       0.250000       1.00800           0
       819 MEMB     7        POPC     H15B     HL       0.250000       1.00800           0
       820 MEMB     7        POPC     H15C     HL       0.250000       1.00800           0
       821 MEMB     7        POPC     C11      CTL2    -0.800000E-01   12.0110           0
       822 MEMB     7        POPC     H11A     HAL2     0.900000E-01   1.00800           0
       823 MEMB     7        POPC     H11B     HAL2     0.900000E-01   1.00800           0
       824 MEMB     7        POPC     P        PL       1.50000        30.9740           0
       825 MEMB     7        POPC     O13      O2L     -0.780000       15.9994           0
       826 MEMB     7        POPC     O14      O2L     -0.780000       15.9994           0
       827 MEMB     7        POPC     O12      OSLP    -0.570000       15.9994           0
       828 MEMB     7        POPC     O11      OSLP    -0.570000       15.9994           0
       829 MEMB     7        POPC     C1       CTL2    -0.800000E-01   12.0110           0
       830 MEMB     7        POPC     HA       HAL2     0.900000E-01   1.00800           0
       831 MEMB     7        POPC     HB       HAL2     0.900000E-01   1.00800           0
       832 MEMB     7        POPC     C2       CTL1     0.170000       12.0110           0
       833 MEMB     7        POPC     HS       HAL1     0.900000E-01   1.00800           0
       834 MEMB     7        POPC     O21      OSL     -0.490000       15.9994           0
       835 MEMB     7        POPC     C21      CL       0.900000       12.0110           0
       836 MEMB     7        POPC     O22      OBL     -0.630000       15.9994           0
       837 MEMB     7        POPC     C22      CTL2    -0.220000       12.0110           0
       838 MEMB     7        POPC     H2R      HAL2     0.900000E-01   1.00800           0
       839 MEMB     7        POPC     H2S      HAL2     0.900000E-01   1.00800           0
       840 MEMB     7        POPC     C3       CTL2     0.800000E-01   12.0110           0
       841 MEMB     7        POPC     HX       HAL2     0.900000E-01   1.00800           0
       842 MEMB     7        POPC     HY       HAL2     0.900000E-01   1.00800           0
       843 MEMB     7        POPC     O31      OSL     -0.490000       15.9994           0
       844 MEMB     7        POPC     C31      CL       0.900000       12.0110           0
       845 MEMB     7        POPC     O32      OBL     -0.630000       15.9994           0
       846 MEMB     7        POPC     C32      CTL2    -0.220000       12.0110           0
       847 MEMB     7        POPC     H2X      HAL2     0.900000E-01   1.00800           0
       848 MEMB     7        POPC     H2Y      HAL2     0.900000E-01   1.00800           0
       849 MEMB     7        POPC     C23      CTL2    -0.180000       12.0110           0
       850 MEMB     7        POPC     H3R      HAL2     0.900000E-01   1.00800           0
       851 MEMB     7        POPC     H3S      HAL2     0.900000E-01   1.00800           0
       852 MEMB     7        POPC     C24      CTL2    -0.180000       12.0110           0
       853 MEMB     7        POPC     H4R      HAL2     0.900000E-01   1.00800           0
       854 MEMB     7        POPC     H4S      HAL2     0.900000E-01   1.00800           0
       855 MEMB     7        POPC     C25      CTL2    -0.180000       12.0110           0
       856 MEMB     7        POPC     H5R      HAL2     0.900000E-01   1.00800           0
       857 MEMB     7        POPC     H5S      HAL2     0.900000E-01   1.00800           0
       858 MEMB     7        POPC     C26      CTL2    -0.180000       12.0110           0
       859 MEMB     7        POPC     H6R      HAL2     0.900000E-01   1.00800           0
       860 MEMB     7        POPC     H6S      HAL2     0.900000E-01   1.00800           0
       861 MEMB     7        POPC     C27      CTL2    -0.180000       12.0110           0
       862 MEMB     7        POPC     H7R      HAL2     0.900000E-01   1.00800           0
       863 MEMB     7        POPC     H7S      HAL2     0.900000E-01   1.00800           0
       864 MEMB     7        POPC     C28      CTL2    -0.180000       12.0110           0
       865 MEMB     7        POPC     H8R      HAL2     0.900000E-01   1.00800           0
       866 MEMB     7        POPC     H8S      HAL2     0.900000E-01   1.00800           0
       867 MEMB     7        POPC     C29      CEL1    -0.150000       12.0110           0
       868 MEMB     7        POPC     H91      HEL1     0.150000       1.00800           0
       869 MEMB     7        POPC     C210     CEL1    -0.150000       12.0110           0
       870 MEMB     7        POPC     H101     HEL1     0.150000       1.00800           0
       871 MEMB     7        POPC     C211     CTL2    -0.180000       12.0110           0
       872 MEMB     7        POPC     H11R     HAL2     0.900000E-01   1.00800           0
       873 MEMB     7        POPC     H11S     HAL2     0.900000E-01   1.00800           0
       874 MEMB     7        POPC     C212     CTL2    -0.180000       12.0110           0
       875 MEMB     7        POPC     H12R     HAL2     0.900000E-01   1.00800           0
       876 MEMB     7        POPC     H12S     HAL2     0.900000E-01   1.00800           0
       877 MEMB     7        POPC     C213     CTL2    -0.180000       12.0110           0
       878 MEMB     7        POPC     H13R     HAL2     0.900000E-01   1.00800           0
       879 MEMB     7        POPC     H13S     HAL2     0.900000E-01   1.00800           0
       880 MEMB     7        POPC     C214     CTL2    -0.180000       12.0110           0
       881 MEMB     7        POPC     H14R     HAL2     0.900000E-01   1.00800           0
       882 MEMB     7        POPC     H14S     HAL2     0.900000E-01   1.00800           0
       883 MEMB     7        POPC     C215     CTL2    -0.180000       12.0110           0
       884 MEMB     7        POPC     H15R     HAL2     0.900000E-01   1.00800           0
       885 MEMB     7        POPC     H15S     HAL2     0.900000E-01   1.00800           0
       886 MEMB     7        POPC     C216     CTL2    -0.180000       12.0110           0
       887 MEMB     7        POPC     H16R     HAL2     0.900000E-01   1.00800           0
       888 MEMB     7        POPC     H16S     HAL2     0.900000E-01   1.00800           0
       889 MEMB     7        POPC     C217     CTL2    -0.180000       12.0110           0
       890 MEMB     7        POPC     H17R     HAL2     0.900000E-01   1.00800           0
       891 MEMB     7        POPC     H17S     HAL2     0.900000E-01   1.00800           0
       892 MEMB     7        POPC     C218     CTL3    -0.270000       12.0110           0
       893 MEMB     7        POPC     H18R     HAL3     0.900000E-01   1.00800           0
       894 MEMB     7        POPC     H18S     HAL3     0.900000E-01   1.00800           0
       895 MEMB     7        POPC     H18T     HAL3     0.900000E-01   1.00800           0
       896 MEMB     7        POPC     C33      CTL2    -0.180000       12.0110           0
       897 MEMB     7        POPC     H3X      HAL2     0.900000E-01   1.00800           0
       898 MEMB     7        POPC     H3Y      HAL2     0.900000E-01   1.00800           0
       899 MEMB     7        POPC     C34      CTL2    -0.180000       12.0110           0
       900 MEMB     7        POPC     H4X      HAL2     0.900000E-01   1.00800           0
       901 MEMB     7        POPC     H4Y      HAL2     0.900000E-01   1.00800           0
       902 MEMB     7        POPC     C35      CTL2    -0.180000       12.0110           0
       903 MEMB     7        POPC     H5X      HAL2     0.900000E-01   1.00800           0
       904 MEMB     7        POPC     H5Y      HAL2     0.900000E-01   1.00800           0
       905 MEMB     7        POPC     C36      CTL2    -0.180000       12.0110           0
       906 MEMB     7        POPC     H6X      HAL2     0.900000E-01   1.00800           0
       907 MEMB     7        POPC     H6Y      HAL2     0.900000E-01   1.00800           0
       908 MEMB     7        POPC     C37      CTL2    -0.180000       12.0110           0
       909 MEMB     7        POPC     H7X      HAL2     0.900000E-01   1.00800           0
       910 MEMB     7        POPC     H7Y      HAL2     0.900000E-01   1.00800           0
       911 MEMB     7        POPC     C38      CTL2    -0.180000       12.0110           0
       912 MEMB     7        POPC     H8X      HAL2     0.900000E-01   1.00800           0
       913 MEMB     7        POPC     H8Y      HAL2     0.900000E-01   1.00800           0
       914 MEMB     7        POPC     C39      CTL2    -0.180000       12.0110           0
       915 MEMB     7        POPC     H9X      HAL2     0.900000E-01   1.00800           0
       916 MEMB     7        POPC     H9Y      HAL2     0.900000E-01   1.00800           0
       917 MEMB     7        POPC     C310     CTL2    -0.180000       12.0110           0
       918 MEMB     7        POPC     H10X     HAL2     0.900000E-01   1.00800           0
       919 MEMB     7        POPC     H10Y     HAL2     0.900000E-01   1.00800           0
       920 MEMB     7        POPC     C311     CTL2    -0.180000       12.0110           0
       921 MEMB     7        POPC     H11X     HAL2     0.900000E-01   1.00800           0
       922 MEMB     7        POPC     H11Y     HAL2     0.900000E-01   1.00800           0
       923 MEMB     7        POPC     C312     CTL2    -0.180000       12.0110           0
       924 MEMB     7        POPC     H12X     HAL2     0.900000E-01   1.00800           0
       925 MEMB     7        POPC     H12Y     HAL2     0.900000E-01   1.00800           0
       926 MEMB     7        POPC     C313     CTL2    -0.180000       12.0110           0
       927 MEMB     7        POPC     H13X     HAL2     0.900000E-01   1.00800           0
       928 MEMB     7        POPC     H13Y     HAL2     0.900000E-01   1.00800           0
       929 MEMB     7        POPC     C314     CTL2    -0.180000       12.0110           0
       930 MEMB     7        POPC     H14X     HAL2     0.900000E-01   1.00800           0
       931 MEMB     7        POPC     H14Y     HAL2     0.900000E-01   1.00800           0
       932 MEMB     7        POPC     C315     CTL2    -0.180000       12.0110           0
       933 MEMB     7        POPC     H15X     HAL2     0.900000E-01   1.00800           0
       934 MEMB     7        POPC     H15Y     HAL2     0.900000E-01   1.00800           0
       935 MEMB     7        POPC     C316     CTL3    -0.270000       12.0110           0
       936 MEMB     7        POPC     H16X     HAL3     0.900000E-01   1.00800           0
       937 MEMB     7        POPC     H16Y     HAL3     0.900000E-01   1.00800           0
       938 MEMB     7        POPC     H16Z     HAL3     0.900000E-01   1.00800           0
       939 MEMB     8        POPC     N        NTL     -0.600000       14.0070           0
       940 MEMB     8        POPC     C12      CTL2    -0.100000       12.0110           0
       941 MEMB     8        POPC     H12A     HL       0.250000       1.00800           0
       942 MEMB     8        POPC     H12B     HL       0.250000       1.00800           0
       943 MEMB     8        POPC     C13      CTL5    -0.350000       12.0110           0
       944 MEMB     8        POPC     H13A     HL       0.250000       1.00800           0
       945 MEMB     8        POPC     H13B     HL       0.250000       1.00800           0
       946 MEMB     8        POPC     H13C     HL       0.250000       1.00800           0
       947 MEMB     8        POPC     C14      CTL5    -0.350000       12.0110           0
       948 MEMB     8        POPC     H14A     HL       0.250000       1.00800           0
       949 MEMB     8        POPC     H14B     HL       0.250000       1.00800           0
       950 MEMB     8        POPC     H14C     HL       0.250000       1.00800           0
       951 MEMB     8        POPC     C15      CTL5    -0.350000       12.0110           0
       952 MEMB     8        POPC     H15A     HL       0.250000       1.00800           0
       953 MEMB     8        POPC     H15B     HL       0.250000       1.00800           0
       954 MEMB     8        POPC     H15C     HL       0.250000       1.00800           0
       955 MEMB     8        POPC     C11      CTL2    -0.800000E-01   12.0110           0
       956 MEMB     8        POPC     H11A     HAL2     0.900000E-01   1.00800           0
       957 MEMB     8        POPC     H11B     HAL2     0.900000E-01   1.00800           0
       958 MEMB     8        POPC     P        PL       1.50000        30.9740           0
       959 MEMB     8        POPC     O13      O2L     -0.780000       15.9994           0
       960 MEMB     8        POPC     O14      O2L     -0.780000       15.9994           0
       961 MEMB     8        POPC     O12      OSLP    -0.570000       15.9994           0
       962 MEMB     8        POPC     O11      OSLP    -0.570000       15.9994           0
       963 MEMB     8        POPC     C1       CTL2    -0.800000E-01   12.0110           0
       964 MEMB     8        POPC     HA       HAL2     0.900000E-01   1.00800           0
       965 MEMB     8        POPC     HB       HAL2     0.900000E-01   1.00800           0
       966 MEMB     8        POPC     C2       CTL1     0.170000       12.0110           0
       967 MEMB     8        POPC     HS       HAL1     0.900000E-01   1.00800           0
       968 MEMB     8        POPC     O21      OSL     -0.490000       15.9994           0
       969 MEMB     8        POPC     C21      CL       0.900000       12.0110           0
       970 MEMB     8        POPC     O22      OBL     -0.630000       15.9994           0
       971 MEMB     8        POPC     C22      CTL2    -0.220000       12.0110           0
       972 MEMB     8        POPC     H2R      HAL2     0.900000E-01   1.00800           0
       973 MEMB     8        POPC     H2S      HAL2     0.900000E-01   1.00800           0
       974 MEMB     8        POPC     C3       CTL2     0.800000E-01   12.0110           0
       975 MEMB     8        POPC     HX       HAL2     0.900000E-01   1.00800           0
       976 MEMB     8        POPC     HY       HAL2     0.900000E-01   1.00800           0
       977 MEMB     8        POPC     O31      OSL     -0.490000       15.9994           0
       978 MEMB     8        POPC     C31      CL       0.900000       12.0110           0
       979 MEMB     8        POPC     O32      OBL     -0.630000       15.9994           0
       980 MEMB     8        POPC     C32      CTL2    -0.220000       12.0110           0
       981 MEMB     8        POPC     H2X      HAL2     0.900000E-01   1.00800           0
       982 MEMB     8        POPC     H2Y      HAL2     0.900000E-01   1.00800           0
       983 MEMB     8        POPC     C23      CTL2    -0.180000       12.0110           0
       984 MEMB     8        POPC     H3R      HAL2     0.900000E-01   1.00800           0
       985 MEMB     8        POPC     H3S      HAL2     0.900000E-01   1.00800           0
       986 MEMB     8        POPC     C24      CTL2    -0.180000       12.0110           0
       987 MEMB     8        POPC     H4R      HAL2     0.900000E-01   1.00800           0
       988 MEMB     8        POPC     H4S      HAL2     0.900000E-01   1.00800           0
       989 MEMB     8        POPC     C25      CTL2    -0.180000       12.0110           0
       990 MEMB     8        POPC     H5R      HAL2     0.900000E-01   1.00800           0
       991 MEMB     8        POPC     H5S      HAL2     0.900000E-01   1.00800           0
       992 MEMB     8        POPC     C26      CTL2    -0.180000       12.0110           0
       993 MEMB     8        POPC     H6R      HAL2     0.900000E-01   1.00800           0
       994 MEMB     8        POPC     H6S      HAL2     0.900000E-01   1.00800           0
       995 MEMB     8        POPC     C27      CTL2    -0.180000       12.0110           0
       996 MEMB     8        POPC     H7R      HAL2     0.900000E-01   1.00800           0
       997 MEMB     8        POPC     H7S      HAL2     0.900000E-01   1.00800           0
       998 MEMB     8        POPC     C28      CTL2    -0.180000       12.0110           0
       999 MEMB     8        POPC     H8R      HAL2     0.900000E-01   1.00800           0
      1000 MEMB     8        POPC     H8S      HAL2     0.900000E-01   1.00800           0
      1001 MEMB     8        POPC     C29      CEL1    -0.150000       12.0110           0
      1002 MEMB     8        POPC     H91      HEL1     0.150000       1.00800           0
      1003 MEMB     8        POPC     C210     CEL1    -0.150000       12.0110           0
      1004 MEMB     8        POPC     H101     HEL1     0.150000       1.00800           0
      1005 MEMB     8        POPC     C211     CTL2    -0.180000       12.0110           0
      1006 MEMB     8        POPC     H11R     HAL2     0.900000E-01   1.00800           0
      1007 MEMB     8        POPC     H11S     HAL2     0.900000E-01   1.00800           0
      1008 MEMB     8        POPC     C212     CTL2    -0.180000       12.0110           0
      1009 MEMB     8        POPC     H12R     HAL2     0.900000E-01   1.00800           0
      1010 MEMB     8        POPC     H12S     HAL2     0.900000E-01   1.00800           0
      1011 MEMB     8        POPC     C213     CTL2    -0.180000       12.0110           0
      1012 MEMB     8        POPC     H13R     HAL2     0.900000E-01   1.00800           0
      1013 MEMB     8        POPC     H13S     HAL2     0.900000E-01   1.00800           0
      1014 MEMB     8        POPC     C214     CTL2    -0.180000       12.0110           0
      1015 MEMB     8        POPC     H14R     HAL2     0.900000E-01   1.00800           0
      1016 MEMB     8        POPC     H14S     HAL2     0.900000E-01   1.00800           0
      1017 MEMB     8        POPC     C215     CTL2    -0.180000       12.0110           0
      1018 MEMB     8        POPC     H15R     HAL2     0.900000E-01   1.00800           0
      1019 MEMB     8        POPC     H15S     HAL2     0.900000E-01   1.00800           0
      1020 MEMB     8        POPC     C216     CTL2    -0.180000       12.0110           0
      1021 MEMB     8        POPC     H16R     HAL2     0.900000E-01   1.00800           0
      1022 MEMB     8        POPC     H16S     HAL2     0.900000E-01   1.00800           0
      1023 MEMB     8        POPC     C217     CTL2    -0.180000       12.0110           0
      1024 MEMB     8        POPC     H17R     HAL2     0.900000E-01   1.00800           0
      1025 MEMB     8        POPC     H17S     HAL2     0.900000E-01   1.00800           0
      1026 MEMB     8        POPC     C218     CTL3    -0.270000       12.0110           0
      1027 MEMB     8        POPC     H18R     HAL3     0.900000E-01   1.00800           0
      1028 MEMB     8        POPC     H18S     HAL3     0.900000E-01   1.00800           0
      1029 MEMB     8        POPC     H18T     HAL3     0.900000E-01   1.00800           0
      1030 MEMB     8        POPC     C33      CTL2    -0.180000       12.0110           0
      1031 MEMB     8        POPC     H3X      HAL2     0.900000E-01   1.00800           0
      1032 MEMB     8        POPC     H3Y      HAL2     0.900000E-01   1.00800           0
      1033 MEMB     8        POPC     C34      CTL2    -0.180000       12.0110           0
      1034 MEMB     8        POPC     H4X      HAL2     0.900000E-01   1.00800           0
      1035 MEMB     8        POPC     H4Y      HAL2     0.900000E-01   1.00800           0
      1036 MEMB     8        POPC     C35      CTL2    -0.180000       12.0110           0
      1037 MEMB     8        POPC     H5X      HAL2     0.900000E-01   1.00800           0
      1038 MEMB     8        POPC     H5Y      HAL2     0.900000E-01   1.00800           0
      1039 MEMB     8        POPC     C36      CTL2    -0.180000       12.0110           0
      1040 MEMB     8        POPC     H6X      HAL2     0.900000E-01   1.00800           0
      1041 MEMB     8        POPC     H6Y      HAL2     0.900000E-01   1.00800           0
      1042 MEMB     8        POPC     C37      CTL2    -0.180000       12.0110           0
      1043 MEMB     8        POPC     H7X      HAL2     0.900000E-01   1.00800           0
      1044 MEMB     8        POPC     H7Y      HAL2     0.900000E-01   1.00800           0
      1045 MEMB     8        POPC     C38      CTL2    -0.180000       12.0110           0
      1046 MEMB     8        POPC     H8X      HAL2     0.900000E-01   1.00800           0
      1047 MEMB     8        POPC     H8Y      HAL2     0.900000E-01   1.00800           0
      1048 MEMB     8        POPC     C39      CTL2    -0.180000       12.0110           0
      1049 MEMB     8        POPC     H9X      HAL2     0.900000E-01   1.00800           0
      1050 MEMB     8        POPC     H9Y      HAL2     0.900000E-01   1.00800           0
      1051 MEMB     8        POPC     C310     CTL2    -0.180000       12.0110           0
      1052 MEMB     8        POPC     H10X     HAL2     0.900000E-01   1.00800           0
      1053 MEMB     8        POPC     H10Y     HAL2     0.900000E-01   1.00800           0
      1054 MEMB     8        POPC     C311     CTL2    -0.180000       12.0110           0
      1055 MEMB     8        POPC     H11X     HAL2     0.900000E-01   1.00800           0
      1056 MEMB     8        POPC     H11Y     HAL2     0.900000E-01   1.00800           0
      1057 MEMB     8        POPC     C312     CTL2    -0.180000       12.0110           0
      1058 MEMB     8        POPC     H12X     HAL2     0.900000E-01   1.00800           0
      1059 MEMB     8        POPC     H12Y     HAL2     0.900000E-01   1.00800           0
      1060 MEMB     8        POPC     C313     CTL2    -0.180000       12.0110           0
      1061 MEMB     8        POPC     H13X     HAL2     0.900000E-01   1.00800           0
      1062 MEMB     8        POPC     H13Y     HAL2     0.900000E-01   1.00800           0
      1063 MEMB     8        POPC     C314     CTL2    -0.180000       12.0110           0
      1064 MEMB     8        POPC     H14X     HAL2     0.900000E-01   1.00800           0
      1065 MEMB     8        POPC     H14Y     HAL2     0.900000E-01   1.00800           0
      1066 MEMB     8        POPC     C315     CTL2    -0.180000       12.0110           0
      1067 MEMB     8        POPC     H15X     HAL2     0.900000E-01   1.00800           0
      1068 MEMB     8        POPC     H15Y     HAL2     0.900000E-01   1.00800           0
      1069 MEMB     8        POPC     C316     CTL3    -0.270000       12.0110           0
      1070 MEMB     8        POPC     H16X     HAL3     0.900000E-01   1.00800           0
      1071 MEMB     8        POPC     H16Y     HAL3     0.900000E-01   1.00800           0
      1072 MEMB     8        POPC     H16Z     HAL3     0.900000E-01   1.00800           0
      1073 MEMB     9        POPC     N        NTL     -0.600000       14.0070           0
      1074 MEMB     9        POPC     C12      CTL2    -0.100000       12.0110           0
      1075 MEMB     9        POPC     H12A     HL       0.250000       1.00800           0
      1076 MEMB     9        POPC     H12B     HL       0.250000       1.00800           0
      1077 MEMB     9        POPC     C13      CTL5    -0.350000       12.0110           0
      1078 MEMB     9        POPC     H13A     HL       0.250000       1.00800           0
      1079 MEMB     9        POPC     H13B     HL       0.250000       1.00800           0
      1080 MEMB     9        POPC     H13C     HL       0.250000       1.00800           0
      1081 MEMB     9        POPC     C14      CTL5    -0.350000       12.0110           0
      1082 MEMB     9        POPC     H14A     HL       0.250000       1.00800           0
      1083 MEMB     9        POPC     H14B     HL       0.250000       1.00800           0
      1084 MEMB     9        POPC     H14C     HL       0.250000       1.00800           0
      1085 MEMB     9        POPC     C15      CTL5    -0.350000       12.0110           0
      1086 MEMB     9        POPC     H15A     HL       0.250000       1.00800           0
      1087 MEMB     9        POPC     H15B     HL       0.250000       1.00800           0
      1088 MEMB     9        POPC     H15C     HL       0.250000       1.00800           0
      1089 MEMB     9        POPC     C11      CTL2    -0.800000E-01   12.0110           0
      1090 MEMB     9        POPC     H11A     HAL2     0.900000E-01   1.00800           0
      1091 MEMB     9        POPC     H11B     HAL2     0.900000E-01   1.00800           0
      1092 MEMB     9        POPC     P        PL       1.50000        30.9740           0
      1093 MEMB     9        POPC     O13      O2L     -0.780000       15.9994           0
      1094 MEMB     9        POPC     O14      O2L     -0.780000       15.9994           0
      1095 MEMB     9        POPC     O12      OSLP    -0.570000       15.9994           0
      1096 MEMB     9        POPC     O11      OSLP    -0.570000       15.9994           0
      1097 MEMB     9        POPC     C1       CTL2    -0.800000E-01   12.0110           0
      1098 MEMB     9        POPC     HA       HAL2     0.900000E-01   1.00800           0
      1099 MEMB     9        POPC     HB       HAL2     0.900000E-01   1.00800           0
      1100 MEMB     9        POPC     C2       CTL1     0.170000       12.0110           0
      1101 MEMB     9        POPC     HS       HAL1     0.900000E-01   1.00800           0
      1102 MEMB     9        POPC     O21      OSL     -0.490000       15.9994           0
      1103 MEMB     9        POPC     C21      CL       0.900000       12.0110           0
      1104 MEMB     9        POPC     O22      OBL     -0.630000       15.9994           0
      1105 MEMB     9        POPC     C22      CTL2    -0.220000       12.0110           0
      1106 MEMB     9        POPC     H2R      HAL2     0.900000E-01   1.00800           0
      1107 MEMB     9        POPC     H2S      HAL2     0.900000E-01   1.00800           0
      1108 MEMB     9        POPC     C3       CTL2     0.800000E-01   12.0110           0
      1109 MEMB     9        POPC     HX       HAL2     0.900000E-01   1.00800           0
      1110 MEMB     9        POPC     HY       HAL2     0.900000E-01   1.00800           0
      1111 MEMB     9        POPC     O31      OSL     -0.490000       15.9994           0
      1112 MEMB     9        POPC     C31      CL       0.900000       12.0110           0
      1113 MEMB     9        POPC     O32      OBL     -0.630000       15.9994           0
      1114 MEMB     9        POPC     C32      CTL2    -0.220000       12.0110           0
      1115 MEMB     9        POPC     H2X      HAL2     0.900000E-01   1.00800           0
      1116 MEMB     9        POPC     H2Y      HAL2     0.900000E-01   1.00800           0
      1117 MEMB     9        POPC     C23      CTL2    -0.180000       12.0110           0
      1118 MEMB     9        POPC     H3R      HAL2     0.900000E-01   1.00800           0
      1119 MEMB     9        POPC     H3S      HAL2     0.900000E-01   1.00800           0
      1120 MEMB     9        POPC     C24      CTL2    -0.180000       12.0110           0
      1121 MEMB     9        POPC     H4R      HAL2     0.900000E-01   1.00800           0
      1122 MEMB     9        POPC     H4S      HAL2     0.900000E-01   1.00800           0
      1123 MEMB     9        POPC     C25      CTL2    -0.180000       12.0110           0
      1124 MEMB     9        POPC     H5R      HAL2     0.900000E-01   1.00800           0
      1125 MEMB     9        POPC     H5S      HAL2     0.900000E-01   1.00800           0
      1126 MEMB     9        POPC     C26      CTL2    -0.180000       12.0110           0
      1127 MEMB     9        POPC     H6R      HAL2     0.900000E-01   1.00800           0
      1128 MEMB     9        POPC     H6S      HAL2     0.900000E-01   1.00800           0
      1129 MEMB     9        POPC     C27      CTL2    -0.180000       12.0110           0
      1130 MEMB     9        POPC     H7R      HAL2     0.900000E-01   1.00800           0
      1131 MEMB     9        POPC     H7S      HAL2     0.900000E-01   1.00800           0
      1132 MEMB     9        POPC     C28      CTL2    -0.180000       12.0110           0
      1133 MEMB     9        POPC     H8R      HAL2     0.900000E-01   1.00800           0
      1134 MEMB     9        POPC     H8S      HAL2     0.900000E-01   1.00800           0
      1135 MEMB     9        POPC     C29      CEL1    -0.150000       12.0110           0
      1136 MEMB     9        POPC     H91      HEL1     0.150000       1.00800           0
      1137 MEMB     9        POPC     C210     CEL1    -0.150000       12.0110           0
      1138 MEMB     9        POPC     H101     HEL1     0.150000       1.00800           0
      1139 MEMB     9        POPC     C211     CTL2    -0.180000       12.0110           0
      1140 MEMB     9        POPC     H11R     HAL2     0.900000E-01   1.00800           0
      1141 MEMB     9        POPC     H11S     HAL2     0.900000E-01   1.00800           0
      1142 MEMB     9        POPC     C212     CTL2    -0.180000       12.0110           0
      1143 MEMB     9        POPC     H12R     HAL2     0.900000E-01   1.00800           0
      1144 MEMB     9        POPC     H12S     HAL2     0.900000E-01   1.00800           0
      1145 MEMB     9        POPC     C213     CTL2    -0.180000       12.0110           0
      1146 MEMB     9        POPC     H13R     HAL2     0.900000E-01   1.00800           0
      1147 MEMB     9        POPC     H13S     HAL2     0.900000E-01   1.00800           0
      1148 MEMB     9        POPC     C214     CTL2    -0.180000       12.0110           0
      1149 MEMB     9        POPC     H14R     HAL2     0.900000E-01   1.00800           0
      1150 MEMB     9        POPC     H14S     HAL2     0.900000E-01   1.00800           0
      1151 MEMB     9        POPC     C215     CTL2    -0.180000       12.0110           0
      1152 MEMB     9        POPC     H15R     HAL2     0.900000E-01   1.00800           0
      1153 MEMB     9        POPC     H15S     HAL2     0.900000E-01   1.00800           0
      1154 MEMB     9        POPC     C216     CTL2    -0.180000       12.0110           0
      1155 MEMB     9        POPC     H16R     HAL2     0.900000E-01   1.00800           0
      1156 MEMB     9        POPC     H16S     HAL2     0.900000E-01   1.00800           0
      1157 MEMB     9        POPC     C217     CTL2    -0.180000       12.0110           0
      1158 MEMB     9        POPC     H17R     HAL2     0.900000E-01   1.00800           0
      1159 MEMB     9        POPC     H17S     HAL2     0.900000E-01   1.00800           0
      1160 MEMB     9        POPC     C218     CTL3    -0.270000       12.0110           0
      1161 MEMB     9        POPC     H18R     HAL3     0.900000E-01   1.00800           0
      1162 MEMB     9        POPC     H18S     HAL3     0.900000E-01   1.00800           0
      1163 MEMB     9        POPC     H18T     HAL3     0.900000E-01   1.00800           0
      1164 MEMB     9        POPC     C33      CTL2    -0.180000       12.0110           0
      1165 MEMB     9        POPC     H3X      HAL2     0.900000E-01   1.00800           0
      1166 MEMB     9        POPC     H3Y      HAL2     0.900000E-01   1.00800           0
      1167 MEMB     9        POPC     C34      CTL2    -0.180000       12.0110           0
      1168 MEMB     9        POPC     H4X      HAL2     0.900000E-01   1.00800           0
      1169 MEMB     9        POPC     H4Y      HAL2     0.900000E-01   1.00800           0
      1170 MEMB     9        POPC     C35      CTL2    -0.180000       12.0110           0
      1171 MEMB     9        POPC     H5X      HAL2     0.900000E-01   1.00800           0
      1172 MEMB     9        POPC     H5Y      HAL2     0.900000E-01   1.00800           0
      1173 MEMB     9        POPC     C36      CTL2    -0.180000       12.0110           0
      1174 MEMB     9        POPC     H6X      HAL2     0.900000E-01   1.00800           0
      1175 MEMB     9        POPC     H6Y      HAL2     0.900000E-01   1.00800           0
      1176 MEMB     9        POPC     C37      CTL2    -0.180000       12.0110           0
      1177 MEMB     9        POPC     H7X      HAL2     0.900000E-01   1.00800           0
      1178 MEMB     9        POPC     H7Y      HAL2     0.900000E-01   1.00800           0
      1179 MEMB     9        POPC     C38      CTL2    -0.180000       12.0110           0
      1180 MEMB     9        POPC     H8X      HAL2     0.900000E-01   1.00800           0
      1181 MEMB     9        POPC     H8Y      HAL2     0.900000E-01   1.00800           0
      1182 MEMB     9        POPC     C39      CTL2    -0.180000       12.0110           0
      1183 MEMB     9        POPC     H9X      HAL2     0.900000E-01   1.00800           0
      1184 MEMB     9        POPC     H9Y      HAL2     0.900000E-01   1.00800           0
      1185 MEMB     9        POPC     C310     CTL2    -0.180000       12.0110           0
      1186 MEMB     9        POPC     H10X     HAL2     0.900000E-01   1.00800           0
      1187 MEMB     9        POPC     H10Y     HAL2     0.900000E-01   1.00800           0
      1188 MEMB     9        POPC     C311     CTL2    -0.180000       12.0110           0
      1189 MEMB     9        POPC     H11X     HAL2     0.900000E-01   1.00800           0
      1190 MEMB     9        POPC     H11Y     HAL2     0.900000E-01   1.00800           0
      1191 MEMB     9        POPC     C312     CTL2    -0.180000       12.0110           0
      1192 MEMB     9        POPC     H12X     HAL2     0.900000E-01   1.00800           0
      1193 MEMB     9        POPC     H12Y     HAL2     0.900000E-01   1.00800           0
      1194 MEMB     9        POPC     C313     CTL2    -0.180000       12.0110           0
      1195 MEMB     9        POPC     H13X     HAL2     0.900000E-01   1.00800           0
      1196 MEMB     9        POPC     H13Y     HAL2     0.900000E-01   1.00800           0
      1197 MEMB     9        POPC     C314     CTL2    -0.180000       12.0110           0
      1198 MEMB     9        POPC     H14X     HAL2     0.900000E-01   1.00800           0
      1199 MEMB     9        POPC     H14Y     HAL2     0.900000E-01   1.00800           0
      1200 MEMB     9        POPC     C315     CTL2    -0.180000       12.0110           0
      1201 MEMB     9        POPC     H15X     HAL2     0.900000E-01   1.00800           0
      1202 MEMB     9        POPC     H15Y     HAL2     0.900000E-01   1.00800           0
      1203 MEMB     9        POPC     C316     CTL3    -0.270000       12.0110           0
      1204 MEMB     9        POPC     H16X     HAL3     0.900000E-01   1.00800           0
      1205 MEMB     9        POPC     H16Y     HAL3     0.900000E-01   1.00800           0
      1206 MEMB     9        POPC     H16Z     HAL3     0.900000E-01   1.00800           0
      1207 MEMB     10       POPC     N        NTL     -0.600000       14.0070           0
      1208 MEMB     10       POPC     C12      CTL2    -0.100000       12.0110           0
      1209 MEMB     10       POPC     H12A     HL       0.250000       1.00800           0
      1210 MEMB     10       POPC     H12B     HL       0.250000       1.00800           0
      1211 MEMB     10       POPC     C13      CTL5    -0.350000       12.0110           0
      1212 MEMB     10       POPC     H13A     HL       0.250000       1.00800           0
      1213 MEMB     10       POPC     H13B     HL       0.250000       1.00800           0
      1214 MEMB     10       POPC     H13C     HL       0.250000       1.00800           0
      1215 MEMB     10       POPC     C14      CTL5    -0.350000       12.0110           0
      1216 MEMB     10       POPC     H14A     HL       0.250000       1.00800           0
      1217 MEMB     10       POPC     H14B     HL       0.250000       1.00800           0
      1218 MEMB     10       POPC     H14C     HL       0.250000       1.00800           0
      1219 MEMB     10       POPC     C15      CTL5    -0.350000       12.0110           0
      1220 MEMB     10       POPC     H15A     HL       0.250000       1.00800           0
      1221 MEMB     10       POPC     H15B     HL       0.250000       1.00800           0
      1222 MEMB     10       POPC     H15C     HL       0.250000       1.00800           0
      1223 MEMB     10       POPC     C11      CTL2    -0.800000E-01   12.0110           0
      1224 MEMB     10       POPC     H11A     HAL2     0.900000E-01   1.00800           0
      1225 MEMB     10       POPC     H11B     HAL2     0.900000E-01   1.00800           0
      1226 MEMB     10       POPC     P        PL       1.50000        30.9740           0
      1227 MEMB     10       POPC     O13      O2L     -0.780000       15.9994           0
      1228 MEMB     10       POPC     O14      O2L     -0.780000       15.9994           0
      1229 MEMB     10       POPC     O12      OSLP    -0.570000       15.9994           0
      1230 MEMB     10       POPC     O11      OSLP    -0.570000       15.9994           0
      1231 MEMB     10       POPC     C1       CTL2    -0.800000E-01   12.0110           0
      1232 MEMB     10       POPC     HA       HAL2     0.900000E-01   1.00800           0
      1233 MEMB     10       POPC     HB       HAL2     0.900000E-01   1.00800           0
      1234 MEMB     10       POPC     C2       CTL1     0.170000       12.0110           0
      1235 MEMB     10       POPC     HS       HAL1     0.900000E-01   1.00800           0
      1236 MEMB     10       POPC     O21      OSL     -0.490000       15.9994           0
      1237 MEMB     10       POPC     C21      CL       0.900000       12.0110           0
      1238 MEMB     10       POPC     O22      OBL     -0.630000       15.9994           0
      1239 MEMB     10       POPC     C22      CTL2    -0.220000       12.0110           0
      1240 MEMB     10       POPC     H2R      HAL2     0.900000E-01   1.00800           0
      1241 MEMB     10       POPC     H2S      HAL2     0.900000E-01   1.00800           0
      1242 MEMB     10       POPC     C3       CTL2     0.800000E-01   12.0110           0
      1243 MEMB     10       POPC     HX       HAL2     0.900000E-01   1.00800           0
      1244 MEMB     10       POPC     HY       HAL2     0.900000E-01   1.00800           0
      1245 MEMB     10       POPC     O31      OSL     -0.490000       15.9994           0
      1246 MEMB     10       POPC     C31      CL       0.900000       12.0110           0
      1247 MEMB     10       POPC     O32      OBL     -0.630000       15.9994           0
      1248 MEMB     10       POPC     C32      CTL2    -0.220000       12.0110           0
      1249 MEMB     10       POPC     H2X      HAL2     0.900000E-01   1.00800           0
      1250 MEMB     10       POPC     H2Y      HAL2     0.900000E-01   1.00800           0
      1251 MEMB     10       POPC     C23      CTL2    -0.180000       12.0110           0
      1252 MEMB     10       POPC     H3R      HAL2     0.900000E-01   1.00800           0
      1253 MEMB     10       POPC     H3S      HAL2     0.900000E-01   1.00800           0
      1254 MEMB     10       POPC     C24      CTL2    -0.180000       12.0110           0
      1255 MEMB     10       POPC     H4R      HAL2     0.900000E-01   1.00800           0
      1256 MEMB     10       POPC     H4S      HAL2     0.900000E-01   1.00800           0
      1257 MEMB     10       POPC     C25      CTL2    -0.180000       12.0110           0
      1258 MEMB     10       POPC     H5R      HAL2     0.900000E-01   1.00800           0
      1259 MEMB     10       POPC     H5S      HAL2     0.900000E-01   1.00800           0
      1260 MEMB     10       POPC     C26      CTL2    -0.180000       12.0110           0
      1261 MEMB     10       POPC     H6R      HAL2     0.900000E-01   1.00800           0
      1262 MEMB     10       POPC     H6S      HAL2     0.900000E-01   1.00800           0
      1263 MEMB     10       POPC     C27      CTL2    -0.180000       12.0110           0
      1264 MEMB     10       POPC     H7R      HAL2     0.900000E-01   1.00800           0
      1265 MEMB     10       POPC     H7S      HAL2     0.900000E-01   1.00800           0
      1266 MEMB     10       POPC     C28      CTL2    -0.180000       12.0110           0
      1267 MEMB     10       POPC     H8R      HAL2     0.900000E-01   1.00800           0
      1268 MEMB     10       POPC     H8S      HAL2     0.900000E-01   1.00800           0
      1269 MEMB     10       POPC     C29      CEL1    -0.150000       12.0110           0
      1270 MEMB     10       POPC     H91      HEL1     0.150000       1.00800           0
      1271 MEMB     10       POPC     C210     CEL1    -0.150000       12.0110           0
      1272 MEMB     10       POPC     H101     HEL1     0.150000       1.00800           0
      1273 MEMB     10       POPC     C211     CTL2    -0.180000       12.0110           0
      1274 MEMB     10       POPC     H11R     HAL2     0.900000E-01   1.00800           0
      1275 MEMB     10       POPC     H11S     HAL2     0.900000E-01   1.00800           0
      1276 MEMB     10       POPC     C212     CTL2    -0.180000       12.0110           0
      1277 MEMB     10       POPC     H12R     HAL2     0.900000E-01   1.00800           0
      1278 MEMB     10       POPC     H12S     HAL2     0.900000E-01   1.00800           0
      1279 MEMB     10       POPC     C213     CTL2    -0.180000       12.0110           0
      1280 MEMB     10       POPC     H13R     HAL2     0.900000E-01   1.00800           0
      1281 MEMB     10       POPC     H13S     HAL2     0.900000E-01   1.00800           0
      1282 MEMB     10       POPC     C214     CTL2    -0.180000       12.0110           0
      1283 MEMB     10       POPC     H14R     HAL2     0.900000E-01   1.00800           0
      1284 MEMB     10       POPC     H14S     HAL2     0.900000E-01   1.00800           0
      1285 MEMB     10       POPC     C215     CTL2    -0.180000       12.0110           0
      1286 MEMB     10       POPC     H15R     HAL2     0.900000E-01   1.00800           0
      1287 MEMB     10       POPC     H15S     HAL2     0.900000E-01   1.00800           0
      1288 MEMB     10       POPC     C216     CTL2    -0.180000       12.0110           0
      1289 MEMB     10       POPC     H16R     HAL2     0.900000E-01   1.00800           0
      1290 MEMB     10       POPC     H16S     HAL2     0.900000E-01   1.00800           0
      1291 MEMB     10       POPC     C217     CTL2    -0.180000       12.0110           0
      1292 MEMB     10       POPC     H17R     HAL2     0.900000E-01   1.00800           0
      1293 MEMB     10       POPC     H17S     HAL2     0.900000E-01   1.00800           0
      1294 MEMB     10       POPC     C218     CTL3    -0.270000       12.0110           0
      1295 MEMB     10       POPC     H18R     HAL3     0.900000E-01   1.00800           0
      1296 MEMB     10       POPC     H18S     HAL3     0.900000E-01   1.00800           0
      1297 MEMB     10       POPC     H18T     HAL3     0.900000E-01   1.00800           0
      1298 MEMB     10       POPC     C33      CTL2    -0.180000       12.0110           0
      1299 MEMB     10       POPC     H3X      HAL2     0.900000E-01   1.00800           0
      1300 MEMB     10       POPC     H3Y      HAL2     0.900000E-01   1.00800           0
      1301 MEMB     10       POPC     C34      CTL2    -0.180000       12.0110           0
      1302 MEMB     10       POPC     H4X      HAL2     0.900000E-01   1.00800           0
      1303 MEMB     10       POPC     H4Y      HAL2     0.900000E-01   1.00800           0
      1304 MEMB     10       POPC     C35      CTL2    -0.180000       12.0110           0
      1305 MEMB     10       POPC     H5X      HAL2     0.900000E-01   1.00800           0
      1306 MEMB     10       POPC     H5Y      HAL2     0.900000E-01   1.00800           0
      1307 MEMB     10       POPC     C36      CTL2    -0.180000       12.0110           0
      1308 MEMB     10       POPC     H6X      HAL2     0.900000E-01   1.00800           0
      1309 MEMB     10       POPC     H6Y      HAL2     0.900000E-01   1.00800           0
      1310 MEMB     10       POPC     C37      CTL2    -0.180000       12.0110           0
      1311 MEMB     10       POPC     H7X      HAL2     0.900000E-01   1.00800           0
      1312 MEMB     10       POPC     H7Y      HAL2     0.900000E-01   1.00800           0
      1313 MEMB     10       POPC     C38      CTL2    -0.180000       12.0110           0
      1314 MEMB     10       POPC     H8X      HAL2     0.900000E-01   1.00800           0
      1315 MEMB     10       POPC     H8Y      HAL2     0.900000E-01   1.00800           0
      1316 MEMB     10       POPC     C39      CTL2    -0.180000       12.0110           0
      1317 MEMB     10       POPC     H9X      HAL2     0.900000E-01   1.00800           0
      1318 MEMB     10       POPC     H9Y      HAL2     0.900000E-01   1.00800           0
      1319 MEMB     10       POPC     C310     CTL2    -0.180000       12.0110           0
      1320 MEMB     10       POPC     H10X     HAL2     0.900000E-01   1.00800           0
      1321 MEMB     10       POPC     H10Y     HAL2     0.900000E-01   1.00800           0
      1322 MEMB     10       POPC     C311     CTL2    -0.180000       12.0110           0
      1323 MEMB     10       POPC     H11X     HAL2     0.900000E-01   1.00800           0
      1324 MEMB     10       POPC     H11Y     HAL2     0.900000E-01   1.00800           0
      1325 MEMB     10       POPC     C312     CTL2    -0.180000       12.0110           0
      1326 MEMB     10       POPC     H12X     HAL2     0.900000E-01   1.00800           0
      1327 MEMB     10       POPC     H12Y     HAL2     0.900000E-01   1.00800           0
      1328 MEMB     10       POPC     C313     CTL2    -0.180000       12.0110           0
      1329 MEMB     10       POPC     H13X     HAL2     0.900000E-01   1.00800           0
      1330 MEMB     10       POPC     H13Y     HAL2     0.900000E-01   1.00800           0
      1331 MEMB     10       POPC     C314     CTL2    -0.180000       12.0110           0
      1332 MEMB     10       POPC     H14X     HAL2     0.900000E-01   1.00800           0
      1333 MEMB     10       POPC     H14Y     HAL2     0.900000E-01   1.00800           0
      1334 MEMB     10       POPC     C315     CTL2    -0.180000       12.0110           0
      1335 MEMB     10       POPC     H15X     HAL2     0.900000E-01   1.00800           0
      1336 MEMB     10       POPC     H15Y     HAL2     0.900000E-01   1.00800           0
      1337 MEMB     10       POPC     C316     CTL3    -0.270000       12.0110           0
      1338 MEMB     10       POPC     H16X     HAL3     0.900000E-01   1.00800           0
      1339 MEMB     10       POPC     H16Y     HAL3     0.900000E-01   1.00800           0
      1340 MEMB     10       POPC     H16Z     HAL3     0.900000E-01   1.00800           0
      1341 MEMB     11       POPC     N        NTL     -0.600000       14.0070           0
      1342 MEMB     11       POPC     C12      CTL2    -0.100000       12.0110           0
      1343 MEMB     11       POPC     H12A     HL       0.250000       1.00800           0
      1344 MEMB     11       POPC     H12B     HL       0.250000       1.00800           0
      1345 MEMB     11       POPC     C13      CTL5    -0.350000       12.0110           0
      1346 MEMB     11       POPC     H13A     HL       0.250000       1.00800           0
      1347 MEMB     11       POPC     H13B     HL       0.250000       1.00800           0
      1348 MEMB     11       POPC     H13C     HL       0.250000       1.00800           0
      1349 MEMB     11       POPC     C14      CTL5    -0.350000       12.0110           0
      1350 MEMB     11       POPC     H14A     HL       0.250000       1.00800           0
      1351 MEMB     11       POPC     H14B     HL       0.250000       1.00800           0
      1352 MEMB     11       POPC     H14C     HL       0.250000       1.00800           0
      1353 MEMB     11       POPC     C15      CTL5    -0.350000       12.0110           0
      1354 MEMB     11       POPC     H15A     HL       0.250000       1.00800           0
      1355 MEMB     11       POPC     H15B     HL       0.250000       1.00800           0
      1356 MEMB     11       POPC     H15C     HL       0.250000       1.00800           0
      1357 MEMB     11       POPC     C11      CTL2    -0.800000E-01   12.0110           0
      1358 MEMB     11       POPC     H11A     HAL2     0.900000E-01   1.00800           0
      1359 MEMB     11       POPC     H11B     HAL2     0.900000E-01   1.00800           0
      1360 MEMB     11       POPC     P        PL       1.50000        30.9740           0
      1361 MEMB     11       POPC     O13      O2L     -0.780000       15.9994           0
      1362 MEMB     11       POPC     O14      O2L     -0.780000       15.9994           0
      1363 MEMB     11       POPC     O12      OSLP    -0.570000       15.9994           0
      1364 MEMB     11       POPC     O11      OSLP    -0.570000       15.9994           0
      1365 MEMB     11       POPC     C1       CTL2    -0.800000E-01   12.0110           0
      1366 MEMB     11       POPC     HA       HAL2     0.900000E-01   1.00800           0
      1367 MEMB     11       POPC     HB       HAL2     0.900000E-01   1.00800           0
      1368 MEMB     11       POPC     C2       CTL1     0.170000       12.0110           0
      1369 MEMB     11       POPC     HS       HAL1     0.900000E-01   1.00800           0
      1370 MEMB     11       POPC     O21      OSL     -0.490000       15.9994           0
      1371 MEMB     11       POPC     C21      CL       0.900000       12.0110           0
      1372 MEMB     11       POPC     O22      OBL     -0.630000       15.9994           0
      1373 MEMB     11       POPC     C22      CTL2    -0.220000       12.0110           0
      1374 MEMB     11       POPC     H2R      HAL2     0.900000E-01   1.00800           0
      1375 MEMB     11       POPC     H2S      HAL2     0.900000E-01   1.00800           0
      1376 MEMB     11       POPC     C3       CTL2     0.800000E-01   12.0110           0
      1377 MEMB     11       POPC     HX       HAL2     0.900000E-01   1.00800           0
      1378 MEMB     11       POPC     HY       HAL2     0.900000E-01   1.00800           0
      1379 MEMB     11       POPC     O31      OSL     -0.490000       15.9994           0
      1380 MEMB     11       POPC     C31      CL       0.900000       12.0110           0
      1381 MEMB     11       POPC     O32      OBL     -0.630000       15.9994           0
      1382 MEMB     11       POPC     C32      CTL2    -0.220000       12.0110           0
      1383 MEMB     11       POPC     H2X      HAL2     0.900000E-01   1.00800           0
      1384 MEMB     11       POPC     H2Y      HAL2     0.900000E-01   1.00800           0
      1385 MEMB     11       POPC     C23      CTL2    -0.180000       12.0110           0
      1386 MEMB     11       POPC     H3R      HAL2     0.900000E-01   1.00800           0
      1387 MEMB     11       POPC     H3S      HAL2     0.900000E-01   1.00800           0
      1388 MEMB     11       POPC     C24      CTL2    -0.180000       12.0110           0
      1389 MEMB     11       POPC     H4R      HAL2     0.900000E-01   1.00800           0
      1390 MEMB     11       POPC     H4S      HAL2     0.900000E-01   1.00800           0
      1391 MEMB     11       POPC     C25      CTL2    -0.180000       12.0110           0
      1392 MEMB     11       POPC     H5R      HAL2     0.900000E-01   1.00800           0
      1393 MEMB     11       POPC     H5S      HAL2     0.900000E-01   1.00800           0
      1394 MEMB     11       POPC     C26      CTL2    -0.180000       12.0110           0
      1395 MEMB     11       POPC     H6R      HAL2     0.900000E-01   1.00800           0
      1396 MEMB     11       POPC     H6S      HAL2     0.900000E-01   1.00800           0
      1397 MEMB     11       POPC     C27      CTL2    -0.180000       12.0110           0
      1398 MEMB     11       POPC     H7R      HAL2     0.900000E-01   1.00800           0
      1399 MEMB     11       POPC     H7S      HAL2     0.900000E-01   1.00800           0
      1400 MEMB     11       POPC     C28      CTL2    -0.180000       12.0110           0
      1401 MEMB     11       POPC     H8R      HAL2     0.900000E-01   1.00800           0
      1402 MEMB     11       POPC     H8S      HAL2     0.900000E-01   1.00800           0
      1403 MEMB     11       POPC     C29      CEL1    -0.150000       12.0110           0
      1404 MEMB     11       POPC     H91      HEL1     0.150000       1.00800           0
      1405 MEMB     11       POPC     C210     CEL1    -0.150000       12.0110           0
      1406 MEMB     11       POPC     H101     HEL1     0.150000       1.00800           0
      1407 MEMB     11       POPC     C211     CTL2    -0.180000       12.0110           0
      1408 MEMB     11       POPC     H11R     HAL2     0.900000E-01   1.00800           0
      1409 MEMB     11       POPC     H11S     HAL2     0.900000E-01   1.00800           0
      1410 MEMB     11       POPC     C212     CTL2    -0.180000       12.0110           0
      1411 MEMB     11       POPC     H12R     HAL2     0.900000E-01   1.00800           0
      1412 MEMB     11       POPC     H12S     HAL2     0.900000E-01   1.00800           0
      1413 MEMB     11       POPC     C213     CTL2    -0.180000       12.0110           0
      1414 MEMB     11       POPC     H13R     HAL2     0.900000E-01   1.00800           0
      1415 MEMB     11       POPC     H13S     HAL2     0.900000E-01   1.00800           0
      1416 MEMB     11       POPC     C214     CTL2    -0.180000       12.0110           0
      1417 MEMB     11       POPC     H14R     HAL2     0.900000E-01   1.00800           0
      1418 MEMB     11       POPC     H14S     HAL2     0.900000E-01   1.00800           0
      1419 MEMB     11       POPC     C215     CTL2    -0.180000       12.0110           0
      1420 MEMB     11       POPC     H15R     HAL2     0.900000E-01   1.00800           0
      1421 MEMB     11       POPC     H15S     HAL2     0.900000E-01   1.00800           0
      1422 MEMB     11       POPC     C216     CTL2    -0.180000       12.0110           0
      1423 MEMB     11       POPC     H16R     HAL2     0.900000E-01   1.00800           0
      1424 MEMB     11       POPC     H16S     HAL2     0.900000E-01   1.00800           0
      1425 MEMB     11       POPC     C217     CTL2    -0.180000       12.0110           0
      1426 MEMB     11       POPC     H17R     HAL2     0.900000E-01   1.00800           0
      1427 MEMB     11       POPC     H17S     HAL2     0.900000E-01   1.00800           0
      1428 MEMB     11       POPC     C218     CTL3    -0.270000       12.0110           0
      1429 MEMB     11       POPC     H18R     HAL3     0.900000E-01   1.00800           0
      1430 MEMB     11       POPC     H18S     HAL3     0.900000E-01   1.00800           0
      1431 MEMB     11       POPC     H18T     HAL3     0.900000E-01   1.00800           0
      1432 MEMB     11       POPC     C33      CTL2    -0.180000       12.0110           0
      1433 MEMB     11       POPC     H3X      HAL2     0.900000E-01   1.00800           0
      1434 MEMB     11       POPC     H3Y      HAL2     0.900000E-01   1.00800           0
      1435 MEMB     11       POPC     C34      CTL2    -0.180000       12.0110           0
      1436 MEMB     11       POPC     H4X      HAL2     0.900000E-01   1.00800           0
      1437 MEMB     11       POPC     H4Y      HAL2     0.900000E-01   1.00800           0
      1438 MEMB     11       POPC     C35      CTL2    -0.180000       12.0110           0
      1439 MEMB     11       POPC     H5X      HAL2     0.900000E-01   1.00800           0
      1440 MEMB     11       POPC     H5Y      HAL2     0.900000E-01   1.00800           0
      1441 MEMB     11       POPC     C36      CTL2    -0.180000       12.0110           0
      1442 MEMB     11       POPC     H6X      HAL2     0.900000E-01   1.00800           0
      1443 MEMB     11       POPC     H6Y      HAL2     0.900000E-01   1.00800           0
      1444 MEMB     11       POPC     C37      CTL2    -0.180000       12.0110           0
      1445 MEMB     11       POPC     H7X      HAL2     0.900000E-01   1.00800           0
      1446 MEMB     11       POPC     H7Y      HAL2     0.900000E-01   1.00800           0
      1447 MEMB     11       POPC     C38      CTL2    -0.180000       12.0110           0
      1448 MEMB     11       POPC     H8X      HAL2     0.900000E-01   1.00800           0
      1449 MEMB     11       POPC     H8Y      HAL2     0.900000E-01   1.00800           0
      1450 MEMB     11       POPC     C39      CTL2    -0.180000       12.0110           0
      1451 MEMB     11       POPC     H9X      HAL2     0.900000E-01   1.00800           0
      1452 MEMB     11       POPC     H9Y      HAL2     0.900000E-01   1.00800           0
      1453 MEMB     11       POPC     C310     CTL2    -0.180000       12.0110           0
      1454 MEMB     11       POPC     H10X     HAL2     0.900000E-01   1.00800           0
      1455 MEMB     11       POPC     H10Y     HAL2     0.900000E-01   1.00800           0
      1456 MEMB     11       POPC     C311     CTL2    -0.180000       12.0110           0
      1457 MEMB     11       POPC     H11X     HAL2     0.900000E-01   1.00800           0
      1458 MEMB     11       POPC     H11Y     HAL2     0.900000E-01   1.00800           0
      1459 MEMB     11       POPC     C312     CTL2    -0.180000       12.0110           0
      1460 MEMB     11       POPC     H12X     HAL2     0.900000E-01   1.00800           0
      1461 MEMB     11       POPC     H12Y     HAL2     0.900000E-01   1.00800           0
      1462 MEMB     11       POPC     C313     CTL2    -0.180000       12.0110           0
      1463 MEMB     11       POPC     H13X     HAL2     0.900000E-01   1.00800           0
      1464 MEMB     11       POPC     H13Y     HAL2     0.900000E-01   1.00800           0
      1465 MEMB     11       POPC     C314     CTL2    -0.180000       12.0110           0
      1466 MEMB     11       POPC     H14X     HAL2     0.900000E-01   1.00800           0
      1467 MEMB     11       POPC     H14Y     HAL2     0.900000E-01   1.00800           0
      1468 MEMB     11       POPC     C315     CTL2    -0.180000       12.0110           0
      1469 MEMB     11       POPC     H15X     HAL2     0.900000E-01   1.00800           0
      1470 MEMB     11       POPC     H15Y     HAL2     0.900000E-01   1.00800           0
      1471 MEMB     11       POPC     C316     CTL3    -0.270000       12.0110           0
      1472 MEMB     11       POPC     H16X     HAL3     0.900000E-01   1.00800           0
      1473 MEMB     11       POPC     H16Y     HAL3     0.900000E-01   1.00800           0
      1474 MEMB     11       POPC     H16Z     HAL3     0.900000E-01   1.00800           0
      1475 MEMB     12       POPC     N        NTL     -0.600000       14.0070           0
      1476 MEMB     12       POPC     C12      CTL2    -0.100000       12.0110           0
      1477 MEMB     12       POPC     H12A     HL       0.250000       1.00800           0
      1478 MEMB     12       POPC     H12B     HL       0.250000       1.00800           0
      1479 MEMB     12       POPC     C13      CTL5    -0.350000       12.0110           0
      1480 MEMB     12       POPC     H13A     HL       0.250000       1.00800           0
      1481 MEMB     12       POPC     H13B     HL       0.250000       1.00800           0
      1482 MEMB     12       POPC     H13C     HL       0.250000       1.00800           0
      1483 MEMB     12       POPC     C14      CTL5    -0.350000       12.0110           0
      1484 MEMB     12       POPC     H14A     HL       0.250000       1.00800           0
      1485 MEMB     12       POPC     H14B     HL       0.250000       1.00800           0
      1486 MEMB     12       POPC     H14C     HL       0.250000       1.00800           0
      1487 MEMB     12       POPC     C15      CTL5    -0.350000       12.0110           0
      1488 MEMB     12       POPC     H15A     HL       0.250000       1.00800           0
      1489 MEMB     12       POPC     H15B     HL       0.250000       1.00800           0
      1490 MEMB     12       POPC     H15C     HL       0.250000       1.00800           0
      1491 MEMB     12       POPC     C11      CTL2    -0.800000E-01   12.0110           0
      1492 MEMB     12       POPC     H11A     HAL2     0.900000E-01   1.00800           0
      1493 MEMB     12       POPC     H11B     HAL2     0.900000E-01   1.00800           0
      1494 MEMB     12       POPC     P        PL       1.50000        30.9740           0
      1495 MEMB     12       POPC     O13      O2L     -0.780000       15.9994           0
      1496 MEMB     12       POPC     O14      O2L     -0.780000       15.9994           0
      1497 MEMB     12       POPC     O12      OSLP    -0.570000       15.9994           0
      1498 MEMB     12       POPC     O11      OSLP    -0.570000       15.9994           0
      1499 MEMB     12       POPC     C1       CTL2    -0.800000E-01   12.0110           0
      1500 MEMB     12       POPC     HA       HAL2     0.900000E-01   1.00800           0
      1501 MEMB     12       POPC     HB       HAL2     0.900000E-01   1.00800           0
      1502 MEMB     12       POPC     C2       CTL1     0.170000       12.0110           0
      1503 MEMB     12       POPC     HS       HAL1     0.900000E-01   1.00800           0
      1504 MEMB     12       POPC     O21      OSL     -0.490000       15.9994           0
      1505 MEMB     12       POPC     C21      CL       0.900000       12.0110           0
      1506 MEMB     12       POPC     O22      OBL     -0.630000       15.9994           0
      1507 MEMB     12       POPC     C22      CTL2    -0.220000       12.0110           0
      1508 MEMB     12       POPC     H2R      HAL2     0.900000E-01   1.00800           0
      1509 MEMB     12       POPC     H2S      HAL2     0.900000E-01   1.00800           0
      1510 MEMB     12       POPC     C3       CTL2     0.800000E-01   12.0110           0
      1511 MEMB     12       POPC     HX       HAL2     0.900000E-01   1.00800           0
      1512 MEMB     12       POPC     HY       HAL2     0.900000E-01   1.00800           0
      1513 MEMB     12       POPC     O31      OSL     -0.490000       15.9994           0
      1514 MEMB     12       POPC     C31      CL       0.900000       12.0110           0
      1515 MEMB     12       POPC     O32      OBL     -0.630000       15.9994           0
      1516 MEMB     12       POPC     C32      CTL2    -0.220000       12.0110           0
      1517 MEMB     12       POPC     H2X      HAL2     0.900000E-01   1.00800           0
      1518 MEMB     12       POPC     H2Y      HAL2     0.900000E-01   1.00800           0
      1519 MEMB     12       POPC     C23      CTL2    -0.180000       12.0110           0
      1520 MEMB     12       POPC     H3R      HAL2     0.900000E-01   1.00800           0
      1521 MEMB     12       POPC     H3S      HAL2     0.900000E-01   1.00800           0
      1522 MEMB     12       POPC     C24      CTL2    -0.180000       12.0110           0
      1523 MEMB     12       POPC     H4R      HAL2     0.900000E-01   1.00800           0
      1524 MEMB     12       POPC     H4S      HAL2     0.900000E-01   1.00800           0
      1525 MEMB     12       POPC     C25      CTL2    -0.180000       12.0110           0
      1526 MEMB     12       POPC     H5R      HAL2     0.900000E-01   1.00800           0
      1527 MEMB     12       POPC     H5S      HAL2     0.900000E-01   1.00800           0
      1528 MEMB     12       POPC     C26      CTL2    -0.180000       12.0110           0
      1529 MEMB     12       POPC     H6R      HAL2     0.900000E-01   1.00800           0
      1530 MEMB     12       POPC     H6S      HAL2     0.900000E-01   1.00800           0
      1531 MEMB     12       POPC     C27      CTL2    -0.180000       12.0110           0
      1532 MEMB     12       POPC     H7R      HAL2     0.900000E-01   1.00800           0
      1533 MEMB     12       POPC     H7S      HAL2     0.900000E-01   1.00800           0
      1534 MEMB     12       POPC     C28      CTL2    -0.180000       12.0110           0
      1535 MEMB     12       POPC     H8R      HAL2     0.900000E-01   1.00800           0
      1536 MEMB     12       POPC     H8S      HAL2     0.900000E-01   1.00800           0
      1537 MEMB     12       POPC     C29      CEL1    -0.150000       12.0110           0
      1538 MEMB     12       POPC     H91      HEL1     0.150000       1.00800           0
      1539 MEMB     12       POPC     C210     CEL1    -0.150000       12.0110           0
      1540 MEMB     12       POPC     H101     HEL1     0.150000       1.00800           0
      1541 MEMB     12       POPC     C211     CTL2    -0.180000       12.0110           0
      1542 MEMB     12       POPC     H11R     HAL2     0.900000E-01   1.00800           0
      1543 MEMB     12       POPC     H11S     HAL2     0.900000E-01   1.00800           0
      1544 MEMB     12       POPC     C212     CTL2    -0.180000       12.0110           0
      1545 MEMB     12       POPC     H12R     HAL2     0.900000E-01   1.00800           0
      1546 MEMB     12       POPC     H12S     HAL2     0.900000E-01   1.00800           0
      1547 MEMB     12       POPC     C213     CTL2    -0.180000       12.0110           0
      1548 MEMB     12       POPC     H13R     HAL2     0.900000E-01   1.00800           0
      1549 MEMB     12       POPC     H13S     HAL2     0.900000E-01   1.00800           0
      1550 MEMB     12       POPC     C214     CTL2    -0.180000       12.0110           0
      1551 MEMB     12       POPC     H14R     HAL2     0.900000E-01   1.00800           0
      1552 MEMB     12       POPC     H14S     HAL2     0.900000E-01   1.00800           0
      1553 MEMB     12       POPC     C215     CTL2    -0.180000       12.0110           0
      1554 MEMB     12       POPC     H15R     HAL2     0.900000E-01   1.00800           0
      1555 MEMB     12       POPC     H15S     HAL2     0.900000E-01   1.00800           0
      1556 MEMB     12       POPC     C216     CTL2    -0.180000       12.0110           0
      1557 MEMB     12       POPC     H16R     HAL2     0.900000E-01   1.00800           0
      1558 MEMB     12       POPC     H16S     HAL2     0.900000E-01   1.00800           0
      1559 MEMB     12       POPC     C217     CTL2    -0.180000       12.0110           0
      1560 MEMB     12       POPC     H17R     HAL2     0.900000E-01   1.00800           0
      1561 MEMB     12       POPC     H17S     HAL2     0.900000E-01   1.00800           0
      1562 MEMB     12       POPC     C218     CTL3    -0.270000       12.0110           0
      1563 MEMB     12       POPC     H18R     HAL3     0.900000E-01   1.00800           0
      1564 MEMB     12       POPC     H18S     HAL3     0.900000E-01   1.00800           0
      1565 MEMB     12       POPC     H18T     HAL3     0.900000E-01   1.00800           0
      1566 MEMB     12       POPC     C33      CTL2    -0.180000       12.0110           0
      1567 MEMB     12       POPC     H3X      HAL2     0.900000E-01   1.00800           0
      1568 MEMB     12       POPC     H3Y      HAL2     0.900000E-01   1.00800           0
      1569 MEMB     12       POPC     C34      CTL2    -0.180000       12.0110           0
      1570 MEMB     12       POPC     H4X      HAL2     0.900000E-01   1.00800           0
      1571 MEMB     12       POPC     H4Y      HAL2     0.900000E-01   1.00800           0
      1572 MEMB     12       POPC     C35      CTL2    -0.180000       12.0110           0
      1573 MEMB     12       POPC     H5X      HAL2     0.900000E-01   1.00800           0
      1574 MEMB     12       POPC     H5Y      HAL2     0.900000E-01   1.00800           0
      1575 MEMB     12       POPC     C36      CTL2    -0.180000       12.0110           0
      1576 MEMB     12       POPC     H6X      HAL2     0.900000E-01   1.00800           0
      1577 MEMB     12       POPC     H6Y      HAL2     0.900000E-01   1.00800           0
      1578 MEMB     12       POPC     C37      CTL2    -0.180000       12.0110           0
      1579 MEMB     12       POPC     H7X      HAL2     0.900000E-01   1.00800           0
      1580 MEMB     12       POPC     H7Y      HAL2     0.900000E-01   1.00800           0
      1581 MEMB     12       POPC     C38      CTL2    -0.180000       12.0110           0
      1582 MEMB     12       POPC     H8X      HAL2     0.900000E-01   1.00800           0
      1583 MEMB     12       POPC     H8Y      HAL2     0.900000E-01   1.00800           0
      1584 MEMB     12       POPC     C39      CTL2    -0.180000       12.0110           0
      1585 MEMB     12       POPC     H9X      HAL2     0.900000E-01   1.00800           0
      1586 MEMB     12       POPC     H9Y      HAL2     0.900000E-01   1.00800           0
      1587 MEMB     12       POPC     C310     CTL2    -0.180000       12.0110           0
      1588 MEMB     12       POPC     H10X     HAL2     0.900000E-01   1.00800           0
      1589 MEMB     12       POPC     H10Y     HAL2     0.900000E-01   1.00800           0
      1590 MEMB     12       POPC     C311     CTL2    -0.180000       12.0110           0
      1591 MEMB     12       POPC     H11X     HAL2     0.900000E-01   1.00800           0
      1592 MEMB     12       POPC     H11Y     HAL2     0.900000E-01   1.00800           0
      1593 MEMB     12       POPC     C312     CTL2    -0.180000       12.0110           0
      1594 MEMB     12       POPC     H12X     HAL2     0.900000E-01   1.00800           0
      1595 MEMB     12       POPC     H12Y     HAL2     0.900000E-01   1.00800           0
      1596 MEMB     12       POPC     C313     CTL2    -0.180000       12.0110           0
      1597 MEMB     12       POPC     H13X     HAL2     0.900000E-01   1.00800           0
      1598 MEMB     12       POPC     H13Y     HAL2     0.900000E-01   1.00800           0
      1599 MEMB     12       POPC     C314     CTL2    -0.180000       12.0110           0
      1600 MEMB     12       POPC     H14X     HAL2     0.900000E-01   1.00800           0
      1601 MEMB     12       POPC     H14Y     HAL2     0.900000E-01   1.00800           0
      1602 MEMB     12       POPC     C315     CTL2    -0.180000       12.0110           0
      1603 MEMB     12       POPC     H15X     HAL2     0.900000E-01   1.00800           0
      1604 MEMB     12       POPC     H15Y     HAL2     0.900000E-01   1.00800           0
      1605 MEMB     12       POPC     C316     CTL3    -0.270000       12.0110           0
      1606 MEMB     12       POPC     H16X     HAL3     0.900000E-01   1.00800           0
      1607 MEMB     12       POPC     H16Y     HAL3     0.900000E-01   1.00800           0
      1608 MEMB     12       POPC     H16Z     HAL3     0.900000E-01   1.00800           0
      1609 MEMB     13       POPC     N        NTL     -0.600000       14.0070           0
      1610 MEMB     13       POPC     C12      CTL2    -0.100000       12.0110           0
      1611 MEMB     13       POPC     H12A     HL       0.250000       1.00800           0
      1612 MEMB     13       POPC     H12B     HL       0.250000       1.00800           0
      1613 MEMB     13       POPC     C13      CTL5    -0.350000       12.0110           0
      1614 MEMB     13       POPC     H13A     HL       0.250000       1.00800           0
      1615 MEMB     13       POPC     H13B     HL       0.250000       1.00800           0
      1616 MEMB     13       POPC     H13C     HL       0.250000       1.00800           0
      1617 MEMB     13       POPC     C14      CTL5    -0.350000       12.0110           0
      1618 MEMB     13       POPC     H14A     HL       0.250000       1.00800           0
      1619 MEMB     13       POPC     H14B     HL       0.250000       1.00800           0
      1620 MEMB     13       POPC     H14C     HL       0.250000       1.00800           0
      1621 MEMB     13       POPC     C15      CTL5    -0.350000       12.0110           0
      1622 MEMB     13       POPC     H15A     HL       0.250000       1.00800           0
      1623 MEMB     13       POPC     H15B     HL       0.250000       1.00800           0
      1624 MEMB     13       POPC     H15C     HL       0.250000       1.00800           0
      1625 MEMB     13       POPC     C11      CTL2    -0.800000E-01   12.0110           0
      1626 MEMB     13       POPC     H11A     HAL2     0.900000E-01   1.00800           0
      1627 MEMB     13       POPC     H11B     HAL2     0.900000E-01   1.00800           0
      1628 MEMB     13       POPC     P        PL       1.50000        30.9740           0
      1629 MEMB     13       POPC     O13      O2L     -0.780000       15.9994           0
      1630 MEMB     13       POPC     O14      O2L     -0.780000       15.9994           0
      1631 MEMB     13       POPC     O12      OSLP    -0.570000       15.9994           0
      1632 MEMB     13       POPC     O11      OSLP    -0.570000       15.9994           0
      1633 MEMB     13       POPC     C1       CTL2    -0.800000E-01   12.0110           0
      1634 MEMB     13       POPC     HA       HAL2     0.900000E-01   1.00800           0
      1635 MEMB     13       POPC     HB       HAL2     0.900000E-01   1.00800           0
      1636 MEMB     13       POPC     C2       CTL1     0.170000       12.0110           0
      1637 MEMB     13       POPC     HS       HAL1     0.900000E-01   1.00800           0
      1638 MEMB     13       POPC     O21      OSL     -0.490000       15.9994           0
      1639 MEMB     13       POPC     C21      CL       0.900000       12.0110           0
      1640 MEMB     13       POPC     O22      OBL     -0.630000       15.9994           0
      1641 MEMB     13       POPC     C22      CTL2    -0.220000       12.0110           0
      1642 MEMB     13       POPC     H2R      HAL2     0.900000E-01   1.00800           0
      1643 MEMB     13       POPC     H2S      HAL2     0.900000E-01   1.00800           0
      1644 MEMB     13       POPC     C3       CTL2     0.800000E-01   12.0110           0
      1645 MEMB     13       POPC     HX       HAL2     0.900000E-01   1.00800           0
      1646 MEMB     13       POPC     HY       HAL2     0.900000E-01   1.00800           0
      1647 MEMB     13       POPC     O31      OSL     -0.490000       15.9994           0
      1648 MEMB     13       POPC     C31      CL       0.900000       12.0110           0
      1649 MEMB     13       POPC     O32      OBL     -0.630000       15.9994           0
      1650 MEMB     13       POPC     C32      CTL2    -0.220000       12.0110           0
      1651 MEMB     13       POPC     H2X      HAL2     0.900000E-01   1.00800           0
      1652 MEMB     13       POPC     H2Y      HAL2     0.900000E-01   1.00800           0
      1653 MEMB     13       POPC     C23      CTL2    -0.180000       12.0110           0
      1654 MEMB     13       POPC     H3R      HAL2     0.900000E-01   1.00800           0
      1655 MEMB     13       POPC     H3S      HAL2     0.900000E-01   1.00800           0
      1656 MEMB     13       POPC     C24      CTL2    -0.180000       12.0110           0
      1657 MEMB     13       POPC     H4R      HAL2     0.900000E-01   1.00800           0
      1658 MEMB     13       POPC     H4S      HAL2     0.900000E-01   1.00800           0
      1659 MEMB     13       POPC     C25      CTL2    -0.180000       12.0110           0
      1660 MEMB     13       POPC     H5R      HAL2     0.900000E-01   1.00800           0
      1661 MEMB     13       POPC     H5S      HAL2     0.900000E-01   1.00800           0
      1662 MEMB     13       POPC     C26      CTL2    -0.180000       12.0110           0
      1663 MEMB     13       POPC     H6R      HAL2     0.900000E-01   1.00800           0
      1664 MEMB     13       POPC     H6S      HAL2     0.900000E-01   1.00800           0
      1665 MEMB     13       POPC     C27      CTL2    -0.180000       12.0110           0
      1666 MEMB     13       POPC     H7R      HAL2     0.900000E-01   1.00800           0
      1667 MEMB     13       POPC     H7S      HAL2     0.900000E-01   1.00800           0
      1668 MEMB     13       POPC     C28      CTL2    -0.180000       12.0110           0
      1669 MEMB     13       POPC     H8R      HAL2     0.900000E-01   1.00800           0
      1670 MEMB     13       POPC     H8S      HAL2     0.900000E-01   1.00800           0
      1671 MEMB     13       POPC     C29      CEL1    -0.150000       12.0110           0
      1672 MEMB     13       POPC     H91      HEL1     0.150000       1.00800           0
      1673 MEMB     13       POPC     C210     CEL1    -0.150000       12.0110           0
      1674 MEMB     13       POPC     H101     HEL1     0.150000       1.00800           0
      1675 MEMB     13       POPC     C211     CTL2    -0.180000       12.0110           0
      1676 MEMB     13       POPC     H11R     HAL2     0.900000E-01   1.00800           0
      1677 MEMB     13       POPC     H11S     HAL2     0.900000E-01   1.00800           0
      1678 MEMB     13       POPC     C212     CTL2    -0.180000       12.0110           0
      1679 MEMB     13       POPC     H12R     HAL2     0.900000E-01   1.00800           0
      1680 MEMB     13       POPC     H12S     HAL2     0.900000E-01   1.00800           0
      1681 MEMB     13       POPC     C213     CTL2    -0.180000       12.0110           0
      1682 MEMB     13       POPC     H13R     HAL2     0.900000E-01   1.00800           0
      1683 MEMB     13       POPC     H13S     HAL2     0.900000E-01   1.00800           0
      1684 MEMB     13       POPC     C214     CTL2    -0.180000       12.0110           0
      1685 MEMB     13       POPC     H14R     HAL2     0.900000E-01   1.00800           0
      1686 MEMB     13       POPC     H14S     HAL2     0.900000E-01   1.00800           0
      1687 MEMB     13       POPC     C215     CTL2    -0.180000       12.0110           0
      1688 MEMB     13       POPC     H15R     HAL2     0.900000E-01   1.00800           0
      1689 MEMB     13       POPC     H15S     HAL2     0.900000E-01   1.00800           0
      1690 MEMB     13       POPC     C216     CTL2    -0.180000       12.0110           0
      1691 MEMB     13       POPC     H16R     HAL2     0.900000E-01   1.00800           0
      1692 MEMB     13       POPC     H16S     HAL2     0.900000E-01   1.00800           0
      1693 MEMB     13       POPC     C217     CTL2    -0.180000       12.0110           0
      1694 MEMB     13       POPC     H17R     HAL2     0.900000E-01   1.00800           0
      1695 MEMB     13       POPC     H17S     HAL2     0.900000E-01   1.00800           0
      1696 MEMB     13       POPC     C218     CTL3    -0.270000       12.0110           0
      1697 MEMB     13       POPC     H18R     HAL3     0.900000E-01   1.00800           0
      1698 MEMB     13       POPC     H18S     HAL3     0.900000E-01   1.00800           0
      1699 MEMB     13       POPC     H18T     HAL3     0.900000E-01   1.00800           0
      1700 MEMB     13       POPC     C33      CTL2    -0.180000       12.0110           0
      1701 MEMB     13       POPC     H3X      HAL2     0.900000E-01   1.00800           0
      1702 MEMB     13       POPC     H3Y      HAL2     0.900000E-01   1.00800           0
      1703 MEMB     13       POPC     C34      CTL2    -0.180000       12.0110           0
      1704 MEMB     13       POPC     H4X      HAL2     0.900000E-01   1.00800           0
      1705 MEMB     13       POPC     H4Y      HAL2     0.900000E-01   1.00800           0
      1706 MEMB     13       POPC     C35      CTL2    -0.180000       12.0110           0
      1707 MEMB     13       POPC     H5X      HAL2     0.900000E-01   1.00800           0
      1708 MEMB     13       POPC     H5Y      HAL2     0.900000E-01   1.00800           0
      1709 MEMB     13       POPC     C36      CTL2    -0.180000       12.0110           0
      1710 MEMB     13       POPC     H6X      HAL2     0.900000E-01   1.00800           0
      1711 MEMB     13       POPC     H6Y      HAL2     0.900000E-01   1.00800           0
      1712 MEMB     13       POPC     C37      CTL2    -0.180000       12.0110           0
      1713 MEMB     13       POPC     H7X      HAL2     0.900000E-01   1.00800           0
      1714 MEMB     13       POPC     H7Y      HAL2     0.900000E-01   1.00800           0
      1715 MEMB     13       POPC     C38      CTL2    -0.180000       12.0110           0
      1716 MEMB     13       POPC     H8X      HAL2     0.900000E-01   1.00800           0
      1717 MEMB     13       POPC     H8Y      HAL2     0.900000E-01   1.00800           0
      1718 MEMB     13       POPC     C39      CTL2    -0.180000       12.0110           0
      1719 MEMB     13       POPC     H9X      HAL2     0.900000E-01   1.00800           0
      1720 MEMB     13       POPC     H9Y      HAL2     0.900000E-01   1.00800           0
      1721 MEMB     13       POPC     C310     CTL2    -0.180000       12.0110           0
      1722 MEMB     13       POPC     H10X     HAL2     0.900000E-01   1.00800           0
      1723 MEMB     13       POPC     H10Y     HAL2     0.900000E-01   1.00800           0
      1724 MEMB     13       POPC     C311     CTL2    -0.180000       12.0110           0
      1725 MEMB     13       POPC     H11X     HAL2     0.900000E-01   1.00800           0
      1726 MEMB     13       POPC     H11Y     HAL2     0.900000E-01   1.00800           0
      1727 MEMB     13       POPC     C312     CTL2    -0.180000       12.0110           0
      1728 MEMB     13       POPC     H12X     HAL2     0.900000E-01   1.00800           0
      1729 MEMB     13       POPC     H12Y     HAL2     0.900000E-01   1.00800           0
      1730 MEMB     13       POPC     C313     CTL2    -0.180000       12.0110           0
      1731 MEMB     13       POPC     H13X     HAL2     0.900000E-01   1.00800           0
      1732 MEMB     13       POPC     H13Y     HAL2     0.900000E-01   1.00800           0
      1733 MEMB     13       POPC     C314     CTL2    -0.180000       12.0110           0
      1734 MEMB     13       POPC     H14X     HAL2     0.900000E-01   1.00800           0
      1735 MEMB     13       POPC     H14Y     HAL2     0.900000E-01   1.00800           0
      1736 MEMB     13       POPC     C315     CTL2    -0.180000       12.0110           0
      1737 MEMB     13       POPC     H15X     HAL2     0.900000E-01   1.00800           0
      1738 MEMB     13       POPC     H15Y     HAL2     0.900000E-01   1.00800           0
      1739 MEMB     13       POPC     C316     CTL3    -0.270000       12.0110           0
      1740 MEMB     13       POPC     H16X     HAL3     0.900000E-01   1.00800           0
      1741 MEMB     13       POPC     H16Y     HAL3     0.900000E-01   1.00800           0
      1742 MEMB     13       POPC     H16Z     HAL3     0.900000E-01   1.00800           0
      1743 MEMB     14       POPC     N        NTL     -0.600000       14.0070           0
      1744 MEMB     14       POPC     C12      CTL2    -0.100000       12.0110           0
      1745 MEMB     14       POPC     H12A     HL       0.250000       1.00800           0
      1746 MEMB     14       POPC     H12B     HL       0.250000       1.00800           0
      1747 MEMB     14       POPC     C13      CTL5    -0.350000       12.0110           0
      1748 MEMB     14       POPC     H13A     HL       0.250000       1.00800           0
      1749 MEMB     14       POPC     H13B     HL       0.250000       1.00800           0
      1750 MEMB     14       POPC     H13C     HL       0.250000       1.00800           0
      1751 MEMB     14       POPC     C14      CTL5    -0.350000       12.0110           0
      1752 MEMB     14       POPC     H14A     HL       0.250000       1.00800           0
      1753 MEMB     14       POPC     H14B     HL       0.250000       1.00800           0
      1754 MEMB     14       POPC     H14C     HL       0.250000       1.00800           0
      1755 MEMB     14       POPC     C15      CTL5    -0.350000       12.0110           0
      1756 MEMB     14       POPC     H15A     HL       0.250000       1.00800           0
      1757 MEMB     14       POPC     H15B     HL       0.250000       1.00800           0
      1758 MEMB     14       POPC     H15C     HL       0.250000       1.00800           0
      1759 MEMB     14       POPC     C11      CTL2    -0.800000E-01   12.0110           0
      1760 MEMB     14       POPC     H11A     HAL2     0.900000E-01   1.00800           0
      1761 MEMB     14       POPC     H11B     HAL2     0.900000E-01   1.00800           0
      1762 MEMB     14       POPC     P        PL       1.50000        30.9740           0
      1763 MEMB     14       POPC     O13      O2L     -0.780000       15.9994           0
      1764 MEMB     14       POPC     O14      O2L     -0.780000       15.9994           0
      1765 MEMB     14       POPC     O12      OSLP    -0.570000       15.9994           0
      1766 MEMB     14       POPC     O11      OSLP    -0.570000       15.9994           0
      1767 MEMB     14       POPC     C1       CTL2    -0.800000E-01   12.0110           0
      1768 MEMB     14       POPC     HA       HAL2     0.900000E-01   1.00800           0
      1769 MEMB     14       POPC     HB       HAL2     0.900000E-01   1.00800           0
      1770 MEMB     14       POPC     C2       CTL1     0.170000       12.0110           0
      1771 MEMB     14       POPC     HS       HAL1     0.900000E-01   1.00800           0
      1772 MEMB     14       POPC     O21      OSL     -0.490000       15.9994           0
      1773 MEMB     14       POPC     C21      CL       0.900000       12.0110           0
      1774 MEMB     14       POPC     O22      OBL     -0.630000       15.9994           0
      1775 MEMB     14       POPC     C22      CTL2    -0.220000       12.0110           0
      1776 MEMB     14       POPC     H2R      HAL2     0.900000E-01   1.00800           0
      1777 MEMB     14       POPC     H2S      HAL2     0.900000E-01   1.00800           0
      1778 MEMB     14       POPC     C3       CTL2     0.800000E-01   12.0110           0
      1779 MEMB     14       POPC     HX       HAL2     0.900000E-01   1.00800           0
      1780 MEMB     14       POPC     HY       HAL2     0.900000E-01   1.00800           0
      1781 MEMB     14       POPC     O31      OSL     -0.490000       15.9994           0
      1782 MEMB     14       POPC     C31      CL       0.900000       12.0110           0
      1783 MEMB     14       POPC     O32      OBL     -0.630000       15.9994           0
      1784 MEMB     14       POPC     C32      CTL2    -0.220000       12.0110           0
      1785 MEMB     14       POPC     H2X      HAL2     0.900000E-01   1.00800           0
      1786 MEMB     14       POPC     H2Y      HAL2     0.900000E-01   1.00800           0
      1787 MEMB     14       POPC     C23      CTL2    -0.180000       12.0110           0
      1788 MEMB     14       POPC     H3R      HAL2     0.900000E-01   1.00800           0
      1789 MEMB     14       POPC     H3S      HAL2     0.900000E-01   1.00800           0
      1790 MEMB     14       POPC     C24      CTL2    -0.180000       12.0110           0
      1791 MEMB     14       POPC     H4R      HAL2     0.900000E-01   1.00800           0
      1792 MEMB     14       POPC     H4S      HAL2     0.900000E-01   1.00800           0
      1793 MEMB     14       POPC     C25      CTL2    -0.180000       12.0110           0
      1794 MEMB     14       POPC     H5R      HAL2     0.900000E-01   1.00800           0
      1795 MEMB     14       POPC     H5S      HAL2     0.900000E-01   1.00800           0
      1796 MEMB     14       POPC     C26      CTL2    -0.180000       12.0110           0
      1797 MEMB     14       POPC     H6R      HAL2     0.900000E-01   1.00800           0
      1798 MEMB     14       POPC     H6S      HAL2     0.900000E-01   1.00800           0
      1799 MEMB     14       POPC     C27      CTL2    -0.180000       12.0110           0
      1800 MEMB     14       POPC     H7R      HAL2     0.900000E-01   1.00800           0
      1801 MEMB     14       POPC     H7S      HAL2     0.900000E-01   1.00800           0
      1802 MEMB     14       POPC     C28      CTL2    -0.180000       12.0110           0
      1803 MEMB     14       POPC     H8R      HAL2     0.900000E-01   1.00800           0
      1804 MEMB     14       POPC     H8S      HAL2     0.900000E-01   1.00800           0
      1805 MEMB     14       POPC     C29      CEL1    -0.150000       12.0110           0
      1806 MEMB     14       POPC     H91      HEL1     0.150000       1.00800           0
      1807 MEMB     14       POPC     C210     CEL1    -0.150000       12.0110           0
      1808 MEMB     14       POPC     H101     HEL1     0.150000       1.00800           0
      1809 MEMB     14       POPC     C211     CTL2    -0.180000       12.0110           0
      1810 MEMB     14       POPC     H11R     HAL2     0.900000E-01   1.00800           0
      1811 MEMB     14       POPC     H11S     HAL2     0.900000E-01   1.00800           0
      1812 MEMB     14       POPC     C212     CTL2    -0.180000       12.0110           0
      1813 MEMB     14       POPC     H12R     HAL2     0.900000E-01   1.00800           0
      1814 MEMB     14       POPC     H12S     HAL2     0.900000E-01   1.00800           0
      1815 MEMB     14       POPC     C213     CTL2    -0.180000       12.0110           0
      1816 MEMB     14       POPC     H13R     HAL2     0.900000E-01   1.00800           0
      1817 MEMB     14       POPC     H13S     HAL2     0.900000E-01   1.00800           0
      1818 MEMB     14       POPC     C214     CTL2    -0.180000       12.0110           0
      1819 MEMB     14       POPC     H14R     HAL2     0.900000E-01   1.00800           0
      1820 MEMB     14       POPC     H14S     HAL2     0.900000E-01   1.00800           0
      1821 MEMB     14       POPC     C215     CTL2    -0.180000       12.0110           0
      1822 MEMB     14       POPC     H15R     HAL2     0.900000E-01   1.00800           0
      1823 MEMB     14       POPC     H15S     HAL2     0.900000E-01   1.00800           0
      1824 MEMB     14       POPC     C216     CTL2    -0.180000       12.0110           0
      1825 MEMB     14       POPC     H16R     HAL2     0.900000E-01   1.00800           0
      1826 MEMB     14       POPC     H16S     HAL2     0.900000E-01   1.00800           0
      1827 MEMB     14       POPC     C217     CTL2    -0.180000       12.0110           0
      1828 MEMB     14       POPC     H17R     HAL2     0.900000E-01   1.00800           0
      1829 MEMB     14       POPC     H17S     HAL2     0.900000E-01   1.00800           0
      1830 MEMB     14       POPC     C218     CTL3    -0.270000       12.0110           0
      1831 MEMB     14       POPC     H18R     HAL3     0.900000E-01   1.00800           0
      1832 MEMB     14       POPC     H18S     HAL3     0.900000E-01   1.00800           0
      1833 MEMB     14       POPC     H18T     HAL3     0.900000E-01   1.00800           0
      1834 MEMB     14       POPC     C33      CTL2    -0.180000       12.0110           0
      1835 MEMB     14       POPC     H3X      HAL2     0.900000E-01   1.00800           0
      1836 MEMB     14       POPC     H3Y      HAL2     0.900000E-01   1.00800           0
      1837 MEMB     14       POPC     C34      CTL2    -0.180000       12.0110           0
      1838 MEMB     14       POPC     H4X      HAL2     0.900000E-01   1.00800           0
      1839 MEMB     14       POPC     H4Y      HAL2     0.900000E-01   1.00800           0
      1840 MEMB     14       POPC     C35      CTL2    -0.180000       12.0110           0
      1841 MEMB     14       POPC     H5X      HAL2     0.900000E-01   1.00800           0
      1842 MEMB     14       POPC     H5Y      HAL2     0.900000E-01   1.00800           0
      1843 MEMB     14       POPC     C36      CTL2    -0.180000       12.0110           0
      1844 MEMB     14       POPC     H6X      HAL2     0.900000E-01   1.00800           0
      1845 MEMB     14       POPC     H6Y      HAL2     0.900000E-01   1.00800           0
      1846 MEMB     14       POPC     C37      CTL2    -0.180000       12.0110           0
      1847 MEMB     14       POPC     H7X      HAL2     0.900000E-01   1.00800           0
      1848 MEMB     14       POPC     H7Y      HAL2     0.900000E-01   1.00800           0
      1849 MEMB     14       POPC     C38      CTL2    -0.180000       12.0110           0
      1850 MEMB     14       POPC     H8X      HAL2     0.900000E-01   1.00800           0
      1851 MEMB     14       POPC     H8Y      HAL2     0.900000E-01   1.00800           0
      1852 MEMB     14       POPC     C39      CTL2    -0.180000       12.0110           0
      1853 MEMB     14       POPC     H9X      HAL2     0.900000E-01   1.00800           0
      1854 MEMB     14       POPC     H9Y      HAL2     0.900000E-01   1.00800           0
      1855 MEMB     14       POPC     C310     CTL2    -0.180000       12.0110           0
      1856 MEMB     14       POPC     H10X     HAL2     0.900000E-01   1.00800           0
      1857 MEMB     14       POPC     H10Y     HAL2     0.900000E-01   1.00800           0
      1858 MEMB     14       POPC     C311     CTL2    -0.180000       12.0110           0
      1859 MEMB     14       POPC     H11X     HAL2     0.900000E-01   1.00800           0
      1860 MEMB     14       POPC     H11Y     HAL2     0.900000E-01   1.00800           0
      1861 MEMB     14       POPC     C312     CTL2    -0.180000       12.0110           0
      1862 MEMB     14       POPC     H12X     HAL2     0.900000E-01   1.00800           0
      1863 MEMB     14       POPC     H12Y     HAL2     0.900000E-01   1.00800           0
      1864 MEMB     14       POPC     C313     CTL2    -0.180000       12.0110           0
      1865 MEMB     14       POPC     H13X     HAL2     0.900000E-01   1.00800           0
      1866 MEMB     14       POPC     H13Y     HAL2     0.900000E-01   1.00800           0
      1867 MEMB     14       POPC     C314     CTL2    -0.180000       12.0110           0
      1868 MEMB     14       POPC     H14X     HAL2     0.900000E-01   1.00800           0
      1869 MEMB     14       POPC     H14Y     HAL2     0.900000E-01   1.00800           0
      1870 MEMB     14       POPC     C315     CTL2    -0.180000       12.0110           0
      1871 MEMB     14       POPC     H15X     HAL2     0.900000E-01   1.00800           0
      1872 MEMB     14       POPC     H15Y     HAL2     0.900000E-01   1.00800           0
      1873 MEMB     14       POPC     C316     CTL3    -0.270000       12.0110           0
      1874 MEMB     14       POPC     H16X     HAL3     0.900000E-01   1.00800           0
      1875 MEMB     14       POPC     H16Y     HAL3     0.900000E-01   1.00800           0
      1876 MEMB     14       POPC     H16Z     HAL3     0.900000E-01   1.00800           0
      1877 MEMB     15       POPC     N        NTL     -0.600000       14.0070           0
      1878 MEMB     15       POPC     C12      CTL2    -0.100000       12.0110           0
      1879 MEMB     15       POPC     H12A     HL       0.250000       1.00800           0
      1880 MEMB     15       POPC     H12B     HL       0.250000       1.00800           0
      1881 MEMB     15       POPC     C13      CTL5    -0.350000       12.0110           0
      1882 MEMB     15       POPC     H13A     HL       0.250000       1.00800           0
      1883 MEMB     15       POPC     H13B     HL       0.250000       1.00800           0
      1884 MEMB     15       POPC     H13C     HL       0.250000       1.00800           0
      1885 MEMB     15       POPC     C14      CTL5    -0.350000       12.0110           0
      1886 MEMB     15       POPC     H14A     HL       0.250000       1.00800           0
      1887 MEMB     15       POPC     H14B     HL       0.250000       1.00800           0
      1888 MEMB     15       POPC     H14C     HL       0.250000       1.00800           0
      1889 MEMB     15       POPC     C15      CTL5    -0.350000       12.0110           0
      1890 MEMB     15       POPC     H15A     HL       0.250000       1.00800           0
      1891 MEMB     15       POPC     H15B     HL       0.250000       1.00800           0
      1892 MEMB     15       POPC     H15C     HL       0.250000       1.00800           0
      1893 MEMB     15       POPC     C11      CTL2    -0.800000E-01   12.0110           0
      1894 MEMB     15       POPC     H11A     HAL2     0.900000E-01   1.00800           0
      1895 MEMB     15       POPC     H11B     HAL2     0.900000E-01   1.00800           0
      1896 MEMB     15       POPC     P        PL       1.50000        30.9740           0
      1897 MEMB     15       POPC     O13      O2L     -0.780000       15.9994           0
      1898 MEMB     15       POPC     O14      O2L     -0.780000       15.9994           0
      1899 MEMB     15       POPC     O12      OSLP    -0.570000       15.9994           0
      1900 MEMB     15       POPC     O11      OSLP    -0.570000       15.9994           0
      1901 MEMB     15       POPC     C1       CTL2    -0.800000E-01   12.0110           0
      1902 MEMB     15       POPC     HA       HAL2     0.900000E-01   1.00800           0
      1903 MEMB     15       POPC     HB       HAL2     0.900000E-01   1.00800           0
      1904 MEMB     15       POPC     C2       CTL1     0.170000       12.0110           0
      1905 MEMB     15       POPC     HS       HAL1     0.900000E-01   1.00800           0
      1906 MEMB     15       POPC     O21      OSL     -0.490000       15.9994           0
      1907 MEMB     15       POPC     C21      CL       0.900000       12.0110           0
      1908 MEMB     15       POPC     O22      OBL     -0.630000       15.9994           0
      1909 MEMB     15       POPC     C22      CTL2    -0.220000       12.0110           0
      1910 MEMB     15       POPC     H2R      HAL2     0.900000E-01   1.00800           0
      1911 MEMB     15       POPC     H2S      HAL2     0.900000E-01   1.00800           0
      1912 MEMB     15       POPC     C3       CTL2     0.800000E-01   12.0110           0
      1913 MEMB     15       POPC     HX       HAL2     0.900000E-01   1.00800           0
      1914 MEMB     15       POPC     HY       HAL2     0.900000E-01   1.00800           0
      1915 MEMB     15       POPC     O31      OSL     -0.490000       15.9994           0
      1916 MEMB     15       POPC     C31      CL       0.900000       12.0110           0
      1917 MEMB     15       POPC     O32      OBL     -0.630000       15.9994           0
      1918 MEMB     15       POPC     C32      CTL2    -0.220000       12.0110           0
      1919 MEMB     15       POPC     H2X      HAL2     0.900000E-01   1.00800           0
      1920 MEMB     15       POPC     H2Y      HAL2     0.900000E-01   1.00800           0
      1921 MEMB     15       POPC     C23      CTL2    -0.180000       12.0110           0
      1922 MEMB     15       POPC     H3R      HAL2     0.900000E-01   1.00800           0
      1923 MEMB     15       POPC     H3S      HAL2     0.900000E-01   1.00800           0
      1924 MEMB     15       POPC     C24      CTL2    -0.180000       12.0110           0
      1925 MEMB     15       POPC     H4R      HAL2     0.900000E-01   1.00800           0
      1926 MEMB     15       POPC     H4S      HAL2     0.900000E-01   1.00800           0
      1927 MEMB     15       POPC     C25      CTL2    -0.180000       12.0110           0
      1928 MEMB     15       POPC     H5R      HAL2     0.900000E-01   1.00800           0
      1929 MEMB     15       POPC     H5S      HAL2     0.900000E-01   1.00800           0
      1930 MEMB     15       POPC     C26      CTL2    -0.180000       12.0110           0
      1931 MEMB     15       POPC     H6R      HAL2     0.900000E-01   1.00800           0
      1932 MEMB     15       POPC     H6S      HAL2     0.900000E-01   1.00800           0
      1933 MEMB     15       POPC     C27      CTL2    -0.180000       12.0110           0
      1934 MEMB     15       POPC     H7R      HAL2     0.900000E-01   1.00800           0
      1935 MEMB     15       POPC     H7S      HAL2     0.900000E-01   1.00800           0
      1936 MEMB     15       POPC     C28      CTL2    -0.180000       12.0110           0
      1937 MEMB     15       POPC     H8R      HAL2     0.900000E-01   1.00800           0
      1938 MEMB     15       POPC     H8S      HAL2     0.900000E-01   1.00800           0
      1939 MEMB     15       POPC     C29      CEL1    -0.150000       12.0110           0
      1940 MEMB     15       POPC     H91      HEL1     0.150000       1.00800           0
      1941 MEMB     15       POPC     C210     CEL1    -0.150000       12.0110           0
      1942 MEMB     15       POPC     H101     HEL1     0.150000       1.00800           0
      1943 MEMB     15       POPC     C211     CTL2    -0.180000       12.0110           0
      1944 MEMB     15       POPC     H11R     HAL2     0.900000E-01   1.00800           0
      1945 MEMB     15       POPC     H11S     HAL2     0.900000E-01   1.00800           0
      1946 MEMB     15       POPC     C212     CTL2    -0.180000       12.0110           0
      1947 MEMB     15       POPC     H12R     HAL2     0.900000E-01   1.00800           0
      1948 MEMB     15       POPC     H12S     HAL2     0.900000E-01   1.00800           0
      1949 MEMB     15       POPC     C213     CTL2    -0.180000       12.0110           0
      1950 MEMB     15       POPC     H13R     HAL2     0.900000E-01   1.00800           0
      1951 MEMB     15       POPC     H13S     HAL2     0.900000E-01   1.00800           0
      1952 MEMB     15       POPC     C214     CTL2    -0.180000       12.0110           0
      1953 MEMB     15       POPC     H14R     HAL2     0.900000E-01   1.00800           0
      1954 MEMB     15       POPC     H14S     HAL2     0.900000E-01   1.00800           0
      1955 MEMB     15       POPC     C215     CTL2    -0.180000       12.0110           0
      1956 MEMB     15       POPC     H15R     HAL2     0.900000E-01   1.00800           0
      1957 MEMB     15       POPC     H15S     HAL2     0.900000E-01   1.00800           0
      1958 MEMB     15       POPC     C216     CTL2    -0.180000       12.0110           0
      1959 MEMB     15       POPC     H16R     HAL2     0.900000E-01   1.00800           0
      1960 MEMB     15       POPC     H16S     HAL2     0.900000E-01   1.00800           0
      1961 MEMB     15       POPC     C217     CTL2    -0.180000       12.0110           0
      1962 MEMB     15       POPC     H17R     HAL2     0.900000E-01   1.00800           0
      1963 MEMB     15       POPC     H17S     HAL2     0.900000E-01   1.00800           0
      1964 MEMB     15       POPC     C218     CTL3    -0.270000       12.0110           0
      1965 MEMB     15       POPC     H18R     HAL3     0.900000E-01   1.00800           0
      1966 MEMB     15       POPC     H18S     HAL3     0.900000E-01   1.00800           0
      1967 MEMB     15       POPC     H18T     HAL3     0.900000E-01   1.00800           0
      1968 MEMB     15       POPC     C33      CTL2    -0.180000       12.0110           0
      1969 MEMB     15       POPC     H3X      HAL2     0.900000E-01   1.00800           0
      1970 MEMB     15       POPC     H3Y      HAL2     0.900000E-01   1.00800           0
      1971 MEMB     15       POPC     C34      CTL2    -0.180000       12.0110           0
      1972 MEMB     15       POPC     H4X      HAL2     0.900000E-01   1.00800           0
      1973 MEMB     15       POPC     H4Y      HAL2     0.900000E-01   1.00800           0
      1974 MEMB     15       POPC     C35      CTL2    -0.180000       12.0110           0
      1975 MEMB     15       POPC     H5X      HAL2     0.900000E-01   1.00800           0
      1976 MEMB     15       POPC     H5Y      HAL2     0.900000E-01   1.00800           0
      1977 MEMB     15       POPC     C36      CTL2    -0.180000       12.0110           0
      1978 MEMB     15       POPC     H6X      HAL2     0.900000E-01   1.00800           0
      1979 MEMB     15       POPC     H6Y      HAL2     0.900000E-01   1.00800           0
      1980 MEMB     15       POPC     C37      CTL2    -0.180000       12.0110           0
      1981 MEMB     15       POPC     H7X      HAL2     0.900000E-01   1.00800           0
      1982 MEMB     15       POPC     H7Y      HAL2     0.900000E-01   1.00800           0
      1983 MEMB     15       POPC     C38      CTL2    -0.180000       12.0110           0
      1984 MEMB     15       POPC     H8X      HAL2     0.900000E-01   1.00800           0
      1985 MEMB     15       POPC     H8Y      HAL2     0.900000E-01   1.00800           0
      1986 MEMB     15       POPC     C39      CTL2    -0.180000       12.0110           0
      1987 MEMB     15       POPC     H9X      HAL2     0.900000E-01   1.00800           0
      1988 MEMB     15       POPC     H9Y      HAL2     0.900000E-01   1.00800           0
      1989 MEMB     15       POPC     C310     CTL2    -0.180000       12.0110           0
      1990 MEMB     15       POPC     H10X     HAL2     0.900000E-01   1.00800           0
      1991 MEMB     15       POPC     H10Y     HAL2     0.900000E-01   1.00800           0
      1992 MEMB     15       POPC     C311     CTL2    -0.180000       12.0110           0
      1993 MEMB     15       POPC     H11X     HAL2     0.900000E-01   1.00800           0
      1994 MEMB     15       POPC     H11Y     HAL2     0.900000E-01   1.00800           0
      1995 MEMB     15       POPC     C312     CTL2    -0.180000       12.0110           0
      1996 MEMB     15       POPC     H12X     HAL2     0.900000E-01   1.00800           0
      1997 MEMB     15       POPC     H12Y     HAL2     0.900000E-01   1.00800           0
      1998 MEMB     15       POPC     C313     CTL2    -0.180000       12.0110           0
      1999 MEMB     15       POPC     H13X     HAL2     0.900000E-01   1.00800           0
      2000 MEMB     15       POPC     H13Y     HAL2     0.900000E-01   1.00800           0
      2001 MEMB     15       POPC     C314     CTL2    -0.180000       12.0110           0
      2002 MEMB     15       POPC     H14X     HAL2     0.900000E-01   1.00800           0
      2003 MEMB     15       POPC     H14Y     HAL2     0.900000E-01   1.00800           0
      2004 MEMB     15       POPC     C315     CTL2    -0.180000       12.0110           0
      2005 MEMB     15       POPC     H15X     HAL2     0.900000E-01   1.00800           0
      2006 MEMB     15       POPC     H15Y     HAL2     0.900000E-01   1.00800           0
      2007 MEMB     15       POPC     C316     CTL3    -0.270000       12.0110           0
      2008 MEMB     15       POPC     H16X     HAL3     0.900000E-01   1.00800           0
      2009 MEMB     15       POPC     H16Y     HAL3     0.900000E-01   1.00800           0
      2010 MEMB     15       POPC     H16Z     HAL3     0.900000E-01   1.00800           0
      2011 MEMB     16       POPC     N        NTL     -0.600000       14.0070           0
      2012 MEMB     16       POPC     C12      CTL2    -0.100000       12.0110           0
      2013 MEMB     16       POPC     H12A     HL       0.250000       1.00800           0
      2014 MEMB     16       POPC     H12B     HL       0.250000       1.00800           0
      2015 MEMB     16       POPC     C13      CTL5    -0.350000       12.0110           0
      2016 MEMB     16       POPC     H13A     HL       0.250000       1.00800           0
      2017 MEMB     16       POPC     H13B     HL       0.250000       1.00800           0
      2018 MEMB     16       POPC     H13C     HL       0.250000       1.00800           0
      2019 MEMB     16       POPC     C14      CTL5    -0.350000       12.0110           0
      2020 MEMB     16       POPC     H14A     HL       0.250000       1.00800           0
      2021 MEMB     16       POPC     H14B     HL       0.250000       1.00800           0
      2022 MEMB     16       POPC     H14C     HL       0.250000       1.00800           0
      2023 MEMB     16       POPC     C15      CTL5    -0.350000       12.0110           0
      2024 MEMB     16       POPC     H15A     HL       0.250000       1.00800           0
      2025 MEMB     16       POPC     H15B     HL       0.250000       1.00800           0
      2026 MEMB     16       POPC     H15C     HL       0.250000       1.00800           0
      2027 MEMB     16       POPC     C11      CTL2    -0.800000E-01   12.0110           0
      2028 MEMB     16       POPC     H11A     HAL2     0.900000E-01   1.00800           0
      2029 MEMB     16       POPC     H11B     HAL2     0.900000E-01   1.00800           0
      2030 MEMB     16       POPC     P        PL       1.50000        30.9740           0
      2031 MEMB     16       POPC     O13      O2L     -0.780000       15.9994           0
      2032 MEMB     16       POPC     O14      O2L     -0.780000       15.9994           0
      2033 MEMB     16       POPC     O12      OSLP    -0.570000       15.9994           0
      2034 MEMB     16       POPC     O11      OSLP    -0.570000       15.9994           0
      2035 MEMB     16       POPC     C1       CTL2    -0.800000E-01   12.0110           0
      2036 MEMB     16       POPC     HA       HAL2     0.900000E-01   1.00800           0
      2037 MEMB     16       POPC     HB       HAL2     0.900000E-01   1.00800           0
      2038 MEMB     16       POPC     C2       CTL1     0.170000       12.0110           0
      2039 MEMB     16       POPC     HS       HAL1     0.900000E-01   1.00800           0
      2040 MEMB     16       POPC     O21      OSL     -0.490000       15.9994           0
      2041 MEMB     16       POPC     C21      CL       0.900000       12.0110           0
      2042 MEMB     16       POPC     O22      OBL     -0.630000       15.9994           0
      2043 MEMB     16       POPC     C22      CTL2    -0.220000       12.0110           0
      2044 MEMB     16       POPC     H2R      HAL2     0.900000E-01   1.00800           0
      2045 MEMB     16       POPC     H2S      HAL2     0.900000E-01   1.00800           0
      2046 MEMB     16       POPC     C3       CTL2     0.800000E-01   12.0110           0
      2047 MEMB     16       POPC     HX       HAL2     0.900000E-01   1.00800           0
      2048 MEMB     16       POPC     HY       HAL2     0.900000E-01   1.00800           0
      2049 MEMB     16       POPC     O31      OSL     -0.490000       15.9994           0
      2050 MEMB     16       POPC     C31      CL       0.900000       12.0110           0
      2051 MEMB     16       POPC     O32      OBL     -0.630000       15.9994           0
      2052 MEMB     16       POPC     C32      CTL2    -0.220000       12.0110           0
      2053 MEMB     16       POPC     H2X      HAL2     0.900000E-01   1.00800           0
      2054 MEMB     16       POPC     H2Y      HAL2     0.900000E-01   1.00800           0
      2055 MEMB     16       POPC     C23      CTL2    -0.180000       12.0110           0
      2056 MEMB     16       POPC     H3R      HAL2     0.900000E-01   1.00800           0
      2057 MEMB     16       POPC     H3S      HAL2     0.900000E-01   1.00800           0
      2058 MEMB     16       POPC     C24      CTL2    -0.180000       12.0110           0
      2059 MEMB     16       POPC     H4R      HAL2     0.900000E-01   1.00800           0
      2060 MEMB     16       POPC     H4S      HAL2     0.900000E-01   1.00800           0
      2061 MEMB     16       POPC     C25      CTL2    -0.180000       12.0110           0
      2062 MEMB     16       POPC     H5R      HAL2     0.900000E-01   1.00800           0
      2063 MEMB     16       POPC     H5S      HAL2     0.900000E-01   1.00800           0
      2064 MEMB     16       POPC     C26      CTL2    -0.180000       12.0110           0
      2065 MEMB     16       POPC     H6R      HAL2     0.900000E-01   1.00800           0
      2066 MEMB     16       POPC     H6S      HAL2     0.900000E-01   1.00800           0
      2067 MEMB     16       POPC     C27      CTL2    -0.180000       12.0110           0
      2068 MEMB     16       POPC     H7R      HAL2     0.900000E-01   1.00800           0
      2069 MEMB     16       POPC     H7S      HAL2     0.900000E-01   1.00800           0
      2070 MEMB     16       POPC     C28      CTL2    -0.180000       12.0110           0
      2071 MEMB     16       POPC     H8R      HAL2     0.900000E-01   1.00800           0
      2072 MEMB     16       POPC     H8S      HAL2     0.900000E-01   1.00800           0
      2073 MEMB     16       POPC     C29      CEL1    -0.150000       12.0110           0
      2074 MEMB     16       POPC     H91      HEL1     0.150000       1.00800           0
      2075 MEMB     16       POPC     C210     CEL1    -0.150000       12.0110           0
      2076 MEMB     16       POPC     H101     HEL1     0.150000       1.00800           0
      2077 MEMB     16       POPC     C211     CTL2    -0.180000       12.0110           0
      2078 MEMB     16       POPC     H11R     HAL2     0.900000E-01   1.00800           0
      2079 MEMB     16       POPC     H11S     HAL2     0.900000E-01   1.00800           0
      2080 MEMB     16       POPC     C212     CTL2    -0.180000       12.0110           0
      2081 MEMB     16       POPC     H12R     HAL2     0.900000E-01   1.00800           0
      2082 MEMB     16       POPC     H12S     HAL2     0.900000E-01   1.00800           0
      2083 MEMB     16       POPC     C213     CTL2    -0.180000       12.0110           0
      2084 MEMB     16       POPC     H13R     HAL2     0.900000E-01   1.00800           0
      2085 MEMB     16       POPC     H13S     HAL2     0.900000E-01   1.00800           0
      2086 MEMB     16       POPC     C214     CTL2    -0.180000       12.0110           0
      2087 MEMB     16       POPC     H14R     HAL2     0.900000E-01   1.00800           0
      2088 MEMB     16       POPC     H14S     HAL2     0.900000E-01   1.00800           0
      2089 MEMB     16       POPC     C215     CTL2    -0.180000       12.0110           0
      2090 MEMB     16       POPC     H15R     HAL2     0.900000E-01   1.00800           0
      2091 MEMB     16       POPC     H15S     HAL2     0.900000E-01   1.00800           0
      2092 MEMB     16       POPC     C216     CTL2    -0.180000       12.0110           0
      2093 MEMB     16       POPC     H16R     HAL2     0.900000E-01   1.00800           0
      2094 MEMB     16       POPC     H16S     HAL2     0.900000E-01   1.00800           0
      2095 MEMB     16       POPC     C217     CTL2    -0.180000       12.0110           0
      2096 MEMB     16       POPC     H17R     HAL2     0.900000E-01   1.00800           0
      2097 MEMB     16       POPC     H17S     HAL2     0.900000E-01   1.00800           0
      2098 MEMB     16       POPC     C218     CTL3    -0.270000       12.0110           0
      2099 MEMB     16       POPC     H18R     HAL3     0.900000E-01   1.00800           0
      2100 MEMB     16       POPC     H18S     HAL3     0.900000E-01   1.00800           0
      2101 MEMB     16       POPC     H18T     HAL3     0.900000E-01   1.00800           0
      2102 MEMB     16       POPC     C33      CTL2    -0.180000       12.0110           0
      2103 MEMB     16       POPC     H3X      HAL2     0.900000E-01   1.00800           0
      2104 MEMB     16       POPC     H3Y      HAL2     0.900000E-01   1.00800           0
      2105 MEMB     16       POPC     C34      CTL2    -0.180000       12.0110           0
      2106 MEMB     16       POPC     H4X      HAL2     0.900000E-01   1.00800           0
      2107 MEMB     16       POPC     H4Y      HAL2     0.900000E-01   1.00800           0
      2108 MEMB     16       POPC     C35      CTL2    -0.180000       12.0110           0
      2109 MEMB     16       POPC     H5X      HAL2     0.900000E-01   1.00800           0
      2110 MEMB     16       POPC     H5Y      HAL2     0.900000E-01   1.00800           0
      2111 MEMB     16       POPC     C36      CTL2    -0.180000       12.0110           0
      2112 MEMB     16       POPC     H6X      HAL2     0.900000E-01   1.00800           0
      2113 MEMB     16       POPC     H6Y      HAL2     0.900000E-01   1.00800           0
      2114 MEMB     16       POPC     C37      CTL2    -0.180000       12.0110           0
      2115 MEMB     16       POPC     H7X      HAL2     0.900000E-01   1.00800           0
      2116 MEMB     16       POPC     H7Y      HAL2     0.900000E-01   1.00800           0
      2117 MEMB     16       POPC     C38      CTL2    -0.180000       12.0110           0
      2118 MEMB     16       POPC     H8X      HAL2     0.900000E-01   1.00800           0
      2119 MEMB     16       POPC     H8Y      HAL2     0.900000E-01   1.00800           0
      2120 MEMB     16       POPC     C39      CTL2    -0.180000       12.0110           0
      2121 MEMB     16       POPC     H9X      HAL2     0.900000E-01   1.00800           0
      2122 MEMB     16       POPC     H9Y      HAL2     0.900000E-01   1.00800           0
      2123 MEMB     16       POPC     C310     CTL2    -0.180000       12.0110           0
      2124 MEMB     16       POPC     H10X     HAL2     0.900000E-01   1.00800           0
      2125 MEMB     16       POPC     H10Y     HAL2     0.900000E-01   1.00800           0
      2126 MEMB     16       POPC     C311     CTL2    -0.180000       12.0110           0
      2127 MEMB     16       POPC     H11X     HAL2     0.900000E-01   1.00800           0
      2128 MEMB     16       POPC     H11Y     HAL2     0.900000E-01   1.00800           0
      2129 MEMB     16       POPC     C312     CTL2    -0.180000       12.0110           0
      2130 MEMB     16       POPC     H12X     HAL2     0.900000E-01   1.00800           0
      2131 MEMB     16       POPC     H12Y     HAL2     0.900000E-01   1.00800           0
      2132 MEMB     16       POPC     C313     CTL2    -0.180000       12.0110           0
      2133 MEMB     16       POPC     H13X     HAL2     0.900000E-01   1.00800           0
      2134 MEMB     16       POPC     H13Y     HAL2     0.900000E-01   1.00800           0
      2135 MEMB     16       POPC     C314     CTL2    -0.180000       12.0110           0
      2136 MEMB     16       POPC     H14X     HAL2     0.900000E-01   1.00800           0
      2137 MEMB     16       POPC     H14Y     HAL2     0.900000E-01   1.00800           0
      2138 MEMB     16       POPC     C315     CTL2    -0.180000       12.0110           0
      2139 MEMB     16       POPC     H15X     HAL2     0.900000E-01   1.00800           0
      2140 MEMB     16       POPC     H15Y     HAL2     0.900000E-01   1.00800           0
      2141 MEMB     16       POPC     C316     CTL3    -0.270000       12.0110           0
      2142 MEMB     16       POPC     H16X     HAL3     0.900000E-01   1.00800           0
      2143 MEMB     16       POPC     H16Y     HAL3     0.900000E-01   1.00800           0
      2144 MEMB     16       POPC     H16Z     HAL3     0.900000E-01   1.00800           0
      2145 MEMB     17       POPC     N        NTL     -0.600000       14.0070           0
      2146 MEMB     17       POPC     C12      CTL2    -0.100000       12.0110           0
      2147 MEMB     17       POPC     H12A     HL       0.250000       1.00800           0
      2148 MEMB     17       POPC     H12B     HL       0.250000       1.00800           0
      2149 MEMB     17       POPC     C13      CTL5    -0.350000       12.0110           0
      2150 MEMB     17       POPC     H13A     HL       0.250000       1.00800           0
      2151 MEMB     17       POPC     H13B     HL       0.250000       1.00800           0
      2152 MEMB     17       POPC     H13C     HL       0.250000       1.00800           0
      2153 MEMB     17       POPC     C14      CTL5    -0.350000       12.0110           0
      2154 MEMB     17       POPC     H14A     HL       0.250000       1.00800           0
      2155 MEMB     17       POPC     H14B     HL       0.250000       1.00800           0
      2156 MEMB     17       POPC     H14C     HL       0.250000       1.00800           0
      2157 MEMB     17       POPC     C15      CTL5    -0.350000       12.0110           0
      2158 MEMB     17       POPC     H15A     HL       0.250000       1.00800           0
      2159 MEMB     17       POPC     H15B     HL       0.250000       1.00800           0
      2160 MEMB     17       POPC     H15C     HL       0.250000       1.00800           0
      2161 MEMB     17       POPC     C11      CTL2    -0.800000E-01   12.0110           0
      2162 MEMB     17       POPC     H11A     HAL2     0.900000E-01   1.00800           0
      2163 MEMB     17       POPC     H11B     HAL2     0.900000E-01   1.00800           0
      2164 MEMB     17       POPC     P        PL       1.50000        30.9740           0
      2165 MEMB     17       POPC     O13      O2L     -0.780000       15.9994           0
      2166 MEMB     17       POPC     O14      O2L     -0.780000       15.9994           0
      2167 MEMB     17       POPC     O12      OSLP    -0.570000       15.9994           0
      2168 MEMB     17       POPC     O11      OSLP    -0.570000       15.9994           0
      2169 MEMB     17       POPC     C1       CTL2    -0.800000E-01   12.0110           0
      2170 MEMB     17       POPC     HA       HAL2     0.900000E-01   1.00800           0
      2171 MEMB     17       POPC     HB       HAL2     0.900000E-01   1.00800           0
      2172 MEMB     17       POPC     C2       CTL1     0.170000       12.0110           0
      2173 MEMB     17       POPC     HS       HAL1     0.900000E-01   1.00800           0
      2174 MEMB     17       POPC     O21      OSL     -0.490000       15.9994           0
      2175 MEMB     17       POPC     C21      CL       0.900000       12.0110           0
      2176 MEMB     17       POPC     O22      OBL     -0.630000       15.9994           0
      2177 MEMB     17       POPC     C22      CTL2    -0.220000       12.0110           0
      2178 MEMB     17       POPC     H2R      HAL2     0.900000E-01   1.00800           0
      2179 MEMB     17       POPC     H2S      HAL2     0.900000E-01   1.00800           0
      2180 MEMB     17       POPC     C3       CTL2     0.800000E-01   12.0110           0
      2181 MEMB     17       POPC     HX       HAL2     0.900000E-01   1.00800           0
      2182 MEMB     17       POPC     HY       HAL2     0.900000E-01   1.00800           0
      2183 MEMB     17       POPC     O31      OSL     -0.490000       15.9994           0
      2184 MEMB     17       POPC     C31      CL       0.900000       12.0110           0
      2185 MEMB     17       POPC     O32      OBL     -0.630000       15.9994           0
      2186 MEMB     17       POPC     C32      CTL2    -0.220000       12.0110           0
      2187 MEMB     17       POPC     H2X      HAL2     0.900000E-01   1.00800           0
      2188 MEMB     17       POPC     H2Y      HAL2     0.900000E-01   1.00800           0
      2189 MEMB     17       POPC     C23      CTL2    -0.180000       12.0110           0
      2190 MEMB     17       POPC     H3R      HAL2     0.900000E-01   1.00800           0
      2191 MEMB     17       POPC     H3S      HAL2     0.900000E-01   1.00800           0
      2192 MEMB     17       POPC     C24      CTL2    -0.180000       12.0110           0
      2193 MEMB     17       POPC     H4R      HAL2     0.900000E-01   1.00800           0
      2194 MEMB     17       POPC     H4S      HAL2     0.900000E-01   1.00800           0
      2195 MEMB     17       POPC     C25      CTL2    -0.180000       12.0110           0
      2196 MEMB     17       POPC     H5R      HAL2     0.900000E-01   1.00800           0
      2197 MEMB     17       POPC     H5S      HAL2     0.900000E-01   1.00800           0
      2198 MEMB     17       POPC     C26      CTL2    -0.180000       12.0110           0
      2199 MEMB     17       POPC     H6R      HAL2     0.900000E-01   1.00800           0
      2200 MEMB     17       POPC     H6S      HAL2     0.900000E-01   1.00800           0
      2201 MEMB     17       POPC     C27      CTL2    -0.180000       12.0110           0
      2202 MEMB     17       POPC     H7R      HAL2     0.900000E-01   1.00800           0
      2203 MEMB     17       POPC     H7S      HAL2     0.900000E-01   1.00800           0
      2204 MEMB     17       POPC     C28      CTL2    -0.180000       12.0110           0
      2205 MEMB     17       POPC     H8R      HAL2     0.900000E-01   1.00800           0
      2206 MEMB     17       POPC     H8S      HAL2     0.900000E-01   1.00800           0
      2207 MEMB     17       POPC     C29      CEL1    -0.150000       12.0110           0
      2208 MEMB     17       POPC     H91      HEL1     0.150000       1.00800           0
      2209 MEMB     17       POPC     C210     CEL1    -0.150000       12.0110           0
      2210 MEMB     17       POPC     H101     HEL1     0.150000       1.00800           0
      2211 MEMB     17       POPC     C211     CTL2    -0.180000       12.0110           0
      2212 MEMB     17       POPC     H11R     HAL2     0.900000E-01   1.00800           0
      2213 MEMB     17       POPC     H11S     HAL2     0.900000E-01   1.00800           0
      2214 MEMB     17       POPC     C212     CTL2    -0.180000       12.0110           0
      2215 MEMB     17       POPC     H12R     HAL2     0.900000E-01   1.00800           0
      2216 MEMB     17       POPC     H12S     HAL2     0.900000E-01   1.00800           0
      2217 MEMB     17       POPC     C213     CTL2    -0.180000       12.0110           0
      2218 MEMB     17       POPC     H13R     HAL2     0.900000E-01   1.00800           0
      2219 MEMB     17       POPC     H13S     HAL2     0.900000E-01   1.00800           0
      2220 MEMB     17       POPC     C214     CTL2    -0.180000       12.0110           0
      2221 MEMB     17       POPC     H14R     HAL2     0.900000E-01   1.00800           0
      2222 MEMB     17       POPC     H14S     HAL2     0.900000E-01   1.00800           0
      2223 MEMB     17       POPC     C215     CTL2    -0.180000       12.0110           0
      2224 MEMB     17       POPC     H15R     HAL2     0.900000E-01   1.00800           0
      2225 MEMB     17       POPC     H15S     HAL2     0.900000E-01   1.00800           0
      2226 MEMB     17       POPC     C216     CTL2    -0.180000       12.0110           0
      2227 MEMB     17       POPC     H16R     HAL2     0.900000E-01   1.00800           0
      2228 MEMB     17       POPC     H16S     HAL2     0.900000E-01   1.00800           0
      2229 MEMB     17       POPC     C217     CTL2    -0.180000       12.0110           0
      2230 MEMB     17       POPC     H17R     HAL2     0.900000E-01   1.00800           0
      2231 MEMB     17       POPC     H17S     HAL2     0.900000E-01   1.00800           0
      2232 MEMB     17       POPC     C218     CTL3    -0.270000       12.0110           0
      2233 MEMB     17       POPC     H18R     HAL3     0.900000E-01   1.00800           0
      2234 MEMB     17       POPC     H18S     HAL3     0.900000E-01   1.00800           0
      2235 MEMB     17       POPC     H18T     HAL3     0.900000E-01   1.00800           0
      2236 MEMB     17       POPC     C33      CTL2    -0.180000       12.0110           0
      2237 MEMB     17       POPC     H3X      HAL2     0.900000E-01   1.00800           0
      2238 MEMB     17       POPC     H3Y      HAL2     0.900000E-01   1.00800           0
      2239 MEMB     17       POPC     C34      CTL2    -0.180000       12.0110           0
      2240 MEMB     17       POPC     H4X      HAL2     0.900000E-01   1.00800           0
      2241 MEMB     17       POPC     H4Y      HAL2     0.900000E-01   1.00800           0
      2242 MEMB     17       POPC     C35      CTL2    -0.180000       12.0110           0
      2243 MEMB     17       POPC     H5X      HAL2     0.900000E-01   1.00800           0
      2244 MEMB     17       POPC     H5Y      HAL2     0.900000E-01   1.00800           0
      2245 MEMB     17       POPC     C36      CTL2    -0.180000       12.0110           0
      2246 MEMB     17       POPC     H6X      HAL2     0.900000E-01   1.00800           0
      2247 MEMB     17       POPC     H6Y      HAL2     0.900000E-01   1.00800           0
      2248 MEMB     17       POPC     C37      CTL2    -0.180000       12.0110           0
      2249 MEMB     17       POPC     H7X      HAL2     0.900000E-01   1.00800           0
      2250 MEMB     17       POPC     H7Y      HAL2     0.900000E-01   1.00800           0
      2251 MEMB     17       POPC     C38      CTL2    -0.180000       12.0110           0
      2252 MEMB     17       POPC     H8X      HAL2     0.900000E-01   1.00800           0
      2253 MEMB     17       POPC     H8Y      HAL2     0.900000E-01   1.00800           0
      2254 MEMB     17       POPC     C39      CTL2    -0.180000       12.0110           0
      2255 MEMB     17       POPC     H9X      HAL2     0.900000E-01   1.00800           0
      2256 MEMB     17       POPC     H9Y      HAL2     0.900000E-01   1.00800           0
      2257 MEMB     17       POPC     C310     CTL2    -0.180000       12.0110           0
      2258 MEMB     17       POPC     H10X     HAL2     0.900000E-01   1.00800           0
      2259 MEMB     17       POPC     H10Y     HAL2     0.900000E-01   1.00800           0
      2260 MEMB     17       POPC     C311     CTL2    -0.180000       12.0110           0
      2261 MEMB     17       POPC     H11X     HAL2     0.900000E-01   1.00800           0
      2262 MEMB     17       POPC     H11Y     HAL2     0.900000E-01   1.00800           0
      2263 MEMB     17       POPC     C312     CTL2    -0.180000       12.0110           0
      2264 MEMB     17       POPC     H12X     HAL2     0.900000E-01   1.00800           0
      2265 MEMB     17       POPC     H12Y     HAL2     0.900000E-01   1.00800           0
      2266 MEMB     17       POPC     C313     CTL2    -0.180000       12.0110           0
      2267 MEMB     17       POPC     H13X     HAL2     0.900000E-01   1.00800           0
      2268 MEMB     17       POPC     H13Y     HAL2     0.900000E-01   1.00800           0
      2269 MEMB     17       POPC     C314     CTL2    -0.180000       12.0110           0
      2270 MEMB     17       POPC     H14X     HAL2     0.900000E-01   1.00800           0
      2271 MEMB     17       POPC     H14Y     HAL2     0.900000E-01   1.00800           0
      2272 MEMB     17       POPC     C315     CTL2    -0.180000       12.0110           0
      2273 MEMB     17       POPC     H15X     HAL2     0.900000E-01   1.00800           0
      2274 MEMB     17       POPC     H15Y     HAL2     0.900000E-01   1.00800           0
      2275 MEMB     17       POPC     C316     CTL3    -0.270000       12.0110           0
      2276 MEMB     17       POPC     H16X     HAL3     0.900000E-01   1.00800           0
      2277 MEMB     17       POPC     H16Y     HAL3     0.900000E-01   1.00800           0
      2278 MEMB     17       POPC     H16Z     HAL3     0.900000E-01   1.00800           0
      2279 MEMB     18       POPC     N        NTL     -0.600000       14.0070           0
      2280 MEMB     18       POPC     C12      CTL2    -0.100000       12.0110           0
      2281 MEMB     18       POPC     H12A     HL       0.250000       1.00800           0
      2282 MEMB     18       POPC     H12B     HL       0.250000       1.00800           0
      2283 MEMB     18       POPC     C13      CTL5    -0.350000       12.0110           0
      2284 MEMB     18       POPC     H13A     HL       0.250000       1.00800           0
      2285 MEMB     18       POPC     H13B     HL       0.250000       1.00800           0
      2286 MEMB     18       POPC     H13C     HL       0.250000       1.00800           0
      2287 MEMB     18       POPC     C14      CTL5    -0.350000       12.0110           0
      2288 MEMB     18       POPC     H14A     HL       0.250000       1.00800           0
      2289 MEMB     18       POPC     H14B     HL       0.250000       1.00800           0
      2290 MEMB     18       POPC     H14C     HL       0.250000       1.00800           0
      2291 MEMB     18       POPC     C15      CTL5    -0.350000       12.0110           0
      2292 MEMB     18       POPC     H15A     HL       0.250000       1.00800           0
      2293 MEMB     18       POPC     H15B     HL       0.250000       1.00800           0
      2294 MEMB     18       POPC     H15C     HL       0.250000       1.00800           0
      2295 MEMB     18       POPC     C11      CTL2    -0.800000E-01   12.0110           0
      2296 MEMB     18       POPC     H11A     HAL2     0.900000E-01   1.00800           0
      2297 MEMB     18       POPC     H11B     HAL2     0.900000E-01   1.00800           0
      2298 MEMB     18       POPC     P        PL       1.50000        30.9740           0
      2299 MEMB     18       POPC     O13      O2L     -0.780000       15.9994           0
      2300 MEMB     18       POPC     O14      O2L     -0.780000       15.9994           0
      2301 MEMB     18       POPC     O12      OSLP    -0.570000       15.9994           0
      2302 MEMB     18       POPC     O11      OSLP    -0.570000       15.9994           0
      2303 MEMB     18       POPC     C1       CTL2    -0.800000E-01   12.0110           0
      2304 MEMB     18       POPC     HA       HAL2     0.900000E-01   1.00800           0
      2305 MEMB     18       POPC     HB       HAL2     0.900000E-01   1.00800           0
      2306 MEMB     18       POPC     C2       CTL1     0.170000       12.0110           0
      2307 MEMB     18       POPC     HS       HAL1     0.900000E-01   1.00800           0
      2308 MEMB     18       POPC     O21      OSL     -0.490000       15.9994           0
      2309 MEMB     18       POPC     C21      CL       0.900000       12.0110           0
      2310 MEMB     18       POPC     O22      OBL     -0.630000       15.9994           0
      2311 MEMB     18       POPC     C22      CTL2    -0.220000       12.0110           0
      2312 MEMB     18       POPC     H2R      HAL2     0.900000E-01   1.00800           0
      2313 MEMB     18       POPC     H2S      HAL2     0.900000E-01   1.00800           0
      2314 MEMB     18       POPC     C3       CTL2     0.800000E-01   12.0110           0
      2315 MEMB     18       POPC     HX       HAL2     0.900000E-01   1.00800           0
      2316 MEMB     18       POPC     HY       HAL2     0.900000E-01   1.00800           0
      2317 MEMB     18       POPC     O31      OSL     -0.490000       15.9994           0
      2318 MEMB     18       POPC     C31      CL       0.900000       12.0110           0
      2319 MEMB     18       POPC     O32      OBL     -0.630000       15.9994           0
      2320 MEMB     18       POPC     C32      CTL2    -0.220000       12.0110           0
      2321 MEMB     18       POPC     H2X      HAL2     0.900000E-01   1.00800           0
      2322 MEMB     18       POPC     H2Y      HAL2     0.900000E-01   1.00800           0
      2323 MEMB     18       POPC     C23      CTL2    -0.180000       12.0110           0
      2324 MEMB     18       POPC     H3R      HAL2     0.900000E-01   1.00800           0
      2325 MEMB     18       POPC     H3S      HAL2     0.900000E-01   1.00800           0
      2326 MEMB     18       POPC     C24      CTL2    -0.180000       12.0110           0
      2327 MEMB     18       POPC     H4R      HAL2     0.900000E-01   1.00800           0
      2328 MEMB     18       POPC     H4S      HAL2     0.900000E-01   1.00800           0
      2329 MEMB     18       POPC     C25      CTL2    -0.180000       12.0110           0
      2330 MEMB     18       POPC     H5R      HAL2     0.900000E-01   1.00800           0
      2331 MEMB     18       POPC     H5S      HAL2     0.900000E-01   1.00800           0
      2332 MEMB     18       POPC     C26      CTL2    -0.180000       12.0110           0
      2333 MEMB     18       POPC     H6R      HAL2     0.900000E-01   1.00800           0
      2334 MEMB     18       POPC     H6S      HAL2     0.900000E-01   1.00800           0
      2335 MEMB     18       POPC     C27      CTL2    -0.180000       12.0110           0
      2336 MEMB     18       POPC     H7R      HAL2     0.900000E-01   1.00800           0
      2337 MEMB     18       POPC     H7S      HAL2     0.900000E-01   1.00800           0
      2338 MEMB     18       POPC     C28      CTL2    -0.180000       12.0110           0
      2339 MEMB     18       POPC     H8R      HAL2     0.900000E-01   1.00800           0
      2340 MEMB     18       POPC     H8S      HAL2     0.900000E-01   1.00800           0
      2341 MEMB     18       POPC     C29      CEL1    -0.150000       12.0110           0
      2342 MEMB     18       POPC     H91      HEL1     0.150000       1.00800           0
      2343 MEMB     18       POPC     C210     CEL1    -0.150000       12.0110           0
      2344 MEMB     18       POPC     H101     HEL1     0.150000       1.00800           0
      2345 MEMB     18       POPC     C211     CTL2    -0.180000       12.0110           0
      2346 MEMB     18       POPC     H11R     HAL2     0.900000E-01   1.00800           0
      2347 MEMB     18       POPC     H11S     HAL2     0.900000E-01   1.00800           0
      2348 MEMB     18       POPC     C212     CTL2    -0.180000       12.0110           0
      2349 MEMB     18       POPC     H12R     HAL2     0.900000E-01   1.00800           0
      2350 MEMB     18       POPC     H12S     HAL2     0.900000E-01   1.00800           0
      2351 MEMB     18       POPC     C213     CTL2    -0.180000       12.0110           0
      2352 MEMB     18       POPC     H13R     HAL2     0.900000E-01   1.00800           0
      2353 MEMB     18       POPC     H13S     HAL2     0.900000E-01   1.00800           0
      2354 MEMB     18       POPC     C214     CTL2    -0.180000       12.0110           0
      2355 MEMB     18       POPC     H14R     HAL2     0.900000E-01   1.00800           0
      2356 MEMB     18       POPC     H14S     HAL2     0.900000E-01   1.00800           0
      2357 MEMB     18       POPC     C215     CTL2    -0.180000       12.0110           0
      2358 MEMB     18       POPC     H15R     HAL2     0.900000E-01   1.00800           0
      2359 MEMB     18       POPC     H15S     HAL2     0.900000E-01   1.00800           0
      2360 MEMB     18       POPC     C216     CTL2    -0.180000       12.0110           0
      2361 MEMB     18       POPC     H16R     HAL2     0.900000E-01   1.00800           0
      2362 MEMB     18       POPC     H16S     HAL2     0.900000E-01   1.00800           0
      2363 MEMB     18       POPC     C217     CTL2    -0.180000       12.0110           0
      2364 MEMB     18       POPC     H17R     HAL2     0.900000E-01   1.00800           0
      2365 MEMB     18       POPC     H17S     HAL2     0.900000E-01   1.00800           0
      2366 MEMB     18       POPC     C218     CTL3    -0.270000       12.0110           0
      2367 MEMB     18       POPC     H18R     HAL3     0.900000E-01   1.00800           0
      2368 MEMB     18       POPC     H18S     HAL3     0.900000E-01   1.00800           0
      2369 MEMB     18       POPC     H18T     HAL3     0.900000E-01   1.00800           0
      2370 MEMB     18       POPC     C33      CTL2    -0.180000       12.0110           0
      2371 MEMB     18       POPC     H3X      HAL2     0.900000E-01   1.00800           0
      2372 MEMB     18       POPC     H3Y      HAL2     0.900000E-01   1.00800           0
      2373 MEMB     18       POPC     C34      CTL2    -0.180000       12.0110           0
      2374 MEMB     18       POPC     H4X      HAL2     0.900000E-01   1.00800           0
      2375 MEMB     18       POPC     H4Y      HAL2     0.900000E-01   1.00800           0
      2376 MEMB     18       POPC     C35      CTL2    -0.180000       12.0110           0
      2377 MEMB     18       POPC     H5X      HAL2     0.900000E-01   1.00800           0
      2378 MEMB     18       POPC     H5Y      HAL2     0.900000E-01   1.00800           0
      2379 MEMB     18       POPC     C36      CTL2    -0.180000       12.0110           0
      2380 MEMB     18       POPC     H6X      HAL2     0.900000E-01   1.00800           0
      2381 MEMB     18       POPC     H6Y      HAL2     0.900000E-01   1.00800           0
      2382 MEMB     18       POPC     C37      CTL2    -0.180000       12.0110           0
      2383 MEMB     18       POPC     H7X      HAL2     0.900000E-01   1.00800           0
      2384 MEMB     18       POPC     H7Y      HAL2     0.900000E-01   1.00800           0
      2385 MEMB     18       POPC     C38      CTL2    -0.180000       12.0110           0
      2386 MEMB     18       POPC     H8X      HAL2     0.900000E-01   1.00800           0
      2387 MEMB     18       POPC     H8Y      HAL2     0.900000E-01   1.00800           0
      2388 MEMB     18       POPC     C39      CTL2    -0.180000       12.0110           0
      2389 MEMB     18       POPC     H9X      HAL2     0.900000E-01   1.00800           0
      2390 MEMB     18       POPC     H9Y      HAL2     0.900000E-01   1.00800           0
      2391 MEMB     18       POPC     C310     CTL2    -0.180000       12.0110           0
      2392 MEMB     18       POPC     H10X     HAL2     0.900000E-01   1.00800           0
      2393 MEMB     18       POPC     H10Y     HAL2     0.900000E-01   1.00800           0
      2394 MEMB     18       POPC     C311     CTL2    -0.180000       12.0110           0
      2395 MEMB     18       POPC     H11X     HAL2     0.900000E-01   1.00800           0
      2396 MEMB     18       POPC     H11Y     HAL2     0.900000E-01   1.00800           0
      2397 MEMB     18       POPC     C312     CTL2    -0.180000       12.0110           0
      2398 MEMB     18       POPC     H12X     HAL2     0.900000E-01   1.00800           0
      2399 MEMB     18       POPC     H12Y     HAL2     0.900000E-01   1.00800           0
      2400 MEMB     18       POPC     C313     CTL2    -0.180000       12.0110           0
      2401 MEMB     18       POPC     H13X     HAL2     0.900000E-01   1.00800           0
      2402 MEMB     18       POPC     H13Y     HAL2     0.900000E-01   1.00800           0
      2403 MEMB     18       POPC     C314     CTL2    -0.180000       12.0110           0
      2404 MEMB     18       POPC     H14X     HAL2     0.900000E-01   1.00800           0
      2405 MEMB     18       POPC     H14Y     HAL2     0.900000E-01   1.00800           0
      2406 MEMB     18       POPC     C315     CTL2    -0.180000       12.0110           0
      2407 MEMB     18       POPC     H15X     HAL2     0.900000E-01   1.00800           0
      2408 MEMB     18       POPC     H15Y     HAL2     0.900000E-01   1.00800           0
      2409 MEMB     18       POPC     C316     CTL3    -0.270000       12.0110           0
      2410 MEMB     18       POPC     H16X     HAL3     0.900000E-01   1.00800           0
      2411 MEMB     18       POPC     H16Y     HAL3     0.900000E-01   1.00800           0
      2412 MEMB     18       POPC     H16Z     HAL3     0.900000E-01   1.00800           0
      2413 MEMB     19       POPC     N        NTL     -0.600000       14.0070           0
      2414 MEMB     19       POPC     C12      CTL2    -0.100000       12.0110           0
      2415 MEMB     19       POPC     H12A     HL       0.250000       1.00800           0
      2416 MEMB     19       POPC     H12B     HL       0.250000       1.00800           0
      2417 MEMB     19       POPC     C13      CTL5    -0.350000       12.0110           0
      2418 MEMB     19       POPC     H13A     HL       0.250000       1.00800           0
      2419 MEMB     19       POPC     H13B     HL       0.250000       1.00800           0
      2420 MEMB     19       POPC     H13C     HL       0.250000       1.00800           0
      2421 MEMB     19       POPC     C14      CTL5    -0.350000       12.0110           0
      2422 MEMB     19       POPC     H14A     HL       0.250000       1.00800           0
      2423 MEMB     19       POPC     H14B     HL       0.250000       1.00800           0
      2424 MEMB     19       POPC     H14C     HL       0.250000       1.00800           0
      2425 MEMB     19       POPC     C15      CTL5    -0.350000       12.0110           0
      2426 MEMB     19       POPC     H15A     HL       0.250000       1.00800           0
      2427 MEMB     19       POPC     H15B     HL       0.250000       1.00800           0
      2428 MEMB     19       POPC     H15C     HL       0.250000       1.00800           0
      2429 MEMB     19       POPC     C11      CTL2    -0.800000E-01   12.0110           0
      2430 MEMB     19       POPC     H11A     HAL2     0.900000E-01   1.00800           0
      2431 MEMB     19       POPC     H11B     HAL2     0.900000E-01   1.00800           0
      2432 MEMB     19       POPC     P        PL       1.50000        30.9740           0
      2433 MEMB     19       POPC     O13      O2L     -0.780000       15.9994           0
      2434 MEMB     19       POPC     O14      O2L     -0.780000       15.9994           0
      2435 MEMB     19       POPC     O12      OSLP    -0.570000       15.9994           0
      2436 MEMB     19       POPC     O11      OSLP    -0.570000       15.9994           0
      2437 MEMB     19       POPC     C1       CTL2    -0.800000E-01   12.0110           0
      2438 MEMB     19       POPC     HA       HAL2     0.900000E-01   1.00800           0
      2439 MEMB     19       POPC     HB       HAL2     0.900000E-01   1.00800           0
      2440 MEMB     19       POPC     C2       CTL1     0.170000       12.0110           0
      2441 MEMB     19       POPC     HS       HAL1     0.900000E-01   1.00800           0
      2442 MEMB     19       POPC     O21      OSL     -0.490000       15.9994           0
      2443 MEMB     19       POPC     C21      CL       0.900000       12.0110           0
      2444 MEMB     19       POPC     O22      OBL     -0.630000       15.9994           0
      2445 MEMB     19       POPC     C22      CTL2    -0.220000       12.0110           0
      2446 MEMB     19       POPC     H2R      HAL2     0.900000E-01   1.00800           0
      2447 MEMB     19       POPC     H2S      HAL2     0.900000E-01   1.00800           0
      2448 MEMB     19       POPC     C3       CTL2     0.800000E-01   12.0110           0
      2449 MEMB     19       POPC     HX       HAL2     0.900000E-01   1.00800           0
      2450 MEMB     19       POPC     HY       HAL2     0.900000E-01   1.00800           0
      2451 MEMB     19       POPC     O31      OSL     -0.490000       15.9994           0
      2452 MEMB     19       POPC     C31      CL       0.900000       12.0110           0
      2453 MEMB     19       POPC     O32      OBL     -0.630000       15.9994           0
      2454 MEMB     19       POPC     C32      CTL2    -0.220000       12.0110           0
      2455 MEMB     19       POPC     H2X      HAL2     0.900000E-01   1.00800           0
      2456 MEMB     19       POPC     H2Y      HAL2     0.900000E-01   1.00800           0
      2457 MEMB     19       POPC     C23      CTL2    -0.180000       12.0110           0
      2458 MEMB     19       POPC     H3R      HAL2     0.900000E-01   1.00800           0
      2459 MEMB     19       POPC     H3S      HAL2     0.900000E-01   1.00800           0
      2460 MEMB     19       POPC     C24      CTL2    -0.180000       12.0110           0
      2461 MEMB     19       POPC     H4R      HAL2     0.900000E-01   1.00800           0
      2462 MEMB     19       POPC     H4S      HAL2     0.900000E-01   1.00800           0
      2463 MEMB     19       POPC     C25      CTL2    -0.180000       12.0110           0
      2464 MEMB     19       POPC     H5R      HAL2     0.900000E-01   1.00800           0
      2465 MEMB     19       POPC     H5S      HAL2     0.900000E-01   1.00800           0
      2466 MEMB     19       POPC     C26      CTL2    -0.180000       12.0110           0
      2467 MEMB     19       POPC     H6R      HAL2     0.900000E-01   1.00800           0
      2468 MEMB     19       POPC     H6S      HAL2     0.900000E-01   1.00800           0
      2469 MEMB     19       POPC     C27      CTL2    -0.180000       12.0110           0
      2470 MEMB     19       POPC     H7R      HAL2     0.900000E-01   1.00800           0
      2471 MEMB     19       POPC     H7S      HAL2     0.900000E-01   1.00800           0
      2472 MEMB     19       POPC     C28      CTL2    -0.180000       12.0110           0
      2473 MEMB     19       POPC     H8R      HAL2     0.900000E-01   1.00800           0
      2474 MEMB     19       POPC     H8S      HAL2     0.900000E-01   1.00800           0
      2475 MEMB     19       POPC     C29      CEL1    -0.150000       12.0110           0
      2476 MEMB     19       POPC     H91      HEL1     0.150000       1.00800           0
      2477 MEMB     19       POPC     C210     CEL1    -0.150000       12.0110           0
      2478 MEMB     19       POPC     H101     HEL1     0.150000       1.00800           0
      2479 MEMB     19       POPC     C211     CTL2    -0.180000       12.0110           0
      2480 MEMB     19       POPC     H11R     HAL2     0.900000E-01   1.00800           0
      2481 MEMB     19       POPC     H11S     HAL2     0.900000E-01   1.00800           0
      2482 MEMB     19       POPC     C212     CTL2    -0.180000       12.0110           0
      2483 MEMB     19       POPC     H12R     HAL2     0.900000E-01   1.00800           0
      2484 MEMB     19       POPC     H12S     HAL2     0.900000E-01   1.00800           0
      2485 MEMB     19       POPC     C213     CTL2    -0.180000       12.0110           0
      2486 MEMB     19       POPC     H13R     HAL2     0.900000E-01   1.00800           0
      2487 MEMB     19       POPC     H13S     HAL2     0.900000E-01   1.00800           0
      2488 MEMB     19       POPC     C214     CTL2    -0.180000       12.0110           0
      2489 MEMB     19       POPC     H14R     HAL2     0.900000E-01   1.00800           0
      2490 MEMB     19       POPC     H14S     HAL2     0.900000E-01   1.00800           0
      2491 MEMB     19       POPC     C215     CTL2    -0.180000       12.0110           0
      2492 MEMB     19       POPC     H15R     HAL2     0.900000E-01   1.00800           0
      2493 MEMB     19       POPC     H15S     HAL2     0.900000E-01   1.00800           0
      2494 MEMB     19       POPC     C216     CTL2    -0.180000       12.0110           0
      2495 MEMB     19       POPC     H16R     HAL2     0.900000E-01   1.00800           0
      2496 MEMB     19       POPC     H16S     HAL2     0.900000E-01   1.00800           0
      2497 MEMB     19       POPC     C217     CTL2    -0.180000       12.0110           0
      2498 MEMB     19       POPC     H17R     HAL2     0.900000E-01   1.00800           0
      2499 MEMB     19       POPC     H17S     HAL2     0.900000E-01   1.00800           0
      2500 MEMB     19       POPC     C218     CTL3    -0.270000       12.0110           0
      2501 MEMB     19       POPC     H18R     HAL3     0.900000E-01   1.00800           0
      2502 MEMB     19       POPC     H18S     HAL3     0.900000E-01   1.00800           0
      2503 MEMB     19       POPC     H18T     HAL3     0.900000E-01   1.00800           0
      2504 MEMB     19       POPC     C33      CTL2    -0.180000       12.0110           0
      2505 MEMB     19       POPC     H3X      HAL2     0.900000E-01   1.00800           0
      2506 MEMB     19       POPC     H3Y      HAL2     0.900000E-01   1.00800           0
      2507 MEMB     19       POPC     C34      CTL2    -0.180000       12.0110           0
      2508 MEMB     19       POPC     H4X      HAL2     0.900000E-01   1.00800           0
      2509 MEMB     19       POPC     H4Y      HAL2     0.900000E-01   1.00800           0
      2510 MEMB     19       POPC     C35      CTL2    -0.180000       12.0110           0
      2511 MEMB     19       POPC     H5X      HAL2     0.900000E-01   1.00800           0
      2512 MEMB     19       POPC     H5Y      HAL2     0.900000E-01   1.00800           0
      2513 MEMB     19       POPC     C36      CTL2    -0.180000       12.0110           0
      2514 MEMB     19       POPC     H6X      HAL2     0.900000E-01   1.00800           0
      2515 MEMB     19       POPC     H6Y      HAL2     0.900000E-01   1.00800           0
      2516 MEMB     19       POPC     C37      CTL2    -0.180000       12.0110           0
      2517 MEMB     19       POPC     H7X      HAL2     0.900000E-01   1.00800           0
      2518 MEMB     19       POPC     H7Y      HAL2     0.900000E-01   1.00800           0
      2519 MEMB     19       POPC     C38      CTL2    -0.180000       12.0110           0
      2520 MEMB     19       POPC     H8X      HAL2     0.900000E-01   1.00800           0
      2521 MEMB     19       POPC     H8Y      HAL2     0.900000E-01   1.00800           0
      2522 MEMB     19       POPC     C39      CTL2    -0.180000       12.0110           0
      2523 MEMB     19       POPC     H9X      HAL2     0.900000E-01   1.00800           0
      2524 MEMB     19       POPC     H9Y      HAL2     0.900000E-01   1.00800           0
      2525 MEMB     19       POPC     C310     CTL2    -0.180000       12.0110           0
      2526 MEMB     19       POPC     H10X     HAL2     0.900000E-01   1.00800           0
      2527 MEMB     19       POPC     H10Y     HAL2     0.900000E-01   1.00800           0
      2528 MEMB     19       POPC     C311     CTL2    -0.180000       12.0110           0
      2529 MEMB     19       POPC     H11X     HAL2     0.900000E-01   1.00800           0
      2530 MEMB     19       POPC     H11Y     HAL2     0.900000E-01   1.00800           0
      2531 MEMB     19       POPC     C312     CTL2    -0.180000       12.0110           0
      2532 MEMB     19       POPC     H12X     HAL2     0.900000E-01   1.00800           0
      2533 MEMB     19       POPC     H12Y     HAL2     0.900000E-01   1.00800           0
      2534 MEMB     19       POPC     C313     CTL2    -0.180000       12.0110           0
      2535 MEMB     19       POPC     H13X     HAL2     0.900000E-01   1.00800           0
      2536 MEMB     19       POPC     H13Y     HAL2     0.900000E-01   1.00800           0
      2537 MEMB     19       POPC     C314     CTL2    -0.180000       12.0110           0
      2538 MEMB     19       POPC     H14X     HAL2     0.900000E-01   1.00800           0
      2539 MEMB     19       POPC     H14Y     HAL2     0.900000E-01   1.00800           0
      2540 MEMB     19       POPC     C315     CTL2    -0.180000       12.0110           0
      2541 MEMB     19       POPC     H15X     HAL2     0.900000E-01   1.00800           0
      2542 MEMB     19       POPC     H15Y     HAL2     0.900000E-01   1.00800           0
      2543 MEMB     19       POPC     C316     CTL3    -0.270000       12.0110           0
      2544 MEMB     19       POPC     H16X     HAL3     0.900000E-01   1.00800           0
      2545 MEMB     19       POPC     H16Y     HAL3     0.900000E-01   1.00800           0
      2546 MEMB     19       POPC     H16Z     HAL3     0.900000E-01   1.00800           0
      2547 MEMB     20       POPC     N        NTL     -0.600000       14.0070           0
      2548 MEMB     20       POPC     C12      CTL2    -0.100000       12.0110           0
      2549 MEMB     20       POPC     H12A     HL       0.250000       1.00800           0
      2550 MEMB     20       POPC     H12B     HL       0.250000       1.00800           0
      2551 MEMB     20       POPC     C13      CTL5    -0.350000       12.0110           0
      2552 MEMB     20       POPC     H13A     HL       0.250000       1.00800           0
      2553 MEMB     20       POPC     H13B     HL       0.250000       1.00800           0
      2554 MEMB     20       POPC     H13C     HL       0.250000       1.00800           0
      2555 MEMB     20       POPC     C14      CTL5    -0.350000       12.0110           0
      2556 MEMB     20       POPC     H14A     HL       0.250000       1.00800           0
      2557 MEMB     20       POPC     H14B     HL       0.250000       1.00800           0
      2558 MEMB     20       POPC     H14C     HL       0.250000       1.00800           0
      2559 MEMB     20       POPC     C15      CTL5    -0.350000       12.0110           0
      2560 MEMB     20       POPC     H15A     HL       0.250000       1.00800           0
      2561 MEMB     20       POPC     H15B     HL       0.250000       1.00800           0
      2562 MEMB     20       POPC     H15C     HL       0.250000       1.00800           0
      2563 MEMB     20       POPC     C11      CTL2    -0.800000E-01   12.0110           0
      2564 MEMB     20       POPC     H11A     HAL2     0.900000E-01   1.00800           0
      2565 MEMB     20       POPC     H11B     HAL2     0.900000E-01   1.00800           0
      2566 MEMB     20       POPC     P        PL       1.50000        30.9740           0
      2567 MEMB     20       POPC     O13      O2L     -0.780000       15.9994           0
      2568 MEMB     20       POPC     O14      O2L     -0.780000       15.9994           0
      2569 MEMB     20       POPC     O12      OSLP    -0.570000       15.9994           0
      2570 MEMB     20       POPC     O11      OSLP    -0.570000       15.9994           0
      2571 MEMB     20       POPC     C1       CTL2    -0.800000E-01   12.0110           0
      2572 MEMB     20       POPC     HA       HAL2     0.900000E-01   1.00800           0
      2573 MEMB     20       POPC     HB       HAL2     0.900000E-01   1.00800           0
      2574 MEMB     20       POPC     C2       CTL1     0.170000       12.0110           0
      2575 MEMB     20       POPC     HS       HAL1     0.900000E-01   1.00800           0
      2576 MEMB     20       POPC     O21      OSL     -0.490000       15.9994           0
      2577 MEMB     20       POPC     C21      CL       0.900000       12.0110           0
      2578 MEMB     20       POPC     O22      OBL     -0.630000       15.9994           0
      2579 MEMB     20       POPC     C22      CTL2    -0.220000       12.0110           0
      2580 MEMB     20       POPC     H2R      HAL2     0.900000E-01   1.00800           0
      2581 MEMB     20       POPC     H2S      HAL2     0.900000E-01   1.00800           0
      2582 MEMB     20       POPC     C3       CTL2     0.800000E-01   12.0110           0
      2583 MEMB     20       POPC     HX       HAL2     0.900000E-01   1.00800           0
      2584 MEMB     20       POPC     HY       HAL2     0.900000E-01   1.00800           0
      2585 MEMB     20       POPC     O31      OSL     -0.490000       15.9994           0
      2586 MEMB     20       POPC     C31      CL       0.900000       12.0110           0
      2587 MEMB     20       POPC     O32      OBL     -0.630000       15.9994           0
      2588 MEMB     20       POPC     C32      CTL2    -0.220000       12.0110           0
      2589 MEMB     20       POPC     H2X      HAL2     0.900000E-01   1.00800           0
      2590 MEMB     20       POPC     H2Y      HAL2     0.900000E-01   1.00800           0
      2591 MEMB     20       POPC     C23      CTL2    -0.180000       12.0110           0
      2592 MEMB     20       POPC     H3R      HAL2     0.900000E-01   1.00800           0
      2593 MEMB     20       POPC     H3S      HAL2     0.900000E-01   1.00800           0
      2594 MEMB     20       POPC     C24      CTL2    -0.180000       12.0110           0
      2595 MEMB     20       POPC     H4R      HAL2     0.900000E-01   1.00800           0
      2596 MEMB     20       POPC     H4S      HAL2     0.900000E-01   1.00800           0
      2597 MEMB     20       POPC     C25      CTL2    -0.180000       12.0110           0
      2598 MEMB     20       POPC     H5R      HAL2     0.900000E-01   1.00800           0
      2599 MEMB     20       POPC     H5S      HAL2     0.900000E-01   1.00800           0
      2600 MEMB     20       POPC     C26      CTL2    -0.180000       12.0110           0
      2601 MEMB     20       POPC     H6R      HAL2     0.900000E-01   1.00800           0
      2602 MEMB     20       POPC     H6S      HAL2     0.900000E-01   1.00800           0
      2603 MEMB     20       POPC     C27      CTL2    -0.180000       12.0110           0
      2604 MEMB     20       POPC     H7R      HAL2     0.900000E-01   1.00800           0
      2605 MEMB     20       POPC     H7S      HAL2     0.900000E-01   1.00800           0
      2606 MEMB     20       POPC     C28      CTL2    -0.180000       12.0110           0
      2607 MEMB     20       POPC     H8R      HAL2     0.900000E-01   1.00800           0
      2608 MEMB     20       POPC     H8S      HAL2     0.900000E-01   1.00800           0
      2609 MEMB     20       POPC     C29      CEL1    -0.150000       12.0110           0
      2610 MEMB     20       POPC     H91      HEL1     0.150000       1.00800           0
      2611 MEMB     20       POPC     C210     CEL1    -0.150000       12.0110           0
      2612 MEMB     20       POPC     H101     HEL1     0.150000       1.00800           0
      2613 MEMB     20       POPC     C211     CTL2    -0.180000       12.0110           0
      2614 MEMB     20       POPC     H11R     HAL2     0.900000E-01   1.00800           0
      2615 MEMB     20       POPC     H11S     HAL2     0.900000E-01   1.00800           0
      2616 MEMB     20       POPC     C212     CTL2    -0.180000       12.0110           0
      2617 MEMB     20       POPC     H12R     HAL2     0.900000E-01   1.00800           0
      2618 MEMB     20       POPC     H12S     HAL2     0.900000E-01   1.00800           0
      2619 MEMB     20       POPC     C213     CTL2    -0.180000       12.0110           0
      2620 MEMB     20       POPC     H13R     HAL2     0.900000E-01   1.00800           0
      2621 MEMB     20       POPC     H13S     HAL2     0.900000E-01   1.00800           0
      2622 MEMB     20       POPC     C214     CTL2    -0.180000       12.0110           0
      2623 MEMB     20       POPC     H14R     HAL2     0.900000E-01   1.00800           0
      2624 MEMB     20       POPC     H14S     HAL2     0.900000E-01   1.00800           0
      2625 MEMB     20       POPC     C215     CTL2    -0.180000       12.0110           0
      2626 MEMB     20       POPC     H15R     HAL2     0.900000E-01   1.00800           0
      2627 MEMB     20       POPC     H15S     HAL2     0.900000E-01   1.00800           0
      2628 MEMB     20       POPC     C216     CTL2    -0.180000       12.0110           0
      2629 MEMB     20       POPC     H16R     HAL2     0.900000E-01   1.00800           0
      2630 MEMB     20       POPC     H16S     HAL2     0.900000E-01   1.00800           0
      2631 MEMB     20       POPC     C217     CTL2    -0.180000       12.0110           0
      2632 MEMB     20       POPC     H17R     HAL2     0.900000E-01   1.00800           0
      2633 MEMB     20       POPC     H17S     HAL2     0.900000E-01   1.00800           0
      2634 MEMB     20       POPC     C218     CTL3    -0.270000       12.0110           0
      2635 MEMB     20       POPC     H18R     HAL3     0.900000E-01   1.00800           0
      2636 MEMB     20       POPC     H18S     HAL3     0.900000E-01   1.00800           0
      2637 MEMB     20       POPC     H18T     HAL3     0.900000E-01   1.00800           0
      2638 MEMB     20       POPC     C33      CTL2    -0.180000       12.0110           0
      2639 MEMB     20       POPC     H3X      HAL2     0.900000E-01   1.00800           0
      2640 MEMB     20       POPC     H3Y      HAL2     0.900000E-01   1.00800           0
      2641 MEMB     20       POPC     C34      CTL2    -0.180000       12.0110           0
      2642 MEMB     20       POPC     H4X      HAL2     0.900000E-01   1.00800           0
      2643 MEMB     20       POPC     H4Y      HAL2     0.900000E-01   1.00800           0
      2644 MEMB     20       POPC     C35      CTL2    -0.180000       12.0110           0
      2645 MEMB     20       POPC     H5X      HAL2     0.900000E-01   1.00800           0
      2646 MEMB     20       POPC     H5Y      HAL2     0.900000E-01   1.00800           0
      2647 MEMB     20       POPC     C36      CTL2    -0.180000       12.0110           0
      2648 MEMB     20       POPC     H6X      HAL2     0.900000E-01   1.00800           0
      2649 MEMB     20       POPC     H6Y      HAL2     0.900000E-01   1.00800           0
      2650 MEMB     20       POPC     C37      CTL2    -0.180000       12.0110           0
      2651 MEMB     20       POPC     H7X      HAL2     0.900000E-01   1.00800           0
      2652 MEMB     20       POPC     H7Y      HAL2     0.900000E-01   1.00800           0
      2653 MEMB     20       POPC     C38      CTL2    -0.180000       12.0110           0
      2654 MEMB     20       POPC     H8X      HAL2     0.900000E-01   1.00800           0
      2655 MEMB     20       POPC     H8Y      HAL2     0.900000E-01   1.00800           0
      2656 MEMB     20       POPC     C39      CTL2    -0.180000       12.0110           0
      2657 MEMB     20       POPC     H9X      HAL2     0.900000E-01   1.00800           0
      2658 MEMB     20       POPC     H9Y      HAL2     0.900000E-01   1.00800           0
      2659 MEMB     20       POPC     C310     CTL2    -0.180000       12.0110           0
      2660 MEMB     20       POPC     H10X     HAL2     0.900000E-01   1.00800           0
      2661 MEMB     20       POPC     H10Y     HAL2     0.900000E-01   1.00800           0
      2662 MEMB     20       POPC     C311     CTL2    -0.180000       12.0110           0
      2663 MEMB     20       POPC     H11X     HAL2     0.900000E-01   1.00800           0
      2664 MEMB     20       POPC     H11Y     HAL2     0.900000E-01   1.00800           0
      2665 MEMB     20       POPC     C312     CTL2    -0.180000       12.0110           0
      2666 MEMB     20       POPC     H12X     HAL2     0.900000E-01   1.00800           0
      2667 MEMB     20       POPC     H12Y     HAL2     0.900000E-01   1.00800           0
      2668 MEMB     20       POPC     C313     CTL2    -0.180000       12.0110           0
      2669 MEMB     20       POPC     H13X     HAL2     0.900000E-01   1.00800           0
      2670 MEMB     20       POPC     H13Y     HAL2     0.900000E-01   1.00800           0
      2671 MEMB     20       POPC     C314     CTL2    -0.180000       12.0110           0
      2672 MEMB     20       POPC     H14X     HAL2     0.900000E-01   1.00800           0
      2673 MEMB     20       POPC     H14Y     HAL2     0.900000E-01   1.00800           0
      2674 MEMB     20       POPC     C315     CTL2    -0.180000       12.0110           0
      2675 MEMB     20       POPC     H15X     HAL2     0.900000E-01   1.00800           0
      2676 MEMB     20       POPC     H15Y     HAL2     0.900000E-01   1.00800           0
      2677 MEMB     20       POPC     C316     CTL3    -0.270000       12.0110           0
      2678 MEMB     20       POPC     H16X     HAL3     0.900000E-01   1.00800           0
      2679 MEMB     20       POPC     H16Y     HAL3     0.900000E-01   1.00800           0
      2680 MEMB     20       POPC     H16Z     HAL3     0.900000E-01   1.00800           0
      2681 MEMB     21       POPC     N        NTL     -0.600000       14.0070           0
      2682 MEMB     21       POPC     C12      CTL2    -0.100000       12.0110           0
      2683 MEMB     21       POPC     H12A     HL       0.250000       1.00800           0
      2684 MEMB     21       POPC     H12B     HL       0.250000       1.00800           0
      2685 MEMB     21       POPC     C13      CTL5    -0.350000       12.0110           0
      2686 MEMB     21       POPC     H13A     HL       0.250000       1.00800           0
      2687 MEMB     21       POPC     H13B     HL       0.250000       1.00800           0
      2688 MEMB     21       POPC     H13C     HL       0.250000       1.00800           0
      2689 MEMB     21       POPC     C14      CTL5    -0.350000       12.0110           0
      2690 MEMB     21       POPC     H14A     HL       0.250000       1.00800           0
      2691 MEMB     21       POPC     H14B     HL       0.250000       1.00800           0
      2692 MEMB     21       POPC     H14C     HL       0.250000       1.00800           0
      2693 MEMB     21       POPC     C15      CTL5    -0.350000       12.0110           0
      2694 MEMB     21       POPC     H15A     HL       0.250000       1.00800           0
      2695 MEMB     21       POPC     H15B     HL       0.250000       1.00800           0
      2696 MEMB     21       POPC     H15C     HL       0.250000       1.00800           0
      2697 MEMB     21       POPC     C11      CTL2    -0.800000E-01   12.0110           0
      2698 MEMB     21       POPC     H11A     HAL2     0.900000E-01   1.00800           0
      2699 MEMB     21       POPC     H11B     HAL2     0.900000E-01   1.00800           0
      2700 MEMB     21       POPC     P        PL       1.50000        30.9740           0
      2701 MEMB     21       POPC     O13      O2L     -0.780000       15.9994           0
      2702 MEMB     21       POPC     O14      O2L     -0.780000       15.9994           0
      2703 MEMB     21       POPC     O12      OSLP    -0.570000       15.9994           0
      2704 MEMB     21       POPC     O11      OSLP    -0.570000       15.9994           0
      2705 MEMB     21       POPC     C1       CTL2    -0.800000E-01   12.0110           0
      2706 MEMB     21       POPC     HA       HAL2     0.900000E-01   1.00800           0
      2707 MEMB     21       POPC     HB       HAL2     0.900000E-01   1.00800           0
      2708 MEMB     21       POPC     C2       CTL1     0.170000       12.0110           0
      2709 MEMB     21       POPC     HS       HAL1     0.900000E-01   1.00800           0
      2710 MEMB     21       POPC     O21      OSL     -0.490000       15.9994           0
      2711 MEMB     21       POPC     C21      CL       0.900000       12.0110           0
      2712 MEMB     21       POPC     O22      OBL     -0.630000       15.9994           0
      2713 MEMB     21       POPC     C22      CTL2    -0.220000       12.0110           0
      2714 MEMB     21       POPC     H2R      HAL2     0.900000E-01   1.00800           0
      2715 MEMB     21       POPC     H2S      HAL2     0.900000E-01   1.00800           0
      2716 MEMB     21       POPC     C3       CTL2     0.800000E-01   12.0110           0
      2717 MEMB     21       POPC     HX       HAL2     0.900000E-01   1.00800           0
      2718 MEMB     21       POPC     HY       HAL2     0.900000E-01   1.00800           0
      2719 MEMB     21       POPC     O31      OSL     -0.490000       15.9994           0
      2720 MEMB     21       POPC     C31      CL       0.900000       12.0110           0
      2721 MEMB     21       POPC     O32      OBL     -0.630000       15.9994           0
      2722 MEMB     21       POPC     C32      CTL2    -0.220000       12.0110           0
      2723 MEMB     21       POPC     H2X      HAL2     0.900000E-01   1.00800           0
      2724 MEMB     21       POPC     H2Y      HAL2     0.900000E-01   1.00800           0
      2725 MEMB     21       POPC     C23      CTL2    -0.180000       12.0110           0
      2726 MEMB     21       POPC     H3R      HAL2     0.900000E-01   1.00800           0
      2727 MEMB     21       POPC     H3S      HAL2     0.900000E-01   1.00800           0
      2728 MEMB     21       POPC     C24      CTL2    -0.180000       12.0110           0
      2729 MEMB     21       POPC     H4R      HAL2     0.900000E-01   1.00800           0
      2730 MEMB     21       POPC     H4S      HAL2     0.900000E-01   1.00800           0
      2731 MEMB     21       POPC     C25      CTL2    -0.180000       12.0110           0
      2732 MEMB     21       POPC     H5R      HAL2     0.900000E-01   1.00800           0
      2733 MEMB     21       POPC     H5S      HAL2     0.900000E-01   1.00800           0
      2734 MEMB     21       POPC     C26      CTL2    -0.180000       12.0110           0
      2735 MEMB     21       POPC     H6R      HAL2     0.900000E-01   1.00800           0
      2736 MEMB     21       POPC     H6S      HAL2     0.900000E-01   1.00800           0
      2737 MEMB     21       POPC     C27      CTL2    -0.180000       12.0110           0
      2738 MEMB     21       POPC     H7R      HAL2     0.900000E-01   1.00800           0
      2739 MEMB     21       POPC     H7S      HAL2     0.900000E-01   1.00800           0
      2740 MEMB     21       POPC     C28      CTL2    -0.180000       12.0110           0
      2741 MEMB     21       POPC     H8R      HAL2     0.900000E-01   1.00800           0
      2742 MEMB     21       POPC     H8S      HAL2     0.900000E-01   1.00800           0
      2743 MEMB     21       POPC     C29      CEL1    -0.150000       12.0110           0
      2744 MEMB     21       POPC     H91      HEL1     0.150000       1.00800           0
      2745 MEMB     21       POPC     C210     CEL1    -0.150000       12.0110           0
      2746 MEMB     21       POPC     H101     HEL1     0.150000       1.00800           0
      2747 MEMB     21       POPC     C211     CTL2    -0.180000       12.0110           0
      2748 MEMB     21       POPC     H11R     HAL2     0.900000E-01   1.00800           0
      2749 MEMB     21       POPC     H11S     HAL2     0.900000E-01   1.00800           0
      2750 MEMB     21       POPC     C212     CTL2    -0.180000       12.0110           0
      2751 MEMB     21       POPC     H12R     HAL2     0.900000E-01   1.00800           0
      2752 MEMB     21       POPC     H12S     HAL2     0.900000E-01   1.00800           0
      2753 MEMB     21       POPC     C213     CTL2    -0.180000       12.0110           0
      2754 MEMB     21       POPC     H13R     HAL2     0.900000E-01   1.00800           0
      2755 MEMB     21       POPC     H13S     HAL2     0.900000E-01   1.00800           0
      2756 MEMB     21       POPC     C214     CTL2    -0.180000       12.0110           0
      2757 MEMB     21       POPC     H14R     HAL2     0.900000E-01   1.00800           0
      2758 MEMB     21       POPC     H14S     HAL2     0.900000E-01   1.00800           0
      2759 MEMB     21       POPC     C215     CTL2    -0.180000       12.0110           0
      2760 MEMB     21       POPC     H15R     HAL2     0.900000E-01   1.00800           0
      2761 MEMB     21       POPC     H15S     HAL2     0.900000E-01   1.00800           0
      2762 MEMB     21       POPC     C216     CTL2    -0.180000       12.0110           0
      2763 MEMB     21       POPC     H16R     HAL2     0.900000E-01   1.00800           0
      2764 MEMB     21       POPC     H16S     HAL2     0.900000E-01   1.00800           0
      2765 MEMB     21       POPC     C217     CTL2    -0.180000       12.0110           0
      2766 MEMB     21       POPC     H17R     HAL2     0.900000E-01   1.00800           0
      2767 MEMB     21       POPC     H17S     HAL2     0.900000E-01   1.00800           0
      2768 MEMB     21       POPC     C218     CTL3    -0.270000       12.0110           0
      2769 MEMB     21       POPC     H18R     HAL3     0.900000E-01   1.00800           0
      2770 MEMB     21       POPC     H18S     HAL3     0.900000E-01   1.00800           0
      2771 MEMB     21       POPC     H18T     HAL3     0.900000E-01   1.00800           0
      2772 MEMB     21       POPC     C33      CTL2    -0.180000       12.0110           0
      2773 MEMB     21       POPC     H3X      HAL2     0.900000E-01   1.00800           0
      2774 MEMB     21       POPC     H3Y      HAL2     0.900000E-01   1.00800           0
      2775 MEMB     21       POPC     C34      CTL2    -0.180000       12.0110           0
      2776 MEMB     21       POPC     H4X      HAL2     0.900000E-01   1.00800           0
      2777 MEMB     21       POPC     H4Y      HAL2     0.900000E-01   1.00800           0
      2778 MEMB     21       POPC     C35      CTL2    -0.180000       12.0110           0
      2779 MEMB     21       POPC     H5X      HAL2     0.900000E-01   1.00800           0
      2780 MEMB     21       POPC     H5Y      HAL2     0.900000E-01   1.00800           0
      2781 MEMB     21       POPC     C36      CTL2    -0.180000       12.0110           0
      2782 MEMB     21       POPC     H6X      HAL2     0.900000E-01   1.00800           0
      2783 MEMB     21       POPC     H6Y      HAL2     0.900000E-01   1.00800           0
      2784 MEMB     21       POPC     C37      CTL2    -0.180000       12.0110           0
      2785 MEMB     21       POPC     H7X      HAL2     0.900000E-01   1.00800           0
      2786 MEMB     21       POPC     H7Y      HAL2     0.900000E-01   1.00800           0
      2787 MEMB     21       POPC     C38      CTL2    -0.180000       12.0110           0
      2788 MEMB     21       POPC     H8X      HAL2     0.900000E-01   1.00800           0
      2789 MEMB     21       POPC     H8Y      HAL2     0.900000E-01   1.00800           0
      2790 MEMB     21       POPC     C39      CTL2    -0.180000       12.0110           0
      2791 MEMB     21       POPC     H9X      HAL2     0.900000E-01   1.00800           0
      2792 MEMB     21       POPC     H9Y      HAL2     0.900000E-01   1.00800           0
      2793 MEMB     21       POPC     C310     CTL2    -0.180000       12.0110           0
      2794 MEMB     21       POPC     H10X     HAL2     0.900000E-01   1.00800           0
      2795 MEMB     21       POPC     H10Y     HAL2     0.900000E-01   1.00800           0
      2796 MEMB     21       POPC     C311     CTL2    -0.180000       12.0110           0
      2797 MEMB     21       POPC     H11X     HAL2     0.900000E-01   1.00800           0
      2798 MEMB     21       POPC     H11Y     HAL2     0.900000E-01   1.00800           0
      2799 MEMB     21       POPC     C312     CTL2    -0.180000       12.0110           0
      2800 MEMB     21       POPC     H12X     HAL2     0.900000E-01   1.00800           0
      2801 MEMB     21       POPC     H12Y     HAL2     0.900000E-01   1.00800           0
      2802 MEMB     21       POPC     C313     CTL2    -0.180000       12.0110           0
      2803 MEMB     21       POPC     H13X     HAL2     0.900000E-01   1.00800           0
      2804 MEMB     21       POPC     H13Y     HAL2     0.900000E-01   1.00800           0
      2805 MEMB     21       POPC     C314     CTL2    -0.180000       12.0110           0
      2806 MEMB     21       POPC     H14X     HAL2     0.900000E-01   1.00800           0
      2807 MEMB     21       POPC     H14Y     HAL2     0.900000E-01   1.00800           0
      2808 MEMB     21       POPC     C315     CTL2    -0.180000       12.0110           0
      2809 MEMB     21       POPC     H15X     HAL2     0.900000E-01   1.00800           0
      2810 MEMB     21       POPC     H15Y     HAL2     0.900000E-01   1.00800           0
      2811 MEMB     21       POPC     C316     CTL3    -0.270000       12.0110           0
      2812 MEMB     21       POPC     H16X     HAL3     0.900000E-01   1.00800           0
      2813 MEMB     21       POPC     H16Y     HAL3     0.900000E-01   1.00800           0
      2814 MEMB     21       POPC     H16Z     HAL3     0.900000E-01   1.00800           0
      2815 MEMB     22       POPC     N        NTL     -0.600000       14.0070           0
      2816 MEMB     22       POPC     C12      CTL2    -0.100000       12.0110           0
      2817 MEMB     22       POPC     H12A     HL       0.250000       1.00800           0
      2818 MEMB     22       POPC     H12B     HL       0.250000       1.00800           0
      2819 MEMB     22       POPC     C13      CTL5    -0.350000       12.0110           0
      2820 MEMB     22       POPC     H13A     HL       0.250000       1.00800           0
      2821 MEMB     22       POPC     H13B     HL       0.250000       1.00800           0
      2822 MEMB     22       POPC     H13C     HL       0.250000       1.00800           0
      2823 MEMB     22       POPC     C14      CTL5    -0.350000       12.0110           0
      2824 MEMB     22       POPC     H14A     HL       0.250000       1.00800           0
      2825 MEMB     22       POPC     H14B     HL       0.250000       1.00800           0
      2826 MEMB     22       POPC     H14C     HL       0.250000       1.00800           0
      2827 MEMB     22       POPC     C15      CTL5    -0.350000       12.0110           0
      2828 MEMB     22       POPC     H15A     HL       0.250000       1.00800           0
      2829 MEMB     22       POPC     H15B     HL       0.250000       1.00800           0
      2830 MEMB     22       POPC     H15C     HL       0.250000       1.00800           0
      2831 MEMB     22       POPC     C11      CTL2    -0.800000E-01   12.0110           0
      2832 MEMB     22       POPC     H11A     HAL2     0.900000E-01   1.00800           0
      2833 MEMB     22       POPC     H11B     HAL2     0.900000E-01   1.00800           0
      2834 MEMB     22       POPC     P        PL       1.50000        30.9740           0
      2835 MEMB     22       POPC     O13      O2L     -0.780000       15.9994           0
      2836 MEMB     22       POPC     O14      O2L     -0.780000       15.9994           0
      2837 MEMB     22       POPC     O12      OSLP    -0.570000       15.9994           0
      2838 MEMB     22       POPC     O11      OSLP    -0.570000       15.9994           0
      2839 MEMB     22       POPC     C1       CTL2    -0.800000E-01   12.0110           0
      2840 MEMB     22       POPC     HA       HAL2     0.900000E-01   1.00800           0
      2841 MEMB     22       POPC     HB       HAL2     0.900000E-01   1.00800           0
      2842 MEMB     22       POPC     C2       CTL1     0.170000       12.0110           0
      2843 MEMB     22       POPC     HS       HAL1     0.900000E-01   1.00800           0
      2844 MEMB     22       POPC     O21      OSL     -0.490000       15.9994           0
      2845 MEMB     22       POPC     C21      CL       0.900000       12.0110           0
      2846 MEMB     22       POPC     O22      OBL     -0.630000       15.9994           0
      2847 MEMB     22       POPC     C22      CTL2    -0.220000       12.0110           0
      2848 MEMB     22       POPC     H2R      HAL2     0.900000E-01   1.00800           0
      2849 MEMB     22       POPC     H2S      HAL2     0.900000E-01   1.00800           0
      2850 MEMB     22       POPC     C3       CTL2     0.800000E-01   12.0110           0
      2851 MEMB     22       POPC     HX       HAL2     0.900000E-01   1.00800           0
      2852 MEMB     22       POPC     HY       HAL2     0.900000E-01   1.00800           0
      2853 MEMB     22       POPC     O31      OSL     -0.490000       15.9994           0
      2854 MEMB     22       POPC     C31      CL       0.900000       12.0110           0
      2855 MEMB     22       POPC     O32      OBL     -0.630000       15.9994           0
      2856 MEMB     22       POPC     C32      CTL2    -0.220000       12.0110           0
      2857 MEMB     22       POPC     H2X      HAL2     0.900000E-01   1.00800           0
      2858 MEMB     22       POPC     H2Y      HAL2     0.900000E-01   1.00800           0
      2859 MEMB     22       POPC     C23      CTL2    -0.180000       12.0110           0
      2860 MEMB     22       POPC     H3R      HAL2     0.900000E-01   1.00800           0
      2861 MEMB     22       POPC     H3S      HAL2     0.900000E-01   1.00800           0
      2862 MEMB     22       POPC     C24      CTL2    -0.180000       12.0110           0
      2863 MEMB     22       POPC     H4R      HAL2     0.900000E-01   1.00800           0
      2864 MEMB     22       POPC     H4S      HAL2     0.900000E-01   1.00800           0
      2865 MEMB     22       POPC     C25      CTL2    -0.180000       12.0110           0
      2866 MEMB     22       POPC     H5R      HAL2     0.900000E-01   1.00800           0
      2867 MEMB     22       POPC     H5S      HAL2     0.900000E-01   1.00800           0
      2868 MEMB     22       POPC     C26      CTL2    -0.180000       12.0110           0
      2869 MEMB     22       POPC     H6R      HAL2     0.900000E-01   1.00800           0
      2870 MEMB     22       POPC     H6S      HAL2     0.900000E-01   1.00800           0
      2871 MEMB     22       POPC     C27      CTL2    -0.180000       12.0110           0
      2872 MEMB     22       POPC     H7R      HAL2     0.900000E-01   1.00800           0
      2873 MEMB     22       POPC     H7S      HAL2     0.900000E-01   1.00800           0
      2874 MEMB     22       POPC     C28      CTL2    -0.180000       12.0110           0
      2875 MEMB     22       POPC     H8R      HAL2     0.900000E-01   1.00800           0
      2876 MEMB     22       POPC     H8S      HAL2     0.900000E-01   1.00800           0
      2877 MEMB     22       POPC     C29      CEL1    -0.150000       12.0110           0
      2878 MEMB     22       POPC     H91      HEL1     0.150000       1.00800           0
      2879 MEMB     22       POPC     C210     CEL1    -0.150000       12.0110           0
      2880 MEMB     22       POPC     H101     HEL1     0.150000       1.00800           0
      2881 MEMB     22       POPC     C211     CTL2    -0.180000       12.0110           0
      2882 MEMB     22       POPC     H11R     HAL2     0.900000E-01   1.00800           0
      2883 MEMB     22       POPC     H11S     HAL2     0.900000E-01   1.00800           0
      2884 MEMB     22       POPC     C212     CTL2    -0.180000       12.0110           0
      2885 MEMB     22       POPC     H12R     HAL2     0.900000E-01   1.00800           0
      2886 MEMB     22       POPC     H12S     HAL2     0.900000E-01   1.00800           0
      2887 MEMB     22       POPC     C213     CTL2    -0.180000       12.0110           0
      2888 MEMB     22       POPC     H13R     HAL2     0.900000E-01   1.00800           0
      2889 MEMB     22       POPC     H13S     HAL2     0.900000E-01   1.00800           0
      2890 MEMB     22       POPC     C214     CTL2    -0.180000       12.0110           0
      2891 MEMB     22       POPC     H14R     HAL2     0.900000E-01   1.00800           0
      2892 MEMB     22       POPC     H14S     HAL2     0.900000E-01   1.00800           0
      2893 MEMB     22       POPC     C215     CTL2    -0.180000       12.0110           0
      2894 MEMB     22       POPC     H15R     HAL2     0.900000E-01   1.00800           0
      2895 MEMB     22       POPC     H15S     HAL2     0.900000E-01   1.00800           0
      2896 MEMB     22       POPC     C216     CTL2    -0.180000       12.0110           0
      2897 MEMB     22       POPC     H16R     HAL2     0.900000E-01   1.00800           0
      2898 MEMB     22       POPC     H16S     HAL2     0.900000E-01   1.00800           0
      2899 MEMB     22       POPC     C217     CTL2    -0.180000       12.0110           0
      2900 MEMB     22       POPC     H17R     HAL2     0.900000E-01   1.00800           0
      2901 MEMB     22       POPC     H17S     HAL2     0.900000E-01   1.00800           0
      2902 MEMB     22       POPC     C218     CTL3    -0.270000       12.0110           0
      2903 MEMB     22       POPC     H18R     HAL3     0.900000E-01   1.00800           0
      2904 MEMB     22       POPC     H18S     HAL3     0.900000E-01   1.00800           0
      2905 MEMB     22       POPC     H18T     HAL3     0.900000E-01   1.00800           0
      2906 MEMB     22       POPC     C33      CTL2    -0.180000       12.0110           0
      2907 MEMB     22       POPC     H3X      HAL2     0.900000E-01   1.00800           0
      2908 MEMB     22       POPC     H3Y      HAL2     0.900000E-01   1.00800           0
      2909 MEMB     22       POPC     C34      CTL2    -0.180000       12.0110           0
      2910 MEMB     22       POPC     H4X      HAL2     0.900000E-01   1.00800           0
      2911 MEMB     22       POPC     H4Y      HAL2     0.900000E-01   1.00800           0
      2912 MEMB     22       POPC     C35      CTL2    -0.180000       12.0110           0
      2913 MEMB     22       POPC     H5X      HAL2     0.900000E-01   1.00800           0
      2914 MEMB     22       POPC     H5Y      HAL2     0.900000E-01   1.00800           0
      2915 MEMB     22       POPC     C36      CTL2    -0.180000       12.0110           0
      2916 MEMB     22       POPC     H6X      HAL2     0.900000E-01   1.00800           0
      2917 MEMB     22       POPC     H6Y      HAL2     0.900000E-01   1.00800           0
      2918 MEMB     22       POPC     C37      CTL2    -0.180000       12.0110           0
      2919 MEMB     22       POPC     H7X      HAL2     0.900000E-01   1.00800           0
      2920 MEMB     22       POPC     H7Y      HAL2     0.900000E-01   1.00800           0
      2921 MEMB     22       POPC     C38      CTL2    -0.180000       12.0110           0
      2922 MEMB     22       POPC     H8X      HAL2     0.900000E-01   1.00800           0
      2923 MEMB     22       POPC     H8Y      HAL2     0.900000E-01   1.00800           0
      2924 MEMB     22       POPC     C39      CTL2    -0.180000       12.0110           0
      2925 MEMB     22       POPC     H9X      HAL2     0.900000E-01   1.00800           0
      2926 MEMB     22       POPC     H9Y      HAL2     0.900000E-01   1.00800           0
      2927 MEMB     22       POPC     C310     CTL2    -0.180000       12.0110           0
      2928 MEMB     22       POPC     H10X     HAL2     0.900000E-01   1.00800           0
      2929 MEMB     22       POPC     H10Y     HAL2     0.900000E-01   1.00800           0
      2930 MEMB     22       POPC     C311     CTL2    -0.180000       12.0110           0
      2931 MEMB     22       POPC     H11X     HAL2     0.900000E-01   1.00800           0
      2932 MEMB     22       POPC     H11Y     HAL2     0.900000E-01   1.00800           0
      2933 MEMB     22       POPC     C312     CTL2    -0.180000       12.0110           0
      2934 MEMB     22       POPC     H12X     HAL2     0.900000E-01   1.00800           0
      2935 MEMB     22       POPC     H12Y     HAL2     0.900000E-01   1.00800           0
      2936 MEMB     22       POPC     C313     CTL2    -0.180000       12.0110           0
      2937 MEMB     22       POPC     H13X     HAL2     0.900000E-01   1.00800           0
      2938 MEMB     22       POPC     H13Y     HAL2     0.900000E-01   1.00800           0
      2939 MEMB     22       POPC     C314     CTL2    -0.180000       12.0110           0
      2940 MEMB     22       POPC     H14X     HAL2     0.900000E-01   1.00800           0
      2941 MEMB     22       POPC     H14Y     HAL2     0.900000E-01   1.00800           0
      2942 MEMB     22       POPC     C315     CTL2    -0.180000       12.0110           0
      2943 MEMB     22       POPC     H15X     HAL2     0.900000E-01   1.00800           0
      2944 MEMB     22       POPC     H15Y     HAL2     0.900000E-01   1.00800           0
      2945 MEMB     22       POPC     C316     CTL3    -0.270000       12.0110           0
      2946 MEMB     22       POPC     H16X     HAL3     0.900000E-01   1.00800           0
      2947 MEMB     22       POPC     H16Y     HAL3     0.900000E-01   1.00800           0
      2948 MEMB     22       POPC     H16Z     HAL3     0.900000E-01   1.00800           0
      2949 MEMB     23       POPC     N        NTL     -0.600000       14.0070           0
      2950 MEMB     23       POPC     C12      CTL2    -0.100000       12.0110           0
      2951 MEMB     23       POPC     H12A     HL       0.250000       1.00800           0
      2952 MEMB     23       POPC     H12B     HL       0.250000       1.00800           0
      2953 MEMB     23       POPC     C13      CTL5    -0.350000       12.0110           0
      2954 MEMB     23       POPC     H13A     HL       0.250000       1.00800           0
      2955 MEMB     23       POPC     H13B     HL       0.250000       1.00800           0
      2956 MEMB     23       POPC     H13C     HL       0.250000       1.00800           0
      2957 MEMB     23       POPC     C14      CTL5    -0.350000       12.0110           0
      2958 MEMB     23       POPC     H14A     HL       0.250000       1.00800           0
      2959 MEMB     23       POPC     H14B     HL       0.250000       1.00800           0
      2960 MEMB     23       POPC     H14C     HL       0.250000       1.00800           0
      2961 MEMB     23       POPC     C15      CTL5    -0.350000       12.0110           0
      2962 MEMB     23       POPC     H15A     HL       0.250000       1.00800           0
      2963 MEMB     23       POPC     H15B     HL       0.250000       1.00800           0
      2964 MEMB     23       POPC     H15C     HL       0.250000       1.00800           0
      2965 MEMB     23       POPC     C11      CTL2    -0.800000E-01   12.0110           0
      2966 MEMB     23       POPC     H11A     HAL2     0.900000E-01   1.00800           0
      2967 MEMB     23       POPC     H11B     HAL2     0.900000E-01   1.00800           0
      2968 MEMB     23       POPC     P        PL       1.50000        30.9740           0
      2969 MEMB     23       POPC     O13      O2L     -0.780000       15.9994           0
      2970 MEMB     23       POPC     O14      O2L     -0.780000       15.9994           0
      2971 MEMB     23       POPC     O12      OSLP    -0.570000       15.9994           0
      2972 MEMB     23       POPC     O11      OSLP    -0.570000       15.9994           0
      2973 MEMB     23       POPC     C1       CTL2    -0.800000E-01   12.0110           0
      2974 MEMB     23       POPC     HA       HAL2     0.900000E-01   1.00800           0
      2975 MEMB     23       POPC     HB       HAL2     0.900000E-01   1.00800           0
      2976 MEMB     23       POPC     C2       CTL1     0.170000       12.0110           0
      2977 MEMB     23       POPC     HS       HAL1     0.900000E-01   1.00800           0
      2978 MEMB     23       POPC     O21      OSL     -0.490000       15.9994           0
      2979 MEMB     23       POPC     C21      CL       0.900000       12.0110           0
      2980 MEMB     23       POPC     O22      OBL     -0.630000       15.9994           0
      2981 MEMB     23       POPC     C22      CTL2    -0.220000       12.0110           0
      2982 MEMB     23       POPC     H2R      HAL2     0.900000E-01   1.00800           0
      2983 MEMB     23       POPC     H2S      HAL2     0.900000E-01   1.00800           0
      2984 MEMB     23       POPC     C3       CTL2     0.800000E-01   12.0110           0
      2985 MEMB     23       POPC     HX       HAL2     0.900000E-01   1.00800           0
      2986 MEMB     23       POPC     HY       HAL2     0.900000E-01   1.00800           0
      2987 MEMB     23       POPC     O31      OSL     -0.490000       15.9994           0
      2988 MEMB     23       POPC     C31      CL       0.900000       12.0110           0
      2989 MEMB     23       POPC     O32      OBL     -0.630000       15.9994           0
      2990 MEMB     23       POPC     C32      CTL2    -0.220000       12.0110           0
      2991 MEMB     23       POPC     H2X      HAL2     0.900000E-01   1.00800           0
      2992 MEMB     23       POPC     H2Y      HAL2     0.900000E-01   1.00800           0
      2993 MEMB     23       POPC     C23      CTL2    -0.180000       12.0110           0
      2994 MEMB     23       POPC     H3R      HAL2     0.900000E-01   1.00800           0
      2995 MEMB     23       POPC     H3S      HAL2     0.900000E-01   1.00800           0
      2996 MEMB     23       POPC     C24      CTL2    -0.180000       12.0110           0
      2997 MEMB     23       POPC     H4R      HAL2     0.900000E-01   1.00800           0
      2998 MEMB     23       POPC     H4S      HAL2     0.900000E-01   1.00800           0
      2999 MEMB     23       POPC     C25      CTL2    -0.180000       12.0110           0
      3000 MEMB     23       POPC     H5R      HAL2     0.900000E-01   1.00800           0
      3001 MEMB     23       POPC     H5S      HAL2     0.900000E-01   1.00800           0
      3002 MEMB     23       POPC     C26      CTL2    -0.180000       12.0110           0
      3003 MEMB     23       POPC     H6R      HAL2     0.900000E-01   1.00800           0
      3004 MEMB     23       POPC     H6S      HAL2     0.900000E-01   1.00800           0
      3005 MEMB     23       POPC     C27      CTL2    -0.180000       12.0110           0
      3006 MEMB     23       POPC     H7R      HAL2     0.900000E-01   1.00800           0
      3007 MEMB     23       POPC     H7S      HAL2     0.900000E-01   1.00800           0
      3008 MEMB     23       POPC     C28      CTL2    -0.180000       12.0110           0
      3009 MEMB     23       POPC     H8R      HAL2     0.900000E-01   1.00800           0
      3010 MEMB     23       POPC     H8S      HAL2     0.900000E-01   1.00800           0
      3011 MEMB     23       POPC     C29      CEL1    -0.150000       12.0110           0
      3012 MEMB     23       POPC     H91      HEL1     0.150000       1.00800           0
      3013 MEMB     23       POPC     C210     CEL1    -0.150000       12.0110           0
      3014 MEMB     23       POPC     H101     HEL1     0.150000       1.00800           0
      3015 MEMB     23       POPC     C211     CTL2    -0.180000       12.0110           0
      3016 MEMB     23       POPC     H11R     HAL2     0.900000E-01   1.00800           0
      3017 MEMB     23       POPC     H11S     HAL2     0.900000E-01   1.00800           0
      3018 MEMB     23       POPC     C212     CTL2    -0.180000       12.0110           0
      3019 MEMB     23       POPC     H12R     HAL2     0.900000E-01   1.00800           0
      3020 MEMB     23       POPC     H12S     HAL2     0.900000E-01   1.00800           0
      3021 MEMB     23       POPC     C213     CTL2    -0.180000       12.0110           0
      3022 MEMB     23       POPC     H13R     HAL2     0.900000E-01   1.00800           0
      3023 MEMB     23       POPC     H13S     HAL2     0.900000E-01   1.00800           0
      3024 MEMB     23       POPC     C214     CTL2    -0.180000       12.0110           0
      3025 MEMB     23       POPC     H14R     HAL2     0.900000E-01   1.00800           0
      3026 MEMB     23       POPC     H14S     HAL2     0.900000E-01   1.00800           0
      3027 MEMB     23       POPC     C215     CTL2    -0.180000       12.0110           0
      3028 MEMB     23       POPC     H15R     HAL2     0.900000E-01   1.00800           0
      3029 MEMB     23       POPC     H15S     HAL2     0.900000E-01   1.00800           0
      3030 MEMB     23       POPC     C216     CTL2    -0.180000       12.0110           0
      3031 MEMB     23       POPC     H16R     HAL2     0.900000E-01   1.00800           0
      3032 MEMB     23       POPC     H16S     HAL2     0.900000E-01   1.00800           0
      3033 MEMB     23       POPC     C217     CTL2    -0.180000       12.0110           0
      3034 MEMB     23       POPC     H17R     HAL2     0.900000E-01   1.00800           0
      3035 MEMB     23       POPC     H17S     HAL2     0.900000E-01   1.00800           0
      3036 MEMB     23       POPC     C218     CTL3    -0.270000       12.0110           0
      3037 MEMB     23       POPC     H18R     HAL3     0.900000E-01   1.00800           0
      3038 MEMB     23       POPC     H18S     HAL3     0.900000E-01   1.00800           0
      3039 MEMB     23       POPC     H18T     HAL3     0.900000E-01   1.00800           0
      3040 MEMB     23       POPC     C33      CTL2    -0.180000       12.0110           0
      3041 MEMB     23       POPC     H3X      HAL2     0.900000E-01   1.00800           0
      3042 MEMB     23       POPC     H3Y      HAL2     0.900000E-01   1.00800           0
      3043 MEMB     23       POPC     C34      CTL2    -0.180000       12.0110           0
      3044 MEMB     23       POPC     H4X      HAL2     0.900000E-01   1.00800           0
      3045 MEMB     23       POPC     H4Y      HAL2     0.900000E-01   1.00800           0
      3046 MEMB     23       POPC     C35      CTL2    -0.180000       12.0110           0
      3047 MEMB     23       POPC     H5X      HAL2     0.900000E-01   1.00800           0
      3048 MEMB     23       POPC     H5Y      HAL2     0.900000E-01   1.00800           0
      3049 MEMB     23       POPC     C36      CTL2    -0.180000       12.0110           0
      3050 MEMB     23       POPC     H6X      HAL2     0.900000E-01   1.00800           0
      3051 MEMB     23       POPC     H6Y      HAL2     0.900000E-01   1.00800           0
      3052 MEMB     23       POPC     C37      CTL2    -0.180000       12.0110           0
      3053 MEMB     23       POPC     H7X      HAL2     0.900000E-01   1.00800           0
      3054 MEMB     23       POPC     H7Y      HAL2     0.900000E-01   1.00800           0
      3055 MEMB     23       POPC     C38      CTL2    -0.180000       12.0110           0
      3056 MEMB     23       POPC     H8X      HAL2     0.900000E-01   1.00800           0
      3057 MEMB     23       POPC     H8Y      HAL2     0.900000E-01   1.00800           0
      3058 MEMB     23       POPC     C39      CTL2    -0.180000       12.0110           0
      3059 MEMB     23       POPC     H9X      HAL2     0.900000E-01   1.00800           0
      3060 MEMB     23       POPC     H9Y      HAL2     0.900000E-01   1.00800           0
      3061 MEMB     23       POPC     C310     CTL2    -0.180000       12.0110           0
      3062 MEMB     23       POPC     H10X     HAL2     0.900000E-01   1.00800           0
      3063 MEMB     23       POPC     H10Y     HAL2     0.900000E-01   1.00800           0
      3064 MEMB     23       POPC     C311     CTL2    -0.180000       12.0110           0
      3065 MEMB     23       POPC     H11X     HAL2     0.900000E-01   1.00800           0
      3066 MEMB     23       POPC     H11Y     HAL2     0.900000E-01   1.00800           0
      3067 MEMB     23       POPC     C312     CTL2    -0.180000       12.0110           0
      3068 MEMB     23       POPC     H12X     HAL2     0.900000E-01   1.00800           0
      3069 MEMB     23       POPC     H12Y     HAL2     0.900000E-01   1.00800           0
      3070 MEMB     23       POPC     C313     CTL2    -0.180000       12.0110           0
      3071 MEMB     23       POPC     H13X     HAL2     0.900000E-01   1.00800           0
      3072 MEMB     23       POPC     H13Y     HAL2     0.900000E-01   1.00800           0
      3073 MEMB     23       POPC     C314     CTL2    -0.180000       12.0110           0
      3074 MEMB     23       POPC     H14X     HAL2     0.900000E-01   1.00800           0
      3075 MEMB     23       POPC     H14Y     HAL2     0.900000E-01   1.00800           0
      3076 MEMB     23       POPC     C315     CTL2    -0.180000       12.0110           0
      3077 MEMB     23       POPC     H15X     HAL2     0.900000E-01   1.00800           0
      3078 MEMB     23       POPC     H15Y     HAL2     0.900000E-01   1.00800           0
      3079 MEMB     23       POPC     C316     CTL3    -0.270000       12.0110           0
      3080 MEMB     23       POPC     H16X     HAL3     0.900000E-01   1.00800           0
      3081 MEMB     23       POPC     H16Y     HAL3     0.900000E-01   1.00800           0
      3082 MEMB     23       POPC     H16Z     HAL3     0.900000E-01   1.00800           0
      3083 MEMB     24       POPC     N        NTL     -0.600000       14.0070           0
      3084 MEMB     24       POPC     C12      CTL2    -0.100000       12.0110           0
      3085 MEMB     24       POPC     H12A     HL       0.250000       1.00800           0
      3086 MEMB     24       POPC     H12B     HL       0.250000       1.00800           0
      3087 MEMB     24       POPC     C13      CTL5    -0.350000       12.0110           0
      3088 MEMB     24       POPC     H13A     HL       0.250000       1.00800           0
      3089 MEMB     24       POPC     H13B     HL       0.250000       1.00800           0
      3090 MEMB     24       POPC     H13C     HL       0.250000       1.00800           0
      3091 MEMB     24       POPC     C14      CTL5    -0.350000       12.0110           0
      3092 MEMB     24       POPC     H14A     HL       0.250000       1.00800           0
      3093 MEMB     24       POPC     H14B     HL       0.250000       1.00800           0
      3094 MEMB     24       POPC     H14C     HL       0.250000       1.00800           0
      3095 MEMB     24       POPC     C15      CTL5    -0.350000       12.0110           0
      3096 MEMB     24       POPC     H15A     HL       0.250000       1.00800           0
      3097 MEMB     24       POPC     H15B     HL       0.250000       1.00800           0
      3098 MEMB     24       POPC     H15C     HL       0.250000       1.00800           0
      3099 MEMB     24       POPC     C11      CTL2    -0.800000E-01   12.0110           0
      3100 MEMB     24       POPC     H11A     HAL2     0.900000E-01   1.00800           0
      3101 MEMB     24       POPC     H11B     HAL2     0.900000E-01   1.00800           0
      3102 MEMB     24       POPC     P        PL       1.50000        30.9740           0
      3103 MEMB     24       POPC     O13      O2L     -0.780000       15.9994           0
      3104 MEMB     24       POPC     O14      O2L     -0.780000       15.9994           0
      3105 MEMB     24       POPC     O12      OSLP    -0.570000       15.9994           0
      3106 MEMB     24       POPC     O11      OSLP    -0.570000       15.9994           0
      3107 MEMB     24       POPC     C1       CTL2    -0.800000E-01   12.0110           0
      3108 MEMB     24       POPC     HA       HAL2     0.900000E-01   1.00800           0
      3109 MEMB     24       POPC     HB       HAL2     0.900000E-01   1.00800           0
      3110 MEMB     24       POPC     C2       CTL1     0.170000       12.0110           0
      3111 MEMB     24       POPC     HS       HAL1     0.900000E-01   1.00800           0
      3112 MEMB     24       POPC     O21      OSL     -0.490000       15.9994           0
      3113 MEMB     24       POPC     C21      CL       0.900000       12.0110           0
      3114 MEMB     24       POPC     O22      OBL     -0.630000       15.9994           0
      3115 MEMB     24       POPC     C22      CTL2    -0.220000       12.0110           0
      3116 MEMB     24       POPC     H2R      HAL2     0.900000E-01   1.00800           0
      3117 MEMB     24       POPC     H2S      HAL2     0.900000E-01   1.00800           0
      3118 MEMB     24       POPC     C3       CTL2     0.800000E-01   12.0110           0
      3119 MEMB     24       POPC     HX       HAL2     0.900000E-01   1.00800           0
      3120 MEMB     24       POPC     HY       HAL2     0.900000E-01   1.00800           0
      3121 MEMB     24       POPC     O31      OSL     -0.490000       15.9994           0
      3122 MEMB     24       POPC     C31      CL       0.900000       12.0110           0
      3123 MEMB     24       POPC     O32      OBL     -0.630000       15.9994           0
      3124 MEMB     24       POPC     C32      CTL2    -0.220000       12.0110           0
      3125 MEMB     24       POPC     H2X      HAL2     0.900000E-01   1.00800           0
      3126 MEMB     24       POPC     H2Y      HAL2     0.900000E-01   1.00800           0
      3127 MEMB     24       POPC     C23      CTL2    -0.180000       12.0110           0
      3128 MEMB     24       POPC     H3R      HAL2     0.900000E-01   1.00800           0
      3129 MEMB     24       POPC     H3S      HAL2     0.900000E-01   1.00800           0
      3130 MEMB     24       POPC     C24      CTL2    -0.180000       12.0110           0
      3131 MEMB     24       POPC     H4R      HAL2     0.900000E-01   1.00800           0
      3132 MEMB     24       POPC     H4S      HAL2     0.900000E-01   1.00800           0
      3133 MEMB     24       POPC     C25      CTL2    -0.180000       12.0110           0
      3134 MEMB     24       POPC     H5R      HAL2     0.900000E-01   1.00800           0
      3135 MEMB     24       POPC     H5S      HAL2     0.900000E-01   1.00800           0
      3136 MEMB     24       POPC     C26      CTL2    -0.180000       12.0110           0
      3137 MEMB     24       POPC     H6R      HAL2     0.900000E-01   1.00800           0
      3138 MEMB     24       POPC     H6S      HAL2     0.900000E-01   1.00800           0
      3139 MEMB     24       POPC     C27      CTL2    -0.180000       12.0110           0
      3140 MEMB     24       POPC     H7R      HAL2     0.900000E-01   1.00800           0
      3141 MEMB     24       POPC     H7S      HAL2     0.900000E-01   1.00800           0
      3142 MEMB     24       POPC     C28      CTL2    -0.180000       12.0110           0
      3143 MEMB     24       POPC     H8R      HAL2     0.900000E-01   1.00800           0
      3144 MEMB     24       POPC     H8S      HAL2     0.900000E-01   1.00800           0
      3145 MEMB     24       POPC     C29      CEL1    -0.150000       12.0110           0
      3146 MEMB     24       POPC     H91      HEL1     0.150000       1.00800           0
      3147 MEMB     24       POPC     C210     CEL1    -0.150000       12.0110           0
      3148 MEMB     24       POPC     H101     HEL1     0.150000       1.00800           0
      3149 MEMB     24       POPC     C211     CTL2    -0.180000       12.0110           0
      3150 MEMB     24       POPC     H11R     HAL2     0.900000E-01   1.00800           0
      3151 MEMB     24       POPC     H11S     HAL2     0.900000E-01   1.00800           0
      3152 MEMB     24       POPC     C212     CTL2    -0.180000       12.0110           0
      3153 MEMB     24       POPC     H12R     HAL2     0.900000E-01   1.00800           0
      3154 MEMB     24       POPC     H12S     HAL2     0.900000E-01   1.00800           0
      3155 MEMB     24       POPC     C213     CTL2    -0.180000       12.0110           0
      3156 MEMB     24       POPC     H13R     HAL2     0.900000E-01   1.00800           0
      3157 MEMB     24       POPC     H13S     HAL2     0.900000E-01   1.00800           0
      3158 MEMB     24       POPC     C214     CTL2    -0.180000       12.0110           0
      3159 MEMB     24       POPC     H14R     HAL2     0.900000E-01   1.00800           0
      3160 MEMB     24       POPC     H14S     HAL2     0.900000E-01   1.00800           0
      3161 MEMB     24       POPC     C215     CTL2    -0.180000       12.0110           0
      3162 MEMB     24       POPC     H15R     HAL2     0.900000E-01   1.00800           0
      3163 MEMB     24       POPC     H15S     HAL2     0.900000E-01   1.00800           0
      3164 MEMB     24       POPC     C216     CTL2    -0.180000       12.0110           0
      3165 MEMB     24       POPC     H16R     HAL2     0.900000E-01   1.00800           0
      3166 MEMB     24       POPC     H16S     HAL2     0.900000E-01   1.00800           0
      3167 MEMB     24       POPC     C217     CTL2    -0.180000       12.0110           0
      3168 MEMB     24       POPC     H17R     HAL2     0.900000E-01   1.00800           0
      3169 MEMB     24       POPC     H17S     HAL2     0.900000E-01   1.00800           0
      3170 MEMB     24       POPC     C218     CTL3    -0.270000       12.0110           0
      3171 MEMB     24       POPC     H18R     HAL3     0.900000E-01   1.00800           0
      3172 MEMB     24       POPC     H18S     HAL3     0.900000E-01   1.00800           0
      3173 MEMB     24       POPC     H18T     HAL3     0.900000E-01   1.00800           0
      3174 MEMB     24       POPC     C33      CTL2    -0.180000       12.0110           0
      3175 MEMB     24       POPC     H3X      HAL2     0.900000E-01   1.00800           0
      3176 MEMB     24       POPC     H3Y      HAL2     0.900000E-01   1.00800           0
      3177 MEMB     24       POPC     C34      CTL2    -0.180000       12.0110           0
      3178 MEMB     24       POPC     H4X      HAL2     0.900000E-01   1.00800           0
      3179 MEMB     24       POPC     H4Y      HAL2     0.900000E-01   1.00800           0
      3180 MEMB     24       POPC     C35      CTL2    -0.180000       12.0110           0
      3181 MEMB     24       POPC     H5X      HAL2     0.900000E-01   1.00800           0
      3182 MEMB     24       POPC     H5Y      HAL2     0.900000E-01   1.00800           0
      3183 MEMB     24       POPC     C36      CTL2    -0.180000       12.0110           0
      3184 MEMB     24       POPC     H6X      HAL2     0.900000E-01   1.00800           0
      3185 MEMB     24       POPC     H6Y      HAL2     0.900000E-01   1.00800           0
      3186 MEMB     24       POPC     C37      CTL2    -0.180000       12.0110           0
      3187 MEMB     24       POPC     H7X      HAL2     0.900000E-01   1.00800           0
      3188 MEMB     24       POPC     H7Y      HAL2     0.900000E-01   1.00800           0
      3189 MEMB     24       POPC     C38      CTL2    -0.180000       12.0110           0
      3190 MEMB     24       POPC     H8X      HAL2     0.900000E-01   1.00800           0
      3191 MEMB     24       POPC     H8Y      HAL2     0.900000E-01   1.00800           0
      3192 MEMB     24       POPC     C39      CTL2    -0.180000       12.0110           0
      3193 MEMB     24       POPC     H9X      HAL2     0.900000E-01   1.00800           0
      3194 MEMB     24       POPC     H9Y      HAL2     0.900000E-01   1.00800           0
      3195 MEMB     24       POPC     C310     CTL2    -0.180000       12.0110           0
      3196 MEMB     24       POPC     H10X     HAL2     0.900000E-01   1.00800           0
      3197 MEMB     24       POPC     H10Y     HAL2     0.900000E-01   1.00800           0
      3198 MEMB     24       POPC     C311     CTL2    -0.180000       12.0110           0
      3199 MEMB     24       POPC     H11X     HAL2     0.900000E-01   1.00800           0
      3200 MEMB     24       POPC     H11Y     HAL2     0.900000E-01   1.00800           0
      3201 MEMB     24       POPC     C312     CTL2    -0.180000       12.0110           0
      3202 MEMB     24       POPC     H12X     HAL2     0.900000E-01   1.00800           0
      3203 MEMB     24       POPC     H12Y     HAL2     0.900000E-01   1.00800           0
      3204 MEMB     24       POPC     C313     CTL2    -0.180000       12.0110           0
      3205 MEMB     24       POPC     H13X     HAL2     0.900000E-01   1.00800           0
      3206 MEMB     24       POPC     H13Y     HAL2     0.900000E-01   1.00800           0
      3207 MEMB     24       POPC     C314     CTL2    -0.180000       12.0110           0
      3208 MEMB     24       POPC     H14X     HAL2     0.900000E-01   1.00800           0
      3209 MEMB     24       POPC     H14Y     HAL2     0.900000E-01   1.00800           0
      3210 MEMB     24       POPC     C315     CTL2    -0.180000       12.0110           0
      3211 MEMB     24       POPC     H15X     HAL2     0.900000E-01   1.00800           0
      3212 MEMB     24       POPC     H15Y     HAL2     0.900000E-01   1.00800           0
      3213 MEMB     24       POPC     C316     CTL3    -0.270000       12.0110           0
      3214 MEMB     24       POPC     H16X     HAL3     0.900000E-01   1.00800           0
      3215 MEMB     24       POPC     H16Y     HAL3     0.900000E-01   1.00800           0
      3216 MEMB     24       POPC     H16Z     HAL3     0.900000E-01   1.00800           0
      3217 MEMB     25       POPC     N        NTL     -0.600000       14.0070           0
      3218 MEMB     25       POPC     C12      CTL2    -0.100000       12.0110           0
      3219 MEMB     25       POPC     H12A     HL       0.250000       1.00800           0
      3220 MEMB     25       POPC     H12B     HL       0.250000       1.00800           0
      3221 MEMB     25       POPC     C13      CTL5    -0.350000       12.0110           0
      3222 MEMB     25       POPC     H13A     HL       0.250000       1.00800           0
      3223 MEMB     25       POPC     H13B     HL       0.250000       1.00800           0
      3224 MEMB     25       POPC     H13C     HL       0.250000       1.00800           0
      3225 MEMB     25       POPC     C14      CTL5    -0.350000       12.0110           0
      3226 MEMB     25       POPC     H14A     HL       0.250000       1.00800           0
      3227 MEMB     25       POPC     H14B     HL       0.250000       1.00800           0
      3228 MEMB     25       POPC     H14C     HL       0.250000       1.00800           0
      3229 MEMB     25       POPC     C15      CTL5    -0.350000       12.0110           0
      3230 MEMB     25       POPC     H15A     HL       0.250000       1.00800           0
      3231 MEMB     25       POPC     H15B     HL       0.250000       1.00800           0
      3232 MEMB     25       POPC     H15C     HL       0.250000       1.00800           0
      3233 MEMB     25       POPC     C11      CTL2    -0.800000E-01   12.0110           0
      3234 MEMB     25       POPC     H11A     HAL2     0.900000E-01   1.00800           0
      3235 MEMB     25       POPC     H11B     HAL2     0.900000E-01   1.00800           0
      3236 MEMB     25       POPC     P        PL       1.50000        30.9740           0
      3237 MEMB     25       POPC     O13      O2L     -0.780000       15.9994           0
      3238 MEMB     25       POPC     O14      O2L     -0.780000       15.9994           0
      3239 MEMB     25       POPC     O12      OSLP    -0.570000       15.9994           0
      3240 MEMB     25       POPC     O11      OSLP    -0.570000       15.9994           0
      3241 MEMB     25       POPC     C1       CTL2    -0.800000E-01   12.0110           0
      3242 MEMB     25       POPC     HA       HAL2     0.900000E-01   1.00800           0
      3243 MEMB     25       POPC     HB       HAL2     0.900000E-01   1.00800           0
      3244 MEMB     25       POPC     C2       CTL1     0.170000       12.0110           0
      3245 MEMB     25       POPC     HS       HAL1     0.900000E-01   1.00800           0
      3246 MEMB     25       POPC     O21      OSL     -0.490000       15.9994           0
      3247 MEMB     25       POPC     C21      CL       0.900000       12.0110           0
      3248 MEMB     25       POPC     O22      OBL     -0.630000       15.9994           0
      3249 MEMB     25       POPC     C22      CTL2    -0.220000       12.0110           0
      3250 MEMB     25       POPC     H2R      HAL2     0.900000E-01   1.00800           0
      3251 MEMB     25       POPC     H2S      HAL2     0.900000E-01   1.00800           0
      3252 MEMB     25       POPC     C3       CTL2     0.800000E-01   12.0110           0
      3253 MEMB     25       POPC     HX       HAL2     0.900000E-01   1.00800           0
      3254 MEMB     25       POPC     HY       HAL2     0.900000E-01   1.00800           0
      3255 MEMB     25       POPC     O31      OSL     -0.490000       15.9994           0
      3256 MEMB     25       POPC     C31      CL       0.900000       12.0110           0
      3257 MEMB     25       POPC     O32      OBL     -0.630000       15.9994           0
      3258 MEMB     25       POPC     C32      CTL2    -0.220000       12.0110           0
      3259 MEMB     25       POPC     H2X      HAL2     0.900000E-01   1.00800           0
      3260 MEMB     25       POPC     H2Y      HAL2     0.900000E-01   1.00800           0
      3261 MEMB     25       POPC     C23      CTL2    -0.180000       12.0110           0
      3262 MEMB     25       POPC     H3R      HAL2     0.900000E-01   1.00800           0
      3263 MEMB     25       POPC     H3S      HAL2     0.900000E-01   1.00800           0
      3264 MEMB     25       POPC     C24      CTL2    -0.180000       12.0110           0
      3265 MEMB     25       POPC     H4R      HAL2     0.900000E-01   1.00800           0
      3266 MEMB     25       POPC     H4S      HAL2     0.900000E-01   1.00800           0
      3267 MEMB     25       POPC     C25      CTL2    -0.180000       12.0110           0
      3268 MEMB     25       POPC     H5R      HAL2     0.900000E-01   1.00800           0
      3269 MEMB     25       POPC     H5S      HAL2     0.900000E-01   1.00800           0
      3270 MEMB     25       POPC     C26      CTL2    -0.180000       12.0110           0
      3271 MEMB     25       POPC     H6R      HAL2     0.900000E-01   1.00800           0
      3272 MEMB     25       POPC     H6S      HAL2     0.900000E-01   1.00800           0
      3273 MEMB     25       POPC     C27      CTL2    -0.180000       12.0110           0
      3274 MEMB     25       POPC     H7R      HAL2     0.900000E-01   1.00800           0
      3275 MEMB     25       POPC     H7S      HAL2     0.900000E-01   1.00800           0
      3276 MEMB     25       POPC     C28      CTL2    -0.180000       12.0110           0
      3277 MEMB     25       POPC     H8R      HAL2     0.900000E-01   1.00800           0
      3278 MEMB     25       POPC     H8S      HAL2     0.900000E-01   1.00800           0
      3279 MEMB     25       POPC     C29      CEL1    -0.150000       12.0110           0
      3280 MEMB     25       POPC     H91      HEL1     0.150000       1.00800           0
      3281 MEMB     25       POPC     C210     CEL1    -0.150000       12.0110           0
      3282 MEMB     25       POPC     H101     HEL1     0.150000       1.00800           0
      3283 MEMB     25       POPC     C211     CTL2    -0.180000       12.0110           0
      3284 MEMB     25       POPC     H11R     HAL2     0.900000E-01   1.00800           0
      3285 MEMB     25       POPC     H11S     HAL2     0.900000E-01   1.00800           0
      3286 MEMB     25       POPC     C212     CTL2    -0.180000       12.0110           0
      3287 MEMB     25       POPC     H12R     HAL2     0.900000E-01   1.00800           0
      3288 MEMB     25       POPC     H12S     HAL2     0.900000E-01   1.00800           0
      3289 MEMB     25       POPC     C213     CTL2    -0.180000       12.0110           0
      3290 MEMB     25       POPC     H13R     HAL2     0.900000E-01   1.00800           0
      3291 MEMB     25       POPC     H13S     HAL2     0.900000E-01   1.00800           0
      3292 MEMB     25       POPC     C214     CTL2    -0.180000       12.0110           0
      3293 MEMB     25       POPC     H14R     HAL2     0.900000E-01   1.00800           0
      3294 MEMB     25       POPC     H14S     HAL2     0.900000E-01   1.00800           0
      3295 MEMB     25       POPC     C215     CTL2    -0.180000       12.0110           0
      3296 MEMB     25       POPC     H15R     HAL2     0.900000E-01   1.00800           0
      3297 MEMB     25       POPC     H15S     HAL2     0.900000E-01   1.00800           0
      3298 MEMB     25       POPC     C216     CTL2    -0.180000       12.0110           0
      3299 MEMB     25       POPC     H16R     HAL2     0.900000E-01   1.00800           0
      3300 MEMB     25       POPC     H16S     HAL2     0.900000E-01   1.00800           0
      3301 MEMB     25       POPC     C217     CTL2    -0.180000       12.0110           0
      3302 MEMB     25       POPC     H17R     HAL2     0.900000E-01   1.00800           0
      3303 MEMB     25       POPC     H17S     HAL2     0.900000E-01   1.00800           0
      3304 MEMB     25       POPC     C218     CTL3    -0.270000       12.0110           0
      3305 MEMB     25       POPC     H18R     HAL3     0.900000E-01   1.00800           0
      3306 MEMB     25       POPC     H18S     HAL3     0.900000E-01   1.00800           0
      3307 MEMB     25       POPC     H18T     HAL3     0.900000E-01   1.00800           0
      3308 MEMB     25       POPC     C33      CTL2    -0.180000       12.0110           0
      3309 MEMB     25       POPC     H3X      HAL2     0.900000E-01   1.00800           0
      3310 MEMB     25       POPC     H3Y      HAL2     0.900000E-01   1.00800           0
      3311 MEMB     25       POPC     C34      CTL2    -0.180000       12.0110           0
      3312 MEMB     25       POPC     H4X      HAL2     0.900000E-01   1.00800           0
      3313 MEMB     25       POPC     H4Y      HAL2     0.900000E-01   1.00800           0
      3314 MEMB     25       POPC     C35      CTL2    -0.180000       12.0110           0
      3315 MEMB     25       POPC     H5X      HAL2     0.900000E-01   1.00800           0
      3316 MEMB     25       POPC     H5Y      HAL2     0.900000E-01   1.00800           0
      3317 MEMB     25       POPC     C36      CTL2    -0.180000       12.0110           0
      3318 MEMB     25       POPC     H6X      HAL2     0.900000E-01   1.00800           0
      3319 MEMB     25       POPC     H6Y      HAL2     0.900000E-01   1.00800           0
      3320 MEMB     25       POPC     C37      CTL2    -0.180000       12.0110           0
      3321 MEMB     25       POPC     H7X      HAL2     0.900000E-01   1.00800           0
      3322 MEMB     25       POPC     H7Y      HAL2     0.900000E-01   1.00800           0
      3323 MEMB     25       POPC     C38      CTL2    -0.180000       12.0110           0
      3324 MEMB     25       POPC     H8X      HAL2     0.900000E-01   1.00800           0
      3325 MEMB     25       POPC     H8Y      HAL2     0.900000E-01   1.00800           0
      3326 MEMB     25       POPC     C39      CTL2    -0.180000       12.0110           0
      3327 MEMB     25       POPC     H9X      HAL2     0.900000E-01   1.00800           0
      3328 MEMB     25       POPC     H9Y      HAL2     0.900000E-01   1.00800           0
      3329 MEMB     25       POPC     C310     CTL2    -0.180000       12.0110           0
      3330 MEMB     25       POPC     H10X     HAL2     0.900000E-01   1.00800           0
      3331 MEMB     25       POPC     H10Y     HAL2     0.900000E-01   1.00800           0
      3332 MEMB     25       POPC     C311     CTL2    -0.180000       12.0110           0
      3333 MEMB     25       POPC     H11X     HAL2     0.900000E-01   1.00800           0
      3334 MEMB     25       POPC     H11Y     HAL2     0.900000E-01   1.00800           0
      3335 MEMB     25       POPC     C312     CTL2    -0.180000       12.0110           0
      3336 MEMB     25       POPC     H12X     HAL2     0.900000E-01   1.00800           0
      3337 MEMB     25       POPC     H12Y     HAL2     0.900000E-01   1.00800           0
      3338 MEMB     25       POPC     C313     CTL2    -0.180000       12.0110           0
      3339 MEMB     25       POPC     H13X     HAL2     0.900000E-01   1.00800           0
      3340 MEMB     25       POPC     H13Y     HAL2     0.900000E-01   1.00800           0
      3341 MEMB     25       POPC     C314     CTL2    -0.180000       12.0110           0
      3342 MEMB     25       POPC     H14X     HAL2     0.900000E-01   1.00800           0
      3343 MEMB     25       POPC     H14Y     HAL2     0.900000E-01   1.00800           0
      3344 MEMB     25       POPC     C315     CTL2    -0.180000       12.0110           0
      3345 MEMB     25       POPC     H15X     HAL2     0.900000E-01   1.00800           0
      3346 MEMB     25       POPC     H15Y     HAL2     0.900000E-01   1.00800           0
      3347 MEMB     25       POPC     C316     CTL3    -0.270000       12.0110           0
      3348 MEMB     25       POPC     H16X     HAL3     0.900000E-01   1.00800           0
      3349 MEMB     25       POPC     H16Y     HAL3     0.900000E-01   1.00800           0
      3350 MEMB     25       POPC     H16Z     HAL3     0.900000E-01   1.00800           0
      3351 MEMB     26       POPC     N        NTL     -0.600000       14.0070           0
      3352 MEMB     26       POPC     C12      CTL2    -0.100000       12.0110           0
      3353 MEMB     26       POPC     H12A     HL       0.250000       1.00800           0
      3354 MEMB     26       POPC     H12B     HL       0.250000       1.00800           0
      3355 MEMB     26       POPC     C13      CTL5    -0.350000       12.0110           0
      3356 MEMB     26       POPC     H13A     HL       0.250000       1.00800           0
      3357 MEMB     26       POPC     H13B     HL       0.250000       1.00800           0
      3358 MEMB     26       POPC     H13C     HL       0.250000       1.00800           0
      3359 MEMB     26       POPC     C14      CTL5    -0.350000       12.0110           0
      3360 MEMB     26       POPC     H14A     HL       0.250000       1.00800           0
      3361 MEMB     26       POPC     H14B     HL       0.250000       1.00800           0
      3362 MEMB     26       POPC     H14C     HL       0.250000       1.00800           0
      3363 MEMB     26       POPC     C15      CTL5    -0.350000       12.0110           0
      3364 MEMB     26       POPC     H15A     HL       0.250000       1.00800           0
      3365 MEMB     26       POPC     H15B     HL       0.250000       1.00800           0
      3366 MEMB     26       POPC     H15C     HL       0.250000       1.00800           0
      3367 MEMB     26       POPC     C11      CTL2    -0.800000E-01   12.0110           0
      3368 MEMB     26       POPC     H11A     HAL2     0.900000E-01   1.00800           0
      3369 MEMB     26       POPC     H11B     HAL2     0.900000E-01   1.00800           0
      3370 MEMB     26       POPC     P        PL       1.50000        30.9740           0
      3371 MEMB     26       POPC     O13      O2L     -0.780000       15.9994           0
      3372 MEMB     26       POPC     O14      O2L     -0.780000       15.9994           0
      3373 MEMB     26       POPC     O12      OSLP    -0.570000       15.9994           0
      3374 MEMB     26       POPC     O11      OSLP    -0.570000       15.9994           0
      3375 MEMB     26       POPC     C1       CTL2    -0.800000E-01   12.0110           0
      3376 MEMB     26       POPC     HA       HAL2     0.900000E-01   1.00800           0
      3377 MEMB     26       POPC     HB       HAL2     0.900000E-01   1.00800           0
      3378 MEMB     26       POPC     C2       CTL1     0.170000       12.0110           0
      3379 MEMB     26       POPC     HS       HAL1     0.900000E-01   1.00800           0
      3380 MEMB     26       POPC     O21      OSL     -0.490000       15.9994           0
      3381 MEMB     26       POPC     C21      CL       0.900000       12.0110           0
      3382 MEMB     26       POPC     O22      OBL     -0.630000       15.9994           0
      3383 MEMB     26       POPC     C22      CTL2    -0.220000       12.0110           0
      3384 MEMB     26       POPC     H2R      HAL2     0.900000E-01   1.00800           0
      3385 MEMB     26       POPC     H2S      HAL2     0.900000E-01   1.00800           0
      3386 MEMB     26       POPC     C3       CTL2     0.800000E-01   12.0110           0
      3387 MEMB     26       POPC     HX       HAL2     0.900000E-01   1.00800           0
      3388 MEMB     26       POPC     HY       HAL2     0.900000E-01   1.00800           0
      3389 MEMB     26       POPC     O31      OSL     -0.490000       15.9994           0
      3390 MEMB     26       POPC     C31      CL       0.900000       12.0110           0
      3391 MEMB     26       POPC     O32      OBL     -0.630000       15.9994           0
      3392 MEMB     26       POPC     C32      CTL2    -0.220000       12.0110           0
      3393 MEMB     26       POPC     H2X      HAL2     0.900000E-01   1.00800           0
      3394 MEMB     26       POPC     H2Y      HAL2     0.900000E-01   1.00800           0
      3395 MEMB     26       POPC     C23      CTL2    -0.180000       12.0110           0
      3396 MEMB     26       POPC     H3R      HAL2     0.900000E-01   1.00800           0
      3397 MEMB     26       POPC     H3S      HAL2     0.900000E-01   1.00800           0
      3398 MEMB     26       POPC     C24      CTL2    -0.180000       12.0110           0
      3399 MEMB     26       POPC     H4R      HAL2     0.900000E-01   1.00800           0
      3400 MEMB     26       POPC     H4S      HAL2     0.900000E-01   1.00800           0
      3401 MEMB     26       POPC     C25      CTL2    -0.180000       12.0110           0
      3402 MEMB     26       POPC     H5R      HAL2     0.900000E-01   1.00800           0
      3403 MEMB     26       POPC     H5S      HAL2     0.900000E-01   1.00800           0
      3404 MEMB     26       POPC     C26      CTL2    -0.180000       12.0110           0
      3405 MEMB     26       POPC     H6R      HAL2     0.900000E-01   1.00800           0
      3406 MEMB     26       POPC     H6S      HAL2     0.900000E-01   1.00800           0
      3407 MEMB     26       POPC     C27      CTL2    -0.180000       12.0110           0
      3408 MEMB     26       POPC     H7R      HAL2     0.900000E-01   1.00800           0
      3409 MEMB     26       POPC     H7S      HAL2     0.900000E-01   1.00800           0
      3410 MEMB     26       POPC     C28      CTL2    -0.180000       12.0110           0
      3411 MEMB     26       POPC     H8R      HAL2     0.900000E-01   1.00800           0
      3412 MEMB     26       POPC     H8S      HAL2     0.900000E-01   1.00800           0
      3413 MEMB     26       POPC     C29      CEL1    -0.150000       12.0110           0
      3414 MEMB     26       POPC     H91      HEL1     0.150000       1.00800           0
      3415 MEMB     26       POPC     C210     CEL1    -0.150000       12.0110           0
      3416 MEMB     26       POPC     H101     HEL1     0.150000       1.00800           0
      3417 MEMB     26       POPC     C211     CTL2    -0.180000       12.0110           0
      3418 MEMB     26       POPC     H11R     HAL2     0.900000E-01   1.00800           0
      3419 MEMB     26       POPC     H11S     HAL2     0.900000E-01   1.00800           0
      3420 MEMB     26       POPC     C212     CTL2    -0.180000       12.0110           0
      3421 MEMB     26       POPC     H12R     HAL2     0.900000E-01   1.00800           0
      3422 MEMB     26       POPC     H12S     HAL2     0.900000E-01   1.00800           0
      3423 MEMB     26       POPC     C213     CTL2    -0.180000       12.0110           0
      3424 MEMB     26       POPC     H13R     HAL2     0.900000E-01   1.00800           0
      3425 MEMB     26       POPC     H13S     HAL2     0.900000E-01   1.00800           0
      3426 MEMB     26       POPC     C214     CTL2    -0.180000       12.0110           0
      3427 MEMB     26       POPC     H14R     HAL2     0.900000E-01   1.00800           0
      3428 MEMB     26       POPC     H14S     HAL2     0.900000E-01   1.00800           0
      3429 MEMB     26       POPC     C215     CTL2    -0.180000       12.0110           0
      3430 MEMB     26       POPC     H15R     HAL2     0.900000E-01   1.00800           0
      3431 MEMB     26       POPC     H15S     HAL2     0.900000E-01   1.00800           0
      3432 MEMB     26       POPC     C216     CTL2    -0.180000       12.0110           0
      3433 MEMB     26       POPC     H16R     HAL2     0.900000E-01   1.00800           0
      3434 MEMB     26       POPC     H16S     HAL2     0.900000E-01   1.00800           0
      3435 MEMB     26       POPC     C217     CTL2    -0.180000       12.0110           0
      3436 MEMB     26       POPC     H17R     HAL2     0.900000E-01   1.00800           0
      3437 MEMB     26       POPC     H17S     HAL2     0.900000E-01   1.00800           0
      3438 MEMB     26       POPC     C218     CTL3    -0.270000       12.0110           0
      3439 MEMB     26       POPC     H18R     HAL3     0.900000E-01   1.00800           0
      3440 MEMB     26       POPC     H18S     HAL3     0.900000E-01   1.00800           0
      3441 MEMB     26       POPC     H18T     HAL3     0.900000E-01   1.00800           0
      3442 MEMB     26       POPC     C33      CTL2    -0.180000       12.0110           0
      3443 MEMB     26       POPC     H3X      HAL2     0.900000E-01   1.00800           0
      3444 MEMB     26       POPC     H3Y      HAL2     0.900000E-01   1.00800           0
      3445 MEMB     26       POPC     C34      CTL2    -0.180000       12.0110           0
      3446 MEMB     26       POPC     H4X      HAL2     0.900000E-01   1.00800           0
      3447 MEMB     26       POPC     H4Y      HAL2     0.900000E-01   1.00800           0
      3448 MEMB     26       POPC     C35      CTL2    -0.180000       12.0110           0
      3449 MEMB     26       POPC     H5X      HAL2     0.900000E-01   1.00800           0
      3450 MEMB     26       POPC     H5Y      HAL2     0.900000E-01   1.00800           0
      3451 MEMB     26       POPC     C36      CTL2    -0.180000       12.0110           0
      3452 MEMB     26       POPC     H6X      HAL2     0.900000E-01   1.00800           0
      3453 MEMB     26       POPC     H6Y      HAL2     0.900000E-01   1.00800           0
      3454 MEMB     26       POPC     C37      CTL2    -0.180000       12.0110           0
      3455 MEMB     26       POPC     H7X      HAL2     0.900000E-01   1.00800           0
      3456 MEMB     26       POPC     H7Y      HAL2     0.900000E-01   1.00800           0
      3457 MEMB     26       POPC     C38      CTL2    -0.180000       12.0110           0
      3458 MEMB     26       POPC     H8X      HAL2     0.900000E-01   1.00800           0
      3459 MEMB     26       POPC     H8Y      HAL2     0.900000E-01   1.00800           0
      3460 MEMB     26       POPC     C39      CTL2    -0.180000       12.0110           0
      3461 MEMB     26       POPC     H9X      HAL2     0.900000E-01   1.00800           0
      3462 MEMB     26       POPC     H9Y      HAL2     0.900000E-01   1.00800           0
      3463 MEMB     26       POPC     C310     CTL2    -0.180000       12.0110           0
      3464 MEMB     26       POPC     H10X     HAL2     0.900000E-01   1.00800           0
      3465 MEMB     26       POPC     H10Y     HAL2     0.900000E-01   1.00800           0
      3466 MEMB     26       POPC     C311     CTL2    -0.180000       12.0110           0
      3467 MEMB     26       POPC     H11X     HAL2     0.900000E-01   1.00800           0
      3468 MEMB     26       POPC     H11Y     HAL2     0.900000E-01   1.00800           0
      3469 MEMB     26       POPC     C312     CTL2    -0.180000       12.0110           0
      3470 MEMB     26       POPC     H12X     HAL2     0.900000E-01   1.00800           0
      3471 MEMB     26       POPC     H12Y     HAL2     0.900000E-01   1.00800           0
      3472 MEMB     26       POPC     C313     CTL2    -0.180000       12.0110           0
      3473 MEMB     26       POPC     H13X     HAL2     0.900000E-01   1.00800           0
      3474 MEMB     26       POPC     H13Y     HAL2     0.900000E-01   1.00800           0
      3475 MEMB     26       POPC     C314     CTL2    -0.180000       12.0110           0
      3476 MEMB     26       POPC     H14X     HAL2     0.900000E-01   1.00800           0
      3477 MEMB     26       POPC     H14Y     HAL2     0.900000E-01   1.00800           0
      3478 MEMB     26       POPC     C315     CTL2    -0.180000       12.0110           0
      3479 MEMB     26       POPC     H15X     HAL2     0.900000E-01   1.00800           0
      3480 MEMB     26       POPC     H15Y     HAL2     0.900000E-01   1.00800           0
      3481 MEMB     26       POPC     C316     CTL3    -0.270000       12.0110           0
      3482 MEMB     26       POPC     H16X     HAL3     0.900000E-01   1.00800           0
      3483 MEMB     26       POPC     H16Y     HAL3     0.900000E-01   1.00800           0
      3484 MEMB     26       POPC     H16Z     HAL3     0.900000E-01   1.00800           0
      3485 MEMB     27       POPC     N        NTL     -0.600000       14.0070           0
      3486 MEMB     27       POPC     C12      CTL2    -0.100000       12.0110           0
      3487 MEMB     27       POPC     H12A     HL       0.250000       1.00800           0
      3488 MEMB     27       POPC     H12B     HL       0.250000       1.00800           0
      3489 MEMB     27       POPC     C13      CTL5    -0.350000       12.0110           0
      3490 MEMB     27       POPC     H13A     HL       0.250000       1.00800           0
      3491 MEMB     27       POPC     H13B     HL       0.250000       1.00800           0
      3492 MEMB     27       POPC     H13C     HL       0.250000       1.00800           0
      3493 MEMB     27       POPC     C14      CTL5    -0.350000       12.0110           0
      3494 MEMB     27       POPC     H14A     HL       0.250000       1.00800           0
      3495 MEMB     27       POPC     H14B     HL       0.250000       1.00800           0
      3496 MEMB     27       POPC     H14C     HL       0.250000       1.00800           0
      3497 MEMB     27       POPC     C15      CTL5    -0.350000       12.0110           0
      3498 MEMB     27       POPC     H15A     HL       0.250000       1.00800           0
      3499 MEMB     27       POPC     H15B     HL       0.250000       1.00800           0
      3500 MEMB     27       POPC     H15C     HL       0.250000       1.00800           0
      3501 MEMB     27       POPC     C11      CTL2    -0.800000E-01   12.0110           0
      3502 MEMB     27       POPC     H11A     HAL2     0.900000E-01   1.00800           0
      3503 MEMB     27       POPC     H11B     HAL2     0.900000E-01   1.00800           0
      3504 MEMB     27       POPC     P        PL       1.50000        30.9740           0
      3505 MEMB     27       POPC     O13      O2L     -0.780000       15.9994           0
      3506 MEMB     27       POPC     O14      O2L     -0.780000       15.9994           0
      3507 MEMB     27       POPC     O12      OSLP    -0.570000       15.9994           0
      3508 MEMB     27       POPC     O11      OSLP    -0.570000       15.9994           0
      3509 MEMB     27       POPC     C1       CTL2    -0.800000E-01   12.0110           0
      3510 MEMB     27       POPC     HA       HAL2     0.900000E-01   1.00800           0
      3511 MEMB     27       POPC     HB       HAL2     0.900000E-01   1.00800           0
      3512 MEMB     27       POPC     C2       CTL1     0.170000       12.0110           0
      3513 MEMB     27       POPC     HS       HAL1     0.900000E-01   1.00800           0
      3514 MEMB     27       POPC     O21      OSL     -0.490000       15.9994           0
      3515 MEMB     27       POPC     C21      CL       0.900000       12.0110           0
      3516 MEMB     27       POPC     O22      OBL     -0.630000       15.9994           0
      3517 MEMB     27       POPC     C22      CTL2    -0.220000       12.0110           0
      3518 MEMB     27       POPC     H2R      HAL2     0.900000E-01   1.00800           0
      3519 MEMB     27       POPC     H2S      HAL2     0.900000E-01   1.00800           0
      3520 MEMB     27       POPC     C3       CTL2     0.800000E-01   12.0110           0
      3521 MEMB     27       POPC     HX       HAL2     0.900000E-01   1.00800           0
      3522 MEMB     27       POPC     HY       HAL2     0.900000E-01   1.00800           0
      3523 MEMB     27       POPC     O31      OSL     -0.490000       15.9994           0
      3524 MEMB     27       POPC     C31      CL       0.900000       12.0110           0
      3525 MEMB     27       POPC     O32      OBL     -0.630000       15.9994           0
      3526 MEMB     27       POPC     C32      CTL2    -0.220000       12.0110           0
      3527 MEMB     27       POPC     H2X      HAL2     0.900000E-01   1.00800           0
      3528 MEMB     27       POPC     H2Y      HAL2     0.900000E-01   1.00800           0
      3529 MEMB     27       POPC     C23      CTL2    -0.180000       12.0110           0
      3530 MEMB     27       POPC     H3R      HAL2     0.900000E-01   1.00800           0
      3531 MEMB     27       POPC     H3S      HAL2     0.900000E-01   1.00800           0
      3532 MEMB     27       POPC     C24      CTL2    -0.180000       12.0110           0
      3533 MEMB     27       POPC     H4R      HAL2     0.900000E-01   1.00800           0
      3534 MEMB     27       POPC     H4S      HAL2     0.900000E-01   1.00800           0
      3535 MEMB     27       POPC     C25      CTL2    -0.180000       12.0110           0
      3536 MEMB     27       POPC     H5R      HAL2     0.900000E-01   1.00800           0
      3537 MEMB     27       POPC     H5S      HAL2     0.900000E-01   1.00800           0
      3538 MEMB     27       POPC     C26      CTL2    -0.180000       12.0110           0
      3539 MEMB     27       POPC     H6R      HAL2     0.900000E-01   1.00800           0
      3540 MEMB     27       POPC     H6S      HAL2     0.900000E-01   1.00800           0
      3541 MEMB     27       POPC     C27      CTL2    -0.180000       12.0110           0
      3542 MEMB     27       POPC     H7R      HAL2     0.900000E-01   1.00800           0
      3543 MEMB     27       POPC     H7S      HAL2     0.900000E-01   1.00800           0
      3544 MEMB     27       POPC     C28      CTL2    -0.180000       12.0110           0
      3545 MEMB     27       POPC     H8R      HAL2     0.900000E-01   1.00800           0
      3546 MEMB     27       POPC     H8S      HAL2     0.900000E-01   1.00800           0
      3547 MEMB     27       POPC     C29      CEL1    -0.150000       12.0110           0
      3548 MEMB     27       POPC     H91      HEL1     0.150000       1.00800           0
      3549 MEMB     27       POPC     C210     CEL1    -0.150000       12.0110           0
      3550 MEMB     27       POPC     H101     HEL1     0.150000       1.00800           0
      3551 MEMB     27       POPC     C211     CTL2    -0.180000       12.0110           0
      3552 MEMB     27       POPC     H11R     HAL2     0.900000E-01   1.00800           0
      3553 MEMB     27       POPC     H11S     HAL2     0.900000E-01   1.00800           0
      3554 MEMB     27       POPC     C212     CTL2    -0.180000       12.0110           0
      3555 MEMB     27       POPC     H12R     HAL2     0.900000E-01   1.00800           0
      3556 MEMB     27       POPC     H12S     HAL2     0.900000E-01   1.00800           0
      3557 MEMB     27       POPC     C213     CTL2    -0.180000       12.0110           0
      3558 MEMB     27       POPC     H13R     HAL2     0.900000E-01   1.00800           0
      3559 MEMB     27       POPC     H13S     HAL2     0.900000E-01   1.00800           0
      3560 MEMB     27       POPC     C214     CTL2    -0.180000       12.0110           0
      3561 MEMB     27       POPC     H14R     HAL2     0.900000E-01   1.00800           0
      3562 MEMB     27       POPC     H14S     HAL2     0.900000E-01   1.00800           0
      3563 MEMB     27       POPC     C215     CTL2    -0.180000       12.0110           0
      3564 MEMB     27       POPC     H15R     HAL2     0.900000E-01   1.00800           0
      3565 MEMB     27       POPC     H15S     HAL2     0.900000E-01   1.00800           0
      3566 MEMB     27       POPC     C216     CTL2    -0.180000       12.0110           0
      3567 MEMB     27       POPC     H16R     HAL2     0.900000E-01   1.00800           0
      3568 MEMB     27       POPC     H16S     HAL2     0.900000E-01   1.00800           0
      3569 MEMB     27       POPC     C217     CTL2    -0.180000       12.0110           0
      3570 MEMB     27       POPC     H17R     HAL2     0.900000E-01   1.00800           0
      3571 MEMB     27       POPC     H17S     HAL2     0.900000E-01   1.00800           0
      3572 MEMB     27       POPC     C218     CTL3    -0.270000       12.0110           0
      3573 MEMB     27       POPC     H18R     HAL3     0.900000E-01   1.00800           0
      3574 MEMB     27       POPC     H18S     HAL3     0.900000E-01   1.00800           0
      3575 MEMB     27       POPC     H18T     HAL3     0.900000E-01   1.00800           0
      3576 MEMB     27       POPC     C33      CTL2    -0.180000       12.0110           0
      3577 MEMB     27       POPC     H3X      HAL2     0.900000E-01   1.00800           0
      3578 MEMB     27       POPC     H3Y      HAL2     0.900000E-01   1.00800           0
      3579 MEMB     27       POPC     C34      CTL2    -0.180000       12.0110           0
      3580 MEMB     27       POPC     H4X      HAL2     0.900000E-01   1.00800           0
      3581 MEMB     27       POPC     H4Y      HAL2     0.900000E-01   1.00800           0
      3582 MEMB     27       POPC     C35      CTL2    -0.180000       12.0110           0
      3583 MEMB     27       POPC     H5X      HAL2     0.900000E-01   1.00800           0
      3584 MEMB     27       POPC     H5Y      HAL2     0.900000E-01   1.00800           0
      3585 MEMB     27       POPC     C36      CTL2    -0.180000       12.0110           0
      3586 MEMB     27       POPC     H6X      HAL2     0.900000E-01   1.00800           0
      3587 MEMB     27       POPC     H6Y      HAL2     0.900000E-01   1.00800           0
      3588 MEMB     27       POPC     C37      CTL2    -0.180000       12.0110           0
      3589 MEMB     27       POPC     H7X      HAL2     0.900000E-01   1.00800           0
      3590 MEMB     27       POPC     H7Y      HAL2     0.900000E-01   1.00800           0
      3591 MEMB     27       POPC     C38      CTL2    -0.180000       12.0110           0
      3592 MEMB     27       POPC     H8X      HAL2     0.900000E-01   1.00800           0
      3593 MEMB     27       POPC     H8Y      HAL2     0.900000E-01   1.00800           0
      3594 MEMB     27       POPC     C39      CTL2    -0.180000       12.0110           0
      3595 MEMB     27       POPC     H9X      HAL2     0.900000E-01   1.00800           0
      3596 MEMB     27       POPC     H9Y      HAL2     0.900000E-01   1.00800           0
      3597 MEMB     27       POPC     C310     CTL2    -0.180000       12.0110           0
      3598 MEMB     27       POPC     H10X     HAL2     0.900000E-01   1.00800           0
      3599 MEMB     27       POPC     H10Y     HAL2     0.900000E-01   1.00800           0
      3600 MEMB     27       POPC     C311     CTL2    -0.180000       12.0110           0
      3601 MEMB     27       POPC     H11X     HAL2     0.900000E-01   1.00800           0
      3602 MEMB     27       POPC     H11Y     HAL2     0.900000E-01   1.00800           0
      3603 MEMB     27       POPC     C312     CTL2    -0.180000       12.0110           0
      3604 MEMB     27       POPC     H12X     HAL2     0.900000E-01   1.00800           0
      3605 MEMB     27       POPC     H12Y     HAL2     0.900000E-01   1.00800           0
      3606 MEMB     27       POPC     C313     CTL2    -0.180000       12.0110           0
      3607 MEMB     27       POPC     H13X     HAL2     0.900000E-01   1.00800           0
      3608 MEMB     27       POPC     H13Y     HAL2     0.900000E-01   1.00800           0
      3609 MEMB     27       POPC     C314     CTL2    -0.180000       12.0110           0
      3610 MEMB     27       POPC     H14X     HAL2     0.900000E-01   1.00800           0
      3611 MEMB     27       POPC     H14Y     HAL2     0.900000E-01   1.00800           0
      3612 MEMB     27       POPC     C315     CTL2    -0.180000       12.0110           0
      3613 MEMB     27       POPC     H15X     HAL2     0.900000E-01   1.00800           0
      3614 MEMB     27       POPC     H15Y     HAL2     0.900000E-01   1.00800           0
      3615 MEMB     27       POPC     C316     CTL3    -0.270000       12.0110           0
      3616 MEMB     27       POPC     H16X     HAL3     0.900000E-01   1.00800           0
      3617 MEMB     27       POPC     H16Y     HAL3     0.900000E-01   1.00800           0
      3618 MEMB     27       POPC     H16Z     HAL3     0.900000E-01   1.00800           0
      3619 MEMB     28       POPC     N        NTL     -0.600000       14.0070           0
      3620 MEMB     28       POPC     C12      CTL2    -0.100000       12.0110           0
      3621 MEMB     28       POPC     H12A     HL       0.250000       1.00800           0
      3622 MEMB     28       POPC     H12B     HL       0.250000       1.00800           0
      3623 MEMB     28       POPC     C13      CTL5    -0.350000       12.0110           0
      3624 MEMB     28       POPC     H13A     HL       0.250000       1.00800           0
      3625 MEMB     28       POPC     H13B     HL       0.250000       1.00800           0
      3626 MEMB     28       POPC     H13C     HL       0.250000       1.00800           0
      3627 MEMB     28       POPC     C14      CTL5    -0.350000       12.0110           0
      3628 MEMB     28       POPC     H14A     HL       0.250000       1.00800           0
      3629 MEMB     28       POPC     H14B     HL       0.250000       1.00800           0
      3630 MEMB     28       POPC     H14C     HL       0.250000       1.00800           0
      3631 MEMB     28       POPC     C15      CTL5    -0.350000       12.0110           0
      3632 MEMB     28       POPC     H15A     HL       0.250000       1.00800           0
      3633 MEMB     28       POPC     H15B     HL       0.250000       1.00800           0
      3634 MEMB     28       POPC     H15C     HL       0.250000       1.00800           0
      3635 MEMB     28       POPC     C11      CTL2    -0.800000E-01   12.0110           0
      3636 MEMB     28       POPC     H11A     HAL2     0.900000E-01   1.00800           0
      3637 MEMB     28       POPC     H11B     HAL2     0.900000E-01   1.00800           0
      3638 MEMB     28       POPC     P        PL       1.50000        30.9740           0
      3639 MEMB     28       POPC     O13      O2L     -0.780000       15.9994           0
      3640 MEMB     28       POPC     O14      O2L     -0.780000       15.9994           0
      3641 MEMB     28       POPC     O12      OSLP    -0.570000       15.9994           0
      3642 MEMB     28       POPC     O11      OSLP    -0.570000       15.9994           0
      3643 MEMB     28       POPC     C1       CTL2    -0.800000E-01   12.0110           0
      3644 MEMB     28       POPC     HA       HAL2     0.900000E-01   1.00800           0
      3645 MEMB     28       POPC     HB       HAL2     0.900000E-01   1.00800           0
      3646 MEMB     28       POPC     C2       CTL1     0.170000       12.0110           0
      3647 MEMB     28       POPC     HS       HAL1     0.900000E-01   1.00800           0
      3648 MEMB     28       POPC     O21      OSL     -0.490000       15.9994           0
      3649 MEMB     28       POPC     C21      CL       0.900000       12.0110           0
      3650 MEMB     28       POPC     O22      OBL     -0.630000       15.9994           0
      3651 MEMB     28       POPC     C22      CTL2    -0.220000       12.0110           0
      3652 MEMB     28       POPC     H2R      HAL2     0.900000E-01   1.00800           0
      3653 MEMB     28       POPC     H2S      HAL2     0.900000E-01   1.00800           0
      3654 MEMB     28       POPC     C3       CTL2     0.800000E-01   12.0110           0
      3655 MEMB     28       POPC     HX       HAL2     0.900000E-01   1.00800           0
      3656 MEMB     28       POPC     HY       HAL2     0.900000E-01   1.00800           0
      3657 MEMB     28       POPC     O31      OSL     -0.490000       15.9994           0
      3658 MEMB     28       POPC     C31      CL       0.900000       12.0110           0
      3659 MEMB     28       POPC     O32      OBL     -0.630000       15.9994           0
      3660 MEMB     28       POPC     C32      CTL2    -0.220000       12.0110           0
      3661 MEMB     28       POPC     H2X      HAL2     0.900000E-01   1.00800           0
      3662 MEMB     28       POPC     H2Y      HAL2     0.900000E-01   1.00800           0
      3663 MEMB     28       POPC     C23      CTL2    -0.180000       12.0110           0
      3664 MEMB     28       POPC     H3R      HAL2     0.900000E-01   1.00800           0
      3665 MEMB     28       POPC     H3S      HAL2     0.900000E-01   1.00800           0
      3666 MEMB     28       POPC     C24      CTL2    -0.180000       12.0110           0
      3667 MEMB     28       POPC     H4R      HAL2     0.900000E-01   1.00800           0
      3668 MEMB     28       POPC     H4S      HAL2     0.900000E-01   1.00800           0
      3669 MEMB     28       POPC     C25      CTL2    -0.180000       12.0110           0
      3670 MEMB     28       POPC     H5R      HAL2     0.900000E-01   1.00800           0
      3671 MEMB     28       POPC     H5S      HAL2     0.900000E-01   1.00800           0
      3672 MEMB     28       POPC     C26      CTL2    -0.180000       12.0110           0
      3673 MEMB     28       POPC     H6R      HAL2     0.900000E-01   1.00800           0
      3674 MEMB     28       POPC     H6S      HAL2     0.900000E-01   1.00800           0
      3675 MEMB     28       POPC     C27      CTL2    -0.180000       12.0110           0
      3676 MEMB     28       POPC     H7R      HAL2     0.900000E-01   1.00800           0
      3677 MEMB     28       POPC     H7S      HAL2     0.900000E-01   1.00800           0
      3678 MEMB     28       POPC     C28      CTL2    -0.180000       12.0110           0
      3679 MEMB     28       POPC     H8R      HAL2     0.900000E-01   1.00800           0
      3680 MEMB     28       POPC     H8S      HAL2     0.900000E-01   1.00800           0
      3681 MEMB     28       POPC     C29      CEL1    -0.150000       12.0110           0
      3682 MEMB     28       POPC     H91      HEL1     0.150000       1.00800           0
      3683 MEMB     28       POPC     C210     CEL1    -0.150000       12.0110           0
      3684 MEMB     28       POPC     H101     HEL1     0.150000       1.00800           0
      3685 MEMB     28       POPC     C211     CTL2    -0.180000       12.0110           0
      3686 MEMB     28       POPC     H11R     HAL2     0.900000E-01   1.00800           0
      3687 MEMB     28       POPC     H11S     HAL2     0.900000E-01   1.00800           0
      3688 MEMB     28       POPC     C212     CTL2    -0.180000       12.0110           0
      3689 MEMB     28       POPC     H12R     HAL2     0.900000E-01   1.00800           0
      3690 MEMB     28       POPC     H12S     HAL2     0.900000E-01   1.00800           0
      3691 MEMB     28       POPC     C213     CTL2    -0.180000       12.0110           0
      3692 MEMB     28       POPC     H13R     HAL2     0.900000E-01   1.00800           0
      3693 MEMB     28       POPC     H13S     HAL2     0.900000E-01   1.00800           0
      3694 MEMB     28       POPC     C214     CTL2    -0.180000       12.0110           0
      3695 MEMB     28       POPC     H14R     HAL2     0.900000E-01   1.00800           0
      3696 MEMB     28       POPC     H14S     HAL2     0.900000E-01   1.00800           0
      3697 MEMB     28       POPC     C215     CTL2    -0.180000       12.0110           0
      3698 MEMB     28       POPC     H15R     HAL2     0.900000E-01   1.00800           0
      3699 MEMB     28       POPC     H15S     HAL2     0.900000E-01   1.00800           0
      3700 MEMB     28       POPC     C216     CTL2    -0.180000       12.0110           0
      3701 MEMB     28       POPC     H16R     HAL2     0.900000E-01   1.00800           0
      3702 MEMB     28       POPC     H16S     HAL2     0.900000E-01   1.00800           0
      3703 MEMB     28       POPC     C217     CTL2    -0.180000       12.0110           0
      3704 MEMB     28       POPC     H17R     HAL2     0.900000E-01   1.00800           0
      3705 MEMB     28       POPC     H17S     HAL2     0.900000E-01   1.00800           0
      3706 MEMB     28       POPC     C218     CTL3    -0.270000       12.0110           0
      3707 MEMB     28       POPC     H18R     HAL3     0.900000E-01   1.00800           0
      3708 MEMB     28       POPC     H18S     HAL3     0.900000E-01   1.00800           0
      3709 MEMB     28       POPC     H18T     HAL3     0.900000E-01   1.00800           0
      3710 MEMB     28       POPC     C33      CTL2    -0.180000       12.0110           0
      3711 MEMB     28       POPC     H3X      HAL2     0.900000E-01   1.00800           0
      3712 MEMB     28       POPC     H3Y      HAL2     0.900000E-01   1.00800           0
      3713 MEMB     28       POPC     C34      CTL2    -0.180000       12.0110           0
      3714 MEMB     28       POPC     H4X      HAL2     0.900000E-01   1.00800           0
      3715 MEMB     28       POPC     H4Y      HAL2     0.900000E-01   1.00800           0
      3716 MEMB     28       POPC     C35      CTL2    -0.180000       12.0110           0
      3717 MEMB     28       POPC     H5X      HAL2     0.900000E-01   1.00800           0
      3718 MEMB     28       POPC     H5Y      HAL2     0.900000E-01   1.00800           0
      3719 MEMB     28       POPC     C36      CTL2    -0.180000       12.0110           0
      3720 MEMB     28       POPC     H6X      HAL2     0.900000E-01   1.00800           0
      3721 MEMB     28       POPC     H6Y      HAL2     0.900000E-01   1.00800           0
      3722 MEMB     28       POPC     C37      CTL2    -0.180000       12.0110           0
      3723 MEMB     28       POPC     H7X      HAL2     0.900000E-01   1.00800           0
      3724 MEMB     28       POPC     H7Y      HAL2     0.900000E-01   1.00800           0
      3725 MEMB     28       POPC     C38      CTL2    -0.180000       12.0110           0
      3726 MEMB     28       POPC     H8X      HAL2     0.900000E-01   1.00800           0
      3727 MEMB     28       POPC     H8Y      HAL2     0.900000E-01   1.00800           0
      3728 MEMB     28       POPC     C39      CTL2    -0.180000       12.0110           0
      3729 MEMB     28       POPC     H9X      HAL2     0.900000E-01   1.00800           0
      3730 MEMB     28       POPC     H9Y      HAL2     0.900000E-01   1.00800           0
      3731 MEMB     28       POPC     C310     CTL2    -0.180000       12.0110           0
      3732 MEMB     28       POPC     H10X     HAL2     0.900000E-01   1.00800           0
      3733 MEMB     28       POPC     H10Y     HAL2     0.900000E-01   1.00800           0
      3734 MEMB     28       POPC     C311     CTL2    -0.180000       12.0110           0
      3735 MEMB     28       POPC     H11X     HAL2     0.900000E-01   1.00800           0
      3736 MEMB     28       POPC     H11Y     HAL2     0.900000E-01   1.00800           0
      3737 MEMB     28       POPC     C312     CTL2    -0.180000       12.0110           0
      3738 MEMB     28       POPC     H12X     HAL2     0.900000E-01   1.00800           0
      3739 MEMB     28       POPC     H12Y     HAL2     0.900000E-01   1.00800           0
      3740 MEMB     28       POPC     C313     CTL2    -0.180000       12.0110           0
      3741 MEMB     28       POPC     H13X     HAL2     0.900000E-01   1.00800           0
      3742 MEMB     28       POPC     H13Y     HAL2     0.900000E-01   1.00800           0
      3743 MEMB     28       POPC     C314     CTL2    -0.180000       12.0110           0
      3744 MEMB     28       POPC     H14X     HAL2     0.900000E-01   1.00800           0
      3745 MEMB     28       POPC     H14Y     HAL2     0.900000E-01   1.00800           0
      3746 MEMB     28       POPC     C315     CTL2    -0.180000       12.0110           0
      3747 MEMB     28       POPC     H15X     HAL2     0.900000E-01   1.00800           0
      3748 MEMB     28       POPC     H15Y     HAL2     0.900000E-01   1.00800           0
      3749 MEMB     28       POPC     C316     CTL3    -0.270000       12.0110           0
      3750 MEMB     28       POPC     H16X     HAL3     0.900000E-01   1.00800           0
      3751 MEMB     28       POPC     H16Y     HAL3     0.900000E-01   1.00800           0
      3752 MEMB     28       POPC     H16Z     HAL3     0.900000E-01   1.00800           0
      3753 MEMB     29       POPC     N        NTL     -0.600000       14.0070           0
      3754 MEMB     29       POPC     C12      CTL2    -0.100000       12.0110           0
      3755 MEMB     29       POPC     H12A     HL       0.250000       1.00800           0
      3756 MEMB     29       POPC     H12B     HL       0.250000       1.00800           0
      3757 MEMB     29       POPC     C13      CTL5    -0.350000       12.0110           0
      3758 MEMB     29       POPC     H13A     HL       0.250000       1.00800           0
      3759 MEMB     29       POPC     H13B     HL       0.250000       1.00800           0
      3760 MEMB     29       POPC     H13C     HL       0.250000       1.00800           0
      3761 MEMB     29       POPC     C14      CTL5    -0.350000       12.0110           0
      3762 MEMB     29       POPC     H14A     HL       0.250000       1.00800           0
      3763 MEMB     29       POPC     H14B     HL       0.250000       1.00800           0
      3764 MEMB     29       POPC     H14C     HL       0.250000       1.00800           0
      3765 MEMB     29       POPC     C15      CTL5    -0.350000       12.0110           0
      3766 MEMB     29       POPC     H15A     HL       0.250000       1.00800           0
      3767 MEMB     29       POPC     H15B     HL       0.250000       1.00800           0
      3768 MEMB     29       POPC     H15C     HL       0.250000       1.00800           0
      3769 MEMB     29       POPC     C11      CTL2    -0.800000E-01   12.0110           0
      3770 MEMB     29       POPC     H11A     HAL2     0.900000E-01   1.00800           0
      3771 MEMB     29       POPC     H11B     HAL2     0.900000E-01   1.00800           0
      3772 MEMB     29       POPC     P        PL       1.50000        30.9740           0
      3773 MEMB     29       POPC     O13      O2L     -0.780000       15.9994           0
      3774 MEMB     29       POPC     O14      O2L     -0.780000       15.9994           0
      3775 MEMB     29       POPC     O12      OSLP    -0.570000       15.9994           0
      3776 MEMB     29       POPC     O11      OSLP    -0.570000       15.9994           0
      3777 MEMB     29       POPC     C1       CTL2    -0.800000E-01   12.0110           0
      3778 MEMB     29       POPC     HA       HAL2     0.900000E-01   1.00800           0
      3779 MEMB     29       POPC     HB       HAL2     0.900000E-01   1.00800           0
      3780 MEMB     29       POPC     C2       CTL1     0.170000       12.0110           0
      3781 MEMB     29       POPC     HS       HAL1     0.900000E-01   1.00800           0
      3782 MEMB     29       POPC     O21      OSL     -0.490000       15.9994           0
      3783 MEMB     29       POPC     C21      CL       0.900000       12.0110           0
      3784 MEMB     29       POPC     O22      OBL     -0.630000       15.9994           0
      3785 MEMB     29       POPC     C22      CTL2    -0.220000       12.0110           0
      3786 MEMB     29       POPC     H2R      HAL2     0.900000E-01   1.00800           0
      3787 MEMB     29       POPC     H2S      HAL2     0.900000E-01   1.00800           0
      3788 MEMB     29       POPC     C3       CTL2     0.800000E-01   12.0110           0
      3789 MEMB     29       POPC     HX       HAL2     0.900000E-01   1.00800           0
      3790 MEMB     29       POPC     HY       HAL2     0.900000E-01   1.00800           0
      3791 MEMB     29       POPC     O31      OSL     -0.490000       15.9994           0
      3792 MEMB     29       POPC     C31      CL       0.900000       12.0110           0
      3793 MEMB     29       POPC     O32      OBL     -0.630000       15.9994           0
      3794 MEMB     29       POPC     C32      CTL2    -0.220000       12.0110           0
      3795 MEMB     29       POPC     H2X      HAL2     0.900000E-01   1.00800           0
      3796 MEMB     29       POPC     H2Y      HAL2     0.900000E-01   1.00800           0
      3797 MEMB     29       POPC     C23      CTL2    -0.180000       12.0110           0
      3798 MEMB     29       POPC     H3R      HAL2     0.900000E-01   1.00800           0
      3799 MEMB     29       POPC     H3S      HAL2     0.900000E-01   1.00800           0
      3800 MEMB     29       POPC     C24      CTL2    -0.180000       12.0110           0
      3801 MEMB     29       POPC     H4R      HAL2     0.900000E-01   1.00800           0
      3802 MEMB     29       POPC     H4S      HAL2     0.900000E-01   1.00800           0
      3803 MEMB     29       POPC     C25      CTL2    -0.180000       12.0110           0
      3804 MEMB     29       POPC     H5R      HAL2     0.900000E-01   1.00800           0
      3805 MEMB     29       POPC     H5S      HAL2     0.900000E-01   1.00800           0
      3806 MEMB     29       POPC     C26      CTL2    -0.180000       12.0110           0
      3807 MEMB     29       POPC     H6R      HAL2     0.900000E-01   1.00800           0
      3808 MEMB     29       POPC     H6S      HAL2     0.900000E-01   1.00800           0
      3809 MEMB     29       POPC     C27      CTL2    -0.180000       12.0110           0
      3810 MEMB     29       POPC     H7R      HAL2     0.900000E-01   1.00800           0
      3811 MEMB     29       POPC     H7S      HAL2     0.900000E-01   1.00800           0
      3812 MEMB     29       POPC     C28      CTL2    -0.180000       12.0110           0
      3813 MEMB     29       POPC     H8R      HAL2     0.900000E-01   1.00800           0
      3814 MEMB     29       POPC     H8S      HAL2     0.900000E-01   1.00800           0
      3815 MEMB     29       POPC     C29      CEL1    -0.150000       12.0110           0
      3816 MEMB     29       POPC     H91      HEL1     0.150000       1.00800           0
      3817 MEMB     29       POPC     C210     CEL1    -0.150000       12.0110           0
      3818 MEMB     29       POPC     H101     HEL1     0.150000       1.00800           0
      3819 MEMB     29       POPC     C211     CTL2    -0.180000       12.0110           0
      3820 MEMB     29       POPC     H11R     HAL2     0.900000E-01   1.00800           0
      3821 MEMB     29       POPC     H11S     HAL2     0.900000E-01   1.00800           0
      3822 MEMB     29       POPC     C212     CTL2    -0.180000       12.0110           0
      3823 MEMB     29       POPC     H12R     HAL2     0.900000E-01   1.00800           0
      3824 MEMB     29       POPC     H12S     HAL2     0.900000E-01   1.00800           0
      3825 MEMB     29       POPC     C213     CTL2    -0.180000       12.0110           0
      3826 MEMB     29       POPC     H13R     HAL2     0.900000E-01   1.00800           0
      3827 MEMB     29       POPC     H13S     HAL2     0.900000E-01   1.00800           0
      3828 MEMB     29       POPC     C214     CTL2    -0.180000       12.0110           0
      3829 MEMB     29       POPC     H14R     HAL2     0.900000E-01   1.00800           0
      3830 MEMB     29       POPC     H14S     HAL2     0.900000E-01   1.00800           0
      3831 MEMB     29       POPC     C215     CTL2    -0.180000       12.0110           0
      3832 MEMB     29       POPC     H15R     HAL2     0.900000E-01   1.00800           0
      3833 MEMB     29       POPC     H15S     HAL2     0.900000E-01   1.00800           0
      3834 MEMB     29       POPC     C216     CTL2    -0.180000       12.0110           0
      3835 MEMB     29       POPC     H16R     HAL2     0.900000E-01   1.00800           0
      3836 MEMB     29       POPC     H16S     HAL2     0.900000E-01   1.00800           0
      3837 MEMB     29       POPC     C217     CTL2    -0.180000       12.0110           0
      3838 MEMB     29       POPC     H17R     HAL2     0.900000E-01   1.00800           0
      3839 MEMB     29       POPC     H17S     HAL2     0.900000E-01   1.00800           0
      3840 MEMB     29       POPC     C218     CTL3    -0.270000       12.0110           0
      3841 MEMB     29       POPC     H18R     HAL3     0.900000E-01   1.00800           0
      3842 MEMB     29       POPC     H18S     HAL3     0.900000E-01   1.00800           0
      3843 MEMB     29       POPC     H18T     HAL3     0.900000E-01   1.00800           0
      3844 MEMB     29       POPC     C33      CTL2    -0.180000       12.0110           0
      3845 MEMB     29       POPC     H3X      HAL2     0.900000E-01   1.00800           0
      3846 MEMB     29       POPC     H3Y      HAL2     0.900000E-01   1.00800           0
      3847 MEMB     29       POPC     C34      CTL2    -0.180000       12.0110           0
      3848 MEMB     29       POPC     H4X      HAL2     0.900000E-01   1.00800           0
      3849 MEMB     29       POPC     H4Y      HAL2     0.900000E-01   1.00800           0
      3850 MEMB     29       POPC     C35      CTL2    -0.180000       12.0110           0
      3851 MEMB     29       POPC     H5X      HAL2     0.900000E-01   1.00800           0
      3852 MEMB     29       POPC     H5Y      HAL2     0.900000E-01   1.00800           0
      3853 MEMB     29       POPC     C36      CTL2    -0.180000       12.0110           0
      3854 MEMB     29       POPC     H6X      HAL2     0.900000E-01   1.00800           0
      3855 MEMB     29       POPC     H6Y      HAL2     0.900000E-01   1.00800           0
      3856 MEMB     29       POPC     C37      CTL2    -0.180000       12.0110           0
      3857 MEMB     29       POPC     H7X      HAL2     0.900000E-01   1.00800           0
      3858 MEMB     29       POPC     H7Y      HAL2     0.900000E-01   1.00800           0
      3859 MEMB     29       POPC     C38      CTL2    -0.180000       12.0110           0
      3860 MEMB     29       POPC     H8X      HAL2     0.900000E-01   1.00800           0
      3861 MEMB     29       POPC     H8Y      HAL2     0.900000E-01   1.00800           0
      3862 MEMB     29       POPC     C39      CTL2    -0.180000       12.0110           0
      3863 MEMB     29       POPC     H9X      HAL2     0.900000E-01   1.00800           0
      3864 MEMB     29       POPC     H9Y      HAL2     0.900000E-01   1.00800           0
      3865 MEMB     29       POPC     C310     CTL2    -0.180000       12.0110           0
      3866 MEMB     29       POPC     H10X     HAL2     0.900000E-01   1.00800           0
      3867 MEMB     29       POPC     H10Y     HAL2     0.900000E-01   1.00800           0
      3868 MEMB     29       POPC     C311     CTL2    -0.180000       12.0110           0
      3869 MEMB     29       POPC     H11X     HAL2     0.900000E-01   1.00800           0
      3870 MEMB     29       POPC     H11Y     HAL2     0.900000E-01   1.00800           0
      3871 MEMB     29       POPC     C312     CTL2    -0.180000       12.0110           0
      3872 MEMB     29       POPC     H12X     HAL2     0.900000E-01   1.00800           0
      3873 MEMB     29       POPC     H12Y     HAL2     0.900000E-01   1.00800           0
      3874 MEMB     29       POPC     C313     CTL2    -0.180000       12.0110           0
      3875 MEMB     29       POPC     H13X     HAL2     0.900000E-01   1.00800           0
      3876 MEMB     29       POPC     H13Y     HAL2     0.900000E-01   1.00800           0
      3877 MEMB     29       POPC     C314     CTL2    -0.180000       12.0110           0
      3878 MEMB     29       POPC     H14X     HAL2     0.900000E-01   1.00800           0
      3879 MEMB     29       POPC     H14Y     HAL2     0.900000E-01   1.00800           0
      3880 MEMB     29       POPC     C315     CTL2    -0.180000       12.0110           0
      3881 MEMB     29       POPC     H15X     HAL2     0.900000E-01   1.00800           0
      3882 MEMB     29       POPC     H15Y     HAL2     0.900000E-01   1.00800           0
      3883 MEMB     29       POPC     C316     CTL3    -0.270000       12.0110           0
      3884 MEMB     29       POPC     H16X     HAL3     0.900000E-01   1.00800           0
      3885 MEMB     29       POPC     H16Y     HAL3     0.900000E-01   1.00800           0
      3886 MEMB     29       POPC     H16Z     HAL3     0.900000E-01   1.00800           0
      3887 MEMB     30       POPC     N        NTL     -0.600000       14.0070           0
      3888 MEMB     30       POPC     C12      CTL2    -0.100000       12.0110           0
      3889 MEMB     30       POPC     H12A     HL       0.250000       1.00800           0
      3890 MEMB     30       POPC     H12B     HL       0.250000       1.00800           0
      3891 MEMB     30       POPC     C13      CTL5    -0.350000       12.0110           0
      3892 MEMB     30       POPC     H13A     HL       0.250000       1.00800           0
      3893 MEMB     30       POPC     H13B     HL       0.250000       1.00800           0
      3894 MEMB     30       POPC     H13C     HL       0.250000       1.00800           0
      3895 MEMB     30       POPC     C14      CTL5    -0.350000       12.0110           0
      3896 MEMB     30       POPC     H14A     HL       0.250000       1.00800           0
      3897 MEMB     30       POPC     H14B     HL       0.250000       1.00800           0
      3898 MEMB     30       POPC     H14C     HL       0.250000       1.00800           0
      3899 MEMB     30       POPC     C15      CTL5    -0.350000       12.0110           0
      3900 MEMB     30       POPC     H15A     HL       0.250000       1.00800           0
      3901 MEMB     30       POPC     H15B     HL       0.250000       1.00800           0
      3902 MEMB     30       POPC     H15C     HL       0.250000       1.00800           0
      3903 MEMB     30       POPC     C11      CTL2    -0.800000E-01   12.0110           0
      3904 MEMB     30       POPC     H11A     HAL2     0.900000E-01   1.00800           0
      3905 MEMB     30       POPC     H11B     HAL2     0.900000E-01   1.00800           0
      3906 MEMB     30       POPC     P        PL       1.50000        30.9740           0
      3907 MEMB     30       POPC     O13      O2L     -0.780000       15.9994           0
      3908 MEMB     30       POPC     O14      O2L     -0.780000       15.9994           0
      3909 MEMB     30       POPC     O12      OSLP    -0.570000       15.9994           0
      3910 MEMB     30       POPC     O11      OSLP    -0.570000       15.9994           0
      3911 MEMB     30       POPC     C1       CTL2    -0.800000E-01   12.0110           0
      3912 MEMB     30       POPC     HA       HAL2     0.900000E-01   1.00800           0
      3913 MEMB     30       POPC     HB       HAL2     0.900000E-01   1.00800           0
      3914 MEMB     30       POPC     C2       CTL1     0.170000       12.0110           0
      3915 MEMB     30       POPC     HS       HAL1     0.900000E-01   1.00800           0
      3916 MEMB     30       POPC     O21      OSL     -0.490000       15.9994           0
      3917 MEMB     30       POPC     C21      CL       0.900000       12.0110           0
      3918 MEMB     30       POPC     O22      OBL     -0.630000       15.9994           0
      3919 MEMB     30       POPC     C22      CTL2    -0.220000       12.0110           0
      3920 MEMB     30       POPC     H2R      HAL2     0.900000E-01   1.00800           0
      3921 MEMB     30       POPC     H2S      HAL2     0.900000E-01   1.00800           0
      3922 MEMB     30       POPC     C3       CTL2     0.800000E-01   12.0110           0
      3923 MEMB     30       POPC     HX       HAL2     0.900000E-01   1.00800           0
      3924 MEMB     30       POPC     HY       HAL2     0.900000E-01   1.00800           0
      3925 MEMB     30       POPC     O31      OSL     -0.490000       15.9994           0
      3926 MEMB     30       POPC     C31      CL       0.900000       12.0110           0
      3927 MEMB     30       POPC     O32      OBL     -0.630000       15.9994           0
      3928 MEMB     30       POPC     C32      CTL2    -0.220000       12.0110           0
      3929 MEMB     30       POPC     H2X      HAL2     0.900000E-01   1.00800           0
      3930 MEMB     30       POPC     H2Y      HAL2     0.900000E-01   1.00800           0
      3931 MEMB     30       POPC     C23      CTL2    -0.180000       12.0110           0
      3932 MEMB     30       POPC     H3R      HAL2     0.900000E-01   1.00800           0
      3933 MEMB     30       POPC     H3S      HAL2     0.900000E-01   1.00800           0
      3934 MEMB     30       POPC     C24      CTL2    -0.180000       12.0110           0
      3935 MEMB     30       POPC     H4R      HAL2     0.900000E-01   1.00800           0
      3936 MEMB     30       POPC     H4S      HAL2     0.900000E-01   1.00800           0
      3937 MEMB     30       POPC     C25      CTL2    -0.180000       12.0110           0
      3938 MEMB     30       POPC     H5R      HAL2     0.900000E-01   1.00800           0
      3939 MEMB     30       POPC     H5S      HAL2     0.900000E-01   1.00800           0
      3940 MEMB     30       POPC     C26      CTL2    -0.180000       12.0110           0
      3941 MEMB     30       POPC     H6R      HAL2     0.900000E-01   1.00800           0
      3942 MEMB     30       POPC     H6S      HAL2     0.900000E-01   1.00800           0
      3943 MEMB     30       POPC     C27      CTL2    -0.180000       12.0110           0
      3944 MEMB     30       POPC     H7R      HAL2     0.900000E-01   1.00800           0
      3945 MEMB     30       POPC     H7S      HAL2     0.900000E-01   1.00800           0
      3946 MEMB     30       POPC     C28      CTL2    -0.180000       12.0110           0
      3947 MEMB     30       POPC     H8R      HAL2     0.900000E-01   1.00800           0
      3948 MEMB     30       POPC     H8S      HAL2     0.900000E-01   1.00800           0
      3949 MEMB     30       POPC     C29      CEL1    -0.150000       12.0110           0
      3950 MEMB     30       POPC     H91      HEL1     0.150000       1.00800           0
      3951 MEMB     30       POPC     C210     CEL1    -0.150000       12.0110           0
      3952 MEMB     30       POPC     H101     HEL1     0.150000       1.00800           0
      3953 MEMB     30       POPC     C211     CTL2    -0.180000       12.0110           0
      3954 MEMB     30       POPC     H11R     HAL2     0.900000E-01   1.00800           0
      3955 MEMB     30       POPC     H11S     HAL2     0.900000E-01   1.00800           0
      3956 MEMB     30       POPC     C212     CTL2    -0.180000       12.0110           0
      3957 MEMB     30       POPC     H12R     HAL2     0.900000E-01   1.00800           0
      3958 MEMB     30       POPC     H12S     HAL2     0.900000E-01   1.00800           0
      3959 MEMB     30       POPC     C213     CTL2    -0.180000       12.0110           0
      3960 MEMB     30       POPC     H13R     HAL2     0.900000E-01   1.00800           0
      3961 MEMB     30       POPC     H13S     HAL2     0.900000E-01   1.00800           0
      3962 MEMB     30       POPC     C214     CTL2    -0.180000       12.0110           0
      3963 MEMB     30       POPC     H14R     HAL2     0.900000E-01   1.00800           0
      3964 MEMB     30       POPC     H14S     HAL2     0.900000E-01   1.00800           0
      3965 MEMB     30       POPC     C215     CTL2    -0.180000       12.0110           0
      3966 MEMB     30       POPC     H15R     HAL2     0.900000E-01   1.00800           0
      3967 MEMB     30       POPC     H15S     HAL2     0.900000E-01   1.00800           0
      3968 MEMB     30       POPC     C216     CTL2    -0.180000       12.0110           0
      3969 MEMB     30       POPC     H16R     HAL2     0.900000E-01   1.00800           0
      3970 MEMB     30       POPC     H16S     HAL2     0.900000E-01   1.00800           0
      3971 MEMB     30       POPC     C217     CTL2    -0.180000       12.0110           0
      3972 MEMB     30       POPC     H17R     HAL2     0.900000E-01   1.00800           0
      3973 MEMB     30       POPC     H17S     HAL2     0.900000E-01   1.00800           0
      3974 MEMB     30       POPC     C218     CTL3    -0.270000       12.0110           0
      3975 MEMB     30       POPC     H18R     HAL3     0.900000E-01   1.00800           0
      3976 MEMB     30       POPC     H18S     HAL3     0.900000E-01   1.00800           0
      3977 MEMB     30       POPC     H18T     HAL3     0.900000E-01   1.00800           0
      3978 MEMB     30       POPC     C33      CTL2    -0.180000       12.0110           0
      3979 MEMB     30       POPC     H3X      HAL2     0.900000E-01   1.00800           0
      3980 MEMB     30       POPC     H3Y      HAL2     0.900000E-01   1.00800           0
      3981 MEMB     30       POPC     C34      CTL2    -0.180000       12.0110           0
      3982 MEMB     30       POPC     H4X      HAL2     0.900000E-01   1.00800           0
      3983 MEMB     30       POPC     H4Y      HAL2     0.900000E-01   1.00800           0
      3984 MEMB     30       POPC     C35      CTL2    -0.180000       12.0110           0
      3985 MEMB     30       POPC     H5X      HAL2     0.900000E-01   1.00800           0
      3986 MEMB     30       POPC     H5Y      HAL2     0.900000E-01   1.00800           0
      3987 MEMB     30       POPC     C36      CTL2    -0.180000       12.0110           0
      3988 MEMB     30       POPC     H6X      HAL2     0.900000E-01   1.00800           0
      3989 MEMB     30       POPC     H6Y      HAL2     0.900000E-01   1.00800           0
      3990 MEMB     30       POPC     C37      CTL2    -0.180000       12.0110           0
      3991 MEMB     30       POPC     H7X      HAL2     0.900000E-01   1.00800           0
      3992 MEMB     30       POPC     H7Y      HAL2     0.900000E-01   1.00800           0
      3993 MEMB     30       POPC     C38      CTL2    -0.180000       12.0110           0
      3994 MEMB     30       POPC     H8X      HAL2     0.900000E-01   1.00800           0
      3995 MEMB     30       POPC     H8Y      HAL2     0.900000E-01   1.00800           0
      3996 MEMB     30       POPC     C39      CTL2    -0.180000       12.0110           0
      3997 MEMB     30       POPC     H9X      HAL2     0.900000E-01   1.00800           0
      3998 MEMB     30       POPC     H9Y      HAL2     0.900000E-01   1.00800           0
      3999 MEMB     30       POPC     C310     CTL2    -0.180000       12.0110           0
      4000 MEMB     30       POPC     H10X     HAL2     0.900000E-01   1.00800           0
      4001 MEMB     30       POPC     H10Y     HAL2     0.900000E-01   1.00800           0
      4002 MEMB     30       POPC     C311     CTL2    -0.180000       12.0110           0
      4003 MEMB     30       POPC     H11X     HAL2     0.900000E-01   1.00800           0
      4004 MEMB     30       POPC     H11Y     HAL2     0.900000E-01   1.00800           0
      4005 MEMB     30       POPC     C312     CTL2    -0.180000       12.0110           0
      4006 MEMB     30       POPC     H12X     HAL2     0.900000E-01   1.00800           0
      4007 MEMB     30       POPC     H12Y     HAL2     0.900000E-01   1.00800           0
      4008 MEMB     30       POPC     C313     CTL2    -0.180000       12.0110           0
      4009 MEMB     30       POPC     H13X     HAL2     0.900000E-01   1.00800           0
      4010 MEMB     30       POPC     H13Y     HAL2     0.900000E-01   1.00800           0
      4011 MEMB     30       POPC     C314     CTL2    -0.180000       12.0110           0
      4012 MEMB     30       POPC     H14X     HAL2     0.900000E-01   1.00800           0
      4013 MEMB     30       POPC     H14Y     HAL2     0.900000E-01   1.00800           0
      4014 MEMB     30       POPC     C315     CTL2    -0.180000       12.0110           0
      4015 MEMB     30       POPC     H15X     HAL2     0.900000E-01   1.00800           0
      4016 MEMB     30       POPC     H15Y     HAL2     0.900000E-01   1.00800           0
      4017 MEMB     30       POPC     C316     CTL3    -0.270000       12.0110           0
      4018 MEMB     30       POPC     H16X     HAL3     0.900000E-01   1.00800           0
      4019 MEMB     30       POPC     H16Y     HAL3     0.900000E-01   1.00800           0
      4020 MEMB     30       POPC     H16Z     HAL3     0.900000E-01   1.00800           0
      4021 MEMB     31       POPC     N        NTL     -0.600000       14.0070           0
      4022 MEMB     31       POPC     C12      CTL2    -0.100000       12.0110           0
      4023 MEMB     31       POPC     H12A     HL       0.250000       1.00800           0
      4024 MEMB     31       POPC     H12B     HL       0.250000       1.00800           0
      4025 MEMB     31       POPC     C13      CTL5    -0.350000       12.0110           0
      4026 MEMB     31       POPC     H13A     HL       0.250000       1.00800           0
      4027 MEMB     31       POPC     H13B     HL       0.250000       1.00800           0
      4028 MEMB     31       POPC     H13C     HL       0.250000       1.00800           0
      4029 MEMB     31       POPC     C14      CTL5    -0.350000       12.0110           0
      4030 MEMB     31       POPC     H14A     HL       0.250000       1.00800           0
      4031 MEMB     31       POPC     H14B     HL       0.250000       1.00800           0
      4032 MEMB     31       POPC     H14C     HL       0.250000       1.00800           0
      4033 MEMB     31       POPC     C15      CTL5    -0.350000       12.0110           0
      4034 MEMB     31       POPC     H15A     HL       0.250000       1.00800           0
      4035 MEMB     31       POPC     H15B     HL       0.250000       1.00800           0
      4036 MEMB     31       POPC     H15C     HL       0.250000       1.00800           0
      4037 MEMB     31       POPC     C11      CTL2    -0.800000E-01   12.0110           0
      4038 MEMB     31       POPC     H11A     HAL2     0.900000E-01   1.00800           0
      4039 MEMB     31       POPC     H11B     HAL2     0.900000E-01   1.00800           0
      4040 MEMB     31       POPC     P        PL       1.50000        30.9740           0
      4041 MEMB     31       POPC     O13      O2L     -0.780000       15.9994           0
      4042 MEMB     31       POPC     O14      O2L     -0.780000       15.9994           0
      4043 MEMB     31       POPC     O12      OSLP    -0.570000       15.9994           0
      4044 MEMB     31       POPC     O11      OSLP    -0.570000       15.9994           0
      4045 MEMB     31       POPC     C1       CTL2    -0.800000E-01   12.0110           0
      4046 MEMB     31       POPC     HA       HAL2     0.900000E-01   1.00800           0
      4047 MEMB     31       POPC     HB       HAL2     0.900000E-01   1.00800           0
      4048 MEMB     31       POPC     C2       CTL1     0.170000       12.0110           0
      4049 MEMB     31       POPC     HS       HAL1     0.900000E-01   1.00800           0
      4050 MEMB     31       POPC     O21      OSL     -0.490000       15.9994           0
      4051 MEMB     31       POPC     C21      CL       0.900000       12.0110           0
      4052 MEMB     31       POPC     O22      OBL     -0.630000       15.9994           0
      4053 MEMB     31       POPC     C22      CTL2    -0.220000       12.0110           0
      4054 MEMB     31       POPC     H2R      HAL2     0.900000E-01   1.00800           0
      4055 MEMB     31       POPC     H2S      HAL2     0.900000E-01   1.00800           0
      4056 MEMB     31       POPC     C3       CTL2     0.800000E-01   12.0110           0
      4057 MEMB     31       POPC     HX       HAL2     0.900000E-01   1.00800           0
      4058 MEMB     31       POPC     HY       HAL2     0.900000E-01   1.00800           0
      4059 MEMB     31       POPC     O31      OSL     -0.490000       15.9994           0
      4060 MEMB     31       POPC     C31      CL       0.900000       12.0110           0
      4061 MEMB     31       POPC     O32      OBL     -0.630000       15.9994           0
      4062 MEMB     31       POPC     C32      CTL2    -0.220000       12.0110           0
      4063 MEMB     31       POPC     H2X      HAL2     0.900000E-01   1.00800           0
      4064 MEMB     31       POPC     H2Y      HAL2     0.900000E-01   1.00800           0
      4065 MEMB     31       POPC     C23      CTL2    -0.180000       12.0110           0
      4066 MEMB     31       POPC     H3R      HAL2     0.900000E-01   1.00800           0
      4067 MEMB     31       POPC     H3S      HAL2     0.900000E-01   1.00800           0
      4068 MEMB     31       POPC     C24      CTL2    -0.180000       12.0110           0
      4069 MEMB     31       POPC     H4R      HAL2     0.900000E-01   1.00800           0
      4070 MEMB     31       POPC     H4S      HAL2     0.900000E-01   1.00800           0
      4071 MEMB     31       POPC     C25      CTL2    -0.180000       12.0110           0
      4072 MEMB     31       POPC     H5R      HAL2     0.900000E-01   1.00800           0
      4073 MEMB     31       POPC     H5S      HAL2     0.900000E-01   1.00800           0
      4074 MEMB     31       POPC     C26      CTL2    -0.180000       12.0110           0
      4075 MEMB     31       POPC     H6R      HAL2     0.900000E-01   1.00800           0
      4076 MEMB     31       POPC     H6S      HAL2     0.900000E-01   1.00800           0
      4077 MEMB     31       POPC     C27      CTL2    -0.180000       12.0110           0
      4078 MEMB     31       POPC     H7R      HAL2     0.900000E-01   1.00800           0
      4079 MEMB     31       POPC     H7S      HAL2     0.900000E-01   1.00800           0
      4080 MEMB     31       POPC     C28      CTL2    -0.180000       12.0110           0
      4081 MEMB     31       POPC     H8R      HAL2     0.900000E-01   1.00800           0
      4082 MEMB     31       POPC     H8S      HAL2     0.900000E-01   1.00800           0
      4083 MEMB     31       POPC     C29      CEL1    -0.150000       12.0110           0
      4084 MEMB     31       POPC     H91      HEL1     0.150000       1.00800           0
      4085 MEMB     31       POPC     C210     CEL1    -0.150000       12.0110           0
      4086 MEMB     31       POPC     H101     HEL1     0.150000       1.00800           0
      4087 MEMB     31       POPC     C211     CTL2    -0.180000       12.0110           0
      4088 MEMB     31       POPC     H11R     HAL2     0.900000E-01   1.00800           0
      4089 MEMB     31       POPC     H11S     HAL2     0.900000E-01   1.00800           0
      4090 MEMB     31       POPC     C212     CTL2    -0.180000       12.0110           0
      4091 MEMB     31       POPC     H12R     HAL2     0.900000E-01   1.00800           0
      4092 MEMB     31       POPC     H12S     HAL2     0.900000E-01   1.00800           0
      4093 MEMB     31       POPC     C213     CTL2    -0.180000       12.0110           0
      4094 MEMB     31       POPC     H13R     HAL2     0.900000E-01   1.00800           0
      4095 MEMB     31       POPC     H13S     HAL2     0.900000E-01   1.00800           0
      4096 MEMB     31       POPC     C214     CTL2    -0.180000       12.0110           0
      4097 MEMB     31       POPC     H14R     HAL2     0.900000E-01   1.00800           0
      4098 MEMB     31       POPC     H14S     HAL2     0.900000E-01   1.00800           0
      4099 MEMB     31       POPC     C215     CTL2    -0.180000       12.0110           0
      4100 MEMB     31       POPC     H15R     HAL2     0.900000E-01   1.00800           0
      4101 MEMB     31       POPC     H15S     HAL2     0.900000E-01   1.00800           0
      4102 MEMB     31       POPC     C216     CTL2    -0.180000       12.0110           0
      4103 MEMB     31       POPC     H16R     HAL2     0.900000E-01   1.00800           0
      4104 MEMB     31       POPC     H16S     HAL2     0.900000E-01   1.00800           0
      4105 MEMB     31       POPC     C217     CTL2    -0.180000       12.0110           0
      4106 MEMB     31       POPC     H17R     HAL2     0.900000E-01   1.00800           0
      4107 MEMB     31       POPC     H17S     HAL2     0.900000E-01   1.00800           0
      4108 MEMB     31       POPC     C218     CTL3    -0.270000       12.0110           0
      4109 MEMB     31       POPC     H18R     HAL3     0.900000E-01   1.00800           0
      4110 MEMB     31       POPC     H18S     HAL3     0.900000E-01   1.00800           0
      4111 MEMB     31       POPC     H18T     HAL3     0.900000E-01   1.00800           0
      4112 MEMB     31       POPC     C33      CTL2    -0.180000       12.0110           0
      4113 MEMB     31       POPC     H3X      HAL2     0.900000E-01   1.00800           0
      4114 MEMB     31       POPC     H3Y      HAL2     0.900000E-01   1.00800           0
      4115 MEMB     31       POPC     C34      CTL2    -0.180000       12.0110           0
      4116 MEMB     31       POPC     H4X      HAL2     0.900000E-01   1.00800           0
      4117 MEMB     31       POPC     H4Y      HAL2     0.900000E-01   1.00800           0
      4118 MEMB     31       POPC     C35      CTL2    -0.180000       12.0110           0
      4119 MEMB     31       POPC     H5X      HAL2     0.900000E-01   1.00800           0
      4120 MEMB     31       POPC     H5Y      HAL2     0.900000E-01   1.00800           0
      4121 MEMB     31       POPC     C36      CTL2    -0.180000       12.0110           0
      4122 MEMB     31       POPC     H6X      HAL2     0.900000E-01   1.00800           0
      4123 MEMB     31       POPC     H6Y      HAL2     0.900000E-01   1.00800           0
      4124 MEMB     31       POPC     C37      CTL2    -0.180000       12.0110           0
      4125 MEMB     31       POPC     H7X      HAL2     0.900000E-01   1.00800           0
      4126 MEMB     31       POPC     H7Y      HAL2     0.900000E-01   1.00800           0
      4127 MEMB     31       POPC     C38      CTL2    -0.180000       12.0110           0
      4128 MEMB     31       POPC     H8X      HAL2     0.900000E-01   1.00800           0
      4129 MEMB     31       POPC     H8Y      HAL2     0.900000E-01   1.00800           0
      4130 MEMB     31       POPC     C39      CTL2    -0.180000       12.0110           0
      4131 MEMB     31       POPC     H9X      HAL2     0.900000E-01   1.00800           0
      4132 MEMB     31       POPC     H9Y      HAL2     0.900000E-01   1.00800           0
      4133 MEMB     31       POPC     C310     CTL2    -0.180000       12.0110           0
      4134 MEMB     31       POPC     H10X     HAL2     0.900000E-01   1.00800           0
      4135 MEMB     31       POPC     H10Y     HAL2     0.900000E-01   1.00800           0
      4136 MEMB     31       POPC     C311     CTL2    -0.180000       12.0110           0
      4137 MEMB     31       POPC     H11X     HAL2     0.900000E-01   1.00800           0
      4138 MEMB     31       POPC     H11Y     HAL2     0.900000E-01   1.00800           0
      4139 MEMB     31       POPC     C312     CTL2    -0.180000       12.0110           0
      4140 MEMB     31       POPC     H12X     HAL2     0.900000E-01   1.00800           0
      4141 MEMB     31       POPC     H12Y     HAL2     0.900000E-01   1.00800           0
      4142 MEMB     31       POPC     C313     CTL2    -0.180000       12.0110           0
      4143 MEMB     31       POPC     H13X     HAL2     0.900000E-01   1.00800           0
      4144 MEMB     31       POPC     H13Y     HAL2     0.900000E-01   1.00800           0
      4145 MEMB     31       POPC     C314     CTL2    -0.180000       12.0110           0
      4146 MEMB     31       POPC     H14X     HAL2     0.900000E-01   1.00800           0
      4147 MEMB     31       POPC     H14Y     HAL2     0.900000E-01   1.00800           0
      4148 MEMB     31       POPC     C315     CTL2    -0.180000       12.0110           0
      4149 MEMB     31       POPC     H15X     HAL2     0.900000E-01   1.00800           0
      4150 MEMB     31       POPC     H15Y     HAL2     0.900000E-01   1.00800           0
      4151 MEMB     31       POPC     C316     CTL3    -0.270000       12.0110           0
      4152 MEMB     31       POPC     H16X     HAL3     0.900000E-01   1.00800           0
      4153 MEMB     31       POPC     H16Y     HAL3     0.900000E-01   1.00800           0
      4154 MEMB     31       POPC     H16Z     HAL3     0.900000E-01   1.00800           0
      4155 MEMB     32       POPC     N        NTL     -0.600000       14.0070           0
      4156 MEMB     32       POPC     C12      CTL2    -0.100000       12.0110           0
      4157 MEMB     32       POPC     H12A     HL       0.250000       1.00800           0
      4158 MEMB     32       POPC     H12B     HL       0.250000       1.00800           0
      4159 MEMB     32       POPC     C13      CTL5    -0.350000       12.0110           0
      4160 MEMB     32       POPC     H13A     HL       0.250000       1.00800           0
      4161 MEMB     32       POPC     H13B     HL       0.250000       1.00800           0
      4162 MEMB     32       POPC     H13C     HL       0.250000       1.00800           0
      4163 MEMB     32       POPC     C14      CTL5    -0.350000       12.0110           0
      4164 MEMB     32       POPC     H14A     HL       0.250000       1.00800           0
      4165 MEMB     32       POPC     H14B     HL       0.250000       1.00800           0
      4166 MEMB     32       POPC     H14C     HL       0.250000       1.00800           0
      4167 MEMB     32       POPC     C15      CTL5    -0.350000       12.0110           0
      4168 MEMB     32       POPC     H15A     HL       0.250000       1.00800           0
      4169 MEMB     32       POPC     H15B     HL       0.250000       1.00800           0
      4170 MEMB     32       POPC     H15C     HL       0.250000       1.00800           0
      4171 MEMB     32       POPC     C11      CTL2    -0.800000E-01   12.0110           0
      4172 MEMB     32       POPC     H11A     HAL2     0.900000E-01   1.00800           0
      4173 MEMB     32       POPC     H11B     HAL2     0.900000E-01   1.00800           0
      4174 MEMB     32       POPC     P        PL       1.50000        30.9740           0
      4175 MEMB     32       POPC     O13      O2L     -0.780000       15.9994           0
      4176 MEMB     32       POPC     O14      O2L     -0.780000       15.9994           0
      4177 MEMB     32       POPC     O12      OSLP    -0.570000       15.9994           0
      4178 MEMB     32       POPC     O11      OSLP    -0.570000       15.9994           0
      4179 MEMB     32       POPC     C1       CTL2    -0.800000E-01   12.0110           0
      4180 MEMB     32       POPC     HA       HAL2     0.900000E-01   1.00800           0
      4181 MEMB     32       POPC     HB       HAL2     0.900000E-01   1.00800           0
      4182 MEMB     32       POPC     C2       CTL1     0.170000       12.0110           0
      4183 MEMB     32       POPC     HS       HAL1     0.900000E-01   1.00800           0
      4184 MEMB     32       POPC     O21      OSL     -0.490000       15.9994           0
      4185 MEMB     32       POPC     C21      CL       0.900000       12.0110           0
      4186 MEMB     32       POPC     O22      OBL     -0.630000       15.9994           0
      4187 MEMB     32       POPC     C22      CTL2    -0.220000       12.0110           0
      4188 MEMB     32       POPC     H2R      HAL2     0.900000E-01   1.00800           0
      4189 MEMB     32       POPC     H2S      HAL2     0.900000E-01   1.00800           0
      4190 MEMB     32       POPC     C3       CTL2     0.800000E-01   12.0110           0
      4191 MEMB     32       POPC     HX       HAL2     0.900000E-01   1.00800           0
      4192 MEMB     32       POPC     HY       HAL2     0.900000E-01   1.00800           0
      4193 MEMB     32       POPC     O31      OSL     -0.490000       15.9994           0
      4194 MEMB     32       POPC     C31      CL       0.900000       12.0110           0
      4195 MEMB     32       POPC     O32      OBL     -0.630000       15.9994           0
      4196 MEMB     32       POPC     C32      CTL2    -0.220000       12.0110           0
      4197 MEMB     32       POPC     H2X      HAL2     0.900000E-01   1.00800           0
      4198 MEMB     32       POPC     H2Y      HAL2     0.900000E-01   1.00800           0
      4199 MEMB     32       POPC     C23      CTL2    -0.180000       12.0110           0
      4200 MEMB     32       POPC     H3R      HAL2     0.900000E-01   1.00800           0
      4201 MEMB     32       POPC     H3S      HAL2     0.900000E-01   1.00800           0
      4202 MEMB     32       POPC     C24      CTL2    -0.180000       12.0110           0
      4203 MEMB     32       POPC     H4R      HAL2     0.900000E-01   1.00800           0
      4204 MEMB     32       POPC     H4S      HAL2     0.900000E-01   1.00800           0
      4205 MEMB     32       POPC     C25      CTL2    -0.180000       12.0110           0
      4206 MEMB     32       POPC     H5R      HAL2     0.900000E-01   1.00800           0
      4207 MEMB     32       POPC     H5S      HAL2     0.900000E-01   1.00800           0
      4208 MEMB     32       POPC     C26      CTL2    -0.180000       12.0110           0
      4209 MEMB     32       POPC     H6R      HAL2     0.900000E-01   1.00800           0
      4210 MEMB     32       POPC     H6S      HAL2     0.900000E-01   1.00800           0
      4211 MEMB     32       POPC     C27      CTL2    -0.180000       12.0110           0
      4212 MEMB     32       POPC     H7R      HAL2     0.900000E-01   1.00800           0
      4213 MEMB     32       POPC     H7S      HAL2     0.900000E-01   1.00800           0
      4214 MEMB     32       POPC     C28      CTL2    -0.180000       12.0110           0
      4215 MEMB     32       POPC     H8R      HAL2     0.900000E-01   1.00800           0
      4216 MEMB     32       POPC     H8S      HAL2     0.900000E-01   1.00800           0
      4217 MEMB     32       POPC     C29      CEL1    -0.150000       12.0110           0
      4218 MEMB     32       POPC     H91      HEL1     0.150000       1.00800           0
      4219 MEMB     32       POPC     C210     CEL1    -0.150000       12.0110           0
      4220 MEMB     32       POPC     H101     HEL1     0.150000       1.00800           0
      4221 MEMB     32       POPC     C211     CTL2    -0.180000       12.0110           0
      4222 MEMB     32       POPC     H11R     HAL2     0.900000E-01   1.00800           0
      4223 MEMB     32       POPC     H11S     HAL2     0.900000E-01   1.00800           0
      4224 MEMB     32       POPC     C212     CTL2    -0.180000       12.0110           0
      4225 MEMB     32       POPC     H12R     HAL2     0.900000E-01   1.00800           0
      4226 MEMB     32       POPC     H12S     HAL2     0.900000E-01   1.00800           0
      4227 MEMB     32       POPC     C213     CTL2    -0.180000       12.0110           0
      4228 MEMB     32       POPC     H13R     HAL2     0.900000E-01   1.00800           0
      4229 MEMB     32       POPC     H13S     HAL2     0.900000E-01   1.00800           0
      4230 MEMB     32       POPC     C214     CTL2    -0.180000       12.0110           0
      4231 MEMB     32       POPC     H14R     HAL2     0.900000E-01   1.00800           0
      4232 MEMB     32       POPC     H14S     HAL2     0.900000E-01   1.00800           0
      4233 MEMB     32       POPC     C215     CTL2    -0.180000       12.0110           0
      4234 MEMB     32       POPC     H15R     HAL2     0.900000E-01   1.00800           0
      4235 MEMB     32       POPC     H15S     HAL2     0.900000E-01   1.00800           0
      4236 MEMB     32       POPC     C216     CTL2    -0.180000       12.0110           0
      4237 MEMB     32       POPC     H16R     HAL2     0.900000E-01   1.00800           0
      4238 MEMB     32       POPC     H16S     HAL2     0.900000E-01   1.00800           0
      4239 MEMB     32       POPC     C217     CTL2    -0.180000       12.0110           0
      4240 MEMB     32       POPC     H17R     HAL2     0.900000E-01   1.00800           0
      4241 MEMB     32       POPC     H17S     HAL2     0.900000E-01   1.00800           0
      4242 MEMB     32       POPC     C218     CTL3    -0.270000       12.0110           0
      4243 MEMB     32       POPC     H18R     HAL3     0.900000E-01   1.00800           0
      4244 MEMB     32       POPC     H18S     HAL3     0.900000E-01   1.00800           0
      4245 MEMB     32       POPC     H18T     HAL3     0.900000E-01   1.00800           0
      4246 MEMB     32       POPC     C33      CTL2    -0.180000       12.0110           0
      4247 MEMB     32       POPC     H3X      HAL2     0.900000E-01   1.00800           0
      4248 MEMB     32       POPC     H3Y      HAL2     0.900000E-01   1.00800           0
      4249 MEMB     32       POPC     C34      CTL2    -0.180000       12.0110           0
      4250 MEMB     32       POPC     H4X      HAL2     0.900000E-01   1.00800           0
      4251 MEMB     32       POPC     H4Y      HAL2     0.900000E-01   1.00800           0
      4252 MEMB     32       POPC     C35      CTL2    -0.180000       12.0110           0
      4253 MEMB     32       POPC     H5X      HAL2     0.900000E-01   1.00800           0
      4254 MEMB     32       POPC     H5Y      HAL2     0.900000E-01   1.00800           0
      4255 MEMB     32       POPC     C36      CTL2    -0.180000       12.0110           0
      4256 MEMB     32       POPC     H6X      HAL2     0.900000E-01   1.00800           0
      4257 MEMB     32       POPC     H6Y      HAL2     0.900000E-01   1.00800           0
      4258 MEMB     32       POPC     C37      CTL2    -0.180000       12.0110           0
      4259 MEMB     32       POPC     H7X      HAL2     0.900000E-01   1.00800           0
      4260 MEMB     32       POPC     H7Y      HAL2     0.900000E-01   1.00800           0
      4261 MEMB     32       POPC     C38      CTL2    -0.180000       12.0110           0
      4262 MEMB     32       POPC     H8X      HAL2     0.900000E-01   1.00800           0
      4263 MEMB     32       POPC     H8Y      HAL2     0.900000E-01   1.00800           0
      4264 MEMB     32       POPC     C39      CTL2    -0.180000       12.0110           0
      4265 MEMB     32       POPC     H9X      HAL2     0.900000E-01   1.00800           0
      4266 MEMB     32       POPC     H9Y      HAL2     0.900000E-01   1.00800           0
      4267 MEMB     32       POPC     C310     CTL2    -0.180000       12.0110           0
      4268 MEMB     32       POPC     H10X     HAL2     0.900000E-01   1.00800           0
      4269 MEMB     32       POPC     H10Y     HAL2     0.900000E-01   1.00800           0
      4270 MEMB     32       POPC     C311     CTL2    -0.180000       12.0110           0
      4271 MEMB     32       POPC     H11X     HAL2     0.900000E-01   1.00800           0
      4272 MEMB     32       POPC     H11Y     HAL2     0.900000E-01   1.00800           0
      4273 MEMB     32       POPC     C312     CTL2    -0.180000       12.0110           0
      4274 MEMB     32       POPC     H12X     HAL2     0.900000E-01   1.00800           0
      4275 MEMB     32       POPC     H12Y     HAL2     0.900000E-01   1.00800           0
      4276 MEMB     32       POPC     C313     CTL2    -0.180000       12.0110           0
      4277 MEMB     32       POPC     H13X     HAL2     0.900000E-01   1.00800           0
      4278 MEMB     32       POPC     H13Y     HAL2     0.900000E-01   1.00800           0
      4279 MEMB     32       POPC     C314     CTL2    -0.180000       12.0110           0
      4280 MEMB     32       POPC     H14X     HAL2     0.900000E-01   1.00800           0
      4281 MEMB     32       POPC     H14Y     HAL2     0.900000E-01   1.00800           0
      4282 MEMB     32       POPC     C315     CTL2    -0.180000       12.0110           0
      4283 MEMB     32       POPC     H15X     HAL2     0.900000E-01   1.00800           0
      4284 MEMB     32       POPC     H15Y     HAL2     0.900000E-01   1.00800           0
      4285 MEMB     32       POPC     C316     CTL3    -0.270000       12.0110           0
      4286 MEMB     32       POPC     H16X     HAL3     0.900000E-01   1.00800           0
      4287 MEMB     32       POPC     H16Y     HAL3     0.900000E-01   1.00800           0
      4288 MEMB     32       POPC     H16Z     HAL3     0.900000E-01   1.00800           0
      4289 MEMB     33       POPC     N        NTL     -0.600000       14.0070           0
      4290 MEMB     33       POPC     C12      CTL2    -0.100000       12.0110           0
      4291 MEMB     33       POPC     H12A     HL       0.250000       1.00800           0
      4292 MEMB     33       POPC     H12B     HL       0.250000       1.00800           0
      4293 MEMB     33       POPC     C13      CTL5    -0.350000       12.0110           0
      4294 MEMB     33       POPC     H13A     HL       0.250000       1.00800           0
      4295 MEMB     33       POPC     H13B     HL       0.250000       1.00800           0
      4296 MEMB     33       POPC     H13C     HL       0.250000       1.00800           0
      4297 MEMB     33       POPC     C14      CTL5    -0.350000       12.0110           0
      4298 MEMB     33       POPC     H14A     HL       0.250000       1.00800           0
      4299 MEMB     33       POPC     H14B     HL       0.250000       1.00800           0
      4300 MEMB     33       POPC     H14C     HL       0.250000       1.00800           0
      4301 MEMB     33       POPC     C15      CTL5    -0.350000       12.0110           0
      4302 MEMB     33       POPC     H15A     HL       0.250000       1.00800           0
      4303 MEMB     33       POPC     H15B     HL       0.250000       1.00800           0
      4304 MEMB     33       POPC     H15C     HL       0.250000       1.00800           0
      4305 MEMB     33       POPC     C11      CTL2    -0.800000E-01   12.0110           0
      4306 MEMB     33       POPC     H11A     HAL2     0.900000E-01   1.00800           0
      4307 MEMB     33       POPC     H11B     HAL2     0.900000E-01   1.00800           0
      4308 MEMB     33       POPC     P        PL       1.50000        30.9740           0
      4309 MEMB     33       POPC     O13      O2L     -0.780000       15.9994           0
      4310 MEMB     33       POPC     O14      O2L     -0.780000       15.9994           0
      4311 MEMB     33       POPC     O12      OSLP    -0.570000       15.9994           0
      4312 MEMB     33       POPC     O11      OSLP    -0.570000       15.9994           0
      4313 MEMB     33       POPC     C1       CTL2    -0.800000E-01   12.0110           0
      4314 MEMB     33       POPC     HA       HAL2     0.900000E-01   1.00800           0
      4315 MEMB     33       POPC     HB       HAL2     0.900000E-01   1.00800           0
      4316 MEMB     33       POPC     C2       CTL1     0.170000       12.0110           0
      4317 MEMB     33       POPC     HS       HAL1     0.900000E-01   1.00800           0
      4318 MEMB     33       POPC     O21      OSL     -0.490000       15.9994           0
      4319 MEMB     33       POPC     C21      CL       0.900000       12.0110           0
      4320 MEMB     33       POPC     O22      OBL     -0.630000       15.9994           0
      4321 MEMB     33       POPC     C22      CTL2    -0.220000       12.0110           0
      4322 MEMB     33       POPC     H2R      HAL2     0.900000E-01   1.00800           0
      4323 MEMB     33       POPC     H2S      HAL2     0.900000E-01   1.00800           0
      4324 MEMB     33       POPC     C3       CTL2     0.800000E-01   12.0110           0
      4325 MEMB     33       POPC     HX       HAL2     0.900000E-01   1.00800           0
      4326 MEMB     33       POPC     HY       HAL2     0.900000E-01   1.00800           0
      4327 MEMB     33       POPC     O31      OSL     -0.490000       15.9994           0
      4328 MEMB     33       POPC     C31      CL       0.900000       12.0110           0
      4329 MEMB     33       POPC     O32      OBL     -0.630000       15.9994           0
      4330 MEMB     33       POPC     C32      CTL2    -0.220000       12.0110           0
      4331 MEMB     33       POPC     H2X      HAL2     0.900000E-01   1.00800           0
      4332 MEMB     33       POPC     H2Y      HAL2     0.900000E-01   1.00800           0
      4333 MEMB     33       POPC     C23      CTL2    -0.180000       12.0110           0
      4334 MEMB     33       POPC     H3R      HAL2     0.900000E-01   1.00800           0
      4335 MEMB     33       POPC     H3S      HAL2     0.900000E-01   1.00800           0
      4336 MEMB     33       POPC     C24      CTL2    -0.180000       12.0110           0
      4337 MEMB     33       POPC     H4R      HAL2     0.900000E-01   1.00800           0
      4338 MEMB     33       POPC     H4S      HAL2     0.900000E-01   1.00800           0
      4339 MEMB     33       POPC     C25      CTL2    -0.180000       12.0110           0
      4340 MEMB     33       POPC     H5R      HAL2     0.900000E-01   1.00800           0
      4341 MEMB     33       POPC     H5S      HAL2     0.900000E-01   1.00800           0
      4342 MEMB     33       POPC     C26      CTL2    -0.180000       12.0110           0
      4343 MEMB     33       POPC     H6R      HAL2     0.900000E-01   1.00800           0
      4344 MEMB     33       POPC     H6S      HAL2     0.900000E-01   1.00800           0
      4345 MEMB     33       POPC     C27      CTL2    -0.180000       12.0110           0
      4346 MEMB     33       POPC     H7R      HAL2     0.900000E-01   1.00800           0
      4347 MEMB     33       POPC     H7S      HAL2     0.900000E-01   1.00800           0
      4348 MEMB     33       POPC     C28      CTL2    -0.180000       12.0110           0
      4349 MEMB     33       POPC     H8R      HAL2     0.900000E-01   1.00800           0
      4350 MEMB     33       POPC     H8S      HAL2     0.900000E-01   1.00800           0
      4351 MEMB     33       POPC     C29      CEL1    -0.150000       12.0110           0
      4352 MEMB     33       POPC     H91      HEL1     0.150000       1.00800           0
      4353 MEMB     33       POPC     C210     CEL1    -0.150000       12.0110           0
      4354 MEMB     33       POPC     H101     HEL1     0.150000       1.00800           0
      4355 MEMB     33       POPC     C211     CTL2    -0.180000       12.0110           0
      4356 MEMB     33       POPC     H11R     HAL2     0.900000E-01   1.00800           0
      4357 MEMB     33       POPC     H11S     HAL2     0.900000E-01   1.00800           0
      4358 MEMB     33       POPC     C212     CTL2    -0.180000       12.0110           0
      4359 MEMB     33       POPC     H12R     HAL2     0.900000E-01   1.00800           0
      4360 MEMB     33       POPC     H12S     HAL2     0.900000E-01   1.00800           0
      4361 MEMB     33       POPC     C213     CTL2    -0.180000       12.0110           0
      4362 MEMB     33       POPC     H13R     HAL2     0.900000E-01   1.00800           0
      4363 MEMB     33       POPC     H13S     HAL2     0.900000E-01   1.00800           0
      4364 MEMB     33       POPC     C214     CTL2    -0.180000       12.0110           0
      4365 MEMB     33       POPC     H14R     HAL2     0.900000E-01   1.00800           0
      4366 MEMB     33       POPC     H14S     HAL2     0.900000E-01   1.00800           0
      4367 MEMB     33       POPC     C215     CTL2    -0.180000       12.0110           0
      4368 MEMB     33       POPC     H15R     HAL2     0.900000E-01   1.00800           0
      4369 MEMB     33       POPC     H15S     HAL2     0.900000E-01   1.00800           0
      4370 MEMB     33       POPC     C216     CTL2    -0.180000       12.0110           0
      4371 MEMB     33       POPC     H16R     HAL2     0.900000E-01   1.00800           0
      4372 MEMB     33       POPC     H16S     HAL2     0.900000E-01   1.00800           0
      4373 MEMB     33       POPC     C217     CTL2    -0.180000       12.0110           0
      4374 MEMB     33       POPC     H17R     HAL2     0.900000E-01   1.00800           0
      4375 MEMB     33       POPC     H17S     HAL2     0.900000E-01   1.00800           0
      4376 MEMB     33       POPC     C218     CTL3    -0.270000       12.0110           0
      4377 MEMB     33       POPC     H18R     HAL3     0.900000E-01   1.00800           0
      4378 MEMB     33       POPC     H18S     HAL3     0.900000E-01   1.00800           0
      4379 MEMB     33       POPC     H18T     HAL3     0.900000E-01   1.00800           0
      4380 MEMB     33       POPC     C33      CTL2    -0.180000       12.0110           0
      4381 MEMB     33       POPC     H3X      HAL2     0.900000E-01   1.00800           0
      4382 MEMB     33       POPC     H3Y      HAL2     0.900000E-01   1.00800           0
      4383 MEMB     33       POPC     C34      CTL2    -0.180000       12.0110           0
      4384 MEMB     33       POPC     H4X      HAL2     0.900000E-01   1.00800           0
      4385 MEMB     33       POPC     H4Y      HAL2     0.900000E-01   1.00800           0
      4386 MEMB     33       POPC     C35      CTL2    -0.180000       12.0110           0
      4387 MEMB     33       POPC     H5X      HAL2     0.900000E-01   1.00800           0
      4388 MEMB     33       POPC     H5Y      HAL2     0.900000E-01   1.00800           0
      4389 MEMB     33       POPC     C36      CTL2    -0.180000       12.0110           0
      4390 MEMB     33       POPC     H6X      HAL2     0.900000E-01   1.00800           0
      4391 MEMB     33       POPC     H6Y      HAL2     0.900000E-01   1.00800           0
      4392 MEMB     33       POPC     C37      CTL2    -0.180000       12.0110           0
      4393 MEMB     33       POPC     H7X      HAL2     0.900000E-01   1.00800           0
      4394 MEMB     33       POPC     H7Y      HAL2     0.900000E-01   1.00800           0
      4395 MEMB     33       POPC     C38      CTL2    -0.180000       12.0110           0
      4396 MEMB     33       POPC     H8X      HAL2     0.900000E-01   1.00800           0
      4397 MEMB     33       POPC     H8Y      HAL2     0.900000E-01   1.00800           0
      4398 MEMB     33       POPC     C39      CTL2    -0.180000       12.0110           0
      4399 MEMB     33       POPC     H9X      HAL2     0.900000E-01   1.00800           0
      4400 MEMB     33       POPC     H9Y      HAL2     0.900000E-01   1.00800           0
      4401 MEMB     33       POPC     C310     CTL2    -0.180000       12.0110           0
      4402 MEMB     33       POPC     H10X     HAL2     0.900000E-01   1.00800           0
      4403 MEMB     33       POPC     H10Y     HAL2     0.900000E-01   1.00800           0
      4404 MEMB     33       POPC     C311     CTL2    -0.180000       12.0110           0
      4405 MEMB     33       POPC     H11X     HAL2     0.900000E-01   1.00800           0
      4406 MEMB     33       POPC     H11Y     HAL2     0.900000E-01   1.00800           0
      4407 MEMB     33       POPC     C312     CTL2    -0.180000       12.0110           0
      4408 MEMB     33       POPC     H12X     HAL2     0.900000E-01   1.00800           0
      4409 MEMB     33       POPC     H12Y     HAL2     0.900000E-01   1.00800           0
      4410 MEMB     33       POPC     C313     CTL2    -0.180000       12.0110           0
      4411 MEMB     33       POPC     H13X     HAL2     0.900000E-01   1.00800           0
      4412 MEMB     33       POPC     H13Y     HAL2     0.900000E-01   1.00800           0
      4413 MEMB     33       POPC     C314     CTL2    -0.180000       12.0110           0
      4414 MEMB     33       POPC     H14X     HAL2     0.900000E-01   1.00800           0
      4415 MEMB     33       POPC     H14Y     HAL2     0.900000E-01   1.00800           0
      4416 MEMB     33       POPC     C315     CTL2    -0.180000       12.0110           0
      4417 MEMB     33       POPC     H15X     HAL2     0.900000E-01   1.00800           0
      4418 MEMB     33       POPC     H15Y     HAL2     0.900000E-01   1.00800           0
      4419 MEMB     33       POPC     C316     CTL3    -0.270000       12.0110           0
      4420 MEMB     33       POPC     H16X     HAL3     0.900000E-01   1.00800           0
      4421 MEMB     33       POPC     H16Y     HAL3     0.900000E-01   1.00800           0
      4422 MEMB     33       POPC     H16Z     HAL3     0.900000E-01   1.00800           0
      4423 MEMB     34       POPC     N        NTL     -0.600000       14.0070           0
      4424 MEMB     34       POPC     C12      CTL2    -0.100000       12.0110           0
      4425 MEMB     34       POPC     H12A     HL       0.250000       1.00800           0
      4426 MEMB     34       POPC     H12B     HL       0.250000       1.00800           0
      4427 MEMB     34       POPC     C13      CTL5    -0.350000       12.0110           0
      4428 MEMB     34       POPC     H13A     HL       0.250000       1.00800           0
      4429 MEMB     34       POPC     H13B     HL       0.250000       1.00800           0
      4430 MEMB     34       POPC     H13C     HL       0.250000       1.00800           0
      4431 MEMB     34       POPC     C14      CTL5    -0.350000       12.0110           0
      4432 MEMB     34       POPC     H14A     HL       0.250000       1.00800           0
      4433 MEMB     34       POPC     H14B     HL       0.250000       1.00800           0
      4434 MEMB     34       POPC     H14C     HL       0.250000       1.00800           0
      4435 MEMB     34       POPC     C15      CTL5    -0.350000       12.0110           0
      4436 MEMB     34       POPC     H15A     HL       0.250000       1.00800           0
      4437 MEMB     34       POPC     H15B     HL       0.250000       1.00800           0
      4438 MEMB     34       POPC     H15C     HL       0.250000       1.00800           0
      4439 MEMB     34       POPC     C11      CTL2    -0.800000E-01   12.0110           0
      4440 MEMB     34       POPC     H11A     HAL2     0.900000E-01   1.00800           0
      4441 MEMB     34       POPC     H11B     HAL2     0.900000E-01   1.00800           0
      4442 MEMB     34       POPC     P        PL       1.50000        30.9740           0
      4443 MEMB     34       POPC     O13      O2L     -0.780000       15.9994           0
      4444 MEMB     34       POPC     O14      O2L     -0.780000       15.9994           0
      4445 MEMB     34       POPC     O12      OSLP    -0.570000       15.9994           0
      4446 MEMB     34       POPC     O11      OSLP    -0.570000       15.9994           0
      4447 MEMB     34       POPC     C1       CTL2    -0.800000E-01   12.0110           0
      4448 MEMB     34       POPC     HA       HAL2     0.900000E-01   1.00800           0
      4449 MEMB     34       POPC     HB       HAL2     0.900000E-01   1.00800           0
      4450 MEMB     34       POPC     C2       CTL1     0.170000       12.0110           0
      4451 MEMB     34       POPC     HS       HAL1     0.900000E-01   1.00800           0
      4452 MEMB     34       POPC     O21      OSL     -0.490000       15.9994           0
      4453 MEMB     34       POPC     C21      CL       0.900000       12.0110           0
      4454 MEMB     34       POPC     O22      OBL     -0.630000       15.9994           0
      4455 MEMB     34       POPC     C22      CTL2    -0.220000       12.0110           0
      4456 MEMB     34       POPC     H2R      HAL2     0.900000E-01   1.00800           0
      4457 MEMB     34       POPC     H2S      HAL2     0.900000E-01   1.00800           0
      4458 MEMB     34       POPC     C3       CTL2     0.800000E-01   12.0110           0
      4459 MEMB     34       POPC     HX       HAL2     0.900000E-01   1.00800           0
      4460 MEMB     34       POPC     HY       HAL2     0.900000E-01   1.00800           0
      4461 MEMB     34       POPC     O31      OSL     -0.490000       15.9994           0
      4462 MEMB     34       POPC     C31      CL       0.900000       12.0110           0
      4463 MEMB     34       POPC     O32      OBL     -0.630000       15.9994           0
      4464 MEMB     34       POPC     C32      CTL2    -0.220000       12.0110           0
      4465 MEMB     34       POPC     H2X      HAL2     0.900000E-01   1.00800           0
      4466 MEMB     34       POPC     H2Y      HAL2     0.900000E-01   1.00800           0
      4467 MEMB     34       POPC     C23      CTL2    -0.180000       12.0110           0
      4468 MEMB     34       POPC     H3R      HAL2     0.900000E-01   1.00800           0
      4469 MEMB     34       POPC     H3S      HAL2     0.900000E-01   1.00800           0
      4470 MEMB     34       POPC     C24      CTL2    -0.180000       12.0110           0
      4471 MEMB     34       POPC     H4R      HAL2     0.900000E-01   1.00800           0
      4472 MEMB     34       POPC     H4S      HAL2     0.900000E-01   1.00800           0
      4473 MEMB     34       POPC     C25      CTL2    -0.180000       12.0110           0
      4474 MEMB     34       POPC     H5R      HAL2     0.900000E-01   1.00800           0
      4475 MEMB     34       POPC     H5S      HAL2     0.900000E-01   1.00800           0
      4476 MEMB     34       POPC     C26      CTL2    -0.180000       12.0110           0
      4477 MEMB     34       POPC     H6R      HAL2     0.900000E-01   1.00800           0
      4478 MEMB     34       POPC     H6S      HAL2     0.900000E-01   1.00800           0
      4479 MEMB     34       POPC     C27      CTL2    -0.180000       12.0110           0
      4480 MEMB     34       POPC     H7R      HAL2     0.900000E-01   1.00800           0
      4481 MEMB     34       POPC     H7S      HAL2     0.900000E-01   1.00800           0
      4482 MEMB     34       POPC     C28      CTL2    -0.180000       12.0110           0
      4483 MEMB     34       POPC     H8R      HAL2     0.900000E-01   1.00800           0
      4484 MEMB     34       POPC     H8S      HAL2     0.900000E-01   1.00800           0
      4485 MEMB     34       POPC     C29      CEL1    -0.150000       12.0110           0
      4486 MEMB     34       POPC     H91      HEL1     0.150000       1.00800           0
      4487 MEMB     34       POPC     C210     CEL1    -0.150000       12.0110           0
      4488 MEMB     34       POPC     H101     HEL1     0.150000       1.00800           0
      4489 MEMB     34       POPC     C211     CTL2    -0.180000       12.0110           0
      4490 MEMB     34       POPC     H11R     HAL2     0.900000E-01   1.00800           0
      4491 MEMB     34       POPC     H11S     HAL2     0.900000E-01   1.00800           0
      4492 MEMB     34       POPC     C212     CTL2    -0.180000       12.0110           0
      4493 MEMB     34       POPC     H12R     HAL2     0.900000E-01   1.00800           0
      4494 MEMB     34       POPC     H12S     HAL2     0.900000E-01   1.00800           0
      4495 MEMB     34       POPC     C213     CTL2    -0.180000       12.0110           0
      4496 MEMB     34       POPC     H13R     HAL2     0.900000E-01   1.00800           0
      4497 MEMB     34       POPC     H13S     HAL2     0.900000E-01   1.00800           0
      4498 MEMB     34       POPC     C214     CTL2    -0.180000       12.0110           0
      4499 MEMB     34       POPC     H14R     HAL2     0.900000E-01   1.00800           0
      4500 MEMB     34       POPC     H14S     HAL2     0.900000E-01   1.00800           0
      4501 MEMB     34       POPC     C215     CTL2    -0.180000       12.0110           0
      4502 MEMB     34       POPC     H15R     HAL2     0.900000E-01   1.00800           0
      4503 MEMB     34       POPC     H15S     HAL2     0.900000E-01   1.00800           0
      4504 MEMB     34       POPC     C216     CTL2    -0.180000       12.0110           0
      4505 MEMB     34       POPC     H16R     HAL2     0.900000E-01   1.00800           0
      4506 MEMB     34       POPC     H16S     HAL2     0.900000E-01   1.00800           0
      4507 MEMB     34       POPC     C217     CTL2    -0.180000       12.0110           0
      4508 MEMB     34       POPC     H17R     HAL2     0.900000E-01   1.00800           0
      4509 MEMB     34       POPC     H17S     HAL2     0.900000E-01   1.00800           0
      4510 MEMB     34       POPC     C218     CTL3    -0.270000       12.0110           0
      4511 MEMB     34       POPC     H18R     HAL3     0.900000E-01   1.00800           0
      4512 MEMB     34       POPC     H18S     HAL3     0.900000E-01   1.00800           0
      4513 MEMB     34       POPC     H18T     HAL3     0.900000E-01   1.00800           0
      4514 MEMB     34       POPC     C33      CTL2    -0.180000       12.0110           0
      4515 MEMB     34       POPC     H3X      HAL2     0.900000E-01   1.00800           0
      4516 MEMB     34       POPC     H3Y      HAL2     0.900000E-01   1.00800           0
      4517 MEMB     34       POPC     C34      CTL2    -0.180000       12.0110           0
      4518 MEMB     34       POPC     H4X      HAL2     0.900000E-01   1.00800           0
      4519 MEMB     34       POPC     H4Y      HAL2     0.900000E-01   1.00800           0
      4520 MEMB     34       POPC     C35      CTL2    -0.180000       12.0110           0
      4521 MEMB     34       POPC     H5X      HAL2     0.900000E-01   1.00800           0
      4522 MEMB     34       POPC     H5Y      HAL2     0.900000E-01   1.00800           0
      4523 MEMB     34       POPC     C36      CTL2    -0.180000       12.0110           0
      4524 MEMB     34       POPC     H6X      HAL2     0.900000E-01   1.00800           0
      4525 MEMB     34       POPC     H6Y      HAL2     0.900000E-01   1.00800           0
      4526 MEMB     34       POPC     C37      CTL2    -0.180000       12.0110           0
      4527 MEMB     34       POPC     H7X      HAL2     0.900000E-01   1.00800           0
      4528 MEMB     34       POPC     H7Y      HAL2     0.900000E-01   1.00800           0
      4529 MEMB     34       POPC     C38      CTL2    -0.180000       12.0110           0
      4530 MEMB     34       POPC     H8X      HAL2     0.900000E-01   1.00800           0
      4531 MEMB     34       POPC     H8Y      HAL2     0.900000E-01   1.00800           0
      4532 MEMB     34       POPC     C39      CTL2    -0.180000       12.0110           0
      4533 MEMB     34       POPC     H9X      HAL2     0.900000E-01   1.00800           0
      4534 MEMB     34       POPC     H9Y      HAL2     0.900000E-01   1.00800           0
      4535 MEMB     34       POPC     C310     CTL2    -0.180000       12.0110           0
      4536 MEMB     34       POPC     H10X     HAL2     0.900000E-01   1.00800           0
      4537 MEMB     34       POPC     H10Y     HAL2     0.900000E-01   1.00800           0
      4538 MEMB     34       POPC     C311     CTL2    -0.180000       12.0110           0
      4539 MEMB     34       POPC     H11X     HAL2     0.900000E-01   1.00800           0
      4540 MEMB     34       POPC     H11Y     HAL2     0.900000E-01   1.00800           0
      4541 MEMB     34       POPC     C312     CTL2    -0.180000       12.0110           0
      4542 MEMB     34       POPC     H12X     HAL2     0.900000E-01   1.00800           0
      4543 MEMB     34       POPC     H12Y     HAL2     0.900000E-01   1.00800           0
      4544 MEMB     34       POPC     C313     CTL2    -0.180000       12.0110           0
      4545 MEMB     34       POPC     H13X     HAL2     0.900000E-01   1.00800           0
      4546 MEMB     34       POPC     H13Y     HAL2     0.900000E-01   1.00800           0
      4547 MEMB     34       POPC     C314     CTL2    -0.180000       12.0110           0
      4548 MEMB     34       POPC     H14X     HAL2     0.900000E-01   1.00800           0
      4549 MEMB     34       POPC     H14Y     HAL2     0.900000E-01   1.00800           0
      4550 MEMB     34       POPC     C315     CTL2    -0.180000       12.0110           0
      4551 MEMB     34       POPC     H15X     HAL2     0.900000E-01   1.00800           0
      4552 MEMB     34       POPC     H15Y     HAL2     0.900000E-01   1.00800           0
      4553 MEMB     34       POPC     C316     CTL3    -0.270000       12.0110           0
      4554 MEMB     34       POPC     H16X     HAL3     0.900000E-01   1.00800           0
      4555 MEMB     34       POPC     H16Y     HAL3     0.900000E-01   1.00800           0
      4556 MEMB     34       POPC     H16Z     HAL3     0.900000E-01   1.00800           0
      4557 MEMB     35       POPC     N        NTL     -0.600000       14.0070           0
      4558 MEMB     35       POPC     C12      CTL2    -0.100000       12.0110           0
      4559 MEMB     35       POPC     H12A     HL       0.250000       1.00800           0
      4560 MEMB     35       POPC     H12B     HL       0.250000       1.00800           0
      4561 MEMB     35       POPC     C13      CTL5    -0.350000       12.0110           0
      4562 MEMB     35       POPC     H13A     HL       0.250000       1.00800           0
      4563 MEMB     35       POPC     H13B     HL       0.250000       1.00800           0
      4564 MEMB     35       POPC     H13C     HL       0.250000       1.00800           0
      4565 MEMB     35       POPC     C14      CTL5    -0.350000       12.0110           0
      4566 MEMB     35       POPC     H14A     HL       0.250000       1.00800           0
      4567 MEMB     35       POPC     H14B     HL       0.250000       1.00800           0
      4568 MEMB     35       POPC     H14C     HL       0.250000       1.00800           0
      4569 MEMB     35       POPC     C15      CTL5    -0.350000       12.0110           0
      4570 MEMB     35       POPC     H15A     HL       0.250000       1.00800           0
      4571 MEMB     35       POPC     H15B     HL       0.250000       1.00800           0
      4572 MEMB     35       POPC     H15C     HL       0.250000       1.00800           0
      4573 MEMB     35       POPC     C11      CTL2    -0.800000E-01   12.0110           0
      4574 MEMB     35       POPC     H11A     HAL2     0.900000E-01   1.00800           0
      4575 MEMB     35       POPC     H11B     HAL2     0.900000E-01   1.00800           0
      4576 MEMB     35       POPC     P        PL       1.50000        30.9740           0
      4577 MEMB     35       POPC     O13      O2L     -0.780000       15.9994           0
      4578 MEMB     35       POPC     O14      O2L     -0.780000       15.9994           0
      4579 MEMB     35       POPC     O12      OSLP    -0.570000       15.9994           0
      4580 MEMB     35       POPC     O11      OSLP    -0.570000       15.9994           0
      4581 MEMB     35       POPC     C1       CTL2    -0.800000E-01   12.0110           0
      4582 MEMB     35       POPC     HA       HAL2     0.900000E-01   1.00800           0
      4583 MEMB     35       POPC     HB       HAL2     0.900000E-01   1.00800           0
      4584 MEMB     35       POPC     C2       CTL1     0.170000       12.0110           0
      4585 MEMB     35       POPC     HS       HAL1     0.900000E-01   1.00800           0
      4586 MEMB     35       POPC     O21      OSL     -0.490000       15.9994           0
      4587 MEMB     35       POPC     C21      CL       0.900000       12.0110           0
      4588 MEMB     35       POPC     O22      OBL     -0.630000       15.9994           0
      4589 MEMB     35       POPC     C22      CTL2    -0.220000       12.0110           0
      4590 MEMB     35       POPC     H2R      HAL2     0.900000E-01   1.00800           0
      4591 MEMB     35       POPC     H2S      HAL2     0.900000E-01   1.00800           0
      4592 MEMB     35       POPC     C3       CTL2     0.800000E-01   12.0110           0
      4593 MEMB     35       POPC     HX       HAL2     0.900000E-01   1.00800           0
      4594 MEMB     35       POPC     HY       HAL2     0.900000E-01   1.00800           0
      4595 MEMB     35       POPC     O31      OSL     -0.490000       15.9994           0
      4596 MEMB     35       POPC     C31      CL       0.900000       12.0110           0
      4597 MEMB     35       POPC     O32      OBL     -0.630000       15.9994           0
      4598 MEMB     35       POPC     C32      CTL2    -0.220000       12.0110           0
      4599 MEMB     35       POPC     H2X      HAL2     0.900000E-01   1.00800           0
      4600 MEMB     35       POPC     H2Y      HAL2     0.900000E-01   1.00800           0
      4601 MEMB     35       POPC     C23      CTL2    -0.180000       12.0110           0
      4602 MEMB     35       POPC     H3R      HAL2     0.900000E-01   1.00800           0
      4603 MEMB     35       POPC     H3S      HAL2     0.900000E-01   1.00800           0
      4604 MEMB     35       POPC     C24      CTL2    -0.180000       12.0110           0
      4605 MEMB     35       POPC     H4R      HAL2     0.900000E-01   1.00800           0
      4606 MEMB     35       POPC     H4S      HAL2     0.900000E-01   1.00800           0
      4607 MEMB     35       POPC     C25      CTL2    -0.180000       12.0110           0
      4608 MEMB     35       POPC     H5R      HAL2     0.900000E-01   1.00800           0
      4609 MEMB     35       POPC     H5S      HAL2     0.900000E-01   1.00800           0
      4610 MEMB     35       POPC     C26      CTL2    -0.180000       12.0110           0
      4611 MEMB     35       POPC     H6R      HAL2     0.900000E-01   1.00800           0
      4612 MEMB     35       POPC     H6S      HAL2     0.900000E-01   1.00800           0
      4613 MEMB     35       POPC     C27      CTL2    -0.180000       12.0110           0
      4614 MEMB     35       POPC     H7R      HAL2     0.900000E-01   1.00800           0
      4615 MEMB     35       POPC     H7S      HAL2     0.900000E-01   1.00800           0
      4616 MEMB     35       POPC     C28      CTL2    -0.180000       12.0110           0
      4617 MEMB     35       POPC     H8R      HAL2     0.900000E-01   1.00800           0
      4618 MEMB     35       POPC     H8S      HAL2     0.900000E-01   1.00800           0
      4619 MEMB     35       POPC     C29      CEL1    -0.150000       12.0110           0
      4620 MEMB     35       POPC     H91      HEL1     0.150000       1.00800           0
      4621 MEMB     35       POPC     C210     CEL1    -0.150000       12.0110           0
      4622 MEMB     35       POPC     H101     HEL1     0.150000       1.00800           0
      4623 MEMB     35       POPC     C211     CTL2    -0.180000       12.0110           0
      4624 MEMB     35       POPC     H11R     HAL2     0.900000E-01   1.00800           0
      4625 MEMB     35       POPC     H11S     HAL2     0.900000E-01   1.00800           0
      4626 MEMB     35       POPC     C212     CTL2    -0.180000       12.0110           0
      4627 MEMB     35       POPC     H12R     HAL2     0.900000E-01   1.00800           0
      4628 MEMB     35       POPC     H12S     HAL2     0.900000E-01   1.00800           0
      4629 MEMB     35       POPC     C213     CTL2    -0.180000       12.0110           0
      4630 MEMB     35       POPC     H13R     HAL2     0.900000E-01   1.00800           0
      4631 MEMB     35       POPC     H13S     HAL2     0.900000E-01   1.00800           0
      4632 MEMB     35       POPC     C214     CTL2    -0.180000       12.0110           0
      4633 MEMB     35       POPC     H14R     HAL2     0.900000E-01   1.00800           0
      4634 MEMB     35       POPC     H14S     HAL2     0.900000E-01   1.00800           0
      4635 MEMB     35       POPC     C215     CTL2    -0.180000       12.0110           0
      4636 MEMB     35       POPC     H15R     HAL2     0.900000E-01   1.00800           0
      4637 MEMB     35       POPC     H15S     HAL2     0.900000E-01   1.00800           0
      4638 MEMB     35       POPC     C216     CTL2    -0.180000       12.0110           0
      4639 MEMB     35       POPC     H16R     HAL2     0.900000E-01   1.00800           0
      4640 MEMB     35       POPC     H16S     HAL2     0.900000E-01   1.00800           0
      4641 MEMB     35       POPC     C217     CTL2    -0.180000       12.0110           0
      4642 MEMB     35       POPC     H17R     HAL2     0.900000E-01   1.00800           0
      4643 MEMB     35       POPC     H17S     HAL2     0.900000E-01   1.00800           0
      4644 MEMB     35       POPC     C218     CTL3    -0.270000       12.0110           0
      4645 MEMB     35       POPC     H18R     HAL3     0.900000E-01   1.00800           0
      4646 MEMB     35       POPC     H18S     HAL3     0.900000E-01   1.00800           0
      4647 MEMB     35       POPC     H18T     HAL3     0.900000E-01   1.00800           0
      4648 MEMB     35       POPC     C33      CTL2    -0.180000       12.0110           0
      4649 MEMB     35       POPC     H3X      HAL2     0.900000E-01   1.00800           0
      4650 MEMB     35       POPC     H3Y      HAL2     0.900000E-01   1.00800           0
      4651 MEMB     35       POPC     C34      CTL2    -0.180000       12.0110           0
      4652 MEMB     35       POPC     H4X      HAL2     0.900000E-01   1.00800           0
      4653 MEMB     35       POPC     H4Y      HAL2     0.900000E-01   1.00800           0
      4654 MEMB     35       POPC     C35      CTL2    -0.180000       12.0110           0
      4655 MEMB     35       POPC     H5X      HAL2     0.900000E-01   1.00800           0
      4656 MEMB     35       POPC     H5Y      HAL2     0.900000E-01   1.00800           0
      4657 MEMB     35       POPC     C36      CTL2    -0.180000       12.0110           0
      4658 MEMB     35       POPC     H6X      HAL2     0.900000E-01   1.00800           0
      4659 MEMB     35       POPC     H6Y      HAL2     0.900000E-01   1.00800           0
      4660 MEMB     35       POPC     C37      CTL2    -0.180000       12.0110           0
      4661 MEMB     35       POPC     H7X      HAL2     0.900000E-01   1.00800           0
      4662 MEMB     35       POPC     H7Y      HAL2     0.900000E-01   1.00800           0
      4663 MEMB     35       POPC     C38      CTL2    -0.180000       12.0110           0
      4664 MEMB     35       POPC     H8X      HAL2     0.900000E-01   1.00800           0
      4665 MEMB     35       POPC     H8Y      HAL2     0.900000E-01   1.00800           0
      4666 MEMB     35       POPC     C39      CTL2    -0.180000       12.0110           0
      4667 MEMB     35       POPC     H9X      HAL2     0.900000E-01   1.00800           0
      4668 MEMB     35       POPC     H9Y      HAL2     0.900000E-01   1.00800           0
      4669 MEMB     35       POPC     C310     CTL2    -0.180000       12.0110           0
      4670 MEMB     35       POPC     H10X     HAL2     0.900000E-01   1.00800           0
      4671 MEMB     35       POPC     H10Y     HAL2     0.900000E-01   1.00800           0
      4672 MEMB     35       POPC     C311     CTL2    -0.180000       12.0110           0
      4673 MEMB     35       POPC     H11X     HAL2     0.900000E-01   1.00800           0
      4674 MEMB     35       POPC     H11Y     HAL2     0.900000E-01   1.00800           0
      4675 MEMB     35       POPC     C312     CTL2    -0.180000       12.0110           0
      4676 MEMB     35       POPC     H12X     HAL2     0.900000E-01   1.00800           0
      4677 MEMB     35       POPC     H12Y     HAL2     0.900000E-01   1.00800           0
      4678 MEMB     35       POPC     C313     CTL2    -0.180000       12.0110           0
      4679 MEMB     35       POPC     H13X     HAL2     0.900000E-01   1.00800           0
      4680 MEMB     35       POPC     H13Y     HAL2     0.900000E-01   1.00800           0
      4681 MEMB     35       POPC     C314     CTL2    -0.180000       12.0110           0
      4682 MEMB     35       POPC     H14X     HAL2     0.900000E-01   1.00800           0
      4683 MEMB     35       POPC     H14Y     HAL2     0.900000E-01   1.00800           0
      4684 MEMB     35       POPC     C315     CTL2    -0.180000       12.0110           0
      4685 MEMB     35       POPC     H15X     HAL2     0.900000E-01   1.00800           0
      4686 MEMB     35       POPC     H15Y     HAL2     0.900000E-01   1.00800           0
      4687 MEMB     35       POPC     C316     CTL3    -0.270000       12.0110           0
      4688 MEMB     35       POPC     H16X     HAL3     0.900000E-01   1.00800           0
      4689 MEMB     35       POPC     H16Y     HAL3     0.900000E-01   1.00800           0
      4690 MEMB     35       POPC     H16Z     HAL3     0.900000E-01   1.00800           0
      4691 MEMB     36       POPC     N        NTL     -0.600000       14.0070           0
      4692 MEMB     36       POPC     C12      CTL2    -0.100000       12.0110           0
      4693 MEMB     36       POPC     H12A     HL       0.250000       1.00800           0
      4694 MEMB     36       POPC     H12B     HL       0.250000       1.00800           0
      4695 MEMB     36       POPC     C13      CTL5    -0.350000       12.0110           0
      4696 MEMB     36       POPC     H13A     HL       0.250000       1.00800           0
      4697 MEMB     36       POPC     H13B     HL       0.250000       1.00800           0
      4698 MEMB     36       POPC     H13C     HL       0.250000       1.00800           0
      4699 MEMB     36       POPC     C14      CTL5    -0.350000       12.0110           0
      4700 MEMB     36       POPC     H14A     HL       0.250000       1.00800           0
      4701 MEMB     36       POPC     H14B     HL       0.250000       1.00800           0
      4702 MEMB     36       POPC     H14C     HL       0.250000       1.00800           0
      4703 MEMB     36       POPC     C15      CTL5    -0.350000       12.0110           0
      4704 MEMB     36       POPC     H15A     HL       0.250000       1.00800           0
      4705 MEMB     36       POPC     H15B     HL       0.250000       1.00800           0
      4706 MEMB     36       POPC     H15C     HL       0.250000       1.00800           0
      4707 MEMB     36       POPC     C11      CTL2    -0.800000E-01   12.0110           0
      4708 MEMB     36       POPC     H11A     HAL2     0.900000E-01   1.00800           0
      4709 MEMB     36       POPC     H11B     HAL2     0.900000E-01   1.00800           0
      4710 MEMB     36       POPC     P        PL       1.50000        30.9740           0
      4711 MEMB     36       POPC     O13      O2L     -0.780000       15.9994           0
      4712 MEMB     36       POPC     O14      O2L     -0.780000       15.9994           0
      4713 MEMB     36       POPC     O12      OSLP    -0.570000       15.9994           0
      4714 MEMB     36       POPC     O11      OSLP    -0.570000       15.9994           0
      4715 MEMB     36       POPC     C1       CTL2    -0.800000E-01   12.0110           0
      4716 MEMB     36       POPC     HA       HAL2     0.900000E-01   1.00800           0
      4717 MEMB     36       POPC     HB       HAL2     0.900000E-01   1.00800           0
      4718 MEMB     36       POPC     C2       CTL1     0.170000       12.0110           0
      4719 MEMB     36       POPC     HS       HAL1     0.900000E-01   1.00800           0
      4720 MEMB     36       POPC     O21      OSL     -0.490000       15.9994           0
      4721 MEMB     36       POPC     C21      CL       0.900000       12.0110           0
      4722 MEMB     36       POPC     O22      OBL     -0.630000       15.9994           0
      4723 MEMB     36       POPC     C22      CTL2    -0.220000       12.0110           0
      4724 MEMB     36       POPC     H2R      HAL2     0.900000E-01   1.00800           0
      4725 MEMB     36       POPC     H2S      HAL2     0.900000E-01   1.00800           0
      4726 MEMB     36       POPC     C3       CTL2     0.800000E-01   12.0110           0
      4727 MEMB     36       POPC     HX       HAL2     0.900000E-01   1.00800           0
      4728 MEMB     36       POPC     HY       HAL2     0.900000E-01   1.00800           0
      4729 MEMB     36       POPC     O31      OSL     -0.490000       15.9994           0
      4730 MEMB     36       POPC     C31      CL       0.900000       12.0110           0
      4731 MEMB     36       POPC     O32      OBL     -0.630000       15.9994           0
      4732 MEMB     36       POPC     C32      CTL2    -0.220000       12.0110           0
      4733 MEMB     36       POPC     H2X      HAL2     0.900000E-01   1.00800           0
      4734 MEMB     36       POPC     H2Y      HAL2     0.900000E-01   1.00800           0
      4735 MEMB     36       POPC     C23      CTL2    -0.180000       12.0110           0
      4736 MEMB     36       POPC     H3R      HAL2     0.900000E-01   1.00800           0
      4737 MEMB     36       POPC     H3S      HAL2     0.900000E-01   1.00800           0
      4738 MEMB     36       POPC     C24      CTL2    -0.180000       12.0110           0
      4739 MEMB     36       POPC     H4R      HAL2     0.900000E-01   1.00800           0
      4740 MEMB     36       POPC     H4S      HAL2     0.900000E-01   1.00800           0
      4741 MEMB     36       POPC     C25      CTL2    -0.180000       12.0110           0
      4742 MEMB     36       POPC     H5R      HAL2     0.900000E-01   1.00800           0
      4743 MEMB     36       POPC     H5S      HAL2     0.900000E-01   1.00800           0
      4744 MEMB     36       POPC     C26      CTL2    -0.180000       12.0110           0
      4745 MEMB     36       POPC     H6R      HAL2     0.900000E-01   1.00800           0
      4746 MEMB     36       POPC     H6S      HAL2     0.900000E-01   1.00800           0
      4747 MEMB     36       POPC     C27      CTL2    -0.180000       12.0110           0
      4748 MEMB     36       POPC     H7R      HAL2     0.900000E-01   1.00800           0
      4749 MEMB     36       POPC     H7S      HAL2     0.900000E-01   1.00800           0
      4750 MEMB     36       POPC     C28      CTL2    -0.180000       12.0110           0
      4751 MEMB     36       POPC     H8R      HAL2     0.900000E-01   1.00800           0
      4752 MEMB     36       POPC     H8S      HAL2     0.900000E-01   1.00800           0
      4753 MEMB     36       POPC     C29      CEL1    -0.150000       12.0110           0
      4754 MEMB     36       POPC     H91      HEL1     0.150000       1.00800           0
      4755 MEMB     36       POPC     C210     CEL1    -0.150000       12.0110           0
      4756 MEMB     36       POPC     H101     HEL1     0.150000       1.00800           0
      4757 MEMB     36       POPC     C211     CTL2    -0.180000       12.0110           0
      4758 MEMB     36       POPC     H11R     HAL2     0.900000E-01   1.00800           0
      4759 MEMB     36       POPC     H11S     HAL2     0.900000E-01   1.00800           0
      4760 MEMB     36       POPC     C212     CTL2    -0.180000       12.0110           0
      4761 MEMB     36       POPC     H12R     HAL2     0.900000E-01   1.00800           0
      4762 MEMB     36       POPC     H12S     HAL2     0.900000E-01   1.00800           0
      4763 MEMB     36       POPC     C213     CTL2    -0.180000       12.0110           0
      4764 MEMB     36       POPC     H13R     HAL2     0.900000E-01   1.00800           0
      4765 MEMB     36       POPC     H13S     HAL2     0.900000E-01   1.00800           0
      4766 MEMB     36       POPC     C214     CTL2    -0.180000       12.0110           0
      4767 MEMB     36       POPC     H14R     HAL2     0.900000E-01   1.00800           0
      4768 MEMB     36       POPC     H14S     HAL2     0.900000E-01   1.00800           0
      4769 MEMB     36       POPC     C215     CTL2    -0.180000       12.0110           0
      4770 MEMB     36       POPC     H15R     HAL2     0.900000E-01   1.00800           0
      4771 MEMB     36       POPC     H15S     HAL2     0.900000E-01   1.00800           0
      4772 MEMB     36       POPC     C216     CTL2    -0.180000       12.0110           0
      4773 MEMB     36       POPC     H16R     HAL2     0.900000E-01   1.00800           0
      4774 MEMB     36       POPC     H16S     HAL2     0.900000E-01   1.00800           0
      4775 MEMB     36       POPC     C217     CTL2    -0.180000       12.0110           0
      4776 MEMB     36       POPC     H17R     HAL2     0.900000E-01   1.00800           0
      4777 MEMB     36       POPC     H17S     HAL2     0.900000E-01   1.00800           0
      4778 MEMB     36       POPC     C218     CTL3    -0.270000       12.0110           0
      4779 MEMB     36       POPC     H18R     HAL3     0.900000E-01   1.00800           0
      4780 MEMB     36       POPC     H18S     HAL3     0.900000E-01   1.00800           0
      4781 MEMB     36       POPC     H18T     HAL3     0.900000E-01   1.00800           0
      4782 MEMB     36       POPC     C33      CTL2    -0.180000       12.0110           0
      4783 MEMB     36       POPC     H3X      HAL2     0.900000E-01   1.00800           0
      4784 MEMB     36       POPC     H3Y      HAL2     0.900000E-01   1.00800           0
      4785 MEMB     36       POPC     C34      CTL2    -0.180000       12.0110           0
      4786 MEMB     36       POPC     H4X      HAL2     0.900000E-01   1.00800           0
      4787 MEMB     36       POPC     H4Y      HAL2     0.900000E-01   1.00800           0
      4788 MEMB     36       POPC     C35      CTL2    -0.180000       12.0110           0
      4789 MEMB     36       POPC     H5X      HAL2     0.900000E-01   1.00800           0
      4790 MEMB     36       POPC     H5Y      HAL2     0.900000E-01   1.00800           0
      4791 MEMB     36       POPC     C36      CTL2    -0.180000       12.0110           0
      4792 MEMB     36       POPC     H6X      HAL2     0.900000E-01   1.00800           0
      4793 MEMB     36       POPC     H6Y      HAL2     0.900000E-01   1.00800           0
      4794 MEMB     36       POPC     C37      CTL2    -0.180000       12.0110           0
      4795 MEMB     36       POPC     H7X      HAL2     0.900000E-01   1.00800           0
      4796 MEMB     36       POPC     H7Y      HAL2     0.900000E-01   1.00800           0
      4797 MEMB     36       POPC     C38      CTL2    -0.180000       12.0110           0
      4798 MEMB     36       POPC     H8X      HAL2     0.900000E-01   1.00800           0
      4799 MEMB     36       POPC     H8Y      HAL2     0.900000E-01   1.00800           0
      4800 MEMB     36       POPC     C39      CTL2    -0.180000       12.0110           0
      4801 MEMB     36       POPC     H9X      HAL2     0.900000E-01   1.00800           0
      4802 MEMB     36       POPC     H9Y      HAL2     0.900000E-01   1.00800           0
      4803 MEMB     36       POPC     C310     CTL2    -0.180000       12.0110           0
      4804 MEMB     36       POPC     H10X     HAL2     0.900000E-01   1.00800           0
      4805 MEMB     36       POPC     H10Y     HAL2     0.900000E-01   1.00800           0
      4806 MEMB     36       POPC     C311     CTL2    -0.180000       12.0110           0
      4807 MEMB     36       POPC     H11X     HAL2     0.900000E-01   1.00800           0
      4808 MEMB     36       POPC     H11Y     HAL2     0.900000E-01   1.00800           0
      4809 MEMB     36       POPC     C312     CTL2    -0.180000       12.0110           0
      4810 MEMB     36       POPC     H12X     HAL2     0.900000E-01   1.00800           0
      4811 MEMB     36       POPC     H12Y     HAL2     0.900000E-01   1.00800           0
      4812 MEMB     36       POPC     C313     CTL2    -0.180000       12.0110           0
      4813 MEMB     36       POPC     H13X     HAL2     0.900000E-01   1.00800           0
      4814 MEMB     36       POPC     H13Y     HAL2     0.900000E-01   1.00800           0
      4815 MEMB     36       POPC     C314     CTL2    -0.180000       12.0110           0
      4816 MEMB     36       POPC     H14X     HAL2     0.900000E-01   1.00800           0
      4817 MEMB     36       POPC     H14Y     HAL2     0.900000E-01   1.00800           0
      4818 MEMB     36       POPC     C315     CTL2    -0.180000       12.0110           0
      4819 MEMB     36       POPC     H15X     HAL2     0.900000E-01   1.00800           0
      4820 MEMB     36       POPC     H15Y     HAL2     0.900000E-01   1.00800           0
      4821 MEMB     36       POPC     C316     CTL3    -0.270000       12.0110           0
      4822 MEMB     36       POPC     H16X     HAL3     0.900000E-01   1.00800           0
      4823 MEMB     36       POPC     H16Y     HAL3     0.900000E-01   1.00800           0
      4824 MEMB     36       POPC     H16Z     HAL3     0.900000E-01   1.00800           0
      4825 MEMB     37       POPC     N        NTL     -0.600000       14.0070           0
      4826 MEMB     37       POPC     C12      CTL2    -0.100000       12.0110           0
      4827 MEMB     37       POPC     H12A     HL       0.250000       1.00800           0
      4828 MEMB     37       POPC     H12B     HL       0.250000       1.00800           0
      4829 MEMB     37       POPC     C13      CTL5    -0.350000       12.0110           0
      4830 MEMB     37       POPC     H13A     HL       0.250000       1.00800           0
      4831 MEMB     37       POPC     H13B     HL       0.250000       1.00800           0
      4832 MEMB     37       POPC     H13C     HL       0.250000       1.00800           0
      4833 MEMB     37       POPC     C14      CTL5    -0.350000       12.0110           0
      4834 MEMB     37       POPC     H14A     HL       0.250000       1.00800           0
      4835 MEMB     37       POPC     H14B     HL       0.250000       1.00800           0
      4836 MEMB     37       POPC     H14C     HL       0.250000       1.00800           0
      4837 MEMB     37       POPC     C15      CTL5    -0.350000       12.0110           0
      4838 MEMB     37       POPC     H15A     HL       0.250000       1.00800           0
      4839 MEMB     37       POPC     H15B     HL       0.250000       1.00800           0
      4840 MEMB     37       POPC     H15C     HL       0.250000       1.00800           0
      4841 MEMB     37       POPC     C11      CTL2    -0.800000E-01   12.0110           0
      4842 MEMB     37       POPC     H11A     HAL2     0.900000E-01   1.00800           0
      4843 MEMB     37       POPC     H11B     HAL2     0.900000E-01   1.00800           0
      4844 MEMB     37       POPC     P        PL       1.50000        30.9740           0
      4845 MEMB     37       POPC     O13      O2L     -0.780000       15.9994           0
      4846 MEMB     37       POPC     O14      O2L     -0.780000       15.9994           0
      4847 MEMB     37       POPC     O12      OSLP    -0.570000       15.9994           0
      4848 MEMB     37       POPC     O11      OSLP    -0.570000       15.9994           0
      4849 MEMB     37       POPC     C1       CTL2    -0.800000E-01   12.0110           0
      4850 MEMB     37       POPC     HA       HAL2     0.900000E-01   1.00800           0
      4851 MEMB     37       POPC     HB       HAL2     0.900000E-01   1.00800           0
      4852 MEMB     37       POPC     C2       CTL1     0.170000       12.0110           0
      4853 MEMB     37       POPC     HS       HAL1     0.900000E-01   1.00800           0
      4854 MEMB     37       POPC     O21      OSL     -0.490000       15.9994           0
      4855 MEMB     37       POPC     C21      CL       0.900000       12.0110           0
      4856 MEMB     37       POPC     O22      OBL     -0.630000       15.9994           0
      4857 MEMB     37       POPC     C22      CTL2    -0.220000       12.0110           0
      4858 MEMB     37       POPC     H2R      HAL2     0.900000E-01   1.00800           0
      4859 MEMB     37       POPC     H2S      HAL2     0.900000E-01   1.00800           0
      4860 MEMB     37       POPC     C3       CTL2     0.800000E-01   12.0110           0
      4861 MEMB     37       POPC     HX       HAL2     0.900000E-01   1.00800           0
      4862 MEMB     37       POPC     HY       HAL2     0.900000E-01   1.00800           0
      4863 MEMB     37       POPC     O31      OSL     -0.490000       15.9994           0
      4864 MEMB     37       POPC     C31      CL       0.900000       12.0110           0
      4865 MEMB     37       POPC     O32      OBL     -0.630000       15.9994           0
      4866 MEMB     37       POPC     C32      CTL2    -0.220000       12.0110           0
      4867 MEMB     37       POPC     H2X      HAL2     0.900000E-01   1.00800           0
      4868 MEMB     37       POPC     H2Y      HAL2     0.900000E-01   1.00800           0
      4869 MEMB     37       POPC     C23      CTL2    -0.180000       12.0110           0
      4870 MEMB     37       POPC     H3R      HAL2     0.900000E-01   1.00800           0
      4871 MEMB     37       POPC     H3S      HAL2     0.900000E-01   1.00800           0
      4872 MEMB     37       POPC     C24      CTL2    -0.180000       12.0110           0
      4873 MEMB     37       POPC     H4R      HAL2     0.900000E-01   1.00800           0
      4874 MEMB     37       POPC     H4S      HAL2     0.900000E-01   1.00800           0
      4875 MEMB     37       POPC     C25      CTL2    -0.180000       12.0110           0
      4876 MEMB     37       POPC     H5R      HAL2     0.900000E-01   1.00800           0
      4877 MEMB     37       POPC     H5S      HAL2     0.900000E-01   1.00800           0
      4878 MEMB     37       POPC     C26      CTL2    -0.180000       12.0110           0
      4879 MEMB     37       POPC     H6R      HAL2     0.900000E-01   1.00800           0
      4880 MEMB     37       POPC     H6S      HAL2     0.900000E-01   1.00800           0
      4881 MEMB     37       POPC     C27      CTL2    -0.180000       12.0110           0
      4882 MEMB     37       POPC     H7R      HAL2     0.900000E-01   1.00800           0
      4883 MEMB     37       POPC     H7S      HAL2     0.900000E-01   1.00800           0
      4884 MEMB     37       POPC     C28      CTL2    -0.180000       12.0110           0
      4885 MEMB     37       POPC     H8R      HAL2     0.900000E-01   1.00800           0
      4886 MEMB     37       POPC     H8S      HAL2     0.900000E-01   1.00800           0
      4887 MEMB     37       POPC     C29      CEL1    -0.150000       12.0110           0
      4888 MEMB     37       POPC     H91      HEL1     0.150000       1.00800           0
      4889 MEMB     37       POPC     C210     CEL1    -0.150000       12.0110           0
      4890 MEMB     37       POPC     H101     HEL1     0.150000       1.00800           0
      4891 MEMB     37       POPC     C211     CTL2    -0.180000       12.0110           0
      4892 MEMB     37       POPC     H11R     HAL2     0.900000E-01   1.00800           0
      4893 MEMB     37       POPC     H11S     HAL2     0.900000E-01   1.00800           0
      4894 MEMB     37       POPC     C212     CTL2    -0.180000       12.0110           0
      4895 MEMB     37       POPC     H12R     HAL2     0.900000E-01   1.00800           0
      4896 MEMB     37       POPC     H12S     HAL2     0.900000E-01   1.00800           0
      4897 MEMB     37       POPC     C213     CTL2    -0.180000       12.0110           0
      4898 MEMB     37       POPC     H13R     HAL2     0.900000E-01   1.00800           0
      4899 MEMB     37       POPC     H13S     HAL2     0.900000E-01   1.00800           0
      4900 MEMB     37       POPC     C214     CTL2    -0.180000       12.0110           0
      4901 MEMB     37       POPC     H14R     HAL2     0.900000E-01   1.00800           0
      4902 MEMB     37       POPC     H14S     HAL2     0.900000E-01   1.00800           0
      4903 MEMB     37       POPC     C215     CTL2    -0.180000       12.0110           0
      4904 MEMB     37       POPC     H15R     HAL2     0.900000E-01   1.00800           0
      4905 MEMB     37       POPC     H15S     HAL2     0.900000E-01   1.00800           0
      4906 MEMB     37       POPC     C216     CTL2    -0.180000       12.0110           0
      4907 MEMB     37       POPC     H16R     HAL2     0.900000E-01   1.00800           0
      4908 MEMB     37       POPC     H16S     HAL2     0.900000E-01   1.00800           0
      4909 MEMB     37       POPC     C217     CTL2    -0.180000       12.0110           0
      4910 MEMB     37       POPC     H17R     HAL2     0.900000E-01   1.00800           0
      4911 MEMB     37       POPC     H17S     HAL2     0.900000E-01   1.00800           0
      4912 MEMB     37       POPC     C218     CTL3    -0.270000       12.0110           0
      4913 MEMB     37       POPC     H18R     HAL3     0.900000E-01   1.00800           0
      4914 MEMB     37       POPC     H18S     HAL3     0.900000E-01   1.00800           0
      4915 MEMB     37       POPC     H18T     HAL3     0.900000E-01   1.00800           0
      4916 MEMB     37       POPC     C33      CTL2    -0.180000       12.0110           0
      4917 MEMB     37       POPC     H3X      HAL2     0.900000E-01   1.00800           0
      4918 MEMB     37       POPC     H3Y      HAL2     0.900000E-01   1.00800           0
      4919 MEMB     37       POPC     C34      CTL2    -0.180000       12.0110           0
      4920 MEMB     37       POPC     H4X      HAL2     0.900000E-01   1.00800           0
      4921 MEMB     37       POPC     H4Y      HAL2     0.900000E-01   1.00800           0
      4922 MEMB     37       POPC     C35      CTL2    -0.180000       12.0110           0
      4923 MEMB     37       POPC     H5X      HAL2     0.900000E-01   1.00800           0
      4924 MEMB     37       POPC     H5Y      HAL2     0.900000E-01   1.00800           0
      4925 MEMB     37       POPC     C36      CTL2    -0.180000       12.0110           0
      4926 MEMB     37       POPC     H6X      HAL2     0.900000E-01   1.00800           0
      4927 MEMB     37       POPC     H6Y      HAL2     0.900000E-01   1.00800           0
      4928 MEMB     37       POPC     C37      CTL2    -0.180000       12.0110           0
      4929 MEMB     37       POPC     H7X      HAL2     0.900000E-01   1.00800           0
      4930 MEMB     37       POPC     H7Y      HAL2     0.900000E-01   1.00800           0
      4931 MEMB     37       POPC     C38      CTL2    -0.180000       12.0110           0
      4932 MEMB     37       POPC     H8X      HAL2     0.900000E-01   1.00800           0
      4933 MEMB     37       POPC     H8Y      HAL2     0.900000E-01   1.00800           0
      4934 MEMB     37       POPC     C39      CTL2    -0.180000       12.0110           0
      4935 MEMB     37       POPC     H9X      HAL2     0.900000E-01   1.00800           0
      4936 MEMB     37       POPC     H9Y      HAL2     0.900000E-01   1.00800           0
      4937 MEMB     37       POPC     C310     CTL2    -0.180000       12.0110           0
      4938 MEMB     37       POPC     H10X     HAL2     0.900000E-01   1.00800           0
      4939 MEMB     37       POPC     H10Y     HAL2     0.900000E-01   1.00800           0
      4940 MEMB     37       POPC     C311     CTL2    -0.180000       12.0110           0
      4941 MEMB     37       POPC     H11X     HAL2     0.900000E-01   1.00800           0
      4942 MEMB     37       POPC     H11Y     HAL2     0.900000E-01   1.00800           0
      4943 MEMB     37       POPC     C312     CTL2    -0.180000       12.0110           0
      4944 MEMB     37       POPC     H12X     HAL2     0.900000E-01   1.00800           0
      4945 MEMB     37       POPC     H12Y     HAL2     0.900000E-01   1.00800           0
      4946 MEMB     37       POPC     C313     CTL2    -0.180000       12.0110           0
      4947 MEMB     37       POPC     H13X     HAL2     0.900000E-01   1.00800           0
      4948 MEMB     37       POPC     H13Y     HAL2     0.900000E-01   1.00800           0
      4949 MEMB     37       POPC     C314     CTL2    -0.180000       12.0110           0
      4950 MEMB     37       POPC     H14X     HAL2     0.900000E-01   1.00800           0
      4951 MEMB     37       POPC     H14Y     HAL2     0.900000E-01   1.00800           0
      4952 MEMB     37       POPC     C315     CTL2    -0.180000       12.0110           0
      4953 MEMB     37       POPC     H15X     HAL2     0.900000E-01   1.00800           0
      4954 MEMB     37       POPC     H15Y     HAL2     0.900000E-01   1.00800           0
      4955 MEMB     37       POPC     C316     CTL3    -0.270000       12.0110           0
      4956 MEMB     37       POPC     H16X     HAL3     0.900000E-01   1.00800           0
      4957 MEMB     37       POPC     H16Y     HAL3     0.900000E-01   1.00800           0
      4958 MEMB     37       POPC     H16Z     HAL3     0.900000E-01   1.00800           0
      4959 MEMB     38       POPC     N        NTL     -0.600000       14.0070           0
      4960 MEMB     38       POPC     C12      CTL2    -0.100000       12.0110           0
      4961 MEMB     38       POPC     H12A     HL       0.250000       1.00800           0
      4962 MEMB     38       POPC     H12B     HL       0.250000       1.00800           0
      4963 MEMB     38       POPC     C13      CTL5    -0.350000       12.0110           0
      4964 MEMB     38       POPC     H13A     HL       0.250000       1.00800           0
      4965 MEMB     38       POPC     H13B     HL       0.250000       1.00800           0
      4966 MEMB     38       POPC     H13C     HL       0.250000       1.00800           0
      4967 MEMB     38       POPC     C14      CTL5    -0.350000       12.0110           0
      4968 MEMB     38       POPC     H14A     HL       0.250000       1.00800           0
      4969 MEMB     38       POPC     H14B     HL       0.250000       1.00800           0
      4970 MEMB     38       POPC     H14C     HL       0.250000       1.00800           0
      4971 MEMB     38       POPC     C15      CTL5    -0.350000       12.0110           0
      4972 MEMB     38       POPC     H15A     HL       0.250000       1.00800           0
      4973 MEMB     38       POPC     H15B     HL       0.250000       1.00800           0
      4974 MEMB     38       POPC     H15C     HL       0.250000       1.00800           0
      4975 MEMB     38       POPC     C11      CTL2    -0.800000E-01   12.0110           0
      4976 MEMB     38       POPC     H11A     HAL2     0.900000E-01   1.00800           0
      4977 MEMB     38       POPC     H11B     HAL2     0.900000E-01   1.00800           0
      4978 MEMB     38       POPC     P        PL       1.50000        30.9740           0
      4979 MEMB     38       POPC     O13      O2L     -0.780000       15.9994           0
      4980 MEMB     38       POPC     O14      O2L     -0.780000       15.9994           0
      4981 MEMB     38       POPC     O12      OSLP    -0.570000       15.9994           0
      4982 MEMB     38       POPC     O11      OSLP    -0.570000       15.9994           0
      4983 MEMB     38       POPC     C1       CTL2    -0.800000E-01   12.0110           0
      4984 MEMB     38       POPC     HA       HAL2     0.900000E-01   1.00800           0
      4985 MEMB     38       POPC     HB       HAL2     0.900000E-01   1.00800           0
      4986 MEMB     38       POPC     C2       CTL1     0.170000       12.0110           0
      4987 MEMB     38       POPC     HS       HAL1     0.900000E-01   1.00800           0
      4988 MEMB     38       POPC     O21      OSL     -0.490000       15.9994           0
      4989 MEMB     38       POPC     C21      CL       0.900000       12.0110           0
      4990 MEMB     38       POPC     O22      OBL     -0.630000       15.9994           0
      4991 MEMB     38       POPC     C22      CTL2    -0.220000       12.0110           0
      4992 MEMB     38       POPC     H2R      HAL2     0.900000E-01   1.00800           0
      4993 MEMB     38       POPC     H2S      HAL2     0.900000E-01   1.00800           0
      4994 MEMB     38       POPC     C3       CTL2     0.800000E-01   12.0110           0
      4995 MEMB     38       POPC     HX       HAL2     0.900000E-01   1.00800           0
      4996 MEMB     38       POPC     HY       HAL2     0.900000E-01   1.00800           0
      4997 MEMB     38       POPC     O31      OSL     -0.490000       15.9994           0
      4998 MEMB     38       POPC     C31      CL       0.900000       12.0110           0
      4999 MEMB     38       POPC     O32      OBL     -0.630000       15.9994           0
      5000 MEMB     38       POPC     C32      CTL2    -0.220000       12.0110           0
      5001 MEMB     38       POPC     H2X      HAL2     0.900000E-01   1.00800           0
      5002 MEMB     38       POPC     H2Y      HAL2     0.900000E-01   1.00800           0
      5003 MEMB     38       POPC     C23      CTL2    -0.180000       12.0110           0
      5004 MEMB     38       POPC     H3R      HAL2     0.900000E-01   1.00800           0
      5005 MEMB     38       POPC     H3S      HAL2     0.900000E-01   1.00800           0
      5006 MEMB     38       POPC     C24      CTL2    -0.180000       12.0110           0
      5007 MEMB     38       POPC     H4R      HAL2     0.900000E-01   1.00800           0
      5008 MEMB     38       POPC     H4S      HAL2     0.900000E-01   1.00800           0
      5009 MEMB     38       POPC     C25      CTL2    -0.180000       12.0110           0
      5010 MEMB     38       POPC     H5R      HAL2     0.900000E-01   1.00800           0
      5011 MEMB     38       POPC     H5S      HAL2     0.900000E-01   1.00800           0
      5012 MEMB     38       POPC     C26      CTL2    -0.180000       12.0110           0
      5013 MEMB     38       POPC     H6R      HAL2     0.900000E-01   1.00800           0
      5014 MEMB     38       POPC     H6S      HAL2     0.900000E-01   1.00800           0
      5015 MEMB     38       POPC     C27      CTL2    -0.180000       12.0110           0
      5016 MEMB     38       POPC     H7R      HAL2     0.900000E-01   1.00800           0
      5017 MEMB     38       POPC     H7S      HAL2     0.900000E-01   1.00800           0
      5018 MEMB     38       POPC     C28      CTL2    -0.180000       12.0110           0
      5019 MEMB     38       POPC     H8R      HAL2     0.900000E-01   1.00800           0
      5020 MEMB     38       POPC     H8S      HAL2     0.900000E-01   1.00800           0
      5021 MEMB     38       POPC     C29      CEL1    -0.150000       12.0110           0
      5022 MEMB     38       POPC     H91      HEL1     0.150000       1.00800           0
      5023 MEMB     38       POPC     C210     CEL1    -0.150000       12.0110           0
      5024 MEMB     38       POPC     H101     HEL1     0.150000       1.00800           0
      5025 MEMB     38       POPC     C211     CTL2    -0.180000       12.0110           0
      5026 MEMB     38       POPC     H11R     HAL2     0.900000E-01   1.00800           0
      5027 MEMB     38       POPC     H11S     HAL2     0.900000E-01   1.00800           0
      5028 MEMB     38       POPC     C212     CTL2    -0.180000       12.0110           0
      5029 MEMB     38       POPC     H12R     HAL2     0.900000E-01   1.00800           0
      5030 MEMB     38       POPC     H12S     HAL2     0.900000E-01   1.00800           0
      5031 MEMB     38       POPC     C213     CTL2    -0.180000       12.0110           0
      5032 MEMB     38       POPC     H13R     HAL2     0.900000E-01   1.00800           0
      5033 MEMB     38       POPC     H13S     HAL2     0.900000E-01   1.00800           0
      5034 MEMB     38       POPC     C214     CTL2    -0.180000       12.0110           0
      5035 MEMB     38       POPC     H14R     HAL2     0.900000E-01   1.00800           0
      5036 MEMB     38       POPC     H14S     HAL2     0.900000E-01   1.00800           0
      5037 MEMB     38       POPC     C215     CTL2    -0.180000       12.0110           0
      5038 MEMB     38       POPC     H15R     HAL2     0.900000E-01   1.00800           0
      5039 MEMB     38       POPC     H15S     HAL2     0.900000E-01   1.00800           0
      5040 MEMB     38       POPC     C216     CTL2    -0.180000       12.0110           0
      5041 MEMB     38       POPC     H16R     HAL2     0.900000E-01   1.00800           0
      5042 MEMB     38       POPC     H16S     HAL2     0.900000E-01   1.00800           0
      5043 MEMB     38       POPC     C217     CTL2    -0.180000       12.0110           0
      5044 MEMB     38       POPC     H17R     HAL2     0.900000E-01   1.00800           0
      5045 MEMB     38       POPC     H17S     HAL2     0.900000E-01   1.00800           0
      5046 MEMB     38       POPC     C218     CTL3    -0.270000       12.0110           0
      5047 MEMB     38       POPC     H18R     HAL3     0.900000E-01   1.00800           0
      5048 MEMB     38       POPC     H18S     HAL3     0.900000E-01   1.00800           0
      5049 MEMB     38       POPC     H18T     HAL3     0.900000E-01   1.00800           0
      5050 MEMB     38       POPC     C33      CTL2    -0.180000       12.0110           0
      5051 MEMB     38       POPC     H3X      HAL2     0.900000E-01   1.00800           0
      5052 MEMB     38       POPC     H3Y      HAL2     0.900000E-01   1.00800           0
      5053 MEMB     38       POPC     C34      CTL2    -0.180000       12.0110           0
      5054 MEMB     38       POPC     H4X      HAL2     0.900000E-01   1.00800           0
      5055 MEMB     38       POPC     H4Y      HAL2     0.900000E-01   1.00800           0
      5056 MEMB     38       POPC     C35      CTL2    -0.180000       12.0110           0
      5057 MEMB     38       POPC     H5X      HAL2     0.900000E-01   1.00800           0
      5058 MEMB     38       POPC     H5Y      HAL2     0.900000E-01   1.00800           0
      5059 MEMB     38       POPC     C36      CTL2    -0.180000       12.0110           0
      5060 MEMB     38       POPC     H6X      HAL2     0.900000E-01   1.00800           0
      5061 MEMB     38       POPC     H6Y      HAL2     0.900000E-01   1.00800           0
      5062 MEMB     38       POPC     C37      CTL2    -0.180000       12.0110           0
      5063 MEMB     38       POPC     H7X      HAL2     0.900000E-01   1.00800           0
      5064 MEMB     38       POPC     H7Y      HAL2     0.900000E-01   1.00800           0
      5065 MEMB     38       POPC     C38      CTL2    -0.180000       12.0110           0
      5066 MEMB     38       POPC     H8X      HAL2     0.900000E-01   1.00800           0
      5067 MEMB     38       POPC     H8Y      HAL2     0.900000E-01   1.00800           0
      5068 MEMB     38       POPC     C39      CTL2    -0.180000       12.0110           0
      5069 MEMB     38       POPC     H9X      HAL2     0.900000E-01   1.00800           0
      5070 MEMB     38       POPC     H9Y      HAL2     0.900000E-01   1.00800           0
      5071 MEMB     38       POPC     C310     CTL2    -0.180000       12.0110           0
      5072 MEMB     38       POPC     H10X     HAL2     0.900000E-01   1.00800           0
      5073 MEMB     38       POPC     H10Y     HAL2     0.900000E-01   1.00800           0
      5074 MEMB     38       POPC     C311     CTL2    -0.180000       12.0110           0
      5075 MEMB     38       POPC     H11X     HAL2     0.900000E-01   1.00800           0
      5076 MEMB     38       POPC     H11Y     HAL2     0.900000E-01   1.00800           0
      5077 MEMB     38       POPC     C312     CTL2    -0.180000       12.0110           0
      5078 MEMB     38       POPC     H12X     HAL2     0.900000E-01   1.00800           0
      5079 MEMB     38       POPC     H12Y     HAL2     0.900000E-01   1.00800           0
      5080 MEMB     38       POPC     C313     CTL2    -0.180000       12.0110           0
      5081 MEMB     38       POPC     H13X     HAL2     0.900000E-01   1.00800           0
      5082 MEMB     38       POPC     H13Y     HAL2     0.900000E-01   1.00800           0
      5083 MEMB     38       POPC     C314     CTL2    -0.180000       12.0110           0
      5084 MEMB     38       POPC     H14X     HAL2     0.900000E-01   1.00800           0
      5085 MEMB     38       POPC     H14Y     HAL2     0.900000E-01   1.00800           0
      5086 MEMB     38       POPC     C315     CTL2    -0.180000       12.0110           0
      5087 MEMB     38       POPC     H15X     HAL2     0.900000E-01   1.00800           0
      5088 MEMB     38       POPC     H15Y     HAL2     0.900000E-01   1.00800           0
      5089 MEMB     38       POPC     C316     CTL3    -0.270000       12.0110           0
      5090 MEMB     38       POPC     H16X     HAL3     0.900000E-01   1.00800           0
      5091 MEMB     38       POPC     H16Y     HAL3     0.900000E-01   1.00800           0
      5092 MEMB     38       POPC     H16Z     HAL3     0.900000E-01   1.00800           0
      5093 MEMB     39       POPC     N        NTL     -0.600000       14.0070           0
      5094 MEMB     39       POPC     C12      CTL2    -0.100000       12.0110           0
      5095 MEMB     39       POPC     H12A     HL       0.250000       1.00800           0
      5096 MEMB     39       POPC     H12B     HL       0.250000       1.00800           0
      5097 MEMB     39       POPC     C13      CTL5    -0.350000       12.0110           0
      5098 MEMB     39       POPC     H13A     HL       0.250000       1.00800           0
      5099 MEMB     39       POPC     H13B     HL       0.250000       1.00800           0
      5100 MEMB     39       POPC     H13C     HL       0.250000       1.00800           0
      5101 MEMB     39       POPC     C14      CTL5    -0.350000       12.0110           0
      5102 MEMB     39       POPC     H14A     HL       0.250000       1.00800           0
      5103 MEMB     39       POPC     H14B     HL       0.250000       1.00800           0
      5104 MEMB     39       POPC     H14C     HL       0.250000       1.00800           0
      5105 MEMB     39       POPC     C15      CTL5    -0.350000       12.0110           0
      5106 MEMB     39       POPC     H15A     HL       0.250000       1.00800           0
      5107 MEMB     39       POPC     H15B     HL       0.250000       1.00800           0
      5108 MEMB     39       POPC     H15C     HL       0.250000       1.00800           0
      5109 MEMB     39       POPC     C11      CTL2    -0.800000E-01   12.0110           0
      5110 MEMB     39       POPC     H11A     HAL2     0.900000E-01   1.00800           0
      5111 MEMB     39       POPC     H11B     HAL2     0.900000E-01   1.00800           0
      5112 MEMB     39       POPC     P        PL       1.50000        30.9740           0
      5113 MEMB     39       POPC     O13      O2L     -0.780000       15.9994           0
      5114 MEMB     39       POPC     O14      O2L     -0.780000       15.9994           0
      5115 MEMB     39       POPC     O12      OSLP    -0.570000       15.9994           0
      5116 MEMB     39       POPC     O11      OSLP    -0.570000       15.9994           0
      5117 MEMB     39       POPC     C1       CTL2    -0.800000E-01   12.0110           0
      5118 MEMB     39       POPC     HA       HAL2     0.900000E-01   1.00800           0
      5119 MEMB     39       POPC     HB       HAL2     0.900000E-01   1.00800           0
      5120 MEMB     39       POPC     C2       CTL1     0.170000       12.0110           0
      5121 MEMB     39       POPC     HS       HAL1     0.900000E-01   1.00800           0
      5122 MEMB     39       POPC     O21      OSL     -0.490000       15.9994           0
      5123 MEMB     39       POPC     C21      CL       0.900000       12.0110           0
      5124 MEMB     39       POPC     O22      OBL     -0.630000       15.9994           0
      5125 MEMB     39       POPC     C22      CTL2    -0.220000       12.0110           0
      5126 MEMB     39       POPC     H2R      HAL2     0.900000E-01   1.00800           0
      5127 MEMB     39       POPC     H2S      HAL2     0.900000E-01   1.00800           0
      5128 MEMB     39       POPC     C3       CTL2     0.800000E-01   12.0110           0
      5129 MEMB     39       POPC     HX       HAL2     0.900000E-01   1.00800           0
      5130 MEMB     39       POPC     HY       HAL2     0.900000E-01   1.00800           0
      5131 MEMB     39       POPC     O31      OSL     -0.490000       15.9994           0
      5132 MEMB     39       POPC     C31      CL       0.900000       12.0110           0
      5133 MEMB     39       POPC     O32      OBL     -0.630000       15.9994           0
      5134 MEMB     39       POPC     C32      CTL2    -0.220000       12.0110           0
      5135 MEMB     39       POPC     H2X      HAL2     0.900000E-01   1.00800           0
      5136 MEMB     39       POPC     H2Y      HAL2     0.900000E-01   1.00800           0
      5137 MEMB     39       POPC     C23      CTL2    -0.180000       12.0110           0
      5138 MEMB     39       POPC     H3R      HAL2     0.900000E-01   1.00800           0
      5139 MEMB     39       POPC     H3S      HAL2     0.900000E-01   1.00800           0
      5140 MEMB     39       POPC     C24      CTL2    -0.180000       12.0110           0
      5141 MEMB     39       POPC     H4R      HAL2     0.900000E-01   1.00800           0
      5142 MEMB     39       POPC     H4S      HAL2     0.900000E-01   1.00800           0
      5143 MEMB     39       POPC     C25      CTL2    -0.180000       12.0110           0
      5144 MEMB     39       POPC     H5R      HAL2     0.900000E-01   1.00800           0
      5145 MEMB     39       POPC     H5S      HAL2     0.900000E-01   1.00800           0
      5146 MEMB     39       POPC     C26      CTL2    -0.180000       12.0110           0
      5147 MEMB     39       POPC     H6R      HAL2     0.900000E-01   1.00800           0
      5148 MEMB     39       POPC     H6S      HAL2     0.900000E-01   1.00800           0
      5149 MEMB     39       POPC     C27      CTL2    -0.180000       12.0110           0
      5150 MEMB     39       POPC     H7R      HAL2     0.900000E-01   1.00800           0
      5151 MEMB     39       POPC     H7S      HAL2     0.900000E-01   1.00800           0
      5152 MEMB     39       POPC     C28      CTL2    -0.180000       12.0110           0
      5153 MEMB     39       POPC     H8R      HAL2     0.900000E-01   1.00800           0
      5154 MEMB     39       POPC     H8S      HAL2     0.900000E-01   1.00800           0
      5155 MEMB     39       POPC     C29      CEL1    -0.150000       12.0110           0
      5156 MEMB     39       POPC     H91      HEL1     0.150000       1.00800           0
      5157 MEMB     39       POPC     C210     CEL1    -0.150000       12.0110           0
      5158 MEMB     39       POPC     H101     HEL1     0.150000       1.00800           0
      5159 MEMB     39       POPC     C211     CTL2    -0.180000       12.0110           0
      5160 MEMB     39       POPC     H11R     HAL2     0.900000E-01   1.00800           0
      5161 MEMB     39       POPC     H11S     HAL2     0.900000E-01   1.00800           0
      5162 MEMB     39       POPC     C212     CTL2    -0.180000       12.0110           0
      5163 MEMB     39       POPC     H12R     HAL2     0.900000E-01   1.00800           0
      5164 MEMB     39       POPC     H12S     HAL2     0.900000E-01   1.00800           0
      5165 MEMB     39       POPC     C213     CTL2    -0.180000       12.0110           0
      5166 MEMB     39       POPC     H13R     HAL2     0.900000E-01   1.00800           0
      5167 MEMB     39       POPC     H13S     HAL2     0.900000E-01   1.00800           0
      5168 MEMB     39       POPC     C214     CTL2    -0.180000       12.0110           0
      5169 MEMB     39       POPC     H14R     HAL2     0.900000E-01   1.00800           0
      5170 MEMB     39       POPC     H14S     HAL2     0.900000E-01   1.00800           0
      5171 MEMB     39       POPC     C215     CTL2    -0.180000       12.0110           0
      5172 MEMB     39       POPC     H15R     HAL2     0.900000E-01   1.00800           0
      5173 MEMB     39       POPC     H15S     HAL2     0.900000E-01   1.00800           0
      5174 MEMB     39       POPC     C216     CTL2    -0.180000       12.0110           0
      5175 MEMB     39       POPC     H16R     HAL2     0.900000E-01   1.00800           0
      5176 MEMB     39       POPC     H16S     HAL2     0.900000E-01   1.00800           0
      5177 MEMB     39       POPC     C217     CTL2    -0.180000       12.0110           0
      5178 MEMB     39       POPC     H17R     HAL2     0.900000E-01   1.00800           0
      5179 MEMB     39       POPC     H17S     HAL2     0.900000E-01   1.00800           0
      5180 MEMB     39       POPC     C218     CTL3    -0.270000       12.0110           0
      5181 MEMB     39       POPC     H18R     HAL3     0.900000E-01   1.00800           0
      5182 MEMB     39       POPC     H18S     HAL3     0.900000E-01   1.00800           0
      5183 MEMB     39       POPC     H18T     HAL3     0.900000E-01   1.00800           0
      5184 MEMB     39       POPC     C33      CTL2    -0.180000       12.0110           0
      5185 MEMB     39       POPC     H3X      HAL2     0.900000E-01   1.00800           0
      5186 MEMB     39       POPC     H3Y      HAL2     0.900000E-01   1.00800           0
      5187 MEMB     39       POPC     C34      CTL2    -0.180000       12.0110           0
      5188 MEMB     39       POPC     H4X      HAL2     0.900000E-01   1.00800           0
      5189 MEMB     39       POPC     H4Y      HAL2     0.900000E-01   1.00800           0
      5190 MEMB     39       POPC     C35      CTL2    -0.180000       12.0110           0
      5191 MEMB     39       POPC     H5X      HAL2     0.900000E-01   1.00800           0
      5192 MEMB     39       POPC     H5Y      HAL2     0.900000E-01   1.00800           0
      5193 MEMB     39       POPC     C36      CTL2    -0.180000       12.0110           0
      5194 MEMB     39       POPC     H6X      HAL2     0.900000E-01   1.00800           0
      5195 MEMB     39       POPC     H6Y      HAL2     0.900000E-01   1.00800           0
      5196 MEMB     39       POPC     C37      CTL2    -0.180000       12.0110           0
      5197 MEMB     39       POPC     H7X      HAL2     0.900000E-01   1.00800           0
      5198 MEMB     39       POPC     H7Y      HAL2     0.900000E-01   1.00800           0
      5199 MEMB     39       POPC     C38      CTL2    -0.180000       12.0110           0
      5200 MEMB     39       POPC     H8X      HAL2     0.900000E-01   1.00800           0
      5201 MEMB     39       POPC     H8Y      HAL2     0.900000E-01   1.00800           0
      5202 MEMB     39       POPC     C39      CTL2    -0.180000       12.0110           0
      5203 MEMB     39       POPC     H9X      HAL2     0.900000E-01   1.00800           0
      5204 MEMB     39       POPC     H9Y      HAL2     0.900000E-01   1.00800           0
      5205 MEMB     39       POPC     C310     CTL2    -0.180000       12.0110           0
      5206 MEMB     39       POPC     H10X     HAL2     0.900000E-01   1.00800           0
      5207 MEMB     39       POPC     H10Y     HAL2     0.900000E-01   1.00800           0
      5208 MEMB     39       POPC     C311     CTL2    -0.180000       12.0110           0
      5209 MEMB     39       POPC     H11X     HAL2     0.900000E-01   1.00800           0
      5210 MEMB     39       POPC     H11Y     HAL2     0.900000E-01   1.00800           0
      5211 MEMB     39       POPC     C312     CTL2    -0.180000       12.0110           0
      5212 MEMB     39       POPC     H12X     HAL2     0.900000E-01   1.00800           0
      5213 MEMB     39       POPC     H12Y     HAL2     0.900000E-01   1.00800           0
      5214 MEMB     39       POPC     C313     CTL2    -0.180000       12.0110           0
      5215 MEMB     39       POPC     H13X     HAL2     0.900000E-01   1.00800           0
      5216 MEMB     39       POPC     H13Y     HAL2     0.900000E-01   1.00800           0
      5217 MEMB     39       POPC     C314     CTL2    -0.180000       12.0110           0
      5218 MEMB     39       POPC     H14X     HAL2     0.900000E-01   1.00800           0
      5219 MEMB     39       POPC     H14Y     HAL2     0.900000E-01   1.00800           0
      5220 MEMB     39       POPC     C315     CTL2    -0.180000       12.0110           0
      5221 MEMB     39       POPC     H15X     HAL2     0.900000E-01   1.00800           0
      5222 MEMB     39       POPC     H15Y     HAL2     0.900000E-01   1.00800           0
      5223 MEMB     39       POPC     C316     CTL3    -0.270000       12.0110           0
      5224 MEMB     39       POPC     H16X     HAL3     0.900000E-01   1.00800           0
      5225 MEMB     39       POPC     H16Y     HAL3     0.900000E-01   1.00800           0
      5226 MEMB     39       POPC     H16Z     HAL3     0.900000E-01   1.00800           0
      5227 MEMB     40       POPC     N        NTL     -0.600000       14.0070           0
      5228 MEMB     40       POPC     C12      CTL2    -0.100000       12.0110           0
      5229 MEMB     40       POPC     H12A     HL       0.250000       1.00800           0
      5230 MEMB     40       POPC     H12B     HL       0.250000       1.00800           0
      5231 MEMB     40       POPC     C13      CTL5    -0.350000       12.0110           0
      5232 MEMB     40       POPC     H13A     HL       0.250000       1.00800           0
      5233 MEMB     40       POPC     H13B     HL       0.250000       1.00800           0
      5234 MEMB     40       POPC     H13C     HL       0.250000       1.00800           0
      5235 MEMB     40       POPC     C14      CTL5    -0.350000       12.0110           0
      5236 MEMB     40       POPC     H14A     HL       0.250000       1.00800           0
      5237 MEMB     40       POPC     H14B     HL       0.250000       1.00800           0
      5238 MEMB     40       POPC     H14C     HL       0.250000       1.00800           0
      5239 MEMB     40       POPC     C15      CTL5    -0.350000       12.0110           0
      5240 MEMB     40       POPC     H15A     HL       0.250000       1.00800           0
      5241 MEMB     40       POPC     H15B     HL       0.250000       1.00800           0
      5242 MEMB     40       POPC     H15C     HL       0.250000       1.00800           0
      5243 MEMB     40       POPC     C11      CTL2    -0.800000E-01   12.0110           0
      5244 MEMB     40       POPC     H11A     HAL2     0.900000E-01   1.00800           0
      5245 MEMB     40       POPC     H11B     HAL2     0.900000E-01   1.00800           0
      5246 MEMB     40       POPC     P        PL       1.50000        30.9740           0
      5247 MEMB     40       POPC     O13      O2L     -0.780000       15.9994           0
      5248 MEMB     40       POPC     O14      O2L     -0.780000       15.9994           0
      5249 MEMB     40       POPC     O12      OSLP    -0.570000       15.9994           0
      5250 MEMB     40       POPC     O11      OSLP    -0.570000       15.9994           0
      5251 MEMB     40       POPC     C1       CTL2    -0.800000E-01   12.0110           0
      5252 MEMB     40       POPC     HA       HAL2     0.900000E-01   1.00800           0
      5253 MEMB     40       POPC     HB       HAL2     0.900000E-01   1.00800           0
      5254 MEMB     40       POPC     C2       CTL1     0.170000       12.0110           0
      5255 MEMB     40       POPC     HS       HAL1     0.900000E-01   1.00800           0
      5256 MEMB     40       POPC     O21      OSL     -0.490000       15.9994           0
      5257 MEMB     40       POPC     C21      CL       0.900000       12.0110           0
      5258 MEMB     40       POPC     O22      OBL     -0.630000       15.9994           0
      5259 MEMB     40       POPC     C22      CTL2    -0.220000       12.0110           0
      5260 MEMB     40       POPC     H2R      HAL2     0.900000E-01   1.00800           0
      5261 MEMB     40       POPC     H2S      HAL2     0.900000E-01   1.00800           0
      5262 MEMB     40       POPC     C3       CTL2     0.800000E-01   12.0110           0
      5263 MEMB     40       POPC     HX       HAL2     0.900000E-01   1.00800           0
      5264 MEMB     40       POPC     HY       HAL2     0.900000E-01   1.00800           0
      5265 MEMB     40       POPC     O31      OSL     -0.490000       15.9994           0
      5266 MEMB     40       POPC     C31      CL       0.900000       12.0110           0
      5267 MEMB     40       POPC     O32      OBL     -0.630000       15.9994           0
      5268 MEMB     40       POPC     C32      CTL2    -0.220000       12.0110           0
      5269 MEMB     40       POPC     H2X      HAL2     0.900000E-01   1.00800           0
      5270 MEMB     40       POPC     H2Y      HAL2     0.900000E-01   1.00800           0
      5271 MEMB     40       POPC     C23      CTL2    -0.180000       12.0110           0
      5272 MEMB     40       POPC     H3R      HAL2     0.900000E-01   1.00800           0
      5273 MEMB     40       POPC     H3S      HAL2     0.900000E-01   1.00800           0
      5274 MEMB     40       POPC     C24      CTL2    -0.180000       12.0110           0
      5275 MEMB     40       POPC     H4R      HAL2     0.900000E-01   1.00800           0
      5276 MEMB     40       POPC     H4S      HAL2     0.900000E-01   1.00800           0
      5277 MEMB     40       POPC     C25      CTL2    -0.180000       12.0110           0
      5278 MEMB     40       POPC     H5R      HAL2     0.900000E-01   1.00800           0
      5279 MEMB     40       POPC     H5S      HAL2     0.900000E-01   1.00800           0
      5280 MEMB     40       POPC     C26      CTL2    -0.180000       12.0110           0
      5281 MEMB     40       POPC     H6R      HAL2     0.900000E-01   1.00800           0
      5282 MEMB     40       POPC     H6S      HAL2     0.900000E-01   1.00800           0
      5283 MEMB     40       POPC     C27      CTL2    -0.180000       12.0110           0
      5284 MEMB     40       POPC     H7R      HAL2     0.900000E-01   1.00800           0
      5285 MEMB     40       POPC     H7S      HAL2     0.900000E-01   1.00800           0
      5286 MEMB     40       POPC     C28      CTL2    -0.180000       12.0110           0
      5287 MEMB     40       POPC     H8R      HAL2     0.900000E-01   1.00800           0
      5288 MEMB     40       POPC     H8S      HAL2     0.900000E-01   1.00800           0
      5289 MEMB     40       POPC     C29      CEL1    -0.150000       12.0110           0
      5290 MEMB     40       POPC     H91      HEL1     0.150000       1.00800           0
      5291 MEMB     40       POPC     C210     CEL1    -0.150000       12.0110           0
      5292 MEMB     40       POPC     H101     HEL1     0.150000       1.00800           0
      5293 MEMB     40       POPC     C211     CTL2    -0.180000       12.0110           0
      5294 MEMB     40       POPC     H11R     HAL2     0.900000E-01   1.00800           0
      5295 MEMB     40       POPC     H11S     HAL2     0.900000E-01   1.00800           0
      5296 MEMB     40       POPC     C212     CTL2    -0.180000       12.0110           0
      5297 MEMB     40       POPC     H12R     HAL2     0.900000E-01   1.00800           0
      5298 MEMB     40       POPC     H12S     HAL2     0.900000E-01   1.00800           0
      5299 MEMB     40       POPC     C213     CTL2    -0.180000       12.0110           0
      5300 MEMB     40       POPC     H13R     HAL2     0.900000E-01   1.00800           0
      5301 MEMB     40       POPC     H13S     HAL2     0.900000E-01   1.00800           0
      5302 MEMB     40       POPC     C214     CTL2    -0.180000       12.0110           0
      5303 MEMB     40       POPC     H14R     HAL2     0.900000E-01   1.00800           0
      5304 MEMB     40       POPC     H14S     HAL2     0.900000E-01   1.00800           0
      5305 MEMB     40       POPC     C215     CTL2    -0.180000       12.0110           0
      5306 MEMB     40       POPC     H15R     HAL2     0.900000E-01   1.00800           0
      5307 MEMB     40       POPC     H15S     HAL2     0.900000E-01   1.00800           0
      5308 MEMB     40       POPC     C216     CTL2    -0.180000       12.0110           0
      5309 MEMB     40       POPC     H16R     HAL2     0.900000E-01   1.00800           0
      5310 MEMB     40       POPC     H16S     HAL2     0.900000E-01   1.00800           0
      5311 MEMB     40       POPC     C217     CTL2    -0.180000       12.0110           0
      5312 MEMB     40       POPC     H17R     HAL2     0.900000E-01   1.00800           0
      5313 MEMB     40       POPC     H17S     HAL2     0.900000E-01   1.00800           0
      5314 MEMB     40       POPC     C218     CTL3    -0.270000       12.0110           0
      5315 MEMB     40       POPC     H18R     HAL3     0.900000E-01   1.00800           0
      5316 MEMB     40       POPC     H18S     HAL3     0.900000E-01   1.00800           0
      5317 MEMB     40       POPC     H18T     HAL3     0.900000E-01   1.00800           0
      5318 MEMB     40       POPC     C33      CTL2    -0.180000       12.0110           0
      5319 MEMB     40       POPC     H3X      HAL2     0.900000E-01   1.00800           0
      5320 MEMB     40       POPC     H3Y      HAL2     0.900000E-01   1.00800           0
      5321 MEMB     40       POPC     C34      CTL2    -0.180000       12.0110           0
      5322 MEMB     40       POPC     H4X      HAL2     0.900000E-01   1.00800           0
      5323 MEMB     40       POPC     H4Y      HAL2     0.900000E-01   1.00800           0
      5324 MEMB     40       POPC     C35      CTL2    -0.180000       12.0110           0
      5325 MEMB     40       POPC     H5X      HAL2     0.900000E-01   1.00800           0
      5326 MEMB     40       POPC     H5Y      HAL2     0.900000E-01   1.00800           0
      5327 MEMB     40       POPC     C36      CTL2    -0.180000       12.0110           0
      5328 MEMB     40       POPC     H6X      HAL2     0.900000E-01   1.00800           0
      5329 MEMB     40       POPC     H6Y      HAL2     0.900000E-01   1.00800           0
      5330 MEMB     40       POPC     C37      CTL2    -0.180000       12.0110           0
      5331 MEMB     40       POPC     H7X      HAL2     0.900000E-01   1.00800           0
      5332 MEMB     40       POPC     H7Y      HAL2     0.900000E-01   1.00800           0
      5333 MEMB     40       POPC     C38      CTL2    -0.180000       12.0110           0
      5334 MEMB     40       POPC     H8X      HAL2     0.900000E-01   1.00800           0
      5335 MEMB     40       POPC     H8Y      HAL2     0.900000E-01   1.00800           0
      5336 MEMB     40       POPC     C39      CTL2    -0.180000       12.0110           0
      5337 MEMB     40       POPC     H9X      HAL2     0.900000E-01   1.00800           0
      5338 MEMB     40       POPC     H9Y      HAL2     0.900000E-01   1.00800           0
      5339 MEMB     40       POPC     C310     CTL2    -0.180000       12.0110           0
      5340 MEMB     40       POPC     H10X     HAL2     0.900000E-01   1.00800           0
      5341 MEMB     40       POPC     H10Y     HAL2     0.900000E-01   1.00800           0
      5342 MEMB     40       POPC     C311     CTL2    -0.180000       12.0110           0
      5343 MEMB     40       POPC     H11X     HAL2     0.900000E-01   1.00800           0
      5344 MEMB     40       POPC     H11Y     HAL2     0.900000E-01   1.00800           0
      5345 MEMB     40       POPC     C312     CTL2    -0.180000       12.0110           0
      5346 MEMB     40       POPC     H12X     HAL2     0.900000E-01   1.00800           0
      5347 MEMB     40       POPC     H12Y     HAL2     0.900000E-01   1.00800           0
      5348 MEMB     40       POPC     C313     CTL2    -0.180000       12.0110           0
      5349 MEMB     40       POPC     H13X     HAL2     0.900000E-01   1.00800           0
      5350 MEMB     40       POPC     H13Y     HAL2     0.900000E-01   1.00800           0
      5351 MEMB     40       POPC     C314     CTL2    -0.180000       12.0110           0
      5352 MEMB     40       POPC     H14X     HAL2     0.900000E-01   1.00800           0
      5353 MEMB     40       POPC     H14Y     HAL2     0.900000E-01   1.00800           0
      5354 MEMB     40       POPC     C315     CTL2    -0.180000       12.0110           0
      5355 MEMB     40       POPC     H15X     HAL2     0.900000E-01   1.00800           0
      5356 MEMB     40       POPC     H15Y     HAL2     0.900000E-01   1.00800           0
      5357 MEMB     40       POPC     C316     CTL3    -0.270000       12.0110           0
      5358 MEMB     40       POPC     H16X     HAL3     0.900000E-01   1.00800           0
      5359 MEMB     40       POPC     H16Y     HAL3     0.900000E-01   1.00800           0
      5360 MEMB     40       POPC     H16Z     HAL3     0.900000E-01   1.00800           0
      5361 MEMB     41       POPC     N        NTL     -0.600000       14.0070           0
      5362 MEMB     41       POPC     C12      CTL2    -0.100000       12.0110           0
      5363 MEMB     41       POPC     H12A     HL       0.250000       1.00800           0
      5364 MEMB     41       POPC     H12B     HL       0.250000       1.00800           0
      5365 MEMB     41       POPC     C13      CTL5    -0.350000       12.0110           0
      5366 MEMB     41       POPC     H13A     HL       0.250000       1.00800           0
      5367 MEMB     41       POPC     H13B     HL       0.250000       1.00800           0
      5368 MEMB     41       POPC     H13C     HL       0.250000       1.00800           0
      5369 MEMB     41       POPC     C14      CTL5    -0.350000       12.0110           0
      5370 MEMB     41       POPC     H14A     HL       0.250000       1.00800           0
      5371 MEMB     41       POPC     H14B     HL       0.250000       1.00800           0
      5372 MEMB     41       POPC     H14C     HL       0.250000       1.00800           0
      5373 MEMB     41       POPC     C15      CTL5    -0.350000       12.0110           0
      5374 MEMB     41       POPC     H15A     HL       0.250000       1.00800           0
      5375 MEMB     41       POPC     H15B     HL       0.250000       1.00800           0
      5376 MEMB     41       POPC     H15C     HL       0.250000       1.00800           0
      5377 MEMB     41       POPC     C11      CTL2    -0.800000E-01   12.0110           0
      5378 MEMB     41       POPC     H11A     HAL2     0.900000E-01   1.00800           0
      5379 MEMB     41       POPC     H11B     HAL2     0.900000E-01   1.00800           0
      5380 MEMB     41       POPC     P        PL       1.50000        30.9740           0
      5381 MEMB     41       POPC     O13      O2L     -0.780000       15.9994           0
      5382 MEMB     41       POPC     O14      O2L     -0.780000       15.9994           0
      5383 MEMB     41       POPC     O12      OSLP    -0.570000       15.9994           0
      5384 MEMB     41       POPC     O11      OSLP    -0.570000       15.9994           0
      5385 MEMB     41       POPC     C1       CTL2    -0.800000E-01   12.0110           0
      5386 MEMB     41       POPC     HA       HAL2     0.900000E-01   1.00800           0
      5387 MEMB     41       POPC     HB       HAL2     0.900000E-01   1.00800           0
      5388 MEMB     41       POPC     C2       CTL1     0.170000       12.0110           0
      5389 MEMB     41       POPC     HS       HAL1     0.900000E-01   1.00800           0
      5390 MEMB     41       POPC     O21      OSL     -0.490000       15.9994           0
      5391 MEMB     41       POPC     C21      CL       0.900000       12.0110           0
      5392 MEMB     41       POPC     O22      OBL     -0.630000       15.9994           0
      5393 MEMB     41       POPC     C22      CTL2    -0.220000       12.0110           0
      5394 MEMB     41       POPC     H2R      HAL2     0.900000E-01   1.00800           0
      5395 MEMB     41       POPC     H2S      HAL2     0.900000E-01   1.00800           0
      5396 MEMB     41       POPC     C3       CTL2     0.800000E-01   12.0110           0
      5397 MEMB     41       POPC     HX       HAL2     0.900000E-01   1.00800           0
      5398 MEMB     41       POPC     HY       HAL2     0.900000E-01   1.00800           0
      5399 MEMB     41       POPC     O31      OSL     -0.490000       15.9994           0
      5400 MEMB     41       POPC     C31      CL       0.900000       12.0110           0
      5401 MEMB     41       POPC     O32      OBL     -0.630000       15.9994           0
      5402 MEMB     41       POPC     C32      CTL2    -0.220000       12.0110           0
      5403 MEMB     41       POPC     H2X      HAL2     0.900000E-01   1.00800           0
      5404 MEMB     41       POPC     H2Y      HAL2     0.900000E-01   1.00800           0
      5405 MEMB     41       POPC     C23      CTL2    -0.180000       12.0110           0
      5406 MEMB     41       POPC     H3R      HAL2     0.900000E-01   1.00800           0
      5407 MEMB     41       POPC     H3S      HAL2     0.900000E-01   1.00800           0
      5408 MEMB     41       POPC     C24      CTL2    -0.180000       12.0110           0
      5409 MEMB     41       POPC     H4R      HAL2     0.900000E-01   1.00800           0
      5410 MEMB     41       POPC     H4S      HAL2     0.900000E-01   1.00800           0
      5411 MEMB     41       POPC     C25      CTL2    -0.180000       12.0110           0
      5412 MEMB     41       POPC     H5R      HAL2     0.900000E-01   1.00800           0
      5413 MEMB     41       POPC     H5S      HAL2     0.900000E-01   1.00800           0
      5414 MEMB     41       POPC     C26      CTL2    -0.180000       12.0110           0
      5415 MEMB     41       POPC     H6R      HAL2     0.900000E-01   1.00800           0
      5416 MEMB     41       POPC     H6S      HAL2     0.900000E-01   1.00800           0
      5417 MEMB     41       POPC     C27      CTL2    -0.180000       12.0110           0
      5418 MEMB     41       POPC     H7R      HAL2     0.900000E-01   1.00800           0
      5419 MEMB     41       POPC     H7S      HAL2     0.900000E-01   1.00800           0
      5420 MEMB     41       POPC     C28      CTL2    -0.180000       12.0110           0
      5421 MEMB     41       POPC     H8R      HAL2     0.900000E-01   1.00800           0
      5422 MEMB     41       POPC     H8S      HAL2     0.900000E-01   1.00800           0
      5423 MEMB     41       POPC     C29      CEL1    -0.150000       12.0110           0
      5424 MEMB     41       POPC     H91      HEL1     0.150000       1.00800           0
      5425 MEMB     41       POPC     C210     CEL1    -0.150000       12.0110           0
      5426 MEMB     41       POPC     H101     HEL1     0.150000       1.00800           0
      5427 MEMB     41       POPC     C211     CTL2    -0.180000       12.0110           0
      5428 MEMB     41       POPC     H11R     HAL2     0.900000E-01   1.00800           0
      5429 MEMB     41       POPC     H11S     HAL2     0.900000E-01   1.00800           0
      5430 MEMB     41       POPC     C212     CTL2    -0.180000       12.0110           0
      5431 MEMB     41       POPC     H12R     HAL2     0.900000E-01   1.00800           0
      5432 MEMB     41       POPC     H12S     HAL2     0.900000E-01   1.00800           0
      5433 MEMB     41       POPC     C213     CTL2    -0.180000       12.0110           0
      5434 MEMB     41       POPC     H13R     HAL2     0.900000E-01   1.00800           0
      5435 MEMB     41       POPC     H13S     HAL2     0.900000E-01   1.00800           0
      5436 MEMB     41       POPC     C214     CTL2    -0.180000       12.0110           0
      5437 MEMB     41       POPC     H14R     HAL2     0.900000E-01   1.00800           0
      5438 MEMB     41       POPC     H14S     HAL2     0.900000E-01   1.00800           0
      5439 MEMB     41       POPC     C215     CTL2    -0.180000       12.0110           0
      5440 MEMB     41       POPC     H15R     HAL2     0.900000E-01   1.00800           0
      5441 MEMB     41       POPC     H15S     HAL2     0.900000E-01   1.00800           0
      5442 MEMB     41       POPC     C216     CTL2    -0.180000       12.0110           0
      5443 MEMB     41       POPC     H16R     HAL2     0.900000E-01   1.00800           0
      5444 MEMB     41       POPC     H16S     HAL2     0.900000E-01   1.00800           0
      5445 MEMB     41       POPC     C217     CTL2    -0.180000       12.0110           0
      5446 MEMB     41       POPC     H17R     HAL2     0.900000E-01   1.00800           0
      5447 MEMB     41       POPC     H17S     HAL2     0.900000E-01   1.00800           0
      5448 MEMB     41       POPC     C218     CTL3    -0.270000       12.0110           0
      5449 MEMB     41       POPC     H18R     HAL3     0.900000E-01   1.00800           0
      5450 MEMB     41       POPC     H18S     HAL3     0.900000E-01   1.00800           0
      5451 MEMB     41       POPC     H18T     HAL3     0.900000E-01   1.00800           0
      5452 MEMB     41       POPC     C33      CTL2    -0.180000       12.0110           0
      5453 MEMB     41       POPC     H3X      HAL2     0.900000E-01   1.00800           0
      5454 MEMB     41       POPC     H3Y      HAL2     0.900000E-01   1.00800           0
      5455 MEMB     41       POPC     C34      CTL2    -0.180000       12.0110           0
      5456 MEMB     41       POPC     H4X      HAL2     0.900000E-01   1.00800           0
      5457 MEMB     41       POPC     H4Y      HAL2     0.900000E-01   1.00800           0
      5458 MEMB     41       POPC     C35      CTL2    -0.180000       12.0110           0
      5459 MEMB     41       POPC     H5X      HAL2     0.900000E-01   1.00800           0
      5460 MEMB     41       POPC     H5Y      HAL2     0.900000E-01   1.00800           0
      5461 MEMB     41       POPC     C36      CTL2    -0.180000       12.0110           0
      5462 MEMB     41       POPC     H6X      HAL2     0.900000E-01   1.00800           0
      5463 MEMB     41       POPC     H6Y      HAL2     0.900000E-01   1.00800           0
      5464 MEMB     41       POPC     C37      CTL2    -0.180000       12.0110           0
      5465 MEMB     41       POPC     H7X      HAL2     0.900000E-01   1.00800           0
      5466 MEMB     41       POPC     H7Y      HAL2     0.900000E-01   1.00800           0
      5467 MEMB     41       POPC     C38      CTL2    -0.180000       12.0110           0
      5468 MEMB     41       POPC     H8X      HAL2     0.900000E-01   1.00800           0
      5469 MEMB     41       POPC     H8Y      HAL2     0.900000E-01   1.00800           0
      5470 MEMB     41       POPC     C39      CTL2    -0.180000       12.0110           0
      5471 MEMB     41       POPC     H9X      HAL2     0.900000E-01   1.00800           0
      5472 MEMB     41       POPC     H9Y      HAL2     0.900000E-01   1.00800           0
      5473 MEMB     41       POPC     C310     CTL2    -0.180000       12.0110           0
      5474 MEMB     41       POPC     H10X     HAL2     0.900000E-01   1.00800           0
      5475 MEMB     41       POPC     H10Y     HAL2     0.900000E-01   1.00800           0
      5476 MEMB     41       POPC     C311     CTL2    -0.180000       12.0110           0
      5477 MEMB     41       POPC     H11X     HAL2     0.900000E-01   1.00800           0
      5478 MEMB     41       POPC     H11Y     HAL2     0.900000E-01   1.00800           0
      5479 MEMB     41       POPC     C312     CTL2    -0.180000       12.0110           0
      5480 MEMB     41       POPC     H12X     HAL2     0.900000E-01   1.00800           0
      5481 MEMB     41       POPC     H12Y     HAL2     0.900000E-01   1.00800           0
      5482 MEMB     41       POPC     C313     CTL2    -0.180000       12.0110           0
      5483 MEMB     41       POPC     H13X     HAL2     0.900000E-01   1.00800           0
      5484 MEMB     41       POPC     H13Y     HAL2     0.900000E-01   1.00800           0
      5485 MEMB     41       POPC     C314     CTL2    -0.180000       12.0110           0
      5486 MEMB     41       POPC     H14X     HAL2     0.900000E-01   1.00800           0
      5487 MEMB     41       POPC     H14Y     HAL2     0.900000E-01   1.00800           0
      5488 MEMB     41       POPC     C315     CTL2    -0.180000       12.0110           0
      5489 MEMB     41       POPC     H15X     HAL2     0.900000E-01   1.00800           0
      5490 MEMB     41       POPC     H15Y     HAL2     0.900000E-01   1.00800           0
      5491 MEMB     41       POPC     C316     CTL3    -0.270000       12.0110           0
      5492 MEMB     41       POPC     H16X     HAL3     0.900000E-01   1.00800           0
      5493 MEMB     41       POPC     H16Y     HAL3     0.900000E-01   1.00800           0
      5494 MEMB     41       POPC     H16Z     HAL3     0.900000E-01   1.00800           0
      5495 MEMB     42       POPC     N        NTL     -0.600000       14.0070           0
      5496 MEMB     42       POPC     C12      CTL2    -0.100000       12.0110           0
      5497 MEMB     42       POPC     H12A     HL       0.250000       1.00800           0
      5498 MEMB     42       POPC     H12B     HL       0.250000       1.00800           0
      5499 MEMB     42       POPC     C13      CTL5    -0.350000       12.0110           0
      5500 MEMB     42       POPC     H13A     HL       0.250000       1.00800           0
      5501 MEMB     42       POPC     H13B     HL       0.250000       1.00800           0
      5502 MEMB     42       POPC     H13C     HL       0.250000       1.00800           0
      5503 MEMB     42       POPC     C14      CTL5    -0.350000       12.0110           0
      5504 MEMB     42       POPC     H14A     HL       0.250000       1.00800           0
      5505 MEMB     42       POPC     H14B     HL       0.250000       1.00800           0
      5506 MEMB     42       POPC     H14C     HL       0.250000       1.00800           0
      5507 MEMB     42       POPC     C15      CTL5    -0.350000       12.0110           0
      5508 MEMB     42       POPC     H15A     HL       0.250000       1.00800           0
      5509 MEMB     42       POPC     H15B     HL       0.250000       1.00800           0
      5510 MEMB     42       POPC     H15C     HL       0.250000       1.00800           0
      5511 MEMB     42       POPC     C11      CTL2    -0.800000E-01   12.0110           0
      5512 MEMB     42       POPC     H11A     HAL2     0.900000E-01   1.00800           0
      5513 MEMB     42       POPC     H11B     HAL2     0.900000E-01   1.00800           0
      5514 MEMB     42       POPC     P        PL       1.50000        30.9740           0
      5515 MEMB     42       POPC     O13      O2L     -0.780000       15.9994           0
      5516 MEMB     42       POPC     O14      O2L     -0.780000       15.9994           0
      5517 MEMB     42       POPC     O12      OSLP    -0.570000       15.9994           0
      5518 MEMB     42       POPC     O11      OSLP    -0.570000       15.9994           0
      5519 MEMB     42       POPC     C1       CTL2    -0.800000E-01   12.0110           0
      5520 MEMB     42       POPC     HA       HAL2     0.900000E-01   1.00800           0
      5521 MEMB     42       POPC     HB       HAL2     0.900000E-01   1.00800           0
      5522 MEMB     42       POPC     C2       CTL1     0.170000       12.0110           0
      5523 MEMB     42       POPC     HS       HAL1     0.900000E-01   1.00800           0
      5524 MEMB     42       POPC     O21      OSL     -0.490000       15.9994           0
      5525 MEMB     42       POPC     C21      CL       0.900000       12.0110           0
      5526 MEMB     42       POPC     O22      OBL     -0.630000       15.9994           0
      5527 MEMB     42       POPC     C22      CTL2    -0.220000       12.0110           0
      5528 MEMB     42       POPC     H2R      HAL2     0.900000E-01   1.00800           0
      5529 MEMB     42       POPC     H2S      HAL2     0.900000E-01   1.00800           0
      5530 MEMB     42       POPC     C3       CTL2     0.800000E-01   12.0110           0
      5531 MEMB     42       POPC     HX       HAL2     0.900000E-01   1.00800           0
      5532 MEMB     42       POPC     HY       HAL2     0.900000E-01   1.00800           0
      5533 MEMB     42       POPC     O31      OSL     -0.490000       15.9994           0
      5534 MEMB     42       POPC     C31      CL       0.900000       12.0110           0
      5535 MEMB     42       POPC     O32      OBL     -0.630000       15.9994           0
      5536 MEMB     42       POPC     C32      CTL2    -0.220000       12.0110           0
      5537 MEMB     42       POPC     H2X      HAL2     0.900000E-01   1.00800           0
      5538 MEMB     42       POPC     H2Y      HAL2     0.900000E-01   1.00800           0
      5539 MEMB     42       POPC     C23      CTL2    -0.180000       12.0110           0
      5540 MEMB     42       POPC     H3R      HAL2     0.900000E-01   1.00800           0
      5541 MEMB     42       POPC     H3S      HAL2     0.900000E-01   1.00800           0
      5542 MEMB     42       POPC     C24      CTL2    -0.180000       12.0110           0
      5543 MEMB     42       POPC     H4R      HAL2     0.900000E-01   1.00800           0
      5544 MEMB     42       POPC     H4S      HAL2     0.900000E-01   1.00800           0
      5545 MEMB     42       POPC     C25      CTL2    -0.180000       12.0110           0
      5546 MEMB     42       POPC     H5R      HAL2     0.900000E-01   1.00800           0
      5547 MEMB     42       POPC     H5S      HAL2     0.900000E-01   1.00800           0
      5548 MEMB     42       POPC     C26      CTL2    -0.180000       12.0110           0
      5549 MEMB     42       POPC     H6R      HAL2     0.900000E-01   1.00800           0
      5550 MEMB     42       POPC     H6S      HAL2     0.900000E-01   1.00800           0
      5551 MEMB     42       POPC     C27      CTL2    -0.180000       12.0110           0
      5552 MEMB     42       POPC     H7R      HAL2     0.900000E-01   1.00800           0
      5553 MEMB     42       POPC     H7S      HAL2     0.900000E-01   1.00800           0
      5554 MEMB     42       POPC     C28      CTL2    -0.180000       12.0110           0
      5555 MEMB     42       POPC     H8R      HAL2     0.900000E-01   1.00800           0
      5556 MEMB     42       POPC     H8S      HAL2     0.900000E-01   1.00800           0
      5557 MEMB     42       POPC     C29      CEL1    -0.150000       12.0110           0
      5558 MEMB     42       POPC     H91      HEL1     0.150000       1.00800           0
      5559 MEMB     42       POPC     C210     CEL1    -0.150000       12.0110           0
      5560 MEMB     42       POPC     H101     HEL1     0.150000       1.00800           0
      5561 MEMB     42       POPC     C211     CTL2    -0.180000       12.0110           0
      5562 MEMB     42       POPC     H11R     HAL2     0.900000E-01   1.00800           0
      5563 MEMB     42       POPC     H11S     HAL2     0.900000E-01   1.00800           0
      5564 MEMB     42       POPC     C212     CTL2    -0.180000       12.0110           0
      5565 MEMB     42       POPC     H12R     HAL2     0.900000E-01   1.00800           0
      5566 MEMB     42       POPC     H12S     HAL2     0.900000E-01   1.00800           0
      5567 MEMB     42       POPC     C213     CTL2    -0.180000       12.0110           0
      5568 MEMB     42       POPC     H13R     HAL2     0.900000E-01   1.00800           0
      5569 MEMB     42       POPC     H13S     HAL2     0.900000E-01   1.00800           0
      5570 MEMB     42       POPC     C214     CTL2    -0.180000       12.0110           0
      5571 MEMB     42       POPC     H14R     HAL2     0.900000E-01   1.00800           0
      5572 MEMB     42       POPC     H14S     HAL2     0.900000E-01   1.00800           0
      5573 MEMB     42       POPC     C215     CTL2    -0.180000       12.0110           0
      5574 MEMB     42       POPC     H15R     HAL2     0.900000E-01   1.00800           0
      5575 MEMB     42       POPC     H15S     HAL2     0.900000E-01   1.00800           0
      5576 MEMB     42       POPC     C216     CTL2    -0.180000       12.0110           0
      5577 MEMB     42       POPC     H16R     HAL2     0.900000E-01   1.00800           0
      5578 MEMB     42       POPC     H16S     HAL2     0.900000E-01   1.00800           0
      5579 MEMB     42       POPC     C217     CTL2    -0.180000       12.0110           0
      5580 MEMB     42       POPC     H17R     HAL2     0.900000E-01   1.00800           0
      5581 MEMB     42       POPC     H17S     HAL2     0.900000E-01   1.00800           0
      5582 MEMB     42       POPC     C218     CTL3    -0.270000       12.0110           0
      5583 MEMB     42       POPC     H18R     HAL3     0.900000E-01   1.00800           0
      5584 MEMB     42       POPC     H18S     HAL3     0.900000E-01   1.00800           0
      5585 MEMB     42       POPC     H18T     HAL3     0.900000E-01   1.00800           0
      5586 MEMB     42       POPC     C33      CTL2    -0.180000       12.0110           0
      5587 MEMB     42       POPC     H3X      HAL2     0.900000E-01   1.00800           0
      5588 MEMB     42       POPC     H3Y      HAL2     0.900000E-01   1.00800           0
      5589 MEMB     42       POPC     C34      CTL2    -0.180000       12.0110           0
      5590 MEMB     42       POPC     H4X      HAL2     0.900000E-01   1.00800           0
      5591 MEMB     42       POPC     H4Y      HAL2     0.900000E-01   1.00800           0
      5592 MEMB     42       POPC     C35      CTL2    -0.180000       12.0110           0
      5593 MEMB     42       POPC     H5X      HAL2     0.900000E-01   1.00800           0
      5594 MEMB     42       POPC     H5Y      HAL2     0.900000E-01   1.00800           0
      5595 MEMB     42       POPC     C36      CTL2    -0.180000       12.0110           0
      5596 MEMB     42       POPC     H6X      HAL2     0.900000E-01   1.00800           0
      5597 MEMB     42       POPC     H6Y      HAL2     0.900000E-01   1.00800           0
      5598 MEMB     42       POPC     C37      CTL2    -0.180000       12.0110           0
      5599 MEMB     42       POPC     H7X      HAL2     0.900000E-01   1.00800           0
      5600 MEMB     42       POPC     H7Y      HAL2     0.900000E-01   1.00800           0
      5601 MEMB     42       POPC     C38      CTL2    -0.180000       12.0110           0
      5602 MEMB     42       POPC     H8X      HAL2     0.900000E-01   1.00800           0
      5603 MEMB     42       POPC     H8Y      HAL2     0.900000E-01   1.00800           0
      5604 MEMB     42       POPC     C39      CTL2    -0.180000       12.0110           0
      5605 MEMB     42       POPC     H9X      HAL2     0.900000E-01   1.00800           0
      5606 MEMB     42       POPC     H9Y      HAL2     0.900000E-01   1.00800           0
      5607 MEMB     42       POPC     C310     CTL2    -0.180000       12.0110           0
      5608 MEMB     42       POPC     H10X     HAL2     0.900000E-01   1.00800           0
      5609 MEMB     42       POPC     H10Y     HAL2     0.900000E-01   1.00800           0
      5610 MEMB     42       POPC     C311     CTL2    -0.180000       12.0110           0
      5611 MEMB     42       POPC     H11X     HAL2     0.900000E-01   1.00800           0
      5612 MEMB     42       POPC     H11Y     HAL2     0.900000E-01   1.00800           0
      5613 MEMB     42       POPC     C312     CTL2    -0.180000       12.0110           0
      5614 MEMB     42       POPC     H12X     HAL2     0.900000E-01   1.00800           0
      5615 MEMB     42       POPC     H12Y     HAL2     0.900000E-01   1.00800           0
      5616 MEMB     42       POPC     C313     CTL2    -0.180000       12.0110           0
      5617 MEMB     42       POPC     H13X     HAL2     0.900000E-01   1.00800           0
      5618 MEMB     42       POPC     H13Y     HAL2     0.900000E-01   1.00800           0
      5619 MEMB     42       POPC     C314     CTL2    -0.180000       12.0110           0
      5620 MEMB     42       POPC     H14X     HAL2     0.900000E-01   1.00800           0
      5621 MEMB     42       POPC     H14Y     HAL2     0.900000E-01   1.00800           0
      5622 MEMB     42       POPC     C315     CTL2    -0.180000       12.0110           0
      5623 MEMB     42       POPC     H15X     HAL2     0.900000E-01   1.00800           0
      5624 MEMB     42       POPC     H15Y     HAL2     0.900000E-01   1.00800           0
      5625 MEMB     42       POPC     C316     CTL3    -0.270000       12.0110           0
      5626 MEMB     42       POPC     H16X     HAL3     0.900000E-01   1.00800           0
      5627 MEMB     42       POPC     H16Y     HAL3     0.900000E-01   1.00800           0
      5628 MEMB     42       POPC     H16Z     HAL3     0.900000E-01   1.00800           0
      5629 MEMB     43       POPC     N        NTL     -0.600000       14.0070           0
      5630 MEMB     43       POPC     C12      CTL2    -0.100000       12.0110           0
      5631 MEMB     43       POPC     H12A     HL       0.250000       1.00800           0
      5632 MEMB     43       POPC     H12B     HL       0.250000       1.00800           0
      5633 MEMB     43       POPC     C13      CTL5    -0.350000       12.0110           0
      5634 MEMB     43       POPC     H13A     HL       0.250000       1.00800           0
      5635 MEMB     43       POPC     H13B     HL       0.250000       1.00800           0
      5636 MEMB     43       POPC     H13C     HL       0.250000       1.00800           0
      5637 MEMB     43       POPC     C14      CTL5    -0.350000       12.0110           0
      5638 MEMB     43       POPC     H14A     HL       0.250000       1.00800           0
      5639 MEMB     43       POPC     H14B     HL       0.250000       1.00800           0
      5640 MEMB     43       POPC     H14C     HL       0.250000       1.00800           0
      5641 MEMB     43       POPC     C15      CTL5    -0.350000       12.0110           0
      5642 MEMB     43       POPC     H15A     HL       0.250000       1.00800           0
      5643 MEMB     43       POPC     H15B     HL       0.250000       1.00800           0
      5644 MEMB     43       POPC     H15C     HL       0.250000       1.00800           0
      5645 MEMB     43       POPC     C11      CTL2    -0.800000E-01   12.0110           0
      5646 MEMB     43       POPC     H11A     HAL2     0.900000E-01   1.00800           0
      5647 MEMB     43       POPC     H11B     HAL2     0.900000E-01   1.00800           0
      5648 MEMB     43       POPC     P        PL       1.50000        30.9740           0
      5649 MEMB     43       POPC     O13      O2L     -0.780000       15.9994           0
      5650 MEMB     43       POPC     O14      O2L     -0.780000       15.9994           0
      5651 MEMB     43       POPC     O12      OSLP    -0.570000       15.9994           0
      5652 MEMB     43       POPC     O11      OSLP    -0.570000       15.9994           0
      5653 MEMB     43       POPC     C1       CTL2    -0.800000E-01   12.0110           0
      5654 MEMB     43       POPC     HA       HAL2     0.900000E-01   1.00800           0
      5655 MEMB     43       POPC     HB       HAL2     0.900000E-01   1.00800           0
      5656 MEMB     43       POPC     C2       CTL1     0.170000       12.0110           0
      5657 MEMB     43       POPC     HS       HAL1     0.900000E-01   1.00800           0
      5658 MEMB     43       POPC     O21      OSL     -0.490000       15.9994           0
      5659 MEMB     43       POPC     C21      CL       0.900000       12.0110           0
      5660 MEMB     43       POPC     O22      OBL     -0.630000       15.9994           0
      5661 MEMB     43       POPC     C22      CTL2    -0.220000       12.0110           0
      5662 MEMB     43       POPC     H2R      HAL2     0.900000E-01   1.00800           0
      5663 MEMB     43       POPC     H2S      HAL2     0.900000E-01   1.00800           0
      5664 MEMB     43       POPC     C3       CTL2     0.800000E-01   12.0110           0
      5665 MEMB     43       POPC     HX       HAL2     0.900000E-01   1.00800           0
      5666 MEMB     43       POPC     HY       HAL2     0.900000E-01   1.00800           0
      5667 MEMB     43       POPC     O31      OSL     -0.490000       15.9994           0
      5668 MEMB     43       POPC     C31      CL       0.900000       12.0110           0
      5669 MEMB     43       POPC     O32      OBL     -0.630000       15.9994           0
      5670 MEMB     43       POPC     C32      CTL2    -0.220000       12.0110           0
      5671 MEMB     43       POPC     H2X      HAL2     0.900000E-01   1.00800           0
      5672 MEMB     43       POPC     H2Y      HAL2     0.900000E-01   1.00800           0
      5673 MEMB     43       POPC     C23      CTL2    -0.180000       12.0110           0
      5674 MEMB     43       POPC     H3R      HAL2     0.900000E-01   1.00800           0
      5675 MEMB     43       POPC     H3S      HAL2     0.900000E-01   1.00800           0
      5676 MEMB     43       POPC     C24      CTL2    -0.180000       12.0110           0
      5677 MEMB     43       POPC     H4R      HAL2     0.900000E-01   1.00800           0
      5678 MEMB     43       POPC     H4S      HAL2     0.900000E-01   1.00800           0
      5679 MEMB     43       POPC     C25      CTL2    -0.180000       12.0110           0
      5680 MEMB     43       POPC     H5R      HAL2     0.900000E-01   1.00800           0
      5681 MEMB     43       POPC     H5S      HAL2     0.900000E-01   1.00800           0
      5682 MEMB     43       POPC     C26      CTL2    -0.180000       12.0110           0
      5683 MEMB     43       POPC     H6R      HAL2     0.900000E-01   1.00800           0
      5684 MEMB     43       POPC     H6S      HAL2     0.900000E-01   1.00800           0
      5685 MEMB     43       POPC     C27      CTL2    -0.180000       12.0110           0
      5686 MEMB     43       POPC     H7R      HAL2     0.900000E-01   1.00800           0
      5687 MEMB     43       POPC     H7S      HAL2     0.900000E-01   1.00800           0
      5688 MEMB     43       POPC     C28      CTL2    -0.180000       12.0110           0
      5689 MEMB     43       POPC     H8R      HAL2     0.900000E-01   1.00800           0
      5690 MEMB     43       POPC     H8S      HAL2     0.900000E-01   1.00800           0
      5691 MEMB     43       POPC     C29      CEL1    -0.150000       12.0110           0
      5692 MEMB     43       POPC     H91      HEL1     0.150000       1.00800           0
      5693 MEMB     43       POPC     C210     CEL1    -0.150000       12.0110           0
      5694 MEMB     43       POPC     H101     HEL1     0.150000       1.00800           0
      5695 MEMB     43       POPC     C211     CTL2    -0.180000       12.0110           0
      5696 MEMB     43       POPC     H11R     HAL2     0.900000E-01   1.00800           0
      5697 MEMB     43       POPC     H11S     HAL2     0.900000E-01   1.00800           0
      5698 MEMB     43       POPC     C212     CTL2    -0.180000       12.0110           0
      5699 MEMB     43       POPC     H12R     HAL2     0.900000E-01   1.00800           0
      5700 MEMB     43       POPC     H12S     HAL2     0.900000E-01   1.00800           0
      5701 MEMB     43       POPC     C213     CTL2    -0.180000       12.0110           0
      5702 MEMB     43       POPC     H13R     HAL2     0.900000E-01   1.00800           0
      5703 MEMB     43       POPC     H13S     HAL2     0.900000E-01   1.00800           0
      5704 MEMB     43       POPC     C214     CTL2    -0.180000       12.0110           0
      5705 MEMB     43       POPC     H14R     HAL2     0.900000E-01   1.00800           0
      5706 MEMB     43       POPC     H14S     HAL2     0.900000E-01   1.00800           0
      5707 MEMB     43       POPC     C215     CTL2    -0.180000       12.0110           0
      5708 MEMB     43       POPC     H15R     HAL2     0.900000E-01   1.00800           0
      5709 MEMB     43       POPC     H15S     HAL2     0.900000E-01   1.00800           0
      5710 MEMB     43       POPC     C216     CTL2    -0.180000       12.0110           0
      5711 MEMB     43       POPC     H16R     HAL2     0.900000E-01   1.00800           0
      5712 MEMB     43       POPC     H16S     HAL2     0.900000E-01   1.00800           0
      5713 MEMB     43       POPC     C217     CTL2    -0.180000       12.0110           0
      5714 MEMB     43       POPC     H17R     HAL2     0.900000E-01   1.00800           0
      5715 MEMB     43       POPC     H17S     HAL2     0.900000E-01   1.00800           0
      5716 MEMB     43       POPC     C218     CTL3    -0.270000       12.0110           0
      5717 MEMB     43       POPC     H18R     HAL3     0.900000E-01   1.00800           0
      5718 MEMB     43       POPC     H18S     HAL3     0.900000E-01   1.00800           0
      5719 MEMB     43       POPC     H18T     HAL3     0.900000E-01   1.00800           0
      5720 MEMB     43       POPC     C33      CTL2    -0.180000       12.0110           0
      5721 MEMB     43       POPC     H3X      HAL2     0.900000E-01   1.00800           0
      5722 MEMB     43       POPC     H3Y      HAL2     0.900000E-01   1.00800           0
      5723 MEMB     43       POPC     C34      CTL2    -0.180000       12.0110           0
      5724 MEMB     43       POPC     H4X      HAL2     0.900000E-01   1.00800           0
      5725 MEMB     43       POPC     H4Y      HAL2     0.900000E-01   1.00800           0
      5726 MEMB     43       POPC     C35      CTL2    -0.180000       12.0110           0
      5727 MEMB     43       POPC     H5X      HAL2     0.900000E-01   1.00800           0
      5728 MEMB     43       POPC     H5Y      HAL2     0.900000E-01   1.00800           0
      5729 MEMB     43       POPC     C36      CTL2    -0.180000       12.0110           0
      5730 MEMB     43       POPC     H6X      HAL2     0.900000E-01   1.00800           0
      5731 MEMB     43       POPC     H6Y      HAL2     0.900000E-01   1.00800           0
      5732 MEMB     43       POPC     C37      CTL2    -0.180000       12.0110           0
      5733 MEMB     43       POPC     H7X      HAL2     0.900000E-01   1.00800           0
      5734 MEMB     43       POPC     H7Y      HAL2     0.900000E-01   1.00800           0
      5735 MEMB     43       POPC     C38      CTL2    -0.180000       12.0110           0
      5736 MEMB     43       POPC     H8X      HAL2     0.900000E-01   1.00800           0
      5737 MEMB     43       POPC     H8Y      HAL2     0.900000E-01   1.00800           0
      5738 MEMB     43       POPC     C39      CTL2    -0.180000       12.0110           0
      5739 MEMB     43       POPC     H9X      HAL2     0.900000E-01   1.00800           0
      5740 MEMB     43       POPC     H9Y      HAL2     0.900000E-01   1.00800           0
      5741 MEMB     43       POPC     C310     CTL2    -0.180000       12.0110           0
      5742 MEMB     43       POPC     H10X     HAL2     0.900000E-01   1.00800           0
      5743 MEMB     43       POPC     H10Y     HAL2     0.900000E-01   1.00800           0
      5744 MEMB     43       POPC     C311     CTL2    -0.180000       12.0110           0
      5745 MEMB     43       POPC     H11X     HAL2     0.900000E-01   1.00800           0
      5746 MEMB     43       POPC     H11Y     HAL2     0.900000E-01   1.00800           0
      5747 MEMB     43       POPC     C312     CTL2    -0.180000       12.0110           0
      5748 MEMB     43       POPC     H12X     HAL2     0.900000E-01   1.00800           0
      5749 MEMB     43       POPC     H12Y     HAL2     0.900000E-01   1.00800           0
      5750 MEMB     43       POPC     C313     CTL2    -0.180000       12.0110           0
      5751 MEMB     43       POPC     H13X     HAL2     0.900000E-01   1.00800           0
      5752 MEMB     43       POPC     H13Y     HAL2     0.900000E-01   1.00800           0
      5753 MEMB     43       POPC     C314     CTL2    -0.180000       12.0110           0
      5754 MEMB     43       POPC     H14X     HAL2     0.900000E-01   1.00800           0
      5755 MEMB     43       POPC     H14Y     HAL2     0.900000E-01   1.00800           0
      5756 MEMB     43       POPC     C315     CTL2    -0.180000       12.0110           0
      5757 MEMB     43       POPC     H15X     HAL2     0.900000E-01   1.00800           0
      5758 MEMB     43       POPC     H15Y     HAL2     0.900000E-01   1.00800           0
      5759 MEMB     43       POPC     C316     CTL3    -0.270000       12.0110           0
      5760 MEMB     43       POPC     H16X     HAL3     0.900000E-01   1.00800           0
      5761 MEMB     43       POPC     H16Y     HAL3     0.900000E-01   1.00800           0
      5762 MEMB     43       POPC     H16Z     HAL3     0.900000E-01   1.00800           0
      5763 MEMB     44       POPC     N        NTL     -0.600000       14.0070           0
      5764 MEMB     44       POPC     C12      CTL2    -0.100000       12.0110           0
      5765 MEMB     44       POPC     H12A     HL       0.250000       1.00800           0
      5766 MEMB     44       POPC     H12B     HL       0.250000       1.00800           0
      5767 MEMB     44       POPC     C13      CTL5    -0.350000       12.0110           0
      5768 MEMB     44       POPC     H13A     HL       0.250000       1.00800           0
      5769 MEMB     44       POPC     H13B     HL       0.250000       1.00800           0
      5770 MEMB     44       POPC     H13C     HL       0.250000       1.00800           0
      5771 MEMB     44       POPC     C14      CTL5    -0.350000       12.0110           0
      5772 MEMB     44       POPC     H14A     HL       0.250000       1.00800           0
      5773 MEMB     44       POPC     H14B     HL       0.250000       1.00800           0
      5774 MEMB     44       POPC     H14C     HL       0.250000       1.00800           0
      5775 MEMB     44       POPC     C15      CTL5    -0.350000       12.0110           0
      5776 MEMB     44       POPC     H15A     HL       0.250000       1.00800           0
      5777 MEMB     44       POPC     H15B     HL       0.250000       1.00800           0
      5778 MEMB     44       POPC     H15C     HL       0.250000       1.00800           0
      5779 MEMB     44       POPC     C11      CTL2    -0.800000E-01   12.0110           0
      5780 MEMB     44       POPC     H11A     HAL2     0.900000E-01   1.00800           0
      5781 MEMB     44       POPC     H11B     HAL2     0.900000E-01   1.00800           0
      5782 MEMB     44       POPC     P        PL       1.50000        30.9740           0
      5783 MEMB     44       POPC     O13      O2L     -0.780000       15.9994           0
      5784 MEMB     44       POPC     O14      O2L     -0.780000       15.9994           0
      5785 MEMB     44       POPC     O12      OSLP    -0.570000       15.9994           0
      5786 MEMB     44       POPC     O11      OSLP    -0.570000       15.9994           0
      5787 MEMB     44       POPC     C1       CTL2    -0.800000E-01   12.0110           0
      5788 MEMB     44       POPC     HA       HAL2     0.900000E-01   1.00800           0
      5789 MEMB     44       POPC     HB       HAL2     0.900000E-01   1.00800           0
      5790 MEMB     44       POPC     C2       CTL1     0.170000       12.0110           0
      5791 MEMB     44       POPC     HS       HAL1     0.900000E-01   1.00800           0
      5792 MEMB     44       POPC     O21      OSL     -0.490000       15.9994           0
      5793 MEMB     44       POPC     C21      CL       0.900000       12.0110           0
      5794 MEMB     44       POPC     O22      OBL     -0.630000       15.9994           0
      5795 MEMB     44       POPC     C22      CTL2    -0.220000       12.0110           0
      5796 MEMB     44       POPC     H2R      HAL2     0.900000E-01   1.00800           0
      5797 MEMB     44       POPC     H2S      HAL2     0.900000E-01   1.00800           0
      5798 MEMB     44       POPC     C3       CTL2     0.800000E-01   12.0110           0
      5799 MEMB     44       POPC     HX       HAL2     0.900000E-01   1.00800           0
      5800 MEMB     44       POPC     HY       HAL2     0.900000E-01   1.00800           0
      5801 MEMB     44       POPC     O31      OSL     -0.490000       15.9994           0
      5802 MEMB     44       POPC     C31      CL       0.900000       12.0110           0
      5803 MEMB     44       POPC     O32      OBL     -0.630000       15.9994           0
      5804 MEMB     44       POPC     C32      CTL2    -0.220000       12.0110           0
      5805 MEMB     44       POPC     H2X      HAL2     0.900000E-01   1.00800           0
      5806 MEMB     44       POPC     H2Y      HAL2     0.900000E-01   1.00800           0
      5807 MEMB     44       POPC     C23      CTL2    -0.180000       12.0110           0
      5808 MEMB     44       POPC     H3R      HAL2     0.900000E-01   1.00800           0
      5809 MEMB     44       POPC     H3S      HAL2     0.900000E-01   1.00800           0
      5810 MEMB     44       POPC     C24      CTL2    -0.180000       12.0110           0
      5811 MEMB     44       POPC     H4R      HAL2     0.900000E-01   1.00800           0
      5812 MEMB     44       POPC     H4S      HAL2     0.900000E-01   1.00800           0
      5813 MEMB     44       POPC     C25      CTL2    -0.180000       12.0110           0
      5814 MEMB     44       POPC     H5R      HAL2     0.900000E-01   1.00800           0
      5815 MEMB     44       POPC     H5S      HAL2     0.900000E-01   1.00800           0
      5816 MEMB     44       POPC     C26      CTL2    -0.180000       12.0110           0
      5817 MEMB     44       POPC     H6R      HAL2     0.900000E-01   1.00800           0
      5818 MEMB     44       POPC     H6S      HAL2     0.900000E-01   1.00800           0
      5819 MEMB     44       POPC     C27      CTL2    -0.180000       12.0110           0
      5820 MEMB     44       POPC     H7R      HAL2     0.900000E-01   1.00800           0
      5821 MEMB     44       POPC     H7S      HAL2     0.900000E-01   1.00800           0
      5822 MEMB     44       POPC     C28      CTL2    -0.180000       12.0110           0
      5823 MEMB     44       POPC     H8R      HAL2     0.900000E-01   1.00800           0
      5824 MEMB     44       POPC     H8S      HAL2     0.900000E-01   1.00800           0
      5825 MEMB     44       POPC     C29      CEL1    -0.150000       12.0110           0
      5826 MEMB     44       POPC     H91      HEL1     0.150000       1.00800           0
      5827 MEMB     44       POPC     C210     CEL1    -0.150000       12.0110           0
      5828 MEMB     44       POPC     H101     HEL1     0.150000       1.00800           0
      5829 MEMB     44       POPC     C211     CTL2    -0.180000       12.0110           0
      5830 MEMB     44       POPC     H11R     HAL2     0.900000E-01   1.00800           0
      5831 MEMB     44       POPC     H11S     HAL2     0.900000E-01   1.00800           0
      5832 MEMB     44       POPC     C212     CTL2    -0.180000       12.0110           0
      5833 MEMB     44       POPC     H12R     HAL2     0.900000E-01   1.00800           0
      5834 MEMB     44       POPC     H12S     HAL2     0.900000E-01   1.00800           0
      5835 MEMB     44       POPC     C213     CTL2    -0.180000       12.0110           0
      5836 MEMB     44       POPC     H13R     HAL2     0.900000E-01   1.00800           0
      5837 MEMB     44       POPC     H13S     HAL2     0.900000E-01   1.00800           0
      5838 MEMB     44       POPC     C214     CTL2    -0.180000       12.0110           0
      5839 MEMB     44       POPC     H14R     HAL2     0.900000E-01   1.00800           0
      5840 MEMB     44       POPC     H14S     HAL2     0.900000E-01   1.00800           0
      5841 MEMB     44       POPC     C215     CTL2    -0.180000       12.0110           0
      5842 MEMB     44       POPC     H15R     HAL2     0.900000E-01   1.00800           0
      5843 MEMB     44       POPC     H15S     HAL2     0.900000E-01   1.00800           0
      5844 MEMB     44       POPC     C216     CTL2    -0.180000       12.0110           0
      5845 MEMB     44       POPC     H16R     HAL2     0.900000E-01   1.00800           0
      5846 MEMB     44       POPC     H16S     HAL2     0.900000E-01   1.00800           0
      5847 MEMB     44       POPC     C217     CTL2    -0.180000       12.0110           0
      5848 MEMB     44       POPC     H17R     HAL2     0.900000E-01   1.00800           0
      5849 MEMB     44       POPC     H17S     HAL2     0.900000E-01   1.00800           0
      5850 MEMB     44       POPC     C218     CTL3    -0.270000       12.0110           0
      5851 MEMB     44       POPC     H18R     HAL3     0.900000E-01   1.00800           0
      5852 MEMB     44       POPC     H18S     HAL3     0.900000E-01   1.00800           0
      5853 MEMB     44       POPC     H18T     HAL3     0.900000E-01   1.00800           0
      5854 MEMB     44       POPC     C33      CTL2    -0.180000       12.0110           0
      5855 MEMB     44       POPC     H3X      HAL2     0.900000E-01   1.00800           0
      5856 MEMB     44       POPC     H3Y      HAL2     0.900000E-01   1.00800           0
      5857 MEMB     44       POPC     C34      CTL2    -0.180000       12.0110           0
      5858 MEMB     44       POPC     H4X      HAL2     0.900000E-01   1.00800           0
      5859 MEMB     44       POPC     H4Y      HAL2     0.900000E-01   1.00800           0
      5860 MEMB     44       POPC     C35      CTL2    -0.180000       12.0110           0
      5861 MEMB     44       POPC     H5X      HAL2     0.900000E-01   1.00800           0
      5862 MEMB     44       POPC     H5Y      HAL2     0.900000E-01   1.00800           0
      5863 MEMB     44       POPC     C36      CTL2    -0.180000       12.0110           0
      5864 MEMB     44       POPC     H6X      HAL2     0.900000E-01   1.00800           0
      5865 MEMB     44       POPC     H6Y      HAL2     0.900000E-01   1.00800           0
      5866 MEMB     44       POPC     C37      CTL2    -0.180000       12.0110           0
      5867 MEMB     44       POPC     H7X      HAL2     0.900000E-01   1.00800           0
      5868 MEMB     44       POPC     H7Y      HAL2     0.900000E-01   1.00800           0
      5869 MEMB     44       POPC     C38      CTL2    -0.180000       12.0110           0
      5870 MEMB     44       POPC     H8X      HAL2     0.900000E-01   1.00800           0
      5871 MEMB     44       POPC     H8Y      HAL2     0.900000E-01   1.00800           0
      5872 MEMB     44       POPC     C39      CTL2    -0.180000       12.0110           0
      5873 MEMB     44       POPC     H9X      HAL2     0.900000E-01   1.00800           0
      5874 MEMB     44       POPC     H9Y      HAL2     0.900000E-01   1.00800           0
      5875 MEMB     44       POPC     C310     CTL2    -0.180000       12.0110           0
      5876 MEMB     44       POPC     H10X     HAL2     0.900000E-01   1.00800           0
      5877 MEMB     44       POPC     H10Y     HAL2     0.900000E-01   1.00800           0
      5878 MEMB     44       POPC     C311     CTL2    -0.180000       12.0110           0
      5879 MEMB     44       POPC     H11X     HAL2     0.900000E-01   1.00800           0
      5880 MEMB     44       POPC     H11Y     HAL2     0.900000E-01   1.00800           0
      5881 MEMB     44       POPC     C312     CTL2    -0.180000       12.0110           0
      5882 MEMB     44       POPC     H12X     HAL2     0.900000E-01   1.00800           0
      5883 MEMB     44       POPC     H12Y     HAL2     0.900000E-01   1.00800           0
      5884 MEMB     44       POPC     C313     CTL2    -0.180000       12.0110           0
      5885 MEMB     44       POPC     H13X     HAL2     0.900000E-01   1.00800           0
      5886 MEMB     44       POPC     H13Y     HAL2     0.900000E-01   1.00800           0
      5887 MEMB     44       POPC     C314     CTL2    -0.180000       12.0110           0
      5888 MEMB     44       POPC     H14X     HAL2     0.900000E-01   1.00800           0
      5889 MEMB     44       POPC     H14Y     HAL2     0.900000E-01   1.00800           0
      5890 MEMB     44       POPC     C315     CTL2    -0.180000       12.0110           0
      5891 MEMB     44       POPC     H15X     HAL2     0.900000E-01   1.00800           0
      5892 MEMB     44       POPC     H15Y     HAL2     0.900000E-01   1.00800           0
      5893 MEMB     44       POPC     C316     CTL3    -0.270000       12.0110           0
      5894 MEMB     44       POPC     H16X     HAL3     0.900000E-01   1.00800           0
      5895 MEMB     44       POPC     H16Y     HAL3     0.900000E-01   1.00800           0
      5896 MEMB     44       POPC     H16Z     HAL3     0.900000E-01   1.00800           0
      5897 MEMB     45       POPC     N        NTL     -0.600000       14.0070           0
      5898 MEMB     45       POPC     C12      CTL2    -0.100000       12.0110           0
      5899 MEMB     45       POPC     H12A     HL       0.250000       1.00800           0
      5900 MEMB     45       POPC     H12B     HL       0.250000       1.00800           0
      5901 MEMB     45       POPC     C13      CTL5    -0.350000       12.0110           0
      5902 MEMB     45       POPC     H13A     HL       0.250000       1.00800           0
      5903 MEMB     45       POPC     H13B     HL       0.250000       1.00800           0
      5904 MEMB     45       POPC     H13C     HL       0.250000       1.00800           0
      5905 MEMB     45       POPC     C14      CTL5    -0.350000       12.0110           0
      5906 MEMB     45       POPC     H14A     HL       0.250000       1.00800           0
      5907 MEMB     45       POPC     H14B     HL       0.250000       1.00800           0
      5908 MEMB     45       POPC     H14C     HL       0.250000       1.00800           0
      5909 MEMB     45       POPC     C15      CTL5    -0.350000       12.0110           0
      5910 MEMB     45       POPC     H15A     HL       0.250000       1.00800           0
      5911 MEMB     45       POPC     H15B     HL       0.250000       1.00800           0
      5912 MEMB     45       POPC     H15C     HL       0.250000       1.00800           0
      5913 MEMB     45       POPC     C11      CTL2    -0.800000E-01   12.0110           0
      5914 MEMB     45       POPC     H11A     HAL2     0.900000E-01   1.00800           0
      5915 MEMB     45       POPC     H11B     HAL2     0.900000E-01   1.00800           0
      5916 MEMB     45       POPC     P        PL       1.50000        30.9740           0
      5917 MEMB     45       POPC     O13      O2L     -0.780000       15.9994           0
      5918 MEMB     45       POPC     O14      O2L     -0.780000       15.9994           0
      5919 MEMB     45       POPC     O12      OSLP    -0.570000       15.9994           0
      5920 MEMB     45       POPC     O11      OSLP    -0.570000       15.9994           0
      5921 MEMB     45       POPC     C1       CTL2    -0.800000E-01   12.0110           0
      5922 MEMB     45       POPC     HA       HAL2     0.900000E-01   1.00800           0
      5923 MEMB     45       POPC     HB       HAL2     0.900000E-01   1.00800           0
      5924 MEMB     45       POPC     C2       CTL1     0.170000       12.0110           0
      5925 MEMB     45       POPC     HS       HAL1     0.900000E-01   1.00800           0
      5926 MEMB     45       POPC     O21      OSL     -0.490000       15.9994           0
      5927 MEMB     45       POPC     C21      CL       0.900000       12.0110           0
      5928 MEMB     45       POPC     O22      OBL     -0.630000       15.9994           0
      5929 MEMB     45       POPC     C22      CTL2    -0.220000       12.0110           0
      5930 MEMB     45       POPC     H2R      HAL2     0.900000E-01   1.00800           0
      5931 MEMB     45       POPC     H2S      HAL2     0.900000E-01   1.00800           0
      5932 MEMB     45       POPC     C3       CTL2     0.800000E-01   12.0110           0
      5933 MEMB     45       POPC     HX       HAL2     0.900000E-01   1.00800           0
      5934 MEMB     45       POPC     HY       HAL2     0.900000E-01   1.00800           0
      5935 MEMB     45       POPC     O31      OSL     -0.490000       15.9994           0
      5936 MEMB     45       POPC     C31      CL       0.900000       12.0110           0
      5937 MEMB     45       POPC     O32      OBL     -0.630000       15.9994           0
      5938 MEMB     45       POPC     C32      CTL2    -0.220000       12.0110           0
      5939 MEMB     45       POPC     H2X      HAL2     0.900000E-01   1.00800           0
      5940 MEMB     45       POPC     H2Y      HAL2     0.900000E-01   1.00800           0
      5941 MEMB     45       POPC     C23      CTL2    -0.180000       12.0110           0
      5942 MEMB     45       POPC     H3R      HAL2     0.900000E-01   1.00800           0
      5943 MEMB     45       POPC     H3S      HAL2     0.900000E-01   1.00800           0
      5944 MEMB     45       POPC     C24      CTL2    -0.180000       12.0110           0
      5945 MEMB     45       POPC     H4R      HAL2     0.900000E-01   1.00800           0
      5946 MEMB     45       POPC     H4S      HAL2     0.900000E-01   1.00800           0
      5947 MEMB     45       POPC     C25      CTL2    -0.180000       12.0110           0
      5948 MEMB     45       POPC     H5R      HAL2     0.900000E-01   1.00800           0
      5949 MEMB     45       POPC     H5S      HAL2     0.900000E-01   1.00800           0
      5950 MEMB     45       POPC     C26      CTL2    -0.180000       12.0110           0
      5951 MEMB     45       POPC     H6R      HAL2     0.900000E-01   1.00800           0
      5952 MEMB     45       POPC     H6S      HAL2     0.900000E-01   1.00800           0
      5953 MEMB     45       POPC     C27      CTL2    -0.180000       12.0110           0
      5954 MEMB     45       POPC     H7R      HAL2     0.900000E-01   1.00800           0
      5955 MEMB     45       POPC     H7S      HAL2     0.900000E-01   1.00800           0
      5956 MEMB     45       POPC     C28      CTL2    -0.180000       12.0110           0
      5957 MEMB     45       POPC     H8R      HAL2     0.900000E-01   1.00800           0
      5958 MEMB     45       POPC     H8S      HAL2     0.900000E-01   1.00800           0
      5959 MEMB     45       POPC     C29      CEL1    -0.150000       12.0110           0
      5960 MEMB     45       POPC     H91      HEL1     0.150000       1.00800           0
      5961 MEMB     45       POPC     C210     CEL1    -0.150000       12.0110           0
      5962 MEMB     45       POPC     H101     HEL1     0.150000       1.00800           0
      5963 MEMB     45       POPC     C211     CTL2    -0.180000       12.0110           0
      5964 MEMB     45       POPC     H11R     HAL2     0.900000E-01   1.00800           0
      5965 MEMB     45       POPC     H11S     HAL2     0.900000E-01   1.00800           0
      5966 MEMB     45       POPC     C212     CTL2    -0.180000       12.0110           0
      5967 MEMB     45       POPC     H12R     HAL2     0.900000E-01   1.00800           0
      5968 MEMB     45       POPC     H12S     HAL2     0.900000E-01   1.00800           0
      5969 MEMB     45       POPC     C213     CTL2    -0.180000       12.0110           0
      5970 MEMB     45       POPC     H13R     HAL2     0.900000E-01   1.00800           0
      5971 MEMB     45       POPC     H13S     HAL2     0.900000E-01   1.00800           0
      5972 MEMB     45       POPC     C214     CTL2    -0.180000       12.0110           0
      5973 MEMB     45       POPC     H14R     HAL2     0.900000E-01   1.00800           0
      5974 MEMB     45       POPC     H14S     HAL2     0.900000E-01   1.00800           0
      5975 MEMB     45       POPC     C215     CTL2    -0.180000       12.0110           0
      5976 MEMB     45       POPC     H15R     HAL2     0.900000E-01   1.00800           0
      5977 MEMB     45       POPC     H15S     HAL2     0.900000E-01   1.00800           0
      5978 MEMB     45       POPC     C216     CTL2    -0.180000       12.0110           0
      5979 MEMB     45       POPC     H16R     HAL2     0.900000E-01   1.00800           0
      5980 MEMB     45       POPC     H16S     HAL2     0.900000E-01   1.00800           0
      5981 MEMB     45       POPC     C217     CTL2    -0.180000       12.0110           0
      5982 MEMB     45       POPC     H17R     HAL2     0.900000E-01   1.00800           0
      5983 MEMB     45       POPC     H17S     HAL2     0.900000E-01   1.00800           0
      5984 MEMB     45       POPC     C218     CTL3    -0.270000       12.0110           0
      5985 MEMB     45       POPC     H18R     HAL3     0.900000E-01   1.00800           0
      5986 MEMB     45       POPC     H18S     HAL3     0.900000E-01   1.00800           0
      5987 MEMB     45       POPC     H18T     HAL3     0.900000E-01   1.00800           0
      5988 MEMB     45       POPC     C33      CTL2    -0.180000       12.0110           0
      5989 MEMB     45       POPC     H3X      HAL2     0.900000E-01   1.00800           0
      5990 MEMB     45       POPC     H3Y      HAL2     0.900000E-01   1.00800           0
      5991 MEMB     45       POPC     C34      CTL2    -0.180000       12.0110           0
      5992 MEMB     45       POPC     H4X      HAL2     0.900000E-01   1.00800           0
      5993 MEMB     45       POPC     H4Y      HAL2     0.900000E-01   1.00800           0
      5994 MEMB     45       POPC     C35      CTL2    -0.180000       12.0110           0
      5995 MEMB     45       POPC     H5X      HAL2     0.900000E-01   1.00800           0
      5996 MEMB     45       POPC     H5Y      HAL2     0.900000E-01   1.00800           0
      5997 MEMB     45       POPC     C36      CTL2    -0.180000       12.0110           0
      5998 MEMB     45       POPC     H6X      HAL2     0.900000E-01   1.00800           0
      5999 MEMB     45       POPC     H6Y      HAL2     0.900000E-01   1.00800           0
      6000 MEMB     45       POPC     C37      CTL2    -0.180000       12.0110           0
      6001 MEMB     45       POPC     H7X      HAL2     0.900000E-01   1.00800           0
      6002 MEMB     45       POPC     H7Y      HAL2     0.900000E-01   1.00800           0
      6003 MEMB     45       POPC     C38      CTL2    -0.180000       12.0110           0
      6004 MEMB     45       POPC     H8X      HAL2     0.900000E-01   1.00800           0
      6005 MEMB     45       POPC     H8Y      HAL2     0.900000E-01   1.00800           0
      6006 MEMB     45       POPC     C39      CTL2    -0.180000       12.0110           0
      6007 MEMB     45       POPC     H9X      HAL2     0.900000E-01   1.00800           0
      6008 MEMB     45       POPC     H9Y      HAL2     0.900000E-01   1.00800           0
      6009 MEMB     45       POPC     C310     CTL2    -0.180000       12.0110           0
      6010 MEMB     45       POPC     H10X     HAL2     0.900000E-01   1.00800           0
      6011 MEMB     45       POPC     H10Y     HAL2     0.900000E-01   1.00800           0
      6012 MEMB     45       POPC     C311     CTL2    -0.180000       12.0110           0
      6013 MEMB     45       POPC     H11X     HAL2     0.900000E-01   1.00800           0
      6014 MEMB     45       POPC     H11Y     HAL2     0.900000E-01   1.00800           0
      6015 MEMB     45       POPC     C312     CTL2    -0.180000       12.0110           0
      6016 MEMB     45       POPC     H12X     HAL2     0.900000E-01   1.00800           0
      6017 MEMB     45       POPC     H12Y     HAL2     0.900000E-01   1.00800           0
      6018 MEMB     45       POPC     C313     CTL2    -0.180000       12.0110           0
      6019 MEMB     45       POPC     H13X     HAL2     0.900000E-01   1.00800           0
      6020 MEMB     45       POPC     H13Y     HAL2     0.900000E-01   1.00800           0
      6021 MEMB     45       POPC     C314     CTL2    -0.180000       12.0110           0
      6022 MEMB     45       POPC     H14X     HAL2     0.900000E-01   1.00800           0
      6023 MEMB     45       POPC     H14Y     HAL2     0.900000E-01   1.00800           0
      6024 MEMB     45       POPC     C315     CTL2    -0.180000       12.0110           0
      6025 MEMB     45       POPC     H15X     HAL2     0.900000E-01   1.00800           0
      6026 MEMB     45       POPC     H15Y     HAL2     0.900000E-01   1.00800           0
      6027 MEMB     45       POPC     C316     CTL3    -0.270000       12.0110           0
      6028 MEMB     45       POPC     H16X     HAL3     0.900000E-01   1.00800           0
      6029 MEMB     45       POPC     H16Y     HAL3     0.900000E-01   1.00800           0
      6030 MEMB     45       POPC     H16Z     HAL3     0.900000E-01   1.00800           0
      6031 MEMB     46       POPC     N        NTL     -0.600000       14.0070           0
      6032 MEMB     46       POPC     C12      CTL2    -0.100000       12.0110           0
      6033 MEMB     46       POPC     H12A     HL       0.250000       1.00800           0
      6034 MEMB     46       POPC     H12B     HL       0.250000       1.00800           0
      6035 MEMB     46       POPC     C13      CTL5    -0.350000       12.0110           0
      6036 MEMB     46       POPC     H13A     HL       0.250000       1.00800           0
      6037 MEMB     46       POPC     H13B     HL       0.250000       1.00800           0
      6038 MEMB     46       POPC     H13C     HL       0.250000       1.00800           0
      6039 MEMB     46       POPC     C14      CTL5    -0.350000       12.0110           0
      6040 MEMB     46       POPC     H14A     HL       0.250000       1.00800           0
      6041 MEMB     46       POPC     H14B     HL       0.250000       1.00800           0
      6042 MEMB     46       POPC     H14C     HL       0.250000       1.00800           0
      6043 MEMB     46       POPC     C15      CTL5    -0.350000       12.0110           0
      6044 MEMB     46       POPC     H15A     HL       0.250000       1.00800           0
      6045 MEMB     46       POPC     H15B     HL       0.250000       1.00800           0
      6046 MEMB     46       POPC     H15C     HL       0.250000       1.00800           0
      6047 MEMB     46       POPC     C11      CTL2    -0.800000E-01   12.0110           0
      6048 MEMB     46       POPC     H11A     HAL2     0.900000E-01   1.00800           0
      6049 MEMB     46       POPC     H11B     HAL2     0.900000E-01   1.00800           0
      6050 MEMB     46       POPC     P        PL       1.50000        30.9740           0
      6051 MEMB     46       POPC     O13      O2L     -0.780000       15.9994           0
      6052 MEMB     46       POPC     O14      O2L     -0.780000       15.9994           0
      6053 MEMB     46       POPC     O12      OSLP    -0.570000       15.9994           0
      6054 MEMB     46       POPC     O11      OSLP    -0.570000       15.9994           0
      6055 MEMB     46       POPC     C1       CTL2    -0.800000E-01   12.0110           0
      6056 MEMB     46       POPC     HA       HAL2     0.900000E-01   1.00800           0
      6057 MEMB     46       POPC     HB       HAL2     0.900000E-01   1.00800           0
      6058 MEMB     46       POPC     C2       CTL1     0.170000       12.0110           0
      6059 MEMB     46       POPC     HS       HAL1     0.900000E-01   1.00800           0
      6060 MEMB     46       POPC     O21      OSL     -0.490000       15.9994           0
      6061 MEMB     46       POPC     C21      CL       0.900000       12.0110           0
      6062 MEMB     46       POPC     O22      OBL     -0.630000       15.9994           0
      6063 MEMB     46       POPC     C22      CTL2    -0.220000       12.0110           0
      6064 MEMB     46       POPC     H2R      HAL2     0.900000E-01   1.00800           0
      6065 MEMB     46       POPC     H2S      HAL2     0.900000E-01   1.00800           0
      6066 MEMB     46       POPC     C3       CTL2     0.800000E-01   12.0110           0
      6067 MEMB     46       POPC     HX       HAL2     0.900000E-01   1.00800           0
      6068 MEMB     46       POPC     HY       HAL2     0.900000E-01   1.00800           0
      6069 MEMB     46       POPC     O31      OSL     -0.490000       15.9994           0
      6070 MEMB     46       POPC     C31      CL       0.900000       12.0110           0
      6071 MEMB     46       POPC     O32      OBL     -0.630000       15.9994           0
      6072 MEMB     46       POPC     C32      CTL2    -0.220000       12.0110           0
      6073 MEMB     46       POPC     H2X      HAL2     0.900000E-01   1.00800           0
      6074 MEMB     46       POPC     H2Y      HAL2     0.900000E-01   1.00800           0
      6075 MEMB     46       POPC     C23      CTL2    -0.180000       12.0110           0
      6076 MEMB     46       POPC     H3R      HAL2     0.900000E-01   1.00800           0
      6077 MEMB     46       POPC     H3S      HAL2     0.900000E-01   1.00800           0
      6078 MEMB     46       POPC     C24      CTL2    -0.180000       12.0110           0
      6079 MEMB     46       POPC     H4R      HAL2     0.900000E-01   1.00800           0
      6080 MEMB     46       POPC     H4S      HAL2     0.900000E-01   1.00800           0
      6081 MEMB     46       POPC     C25      CTL2    -0.180000       12.0110           0
      6082 MEMB     46       POPC     H5R      HAL2     0.900000E-01   1.00800           0
      6083 MEMB     46       POPC     H5S      HAL2     0.900000E-01   1.00800           0
      6084 MEMB     46       POPC     C26      CTL2    -0.180000       12.0110           0
      6085 MEMB     46       POPC     H6R      HAL2     0.900000E-01   1.00800           0
      6086 MEMB     46       POPC     H6S      HAL2     0.900000E-01   1.00800           0
      6087 MEMB     46       POPC     C27      CTL2    -0.180000       12.0110           0
      6088 MEMB     46       POPC     H7R      HAL2     0.900000E-01   1.00800           0
      6089 MEMB     46       POPC     H7S      HAL2     0.900000E-01   1.00800           0
      6090 MEMB     46       POPC     C28      CTL2    -0.180000       12.0110           0
      6091 MEMB     46       POPC     H8R      HAL2     0.900000E-01   1.00800           0
      6092 MEMB     46       POPC     H8S      HAL2     0.900000E-01   1.00800           0
      6093 MEMB     46       POPC     C29      CEL1    -0.150000       12.0110           0
      6094 MEMB     46       POPC     H91      HEL1     0.150000       1.00800           0
      6095 MEMB     46       POPC     C210     CEL1    -0.150000       12.0110           0
      6096 MEMB     46       POPC     H101     HEL1     0.150000       1.00800           0
      6097 MEMB     46       POPC     C211     CTL2    -0.180000       12.0110           0
      6098 MEMB     46       POPC     H11R     HAL2     0.900000E-01   1.00800           0
      6099 MEMB     46       POPC     H11S     HAL2     0.900000E-01   1.00800           0
      6100 MEMB     46       POPC     C212     CTL2    -0.180000       12.0110           0
      6101 MEMB     46       POPC     H12R     HAL2     0.900000E-01   1.00800           0
      6102 MEMB     46       POPC     H12S     HAL2     0.900000E-01   1.00800           0
      6103 MEMB     46       POPC     C213     CTL2    -0.180000       12.0110           0
      6104 MEMB     46       POPC     H13R     HAL2     0.900000E-01   1.00800           0
      6105 MEMB     46       POPC     H13S     HAL2     0.900000E-01   1.00800           0
      6106 MEMB     46       POPC     C214     CTL2    -0.180000       12.0110           0
      6107 MEMB     46       POPC     H14R     HAL2     0.900000E-01   1.00800           0
      6108 MEMB     46       POPC     H14S     HAL2     0.900000E-01   1.00800           0
      6109 MEMB     46       POPC     C215     CTL2    -0.180000       12.0110           0
      6110 MEMB     46       POPC     H15R     HAL2     0.900000E-01   1.00800           0
      6111 MEMB     46       POPC     H15S     HAL2     0.900000E-01   1.00800           0
      6112 MEMB     46       POPC     C216     CTL2    -0.180000       12.0110           0
      6113 MEMB     46       POPC     H16R     HAL2     0.900000E-01   1.00800           0
      6114 MEMB     46       POPC     H16S     HAL2     0.900000E-01   1.00800           0
      6115 MEMB     46       POPC     C217     CTL2    -0.180000       12.0110           0
      6116 MEMB     46       POPC     H17R     HAL2     0.900000E-01   1.00800           0
      6117 MEMB     46       POPC     H17S     HAL2     0.900000E-01   1.00800           0
      6118 MEMB     46       POPC     C218     CTL3    -0.270000       12.0110           0
      6119 MEMB     46       POPC     H18R     HAL3     0.900000E-01   1.00800           0
      6120 MEMB     46       POPC     H18S     HAL3     0.900000E-01   1.00800           0
      6121 MEMB     46       POPC     H18T     HAL3     0.900000E-01   1.00800           0
      6122 MEMB     46       POPC     C33      CTL2    -0.180000       12.0110           0
      6123 MEMB     46       POPC     H3X      HAL2     0.900000E-01   1.00800           0
      6124 MEMB     46       POPC     H3Y      HAL2     0.900000E-01   1.00800           0
      6125 MEMB     46       POPC     C34      CTL2    -0.180000       12.0110           0
      6126 MEMB     46       POPC     H4X      HAL2     0.900000E-01   1.00800           0
      6127 MEMB     46       POPC     H4Y      HAL2     0.900000E-01   1.00800           0
      6128 MEMB     46       POPC     C35      CTL2    -0.180000       12.0110           0
      6129 MEMB     46       POPC     H5X      HAL2     0.900000E-01   1.00800           0
      6130 MEMB     46       POPC     H5Y      HAL2     0.900000E-01   1.00800           0
      6131 MEMB     46       POPC     C36      CTL2    -0.180000       12.0110           0
      6132 MEMB     46       POPC     H6X      HAL2     0.900000E-01   1.00800           0
      6133 MEMB     46       POPC     H6Y      HAL2     0.900000E-01   1.00800           0
      6134 MEMB     46       POPC     C37      CTL2    -0.180000       12.0110           0
      6135 MEMB     46       POPC     H7X      HAL2     0.900000E-01   1.00800           0
      6136 MEMB     46       POPC     H7Y      HAL2     0.900000E-01   1.00800           0
      6137 MEMB     46       POPC     C38      CTL2    -0.180000       12.0110           0
      6138 MEMB     46       POPC     H8X      HAL2     0.900000E-01   1.00800           0
      6139 MEMB     46       POPC     H8Y      HAL2     0.900000E-01   1.00800           0
      6140 MEMB     46       POPC     C39      CTL2    -0.180000       12.0110           0
      6141 MEMB     46       POPC     H9X      HAL2     0.900000E-01   1.00800           0
      6142 MEMB     46       POPC     H9Y      HAL2     0.900000E-01   1.00800           0
      6143 MEMB     46       POPC     C310     CTL2    -0.180000       12.0110           0
      6144 MEMB     46       POPC     H10X     HAL2     0.900000E-01   1.00800           0
      6145 MEMB     46       POPC     H10Y     HAL2     0.900000E-01   1.00800           0
      6146 MEMB     46       POPC     C311     CTL2    -0.180000       12.0110           0
      6147 MEMB     46       POPC     H11X     HAL2     0.900000E-01   1.00800           0
      6148 MEMB     46       POPC     H11Y     HAL2     0.900000E-01   1.00800           0
      6149 MEMB     46       POPC     C312     CTL2    -0.180000       12.0110           0
      6150 MEMB     46       POPC     H12X     HAL2     0.900000E-01   1.00800           0
      6151 MEMB     46       POPC     H12Y     HAL2     0.900000E-01   1.00800           0
      6152 MEMB     46       POPC     C313     CTL2    -0.180000       12.0110           0
      6153 MEMB     46       POPC     H13X     HAL2     0.900000E-01   1.00800           0
      6154 MEMB     46       POPC     H13Y     HAL2     0.900000E-01   1.00800           0
      6155 MEMB     46       POPC     C314     CTL2    -0.180000       12.0110           0
      6156 MEMB     46       POPC     H14X     HAL2     0.900000E-01   1.00800           0
      6157 MEMB     46       POPC     H14Y     HAL2     0.900000E-01   1.00800           0
      6158 MEMB     46       POPC     C315     CTL2    -0.180000       12.0110           0
      6159 MEMB     46       POPC     H15X     HAL2     0.900000E-01   1.00800           0
      6160 MEMB     46       POPC     H15Y     HAL2     0.900000E-01   1.00800           0
      6161 MEMB     46       POPC     C316     CTL3    -0.270000       12.0110           0
      6162 MEMB     46       POPC     H16X     HAL3     0.900000E-01   1.00800           0
      6163 MEMB     46       POPC     H16Y     HAL3     0.900000E-01   1.00800           0
      6164 MEMB     46       POPC     H16Z     HAL3     0.900000E-01   1.00800           0
      6165 MEMB     47       POPC     N        NTL     -0.600000       14.0070           0
      6166 MEMB     47       POPC     C12      CTL2    -0.100000       12.0110           0
      6167 MEMB     47       POPC     H12A     HL       0.250000       1.00800           0
      6168 MEMB     47       POPC     H12B     HL       0.250000       1.00800           0
      6169 MEMB     47       POPC     C13      CTL5    -0.350000       12.0110           0
      6170 MEMB     47       POPC     H13A     HL       0.250000       1.00800           0
      6171 MEMB     47       POPC     H13B     HL       0.250000       1.00800           0
      6172 MEMB     47       POPC     H13C     HL       0.250000       1.00800           0
      6173 MEMB     47       POPC     C14      CTL5    -0.350000       12.0110           0
      6174 MEMB     47       POPC     H14A     HL       0.250000       1.00800           0
      6175 MEMB     47       POPC     H14B     HL       0.250000       1.00800           0
      6176 MEMB     47       POPC     H14C     HL       0.250000       1.00800           0
      6177 MEMB     47       POPC     C15      CTL5    -0.350000       12.0110           0
      6178 MEMB     47       POPC     H15A     HL       0.250000       1.00800           0
      6179 MEMB     47       POPC     H15B     HL       0.250000       1.00800           0
      6180 MEMB     47       POPC     H15C     HL       0.250000       1.00800           0
      6181 MEMB     47       POPC     C11      CTL2    -0.800000E-01   12.0110           0
      6182 MEMB     47       POPC     H11A     HAL2     0.900000E-01   1.00800           0
      6183 MEMB     47       POPC     H11B     HAL2     0.900000E-01   1.00800           0
      6184 MEMB     47       POPC     P        PL       1.50000        30.9740           0
      6185 MEMB     47       POPC     O13      O2L     -0.780000       15.9994           0
      6186 MEMB     47       POPC     O14      O2L     -0.780000       15.9994           0
      6187 MEMB     47       POPC     O12      OSLP    -0.570000       15.9994           0
      6188 MEMB     47       POPC     O11      OSLP    -0.570000       15.9994           0
      6189 MEMB     47       POPC     C1       CTL2    -0.800000E-01   12.0110           0
      6190 MEMB     47       POPC     HA       HAL2     0.900000E-01   1.00800           0
      6191 MEMB     47       POPC     HB       HAL2     0.900000E-01   1.00800           0
      6192 MEMB     47       POPC     C2       CTL1     0.170000       12.0110           0
      6193 MEMB     47       POPC     HS       HAL1     0.900000E-01   1.00800           0
      6194 MEMB     47       POPC     O21      OSL     -0.490000       15.9994           0
      6195 MEMB     47       POPC     C21      CL       0.900000       12.0110           0
      6196 MEMB     47       POPC     O22      OBL     -0.630000       15.9994           0
      6197 MEMB     47       POPC     C22      CTL2    -0.220000       12.0110           0
      6198 MEMB     47       POPC     H2R      HAL2     0.900000E-01   1.00800           0
      6199 MEMB     47       POPC     H2S      HAL2     0.900000E-01   1.00800           0
      6200 MEMB     47       POPC     C3       CTL2     0.800000E-01   12.0110           0
      6201 MEMB     47       POPC     HX       HAL2     0.900000E-01   1.00800           0
      6202 MEMB     47       POPC     HY       HAL2     0.900000E-01   1.00800           0
      6203 MEMB     47       POPC     O31      OSL     -0.490000       15.9994           0
      6204 MEMB     47       POPC     C31      CL       0.900000       12.0110           0
      6205 MEMB     47       POPC     O32      OBL     -0.630000       15.9994           0
      6206 MEMB     47       POPC     C32      CTL2    -0.220000       12.0110           0
      6207 MEMB     47       POPC     H2X      HAL2     0.900000E-01   1.00800           0
      6208 MEMB     47       POPC     H2Y      HAL2     0.900000E-01   1.00800           0
      6209 MEMB     47       POPC     C23      CTL2    -0.180000       12.0110           0
      6210 MEMB     47       POPC     H3R      HAL2     0.900000E-01   1.00800           0
      6211 MEMB     47       POPC     H3S      HAL2     0.900000E-01   1.00800           0
      6212 MEMB     47       POPC     C24      CTL2    -0.180000       12.0110           0
      6213 MEMB     47       POPC     H4R      HAL2     0.900000E-01   1.00800           0
      6214 MEMB     47       POPC     H4S      HAL2     0.900000E-01   1.00800           0
      6215 MEMB     47       POPC     C25      CTL2    -0.180000       12.0110           0
      6216 MEMB     47       POPC     H5R      HAL2     0.900000E-01   1.00800           0
      6217 MEMB     47       POPC     H5S      HAL2     0.900000E-01   1.00800           0
      6218 MEMB     47       POPC     C26      CTL2    -0.180000       12.0110           0
      6219 MEMB     47       POPC     H6R      HAL2     0.900000E-01   1.00800           0
      6220 MEMB     47       POPC     H6S      HAL2     0.900000E-01   1.00800           0
      6221 MEMB     47       POPC     C27      CTL2    -0.180000       12.0110           0
      6222 MEMB     47       POPC     H7R      HAL2     0.900000E-01   1.00800           0
      6223 MEMB     47       POPC     H7S      HAL2     0.900000E-01   1.00800           0
      6224 MEMB     47       POPC     C28      CTL2    -0.180000       12.0110           0
      6225 MEMB     47       POPC     H8R      HAL2     0.900000E-01   1.00800           0
      6226 MEMB     47       POPC     H8S      HAL2     0.900000E-01   1.00800           0
      6227 MEMB     47       POPC     C29      CEL1    -0.150000       12.0110           0
      6228 MEMB     47       POPC     H91      HEL1     0.150000       1.00800           0
      6229 MEMB     47       POPC     C210     CEL1    -0.150000       12.0110           0
      6230 MEMB     47       POPC     H101     HEL1     0.150000       1.00800           0
      6231 MEMB     47       POPC     C211     CTL2    -0.180000       12.0110           0
      6232 MEMB     47       POPC     H11R     HAL2     0.900000E-01   1.00800           0
      6233 MEMB     47       POPC     H11S     HAL2     0.900000E-01   1.00800           0
      6234 MEMB     47       POPC     C212     CTL2    -0.180000       12.0110           0
      6235 MEMB     47       POPC     H12R     HAL2     0.900000E-01   1.00800           0
      6236 MEMB     47       POPC     H12S     HAL2     0.900000E-01   1.00800           0
      6237 MEMB     47       POPC     C213     CTL2    -0.180000       12.0110           0
      6238 MEMB     47       POPC     H13R     HAL2     0.900000E-01   1.00800           0
      6239 MEMB     47       POPC     H13S     HAL2     0.900000E-01   1.00800           0
      6240 MEMB     47       POPC     C214     CTL2    -0.180000       12.0110           0
      6241 MEMB     47       POPC     H14R     HAL2     0.900000E-01   1.00800           0
      6242 MEMB     47       POPC     H14S     HAL2     0.900000E-01   1.00800           0
      6243 MEMB     47       POPC     C215     CTL2    -0.180000       12.0110           0
      6244 MEMB     47       POPC     H15R     HAL2     0.900000E-01   1.00800           0
      6245 MEMB     47       POPC     H15S     HAL2     0.900000E-01   1.00800           0
      6246 MEMB     47       POPC     C216     CTL2    -0.180000       12.0110           0
      6247 MEMB     47       POPC     H16R     HAL2     0.900000E-01   1.00800           0
      6248 MEMB     47       POPC     H16S     HAL2     0.900000E-01   1.00800           0
      6249 MEMB     47       POPC     C217     CTL2    -0.180000       12.0110           0
      6250 MEMB     47       POPC     H17R     HAL2     0.900000E-01   1.00800           0
      6251 MEMB     47       POPC     H17S     HAL2     0.900000E-01   1.00800           0
      6252 MEMB     47       POPC     C218     CTL3    -0.270000       12.0110           0
      6253 MEMB     47       POPC     H18R     HAL3     0.900000E-01   1.00800           0
      6254 MEMB     47       POPC     H18S     HAL3     0.900000E-01   1.00800           0
      6255 MEMB     47       POPC     H18T     HAL3     0.900000E-01   1.00800           0
      6256 MEMB     47       POPC     C33      CTL2    -0.180000       12.0110           0
      6257 MEMB     47       POPC     H3X      HAL2     0.900000E-01   1.00800           0
      6258 MEMB     47       POPC     H3Y      HAL2     0.900000E-01   1.00800           0
      6259 MEMB     47       POPC     C34      CTL2    -0.180000       12.0110           0
      6260 MEMB     47       POPC     H4X      HAL2     0.900000E-01   1.00800           0
      6261 MEMB     47       POPC     H4Y      HAL2     0.900000E-01   1.00800           0
      6262 MEMB     47       POPC     C35      CTL2    -0.180000       12.0110           0
      6263 MEMB     47       POPC     H5X      HAL2     0.900000E-01   1.00800           0
      6264 MEMB     47       POPC     H5Y      HAL2     0.900000E-01   1.00800           0
      6265 MEMB     47       POPC     C36      CTL2    -0.180000       12.0110           0
      6266 MEMB     47       POPC     H6X      HAL2     0.900000E-01   1.00800           0
      6267 MEMB     47       POPC     H6Y      HAL2     0.900000E-01   1.00800           0
      6268 MEMB     47       POPC     C37      CTL2    -0.180000       12.0110           0
      6269 MEMB     47       POPC     H7X      HAL2     0.900000E-01   1.00800           0
      6270 MEMB     47       POPC     H7Y      HAL2     0.900000E-01   1.00800           0
      6271 MEMB     47       POPC     C38      CTL2    -0.180000       12.0110           0
      6272 MEMB     47       POPC     H8X      HAL2     0.900000E-01   1.00800           0
      6273 MEMB     47       POPC     H8Y      HAL2     0.900000E-01   1.00800           0
      6274 MEMB     47       POPC     C39      CTL2    -0.180000       12.0110           0
      6275 MEMB     47       POPC     H9X      HAL2     0.900000E-01   1.00800           0
      6276 MEMB     47       POPC     H9Y      HAL2     0.900000E-01   1.00800           0
      6277 MEMB     47       POPC     C310     CTL2    -0.180000       12.0110           0
      6278 MEMB     47       POPC     H10X     HAL2     0.900000E-01   1.00800           0
      6279 MEMB     47       POPC     H10Y     HAL2     0.900000E-01   1.00800           0
      6280 MEMB     47       POPC     C311     CTL2    -0.180000       12.0110           0
      6281 MEMB     47       POPC     H11X     HAL2     0.900000E-01   1.00800           0
      6282 MEMB     47       POPC     H11Y     HAL2     0.900000E-01   1.00800           0
      6283 MEMB     47       POPC     C312     CTL2    -0.180000       12.0110           0
      6284 MEMB     47       POPC     H12X     HAL2     0.900000E-01   1.00800           0
      6285 MEMB     47       POPC     H12Y     HAL2     0.900000E-01   1.00800           0
      6286 MEMB     47       POPC     C313     CTL2    -0.180000       12.0110           0
      6287 MEMB     47       POPC     H13X     HAL2     0.900000E-01   1.00800           0
      6288 MEMB     47       POPC     H13Y     HAL2     0.900000E-01   1.00800           0
      6289 MEMB     47       POPC     C314     CTL2    -0.180000       12.0110           0
      6290 MEMB     47       POPC     H14X     HAL2     0.900000E-01   1.00800           0
      6291 MEMB     47       POPC     H14Y     HAL2     0.900000E-01   1.00800           0
      6292 MEMB     47       POPC     C315     CTL2    -0.180000       12.0110           0
      6293 MEMB     47       POPC     H15X     HAL2     0.900000E-01   1.00800           0
      6294 MEMB     47       POPC     H15Y     HAL2     0.900000E-01   1.00800           0
      6295 MEMB     47       POPC     C316     CTL3    -0.270000       12.0110           0
      6296 MEMB     47       POPC     H16X     HAL3     0.900000E-01   1.00800           0
      6297 MEMB     47       POPC     H16Y     HAL3     0.900000E-01   1.00800           0
      6298 MEMB     47       POPC     H16Z     HAL3     0.900000E-01   1.00800           0
      6299 MEMB     48       POPC     N        NTL     -0.600000       14.0070           0
      6300 MEMB     48       POPC     C12      CTL2    -0.100000       12.0110           0
      6301 MEMB     48       POPC     H12A     HL       0.250000       1.00800           0
      6302 MEMB     48       POPC     H12B     HL       0.250000       1.00800           0
      6303 MEMB     48       POPC     C13      CTL5    -0.350000       12.0110           0
      6304 MEMB     48       POPC     H13A     HL       0.250000       1.00800           0
      6305 MEMB     48       POPC     H13B     HL       0.250000       1.00800           0
      6306 MEMB     48       POPC     H13C     HL       0.250000       1.00800           0
      6307 MEMB     48       POPC     C14      CTL5    -0.350000       12.0110           0
      6308 MEMB     48       POPC     H14A     HL       0.250000       1.00800           0
      6309 MEMB     48       POPC     H14B     HL       0.250000       1.00800           0
      6310 MEMB     48       POPC     H14C     HL       0.250000       1.00800           0
      6311 MEMB     48       POPC     C15      CTL5    -0.350000       12.0110           0
      6312 MEMB     48       POPC     H15A     HL       0.250000       1.00800           0
      6313 MEMB     48       POPC     H15B     HL       0.250000       1.00800           0
      6314 MEMB     48       POPC     H15C     HL       0.250000       1.00800           0
      6315 MEMB     48       POPC     C11      CTL2    -0.800000E-01   12.0110           0
      6316 MEMB     48       POPC     H11A     HAL2     0.900000E-01   1.00800           0
      6317 MEMB     48       POPC     H11B     HAL2     0.900000E-01   1.00800           0
      6318 MEMB     48       POPC     P        PL       1.50000        30.9740           0
      6319 MEMB     48       POPC     O13      O2L     -0.780000       15.9994           0
      6320 MEMB     48       POPC     O14      O2L     -0.780000       15.9994           0
      6321 MEMB     48       POPC     O12      OSLP    -0.570000       15.9994           0
      6322 MEMB     48       POPC     O11      OSLP    -0.570000       15.9994           0
      6323 MEMB     48       POPC     C1       CTL2    -0.800000E-01   12.0110           0
      6324 MEMB     48       POPC     HA       HAL2     0.900000E-01   1.00800           0
      6325 MEMB     48       POPC     HB       HAL2     0.900000E-01   1.00800           0
      6326 MEMB     48       POPC     C2       CTL1     0.170000       12.0110           0
      6327 MEMB     48       POPC     HS       HAL1     0.900000E-01   1.00800           0
      6328 MEMB     48       POPC     O21      OSL     -0.490000       15.9994           0
      6329 MEMB     48       POPC     C21      CL       0.900000       12.0110           0
      6330 MEMB     48       POPC     O22      OBL     -0.630000       15.9994           0
      6331 MEMB     48       POPC     C22      CTL2    -0.220000       12.0110           0
      6332 MEMB     48       POPC     H2R      HAL2     0.900000E-01   1.00800           0
      6333 MEMB     48       POPC     H2S      HAL2     0.900000E-01   1.00800           0
      6334 MEMB     48       POPC     C3       CTL2     0.800000E-01   12.0110           0
      6335 MEMB     48       POPC     HX       HAL2     0.900000E-01   1.00800           0
      6336 MEMB     48       POPC     HY       HAL2     0.900000E-01   1.00800           0
      6337 MEMB     48       POPC     O31      OSL     -0.490000       15.9994           0
      6338 MEMB     48       POPC     C31      CL       0.900000       12.0110           0
      6339 MEMB     48       POPC     O32      OBL     -0.630000       15.9994           0
      6340 MEMB     48       POPC     C32      CTL2    -0.220000       12.0110           0
      6341 MEMB     48       POPC     H2X      HAL2     0.900000E-01   1.00800           0
      6342 MEMB     48       POPC     H2Y      HAL2     0.900000E-01   1.00800           0
      6343 MEMB     48       POPC     C23      CTL2    -0.180000       12.0110           0
      6344 MEMB     48       POPC     H3R      HAL2     0.900000E-01   1.00800           0
      6345 MEMB     48       POPC     H3S      HAL2     0.900000E-01   1.00800           0
      6346 MEMB     48       POPC     C24      CTL2    -0.180000       12.0110           0
      6347 MEMB     48       POPC     H4R      HAL2     0.900000E-01   1.00800           0
      6348 MEMB     48       POPC     H4S      HAL2     0.900000E-01   1.00800           0
      6349 MEMB     48       POPC     C25      CTL2    -0.180000       12.0110           0
      6350 MEMB     48       POPC     H5R      HAL2     0.900000E-01   1.00800           0
      6351 MEMB     48       POPC     H5S      HAL2     0.900000E-01   1.00800           0
      6352 MEMB     48       POPC     C26      CTL2    -0.180000       12.0110           0
      6353 MEMB     48       POPC     H6R      HAL2     0.900000E-01   1.00800           0
      6354 MEMB     48       POPC     H6S      HAL2     0.900000E-01   1.00800           0
      6355 MEMB     48       POPC     C27      CTL2    -0.180000       12.0110           0
      6356 MEMB     48       POPC     H7R      HAL2     0.900000E-01   1.00800           0
      6357 MEMB     48       POPC     H7S      HAL2     0.900000E-01   1.00800           0
      6358 MEMB     48       POPC     C28      CTL2    -0.180000       12.0110           0
      6359 MEMB     48       POPC     H8R      HAL2     0.900000E-01   1.00800           0
      6360 MEMB     48       POPC     H8S      HAL2     0.900000E-01   1.00800           0
      6361 MEMB     48       POPC     C29      CEL1    -0.150000       12.0110           0
      6362 MEMB     48       POPC     H91      HEL1     0.150000       1.00800           0
      6363 MEMB     48       POPC     C210     CEL1    -0.150000       12.0110           0
      6364 MEMB     48       POPC     H101     HEL1     0.150000       1.00800           0
      6365 MEMB     48       POPC     C211     CTL2    -0.180000       12.0110           0
      6366 MEMB     48       POPC     H11R     HAL2     0.900000E-01   1.00800           0
      6367 MEMB     48       POPC     H11S     HAL2     0.900000E-01   1.00800           0
      6368 MEMB     48       POPC     C212     CTL2    -0.180000       12.0110           0
      6369 MEMB     48       POPC     H12R     HAL2     0.900000E-01   1.00800           0
      6370 MEMB     48       POPC     H12S     HAL2     0.900000E-01   1.00800           0
      6371 MEMB     48       POPC     C213     CTL2    -0.180000       12.0110           0
      6372 MEMB     48       POPC     H13R     HAL2     0.900000E-01   1.00800           0
      6373 MEMB     48       POPC     H13S     HAL2     0.900000E-01   1.00800           0
      6374 MEMB     48       POPC     C214     CTL2    -0.180000       12.0110           0
      6375 MEMB     48       POPC     H14R     HAL2     0.900000E-01   1.00800           0
      6376 MEMB     48       POPC     H14S     HAL2     0.900000E-01   1.00800           0
      6377 MEMB     48       POPC     C215     CTL2    -0.180000       12.0110           0
      6378 MEMB     48       POPC     H15R     HAL2     0.900000E-01   1.00800           0
      6379 MEMB     48       POPC     H15S     HAL2     0.900000E-01   1.00800           0
      6380 MEMB     48       POPC     C216     CTL2    -0.180000       12.0110           0
      6381 MEMB     48       POPC     H16R     HAL2     0.900000E-01   1.00800           0
      6382 MEMB     48       POPC     H16S     HAL2     0.900000E-01   1.00800           0
      6383 MEMB     48       POPC     C217     CTL2    -0.180000       12.0110           0
      6384 MEMB     48       POPC     H17R     HAL2     0.900000E-01   1.00800           0
      6385 MEMB     48       POPC     H17S     HAL2     0.900000E-01   1.00800           0
      6386 MEMB     48       POPC     C218     CTL3    -0.270000       12.0110           0
      6387 MEMB     48       POPC     H18R     HAL3     0.900000E-01   1.00800           0
      6388 MEMB     48       POPC     H18S     HAL3     0.900000E-01   1.00800           0
      6389 MEMB     48       POPC     H18T     HAL3     0.900000E-01   1.00800           0
      6390 MEMB     48       POPC     C33      CTL2    -0.180000       12.0110           0
      6391 MEMB     48       POPC     H3X      HAL2     0.900000E-01   1.00800           0
      6392 MEMB     48       POPC     H3Y      HAL2     0.900000E-01   1.00800           0
      6393 MEMB     48       POPC     C34      CTL2    -0.180000       12.0110           0
      6394 MEMB     48       POPC     H4X      HAL2     0.900000E-01   1.00800           0
      6395 MEMB     48       POPC     H4Y      HAL2     0.900000E-01   1.00800           0
      6396 MEMB     48       POPC     C35      CTL2    -0.180000       12.0110           0
      6397 MEMB     48       POPC     H5X      HAL2     0.900000E-01   1.00800           0
      6398 MEMB     48       POPC     H5Y      HAL2     0.900000E-01   1.00800           0
      6399 MEMB     48       POPC     C36      CTL2    -0.180000       12.0110           0
      6400 MEMB     48       POPC     H6X      HAL2     0.900000E-01   1.00800           0
      6401 MEMB     48       POPC     H6Y      HAL2     0.900000E-01   1.00800           0
      6402 MEMB     48       POPC     C37      CTL2    -0.180000       12.0110           0
      6403 MEMB     48       POPC     H7X      HAL2     0.900000E-01   1.00800           0
      6404 MEMB     48       POPC     H7Y      HAL2     0.900000E-01   1.00800           0
      6405 MEMB     48       POPC     C38      CTL2    -0.180000       12.0110           0
      6406 MEMB     48       POPC     H8X      HAL2     0.900000E-01   1.00800           0
      6407 MEMB     48       POPC     H8Y      HAL2     0.900000E-01   1.00800           0
      6408 MEMB     48       POPC     C39      CTL2    -0.180000       12.0110           0
      6409 MEMB     48       POPC     H9X      HAL2     0.900000E-01   1.00800           0
      6410 MEMB     48       POPC     H9Y      HAL2     0.900000E-01   1.00800           0
      6411 MEMB     48       POPC     C310     CTL2    -0.180000       12.0110           0
      6412 MEMB     48       POPC     H10X     HAL2     0.900000E-01   1.00800           0
      6413 MEMB     48       POPC     H10Y     HAL2     0.900000E-01   1.00800           0
      6414 MEMB     48       POPC     C311     CTL2    -0.180000       12.0110           0
      6415 MEMB     48       POPC     H11X     HAL2     0.900000E-01   1.00800           0
      6416 MEMB     48       POPC     H11Y     HAL2     0.900000E-01   1.00800           0
      6417 MEMB     48       POPC     C312     CTL2    -0.180000       12.0110           0
      6418 MEMB     48       POPC     H12X     HAL2     0.900000E-01   1.00800           0
      6419 MEMB     48       POPC     H12Y     HAL2     0.900000E-01   1.00800           0
      6420 MEMB     48       POPC     C313     CTL2    -0.180000       12.0110           0
      6421 MEMB     48       POPC     H13X     HAL2     0.900000E-01   1.00800           0
      6422 MEMB     48       POPC     H13Y     HAL2     0.900000E-01   1.00800           0
      6423 MEMB     48       POPC     C314     CTL2    -0.180000       12.0110           0
      6424 MEMB     48       POPC     H14X     HAL2     0.900000E-01   1.00800           0
      6425 MEMB     48       POPC     H14Y     HAL2     0.900000E-01   1.00800           0
      6426 MEMB     48       POPC     C315     CTL2    -0.180000       12.0110           0
      6427 MEMB     48       POPC     H15X     HAL2     0.900000E-01   1.00800           0
      6428 MEMB     48       POPC     H15Y     HAL2     0.900000E-01   1.00800           0
      6429 MEMB     48       POPC     C316     CTL3    -0.270000       12.0110           0
      6430 MEMB     48       POPC     H16X     HAL3     0.900000E-01   1.00800           0
      6431 MEMB     48       POPC     H16Y     HAL3     0.900000E-01   1.00800           0
      6432 MEMB     48       POPC     H16Z     HAL3     0.900000E-01   1.00800           0
      6433 MEMB     49       POPC     N        NTL     -0.600000       14.0070           0
      6434 MEMB     49       POPC     C12      CTL2    -0.100000       12.0110           0
      6435 MEMB     49       POPC     H12A     HL       0.250000       1.00800           0
      6436 MEMB     49       POPC     H12B     HL       0.250000       1.00800           0
      6437 MEMB     49       POPC     C13      CTL5    -0.350000       12.0110           0
      6438 MEMB     49       POPC     H13A     HL       0.250000       1.00800           0
      6439 MEMB     49       POPC     H13B     HL       0.250000       1.00800           0
      6440 MEMB     49       POPC     H13C     HL       0.250000       1.00800           0
      6441 MEMB     49       POPC     C14      CTL5    -0.350000       12.0110           0
      6442 MEMB     49       POPC     H14A     HL       0.250000       1.00800           0
      6443 MEMB     49       POPC     H14B     HL       0.250000       1.00800           0
      6444 MEMB     49       POPC     H14C     HL       0.250000       1.00800           0
      6445 MEMB     49       POPC     C15      CTL5    -0.350000       12.0110           0
      6446 MEMB     49       POPC     H15A     HL       0.250000       1.00800           0
      6447 MEMB     49       POPC     H15B     HL       0.250000       1.00800           0
      6448 MEMB     49       POPC     H15C     HL       0.250000       1.00800           0
      6449 MEMB     49       POPC     C11      CTL2    -0.800000E-01   12.0110           0
      6450 MEMB     49       POPC     H11A     HAL2     0.900000E-01   1.00800           0
      6451 MEMB     49       POPC     H11B     HAL2     0.900000E-01   1.00800           0
      6452 MEMB     49       POPC     P        PL       1.50000        30.9740           0
      6453 MEMB     49       POPC     O13      O2L     -0.780000       15.9994           0
      6454 MEMB     49       POPC     O14      O2L     -0.780000       15.9994           0
      6455 MEMB     49       POPC     O12      OSLP    -0.570000       15.9994           0
      6456 MEMB     49       POPC     O11      OSLP    -0.570000       15.9994           0
      6457 MEMB     49       POPC     C1       CTL2    -0.800000E-01   12.0110           0
      6458 MEMB     49       POPC     HA       HAL2     0.900000E-01   1.00800           0
      6459 MEMB     49       POPC     HB       HAL2     0.900000E-01   1.00800           0
      6460 MEMB     49       POPC     C2       CTL1     0.170000       12.0110           0
      6461 MEMB     49       POPC     HS       HAL1     0.900000E-01   1.00800           0
      6462 MEMB     49       POPC     O21      OSL     -0.490000       15.9994           0
      6463 MEMB     49       POPC     C21      CL       0.900000       12.0110           0
      6464 MEMB     49       POPC     O22      OBL     -0.630000       15.9994           0
      6465 MEMB     49       POPC     C22      CTL2    -0.220000       12.0110           0
      6466 MEMB     49       POPC     H2R      HAL2     0.900000E-01   1.00800           0
      6467 MEMB     49       POPC     H2S      HAL2     0.900000E-01   1.00800           0
      6468 MEMB     49       POPC     C3       CTL2     0.800000E-01   12.0110           0
      6469 MEMB     49       POPC     HX       HAL2     0.900000E-01   1.00800           0
      6470 MEMB     49       POPC     HY       HAL2     0.900000E-01   1.00800           0
      6471 MEMB     49       POPC     O31      OSL     -0.490000       15.9994           0
      6472 MEMB     49       POPC     C31      CL       0.900000       12.0110           0
      6473 MEMB     49       POPC     O32      OBL     -0.630000       15.9994           0
      6474 MEMB     49       POPC     C32      CTL2    -0.220000       12.0110           0
      6475 MEMB     49       POPC     H2X      HAL2     0.900000E-01   1.00800           0
      6476 MEMB     49       POPC     H2Y      HAL2     0.900000E-01   1.00800           0
      6477 MEMB     49       POPC     C23      CTL2    -0.180000       12.0110           0
      6478 MEMB     49       POPC     H3R      HAL2     0.900000E-01   1.00800           0
      6479 MEMB     49       POPC     H3S      HAL2     0.900000E-01   1.00800           0
      6480 MEMB     49       POPC     C24      CTL2    -0.180000       12.0110           0
      6481 MEMB     49       POPC     H4R      HAL2     0.900000E-01   1.00800           0
      6482 MEMB     49       POPC     H4S      HAL2     0.900000E-01   1.00800           0
      6483 MEMB     49       POPC     C25      CTL2    -0.180000       12.0110           0
      6484 MEMB     49       POPC     H5R      HAL2     0.900000E-01   1.00800           0
      6485 MEMB     49       POPC     H5S      HAL2     0.900000E-01   1.00800           0
      6486 MEMB     49       POPC     C26      CTL2    -0.180000       12.0110           0
      6487 MEMB     49       POPC     H6R      HAL2     0.900000E-01   1.00800           0
      6488 MEMB     49       POPC     H6S      HAL2     0.900000E-01   1.00800           0
      6489 MEMB     49       POPC     C27      CTL2    -0.180000       12.0110           0
      6490 MEMB     49       POPC     H7R      HAL2     0.900000E-01   1.00800           0
      6491 MEMB     49       POPC     H7S      HAL2     0.900000E-01   1.00800           0
      6492 MEMB     49       POPC     C28      CTL2    -0.180000       12.0110           0
      6493 MEMB     49       POPC     H8R      HAL2     0.900000E-01   1.00800           0
      6494 MEMB     49       POPC     H8S      HAL2     0.900000E-01   1.00800           0
      6495 MEMB     49       POPC     C29      CEL1    -0.150000       12.0110           0
      6496 MEMB     49       POPC     H91      HEL1     0.150000       1.00800           0
      6497 MEMB     49       POPC     C210     CEL1    -0.150000       12.0110           0
      6498 MEMB     49       POPC     H101     HEL1     0.150000       1.00800           0
      6499 MEMB     49       POPC     C211     CTL2    -0.180000       12.0110           0
      6500 MEMB     49       POPC     H11R     HAL2     0.900000E-01   1.00800           0
      6501 MEMB     49       POPC     H11S     HAL2     0.900000E-01   1.00800           0
      6502 MEMB     49       POPC     C212     CTL2    -0.180000       12.0110           0
      6503 MEMB     49       POPC     H12R     HAL2     0.900000E-01   1.00800           0
      6504 MEMB     49       POPC     H12S     HAL2     0.900000E-01   1.00800           0
      6505 MEMB     49       POPC     C213     CTL2    -0.180000       12.0110           0
      6506 MEMB     49       POPC     H13R     HAL2     0.900000E-01   1.00800           0
      6507 MEMB     49       POPC     H13S     HAL2     0.900000E-01   1.00800           0
      6508 MEMB     49       POPC     C214     CTL2    -0.180000       12.0110           0
      6509 MEMB     49       POPC     H14R     HAL2     0.900000E-01   1.00800           0
      6510 MEMB     49       POPC     H14S     HAL2     0.900000E-01   1.00800           0
      6511 MEMB     49       POPC     C215     CTL2    -0.180000       12.0110           0
      6512 MEMB     49       POPC     H15R     HAL2     0.900000E-01   1.00800           0
      6513 MEMB     49       POPC     H15S     HAL2     0.900000E-01   1.00800           0
      6514 MEMB     49       POPC     C216     CTL2    -0.180000       12.0110           0
      6515 MEMB     49       POPC     H16R     HAL2     0.900000E-01   1.00800           0
      6516 MEMB     49       POPC     H16S     HAL2     0.900000E-01   1.00800           0
      6517 MEMB     49       POPC     C217     CTL2    -0.180000       12.0110           0
      6518 MEMB     49       POPC     H17R     HAL2     0.900000E-01   1.00800           0
      6519 MEMB     49       POPC     H17S     HAL2     0.900000E-01   1.00800           0
      6520 MEMB     49       POPC     C218     CTL3    -0.270000       12.0110           0
      6521 MEMB     49       POPC     H18R     HAL3     0.900000E-01   1.00800           0
      6522 MEMB     49       POPC     H18S     HAL3     0.900000E-01   1.00800           0
      6523 MEMB     49       POPC     H18T     HAL3     0.900000E-01   1.00800           0
      6524 MEMB     49       POPC     C33      CTL2    -0.180000       12.0110           0
      6525 MEMB     49       POPC     H3X      HAL2     0.900000E-01   1.00800           0
      6526 MEMB     49       POPC     H3Y      HAL2     0.900000E-01   1.00800           0
      6527 MEMB     49       POPC     C34      CTL2    -0.180000       12.0110           0
      6528 MEMB     49       POPC     H4X      HAL2     0.900000E-01   1.00800           0
      6529 MEMB     49       POPC     H4Y      HAL2     0.900000E-01   1.00800           0
      6530 MEMB     49       POPC     C35      CTL2    -0.180000       12.0110           0
      6531 MEMB     49       POPC     H5X      HAL2     0.900000E-01   1.00800           0
      6532 MEMB     49       POPC     H5Y      HAL2     0.900000E-01   1.00800           0
      6533 MEMB     49       POPC     C36      CTL2    -0.180000       12.0110           0
      6534 MEMB     49       POPC     H6X      HAL2     0.900000E-01   1.00800           0
      6535 MEMB     49       POPC     H6Y      HAL2     0.900000E-01   1.00800           0
      6536 MEMB     49       POPC     C37      CTL2    -0.180000       12.0110           0
      6537 MEMB     49       POPC     H7X      HAL2     0.900000E-01   1.00800           0
      6538 MEMB     49       POPC     H7Y      HAL2     0.900000E-01   1.00800           0
      6539 MEMB     49       POPC     C38      CTL2    -0.180000       12.0110           0
      6540 MEMB     49       POPC     H8X      HAL2     0.900000E-01   1.00800           0
      6541 MEMB     49       POPC     H8Y      HAL2     0.900000E-01   1.00800           0
      6542 MEMB     49       POPC     C39      CTL2    -0.180000       12.0110           0
      6543 MEMB     49       POPC     H9X      HAL2     0.900000E-01   1.00800           0
      6544 MEMB     49       POPC     H9Y      HAL2     0.900000E-01   1.00800           0
      6545 MEMB     49       POPC     C310     CTL2    -0.180000       12.0110           0
      6546 MEMB     49       POPC     H10X     HAL2     0.900000E-01   1.00800           0
      6547 MEMB     49       POPC     H10Y     HAL2     0.900000E-01   1.00800           0
      6548 MEMB     49       POPC     C311     CTL2    -0.180000       12.0110           0
      6549 MEMB     49       POPC     H11X     HAL2     0.900000E-01   1.00800           0
      6550 MEMB     49       POPC     H11Y     HAL2     0.900000E-01   1.00800           0
      6551 MEMB     49       POPC     C312     CTL2    -0.180000       12.0110           0
      6552 MEMB     49       POPC     H12X     HAL2     0.900000E-01   1.00800           0
      6553 MEMB     49       POPC     H12Y     HAL2     0.900000E-01   1.00800           0
      6554 MEMB     49       POPC     C313     CTL2    -0.180000       12.0110           0
      6555 MEMB     49       POPC     H13X     HAL2     0.900000E-01   1.00800           0
      6556 MEMB     49       POPC     H13Y     HAL2     0.900000E-01   1.00800           0
      6557 MEMB     49       POPC     C314     CTL2    -0.180000       12.0110           0
      6558 MEMB     49       POPC     H14X     HAL2     0.900000E-01   1.00800           0
      6559 MEMB     49       POPC     H14Y     HAL2     0.900000E-01   1.00800           0
      6560 MEMB     49       POPC     C315     CTL2    -0.180000       12.0110           0
      6561 MEMB     49       POPC     H15X     HAL2     0.900000E-01   1.00800           0
      6562 MEMB     49       POPC     H15Y     HAL2     0.900000E-01   1.00800           0
      6563 MEMB     49       POPC     C316     CTL3    -0.270000       12.0110           0
      6564 MEMB     49       POPC     H16X     HAL3     0.900000E-01   1.00800           0
      6565 MEMB     49       POPC     H16Y     HAL3     0.900000E-01   1.00800           0
      6566 MEMB     49       POPC     H16Z     HAL3     0.900000E-01   1.00800           0
      6567 MEMB     50       POPC     N        NTL     -0.600000       14.0070           0
      6568 MEMB     50       POPC     C12      CTL2    -0.100000       12.0110           0
      6569 MEMB     50       POPC     H12A     HL       0.250000       1.00800           0
      6570 MEMB     50       POPC     H12B     HL       0.250000       1.00800           0
      6571 MEMB     50       POPC     C13      CTL5    -0.350000       12.0110           0
      6572 MEMB     50       POPC     H13A     HL       0.250000       1.00800           0
      6573 MEMB     50       POPC     H13B     HL       0.250000       1.00800           0
      6574 MEMB     50       POPC     H13C     HL       0.250000       1.00800           0
      6575 MEMB     50       POPC     C14      CTL5    -0.350000       12.0110           0
      6576 MEMB     50       POPC     H14A     HL       0.250000       1.00800           0
      6577 MEMB     50       POPC     H14B     HL       0.250000       1.00800           0
      6578 MEMB     50       POPC     H14C     HL       0.250000       1.00800           0
      6579 MEMB     50       POPC     C15      CTL5    -0.350000       12.0110           0
      6580 MEMB     50       POPC     H15A     HL       0.250000       1.00800           0
      6581 MEMB     50       POPC     H15B     HL       0.250000       1.00800           0
      6582 MEMB     50       POPC     H15C     HL       0.250000       1.00800           0
      6583 MEMB     50       POPC     C11      CTL2    -0.800000E-01   12.0110           0
      6584 MEMB     50       POPC     H11A     HAL2     0.900000E-01   1.00800           0
      6585 MEMB     50       POPC     H11B     HAL2     0.900000E-01   1.00800           0
      6586 MEMB     50       POPC     P        PL       1.50000        30.9740           0
      6587 MEMB     50       POPC     O13      O2L     -0.780000       15.9994           0
      6588 MEMB     50       POPC     O14      O2L     -0.780000       15.9994           0
      6589 MEMB     50       POPC     O12      OSLP    -0.570000       15.9994           0
      6590 MEMB     50       POPC     O11      OSLP    -0.570000       15.9994           0
      6591 MEMB     50       POPC     C1       CTL2    -0.800000E-01   12.0110           0
      6592 MEMB     50       POPC     HA       HAL2     0.900000E-01   1.00800           0
      6593 MEMB     50       POPC     HB       HAL2     0.900000E-01   1.00800           0
      6594 MEMB     50       POPC     C2       CTL1     0.170000       12.0110           0
      6595 MEMB     50       POPC     HS       HAL1     0.900000E-01   1.00800           0
      6596 MEMB     50       POPC     O21      OSL     -0.490000       15.9994           0
      6597 MEMB     50       POPC     C21      CL       0.900000       12.0110           0
      6598 MEMB     50       POPC     O22      OBL     -0.630000       15.9994           0
      6599 MEMB     50       POPC     C22      CTL2    -0.220000       12.0110           0
      6600 MEMB     50       POPC     H2R      HAL2     0.900000E-01   1.00800           0
      6601 MEMB     50       POPC     H2S      HAL2     0.900000E-01   1.00800           0
      6602 MEMB     50       POPC     C3       CTL2     0.800000E-01   12.0110           0
      6603 MEMB     50       POPC     HX       HAL2     0.900000E-01   1.00800           0
      6604 MEMB     50       POPC     HY       HAL2     0.900000E-01   1.00800           0
      6605 MEMB     50       POPC     O31      OSL     -0.490000       15.9994           0
      6606 MEMB     50       POPC     C31      CL       0.900000       12.0110           0
      6607 MEMB     50       POPC     O32      OBL     -0.630000       15.9994           0
      6608 MEMB     50       POPC     C32      CTL2    -0.220000       12.0110           0
      6609 MEMB     50       POPC     H2X      HAL2     0.900000E-01   1.00800           0
      6610 MEMB     50       POPC     H2Y      HAL2     0.900000E-01   1.00800           0
      6611 MEMB     50       POPC     C23      CTL2    -0.180000       12.0110           0
      6612 MEMB     50       POPC     H3R      HAL2     0.900000E-01   1.00800           0
      6613 MEMB     50       POPC     H3S      HAL2     0.900000E-01   1.00800           0
      6614 MEMB     50       POPC     C24      CTL2    -0.180000       12.0110           0
      6615 MEMB     50       POPC     H4R      HAL2     0.900000E-01   1.00800           0
      6616 MEMB     50       POPC     H4S      HAL2     0.900000E-01   1.00800           0
      6617 MEMB     50       POPC     C25      CTL2    -0.180000       12.0110           0
      6618 MEMB     50       POPC     H5R      HAL2     0.900000E-01   1.00800           0
      6619 MEMB     50       POPC     H5S      HAL2     0.900000E-01   1.00800           0
      6620 MEMB     50       POPC     C26      CTL2    -0.180000       12.0110           0
      6621 MEMB     50       POPC     H6R      HAL2     0.900000E-01   1.00800           0
      6622 MEMB     50       POPC     H6S      HAL2     0.900000E-01   1.00800           0
      6623 MEMB     50       POPC     C27      CTL2    -0.180000       12.0110           0
      6624 MEMB     50       POPC     H7R      HAL2     0.900000E-01   1.00800           0
      6625 MEMB     50       POPC     H7S      HAL2     0.900000E-01   1.00800           0
      6626 MEMB     50       POPC     C28      CTL2    -0.180000       12.0110           0
      6627 MEMB     50       POPC     H8R      HAL2     0.900000E-01   1.00800           0
      6628 MEMB     50       POPC     H8S      HAL2     0.900000E-01   1.00800           0
      6629 MEMB     50       POPC     C29      CEL1    -0.150000       12.0110           0
      6630 MEMB     50       POPC     H91      HEL1     0.150000       1.00800           0
      6631 MEMB     50       POPC     C210     CEL1    -0.150000       12.0110           0
      6632 MEMB     50       POPC     H101     HEL1     0.150000       1.00800           0
      6633 MEMB     50       POPC     C211     CTL2    -0.180000       12.0110           0
      6634 MEMB     50       POPC     H11R     HAL2     0.900000E-01   1.00800           0
      6635 MEMB     50       POPC     H11S     HAL2     0.900000E-01   1.00800           0
      6636 MEMB     50       POPC     C212     CTL2    -0.180000       12.0110           0
      6637 MEMB     50       POPC     H12R     HAL2     0.900000E-01   1.00800           0
      6638 MEMB     50       POPC     H12S     HAL2     0.900000E-01   1.00800           0
      6639 MEMB     50       POPC     C213     CTL2    -0.180000       12.0110           0
      6640 MEMB     50       POPC     H13R     HAL2     0.900000E-01   1.00800           0
      6641 MEMB     50       POPC     H13S     HAL2     0.900000E-01   1.00800           0
      6642 MEMB     50       POPC     C214     CTL2    -0.180000       12.0110           0
      6643 MEMB     50       POPC     H14R     HAL2     0.900000E-01   1.00800           0
      6644 MEMB     50       POPC     H14S     HAL2     0.900000E-01   1.00800           0
      6645 MEMB     50       POPC     C215     CTL2    -0.180000       12.0110           0
      6646 MEMB     50       POPC     H15R     HAL2     0.900000E-01   1.00800           0
      6647 MEMB     50       POPC     H15S     HAL2     0.900000E-01   1.00800           0
      6648 MEMB     50       POPC     C216     CTL2    -0.180000       12.0110           0
      6649 MEMB     50       POPC     H16R     HAL2     0.900000E-01   1.00800           0
      6650 MEMB     50       POPC     H16S     HAL2     0.900000E-01   1.00800           0
      6651 MEMB     50       POPC     C217     CTL2    -0.180000       12.0110           0
      6652 MEMB     50       POPC     H17R     HAL2     0.900000E-01   1.00800           0
      6653 MEMB     50       POPC     H17S     HAL2     0.900000E-01   1.00800           0
      6654 MEMB     50       POPC     C218     CTL3    -0.270000       12.0110           0
      6655 MEMB     50       POPC     H18R     HAL3     0.900000E-01   1.00800           0
      6656 MEMB     50       POPC     H18S     HAL3     0.900000E-01   1.00800           0
      6657 MEMB     50       POPC     H18T     HAL3     0.900000E-01   1.00800           0
      6658 MEMB     50       POPC     C33      CTL2    -0.180000       12.0110           0
      6659 MEMB     50       POPC     H3X      HAL2     0.900000E-01   1.00800           0
      6660 MEMB     50       POPC     H3Y      HAL2     0.900000E-01   1.00800           0
      6661 MEMB     50       POPC     C34      CTL2    -0.180000       12.0110           0
      6662 MEMB     50       POPC     H4X      HAL2     0.900000E-01   1.00800           0
      6663 MEMB     50       POPC     H4Y      HAL2     0.900000E-01   1.00800           0
      6664 MEMB     50       POPC     C35      CTL2    -0.180000       12.0110           0
      6665 MEMB     50       POPC     H5X      HAL2     0.900000E-01   1.00800           0
      6666 MEMB     50       POPC     H5Y      HAL2     0.900000E-01   1.00800           0
      6667 MEMB     50       POPC     C36      CTL2    -0.180000       12.0110           0
      6668 MEMB     50       POPC     H6X      HAL2     0.900000E-01   1.00800           0
      6669 MEMB     50       POPC     H6Y      HAL2     0.900000E-01   1.00800           0
      6670 MEMB     50       POPC     C37      CTL2    -0.180000       12.0110           0
      6671 MEMB     50       POPC     H7X      HAL2     0.900000E-01   1.00800           0
      6672 MEMB     50       POPC     H7Y      HAL2     0.900000E-01   1.00800           0
      6673 MEMB     50       POPC     C38      CTL2    -0.180000       12.0110           0
      6674 MEMB     50       POPC     H8X      HAL2     0.900000E-01   1.00800           0
      6675 MEMB     50       POPC     H8Y      HAL2     0.900000E-01   1.00800           0
      6676 MEMB     50       POPC     C39      CTL2    -0.180000       12.0110           0
      6677 MEMB     50       POPC     H9X      HAL2     0.900000E-01   1.00800           0
      6678 MEMB     50       POPC     H9Y      HAL2     0.900000E-01   1.00800           0
      6679 MEMB     50       POPC     C310     CTL2    -0.180000       12.0110           0
      6680 MEMB     50       POPC     H10X     HAL2     0.900000E-01   1.00800           0
      6681 MEMB     50       POPC     H10Y     HAL2     0.900000E-01   1.00800           0
      6682 MEMB     50       POPC     C311     CTL2    -0.180000       12.0110           0
      6683 MEMB     50       POPC     H11X     HAL2     0.900000E-01   1.00800           0
      6684 MEMB     50       POPC     H11Y     HAL2     0.900000E-01   1.00800           0
      6685 MEMB     50       POPC     C312     CTL2    -0.180000       12.0110           0
      6686 MEMB     50       POPC     H12X     HAL2     0.900000E-01   1.00800           0
      6687 MEMB     50       POPC     H12Y     HAL2     0.900000E-01   1.00800           0
      6688 MEMB     50       POPC     C313     CTL2    -0.180000       12.0110           0
      6689 MEMB     50       POPC     H13X     HAL2     0.900000E-01   1.00800           0
      6690 MEMB     50       POPC     H13Y     HAL2     0.900000E-01   1.00800           0
      6691 MEMB     50       POPC     C314     CTL2    -0.180000       12.0110           0
      6692 MEMB     50       POPC     H14X     HAL2     0.900000E-01   1.00800           0
      6693 MEMB     50       POPC     H14Y     HAL2     0.900000E-01   1.00800           0
      6694 MEMB     50       POPC     C315     CTL2    -0.180000       12.0110           0
      6695 MEMB     50       POPC     H15X     HAL2     0.900000E-01   1.00800           0
      6696 MEMB     50       POPC     H15Y     HAL2     0.900000E-01   1.00800           0
      6697 MEMB     50       POPC     C316     CTL3    -0.270000       12.0110           0
      6698 MEMB     50       POPC     H16X     HAL3     0.900000E-01   1.00800           0
      6699 MEMB     50       POPC     H16Y     HAL3     0.900000E-01   1.00800           0
      6700 MEMB     50       POPC     H16Z     HAL3     0.900000E-01   1.00800           0
      6701 MEMB     51       POPC     N        NTL     -0.600000       14.0070           0
      6702 MEMB     51       POPC     C12      CTL2    -0.100000       12.0110           0
      6703 MEMB     51       POPC     H12A     HL       0.250000       1.00800           0
      6704 MEMB     51       POPC     H12B     HL       0.250000       1.00800           0
      6705 MEMB     51       POPC     C13      CTL5    -0.350000       12.0110           0
      6706 MEMB     51       POPC     H13A     HL       0.250000       1.00800           0
      6707 MEMB     51       POPC     H13B     HL       0.250000       1.00800           0
      6708 MEMB     51       POPC     H13C     HL       0.250000       1.00800           0
      6709 MEMB     51       POPC     C14      CTL5    -0.350000       12.0110           0
      6710 MEMB     51       POPC     H14A     HL       0.250000       1.00800           0
      6711 MEMB     51       POPC     H14B     HL       0.250000       1.00800           0
      6712 MEMB     51       POPC     H14C     HL       0.250000       1.00800           0
      6713 MEMB     51       POPC     C15      CTL5    -0.350000       12.0110           0
      6714 MEMB     51       POPC     H15A     HL       0.250000       1.00800           0
      6715 MEMB     51       POPC     H15B     HL       0.250000       1.00800           0
      6716 MEMB     51       POPC     H15C     HL       0.250000       1.00800           0
      6717 MEMB     51       POPC     C11      CTL2    -0.800000E-01   12.0110           0
      6718 MEMB     51       POPC     H11A     HAL2     0.900000E-01   1.00800           0
      6719 MEMB     51       POPC     H11B     HAL2     0.900000E-01   1.00800           0
      6720 MEMB     51       POPC     P        PL       1.50000        30.9740           0
      6721 MEMB     51       POPC     O13      O2L     -0.780000       15.9994           0
      6722 MEMB     51       POPC     O14      O2L     -0.780000       15.9994           0
      6723 MEMB     51       POPC     O12      OSLP    -0.570000       15.9994           0
      6724 MEMB     51       POPC     O11      OSLP    -0.570000       15.9994           0
      6725 MEMB     51       POPC     C1       CTL2    -0.800000E-01   12.0110           0
      6726 MEMB     51       POPC     HA       HAL2     0.900000E-01   1.00800           0
      6727 MEMB     51       POPC     HB       HAL2     0.900000E-01   1.00800           0
      6728 MEMB     51       POPC     C2       CTL1     0.170000       12.0110           0
      6729 MEMB     51       POPC     HS       HAL1     0.900000E-01   1.00800           0
      6730 MEMB     51       POPC     O21      OSL     -0.490000       15.9994           0
      6731 MEMB     51       POPC     C21      CL       0.900000       12.0110           0
      6732 MEMB     51       POPC     O22      OBL     -0.630000       15.9994           0
      6733 MEMB     51       POPC     C22      CTL2    -0.220000       12.0110           0
      6734 MEMB     51       POPC     H2R      HAL2     0.900000E-01   1.00800           0
      6735 MEMB     51       POPC     H2S      HAL2     0.900000E-01   1.00800           0
      6736 MEMB     51       POPC     C3       CTL2     0.800000E-01   12.0110           0
      6737 MEMB     51       POPC     HX       HAL2     0.900000E-01   1.00800           0
      6738 MEMB     51       POPC     HY       HAL2     0.900000E-01   1.00800           0
      6739 MEMB     51       POPC     O31      OSL     -0.490000       15.9994           0
      6740 MEMB     51       POPC     C31      CL       0.900000       12.0110           0
      6741 MEMB     51       POPC     O32      OBL     -0.630000       15.9994           0
      6742 MEMB     51       POPC     C32      CTL2    -0.220000       12.0110           0
      6743 MEMB     51       POPC     H2X      HAL2     0.900000E-01   1.00800           0
      6744 MEMB     51       POPC     H2Y      HAL2     0.900000E-01   1.00800           0
      6745 MEMB     51       POPC     C23      CTL2    -0.180000       12.0110           0
      6746 MEMB     51       POPC     H3R      HAL2     0.900000E-01   1.00800           0
      6747 MEMB     51       POPC     H3S      HAL2     0.900000E-01   1.00800           0
      6748 MEMB     51       POPC     C24      CTL2    -0.180000       12.0110           0
      6749 MEMB     51       POPC     H4R      HAL2     0.900000E-01   1.00800           0
      6750 MEMB     51       POPC     H4S      HAL2     0.900000E-01   1.00800           0
      6751 MEMB     51       POPC     C25      CTL2    -0.180000       12.0110           0
      6752 MEMB     51       POPC     H5R      HAL2     0.900000E-01   1.00800           0
      6753 MEMB     51       POPC     H5S      HAL2     0.900000E-01   1.00800           0
      6754 MEMB     51       POPC     C26      CTL2    -0.180000       12.0110           0
      6755 MEMB     51       POPC     H6R      HAL2     0.900000E-01   1.00800           0
      6756 MEMB     51       POPC     H6S      HAL2     0.900000E-01   1.00800           0
      6757 MEMB     51       POPC     C27      CTL2    -0.180000       12.0110           0
      6758 MEMB     51       POPC     H7R      HAL2     0.900000E-01   1.00800           0
      6759 MEMB     51       POPC     H7S      HAL2     0.900000E-01   1.00800           0
      6760 MEMB     51       POPC     C28      CTL2    -0.180000       12.0110           0
      6761 MEMB     51       POPC     H8R      HAL2     0.900000E-01   1.00800           0
      6762 MEMB     51       POPC     H8S      HAL2     0.900000E-01   1.00800           0
      6763 MEMB     51       POPC     C29      CEL1    -0.150000       12.0110           0
      6764 MEMB     51       POPC     H91      HEL1     0.150000       1.00800           0
      6765 MEMB     51       POPC     C210     CEL1    -0.150000       12.0110           0
      6766 MEMB     51       POPC     H101     HEL1     0.150000       1.00800           0
      6767 MEMB     51       POPC     C211     CTL2    -0.180000       12.0110           0
      6768 MEMB     51       POPC     H11R     HAL2     0.900000E-01   1.00800           0
      6769 MEMB     51       POPC     H11S     HAL2     0.900000E-01   1.00800           0
      6770 MEMB     51       POPC     C212     CTL2    -0.180000       12.0110           0
      6771 MEMB     51       POPC     H12R     HAL2     0.900000E-01   1.00800           0
      6772 MEMB     51       POPC     H12S     HAL2     0.900000E-01   1.00800           0
      6773 MEMB     51       POPC     C213     CTL2    -0.180000       12.0110           0
      6774 MEMB     51       POPC     H13R     HAL2     0.900000E-01   1.00800           0
      6775 MEMB     51       POPC     H13S     HAL2     0.900000E-01   1.00800           0
      6776 MEMB     51       POPC     C214     CTL2    -0.180000       12.0110           0
      6777 MEMB     51       POPC     H14R     HAL2     0.900000E-01   1.00800           0
      6778 MEMB     51       POPC     H14S     HAL2     0.900000E-01   1.00800           0
      6779 MEMB     51       POPC     C215     CTL2    -0.180000       12.0110           0
      6780 MEMB     51       POPC     H15R     HAL2     0.900000E-01   1.00800           0
      6781 MEMB     51       POPC     H15S     HAL2     0.900000E-01   1.00800           0
      6782 MEMB     51       POPC     C216     CTL2    -0.180000       12.0110           0
      6783 MEMB     51       POPC     H16R     HAL2     0.900000E-01   1.00800           0
      6784 MEMB     51       POPC     H16S     HAL2     0.900000E-01   1.00800           0
      6785 MEMB     51       POPC     C217     CTL2    -0.180000       12.0110           0
      6786 MEMB     51       POPC     H17R     HAL2     0.900000E-01   1.00800           0
      6787 MEMB     51       POPC     H17S     HAL2     0.900000E-01   1.00800           0
      6788 MEMB     51       POPC     C218     CTL3    -0.270000       12.0110           0
      6789 MEMB     51       POPC     H18R     HAL3     0.900000E-01   1.00800           0
      6790 MEMB     51       POPC     H18S     HAL3     0.900000E-01   1.00800           0
      6791 MEMB     51       POPC     H18T     HAL3     0.900000E-01   1.00800           0
      6792 MEMB     51       POPC     C33      CTL2    -0.180000       12.0110           0
      6793 MEMB     51       POPC     H3X      HAL2     0.900000E-01   1.00800           0
      6794 MEMB     51       POPC     H3Y      HAL2     0.900000E-01   1.00800           0
      6795 MEMB     51       POPC     C34      CTL2    -0.180000       12.0110           0
      6796 MEMB     51       POPC     H4X      HAL2     0.900000E-01   1.00800           0
      6797 MEMB     51       POPC     H4Y      HAL2     0.900000E-01   1.00800           0
      6798 MEMB     51       POPC     C35      CTL2    -0.180000       12.0110           0
      6799 MEMB     51       POPC     H5X      HAL2     0.900000E-01   1.00800           0
      6800 MEMB     51       POPC     H5Y      HAL2     0.900000E-01   1.00800           0
      6801 MEMB     51       POPC     C36      CTL2    -0.180000       12.0110           0
      6802 MEMB     51       POPC     H6X      HAL2     0.900000E-01   1.00800           0
      6803 MEMB     51       POPC     H6Y      HAL2     0.900000E-01   1.00800           0
      6804 MEMB     51       POPC     C37      CTL2    -0.180000       12.0110           0
      6805 MEMB     51       POPC     H7X      HAL2     0.900000E-01   1.00800           0
      6806 MEMB     51       POPC     H7Y      HAL2     0.900000E-01   1.00800           0
      6807 MEMB     51       POPC     C38      CTL2    -0.180000       12.0110           0
      6808 MEMB     51       POPC     H8X      HAL2     0.900000E-01   1.00800           0
      6809 MEMB     51       POPC     H8Y      HAL2     0.900000E-01   1.00800           0
      6810 MEMB     51       POPC     C39      CTL2    -0.180000       12.0110           0
      6811 MEMB     51       POPC     H9X      HAL2     0.900000E-01   1.00800           0
      6812 MEMB     51       POPC     H9Y      HAL2     0.900000E-01   1.00800           0
      6813 MEMB     51       POPC     C310     CTL2    -0.180000       12.0110           0
      6814 MEMB     51       POPC     H10X     HAL2     0.900000E-01   1.00800           0
      6815 MEMB     51       POPC     H10Y     HAL2     0.900000E-01   1.00800           0
      6816 MEMB     51       POPC     C311     CTL2    -0.180000       12.0110           0
      6817 MEMB     51       POPC     H11X     HAL2     0.900000E-01   1.00800           0
      6818 MEMB     51       POPC     H11Y     HAL2     0.900000E-01   1.00800           0
      6819 MEMB     51       POPC     C312     CTL2    -0.180000       12.0110           0
      6820 MEMB     51       POPC     H12X     HAL2     0.900000E-01   1.00800           0
      6821 MEMB     51       POPC     H12Y     HAL2     0.900000E-01   1.00800           0
      6822 MEMB     51       POPC     C313     CTL2    -0.180000       12.0110           0
      6823 MEMB     51       POPC     H13X     HAL2     0.900000E-01   1.00800           0
      6824 MEMB     51       POPC     H13Y     HAL2     0.900000E-01   1.00800           0
      6825 MEMB     51       POPC     C314     CTL2    -0.180000       12.0110           0
      6826 MEMB     51       POPC     H14X     HAL2     0.900000E-01   1.00800           0
      6827 MEMB     51       POPC     H14Y     HAL2     0.900000E-01   1.00800           0
      6828 MEMB     51       POPC     C315     CTL2    -0.180000       12.0110           0
      6829 MEMB     51       POPC     H15X     HAL2     0.900000E-01   1.00800           0
      6830 MEMB     51       POPC     H15Y     HAL2     0.900000E-01   1.00800           0
      6831 MEMB     51       POPC     C316     CTL3    -0.270000       12.0110           0
      6832 MEMB     51       POPC     H16X     HAL3     0.900000E-01   1.00800           0
      6833 MEMB     51       POPC     H16Y     HAL3     0.900000E-01   1.00800           0
      6834 MEMB     51       POPC     H16Z     HAL3     0.900000E-01   1.00800           0
      6835 MEMB     52       POPC     N        NTL     -0.600000       14.0070           0
      6836 MEMB     52       POPC     C12      CTL2    -0.100000       12.0110           0
      6837 MEMB     52       POPC     H12A     HL       0.250000       1.00800           0
      6838 MEMB     52       POPC     H12B     HL       0.250000       1.00800           0
      6839 MEMB     52       POPC     C13      CTL5    -0.350000       12.0110           0
      6840 MEMB     52       POPC     H13A     HL       0.250000       1.00800           0
      6841 MEMB     52       POPC     H13B     HL       0.250000       1.00800           0
      6842 MEMB     52       POPC     H13C     HL       0.250000       1.00800           0
      6843 MEMB     52       POPC     C14      CTL5    -0.350000       12.0110           0
      6844 MEMB     52       POPC     H14A     HL       0.250000       1.00800           0
      6845 MEMB     52       POPC     H14B     HL       0.250000       1.00800           0
      6846 MEMB     52       POPC     H14C     HL       0.250000       1.00800           0
      6847 MEMB     52       POPC     C15      CTL5    -0.350000       12.0110           0
      6848 MEMB     52       POPC     H15A     HL       0.250000       1.00800           0
      6849 MEMB     52       POPC     H15B     HL       0.250000       1.00800           0
      6850 MEMB     52       POPC     H15C     HL       0.250000       1.00800           0
      6851 MEMB     52       POPC     C11      CTL2    -0.800000E-01   12.0110           0
      6852 MEMB     52       POPC     H11A     HAL2     0.900000E-01   1.00800           0
      6853 MEMB     52       POPC     H11B     HAL2     0.900000E-01   1.00800           0
      6854 MEMB     52       POPC     P        PL       1.50000        30.9740           0
      6855 MEMB     52       POPC     O13      O2L     -0.780000       15.9994           0
      6856 MEMB     52       POPC     O14      O2L     -0.780000       15.9994           0
      6857 MEMB     52       POPC     O12      OSLP    -0.570000       15.9994           0
      6858 MEMB     52       POPC     O11      OSLP    -0.570000       15.9994           0
      6859 MEMB     52       POPC     C1       CTL2    -0.800000E-01   12.0110           0
      6860 MEMB     52       POPC     HA       HAL2     0.900000E-01   1.00800           0
      6861 MEMB     52       POPC     HB       HAL2     0.900000E-01   1.00800           0
      6862 MEMB     52       POPC     C2       CTL1     0.170000       12.0110           0
      6863 MEMB     52       POPC     HS       HAL1     0.900000E-01   1.00800           0
      6864 MEMB     52       POPC     O21      OSL     -0.490000       15.9994           0
      6865 MEMB     52       POPC     C21      CL       0.900000       12.0110           0
      6866 MEMB     52       POPC     O22      OBL     -0.630000       15.9994           0
      6867 MEMB     52       POPC     C22      CTL2    -0.220000       12.0110           0
      6868 MEMB     52       POPC     H2R      HAL2     0.900000E-01   1.00800           0
      6869 MEMB     52       POPC     H2S      HAL2     0.900000E-01   1.00800           0
      6870 MEMB     52       POPC     C3       CTL2     0.800000E-01   12.0110           0
      6871 MEMB     52       POPC     HX       HAL2     0.900000E-01   1.00800           0
      6872 MEMB     52       POPC     HY       HAL2     0.900000E-01   1.00800           0
      6873 MEMB     52       POPC     O31      OSL     -0.490000       15.9994           0
      6874 MEMB     52       POPC     C31      CL       0.900000       12.0110           0
      6875 MEMB     52       POPC     O32      OBL     -0.630000       15.9994           0
      6876 MEMB     52       POPC     C32      CTL2    -0.220000       12.0110           0
      6877 MEMB     52       POPC     H2X      HAL2     0.900000E-01   1.00800           0
      6878 MEMB     52       POPC     H2Y      HAL2     0.900000E-01   1.00800           0
      6879 MEMB     52       POPC     C23      CTL2    -0.180000       12.0110           0
      6880 MEMB     52       POPC     H3R      HAL2     0.900000E-01   1.00800           0
      6881 MEMB     52       POPC     H3S      HAL2     0.900000E-01   1.00800           0
      6882 MEMB     52       POPC     C24      CTL2    -0.180000       12.0110           0
      6883 MEMB     52       POPC     H4R      HAL2     0.900000E-01   1.00800           0
      6884 MEMB     52       POPC     H4S      HAL2     0.900000E-01   1.00800           0
      6885 MEMB     52       POPC     C25      CTL2    -0.180000       12.0110           0
      6886 MEMB     52       POPC     H5R      HAL2     0.900000E-01   1.00800           0
      6887 MEMB     52       POPC     H5S      HAL2     0.900000E-01   1.00800           0
      6888 MEMB     52       POPC     C26      CTL2    -0.180000       12.0110           0
      6889 MEMB     52       POPC     H6R      HAL2     0.900000E-01   1.00800           0
      6890 MEMB     52       POPC     H6S      HAL2     0.900000E-01   1.00800           0
      6891 MEMB     52       POPC     C27      CTL2    -0.180000       12.0110           0
      6892 MEMB     52       POPC     H7R      HAL2     0.900000E-01   1.00800           0
      6893 MEMB     52       POPC     H7S      HAL2     0.900000E-01   1.00800           0
      6894 MEMB     52       POPC     C28      CTL2    -0.180000       12.0110           0
      6895 MEMB     52       POPC     H8R      HAL2     0.900000E-01   1.00800           0
      6896 MEMB     52       POPC     H8S      HAL2     0.900000E-01   1.00800           0
      6897 MEMB     52       POPC     C29      CEL1    -0.150000       12.0110           0
      6898 MEMB     52       POPC     H91      HEL1     0.150000       1.00800           0
      6899 MEMB     52       POPC     C210     CEL1    -0.150000       12.0110           0
      6900 MEMB     52       POPC     H101     HEL1     0.150000       1.00800           0
      6901 MEMB     52       POPC     C211     CTL2    -0.180000       12.0110           0
      6902 MEMB     52       POPC     H11R     HAL2     0.900000E-01   1.00800           0
      6903 MEMB     52       POPC     H11S     HAL2     0.900000E-01   1.00800           0
      6904 MEMB     52       POPC     C212     CTL2    -0.180000       12.0110           0
      6905 MEMB     52       POPC     H12R     HAL2     0.900000E-01   1.00800           0
      6906 MEMB     52       POPC     H12S     HAL2     0.900000E-01   1.00800           0
      6907 MEMB     52       POPC     C213     CTL2    -0.180000       12.0110           0
      6908 MEMB     52       POPC     H13R     HAL2     0.900000E-01   1.00800           0
      6909 MEMB     52       POPC     H13S     HAL2     0.900000E-01   1.00800           0
      6910 MEMB     52       POPC     C214     CTL2    -0.180000       12.0110           0
      6911 MEMB     52       POPC     H14R     HAL2     0.900000E-01   1.00800           0
      6912 MEMB     52       POPC     H14S     HAL2     0.900000E-01   1.00800           0
      6913 MEMB     52       POPC     C215     CTL2    -0.180000       12.0110           0
      6914 MEMB     52       POPC     H15R     HAL2     0.900000E-01   1.00800           0
      6915 MEMB     52       POPC     H15S     HAL2     0.900000E-01   1.00800           0
      6916 MEMB     52       POPC     C216     CTL2    -0.180000       12.0110           0
      6917 MEMB     52       POPC     H16R     HAL2     0.900000E-01   1.00800           0
      6918 MEMB     52       POPC     H16S     HAL2     0.900000E-01   1.00800           0
      6919 MEMB     52       POPC     C217     CTL2    -0.180000       12.0110           0
      6920 MEMB     52       POPC     H17R     HAL2     0.900000E-01   1.00800           0
      6921 MEMB     52       POPC     H17S     HAL2     0.900000E-01   1.00800           0
      6922 MEMB     52       POPC     C218     CTL3    -0.270000       12.0110           0
      6923 MEMB     52       POPC     H18R     HAL3     0.900000E-01   1.00800           0
      6924 MEMB     52       POPC     H18S     HAL3     0.900000E-01   1.00800           0
      6925 MEMB     52       POPC     H18T     HAL3     0.900000E-01   1.00800           0
      6926 MEMB     52       POPC     C33      CTL2    -0.180000       12.0110           0
      6927 MEMB     52       POPC     H3X      HAL2     0.900000E-01   1.00800           0
      6928 MEMB     52       POPC     H3Y      HAL2     0.900000E-01   1.00800           0
      6929 MEMB     52       POPC     C34      CTL2    -0.180000       12.0110           0
      6930 MEMB     52       POPC     H4X      HAL2     0.900000E-01   1.00800           0
      6931 MEMB     52       POPC     H4Y      HAL2     0.900000E-01   1.00800           0
      6932 MEMB     52       POPC     C35      CTL2    -0.180000       12.0110           0
      6933 MEMB     52       POPC     H5X      HAL2     0.900000E-01   1.00800           0
      6934 MEMB     52       POPC     H5Y      HAL2     0.900000E-01   1.00800           0
      6935 MEMB     52       POPC     C36      CTL2    -0.180000       12.0110           0
      6936 MEMB     52       POPC     H6X      HAL2     0.900000E-01   1.00800           0
      6937 MEMB     52       POPC     H6Y      HAL2     0.900000E-01   1.00800           0
      6938 MEMB     52       POPC     C37      CTL2    -0.180000       12.0110           0
      6939 MEMB     52       POPC     H7X      HAL2     0.900000E-01   1.00800           0
      6940 MEMB     52       POPC     H7Y      HAL2     0.900000E-01   1.00800           0
      6941 MEMB     52       POPC     C38      CTL2    -0.180000       12.0110           0
      6942 MEMB     52       POPC     H8X      HAL2     0.900000E-01   1.00800           0
      6943 MEMB     52       POPC     H8Y      HAL2     0.900000E-01   1.00800           0
      6944 MEMB     52       POPC     C39      CTL2    -0.180000       12.0110           0
      6945 MEMB     52       POPC     H9X      HAL2     0.900000E-01   1.00800           0
      6946 MEMB     52       POPC     H9Y      HAL2     0.900000E-01   1.00800           0
      6947 MEMB     52       POPC     C310     CTL2    -0.180000       12.0110           0
      6948 MEMB     52       POPC     H10X     HAL2     0.900000E-01   1.00800           0
      6949 MEMB     52       POPC     H10Y     HAL2     0.900000E-01   1.00800           0
      6950 MEMB     52       POPC     C311     CTL2    -0.180000       12.0110           0
      6951 MEMB     52       POPC     H11X     HAL2     0.900000E-01   1.00800           0
      6952 MEMB     52       POPC     H11Y     HAL2     0.900000E-01   1.00800           0
      6953 MEMB     52       POPC     C312     CTL2    -0.180000       12.0110           0
      6954 MEMB     52       POPC     H12X     HAL2     0.900000E-01   1.00800           0
      6955 MEMB     52       POPC     H12Y     HAL2     0.900000E-01   1.00800           0
      6956 MEMB     52       POPC     C313     CTL2    -0.180000       12.0110           0
      6957 MEMB     52       POPC     H13X     HAL2     0.900000E-01   1.00800           0
      6958 MEMB     52       POPC     H13Y     HAL2     0.900000E-01   1.00800           0
      6959 MEMB     52       POPC     C314     CTL2    -0.180000       12.0110           0
      6960 MEMB     52       POPC     H14X     HAL2     0.900000E-01   1.00800           0
      6961 MEMB     52       POPC     H14Y     HAL2     0.900000E-01   1.00800           0
      6962 MEMB     52       POPC     C315     CTL2    -0.180000       12.0110           0
      6963 MEMB     52       POPC     H15X     HAL2     0.900000E-01   1.00800           0
      6964 MEMB     52       POPC     H15Y     HAL2     0.900000E-01   1.00800           0
      6965 MEMB     52       POPC     C316     CTL3    -0.270000       12.0110           0
      6966 MEMB     52       POPC     H16X     HAL3     0.900000E-01   1.00800           0
      6967 MEMB     52       POPC     H16Y     HAL3     0.900000E-01   1.00800           0
      6968 MEMB     52       POPC     H16Z     HAL3     0.900000E-01   1.00800           0
      6969 MEMB     53       POPC     N        NTL     -0.600000       14.0070           0
      6970 MEMB     53       POPC     C12      CTL2    -0.100000       12.0110           0
      6971 MEMB     53       POPC     H12A     HL       0.250000       1.00800           0
      6972 MEMB     53       POPC     H12B     HL       0.250000       1.00800           0
      6973 MEMB     53       POPC     C13      CTL5    -0.350000       12.0110           0
      6974 MEMB     53       POPC     H13A     HL       0.250000       1.00800           0
      6975 MEMB     53       POPC     H13B     HL       0.250000       1.00800           0
      6976 MEMB     53       POPC     H13C     HL       0.250000       1.00800           0
      6977 MEMB     53       POPC     C14      CTL5    -0.350000       12.0110           0
      6978 MEMB     53       POPC     H14A     HL       0.250000       1.00800           0
      6979 MEMB     53       POPC     H14B     HL       0.250000       1.00800           0
      6980 MEMB     53       POPC     H14C     HL       0.250000       1.00800           0
      6981 MEMB     53       POPC     C15      CTL5    -0.350000       12.0110           0
      6982 MEMB     53       POPC     H15A     HL       0.250000       1.00800           0
      6983 MEMB     53       POPC     H15B     HL       0.250000       1.00800           0
      6984 MEMB     53       POPC     H15C     HL       0.250000       1.00800           0
      6985 MEMB     53       POPC     C11      CTL2    -0.800000E-01   12.0110           0
      6986 MEMB     53       POPC     H11A     HAL2     0.900000E-01   1.00800           0
      6987 MEMB     53       POPC     H11B     HAL2     0.900000E-01   1.00800           0
      6988 MEMB     53       POPC     P        PL       1.50000        30.9740           0
      6989 MEMB     53       POPC     O13      O2L     -0.780000       15.9994           0
      6990 MEMB     53       POPC     O14      O2L     -0.780000       15.9994           0
      6991 MEMB     53       POPC     O12      OSLP    -0.570000       15.9994           0
      6992 MEMB     53       POPC     O11      OSLP    -0.570000       15.9994           0
      6993 MEMB     53       POPC     C1       CTL2    -0.800000E-01   12.0110           0
      6994 MEMB     53       POPC     HA       HAL2     0.900000E-01   1.00800           0
      6995 MEMB     53       POPC     HB       HAL2     0.900000E-01   1.00800           0
      6996 MEMB     53       POPC     C2       CTL1     0.170000       12.0110           0
      6997 MEMB     53       POPC     HS       HAL1     0.900000E-01   1.00800           0
      6998 MEMB     53       POPC     O21      OSL     -0.490000       15.9994           0
      6999 MEMB     53       POPC     C21      CL       0.900000       12.0110           0
      7000 MEMB     53       POPC     O22      OBL     -0.630000       15.9994           0
      7001 MEMB     53       POPC     C22      CTL2    -0.220000       12.0110           0
      7002 MEMB     53       POPC     H2R      HAL2     0.900000E-01   1.00800           0
      7003 MEMB     53       POPC     H2S      HAL2     0.900000E-01   1.00800           0
      7004 MEMB     53       POPC     C3       CTL2     0.800000E-01   12.0110           0
      7005 MEMB     53       POPC     HX       HAL2     0.900000E-01   1.00800           0
      7006 MEMB     53       POPC     HY       HAL2     0.900000E-01   1.00800           0
      7007 MEMB     53       POPC     O31      OSL     -0.490000       15.9994           0
      7008 MEMB     53       POPC     C31      CL       0.900000       12.0110           0
      7009 MEMB     53       POPC     O32      OBL     -0.630000       15.9994           0
      7010 MEMB     53       POPC     C32      CTL2    -0.220000       12.0110           0
      7011 MEMB     53       POPC     H2X      HAL2     0.900000E-01   1.00800           0
      7012 MEMB     53       POPC     H2Y      HAL2     0.900000E-01   1.00800           0
      7013 MEMB     53       POPC     C23      CTL2    -0.180000       12.0110           0
      7014 MEMB     53       POPC     H3R      HAL2     0.900000E-01   1.00800           0
      7015 MEMB     53       POPC     H3S      HAL2     0.900000E-01   1.00800           0
      7016 MEMB     53       POPC     C24      CTL2    -0.180000       12.0110           0
      7017 MEMB     53       POPC     H4R      HAL2     0.900000E-01   1.00800           0
      7018 MEMB     53       POPC     H4S      HAL2     0.900000E-01   1.00800           0
      7019 MEMB     53       POPC     C25      CTL2    -0.180000       12.0110           0
      7020 MEMB     53       POPC     H5R      HAL2     0.900000E-01   1.00800           0
      7021 MEMB     53       POPC     H5S      HAL2     0.900000E-01   1.00800           0
      7022 MEMB     53       POPC     C26      CTL2    -0.180000       12.0110           0
      7023 MEMB     53       POPC     H6R      HAL2     0.900000E-01   1.00800           0
      7024 MEMB     53       POPC     H6S      HAL2     0.900000E-01   1.00800           0
      7025 MEMB     53       POPC     C27      CTL2    -0.180000       12.0110           0
      7026 MEMB     53       POPC     H7R      HAL2     0.900000E-01   1.00800           0
      7027 MEMB     53       POPC     H7S      HAL2     0.900000E-01   1.00800           0
      7028 MEMB     53       POPC     C28      CTL2    -0.180000       12.0110           0
      7029 MEMB     53       POPC     H8R      HAL2     0.900000E-01   1.00800           0
      7030 MEMB     53       POPC     H8S      HAL2     0.900000E-01   1.00800           0
      7031 MEMB     53       POPC     C29      CEL1    -0.150000       12.0110           0
      7032 MEMB     53       POPC     H91      HEL1     0.150000       1.00800           0
      7033 MEMB     53       POPC     C210     CEL1    -0.150000       12.0110           0
      7034 MEMB     53       POPC     H101     HEL1     0.150000       1.00800           0
      7035 MEMB     53       POPC     C211     CTL2    -0.180000       12.0110           0
      7036 MEMB     53       POPC     H11R     HAL2     0.900000E-01   1.00800           0
      7037 MEMB     53       POPC     H11S     HAL2     0.900000E-01   1.00800           0
      7038 MEMB     53       POPC     C212     CTL2    -0.180000       12.0110           0
      7039 MEMB     53       POPC     H12R     HAL2     0.900000E-01   1.00800           0
      7040 MEMB     53       POPC     H12S     HAL2     0.900000E-01   1.00800           0
      7041 MEMB     53       POPC     C213     CTL2    -0.180000       12.0110           0
      7042 MEMB     53       POPC     H13R     HAL2     0.900000E-01   1.00800           0
      7043 MEMB     53       POPC     H13S     HAL2     0.900000E-01   1.00800           0
      7044 MEMB     53       POPC     C214     CTL2    -0.180000       12.0110           0
      7045 MEMB     53       POPC     H14R     HAL2     0.900000E-01   1.00800           0
      7046 MEMB     53       POPC     H14S     HAL2     0.900000E-01   1.00800           0
      7047 MEMB     53       POPC     C215     CTL2    -0.180000       12.0110           0
      7048 MEMB     53       POPC     H15R     HAL2     0.900000E-01   1.00800           0
      7049 MEMB     53       POPC     H15S     HAL2     0.900000E-01   1.00800           0
      7050 MEMB     53       POPC     C216     CTL2    -0.180000       12.0110           0
      7051 MEMB     53       POPC     H16R     HAL2     0.900000E-01   1.00800           0
      7052 MEMB     53       POPC     H16S     HAL2     0.900000E-01   1.00800           0
      7053 MEMB     53       POPC     C217     CTL2    -0.180000       12.0110           0
      7054 MEMB     53       POPC     H17R     HAL2     0.900000E-01   1.00800           0
      7055 MEMB     53       POPC     H17S     HAL2     0.900000E-01   1.00800           0
      7056 MEMB     53       POPC     C218     CTL3    -0.270000       12.0110           0
      7057 MEMB     53       POPC     H18R     HAL3     0.900000E-01   1.00800           0
      7058 MEMB     53       POPC     H18S     HAL3     0.900000E-01   1.00800           0
      7059 MEMB     53       POPC     H18T     HAL3     0.900000E-01   1.00800           0
      7060 MEMB     53       POPC     C33      CTL2    -0.180000       12.0110           0
      7061 MEMB     53       POPC     H3X      HAL2     0.900000E-01   1.00800           0
      7062 MEMB     53       POPC     H3Y      HAL2     0.900000E-01   1.00800           0
      7063 MEMB     53       POPC     C34      CTL2    -0.180000       12.0110           0
      7064 MEMB     53       POPC     H4X      HAL2     0.900000E-01   1.00800           0
      7065 MEMB     53       POPC     H4Y      HAL2     0.900000E-01   1.00800           0
      7066 MEMB     53       POPC     C35      CTL2    -0.180000       12.0110           0
      7067 MEMB     53       POPC     H5X      HAL2     0.900000E-01   1.00800           0
      7068 MEMB     53       POPC     H5Y      HAL2     0.900000E-01   1.00800           0
      7069 MEMB     53       POPC     C36      CTL2    -0.180000       12.0110           0
      7070 MEMB     53       POPC     H6X      HAL2     0.900000E-01   1.00800           0
      7071 MEMB     53       POPC     H6Y      HAL2     0.900000E-01   1.00800           0
      7072 MEMB     53       POPC     C37      CTL2    -0.180000       12.0110           0
      7073 MEMB     53       POPC     H7X      HAL2     0.900000E-01   1.00800           0
      7074 MEMB     53       POPC     H7Y      HAL2     0.900000E-01   1.00800           0
      7075 MEMB     53       POPC     C38      CTL2    -0.180000       12.0110           0
      7076 MEMB     53       POPC     H8X      HAL2     0.900000E-01   1.00800           0
      7077 MEMB     53       POPC     H8Y      HAL2     0.900000E-01   1.00800           0
      7078 MEMB     53       POPC     C39      CTL2    -0.180000       12.0110           0
      7079 MEMB     53       POPC     H9X      HAL2     0.900000E-01   1.00800           0
      7080 MEMB     53       POPC     H9Y      HAL2     0.900000E-01   1.00800           0
      7081 MEMB     53       POPC     C310     CTL2    -0.180000       12.0110           0
      7082 MEMB     53       POPC     H10X     HAL2     0.900000E-01   1.00800           0
      7083 MEMB     53       POPC     H10Y     HAL2     0.900000E-01   1.00800           0
      7084 MEMB     53       POPC     C311     CTL2    -0.180000       12.0110           0
      7085 MEMB     53       POPC     H11X     HAL2     0.900000E-01   1.00800           0
      7086 MEMB     53       POPC     H11Y     HAL2     0.900000E-01   1.00800           0
      7087 MEMB     53       POPC     C312     CTL2    -0.180000       12.0110           0
      7088 MEMB     53       POPC     H12X     HAL2     0.900000E-01   1.00800           0
      7089 MEMB     53       POPC     H12Y     HAL2     0.900000E-01   1.00800           0
      7090 MEMB     53       POPC     C313     CTL2    -0.180000       12.0110           0
      7091 MEMB     53       POPC     H13X     HAL2     0.900000E-01   1.00800           0
      7092 MEMB     53       POPC     H13Y     HAL2     0.900000E-01   1.00800           0
      7093 MEMB     53       POPC     C314     CTL2    -0.180000       12.0110           0
      7094 MEMB     53       POPC     H14X     HAL2     0.900000E-01   1.00800           0
      7095 MEMB     53       POPC     H14Y     HAL2     0.900000E-01   1.00800           0
      7096 MEMB     53       POPC     C315     CTL2    -0.180000       12.0110           0
      7097 MEMB     53       POPC     H15X     HAL2     0.900000E-01   1.00800           0
      7098 MEMB     53       POPC     H15Y     HAL2     0.900000E-01   1.00800           0
      7099 MEMB     53       POPC     C316     CTL3    -0.270000       12.0110           0
      7100 MEMB     53       POPC     H16X     HAL3     0.900000E-01   1.00800           0
      7101 MEMB     53       POPC     H16Y     HAL3     0.900000E-01   1.00800           0
      7102 MEMB     53       POPC     H16Z     HAL3     0.900000E-01   1.00800           0
      7103 MEMB     54       POPC     N        NTL     -0.600000       14.0070           0
      7104 MEMB     54       POPC     C12      CTL2    -0.100000       12.0110           0
      7105 MEMB     54       POPC     H12A     HL       0.250000       1.00800           0
      7106 MEMB     54       POPC     H12B     HL       0.250000       1.00800           0
      7107 MEMB     54       POPC     C13      CTL5    -0.350000       12.0110           0
      7108 MEMB     54       POPC     H13A     HL       0.250000       1.00800           0
      7109 MEMB     54       POPC     H13B     HL       0.250000       1.00800           0
      7110 MEMB     54       POPC     H13C     HL       0.250000       1.00800           0
      7111 MEMB     54       POPC     C14      CTL5    -0.350000       12.0110           0
      7112 MEMB     54       POPC     H14A     HL       0.250000       1.00800           0
      7113 MEMB     54       POPC     H14B     HL       0.250000       1.00800           0
      7114 MEMB     54       POPC     H14C     HL       0.250000       1.00800           0
      7115 MEMB     54       POPC     C15      CTL5    -0.350000       12.0110           0
      7116 MEMB     54       POPC     H15A     HL       0.250000       1.00800           0
      7117 MEMB     54       POPC     H15B     HL       0.250000       1.00800           0
      7118 MEMB     54       POPC     H15C     HL       0.250000       1.00800           0
      7119 MEMB     54       POPC     C11      CTL2    -0.800000E-01   12.0110           0
      7120 MEMB     54       POPC     H11A     HAL2     0.900000E-01   1.00800           0
      7121 MEMB     54       POPC     H11B     HAL2     0.900000E-01   1.00800           0
      7122 MEMB     54       POPC     P        PL       1.50000        30.9740           0
      7123 MEMB     54       POPC     O13      O2L     -0.780000       15.9994           0
      7124 MEMB     54       POPC     O14      O2L     -0.780000       15.9994           0
      7125 MEMB     54       POPC     O12      OSLP    -0.570000       15.9994           0
      7126 MEMB     54       POPC     O11      OSLP    -0.570000       15.9994           0
      7127 MEMB     54       POPC     C1       CTL2    -0.800000E-01   12.0110           0
      7128 MEMB     54       POPC     HA       HAL2     0.900000E-01   1.00800           0
      7129 MEMB     54       POPC     HB       HAL2     0.900000E-01   1.00800           0
      7130 MEMB     54       POPC     C2       CTL1     0.170000       12.0110           0
      7131 MEMB     54       POPC     HS       HAL1     0.900000E-01   1.00800           0
      7132 MEMB     54       POPC     O21      OSL     -0.490000       15.9994           0
      7133 MEMB     54       POPC     C21      CL       0.900000       12.0110           0
      7134 MEMB     54       POPC     O22      OBL     -0.630000       15.9994           0
      7135 MEMB     54       POPC     C22      CTL2    -0.220000       12.0110           0
      7136 MEMB     54       POPC     H2R      HAL2     0.900000E-01   1.00800           0
      7137 MEMB     54       POPC     H2S      HAL2     0.900000E-01   1.00800           0
      7138 MEMB     54       POPC     C3       CTL2     0.800000E-01   12.0110           0
      7139 MEMB     54       POPC     HX       HAL2     0.900000E-01   1.00800           0
      7140 MEMB     54       POPC     HY       HAL2     0.900000E-01   1.00800           0
      7141 MEMB     54       POPC     O31      OSL     -0.490000       15.9994           0
      7142 MEMB     54       POPC     C31      CL       0.900000       12.0110           0
      7143 MEMB     54       POPC     O32      OBL     -0.630000       15.9994           0
      7144 MEMB     54       POPC     C32      CTL2    -0.220000       12.0110           0
      7145 MEMB     54       POPC     H2X      HAL2     0.900000E-01   1.00800           0
      7146 MEMB     54       POPC     H2Y      HAL2     0.900000E-01   1.00800           0
      7147 MEMB     54       POPC     C23      CTL2    -0.180000       12.0110           0
      7148 MEMB     54       POPC     H3R      HAL2     0.900000E-01   1.00800           0
      7149 MEMB     54       POPC     H3S      HAL2     0.900000E-01   1.00800           0
      7150 MEMB     54       POPC     C24      CTL2    -0.180000       12.0110           0
      7151 MEMB     54       POPC     H4R      HAL2     0.900000E-01   1.00800           0
      7152 MEMB     54       POPC     H4S      HAL2     0.900000E-01   1.00800           0
      7153 MEMB     54       POPC     C25      CTL2    -0.180000       12.0110           0
      7154 MEMB     54       POPC     H5R      HAL2     0.900000E-01   1.00800           0
      7155 MEMB     54       POPC     H5S      HAL2     0.900000E-01   1.00800           0
      7156 MEMB     54       POPC     C26      CTL2    -0.180000       12.0110           0
      7157 MEMB     54       POPC     H6R      HAL2     0.900000E-01   1.00800           0
      7158 MEMB     54       POPC     H6S      HAL2     0.900000E-01   1.00800           0
      7159 MEMB     54       POPC     C27      CTL2    -0.180000       12.0110           0
      7160 MEMB     54       POPC     H7R      HAL2     0.900000E-01   1.00800           0
      7161 MEMB     54       POPC     H7S      HAL2     0.900000E-01   1.00800           0
      7162 MEMB     54       POPC     C28      CTL2    -0.180000       12.0110           0
      7163 MEMB     54       POPC     H8R      HAL2     0.900000E-01   1.00800           0
      7164 MEMB     54       POPC     H8S      HAL2     0.900000E-01   1.00800           0
      7165 MEMB     54       POPC     C29      CEL1    -0.150000       12.0110           0
      7166 MEMB     54       POPC     H91      HEL1     0.150000       1.00800           0
      7167 MEMB     54       POPC     C210     CEL1    -0.150000       12.0110           0
      7168 MEMB     54       POPC     H101     HEL1     0.150000       1.00800           0
      7169 MEMB     54       POPC     C211     CTL2    -0.180000       12.0110           0
      7170 MEMB     54       POPC     H11R     HAL2     0.900000E-01   1.00800           0
      7171 MEMB     54       POPC     H11S     HAL2     0.900000E-01   1.00800           0
      7172 MEMB     54       POPC     C212     CTL2    -0.180000       12.0110           0
      7173 MEMB     54       POPC     H12R     HAL2     0.900000E-01   1.00800           0
      7174 MEMB     54       POPC     H12S     HAL2     0.900000E-01   1.00800           0
      7175 MEMB     54       POPC     C213     CTL2    -0.180000       12.0110           0
      7176 MEMB     54       POPC     H13R     HAL2     0.900000E-01   1.00800           0
      7177 MEMB     54       POPC     H13S     HAL2     0.900000E-01   1.00800           0
      7178 MEMB     54       POPC     C214     CTL2    -0.180000       12.0110           0
      7179 MEMB     54       POPC     H14R     HAL2     0.900000E-01   1.00800           0
      7180 MEMB     54       POPC     H14S     HAL2     0.900000E-01   1.00800           0
      7181 MEMB     54       POPC     C215     CTL2    -0.180000       12.0110           0
      7182 MEMB     54       POPC     H15R     HAL2     0.900000E-01   1.00800           0
      7183 MEMB     54       POPC     H15S     HAL2     0.900000E-01   1.00800           0
      7184 MEMB     54       POPC     C216     CTL2    -0.180000       12.0110           0
      7185 MEMB     54       POPC     H16R     HAL2     0.900000E-01   1.00800           0
      7186 MEMB     54       POPC     H16S     HAL2     0.900000E-01   1.00800           0
      7187 MEMB     54       POPC     C217     CTL2    -0.180000       12.0110           0
      7188 MEMB     54       POPC     H17R     HAL2     0.900000E-01   1.00800           0
      7189 MEMB     54       POPC     H17S     HAL2     0.900000E-01   1.00800           0
      7190 MEMB     54       POPC     C218     CTL3    -0.270000       12.0110           0
      7191 MEMB     54       POPC     H18R     HAL3     0.900000E-01   1.00800           0
      7192 MEMB     54       POPC     H18S     HAL3     0.900000E-01   1.00800           0
      7193 MEMB     54       POPC     H18T     HAL3     0.900000E-01   1.00800           0
      7194 MEMB     54       POPC     C33      CTL2    -0.180000       12.0110           0
      7195 MEMB     54       POPC     H3X      HAL2     0.900000E-01   1.00800           0
      7196 MEMB     54       POPC     H3Y      HAL2     0.900000E-01   1.00800           0
      7197 MEMB     54       POPC     C34      CTL2    -0.180000       12.0110           0
      7198 MEMB     54       POPC     H4X      HAL2     0.900000E-01   1.00800           0
      7199 MEMB     54       POPC     H4Y      HAL2     0.900000E-01   1.00800           0
      7200 MEMB     54       POPC     C35      CTL2    -0.180000       12.0110           0
      7201 MEMB     54       POPC     H5X      HAL2     0.900000E-01   1.00800           0
      7202 MEMB     54       POPC     H5Y      HAL2     0.900000E-01   1.00800           0
      7203 MEMB     54       POPC     C36      CTL2    -0.180000       12.0110           0
      7204 MEMB     54       POPC     H6X      HAL2     0.900000E-01   1.00800           0
      7205 MEMB     54       POPC     H6Y      HAL2     0.900000E-01   1.00800           0
      7206 MEMB     54       POPC     C37      CTL2    -0.180000       12.0110           0
      7207 MEMB     54       POPC     H7X      HAL2     0.900000E-01   1.00800           0
      7208 MEMB     54       POPC     H7Y      HAL2     0.900000E-01   1.00800           0
      7209 MEMB     54       POPC     C38      CTL2    -0.180000       12.0110           0
      7210 MEMB     54       POPC     H8X      HAL2     0.900000E-01   1.00800           0
      7211 MEMB     54       POPC     H8Y      HAL2     0.900000E-01   1.00800           0
      7212 MEMB     54       POPC     C39      CTL2    -0.180000       12.0110           0
      7213 MEMB     54       POPC     H9X      HAL2     0.900000E-01   1.00800           0
      7214 MEMB     54       POPC     H9Y      HAL2     0.900000E-01   1.00800           0
      7215 MEMB     54       POPC     C310     CTL2    -0.180000       12.0110           0
      7216 MEMB     54       POPC     H10X     HAL2     0.900000E-01   1.00800           0
      7217 MEMB     54       POPC     H10Y     HAL2     0.900000E-01   1.00800           0
      7218 MEMB     54       POPC     C311     CTL2    -0.180000       12.0110           0
      7219 MEMB     54       POPC     H11X     HAL2     0.900000E-01   1.00800           0
      7220 MEMB     54       POPC     H11Y     HAL2     0.900000E-01   1.00800           0
      7221 MEMB     54       POPC     C312     CTL2    -0.180000       12.0110           0
      7222 MEMB     54       POPC     H12X     HAL2     0.900000E-01   1.00800           0
      7223 MEMB     54       POPC     H12Y     HAL2     0.900000E-01   1.00800           0
      7224 MEMB     54       POPC     C313     CTL2    -0.180000       12.0110           0
      7225 MEMB     54       POPC     H13X     HAL2     0.900000E-01   1.00800           0
      7226 MEMB     54       POPC     H13Y     HAL2     0.900000E-01   1.00800           0
      7227 MEMB     54       POPC     C314     CTL2    -0.180000       12.0110           0
      7228 MEMB     54       POPC     H14X     HAL2     0.900000E-01   1.00800           0
      7229 MEMB     54       POPC     H14Y     HAL2     0.900000E-01   1.00800           0
      7230 MEMB     54       POPC     C315     CTL2    -0.180000       12.0110           0
      7231 MEMB     54       POPC     H15X     HAL2     0.900000E-01   1.00800           0
      7232 MEMB     54       POPC     H15Y     HAL2     0.900000E-01   1.00800           0
      7233 MEMB     54       POPC     C316     CTL3    -0.270000       12.0110           0
      7234 MEMB     54       POPC     H16X     HAL3     0.900000E-01   1.00800           0
      7235 MEMB     54       POPC     H16Y     HAL3     0.900000E-01   1.00800           0
      7236 MEMB     54       POPC     H16Z     HAL3     0.900000E-01   1.00800           0
      7237 MEMB     55       POPC     N        NTL     -0.600000       14.0070           0
      7238 MEMB     55       POPC     C12      CTL2    -0.100000       12.0110           0
      7239 MEMB     55       POPC     H12A     HL       0.250000       1.00800           0
      7240 MEMB     55       POPC     H12B     HL       0.250000       1.00800           0
      7241 MEMB     55       POPC     C13      CTL5    -0.350000       12.0110           0
      7242 MEMB     55       POPC     H13A     HL       0.250000       1.00800           0
      7243 MEMB     55       POPC     H13B     HL       0.250000       1.00800           0
      7244 MEMB     55       POPC     H13C     HL       0.250000       1.00800           0
      7245 MEMB     55       POPC     C14      CTL5    -0.350000       12.0110           0
      7246 MEMB     55       POPC     H14A     HL       0.250000       1.00800           0
      7247 MEMB     55       POPC     H14B     HL       0.250000       1.00800           0
      7248 MEMB     55       POPC     H14C     HL       0.250000       1.00800           0
      7249 MEMB     55       POPC     C15      CTL5    -0.350000       12.0110           0
      7250 MEMB     55       POPC     H15A     HL       0.250000       1.00800           0
      7251 MEMB     55       POPC     H15B     HL       0.250000       1.00800           0
      7252 MEMB     55       POPC     H15C     HL       0.250000       1.00800           0
      7253 MEMB     55       POPC     C11      CTL2    -0.800000E-01   12.0110           0
      7254 MEMB     55       POPC     H11A     HAL2     0.900000E-01   1.00800           0
      7255 MEMB     55       POPC     H11B     HAL2     0.900000E-01   1.00800           0
      7256 MEMB     55       POPC     P        PL       1.50000        30.9740           0
      7257 MEMB     55       POPC     O13      O2L     -0.780000       15.9994           0
      7258 MEMB     55       POPC     O14      O2L     -0.780000       15.9994           0
      7259 MEMB     55       POPC     O12      OSLP    -0.570000       15.9994           0
      7260 MEMB     55       POPC     O11      OSLP    -0.570000       15.9994           0
      7261 MEMB     55       POPC     C1       CTL2    -0.800000E-01   12.0110           0
      7262 MEMB     55       POPC     HA       HAL2     0.900000E-01   1.00800           0
      7263 MEMB     55       POPC     HB       HAL2     0.900000E-01   1.00800           0
      7264 MEMB     55       POPC     C2       CTL1     0.170000       12.0110           0
      7265 MEMB     55       POPC     HS       HAL1     0.900000E-01   1.00800           0
      7266 MEMB     55       POPC     O21      OSL     -0.490000       15.9994           0
      7267 MEMB     55       POPC     C21      CL       0.900000       12.0110           0
      7268 MEMB     55       POPC     O22      OBL     -0.630000       15.9994           0
      7269 MEMB     55       POPC     C22      CTL2    -0.220000       12.0110           0
      7270 MEMB     55       POPC     H2R      HAL2     0.900000E-01   1.00800           0
      7271 MEMB     55       POPC     H2S      HAL2     0.900000E-01   1.00800           0
      7272 MEMB     55       POPC     C3       CTL2     0.800000E-01   12.0110           0
      7273 MEMB     55       POPC     HX       HAL2     0.900000E-01   1.00800           0
      7274 MEMB     55       POPC     HY       HAL2     0.900000E-01   1.00800           0
      7275 MEMB     55       POPC     O31      OSL     -0.490000       15.9994           0
      7276 MEMB     55       POPC     C31      CL       0.900000       12.0110           0
      7277 MEMB     55       POPC     O32      OBL     -0.630000       15.9994           0
      7278 MEMB     55       POPC     C32      CTL2    -0.220000       12.0110           0
      7279 MEMB     55       POPC     H2X      HAL2     0.900000E-01   1.00800           0
      7280 MEMB     55       POPC     H2Y      HAL2     0.900000E-01   1.00800           0
      7281 MEMB     55       POPC     C23      CTL2    -0.180000       12.0110           0
      7282 MEMB     55       POPC     H3R      HAL2     0.900000E-01   1.00800           0
      7283 MEMB     55       POPC     H3S      HAL2     0.900000E-01   1.00800           0
      7284 MEMB     55       POPC     C24      CTL2    -0.180000       12.0110           0
      7285 MEMB     55       POPC     H4R      HAL2     0.900000E-01   1.00800           0
      7286 MEMB     55       POPC     H4S      HAL2     0.900000E-01   1.00800           0
      7287 MEMB     55       POPC     C25      CTL2    -0.180000       12.0110           0
      7288 MEMB     55       POPC     H5R      HAL2     0.900000E-01   1.00800           0
      7289 MEMB     55       POPC     H5S      HAL2     0.900000E-01   1.00800           0
      7290 MEMB     55       POPC     C26      CTL2    -0.180000       12.0110           0
      7291 MEMB     55       POPC     H6R      HAL2     0.900000E-01   1.00800           0
      7292 MEMB     55       POPC     H6S      HAL2     0.900000E-01   1.00800           0
      7293 MEMB     55       POPC     C27      CTL2    -0.180000       12.0110           0
      7294 MEMB     55       POPC     H7R      HAL2     0.900000E-01   1.00800           0
      7295 MEMB     55       POPC     H7S      HAL2     0.900000E-01   1.00800           0
      7296 MEMB     55       POPC     C28      CTL2    -0.180000       12.0110           0
      7297 MEMB     55       POPC     H8R      HAL2     0.900000E-01   1.00800           0
      7298 MEMB     55       POPC     H8S      HAL2     0.900000E-01   1.00800           0
      7299 MEMB     55       POPC     C29      CEL1    -0.150000       12.0110           0
      7300 MEMB     55       POPC     H91      HEL1     0.150000       1.00800           0
      7301 MEMB     55       POPC     C210     CEL1    -0.150000       12.0110           0
      7302 MEMB     55       POPC     H101     HEL1     0.150000       1.00800           0
      7303 MEMB     55       POPC     C211     CTL2    -0.180000       12.0110           0
      7304 MEMB     55       POPC     H11R     HAL2     0.900000E-01   1.00800           0
      7305 MEMB     55       POPC     H11S     HAL2     0.900000E-01   1.00800           0
      7306 MEMB     55       POPC     C212     CTL2    -0.180000       12.0110           0
      7307 MEMB     55       POPC     H12R     HAL2     0.900000E-01   1.00800           0
      7308 MEMB     55       POPC     H12S     HAL2     0.900000E-01   1.00800           0
      7309 MEMB     55       POPC     C213     CTL2    -0.180000       12.0110           0
      7310 MEMB     55       POPC     H13R     HAL2     0.900000E-01   1.00800           0
      7311 MEMB     55       POPC     H13S     HAL2     0.900000E-01   1.00800           0
      7312 MEMB     55       POPC     C214     CTL2    -0.180000       12.0110           0
      7313 MEMB     55       POPC     H14R     HAL2     0.900000E-01   1.00800           0
      7314 MEMB     55       POPC     H14S     HAL2     0.900000E-01   1.00800           0
      7315 MEMB     55       POPC     C215     CTL2    -0.180000       12.0110           0
      7316 MEMB     55       POPC     H15R     HAL2     0.900000E-01   1.00800           0
      7317 MEMB     55       POPC     H15S     HAL2     0.900000E-01   1.00800           0
      7318 MEMB     55       POPC     C216     CTL2    -0.180000       12.0110           0
      7319 MEMB     55       POPC     H16R     HAL2     0.900000E-01   1.00800           0
      7320 MEMB     55       POPC     H16S     HAL2     0.900000E-01   1.00800           0
      7321 MEMB     55       POPC     C217     CTL2    -0.180000       12.0110           0
      7322 MEMB     55       POPC     H17R     HAL2     0.900000E-01   1.00800           0
      7323 MEMB     55       POPC     H17S     HAL2     0.900000E-01   1.00800           0
      7324 MEMB     55       POPC     C218     CTL3    -0.270000       12.0110           0
      7325 MEMB     55       POPC     H18R     HAL3     0.900000E-01   1.00800           0
      7326 MEMB     55       POPC     H18S     HAL3     0.900000E-01   1.00800           0
      7327 MEMB     55       POPC     H18T     HAL3     0.900000E-01   1.00800           0
      7328 MEMB     55       POPC     C33      CTL2    -0.180000       12.0110           0
      7329 MEMB     55       POPC     H3X      HAL2     0.900000E-01   1.00800           0
      7330 MEMB     55       POPC     H3Y      HAL2     0.900000E-01   1.00800           0
      7331 MEMB     55       POPC     C34      CTL2    -0.180000       12.0110           0
      7332 MEMB     55       POPC     H4X      HAL2     0.900000E-01   1.00800           0
      7333 MEMB     55       POPC     H4Y      HAL2     0.900000E-01   1.00800           0
      7334 MEMB     55       POPC     C35      CTL2    -0.180000       12.0110           0
      7335 MEMB     55       POPC     H5X      HAL2     0.900000E-01   1.00800           0
      7336 MEMB     55       POPC     H5Y      HAL2     0.900000E-01   1.00800           0
      7337 MEMB     55       POPC     C36      CTL2    -0.180000       12.0110           0
      7338 MEMB     55       POPC     H6X      HAL2     0.900000E-01   1.00800           0
      7339 MEMB     55       POPC     H6Y      HAL2     0.900000E-01   1.00800           0
      7340 MEMB     55       POPC     C37      CTL2    -0.180000       12.0110           0
      7341 MEMB     55       POPC     H7X      HAL2     0.900000E-01   1.00800           0
      7342 MEMB     55       POPC     H7Y      HAL2     0.900000E-01   1.00800           0
      7343 MEMB     55       POPC     C38      CTL2    -0.180000       12.0110           0
      7344 MEMB     55       POPC     H8X      HAL2     0.900000E-01   1.00800           0
      7345 MEMB     55       POPC     H8Y      HAL2     0.900000E-01   1.00800           0
      7346 MEMB     55       POPC     C39      CTL2    -0.180000       12.0110           0
      7347 MEMB     55       POPC     H9X      HAL2     0.900000E-01   1.00800           0
      7348 MEMB     55       POPC     H9Y      HAL2     0.900000E-01   1.00800           0
      7349 MEMB     55       POPC     C310     CTL2    -0.180000       12.0110           0
      7350 MEMB     55       POPC     H10X     HAL2     0.900000E-01   1.00800           0
      7351 MEMB     55       POPC     H10Y     HAL2     0.900000E-01   1.00800           0
      7352 MEMB     55       POPC     C311     CTL2    -0.180000       12.0110           0
      7353 MEMB     55       POPC     H11X     HAL2     0.900000E-01   1.00800           0
      7354 MEMB     55       POPC     H11Y     HAL2     0.900000E-01   1.00800           0
      7355 MEMB     55       POPC     C312     CTL2    -0.180000       12.0110           0
      7356 MEMB     55       POPC     H12X     HAL2     0.900000E-01   1.00800           0
      7357 MEMB     55       POPC     H12Y     HAL2     0.900000E-01   1.00800           0
      7358 MEMB     55       POPC     C313     CTL2    -0.180000       12.0110           0
      7359 MEMB     55       POPC     H13X     HAL2     0.900000E-01   1.00800           0
      7360 MEMB     55       POPC     H13Y     HAL2     0.900000E-01   1.00800           0
      7361 MEMB     55       POPC     C314     CTL2    -0.180000       12.0110           0
      7362 MEMB     55       POPC     H14X     HAL2     0.900000E-01   1.00800           0
      7363 MEMB     55       POPC     H14Y     HAL2     0.900000E-01   1.00800           0
      7364 MEMB     55       POPC     C315     CTL2    -0.180000       12.0110           0
      7365 MEMB     55       POPC     H15X     HAL2     0.900000E-01   1.00800           0
      7366 MEMB     55       POPC     H15Y     HAL2     0.900000E-01   1.00800           0
      7367 MEMB     55       POPC     C316     CTL3    -0.270000       12.0110           0
      7368 MEMB     55       POPC     H16X     HAL3     0.900000E-01   1.00800           0
      7369 MEMB     55       POPC     H16Y     HAL3     0.900000E-01   1.00800           0
      7370 MEMB     55       POPC     H16Z     HAL3     0.900000E-01   1.00800           0
      7371 MEMB     56       POPC     N        NTL     -0.600000       14.0070           0
      7372 MEMB     56       POPC     C12      CTL2    -0.100000       12.0110           0
      7373 MEMB     56       POPC     H12A     HL       0.250000       1.00800           0
      7374 MEMB     56       POPC     H12B     HL       0.250000       1.00800           0
      7375 MEMB     56       POPC     C13      CTL5    -0.350000       12.0110           0
      7376 MEMB     56       POPC     H13A     HL       0.250000       1.00800           0
      7377 MEMB     56       POPC     H13B     HL       0.250000       1.00800           0
      7378 MEMB     56       POPC     H13C     HL       0.250000       1.00800           0
      7379 MEMB     56       POPC     C14      CTL5    -0.350000       12.0110           0
      7380 MEMB     56       POPC     H14A     HL       0.250000       1.00800           0
      7381 MEMB     56       POPC     H14B     HL       0.250000       1.00800           0
      7382 MEMB     56       POPC     H14C     HL       0.250000       1.00800           0
      7383 MEMB     56       POPC     C15      CTL5    -0.350000       12.0110           0
      7384 MEMB     56       POPC     H15A     HL       0.250000       1.00800           0
      7385 MEMB     56       POPC     H15B     HL       0.250000       1.00800           0
      7386 MEMB     56       POPC     H15C     HL       0.250000       1.00800           0
      7387 MEMB     56       POPC     C11      CTL2    -0.800000E-01   12.0110           0
      7388 MEMB     56       POPC     H11A     HAL2     0.900000E-01   1.00800           0
      7389 MEMB     56       POPC     H11B     HAL2     0.900000E-01   1.00800           0
      7390 MEMB     56       POPC     P        PL       1.50000        30.9740           0
      7391 MEMB     56       POPC     O13      O2L     -0.780000       15.9994           0
      7392 MEMB     56       POPC     O14      O2L     -0.780000       15.9994           0
      7393 MEMB     56       POPC     O12      OSLP    -0.570000       15.9994           0
      7394 MEMB     56       POPC     O11      OSLP    -0.570000       15.9994           0
      7395 MEMB     56       POPC     C1       CTL2    -0.800000E-01   12.0110           0
      7396 MEMB     56       POPC     HA       HAL2     0.900000E-01   1.00800           0
      7397 MEMB     56       POPC     HB       HAL2     0.900000E-01   1.00800           0
      7398 MEMB     56       POPC     C2       CTL1     0.170000       12.0110           0
      7399 MEMB     56       POPC     HS       HAL1     0.900000E-01   1.00800           0
      7400 MEMB     56       POPC     O21      OSL     -0.490000       15.9994           0
      7401 MEMB     56       POPC     C21      CL       0.900000       12.0110           0
      7402 MEMB     56       POPC     O22      OBL     -0.630000       15.9994           0
      7403 MEMB     56       POPC     C22      CTL2    -0.220000       12.0110           0
      7404 MEMB     56       POPC     H2R      HAL2     0.900000E-01   1.00800           0
      7405 MEMB     56       POPC     H2S      HAL2     0.900000E-01   1.00800           0
      7406 MEMB     56       POPC     C3       CTL2     0.800000E-01   12.0110           0
      7407 MEMB     56       POPC     HX       HAL2     0.900000E-01   1.00800           0
      7408 MEMB     56       POPC     HY       HAL2     0.900000E-01   1.00800           0
      7409 MEMB     56       POPC     O31      OSL     -0.490000       15.9994           0
      7410 MEMB     56       POPC     C31      CL       0.900000       12.0110           0
      7411 MEMB     56       POPC     O32      OBL     -0.630000       15.9994           0
      7412 MEMB     56       POPC     C32      CTL2    -0.220000       12.0110           0
      7413 MEMB     56       POPC     H2X      HAL2     0.900000E-01   1.00800           0
      7414 MEMB     56       POPC     H2Y      HAL2     0.900000E-01   1.00800           0
      7415 MEMB     56       POPC     C23      CTL2    -0.180000       12.0110           0
      7416 MEMB     56       POPC     H3R      HAL2     0.900000E-01   1.00800           0
      7417 MEMB     56       POPC     H3S      HAL2     0.900000E-01   1.00800           0
      7418 MEMB     56       POPC     C24      CTL2    -0.180000       12.0110           0
      7419 MEMB     56       POPC     H4R      HAL2     0.900000E-01   1.00800           0
      7420 MEMB     56       POPC     H4S      HAL2     0.900000E-01   1.00800           0
      7421 MEMB     56       POPC     C25      CTL2    -0.180000       12.0110           0
      7422 MEMB     56       POPC     H5R      HAL2     0.900000E-01   1.00800           0
      7423 MEMB     56       POPC     H5S      HAL2     0.900000E-01   1.00800           0
      7424 MEMB     56       POPC     C26      CTL2    -0.180000       12.0110           0
      7425 MEMB     56       POPC     H6R      HAL2     0.900000E-01   1.00800           0
      7426 MEMB     56       POPC     H6S      HAL2     0.900000E-01   1.00800           0
      7427 MEMB     56       POPC     C27      CTL2    -0.180000       12.0110           0
      7428 MEMB     56       POPC     H7R      HAL2     0.900000E-01   1.00800           0
      7429 MEMB     56       POPC     H7S      HAL2     0.900000E-01   1.00800           0
      7430 MEMB     56       POPC     C28      CTL2    -0.180000       12.0110           0
      7431 MEMB     56       POPC     H8R      HAL2     0.900000E-01   1.00800           0
      7432 MEMB     56       POPC     H8S      HAL2     0.900000E-01   1.00800           0
      7433 MEMB     56       POPC     C29      CEL1    -0.150000       12.0110           0
      7434 MEMB     56       POPC     H91      HEL1     0.150000       1.00800           0
      7435 MEMB     56       POPC     C210     CEL1    -0.150000       12.0110           0
      7436 MEMB     56       POPC     H101     HEL1     0.150000       1.00800           0
      7437 MEMB     56       POPC     C211     CTL2    -0.180000       12.0110           0
      7438 MEMB     56       POPC     H11R     HAL2     0.900000E-01   1.00800           0
      7439 MEMB     56       POPC     H11S     HAL2     0.900000E-01   1.00800           0
      7440 MEMB     56       POPC     C212     CTL2    -0.180000       12.0110           0
      7441 MEMB     56       POPC     H12R     HAL2     0.900000E-01   1.00800           0
      7442 MEMB     56       POPC     H12S     HAL2     0.900000E-01   1.00800           0
      7443 MEMB     56       POPC     C213     CTL2    -0.180000       12.0110           0
      7444 MEMB     56       POPC     H13R     HAL2     0.900000E-01   1.00800           0
      7445 MEMB     56       POPC     H13S     HAL2     0.900000E-01   1.00800           0
      7446 MEMB     56       POPC     C214     CTL2    -0.180000       12.0110           0
      7447 MEMB     56       POPC     H14R     HAL2     0.900000E-01   1.00800           0
      7448 MEMB     56       POPC     H14S     HAL2     0.900000E-01   1.00800           0
      7449 MEMB     56       POPC     C215     CTL2    -0.180000       12.0110           0
      7450 MEMB     56       POPC     H15R     HAL2     0.900000E-01   1.00800           0
      7451 MEMB     56       POPC     H15S     HAL2     0.900000E-01   1.00800           0
      7452 MEMB     56       POPC     C216     CTL2    -0.180000       12.0110           0
      7453 MEMB     56       POPC     H16R     HAL2     0.900000E-01   1.00800           0
      7454 MEMB     56       POPC     H16S     HAL2     0.900000E-01   1.00800           0
      7455 MEMB     56       POPC     C217     CTL2    -0.180000       12.0110           0
      7456 MEMB     56       POPC     H17R     HAL2     0.900000E-01   1.00800           0
      7457 MEMB     56       POPC     H17S     HAL2     0.900000E-01   1.00800           0
      7458 MEMB     56       POPC     C218     CTL3    -0.270000       12.0110           0
      7459 MEMB     56       POPC     H18R     HAL3     0.900000E-01   1.00800           0
      7460 MEMB     56       POPC     H18S     HAL3     0.900000E-01   1.00800           0
      7461 MEMB     56       POPC     H18T     HAL3     0.900000E-01   1.00800           0
      7462 MEMB     56       POPC     C33      CTL2    -0.180000       12.0110           0
      7463 MEMB     56       POPC     H3X      HAL2     0.900000E-01   1.00800           0
      7464 MEMB     56       POPC     H3Y      HAL2     0.900000E-01   1.00800           0
      7465 MEMB     56       POPC     C34      CTL2    -0.180000       12.0110           0
      7466 MEMB     56       POPC     H4X      HAL2     0.900000E-01   1.00800           0
      7467 MEMB     56       POPC     H4Y      HAL2     0.900000E-01   1.00800           0
      7468 MEMB     56       POPC     C35      CTL2    -0.180000       12.0110           0
      7469 MEMB     56       POPC     H5X      HAL2     0.900000E-01   1.00800           0
      7470 MEMB     56       POPC     H5Y      HAL2     0.900000E-01   1.00800           0
      7471 MEMB     56       POPC     C36      CTL2    -0.180000       12.0110           0
      7472 MEMB     56       POPC     H6X      HAL2     0.900000E-01   1.00800           0
      7473 MEMB     56       POPC     H6Y      HAL2     0.900000E-01   1.00800           0
      7474 MEMB     56       POPC     C37      CTL2    -0.180000       12.0110           0
      7475 MEMB     56       POPC     H7X      HAL2     0.900000E-01   1.00800           0
      7476 MEMB     56       POPC     H7Y      HAL2     0.900000E-01   1.00800           0
      7477 MEMB     56       POPC     C38      CTL2    -0.180000       12.0110           0
      7478 MEMB     56       POPC     H8X      HAL2     0.900000E-01   1.00800           0
      7479 MEMB     56       POPC     H8Y      HAL2     0.900000E-01   1.00800           0
      7480 MEMB     56       POPC     C39      CTL2    -0.180000       12.0110           0
      7481 MEMB     56       POPC     H9X      HAL2     0.900000E-01   1.00800           0
      7482 MEMB     56       POPC     H9Y      HAL2     0.900000E-01   1.00800           0
      7483 MEMB     56       POPC     C310     CTL2    -0.180000       12.0110           0
      7484 MEMB     56       POPC     H10X     HAL2     0.900000E-01   1.00800           0
      7485 MEMB     56       POPC     H10Y     HAL2     0.900000E-01   1.00800           0
      7486 MEMB     56       POPC     C311     CTL2    -0.180000       12.0110           0
      7487 MEMB     56       POPC     H11X     HAL2     0.900000E-01   1.00800           0
      7488 MEMB     56       POPC     H11Y     HAL2     0.900000E-01   1.00800           0
      7489 MEMB     56       POPC     C312     CTL2    -0.180000       12.0110           0
      7490 MEMB     56       POPC     H12X     HAL2     0.900000E-01   1.00800           0
      7491 MEMB     56       POPC     H12Y     HAL2     0.900000E-01   1.00800           0
      7492 MEMB     56       POPC     C313     CTL2    -0.180000       12.0110           0
      7493 MEMB     56       POPC     H13X     HAL2     0.900000E-01   1.00800           0
      7494 MEMB     56       POPC     H13Y     HAL2     0.900000E-01   1.00800           0
      7495 MEMB     56       POPC     C314     CTL2    -0.180000       12.0110           0
      7496 MEMB     56       POPC     H14X     HAL2     0.900000E-01   1.00800           0
      7497 MEMB     56       POPC     H14Y     HAL2     0.900000E-01   1.00800           0
      7498 MEMB     56       POPC     C315     CTL2    -0.180000       12.0110           0
      7499 MEMB     56       POPC     H15X     HAL2     0.900000E-01   1.00800           0
      7500 MEMB     56       POPC     H15Y     HAL2     0.900000E-01   1.00800           0
      7501 MEMB     56       POPC     C316     CTL3    -0.270000       12.0110           0
      7502 MEMB     56       POPC     H16X     HAL3     0.900000E-01   1.00800           0
      7503 MEMB     56       POPC     H16Y     HAL3     0.900000E-01   1.00800           0
      7504 MEMB     56       POPC     H16Z     HAL3     0.900000E-01   1.00800           0
      7505 MEMB     57       POPC     N        NTL     -0.600000       14.0070           0
      7506 MEMB     57       POPC     C12      CTL2    -0.100000       12.0110           0
      7507 MEMB     57       POPC     H12A     HL       0.250000       1.00800           0
      7508 MEMB     57       POPC     H12B     HL       0.250000       1.00800           0
      7509 MEMB     57       POPC     C13      CTL5    -0.350000       12.0110           0
      7510 MEMB     57       POPC     H13A     HL       0.250000       1.00800           0
      7511 MEMB     57       POPC     H13B     HL       0.250000       1.00800           0
      7512 MEMB     57       POPC     H13C     HL       0.250000       1.00800           0
      7513 MEMB     57       POPC     C14      CTL5    -0.350000       12.0110           0
      7514 MEMB     57       POPC     H14A     HL       0.250000       1.00800           0
      7515 MEMB     57       POPC     H14B     HL       0.250000       1.00800           0
      7516 MEMB     57       POPC     H14C     HL       0.250000       1.00800           0
      7517 MEMB     57       POPC     C15      CTL5    -0.350000       12.0110           0
      7518 MEMB     57       POPC     H15A     HL       0.250000       1.00800           0
      7519 MEMB     57       POPC     H15B     HL       0.250000       1.00800           0
      7520 MEMB     57       POPC     H15C     HL       0.250000       1.00800           0
      7521 MEMB     57       POPC     C11      CTL2    -0.800000E-01   12.0110           0
      7522 MEMB     57       POPC     H11A     HAL2     0.900000E-01   1.00800           0
      7523 MEMB     57       POPC     H11B     HAL2     0.900000E-01   1.00800           0
      7524 MEMB     57       POPC     P        PL       1.50000        30.9740           0
      7525 MEMB     57       POPC     O13      O2L     -0.780000       15.9994           0
      7526 MEMB     57       POPC     O14      O2L     -0.780000       15.9994           0
      7527 MEMB     57       POPC     O12      OSLP    -0.570000       15.9994           0
      7528 MEMB     57       POPC     O11      OSLP    -0.570000       15.9994           0
      7529 MEMB     57       POPC     C1       CTL2    -0.800000E-01   12.0110           0
      7530 MEMB     57       POPC     HA       HAL2     0.900000E-01   1.00800           0
      7531 MEMB     57       POPC     HB       HAL2     0.900000E-01   1.00800           0
      7532 MEMB     57       POPC     C2       CTL1     0.170000       12.0110           0
      7533 MEMB     57       POPC     HS       HAL1     0.900000E-01   1.00800           0
      7534 MEMB     57       POPC     O21      OSL     -0.490000       15.9994           0
      7535 MEMB     57       POPC     C21      CL       0.900000       12.0110           0
      7536 MEMB     57       POPC     O22      OBL     -0.630000       15.9994           0
      7537 MEMB     57       POPC     C22      CTL2    -0.220000       12.0110           0
      7538 MEMB     57       POPC     H2R      HAL2     0.900000E-01   1.00800           0
      7539 MEMB     57       POPC     H2S      HAL2     0.900000E-01   1.00800           0
      7540 MEMB     57       POPC     C3       CTL2     0.800000E-01   12.0110           0
      7541 MEMB     57       POPC     HX       HAL2     0.900000E-01   1.00800           0
      7542 MEMB     57       POPC     HY       HAL2     0.900000E-01   1.00800           0
      7543 MEMB     57       POPC     O31      OSL     -0.490000       15.9994           0
      7544 MEMB     57       POPC     C31      CL       0.900000       12.0110           0
      7545 MEMB     57       POPC     O32      OBL     -0.630000       15.9994           0
      7546 MEMB     57       POPC     C32      CTL2    -0.220000       12.0110           0
      7547 MEMB     57       POPC     H2X      HAL2     0.900000E-01   1.00800           0
      7548 MEMB     57       POPC     H2Y      HAL2     0.900000E-01   1.00800           0
      7549 MEMB     57       POPC     C23      CTL2    -0.180000       12.0110           0
      7550 MEMB     57       POPC     H3R      HAL2     0.900000E-01   1.00800           0
      7551 MEMB     57       POPC     H3S      HAL2     0.900000E-01   1.00800           0
      7552 MEMB     57       POPC     C24      CTL2    -0.180000       12.0110           0
      7553 MEMB     57       POPC     H4R      HAL2     0.900000E-01   1.00800           0
      7554 MEMB     57       POPC     H4S      HAL2     0.900000E-01   1.00800           0
      7555 MEMB     57       POPC     C25      CTL2    -0.180000       12.0110           0
      7556 MEMB     57       POPC     H5R      HAL2     0.900000E-01   1.00800           0
      7557 MEMB     57       POPC     H5S      HAL2     0.900000E-01   1.00800           0
      7558 MEMB     57       POPC     C26      CTL2    -0.180000       12.0110           0
      7559 MEMB     57       POPC     H6R      HAL2     0.900000E-01   1.00800           0
      7560 MEMB     57       POPC     H6S      HAL2     0.900000E-01   1.00800           0
      7561 MEMB     57       POPC     C27      CTL2    -0.180000       12.0110           0
      7562 MEMB     57       POPC     H7R      HAL2     0.900000E-01   1.00800           0
      7563 MEMB     57       POPC     H7S      HAL2     0.900000E-01   1.00800           0
      7564 MEMB     57       POPC     C28      CTL2    -0.180000       12.0110           0
      7565 MEMB     57       POPC     H8R      HAL2     0.900000E-01   1.00800           0
      7566 MEMB     57       POPC     H8S      HAL2     0.900000E-01   1.00800           0
      7567 MEMB     57       POPC     C29      CEL1    -0.150000       12.0110           0
      7568 MEMB     57       POPC     H91      HEL1     0.150000       1.00800           0
      7569 MEMB     57       POPC     C210     CEL1    -0.150000       12.0110           0
      7570 MEMB     57       POPC     H101     HEL1     0.150000       1.00800           0
      7571 MEMB     57       POPC     C211     CTL2    -0.180000       12.0110           0
      7572 MEMB     57       POPC     H11R     HAL2     0.900000E-01   1.00800           0
      7573 MEMB     57       POPC     H11S     HAL2     0.900000E-01   1.00800           0
      7574 MEMB     57       POPC     C212     CTL2    -0.180000       12.0110           0
      7575 MEMB     57       POPC     H12R     HAL2     0.900000E-01   1.00800           0
      7576 MEMB     57       POPC     H12S     HAL2     0.900000E-01   1.00800           0
      7577 MEMB     57       POPC     C213     CTL2    -0.180000       12.0110           0
      7578 MEMB     57       POPC     H13R     HAL2     0.900000E-01   1.00800           0
      7579 MEMB     57       POPC     H13S     HAL2     0.900000E-01   1.00800           0
      7580 MEMB     57       POPC     C214     CTL2    -0.180000       12.0110           0
      7581 MEMB     57       POPC     H14R     HAL2     0.900000E-01   1.00800           0
      7582 MEMB     57       POPC     H14S     HAL2     0.900000E-01   1.00800           0
      7583 MEMB     57       POPC     C215     CTL2    -0.180000       12.0110           0
      7584 MEMB     57       POPC     H15R     HAL2     0.900000E-01   1.00800           0
      7585 MEMB     57       POPC     H15S     HAL2     0.900000E-01   1.00800           0
      7586 MEMB     57       POPC     C216     CTL2    -0.180000       12.0110           0
      7587 MEMB     57       POPC     H16R     HAL2     0.900000E-01   1.00800           0
      7588 MEMB     57       POPC     H16S     HAL2     0.900000E-01   1.00800           0
      7589 MEMB     57       POPC     C217     CTL2    -0.180000       12.0110           0
      7590 MEMB     57       POPC     H17R     HAL2     0.900000E-01   1.00800           0
      7591 MEMB     57       POPC     H17S     HAL2     0.900000E-01   1.00800           0
      7592 MEMB     57       POPC     C218     CTL3    -0.270000       12.0110           0
      7593 MEMB     57       POPC     H18R     HAL3     0.900000E-01   1.00800           0
      7594 MEMB     57       POPC     H18S     HAL3     0.900000E-01   1.00800           0
      7595 MEMB     57       POPC     H18T     HAL3     0.900000E-01   1.00800           0
      7596 MEMB     57       POPC     C33      CTL2    -0.180000       12.0110           0
      7597 MEMB     57       POPC     H3X      HAL2     0.900000E-01   1.00800           0
      7598 MEMB     57       POPC     H3Y      HAL2     0.900000E-01   1.00800           0
      7599 MEMB     57       POPC     C34      CTL2    -0.180000       12.0110           0
      7600 MEMB     57       POPC     H4X      HAL2     0.900000E-01   1.00800           0
      7601 MEMB     57       POPC     H4Y      HAL2     0.900000E-01   1.00800           0
      7602 MEMB     57       POPC     C35      CTL2    -0.180000       12.0110           0
      7603 MEMB     57       POPC     H5X      HAL2     0.900000E-01   1.00800           0
      7604 MEMB     57       POPC     H5Y      HAL2     0.900000E-01   1.00800           0
      7605 MEMB     57       POPC     C36      CTL2    -0.180000       12.0110           0
      7606 MEMB     57       POPC     H6X      HAL2     0.900000E-01   1.00800           0
      7607 MEMB     57       POPC     H6Y      HAL2     0.900000E-01   1.00800           0
      7608 MEMB     57       POPC     C37      CTL2    -0.180000       12.0110           0
      7609 MEMB     57       POPC     H7X      HAL2     0.900000E-01   1.00800           0
      7610 MEMB     57       POPC     H7Y      HAL2     0.900000E-01   1.00800           0
      7611 MEMB     57       POPC     C38      CTL2    -0.180000       12.0110           0
      7612 MEMB     57       POPC     H8X      HAL2     0.900000E-01   1.00800           0
      7613 MEMB     57       POPC     H8Y      HAL2     0.900000E-01   1.00800           0
      7614 MEMB     57       POPC     C39      CTL2    -0.180000       12.0110           0
      7615 MEMB     57       POPC     H9X      HAL2     0.900000E-01   1.00800           0
      7616 MEMB     57       POPC     H9Y      HAL2     0.900000E-01   1.00800           0
      7617 MEMB     57       POPC     C310     CTL2    -0.180000       12.0110           0
      7618 MEMB     57       POPC     H10X     HAL2     0.900000E-01   1.00800           0
      7619 MEMB     57       POPC     H10Y     HAL2     0.900000E-01   1.00800           0
      7620 MEMB     57       POPC     C311     CTL2    -0.180000       12.0110           0
      7621 MEMB     57       POPC     H11X     HAL2     0.900000E-01   1.00800           0
      7622 MEMB     57       POPC     H11Y     HAL2     0.900000E-01   1.00800           0
      7623 MEMB     57       POPC     C312     CTL2    -0.180000       12.0110           0
      7624 MEMB     57       POPC     H12X     HAL2     0.900000E-01   1.00800           0
      7625 MEMB     57       POPC     H12Y     HAL2     0.900000E-01   1.00800           0
      7626 MEMB     57       POPC     C313     CTL2    -0.180000       12.0110           0
      7627 MEMB     57       POPC     H13X     HAL2     0.900000E-01   1.00800           0
      7628 MEMB     57       POPC     H13Y     HAL2     0.900000E-01   1.00800           0
      7629 MEMB     57       POPC     C314     CTL2    -0.180000       12.0110           0
      7630 MEMB     57       POPC     H14X     HAL2     0.900000E-01   1.00800           0
      7631 MEMB     57       POPC     H14Y     HAL2     0.900000E-01   1.00800           0
      7632 MEMB     57       POPC     C315     CTL2    -0.180000       12.0110           0
      7633 MEMB     57       POPC     H15X     HAL2     0.900000E-01   1.00800           0
      7634 MEMB     57       POPC     H15Y     HAL2     0.900000E-01   1.00800           0
      7635 MEMB     57       POPC     C316     CTL3    -0.270000       12.0110           0
      7636 MEMB     57       POPC     H16X     HAL3     0.900000E-01   1.00800           0
      7637 MEMB     57       POPC     H16Y     HAL3     0.900000E-01   1.00800           0
      7638 MEMB     57       POPC     H16Z     HAL3     0.900000E-01   1.00800           0
      7639 MEMB     58       POPC     N        NTL     -0.600000       14.0070           0
      7640 MEMB     58       POPC     C12      CTL2    -0.100000       12.0110           0
      7641 MEMB     58       POPC     H12A     HL       0.250000       1.00800           0
      7642 MEMB     58       POPC     H12B     HL       0.250000       1.00800           0
      7643 MEMB     58       POPC     C13      CTL5    -0.350000       12.0110           0
      7644 MEMB     58       POPC     H13A     HL       0.250000       1.00800           0
      7645 MEMB     58       POPC     H13B     HL       0.250000       1.00800           0
      7646 MEMB     58       POPC     H13C     HL       0.250000       1.00800           0
      7647 MEMB     58       POPC     C14      CTL5    -0.350000       12.0110           0
      7648 MEMB     58       POPC     H14A     HL       0.250000       1.00800           0
      7649 MEMB     58       POPC     H14B     HL       0.250000       1.00800           0
      7650 MEMB     58       POPC     H14C     HL       0.250000       1.00800           0
      7651 MEMB     58       POPC     C15      CTL5    -0.350000       12.0110           0
      7652 MEMB     58       POPC     H15A     HL       0.250000       1.00800           0
      7653 MEMB     58       POPC     H15B     HL       0.250000       1.00800           0
      7654 MEMB     58       POPC     H15C     HL       0.250000       1.00800           0
      7655 MEMB     58       POPC     C11      CTL2    -0.800000E-01   12.0110           0
      7656 MEMB     58       POPC     H11A     HAL2     0.900000E-01   1.00800           0
      7657 MEMB     58       POPC     H11B     HAL2     0.900000E-01   1.00800           0
      7658 MEMB     58       POPC     P        PL       1.50000        30.9740           0
      7659 MEMB     58       POPC     O13      O2L     -0.780000       15.9994           0
      7660 MEMB     58       POPC     O14      O2L     -0.780000       15.9994           0
      7661 MEMB     58       POPC     O12      OSLP    -0.570000       15.9994           0
      7662 MEMB     58       POPC     O11      OSLP    -0.570000       15.9994           0
      7663 MEMB     58       POPC     C1       CTL2    -0.800000E-01   12.0110           0
      7664 MEMB     58       POPC     HA       HAL2     0.900000E-01   1.00800           0
      7665 MEMB     58       POPC     HB       HAL2     0.900000E-01   1.00800           0
      7666 MEMB     58       POPC     C2       CTL1     0.170000       12.0110           0
      7667 MEMB     58       POPC     HS       HAL1     0.900000E-01   1.00800           0
      7668 MEMB     58       POPC     O21      OSL     -0.490000       15.9994           0
      7669 MEMB     58       POPC     C21      CL       0.900000       12.0110           0
      7670 MEMB     58       POPC     O22      OBL     -0.630000       15.9994           0
      7671 MEMB     58       POPC     C22      CTL2    -0.220000       12.0110           0
      7672 MEMB     58       POPC     H2R      HAL2     0.900000E-01   1.00800           0
      7673 MEMB     58       POPC     H2S      HAL2     0.900000E-01   1.00800           0
      7674 MEMB     58       POPC     C3       CTL2     0.800000E-01   12.0110           0
      7675 MEMB     58       POPC     HX       HAL2     0.900000E-01   1.00800           0
      7676 MEMB     58       POPC     HY       HAL2     0.900000E-01   1.00800           0
      7677 MEMB     58       POPC     O31      OSL     -0.490000       15.9994           0
      7678 MEMB     58       POPC     C31      CL       0.900000       12.0110           0
      7679 MEMB     58       POPC     O32      OBL     -0.630000       15.9994           0
      7680 MEMB     58       POPC     C32      CTL2    -0.220000       12.0110           0
      7681 MEMB     58       POPC     H2X      HAL2     0.900000E-01   1.00800           0
      7682 MEMB     58       POPC     H2Y      HAL2     0.900000E-01   1.00800           0
      7683 MEMB     58       POPC     C23      CTL2    -0.180000       12.0110           0
      7684 MEMB     58       POPC     H3R      HAL2     0.900000E-01   1.00800           0
      7685 MEMB     58       POPC     H3S      HAL2     0.900000E-01   1.00800           0
      7686 MEMB     58       POPC     C24      CTL2    -0.180000       12.0110           0
      7687 MEMB     58       POPC     H4R      HAL2     0.900000E-01   1.00800           0
      7688 MEMB     58       POPC     H4S      HAL2     0.900000E-01   1.00800           0
      7689 MEMB     58       POPC     C25      CTL2    -0.180000       12.0110           0
      7690 MEMB     58       POPC     H5R      HAL2     0.900000E-01   1.00800           0
      7691 MEMB     58       POPC     H5S      HAL2     0.900000E-01   1.00800           0
      7692 MEMB     58       POPC     C26      CTL2    -0.180000       12.0110           0
      7693 MEMB     58       POPC     H6R      HAL2     0.900000E-01   1.00800           0
      7694 MEMB     58       POPC     H6S      HAL2     0.900000E-01   1.00800           0
      7695 MEMB     58       POPC     C27      CTL2    -0.180000       12.0110           0
      7696 MEMB     58       POPC     H7R      HAL2     0.900000E-01   1.00800           0
      7697 MEMB     58       POPC     H7S      HAL2     0.900000E-01   1.00800           0
      7698 MEMB     58       POPC     C28      CTL2    -0.180000       12.0110           0
      7699 MEMB     58       POPC     H8R      HAL2     0.900000E-01   1.00800           0
      7700 MEMB     58       POPC     H8S      HAL2     0.900000E-01   1.00800           0
      7701 MEMB     58       POPC     C29      CEL1    -0.150000       12.0110           0
      7702 MEMB     58       POPC     H91      HEL1     0.150000       1.00800           0
      7703 MEMB     58       POPC     C210     CEL1    -0.150000       12.0110           0
      7704 MEMB     58       POPC     H101     HEL1     0.150000       1.00800           0
      7705 MEMB     58       POPC     C211     CTL2    -0.180000       12.0110           0
      7706 MEMB     58       POPC     H11R     HAL2     0.900000E-01   1.00800           0
      7707 MEMB     58       POPC     H11S     HAL2     0.900000E-01   1.00800           0
      7708 MEMB     58       POPC     C212     CTL2    -0.180000       12.0110           0
      7709 MEMB     58       POPC     H12R     HAL2     0.900000E-01   1.00800           0
      7710 MEMB     58       POPC     H12S     HAL2     0.900000E-01   1.00800           0
      7711 MEMB     58       POPC     C213     CTL2    -0.180000       12.0110           0
      7712 MEMB     58       POPC     H13R     HAL2     0.900000E-01   1.00800           0
      7713 MEMB     58       POPC     H13S     HAL2     0.900000E-01   1.00800           0
      7714 MEMB     58       POPC     C214     CTL2    -0.180000       12.0110           0
      7715 MEMB     58       POPC     H14R     HAL2     0.900000E-01   1.00800           0
      7716 MEMB     58       POPC     H14S     HAL2     0.900000E-01   1.00800           0
      7717 MEMB     58       POPC     C215     CTL2    -0.180000       12.0110           0
      7718 MEMB     58       POPC     H15R     HAL2     0.900000E-01   1.00800           0
      7719 MEMB     58       POPC     H15S     HAL2     0.900000E-01   1.00800           0
      7720 MEMB     58       POPC     C216     CTL2    -0.180000       12.0110           0
      7721 MEMB     58       POPC     H16R     HAL2     0.900000E-01   1.00800           0
      7722 MEMB     58       POPC     H16S     HAL2     0.900000E-01   1.00800           0
      7723 MEMB     58       POPC     C217     CTL2    -0.180000       12.0110           0
      7724 MEMB     58       POPC     H17R     HAL2     0.900000E-01   1.00800           0
      7725 MEMB     58       POPC     H17S     HAL2     0.900000E-01   1.00800           0
      7726 MEMB     58       POPC     C218     CTL3    -0.270000       12.0110           0
      7727 MEMB     58       POPC     H18R     HAL3     0.900000E-01   1.00800           0
      7728 MEMB     58       POPC     H18S     HAL3     0.900000E-01   1.00800           0
      7729 MEMB     58       POPC     H18T     HAL3     0.900000E-01   1.00800           0
      7730 MEMB     58       POPC     C33      CTL2    -0.180000       12.0110           0
      7731 MEMB     58       POPC     H3X      HAL2     0.900000E-01   1.00800           0
      7732 MEMB     58       POPC     H3Y      HAL2     0.900000E-01   1.00800           0
      7733 MEMB     58       POPC     C34      CTL2    -0.180000       12.0110           0
      7734 MEMB     58       POPC     H4X      HAL2     0.900000E-01   1.00800           0
      7735 MEMB     58       POPC     H4Y      HAL2     0.900000E-01   1.00800           0
      7736 MEMB     58       POPC     C35      CTL2    -0.180000       12.0110           0
      7737 MEMB     58       POPC     H5X      HAL2     0.900000E-01   1.00800           0
      7738 MEMB     58       POPC     H5Y      HAL2     0.900000E-01   1.00800           0
      7739 MEMB     58       POPC     C36      CTL2    -0.180000       12.0110           0
      7740 MEMB     58       POPC     H6X      HAL2     0.900000E-01   1.00800           0
      7741 MEMB     58       POPC     H6Y      HAL2     0.900000E-01   1.00800           0
      7742 MEMB     58       POPC     C37      CTL2    -0.180000       12.0110           0
      7743 MEMB     58       POPC     H7X      HAL2     0.900000E-01   1.00800           0
      7744 MEMB     58       POPC     H7Y      HAL2     0.900000E-01   1.00800           0
      7745 MEMB     58       POPC     C38      CTL2    -0.180000       12.0110           0
      7746 MEMB     58       POPC     H8X      HAL2     0.900000E-01   1.00800           0
      7747 MEMB     58       POPC     H8Y      HAL2     0.900000E-01   1.00800           0
      7748 MEMB     58       POPC     C39      CTL2    -0.180000       12.0110           0
      7749 MEMB     58       POPC     H9X      HAL2     0.900000E-01   1.00800           0
      7750 MEMB     58       POPC     H9Y      HAL2     0.900000E-01   1.00800           0
      7751 MEMB     58       POPC     C310     CTL2    -0.180000       12.0110           0
      7752 MEMB     58       POPC     H10X     HAL2     0.900000E-01   1.00800           0
      7753 MEMB     58       POPC     H10Y     HAL2     0.900000E-01   1.00800           0
      7754 MEMB     58       POPC     C311     CTL2    -0.180000       12.0110           0
      7755 MEMB     58       POPC     H11X     HAL2     0.900000E-01   1.00800           0
      7756 MEMB     58       POPC     H11Y     HAL2     0.900000E-01   1.00800           0
      7757 MEMB     58       POPC     C312     CTL2    -0.180000       12.0110           0
      7758 MEMB     58       POPC     H12X     HAL2     0.900000E-01   1.00800           0
      7759 MEMB     58       POPC     H12Y     HAL2     0.900000E-01   1.00800           0
      7760 MEMB     58       POPC     C313     CTL2    -0.180000       12.0110           0
      7761 MEMB     58       POPC     H13X     HAL2     0.900000E-01   1.00800           0
      7762 MEMB     58       POPC     H13Y     HAL2     0.900000E-01   1.00800           0
      7763 MEMB     58       POPC     C314     CTL2    -0.180000       12.0110           0
      7764 MEMB     58       POPC     H14X     HAL2     0.900000E-01   1.00800           0
      7765 MEMB     58       POPC     H14Y     HAL2     0.900000E-01   1.00800           0
      7766 MEMB     58       POPC     C315     CTL2    -0.180000       12.0110           0
      7767 MEMB     58       POPC     H15X     HAL2     0.900000E-01   1.00800           0
      7768 MEMB     58       POPC     H15Y     HAL2     0.900000E-01   1.00800           0
      7769 MEMB     58       POPC     C316     CTL3    -0.270000       12.0110           0
      7770 MEMB     58       POPC     H16X     HAL3     0.900000E-01   1.00800           0
      7771 MEMB     58       POPC     H16Y     HAL3     0.900000E-01   1.00800           0
      7772 MEMB     58       POPC     H16Z     HAL3     0.900000E-01   1.00800           0
      7773 MEMB     59       POPC     N        NTL     -0.600000       14.0070           0
      7774 MEMB     59       POPC     C12      CTL2    -0.100000       12.0110           0
      7775 MEMB     59       POPC     H12A     HL       0.250000       1.00800           0
      7776 MEMB     59       POPC     H12B     HL       0.250000       1.00800           0
      7777 MEMB     59       POPC     C13      CTL5    -0.350000       12.0110           0
      7778 MEMB     59       POPC     H13A     HL       0.250000       1.00800           0
      7779 MEMB     59       POPC     H13B     HL       0.250000       1.00800           0
      7780 MEMB     59       POPC     H13C     HL       0.250000       1.00800           0
      7781 MEMB     59       POPC     C14      CTL5    -0.350000       12.0110           0
      7782 MEMB     59       POPC     H14A     HL       0.250000       1.00800           0
      7783 MEMB     59       POPC     H14B     HL       0.250000       1.00800           0
      7784 MEMB     59       POPC     H14C     HL       0.250000       1.00800           0
      7785 MEMB     59       POPC     C15      CTL5    -0.350000       12.0110           0
      7786 MEMB     59       POPC     H15A     HL       0.250000       1.00800           0
      7787 MEMB     59       POPC     H15B     HL       0.250000       1.00800           0
      7788 MEMB     59       POPC     H15C     HL       0.250000       1.00800           0
      7789 MEMB     59       POPC     C11      CTL2    -0.800000E-01   12.0110           0
      7790 MEMB     59       POPC     H11A     HAL2     0.900000E-01   1.00800           0
      7791 MEMB     59       POPC     H11B     HAL2     0.900000E-01   1.00800           0
      7792 MEMB     59       POPC     P        PL       1.50000        30.9740           0
      7793 MEMB     59       POPC     O13      O2L     -0.780000       15.9994           0
      7794 MEMB     59       POPC     O14      O2L     -0.780000       15.9994           0
      7795 MEMB     59       POPC     O12      OSLP    -0.570000       15.9994           0
      7796 MEMB     59       POPC     O11      OSLP    -0.570000       15.9994           0
      7797 MEMB     59       POPC     C1       CTL2    -0.800000E-01   12.0110           0
      7798 MEMB     59       POPC     HA       HAL2     0.900000E-01   1.00800           0
      7799 MEMB     59       POPC     HB       HAL2     0.900000E-01   1.00800           0
      7800 MEMB     59       POPC     C2       CTL1     0.170000       12.0110           0
      7801 MEMB     59       POPC     HS       HAL1     0.900000E-01   1.00800           0
      7802 MEMB     59       POPC     O21      OSL     -0.490000       15.9994           0
      7803 MEMB     59       POPC     C21      CL       0.900000       12.0110           0
      7804 MEMB     59       POPC     O22      OBL     -0.630000       15.9994           0
      7805 MEMB     59       POPC     C22      CTL2    -0.220000       12.0110           0
      7806 MEMB     59       POPC     H2R      HAL2     0.900000E-01   1.00800           0
      7807 MEMB     59       POPC     H2S      HAL2     0.900000E-01   1.00800           0
      7808 MEMB     59       POPC     C3       CTL2     0.800000E-01   12.0110           0
      7809 MEMB     59       POPC     HX       HAL2     0.900000E-01   1.00800           0
      7810 MEMB     59       POPC     HY       HAL2     0.900000E-01   1.00800           0
      7811 MEMB     59       POPC     O31      OSL     -0.490000       15.9994           0
      7812 MEMB     59       POPC     C31      CL       0.900000       12.0110           0
      7813 MEMB     59       POPC     O32      OBL     -0.630000       15.9994           0
      7814 MEMB     59       POPC     C32      CTL2    -0.220000       12.0110           0
      7815 MEMB     59       POPC     H2X      HAL2     0.900000E-01   1.00800           0
      7816 MEMB     59       POPC     H2Y      HAL2     0.900000E-01   1.00800           0
      7817 MEMB     59       POPC     C23      CTL2    -0.180000       12.0110           0
      7818 MEMB     59       POPC     H3R      HAL2     0.900000E-01   1.00800           0
      7819 MEMB     59       POPC     H3S      HAL2     0.900000E-01   1.00800           0
      7820 MEMB     59       POPC     C24      CTL2    -0.180000       12.0110           0
      7821 MEMB     59       POPC     H4R      HAL2     0.900000E-01   1.00800           0
      7822 MEMB     59       POPC     H4S      HAL2     0.900000E-01   1.00800           0
      7823 MEMB     59       POPC     C25      CTL2    -0.180000       12.0110           0
      7824 MEMB     59       POPC     H5R      HAL2     0.900000E-01   1.00800           0
      7825 MEMB     59       POPC     H5S      HAL2     0.900000E-01   1.00800           0
      7826 MEMB     59       POPC     C26      CTL2    -0.180000       12.0110           0
      7827 MEMB     59       POPC     H6R      HAL2     0.900000E-01   1.00800           0
      7828 MEMB     59       POPC     H6S      HAL2     0.900000E-01   1.00800           0
      7829 MEMB     59       POPC     C27      CTL2    -0.180000       12.0110           0
      7830 MEMB     59       POPC     H7R      HAL2     0.900000E-01   1.00800           0
      7831 MEMB     59       POPC     H7S      HAL2     0.900000E-01   1.00800           0
      7832 MEMB     59       POPC     C28      CTL2    -0.180000       12.0110           0
      7833 MEMB     59       POPC     H8R      HAL2     0.900000E-01   1.00800           0
      7834 MEMB     59       POPC     H8S      HAL2     0.900000E-01   1.00800           0
      7835 MEMB     59       POPC     C29      CEL1    -0.150000       12.0110           0
      7836 MEMB     59       POPC     H91      HEL1     0.150000       1.00800           0
      7837 MEMB     59       POPC     C210     CEL1    -0.150000       12.0110           0
      7838 MEMB     59       POPC     H101     HEL1     0.150000       1.00800           0
      7839 MEMB     59       POPC     C211     CTL2    -0.180000       12.0110           0
      7840 MEMB     59       POPC     H11R     HAL2     0.900000E-01   1.00800           0
      7841 MEMB     59       POPC     H11S     HAL2     0.900000E-01   1.00800           0
      7842 MEMB     59       POPC     C212     CTL2    -0.180000       12.0110           0
      7843 MEMB     59       POPC     H12R     HAL2     0.900000E-01   1.00800           0
      7844 MEMB     59       POPC     H12S     HAL2     0.900000E-01   1.00800           0
      7845 MEMB     59       POPC     C213     CTL2    -0.180000       12.0110           0
      7846 MEMB     59       POPC     H13R     HAL2     0.900000E-01   1.00800           0
      7847 MEMB     59       POPC     H13S     HAL2     0.900000E-01   1.00800           0
      7848 MEMB     59       POPC     C214     CTL2    -0.180000       12.0110           0
      7849 MEMB     59       POPC     H14R     HAL2     0.900000E-01   1.00800           0
      7850 MEMB     59       POPC     H14S     HAL2     0.900000E-01   1.00800           0
      7851 MEMB     59       POPC     C215     CTL2    -0.180000       12.0110           0
      7852 MEMB     59       POPC     H15R     HAL2     0.900000E-01   1.00800           0
      7853 MEMB     59       POPC     H15S     HAL2     0.900000E-01   1.00800           0
      7854 MEMB     59       POPC     C216     CTL2    -0.180000       12.0110           0
      7855 MEMB     59       POPC     H16R     HAL2     0.900000E-01   1.00800           0
      7856 MEMB     59       POPC     H16S     HAL2     0.900000E-01   1.00800           0
      7857 MEMB     59       POPC     C217     CTL2    -0.180000       12.0110           0
      7858 MEMB     59       POPC     H17R     HAL2     0.900000E-01   1.00800           0
      7859 MEMB     59       POPC     H17S     HAL2     0.900000E-01   1.00800           0
      7860 MEMB     59       POPC     C218     CTL3    -0.270000       12.0110           0
      7861 MEMB     59       POPC     H18R     HAL3     0.900000E-01   1.00800           0
      7862 MEMB     59       POPC     H18S     HAL3     0.900000E-01   1.00800           0
      7863 MEMB     59       POPC     H18T     HAL3     0.900000E-01   1.00800           0
      7864 MEMB     59       POPC     C33      CTL2    -0.180000       12.0110           0
      7865 MEMB     59       POPC     H3X      HAL2     0.900000E-01   1.00800           0
      7866 MEMB     59       POPC     H3Y      HAL2     0.900000E-01   1.00800           0
      7867 MEMB     59       POPC     C34      CTL2    -0.180000       12.0110           0
      7868 MEMB     59       POPC     H4X      HAL2     0.900000E-01   1.00800           0
      7869 MEMB     59       POPC     H4Y      HAL2     0.900000E-01   1.00800           0
      7870 MEMB     59       POPC     C35      CTL2    -0.180000       12.0110           0
      7871 MEMB     59       POPC     H5X      HAL2     0.900000E-01   1.00800           0
      7872 MEMB     59       POPC     H5Y      HAL2     0.900000E-01   1.00800           0
      7873 MEMB     59       POPC     C36      CTL2    -0.180000       12.0110           0
      7874 MEMB     59       POPC     H6X      HAL2     0.900000E-01   1.00800           0
      7875 MEMB     59       POPC     H6Y      HAL2     0.900000E-01   1.00800           0
      7876 MEMB     59       POPC     C37      CTL2    -0.180000       12.0110           0
      7877 MEMB     59       POPC     H7X      HAL2     0.900000E-01   1.00800           0
      7878 MEMB     59       POPC     H7Y      HAL2     0.900000E-01   1.00800           0
      7879 MEMB     59       POPC     C38      CTL2    -0.180000       12.0110           0
      7880 MEMB     59       POPC     H8X      HAL2     0.900000E-01   1.00800           0
      7881 MEMB     59       POPC     H8Y      HAL2     0.900000E-01   1.00800           0
      7882 MEMB     59       POPC     C39      CTL2    -0.180000       12.0110           0
      7883 MEMB     59       POPC     H9X      HAL2     0.900000E-01   1.00800           0
      7884 MEMB     59       POPC     H9Y      HAL2     0.900000E-01   1.00800           0
      7885 MEMB     59       POPC     C310     CTL2    -0.180000       12.0110           0
      7886 MEMB     59       POPC     H10X     HAL2     0.900000E-01   1.00800           0
      7887 MEMB     59       POPC     H10Y     HAL2     0.900000E-01   1.00800           0
      7888 MEMB     59       POPC     C311     CTL2    -0.180000       12.0110           0
      7889 MEMB     59       POPC     H11X     HAL2     0.900000E-01   1.00800           0
      7890 MEMB     59       POPC     H11Y     HAL2     0.900000E-01   1.00800           0
      7891 MEMB     59       POPC     C312     CTL2    -0.180000       12.0110           0
      7892 MEMB     59       POPC     H12X     HAL2     0.900000E-01   1.00800           0
      7893 MEMB     59       POPC     H12Y     HAL2     0.900000E-01   1.00800           0
      7894 MEMB     59       POPC     C313     CTL2    -0.180000       12.0110           0
      7895 MEMB     59       POPC     H13X     HAL2     0.900000E-01   1.00800           0
      7896 MEMB     59       POPC     H13Y     HAL2     0.900000E-01   1.00800           0
      7897 MEMB     59       POPC     C314     CTL2    -0.180000       12.0110           0
      7898 MEMB     59       POPC     H14X     HAL2     0.900000E-01   1.00800           0
      7899 MEMB     59       POPC     H14Y     HAL2     0.900000E-01   1.00800           0
      7900 MEMB     59       POPC     C315     CTL2    -0.180000       12.0110           0
      7901 MEMB     59       POPC     H15X     HAL2     0.900000E-01   1.00800           0
      7902 MEMB     59       POPC     H15Y     HAL2     0.900000E-01   1.00800           0
      7903 MEMB     59       POPC     C316     CTL3    -0.270000       12.0110           0
      7904 MEMB     59       POPC     H16X     HAL3     0.900000E-01   1.00800           0
      7905 MEMB     59       POPC     H16Y     HAL3     0.900000E-01   1.00800           0
      7906 MEMB     59       POPC     H16Z     HAL3     0.900000E-01   1.00800           0
      7907 MEMB     60       POPC     N        NTL     -0.600000       14.0070           0
      7908 MEMB     60       POPC     C12      CTL2    -0.100000       12.0110           0
      7909 MEMB     60       POPC     H12A     HL       0.250000       1.00800           0
      7910 MEMB     60       POPC     H12B     HL       0.250000       1.00800           0
      7911 MEMB     60       POPC     C13      CTL5    -0.350000       12.0110           0
      7912 MEMB     60       POPC     H13A     HL       0.250000       1.00800           0
      7913 MEMB     60       POPC     H13B     HL       0.250000       1.00800           0
      7914 MEMB     60       POPC     H13C     HL       0.250000       1.00800           0
      7915 MEMB     60       POPC     C14      CTL5    -0.350000       12.0110           0
      7916 MEMB     60       POPC     H14A     HL       0.250000       1.00800           0
      7917 MEMB     60       POPC     H14B     HL       0.250000       1.00800           0
      7918 MEMB     60       POPC     H14C     HL       0.250000       1.00800           0
      7919 MEMB     60       POPC     C15      CTL5    -0.350000       12.0110           0
      7920 MEMB     60       POPC     H15A     HL       0.250000       1.00800           0
      7921 MEMB     60       POPC     H15B     HL       0.250000       1.00800           0
      7922 MEMB     60       POPC     H15C     HL       0.250000       1.00800           0
      7923 MEMB     60       POPC     C11      CTL2    -0.800000E-01   12.0110           0
      7924 MEMB     60       POPC     H11A     HAL2     0.900000E-01   1.00800           0
      7925 MEMB     60       POPC     H11B     HAL2     0.900000E-01   1.00800           0
      7926 MEMB     60       POPC     P        PL       1.50000        30.9740           0
      7927 MEMB     60       POPC     O13      O2L     -0.780000       15.9994           0
      7928 MEMB     60       POPC     O14      O2L     -0.780000       15.9994           0
      7929 MEMB     60       POPC     O12      OSLP    -0.570000       15.9994           0
      7930 MEMB     60       POPC     O11      OSLP    -0.570000       15.9994           0
      7931 MEMB     60       POPC     C1       CTL2    -0.800000E-01   12.0110           0
      7932 MEMB     60       POPC     HA       HAL2     0.900000E-01   1.00800           0
      7933 MEMB     60       POPC     HB       HAL2     0.900000E-01   1.00800           0
      7934 MEMB     60       POPC     C2       CTL1     0.170000       12.0110           0
      7935 MEMB     60       POPC     HS       HAL1     0.900000E-01   1.00800           0
      7936 MEMB     60       POPC     O21      OSL     -0.490000       15.9994           0
      7937 MEMB     60       POPC     C21      CL       0.900000       12.0110           0
      7938 MEMB     60       POPC     O22      OBL     -0.630000       15.9994           0
      7939 MEMB     60       POPC     C22      CTL2    -0.220000       12.0110           0
      7940 MEMB     60       POPC     H2R      HAL2     0.900000E-01   1.00800           0
      7941 MEMB     60       POPC     H2S      HAL2     0.900000E-01   1.00800           0
      7942 MEMB     60       POPC     C3       CTL2     0.800000E-01   12.0110           0
      7943 MEMB     60       POPC     HX       HAL2     0.900000E-01   1.00800           0
      7944 MEMB     60       POPC     HY       HAL2     0.900000E-01   1.00800           0
      7945 MEMB     60       POPC     O31      OSL     -0.490000       15.9994           0
      7946 MEMB     60       POPC     C31      CL       0.900000       12.0110           0
      7947 MEMB     60       POPC     O32      OBL     -0.630000       15.9994           0
      7948 MEMB     60       POPC     C32      CTL2    -0.220000       12.0110           0
      7949 MEMB     60       POPC     H2X      HAL2     0.900000E-01   1.00800           0
      7950 MEMB     60       POPC     H2Y      HAL2     0.900000E-01   1.00800           0
      7951 MEMB     60       POPC     C23      CTL2    -0.180000       12.0110           0
      7952 MEMB     60       POPC     H3R      HAL2     0.900000E-01   1.00800           0
      7953 MEMB     60       POPC     H3S      HAL2     0.900000E-01   1.00800           0
      7954 MEMB     60       POPC     C24      CTL2    -0.180000       12.0110           0
      7955 MEMB     60       POPC     H4R      HAL2     0.900000E-01   1.00800           0
      7956 MEMB     60       POPC     H4S      HAL2     0.900000E-01   1.00800           0
      7957 MEMB     60       POPC     C25      CTL2    -0.180000       12.0110           0
      7958 MEMB     60       POPC     H5R      HAL2     0.900000E-01   1.00800           0
      7959 MEMB     60       POPC     H5S      HAL2     0.900000E-01   1.00800           0
      7960 MEMB     60       POPC     C26      CTL2    -0.180000       12.0110           0
      7961 MEMB     60       POPC     H6R      HAL2     0.900000E-01   1.00800           0
      7962 MEMB     60       POPC     H6S      HAL2     0.900000E-01   1.00800           0
      7963 MEMB     60       POPC     C27      CTL2    -0.180000       12.0110           0
      7964 MEMB     60       POPC     H7R      HAL2     0.900000E-01   1.00800           0
      7965 MEMB     60       POPC     H7S      HAL2     0.900000E-01   1.00800           0
      7966 MEMB     60       POPC     C28      CTL2    -0.180000       12.0110           0
      7967 MEMB     60       POPC     H8R      HAL2     0.900000E-01   1.00800           0
      7968 MEMB     60       POPC     H8S      HAL2     0.900000E-01   1.00800           0
      7969 MEMB     60       POPC     C29      CEL1    -0.150000       12.0110           0
      7970 MEMB     60       POPC     H91      HEL1     0.150000       1.00800           0
      7971 MEMB     60       POPC     C210     CEL1    -0.150000       12.0110           0
      7972 MEMB     60       POPC     H101     HEL1     0.150000       1.00800           0
      7973 MEMB     60       POPC     C211     CTL2    -0.180000       12.0110           0
      7974 MEMB     60       POPC     H11R     HAL2     0.900000E-01   1.00800           0
      7975 MEMB     60       POPC     H11S     HAL2     0.900000E-01   1.00800           0
      7976 MEMB     60       POPC     C212     CTL2    -0.180000       12.0110           0
      7977 MEMB     60       POPC     H12R     HAL2     0.900000E-01   1.00800           0
      7978 MEMB     60       POPC     H12S     HAL2     0.900000E-01   1.00800           0
      7979 MEMB     60       POPC     C213     CTL2    -0.180000       12.0110           0
      7980 MEMB     60       POPC     H13R     HAL2     0.900000E-01   1.00800           0
      7981 MEMB     60       POPC     H13S     HAL2     0.900000E-01   1.00800           0
      7982 MEMB     60       POPC     C214     CTL2    -0.180000       12.0110           0
      7983 MEMB     60       POPC     H14R     HAL2     0.900000E-01   1.00800           0
      7984 MEMB     60       POPC     H14S     HAL2     0.900000E-01   1.00800           0
      7985 MEMB     60       POPC     C215     CTL2    -0.180000       12.0110           0
      7986 MEMB     60       POPC     H15R     HAL2     0.900000E-01   1.00800           0
      7987 MEMB     60       POPC     H15S     HAL2     0.900000E-01   1.00800           0
      7988 MEMB     60       POPC     C216     CTL2    -0.180000       12.0110           0
      7989 MEMB     60       POPC     H16R     HAL2     0.900000E-01   1.00800           0
      7990 MEMB     60       POPC     H16S     HAL2     0.900000E-01   1.00800           0
      7991 MEMB     60       POPC     C217     CTL2    -0.180000       12.0110           0
      7992 MEMB     60       POPC     H17R     HAL2     0.900000E-01   1.00800           0
      7993 MEMB     60       POPC     H17S     HAL2     0.900000E-01   1.00800           0
      7994 MEMB     60       POPC     C218     CTL3    -0.270000       12.0110           0
      7995 MEMB     60       POPC     H18R     HAL3     0.900000E-01   1.00800           0
      7996 MEMB     60       POPC     H18S     HAL3     0.900000E-01   1.00800           0
      7997 MEMB     60       POPC     H18T     HAL3     0.900000E-01   1.00800           0
      7998 MEMB     60       POPC     C33      CTL2    -0.180000       12.0110           0
      7999 MEMB     60       POPC     H3X      HAL2     0.900000E-01   1.00800           0
      8000 MEMB     60       POPC     H3Y      HAL2     0.900000E-01   1.00800           0
      8001 MEMB     60       POPC     C34      CTL2    -0.180000       12.0110           0
      8002 MEMB     60       POPC     H4X      HAL2     0.900000E-01   1.00800           0
      8003 MEMB     60       POPC     H4Y      HAL2     0.900000E-01   1.00800           0
      8004 MEMB     60       POPC     C35      CTL2    -0.180000       12.0110           0
      8005 MEMB     60       POPC     H5X      HAL2     0.900000E-01   1.00800           0
      8006 MEMB     60       POPC     H5Y      HAL2     0.900000E-01   1.00800           0
      8007 MEMB     60       POPC     C36      CTL2    -0.180000       12.0110           0
      8008 MEMB     60       POPC     H6X      HAL2     0.900000E-01   1.00800           0
      8009 MEMB     60       POPC     H6Y      HAL2     0.900000E-01   1.00800           0
      8010 MEMB     60       POPC     C37      CTL2    -0.180000       12.0110           0
      8011 MEMB     60       POPC     H7X      HAL2     0.900000E-01   1.00800           0
      8012 MEMB     60       POPC     H7Y      HAL2     0.900000E-01   1.00800           0
      8013 MEMB     60       POPC     C38      CTL2    -0.180000       12.0110           0
      8014 MEMB     60       POPC     H8X      HAL2     0.900000E-01   1.00800           0
      8015 MEMB     60       POPC     H8Y      HAL2     0.900000E-01   1.00800           0
      8016 MEMB     60       POPC     C39      CTL2    -0.180000       12.0110           0
      8017 MEMB     60       POPC     H9X      HAL2     0.900000E-01   1.00800           0
      8018 MEMB     60       POPC     H9Y      HAL2     0.900000E-01   1.00800           0
      8019 MEMB     60       POPC     C310     CTL2    -0.180000       12.0110           0
      8020 MEMB     60       POPC     H10X     HAL2     0.900000E-01   1.00800           0
      8021 MEMB     60       POPC     H10Y     HAL2     0.900000E-01   1.00800           0
      8022 MEMB     60       POPC     C311     CTL2    -0.180000       12.0110           0
      8023 MEMB     60       POPC     H11X     HAL2     0.900000E-01   1.00800           0
      8024 MEMB     60       POPC     H11Y     HAL2     0.900000E-01   1.00800           0
      8025 MEMB     60       POPC     C312     CTL2    -0.180000       12.0110           0
      8026 MEMB     60       POPC     H12X     HAL2     0.900000E-01   1.00800           0
      8027 MEMB     60       POPC     H12Y     HAL2     0.900000E-01   1.00800           0
      8028 MEMB     60       POPC     C313     CTL2    -0.180000       12.0110           0
      8029 MEMB     60       POPC     H13X     HAL2     0.900000E-01   1.00800           0
      8030 MEMB     60       POPC     H13Y     HAL2     0.900000E-01   1.00800           0
      8031 MEMB     60       POPC     C314     CTL2    -0.180000       12.0110           0
      8032 MEMB     60       POPC     H14X     HAL2     0.900000E-01   1.00800           0
      8033 MEMB     60       POPC     H14Y     HAL2     0.900000E-01   1.00800           0
      8034 MEMB     60       POPC     C315     CTL2    -0.180000       12.0110           0
      8035 MEMB     60       POPC     H15X     HAL2     0.900000E-01   1.00800           0
      8036 MEMB     60       POPC     H15Y     HAL2     0.900000E-01   1.00800           0
      8037 MEMB     60       POPC     C316     CTL3    -0.270000       12.0110           0
      8038 MEMB     60       POPC     H16X     HAL3     0.900000E-01   1.00800           0
      8039 MEMB     60       POPC     H16Y     HAL3     0.900000E-01   1.00800           0
      8040 MEMB     60       POPC     H16Z     HAL3     0.900000E-01   1.00800           0
      8041 MEMB     61       POPC     N        NTL     -0.600000       14.0070           0
      8042 MEMB     61       POPC     C12      CTL2    -0.100000       12.0110           0
      8043 MEMB     61       POPC     H12A     HL       0.250000       1.00800           0
      8044 MEMB     61       POPC     H12B     HL       0.250000       1.00800           0
      8045 MEMB     61       POPC     C13      CTL5    -0.350000       12.0110           0
      8046 MEMB     61       POPC     H13A     HL       0.250000       1.00800           0
      8047 MEMB     61       POPC     H13B     HL       0.250000       1.00800           0
      8048 MEMB     61       POPC     H13C     HL       0.250000       1.00800           0
      8049 MEMB     61       POPC     C14      CTL5    -0.350000       12.0110           0
      8050 MEMB     61       POPC     H14A     HL       0.250000       1.00800           0
      8051 MEMB     61       POPC     H14B     HL       0.250000       1.00800           0
      8052 MEMB     61       POPC     H14C     HL       0.250000       1.00800           0
      8053 MEMB     61       POPC     C15      CTL5    -0.350000       12.0110           0
      8054 MEMB     61       POPC     H15A     HL       0.250000       1.00800           0
      8055 MEMB     61       POPC     H15B     HL       0.250000       1.00800           0
      8056 MEMB     61       POPC     H15C     HL       0.250000       1.00800           0
      8057 MEMB     61       POPC     C11      CTL2    -0.800000E-01   12.0110           0
      8058 MEMB     61       POPC     H11A     HAL2     0.900000E-01   1.00800           0
      8059 MEMB     61       POPC     H11B     HAL2     0.900000E-01   1.00800           0
      8060 MEMB     61       POPC     P        PL       1.50000        30.9740           0
      8061 MEMB     61       POPC     O13      O2L     -0.780000       15.9994           0
      8062 MEMB     61       POPC     O14      O2L     -0.780000       15.9994           0
      8063 MEMB     61       POPC     O12      OSLP    -0.570000       15.9994           0
      8064 MEMB     61       POPC     O11      OSLP    -0.570000       15.9994           0
      8065 MEMB     61       POPC     C1       CTL2    -0.800000E-01   12.0110           0
      8066 MEMB     61       POPC     HA       HAL2     0.900000E-01   1.00800           0
      8067 MEMB     61       POPC     HB       HAL2     0.900000E-01   1.00800           0
      8068 MEMB     61       POPC     C2       CTL1     0.170000       12.0110           0
      8069 MEMB     61       POPC     HS       HAL1     0.900000E-01   1.00800           0
      8070 MEMB     61       POPC     O21      OSL     -0.490000       15.9994           0
      8071 MEMB     61       POPC     C21      CL       0.900000       12.0110           0
      8072 MEMB     61       POPC     O22      OBL     -0.630000       15.9994           0
      8073 MEMB     61       POPC     C22      CTL2    -0.220000       12.0110           0
      8074 MEMB     61       POPC     H2R      HAL2     0.900000E-01   1.00800           0
      8075 MEMB     61       POPC     H2S      HAL2     0.900000E-01   1.00800           0
      8076 MEMB     61       POPC     C3       CTL2     0.800000E-01   12.0110           0
      8077 MEMB     61       POPC     HX       HAL2     0.900000E-01   1.00800           0
      8078 MEMB     61       POPC     HY       HAL2     0.900000E-01   1.00800           0
      8079 MEMB     61       POPC     O31      OSL     -0.490000       15.9994           0
      8080 MEMB     61       POPC     C31      CL       0.900000       12.0110           0
      8081 MEMB     61       POPC     O32      OBL     -0.630000       15.9994           0
      8082 MEMB     61       POPC     C32      CTL2    -0.220000       12.0110           0
      8083 MEMB     61       POPC     H2X      HAL2     0.900000E-01   1.00800           0
      8084 MEMB     61       POPC     H2Y      HAL2     0.900000E-01   1.00800           0
      8085 MEMB     61       POPC     C23      CTL2    -0.180000       12.0110           0
      8086 MEMB     61       POPC     H3R      HAL2     0.900000E-01   1.00800           0
      8087 MEMB     61       POPC     H3S      HAL2     0.900000E-01   1.00800           0
      8088 MEMB     61       POPC     C24      CTL2    -0.180000       12.0110           0
      8089 MEMB     61       POPC     H4R      HAL2     0.900000E-01   1.00800           0
      8090 MEMB     61       POPC     H4S      HAL2     0.900000E-01   1.00800           0
      8091 MEMB     61       POPC     C25      CTL2    -0.180000       12.0110           0
      8092 MEMB     61       POPC     H5R      HAL2     0.900000E-01   1.00800           0
      8093 MEMB     61       POPC     H5S      HAL2     0.900000E-01   1.00800           0
      8094 MEMB     61       POPC     C26      CTL2    -0.180000       12.0110           0
      8095 MEMB     61       POPC     H6R      HAL2     0.900000E-01   1.00800           0
      8096 MEMB     61       POPC     H6S      HAL2     0.900000E-01   1.00800           0
      8097 MEMB     61       POPC     C27      CTL2    -0.180000       12.0110           0
      8098 MEMB     61       POPC     H7R      HAL2     0.900000E-01   1.00800           0
      8099 MEMB     61       POPC     H7S      HAL2     0.900000E-01   1.00800           0
      8100 MEMB     61       POPC     C28      CTL2    -0.180000       12.0110           0
      8101 MEMB     61       POPC     H8R      HAL2     0.900000E-01   1.00800           0
      8102 MEMB     61       POPC     H8S      HAL2     0.900000E-01   1.00800           0
      8103 MEMB     61       POPC     C29      CEL1    -0.150000       12.0110           0
      8104 MEMB     61       POPC     H91      HEL1     0.150000       1.00800           0
      8105 MEMB     61       POPC     C210     CEL1    -0.150000       12.0110           0
      8106 MEMB     61       POPC     H101     HEL1     0.150000       1.00800           0
      8107 MEMB     61       POPC     C211     CTL2    -0.180000       12.0110           0
      8108 MEMB     61       POPC     H11R     HAL2     0.900000E-01   1.00800           0
      8109 MEMB     61       POPC     H11S     HAL2     0.900000E-01   1.00800           0
      8110 MEMB     61       POPC     C212     CTL2    -0.180000       12.0110           0
      8111 MEMB     61       POPC     H12R     HAL2     0.900000E-01   1.00800           0
      8112 MEMB     61       POPC     H12S     HAL2     0.900000E-01   1.00800           0
      8113 MEMB     61       POPC     C213     CTL2    -0.180000       12.0110           0
      8114 MEMB     61       POPC     H13R     HAL2     0.900000E-01   1.00800           0
      8115 MEMB     61       POPC     H13S     HAL2     0.900000E-01   1.00800           0
      8116 MEMB     61       POPC     C214     CTL2    -0.180000       12.0110           0
      8117 MEMB     61       POPC     H14R     HAL2     0.900000E-01   1.00800           0
      8118 MEMB     61       POPC     H14S     HAL2     0.900000E-01   1.00800           0
      8119 MEMB     61       POPC     C215     CTL2    -0.180000       12.0110           0
      8120 MEMB     61       POPC     H15R     HAL2     0.900000E-01   1.00800           0
      8121 MEMB     61       POPC     H15S     HAL2     0.900000E-01   1.00800           0
      8122 MEMB     61       POPC     C216     CTL2    -0.180000       12.0110           0
      8123 MEMB     61       POPC     H16R     HAL2     0.900000E-01   1.00800           0
      8124 MEMB     61       POPC     H16S     HAL2     0.900000E-01   1.00800           0
      8125 MEMB     61       POPC     C217     CTL2    -0.180000       12.0110           0
      8126 MEMB     61       POPC     H17R     HAL2     0.900000E-01   1.00800           0
      8127 MEMB     61       POPC     H17S     HAL2     0.900000E-01   1.00800           0
      8128 MEMB     61       POPC     C218     CTL3    -0.270000       12.0110           0
      8129 MEMB     61       POPC     H18R     HAL3     0.900000E-01   1.00800           0
      8130 MEMB     61       POPC     H18S     HAL3     0.900000E-01   1.00800           0
      8131 MEMB     61       POPC     H18T     HAL3     0.900000E-01   1.00800           0
      8132 MEMB     61       POPC     C33      CTL2    -0.180000       12.0110           0
      8133 MEMB     61       POPC     H3X      HAL2     0.900000E-01   1.00800           0
      8134 MEMB     61       POPC     H3Y      HAL2     0.900000E-01   1.00800           0
      8135 MEMB     61       POPC     C34      CTL2    -0.180000       12.0110           0
      8136 MEMB     61       POPC     H4X      HAL2     0.900000E-01   1.00800           0
      8137 MEMB     61       POPC     H4Y      HAL2     0.900000E-01   1.00800           0
      8138 MEMB     61       POPC     C35      CTL2    -0.180000       12.0110           0
      8139 MEMB     61       POPC     H5X      HAL2     0.900000E-01   1.00800           0
      8140 MEMB     61       POPC     H5Y      HAL2     0.900000E-01   1.00800           0
      8141 MEMB     61       POPC     C36      CTL2    -0.180000       12.0110           0
      8142 MEMB     61       POPC     H6X      HAL2     0.900000E-01   1.00800           0
      8143 MEMB     61       POPC     H6Y      HAL2     0.900000E-01   1.00800           0
      8144 MEMB     61       POPC     C37      CTL2    -0.180000       12.0110           0
      8145 MEMB     61       POPC     H7X      HAL2     0.900000E-01   1.00800           0
      8146 MEMB     61       POPC     H7Y      HAL2     0.900000E-01   1.00800           0
      8147 MEMB     61       POPC     C38      CTL2    -0.180000       12.0110           0
      8148 MEMB     61       POPC     H8X      HAL2     0.900000E-01   1.00800           0
      8149 MEMB     61       POPC     H8Y      HAL2     0.900000E-01   1.00800           0
      8150 MEMB     61       POPC     C39      CTL2    -0.180000       12.0110           0
      8151 MEMB     61       POPC     H9X      HAL2     0.900000E-01   1.00800           0
      8152 MEMB     61       POPC     H9Y      HAL2     0.900000E-01   1.00800           0
      8153 MEMB     61       POPC     C310     CTL2    -0.180000       12.0110           0
      8154 MEMB     61       POPC     H10X     HAL2     0.900000E-01   1.00800           0
      8155 MEMB     61       POPC     H10Y     HAL2     0.900000E-01   1.00800           0
      8156 MEMB     61       POPC     C311     CTL2    -0.180000       12.0110           0
      8157 MEMB     61       POPC     H11X     HAL2     0.900000E-01   1.00800           0
      8158 MEMB     61       POPC     H11Y     HAL2     0.900000E-01   1.00800           0
      8159 MEMB     61       POPC     C312     CTL2    -0.180000       12.0110           0
      8160 MEMB     61       POPC     H12X     HAL2     0.900000E-01   1.00800           0
      8161 MEMB     61       POPC     H12Y     HAL2     0.900000E-01   1.00800           0
      8162 MEMB     61       POPC     C313     CTL2    -0.180000       12.0110           0
      8163 MEMB     61       POPC     H13X     HAL2     0.900000E-01   1.00800           0
      8164 MEMB     61       POPC     H13Y     HAL2     0.900000E-01   1.00800           0
      8165 MEMB     61       POPC     C314     CTL2    -0.180000       12.0110           0
      8166 MEMB     61       POPC     H14X     HAL2     0.900000E-01   1.00800           0
      8167 MEMB     61       POPC     H14Y     HAL2     0.900000E-01   1.00800           0
      8168 MEMB     61       POPC     C315     CTL2    -0.180000       12.0110           0
      8169 MEMB     61       POPC     H15X     HAL2     0.900000E-01   1.00800           0
      8170 MEMB     61       POPC     H15Y     HAL2     0.900000E-01   1.00800           0
      8171 MEMB     61       POPC     C316     CTL3    -0.270000       12.0110           0
      8172 MEMB     61       POPC     H16X     HAL3     0.900000E-01   1.00800           0
      8173 MEMB     61       POPC     H16Y     HAL3     0.900000E-01   1.00800           0
      8174 MEMB     61       POPC     H16Z     HAL3     0.900000E-01   1.00800           0
      8175 MEMB     62       POPC     N        NTL     -0.600000       14.0070           0
      8176 MEMB     62       POPC     C12      CTL2    -0.100000       12.0110           0
      8177 MEMB     62       POPC     H12A     HL       0.250000       1.00800           0
      8178 MEMB     62       POPC     H12B     HL       0.250000       1.00800           0
      8179 MEMB     62       POPC     C13      CTL5    -0.350000       12.0110           0
      8180 MEMB     62       POPC     H13A     HL       0.250000       1.00800           0
      8181 MEMB     62       POPC     H13B     HL       0.250000       1.00800           0
      8182 MEMB     62       POPC     H13C     HL       0.250000       1.00800           0
      8183 MEMB     62       POPC     C14      CTL5    -0.350000       12.0110           0
      8184 MEMB     62       POPC     H14A     HL       0.250000       1.00800           0
      8185 MEMB     62       POPC     H14B     HL       0.250000       1.00800           0
      8186 MEMB     62       POPC     H14C     HL       0.250000       1.00800           0
      8187 MEMB     62       POPC     C15      CTL5    -0.350000       12.0110           0
      8188 MEMB     62       POPC     H15A     HL       0.250000       1.00800           0
      8189 MEMB     62       POPC     H15B     HL       0.250000       1.00800           0
      8190 MEMB     62       POPC     H15C     HL       0.250000       1.00800           0
      8191 MEMB     62       POPC     C11      CTL2    -0.800000E-01   12.0110           0
      8192 MEMB     62       POPC     H11A     HAL2     0.900000E-01   1.00800           0
      8193 MEMB     62       POPC     H11B     HAL2     0.900000E-01   1.00800           0
      8194 MEMB     62       POPC     P        PL       1.50000        30.9740           0
      8195 MEMB     62       POPC     O13      O2L     -0.780000       15.9994           0
      8196 MEMB     62       POPC     O14      O2L     -0.780000       15.9994           0
      8197 MEMB     62       POPC     O12      OSLP    -0.570000       15.9994           0
      8198 MEMB     62       POPC     O11      OSLP    -0.570000       15.9994           0
      8199 MEMB     62       POPC     C1       CTL2    -0.800000E-01   12.0110           0
      8200 MEMB     62       POPC     HA       HAL2     0.900000E-01   1.00800           0
      8201 MEMB     62       POPC     HB       HAL2     0.900000E-01   1.00800           0
      8202 MEMB     62       POPC     C2       CTL1     0.170000       12.0110           0
      8203 MEMB     62       POPC     HS       HAL1     0.900000E-01   1.00800           0
      8204 MEMB     62       POPC     O21      OSL     -0.490000       15.9994           0
      8205 MEMB     62       POPC     C21      CL       0.900000       12.0110           0
      8206 MEMB     62       POPC     O22      OBL     -0.630000       15.9994           0
      8207 MEMB     62       POPC     C22      CTL2    -0.220000       12.0110           0
      8208 MEMB     62       POPC     H2R      HAL2     0.900000E-01   1.00800           0
      8209 MEMB     62       POPC     H2S      HAL2     0.900000E-01   1.00800           0
      8210 MEMB     62       POPC     C3       CTL2     0.800000E-01   12.0110           0
      8211 MEMB     62       POPC     HX       HAL2     0.900000E-01   1.00800           0
      8212 MEMB     62       POPC     HY       HAL2     0.900000E-01   1.00800           0
      8213 MEMB     62       POPC     O31      OSL     -0.490000       15.9994           0
      8214 MEMB     62       POPC     C31      CL       0.900000       12.0110           0
      8215 MEMB     62       POPC     O32      OBL     -0.630000       15.9994           0
      8216 MEMB     62       POPC     C32      CTL2    -0.220000       12.0110           0
      8217 MEMB     62       POPC     H2X      HAL2     0.900000E-01   1.00800           0
      8218 MEMB     62       POPC     H2Y      HAL2     0.900000E-01   1.00800           0
      8219 MEMB     62       POPC     C23      CTL2    -0.180000       12.0110           0
      8220 MEMB     62       POPC     H3R      HAL2     0.900000E-01   1.00800           0
      8221 MEMB     62       POPC     H3S      HAL2     0.900000E-01   1.00800           0
      8222 MEMB     62       POPC     C24      CTL2    -0.180000       12.0110           0
      8223 MEMB     62       POPC     H4R      HAL2     0.900000E-01   1.00800           0
      8224 MEMB     62       POPC     H4S      HAL2     0.900000E-01   1.00800           0
      8225 MEMB     62       POPC     C25      CTL2    -0.180000       12.0110           0
      8226 MEMB     62       POPC     H5R      HAL2     0.900000E-01   1.00800           0
      8227 MEMB     62       POPC     H5S      HAL2     0.900000E-01   1.00800           0
      8228 MEMB     62       POPC     C26      CTL2    -0.180000       12.0110           0
      8229 MEMB     62       POPC     H6R      HAL2     0.900000E-01   1.00800           0
      8230 MEMB     62       POPC     H6S      HAL2     0.900000E-01   1.00800           0
      8231 MEMB     62       POPC     C27      CTL2    -0.180000       12.0110           0
      8232 MEMB     62       POPC     H7R      HAL2     0.900000E-01   1.00800           0
      8233 MEMB     62       POPC     H7S      HAL2     0.900000E-01   1.00800           0
      8234 MEMB     62       POPC     C28      CTL2    -0.180000       12.0110           0
      8235 MEMB     62       POPC     H8R      HAL2     0.900000E-01   1.00800           0
      8236 MEMB     62       POPC     H8S      HAL2     0.900000E-01   1.00800           0
      8237 MEMB     62       POPC     C29      CEL1    -0.150000       12.0110           0
      8238 MEMB     62       POPC     H91      HEL1     0.150000       1.00800           0
      8239 MEMB     62       POPC     C210     CEL1    -0.150000       12.0110           0
      8240 MEMB     62       POPC     H101     HEL1     0.150000       1.00800           0
      8241 MEMB     62       POPC     C211     CTL2    -0.180000       12.0110           0
      8242 MEMB     62       POPC     H11R     HAL2     0.900000E-01   1.00800           0
      8243 MEMB     62       POPC     H11S     HAL2     0.900000E-01   1.00800           0
      8244 MEMB     62       POPC     C212     CTL2    -0.180000       12.0110           0
      8245 MEMB     62       POPC     H12R     HAL2     0.900000E-01   1.00800           0
      8246 MEMB     62       POPC     H12S     HAL2     0.900000E-01   1.00800           0
      8247 MEMB     62       POPC     C213     CTL2    -0.180000       12.0110           0
      8248 MEMB     62       POPC     H13R     HAL2     0.900000E-01   1.00800           0
      8249 MEMB     62       POPC     H13S     HAL2     0.900000E-01   1.00800           0
      8250 MEMB     62       POPC     C214     CTL2    -0.180000       12.0110           0
      8251 MEMB     62       POPC     H14R     HAL2     0.900000E-01   1.00800           0
      8252 MEMB     62       POPC     H14S     HAL2     0.900000E-01   1.00800           0
      8253 MEMB     62       POPC     C215     CTL2    -0.180000       12.0110           0
      8254 MEMB     62       POPC     H15R     HAL2     0.900000E-01   1.00800           0
      8255 MEMB     62       POPC     H15S     HAL2     0.900000E-01   1.00800           0
      8256 MEMB     62       POPC     C216     CTL2    -0.180000       12.0110           0
      8257 MEMB     62       POPC     H16R     HAL2     0.900000E-01   1.00800           0
      8258 MEMB     62       POPC     H16S     HAL2     0.900000E-01   1.00800           0
      8259 MEMB     62       POPC     C217     CTL2    -0.180000       12.0110           0
      8260 MEMB     62       POPC     H17R     HAL2     0.900000E-01   1.00800           0
      8261 MEMB     62       POPC     H17S     HAL2     0.900000E-01   1.00800           0
      8262 MEMB     62       POPC     C218     CTL3    -0.270000       12.0110           0
      8263 MEMB     62       POPC     H18R     HAL3     0.900000E-01   1.00800           0
      8264 MEMB     62       POPC     H18S     HAL3     0.900000E-01   1.00800           0
      8265 MEMB     62       POPC     H18T     HAL3     0.900000E-01   1.00800           0
      8266 MEMB     62       POPC     C33      CTL2    -0.180000       12.0110           0
      8267 MEMB     62       POPC     H3X      HAL2     0.900000E-01   1.00800           0
      8268 MEMB     62       POPC     H3Y      HAL2     0.900000E-01   1.00800           0
      8269 MEMB     62       POPC     C34      CTL2    -0.180000       12.0110           0
      8270 MEMB     62       POPC     H4X      HAL2     0.900000E-01   1.00800           0
      8271 MEMB     62       POPC     H4Y      HAL2     0.900000E-01   1.00800           0
      8272 MEMB     62       POPC     C35      CTL2    -0.180000       12.0110           0
      8273 MEMB     62       POPC     H5X      HAL2     0.900000E-01   1.00800           0
      8274 MEMB     62       POPC     H5Y      HAL2     0.900000E-01   1.00800           0
      8275 MEMB     62       POPC     C36      CTL2    -0.180000       12.0110           0
      8276 MEMB     62       POPC     H6X      HAL2     0.900000E-01   1.00800           0
      8277 MEMB     62       POPC     H6Y      HAL2     0.900000E-01   1.00800           0
      8278 MEMB     62       POPC     C37      CTL2    -0.180000       12.0110           0
      8279 MEMB     62       POPC     H7X      HAL2     0.900000E-01   1.00800           0
      8280 MEMB     62       POPC     H7Y      HAL2     0.900000E-01   1.00800           0
      8281 MEMB     62       POPC     C38      CTL2    -0.180000       12.0110           0
      8282 MEMB     62       POPC     H8X      HAL2     0.900000E-01   1.00800           0
      8283 MEMB     62       POPC     H8Y      HAL2     0.900000E-01   1.00800           0
      8284 MEMB     62       POPC     C39      CTL2    -0.180000       12.0110           0
      8285 MEMB     62       POPC     H9X      HAL2     0.900000E-01   1.00800           0
      8286 MEMB     62       POPC     H9Y      HAL2     0.900000E-01   1.00800           0
      8287 MEMB     62       POPC     C310     CTL2    -0.180000       12.0110           0
      8288 MEMB     62       POPC     H10X     HAL2     0.900000E-01   1.00800           0
      8289 MEMB     62       POPC     H10Y     HAL2     0.900000E-01   1.00800           0
      8290 MEMB     62       POPC     C311     CTL2    -0.180000       12.0110           0
      8291 MEMB     62       POPC     H11X     HAL2     0.900000E-01   1.00800           0
      8292 MEMB     62       POPC     H11Y     HAL2     0.900000E-01   1.00800           0
      8293 MEMB     62       POPC     C312     CTL2    -0.180000       12.0110           0
      8294 MEMB     62       POPC     H12X     HAL2     0.900000E-01   1.00800           0
      8295 MEMB     62       POPC     H12Y     HAL2     0.900000E-01   1.00800           0
      8296 MEMB     62       POPC     C313     CTL2    -0.180000       12.0110           0
      8297 MEMB     62       POPC     H13X     HAL2     0.900000E-01   1.00800           0
      8298 MEMB     62       POPC     H13Y     HAL2     0.900000E-01   1.00800           0
      8299 MEMB     62       POPC     C314     CTL2    -0.180000       12.0110           0
      8300 MEMB     62       POPC     H14X     HAL2     0.900000E-01   1.00800           0
      8301 MEMB     62       POPC     H14Y     HAL2     0.900000E-01   1.00800           0
      8302 MEMB     62       POPC     C315     CTL2    -0.180000       12.0110           0
      8303 MEMB     62       POPC     H15X     HAL2     0.900000E-01   1.00800           0
      8304 MEMB     62       POPC     H15Y     HAL2     0.900000E-01   1.00800           0
      8305 MEMB     62       POPC     C316     CTL3    -0.270000       12.0110           0
      8306 MEMB     62       POPC     H16X     HAL3     0.900000E-01   1.00800           0
      8307 MEMB     62       POPC     H16Y     HAL3     0.900000E-01   1.00800           0
      8308 MEMB     62       POPC     H16Z     HAL3     0.900000E-01   1.00800           0
      8309 MEMB     63       POPC     N        NTL     -0.600000       14.0070           0
      8310 MEMB     63       POPC     C12      CTL2    -0.100000       12.0110           0
      8311 MEMB     63       POPC     H12A     HL       0.250000       1.00800           0
      8312 MEMB     63       POPC     H12B     HL       0.250000       1.00800           0
      8313 MEMB     63       POPC     C13      CTL5    -0.350000       12.0110           0
      8314 MEMB     63       POPC     H13A     HL       0.250000       1.00800           0
      8315 MEMB     63       POPC     H13B     HL       0.250000       1.00800           0
      8316 MEMB     63       POPC     H13C     HL       0.250000       1.00800           0
      8317 MEMB     63       POPC     C14      CTL5    -0.350000       12.0110           0
      8318 MEMB     63       POPC     H14A     HL       0.250000       1.00800           0
      8319 MEMB     63       POPC     H14B     HL       0.250000       1.00800           0
      8320 MEMB     63       POPC     H14C     HL       0.250000       1.00800           0
      8321 MEMB     63       POPC     C15      CTL5    -0.350000       12.0110           0
      8322 MEMB     63       POPC     H15A     HL       0.250000       1.00800           0
      8323 MEMB     63       POPC     H15B     HL       0.250000       1.00800           0
      8324 MEMB     63       POPC     H15C     HL       0.250000       1.00800           0
      8325 MEMB     63       POPC     C11      CTL2    -0.800000E-01   12.0110           0
      8326 MEMB     63       POPC     H11A     HAL2     0.900000E-01   1.00800           0
      8327 MEMB     63       POPC     H11B     HAL2     0.900000E-01   1.00800           0
      8328 MEMB     63       POPC     P        PL       1.50000        30.9740           0
      8329 MEMB     63       POPC     O13      O2L     -0.780000       15.9994           0
      8330 MEMB     63       POPC     O14      O2L     -0.780000       15.9994           0
      8331 MEMB     63       POPC     O12      OSLP    -0.570000       15.9994           0
      8332 MEMB     63       POPC     O11      OSLP    -0.570000       15.9994           0
      8333 MEMB     63       POPC     C1       CTL2    -0.800000E-01   12.0110           0
      8334 MEMB     63       POPC     HA       HAL2     0.900000E-01   1.00800           0
      8335 MEMB     63       POPC     HB       HAL2     0.900000E-01   1.00800           0
      8336 MEMB     63       POPC     C2       CTL1     0.170000       12.0110           0
      8337 MEMB     63       POPC     HS       HAL1     0.900000E-01   1.00800           0
      8338 MEMB     63       POPC     O21      OSL     -0.490000       15.9994           0
      8339 MEMB     63       POPC     C21      CL       0.900000       12.0110           0
      8340 MEMB     63       POPC     O22      OBL     -0.630000       15.9994           0
      8341 MEMB     63       POPC     C22      CTL2    -0.220000       12.0110           0
      8342 MEMB     63       POPC     H2R      HAL2     0.900000E-01   1.00800           0
      8343 MEMB     63       POPC     H2S      HAL2     0.900000E-01   1.00800           0
      8344 MEMB     63       POPC     C3       CTL2     0.800000E-01   12.0110           0
      8345 MEMB     63       POPC     HX       HAL2     0.900000E-01   1.00800           0
      8346 MEMB     63       POPC     HY       HAL2     0.900000E-01   1.00800           0
      8347 MEMB     63       POPC     O31      OSL     -0.490000       15.9994           0
      8348 MEMB     63       POPC     C31      CL       0.900000       12.0110           0
      8349 MEMB     63       POPC     O32      OBL     -0.630000       15.9994           0
      8350 MEMB     63       POPC     C32      CTL2    -0.220000       12.0110           0
      8351 MEMB     63       POPC     H2X      HAL2     0.900000E-01   1.00800           0
      8352 MEMB     63       POPC     H2Y      HAL2     0.900000E-01   1.00800           0
      8353 MEMB     63       POPC     C23      CTL2    -0.180000       12.0110           0
      8354 MEMB     63       POPC     H3R      HAL2     0.900000E-01   1.00800           0
      8355 MEMB     63       POPC     H3S      HAL2     0.900000E-01   1.00800           0
      8356 MEMB     63       POPC     C24      CTL2    -0.180000       12.0110           0
      8357 MEMB     63       POPC     H4R      HAL2     0.900000E-01   1.00800           0
      8358 MEMB     63       POPC     H4S      HAL2     0.900000E-01   1.00800           0
      8359 MEMB     63       POPC     C25      CTL2    -0.180000       12.0110           0
      8360 MEMB     63       POPC     H5R      HAL2     0.900000E-01   1.00800           0
      8361 MEMB     63       POPC     H5S      HAL2     0.900000E-01   1.00800           0
      8362 MEMB     63       POPC     C26      CTL2    -0.180000       12.0110           0
      8363 MEMB     63       POPC     H6R      HAL2     0.900000E-01   1.00800           0
      8364 MEMB     63       POPC     H6S      HAL2     0.900000E-01   1.00800           0
      8365 MEMB     63       POPC     C27      CTL2    -0.180000       12.0110           0
      8366 MEMB     63       POPC     H7R      HAL2     0.900000E-01   1.00800           0
      8367 MEMB     63       POPC     H7S      HAL2     0.900000E-01   1.00800           0
      8368 MEMB     63       POPC     C28      CTL2    -0.180000       12.0110           0
      8369 MEMB     63       POPC     H8R      HAL2     0.900000E-01   1.00800           0
      8370 MEMB     63       POPC     H8S      HAL2     0.900000E-01   1.00800           0
      8371 MEMB     63       POPC     C29      CEL1    -0.150000       12.0110           0
      8372 MEMB     63       POPC     H91      HEL1     0.150000       1.00800           0
      8373 MEMB     63       POPC     C210     CEL1    -0.150000       12.0110           0
      8374 MEMB     63       POPC     H101     HEL1     0.150000       1.00800           0
      8375 MEMB     63       POPC     C211     CTL2    -0.180000       12.0110           0
      8376 MEMB     63       POPC     H11R     HAL2     0.900000E-01   1.00800           0
      8377 MEMB     63       POPC     H11S     HAL2     0.900000E-01   1.00800           0
      8378 MEMB     63       POPC     C212     CTL2    -0.180000       12.0110           0
      8379 MEMB     63       POPC     H12R     HAL2     0.900000E-01   1.00800           0
      8380 MEMB     63       POPC     H12S     HAL2     0.900000E-01   1.00800           0
      8381 MEMB     63       POPC     C213     CTL2    -0.180000       12.0110           0
      8382 MEMB     63       POPC     H13R     HAL2     0.900000E-01   1.00800           0
      8383 MEMB     63       POPC     H13S     HAL2     0.900000E-01   1.00800           0
      8384 MEMB     63       POPC     C214     CTL2    -0.180000       12.0110           0
      8385 MEMB     63       POPC     H14R     HAL2     0.900000E-01   1.00800           0
      8386 MEMB     63       POPC     H14S     HAL2     0.900000E-01   1.00800           0
      8387 MEMB     63       POPC     C215     CTL2    -0.180000       12.0110           0
      8388 MEMB     63       POPC     H15R     HAL2     0.900000E-01   1.00800           0
      8389 MEMB     63       POPC     H15S     HAL2     0.900000E-01   1.00800           0
      8390 MEMB     63       POPC     C216     CTL2    -0.180000       12.0110           0
      8391 MEMB     63       POPC     H16R     HAL2     0.900000E-01   1.00800           0
      8392 MEMB     63       POPC     H16S     HAL2     0.900000E-01   1.00800           0
      8393 MEMB     63       POPC     C217     CTL2    -0.180000       12.0110           0
      8394 MEMB     63       POPC     H17R     HAL2     0.900000E-01   1.00800           0
      8395 MEMB     63       POPC     H17S     HAL2     0.900000E-01   1.00800           0
      8396 MEMB     63       POPC     C218     CTL3    -0.270000       12.0110           0
      8397 MEMB     63       POPC     H18R     HAL3     0.900000E-01   1.00800           0
      8398 MEMB     63       POPC     H18S     HAL3     0.900000E-01   1.00800           0
      8399 MEMB     63       POPC     H18T     HAL3     0.900000E-01   1.00800           0
      8400 MEMB     63       POPC     C33      CTL2    -0.180000       12.0110           0
      8401 MEMB     63       POPC     H3X      HAL2     0.900000E-01   1.00800           0
      8402 MEMB     63       POPC     H3Y      HAL2     0.900000E-01   1.00800           0
      8403 MEMB     63       POPC     C34      CTL2    -0.180000       12.0110           0
      8404 MEMB     63       POPC     H4X      HAL2     0.900000E-01   1.00800           0
      8405 MEMB     63       POPC     H4Y      HAL2     0.900000E-01   1.00800           0
      8406 MEMB     63       POPC     C35      CTL2    -0.180000       12.0110           0
      8407 MEMB     63       POPC     H5X      HAL2     0.900000E-01   1.00800           0
      8408 MEMB     63       POPC     H5Y      HAL2     0.900000E-01   1.00800           0
      8409 MEMB     63       POPC     C36      CTL2    -0.180000       12.0110           0
      8410 MEMB     63       POPC     H6X      HAL2     0.900000E-01   1.00800           0
      8411 MEMB     63       POPC     H6Y      HAL2     0.900000E-01   1.00800           0
      8412 MEMB     63       POPC     C37      CTL2    -0.180000       12.0110           0
      8413 MEMB     63       POPC     H7X      HAL2     0.900000E-01   1.00800           0
      8414 MEMB     63       POPC     H7Y      HAL2     0.900000E-01   1.00800           0
      8415 MEMB     63       POPC     C38      CTL2    -0.180000       12.0110           0
      8416 MEMB     63       POPC     H8X      HAL2     0.900000E-01   1.00800           0
      8417 MEMB     63       POPC     H8Y      HAL2     0.900000E-01   1.00800           0
      8418 MEMB     63       POPC     C39      CTL2    -0.180000       12.0110           0
      8419 MEMB     63       POPC     H9X      HAL2     0.900000E-01   1.00800           0
      8420 MEMB     63       POPC     H9Y      HAL2     0.900000E-01   1.00800           0
      8421 MEMB     63       POPC     C310     CTL2    -0.180000       12.0110           0
      8422 MEMB     63       POPC     H10X     HAL2     0.900000E-01   1.00800           0
      8423 MEMB     63       POPC     H10Y     HAL2     0.900000E-01   1.00800           0
      8424 MEMB     63       POPC     C311     CTL2    -0.180000       12.0110           0
      8425 MEMB     63       POPC     H11X     HAL2     0.900000E-01   1.00800           0
      8426 MEMB     63       POPC     H11Y     HAL2     0.900000E-01   1.00800           0
      8427 MEMB     63       POPC     C312     CTL2    -0.180000       12.0110           0
      8428 MEMB     63       POPC     H12X     HAL2     0.900000E-01   1.00800           0
      8429 MEMB     63       POPC     H12Y     HAL2     0.900000E-01   1.00800           0
      8430 MEMB     63       POPC     C313     CTL2    -0.180000       12.0110           0
      8431 MEMB     63       POPC     H13X     HAL2     0.900000E-01   1.00800           0
      8432 MEMB     63       POPC     H13Y     HAL2     0.900000E-01   1.00800           0
      8433 MEMB     63       POPC     C314     CTL2    -0.180000       12.0110           0
      8434 MEMB     63       POPC     H14X     HAL2     0.900000E-01   1.00800           0
      8435 MEMB     63       POPC     H14Y     HAL2     0.900000E-01   1.00800           0
      8436 MEMB     63       POPC     C315     CTL2    -0.180000       12.0110           0
      8437 MEMB     63       POPC     H15X     HAL2     0.900000E-01   1.00800           0
      8438 MEMB     63       POPC     H15Y     HAL2     0.900000E-01   1.00800           0
      8439 MEMB     63       POPC     C316     CTL3    -0.270000       12.0110           0
      8440 MEMB     63       POPC     H16X     HAL3     0.900000E-01   1.00800           0
      8441 MEMB     63       POPC     H16Y     HAL3     0.900000E-01   1.00800           0
      8442 MEMB     63       POPC     H16Z     HAL3     0.900000E-01   1.00800           0
      8443 MEMB     64       POPC     N        NTL     -0.600000       14.0070           0
      8444 MEMB     64       POPC     C12      CTL2    -0.100000       12.0110           0
      8445 MEMB     64       POPC     H12A     HL       0.250000       1.00800           0
      8446 MEMB     64       POPC     H12B     HL       0.250000       1.00800           0
      8447 MEMB     64       POPC     C13      CTL5    -0.350000       12.0110           0
      8448 MEMB     64       POPC     H13A     HL       0.250000       1.00800           0
      8449 MEMB     64       POPC     H13B     HL       0.250000       1.00800           0
      8450 MEMB     64       POPC     H13C     HL       0.250000       1.00800           0
      8451 MEMB     64       POPC     C14      CTL5    -0.350000       12.0110           0
      8452 MEMB     64       POPC     H14A     HL       0.250000       1.00800           0
      8453 MEMB     64       POPC     H14B     HL       0.250000       1.00800           0
      8454 MEMB     64       POPC     H14C     HL       0.250000       1.00800           0
      8455 MEMB     64       POPC     C15      CTL5    -0.350000       12.0110           0
      8456 MEMB     64       POPC     H15A     HL       0.250000       1.00800           0
      8457 MEMB     64       POPC     H15B     HL       0.250000       1.00800           0
      8458 MEMB     64       POPC     H15C     HL       0.250000       1.00800           0
      8459 MEMB     64       POPC     C11      CTL2    -0.800000E-01   12.0110           0
      8460 MEMB     64       POPC     H11A     HAL2     0.900000E-01   1.00800           0
      8461 MEMB     64       POPC     H11B     HAL2     0.900000E-01   1.00800           0
      8462 MEMB     64       POPC     P        PL       1.50000        30.9740           0
      8463 MEMB     64       POPC     O13      O2L     -0.780000       15.9994           0
      8464 MEMB     64       POPC     O14      O2L     -0.780000       15.9994           0
      8465 MEMB     64       POPC     O12      OSLP    -0.570000       15.9994           0
      8466 MEMB     64       POPC     O11      OSLP    -0.570000       15.9994           0
      8467 MEMB     64       POPC     C1       CTL2    -0.800000E-01   12.0110           0
      8468 MEMB     64       POPC     HA       HAL2     0.900000E-01   1.00800           0
      8469 MEMB     64       POPC     HB       HAL2     0.900000E-01   1.00800           0
      8470 MEMB     64       POPC     C2       CTL1     0.170000       12.0110           0
      8471 MEMB     64       POPC     HS       HAL1     0.900000E-01   1.00800           0
      8472 MEMB     64       POPC     O21      OSL     -0.490000       15.9994           0
      8473 MEMB     64       POPC     C21      CL       0.900000       12.0110           0
      8474 MEMB     64       POPC     O22      OBL     -0.630000       15.9994           0
      8475 MEMB     64       POPC     C22      CTL2    -0.220000       12.0110           0
      8476 MEMB     64       POPC     H2R      HAL2     0.900000E-01   1.00800           0
      8477 MEMB     64       POPC     H2S      HAL2     0.900000E-01   1.00800           0
      8478 MEMB     64       POPC     C3       CTL2     0.800000E-01   12.0110           0
      8479 MEMB     64       POPC     HX       HAL2     0.900000E-01   1.00800           0
      8480 MEMB     64       POPC     HY       HAL2     0.900000E-01   1.00800           0
      8481 MEMB     64       POPC     O31      OSL     -0.490000       15.9994           0
      8482 MEMB     64       POPC     C31      CL       0.900000       12.0110           0
      8483 MEMB     64       POPC     O32      OBL     -0.630000       15.9994           0
      8484 MEMB     64       POPC     C32      CTL2    -0.220000       12.0110           0
      8485 MEMB     64       POPC     H2X      HAL2     0.900000E-01   1.00800           0
      8486 MEMB     64       POPC     H2Y      HAL2     0.900000E-01   1.00800           0
      8487 MEMB     64       POPC     C23      CTL2    -0.180000       12.0110           0
      8488 MEMB     64       POPC     H3R      HAL2     0.900000E-01   1.00800           0
      8489 MEMB     64       POPC     H3S      HAL2     0.900000E-01   1.00800           0
      8490 MEMB     64       POPC     C24      CTL2    -0.180000       12.0110           0
      8491 MEMB     64       POPC     H4R      HAL2     0.900000E-01   1.00800           0
      8492 MEMB     64       POPC     H4S      HAL2     0.900000E-01   1.00800           0
      8493 MEMB     64       POPC     C25      CTL2    -0.180000       12.0110           0
      8494 MEMB     64       POPC     H5R      HAL2     0.900000E-01   1.00800           0
      8495 MEMB     64       POPC     H5S      HAL2     0.900000E-01   1.00800           0
      8496 MEMB     64       POPC     C26      CTL2    -0.180000       12.0110           0
      8497 MEMB     64       POPC     H6R      HAL2     0.900000E-01   1.00800           0
      8498 MEMB     64       POPC     H6S      HAL2     0.900000E-01   1.00800           0
      8499 MEMB     64       POPC     C27      CTL2    -0.180000       12.0110           0
      8500 MEMB     64       POPC     H7R      HAL2     0.900000E-01   1.00800           0
      8501 MEMB     64       POPC     H7S      HAL2     0.900000E-01   1.00800           0
      8502 MEMB     64       POPC     C28      CTL2    -0.180000       12.0110           0
      8503 MEMB     64       POPC     H8R      HAL2     0.900000E-01   1.00800           0
      8504 MEMB     64       POPC     H8S      HAL2     0.900000E-01   1.00800           0
      8505 MEMB     64       POPC     C29      CEL1    -0.150000       12.0110           0
      8506 MEMB     64       POPC     H91      HEL1     0.150000       1.00800           0
      8507 MEMB     64       POPC     C210     CEL1    -0.150000       12.0110           0
      8508 MEMB     64       POPC     H101     HEL1     0.150000       1.00800           0
      8509 MEMB     64       POPC     C211     CTL2    -0.180000       12.0110           0
      8510 MEMB     64       POPC     H11R     HAL2     0.900000E-01   1.00800           0
      8511 MEMB     64       POPC     H11S     HAL2     0.900000E-01   1.00800           0
      8512 MEMB     64       POPC     C212     CTL2    -0.180000       12.0110           0
      8513 MEMB     64       POPC     H12R     HAL2     0.900000E-01   1.00800           0
      8514 MEMB     64       POPC     H12S     HAL2     0.900000E-01   1.00800           0
      8515 MEMB     64       POPC     C213     CTL2    -0.180000       12.0110           0
      8516 MEMB     64       POPC     H13R     HAL2     0.900000E-01   1.00800           0
      8517 MEMB     64       POPC     H13S     HAL2     0.900000E-01   1.00800           0
      8518 MEMB     64       POPC     C214     CTL2    -0.180000       12.0110           0
      8519 MEMB     64       POPC     H14R     HAL2     0.900000E-01   1.00800           0
      8520 MEMB     64       POPC     H14S     HAL2     0.900000E-01   1.00800           0
      8521 MEMB     64       POPC     C215     CTL2    -0.180000       12.0110           0
      8522 MEMB     64       POPC     H15R     HAL2     0.900000E-01   1.00800           0
      8523 MEMB     64       POPC     H15S     HAL2     0.900000E-01   1.00800           0
      8524 MEMB     64       POPC     C216     CTL2    -0.180000       12.0110           0
      8525 MEMB     64       POPC     H16R     HAL2     0.900000E-01   1.00800           0
      8526 MEMB     64       POPC     H16S     HAL2     0.900000E-01   1.00800           0
      8527 MEMB     64       POPC     C217     CTL2    -0.180000       12.0110           0
      8528 MEMB     64       POPC     H17R     HAL2     0.900000E-01   1.00800           0
      8529 MEMB     64       POPC     H17S     HAL2     0.900000E-01   1.00800           0
      8530 MEMB     64       POPC     C218     CTL3    -0.270000       12.0110           0
      8531 MEMB     64       POPC     H18R     HAL3     0.900000E-01   1.00800           0
      8532 MEMB     64       POPC     H18S     HAL3     0.900000E-01   1.00800           0
      8533 MEMB     64       POPC     H18T     HAL3     0.900000E-01   1.00800           0
      8534 MEMB     64       POPC     C33      CTL2    -0.180000       12.0110           0
      8535 MEMB     64       POPC     H3X      HAL2     0.900000E-01   1.00800           0
      8536 MEMB     64       POPC     H3Y      HAL2     0.900000E-01   1.00800           0
      8537 MEMB     64       POPC     C34      CTL2    -0.180000       12.0110           0
      8538 MEMB     64       POPC     H4X      HAL2     0.900000E-01   1.00800           0
      8539 MEMB     64       POPC     H4Y      HAL2     0.900000E-01   1.00800           0
      8540 MEMB     64       POPC     C35      CTL2    -0.180000       12.0110           0
      8541 MEMB     64       POPC     H5X      HAL2     0.900000E-01   1.00800           0
      8542 MEMB     64       POPC     H5Y      HAL2     0.900000E-01   1.00800           0
      8543 MEMB     64       POPC     C36      CTL2    -0.180000       12.0110           0
      8544 MEMB     64       POPC     H6X      HAL2     0.900000E-01   1.00800           0
      8545 MEMB     64       POPC     H6Y      HAL2     0.900000E-01   1.00800           0
      8546 MEMB     64       POPC     C37      CTL2    -0.180000       12.0110           0
      8547 MEMB     64       POPC     H7X      HAL2     0.900000E-01   1.00800           0
      8548 MEMB     64       POPC     H7Y      HAL2     0.900000E-01   1.00800           0
      8549 MEMB     64       POPC     C38      CTL2    -0.180000       12.0110           0
      8550 MEMB     64       POPC     H8X      HAL2     0.900000E-01   1.00800           0
      8551 MEMB     64       POPC     H8Y      HAL2     0.900000E-01   1.00800           0
      8552 MEMB     64       POPC     C39      CTL2    -0.180000       12.0110           0
      8553 MEMB     64       POPC     H9X      HAL2     0.900000E-01   1.00800           0
      8554 MEMB     64       POPC     H9Y      HAL2     0.900000E-01   1.00800           0
      8555 MEMB     64       POPC     C310     CTL2    -0.180000       12.0110           0
      8556 MEMB     64       POPC     H10X     HAL2     0.900000E-01   1.00800           0
      8557 MEMB     64       POPC     H10Y     HAL2     0.900000E-01   1.00800           0
      8558 MEMB     64       POPC     C311     CTL2    -0.180000       12.0110           0
      8559 MEMB     64       POPC     H11X     HAL2     0.900000E-01   1.00800           0
      8560 MEMB     64       POPC     H11Y     HAL2     0.900000E-01   1.00800           0
      8561 MEMB     64       POPC     C312     CTL2    -0.180000       12.0110           0
      8562 MEMB     64       POPC     H12X     HAL2     0.900000E-01   1.00800           0
      8563 MEMB     64       POPC     H12Y     HAL2     0.900000E-01   1.00800           0
      8564 MEMB     64       POPC     C313     CTL2    -0.180000       12.0110           0
      8565 MEMB     64       POPC     H13X     HAL2     0.900000E-01   1.00800           0
      8566 MEMB     64       POPC     H13Y     HAL2     0.900000E-01   1.00800           0
      8567 MEMB     64       POPC     C314     CTL2    -0.180000       12.0110           0
      8568 MEMB     64       POPC     H14X     HAL2     0.900000E-01   1.00800           0
      8569 MEMB     64       POPC     H14Y     HAL2     0.900000E-01   1.00800           0
      8570 MEMB     64       POPC     C315     CTL2    -0.180000       12.0110           0
      8571 MEMB     64       POPC     H15X     HAL2     0.900000E-01   1.00800           0
      8572 MEMB     64       POPC     H15Y     HAL2     0.900000E-01   1.00800           0
      8573 MEMB     64       POPC     C316     CTL3    -0.270000       12.0110           0
      8574 MEMB     64       POPC     H16X     HAL3     0.900000E-01   1.00800           0
      8575 MEMB     64       POPC     H16Y     HAL3     0.900000E-01   1.00800           0
      8576 MEMB     64       POPC     H16Z     HAL3     0.900000E-01   1.00800           0
      8577 MEMB     65       POPC     N        NTL     -0.600000       14.0070           0
      8578 MEMB     65       POPC     C12      CTL2    -0.100000       12.0110           0
      8579 MEMB     65       POPC     H12A     HL       0.250000       1.00800           0
      8580 MEMB     65       POPC     H12B     HL       0.250000       1.00800           0
      8581 MEMB     65       POPC     C13      CTL5    -0.350000       12.0110           0
      8582 MEMB     65       POPC     H13A     HL       0.250000       1.00800           0
      8583 MEMB     65       POPC     H13B     HL       0.250000       1.00800           0
      8584 MEMB     65       POPC     H13C     HL       0.250000       1.00800           0
      8585 MEMB     65       POPC     C14      CTL5    -0.350000       12.0110           0
      8586 MEMB     65       POPC     H14A     HL       0.250000       1.00800           0
      8587 MEMB     65       POPC     H14B     HL       0.250000       1.00800           0
      8588 MEMB     65       POPC     H14C     HL       0.250000       1.00800           0
      8589 MEMB     65       POPC     C15      CTL5    -0.350000       12.0110           0
      8590 MEMB     65       POPC     H15A     HL       0.250000       1.00800           0
      8591 MEMB     65       POPC     H15B     HL       0.250000       1.00800           0
      8592 MEMB     65       POPC     H15C     HL       0.250000       1.00800           0
      8593 MEMB     65       POPC     C11      CTL2    -0.800000E-01   12.0110           0
      8594 MEMB     65       POPC     H11A     HAL2     0.900000E-01   1.00800           0
      8595 MEMB     65       POPC     H11B     HAL2     0.900000E-01   1.00800           0
      8596 MEMB     65       POPC     P        PL       1.50000        30.9740           0
      8597 MEMB     65       POPC     O13      O2L     -0.780000       15.9994           0
      8598 MEMB     65       POPC     O14      O2L     -0.780000       15.9994           0
      8599 MEMB     65       POPC     O12      OSLP    -0.570000       15.9994           0
      8600 MEMB     65       POPC     O11      OSLP    -0.570000       15.9994           0
      8601 MEMB     65       POPC     C1       CTL2    -0.800000E-01   12.0110           0
      8602 MEMB     65       POPC     HA       HAL2     0.900000E-01   1.00800           0
      8603 MEMB     65       POPC     HB       HAL2     0.900000E-01   1.00800           0
      8604 MEMB     65       POPC     C2       CTL1     0.170000       12.0110           0
      8605 MEMB     65       POPC     HS       HAL1     0.900000E-01   1.00800           0
      8606 MEMB     65       POPC     O21      OSL     -0.490000       15.9994           0
      8607 MEMB     65       POPC     C21      CL       0.900000       12.0110           0
      8608 MEMB     65       POPC     O22      OBL     -0.630000       15.9994           0
      8609 MEMB     65       POPC     C22      CTL2    -0.220000       12.0110           0
      8610 MEMB     65       POPC     H2R      HAL2     0.900000E-01   1.00800           0
      8611 MEMB     65       POPC     H2S      HAL2     0.900000E-01   1.00800           0
      8612 MEMB     65       POPC     C3       CTL2     0.800000E-01   12.0110           0
      8613 MEMB     65       POPC     HX       HAL2     0.900000E-01   1.00800           0
      8614 MEMB     65       POPC     HY       HAL2     0.900000E-01   1.00800           0
      8615 MEMB     65       POPC     O31      OSL     -0.490000       15.9994           0
      8616 MEMB     65       POPC     C31      CL       0.900000       12.0110           0
      8617 MEMB     65       POPC     O32      OBL     -0.630000       15.9994           0
      8618 MEMB     65       POPC     C32      CTL2    -0.220000       12.0110           0
      8619 MEMB     65       POPC     H2X      HAL2     0.900000E-01   1.00800           0
      8620 MEMB     65       POPC     H2Y      HAL2     0.900000E-01   1.00800           0
      8621 MEMB     65       POPC     C23      CTL2    -0.180000       12.0110           0
      8622 MEMB     65       POPC     H3R      HAL2     0.900000E-01   1.00800           0
      8623 MEMB     65       POPC     H3S      HAL2     0.900000E-01   1.00800           0
      8624 MEMB     65       POPC     C24      CTL2    -0.180000       12.0110           0
      8625 MEMB     65       POPC     H4R      HAL2     0.900000E-01   1.00800           0
      8626 MEMB     65       POPC     H4S      HAL2     0.900000E-01   1.00800           0
      8627 MEMB     65       POPC     C25      CTL2    -0.180000       12.0110           0
      8628 MEMB     65       POPC     H5R      HAL2     0.900000E-01   1.00800           0
      8629 MEMB     65       POPC     H5S      HAL2     0.900000E-01   1.00800           0
      8630 MEMB     65       POPC     C26      CTL2    -0.180000       12.0110           0
      8631 MEMB     65       POPC     H6R      HAL2     0.900000E-01   1.00800           0
      8632 MEMB     65       POPC     H6S      HAL2     0.900000E-01   1.00800           0
      8633 MEMB     65       POPC     C27      CTL2    -0.180000       12.0110           0
      8634 MEMB     65       POPC     H7R      HAL2     0.900000E-01   1.00800           0
      8635 MEMB     65       POPC     H7S      HAL2     0.900000E-01   1.00800           0
      8636 MEMB     65       POPC     C28      CTL2    -0.180000       12.0110           0
      8637 MEMB     65       POPC     H8R      HAL2     0.900000E-01   1.00800           0
      8638 MEMB     65       POPC     H8S      HAL2     0.900000E-01   1.00800           0
      8639 MEMB     65       POPC     C29      CEL1    -0.150000       12.0110           0
      8640 MEMB     65       POPC     H91      HEL1     0.150000       1.00800           0
      8641 MEMB     65       POPC     C210     CEL1    -0.150000       12.0110           0
      8642 MEMB     65       POPC     H101     HEL1     0.150000       1.00800           0
      8643 MEMB     65       POPC     C211     CTL2    -0.180000       12.0110           0
      8644 MEMB     65       POPC     H11R     HAL2     0.900000E-01   1.00800           0
      8645 MEMB     65       POPC     H11S     HAL2     0.900000E-01   1.00800           0
      8646 MEMB     65       POPC     C212     CTL2    -0.180000       12.0110           0
      8647 MEMB     65       POPC     H12R     HAL2     0.900000E-01   1.00800           0
      8648 MEMB     65       POPC     H12S     HAL2     0.900000E-01   1.00800           0
      8649 MEMB     65       POPC     C213     CTL2    -0.180000       12.0110           0
      8650 MEMB     65       POPC     H13R     HAL2     0.900000E-01   1.00800           0
      8651 MEMB     65       POPC     H13S     HAL2     0.900000E-01   1.00800           0
      8652 MEMB     65       POPC     C214     CTL2    -0.180000       12.0110           0
      8653 MEMB     65       POPC     H14R     HAL2     0.900000E-01   1.00800           0
      8654 MEMB     65       POPC     H14S     HAL2     0.900000E-01   1.00800           0
      8655 MEMB     65       POPC     C215     CTL2    -0.180000       12.0110           0
      8656 MEMB     65       POPC     H15R     HAL2     0.900000E-01   1.00800           0
      8657 MEMB     65       POPC     H15S     HAL2     0.900000E-01   1.00800           0
      8658 MEMB     65       POPC     C216     CTL2    -0.180000       12.0110           0
      8659 MEMB     65       POPC     H16R     HAL2     0.900000E-01   1.00800           0
      8660 MEMB     65       POPC     H16S     HAL2     0.900000E-01   1.00800           0
      8661 MEMB     65       POPC     C217     CTL2    -0.180000       12.0110           0
      8662 MEMB     65       POPC     H17R     HAL2     0.900000E-01   1.00800           0
      8663 MEMB     65       POPC     H17S     HAL2     0.900000E-01   1.00800           0
      8664 MEMB     65       POPC     C218     CTL3    -0.270000       12.0110           0
      8665 MEMB     65       POPC     H18R     HAL3     0.900000E-01   1.00800           0
      8666 MEMB     65       POPC     H18S     HAL3     0.900000E-01   1.00800           0
      8667 MEMB     65       POPC     H18T     HAL3     0.900000E-01   1.00800           0
      8668 MEMB     65       POPC     C33      CTL2    -0.180000       12.0110           0
      8669 MEMB     65       POPC     H3X      HAL2     0.900000E-01   1.00800           0
      8670 MEMB     65       POPC     H3Y      HAL2     0.900000E-01   1.00800           0
      8671 MEMB     65       POPC     C34      CTL2    -0.180000       12.0110           0
      8672 MEMB     65       POPC     H4X      HAL2     0.900000E-01   1.00800           0
      8673 MEMB     65       POPC     H4Y      HAL2     0.900000E-01   1.00800           0
      8674 MEMB     65       POPC     C35      CTL2    -0.180000       12.0110           0
      8675 MEMB     65       POPC     H5X      HAL2     0.900000E-01   1.00800           0
      8676 MEMB     65       POPC     H5Y      HAL2     0.900000E-01   1.00800           0
      8677 MEMB     65       POPC     C36      CTL2    -0.180000       12.0110           0
      8678 MEMB     65       POPC     H6X      HAL2     0.900000E-01   1.00800           0
      8679 MEMB     65       POPC     H6Y      HAL2     0.900000E-01   1.00800           0
      8680 MEMB     65       POPC     C37      CTL2    -0.180000       12.0110           0
      8681 MEMB     65       POPC     H7X      HAL2     0.900000E-01   1.00800           0
      8682 MEMB     65       POPC     H7Y      HAL2     0.900000E-01   1.00800           0
      8683 MEMB     65       POPC     C38      CTL2    -0.180000       12.0110           0
      8684 MEMB     65       POPC     H8X      HAL2     0.900000E-01   1.00800           0
      8685 MEMB     65       POPC     H8Y      HAL2     0.900000E-01   1.00800           0
      8686 MEMB     65       POPC     C39      CTL2    -0.180000       12.0110           0
      8687 MEMB     65       POPC     H9X      HAL2     0.900000E-01   1.00800           0
      8688 MEMB     65       POPC     H9Y      HAL2     0.900000E-01   1.00800           0
      8689 MEMB     65       POPC     C310     CTL2    -0.180000       12.0110           0
      8690 MEMB     65       POPC     H10X     HAL2     0.900000E-01   1.00800           0
      8691 MEMB     65       POPC     H10Y     HAL2     0.900000E-01   1.00800           0
      8692 MEMB     65       POPC     C311     CTL2    -0.180000       12.0110           0
      8693 MEMB     65       POPC     H11X     HAL2     0.900000E-01   1.00800           0
      8694 MEMB     65       POPC     H11Y     HAL2     0.900000E-01   1.00800           0
      8695 MEMB     65       POPC     C312     CTL2    -0.180000       12.0110           0
      8696 MEMB     65       POPC     H12X     HAL2     0.900000E-01   1.00800           0
      8697 MEMB     65       POPC     H12Y     HAL2     0.900000E-01   1.00800           0
      8698 MEMB     65       POPC     C313     CTL2    -0.180000       12.0110           0
      8699 MEMB     65       POPC     H13X     HAL2     0.900000E-01   1.00800           0
      8700 MEMB     65       POPC     H13Y     HAL2     0.900000E-01   1.00800           0
      8701 MEMB     65       POPC     C314     CTL2    -0.180000       12.0110           0
      8702 MEMB     65       POPC     H14X     HAL2     0.900000E-01   1.00800           0
      8703 MEMB     65       POPC     H14Y     HAL2     0.900000E-01   1.00800           0
      8704 MEMB     65       POPC     C315     CTL2    -0.180000       12.0110           0
      8705 MEMB     65       POPC     H15X     HAL2     0.900000E-01   1.00800           0
      8706 MEMB     65       POPC     H15Y     HAL2     0.900000E-01   1.00800           0
      8707 MEMB     65       POPC     C316     CTL3    -0.270000       12.0110           0
      8708 MEMB     65       POPC     H16X     HAL3     0.900000E-01   1.00800           0
      8709 MEMB     65       POPC     H16Y     HAL3     0.900000E-01   1.00800           0
      8710 MEMB     65       POPC     H16Z     HAL3     0.900000E-01   1.00800           0
      8711 MEMB     66       POPC     N        NTL     -0.600000       14.0070           0
      8712 MEMB     66       POPC     C12      CTL2    -0.100000       12.0110           0
      8713 MEMB     66       POPC     H12A     HL       0.250000       1.00800           0
      8714 MEMB     66       POPC     H12B     HL       0.250000       1.00800           0
      8715 MEMB     66       POPC     C13      CTL5    -0.350000       12.0110           0
      8716 MEMB     66       POPC     H13A     HL       0.250000       1.00800           0
      8717 MEMB     66       POPC     H13B     HL       0.250000       1.00800           0
      8718 MEMB     66       POPC     H13C     HL       0.250000       1.00800           0
      8719 MEMB     66       POPC     C14      CTL5    -0.350000       12.0110           0
      8720 MEMB     66       POPC     H14A     HL       0.250000       1.00800           0
      8721 MEMB     66       POPC     H14B     HL       0.250000       1.00800           0
      8722 MEMB     66       POPC     H14C     HL       0.250000       1.00800           0
      8723 MEMB     66       POPC     C15      CTL5    -0.350000       12.0110           0
      8724 MEMB     66       POPC     H15A     HL       0.250000       1.00800           0
      8725 MEMB     66       POPC     H15B     HL       0.250000       1.00800           0
      8726 MEMB     66       POPC     H15C     HL       0.250000       1.00800           0
      8727 MEMB     66       POPC     C11      CTL2    -0.800000E-01   12.0110           0
      8728 MEMB     66       POPC     H11A     HAL2     0.900000E-01   1.00800           0
      8729 MEMB     66       POPC     H11B     HAL2     0.900000E-01   1.00800           0
      8730 MEMB     66       POPC     P        PL       1.50000        30.9740           0
      8731 MEMB     66       POPC     O13      O2L     -0.780000       15.9994           0
      8732 MEMB     66       POPC     O14      O2L     -0.780000       15.9994           0
      8733 MEMB     66       POPC     O12      OSLP    -0.570000       15.9994           0
      8734 MEMB     66       POPC     O11      OSLP    -0.570000       15.9994           0
      8735 MEMB     66       POPC     C1       CTL2    -0.800000E-01   12.0110           0
      8736 MEMB     66       POPC     HA       HAL2     0.900000E-01   1.00800           0
      8737 MEMB     66       POPC     HB       HAL2     0.900000E-01   1.00800           0
      8738 MEMB     66       POPC     C2       CTL1     0.170000       12.0110           0
      8739 MEMB     66       POPC     HS       HAL1     0.900000E-01   1.00800           0
      8740 MEMB     66       POPC     O21      OSL     -0.490000       15.9994           0
      8741 MEMB     66       POPC     C21      CL       0.900000       12.0110           0
      8742 MEMB     66       POPC     O22      OBL     -0.630000       15.9994           0
      8743 MEMB     66       POPC     C22      CTL2    -0.220000       12.0110           0
      8744 MEMB     66       POPC     H2R      HAL2     0.900000E-01   1.00800           0
      8745 MEMB     66       POPC     H2S      HAL2     0.900000E-01   1.00800           0
      8746 MEMB     66       POPC     C3       CTL2     0.800000E-01   12.0110           0
      8747 MEMB     66       POPC     HX       HAL2     0.900000E-01   1.00800           0
      8748 MEMB     66       POPC     HY       HAL2     0.900000E-01   1.00800           0
      8749 MEMB     66       POPC     O31      OSL     -0.490000       15.9994           0
      8750 MEMB     66       POPC     C31      CL       0.900000       12.0110           0
      8751 MEMB     66       POPC     O32      OBL     -0.630000       15.9994           0
      8752 MEMB     66       POPC     C32      CTL2    -0.220000       12.0110           0
      8753 MEMB     66       POPC     H2X      HAL2     0.900000E-01   1.00800           0
      8754 MEMB     66       POPC     H2Y      HAL2     0.900000E-01   1.00800           0
      8755 MEMB     66       POPC     C23      CTL2    -0.180000       12.0110           0
      8756 MEMB     66       POPC     H3R      HAL2     0.900000E-01   1.00800           0
      8757 MEMB     66       POPC     H3S      HAL2     0.900000E-01   1.00800           0
      8758 MEMB     66       POPC     C24      CTL2    -0.180000       12.0110           0
      8759 MEMB     66       POPC     H4R      HAL2     0.900000E-01   1.00800           0
      8760 MEMB     66       POPC     H4S      HAL2     0.900000E-01   1.00800           0
      8761 MEMB     66       POPC     C25      CTL2    -0.180000       12.0110           0
      8762 MEMB     66       POPC     H5R      HAL2     0.900000E-01   1.00800           0
      8763 MEMB     66       POPC     H5S      HAL2     0.900000E-01   1.00800           0
      8764 MEMB     66       POPC     C26      CTL2    -0.180000       12.0110           0
      8765 MEMB     66       POPC     H6R      HAL2     0.900000E-01   1.00800           0
      8766 MEMB     66       POPC     H6S      HAL2     0.900000E-01   1.00800           0
      8767 MEMB     66       POPC     C27      CTL2    -0.180000       12.0110           0
      8768 MEMB     66       POPC     H7R      HAL2     0.900000E-01   1.00800           0
      8769 MEMB     66       POPC     H7S      HAL2     0.900000E-01   1.00800           0
      8770 MEMB     66       POPC     C28      CTL2    -0.180000       12.0110           0
      8771 MEMB     66       POPC     H8R      HAL2     0.900000E-01   1.00800           0
      8772 MEMB     66       POPC     H8S      HAL2     0.900000E-01   1.00800           0
      8773 MEMB     66       POPC     C29      CEL1    -0.150000       12.0110           0
      8774 MEMB     66       POPC     H91      HEL1     0.150000       1.00800           0
      8775 MEMB     66       POPC     C210     CEL1    -0.150000       12.0110           0
      8776 MEMB     66       POPC     H101     HEL1     0.150000       1.00800           0
      8777 MEMB     66       POPC     C211     CTL2    -0.180000       12.0110           0
      8778 MEMB     66       POPC     H11R     HAL2     0.900000E-01   1.00800           0
      8779 MEMB     66       POPC     H11S     HAL2     0.900000E-01   1.00800           0
      8780 MEMB     66       POPC     C212     CTL2    -0.180000       12.0110           0
      8781 MEMB     66       POPC     H12R     HAL2     0.900000E-01   1.00800           0
      8782 MEMB     66       POPC     H12S     HAL2     0.900000E-01   1.00800           0
      8783 MEMB     66       POPC     C213     CTL2    -0.180000       12.0110           0
      8784 MEMB     66       POPC     H13R     HAL2     0.900000E-01   1.00800           0
      8785 MEMB     66       POPC     H13S     HAL2     0.900000E-01   1.00800           0
      8786 MEMB     66       POPC     C214     CTL2    -0.180000       12.0110           0
      8787 MEMB     66       POPC     H14R     HAL2     0.900000E-01   1.00800           0
      8788 MEMB     66       POPC     H14S     HAL2     0.900000E-01   1.00800           0
      8789 MEMB     66       POPC     C215     CTL2    -0.180000       12.0110           0
      8790 MEMB     66       POPC     H15R     HAL2     0.900000E-01   1.00800           0
      8791 MEMB     66       POPC     H15S     HAL2     0.900000E-01   1.00800           0
      8792 MEMB     66       POPC     C216     CTL2    -0.180000       12.0110           0
      8793 MEMB     66       POPC     H16R     HAL2     0.900000E-01   1.00800           0
      8794 MEMB     66       POPC     H16S     HAL2     0.900000E-01   1.00800           0
      8795 MEMB     66       POPC     C217     CTL2    -0.180000       12.0110           0
      8796 MEMB     66       POPC     H17R     HAL2     0.900000E-01   1.00800           0
      8797 MEMB     66       POPC     H17S     HAL2     0.900000E-01   1.00800           0
      8798 MEMB     66       POPC     C218     CTL3    -0.270000       12.0110           0
      8799 MEMB     66       POPC     H18R     HAL3     0.900000E-01   1.00800           0
      8800 MEMB     66       POPC     H18S     HAL3     0.900000E-01   1.00800           0
      8801 MEMB     66       POPC     H18T     HAL3     0.900000E-01   1.00800           0
      8802 MEMB     66       POPC     C33      CTL2    -0.180000       12.0110           0
      8803 MEMB     66       POPC     H3X      HAL2     0.900000E-01   1.00800           0
      8804 MEMB     66       POPC     H3Y      HAL2     0.900000E-01   1.00800           0
      8805 MEMB     66       POPC     C34      CTL2    -0.180000       12.0110           0
      8806 MEMB     66       POPC     H4X      HAL2     0.900000E-01   1.00800           0
      8807 MEMB     66       POPC     H4Y      HAL2     0.900000E-01   1.00800           0
      8808 MEMB     66       POPC     C35      CTL2    -0.180000       12.0110           0
      8809 MEMB     66       POPC     H5X      HAL2     0.900000E-01   1.00800           0
      8810 MEMB     66       POPC     H5Y      HAL2     0.900000E-01   1.00800           0
      8811 MEMB     66       POPC     C36      CTL2    -0.180000       12.0110           0
      8812 MEMB     66       POPC     H6X      HAL2     0.900000E-01   1.00800           0
      8813 MEMB     66       POPC     H6Y      HAL2     0.900000E-01   1.00800           0
      8814 MEMB     66       POPC     C37      CTL2    -0.180000       12.0110           0
      8815 MEMB     66       POPC     H7X      HAL2     0.900000E-01   1.00800           0
      8816 MEMB     66       POPC     H7Y      HAL2     0.900000E-01   1.00800           0
      8817 MEMB     66       POPC     C38      CTL2    -0.180000       12.0110           0
      8818 MEMB     66       POPC     H8X      HAL2     0.900000E-01   1.00800           0
      8819 MEMB     66       POPC     H8Y      HAL2     0.900000E-01   1.00800           0
      8820 MEMB     66       POPC     C39      CTL2    -0.180000       12.0110           0
      8821 MEMB     66       POPC     H9X      HAL2     0.900000E-01   1.00800           0
      8822 MEMB     66       POPC     H9Y      HAL2     0.900000E-01   1.00800           0
      8823 MEMB     66       POPC     C310     CTL2    -0.180000       12.0110           0
      8824 MEMB     66       POPC     H10X     HAL2     0.900000E-01   1.00800           0
      8825 MEMB     66       POPC     H10Y     HAL2     0.900000E-01   1.00800           0
      8826 MEMB     66       POPC     C311     CTL2    -0.180000       12.0110           0
      8827 MEMB     66       POPC     H11X     HAL2     0.900000E-01   1.00800           0
      8828 MEMB     66       POPC     H11Y     HAL2     0.900000E-01   1.00800           0
      8829 MEMB     66       POPC     C312     CTL2    -0.180000       12.0110           0
      8830 MEMB     66       POPC     H12X     HAL2     0.900000E-01   1.00800           0
      8831 MEMB     66       POPC     H12Y     HAL2     0.900000E-01   1.00800           0
      8832 MEMB     66       POPC     C313     CTL2    -0.180000       12.0110           0
      8833 MEMB     66       POPC     H13X     HAL2     0.900000E-01   1.00800           0
      8834 MEMB     66       POPC     H13Y     HAL2     0.900000E-01   1.00800           0
      8835 MEMB     66       POPC     C314     CTL2    -0.180000       12.0110           0
      8836 MEMB     66       POPC     H14X     HAL2     0.900000E-01   1.00800           0
      8837 MEMB     66       POPC     H14Y     HAL2     0.900000E-01   1.00800           0
      8838 MEMB     66       POPC     C315     CTL2    -0.180000       12.0110           0
      8839 MEMB     66       POPC     H15X     HAL2     0.900000E-01   1.00800           0
      8840 MEMB     66       POPC     H15Y     HAL2     0.900000E-01   1.00800           0
      8841 MEMB     66       POPC     C316     CTL3    -0.270000       12.0110           0
      8842 MEMB     66       POPC     H16X     HAL3     0.900000E-01   1.00800           0
      8843 MEMB     66       POPC     H16Y     HAL3     0.900000E-01   1.00800           0
      8844 MEMB     66       POPC     H16Z     HAL3     0.900000E-01   1.00800           0
      8845 MEMB     67       POPC     N        NTL     -0.600000       14.0070           0
      8846 MEMB     67       POPC     C12      CTL2    -0.100000       12.0110           0
      8847 MEMB     67       POPC     H12A     HL       0.250000       1.00800           0
      8848 MEMB     67       POPC     H12B     HL       0.250000       1.00800           0
      8849 MEMB     67       POPC     C13      CTL5    -0.350000       12.0110           0
      8850 MEMB     67       POPC     H13A     HL       0.250000       1.00800           0
      8851 MEMB     67       POPC     H13B     HL       0.250000       1.00800           0
      8852 MEMB     67       POPC     H13C     HL       0.250000       1.00800           0
      8853 MEMB     67       POPC     C14      CTL5    -0.350000       12.0110           0
      8854 MEMB     67       POPC     H14A     HL       0.250000       1.00800           0
      8855 MEMB     67       POPC     H14B     HL       0.250000       1.00800           0
      8856 MEMB     67       POPC     H14C     HL       0.250000       1.00800           0
      8857 MEMB     67       POPC     C15      CTL5    -0.350000       12.0110           0
      8858 MEMB     67       POPC     H15A     HL       0.250000       1.00800           0
      8859 MEMB     67       POPC     H15B     HL       0.250000       1.00800           0
      8860 MEMB     67       POPC     H15C     HL       0.250000       1.00800           0
      8861 MEMB     67       POPC     C11      CTL2    -0.800000E-01   12.0110           0
      8862 MEMB     67       POPC     H11A     HAL2     0.900000E-01   1.00800           0
      8863 MEMB     67       POPC     H11B     HAL2     0.900000E-01   1.00800           0
      8864 MEMB     67       POPC     P        PL       1.50000        30.9740           0
      8865 MEMB     67       POPC     O13      O2L     -0.780000       15.9994           0
      8866 MEMB     67       POPC     O14      O2L     -0.780000       15.9994           0
      8867 MEMB     67       POPC     O12      OSLP    -0.570000       15.9994           0
      8868 MEMB     67       POPC     O11      OSLP    -0.570000       15.9994           0
      8869 MEMB     67       POPC     C1       CTL2    -0.800000E-01   12.0110           0
      8870 MEMB     67       POPC     HA       HAL2     0.900000E-01   1.00800           0
      8871 MEMB     67       POPC     HB       HAL2     0.900000E-01   1.00800           0
      8872 MEMB     67       POPC     C2       CTL1     0.170000       12.0110           0
      8873 MEMB     67       POPC     HS       HAL1     0.900000E-01   1.00800           0
      8874 MEMB     67       POPC     O21      OSL     -0.490000       15.9994           0
      8875 MEMB     67       POPC     C21      CL       0.900000       12.0110           0
      8876 MEMB     67       POPC     O22      OBL     -0.630000       15.9994           0
      8877 MEMB     67       POPC     C22      CTL2    -0.220000       12.0110           0
      8878 MEMB     67       POPC     H2R      HAL2     0.900000E-01   1.00800           0
      8879 MEMB     67       POPC     H2S      HAL2     0.900000E-01   1.00800           0
      8880 MEMB     67       POPC     C3       CTL2     0.800000E-01   12.0110           0
      8881 MEMB     67       POPC     HX       HAL2     0.900000E-01   1.00800           0
      8882 MEMB     67       POPC     HY       HAL2     0.900000E-01   1.00800           0
      8883 MEMB     67       POPC     O31      OSL     -0.490000       15.9994           0
      8884 MEMB     67       POPC     C31      CL       0.900000       12.0110           0
      8885 MEMB     67       POPC     O32      OBL     -0.630000       15.9994           0
      8886 MEMB     67       POPC     C32      CTL2    -0.220000       12.0110           0
      8887 MEMB     67       POPC     H2X      HAL2     0.900000E-01   1.00800           0
      8888 MEMB     67       POPC     H2Y      HAL2     0.900000E-01   1.00800           0
      8889 MEMB     67       POPC     C23      CTL2    -0.180000       12.0110           0
      8890 MEMB     67       POPC     H3R      HAL2     0.900000E-01   1.00800           0
      8891 MEMB     67       POPC     H3S      HAL2     0.900000E-01   1.00800           0
      8892 MEMB     67       POPC     C24      CTL2    -0.180000       12.0110           0
      8893 MEMB     67       POPC     H4R      HAL2     0.900000E-01   1.00800           0
      8894 MEMB     67       POPC     H4S      HAL2     0.900000E-01   1.00800           0
      8895 MEMB     67       POPC     C25      CTL2    -0.180000       12.0110           0
      8896 MEMB     67       POPC     H5R      HAL2     0.900000E-01   1.00800           0
      8897 MEMB     67       POPC     H5S      HAL2     0.900000E-01   1.00800           0
      8898 MEMB     67       POPC     C26      CTL2    -0.180000       12.0110           0
      8899 MEMB     67       POPC     H6R      HAL2     0.900000E-01   1.00800           0
      8900 MEMB     67       POPC     H6S      HAL2     0.900000E-01   1.00800           0
      8901 MEMB     67       POPC     C27      CTL2    -0.180000       12.0110           0
      8902 MEMB     67       POPC     H7R      HAL2     0.900000E-01   1.00800           0
      8903 MEMB     67       POPC     H7S      HAL2     0.900000E-01   1.00800           0
      8904 MEMB     67       POPC     C28      CTL2    -0.180000       12.0110           0
      8905 MEMB     67       POPC     H8R      HAL2     0.900000E-01   1.00800           0
      8906 MEMB     67       POPC     H8S      HAL2     0.900000E-01   1.00800           0
      8907 MEMB     67       POPC     C29      CEL1    -0.150000       12.0110           0
      8908 MEMB     67       POPC     H91      HEL1     0.150000       1.00800           0
      8909 MEMB     67       POPC     C210     CEL1    -0.150000       12.0110           0
      8910 MEMB     67       POPC     H101     HEL1     0.150000       1.00800           0
      8911 MEMB     67       POPC     C211     CTL2    -0.180000       12.0110           0
      8912 MEMB     67       POPC     H11R     HAL2     0.900000E-01   1.00800           0
      8913 MEMB     67       POPC     H11S     HAL2     0.900000E-01   1.00800           0
      8914 MEMB     67       POPC     C212     CTL2    -0.180000       12.0110           0
      8915 MEMB     67       POPC     H12R     HAL2     0.900000E-01   1.00800           0
      8916 MEMB     67       POPC     H12S     HAL2     0.900000E-01   1.00800           0
      8917 MEMB     67       POPC     C213     CTL2    -0.180000       12.0110           0
      8918 MEMB     67       POPC     H13R     HAL2     0.900000E-01   1.00800           0
      8919 MEMB     67       POPC     H13S     HAL2     0.900000E-01   1.00800           0
      8920 MEMB     67       POPC     C214     CTL2    -0.180000       12.0110           0
      8921 MEMB     67       POPC     H14R     HAL2     0.900000E-01   1.00800           0
      8922 MEMB     67       POPC     H14S     HAL2     0.900000E-01   1.00800           0
      8923 MEMB     67       POPC     C215     CTL2    -0.180000       12.0110           0
      8924 MEMB     67       POPC     H15R     HAL2     0.900000E-01   1.00800           0
      8925 MEMB     67       POPC     H15S     HAL2     0.900000E-01   1.00800           0
      8926 MEMB     67       POPC     C216     CTL2    -0.180000       12.0110           0
      8927 MEMB     67       POPC     H16R     HAL2     0.900000E-01   1.00800           0
      8928 MEMB     67       POPC     H16S     HAL2     0.900000E-01   1.00800           0
      8929 MEMB     67       POPC     C217     CTL2    -0.180000       12.0110           0
      8930 MEMB     67       POPC     H17R     HAL2     0.900000E-01   1.00800           0
      8931 MEMB     67       POPC     H17S     HAL2     0.900000E-01   1.00800           0
      8932 MEMB     67       POPC     C218     CTL3    -0.270000       12.0110           0
      8933 MEMB     67       POPC     H18R     HAL3     0.900000E-01   1.00800           0
      8934 MEMB     67       POPC     H18S     HAL3     0.900000E-01   1.00800           0
      8935 MEMB     67       POPC     H18T     HAL3     0.900000E-01   1.00800           0
      8936 MEMB     67       POPC     C33      CTL2    -0.180000       12.0110           0
      8937 MEMB     67       POPC     H3X      HAL2     0.900000E-01   1.00800           0
      8938 MEMB     67       POPC     H3Y      HAL2     0.900000E-01   1.00800           0
      8939 MEMB     67       POPC     C34      CTL2    -0.180000       12.0110           0
      8940 MEMB     67       POPC     H4X      HAL2     0.900000E-01   1.00800           0
      8941 MEMB     67       POPC     H4Y      HAL2     0.900000E-01   1.00800           0
      8942 MEMB     67       POPC     C35      CTL2    -0.180000       12.0110           0
      8943 MEMB     67       POPC     H5X      HAL2     0.900000E-01   1.00800           0
      8944 MEMB     67       POPC     H5Y      HAL2     0.900000E-01   1.00800           0
      8945 MEMB     67       POPC     C36      CTL2    -0.180000       12.0110           0
      8946 MEMB     67       POPC     H6X      HAL2     0.900000E-01   1.00800           0
      8947 MEMB     67       POPC     H6Y      HAL2     0.900000E-01   1.00800           0
      8948 MEMB     67       POPC     C37      CTL2    -0.180000       12.0110           0
      8949 MEMB     67       POPC     H7X      HAL2     0.900000E-01   1.00800           0
      8950 MEMB     67       POPC     H7Y      HAL2     0.900000E-01   1.00800           0
      8951 MEMB     67       POPC     C38      CTL2    -0.180000       12.0110           0
      8952 MEMB     67       POPC     H8X      HAL2     0.900000E-01   1.00800           0
      8953 MEMB     67       POPC     H8Y      HAL2     0.900000E-01   1.00800           0
      8954 MEMB     67       POPC     C39      CTL2    -0.180000       12.0110           0
      8955 MEMB     67       POPC     H9X      HAL2     0.900000E-01   1.00800           0
      8956 MEMB     67       POPC     H9Y      HAL2     0.900000E-01   1.00800           0
      8957 MEMB     67       POPC     C310     CTL2    -0.180000       12.0110           0
      8958 MEMB     67       POPC     H10X     HAL2     0.900000E-01   1.00800           0
      8959 MEMB     67       POPC     H10Y     HAL2     0.900000E-01   1.00800           0
      8960 MEMB     67       POPC     C311     CTL2    -0.180000       12.0110           0
      8961 MEMB     67       POPC     H11X     HAL2     0.900000E-01   1.00800           0
      8962 MEMB     67       POPC     H11Y     HAL2     0.900000E-01   1.00800           0
      8963 MEMB     67       POPC     C312     CTL2    -0.180000       12.0110           0
      8964 MEMB     67       POPC     H12X     HAL2     0.900000E-01   1.00800           0
      8965 MEMB     67       POPC     H12Y     HAL2     0.900000E-01   1.00800           0
      8966 MEMB     67       POPC     C313     CTL2    -0.180000       12.0110           0
      8967 MEMB     67       POPC     H13X     HAL2     0.900000E-01   1.00800           0
      8968 MEMB     67       POPC     H13Y     HAL2     0.900000E-01   1.00800           0
      8969 MEMB     67       POPC     C314     CTL2    -0.180000       12.0110           0
      8970 MEMB     67       POPC     H14X     HAL2     0.900000E-01   1.00800           0
      8971 MEMB     67       POPC     H14Y     HAL2     0.900000E-01   1.00800           0
      8972 MEMB     67       POPC     C315     CTL2    -0.180000       12.0110           0
      8973 MEMB     67       POPC     H15X     HAL2     0.900000E-01   1.00800           0
      8974 MEMB     67       POPC     H15Y     HAL2     0.900000E-01   1.00800           0
      8975 MEMB     67       POPC     C316     CTL3    -0.270000       12.0110           0
      8976 MEMB     67       POPC     H16X     HAL3     0.900000E-01   1.00800           0
      8977 MEMB     67       POPC     H16Y     HAL3     0.900000E-01   1.00800           0
      8978 MEMB     67       POPC     H16Z     HAL3     0.900000E-01   1.00800           0
      8979 MEMB     68       POPC     N        NTL     -0.600000       14.0070           0
      8980 MEMB     68       POPC     C12      CTL2    -0.100000       12.0110           0
      8981 MEMB     68       POPC     H12A     HL       0.250000       1.00800           0
      8982 MEMB     68       POPC     H12B     HL       0.250000       1.00800           0
      8983 MEMB     68       POPC     C13      CTL5    -0.350000       12.0110           0
      8984 MEMB     68       POPC     H13A     HL       0.250000       1.00800           0
      8985 MEMB     68       POPC     H13B     HL       0.250000       1.00800           0
      8986 MEMB     68       POPC     H13C     HL       0.250000       1.00800           0
      8987 MEMB     68       POPC     C14      CTL5    -0.350000       12.0110           0
      8988 MEMB     68       POPC     H14A     HL       0.250000       1.00800           0
      8989 MEMB     68       POPC     H14B     HL       0.250000       1.00800           0
      8990 MEMB     68       POPC     H14C     HL       0.250000       1.00800           0
      8991 MEMB     68       POPC     C15      CTL5    -0.350000       12.0110           0
      8992 MEMB     68       POPC     H15A     HL       0.250000       1.00800           0
      8993 MEMB     68       POPC     H15B     HL       0.250000       1.00800           0
      8994 MEMB     68       POPC     H15C     HL       0.250000       1.00800           0
      8995 MEMB     68       POPC     C11      CTL2    -0.800000E-01   12.0110           0
      8996 MEMB     68       POPC     H11A     HAL2     0.900000E-01   1.00800           0
      8997 MEMB     68       POPC     H11B     HAL2     0.900000E-01   1.00800           0
      8998 MEMB     68       POPC     P        PL       1.50000        30.9740           0
      8999 MEMB     68       POPC     O13      O2L     -0.780000       15.9994           0
      9000 MEMB     68       POPC     O14      O2L     -0.780000       15.9994           0
      9001 MEMB     68       POPC     O12      OSLP    -0.570000       15.9994           0
      9002 MEMB     68       POPC     O11      OSLP    -0.570000       15.9994           0
      9003 MEMB     68       POPC     C1       CTL2    -0.800000E-01   12.0110           0
      9004 MEMB     68       POPC     HA       HAL2     0.900000E-01   1.00800           0
      9005 MEMB     68       POPC     HB       HAL2     0.900000E-01   1.00800           0
      9006 MEMB     68       POPC     C2       CTL1     0.170000       12.0110           0
      9007 MEMB     68       POPC     HS       HAL1     0.900000E-01   1.00800           0
      9008 MEMB     68       POPC     O21      OSL     -0.490000       15.9994           0
      9009 MEMB     68       POPC     C21      CL       0.900000       12.0110           0
      9010 MEMB     68       POPC     O22      OBL     -0.630000       15.9994           0
      9011 MEMB     68       POPC     C22      CTL2    -0.220000       12.0110           0
      9012 MEMB     68       POPC     H2R      HAL2     0.900000E-01   1.00800           0
      9013 MEMB     68       POPC     H2S      HAL2     0.900000E-01   1.00800           0
      9014 MEMB     68       POPC     C3       CTL2     0.800000E-01   12.0110           0
      9015 MEMB     68       POPC     HX       HAL2     0.900000E-01   1.00800           0
      9016 MEMB     68       POPC     HY       HAL2     0.900000E-01   1.00800           0
      9017 MEMB     68       POPC     O31      OSL     -0.490000       15.9994           0
      9018 MEMB     68       POPC     C31      CL       0.900000       12.0110           0
      9019 MEMB     68       POPC     O32      OBL     -0.630000       15.9994           0
      9020 MEMB     68       POPC     C32      CTL2    -0.220000       12.0110           0
      9021 MEMB     68       POPC     H2X      HAL2     0.900000E-01   1.00800           0
      9022 MEMB     68       POPC     H2Y      HAL2     0.900000E-01   1.00800           0
      9023 MEMB     68       POPC     C23      CTL2    -0.180000       12.0110           0
      9024 MEMB     68       POPC     H3R      HAL2     0.900000E-01   1.00800           0
      9025 MEMB     68       POPC     H3S      HAL2     0.900000E-01   1.00800           0
      9026 MEMB     68       POPC     C24      CTL2    -0.180000       12.0110           0
      9027 MEMB     68       POPC     H4R      HAL2     0.900000E-01   1.00800           0
      9028 MEMB     68       POPC     H4S      HAL2     0.900000E-01   1.00800           0
      9029 MEMB     68       POPC     C25      CTL2    -0.180000       12.0110           0
      9030 MEMB     68       POPC     H5R      HAL2     0.900000E-01   1.00800           0
      9031 MEMB     68       POPC     H5S      HAL2     0.900000E-01   1.00800           0
      9032 MEMB     68       POPC     C26      CTL2    -0.180000       12.0110           0
      9033 MEMB     68       POPC     H6R      HAL2     0.900000E-01   1.00800           0
      9034 MEMB     68       POPC     H6S      HAL2     0.900000E-01   1.00800           0
      9035 MEMB     68       POPC     C27      CTL2    -0.180000       12.0110           0
      9036 MEMB     68       POPC     H7R      HAL2     0.900000E-01   1.00800           0
      9037 MEMB     68       POPC     H7S      HAL2     0.900000E-01   1.00800           0
      9038 MEMB     68       POPC     C28      CTL2    -0.180000       12.0110           0
      9039 MEMB     68       POPC     H8R      HAL2     0.900000E-01   1.00800           0
      9040 MEMB     68       POPC     H8S      HAL2     0.900000E-01   1.00800           0
      9041 MEMB     68       POPC     C29      CEL1    -0.150000       12.0110           0
      9042 MEMB     68       POPC     H91      HEL1     0.150000       1.00800           0
      9043 MEMB     68       POPC     C210     CEL1    -0.150000       12.0110           0
      9044 MEMB     68       POPC     H101     HEL1     0.150000       1.00800           0
      9045 MEMB     68       POPC     C211     CTL2    -0.180000       12.0110           0
      9046 MEMB     68       POPC     H11R     HAL2     0.900000E-01   1.00800           0
      9047 MEMB     68       POPC     H11S     HAL2     0.900000E-01   1.00800           0
      9048 MEMB     68       POPC     C212     CTL2    -0.180000       12.0110           0
      9049 MEMB     68       POPC     H12R     HAL2     0.900000E-01   1.00800           0
      9050 MEMB     68       POPC     H12S     HAL2     0.900000E-01   1.00800           0
      9051 MEMB     68       POPC     C213     CTL2    -0.180000       12.0110           0
      9052 MEMB     68       POPC     H13R     HAL2     0.900000E-01   1.00800           0
      9053 MEMB     68       POPC     H13S     HAL2     0.900000E-01   1.00800           0
      9054 MEMB     68       POPC     C214     CTL2    -0.180000       12.0110           0
      9055 MEMB     68       POPC     H14R     HAL2     0.900000E-01   1.00800           0
      9056 MEMB     68       POPC     H14S     HAL2     0.900000E-01   1.00800           0
      9057 MEMB     68       POPC     C215     CTL2    -0.180000       12.0110           0
      9058 MEMB     68       POPC     H15R     HAL2     0.900000E-01   1.00800           0
      9059 MEMB     68       POPC     H15S     HAL2     0.900000E-01   1.00800           0
      9060 MEMB     68       POPC     C216     CTL2    -0.180000       12.0110           0
      9061 MEMB     68       POPC     H16R     HAL2     0.900000E-01   1.00800           0
      9062 MEMB     68       POPC     H16S     HAL2     0.900000E-01   1.00800           0
      9063 MEMB     68       POPC     C217     CTL2    -0.180000       12.0110           0
      9064 MEMB     68       POPC     H17R     HAL2     0.900000E-01   1.00800           0
      9065 MEMB     68       POPC     H17S     HAL2     0.900000E-01   1.00800           0
      9066 MEMB     68       POPC     C218     CTL3    -0.270000       12.0110           0
      9067 MEMB     68       POPC     H18R     HAL3     0.900000E-01   1.00800           0
      9068 MEMB     68       POPC     H18S     HAL3     0.900000E-01   1.00800           0
      9069 MEMB     68       POPC     H18T     HAL3     0.900000E-01   1.00800           0
      9070 MEMB     68       POPC     C33      CTL2    -0.180000       12.0110           0
      9071 MEMB     68       POPC     H3X      HAL2     0.900000E-01   1.00800           0
      9072 MEMB     68       POPC     H3Y      HAL2     0.900000E-01   1.00800           0
      9073 MEMB     68       POPC     C34      CTL2    -0.180000       12.0110           0
      9074 MEMB     68       POPC     H4X      HAL2     0.900000E-01   1.00800           0
      9075 MEMB     68       POPC     H4Y      HAL2     0.900000E-01   1.00800           0
      9076 MEMB     68       POPC     C35      CTL2    -0.180000       12.0110           0
      9077 MEMB     68       POPC     H5X      HAL2     0.900000E-01   1.00800           0
      9078 MEMB     68       POPC     H5Y      HAL2     0.900000E-01   1.00800           0
      9079 MEMB     68       POPC     C36      CTL2    -0.180000       12.0110           0
      9080 MEMB     68       POPC     H6X      HAL2     0.900000E-01   1.00800           0
      9081 MEMB     68       POPC     H6Y      HAL2     0.900000E-01   1.00800           0
      9082 MEMB     68       POPC     C37      CTL2    -0.180000       12.0110           0
      9083 MEMB     68       POPC     H7X      HAL2     0.900000E-01   1.00800           0
      9084 MEMB     68       POPC     H7Y      HAL2     0.900000E-01   1.00800           0
      9085 MEMB     68       POPC     C38      CTL2    -0.180000       12.0110           0
      9086 MEMB     68       POPC     H8X      HAL2     0.900000E-01   1.00800           0
      9087 MEMB     68       POPC     H8Y      HAL2     0.900000E-01   1.00800           0
      9088 MEMB     68       POPC     C39      CTL2    -0.180000       12.0110           0
      9089 MEMB     68       POPC     H9X      HAL2     0.900000E-01   1.00800           0
      9090 MEMB     68       POPC     H9Y      HAL2     0.900000E-01   1.00800           0
      9091 MEMB     68       POPC     C310     CTL2    -0.180000       12.0110           0
      9092 MEMB     68       POPC     H10X     HAL2     0.900000E-01   1.00800           0
      9093 MEMB     68       POPC     H10Y     HAL2     0.900000E-01   1.00800           0
      9094 MEMB     68       POPC     C311     CTL2    -0.180000       12.0110           0
      9095 MEMB     68       POPC     H11X     HAL2     0.900000E-01   1.00800           0
      9096 MEMB     68       POPC     H11Y     HAL2     0.900000E-01   1.00800           0
      9097 MEMB     68       POPC     C312     CTL2    -0.180000       12.0110           0
      9098 MEMB     68       POPC     H12X     HAL2     0.900000E-01   1.00800           0
      9099 MEMB     68       POPC     H12Y     HAL2     0.900000E-01   1.00800           0
      9100 MEMB     68       POPC     C313     CTL2    -0.180000       12.0110           0
      9101 MEMB     68       POPC     H13X     HAL2     0.900000E-01   1.00800           0
      9102 MEMB     68       POPC     H13Y     HAL2     0.900000E-01   1.00800           0
      9103 MEMB     68       POPC     C314     CTL2    -0.180000       12.0110           0
      9104 MEMB     68       POPC     H14X     HAL2     0.900000E-01   1.00800           0
      9105 MEMB     68       POPC     H14Y     HAL2     0.900000E-01   1.00800           0
      9106 MEMB     68       POPC     C315     CTL2    -0.180000       12.0110           0
      9107 MEMB     68       POPC     H15X     HAL2     0.900000E-01   1.00800           0
      9108 MEMB     68       POPC     H15Y     HAL2     0.900000E-01   1.00800           0
      9109 MEMB     68       POPC     C316     CTL3    -0.270000       12.0110           0
      9110 MEMB     68       POPC     H16X     HAL3     0.900000E-01   1.00800           0
      9111 MEMB     68       POPC     H16Y     HAL3     0.900000E-01   1.00800           0
      9112 MEMB     68       POPC     H16Z     HAL3     0.900000E-01   1.00800           0
      9113 MEMB     69       POPC     N        NTL     -0.600000       14.0070           0
      9114 MEMB     69       POPC     C12      CTL2    -0.100000       12.0110           0
      9115 MEMB     69       POPC     H12A     HL       0.250000       1.00800           0
      9116 MEMB     69       POPC     H12B     HL       0.250000       1.00800           0
      9117 MEMB     69       POPC     C13      CTL5    -0.350000       12.0110           0
      9118 MEMB     69       POPC     H13A     HL       0.250000       1.00800           0
      9119 MEMB     69       POPC     H13B     HL       0.250000       1.00800           0
      9120 MEMB     69       POPC     H13C     HL       0.250000       1.00800           0
      9121 MEMB     69       POPC     C14      CTL5    -0.350000       12.0110           0
      9122 MEMB     69       POPC     H14A     HL       0.250000       1.00800           0
      9123 MEMB     69       POPC     H14B     HL       0.250000       1.00800           0
      9124 MEMB     69       POPC     H14C     HL       0.250000       1.00800           0
      9125 MEMB     69       POPC     C15      CTL5    -0.350000       12.0110           0
      9126 MEMB     69       POPC     H15A     HL       0.250000       1.00800           0
      9127 MEMB     69       POPC     H15B     HL       0.250000       1.00800           0
      9128 MEMB     69       POPC     H15C     HL       0.250000       1.00800           0
      9129 MEMB     69       POPC     C11      CTL2    -0.800000E-01   12.0110           0
      9130 MEMB     69       POPC     H11A     HAL2     0.900000E-01   1.00800           0
      9131 MEMB     69       POPC     H11B     HAL2     0.900000E-01   1.00800           0
      9132 MEMB     69       POPC     P        PL       1.50000        30.9740           0
      9133 MEMB     69       POPC     O13      O2L     -0.780000       15.9994           0
      9134 MEMB     69       POPC     O14      O2L     -0.780000       15.9994           0
      9135 MEMB     69       POPC     O12      OSLP    -0.570000       15.9994           0
      9136 MEMB     69       POPC     O11      OSLP    -0.570000       15.9994           0
      9137 MEMB     69       POPC     C1       CTL2    -0.800000E-01   12.0110           0
      9138 MEMB     69       POPC     HA       HAL2     0.900000E-01   1.00800           0
      9139 MEMB     69       POPC     HB       HAL2     0.900000E-01   1.00800           0
      9140 MEMB     69       POPC     C2       CTL1     0.170000       12.0110           0
      9141 MEMB     69       POPC     HS       HAL1     0.900000E-01   1.00800           0
      9142 MEMB     69       POPC     O21      OSL     -0.490000       15.9994           0
      9143 MEMB     69       POPC     C21      CL       0.900000       12.0110           0
      9144 MEMB     69       POPC     O22      OBL     -0.630000       15.9994           0
      9145 MEMB     69       POPC     C22      CTL2    -0.220000       12.0110           0
      9146 MEMB     69       POPC     H2R      HAL2     0.900000E-01   1.00800           0
      9147 MEMB     69       POPC     H2S      HAL2     0.900000E-01   1.00800           0
      9148 MEMB     69       POPC     C3       CTL2     0.800000E-01   12.0110           0
      9149 MEMB     69       POPC     HX       HAL2     0.900000E-01   1.00800           0
      9150 MEMB     69       POPC     HY       HAL2     0.900000E-01   1.00800           0
      9151 MEMB     69       POPC     O31      OSL     -0.490000       15.9994           0
      9152 MEMB     69       POPC     C31      CL       0.900000       12.0110           0
      9153 MEMB     69       POPC     O32      OBL     -0.630000       15.9994           0
      9154 MEMB     69       POPC     C32      CTL2    -0.220000       12.0110           0
      9155 MEMB     69       POPC     H2X      HAL2     0.900000E-01   1.00800           0
      9156 MEMB     69       POPC     H2Y      HAL2     0.900000E-01   1.00800           0
      9157 MEMB     69       POPC     C23      CTL2    -0.180000       12.0110           0
      9158 MEMB     69       POPC     H3R      HAL2     0.900000E-01   1.00800           0
      9159 MEMB     69       POPC     H3S      HAL2     0.900000E-01   1.00800           0
      9160 MEMB     69       POPC     C24      CTL2    -0.180000       12.0110           0
      9161 MEMB     69       POPC     H4R      HAL2     0.900000E-01   1.00800           0
      9162 MEMB     69       POPC     H4S      HAL2     0.900000E-01   1.00800           0
      9163 MEMB     69       POPC     C25      CTL2    -0.180000       12.0110           0
      9164 MEMB     69       POPC     H5R      HAL2     0.900000E-01   1.00800           0
      9165 MEMB     69       POPC     H5S      HAL2     0.900000E-01   1.00800           0
      9166 MEMB     69       POPC     C26      CTL2    -0.180000       12.0110           0
      9167 MEMB     69       POPC     H6R      HAL2     0.900000E-01   1.00800           0
      9168 MEMB     69       POPC     H6S      HAL2     0.900000E-01   1.00800           0
      9169 MEMB     69       POPC     C27      CTL2    -0.180000       12.0110           0
      9170 MEMB     69       POPC     H7R      HAL2     0.900000E-01   1.00800           0
      9171 MEMB     69       POPC     H7S      HAL2     0.900000E-01   1.00800           0
      9172 MEMB     69       POPC     C28      CTL2    -0.180000       12.0110           0
      9173 MEMB     69       POPC     H8R      HAL2     0.900000E-01   1.00800           0
      9174 MEMB     69       POPC     H8S      HAL2     0.900000E-01   1.00800           0
      9175 MEMB     69       POPC     C29      CEL1    -0.150000       12.0110           0
      9176 MEMB     69       POPC     H91      HEL1     0.150000       1.00800           0
      9177 MEMB     69       POPC     C210     CEL1    -0.150000       12.0110           0
      9178 MEMB     69       POPC     H101     HEL1     0.150000       1.00800           0
      9179 MEMB     69       POPC     C211     CTL2    -0.180000       12.0110           0
      9180 MEMB     69       POPC     H11R     HAL2     0.900000E-01   1.00800           0
      9181 MEMB     69       POPC     H11S     HAL2     0.900000E-01   1.00800           0
      9182 MEMB     69       POPC     C212     CTL2    -0.180000       12.0110           0
      9183 MEMB     69       POPC     H12R     HAL2     0.900000E-01   1.00800           0
      9184 MEMB     69       POPC     H12S     HAL2     0.900000E-01   1.00800           0
      9185 MEMB     69       POPC     C213     CTL2    -0.180000       12.0110           0
      9186 MEMB     69       POPC     H13R     HAL2     0.900000E-01   1.00800           0
      9187 MEMB     69       POPC     H13S     HAL2     0.900000E-01   1.00800           0
      9188 MEMB     69       POPC     C214     CTL2    -0.180000       12.0110           0
      9189 MEMB     69       POPC     H14R     HAL2     0.900000E-01   1.00800           0
      9190 MEMB     69       POPC     H14S     HAL2     0.900000E-01   1.00800           0
      9191 MEMB     69       POPC     C215     CTL2    -0.180000       12.0110           0
      9192 MEMB     69       POPC     H15R     HAL2     0.900000E-01   1.00800           0
      9193 MEMB     69       POPC     H15S     HAL2     0.900000E-01   1.00800           0
      9194 MEMB     69       POPC     C216     CTL2    -0.180000       12.0110           0
      9195 MEMB     69       POPC     H16R     HAL2     0.900000E-01   1.00800           0
      9196 MEMB     69       POPC     H16S     HAL2     0.900000E-01   1.00800           0
      9197 MEMB     69       POPC     C217     CTL2    -0.180000       12.0110           0
      9198 MEMB     69       POPC     H17R     HAL2     0.900000E-01   1.00800           0
      9199 MEMB     69       POPC     H17S     HAL2     0.900000E-01   1.00800           0
      9200 MEMB     69       POPC     C218     CTL3    -0.270000       12.0110           0
      9201 MEMB     69       POPC     H18R     HAL3     0.900000E-01   1.00800           0
      9202 MEMB     69       POPC     H18S     HAL3     0.900000E-01   1.00800           0
      9203 MEMB     69       POPC     H18T     HAL3     0.900000E-01   1.00800           0
      9204 MEMB     69       POPC     C33      CTL2    -0.180000       12.0110           0
      9205 MEMB     69       POPC     H3X      HAL2     0.900000E-01   1.00800           0
      9206 MEMB     69       POPC     H3Y      HAL2     0.900000E-01   1.00800           0
      9207 MEMB     69       POPC     C34      CTL2    -0.180000       12.0110           0
      9208 MEMB     69       POPC     H4X      HAL2     0.900000E-01   1.00800           0
      9209 MEMB     69       POPC     H4Y      HAL2     0.900000E-01   1.00800           0
      9210 MEMB     69       POPC     C35      CTL2    -0.180000       12.0110           0
      9211 MEMB     69       POPC     H5X      HAL2     0.900000E-01   1.00800           0
      9212 MEMB     69       POPC     H5Y      HAL2     0.900000E-01   1.00800           0
      9213 MEMB     69       POPC     C36      CTL2    -0.180000       12.0110           0
      9214 MEMB     69       POPC     H6X      HAL2     0.900000E-01   1.00800           0
      9215 MEMB     69       POPC     H6Y      HAL2     0.900000E-01   1.00800           0
      9216 MEMB     69       POPC     C37      CTL2    -0.180000       12.0110           0
      9217 MEMB     69       POPC     H7X      HAL2     0.900000E-01   1.00800           0
      9218 MEMB     69       POPC     H7Y      HAL2     0.900000E-01   1.00800           0
      9219 MEMB     69       POPC     C38      CTL2    -0.180000       12.0110           0
      9220 MEMB     69       POPC     H8X      HAL2     0.900000E-01   1.00800           0
      9221 MEMB     69       POPC     H8Y      HAL2     0.900000E-01   1.00800           0
      9222 MEMB     69       POPC     C39      CTL2    -0.180000       12.0110           0
      9223 MEMB     69       POPC     H9X      HAL2     0.900000E-01   1.00800           0
      9224 MEMB     69       POPC     H9Y      HAL2     0.900000E-01   1.00800           0
      9225 MEMB     69       POPC     C310     CTL2    -0.180000       12.0110           0
      9226 MEMB     69       POPC     H10X     HAL2     0.900000E-01   1.00800           0
      9227 MEMB     69       POPC     H10Y     HAL2     0.900000E-01   1.00800           0
      9228 MEMB     69       POPC     C311     CTL2    -0.180000       12.0110           0
      9229 MEMB     69       POPC     H11X     HAL2     0.900000E-01   1.00800           0
      9230 MEMB     69       POPC     H11Y     HAL2     0.900000E-01   1.00800           0
      9231 MEMB     69       POPC     C312     CTL2    -0.180000       12.0110           0
      9232 MEMB     69       POPC     H12X     HAL2     0.900000E-01   1.00800           0
      9233 MEMB     69       POPC     H12Y     HAL2     0.900000E-01   1.00800           0
      9234 MEMB     69       POPC     C313     CTL2    -0.180000       12.0110           0
      9235 MEMB     69       POPC     H13X     HAL2     0.900000E-01   1.00800           0
      9236 MEMB     69       POPC     H13Y     HAL2     0.900000E-01   1.00800           0
      9237 MEMB     69       POPC     C314     CTL2    -0.180000       12.0110           0
      9238 MEMB     69       POPC     H14X     HAL2     0.900000E-01   1.00800           0
      9239 MEMB     69       POPC     H14Y     HAL2     0.900000E-01   1.00800           0
      9240 MEMB     69       POPC     C315     CTL2    -0.180000       12.0110           0
      9241 MEMB     69       POPC     H15X     HAL2     0.900000E-01   1.00800           0
      9242 MEMB     69       POPC     H15Y     HAL2     0.900000E-01   1.00800           0
      9243 MEMB     69       POPC     C316     CTL3    -0.270000       12.0110           0
      9244 MEMB     69       POPC     H16X     HAL3     0.900000E-01   1.00800           0
      9245 MEMB     69       POPC     H16Y     HAL3     0.900000E-01   1.00800           0
      9246 MEMB     69       POPC     H16Z     HAL3     0.900000E-01   1.00800           0
      9247 MEMB     70       POPC     N        NTL     -0.600000       14.0070           0
      9248 MEMB     70       POPC     C12      CTL2    -0.100000       12.0110           0
      9249 MEMB     70       POPC     H12A     HL       0.250000       1.00800           0
      9250 MEMB     70       POPC     H12B     HL       0.250000       1.00800           0
      9251 MEMB     70       POPC     C13      CTL5    -0.350000       12.0110           0
      9252 MEMB     70       POPC     H13A     HL       0.250000       1.00800           0
      9253 MEMB     70       POPC     H13B     HL       0.250000       1.00800           0
      9254 MEMB     70       POPC     H13C     HL       0.250000       1.00800           0
      9255 MEMB     70       POPC     C14      CTL5    -0.350000       12.0110           0
      9256 MEMB     70       POPC     H14A     HL       0.250000       1.00800           0
      9257 MEMB     70       POPC     H14B     HL       0.250000       1.00800           0
      9258 MEMB     70       POPC     H14C     HL       0.250000       1.00800           0
      9259 MEMB     70       POPC     C15      CTL5    -0.350000       12.0110           0
      9260 MEMB     70       POPC     H15A     HL       0.250000       1.00800           0
      9261 MEMB     70       POPC     H15B     HL       0.250000       1.00800           0
      9262 MEMB     70       POPC     H15C     HL       0.250000       1.00800           0
      9263 MEMB     70       POPC     C11      CTL2    -0.800000E-01   12.0110           0
      9264 MEMB     70       POPC     H11A     HAL2     0.900000E-01   1.00800           0
      9265 MEMB     70       POPC     H11B     HAL2     0.900000E-01   1.00800           0
      9266 MEMB     70       POPC     P        PL       1.50000        30.9740           0
      9267 MEMB     70       POPC     O13      O2L     -0.780000       15.9994           0
      9268 MEMB     70       POPC     O14      O2L     -0.780000       15.9994           0
      9269 MEMB     70       POPC     O12      OSLP    -0.570000       15.9994           0
      9270 MEMB     70       POPC     O11      OSLP    -0.570000       15.9994           0
      9271 MEMB     70       POPC     C1       CTL2    -0.800000E-01   12.0110           0
      9272 MEMB     70       POPC     HA       HAL2     0.900000E-01   1.00800           0
      9273 MEMB     70       POPC     HB       HAL2     0.900000E-01   1.00800           0
      9274 MEMB     70       POPC     C2       CTL1     0.170000       12.0110           0
      9275 MEMB     70       POPC     HS       HAL1     0.900000E-01   1.00800           0
      9276 MEMB     70       POPC     O21      OSL     -0.490000       15.9994           0
      9277 MEMB     70       POPC     C21      CL       0.900000       12.0110           0
      9278 MEMB     70       POPC     O22      OBL     -0.630000       15.9994           0
      9279 MEMB     70       POPC     C22      CTL2    -0.220000       12.0110           0
      9280 MEMB     70       POPC     H2R      HAL2     0.900000E-01   1.00800           0
      9281 MEMB     70       POPC     H2S      HAL2     0.900000E-01   1.00800           0
      9282 MEMB     70       POPC     C3       CTL2     0.800000E-01   12.0110           0
      9283 MEMB     70       POPC     HX       HAL2     0.900000E-01   1.00800           0
      9284 MEMB     70       POPC     HY       HAL2     0.900000E-01   1.00800           0
      9285 MEMB     70       POPC     O31      OSL     -0.490000       15.9994           0
      9286 MEMB     70       POPC     C31      CL       0.900000       12.0110           0
      9287 MEMB     70       POPC     O32      OBL     -0.630000       15.9994           0
      9288 MEMB     70       POPC     C32      CTL2    -0.220000       12.0110           0
      9289 MEMB     70       POPC     H2X      HAL2     0.900000E-01   1.00800           0
      9290 MEMB     70       POPC     H2Y      HAL2     0.900000E-01   1.00800           0
      9291 MEMB     70       POPC     C23      CTL2    -0.180000       12.0110           0
      9292 MEMB     70       POPC     H3R      HAL2     0.900000E-01   1.00800           0
      9293 MEMB     70       POPC     H3S      HAL2     0.900000E-01   1.00800           0
      9294 MEMB     70       POPC     C24      CTL2    -0.180000       12.0110           0
      9295 MEMB     70       POPC     H4R      HAL2     0.900000E-01   1.00800           0
      9296 MEMB     70       POPC     H4S      HAL2     0.900000E-01   1.00800           0
      9297 MEMB     70       POPC     C25      CTL2    -0.180000       12.0110           0
      9298 MEMB     70       POPC     H5R      HAL2     0.900000E-01   1.00800           0
      9299 MEMB     70       POPC     H5S      HAL2     0.900000E-01   1.00800           0
      9300 MEMB     70       POPC     C26      CTL2    -0.180000       12.0110           0
      9301 MEMB     70       POPC     H6R      HAL2     0.900000E-01   1.00800           0
      9302 MEMB     70       POPC     H6S      HAL2     0.900000E-01   1.00800           0
      9303 MEMB     70       POPC     C27      CTL2    -0.180000       12.0110           0
      9304 MEMB     70       POPC     H7R      HAL2     0.900000E-01   1.00800           0
      9305 MEMB     70       POPC     H7S      HAL2     0.900000E-01   1.00800           0
      9306 MEMB     70       POPC     C28      CTL2    -0.180000       12.0110           0
      9307 MEMB     70       POPC     H8R      HAL2     0.900000E-01   1.00800           0
      9308 MEMB     70       POPC     H8S      HAL2     0.900000E-01   1.00800           0
      9309 MEMB     70       POPC     C29      CEL1    -0.150000       12.0110           0
      9310 MEMB     70       POPC     H91      HEL1     0.150000       1.00800           0
      9311 MEMB     70       POPC     C210     CEL1    -0.150000       12.0110           0
      9312 MEMB     70       POPC     H101     HEL1     0.150000       1.00800           0
      9313 MEMB     70       POPC     C211     CTL2    -0.180000       12.0110           0
      9314 MEMB     70       POPC     H11R     HAL2     0.900000E-01   1.00800           0
      9315 MEMB     70       POPC     H11S     HAL2     0.900000E-01   1.00800           0
      9316 MEMB     70       POPC     C212     CTL2    -0.180000       12.0110           0
      9317 MEMB     70       POPC     H12R     HAL2     0.900000E-01   1.00800           0
      9318 MEMB     70       POPC     H12S     HAL2     0.900000E-01   1.00800           0
      9319 MEMB     70       POPC     C213     CTL2    -0.180000       12.0110           0
      9320 MEMB     70       POPC     H13R     HAL2     0.900000E-01   1.00800           0
      9321 MEMB     70       POPC     H13S     HAL2     0.900000E-01   1.00800           0
      9322 MEMB     70       POPC     C214     CTL2    -0.180000       12.0110           0
      9323 MEMB     70       POPC     H14R     HAL2     0.900000E-01   1.00800           0
      9324 MEMB     70       POPC     H14S     HAL2     0.900000E-01   1.00800           0
      9325 MEMB     70       POPC     C215     CTL2    -0.180000       12.0110           0
      9326 MEMB     70       POPC     H15R     HAL2     0.900000E-01   1.00800           0
      9327 MEMB     70       POPC     H15S     HAL2     0.900000E-01   1.00800           0
      9328 MEMB     70       POPC     C216     CTL2    -0.180000       12.0110           0
      9329 MEMB     70       POPC     H16R     HAL2     0.900000E-01   1.00800           0
      9330 MEMB     70       POPC     H16S     HAL2     0.900000E-01   1.00800           0
      9331 MEMB     70       POPC     C217     CTL2    -0.180000       12.0110           0
      9332 MEMB     70       POPC     H17R     HAL2     0.900000E-01   1.00800           0
      9333 MEMB     70       POPC     H17S     HAL2     0.900000E-01   1.00800           0
      9334 MEMB     70       POPC     C218     CTL3    -0.270000       12.0110           0
      9335 MEMB     70       POPC     H18R     HAL3     0.900000E-01   1.00800           0
      9336 MEMB     70       POPC     H18S     HAL3     0.900000E-01   1.00800           0
      9337 MEMB     70       POPC     H18T     HAL3     0.900000E-01   1.00800           0
      9338 MEMB     70       POPC     C33      CTL2    -0.180000       12.0110           0
      9339 MEMB     70       POPC     H3X      HAL2     0.900000E-01   1.00800           0
      9340 MEMB     70       POPC     H3Y      HAL2     0.900000E-01   1.00800           0
      9341 MEMB     70       POPC     C34      CTL2    -0.180000       12.0110           0
      9342 MEMB     70       POPC     H4X      HAL2     0.900000E-01   1.00800           0
      9343 MEMB     70       POPC     H4Y      HAL2     0.900000E-01   1.00800           0
      9344 MEMB     70       POPC     C35      CTL2    -0.180000       12.0110           0
      9345 MEMB     70       POPC     H5X      HAL2     0.900000E-01   1.00800           0
      9346 MEMB     70       POPC     H5Y      HAL2     0.900000E-01   1.00800           0
      9347 MEMB     70       POPC     C36      CTL2    -0.180000       12.0110           0
      9348 MEMB     70       POPC     H6X      HAL2     0.900000E-01   1.00800           0
      9349 MEMB     70       POPC     H6Y      HAL2     0.900000E-01   1.00800           0
      9350 MEMB     70       POPC     C37      CTL2    -0.180000       12.0110           0
      9351 MEMB     70       POPC     H7X      HAL2     0.900000E-01   1.00800           0
      9352 MEMB     70       POPC     H7Y      HAL2     0.900000E-01   1.00800           0
      9353 MEMB     70       POPC     C38      CTL2    -0.180000       12.0110           0
      9354 MEMB     70       POPC     H8X      HAL2     0.900000E-01   1.00800           0
      9355 MEMB     70       POPC     H8Y      HAL2     0.900000E-01   1.00800           0
      9356 MEMB     70       POPC     C39      CTL2    -0.180000       12.0110           0
      9357 MEMB     70       POPC     H9X      HAL2     0.900000E-01   1.00800           0
      9358 MEMB     70       POPC     H9Y      HAL2     0.900000E-01   1.00800           0
      9359 MEMB     70       POPC     C310     CTL2    -0.180000       12.0110           0
      9360 MEMB     70       POPC     H10X     HAL2     0.900000E-01   1.00800           0
      9361 MEMB     70       POPC     H10Y     HAL2     0.900000E-01   1.00800           0
      9362 MEMB     70       POPC     C311     CTL2    -0.180000       12.0110           0
      9363 MEMB     70       POPC     H11X     HAL2     0.900000E-01   1.00800           0
      9364 MEMB     70       POPC     H11Y     HAL2     0.900000E-01   1.00800           0
      9365 MEMB     70       POPC     C312     CTL2    -0.180000       12.0110           0
      9366 MEMB     70       POPC     H12X     HAL2     0.900000E-01   1.00800           0
      9367 MEMB     70       POPC     H12Y     HAL2     0.900000E-01   1.00800           0
      9368 MEMB     70       POPC     C313     CTL2    -0.180000       12.0110           0
      9369 MEMB     70       POPC     H13X     HAL2     0.900000E-01   1.00800           0
      9370 MEMB     70       POPC     H13Y     HAL2     0.900000E-01   1.00800           0
      9371 MEMB     70       POPC     C314     CTL2    -0.180000       12.0110           0
      9372 MEMB     70       POPC     H14X     HAL2     0.900000E-01   1.00800           0
      9373 MEMB     70       POPC     H14Y     HAL2     0.900000E-01   1.00800           0
      9374 MEMB     70       POPC     C315     CTL2    -0.180000       12.0110           0
      9375 MEMB     70       POPC     H15X     HAL2     0.900000E-01   1.00800           0
      9376 MEMB     70       POPC     H15Y     HAL2     0.900000E-01   1.00800           0
      9377 MEMB     70       POPC     C316     CTL3    -0.270000       12.0110           0
      9378 MEMB     70       POPC     H16X     HAL3     0.900000E-01   1.00800           0
      9379 MEMB     70       POPC     H16Y     HAL3     0.900000E-01   1.00800           0
      9380 MEMB     70       POPC     H16Z     HAL3     0.900000E-01   1.00800           0
      9381 MEMB     71       POPC     N        NTL     -0.600000       14.0070           0
      9382 MEMB     71       POPC     C12      CTL2    -0.100000       12.0110           0
      9383 MEMB     71       POPC     H12A     HL       0.250000       1.00800           0
      9384 MEMB     71       POPC     H12B     HL       0.250000       1.00800           0
      9385 MEMB     71       POPC     C13      CTL5    -0.350000       12.0110           0
      9386 MEMB     71       POPC     H13A     HL       0.250000       1.00800           0
      9387 MEMB     71       POPC     H13B     HL       0.250000       1.00800           0
      9388 MEMB     71       POPC     H13C     HL       0.250000       1.00800           0
      9389 MEMB     71       POPC     C14      CTL5    -0.350000       12.0110           0
      9390 MEMB     71       POPC     H14A     HL       0.250000       1.00800           0
      9391 MEMB     71       POPC     H14B     HL       0.250000       1.00800           0
      9392 MEMB     71       POPC     H14C     HL       0.250000       1.00800           0
      9393 MEMB     71       POPC     C15      CTL5    -0.350000       12.0110           0
      9394 MEMB     71       POPC     H15A     HL       0.250000       1.00800           0
      9395 MEMB     71       POPC     H15B     HL       0.250000       1.00800           0
      9396 MEMB     71       POPC     H15C     HL       0.250000       1.00800           0
      9397 MEMB     71       POPC     C11      CTL2    -0.800000E-01   12.0110           0
      9398 MEMB     71       POPC     H11A     HAL2     0.900000E-01   1.00800           0
      9399 MEMB     71       POPC     H11B     HAL2     0.900000E-01   1.00800           0
      9400 MEMB     71       POPC     P        PL       1.50000        30.9740           0
      9401 MEMB     71       POPC     O13      O2L     -0.780000       15.9994           0
      9402 MEMB     71       POPC     O14      O2L     -0.780000       15.9994           0
      9403 MEMB     71       POPC     O12      OSLP    -0.570000       15.9994           0
      9404 MEMB     71       POPC     O11      OSLP    -0.570000       15.9994           0
      9405 MEMB     71       POPC     C1       CTL2    -0.800000E-01   12.0110           0
      9406 MEMB     71       POPC     HA       HAL2     0.900000E-01   1.00800           0
      9407 MEMB     71       POPC     HB       HAL2     0.900000E-01   1.00800           0
      9408 MEMB     71       POPC     C2       CTL1     0.170000       12.0110           0
      9409 MEMB     71       POPC     HS       HAL1     0.900000E-01   1.00800           0
      9410 MEMB     71       POPC     O21      OSL     -0.490000       15.9994           0
      9411 MEMB     71       POPC     C21      CL       0.900000       12.0110           0
      9412 MEMB     71       POPC     O22      OBL     -0.630000       15.9994           0
      9413 MEMB     71       POPC     C22      CTL2    -0.220000       12.0110           0
      9414 MEMB     71       POPC     H2R      HAL2     0.900000E-01   1.00800           0
      9415 MEMB     71       POPC     H2S      HAL2     0.900000E-01   1.00800           0
      9416 MEMB     71       POPC     C3       CTL2     0.800000E-01   12.0110           0
      9417 MEMB     71       POPC     HX       HAL2     0.900000E-01   1.00800           0
      9418 MEMB     71       POPC     HY       HAL2     0.900000E-01   1.00800           0
      9419 MEMB     71       POPC     O31      OSL     -0.490000       15.9994           0
      9420 MEMB     71       POPC     C31      CL       0.900000       12.0110           0
      9421 MEMB     71       POPC     O32      OBL     -0.630000       15.9994           0
      9422 MEMB     71       POPC     C32      CTL2    -0.220000       12.0110           0
      9423 MEMB     71       POPC     H2X      HAL2     0.900000E-01   1.00800           0
      9424 MEMB     71       POPC     H2Y      HAL2     0.900000E-01   1.00800           0
      9425 MEMB     71       POPC     C23      CTL2    -0.180000       12.0110           0
      9426 MEMB     71       POPC     H3R      HAL2     0.900000E-01   1.00800           0
      9427 MEMB     71       POPC     H3S      HAL2     0.900000E-01   1.00800           0
      9428 MEMB     71       POPC     C24      CTL2    -0.180000       12.0110           0
      9429 MEMB     71       POPC     H4R      HAL2     0.900000E-01   1.00800           0
      9430 MEMB     71       POPC     H4S      HAL2     0.900000E-01   1.00800           0
      9431 MEMB     71       POPC     C25      CTL2    -0.180000       12.0110           0
      9432 MEMB     71       POPC     H5R      HAL2     0.900000E-01   1.00800           0
      9433 MEMB     71       POPC     H5S      HAL2     0.900000E-01   1.00800           0
      9434 MEMB     71       POPC     C26      CTL2    -0.180000       12.0110           0
      9435 MEMB     71       POPC     H6R      HAL2     0.900000E-01   1.00800           0
      9436 MEMB     71       POPC     H6S      HAL2     0.900000E-01   1.00800           0
      9437 MEMB     71       POPC     C27      CTL2    -0.180000       12.0110           0
      9438 MEMB     71       POPC     H7R      HAL2     0.900000E-01   1.00800           0
      9439 MEMB     71       POPC     H7S      HAL2     0.900000E-01   1.00800           0
      9440 MEMB     71       POPC     C28      CTL2    -0.180000       12.0110           0
      9441 MEMB     71       POPC     H8R      HAL2     0.900000E-01   1.00800           0
      9442 MEMB     71       POPC     H8S      HAL2     0.900000E-01   1.00800           0
      9443 MEMB     71       POPC     C29      CEL1    -0.150000       12.0110           0
      9444 MEMB     71       POPC     H91      HEL1     0.150000       1.00800           0
      9445 MEMB     71       POPC     C210     CEL1    -0.150000       12.0110           0
      9446 MEMB     71       POPC     H101     HEL1     0.150000       1.00800           0
      9447 MEMB     71       POPC     C211     CTL2    -0.180000       12.0110           0
      9448 MEMB     71       POPC     H11R     HAL2     0.900000E-01   1.00800           0
      9449 MEMB     71       POPC     H11S     HAL2     0.900000E-01   1.00800           0
      9450 MEMB     71       POPC     C212     CTL2    -0.180000       12.0110           0
      9451 MEMB     71       POPC     H12R     HAL2     0.900000E-01   1.00800           0
      9452 MEMB     71       POPC     H12S     HAL2     0.900000E-01   1.00800           0
      9453 MEMB     71       POPC     C213     CTL2    -0.180000       12.0110           0
      9454 MEMB     71       POPC     H13R     HAL2     0.900000E-01   1.00800           0
      9455 MEMB     71       POPC     H13S     HAL2     0.900000E-01   1.00800           0
      9456 MEMB     71       POPC     C214     CTL2    -0.180000       12.0110           0
      9457 MEMB     71       POPC     H14R     HAL2     0.900000E-01   1.00800           0
      9458 MEMB     71       POPC     H14S     HAL2     0.900000E-01   1.00800           0
      9459 MEMB     71       POPC     C215     CTL2    -0.180000       12.0110           0
      9460 MEMB     71       POPC     H15R     HAL2     0.900000E-01   1.00800           0
      9461 MEMB     71       POPC     H15S     HAL2     0.900000E-01   1.00800           0
      9462 MEMB     71       POPC     C216     CTL2    -0.180000       12.0110           0
      9463 MEMB     71       POPC     H16R     HAL2     0.900000E-01   1.00800           0
      9464 MEMB     71       POPC     H16S     HAL2     0.900000E-01   1.00800           0
      9465 MEMB     71       POPC     C217     CTL2    -0.180000       12.0110           0
      9466 MEMB     71       POPC     H17R     HAL2     0.900000E-01   1.00800           0
      9467 MEMB     71       POPC     H17S     HAL2     0.900000E-01   1.00800           0
      9468 MEMB     71       POPC     C218     CTL3    -0.270000       12.0110           0
      9469 MEMB     71       POPC     H18R     HAL3     0.900000E-01   1.00800           0
      9470 MEMB     71       POPC     H18S     HAL3     0.900000E-01   1.00800           0
      9471 MEMB     71       POPC     H18T     HAL3     0.900000E-01   1.00800           0
      9472 MEMB     71       POPC     C33      CTL2    -0.180000       12.0110           0
      9473 MEMB     71       POPC     H3X      HAL2     0.900000E-01   1.00800           0
      9474 MEMB     71       POPC     H3Y      HAL2     0.900000E-01   1.00800           0
      9475 MEMB     71       POPC     C34      CTL2    -0.180000       12.0110           0
      9476 MEMB     71       POPC     H4X      HAL2     0.900000E-01   1.00800           0
      9477 MEMB     71       POPC     H4Y      HAL2     0.900000E-01   1.00800           0
      9478 MEMB     71       POPC     C35      CTL2    -0.180000       12.0110           0
      9479 MEMB     71       POPC     H5X      HAL2     0.900000E-01   1.00800           0
      9480 MEMB     71       POPC     H5Y      HAL2     0.900000E-01   1.00800           0
      9481 MEMB     71       POPC     C36      CTL2    -0.180000       12.0110           0
      9482 MEMB     71       POPC     H6X      HAL2     0.900000E-01   1.00800           0
      9483 MEMB     71       POPC     H6Y      HAL2     0.900000E-01   1.00800           0
      9484 MEMB     71       POPC     C37      CTL2    -0.180000       12.0110           0
      9485 MEMB     71       POPC     H7X      HAL2     0.900000E-01   1.00800           0
      9486 MEMB     71       POPC     H7Y      HAL2     0.900000E-01   1.00800           0
      9487 MEMB     71       POPC     C38      CTL2    -0.180000       12.0110           0
      9488 MEMB     71       POPC     H8X      HAL2     0.900000E-01   1.00800           0
      9489 MEMB     71       POPC     H8Y      HAL2     0.900000E-01   1.00800           0
      9490 MEMB     71       POPC     C39      CTL2    -0.180000       12.0110           0
      9491 MEMB     71       POPC     H9X      HAL2     0.900000E-01   1.00800           0
      9492 MEMB     71       POPC     H9Y      HAL2     0.900000E-01   1.00800           0
      9493 MEMB     71       POPC     C310     CTL2    -0.180000       12.0110           0
      9494 MEMB     71       POPC     H10X     HAL2     0.900000E-01   1.00800           0
      9495 MEMB     71       POPC     H10Y     HAL2     0.900000E-01   1.00800           0
      9496 MEMB     71       POPC     C311     CTL2    -0.180000       12.0110           0
      9497 MEMB     71       POPC     H11X     HAL2     0.900000E-01   1.00800           0
      9498 MEMB     71       POPC     H11Y     HAL2     0.900000E-01   1.00800           0
      9499 MEMB     71       POPC     C312     CTL2    -0.180000       12.0110           0
      9500 MEMB     71       POPC     H12X     HAL2     0.900000E-01   1.00800           0
      9501 MEMB     71       POPC     H12Y     HAL2     0.900000E-01   1.00800           0
      9502 MEMB     71       POPC     C313     CTL2    -0.180000       12.0110           0
      9503 MEMB     71       POPC     H13X     HAL2     0.900000E-01   1.00800           0
      9504 MEMB     71       POPC     H13Y     HAL2     0.900000E-01   1.00800           0
      9505 MEMB     71       POPC     C314     CTL2    -0.180000       12.0110           0
      9506 MEMB     71       POPC     H14X     HAL2     0.900000E-01   1.00800           0
      9507 MEMB     71       POPC     H14Y     HAL2     0.900000E-01   1.00800           0
      9508 MEMB     71       POPC     C315     CTL2    -0.180000       12.0110           0
      9509 MEMB     71       POPC     H15X     HAL2     0.900000E-01   1.00800           0
      9510 MEMB     71       POPC     H15Y     HAL2     0.900000E-01   1.00800           0
      9511 MEMB     71       POPC     C316     CTL3    -0.270000       12.0110           0
      9512 MEMB     71       POPC     H16X     HAL3     0.900000E-01   1.00800           0
      9513 MEMB     71       POPC     H16Y     HAL3     0.900000E-01   1.00800           0
      9514 MEMB     71       POPC     H16Z     HAL3     0.900000E-01   1.00800           0
      9515 MEMB     72       POPC     N        NTL     -0.600000       14.0070           0
      9516 MEMB     72       POPC     C12      CTL2    -0.100000       12.0110           0
      9517 MEMB     72       POPC     H12A     HL       0.250000       1.00800           0
      9518 MEMB     72       POPC     H12B     HL       0.250000       1.00800           0
      9519 MEMB     72       POPC     C13      CTL5    -0.350000       12.0110           0
      9520 MEMB     72       POPC     H13A     HL       0.250000       1.00800           0
      9521 MEMB     72       POPC     H13B     HL       0.250000       1.00800           0
      9522 MEMB     72       POPC     H13C     HL       0.250000       1.00800           0
      9523 MEMB     72       POPC     C14      CTL5    -0.350000       12.0110           0
      9524 MEMB     72       POPC     H14A     HL       0.250000       1.00800           0
      9525 MEMB     72       POPC     H14B     HL       0.250000       1.00800           0
      9526 MEMB     72       POPC     H14C     HL       0.250000       1.00800           0
      9527 MEMB     72       POPC     C15      CTL5    -0.350000       12.0110           0
      9528 MEMB     72       POPC     H15A     HL       0.250000       1.00800           0
      9529 MEMB     72       POPC     H15B     HL       0.250000       1.00800           0
      9530 MEMB     72       POPC     H15C     HL       0.250000       1.00800           0
      9531 MEMB     72       POPC     C11      CTL2    -0.800000E-01   12.0110           0
      9532 MEMB     72       POPC     H11A     HAL2     0.900000E-01   1.00800           0
      9533 MEMB     72       POPC     H11B     HAL2     0.900000E-01   1.00800           0
      9534 MEMB     72       POPC     P        PL       1.50000        30.9740           0
      9535 MEMB     72       POPC     O13      O2L     -0.780000       15.9994           0
      9536 MEMB     72       POPC     O14      O2L     -0.780000       15.9994           0
      9537 MEMB     72       POPC     O12      OSLP    -0.570000       15.9994           0
      9538 MEMB     72       POPC     O11      OSLP    -0.570000       15.9994           0
      9539 MEMB     72       POPC     C1       CTL2    -0.800000E-01   12.0110           0
      9540 MEMB     72       POPC     HA       HAL2     0.900000E-01   1.00800           0
      9541 MEMB     72       POPC     HB       HAL2     0.900000E-01   1.00800           0
      9542 MEMB     72       POPC     C2       CTL1     0.170000       12.0110           0
      9543 MEMB     72       POPC     HS       HAL1     0.900000E-01   1.00800           0
      9544 MEMB     72       POPC     O21      OSL     -0.490000       15.9994           0
      9545 MEMB     72       POPC     C21      CL       0.900000       12.0110           0
      9546 MEMB     72       POPC     O22      OBL     -0.630000       15.9994           0
      9547 MEMB     72       POPC     C22      CTL2    -0.220000       12.0110           0
      9548 MEMB     72       POPC     H2R      HAL2     0.900000E-01   1.00800           0
      9549 MEMB     72       POPC     H2S      HAL2     0.900000E-01   1.00800           0
      9550 MEMB     72       POPC     C3       CTL2     0.800000E-01   12.0110           0
      9551 MEMB     72       POPC     HX       HAL2     0.900000E-01   1.00800           0
      9552 MEMB     72       POPC     HY       HAL2     0.900000E-01   1.00800           0
      9553 MEMB     72       POPC     O31      OSL     -0.490000       15.9994           0
      9554 MEMB     72       POPC     C31      CL       0.900000       12.0110           0
      9555 MEMB     72       POPC     O32      OBL     -0.630000       15.9994           0
      9556 MEMB     72       POPC     C32      CTL2    -0.220000       12.0110           0
      9557 MEMB     72       POPC     H2X      HAL2     0.900000E-01   1.00800           0
      9558 MEMB     72       POPC     H2Y      HAL2     0.900000E-01   1.00800           0
      9559 MEMB     72       POPC     C23      CTL2    -0.180000       12.0110           0
      9560 MEMB     72       POPC     H3R      HAL2     0.900000E-01   1.00800           0
      9561 MEMB     72       POPC     H3S      HAL2     0.900000E-01   1.00800           0
      9562 MEMB     72       POPC     C24      CTL2    -0.180000       12.0110           0
      9563 MEMB     72       POPC     H4R      HAL2     0.900000E-01   1.00800           0
      9564 MEMB     72       POPC     H4S      HAL2     0.900000E-01   1.00800           0
      9565 MEMB     72       POPC     C25      CTL2    -0.180000       12.0110           0
      9566 MEMB     72       POPC     H5R      HAL2     0.900000E-01   1.00800           0
      9567 MEMB     72       POPC     H5S      HAL2     0.900000E-01   1.00800           0
      9568 MEMB     72       POPC     C26      CTL2    -0.180000       12.0110           0
      9569 MEMB     72       POPC     H6R      HAL2     0.900000E-01   1.00800           0
      9570 MEMB     72       POPC     H6S      HAL2     0.900000E-01   1.00800           0
      9571 MEMB     72       POPC     C27      CTL2    -0.180000       12.0110           0
      9572 MEMB     72       POPC     H7R      HAL2     0.900000E-01   1.00800           0
      9573 MEMB     72       POPC     H7S      HAL2     0.900000E-01   1.00800           0
      9574 MEMB     72       POPC     C28      CTL2    -0.180000       12.0110           0
      9575 MEMB     72       POPC     H8R      HAL2     0.900000E-01   1.00800           0
      9576 MEMB     72       POPC     H8S      HAL2     0.900000E-01   1.00800           0
      9577 MEMB     72       POPC     C29      CEL1    -0.150000       12.0110           0
      9578 MEMB     72       POPC     H91      HEL1     0.150000       1.00800           0
      9579 MEMB     72       POPC     C210     CEL1    -0.150000       12.0110           0
      9580 MEMB     72       POPC     H101     HEL1     0.150000       1.00800           0
      9581 MEMB     72       POPC     C211     CTL2    -0.180000       12.0110           0
      9582 MEMB     72       POPC     H11R     HAL2     0.900000E-01   1.00800           0
      9583 MEMB     72       POPC     H11S     HAL2     0.900000E-01   1.00800           0
      9584 MEMB     72       POPC     C212     CTL2    -0.180000       12.0110           0
      9585 MEMB     72       POPC     H12R     HAL2     0.900000E-01   1.00800           0
      9586 MEMB     72       POPC     H12S     HAL2     0.900000E-01   1.00800           0
      9587 MEMB     72       POPC     C213     CTL2    -0.180000       12.0110           0
      9588 MEMB     72       POPC     H13R     HAL2     0.900000E-01   1.00800           0
      9589 MEMB     72       POPC     H13S     HAL2     0.900000E-01   1.00800           0
      9590 MEMB     72       POPC     C214     CTL2    -0.180000       12.0110           0
      9591 MEMB     72       POPC     H14R     HAL2     0.900000E-01   1.00800           0
      9592 MEMB     72       POPC     H14S     HAL2     0.900000E-01   1.00800           0
      9593 MEMB     72       POPC     C215     CTL2    -0.180000       12.0110           0
      9594 MEMB     72       POPC     H15R     HAL2     0.900000E-01   1.00800           0
      9595 MEMB     72       POPC     H15S     HAL2     0.900000E-01   1.00800           0
      9596 MEMB     72       POPC     C216     CTL2    -0.180000       12.0110           0
      9597 MEMB     72       POPC     H16R     HAL2     0.900000E-01   1.00800           0
      9598 MEMB     72       POPC     H16S     HAL2     0.900000E-01   1.00800           0
      9599 MEMB     72       POPC     C217     CTL2    -0.180000       12.0110           0
      9600 MEMB     72       POPC     H17R     HAL2     0.900000E-01   1.00800           0
      9601 MEMB     72       POPC     H17S     HAL2     0.900000E-01   1.00800           0
      9602 MEMB     72       POPC     C218     CTL3    -0.270000       12.0110           0
      9603 MEMB     72       POPC     H18R     HAL3     0.900000E-01   1.00800           0
      9604 MEMB     72       POPC     H18S     HAL3     0.900000E-01   1.00800           0
      9605 MEMB     72       POPC     H18T     HAL3     0.900000E-01   1.00800           0
      9606 MEMB     72       POPC     C33      CTL2    -0.180000       12.0110           0
      9607 MEMB     72       POPC     H3X      HAL2     0.900000E-01   1.00800           0
      9608 MEMB     72       POPC     H3Y      HAL2     0.900000E-01   1.00800           0
      9609 MEMB     72       POPC     C34      CTL2    -0.180000       12.0110           0
      9610 MEMB     72       POPC     H4X      HAL2     0.900000E-01   1.00800           0
      9611 MEMB     72       POPC     H4Y      HAL2     0.900000E-01   1.00800           0
      9612 MEMB     72       POPC     C35      CTL2    -0.180000       12.0110           0
      9613 MEMB     72       POPC     H5X      HAL2     0.900000E-01   1.00800           0
      9614 MEMB     72       POPC     H5Y      HAL2     0.900000E-01   1.00800           0
      9615 MEMB     72       POPC     C36      CTL2    -0.180000       12.0110           0
      9616 MEMB     72       POPC     H6X      HAL2     0.900000E-01   1.00800           0
      9617 MEMB     72       POPC     H6Y      HAL2     0.900000E-01   1.00800           0
      9618 MEMB     72       POPC     C37      CTL2    -0.180000       12.0110           0
      9619 MEMB     72       POPC     H7X      HAL2     0.900000E-01   1.00800           0
      9620 MEMB     72       POPC     H7Y      HAL2     0.900000E-01   1.00800           0
      9621 MEMB     72       POPC     C38      CTL2    -0.180000       12.0110           0
      9622 MEMB     72       POPC     H8X      HAL2     0.900000E-01   1.00800           0
      9623 MEMB     72       POPC     H8Y      HAL2     0.900000E-01   1.00800           0
      9624 MEMB     72       POPC     C39      CTL2    -0.180000       12.0110           0
      9625 MEMB     72       POPC     H9X      HAL2     0.900000E-01   1.00800           0
      9626 MEMB     72       POPC     H9Y      HAL2     0.900000E-01   1.00800           0
      9627 MEMB     72       POPC     C310     CTL2    -0.180000       12.0110           0
      9628 MEMB     72       POPC     H10X     HAL2     0.900000E-01   1.00800           0
      9629 MEMB     72       POPC     H10Y     HAL2     0.900000E-01   1.00800           0
      9630 MEMB     72       POPC     C311     CTL2    -0.180000       12.0110           0
      9631 MEMB     72       POPC     H11X     HAL2     0.900000E-01   1.00800           0
      9632 MEMB     72       POPC     H11Y     HAL2     0.900000E-01   1.00800           0
      9633 MEMB     72       POPC     C312     CTL2    -0.180000       12.0110           0
      9634 MEMB     72       POPC     H12X     HAL2     0.900000E-01   1.00800           0
      9635 MEMB     72       POPC     H12Y     HAL2     0.900000E-01   1.00800           0
      9636 MEMB     72       POPC     C313     CTL2    -0.180000       12.0110           0
      9637 MEMB     72       POPC     H13X     HAL2     0.900000E-01   1.00800           0
      9638 MEMB     72       POPC     H13Y     HAL2     0.900000E-01   1.00800           0
      9639 MEMB     72       POPC     C314     CTL2    -0.180000       12.0110           0
      9640 MEMB     72       POPC     H14X     HAL2     0.900000E-01   1.00800           0
      9641 MEMB     72       POPC     H14Y     HAL2     0.900000E-01   1.00800           0
      9642 MEMB     72       POPC     C315     CTL2    -0.180000       12.0110           0
      9643 MEMB     72       POPC     H15X     HAL2     0.900000E-01   1.00800           0
      9644 MEMB     72       POPC     H15Y     HAL2     0.900000E-01   1.00800           0
      9645 MEMB     72       POPC     C316     CTL3    -0.270000       12.0110           0
      9646 MEMB     72       POPC     H16X     HAL3     0.900000E-01   1.00800           0
      9647 MEMB     72       POPC     H16Y     HAL3     0.900000E-01   1.00800           0
      9648 MEMB     72       POPC     H16Z     HAL3     0.900000E-01   1.00800           0
      9649 MEMB     73       POPC     N        NTL     -0.600000       14.0070           0
      9650 MEMB     73       POPC     C12      CTL2    -0.100000       12.0110           0
      9651 MEMB     73       POPC     H12A     HL       0.250000       1.00800           0
      9652 MEMB     73       POPC     H12B     HL       0.250000       1.00800           0
      9653 MEMB     73       POPC     C13      CTL5    -0.350000       12.0110           0
      9654 MEMB     73       POPC     H13A     HL       0.250000       1.00800           0
      9655 MEMB     73       POPC     H13B     HL       0.250000       1.00800           0
      9656 MEMB     73       POPC     H13C     HL       0.250000       1.00800           0
      9657 MEMB     73       POPC     C14      CTL5    -0.350000       12.0110           0
      9658 MEMB     73       POPC     H14A     HL       0.250000       1.00800           0
      9659 MEMB     73       POPC     H14B     HL       0.250000       1.00800           0
      9660 MEMB     73       POPC     H14C     HL       0.250000       1.00800           0
      9661 MEMB     73       POPC     C15      CTL5    -0.350000       12.0110           0
      9662 MEMB     73       POPC     H15A     HL       0.250000       1.00800           0
      9663 MEMB     73       POPC     H15B     HL       0.250000       1.00800           0
      9664 MEMB     73       POPC     H15C     HL       0.250000       1.00800           0
      9665 MEMB     73       POPC     C11      CTL2    -0.800000E-01   12.0110           0
      9666 MEMB     73       POPC     H11A     HAL2     0.900000E-01   1.00800           0
      9667 MEMB     73       POPC     H11B     HAL2     0.900000E-01   1.00800           0
      9668 MEMB     73       POPC     P        PL       1.50000        30.9740           0
      9669 MEMB     73       POPC     O13      O2L     -0.780000       15.9994           0
      9670 MEMB     73       POPC     O14      O2L     -0.780000       15.9994           0
      9671 MEMB     73       POPC     O12      OSLP    -0.570000       15.9994           0
      9672 MEMB     73       POPC     O11      OSLP    -0.570000       15.9994           0
      9673 MEMB     73       POPC     C1       CTL2    -0.800000E-01   12.0110           0
      9674 MEMB     73       POPC     HA       HAL2     0.900000E-01   1.00800           0
      9675 MEMB     73       POPC     HB       HAL2     0.900000E-01   1.00800           0
      9676 MEMB     73       POPC     C2       CTL1     0.170000       12.0110           0
      9677 MEMB     73       POPC     HS       HAL1     0.900000E-01   1.00800           0
      9678 MEMB     73       POPC     O21      OSL     -0.490000       15.9994           0
      9679 MEMB     73       POPC     C21      CL       0.900000       12.0110           0
      9680 MEMB     73       POPC     O22      OBL     -0.630000       15.9994           0
      9681 MEMB     73       POPC     C22      CTL2    -0.220000       12.0110           0
      9682 MEMB     73       POPC     H2R      HAL2     0.900000E-01   1.00800           0
      9683 MEMB     73       POPC     H2S      HAL2     0.900000E-01   1.00800           0
      9684 MEMB     73       POPC     C3       CTL2     0.800000E-01   12.0110           0
      9685 MEMB     73       POPC     HX       HAL2     0.900000E-01   1.00800           0
      9686 MEMB     73       POPC     HY       HAL2     0.900000E-01   1.00800           0
      9687 MEMB     73       POPC     O31      OSL     -0.490000       15.9994           0
      9688 MEMB     73       POPC     C31      CL       0.900000       12.0110           0
      9689 MEMB     73       POPC     O32      OBL     -0.630000       15.9994           0
      9690 MEMB     73       POPC     C32      CTL2    -0.220000       12.0110           0
      9691 MEMB     73       POPC     H2X      HAL2     0.900000E-01   1.00800           0
      9692 MEMB     73       POPC     H2Y      HAL2     0.900000E-01   1.00800           0
      9693 MEMB     73       POPC     C23      CTL2    -0.180000       12.0110           0
      9694 MEMB     73       POPC     H3R      HAL2     0.900000E-01   1.00800           0
      9695 MEMB     73       POPC     H3S      HAL2     0.900000E-01   1.00800           0
      9696 MEMB     73       POPC     C24      CTL2    -0.180000       12.0110           0
      9697 MEMB     73       POPC     H4R      HAL2     0.900000E-01   1.00800           0
      9698 MEMB     73       POPC     H4S      HAL2     0.900000E-01   1.00800           0
      9699 MEMB     73       POPC     C25      CTL2    -0.180000       12.0110           0
      9700 MEMB     73       POPC     H5R      HAL2     0.900000E-01   1.00800           0
      9701 MEMB     73       POPC     H5S      HAL2     0.900000E-01   1.00800           0
      9702 MEMB     73       POPC     C26      CTL2    -0.180000       12.0110           0
      9703 MEMB     73       POPC     H6R      HAL2     0.900000E-01   1.00800           0
      9704 MEMB     73       POPC     H6S      HAL2     0.900000E-01   1.00800           0
      9705 MEMB     73       POPC     C27      CTL2    -0.180000       12.0110           0
      9706 MEMB     73       POPC     H7R      HAL2     0.900000E-01   1.00800           0
      9707 MEMB     73       POPC     H7S      HAL2     0.900000E-01   1.00800           0
      9708 MEMB     73       POPC     C28      CTL2    -0.180000       12.0110           0
      9709 MEMB     73       POPC     H8R      HAL2     0.900000E-01   1.00800           0
      9710 MEMB     73       POPC     H8S      HAL2     0.900000E-01   1.00800           0
      9711 MEMB     73       POPC     C29      CEL1    -0.150000       12.0110           0
      9712 MEMB     73       POPC     H91      HEL1     0.150000       1.00800           0
      9713 MEMB     73       POPC     C210     CEL1    -0.150000       12.0110           0
      9714 MEMB     73       POPC     H101     HEL1     0.150000       1.00800           0
      9715 MEMB     73       POPC     C211     CTL2    -0.180000       12.0110           0
      9716 MEMB     73       POPC     H11R     HAL2     0.900000E-01   1.00800           0
      9717 MEMB     73       POPC     H11S     HAL2     0.900000E-01   1.00800           0
      9718 MEMB     73       POPC     C212     CTL2    -0.180000       12.0110           0
      9719 MEMB     73       POPC     H12R     HAL2     0.900000E-01   1.00800           0
      9720 MEMB     73       POPC     H12S     HAL2     0.900000E-01   1.00800           0
      9721 MEMB     73       POPC     C213     CTL2    -0.180000       12.0110           0
      9722 MEMB     73       POPC     H13R     HAL2     0.900000E-01   1.00800           0
      9723 MEMB     73       POPC     H13S     HAL2     0.900000E-01   1.00800           0
      9724 MEMB     73       POPC     C214     CTL2    -0.180000       12.0110           0
      9725 MEMB     73       POPC     H14R     HAL2     0.900000E-01   1.00800           0
      9726 MEMB     73       POPC     H14S     HAL2     0.900000E-01   1.00800           0
      9727 MEMB     73       POPC     C215     CTL2    -0.180000       12.0110           0
      9728 MEMB     73       POPC     H15R     HAL2     0.900000E-01   1.00800           0
      9729 MEMB     73       POPC     H15S     HAL2     0.900000E-01   1.00800           0
      9730 MEMB     73       POPC     C216     CTL2    -0.180000       12.0110           0
      9731 MEMB     73       POPC     H16R     HAL2     0.900000E-01   1.00800           0
      9732 MEMB     73       POPC     H16S     HAL2     0.900000E-01   1.00800           0
      9733 MEMB     73       POPC     C217     CTL2    -0.180000       12.0110           0
      9734 MEMB     73       POPC     H17R     HAL2     0.900000E-01   1.00800           0
      9735 MEMB     73       POPC     H17S     HAL2     0.900000E-01   1.00800           0
      9736 MEMB     73       POPC     C218     CTL3    -0.270000       12.0110           0
      9737 MEMB     73       POPC     H18R     HAL3     0.900000E-01   1.00800           0
      9738 MEMB     73       POPC     H18S     HAL3     0.900000E-01   1.00800           0
      9739 MEMB     73       POPC     H18T     HAL3     0.900000E-01   1.00800           0
      9740 MEMB     73       POPC     C33      CTL2    -0.180000       12.0110           0
      9741 MEMB     73       POPC     H3X      HAL2     0.900000E-01   1.00800           0
      9742 MEMB     73       POPC     H3Y      HAL2     0.900000E-01   1.00800           0
      9743 MEMB     73       POPC     C34      CTL2    -0.180000       12.0110           0
      9744 MEMB     73       POPC     H4X      HAL2     0.900000E-01   1.00800           0
      9745 MEMB     73       POPC     H4Y      HAL2     0.900000E-01   1.00800           0
      9746 MEMB     73       POPC     C35      CTL2    -0.180000       12.0110           0
      9747 MEMB     73       POPC     H5X      HAL2     0.900000E-01   1.00800           0
      9748 MEMB     73       POPC     H5Y      HAL2     0.900000E-01   1.00800           0
      9749 MEMB     73       POPC     C36      CTL2    -0.180000       12.0110           0
      9750 MEMB     73       POPC     H6X      HAL2     0.900000E-01   1.00800           0
      9751 MEMB     73       POPC     H6Y      HAL2     0.900000E-01   1.00800           0
      9752 MEMB     73       POPC     C37      CTL2    -0.180000       12.0110           0
      9753 MEMB     73       POPC     H7X      HAL2     0.900000E-01   1.00800           0
      9754 MEMB     73       POPC     H7Y      HAL2     0.900000E-01   1.00800           0
      9755 MEMB     73       POPC     C38      CTL2    -0.180000       12.0110           0
      9756 MEMB     73       POPC     H8X      HAL2     0.900000E-01   1.00800           0
      9757 MEMB     73       POPC     H8Y      HAL2     0.900000E-01   1.00800           0
      9758 MEMB     73       POPC     C39      CTL2    -0.180000       12.0110           0
      9759 MEMB     73       POPC     H9X      HAL2     0.900000E-01   1.00800           0
      9760 MEMB     73       POPC     H9Y      HAL2     0.900000E-01   1.00800           0
      9761 MEMB     73       POPC     C310     CTL2    -0.180000       12.0110           0
      9762 MEMB     73       POPC     H10X     HAL2     0.900000E-01   1.00800           0
      9763 MEMB     73       POPC     H10Y     HAL2     0.900000E-01   1.00800           0
      9764 MEMB     73       POPC     C311     CTL2    -0.180000       12.0110           0
      9765 MEMB     73       POPC     H11X     HAL2     0.900000E-01   1.00800           0
      9766 MEMB     73       POPC     H11Y     HAL2     0.900000E-01   1.00800           0
      9767 MEMB     73       POPC     C312     CTL2    -0.180000       12.0110           0
      9768 MEMB     73       POPC     H12X     HAL2     0.900000E-01   1.00800           0
      9769 MEMB     73       POPC     H12Y     HAL2     0.900000E-01   1.00800           0
      9770 MEMB     73       POPC     C313     CTL2    -0.180000       12.0110           0
      9771 MEMB     73       POPC     H13X     HAL2     0.900000E-01   1.00800           0
      9772 MEMB     73       POPC     H13Y     HAL2     0.900000E-01   1.00800           0
      9773 MEMB     73       POPC     C314     CTL2    -0.180000       12.0110           0
      9774 MEMB     73       POPC     H14X     HAL2     0.900000E-01   1.00800           0
      9775 MEMB     73       POPC     H14Y     HAL2     0.900000E-01   1.00800           0
      9776 MEMB     73       POPC     C315     CTL2    -0.180000       12.0110           0
      9777 MEMB     73       POPC     H15X     HAL2     0.900000E-01   1.00800           0
      9778 MEMB     73       POPC     H15Y     HAL2     0.900000E-01   1.00800           0
      9779 MEMB     73       POPC     C316     CTL3    -0.270000       12.0110           0
      9780 MEMB     73       POPC     H16X     HAL3     0.900000E-01   1.00800           0
      9781 MEMB     73       POPC     H16Y     HAL3     0.900000E-01   1.00800           0
      9782 MEMB     73       POPC     H16Z     HAL3     0.900000E-01   1.00800           0
      9783 MEMB     74       POPC     N        NTL     -0.600000       14.0070           0
      9784 MEMB     74       POPC     C12      CTL2    -0.100000       12.0110           0
      9785 MEMB     74       POPC     H12A     HL       0.250000       1.00800           0
      9786 MEMB     74       POPC     H12B     HL       0.250000       1.00800           0
      9787 MEMB     74       POPC     C13      CTL5    -0.350000       12.0110           0
      9788 MEMB     74       POPC     H13A     HL       0.250000       1.00800           0
      9789 MEMB     74       POPC     H13B     HL       0.250000       1.00800           0
      9790 MEMB     74       POPC     H13C     HL       0.250000       1.00800           0
      9791 MEMB     74       POPC     C14      CTL5    -0.350000       12.0110           0
      9792 MEMB     74       POPC     H14A     HL       0.250000       1.00800           0
      9793 MEMB     74       POPC     H14B     HL       0.250000       1.00800           0
      9794 MEMB     74       POPC     H14C     HL       0.250000       1.00800           0
      9795 MEMB     74       POPC     C15      CTL5    -0.350000       12.0110           0
      9796 MEMB     74       POPC     H15A     HL       0.250000       1.00800           0
      9797 MEMB     74       POPC     H15B     HL       0.250000       1.00800           0
      9798 MEMB     74       POPC     H15C     HL       0.250000       1.00800           0
      9799 MEMB     74       POPC     C11      CTL2    -0.800000E-01   12.0110           0
      9800 MEMB     74       POPC     H11A     HAL2     0.900000E-01   1.00800           0
      9801 MEMB     74       POPC     H11B     HAL2     0.900000E-01   1.00800           0
      9802 MEMB     74       POPC     P        PL       1.50000        30.9740           0
      9803 MEMB     74       POPC     O13      O2L     -0.780000       15.9994           0
      9804 MEMB     74       POPC     O14      O2L     -0.780000       15.9994           0
      9805 MEMB     74       POPC     O12      OSLP    -0.570000       15.9994           0
      9806 MEMB     74       POPC     O11      OSLP    -0.570000       15.9994           0
      9807 MEMB     74       POPC     C1       CTL2    -0.800000E-01   12.0110           0
      9808 MEMB     74       POPC     HA       HAL2     0.900000E-01   1.00800           0
      9809 MEMB     74       POPC     HB       HAL2     0.900000E-01   1.00800           0
      9810 MEMB     74       POPC     C2       CTL1     0.170000       12.0110           0
      9811 MEMB     74       POPC     HS       HAL1     0.900000E-01   1.00800           0
      9812 MEMB     74       POPC     O21      OSL     -0.490000       15.9994           0
      9813 MEMB     74       POPC     C21      CL       0.900000       12.0110           0
      9814 MEMB     74       POPC     O22      OBL     -0.630000       15.9994           0
      9815 MEMB     74       POPC     C22      CTL2    -0.220000       12.0110           0
      9816 MEMB     74       POPC     H2R      HAL2     0.900000E-01   1.00800           0
      9817 MEMB     74       POPC     H2S      HAL2     0.900000E-01   1.00800           0
      9818 MEMB     74       POPC     C3       CTL2     0.800000E-01   12.0110           0
      9819 MEMB     74       POPC     HX       HAL2     0.900000E-01   1.00800           0
      9820 MEMB     74       POPC     HY       HAL2     0.900000E-01   1.00800           0
      9821 MEMB     74       POPC     O31      OSL     -0.490000       15.9994           0
      9822 MEMB     74       POPC     C31      CL       0.900000       12.0110           0
      9823 MEMB     74       POPC     O32      OBL     -0.630000       15.9994           0
      9824 MEMB     74       POPC     C32      CTL2    -0.220000       12.0110           0
      9825 MEMB     74       POPC     H2X      HAL2     0.900000E-01   1.00800           0
      9826 MEMB     74       POPC     H2Y      HAL2     0.900000E-01   1.00800           0
      9827 MEMB     74       POPC     C23      CTL2    -0.180000       12.0110           0
      9828 MEMB     74       POPC     H3R      HAL2     0.900000E-01   1.00800           0
      9829 MEMB     74       POPC     H3S      HAL2     0.900000E-01   1.00800           0
      9830 MEMB     74       POPC     C24      CTL2    -0.180000       12.0110           0
      9831 MEMB     74       POPC     H4R      HAL2     0.900000E-01   1.00800           0
      9832 MEMB     74       POPC     H4S      HAL2     0.900000E-01   1.00800           0
      9833 MEMB     74       POPC     C25      CTL2    -0.180000       12.0110           0
      9834 MEMB     74       POPC     H5R      HAL2     0.900000E-01   1.00800           0
      9835 MEMB     74       POPC     H5S      HAL2     0.900000E-01   1.00800           0
      9836 MEMB     74       POPC     C26      CTL2    -0.180000       12.0110           0
      9837 MEMB     74       POPC     H6R      HAL2     0.900000E-01   1.00800           0
      9838 MEMB     74       POPC     H6S      HAL2     0.900000E-01   1.00800           0
      9839 MEMB     74       POPC     C27      CTL2    -0.180000       12.0110           0
      9840 MEMB     74       POPC     H7R      HAL2     0.900000E-01   1.00800           0
      9841 MEMB     74       POPC     H7S      HAL2     0.900000E-01   1.00800           0
      9842 MEMB     74       POPC     C28      CTL2    -0.180000       12.0110           0
      9843 MEMB     74       POPC     H8R      HAL2     0.900000E-01   1.00800           0
      9844 MEMB     74       POPC     H8S      HAL2     0.900000E-01   1.00800           0
      9845 MEMB     74       POPC     C29      CEL1    -0.150000       12.0110           0
      9846 MEMB     74       POPC     H91      HEL1     0.150000       1.00800           0
      9847 MEMB     74       POPC     C210     CEL1    -0.150000       12.0110           0
      9848 MEMB     74       POPC     H101     HEL1     0.150000       1.00800           0
      9849 MEMB     74       POPC     C211     CTL2    -0.180000       12.0110           0
      9850 MEMB     74       POPC     H11R     HAL2     0.900000E-01   1.00800           0
      9851 MEMB     74       POPC     H11S     HAL2     0.900000E-01   1.00800           0
      9852 MEMB     74       POPC     C212     CTL2    -0.180000       12.0110           0
      9853 MEMB     74       POPC     H12R     HAL2     0.900000E-01   1.00800           0
      9854 MEMB     74       POPC     H12S     HAL2     0.900000E-01   1.00800           0
      9855 MEMB     74       POPC     C213     CTL2    -0.180000       12.0110           0
      9856 MEMB     74       POPC     H13R     HAL2     0.900000E-01   1.00800           0
      9857 MEMB     74       POPC     H13S     HAL2     0.900000E-01   1.00800           0
      9858 MEMB     74       POPC     C214     CTL2    -0.180000       12.0110           0
      9859 MEMB     74       POPC     H14R     HAL2     0.900000E-01   1.00800           0
      9860 MEMB     74       POPC     H14S     HAL2     0.900000E-01   1.00800           0
      9861 MEMB     74       POPC     C215     CTL2    -0.180000       12.0110           0
      9862 MEMB     74       POPC     H15R     HAL2     0.900000E-01   1.00800           0
      9863 MEMB     74       POPC     H15S     HAL2     0.900000E-01   1.00800           0
      9864 MEMB     74       POPC     C216     CTL2    -0.180000       12.0110           0
      9865 MEMB     74       POPC     H16R     HAL2     0.900000E-01   1.00800           0
      9866 MEMB     74       POPC     H16S     HAL2     0.900000E-01   1.00800           0
      9867 MEMB     74       POPC     C217     CTL2    -0.180000       12.0110           0
      9868 MEMB     74       POPC     H17R     HAL2     0.900000E-01   1.00800           0
      9869 MEMB     74       POPC     H17S     HAL2     0.900000E-01   1.00800           0
      9870 MEMB     74       POPC     C218     CTL3    -0.270000       12.0110           0
      9871 MEMB     74       POPC     H18R     HAL3     0.900000E-01   1.00800           0
      9872 MEMB     74       POPC     H18S     HAL3     0.900000E-01   1.00800           0
      9873 MEMB     74       POPC     H18T     HAL3     0.900000E-01   1.00800           0
      9874 MEMB     74       POPC     C33      CTL2    -0.180000       12.0110           0
      9875 MEMB     74       POPC     H3X      HAL2     0.900000E-01   1.00800           0
      9876 MEMB     74       POPC     H3Y      HAL2     0.900000E-01   1.00800           0
      9877 MEMB     74       POPC     C34      CTL2    -0.180000       12.0110           0
      9878 MEMB     74       POPC     H4X      HAL2     0.900000E-01   1.00800           0
      9879 MEMB     74       POPC     H4Y      HAL2     0.900000E-01   1.00800           0
      9880 MEMB     74       POPC     C35      CTL2    -0.180000       12.0110           0
      9881 MEMB     74       POPC     H5X      HAL2     0.900000E-01   1.00800           0
      9882 MEMB     74       POPC     H5Y      HAL2     0.900000E-01   1.00800           0
      9883 MEMB     74       POPC     C36      CTL2    -0.180000       12.0110           0
      9884 MEMB     74       POPC     H6X      HAL2     0.900000E-01   1.00800           0
      9885 MEMB     74       POPC     H6Y      HAL2     0.900000E-01   1.00800           0
      9886 MEMB     74       POPC     C37      CTL2    -0.180000       12.0110           0
      9887 MEMB     74       POPC     H7X      HAL2     0.900000E-01   1.00800           0
      9888 MEMB     74       POPC     H7Y      HAL2     0.900000E-01   1.00800           0
      9889 MEMB     74       POPC     C38      CTL2    -0.180000       12.0110           0
      9890 MEMB     74       POPC     H8X      HAL2     0.900000E-01   1.00800           0
      9891 MEMB     74       POPC     H8Y      HAL2     0.900000E-01   1.00800           0
      9892 MEMB     74       POPC     C39      CTL2    -0.180000       12.0110           0
      9893 MEMB     74       POPC     H9X      HAL2     0.900000E-01   1.00800           0
      9894 MEMB     74       POPC     H9Y      HAL2     0.900000E-01   1.00800           0
      9895 MEMB     74       POPC     C310     CTL2    -0.180000       12.0110           0
      9896 MEMB     74       POPC     H10X     HAL2     0.900000E-01   1.00800           0
      9897 MEMB     74       POPC     H10Y     HAL2     0.900000E-01   1.00800           0
      9898 MEMB     74       POPC     C311     CTL2    -0.180000       12.0110           0
      9899 MEMB     74       POPC     H11X     HAL2     0.900000E-01   1.00800           0
      9900 MEMB     74       POPC     H11Y     HAL2     0.900000E-01   1.00800           0
      9901 MEMB     74       POPC     C312     CTL2    -0.180000       12.0110           0
      9902 MEMB     74       POPC     H12X     HAL2     0.900000E-01   1.00800           0
      9903 MEMB     74       POPC     H12Y     HAL2     0.900000E-01   1.00800           0
      9904 MEMB     74       POPC     C313     CTL2    -0.180000       12.0110           0
      9905 MEMB     74       POPC     H13X     HAL2     0.900000E-01   1.00800           0
      9906 MEMB     74       POPC     H13Y     HAL2     0.900000E-01   1.00800           0
      9907 MEMB     74       POPC     C314     CTL2    -0.180000       12.0110           0
      9908 MEMB     74       POPC     H14X     HAL2     0.900000E-01   1.00800           0
      9909 MEMB     74       POPC     H14Y     HAL2     0.900000E-01   1.00800           0
      9910 MEMB     74       POPC     C315     CTL2    -0.180000       12.0110           0
      9911 MEMB     74       POPC     H15X     HAL2     0.900000E-01   1.00800           0
      9912 MEMB     74       POPC     H15Y     HAL2     0.900000E-01   1.00800           0
      9913 MEMB     74       POPC     C316     CTL3    -0.270000       12.0110           0
      9914 MEMB     74       POPC     H16X     HAL3     0.900000E-01   1.00800           0
      9915 MEMB     74       POPC     H16Y     HAL3     0.900000E-01   1.00800           0
      9916 MEMB     74       POPC     H16Z     HAL3     0.900000E-01   1.00800           0
      9917 MEMB     75       POPC     N        NTL     -0.600000       14.0070           0
      9918 MEMB     75       POPC     C12      CTL2    -0.100000       12.0110           0
      9919 MEMB     75       POPC     H12A     HL       0.250000       1.00800           0
      9920 MEMB     75       POPC     H12B     HL       0.250000       1.00800           0
      9921 MEMB     75       POPC     C13      CTL5    -0.350000       12.0110           0
      9922 MEMB     75       POPC     H13A     HL       0.250000       1.00800           0
      9923 MEMB     75       POPC     H13B     HL       0.250000       1.00800           0
      9924 MEMB     75       POPC     H13C     HL       0.250000       1.00800           0
      9925 MEMB     75       POPC     C14      CTL5    -0.350000       12.0110           0
      9926 MEMB     75       POPC     H14A     HL       0.250000       1.00800           0
      9927 MEMB     75       POPC     H14B     HL       0.250000       1.00800           0
      9928 MEMB     75       POPC     H14C     HL       0.250000       1.00800           0
      9929 MEMB     75       POPC     C15      CTL5    -0.350000       12.0110           0
      9930 MEMB     75       POPC     H15A     HL       0.250000       1.00800           0
      9931 MEMB     75       POPC     H15B     HL       0.250000       1.00800           0
      9932 MEMB     75       POPC     H15C     HL       0.250000       1.00800           0
      9933 MEMB     75       POPC     C11      CTL2    -0.800000E-01   12.0110           0
      9934 MEMB     75       POPC     H11A     HAL2     0.900000E-01   1.00800           0
      9935 MEMB     75       POPC     H11B     HAL2     0.900000E-01   1.00800           0
      9936 MEMB     75       POPC     P        PL       1.50000        30.9740           0
      9937 MEMB     75       POPC     O13      O2L     -0.780000       15.9994           0
      9938 MEMB     75       POPC     O14      O2L     -0.780000       15.9994           0
      9939 MEMB     75       POPC     O12      OSLP    -0.570000       15.9994           0
      9940 MEMB     75       POPC     O11      OSLP    -0.570000       15.9994           0
      9941 MEMB     75       POPC     C1       CTL2    -0.800000E-01   12.0110           0
      9942 MEMB     75       POPC     HA       HAL2     0.900000E-01   1.00800           0
      9943 MEMB     75       POPC     HB       HAL2     0.900000E-01   1.00800           0
      9944 MEMB     75       POPC     C2       CTL1     0.170000       12.0110           0
      9945 MEMB     75       POPC     HS       HAL1     0.900000E-01   1.00800           0
      9946 MEMB     75       POPC     O21      OSL     -0.490000       15.9994           0
      9947 MEMB     75       POPC     C21      CL       0.900000       12.0110           0
      9948 MEMB     75       POPC     O22      OBL     -0.630000       15.9994           0
      9949 MEMB     75       POPC     C22      CTL2    -0.220000       12.0110           0
      9950 MEMB     75       POPC     H2R      HAL2     0.900000E-01   1.00800           0
      9951 MEMB     75       POPC     H2S      HAL2     0.900000E-01   1.00800           0
      9952 MEMB     75       POPC     C3       CTL2     0.800000E-01   12.0110           0
      9953 MEMB     75       POPC     HX       HAL2     0.900000E-01   1.00800           0
      9954 MEMB     75       POPC     HY       HAL2     0.900000E-01   1.00800           0
      9955 MEMB     75       POPC     O31      OSL     -0.490000       15.9994           0
      9956 MEMB     75       POPC     C31      CL       0.900000       12.0110           0
      9957 MEMB     75       POPC     O32      OBL     -0.630000       15.9994           0
      9958 MEMB     75       POPC     C32      CTL2    -0.220000       12.0110           0
      9959 MEMB     75       POPC     H2X      HAL2     0.900000E-01   1.00800           0
      9960 MEMB     75       POPC     H2Y      HAL2     0.900000E-01   1.00800           0
      9961 MEMB     75       POPC     C23      CTL2    -0.180000       12.0110           0
      9962 MEMB     75       POPC     H3R      HAL2     0.900000E-01   1.00800           0
      9963 MEMB     75       POPC     H3S      HAL2     0.900000E-01   1.00800           0
      9964 MEMB     75       POPC     C24      CTL2    -0.180000       12.0110           0
      9965 MEMB     75       POPC     H4R      HAL2     0.900000E-01   1.00800           0
      9966 MEMB     75       POPC     H4S      HAL2     0.900000E-01   1.00800           0
      9967 MEMB     75       POPC     C25      CTL2    -0.180000       12.0110           0
      9968 MEMB     75       POPC     H5R      HAL2     0.900000E-01   1.00800           0
      9969 MEMB     75       POPC     H5S      HAL2     0.900000E-01   1.00800           0
      9970 MEMB     75       POPC     C26      CTL2    -0.180000       12.0110           0
      9971 MEMB     75       POPC     H6R      HAL2     0.900000E-01   1.00800           0
      9972 MEMB     75       POPC     H6S      HAL2     0.900000E-01   1.00800           0
      9973 MEMB     75       POPC     C27      CTL2    -0.180000       12.0110           0
      9974 MEMB     75       POPC     H7R      HAL2     0.900000E-01   1.00800           0
      9975 MEMB     75       POPC     H7S      HAL2     0.900000E-01   1.00800           0
      9976 MEMB     75       POPC     C28      CTL2    -0.180000       12.0110           0
      9977 MEMB     75       POPC     H8R      HAL2     0.900000E-01   1.00800           0
      9978 MEMB     75       POPC     H8S      HAL2     0.900000E-01   1.00800           0
      9979 MEMB     75       POPC     C29      CEL1    -0.150000       12.0110           0
      9980 MEMB     75       POPC     H91      HEL1     0.150000       1.00800           0
      9981 MEMB     75       POPC     C210     CEL1    -0.150000       12.0110           0
      9982 MEMB     75       POPC     H101     HEL1     0.150000       1.00800           0
      9983 MEMB     75       POPC     C211     CTL2    -0.180000       12.0110           0
      9984 MEMB     75       POPC     H11R     HAL2     0.900000E-01   1.00800           0
      9985 MEMB     75       POPC     H11S     HAL2     0.900000E-01   1.00800           0
      9986 MEMB     75       POPC     C212     CTL2    -0.180000       12.0110           0
      9987 MEMB     75       POPC     H12R     HAL2     0.900000E-01   1.00800           0
      9988 MEMB     75       POPC     H12S     HAL2     0.900000E-01   1.00800           0
      9989 MEMB     75       POPC     C213     CTL2    -0.180000       12.0110           0
      9990 MEMB     75       POPC     H13R     HAL2     0.900000E-01   1.00800           0
      9991 MEMB     75       POPC     H13S     HAL2     0.900000E-01   1.00800           0
      9992 MEMB     75       POPC     C214     CTL2    -0.180000       12.0110           0
      9993 MEMB     75       POPC     H14R     HAL2     0.900000E-01   1.00800           0
      9994 MEMB     75       POPC     H14S     HAL2     0.900000E-01   1.00800           0
      9995 MEMB     75       POPC     C215     CTL2    -0.180000       12.0110           0
      9996 MEMB     75       POPC     H15R     HAL2     0.900000E-01   1.00800           0
      9997 MEMB     75       POPC     H15S     HAL2     0.900000E-01   1.00800           0
      9998 MEMB     75       POPC     C216     CTL2    -0.180000       12.0110           0
      9999 MEMB     75       POPC     H16R     HAL2     0.900000E-01   1.00800           0
     10000 MEMB     75       POPC     H16S     HAL2     0.900000E-01   1.00800           0
     10001 MEMB     75       POPC     C217     CTL2    -0.180000       12.0110           0
     10002 MEMB     75       POPC     H17R     HAL2     0.900000E-01   1.00800           0
     10003 MEMB     75       POPC     H17S     HAL2     0.900000E-01   1.00800           0
     10004 MEMB     75       POPC     C218     CTL3    -0.270000       12.0110           0
     10005 MEMB     75       POPC     H18R     HAL3     0.900000E-01   1.00800           0
     10006 MEMB     75       POPC     H18S     HAL3     0.900000E-01   1.00800           0
     10007 MEMB     75       POPC     H18T     HAL3     0.900000E-01   1.00800           0
     10008 MEMB     75       POPC     C33      CTL2    -0.180000       12.0110           0
     10009 MEMB     75       POPC     H3X      HAL2     0.900000E-01   1.00800           0
     10010 MEMB     75       POPC     H3Y      HAL2     0.900000E-01   1.00800           0
     10011 MEMB     75       POPC     C34      CTL2    -0.180000       12.0110           0
     10012 MEMB     75       POPC     H4X      HAL2     0.900000E-01   1.00800           0
     10013 MEMB     75       POPC     H4Y      HAL2     0.900000E-01   1.00800           0
     10014 MEMB     75       POPC     C35      CTL2    -0.180000       12.0110           0
     10015 MEMB     75       POPC     H5X      HAL2     0.900000E-01   1.00800           0
     10016 MEMB     75       POPC     H5Y      HAL2     0.900000E-01   1.00800           0
     10017 MEMB     75       POPC     C36      CTL2    -0.180000       12.0110           0
     10018 MEMB     75       POPC     H6X      HAL2     0.900000E-01   1.00800           0
     10019 MEMB     75       POPC     H6Y      HAL2     0.900000E-01   1.00800           0
     10020 MEMB     75       POPC     C37      CTL2    -0.180000       12.0110           0
     10021 MEMB     75       POPC     H7X      HAL2     0.900000E-01   1.00800           0
     10022 MEMB     75       POPC     H7Y      HAL2     0.900000E-01   1.00800           0
     10023 MEMB     75       POPC     C38      CTL2    -0.180000       12.0110           0
     10024 MEMB     75       POPC     H8X      HAL2     0.900000E-01   1.00800           0
     10025 MEMB     75       POPC     H8Y      HAL2     0.900000E-01   1.00800           0
     10026 MEMB     75       POPC     C39      CTL2    -0.180000       12.0110           0
     10027 MEMB     75       POPC     H9X      HAL2     0.900000E-01   1.00800           0
     10028 MEMB     75       POPC     H9Y      HAL2     0.900000E-01   1.00800           0
     10029 MEMB     75       POPC     C310     CTL2    -0.180000       12.0110           0
     10030 MEMB     75       POPC     H10X     HAL2     0.900000E-01   1.00800           0
     10031 MEMB     75       POPC     H10Y     HAL2     0.900000E-01   1.00800           0
     10032 MEMB     75       POPC     C311     CTL2    -0.180000       12.0110           0
     10033 MEMB     75       POPC     H11X     HAL2     0.900000E-01   1.00800           0
     10034 MEMB     75       POPC     H11Y     HAL2     0.900000E-01   1.00800           0
     10035 MEMB     75       POPC     C312     CTL2    -0.180000       12.0110           0
     10036 MEMB     75       POPC     H12X     HAL2     0.900000E-01   1.00800           0
     10037 MEMB     75       POPC     H12Y     HAL2     0.900000E-01   1.00800           0
     10038 MEMB     75       POPC     C313     CTL2    -0.180000       12.0110           0
     10039 MEMB     75       POPC     H13X     HAL2     0.900000E-01   1.00800           0
     10040 MEMB     75       POPC     H13Y     HAL2     0.900000E-01   1.00800           0
     10041 MEMB     75       POPC     C314     CTL2    -0.180000       12.0110           0
     10042 MEMB     75       POPC     H14X     HAL2     0.900000E-01   1.00800           0
     10043 MEMB     75       POPC     H14Y     HAL2     0.900000E-01   1.00800           0
     10044 MEMB     75       POPC     C315     CTL2    -0.180000       12.0110           0
     10045 MEMB     75       POPC     H15X     HAL2     0.900000E-01   1.00800           0
     10046 MEMB     75       POPC     H15Y     HAL2     0.900000E-01   1.00800           0
     10047 MEMB     75       POPC     C316     CTL3    -0.270000       12.0110           0
     10048 MEMB     75       POPC     H16X     HAL3     0.900000E-01   1.00800           0
     10049 MEMB     75       POPC     H16Y     HAL3     0.900000E-01   1.00800           0
     10050 MEMB     75       POPC     H16Z     HAL3     0.900000E-01   1.00800           0
     10051 MEMB     76       POPC     N        NTL     -0.600000       14.0070           0
     10052 MEMB     76       POPC     C12      CTL2    -0.100000       12.0110           0
     10053 MEMB     76       POPC     H12A     HL       0.250000       1.00800           0
     10054 MEMB     76       POPC     H12B     HL       0.250000       1.00800           0
     10055 MEMB     76       POPC     C13      CTL5    -0.350000       12.0110           0
     10056 MEMB     76       POPC     H13A     HL       0.250000       1.00800           0
     10057 MEMB     76       POPC     H13B     HL       0.250000       1.00800           0
     10058 MEMB     76       POPC     H13C     HL       0.250000       1.00800           0
     10059 MEMB     76       POPC     C14      CTL5    -0.350000       12.0110           0
     10060 MEMB     76       POPC     H14A     HL       0.250000       1.00800           0
     10061 MEMB     76       POPC     H14B     HL       0.250000       1.00800           0
     10062 MEMB     76       POPC     H14C     HL       0.250000       1.00800           0
     10063 MEMB     76       POPC     C15      CTL5    -0.350000       12.0110           0
     10064 MEMB     76       POPC     H15A     HL       0.250000       1.00800           0
     10065 MEMB     76       POPC     H15B     HL       0.250000       1.00800           0
     10066 MEMB     76       POPC     H15C     HL       0.250000       1.00800           0
     10067 MEMB     76       POPC     C11      CTL2    -0.800000E-01   12.0110           0
     10068 MEMB     76       POPC     H11A     HAL2     0.900000E-01   1.00800           0
     10069 MEMB     76       POPC     H11B     HAL2     0.900000E-01   1.00800           0
     10070 MEMB     76       POPC     P        PL       1.50000        30.9740           0
     10071 MEMB     76       POPC     O13      O2L     -0.780000       15.9994           0
     10072 MEMB     76       POPC     O14      O2L     -0.780000       15.9994           0
     10073 MEMB     76       POPC     O12      OSLP    -0.570000       15.9994           0
     10074 MEMB     76       POPC     O11      OSLP    -0.570000       15.9994           0
     10075 MEMB     76       POPC     C1       CTL2    -0.800000E-01   12.0110           0
     10076 MEMB     76       POPC     HA       HAL2     0.900000E-01   1.00800           0
     10077 MEMB     76       POPC     HB       HAL2     0.900000E-01   1.00800           0
     10078 MEMB     76       POPC     C2       CTL1     0.170000       12.0110           0
     10079 MEMB     76       POPC     HS       HAL1     0.900000E-01   1.00800           0
     10080 MEMB     76       POPC     O21      OSL     -0.490000       15.9994           0
     10081 MEMB     76       POPC     C21      CL       0.900000       12.0110           0
     10082 MEMB     76       POPC     O22      OBL     -0.630000       15.9994           0
     10083 MEMB     76       POPC     C22      CTL2    -0.220000       12.0110           0
     10084 MEMB     76       POPC     H2R      HAL2     0.900000E-01   1.00800           0
     10085 MEMB     76       POPC     H2S      HAL2     0.900000E-01   1.00800           0
     10086 MEMB     76       POPC     C3       CTL2     0.800000E-01   12.0110           0
     10087 MEMB     76       POPC     HX       HAL2     0.900000E-01   1.00800           0
     10088 MEMB     76       POPC     HY       HAL2     0.900000E-01   1.00800           0
     10089 MEMB     76       POPC     O31      OSL     -0.490000       15.9994           0
     10090 MEMB     76       POPC     C31      CL       0.900000       12.0110           0
     10091 MEMB     76       POPC     O32      OBL     -0.630000       15.9994           0
     10092 MEMB     76       POPC     C32      CTL2    -0.220000       12.0110           0
     10093 MEMB     76       POPC     H2X      HAL2     0.900000E-01   1.00800           0
     10094 MEMB     76       POPC     H2Y      HAL2     0.900000E-01   1.00800           0
     10095 MEMB     76       POPC     C23      CTL2    -0.180000       12.0110           0
     10096 MEMB     76       POPC     H3R      HAL2     0.900000E-01   1.00800           0
     10097 MEMB     76       POPC     H3S      HAL2     0.900000E-01   1.00800           0
     10098 MEMB     76       POPC     C24      CTL2    -0.180000       12.0110           0
     10099 MEMB     76       POPC     H4R      HAL2     0.900000E-01   1.00800           0
     10100 MEMB     76       POPC     H4S      HAL2     0.900000E-01   1.00800           0
     10101 MEMB     76       POPC     C25      CTL2    -0.180000       12.0110           0
     10102 MEMB     76       POPC     H5R      HAL2     0.900000E-01   1.00800           0
     10103 MEMB     76       POPC     H5S      HAL2     0.900000E-01   1.00800           0
     10104 MEMB     76       POPC     C26      CTL2    -0.180000       12.0110           0
     10105 MEMB     76       POPC     H6R      HAL2     0.900000E-01   1.00800           0
     10106 MEMB     76       POPC     H6S      HAL2     0.900000E-01   1.00800           0
     10107 MEMB     76       POPC     C27      CTL2    -0.180000       12.0110           0
     10108 MEMB     76       POPC     H7R      HAL2     0.900000E-01   1.00800           0
     10109 MEMB     76       POPC     H7S      HAL2     0.900000E-01   1.00800           0
     10110 MEMB     76       POPC     C28      CTL2    -0.180000       12.0110           0
     10111 MEMB     76       POPC     H8R      HAL2     0.900000E-01   1.00800           0
     10112 MEMB     76       POPC     H8S      HAL2     0.900000E-01   1.00800           0
     10113 MEMB     76       POPC     C29      CEL1    -0.150000       12.0110           0
     10114 MEMB     76       POPC     H91      HEL1     0.150000       1.00800           0
     10115 MEMB     76       POPC     C210     CEL1    -0.150000       12.0110           0
     10116 MEMB     76       POPC     H101     HEL1     0.150000       1.00800           0
     10117 MEMB     76       POPC     C211     CTL2    -0.180000       12.0110           0
     10118 MEMB     76       POPC     H11R     HAL2     0.900000E-01   1.00800           0
     10119 MEMB     76       POPC     H11S     HAL2     0.900000E-01   1.00800           0
     10120 MEMB     76       POPC     C212     CTL2    -0.180000       12.0110           0
     10121 MEMB     76       POPC     H12R     HAL2     0.900000E-01   1.00800           0
     10122 MEMB     76       POPC     H12S     HAL2     0.900000E-01   1.00800           0
     10123 MEMB     76       POPC     C213     CTL2    -0.180000       12.0110           0
     10124 MEMB     76       POPC     H13R     HAL2     0.900000E-01   1.00800           0
     10125 MEMB     76       POPC     H13S     HAL2     0.900000E-01   1.00800           0
     10126 MEMB     76       POPC     C214     CTL2    -0.180000       12.0110           0
     10127 MEMB     76       POPC     H14R     HAL2     0.900000E-01   1.00800           0
     10128 MEMB     76       POPC     H14S     HAL2     0.900000E-01   1.00800           0
     10129 MEMB     76       POPC     C215     CTL2    -0.180000       12.0110           0
     10130 MEMB     76       POPC     H15R     HAL2     0.900000E-01   1.00800           0
     10131 MEMB     76       POPC     H15S     HAL2     0.900000E-01   1.00800           0
     10132 MEMB     76       POPC     C216     CTL2    -0.180000       12.0110           0
     10133 MEMB     76       POPC     H16R     HAL2     0.900000E-01   1.00800           0
     10134 MEMB     76       POPC     H16S     HAL2     0.900000E-01   1.00800           0
     10135 MEMB     76       POPC     C217     CTL2    -0.180000       12.0110           0
     10136 MEMB     76       POPC     H17R     HAL2     0.900000E-01   1.00800           0
     10137 MEMB     76       POPC     H17S     HAL2     0.900000E-01   1.00800           0
     10138 MEMB     76       POPC     C218     CTL3    -0.270000       12.0110           0
     10139 MEMB     76       POPC     H18R     HAL3     0.900000E-01   1.00800           0
     10140 MEMB     76       POPC     H18S     HAL3     0.900000E-01   1.00800           0
     10141 MEMB     76       POPC     H18T     HAL3     0.900000E-01   1.00800           0
     10142 MEMB     76       POPC     C33      CTL2    -0.180000       12.0110           0
     10143 MEMB     76       POPC     H3X      HAL2     0.900000E-01   1.00800           0
     10144 MEMB     76       POPC     H3Y      HAL2     0.900000E-01   1.00800           0
     10145 MEMB     76       POPC     C34      CTL2    -0.180000       12.0110           0
     10146 MEMB     76       POPC     H4X      HAL2     0.900000E-01   1.00800           0
     10147 MEMB     76       POPC     H4Y      HAL2     0.900000E-01   1.00800           0
     10148 MEMB     76       POPC     C35      CTL2    -0.180000       12.0110           0
     10149 MEMB     76       POPC     H5X      HAL2     0.900000E-01   1.00800           0
     10150 MEMB     76       POPC     H5Y      HAL2     0.900000E-01   1.00800           0
     10151 MEMB     76       POPC     C36      CTL2    -0.180000       12.0110           0
     10152 MEMB     76       POPC     H6X      HAL2     0.900000E-01   1.00800           0
     10153 MEMB     76       POPC     H6Y      HAL2     0.900000E-01   1.00800           0
     10154 MEMB     76       POPC     C37      CTL2    -0.180000       12.0110           0
     10155 MEMB     76       POPC     H7X      HAL2     0.900000E-01   1.00800           0
     10156 MEMB     76       POPC     H7Y      HAL2     0.900000E-01   1.00800           0
     10157 MEMB     76       POPC     C38      CTL2    -0.180000       12.0110           0
     10158 MEMB     76       POPC     H8X      HAL2     0.900000E-01   1.00800           0
     10159 MEMB     76       POPC     H8Y      HAL2     0.900000E-01   1.00800           0
     10160 MEMB     76       POPC     C39      CTL2    -0.180000       12.0110           0
     10161 MEMB     76       POPC     H9X      HAL2     0.900000E-01   1.00800           0
     10162 MEMB     76       POPC     H9Y      HAL2     0.900000E-01   1.00800           0
     10163 MEMB     76       POPC     C310     CTL2    -0.180000       12.0110           0
     10164 MEMB     76       POPC     H10X     HAL2     0.900000E-01   1.00800           0
     10165 MEMB     76       POPC     H10Y     HAL2     0.900000E-01   1.00800           0
     10166 MEMB     76       POPC     C311     CTL2    -0.180000       12.0110           0
     10167 MEMB     76       POPC     H11X     HAL2     0.900000E-01   1.00800           0
     10168 MEMB     76       POPC     H11Y     HAL2     0.900000E-01   1.00800           0
     10169 MEMB     76       POPC     C312     CTL2    -0.180000       12.0110           0
     10170 MEMB     76       POPC     H12X     HAL2     0.900000E-01   1.00800           0
     10171 MEMB     76       POPC     H12Y     HAL2     0.900000E-01   1.00800           0
     10172 MEMB     76       POPC     C313     CTL2    -0.180000       12.0110           0
     10173 MEMB     76       POPC     H13X     HAL2     0.900000E-01   1.00800           0
     10174 MEMB     76       POPC     H13Y     HAL2     0.900000E-01   1.00800           0
     10175 MEMB     76       POPC     C314     CTL2    -0.180000       12.0110           0
     10176 MEMB     76       POPC     H14X     HAL2     0.900000E-01   1.00800           0
     10177 MEMB     76       POPC     H14Y     HAL2     0.900000E-01   1.00800           0
     10178 MEMB     76       POPC     C315     CTL2    -0.180000       12.0110           0
     10179 MEMB     76       POPC     H15X     HAL2     0.900000E-01   1.00800           0
     10180 MEMB     76       POPC     H15Y     HAL2     0.900000E-01   1.00800           0
     10181 MEMB     76       POPC     C316     CTL3    -0.270000       12.0110           0
     10182 MEMB     76       POPC     H16X     HAL3     0.900000E-01   1.00800           0
     10183 MEMB     76       POPC     H16Y     HAL3     0.900000E-01   1.00800           0
     10184 MEMB     76       POPC     H16Z     HAL3     0.900000E-01   1.00800           0
     10185 MEMB     77       POPC     N        NTL     -0.600000       14.0070           0
     10186 MEMB     77       POPC     C12      CTL2    -0.100000       12.0110           0
     10187 MEMB     77       POPC     H12A     HL       0.250000       1.00800           0
     10188 MEMB     77       POPC     H12B     HL       0.250000       1.00800           0
     10189 MEMB     77       POPC     C13      CTL5    -0.350000       12.0110           0
     10190 MEMB     77       POPC     H13A     HL       0.250000       1.00800           0
     10191 MEMB     77       POPC     H13B     HL       0.250000       1.00800           0
     10192 MEMB     77       POPC     H13C     HL       0.250000       1.00800           0
     10193 MEMB     77       POPC     C14      CTL5    -0.350000       12.0110           0
     10194 MEMB     77       POPC     H14A     HL       0.250000       1.00800           0
     10195 MEMB     77       POPC     H14B     HL       0.250000       1.00800           0
     10196 MEMB     77       POPC     H14C     HL       0.250000       1.00800           0
     10197 MEMB     77       POPC     C15      CTL5    -0.350000       12.0110           0
     10198 MEMB     77       POPC     H15A     HL       0.250000       1.00800           0
     10199 MEMB     77       POPC     H15B     HL       0.250000       1.00800           0
     10200 MEMB     77       POPC     H15C     HL       0.250000       1.00800           0
     10201 MEMB     77       POPC     C11      CTL2    -0.800000E-01   12.0110           0
     10202 MEMB     77       POPC     H11A     HAL2     0.900000E-01   1.00800           0
     10203 MEMB     77       POPC     H11B     HAL2     0.900000E-01   1.00800           0
     10204 MEMB     77       POPC     P        PL       1.50000        30.9740           0
     10205 MEMB     77       POPC     O13      O2L     -0.780000       15.9994           0
     10206 MEMB     77       POPC     O14      O2L     -0.780000       15.9994           0
     10207 MEMB     77       POPC     O12      OSLP    -0.570000       15.9994           0
     10208 MEMB     77       POPC     O11      OSLP    -0.570000       15.9994           0
     10209 MEMB     77       POPC     C1       CTL2    -0.800000E-01   12.0110           0
     10210 MEMB     77       POPC     HA       HAL2     0.900000E-01   1.00800           0
     10211 MEMB     77       POPC     HB       HAL2     0.900000E-01   1.00800           0
     10212 MEMB     77       POPC     C2       CTL1     0.170000       12.0110           0
     10213 MEMB     77       POPC     HS       HAL1     0.900000E-01   1.00800           0
     10214 MEMB     77       POPC     O21      OSL     -0.490000       15.9994           0
     10215 MEMB     77       POPC     C21      CL       0.900000       12.0110           0
     10216 MEMB     77       POPC     O22      OBL     -0.630000       15.9994           0
     10217 MEMB     77       POPC     C22      CTL2    -0.220000       12.0110           0
     10218 MEMB     77       POPC     H2R      HAL2     0.900000E-01   1.00800           0
     10219 MEMB     77       POPC     H2S      HAL2     0.900000E-01   1.00800           0
     10220 MEMB     77       POPC     C3       CTL2     0.800000E-01   12.0110           0
     10221 MEMB     77       POPC     HX       HAL2     0.900000E-01   1.00800           0
     10222 MEMB     77       POPC     HY       HAL2     0.900000E-01   1.00800           0
     10223 MEMB     77       POPC     O31      OSL     -0.490000       15.9994           0
     10224 MEMB     77       POPC     C31      CL       0.900000       12.0110           0
     10225 MEMB     77       POPC     O32      OBL     -0.630000       15.9994           0
     10226 MEMB     77       POPC     C32      CTL2    -0.220000       12.0110           0
     10227 MEMB     77       POPC     H2X      HAL2     0.900000E-01   1.00800           0
     10228 MEMB     77       POPC     H2Y      HAL2     0.900000E-01   1.00800           0
     10229 MEMB     77       POPC     C23      CTL2    -0.180000       12.0110           0
     10230 MEMB     77       POPC     H3R      HAL2     0.900000E-01   1.00800           0
     10231 MEMB     77       POPC     H3S      HAL2     0.900000E-01   1.00800           0
     10232 MEMB     77       POPC     C24      CTL2    -0.180000       12.0110           0
     10233 MEMB     77       POPC     H4R      HAL2     0.900000E-01   1.00800           0
     10234 MEMB     77       POPC     H4S      HAL2     0.900000E-01   1.00800           0
     10235 MEMB     77       POPC     C25      CTL2    -0.180000       12.0110           0
     10236 MEMB     77       POPC     H5R      HAL2     0.900000E-01   1.00800           0
     10237 MEMB     77       POPC     H5S      HAL2     0.900000E-01   1.00800           0
     10238 MEMB     77       POPC     C26      CTL2    -0.180000       12.0110           0
     10239 MEMB     77       POPC     H6R      HAL2     0.900000E-01   1.00800           0
     10240 MEMB     77       POPC     H6S      HAL2     0.900000E-01   1.00800           0
     10241 MEMB     77       POPC     C27      CTL2    -0.180000       12.0110           0
     10242 MEMB     77       POPC     H7R      HAL2     0.900000E-01   1.00800           0
     10243 MEMB     77       POPC     H7S      HAL2     0.900000E-01   1.00800           0
     10244 MEMB     77       POPC     C28      CTL2    -0.180000       12.0110           0
     10245 MEMB     77       POPC     H8R      HAL2     0.900000E-01   1.00800           0
     10246 MEMB     77       POPC     H8S      HAL2     0.900000E-01   1.00800           0
     10247 MEMB     77       POPC     C29      CEL1    -0.150000       12.0110           0
     10248 MEMB     77       POPC     H91      HEL1     0.150000       1.00800           0
     10249 MEMB     77       POPC     C210     CEL1    -0.150000       12.0110           0
     10250 MEMB     77       POPC     H101     HEL1     0.150000       1.00800           0
     10251 MEMB     77       POPC     C211     CTL2    -0.180000       12.0110           0
     10252 MEMB     77       POPC     H11R     HAL2     0.900000E-01   1.00800           0
     10253 MEMB     77       POPC     H11S     HAL2     0.900000E-01   1.00800           0
     10254 MEMB     77       POPC     C212     CTL2    -0.180000       12.0110           0
     10255 MEMB     77       POPC     H12R     HAL2     0.900000E-01   1.00800           0
     10256 MEMB     77       POPC     H12S     HAL2     0.900000E-01   1.00800           0
     10257 MEMB     77       POPC     C213     CTL2    -0.180000       12.0110           0
     10258 MEMB     77       POPC     H13R     HAL2     0.900000E-01   1.00800           0
     10259 MEMB     77       POPC     H13S     HAL2     0.900000E-01   1.00800           0
     10260 MEMB     77       POPC     C214     CTL2    -0.180000       12.0110           0
     10261 MEMB     77       POPC     H14R     HAL2     0.900000E-01   1.00800           0
     10262 MEMB     77       POPC     H14S     HAL2     0.900000E-01   1.00800           0
     10263 MEMB     77       POPC     C215     CTL2    -0.180000       12.0110           0
     10264 MEMB     77       POPC     H15R     HAL2     0.900000E-01   1.00800           0
     10265 MEMB     77       POPC     H15S     HAL2     0.900000E-01   1.00800           0
     10266 MEMB     77       POPC     C216     CTL2    -0.180000       12.0110           0
     10267 MEMB     77       POPC     H16R     HAL2     0.900000E-01   1.00800           0
     10268 MEMB     77       POPC     H16S     HAL2     0.900000E-01   1.00800           0
     10269 MEMB     77       POPC     C217     CTL2    -0.180000       12.0110           0
     10270 MEMB     77       POPC     H17R     HAL2     0.900000E-01   1.00800           0
     10271 MEMB     77       POPC     H17S     HAL2     0.900000E-01   1.00800           0
     10272 MEMB     77       POPC     C218     CTL3    -0.270000       12.0110           0
     10273 MEMB     77       POPC     H18R     HAL3     0.900000E-01   1.00800           0
     10274 MEMB     77       POPC     H18S     HAL3     0.900000E-01   1.00800           0
     10275 MEMB     77       POPC     H18T     HAL3     0.900000E-01   1.00800           0
     10276 MEMB     77       POPC     C33      CTL2    -0.180000       12.0110           0
     10277 MEMB     77       POPC     H3X      HAL2     0.900000E-01   1.00800           0
     10278 MEMB     77       POPC     H3Y      HAL2     0.900000E-01   1.00800           0
     10279 MEMB     77       POPC     C34      CTL2    -0.180000       12.0110           0
     10280 MEMB     77       POPC     H4X      HAL2     0.900000E-01   1.00800           0
     10281 MEMB     77       POPC     H4Y      HAL2     0.900000E-01   1.00800           0
     10282 MEMB     77       POPC     C35      CTL2    -0.180000       12.0110           0
     10283 MEMB     77       POPC     H5X      HAL2     0.900000E-01   1.00800           0
     10284 MEMB     77       POPC     H5Y      HAL2     0.900000E-01   1.00800           0
     10285 MEMB     77       POPC     C36      CTL2    -0.180000       12.0110           0
     10286 MEMB     77       POPC     H6X      HAL2     0.900000E-01   1.00800           0
     10287 MEMB     77       POPC     H6Y      HAL2     0.900000E-01   1.00800           0
     10288 MEMB     77       POPC     C37      CTL2    -0.180000       12.0110           0
     10289 MEMB     77       POPC     H7X      HAL2     0.900000E-01   1.00800           0
     10290 MEMB     77       POPC     H7Y      HAL2     0.900000E-01   1.00800           0
     10291 MEMB     77       POPC     C38      CTL2    -0.180000       12.0110           0
     10292 MEMB     77       POPC     H8X      HAL2     0.900000E-01   1.00800           0
     10293 MEMB     77       POPC     H8Y      HAL2     0.900000E-01   1.00800           0
     10294 MEMB     77       POPC     C39      CTL2    -0.180000       12.0110           0
     10295 MEMB     77       POPC     H9X      HAL2     0.900000E-01   1.00800           0
     10296 MEMB     77       POPC     H9Y      HAL2     0.900000E-01   1.00800           0
     10297 MEMB     77       POPC     C310     CTL2    -0.180000       12.0110           0
     10298 MEMB     77       POPC     H10X     HAL2     0.900000E-01   1.00800           0
     10299 MEMB     77       POPC     H10Y     HAL2     0.900000E-01   1.00800           0
     10300 MEMB     77       POPC     C311     CTL2    -0.180000       12.0110           0
     10301 MEMB     77       POPC     H11X     HAL2     0.900000E-01   1.00800           0
     10302 MEMB     77       POPC     H11Y     HAL2     0.900000E-01   1.00800           0
     10303 MEMB     77       POPC     C312     CTL2    -0.180000       12.0110           0
     10304 MEMB     77       POPC     H12X     HAL2     0.900000E-01   1.00800           0
     10305 MEMB     77       POPC     H12Y     HAL2     0.900000E-01   1.00800           0
     10306 MEMB     77       POPC     C313     CTL2    -0.180000       12.0110           0
     10307 MEMB     77       POPC     H13X     HAL2     0.900000E-01   1.00800           0
     10308 MEMB     77       POPC     H13Y     HAL2     0.900000E-01   1.00800           0
     10309 MEMB     77       POPC     C314     CTL2    -0.180000       12.0110           0
     10310 MEMB     77       POPC     H14X     HAL2     0.900000E-01   1.00800           0
     10311 MEMB     77       POPC     H14Y     HAL2     0.900000E-01   1.00800           0
     10312 MEMB     77       POPC     C315     CTL2    -0.180000       12.0110           0
     10313 MEMB     77       POPC     H15X     HAL2     0.900000E-01   1.00800           0
     10314 MEMB     77       POPC     H15Y     HAL2     0.900000E-01   1.00800           0
     10315 MEMB     77       POPC     C316     CTL3    -0.270000       12.0110           0
     10316 MEMB     77       POPC     H16X     HAL3     0.900000E-01   1.00800           0
     10317 MEMB     77       POPC     H16Y     HAL3     0.900000E-01   1.00800           0
     10318 MEMB     77       POPC     H16Z     HAL3     0.900000E-01   1.00800           0
     10319 MEMB     78       POPC     N        NTL     -0.600000       14.0070           0
     10320 MEMB     78       POPC     C12      CTL2    -0.100000       12.0110           0
     10321 MEMB     78       POPC     H12A     HL       0.250000       1.00800           0
     10322 MEMB     78       POPC     H12B     HL       0.250000       1.00800           0
     10323 MEMB     78       POPC     C13      CTL5    -0.350000       12.0110           0
     10324 MEMB     78       POPC     H13A     HL       0.250000       1.00800           0
     10325 MEMB     78       POPC     H13B     HL       0.250000       1.00800           0
     10326 MEMB     78       POPC     H13C     HL       0.250000       1.00800           0
     10327 MEMB     78       POPC     C14      CTL5    -0.350000       12.0110           0
     10328 MEMB     78       POPC     H14A     HL       0.250000       1.00800           0
     10329 MEMB     78       POPC     H14B     HL       0.250000       1.00800           0
     10330 MEMB     78       POPC     H14C     HL       0.250000       1.00800           0
     10331 MEMB     78       POPC     C15      CTL5    -0.350000       12.0110           0
     10332 MEMB     78       POPC     H15A     HL       0.250000       1.00800           0
     10333 MEMB     78       POPC     H15B     HL       0.250000       1.00800           0
     10334 MEMB     78       POPC     H15C     HL       0.250000       1.00800           0
     10335 MEMB     78       POPC     C11      CTL2    -0.800000E-01   12.0110           0
     10336 MEMB     78       POPC     H11A     HAL2     0.900000E-01   1.00800           0
     10337 MEMB     78       POPC     H11B     HAL2     0.900000E-01   1.00800           0
     10338 MEMB     78       POPC     P        PL       1.50000        30.9740           0
     10339 MEMB     78       POPC     O13      O2L     -0.780000       15.9994           0
     10340 MEMB     78       POPC     O14      O2L     -0.780000       15.9994           0
     10341 MEMB     78       POPC     O12      OSLP    -0.570000       15.9994           0
     10342 MEMB     78       POPC     O11      OSLP    -0.570000       15.9994           0
     10343 MEMB     78       POPC     C1       CTL2    -0.800000E-01   12.0110           0
     10344 MEMB     78       POPC     HA       HAL2     0.900000E-01   1.00800           0
     10345 MEMB     78       POPC     HB       HAL2     0.900000E-01   1.00800           0
     10346 MEMB     78       POPC     C2       CTL1     0.170000       12.0110           0
     10347 MEMB     78       POPC     HS       HAL1     0.900000E-01   1.00800           0
     10348 MEMB     78       POPC     O21      OSL     -0.490000       15.9994           0
     10349 MEMB     78       POPC     C21      CL       0.900000       12.0110           0
     10350 MEMB     78       POPC     O22      OBL     -0.630000       15.9994           0
     10351 MEMB     78       POPC     C22      CTL2    -0.220000       12.0110           0
     10352 MEMB     78       POPC     H2R      HAL2     0.900000E-01   1.00800           0
     10353 MEMB     78       POPC     H2S      HAL2     0.900000E-01   1.00800           0
     10354 MEMB     78       POPC     C3       CTL2     0.800000E-01   12.0110           0
     10355 MEMB     78       POPC     HX       HAL2     0.900000E-01   1.00800           0
     10356 MEMB     78       POPC     HY       HAL2     0.900000E-01   1.00800           0
     10357 MEMB     78       POPC     O31      OSL     -0.490000       15.9994           0
     10358 MEMB     78       POPC     C31      CL       0.900000       12.0110           0
     10359 MEMB     78       POPC     O32      OBL     -0.630000       15.9994           0
     10360 MEMB     78       POPC     C32      CTL2    -0.220000       12.0110           0
     10361 MEMB     78       POPC     H2X      HAL2     0.900000E-01   1.00800           0
     10362 MEMB     78       POPC     H2Y      HAL2     0.900000E-01   1.00800           0
     10363 MEMB     78       POPC     C23      CTL2    -0.180000       12.0110           0
     10364 MEMB     78       POPC     H3R      HAL2     0.900000E-01   1.00800           0
     10365 MEMB     78       POPC     H3S      HAL2     0.900000E-01   1.00800           0
     10366 MEMB     78       POPC     C24      CTL2    -0.180000       12.0110           0
     10367 MEMB     78       POPC     H4R      HAL2     0.900000E-01   1.00800           0
     10368 MEMB     78       POPC     H4S      HAL2     0.900000E-01   1.00800           0
     10369 MEMB     78       POPC     C25      CTL2    -0.180000       12.0110           0
     10370 MEMB     78       POPC     H5R      HAL2     0.900000E-01   1.00800           0
     10371 MEMB     78       POPC     H5S      HAL2     0.900000E-01   1.00800           0
     10372 MEMB     78       POPC     C26      CTL2    -0.180000       12.0110           0
     10373 MEMB     78       POPC     H6R      HAL2     0.900000E-01   1.00800           0
     10374 MEMB     78       POPC     H6S      HAL2     0.900000E-01   1.00800           0
     10375 MEMB     78       POPC     C27      CTL2    -0.180000       12.0110           0
     10376 MEMB     78       POPC     H7R      HAL2     0.900000E-01   1.00800           0
     10377 MEMB     78       POPC     H7S      HAL2     0.900000E-01   1.00800           0
     10378 MEMB     78       POPC     C28      CTL2    -0.180000       12.0110           0
     10379 MEMB     78       POPC     H8R      HAL2     0.900000E-01   1.00800           0
     10380 MEMB     78       POPC     H8S      HAL2     0.900000E-01   1.00800           0
     10381 MEMB     78       POPC     C29      CEL1    -0.150000       12.0110           0
     10382 MEMB     78       POPC     H91      HEL1     0.150000       1.00800           0
     10383 MEMB     78       POPC     C210     CEL1    -0.150000       12.0110           0
     10384 MEMB     78       POPC     H101     HEL1     0.150000       1.00800           0
     10385 MEMB     78       POPC     C211     CTL2    -0.180000       12.0110           0
     10386 MEMB     78       POPC     H11R     HAL2     0.900000E-01   1.00800           0
     10387 MEMB     78       POPC     H11S     HAL2     0.900000E-01   1.00800           0
     10388 MEMB     78       POPC     C212     CTL2    -0.180000       12.0110           0
     10389 MEMB     78       POPC     H12R     HAL2     0.900000E-01   1.00800           0
     10390 MEMB     78       POPC     H12S     HAL2     0.900000E-01   1.00800           0
     10391 MEMB     78       POPC     C213     CTL2    -0.180000       12.0110           0
     10392 MEMB     78       POPC     H13R     HAL2     0.900000E-01   1.00800           0
     10393 MEMB     78       POPC     H13S     HAL2     0.900000E-01   1.00800           0
     10394 MEMB     78       POPC     C214     CTL2    -0.180000       12.0110           0
     10395 MEMB     78       POPC     H14R     HAL2     0.900000E-01   1.00800           0
     10396 MEMB     78       POPC     H14S     HAL2     0.900000E-01   1.00800           0
     10397 MEMB     78       POPC     C215     CTL2    -0.180000       12.0110           0
     10398 MEMB     78       POPC     H15R     HAL2     0.900000E-01   1.00800           0
     10399 MEMB     78       POPC     H15S     HAL2     0.900000E-01   1.00800           0
     10400 MEMB     78       POPC     C216     CTL2    -0.180000       12.0110           0
     10401 MEMB     78       POPC     H16R     HAL2     0.900000E-01   1.00800           0
     10402 MEMB     78       POPC     H16S     HAL2     0.900000E-01   1.00800           0
     10403 MEMB     78       POPC     C217     CTL2    -0.180000       12.0110           0
     10404 MEMB     78       POPC     H17R     HAL2     0.900000E-01   1.00800           0
     10405 MEMB     78       POPC     H17S     HAL2     0.900000E-01   1.00800           0
     10406 MEMB     78       POPC     C218     CTL3    -0.270000       12.0110           0
     10407 MEMB     78       POPC     H18R     HAL3     0.900000E-01   1.00800           0
     10408 MEMB     78       POPC     H18S     HAL3     0.900000E-01   1.00800           0
     10409 MEMB     78       POPC     H18T     HAL3     0.900000E-01   1.00800           0
     10410 MEMB     78       POPC     C33      CTL2    -0.180000       12.0110           0
     10411 MEMB     78       POPC     H3X      HAL2     0.900000E-01   1.00800           0
     10412 MEMB     78       POPC     H3Y      HAL2     0.900000E-01   1.00800           0
     10413 MEMB     78       POPC     C34      CTL2    -0.180000       12.0110           0
     10414 MEMB     78       POPC     H4X      HAL2     0.900000E-01   1.00800           0
     10415 MEMB     78       POPC     H4Y      HAL2     0.900000E-01   1.00800           0
     10416 MEMB     78       POPC     C35      CTL2    -0.180000       12.0110           0
     10417 MEMB     78       POPC     H5X      HAL2     0.900000E-01   1.00800           0
     10418 MEMB     78       POPC     H5Y      HAL2     0.900000E-01   1.00800           0
     10419 MEMB     78       POPC     C36      CTL2    -0.180000       12.0110           0
     10420 MEMB     78       POPC     H6X      HAL2     0.900000E-01   1.00800           0
     10421 MEMB     78       POPC     H6Y      HAL2     0.900000E-01   1.00800           0
     10422 MEMB     78       POPC     C37      CTL2    -0.180000       12.0110           0
     10423 MEMB     78       POPC     H7X      HAL2     0.900000E-01   1.00800           0
     10424 MEMB     78       POPC     H7Y      HAL2     0.900000E-01   1.00800           0
     10425 MEMB     78       POPC     C38      CTL2    -0.180000       12.0110           0
     10426 MEMB     78       POPC     H8X      HAL2     0.900000E-01   1.00800           0
     10427 MEMB     78       POPC     H8Y      HAL2     0.900000E-01   1.00800           0
     10428 MEMB     78       POPC     C39      CTL2    -0.180000       12.0110           0
     10429 MEMB     78       POPC     H9X      HAL2     0.900000E-01   1.00800           0
     10430 MEMB     78       POPC     H9Y      HAL2     0.900000E-01   1.00800           0
     10431 MEMB     78       POPC     C310     CTL2    -0.180000       12.0110           0
     10432 MEMB     78       POPC     H10X     HAL2     0.900000E-01   1.00800           0
     10433 MEMB     78       POPC     H10Y     HAL2     0.900000E-01   1.00800           0
     10434 MEMB     78       POPC     C311     CTL2    -0.180000       12.0110           0
     10435 MEMB     78       POPC     H11X     HAL2     0.900000E-01   1.00800           0
     10436 MEMB     78       POPC     H11Y     HAL2     0.900000E-01   1.00800           0
     10437 MEMB     78       POPC     C312     CTL2    -0.180000       12.0110           0
     10438 MEMB     78       POPC     H12X     HAL2     0.900000E-01   1.00800           0
     10439 MEMB     78       POPC     H12Y     HAL2     0.900000E-01   1.00800           0
     10440 MEMB     78       POPC     C313     CTL2    -0.180000       12.0110           0
     10441 MEMB     78       POPC     H13X     HAL2     0.900000E-01   1.00800           0
     10442 MEMB     78       POPC     H13Y     HAL2     0.900000E-01   1.00800           0
     10443 MEMB     78       POPC     C314     CTL2    -0.180000       12.0110           0
     10444 MEMB     78       POPC     H14X     HAL2     0.900000E-01   1.00800           0
     10445 MEMB     78       POPC     H14Y     HAL2     0.900000E-01   1.00800           0
     10446 MEMB     78       POPC     C315     CTL2    -0.180000       12.0110           0
     10447 MEMB     78       POPC     H15X     HAL2     0.900000E-01   1.00800           0
     10448 MEMB     78       POPC     H15Y     HAL2     0.900000E-01   1.00800           0
     10449 MEMB     78       POPC     C316     CTL3    -0.270000       12.0110           0
     10450 MEMB     78       POPC     H16X     HAL3     0.900000E-01   1.00800           0
     10451 MEMB     78       POPC     H16Y     HAL3     0.900000E-01   1.00800           0
     10452 MEMB     78       POPC     H16Z     HAL3     0.900000E-01   1.00800           0
     10453 MEMB     79       POPC     N        NTL     -0.600000       14.0070           0
     10454 MEMB     79       POPC     C12      CTL2    -0.100000       12.0110           0
     10455 MEMB     79       POPC     H12A     HL       0.250000       1.00800           0
     10456 MEMB     79       POPC     H12B     HL       0.250000       1.00800           0
     10457 MEMB     79       POPC     C13      CTL5    -0.350000       12.0110           0
     10458 MEMB     79       POPC     H13A     HL       0.250000       1.00800           0
     10459 MEMB     79       POPC     H13B     HL       0.250000       1.00800           0
     10460 MEMB     79       POPC     H13C     HL       0.250000       1.00800           0
     10461 MEMB     79       POPC     C14      CTL5    -0.350000       12.0110           0
     10462 MEMB     79       POPC     H14A     HL       0.250000       1.00800           0
     10463 MEMB     79       POPC     H14B     HL       0.250000       1.00800           0
     10464 MEMB     79       POPC     H14C     HL       0.250000       1.00800           0
     10465 MEMB     79       POPC     C15      CTL5    -0.350000       12.0110           0
     10466 MEMB     79       POPC     H15A     HL       0.250000       1.00800           0
     10467 MEMB     79       POPC     H15B     HL       0.250000       1.00800           0
     10468 MEMB     79       POPC     H15C     HL       0.250000       1.00800           0
     10469 MEMB     79       POPC     C11      CTL2    -0.800000E-01   12.0110           0
     10470 MEMB     79       POPC     H11A     HAL2     0.900000E-01   1.00800           0
     10471 MEMB     79       POPC     H11B     HAL2     0.900000E-01   1.00800           0
     10472 MEMB     79       POPC     P        PL       1.50000        30.9740           0
     10473 MEMB     79       POPC     O13      O2L     -0.780000       15.9994           0
     10474 MEMB     79       POPC     O14      O2L     -0.780000       15.9994           0
     10475 MEMB     79       POPC     O12      OSLP    -0.570000       15.9994           0
     10476 MEMB     79       POPC     O11      OSLP    -0.570000       15.9994           0
     10477 MEMB     79       POPC     C1       CTL2    -0.800000E-01   12.0110           0
     10478 MEMB     79       POPC     HA       HAL2     0.900000E-01   1.00800           0
     10479 MEMB     79       POPC     HB       HAL2     0.900000E-01   1.00800           0
     10480 MEMB     79       POPC     C2       CTL1     0.170000       12.0110           0
     10481 MEMB     79       POPC     HS       HAL1     0.900000E-01   1.00800           0
     10482 MEMB     79       POPC     O21      OSL     -0.490000       15.9994           0
     10483 MEMB     79       POPC     C21      CL       0.900000       12.0110           0
     10484 MEMB     79       POPC     O22      OBL     -0.630000       15.9994           0
     10485 MEMB     79       POPC     C22      CTL2    -0.220000       12.0110           0
     10486 MEMB     79       POPC     H2R      HAL2     0.900000E-01   1.00800           0
     10487 MEMB     79       POPC     H2S      HAL2     0.900000E-01   1.00800           0
     10488 MEMB     79       POPC     C3       CTL2     0.800000E-01   12.0110           0
     10489 MEMB     79       POPC     HX       HAL2     0.900000E-01   1.00800           0
     10490 MEMB     79       POPC     HY       HAL2     0.900000E-01   1.00800           0
     10491 MEMB     79       POPC     O31      OSL     -0.490000       15.9994           0
     10492 MEMB     79       POPC     C31      CL       0.900000       12.0110           0
     10493 MEMB     79       POPC     O32      OBL     -0.630000       15.9994           0
     10494 MEMB     79       POPC     C32      CTL2    -0.220000       12.0110           0
     10495 MEMB     79       POPC     H2X      HAL2     0.900000E-01   1.00800           0
     10496 MEMB     79       POPC     H2Y      HAL2     0.900000E-01   1.00800           0
     10497 MEMB     79       POPC     C23      CTL2    -0.180000       12.0110           0
     10498 MEMB     79       POPC     H3R      HAL2     0.900000E-01   1.00800           0
     10499 MEMB     79       POPC     H3S      HAL2     0.900000E-01   1.00800           0
     10500 MEMB     79       POPC     C24      CTL2    -0.180000       12.0110           0
     10501 MEMB     79       POPC     H4R      HAL2     0.900000E-01   1.00800           0
     10502 MEMB     79       POPC     H4S      HAL2     0.900000E-01   1.00800           0
     10503 MEMB     79       POPC     C25      CTL2    -0.180000       12.0110           0
     10504 MEMB     79       POPC     H5R      HAL2     0.900000E-01   1.00800           0
     10505 MEMB     79       POPC     H5S      HAL2     0.900000E-01   1.00800           0
     10506 MEMB     79       POPC     C26      CTL2    -0.180000       12.0110           0
     10507 MEMB     79       POPC     H6R      HAL2     0.900000E-01   1.00800           0
     10508 MEMB     79       POPC     H6S      HAL2     0.900000E-01   1.00800           0
     10509 MEMB     79       POPC     C27      CTL2    -0.180000       12.0110           0
     10510 MEMB     79       POPC     H7R      HAL2     0.900000E-01   1.00800           0
     10511 MEMB     79       POPC     H7S      HAL2     0.900000E-01   1.00800           0
     10512 MEMB     79       POPC     C28      CTL2    -0.180000       12.0110           0
     10513 MEMB     79       POPC     H8R      HAL2     0.900000E-01   1.00800           0
     10514 MEMB     79       POPC     H8S      HAL2     0.900000E-01   1.00800           0
     10515 MEMB     79       POPC     C29      CEL1    -0.150000       12.0110           0
     10516 MEMB     79       POPC     H91      HEL1     0.150000       1.00800           0
     10517 MEMB     79       POPC     C210     CEL1    -0.150000       12.0110           0
     10518 MEMB     79       POPC     H101     HEL1     0.150000       1.00800           0
     10519 MEMB     79       POPC     C211     CTL2    -0.180000       12.0110           0
     10520 MEMB     79       POPC     H11R     HAL2     0.900000E-01   1.00800           0
     10521 MEMB     79       POPC     H11S     HAL2     0.900000E-01   1.00800           0
     10522 MEMB     79       POPC     C212     CTL2    -0.180000       12.0110           0
     10523 MEMB     79       POPC     H12R     HAL2     0.900000E-01   1.00800           0
     10524 MEMB     79       POPC     H12S     HAL2     0.900000E-01   1.00800           0
     10525 MEMB     79       POPC     C213     CTL2    -0.180000       12.0110           0
     10526 MEMB     79       POPC     H13R     HAL2     0.900000E-01   1.00800           0
     10527 MEMB     79       POPC     H13S     HAL2     0.900000E-01   1.00800           0
     10528 MEMB     79       POPC     C214     CTL2    -0.180000       12.0110           0
     10529 MEMB     79       POPC     H14R     HAL2     0.900000E-01   1.00800           0
     10530 MEMB     79       POPC     H14S     HAL2     0.900000E-01   1.00800           0
     10531 MEMB     79       POPC     C215     CTL2    -0.180000       12.0110           0
     10532 MEMB     79       POPC     H15R     HAL2     0.900000E-01   1.00800           0
     10533 MEMB     79       POPC     H15S     HAL2     0.900000E-01   1.00800           0
     10534 MEMB     79       POPC     C216     CTL2    -0.180000       12.0110           0
     10535 MEMB     79       POPC     H16R     HAL2     0.900000E-01   1.00800           0
     10536 MEMB     79       POPC     H16S     HAL2     0.900000E-01   1.00800           0
     10537 MEMB     79       POPC     C217     CTL2    -0.180000       12.0110           0
     10538 MEMB     79       POPC     H17R     HAL2     0.900000E-01   1.00800           0
     10539 MEMB     79       POPC     H17S     HAL2     0.900000E-01   1.00800           0
     10540 MEMB     79       POPC     C218     CTL3    -0.270000       12.0110           0
     10541 MEMB     79       POPC     H18R     HAL3     0.900000E-01   1.00800           0
     10542 MEMB     79       POPC     H18S     HAL3     0.900000E-01   1.00800           0
     10543 MEMB     79       POPC     H18T     HAL3     0.900000E-01   1.00800           0
     10544 MEMB     79       POPC     C33      CTL2    -0.180000       12.0110           0
     10545 MEMB     79       POPC     H3X      HAL2     0.900000E-01   1.00800           0
     10546 MEMB     79       POPC     H3Y      HAL2     0.900000E-01   1.00800           0
     10547 MEMB     79       POPC     C34      CTL2    -0.180000       12.0110           0
     10548 MEMB     79       POPC     H4X      HAL2     0.900000E-01   1.00800           0
     10549 MEMB     79       POPC     H4Y      HAL2     0.900000E-01   1.00800           0
     10550 MEMB     79       POPC     C35      CTL2    -0.180000       12.0110           0
     10551 MEMB     79       POPC     H5X      HAL2     0.900000E-01   1.00800           0
     10552 MEMB     79       POPC     H5Y      HAL2     0.900000E-01   1.00800           0
     10553 MEMB     79       POPC     C36      CTL2    -0.180000       12.0110           0
     10554 MEMB     79       POPC     H6X      HAL2     0.900000E-01   1.00800           0
     10555 MEMB     79       POPC     H6Y      HAL2     0.900000E-01   1.00800           0
     10556 MEMB     79       POPC     C37      CTL2    -0.180000       12.0110           0
     10557 MEMB     79       POPC     H7X      HAL2     0.900000E-01   1.00800           0
     10558 MEMB     79       POPC     H7Y      HAL2     0.900000E-01   1.00800           0
     10559 MEMB     79       POPC     C38      CTL2    -0.180000       12.0110           0
     10560 MEMB     79       POPC     H8X      HAL2     0.900000E-01   1.00800           0
     10561 MEMB     79       POPC     H8Y      HAL2     0.900000E-01   1.00800           0
     10562 MEMB     79       POPC     C39      CTL2    -0.180000       12.0110           0
     10563 MEMB     79       POPC     H9X      HAL2     0.900000E-01   1.00800           0
     10564 MEMB     79       POPC     H9Y      HAL2     0.900000E-01   1.00800           0
     10565 MEMB     79       POPC     C310     CTL2    -0.180000       12.0110           0
     10566 MEMB     79       POPC     H10X     HAL2     0.900000E-01   1.00800           0
     10567 MEMB     79       POPC     H10Y     HAL2     0.900000E-01   1.00800           0
     10568 MEMB     79       POPC     C311     CTL2    -0.180000       12.0110           0
     10569 MEMB     79       POPC     H11X     HAL2     0.900000E-01   1.00800           0
     10570 MEMB     79       POPC     H11Y     HAL2     0.900000E-01   1.00800           0
     10571 MEMB     79       POPC     C312     CTL2    -0.180000       12.0110           0
     10572 MEMB     79       POPC     H12X     HAL2     0.900000E-01   1.00800           0
     10573 MEMB     79       POPC     H12Y     HAL2     0.900000E-01   1.00800           0
     10574 MEMB     79       POPC     C313     CTL2    -0.180000       12.0110           0
     10575 MEMB     79       POPC     H13X     HAL2     0.900000E-01   1.00800           0
     10576 MEMB     79       POPC     H13Y     HAL2     0.900000E-01   1.00800           0
     10577 MEMB     79       POPC     C314     CTL2    -0.180000       12.0110           0
     10578 MEMB     79       POPC     H14X     HAL2     0.900000E-01   1.00800           0
     10579 MEMB     79       POPC     H14Y     HAL2     0.900000E-01   1.00800           0
     10580 MEMB     79       POPC     C315     CTL2    -0.180000       12.0110           0
     10581 MEMB     79       POPC     H15X     HAL2     0.900000E-01   1.00800           0
     10582 MEMB     79       POPC     H15Y     HAL2     0.900000E-01   1.00800           0
     10583 MEMB     79       POPC     C316     CTL3    -0.270000       12.0110           0
     10584 MEMB     79       POPC     H16X     HAL3     0.900000E-01   1.00800           0
     10585 MEMB     79       POPC     H16Y     HAL3     0.900000E-01   1.00800           0
     10586 MEMB     79       POPC     H16Z     HAL3     0.900000E-01   1.00800           0
     10587 MEMB     80       POPC     N        NTL     -0.600000       14.0070           0
     10588 MEMB     80       POPC     C12      CTL2    -0.100000       12.0110           0
     10589 MEMB     80       POPC     H12A     HL       0.250000       1.00800           0
     10590 MEMB     80       POPC     H12B     HL       0.250000       1.00800           0
     10591 MEMB     80       POPC     C13      CTL5    -0.350000       12.0110           0
     10592 MEMB     80       POPC     H13A     HL       0.250000       1.00800           0
     10593 MEMB     80       POPC     H13B     HL       0.250000       1.00800           0
     10594 MEMB     80       POPC     H13C     HL       0.250000       1.00800           0
     10595 MEMB     80       POPC     C14      CTL5    -0.350000       12.0110           0
     10596 MEMB     80       POPC     H14A     HL       0.250000       1.00800           0
     10597 MEMB     80       POPC     H14B     HL       0.250000       1.00800           0
     10598 MEMB     80       POPC     H14C     HL       0.250000       1.00800           0
     10599 MEMB     80       POPC     C15      CTL5    -0.350000       12.0110           0
     10600 MEMB     80       POPC     H15A     HL       0.250000       1.00800           0
     10601 MEMB     80       POPC     H15B     HL       0.250000       1.00800           0
     10602 MEMB     80       POPC     H15C     HL       0.250000       1.00800           0
     10603 MEMB     80       POPC     C11      CTL2    -0.800000E-01   12.0110           0
     10604 MEMB     80       POPC     H11A     HAL2     0.900000E-01   1.00800           0
     10605 MEMB     80       POPC     H11B     HAL2     0.900000E-01   1.00800           0
     10606 MEMB     80       POPC     P        PL       1.50000        30.9740           0
     10607 MEMB     80       POPC     O13      O2L     -0.780000       15.9994           0
     10608 MEMB     80       POPC     O14      O2L     -0.780000       15.9994           0
     10609 MEMB     80       POPC     O12      OSLP    -0.570000       15.9994           0
     10610 MEMB     80       POPC     O11      OSLP    -0.570000       15.9994           0
     10611 MEMB     80       POPC     C1       CTL2    -0.800000E-01   12.0110           0
     10612 MEMB     80       POPC     HA       HAL2     0.900000E-01   1.00800           0
     10613 MEMB     80       POPC     HB       HAL2     0.900000E-01   1.00800           0
     10614 MEMB     80       POPC     C2       CTL1     0.170000       12.0110           0
     10615 MEMB     80       POPC     HS       HAL1     0.900000E-01   1.00800           0
     10616 MEMB     80       POPC     O21      OSL     -0.490000       15.9994           0
     10617 MEMB     80       POPC     C21      CL       0.900000       12.0110           0
     10618 MEMB     80       POPC     O22      OBL     -0.630000       15.9994           0
     10619 MEMB     80       POPC     C22      CTL2    -0.220000       12.0110           0
     10620 MEMB     80       POPC     H2R      HAL2     0.900000E-01   1.00800           0
     10621 MEMB     80       POPC     H2S      HAL2     0.900000E-01   1.00800           0
     10622 MEMB     80       POPC     C3       CTL2     0.800000E-01   12.0110           0
     10623 MEMB     80       POPC     HX       HAL2     0.900000E-01   1.00800           0
     10624 MEMB     80       POPC     HY       HAL2     0.900000E-01   1.00800           0
     10625 MEMB     80       POPC     O31      OSL     -0.490000       15.9994           0
     10626 MEMB     80       POPC     C31      CL       0.900000       12.0110           0
     10627 MEMB     80       POPC     O32      OBL     -0.630000       15.9994           0
     10628 MEMB     80       POPC     C32      CTL2    -0.220000       12.0110           0
     10629 MEMB     80       POPC     H2X      HAL2     0.900000E-01   1.00800           0
     10630 MEMB     80       POPC     H2Y      HAL2     0.900000E-01   1.00800           0
     10631 MEMB     80       POPC     C23      CTL2    -0.180000       12.0110           0
     10632 MEMB     80       POPC     H3R      HAL2     0.900000E-01   1.00800           0
     10633 MEMB     80       POPC     H3S      HAL2     0.900000E-01   1.00800           0
     10634 MEMB     80       POPC     C24      CTL2    -0.180000       12.0110           0
     10635 MEMB     80       POPC     H4R      HAL2     0.900000E-01   1.00800           0
     10636 MEMB     80       POPC     H4S      HAL2     0.900000E-01   1.00800           0
     10637 MEMB     80       POPC     C25      CTL2    -0.180000       12.0110           0
     10638 MEMB     80       POPC     H5R      HAL2     0.900000E-01   1.00800           0
     10639 MEMB     80       POPC     H5S      HAL2     0.900000E-01   1.00800           0
     10640 MEMB     80       POPC     C26      CTL2    -0.180000       12.0110           0
     10641 MEMB     80       POPC     H6R      HAL2     0.900000E-01   1.00800           0
     10642 MEMB     80       POPC     H6S      HAL2     0.900000E-01   1.00800           0
     10643 MEMB     80       POPC     C27      CTL2    -0.180000       12.0110           0
     10644 MEMB     80       POPC     H7R      HAL2     0.900000E-01   1.00800           0
     10645 MEMB     80       POPC     H7S      HAL2     0.900000E-01   1.00800           0
     10646 MEMB     80       POPC     C28      CTL2    -0.180000       12.0110           0
     10647 MEMB     80       POPC     H8R      HAL2     0.900000E-01   1.00800           0
     10648 MEMB     80       POPC     H8S      HAL2     0.900000E-01   1.00800           0
     10649 MEMB     80       POPC     C29      CEL1    -0.150000       12.0110           0
     10650 MEMB     80       POPC     H91      HEL1     0.150000       1.00800           0
     10651 MEMB     80       POPC     C210     CEL1    -0.150000       12.0110           0
     10652 MEMB     80       POPC     H101     HEL1     0.150000       1.00800           0
     10653 MEMB     80       POPC     C211     CTL2    -0.180000       12.0110           0
     10654 MEMB     80       POPC     H11R     HAL2     0.900000E-01   1.00800           0
     10655 MEMB     80       POPC     H11S     HAL2     0.900000E-01   1.00800           0
     10656 MEMB     80       POPC     C212     CTL2    -0.180000       12.0110           0
     10657 MEMB     80       POPC     H12R     HAL2     0.900000E-01   1.00800           0
     10658 MEMB     80       POPC     H12S     HAL2     0.900000E-01   1.00800           0
     10659 MEMB     80       POPC     C213     CTL2    -0.180000       12.0110           0
     10660 MEMB     80       POPC     H13R     HAL2     0.900000E-01   1.00800           0
     10661 MEMB     80       POPC     H13S     HAL2     0.900000E-01   1.00800           0
     10662 MEMB     80       POPC     C214     CTL2    -0.180000       12.0110           0
     10663 MEMB     80       POPC     H14R     HAL2     0.900000E-01   1.00800           0
     10664 MEMB     80       POPC     H14S     HAL2     0.900000E-01   1.00800           0
     10665 MEMB     80       POPC     C215     CTL2    -0.180000       12.0110           0
     10666 MEMB     80       POPC     H15R     HAL2     0.900000E-01   1.00800           0
     10667 MEMB     80       POPC     H15S     HAL2     0.900000E-01   1.00800           0
     10668 MEMB     80       POPC     C216     CTL2    -0.180000       12.0110           0
     10669 MEMB     80       POPC     H16R     HAL2     0.900000E-01   1.00800           0
     10670 MEMB     80       POPC     H16S     HAL2     0.900000E-01   1.00800           0
     10671 MEMB     80       POPC     C217     CTL2    -0.180000       12.0110           0
     10672 MEMB     80       POPC     H17R     HAL2     0.900000E-01   1.00800           0
     10673 MEMB     80       POPC     H17S     HAL2     0.900000E-01   1.00800           0
     10674 MEMB     80       POPC     C218     CTL3    -0.270000       12.0110           0
     10675 MEMB     80       POPC     H18R     HAL3     0.900000E-01   1.00800           0
     10676 MEMB     80       POPC     H18S     HAL3     0.900000E-01   1.00800           0
     10677 MEMB     80       POPC     H18T     HAL3     0.900000E-01   1.00800           0
     10678 MEMB     80       POPC     C33      CTL2    -0.180000       12.0110           0
     10679 MEMB     80       POPC     H3X      HAL2     0.900000E-01   1.00800           0
     10680 MEMB     80       POPC     H3Y      HAL2     0.900000E-01   1.00800           0
     10681 MEMB     80       POPC     C34      CTL2    -0.180000       12.0110           0
     10682 MEMB     80       POPC     H4X      HAL2     0.900000E-01   1.00800           0
     10683 MEMB     80       POPC     H4Y      HAL2     0.900000E-01   1.00800           0
     10684 MEMB     80       POPC     C35      CTL2    -0.180000       12.0110           0
     10685 MEMB     80       POPC     H5X      HAL2     0.900000E-01   1.00800           0
     10686 MEMB     80       POPC     H5Y      HAL2     0.900000E-01   1.00800           0
     10687 MEMB     80       POPC     C36      CTL2    -0.180000       12.0110           0
     10688 MEMB     80       POPC     H6X      HAL2     0.900000E-01   1.00800           0
     10689 MEMB     80       POPC     H6Y      HAL2     0.900000E-01   1.00800           0
     10690 MEMB     80       POPC     C37      CTL2    -0.180000       12.0110           0
     10691 MEMB     80       POPC     H7X      HAL2     0.900000E-01   1.00800           0
     10692 MEMB     80       POPC     H7Y      HAL2     0.900000E-01   1.00800           0
     10693 MEMB     80       POPC     C38      CTL2    -0.180000       12.0110           0
     10694 MEMB     80       POPC     H8X      HAL2     0.900000E-01   1.00800           0
     10695 MEMB     80       POPC     H8Y      HAL2     0.900000E-01   1.00800           0
     10696 MEMB     80       POPC     C39      CTL2    -0.180000       12.0110           0
     10697 MEMB     80       POPC     H9X      HAL2     0.900000E-01   1.00800           0
     10698 MEMB     80       POPC     H9Y      HAL2     0.900000E-01   1.00800           0
     10699 MEMB     80       POPC     C310     CTL2    -0.180000       12.0110           0
     10700 MEMB     80       POPC     H10X     HAL2     0.900000E-01   1.00800           0
     10701 MEMB     80       POPC     H10Y     HAL2     0.900000E-01   1.00800           0
     10702 MEMB     80       POPC     C311     CTL2    -0.180000       12.0110           0
     10703 MEMB     80       POPC     H11X     HAL2     0.900000E-01   1.00800           0
     10704 MEMB     80       POPC     H11Y     HAL2     0.900000E-01   1.00800           0
     10705 MEMB     80       POPC     C312     CTL2    -0.180000       12.0110           0
     10706 MEMB     80       POPC     H12X     HAL2     0.900000E-01   1.00800           0
     10707 MEMB     80       POPC     H12Y     HAL2     0.900000E-01   1.00800           0
     10708 MEMB     80       POPC     C313     CTL2    -0.180000       12.0110           0
     10709 MEMB     80       POPC     H13X     HAL2     0.900000E-01   1.00800           0
     10710 MEMB     80       POPC     H13Y     HAL2     0.900000E-01   1.00800           0
     10711 MEMB     80       POPC     C314     CTL2    -0.180000       12.0110           0
     10712 MEMB     80       POPC     H14X     HAL2     0.900000E-01   1.00800           0
     10713 MEMB     80       POPC     H14Y     HAL2     0.900000E-01   1.00800           0
     10714 MEMB     80       POPC     C315     CTL2    -0.180000       12.0110           0
     10715 MEMB     80       POPC     H15X     HAL2     0.900000E-01   1.00800           0
     10716 MEMB     80       POPC     H15Y     HAL2     0.900000E-01   1.00800           0
     10717 MEMB     80       POPC     C316     CTL3    -0.270000       12.0110           0
     10718 MEMB     80       POPC     H16X     HAL3     0.900000E-01   1.00800           0
     10719 MEMB     80       POPC     H16Y     HAL3     0.900000E-01   1.00800           0
     10720 MEMB     80       POPC     H16Z     HAL3     0.900000E-01   1.00800           0
     10721 MEMB     81       POPC     N        NTL     -0.600000       14.0070           0
     10722 MEMB     81       POPC     C12      CTL2    -0.100000       12.0110           0
     10723 MEMB     81       POPC     H12A     HL       0.250000       1.00800           0
     10724 MEMB     81       POPC     H12B     HL       0.250000       1.00800           0
     10725 MEMB     81       POPC     C13      CTL5    -0.350000       12.0110           0
     10726 MEMB     81       POPC     H13A     HL       0.250000       1.00800           0
     10727 MEMB     81       POPC     H13B     HL       0.250000       1.00800           0
     10728 MEMB     81       POPC     H13C     HL       0.250000       1.00800           0
     10729 MEMB     81       POPC     C14      CTL5    -0.350000       12.0110           0
     10730 MEMB     81       POPC     H14A     HL       0.250000       1.00800           0
     10731 MEMB     81       POPC     H14B     HL       0.250000       1.00800           0
     10732 MEMB     81       POPC     H14C     HL       0.250000       1.00800           0
     10733 MEMB     81       POPC     C15      CTL5    -0.350000       12.0110           0
     10734 MEMB     81       POPC     H15A     HL       0.250000       1.00800           0
     10735 MEMB     81       POPC     H15B     HL       0.250000       1.00800           0
     10736 MEMB     81       POPC     H15C     HL       0.250000       1.00800           0
     10737 MEMB     81       POPC     C11      CTL2    -0.800000E-01   12.0110           0
     10738 MEMB     81       POPC     H11A     HAL2     0.900000E-01   1.00800           0
     10739 MEMB     81       POPC     H11B     HAL2     0.900000E-01   1.00800           0
     10740 MEMB     81       POPC     P        PL       1.50000        30.9740           0
     10741 MEMB     81       POPC     O13      O2L     -0.780000       15.9994           0
     10742 MEMB     81       POPC     O14      O2L     -0.780000       15.9994           0
     10743 MEMB     81       POPC     O12      OSLP    -0.570000       15.9994           0
     10744 MEMB     81       POPC     O11      OSLP    -0.570000       15.9994           0
     10745 MEMB     81       POPC     C1       CTL2    -0.800000E-01   12.0110           0
     10746 MEMB     81       POPC     HA       HAL2     0.900000E-01   1.00800           0
     10747 MEMB     81       POPC     HB       HAL2     0.900000E-01   1.00800           0
     10748 MEMB     81       POPC     C2       CTL1     0.170000       12.0110           0
     10749 MEMB     81       POPC     HS       HAL1     0.900000E-01   1.00800           0
     10750 MEMB     81       POPC     O21      OSL     -0.490000       15.9994           0
     10751 MEMB     81       POPC     C21      CL       0.900000       12.0110           0
     10752 MEMB     81       POPC     O22      OBL     -0.630000       15.9994           0
     10753 MEMB     81       POPC     C22      CTL2    -0.220000       12.0110           0
     10754 MEMB     81       POPC     H2R      HAL2     0.900000E-01   1.00800           0
     10755 MEMB     81       POPC     H2S      HAL2     0.900000E-01   1.00800           0
     10756 MEMB     81       POPC     C3       CTL2     0.800000E-01   12.0110           0
     10757 MEMB     81       POPC     HX       HAL2     0.900000E-01   1.00800           0
     10758 MEMB     81       POPC     HY       HAL2     0.900000E-01   1.00800           0
     10759 MEMB     81       POPC     O31      OSL     -0.490000       15.9994           0
     10760 MEMB     81       POPC     C31      CL       0.900000       12.0110           0
     10761 MEMB     81       POPC     O32      OBL     -0.630000       15.9994           0
     10762 MEMB     81       POPC     C32      CTL2    -0.220000       12.0110           0
     10763 MEMB     81       POPC     H2X      HAL2     0.900000E-01   1.00800           0
     10764 MEMB     81       POPC     H2Y      HAL2     0.900000E-01   1.00800           0
     10765 MEMB     81       POPC     C23      CTL2    -0.180000       12.0110           0
     10766 MEMB     81       POPC     H3R      HAL2     0.900000E-01   1.00800           0
     10767 MEMB     81       POPC     H3S      HAL2     0.900000E-01   1.00800           0
     10768 MEMB     81       POPC     C24      CTL2    -0.180000       12.0110           0
     10769 MEMB     81       POPC     H4R      HAL2     0.900000E-01   1.00800           0
     10770 MEMB     81       POPC     H4S      HAL2     0.900000E-01   1.00800           0
     10771 MEMB     81       POPC     C25      CTL2    -0.180000       12.0110           0
     10772 MEMB     81       POPC     H5R      HAL2     0.900000E-01   1.00800           0
     10773 MEMB     81       POPC     H5S      HAL2     0.900000E-01   1.00800           0
     10774 MEMB     81       POPC     C26      CTL2    -0.180000       12.0110           0
     10775 MEMB     81       POPC     H6R      HAL2     0.900000E-01   1.00800           0
     10776 MEMB     81       POPC     H6S      HAL2     0.900000E-01   1.00800           0
     10777 MEMB     81       POPC     C27      CTL2    -0.180000       12.0110           0
     10778 MEMB     81       POPC     H7R      HAL2     0.900000E-01   1.00800           0
     10779 MEMB     81       POPC     H7S      HAL2     0.900000E-01   1.00800           0
     10780 MEMB     81       POPC     C28      CTL2    -0.180000       12.0110           0
     10781 MEMB     81       POPC     H8R      HAL2     0.900000E-01   1.00800           0
     10782 MEMB     81       POPC     H8S      HAL2     0.900000E-01   1.00800           0
     10783 MEMB     81       POPC     C29      CEL1    -0.150000       12.0110           0
     10784 MEMB     81       POPC     H91      HEL1     0.150000       1.00800           0
     10785 MEMB     81       POPC     C210     CEL1    -0.150000       12.0110           0
     10786 MEMB     81       POPC     H101     HEL1     0.150000       1.00800           0
     10787 MEMB     81       POPC     C211     CTL2    -0.180000       12.0110           0
     10788 MEMB     81       POPC     H11R     HAL2     0.900000E-01   1.00800           0
     10789 MEMB     81       POPC     H11S     HAL2     0.900000E-01   1.00800           0
     10790 MEMB     81       POPC     C212     CTL2    -0.180000       12.0110           0
     10791 MEMB     81       POPC     H12R     HAL2     0.900000E-01   1.00800           0
     10792 MEMB     81       POPC     H12S     HAL2     0.900000E-01   1.00800           0
     10793 MEMB     81       POPC     C213     CTL2    -0.180000       12.0110           0
     10794 MEMB     81       POPC     H13R     HAL2     0.900000E-01   1.00800           0
     10795 MEMB     81       POPC     H13S     HAL2     0.900000E-01   1.00800           0
     10796 MEMB     81       POPC     C214     CTL2    -0.180000       12.0110           0
     10797 MEMB     81       POPC     H14R     HAL2     0.900000E-01   1.00800           0
     10798 MEMB     81       POPC     H14S     HAL2     0.900000E-01   1.00800           0
     10799 MEMB     81       POPC     C215     CTL2    -0.180000       12.0110           0
     10800 MEMB     81       POPC     H15R     HAL2     0.900000E-01   1.00800           0
     10801 MEMB     81       POPC     H15S     HAL2     0.900000E-01   1.00800           0
     10802 MEMB     81       POPC     C216     CTL2    -0.180000       12.0110           0
     10803 MEMB     81       POPC     H16R     HAL2     0.900000E-01   1.00800           0
     10804 MEMB     81       POPC     H16S     HAL2     0.900000E-01   1.00800           0
     10805 MEMB     81       POPC     C217     CTL2    -0.180000       12.0110           0
     10806 MEMB     81       POPC     H17R     HAL2     0.900000E-01   1.00800           0
     10807 MEMB     81       POPC     H17S     HAL2     0.900000E-01   1.00800           0
     10808 MEMB     81       POPC     C218     CTL3    -0.270000       12.0110           0
     10809 MEMB     81       POPC     H18R     HAL3     0.900000E-01   1.00800           0
     10810 MEMB     81       POPC     H18S     HAL3     0.900000E-01   1.00800           0
     10811 MEMB     81       POPC     H18T     HAL3     0.900000E-01   1.00800           0
     10812 MEMB     81       POPC     C33      CTL2    -0.180000       12.0110           0
     10813 MEMB     81       POPC     H3X      HAL2     0.900000E-01   1.00800           0
     10814 MEMB     81       POPC     H3Y      HAL2     0.900000E-01   1.00800           0
     10815 MEMB     81       POPC     C34      CTL2    -0.180000       12.0110           0
     10816 MEMB     81       POPC     H4X      HAL2     0.900000E-01   1.00800           0
     10817 MEMB     81       POPC     H4Y      HAL2     0.900000E-01   1.00800           0
     10818 MEMB     81       POPC     C35      CTL2    -0.180000       12.0110           0
     10819 MEMB     81       POPC     H5X      HAL2     0.900000E-01   1.00800           0
     10820 MEMB     81       POPC     H5Y      HAL2     0.900000E-01   1.00800           0
     10821 MEMB     81       POPC     C36      CTL2    -0.180000       12.0110           0
     10822 MEMB     81       POPC     H6X      HAL2     0.900000E-01   1.00800           0
     10823 MEMB     81       POPC     H6Y      HAL2     0.900000E-01   1.00800           0
     10824 MEMB     81       POPC     C37      CTL2    -0.180000       12.0110           0
     10825 MEMB     81       POPC     H7X      HAL2     0.900000E-01   1.00800           0
     10826 MEMB     81       POPC     H7Y      HAL2     0.900000E-01   1.00800           0
     10827 MEMB     81       POPC     C38      CTL2    -0.180000       12.0110           0
     10828 MEMB     81       POPC     H8X      HAL2     0.900000E-01   1.00800           0
     10829 MEMB     81       POPC     H8Y      HAL2     0.900000E-01   1.00800           0
     10830 MEMB     81       POPC     C39      CTL2    -0.180000       12.0110           0
     10831 MEMB     81       POPC     H9X      HAL2     0.900000E-01   1.00800           0
     10832 MEMB     81       POPC     H9Y      HAL2     0.900000E-01   1.00800           0
     10833 MEMB     81       POPC     C310     CTL2    -0.180000       12.0110           0
     10834 MEMB     81       POPC     H10X     HAL2     0.900000E-01   1.00800           0
     10835 MEMB     81       POPC     H10Y     HAL2     0.900000E-01   1.00800           0
     10836 MEMB     81       POPC     C311     CTL2    -0.180000       12.0110           0
     10837 MEMB     81       POPC     H11X     HAL2     0.900000E-01   1.00800           0
     10838 MEMB     81       POPC     H11Y     HAL2     0.900000E-01   1.00800           0
     10839 MEMB     81       POPC     C312     CTL2    -0.180000       12.0110           0
     10840 MEMB     81       POPC     H12X     HAL2     0.900000E-01   1.00800           0
     10841 MEMB     81       POPC     H12Y     HAL2     0.900000E-01   1.00800           0
     10842 MEMB     81       POPC     C313     CTL2    -0.180000       12.0110           0
     10843 MEMB     81       POPC     H13X     HAL2     0.900000E-01   1.00800           0
     10844 MEMB     81       POPC     H13Y     HAL2     0.900000E-01   1.00800           0
     10845 MEMB     81       POPC     C314     CTL2    -0.180000       12.0110           0
     10846 MEMB     81       POPC     H14X     HAL2     0.900000E-01   1.00800           0
     10847 MEMB     81       POPC     H14Y     HAL2     0.900000E-01   1.00800           0
     10848 MEMB     81       POPC     C315     CTL2    -0.180000       12.0110           0
     10849 MEMB     81       POPC     H15X     HAL2     0.900000E-01   1.00800           0
     10850 MEMB     81       POPC     H15Y     HAL2     0.900000E-01   1.00800           0
     10851 MEMB     81       POPC     C316     CTL3    -0.270000       12.0110           0
     10852 MEMB     81       POPC     H16X     HAL3     0.900000E-01   1.00800           0
     10853 MEMB     81       POPC     H16Y     HAL3     0.900000E-01   1.00800           0
     10854 MEMB     81       POPC     H16Z     HAL3     0.900000E-01   1.00800           0
     10855 MEMB     82       POPC     N        NTL     -0.600000       14.0070           0
     10856 MEMB     82       POPC     C12      CTL2    -0.100000       12.0110           0
     10857 MEMB     82       POPC     H12A     HL       0.250000       1.00800           0
     10858 MEMB     82       POPC     H12B     HL       0.250000       1.00800           0
     10859 MEMB     82       POPC     C13      CTL5    -0.350000       12.0110           0
     10860 MEMB     82       POPC     H13A     HL       0.250000       1.00800           0
     10861 MEMB     82       POPC     H13B     HL       0.250000       1.00800           0
     10862 MEMB     82       POPC     H13C     HL       0.250000       1.00800           0
     10863 MEMB     82       POPC     C14      CTL5    -0.350000       12.0110           0
     10864 MEMB     82       POPC     H14A     HL       0.250000       1.00800           0
     10865 MEMB     82       POPC     H14B     HL       0.250000       1.00800           0
     10866 MEMB     82       POPC     H14C     HL       0.250000       1.00800           0
     10867 MEMB     82       POPC     C15      CTL5    -0.350000       12.0110           0
     10868 MEMB     82       POPC     H15A     HL       0.250000       1.00800           0
     10869 MEMB     82       POPC     H15B     HL       0.250000       1.00800           0
     10870 MEMB     82       POPC     H15C     HL       0.250000       1.00800           0
     10871 MEMB     82       POPC     C11      CTL2    -0.800000E-01   12.0110           0
     10872 MEMB     82       POPC     H11A     HAL2     0.900000E-01   1.00800           0
     10873 MEMB     82       POPC     H11B     HAL2     0.900000E-01   1.00800           0
     10874 MEMB     82       POPC     P        PL       1.50000        30.9740           0
     10875 MEMB     82       POPC     O13      O2L     -0.780000       15.9994           0
     10876 MEMB     82       POPC     O14      O2L     -0.780000       15.9994           0
     10877 MEMB     82       POPC     O12      OSLP    -0.570000       15.9994           0
     10878 MEMB     82       POPC     O11      OSLP    -0.570000       15.9994           0
     10879 MEMB     82       POPC     C1       CTL2    -0.800000E-01   12.0110           0
     10880 MEMB     82       POPC     HA       HAL2     0.900000E-01   1.00800           0
     10881 MEMB     82       POPC     HB       HAL2     0.900000E-01   1.00800           0
     10882 MEMB     82       POPC     C2       CTL1     0.170000       12.0110           0
     10883 MEMB     82       POPC     HS       HAL1     0.900000E-01   1.00800           0
     10884 MEMB     82       POPC     O21      OSL     -0.490000       15.9994           0
     10885 MEMB     82       POPC     C21      CL       0.900000       12.0110           0
     10886 MEMB     82       POPC     O22      OBL     -0.630000       15.9994           0
     10887 MEMB     82       POPC     C22      CTL2    -0.220000       12.0110           0
     10888 MEMB     82       POPC     H2R      HAL2     0.900000E-01   1.00800           0
     10889 MEMB     82       POPC     H2S      HAL2     0.900000E-01   1.00800           0
     10890 MEMB     82       POPC     C3       CTL2     0.800000E-01   12.0110           0
     10891 MEMB     82       POPC     HX       HAL2     0.900000E-01   1.00800           0
     10892 MEMB     82       POPC     HY       HAL2     0.900000E-01   1.00800           0
     10893 MEMB     82       POPC     O31      OSL     -0.490000       15.9994           0
     10894 MEMB     82       POPC     C31      CL       0.900000       12.0110           0
     10895 MEMB     82       POPC     O32      OBL     -0.630000       15.9994           0
     10896 MEMB     82       POPC     C32      CTL2    -0.220000       12.0110           0
     10897 MEMB     82       POPC     H2X      HAL2     0.900000E-01   1.00800           0
     10898 MEMB     82       POPC     H2Y      HAL2     0.900000E-01   1.00800           0
     10899 MEMB     82       POPC     C23      CTL2    -0.180000       12.0110           0
     10900 MEMB     82       POPC     H3R      HAL2     0.900000E-01   1.00800           0
     10901 MEMB     82       POPC     H3S      HAL2     0.900000E-01   1.00800           0
     10902 MEMB     82       POPC     C24      CTL2    -0.180000       12.0110           0
     10903 MEMB     82       POPC     H4R      HAL2     0.900000E-01   1.00800           0
     10904 MEMB     82       POPC     H4S      HAL2     0.900000E-01   1.00800           0
     10905 MEMB     82       POPC     C25      CTL2    -0.180000       12.0110           0
     10906 MEMB     82       POPC     H5R      HAL2     0.900000E-01   1.00800           0
     10907 MEMB     82       POPC     H5S      HAL2     0.900000E-01   1.00800           0
     10908 MEMB     82       POPC     C26      CTL2    -0.180000       12.0110           0
     10909 MEMB     82       POPC     H6R      HAL2     0.900000E-01   1.00800           0
     10910 MEMB     82       POPC     H6S      HAL2     0.900000E-01   1.00800           0
     10911 MEMB     82       POPC     C27      CTL2    -0.180000       12.0110           0
     10912 MEMB     82       POPC     H7R      HAL2     0.900000E-01   1.00800           0
     10913 MEMB     82       POPC     H7S      HAL2     0.900000E-01   1.00800           0
     10914 MEMB     82       POPC     C28      CTL2    -0.180000       12.0110           0
     10915 MEMB     82       POPC     H8R      HAL2     0.900000E-01   1.00800           0
     10916 MEMB     82       POPC     H8S      HAL2     0.900000E-01   1.00800           0
     10917 MEMB     82       POPC     C29      CEL1    -0.150000       12.0110           0
     10918 MEMB     82       POPC     H91      HEL1     0.150000       1.00800           0
     10919 MEMB     82       POPC     C210     CEL1    -0.150000       12.0110           0
     10920 MEMB     82       POPC     H101     HEL1     0.150000       1.00800           0
     10921 MEMB     82       POPC     C211     CTL2    -0.180000       12.0110           0
     10922 MEMB     82       POPC     H11R     HAL2     0.900000E-01   1.00800           0
     10923 MEMB     82       POPC     H11S     HAL2     0.900000E-01   1.00800           0
     10924 MEMB     82       POPC     C212     CTL2    -0.180000       12.0110           0
     10925 MEMB     82       POPC     H12R     HAL2     0.900000E-01   1.00800           0
     10926 MEMB     82       POPC     H12S     HAL2     0.900000E-01   1.00800           0
     10927 MEMB     82       POPC     C213     CTL2    -0.180000       12.0110           0
     10928 MEMB     82       POPC     H13R     HAL2     0.900000E-01   1.00800           0
     10929 MEMB     82       POPC     H13S     HAL2     0.900000E-01   1.00800           0
     10930 MEMB     82       POPC     C214     CTL2    -0.180000       12.0110           0
     10931 MEMB     82       POPC     H14R     HAL2     0.900000E-01   1.00800           0
     10932 MEMB     82       POPC     H14S     HAL2     0.900000E-01   1.00800           0
     10933 MEMB     82       POPC     C215     CTL2    -0.180000       12.0110           0
     10934 MEMB     82       POPC     H15R     HAL2     0.900000E-01   1.00800           0
     10935 MEMB     82       POPC     H15S     HAL2     0.900000E-01   1.00800           0
     10936 MEMB     82       POPC     C216     CTL2    -0.180000       12.0110           0
     10937 MEMB     82       POPC     H16R     HAL2     0.900000E-01   1.00800           0
     10938 MEMB     82       POPC     H16S     HAL2     0.900000E-01   1.00800           0
     10939 MEMB     82       POPC     C217     CTL2    -0.180000       12.0110           0
     10940 MEMB     82       POPC     H17R     HAL2     0.900000E-01   1.00800           0
     10941 MEMB     82       POPC     H17S     HAL2     0.900000E-01   1.00800           0
     10942 MEMB     82       POPC     C218     CTL3    -0.270000       12.0110           0
     10943 MEMB     82       POPC     H18R     HAL3     0.900000E-01   1.00800           0
     10944 MEMB     82       POPC     H18S     HAL3     0.900000E-01   1.00800           0
     10945 MEMB     82       POPC     H18T     HAL3     0.900000E-01   1.00800           0
     10946 MEMB     82       POPC     C33      CTL2    -0.180000       12.0110           0
     10947 MEMB     82       POPC     H3X      HAL2     0.900000E-01   1.00800           0
     10948 MEMB     82       POPC     H3Y      HAL2     0.900000E-01   1.00800           0
     10949 MEMB     82       POPC     C34      CTL2    -0.180000       12.0110           0
     10950 MEMB     82       POPC     H4X      HAL2     0.900000E-01   1.00800           0
     10951 MEMB     82       POPC     H4Y      HAL2     0.900000E-01   1.00800           0
     10952 MEMB     82       POPC     C35      CTL2    -0.180000       12.0110           0
     10953 MEMB     82       POPC     H5X      HAL2     0.900000E-01   1.00800           0
     10954 MEMB     82       POPC     H5Y      HAL2     0.900000E-01   1.00800           0
     10955 MEMB     82       POPC     C36      CTL2    -0.180000       12.0110           0
     10956 MEMB     82       POPC     H6X      HAL2     0.900000E-01   1.00800           0
     10957 MEMB     82       POPC     H6Y      HAL2     0.900000E-01   1.00800           0
     10958 MEMB     82       POPC     C37      CTL2    -0.180000       12.0110           0
     10959 MEMB     82       POPC     H7X      HAL2     0.900000E-01   1.00800           0
     10960 MEMB     82       POPC     H7Y      HAL2     0.900000E-01   1.00800           0
     10961 MEMB     82       POPC     C38      CTL2    -0.180000       12.0110           0
     10962 MEMB     82       POPC     H8X      HAL2     0.900000E-01   1.00800           0
     10963 MEMB     82       POPC     H8Y      HAL2     0.900000E-01   1.00800           0
     10964 MEMB     82       POPC     C39      CTL2    -0.180000       12.0110           0
     10965 MEMB     82       POPC     H9X      HAL2     0.900000E-01   1.00800           0
     10966 MEMB     82       POPC     H9Y      HAL2     0.900000E-01   1.00800           0
     10967 MEMB     82       POPC     C310     CTL2    -0.180000       12.0110           0
     10968 MEMB     82       POPC     H10X     HAL2     0.900000E-01   1.00800           0
     10969 MEMB     82       POPC     H10Y     HAL2     0.900000E-01   1.00800           0
     10970 MEMB     82       POPC     C311     CTL2    -0.180000       12.0110           0
     10971 MEMB     82       POPC     H11X     HAL2     0.900000E-01   1.00800           0
     10972 MEMB     82       POPC     H11Y     HAL2     0.900000E-01   1.00800           0
     10973 MEMB     82       POPC     C312     CTL2    -0.180000       12.0110           0
     10974 MEMB     82       POPC     H12X     HAL2     0.900000E-01   1.00800           0
     10975 MEMB     82       POPC     H12Y     HAL2     0.900000E-01   1.00800           0
     10976 MEMB     82       POPC     C313     CTL2    -0.180000       12.0110           0
     10977 MEMB     82       POPC     H13X     HAL2     0.900000E-01   1.00800           0
     10978 MEMB     82       POPC     H13Y     HAL2     0.900000E-01   1.00800           0
     10979 MEMB     82       POPC     C314     CTL2    -0.180000       12.0110           0
     10980 MEMB     82       POPC     H14X     HAL2     0.900000E-01   1.00800           0
     10981 MEMB     82       POPC     H14Y     HAL2     0.900000E-01   1.00800           0
     10982 MEMB     82       POPC     C315     CTL2    -0.180000       12.0110           0
     10983 MEMB     82       POPC     H15X     HAL2     0.900000E-01   1.00800           0
     10984 MEMB     82       POPC     H15Y     HAL2     0.900000E-01   1.00800           0
     10985 MEMB     82       POPC     C316     CTL3    -0.270000       12.0110           0
     10986 MEMB     82       POPC     H16X     HAL3     0.900000E-01   1.00800           0
     10987 MEMB     82       POPC     H16Y     HAL3     0.900000E-01   1.00800           0
     10988 MEMB     82       POPC     H16Z     HAL3     0.900000E-01   1.00800           0
     10989 MEMB     83       POPC     N        NTL     -0.600000       14.0070           0
     10990 MEMB     83       POPC     C12      CTL2    -0.100000       12.0110           0
     10991 MEMB     83       POPC     H12A     HL       0.250000       1.00800           0
     10992 MEMB     83       POPC     H12B     HL       0.250000       1.00800           0
     10993 MEMB     83       POPC     C13      CTL5    -0.350000       12.0110           0
     10994 MEMB     83       POPC     H13A     HL       0.250000       1.00800           0
     10995 MEMB     83       POPC     H13B     HL       0.250000       1.00800           0
     10996 MEMB     83       POPC     H13C     HL       0.250000       1.00800           0
     10997 MEMB     83       POPC     C14      CTL5    -0.350000       12.0110           0
     10998 MEMB     83       POPC     H14A     HL       0.250000       1.00800           0
     10999 MEMB     83       POPC     H14B     HL       0.250000       1.00800           0
     11000 MEMB     83       POPC     H14C     HL       0.250000       1.00800           0
     11001 MEMB     83       POPC     C15      CTL5    -0.350000       12.0110           0
     11002 MEMB     83       POPC     H15A     HL       0.250000       1.00800           0
     11003 MEMB     83       POPC     H15B     HL       0.250000       1.00800           0
     11004 MEMB     83       POPC     H15C     HL       0.250000       1.00800           0
     11005 MEMB     83       POPC     C11      CTL2    -0.800000E-01   12.0110           0
     11006 MEMB     83       POPC     H11A     HAL2     0.900000E-01   1.00800           0
     11007 MEMB     83       POPC     H11B     HAL2     0.900000E-01   1.00800           0
     11008 MEMB     83       POPC     P        PL       1.50000        30.9740           0
     11009 MEMB     83       POPC     O13      O2L     -0.780000       15.9994           0
     11010 MEMB     83       POPC     O14      O2L     -0.780000       15.9994           0
     11011 MEMB     83       POPC     O12      OSLP    -0.570000       15.9994           0
     11012 MEMB     83       POPC     O11      OSLP    -0.570000       15.9994           0
     11013 MEMB     83       POPC     C1       CTL2    -0.800000E-01   12.0110           0
     11014 MEMB     83       POPC     HA       HAL2     0.900000E-01   1.00800           0
     11015 MEMB     83       POPC     HB       HAL2     0.900000E-01   1.00800           0
     11016 MEMB     83       POPC     C2       CTL1     0.170000       12.0110           0
     11017 MEMB     83       POPC     HS       HAL1     0.900000E-01   1.00800           0
     11018 MEMB     83       POPC     O21      OSL     -0.490000       15.9994           0
     11019 MEMB     83       POPC     C21      CL       0.900000       12.0110           0
     11020 MEMB     83       POPC     O22      OBL     -0.630000       15.9994           0
     11021 MEMB     83       POPC     C22      CTL2    -0.220000       12.0110           0
     11022 MEMB     83       POPC     H2R      HAL2     0.900000E-01   1.00800           0
     11023 MEMB     83       POPC     H2S      HAL2     0.900000E-01   1.00800           0
     11024 MEMB     83       POPC     C3       CTL2     0.800000E-01   12.0110           0
     11025 MEMB     83       POPC     HX       HAL2     0.900000E-01   1.00800           0
     11026 MEMB     83       POPC     HY       HAL2     0.900000E-01   1.00800           0
     11027 MEMB     83       POPC     O31      OSL     -0.490000       15.9994           0
     11028 MEMB     83       POPC     C31      CL       0.900000       12.0110           0
     11029 MEMB     83       POPC     O32      OBL     -0.630000       15.9994           0
     11030 MEMB     83       POPC     C32      CTL2    -0.220000       12.0110           0
     11031 MEMB     83       POPC     H2X      HAL2     0.900000E-01   1.00800           0
     11032 MEMB     83       POPC     H2Y      HAL2     0.900000E-01   1.00800           0
     11033 MEMB     83       POPC     C23      CTL2    -0.180000       12.0110           0
     11034 MEMB     83       POPC     H3R      HAL2     0.900000E-01   1.00800           0
     11035 MEMB     83       POPC     H3S      HAL2     0.900000E-01   1.00800           0
     11036 MEMB     83       POPC     C24      CTL2    -0.180000       12.0110           0
     11037 MEMB     83       POPC     H4R      HAL2     0.900000E-01   1.00800           0
     11038 MEMB     83       POPC     H4S      HAL2     0.900000E-01   1.00800           0
     11039 MEMB     83       POPC     C25      CTL2    -0.180000       12.0110           0
     11040 MEMB     83       POPC     H5R      HAL2     0.900000E-01   1.00800           0
     11041 MEMB     83       POPC     H5S      HAL2     0.900000E-01   1.00800           0
     11042 MEMB     83       POPC     C26      CTL2    -0.180000       12.0110           0
     11043 MEMB     83       POPC     H6R      HAL2     0.900000E-01   1.00800           0
     11044 MEMB     83       POPC     H6S      HAL2     0.900000E-01   1.00800           0
     11045 MEMB     83       POPC     C27      CTL2    -0.180000       12.0110           0
     11046 MEMB     83       POPC     H7R      HAL2     0.900000E-01   1.00800           0
     11047 MEMB     83       POPC     H7S      HAL2     0.900000E-01   1.00800           0
     11048 MEMB     83       POPC     C28      CTL2    -0.180000       12.0110           0
     11049 MEMB     83       POPC     H8R      HAL2     0.900000E-01   1.00800           0
     11050 MEMB     83       POPC     H8S      HAL2     0.900000E-01   1.00800           0
     11051 MEMB     83       POPC     C29      CEL1    -0.150000       12.0110           0
     11052 MEMB     83       POPC     H91      HEL1     0.150000       1.00800           0
     11053 MEMB     83       POPC     C210     CEL1    -0.150000       12.0110           0
     11054 MEMB     83       POPC     H101     HEL1     0.150000       1.00800           0
     11055 MEMB     83       POPC     C211     CTL2    -0.180000       12.0110           0
     11056 MEMB     83       POPC     H11R     HAL2     0.900000E-01   1.00800           0
     11057 MEMB     83       POPC     H11S     HAL2     0.900000E-01   1.00800           0
     11058 MEMB     83       POPC     C212     CTL2    -0.180000       12.0110           0
     11059 MEMB     83       POPC     H12R     HAL2     0.900000E-01   1.00800           0
     11060 MEMB     83       POPC     H12S     HAL2     0.900000E-01   1.00800           0
     11061 MEMB     83       POPC     C213     CTL2    -0.180000       12.0110           0
     11062 MEMB     83       POPC     H13R     HAL2     0.900000E-01   1.00800           0
     11063 MEMB     83       POPC     H13S     HAL2     0.900000E-01   1.00800           0
     11064 MEMB     83       POPC     C214     CTL2    -0.180000       12.0110           0
     11065 MEMB     83       POPC     H14R     HAL2     0.900000E-01   1.00800           0
     11066 MEMB     83       POPC     H14S     HAL2     0.900000E-01   1.00800           0
     11067 MEMB     83       POPC     C215     CTL2    -0.180000       12.0110           0
     11068 MEMB     83       POPC     H15R     HAL2     0.900000E-01   1.00800           0
     11069 MEMB     83       POPC     H15S     HAL2     0.900000E-01   1.00800           0
     11070 MEMB     83       POPC     C216     CTL2    -0.180000       12.0110           0
     11071 MEMB     83       POPC     H16R     HAL2     0.900000E-01   1.00800           0
     11072 MEMB     83       POPC     H16S     HAL2     0.900000E-01   1.00800           0
     11073 MEMB     83       POPC     C217     CTL2    -0.180000       12.0110           0
     11074 MEMB     83       POPC     H17R     HAL2     0.900000E-01   1.00800           0
     11075 MEMB     83       POPC     H17S     HAL2     0.900000E-01   1.00800           0
     11076 MEMB     83       POPC     C218     CTL3    -0.270000       12.0110           0
     11077 MEMB     83       POPC     H18R     HAL3     0.900000E-01   1.00800           0
     11078 MEMB     83       POPC     H18S     HAL3     0.900000E-01   1.00800           0
     11079 MEMB     83       POPC     H18T     HAL3     0.900000E-01   1.00800           0
     11080 MEMB     83       POPC     C33      CTL2    -0.180000       12.0110           0
     11081 MEMB     83       POPC     H3X      HAL2     0.900000E-01   1.00800           0
     11082 MEMB     83       POPC     H3Y      HAL2     0.900000E-01   1.00800           0
     11083 MEMB     83       POPC     C34      CTL2    -0.180000       12.0110           0
     11084 MEMB     83       POPC     H4X      HAL2     0.900000E-01   1.00800           0
     11085 MEMB     83       POPC     H4Y      HAL2     0.900000E-01   1.00800           0
     11086 MEMB     83       POPC     C35      CTL2    -0.180000       12.0110           0
     11087 MEMB     83       POPC     H5X      HAL2     0.900000E-01   1.00800           0
     11088 MEMB     83       POPC     H5Y      HAL2     0.900000E-01   1.00800           0
     11089 MEMB     83       POPC     C36      CTL2    -0.180000       12.0110           0
     11090 MEMB     83       POPC     H6X      HAL2     0.900000E-01   1.00800           0
     11091 MEMB     83       POPC     H6Y      HAL2     0.900000E-01   1.00800           0
     11092 MEMB     83       POPC     C37      CTL2    -0.180000       12.0110           0
     11093 MEMB     83       POPC     H7X      HAL2     0.900000E-01   1.00800           0
     11094 MEMB     83       POPC     H7Y      HAL2     0.900000E-01   1.00800           0
     11095 MEMB     83       POPC     C38      CTL2    -0.180000       12.0110           0
     11096 MEMB     83       POPC     H8X      HAL2     0.900000E-01   1.00800           0
     11097 MEMB     83       POPC     H8Y      HAL2     0.900000E-01   1.00800           0
     11098 MEMB     83       POPC     C39      CTL2    -0.180000       12.0110           0
     11099 MEMB     83       POPC     H9X      HAL2     0.900000E-01   1.00800           0
     11100 MEMB     83       POPC     H9Y      HAL2     0.900000E-01   1.00800           0
     11101 MEMB     83       POPC     C310     CTL2    -0.180000       12.0110           0
     11102 MEMB     83       POPC     H10X     HAL2     0.900000E-01   1.00800           0
     11103 MEMB     83       POPC     H10Y     HAL2     0.900000E-01   1.00800           0
     11104 MEMB     83       POPC     C311     CTL2    -0.180000       12.0110           0
     11105 MEMB     83       POPC     H11X     HAL2     0.900000E-01   1.00800           0
     11106 MEMB     83       POPC     H11Y     HAL2     0.900000E-01   1.00800           0
     11107 MEMB     83       POPC     C312     CTL2    -0.180000       12.0110           0
     11108 MEMB     83       POPC     H12X     HAL2     0.900000E-01   1.00800           0
     11109 MEMB     83       POPC     H12Y     HAL2     0.900000E-01   1.00800           0
     11110 MEMB     83       POPC     C313     CTL2    -0.180000       12.0110           0
     11111 MEMB     83       POPC     H13X     HAL2     0.900000E-01   1.00800           0
     11112 MEMB     83       POPC     H13Y     HAL2     0.900000E-01   1.00800           0
     11113 MEMB     83       POPC     C314     CTL2    -0.180000       12.0110           0
     11114 MEMB     83       POPC     H14X     HAL2     0.900000E-01   1.00800           0
     11115 MEMB     83       POPC     H14Y     HAL2     0.900000E-01   1.00800           0
     11116 MEMB     83       POPC     C315     CTL2    -0.180000       12.0110           0
     11117 MEMB     83       POPC     H15X     HAL2     0.900000E-01   1.00800           0
     11118 MEMB     83       POPC     H15Y     HAL2     0.900000E-01   1.00800           0
     11119 MEMB     83       POPC     C316     CTL3    -0.270000       12.0110           0
     11120 MEMB     83       POPC     H16X     HAL3     0.900000E-01   1.00800           0
     11121 MEMB     83       POPC     H16Y     HAL3     0.900000E-01   1.00800           0
     11122 MEMB     83       POPC     H16Z     HAL3     0.900000E-01   1.00800           0
     11123 MEMB     84       POPC     N        NTL     -0.600000       14.0070           0
     11124 MEMB     84       POPC     C12      CTL2    -0.100000       12.0110           0
     11125 MEMB     84       POPC     H12A     HL       0.250000       1.00800           0
     11126 MEMB     84       POPC     H12B     HL       0.250000       1.00800           0
     11127 MEMB     84       POPC     C13      CTL5    -0.350000       12.0110           0
     11128 MEMB     84       POPC     H13A     HL       0.250000       1.00800           0
     11129 MEMB     84       POPC     H13B     HL       0.250000       1.00800           0
     11130 MEMB     84       POPC     H13C     HL       0.250000       1.00800           0
     11131 MEMB     84       POPC     C14      CTL5    -0.350000       12.0110           0
     11132 MEMB     84       POPC     H14A     HL       0.250000       1.00800           0
     11133 MEMB     84       POPC     H14B     HL       0.250000       1.00800           0
     11134 MEMB     84       POPC     H14C     HL       0.250000       1.00800           0
     11135 MEMB     84       POPC     C15      CTL5    -0.350000       12.0110           0
     11136 MEMB     84       POPC     H15A     HL       0.250000       1.00800           0
     11137 MEMB     84       POPC     H15B     HL       0.250000       1.00800           0
     11138 MEMB     84       POPC     H15C     HL       0.250000       1.00800           0
     11139 MEMB     84       POPC     C11      CTL2    -0.800000E-01   12.0110           0
     11140 MEMB     84       POPC     H11A     HAL2     0.900000E-01   1.00800           0
     11141 MEMB     84       POPC     H11B     HAL2     0.900000E-01   1.00800           0
     11142 MEMB     84       POPC     P        PL       1.50000        30.9740           0
     11143 MEMB     84       POPC     O13      O2L     -0.780000       15.9994           0
     11144 MEMB     84       POPC     O14      O2L     -0.780000       15.9994           0
     11145 MEMB     84       POPC     O12      OSLP    -0.570000       15.9994           0
     11146 MEMB     84       POPC     O11      OSLP    -0.570000       15.9994           0
     11147 MEMB     84       POPC     C1       CTL2    -0.800000E-01   12.0110           0
     11148 MEMB     84       POPC     HA       HAL2     0.900000E-01   1.00800           0
     11149 MEMB     84       POPC     HB       HAL2     0.900000E-01   1.00800           0
     11150 MEMB     84       POPC     C2       CTL1     0.170000       12.0110           0
     11151 MEMB     84       POPC     HS       HAL1     0.900000E-01   1.00800           0
     11152 MEMB     84       POPC     O21      OSL     -0.490000       15.9994           0
     11153 MEMB     84       POPC     C21      CL       0.900000       12.0110           0
     11154 MEMB     84       POPC     O22      OBL     -0.630000       15.9994           0
     11155 MEMB     84       POPC     C22      CTL2    -0.220000       12.0110           0
     11156 MEMB     84       POPC     H2R      HAL2     0.900000E-01   1.00800           0
     11157 MEMB     84       POPC     H2S      HAL2     0.900000E-01   1.00800           0
     11158 MEMB     84       POPC     C3       CTL2     0.800000E-01   12.0110           0
     11159 MEMB     84       POPC     HX       HAL2     0.900000E-01   1.00800           0
     11160 MEMB     84       POPC     HY       HAL2     0.900000E-01   1.00800           0
     11161 MEMB     84       POPC     O31      OSL     -0.490000       15.9994           0
     11162 MEMB     84       POPC     C31      CL       0.900000       12.0110           0
     11163 MEMB     84       POPC     O32      OBL     -0.630000       15.9994           0
     11164 MEMB     84       POPC     C32      CTL2    -0.220000       12.0110           0
     11165 MEMB     84       POPC     H2X      HAL2     0.900000E-01   1.00800           0
     11166 MEMB     84       POPC     H2Y      HAL2     0.900000E-01   1.00800           0
     11167 MEMB     84       POPC     C23      CTL2    -0.180000       12.0110           0
     11168 MEMB     84       POPC     H3R      HAL2     0.900000E-01   1.00800           0
     11169 MEMB     84       POPC     H3S      HAL2     0.900000E-01   1.00800           0
     11170 MEMB     84       POPC     C24      CTL2    -0.180000       12.0110           0
     11171 MEMB     84       POPC     H4R      HAL2     0.900000E-01   1.00800           0
     11172 MEMB     84       POPC     H4S      HAL2     0.900000E-01   1.00800           0
     11173 MEMB     84       POPC     C25      CTL2    -0.180000       12.0110           0
     11174 MEMB     84       POPC     H5R      HAL2     0.900000E-01   1.00800           0
     11175 MEMB     84       POPC     H5S      HAL2     0.900000E-01   1.00800           0
     11176 MEMB     84       POPC     C26      CTL2    -0.180000       12.0110           0
     11177 MEMB     84       POPC     H6R      HAL2     0.900000E-01   1.00800           0
     11178 MEMB     84       POPC     H6S      HAL2     0.900000E-01   1.00800           0
     11179 MEMB     84       POPC     C27      CTL2    -0.180000       12.0110           0
     11180 MEMB     84       POPC     H7R      HAL2     0.900000E-01   1.00800           0
     11181 MEMB     84       POPC     H7S      HAL2     0.900000E-01   1.00800           0
     11182 MEMB     84       POPC     C28      CTL2    -0.180000       12.0110           0
     11183 MEMB     84       POPC     H8R      HAL2     0.900000E-01   1.00800           0
     11184 MEMB     84       POPC     H8S      HAL2     0.900000E-01   1.00800           0
     11185 MEMB     84       POPC     C29      CEL1    -0.150000       12.0110           0
     11186 MEMB     84       POPC     H91      HEL1     0.150000       1.00800           0
     11187 MEMB     84       POPC     C210     CEL1    -0.150000       12.0110           0
     11188 MEMB     84       POPC     H101     HEL1     0.150000       1.00800           0
     11189 MEMB     84       POPC     C211     CTL2    -0.180000       12.0110           0
     11190 MEMB     84       POPC     H11R     HAL2     0.900000E-01   1.00800           0
     11191 MEMB     84       POPC     H11S     HAL2     0.900000E-01   1.00800           0
     11192 MEMB     84       POPC     C212     CTL2    -0.180000       12.0110           0
     11193 MEMB     84       POPC     H12R     HAL2     0.900000E-01   1.00800           0
     11194 MEMB     84       POPC     H12S     HAL2     0.900000E-01   1.00800           0
     11195 MEMB     84       POPC     C213     CTL2    -0.180000       12.0110           0
     11196 MEMB     84       POPC     H13R     HAL2     0.900000E-01   1.00800           0
     11197 MEMB     84       POPC     H13S     HAL2     0.900000E-01   1.00800           0
     11198 MEMB     84       POPC     C214     CTL2    -0.180000       12.0110           0
     11199 MEMB     84       POPC     H14R     HAL2     0.900000E-01   1.00800           0
     11200 MEMB     84       POPC     H14S     HAL2     0.900000E-01   1.00800           0
     11201 MEMB     84       POPC     C215     CTL2    -0.180000       12.0110           0
     11202 MEMB     84       POPC     H15R     HAL2     0.900000E-01   1.00800           0
     11203 MEMB     84       POPC     H15S     HAL2     0.900000E-01   1.00800           0
     11204 MEMB     84       POPC     C216     CTL2    -0.180000       12.0110           0
     11205 MEMB     84       POPC     H16R     HAL2     0.900000E-01   1.00800           0
     11206 MEMB     84       POPC     H16S     HAL2     0.900000E-01   1.00800           0
     11207 MEMB     84       POPC     C217     CTL2    -0.180000       12.0110           0
     11208 MEMB     84       POPC     H17R     HAL2     0.900000E-01   1.00800           0
     11209 MEMB     84       POPC     H17S     HAL2     0.900000E-01   1.00800           0
     11210 MEMB     84       POPC     C218     CTL3    -0.270000       12.0110           0
     11211 MEMB     84       POPC     H18R     HAL3     0.900000E-01   1.00800           0
     11212 MEMB     84       POPC     H18S     HAL3     0.900000E-01   1.00800           0
     11213 MEMB     84       POPC     H18T     HAL3     0.900000E-01   1.00800           0
     11214 MEMB     84       POPC     C33      CTL2    -0.180000       12.0110           0
     11215 MEMB     84       POPC     H3X      HAL2     0.900000E-01   1.00800           0
     11216 MEMB     84       POPC     H3Y      HAL2     0.900000E-01   1.00800           0
     11217 MEMB     84       POPC     C34      CTL2    -0.180000       12.0110           0
     11218 MEMB     84       POPC     H4X      HAL2     0.900000E-01   1.00800           0
     11219 MEMB     84       POPC     H4Y      HAL2     0.900000E-01   1.00800           0
     11220 MEMB     84       POPC     C35      CTL2    -0.180000       12.0110           0
     11221 MEMB     84       POPC     H5X      HAL2     0.900000E-01   1.00800           0
     11222 MEMB     84       POPC     H5Y      HAL2     0.900000E-01   1.00800           0
     11223 MEMB     84       POPC     C36      CTL2    -0.180000       12.0110           0
     11224 MEMB     84       POPC     H6X      HAL2     0.900000E-01   1.00800           0
     11225 MEMB     84       POPC     H6Y      HAL2     0.900000E-01   1.00800           0
     11226 MEMB     84       POPC     C37      CTL2    -0.180000       12.0110           0
     11227 MEMB     84       POPC     H7X      HAL2     0.900000E-01   1.00800           0
     11228 MEMB     84       POPC     H7Y      HAL2     0.900000E-01   1.00800           0
     11229 MEMB     84       POPC     C38      CTL2    -0.180000       12.0110           0
     11230 MEMB     84       POPC     H8X      HAL2     0.900000E-01   1.00800           0
     11231 MEMB     84       POPC     H8Y      HAL2     0.900000E-01   1.00800           0
     11232 MEMB     84       POPC     C39      CTL2    -0.180000       12.0110           0
     11233 MEMB     84       POPC     H9X      HAL2     0.900000E-01   1.00800           0
     11234 MEMB     84       POPC     H9Y      HAL2     0.900000E-01   1.00800           0
     11235 MEMB     84       POPC     C310     CTL2    -0.180000       12.0110           0
     11236 MEMB     84       POPC     H10X     HAL2     0.900000E-01   1.00800           0
     11237 MEMB     84       POPC     H10Y     HAL2     0.900000E-01   1.00800           0
     11238 MEMB     84       POPC     C311     CTL2    -0.180000       12.0110           0
     11239 MEMB     84       POPC     H11X     HAL2     0.900000E-01   1.00800           0
     11240 MEMB     84       POPC     H11Y     HAL2     0.900000E-01   1.00800           0
     11241 MEMB     84       POPC     C312     CTL2    -0.180000       12.0110           0
     11242 MEMB     84       POPC     H12X     HAL2     0.900000E-01   1.00800           0
     11243 MEMB     84       POPC     H12Y     HAL2     0.900000E-01   1.00800           0
     11244 MEMB     84       POPC     C313     CTL2    -0.180000       12.0110           0
     11245 MEMB     84       POPC     H13X     HAL2     0.900000E-01   1.00800           0
     11246 MEMB     84       POPC     H13Y     HAL2     0.900000E-01   1.00800           0
     11247 MEMB     84       POPC     C314     CTL2    -0.180000       12.0110           0
     11248 MEMB     84       POPC     H14X     HAL2     0.900000E-01   1.00800           0
     11249 MEMB     84       POPC     H14Y     HAL2     0.900000E-01   1.00800           0
     11250 MEMB     84       POPC     C315     CTL2    -0.180000       12.0110           0
     11251 MEMB     84       POPC     H15X     HAL2     0.900000E-01   1.00800           0
     11252 MEMB     84       POPC     H15Y     HAL2     0.900000E-01   1.00800           0
     11253 MEMB     84       POPC     C316     CTL3    -0.270000       12.0110           0
     11254 MEMB     84       POPC     H16X     HAL3     0.900000E-01   1.00800           0
     11255 MEMB     84       POPC     H16Y     HAL3     0.900000E-01   1.00800           0
     11256 MEMB     84       POPC     H16Z     HAL3     0.900000E-01   1.00800           0
     11257 MEMB     85       POPC     N        NTL     -0.600000       14.0070           0
     11258 MEMB     85       POPC     C12      CTL2    -0.100000       12.0110           0
     11259 MEMB     85       POPC     H12A     HL       0.250000       1.00800           0
     11260 MEMB     85       POPC     H12B     HL       0.250000       1.00800           0
     11261 MEMB     85       POPC     C13      CTL5    -0.350000       12.0110           0
     11262 MEMB     85       POPC     H13A     HL       0.250000       1.00800           0
     11263 MEMB     85       POPC     H13B     HL       0.250000       1.00800           0
     11264 MEMB     85       POPC     H13C     HL       0.250000       1.00800           0
     11265 MEMB     85       POPC     C14      CTL5    -0.350000       12.0110           0
     11266 MEMB     85       POPC     H14A     HL       0.250000       1.00800           0
     11267 MEMB     85       POPC     H14B     HL       0.250000       1.00800           0
     11268 MEMB     85       POPC     H14C     HL       0.250000       1.00800           0
     11269 MEMB     85       POPC     C15      CTL5    -0.350000       12.0110           0
     11270 MEMB     85       POPC     H15A     HL       0.250000       1.00800           0
     11271 MEMB     85       POPC     H15B     HL       0.250000       1.00800           0
     11272 MEMB     85       POPC     H15C     HL       0.250000       1.00800           0
     11273 MEMB     85       POPC     C11      CTL2    -0.800000E-01   12.0110           0
     11274 MEMB     85       POPC     H11A     HAL2     0.900000E-01   1.00800           0
     11275 MEMB     85       POPC     H11B     HAL2     0.900000E-01   1.00800           0
     11276 MEMB     85       POPC     P        PL       1.50000        30.9740           0
     11277 MEMB     85       POPC     O13      O2L     -0.780000       15.9994           0
     11278 MEMB     85       POPC     O14      O2L     -0.780000       15.9994           0
     11279 MEMB     85       POPC     O12      OSLP    -0.570000       15.9994           0
     11280 MEMB     85       POPC     O11      OSLP    -0.570000       15.9994           0
     11281 MEMB     85       POPC     C1       CTL2    -0.800000E-01   12.0110           0
     11282 MEMB     85       POPC     HA       HAL2     0.900000E-01   1.00800           0
     11283 MEMB     85       POPC     HB       HAL2     0.900000E-01   1.00800           0
     11284 MEMB     85       POPC     C2       CTL1     0.170000       12.0110           0
     11285 MEMB     85       POPC     HS       HAL1     0.900000E-01   1.00800           0
     11286 MEMB     85       POPC     O21      OSL     -0.490000       15.9994           0
     11287 MEMB     85       POPC     C21      CL       0.900000       12.0110           0
     11288 MEMB     85       POPC     O22      OBL     -0.630000       15.9994           0
     11289 MEMB     85       POPC     C22      CTL2    -0.220000       12.0110           0
     11290 MEMB     85       POPC     H2R      HAL2     0.900000E-01   1.00800           0
     11291 MEMB     85       POPC     H2S      HAL2     0.900000E-01   1.00800           0
     11292 MEMB     85       POPC     C3       CTL2     0.800000E-01   12.0110           0
     11293 MEMB     85       POPC     HX       HAL2     0.900000E-01   1.00800           0
     11294 MEMB     85       POPC     HY       HAL2     0.900000E-01   1.00800           0
     11295 MEMB     85       POPC     O31      OSL     -0.490000       15.9994           0
     11296 MEMB     85       POPC     C31      CL       0.900000       12.0110           0
     11297 MEMB     85       POPC     O32      OBL     -0.630000       15.9994           0
     11298 MEMB     85       POPC     C32      CTL2    -0.220000       12.0110           0
     11299 MEMB     85       POPC     H2X      HAL2     0.900000E-01   1.00800           0
     11300 MEMB     85       POPC     H2Y      HAL2     0.900000E-01   1.00800           0
     11301 MEMB     85       POPC     C23      CTL2    -0.180000       12.0110           0
     11302 MEMB     85       POPC     H3R      HAL2     0.900000E-01   1.00800           0
     11303 MEMB     85       POPC     H3S      HAL2     0.900000E-01   1.00800           0
     11304 MEMB     85       POPC     C24      CTL2    -0.180000       12.0110           0
     11305 MEMB     85       POPC     H4R      HAL2     0.900000E-01   1.00800           0
     11306 MEMB     85       POPC     H4S      HAL2     0.900000E-01   1.00800           0
     11307 MEMB     85       POPC     C25      CTL2    -0.180000       12.0110           0
     11308 MEMB     85       POPC     H5R      HAL2     0.900000E-01   1.00800           0
     11309 MEMB     85       POPC     H5S      HAL2     0.900000E-01   1.00800           0
     11310 MEMB     85       POPC     C26      CTL2    -0.180000       12.0110           0
     11311 MEMB     85       POPC     H6R      HAL2     0.900000E-01   1.00800           0
     11312 MEMB     85       POPC     H6S      HAL2     0.900000E-01   1.00800           0
     11313 MEMB     85       POPC     C27      CTL2    -0.180000       12.0110           0
     11314 MEMB     85       POPC     H7R      HAL2     0.900000E-01   1.00800           0
     11315 MEMB     85       POPC     H7S      HAL2     0.900000E-01   1.00800           0
     11316 MEMB     85       POPC     C28      CTL2    -0.180000       12.0110           0
     11317 MEMB     85       POPC     H8R      HAL2     0.900000E-01   1.00800           0
     11318 MEMB     85       POPC     H8S      HAL2     0.900000E-01   1.00800           0
     11319 MEMB     85       POPC     C29      CEL1    -0.150000       12.0110           0
     11320 MEMB     85       POPC     H91      HEL1     0.150000       1.00800           0
     11321 MEMB     85       POPC     C210     CEL1    -0.150000       12.0110           0
     11322 MEMB     85       POPC     H101     HEL1     0.150000       1.00800           0
     11323 MEMB     85       POPC     C211     CTL2    -0.180000       12.0110           0
     11324 MEMB     85       POPC     H11R     HAL2     0.900000E-01   1.00800           0
     11325 MEMB     85       POPC     H11S     HAL2     0.900000E-01   1.00800           0
     11326 MEMB     85       POPC     C212     CTL2    -0.180000       12.0110           0
     11327 MEMB     85       POPC     H12R     HAL2     0.900000E-01   1.00800           0
     11328 MEMB     85       POPC     H12S     HAL2     0.900000E-01   1.00800           0
     11329 MEMB     85       POPC     C213     CTL2    -0.180000       12.0110           0
     11330 MEMB     85       POPC     H13R     HAL2     0.900000E-01   1.00800           0
     11331 MEMB     85       POPC     H13S     HAL2     0.900000E-01   1.00800           0
     11332 MEMB     85       POPC     C214     CTL2    -0.180000       12.0110           0
     11333 MEMB     85       POPC     H14R     HAL2     0.900000E-01   1.00800           0
     11334 MEMB     85       POPC     H14S     HAL2     0.900000E-01   1.00800           0
     11335 MEMB     85       POPC     C215     CTL2    -0.180000       12.0110           0
     11336 MEMB     85       POPC     H15R     HAL2     0.900000E-01   1.00800           0
     11337 MEMB     85       POPC     H15S     HAL2     0.900000E-01   1.00800           0
     11338 MEMB     85       POPC     C216     CTL2    -0.180000       12.0110           0
     11339 MEMB     85       POPC     H16R     HAL2     0.900000E-01   1.00800           0
     11340 MEMB     85       POPC     H16S     HAL2     0.900000E-01   1.00800           0
     11341 MEMB     85       POPC     C217     CTL2    -0.180000       12.0110           0
     11342 MEMB     85       POPC     H17R     HAL2     0.900000E-01   1.00800           0
     11343 MEMB     85       POPC     H17S     HAL2     0.900000E-01   1.00800           0
     11344 MEMB     85       POPC     C218     CTL3    -0.270000       12.0110           0
     11345 MEMB     85       POPC     H18R     HAL3     0.900000E-01   1.00800           0
     11346 MEMB     85       POPC     H18S     HAL3     0.900000E-01   1.00800           0
     11347 MEMB     85       POPC     H18T     HAL3     0.900000E-01   1.00800           0
     11348 MEMB     85       POPC     C33      CTL2    -0.180000       12.0110           0
     11349 MEMB     85       POPC     H3X      HAL2     0.900000E-01   1.00800           0
     11350 MEMB     85       POPC     H3Y      HAL2     0.900000E-01   1.00800           0
     11351 MEMB     85       POPC     C34      CTL2    -0.180000       12.0110           0
     11352 MEMB     85       POPC     H4X      HAL2     0.900000E-01   1.00800           0
     11353 MEMB     85       POPC     H4Y      HAL2     0.900000E-01   1.00800           0
     11354 MEMB     85       POPC     C35      CTL2    -0.180000       12.0110           0
     11355 MEMB     85       POPC     H5X      HAL2     0.900000E-01   1.00800           0
     11356 MEMB     85       POPC     H5Y      HAL2     0.900000E-01   1.00800           0
     11357 MEMB     85       POPC     C36      CTL2    -0.180000       12.0110           0
     11358 MEMB     85       POPC     H6X      HAL2     0.900000E-01   1.00800           0
     11359 MEMB     85       POPC     H6Y      HAL2     0.900000E-01   1.00800           0
     11360 MEMB     85       POPC     C37      CTL2    -0.180000       12.0110           0
     11361 MEMB     85       POPC     H7X      HAL2     0.900000E-01   1.00800           0
     11362 MEMB     85       POPC     H7Y      HAL2     0.900000E-01   1.00800           0
     11363 MEMB     85       POPC     C38      CTL2    -0.180000       12.0110           0
     11364 MEMB     85       POPC     H8X      HAL2     0.900000E-01   1.00800           0
     11365 MEMB     85       POPC     H8Y      HAL2     0.900000E-01   1.00800           0
     11366 MEMB     85       POPC     C39      CTL2    -0.180000       12.0110           0
     11367 MEMB     85       POPC     H9X      HAL2     0.900000E-01   1.00800           0
     11368 MEMB     85       POPC     H9Y      HAL2     0.900000E-01   1.00800           0
     11369 MEMB     85       POPC     C310     CTL2    -0.180000       12.0110           0
     11370 MEMB     85       POPC     H10X     HAL2     0.900000E-01   1.00800           0
     11371 MEMB     85       POPC     H10Y     HAL2     0.900000E-01   1.00800           0
     11372 MEMB     85       POPC     C311     CTL2    -0.180000       12.0110           0
     11373 MEMB     85       POPC     H11X     HAL2     0.900000E-01   1.00800           0
     11374 MEMB     85       POPC     H11Y     HAL2     0.900000E-01   1.00800           0
     11375 MEMB     85       POPC     C312     CTL2    -0.180000       12.0110           0
     11376 MEMB     85       POPC     H12X     HAL2     0.900000E-01   1.00800           0
     11377 MEMB     85       POPC     H12Y     HAL2     0.900000E-01   1.00800           0
     11378 MEMB     85       POPC     C313     CTL2    -0.180000       12.0110           0
     11379 MEMB     85       POPC     H13X     HAL2     0.900000E-01   1.00800           0
     11380 MEMB     85       POPC     H13Y     HAL2     0.900000E-01   1.00800           0
     11381 MEMB     85       POPC     C314     CTL2    -0.180000       12.0110           0
     11382 MEMB     85       POPC     H14X     HAL2     0.900000E-01   1.00800           0
     11383 MEMB     85       POPC     H14Y     HAL2     0.900000E-01   1.00800           0
     11384 MEMB     85       POPC     C315     CTL2    -0.180000       12.0110           0
     11385 MEMB     85       POPC     H15X     HAL2     0.900000E-01   1.00800           0
     11386 MEMB     85       POPC     H15Y     HAL2     0.900000E-01   1.00800           0
     11387 MEMB     85       POPC     C316     CTL3    -0.270000       12.0110           0
     11388 MEMB     85       POPC     H16X     HAL3     0.900000E-01   1.00800           0
     11389 MEMB     85       POPC     H16Y     HAL3     0.900000E-01   1.00800           0
     11390 MEMB     85       POPC     H16Z     HAL3     0.900000E-01   1.00800           0
     11391 MEMB     86       POPC     N        NTL     -0.600000       14.0070           0
     11392 MEMB     86       POPC     C12      CTL2    -0.100000       12.0110           0
     11393 MEMB     86       POPC     H12A     HL       0.250000       1.00800           0
     11394 MEMB     86       POPC     H12B     HL       0.250000       1.00800           0
     11395 MEMB     86       POPC     C13      CTL5    -0.350000       12.0110           0
     11396 MEMB     86       POPC     H13A     HL       0.250000       1.00800           0
     11397 MEMB     86       POPC     H13B     HL       0.250000       1.00800           0
     11398 MEMB     86       POPC     H13C     HL       0.250000       1.00800           0
     11399 MEMB     86       POPC     C14      CTL5    -0.350000       12.0110           0
     11400 MEMB     86       POPC     H14A     HL       0.250000       1.00800           0
     11401 MEMB     86       POPC     H14B     HL       0.250000       1.00800           0
     11402 MEMB     86       POPC     H14C     HL       0.250000       1.00800           0
     11403 MEMB     86       POPC     C15      CTL5    -0.350000       12.0110           0
     11404 MEMB     86       POPC     H15A     HL       0.250000       1.00800           0
     11405 MEMB     86       POPC     H15B     HL       0.250000       1.00800           0
     11406 MEMB     86       POPC     H15C     HL       0.250000       1.00800           0
     11407 MEMB     86       POPC     C11      CTL2    -0.800000E-01   12.0110           0
     11408 MEMB     86       POPC     H11A     HAL2     0.900000E-01   1.00800           0
     11409 MEMB     86       POPC     H11B     HAL2     0.900000E-01   1.00800           0
     11410 MEMB     86       POPC     P        PL       1.50000        30.9740           0
     11411 MEMB     86       POPC     O13      O2L     -0.780000       15.9994           0
     11412 MEMB     86       POPC     O14      O2L     -0.780000       15.9994           0
     11413 MEMB     86       POPC     O12      OSLP    -0.570000       15.9994           0
     11414 MEMB     86       POPC     O11      OSLP    -0.570000       15.9994           0
     11415 MEMB     86       POPC     C1       CTL2    -0.800000E-01   12.0110           0
     11416 MEMB     86       POPC     HA       HAL2     0.900000E-01   1.00800           0
     11417 MEMB     86       POPC     HB       HAL2     0.900000E-01   1.00800           0
     11418 MEMB     86       POPC     C2       CTL1     0.170000       12.0110           0
     11419 MEMB     86       POPC     HS       HAL1     0.900000E-01   1.00800           0
     11420 MEMB     86       POPC     O21      OSL     -0.490000       15.9994           0
     11421 MEMB     86       POPC     C21      CL       0.900000       12.0110           0
     11422 MEMB     86       POPC     O22      OBL     -0.630000       15.9994           0
     11423 MEMB     86       POPC     C22      CTL2    -0.220000       12.0110           0
     11424 MEMB     86       POPC     H2R      HAL2     0.900000E-01   1.00800           0
     11425 MEMB     86       POPC     H2S      HAL2     0.900000E-01   1.00800           0
     11426 MEMB     86       POPC     C3       CTL2     0.800000E-01   12.0110           0
     11427 MEMB     86       POPC     HX       HAL2     0.900000E-01   1.00800           0
     11428 MEMB     86       POPC     HY       HAL2     0.900000E-01   1.00800           0
     11429 MEMB     86       POPC     O31      OSL     -0.490000       15.9994           0
     11430 MEMB     86       POPC     C31      CL       0.900000       12.0110           0
     11431 MEMB     86       POPC     O32      OBL     -0.630000       15.9994           0
     11432 MEMB     86       POPC     C32      CTL2    -0.220000       12.0110           0
     11433 MEMB     86       POPC     H2X      HAL2     0.900000E-01   1.00800           0
     11434 MEMB     86       POPC     H2Y      HAL2     0.900000E-01   1.00800           0
     11435 MEMB     86       POPC     C23      CTL2    -0.180000       12.0110           0
     11436 MEMB     86       POPC     H3R      HAL2     0.900000E-01   1.00800           0
     11437 MEMB     86       POPC     H3S      HAL2     0.900000E-01   1.00800           0
     11438 MEMB     86       POPC     C24      CTL2    -0.180000       12.0110           0
     11439 MEMB     86       POPC     H4R      HAL2     0.900000E-01   1.00800           0
     11440 MEMB     86       POPC     H4S      HAL2     0.900000E-01   1.00800           0
     11441 MEMB     86       POPC     C25      CTL2    -0.180000       12.0110           0
     11442 MEMB     86       POPC     H5R      HAL2     0.900000E-01   1.00800           0
     11443 MEMB     86       POPC     H5S      HAL2     0.900000E-01   1.00800           0
     11444 MEMB     86       POPC     C26      CTL2    -0.180000       12.0110           0
     11445 MEMB     86       POPC     H6R      HAL2     0.900000E-01   1.00800           0
     11446 MEMB     86       POPC     H6S      HAL2     0.900000E-01   1.00800           0
     11447 MEMB     86       POPC     C27      CTL2    -0.180000       12.0110           0
     11448 MEMB     86       POPC     H7R      HAL2     0.900000E-01   1.00800           0
     11449 MEMB     86       POPC     H7S      HAL2     0.900000E-01   1.00800           0
     11450 MEMB     86       POPC     C28      CTL2    -0.180000       12.0110           0
     11451 MEMB     86       POPC     H8R      HAL2     0.900000E-01   1.00800           0
     11452 MEMB     86       POPC     H8S      HAL2     0.900000E-01   1.00800           0
     11453 MEMB     86       POPC     C29      CEL1    -0.150000       12.0110           0
     11454 MEMB     86       POPC     H91      HEL1     0.150000       1.00800           0
     11455 MEMB     86       POPC     C210     CEL1    -0.150000       12.0110           0
     11456 MEMB     86       POPC     H101     HEL1     0.150000       1.00800           0
     11457 MEMB     86       POPC     C211     CTL2    -0.180000       12.0110           0
     11458 MEMB     86       POPC     H11R     HAL2     0.900000E-01   1.00800           0
     11459 MEMB     86       POPC     H11S     HAL2     0.900000E-01   1.00800           0
     11460 MEMB     86       POPC     C212     CTL2    -0.180000       12.0110           0
     11461 MEMB     86       POPC     H12R     HAL2     0.900000E-01   1.00800           0
     11462 MEMB     86       POPC     H12S     HAL2     0.900000E-01   1.00800           0
     11463 MEMB     86       POPC     C213     CTL2    -0.180000       12.0110           0
     11464 MEMB     86       POPC     H13R     HAL2     0.900000E-01   1.00800           0
     11465 MEMB     86       POPC     H13S     HAL2     0.900000E-01   1.00800           0
     11466 MEMB     86       POPC     C214     CTL2    -0.180000       12.0110           0
     11467 MEMB     86       POPC     H14R     HAL2     0.900000E-01   1.00800           0
     11468 MEMB     86       POPC     H14S     HAL2     0.900000E-01   1.00800           0
     11469 MEMB     86       POPC     C215     CTL2    -0.180000       12.0110           0
     11470 MEMB     86       POPC     H15R     HAL2     0.900000E-01   1.00800           0
     11471 MEMB     86       POPC     H15S     HAL2     0.900000E-01   1.00800           0
     11472 MEMB     86       POPC     C216     CTL2    -0.180000       12.0110           0
     11473 MEMB     86       POPC     H16R     HAL2     0.900000E-01   1.00800           0
     11474 MEMB     86       POPC     H16S     HAL2     0.900000E-01   1.00800           0
     11475 MEMB     86       POPC     C217     CTL2    -0.180000       12.0110           0
     11476 MEMB     86       POPC     H17R     HAL2     0.900000E-01   1.00800           0
     11477 MEMB     86       POPC     H17S     HAL2     0.900000E-01   1.00800           0
     11478 MEMB     86       POPC     C218     CTL3    -0.270000       12.0110           0
     11479 MEMB     86       POPC     H18R     HAL3     0.900000E-01   1.00800           0
     11480 MEMB     86       POPC     H18S     HAL3     0.900000E-01   1.00800           0
     11481 MEMB     86       POPC     H18T     HAL3     0.900000E-01   1.00800           0
     11482 MEMB     86       POPC     C33      CTL2    -0.180000       12.0110           0
     11483 MEMB     86       POPC     H3X      HAL2     0.900000E-01   1.00800           0
     11484 MEMB     86       POPC     H3Y      HAL2     0.900000E-01   1.00800           0
     11485 MEMB     86       POPC     C34      CTL2    -0.180000       12.0110           0
     11486 MEMB     86       POPC     H4X      HAL2     0.900000E-01   1.00800           0
     11487 MEMB     86       POPC     H4Y      HAL2     0.900000E-01   1.00800           0
     11488 MEMB     86       POPC     C35      CTL2    -0.180000       12.0110           0
     11489 MEMB     86       POPC     H5X      HAL2     0.900000E-01   1.00800           0
     11490 MEMB     86       POPC     H5Y      HAL2     0.900000E-01   1.00800           0
     11491 MEMB     86       POPC     C36      CTL2    -0.180000       12.0110           0
     11492 MEMB     86       POPC     H6X      HAL2     0.900000E-01   1.00800           0
     11493 MEMB     86       POPC     H6Y      HAL2     0.900000E-01   1.00800           0
     11494 MEMB     86       POPC     C37      CTL2    -0.180000       12.0110           0
     11495 MEMB     86       POPC     H7X      HAL2     0.900000E-01   1.00800           0
     11496 MEMB     86       POPC     H7Y      HAL2     0.900000E-01   1.00800           0
     11497 MEMB     86       POPC     C38      CTL2    -0.180000       12.0110           0
     11498 MEMB     86       POPC     H8X      HAL2     0.900000E-01   1.00800           0
     11499 MEMB     86       POPC     H8Y      HAL2     0.900000E-01   1.00800           0
     11500 MEMB     86       POPC     C39      CTL2    -0.180000       12.0110           0
     11501 MEMB     86       POPC     H9X      HAL2     0.900000E-01   1.00800           0
     11502 MEMB     86       POPC     H9Y      HAL2     0.900000E-01   1.00800           0
     11503 MEMB     86       POPC     C310     CTL2    -0.180000       12.0110           0
     11504 MEMB     86       POPC     H10X     HAL2     0.900000E-01   1.00800           0
     11505 MEMB     86       POPC     H10Y     HAL2     0.900000E-01   1.00800           0
     11506 MEMB     86       POPC     C311     CTL2    -0.180000       12.0110           0
     11507 MEMB     86       POPC     H11X     HAL2     0.900000E-01   1.00800           0
     11508 MEMB     86       POPC     H11Y     HAL2     0.900000E-01   1.00800           0
     11509 MEMB     86       POPC     C312     CTL2    -0.180000       12.0110           0
     11510 MEMB     86       POPC     H12X     HAL2     0.900000E-01   1.00800           0
     11511 MEMB     86       POPC     H12Y     HAL2     0.900000E-01   1.00800           0
     11512 MEMB     86       POPC     C313     CTL2    -0.180000       12.0110           0
     11513 MEMB     86       POPC     H13X     HAL2     0.900000E-01   1.00800           0
     11514 MEMB     86       POPC     H13Y     HAL2     0.900000E-01   1.00800           0
     11515 MEMB     86       POPC     C314     CTL2    -0.180000       12.0110           0
     11516 MEMB     86       POPC     H14X     HAL2     0.900000E-01   1.00800           0
     11517 MEMB     86       POPC     H14Y     HAL2     0.900000E-01   1.00800           0
     11518 MEMB     86       POPC     C315     CTL2    -0.180000       12.0110           0
     11519 MEMB     86       POPC     H15X     HAL2     0.900000E-01   1.00800           0
     11520 MEMB     86       POPC     H15Y     HAL2     0.900000E-01   1.00800           0
     11521 MEMB     86       POPC     C316     CTL3    -0.270000       12.0110           0
     11522 MEMB     86       POPC     H16X     HAL3     0.900000E-01   1.00800           0
     11523 MEMB     86       POPC     H16Y     HAL3     0.900000E-01   1.00800           0
     11524 MEMB     86       POPC     H16Z     HAL3     0.900000E-01   1.00800           0
     11525 MEMB     87       POPC     N        NTL     -0.600000       14.0070           0
     11526 MEMB     87       POPC     C12      CTL2    -0.100000       12.0110           0
     11527 MEMB     87       POPC     H12A     HL       0.250000       1.00800           0
     11528 MEMB     87       POPC     H12B     HL       0.250000       1.00800           0
     11529 MEMB     87       POPC     C13      CTL5    -0.350000       12.0110           0
     11530 MEMB     87       POPC     H13A     HL       0.250000       1.00800           0
     11531 MEMB     87       POPC     H13B     HL       0.250000       1.00800           0
     11532 MEMB     87       POPC     H13C     HL       0.250000       1.00800           0
     11533 MEMB     87       POPC     C14      CTL5    -0.350000       12.0110           0
     11534 MEMB     87       POPC     H14A     HL       0.250000       1.00800           0
     11535 MEMB     87       POPC     H14B     HL       0.250000       1.00800           0
     11536 MEMB     87       POPC     H14C     HL       0.250000       1.00800           0
     11537 MEMB     87       POPC     C15      CTL5    -0.350000       12.0110           0
     11538 MEMB     87       POPC     H15A     HL       0.250000       1.00800           0
     11539 MEMB     87       POPC     H15B     HL       0.250000       1.00800           0
     11540 MEMB     87       POPC     H15C     HL       0.250000       1.00800           0
     11541 MEMB     87       POPC     C11      CTL2    -0.800000E-01   12.0110           0
     11542 MEMB     87       POPC     H11A     HAL2     0.900000E-01   1.00800           0
     11543 MEMB     87       POPC     H11B     HAL2     0.900000E-01   1.00800           0
     11544 MEMB     87       POPC     P        PL       1.50000        30.9740           0
     11545 MEMB     87       POPC     O13      O2L     -0.780000       15.9994           0
     11546 MEMB     87       POPC     O14      O2L     -0.780000       15.9994           0
     11547 MEMB     87       POPC     O12      OSLP    -0.570000       15.9994           0
     11548 MEMB     87       POPC     O11      OSLP    -0.570000       15.9994           0
     11549 MEMB     87       POPC     C1       CTL2    -0.800000E-01   12.0110           0
     11550 MEMB     87       POPC     HA       HAL2     0.900000E-01   1.00800           0
     11551 MEMB     87       POPC     HB       HAL2     0.900000E-01   1.00800           0
     11552 MEMB     87       POPC     C2       CTL1     0.170000       12.0110           0
     11553 MEMB     87       POPC     HS       HAL1     0.900000E-01   1.00800           0
     11554 MEMB     87       POPC     O21      OSL     -0.490000       15.9994           0
     11555 MEMB     87       POPC     C21      CL       0.900000       12.0110           0
     11556 MEMB     87       POPC     O22      OBL     -0.630000       15.9994           0
     11557 MEMB     87       POPC     C22      CTL2    -0.220000       12.0110           0
     11558 MEMB     87       POPC     H2R      HAL2     0.900000E-01   1.00800           0
     11559 MEMB     87       POPC     H2S      HAL2     0.900000E-01   1.00800           0
     11560 MEMB     87       POPC     C3       CTL2     0.800000E-01   12.0110           0
     11561 MEMB     87       POPC     HX       HAL2     0.900000E-01   1.00800           0
     11562 MEMB     87       POPC     HY       HAL2     0.900000E-01   1.00800           0
     11563 MEMB     87       POPC     O31      OSL     -0.490000       15.9994           0
     11564 MEMB     87       POPC     C31      CL       0.900000       12.0110           0
     11565 MEMB     87       POPC     O32      OBL     -0.630000       15.9994           0
     11566 MEMB     87       POPC     C32      CTL2    -0.220000       12.0110           0
     11567 MEMB     87       POPC     H2X      HAL2     0.900000E-01   1.00800           0
     11568 MEMB     87       POPC     H2Y      HAL2     0.900000E-01   1.00800           0
     11569 MEMB     87       POPC     C23      CTL2    -0.180000       12.0110           0
     11570 MEMB     87       POPC     H3R      HAL2     0.900000E-01   1.00800           0
     11571 MEMB     87       POPC     H3S      HAL2     0.900000E-01   1.00800           0
     11572 MEMB     87       POPC     C24      CTL2    -0.180000       12.0110           0
     11573 MEMB     87       POPC     H4R      HAL2     0.900000E-01   1.00800           0
     11574 MEMB     87       POPC     H4S      HAL2     0.900000E-01   1.00800           0
     11575 MEMB     87       POPC     C25      CTL2    -0.180000       12.0110           0
     11576 MEMB     87       POPC     H5R      HAL2     0.900000E-01   1.00800           0
     11577 MEMB     87       POPC     H5S      HAL2     0.900000E-01   1.00800           0
     11578 MEMB     87       POPC     C26      CTL2    -0.180000       12.0110           0
     11579 MEMB     87       POPC     H6R      HAL2     0.900000E-01   1.00800           0
     11580 MEMB     87       POPC     H6S      HAL2     0.900000E-01   1.00800           0
     11581 MEMB     87       POPC     C27      CTL2    -0.180000       12.0110           0
     11582 MEMB     87       POPC     H7R      HAL2     0.900000E-01   1.00800           0
     11583 MEMB     87       POPC     H7S      HAL2     0.900000E-01   1.00800           0
     11584 MEMB     87       POPC     C28      CTL2    -0.180000       12.0110           0
     11585 MEMB     87       POPC     H8R      HAL2     0.900000E-01   1.00800           0
     11586 MEMB     87       POPC     H8S      HAL2     0.900000E-01   1.00800           0
     11587 MEMB     87       POPC     C29      CEL1    -0.150000       12.0110           0
     11588 MEMB     87       POPC     H91      HEL1     0.150000       1.00800           0
     11589 MEMB     87       POPC     C210     CEL1    -0.150000       12.0110           0
     11590 MEMB     87       POPC     H101     HEL1     0.150000       1.00800           0
     11591 MEMB     87       POPC     C211     CTL2    -0.180000       12.0110           0
     11592 MEMB     87       POPC     H11R     HAL2     0.900000E-01   1.00800           0
     11593 MEMB     87       POPC     H11S     HAL2     0.900000E-01   1.00800           0
     11594 MEMB     87       POPC     C212     CTL2    -0.180000       12.0110           0
     11595 MEMB     87       POPC     H12R     HAL2     0.900000E-01   1.00800           0
     11596 MEMB     87       POPC     H12S     HAL2     0.900000E-01   1.00800           0
     11597 MEMB     87       POPC     C213     CTL2    -0.180000       12.0110           0
     11598 MEMB     87       POPC     H13R     HAL2     0.900000E-01   1.00800           0
     11599 MEMB     87       POPC     H13S     HAL2     0.900000E-01   1.00800           0
     11600 MEMB     87       POPC     C214     CTL2    -0.180000       12.0110           0
     11601 MEMB     87       POPC     H14R     HAL2     0.900000E-01   1.00800           0
     11602 MEMB     87       POPC     H14S     HAL2     0.900000E-01   1.00800           0
     11603 MEMB     87       POPC     C215     CTL2    -0.180000       12.0110           0
     11604 MEMB     87       POPC     H15R     HAL2     0.900000E-01   1.00800           0
     11605 MEMB     87       POPC     H15S     HAL2     0.900000E-01   1.00800           0
     11606 MEMB     87       POPC     C216     CTL2    -0.180000       12.0110           0
     11607 MEMB     87       POPC     H16R     HAL2     0.900000E-01   1.00800           0
     11608 MEMB     87       POPC     H16S     HAL2     0.900000E-01   1.00800           0
     11609 MEMB     87       POPC     C217     CTL2    -0.180000       12.0110           0
     11610 MEMB     87       POPC     H17R     HAL2     0.900000E-01   1.00800           0
     11611 MEMB     87       POPC     H17S     HAL2     0.900000E-01   1.00800           0
     11612 MEMB     87       POPC     C218     CTL3    -0.270000       12.0110           0
     11613 MEMB     87       POPC     H18R     HAL3     0.900000E-01   1.00800           0
     11614 MEMB     87       POPC     H18S     HAL3     0.900000E-01   1.00800           0
     11615 MEMB     87       POPC     H18T     HAL3     0.900000E-01   1.00800           0
     11616 MEMB     87       POPC     C33      CTL2    -0.180000       12.0110           0
     11617 MEMB     87       POPC     H3X      HAL2     0.900000E-01   1.00800           0
     11618 MEMB     87       POPC     H3Y      HAL2     0.900000E-01   1.00800           0
     11619 MEMB     87       POPC     C34      CTL2    -0.180000       12.0110           0
     11620 MEMB     87       POPC     H4X      HAL2     0.900000E-01   1.00800           0
     11621 MEMB     87       POPC     H4Y      HAL2     0.900000E-01   1.00800           0
     11622 MEMB     87       POPC     C35      CTL2    -0.180000       12.0110           0
     11623 MEMB     87       POPC     H5X      HAL2     0.900000E-01   1.00800           0
     11624 MEMB     87       POPC     H5Y      HAL2     0.900000E-01   1.00800           0
     11625 MEMB     87       POPC     C36      CTL2    -0.180000       12.0110           0
     11626 MEMB     87       POPC     H6X      HAL2     0.900000E-01   1.00800           0
     11627 MEMB     87       POPC     H6Y      HAL2     0.900000E-01   1.00800           0
     11628 MEMB     87       POPC     C37      CTL2    -0.180000       12.0110           0
     11629 MEMB     87       POPC     H7X      HAL2     0.900000E-01   1.00800           0
     11630 MEMB     87       POPC     H7Y      HAL2     0.900000E-01   1.00800           0
     11631 MEMB     87       POPC     C38      CTL2    -0.180000       12.0110           0
     11632 MEMB     87       POPC     H8X      HAL2     0.900000E-01   1.00800           0
     11633 MEMB     87       POPC     H8Y      HAL2     0.900000E-01   1.00800           0
     11634 MEMB     87       POPC     C39      CTL2    -0.180000       12.0110           0
     11635 MEMB     87       POPC     H9X      HAL2     0.900000E-01   1.00800           0
     11636 MEMB     87       POPC     H9Y      HAL2     0.900000E-01   1.00800           0
     11637 MEMB     87       POPC     C310     CTL2    -0.180000       12.0110           0
     11638 MEMB     87       POPC     H10X     HAL2     0.900000E-01   1.00800           0
     11639 MEMB     87       POPC     H10Y     HAL2     0.900000E-01   1.00800           0
     11640 MEMB     87       POPC     C311     CTL2    -0.180000       12.0110           0
     11641 MEMB     87       POPC     H11X     HAL2     0.900000E-01   1.00800           0
     11642 MEMB     87       POPC     H11Y     HAL2     0.900000E-01   1.00800           0
     11643 MEMB     87       POPC     C312     CTL2    -0.180000       12.0110           0
     11644 MEMB     87       POPC     H12X     HAL2     0.900000E-01   1.00800           0
     11645 MEMB     87       POPC     H12Y     HAL2     0.900000E-01   1.00800           0
     11646 MEMB     87       POPC     C313     CTL2    -0.180000       12.0110           0
     11647 MEMB     87       POPC     H13X     HAL2     0.900000E-01   1.00800           0
     11648 MEMB     87       POPC     H13Y     HAL2     0.900000E-01   1.00800           0
     11649 MEMB     87       POPC     C314     CTL2    -0.180000       12.0110           0
     11650 MEMB     87       POPC     H14X     HAL2     0.900000E-01   1.00800           0
     11651 MEMB     87       POPC     H14Y     HAL2     0.900000E-01   1.00800           0
     11652 MEMB     87       POPC     C315     CTL2    -0.180000       12.0110           0
     11653 MEMB     87       POPC     H15X     HAL2     0.900000E-01   1.00800           0
     11654 MEMB     87       POPC     H15Y     HAL2     0.900000E-01   1.00800           0
     11655 MEMB     87       POPC     C316     CTL3    -0.270000       12.0110           0
     11656 MEMB     87       POPC     H16X     HAL3     0.900000E-01   1.00800           0
     11657 MEMB     87       POPC     H16Y     HAL3     0.900000E-01   1.00800           0
     11658 MEMB     87       POPC     H16Z     HAL3     0.900000E-01   1.00800           0
     11659 MEMB     88       POPC     N        NTL     -0.600000       14.0070           0
     11660 MEMB     88       POPC     C12      CTL2    -0.100000       12.0110           0
     11661 MEMB     88       POPC     H12A     HL       0.250000       1.00800           0
     11662 MEMB     88       POPC     H12B     HL       0.250000       1.00800           0
     11663 MEMB     88       POPC     C13      CTL5    -0.350000       12.0110           0
     11664 MEMB     88       POPC     H13A     HL       0.250000       1.00800           0
     11665 MEMB     88       POPC     H13B     HL       0.250000       1.00800           0
     11666 MEMB     88       POPC     H13C     HL       0.250000       1.00800           0
     11667 MEMB     88       POPC     C14      CTL5    -0.350000       12.0110           0
     11668 MEMB     88       POPC     H14A     HL       0.250000       1.00800           0
     11669 MEMB     88       POPC     H14B     HL       0.250000       1.00800           0
     11670 MEMB     88       POPC     H14C     HL       0.250000       1.00800           0
     11671 MEMB     88       POPC     C15      CTL5    -0.350000       12.0110           0
     11672 MEMB     88       POPC     H15A     HL       0.250000       1.00800           0
     11673 MEMB     88       POPC     H15B     HL       0.250000       1.00800           0
     11674 MEMB     88       POPC     H15C     HL       0.250000       1.00800           0
     11675 MEMB     88       POPC     C11      CTL2    -0.800000E-01   12.0110           0
     11676 MEMB     88       POPC     H11A     HAL2     0.900000E-01   1.00800           0
     11677 MEMB     88       POPC     H11B     HAL2     0.900000E-01   1.00800           0
     11678 MEMB     88       POPC     P        PL       1.50000        30.9740           0
     11679 MEMB     88       POPC     O13      O2L     -0.780000       15.9994           0
     11680 MEMB     88       POPC     O14      O2L     -0.780000       15.9994           0
     11681 MEMB     88       POPC     O12      OSLP    -0.570000       15.9994           0
     11682 MEMB     88       POPC     O11      OSLP    -0.570000       15.9994           0
     11683 MEMB     88       POPC     C1       CTL2    -0.800000E-01   12.0110           0
     11684 MEMB     88       POPC     HA       HAL2     0.900000E-01   1.00800           0
     11685 MEMB     88       POPC     HB       HAL2     0.900000E-01   1.00800           0
     11686 MEMB     88       POPC     C2       CTL1     0.170000       12.0110           0
     11687 MEMB     88       POPC     HS       HAL1     0.900000E-01   1.00800           0
     11688 MEMB     88       POPC     O21      OSL     -0.490000       15.9994           0
     11689 MEMB     88       POPC     C21      CL       0.900000       12.0110           0
     11690 MEMB     88       POPC     O22      OBL     -0.630000       15.9994           0
     11691 MEMB     88       POPC     C22      CTL2    -0.220000       12.0110           0
     11692 MEMB     88       POPC     H2R      HAL2     0.900000E-01   1.00800           0
     11693 MEMB     88       POPC     H2S      HAL2     0.900000E-01   1.00800           0
     11694 MEMB     88       POPC     C3       CTL2     0.800000E-01   12.0110           0
     11695 MEMB     88       POPC     HX       HAL2     0.900000E-01   1.00800           0
     11696 MEMB     88       POPC     HY       HAL2     0.900000E-01   1.00800           0
     11697 MEMB     88       POPC     O31      OSL     -0.490000       15.9994           0
     11698 MEMB     88       POPC     C31      CL       0.900000       12.0110           0
     11699 MEMB     88       POPC     O32      OBL     -0.630000       15.9994           0
     11700 MEMB     88       POPC     C32      CTL2    -0.220000       12.0110           0
     11701 MEMB     88       POPC     H2X      HAL2     0.900000E-01   1.00800           0
     11702 MEMB     88       POPC     H2Y      HAL2     0.900000E-01   1.00800           0
     11703 MEMB     88       POPC     C23      CTL2    -0.180000       12.0110           0
     11704 MEMB     88       POPC     H3R      HAL2     0.900000E-01   1.00800           0
     11705 MEMB     88       POPC     H3S      HAL2     0.900000E-01   1.00800           0
     11706 MEMB     88       POPC     C24      CTL2    -0.180000       12.0110           0
     11707 MEMB     88       POPC     H4R      HAL2     0.900000E-01   1.00800           0
     11708 MEMB     88       POPC     H4S      HAL2     0.900000E-01   1.00800           0
     11709 MEMB     88       POPC     C25      CTL2    -0.180000       12.0110           0
     11710 MEMB     88       POPC     H5R      HAL2     0.900000E-01   1.00800           0
     11711 MEMB     88       POPC     H5S      HAL2     0.900000E-01   1.00800           0
     11712 MEMB     88       POPC     C26      CTL2    -0.180000       12.0110           0
     11713 MEMB     88       POPC     H6R      HAL2     0.900000E-01   1.00800           0
     11714 MEMB     88       POPC     H6S      HAL2     0.900000E-01   1.00800           0
     11715 MEMB     88       POPC     C27      CTL2    -0.180000       12.0110           0
     11716 MEMB     88       POPC     H7R      HAL2     0.900000E-01   1.00800           0
     11717 MEMB     88       POPC     H7S      HAL2     0.900000E-01   1.00800           0
     11718 MEMB     88       POPC     C28      CTL2    -0.180000       12.0110           0
     11719 MEMB     88       POPC     H8R      HAL2     0.900000E-01   1.00800           0
     11720 MEMB     88       POPC     H8S      HAL2     0.900000E-01   1.00800           0
     11721 MEMB     88       POPC     C29      CEL1    -0.150000       12.0110           0
     11722 MEMB     88       POPC     H91      HEL1     0.150000       1.00800           0
     11723 MEMB     88       POPC     C210     CEL1    -0.150000       12.0110           0
     11724 MEMB     88       POPC     H101     HEL1     0.150000       1.00800           0
     11725 MEMB     88       POPC     C211     CTL2    -0.180000       12.0110           0
     11726 MEMB     88       POPC     H11R     HAL2     0.900000E-01   1.00800           0
     11727 MEMB     88       POPC     H11S     HAL2     0.900000E-01   1.00800           0
     11728 MEMB     88       POPC     C212     CTL2    -0.180000       12.0110           0
     11729 MEMB     88       POPC     H12R     HAL2     0.900000E-01   1.00800           0
     11730 MEMB     88       POPC     H12S     HAL2     0.900000E-01   1.00800           0
     11731 MEMB     88       POPC     C213     CTL2    -0.180000       12.0110           0
     11732 MEMB     88       POPC     H13R     HAL2     0.900000E-01   1.00800           0
     11733 MEMB     88       POPC     H13S     HAL2     0.900000E-01   1.00800           0
     11734 MEMB     88       POPC     C214     CTL2    -0.180000       12.0110           0
     11735 MEMB     88       POPC     H14R     HAL2     0.900000E-01   1.00800           0
     11736 MEMB     88       POPC     H14S     HAL2     0.900000E-01   1.00800           0
     11737 MEMB     88       POPC     C215     CTL2    -0.180000       12.0110           0
     11738 MEMB     88       POPC     H15R     HAL2     0.900000E-01   1.00800           0
     11739 MEMB     88       POPC     H15S     HAL2     0.900000E-01   1.00800           0
     11740 MEMB     88       POPC     C216     CTL2    -0.180000       12.0110           0
     11741 MEMB     88       POPC     H16R     HAL2     0.900000E-01   1.00800           0
     11742 MEMB     88       POPC     H16S     HAL2     0.900000E-01   1.00800           0
     11743 MEMB     88       POPC     C217     CTL2    -0.180000       12.0110           0
     11744 MEMB     88       POPC     H17R     HAL2     0.900000E-01   1.00800           0
     11745 MEMB     88       POPC     H17S     HAL2     0.900000E-01   1.00800           0
     11746 MEMB     88       POPC     C218     CTL3    -0.270000       12.0110           0
     11747 MEMB     88       POPC     H18R     HAL3     0.900000E-01   1.00800           0
     11748 MEMB     88       POPC     H18S     HAL3     0.900000E-01   1.00800           0
     11749 MEMB     88       POPC     H18T     HAL3     0.900000E-01   1.00800           0
     11750 MEMB     88       POPC     C33      CTL2    -0.180000       12.0110           0
     11751 MEMB     88       POPC     H3X      HAL2     0.900000E-01   1.00800           0
     11752 MEMB     88       POPC     H3Y      HAL2     0.900000E-01   1.00800           0
     11753 MEMB     88       POPC     C34      CTL2    -0.180000       12.0110           0
     11754 MEMB     88       POPC     H4X      HAL2     0.900000E-01   1.00800           0
     11755 MEMB     88       POPC     H4Y      HAL2     0.900000E-01   1.00800           0
     11756 MEMB     88       POPC     C35      CTL2    -0.180000       12.0110           0
     11757 MEMB     88       POPC     H5X      HAL2     0.900000E-01   1.00800           0
     11758 MEMB     88       POPC     H5Y      HAL2     0.900000E-01   1.00800           0
     11759 MEMB     88       POPC     C36      CTL2    -0.180000       12.0110           0
     11760 MEMB     88       POPC     H6X      HAL2     0.900000E-01   1.00800           0
     11761 MEMB     88       POPC     H6Y      HAL2     0.900000E-01   1.00800           0
     11762 MEMB     88       POPC     C37      CTL2    -0.180000       12.0110           0
     11763 MEMB     88       POPC     H7X      HAL2     0.900000E-01   1.00800           0
     11764 MEMB     88       POPC     H7Y      HAL2     0.900000E-01   1.00800           0
     11765 MEMB     88       POPC     C38      CTL2    -0.180000       12.0110           0
     11766 MEMB     88       POPC     H8X      HAL2     0.900000E-01   1.00800           0
     11767 MEMB     88       POPC     H8Y      HAL2     0.900000E-01   1.00800           0
     11768 MEMB     88       POPC     C39      CTL2    -0.180000       12.0110           0
     11769 MEMB     88       POPC     H9X      HAL2     0.900000E-01   1.00800           0
     11770 MEMB     88       POPC     H9Y      HAL2     0.900000E-01   1.00800           0
     11771 MEMB     88       POPC     C310     CTL2    -0.180000       12.0110           0
     11772 MEMB     88       POPC     H10X     HAL2     0.900000E-01   1.00800           0
     11773 MEMB     88       POPC     H10Y     HAL2     0.900000E-01   1.00800           0
     11774 MEMB     88       POPC     C311     CTL2    -0.180000       12.0110           0
     11775 MEMB     88       POPC     H11X     HAL2     0.900000E-01   1.00800           0
     11776 MEMB     88       POPC     H11Y     HAL2     0.900000E-01   1.00800           0
     11777 MEMB     88       POPC     C312     CTL2    -0.180000       12.0110           0
     11778 MEMB     88       POPC     H12X     HAL2     0.900000E-01   1.00800           0
     11779 MEMB     88       POPC     H12Y     HAL2     0.900000E-01   1.00800           0
     11780 MEMB     88       POPC     C313     CTL2    -0.180000       12.0110           0
     11781 MEMB     88       POPC     H13X     HAL2     0.900000E-01   1.00800           0
     11782 MEMB     88       POPC     H13Y     HAL2     0.900000E-01   1.00800           0
     11783 MEMB     88       POPC     C314     CTL2    -0.180000       12.0110           0
     11784 MEMB     88       POPC     H14X     HAL2     0.900000E-01   1.00800           0
     11785 MEMB     88       POPC     H14Y     HAL2     0.900000E-01   1.00800           0
     11786 MEMB     88       POPC     C315     CTL2    -0.180000       12.0110           0
     11787 MEMB     88       POPC     H15X     HAL2     0.900000E-01   1.00800           0
     11788 MEMB     88       POPC     H15Y     HAL2     0.900000E-01   1.00800           0
     11789 MEMB     88       POPC     C316     CTL3    -0.270000       12.0110           0
     11790 MEMB     88       POPC     H16X     HAL3     0.900000E-01   1.00800           0
     11791 MEMB     88       POPC     H16Y     HAL3     0.900000E-01   1.00800           0
     11792 MEMB     88       POPC     H16Z     HAL3     0.900000E-01   1.00800           0
     11793 MEMB     89       POPC     N        NTL     -0.600000       14.0070           0
     11794 MEMB     89       POPC     C12      CTL2    -0.100000       12.0110           0
     11795 MEMB     89       POPC     H12A     HL       0.250000       1.00800           0
     11796 MEMB     89       POPC     H12B     HL       0.250000       1.00800           0
     11797 MEMB     89       POPC     C13      CTL5    -0.350000       12.0110           0
     11798 MEMB     89       POPC     H13A     HL       0.250000       1.00800           0
     11799 MEMB     89       POPC     H13B     HL       0.250000       1.00800           0
     11800 MEMB     89       POPC     H13C     HL       0.250000       1.00800           0
     11801 MEMB     89       POPC     C14      CTL5    -0.350000       12.0110           0
     11802 MEMB     89       POPC     H14A     HL       0.250000       1.00800           0
     11803 MEMB     89       POPC     H14B     HL       0.250000       1.00800           0
     11804 MEMB     89       POPC     H14C     HL       0.250000       1.00800           0
     11805 MEMB     89       POPC     C15      CTL5    -0.350000       12.0110           0
     11806 MEMB     89       POPC     H15A     HL       0.250000       1.00800           0
     11807 MEMB     89       POPC     H15B     HL       0.250000       1.00800           0
     11808 MEMB     89       POPC     H15C     HL       0.250000       1.00800           0
     11809 MEMB     89       POPC     C11      CTL2    -0.800000E-01   12.0110           0
     11810 MEMB     89       POPC     H11A     HAL2     0.900000E-01   1.00800           0
     11811 MEMB     89       POPC     H11B     HAL2     0.900000E-01   1.00800           0
     11812 MEMB     89       POPC     P        PL       1.50000        30.9740           0
     11813 MEMB     89       POPC     O13      O2L     -0.780000       15.9994           0
     11814 MEMB     89       POPC     O14      O2L     -0.780000       15.9994           0
     11815 MEMB     89       POPC     O12      OSLP    -0.570000       15.9994           0
     11816 MEMB     89       POPC     O11      OSLP    -0.570000       15.9994           0
     11817 MEMB     89       POPC     C1       CTL2    -0.800000E-01   12.0110           0
     11818 MEMB     89       POPC     HA       HAL2     0.900000E-01   1.00800           0
     11819 MEMB     89       POPC     HB       HAL2     0.900000E-01   1.00800           0
     11820 MEMB     89       POPC     C2       CTL1     0.170000       12.0110           0
     11821 MEMB     89       POPC     HS       HAL1     0.900000E-01   1.00800           0
     11822 MEMB     89       POPC     O21      OSL     -0.490000       15.9994           0
     11823 MEMB     89       POPC     C21      CL       0.900000       12.0110           0
     11824 MEMB     89       POPC     O22      OBL     -0.630000       15.9994           0
     11825 MEMB     89       POPC     C22      CTL2    -0.220000       12.0110           0
     11826 MEMB     89       POPC     H2R      HAL2     0.900000E-01   1.00800           0
     11827 MEMB     89       POPC     H2S      HAL2     0.900000E-01   1.00800           0
     11828 MEMB     89       POPC     C3       CTL2     0.800000E-01   12.0110           0
     11829 MEMB     89       POPC     HX       HAL2     0.900000E-01   1.00800           0
     11830 MEMB     89       POPC     HY       HAL2     0.900000E-01   1.00800           0
     11831 MEMB     89       POPC     O31      OSL     -0.490000       15.9994           0
     11832 MEMB     89       POPC     C31      CL       0.900000       12.0110           0
     11833 MEMB     89       POPC     O32      OBL     -0.630000       15.9994           0
     11834 MEMB     89       POPC     C32      CTL2    -0.220000       12.0110           0
     11835 MEMB     89       POPC     H2X      HAL2     0.900000E-01   1.00800           0
     11836 MEMB     89       POPC     H2Y      HAL2     0.900000E-01   1.00800           0
     11837 MEMB     89       POPC     C23      CTL2    -0.180000       12.0110           0
     11838 MEMB     89       POPC     H3R      HAL2     0.900000E-01   1.00800           0
     11839 MEMB     89       POPC     H3S      HAL2     0.900000E-01   1.00800           0
     11840 MEMB     89       POPC     C24      CTL2    -0.180000       12.0110           0
     11841 MEMB     89       POPC     H4R      HAL2     0.900000E-01   1.00800           0
     11842 MEMB     89       POPC     H4S      HAL2     0.900000E-01   1.00800           0
     11843 MEMB     89       POPC     C25      CTL2    -0.180000       12.0110           0
     11844 MEMB     89       POPC     H5R      HAL2     0.900000E-01   1.00800           0
     11845 MEMB     89       POPC     H5S      HAL2     0.900000E-01   1.00800           0
     11846 MEMB     89       POPC     C26      CTL2    -0.180000       12.0110           0
     11847 MEMB     89       POPC     H6R      HAL2     0.900000E-01   1.00800           0
     11848 MEMB     89       POPC     H6S      HAL2     0.900000E-01   1.00800           0
     11849 MEMB     89       POPC     C27      CTL2    -0.180000       12.0110           0
     11850 MEMB     89       POPC     H7R      HAL2     0.900000E-01   1.00800           0
     11851 MEMB     89       POPC     H7S      HAL2     0.900000E-01   1.00800           0
     11852 MEMB     89       POPC     C28      CTL2    -0.180000       12.0110           0
     11853 MEMB     89       POPC     H8R      HAL2     0.900000E-01   1.00800           0
     11854 MEMB     89       POPC     H8S      HAL2     0.900000E-01   1.00800           0
     11855 MEMB     89       POPC     C29      CEL1    -0.150000       12.0110           0
     11856 MEMB     89       POPC     H91      HEL1     0.150000       1.00800           0
     11857 MEMB     89       POPC     C210     CEL1    -0.150000       12.0110           0
     11858 MEMB     89       POPC     H101     HEL1     0.150000       1.00800           0
     11859 MEMB     89       POPC     C211     CTL2    -0.180000       12.0110           0
     11860 MEMB     89       POPC     H11R     HAL2     0.900000E-01   1.00800           0
     11861 MEMB     89       POPC     H11S     HAL2     0.900000E-01   1.00800           0
     11862 MEMB     89       POPC     C212     CTL2    -0.180000       12.0110           0
     11863 MEMB     89       POPC     H12R     HAL2     0.900000E-01   1.00800           0
     11864 MEMB     89       POPC     H12S     HAL2     0.900000E-01   1.00800           0
     11865 MEMB     89       POPC     C213     CTL2    -0.180000       12.0110           0
     11866 MEMB     89       POPC     H13R     HAL2     0.900000E-01   1.00800           0
     11867 MEMB     89       POPC     H13S     HAL2     0.900000E-01   1.00800           0
     11868 MEMB     89       POPC     C214     CTL2    -0.180000       12.0110           0
     11869 MEMB     89       POPC     H14R     HAL2     0.900000E-01   1.00800           0
     11870 MEMB     89       POPC     H14S     HAL2     0.900000E-01   1.00800           0
     11871 MEMB     89       POPC     C215     CTL2    -0.180000       12.0110           0
     11872 MEMB     89       POPC     H15R     HAL2     0.900000E-01   1.00800           0
     11873 MEMB     89       POPC     H15S     HAL2     0.900000E-01   1.00800           0
     11874 MEMB     89       POPC     C216     CTL2    -0.180000       12.0110           0
     11875 MEMB     89       POPC     H16R     HAL2     0.900000E-01   1.00800           0
     11876 MEMB     89       POPC     H16S     HAL2     0.900000E-01   1.00800           0
     11877 MEMB     89       POPC     C217     CTL2    -0.180000       12.0110           0
     11878 MEMB     89       POPC     H17R     HAL2     0.900000E-01   1.00800           0
     11879 MEMB     89       POPC     H17S     HAL2     0.900000E-01   1.00800           0
     11880 MEMB     89       POPC     C218     CTL3    -0.270000       12.0110           0
     11881 MEMB     89       POPC     H18R     HAL3     0.900000E-01   1.00800           0
     11882 MEMB     89       POPC     H18S     HAL3     0.900000E-01   1.00800           0
     11883 MEMB     89       POPC     H18T     HAL3     0.900000E-01   1.00800           0
     11884 MEMB     89       POPC     C33      CTL2    -0.180000       12.0110           0
     11885 MEMB     89       POPC     H3X      HAL2     0.900000E-01   1.00800           0
     11886 MEMB     89       POPC     H3Y      HAL2     0.900000E-01   1.00800           0
     11887 MEMB     89       POPC     C34      CTL2    -0.180000       12.0110           0
     11888 MEMB     89       POPC     H4X      HAL2     0.900000E-01   1.00800           0
     11889 MEMB     89       POPC     H4Y      HAL2     0.900000E-01   1.00800           0
     11890 MEMB     89       POPC     C35      CTL2    -0.180000       12.0110           0
     11891 MEMB     89       POPC     H5X      HAL2     0.900000E-01   1.00800           0
     11892 MEMB     89       POPC     H5Y      HAL2     0.900000E-01   1.00800           0
     11893 MEMB     89       POPC     C36      CTL2    -0.180000       12.0110           0
     11894 MEMB     89       POPC     H6X      HAL2     0.900000E-01   1.00800           0
     11895 MEMB     89       POPC     H6Y      HAL2     0.900000E-01   1.00800           0
     11896 MEMB     89       POPC     C37      CTL2    -0.180000       12.0110           0
     11897 MEMB     89       POPC     H7X      HAL2     0.900000E-01   1.00800           0
     11898 MEMB     89       POPC     H7Y      HAL2     0.900000E-01   1.00800           0
     11899 MEMB     89       POPC     C38      CTL2    -0.180000       12.0110           0
     11900 MEMB     89       POPC     H8X      HAL2     0.900000E-01   1.00800           0
     11901 MEMB     89       POPC     H8Y      HAL2     0.900000E-01   1.00800           0
     11902 MEMB     89       POPC     C39      CTL2    -0.180000       12.0110           0
     11903 MEMB     89       POPC     H9X      HAL2     0.900000E-01   1.00800           0
     11904 MEMB     89       POPC     H9Y      HAL2     0.900000E-01   1.00800           0
     11905 MEMB     89       POPC     C310     CTL2    -0.180000       12.0110           0
     11906 MEMB     89       POPC     H10X     HAL2     0.900000E-01   1.00800           0
     11907 MEMB     89       POPC     H10Y     HAL2     0.900000E-01   1.00800           0
     11908 MEMB     89       POPC     C311     CTL2    -0.180000       12.0110           0
     11909 MEMB     89       POPC     H11X     HAL2     0.900000E-01   1.00800           0
     11910 MEMB     89       POPC     H11Y     HAL2     0.900000E-01   1.00800           0
     11911 MEMB     89       POPC     C312     CTL2    -0.180000       12.0110           0
     11912 MEMB     89       POPC     H12X     HAL2     0.900000E-01   1.00800           0
     11913 MEMB     89       POPC     H12Y     HAL2     0.900000E-01   1.00800           0
     11914 MEMB     89       POPC     C313     CTL2    -0.180000       12.0110           0
     11915 MEMB     89       POPC     H13X     HAL2     0.900000E-01   1.00800           0
     11916 MEMB     89       POPC     H13Y     HAL2     0.900000E-01   1.00800           0
     11917 MEMB     89       POPC     C314     CTL2    -0.180000       12.0110           0
     11918 MEMB     89       POPC     H14X     HAL2     0.900000E-01   1.00800           0
     11919 MEMB     89       POPC     H14Y     HAL2     0.900000E-01   1.00800           0
     11920 MEMB     89       POPC     C315     CTL2    -0.180000       12.0110           0
     11921 MEMB     89       POPC     H15X     HAL2     0.900000E-01   1.00800           0
     11922 MEMB     89       POPC     H15Y     HAL2     0.900000E-01   1.00800           0
     11923 MEMB     89       POPC     C316     CTL3    -0.270000       12.0110           0
     11924 MEMB     89       POPC     H16X     HAL3     0.900000E-01   1.00800           0
     11925 MEMB     89       POPC     H16Y     HAL3     0.900000E-01   1.00800           0
     11926 MEMB     89       POPC     H16Z     HAL3     0.900000E-01   1.00800           0
     11927 MEMB     90       POPC     N        NTL     -0.600000       14.0070           0
     11928 MEMB     90       POPC     C12      CTL2    -0.100000       12.0110           0
     11929 MEMB     90       POPC     H12A     HL       0.250000       1.00800           0
     11930 MEMB     90       POPC     H12B     HL       0.250000       1.00800           0
     11931 MEMB     90       POPC     C13      CTL5    -0.350000       12.0110           0
     11932 MEMB     90       POPC     H13A     HL       0.250000       1.00800           0
     11933 MEMB     90       POPC     H13B     HL       0.250000       1.00800           0
     11934 MEMB     90       POPC     H13C     HL       0.250000       1.00800           0
     11935 MEMB     90       POPC     C14      CTL5    -0.350000       12.0110           0
     11936 MEMB     90       POPC     H14A     HL       0.250000       1.00800           0
     11937 MEMB     90       POPC     H14B     HL       0.250000       1.00800           0
     11938 MEMB     90       POPC     H14C     HL       0.250000       1.00800           0
     11939 MEMB     90       POPC     C15      CTL5    -0.350000       12.0110           0
     11940 MEMB     90       POPC     H15A     HL       0.250000       1.00800           0
     11941 MEMB     90       POPC     H15B     HL       0.250000       1.00800           0
     11942 MEMB     90       POPC     H15C     HL       0.250000       1.00800           0
     11943 MEMB     90       POPC     C11      CTL2    -0.800000E-01   12.0110           0
     11944 MEMB     90       POPC     H11A     HAL2     0.900000E-01   1.00800           0
     11945 MEMB     90       POPC     H11B     HAL2     0.900000E-01   1.00800           0
     11946 MEMB     90       POPC     P        PL       1.50000        30.9740           0
     11947 MEMB     90       POPC     O13      O2L     -0.780000       15.9994           0
     11948 MEMB     90       POPC     O14      O2L     -0.780000       15.9994           0
     11949 MEMB     90       POPC     O12      OSLP    -0.570000       15.9994           0
     11950 MEMB     90       POPC     O11      OSLP    -0.570000       15.9994           0
     11951 MEMB     90       POPC     C1       CTL2    -0.800000E-01   12.0110           0
     11952 MEMB     90       POPC     HA       HAL2     0.900000E-01   1.00800           0
     11953 MEMB     90       POPC     HB       HAL2     0.900000E-01   1.00800           0
     11954 MEMB     90       POPC     C2       CTL1     0.170000       12.0110           0
     11955 MEMB     90       POPC     HS       HAL1     0.900000E-01   1.00800           0
     11956 MEMB     90       POPC     O21      OSL     -0.490000       15.9994           0
     11957 MEMB     90       POPC     C21      CL       0.900000       12.0110           0
     11958 MEMB     90       POPC     O22      OBL     -0.630000       15.9994           0
     11959 MEMB     90       POPC     C22      CTL2    -0.220000       12.0110           0
     11960 MEMB     90       POPC     H2R      HAL2     0.900000E-01   1.00800           0
     11961 MEMB     90       POPC     H2S      HAL2     0.900000E-01   1.00800           0
     11962 MEMB     90       POPC     C3       CTL2     0.800000E-01   12.0110           0
     11963 MEMB     90       POPC     HX       HAL2     0.900000E-01   1.00800           0
     11964 MEMB     90       POPC     HY       HAL2     0.900000E-01   1.00800           0
     11965 MEMB     90       POPC     O31      OSL     -0.490000       15.9994           0
     11966 MEMB     90       POPC     C31      CL       0.900000       12.0110           0
     11967 MEMB     90       POPC     O32      OBL     -0.630000       15.9994           0
     11968 MEMB     90       POPC     C32      CTL2    -0.220000       12.0110           0
     11969 MEMB     90       POPC     H2X      HAL2     0.900000E-01   1.00800           0
     11970 MEMB     90       POPC     H2Y      HAL2     0.900000E-01   1.00800           0
     11971 MEMB     90       POPC     C23      CTL2    -0.180000       12.0110           0
     11972 MEMB     90       POPC     H3R      HAL2     0.900000E-01   1.00800           0
     11973 MEMB     90       POPC     H3S      HAL2     0.900000E-01   1.00800           0
     11974 MEMB     90       POPC     C24      CTL2    -0.180000       12.0110           0
     11975 MEMB     90       POPC     H4R      HAL2     0.900000E-01   1.00800           0
     11976 MEMB     90       POPC     H4S      HAL2     0.900000E-01   1.00800           0
     11977 MEMB     90       POPC     C25      CTL2    -0.180000       12.0110           0
     11978 MEMB     90       POPC     H5R      HAL2     0.900000E-01   1.00800           0
     11979 MEMB     90       POPC     H5S      HAL2     0.900000E-01   1.00800           0
     11980 MEMB     90       POPC     C26      CTL2    -0.180000       12.0110           0
     11981 MEMB     90       POPC     H6R      HAL2     0.900000E-01   1.00800           0
     11982 MEMB     90       POPC     H6S      HAL2     0.900000E-01   1.00800           0
     11983 MEMB     90       POPC     C27      CTL2    -0.180000       12.0110           0
     11984 MEMB     90       POPC     H7R      HAL2     0.900000E-01   1.00800           0
     11985 MEMB     90       POPC     H7S      HAL2     0.900000E-01   1.00800           0
     11986 MEMB     90       POPC     C28      CTL2    -0.180000       12.0110           0
     11987 MEMB     90       POPC     H8R      HAL2     0.900000E-01   1.00800           0
     11988 MEMB     90       POPC     H8S      HAL2     0.900000E-01   1.00800           0
     11989 MEMB     90       POPC     C29      CEL1    -0.150000       12.0110           0
     11990 MEMB     90       POPC     H91      HEL1     0.150000       1.00800           0
     11991 MEMB     90       POPC     C210     CEL1    -0.150000       12.0110           0
     11992 MEMB     90       POPC     H101     HEL1     0.150000       1.00800           0
     11993 MEMB     90       POPC     C211     CTL2    -0.180000       12.0110           0
     11994 MEMB     90       POPC     H11R     HAL2     0.900000E-01   1.00800           0
     11995 MEMB     90       POPC     H11S     HAL2     0.900000E-01   1.00800           0
     11996 MEMB     90       POPC     C212     CTL2    -0.180000       12.0110           0
     11997 MEMB     90       POPC     H12R     HAL2     0.900000E-01   1.00800           0
     11998 MEMB     90       POPC     H12S     HAL2     0.900000E-01   1.00800           0
     11999 MEMB     90       POPC     C213     CTL2    -0.180000       12.0110           0
     12000 MEMB     90       POPC     H13R     HAL2     0.900000E-01   1.00800           0
     12001 MEMB     90       POPC     H13S     HAL2     0.900000E-01   1.00800           0
     12002 MEMB     90       POPC     C214     CTL2    -0.180000       12.0110           0
     12003 MEMB     90       POPC     H14R     HAL2     0.900000E-01   1.00800           0
     12004 MEMB     90       POPC     H14S     HAL2     0.900000E-01   1.00800           0
     12005 MEMB     90       POPC     C215     CTL2    -0.180000       12.0110           0
     12006 MEMB     90       POPC     H15R     HAL2     0.900000E-01   1.00800           0
     12007 MEMB     90       POPC     H15S     HAL2     0.900000E-01   1.00800           0
     12008 MEMB     90       POPC     C216     CTL2    -0.180000       12.0110           0
     12009 MEMB     90       POPC     H16R     HAL2     0.900000E-01   1.00800           0
     12010 MEMB     90       POPC     H16S     HAL2     0.900000E-01   1.00800           0
     12011 MEMB     90       POPC     C217     CTL2    -0.180000       12.0110           0
     12012 MEMB     90       POPC     H17R     HAL2     0.900000E-01   1.00800           0
     12013 MEMB     90       POPC     H17S     HAL2     0.900000E-01   1.00800           0
     12014 MEMB     90       POPC     C218     CTL3    -0.270000       12.0110           0
     12015 MEMB     90       POPC     H18R     HAL3     0.900000E-01   1.00800           0
     12016 MEMB     90       POPC     H18S     HAL3     0.900000E-01   1.00800           0
     12017 MEMB     90       POPC     H18T     HAL3     0.900000E-01   1.00800           0
     12018 MEMB     90       POPC     C33      CTL2    -0.180000       12.0110           0
     12019 MEMB     90       POPC     H3X      HAL2     0.900000E-01   1.00800           0
     12020 MEMB     90       POPC     H3Y      HAL2     0.900000E-01   1.00800           0
     12021 MEMB     90       POPC     C34      CTL2    -0.180000       12.0110           0
     12022 MEMB     90       POPC     H4X      HAL2     0.900000E-01   1.00800           0
     12023 MEMB     90       POPC     H4Y      HAL2     0.900000E-01   1.00800           0
     12024 MEMB     90       POPC     C35      CTL2    -0.180000       12.0110           0
     12025 MEMB     90       POPC     H5X      HAL2     0.900000E-01   1.00800           0
     12026 MEMB     90       POPC     H5Y      HAL2     0.900000E-01   1.00800           0
     12027 MEMB     90       POPC     C36      CTL2    -0.180000       12.0110           0
     12028 MEMB     90       POPC     H6X      HAL2     0.900000E-01   1.00800           0
     12029 MEMB     90       POPC     H6Y      HAL2     0.900000E-01   1.00800           0
     12030 MEMB     90       POPC     C37      CTL2    -0.180000       12.0110           0
     12031 MEMB     90       POPC     H7X      HAL2     0.900000E-01   1.00800           0
     12032 MEMB     90       POPC     H7Y      HAL2     0.900000E-01   1.00800           0
     12033 MEMB     90       POPC     C38      CTL2    -0.180000       12.0110           0
     12034 MEMB     90       POPC     H8X      HAL2     0.900000E-01   1.00800           0
     12035 MEMB     90       POPC     H8Y      HAL2     0.900000E-01   1.00800           0
     12036 MEMB     90       POPC     C39      CTL2    -0.180000       12.0110           0
     12037 MEMB     90       POPC     H9X      HAL2     0.900000E-01   1.00800           0
     12038 MEMB     90       POPC     H9Y      HAL2     0.900000E-01   1.00800           0
     12039 MEMB     90       POPC     C310     CTL2    -0.180000       12.0110           0
     12040 MEMB     90       POPC     H10X     HAL2     0.900000E-01   1.00800           0
     12041 MEMB     90       POPC     H10Y     HAL2     0.900000E-01   1.00800           0
     12042 MEMB     90       POPC     C311     CTL2    -0.180000       12.0110           0
     12043 MEMB     90       POPC     H11X     HAL2     0.900000E-01   1.00800           0
     12044 MEMB     90       POPC     H11Y     HAL2     0.900000E-01   1.00800           0
     12045 MEMB     90       POPC     C312     CTL2    -0.180000       12.0110           0
     12046 MEMB     90       POPC     H12X     HAL2     0.900000E-01   1.00800           0
     12047 MEMB     90       POPC     H12Y     HAL2     0.900000E-01   1.00800           0
     12048 MEMB     90       POPC     C313     CTL2    -0.180000       12.0110           0
     12049 MEMB     90       POPC     H13X     HAL2     0.900000E-01   1.00800           0
     12050 MEMB     90       POPC     H13Y     HAL2     0.900000E-01   1.00800           0
     12051 MEMB     90       POPC     C314     CTL2    -0.180000       12.0110           0
     12052 MEMB     90       POPC     H14X     HAL2     0.900000E-01   1.00800           0
     12053 MEMB     90       POPC     H14Y     HAL2     0.900000E-01   1.00800           0
     12054 MEMB     90       POPC     C315     CTL2    -0.180000       12.0110           0
     12055 MEMB     90       POPC     H15X     HAL2     0.900000E-01   1.00800           0
     12056 MEMB     90       POPC     H15Y     HAL2     0.900000E-01   1.00800           0
     12057 MEMB     90       POPC     C316     CTL3    -0.270000       12.0110           0
     12058 MEMB     90       POPC     H16X     HAL3     0.900000E-01   1.00800           0
     12059 MEMB     90       POPC     H16Y     HAL3     0.900000E-01   1.00800           0
     12060 MEMB     90       POPC     H16Z     HAL3     0.900000E-01   1.00800           0
     12061 MEMB     91       POPC     N        NTL     -0.600000       14.0070           0
     12062 MEMB     91       POPC     C12      CTL2    -0.100000       12.0110           0
     12063 MEMB     91       POPC     H12A     HL       0.250000       1.00800           0
     12064 MEMB     91       POPC     H12B     HL       0.250000       1.00800           0
     12065 MEMB     91       POPC     C13      CTL5    -0.350000       12.0110           0
     12066 MEMB     91       POPC     H13A     HL       0.250000       1.00800           0
     12067 MEMB     91       POPC     H13B     HL       0.250000       1.00800           0
     12068 MEMB     91       POPC     H13C     HL       0.250000       1.00800           0
     12069 MEMB     91       POPC     C14      CTL5    -0.350000       12.0110           0
     12070 MEMB     91       POPC     H14A     HL       0.250000       1.00800           0
     12071 MEMB     91       POPC     H14B     HL       0.250000       1.00800           0
     12072 MEMB     91       POPC     H14C     HL       0.250000       1.00800           0
     12073 MEMB     91       POPC     C15      CTL5    -0.350000       12.0110           0
     12074 MEMB     91       POPC     H15A     HL       0.250000       1.00800           0
     12075 MEMB     91       POPC     H15B     HL       0.250000       1.00800           0
     12076 MEMB     91       POPC     H15C     HL       0.250000       1.00800           0
     12077 MEMB     91       POPC     C11      CTL2    -0.800000E-01   12.0110           0
     12078 MEMB     91       POPC     H11A     HAL2     0.900000E-01   1.00800           0
     12079 MEMB     91       POPC     H11B     HAL2     0.900000E-01   1.00800           0
     12080 MEMB     91       POPC     P        PL       1.50000        30.9740           0
     12081 MEMB     91       POPC     O13      O2L     -0.780000       15.9994           0
     12082 MEMB     91       POPC     O14      O2L     -0.780000       15.9994           0
     12083 MEMB     91       POPC     O12      OSLP    -0.570000       15.9994           0
     12084 MEMB     91       POPC     O11      OSLP    -0.570000       15.9994           0
     12085 MEMB     91       POPC     C1       CTL2    -0.800000E-01   12.0110           0
     12086 MEMB     91       POPC     HA       HAL2     0.900000E-01   1.00800           0
     12087 MEMB     91       POPC     HB       HAL2     0.900000E-01   1.00800           0
     12088 MEMB     91       POPC     C2       CTL1     0.170000       12.0110           0
     12089 MEMB     91       POPC     HS       HAL1     0.900000E-01   1.00800           0
     12090 MEMB     91       POPC     O21      OSL     -0.490000       15.9994           0
     12091 MEMB     91       POPC     C21      CL       0.900000       12.0110           0
     12092 MEMB     91       POPC     O22      OBL     -0.630000       15.9994           0
     12093 MEMB     91       POPC     C22      CTL2    -0.220000       12.0110           0
     12094 MEMB     91       POPC     H2R      HAL2     0.900000E-01   1.00800           0
     12095 MEMB     91       POPC     H2S      HAL2     0.900000E-01   1.00800           0
     12096 MEMB     91       POPC     C3       CTL2     0.800000E-01   12.0110           0
     12097 MEMB     91       POPC     HX       HAL2     0.900000E-01   1.00800           0
     12098 MEMB     91       POPC     HY       HAL2     0.900000E-01   1.00800           0
     12099 MEMB     91       POPC     O31      OSL     -0.490000       15.9994           0
     12100 MEMB     91       POPC     C31      CL       0.900000       12.0110           0
     12101 MEMB     91       POPC     O32      OBL     -0.630000       15.9994           0
     12102 MEMB     91       POPC     C32      CTL2    -0.220000       12.0110           0
     12103 MEMB     91       POPC     H2X      HAL2     0.900000E-01   1.00800           0
     12104 MEMB     91       POPC     H2Y      HAL2     0.900000E-01   1.00800           0
     12105 MEMB     91       POPC     C23      CTL2    -0.180000       12.0110           0
     12106 MEMB     91       POPC     H3R      HAL2     0.900000E-01   1.00800           0
     12107 MEMB     91       POPC     H3S      HAL2     0.900000E-01   1.00800           0
     12108 MEMB     91       POPC     C24      CTL2    -0.180000       12.0110           0
     12109 MEMB     91       POPC     H4R      HAL2     0.900000E-01   1.00800           0
     12110 MEMB     91       POPC     H4S      HAL2     0.900000E-01   1.00800           0
     12111 MEMB     91       POPC     C25      CTL2    -0.180000       12.0110           0
     12112 MEMB     91       POPC     H5R      HAL2     0.900000E-01   1.00800           0
     12113 MEMB     91       POPC     H5S      HAL2     0.900000E-01   1.00800           0
     12114 MEMB     91       POPC     C26      CTL2    -0.180000       12.0110           0
     12115 MEMB     91       POPC     H6R      HAL2     0.900000E-01   1.00800           0
     12116 MEMB     91       POPC     H6S      HAL2     0.900000E-01   1.00800           0
     12117 MEMB     91       POPC     C27      CTL2    -0.180000       12.0110           0
     12118 MEMB     91       POPC     H7R      HAL2     0.900000E-01   1.00800           0
     12119 MEMB     91       POPC     H7S      HAL2     0.900000E-01   1.00800           0
     12120 MEMB     91       POPC     C28      CTL2    -0.180000       12.0110           0
     12121 MEMB     91       POPC     H8R      HAL2     0.900000E-01   1.00800           0
     12122 MEMB     91       POPC     H8S      HAL2     0.900000E-01   1.00800           0
     12123 MEMB     91       POPC     C29      CEL1    -0.150000       12.0110           0
     12124 MEMB     91       POPC     H91      HEL1     0.150000       1.00800           0
     12125 MEMB     91       POPC     C210     CEL1    -0.150000       12.0110           0
     12126 MEMB     91       POPC     H101     HEL1     0.150000       1.00800           0
     12127 MEMB     91       POPC     C211     CTL2    -0.180000       12.0110           0
     12128 MEMB     91       POPC     H11R     HAL2     0.900000E-01   1.00800           0
     12129 MEMB     91       POPC     H11S     HAL2     0.900000E-01   1.00800           0
     12130 MEMB     91       POPC     C212     CTL2    -0.180000       12.0110           0
     12131 MEMB     91       POPC     H12R     HAL2     0.900000E-01   1.00800           0
     12132 MEMB     91       POPC     H12S     HAL2     0.900000E-01   1.00800           0
     12133 MEMB     91       POPC     C213     CTL2    -0.180000       12.0110           0
     12134 MEMB     91       POPC     H13R     HAL2     0.900000E-01   1.00800           0
     12135 MEMB     91       POPC     H13S     HAL2     0.900000E-01   1.00800           0
     12136 MEMB     91       POPC     C214     CTL2    -0.180000       12.0110           0
     12137 MEMB     91       POPC     H14R     HAL2     0.900000E-01   1.00800           0
     12138 MEMB     91       POPC     H14S     HAL2     0.900000E-01   1.00800           0
     12139 MEMB     91       POPC     C215     CTL2    -0.180000       12.0110           0
     12140 MEMB     91       POPC     H15R     HAL2     0.900000E-01   1.00800           0
     12141 MEMB     91       POPC     H15S     HAL2     0.900000E-01   1.00800           0
     12142 MEMB     91       POPC     C216     CTL2    -0.180000       12.0110           0
     12143 MEMB     91       POPC     H16R     HAL2     0.900000E-01   1.00800           0
     12144 MEMB     91       POPC     H16S     HAL2     0.900000E-01   1.00800           0
     12145 MEMB     91       POPC     C217     CTL2    -0.180000       12.0110           0
     12146 MEMB     91       POPC     H17R     HAL2     0.900000E-01   1.00800           0
     12147 MEMB     91       POPC     H17S     HAL2     0.900000E-01   1.00800           0
     12148 MEMB     91       POPC     C218     CTL3    -0.270000       12.0110           0
     12149 MEMB     91       POPC     H18R     HAL3     0.900000E-01   1.00800           0
     12150 MEMB     91       POPC     H18S     HAL3     0.900000E-01   1.00800           0
     12151 MEMB     91       POPC     H18T     HAL3     0.900000E-01   1.00800           0
     12152 MEMB     91       POPC     C33      CTL2    -0.180000       12.0110           0
     12153 MEMB     91       POPC     H3X      HAL2     0.900000E-01   1.00800           0
     12154 MEMB     91       POPC     H3Y      HAL2     0.900000E-01   1.00800           0
     12155 MEMB     91       POPC     C34      CTL2    -0.180000       12.0110           0
     12156 MEMB     91       POPC     H4X      HAL2     0.900000E-01   1.00800           0
     12157 MEMB     91       POPC     H4Y      HAL2     0.900000E-01   1.00800           0
     12158 MEMB     91       POPC     C35      CTL2    -0.180000       12.0110           0
     12159 MEMB     91       POPC     H5X      HAL2     0.900000E-01   1.00800           0
     12160 MEMB     91       POPC     H5Y      HAL2     0.900000E-01   1.00800           0
     12161 MEMB     91       POPC     C36      CTL2    -0.180000       12.0110           0
     12162 MEMB     91       POPC     H6X      HAL2     0.900000E-01   1.00800           0
     12163 MEMB     91       POPC     H6Y      HAL2     0.900000E-01   1.00800           0
     12164 MEMB     91       POPC     C37      CTL2    -0.180000       12.0110           0
     12165 MEMB     91       POPC     H7X      HAL2     0.900000E-01   1.00800           0
     12166 MEMB     91       POPC     H7Y      HAL2     0.900000E-01   1.00800           0
     12167 MEMB     91       POPC     C38      CTL2    -0.180000       12.0110           0
     12168 MEMB     91       POPC     H8X      HAL2     0.900000E-01   1.00800           0
     12169 MEMB     91       POPC     H8Y      HAL2     0.900000E-01   1.00800           0
     12170 MEMB     91       POPC     C39      CTL2    -0.180000       12.0110           0
     12171 MEMB     91       POPC     H9X      HAL2     0.900000E-01   1.00800           0
     12172 MEMB     91       POPC     H9Y      HAL2     0.900000E-01   1.00800           0
     12173 MEMB     91       POPC     C310     CTL2    -0.180000       12.0110           0
     12174 MEMB     91       POPC     H10X     HAL2     0.900000E-01   1.00800           0
     12175 MEMB     91       POPC     H10Y     HAL2     0.900000E-01   1.00800           0
     12176 MEMB     91       POPC     C311     CTL2    -0.180000       12.0110           0
     12177 MEMB     91       POPC     H11X     HAL2     0.900000E-01   1.00800           0
     12178 MEMB     91       POPC     H11Y     HAL2     0.900000E-01   1.00800           0
     12179 MEMB     91       POPC     C312     CTL2    -0.180000       12.0110           0
     12180 MEMB     91       POPC     H12X     HAL2     0.900000E-01   1.00800           0
     12181 MEMB     91       POPC     H12Y     HAL2     0.900000E-01   1.00800           0
     12182 MEMB     91       POPC     C313     CTL2    -0.180000       12.0110           0
     12183 MEMB     91       POPC     H13X     HAL2     0.900000E-01   1.00800           0
     12184 MEMB     91       POPC     H13Y     HAL2     0.900000E-01   1.00800           0
     12185 MEMB     91       POPC     C314     CTL2    -0.180000       12.0110           0
     12186 MEMB     91       POPC     H14X     HAL2     0.900000E-01   1.00800           0
     12187 MEMB     91       POPC     H14Y     HAL2     0.900000E-01   1.00800           0
     12188 MEMB     91       POPC     C315     CTL2    -0.180000       12.0110           0
     12189 MEMB     91       POPC     H15X     HAL2     0.900000E-01   1.00800           0
     12190 MEMB     91       POPC     H15Y     HAL2     0.900000E-01   1.00800           0
     12191 MEMB     91       POPC     C316     CTL3    -0.270000       12.0110           0
     12192 MEMB     91       POPC     H16X     HAL3     0.900000E-01   1.00800           0
     12193 MEMB     91       POPC     H16Y     HAL3     0.900000E-01   1.00800           0
     12194 MEMB     91       POPC     H16Z     HAL3     0.900000E-01   1.00800           0
     12195 MEMB     92       POPC     N        NTL     -0.600000       14.0070           0
     12196 MEMB     92       POPC     C12      CTL2    -0.100000       12.0110           0
     12197 MEMB     92       POPC     H12A     HL       0.250000       1.00800           0
     12198 MEMB     92       POPC     H12B     HL       0.250000       1.00800           0
     12199 MEMB     92       POPC     C13      CTL5    -0.350000       12.0110           0
     12200 MEMB     92       POPC     H13A     HL       0.250000       1.00800           0
     12201 MEMB     92       POPC     H13B     HL       0.250000       1.00800           0
     12202 MEMB     92       POPC     H13C     HL       0.250000       1.00800           0
     12203 MEMB     92       POPC     C14      CTL5    -0.350000       12.0110           0
     12204 MEMB     92       POPC     H14A     HL       0.250000       1.00800           0
     12205 MEMB     92       POPC     H14B     HL       0.250000       1.00800           0
     12206 MEMB     92       POPC     H14C     HL       0.250000       1.00800           0
     12207 MEMB     92       POPC     C15      CTL5    -0.350000       12.0110           0
     12208 MEMB     92       POPC     H15A     HL       0.250000       1.00800           0
     12209 MEMB     92       POPC     H15B     HL       0.250000       1.00800           0
     12210 MEMB     92       POPC     H15C     HL       0.250000       1.00800           0
     12211 MEMB     92       POPC     C11      CTL2    -0.800000E-01   12.0110           0
     12212 MEMB     92       POPC     H11A     HAL2     0.900000E-01   1.00800           0
     12213 MEMB     92       POPC     H11B     HAL2     0.900000E-01   1.00800           0
     12214 MEMB     92       POPC     P        PL       1.50000        30.9740           0
     12215 MEMB     92       POPC     O13      O2L     -0.780000       15.9994           0
     12216 MEMB     92       POPC     O14      O2L     -0.780000       15.9994           0
     12217 MEMB     92       POPC     O12      OSLP    -0.570000       15.9994           0
     12218 MEMB     92       POPC     O11      OSLP    -0.570000       15.9994           0
     12219 MEMB     92       POPC     C1       CTL2    -0.800000E-01   12.0110           0
     12220 MEMB     92       POPC     HA       HAL2     0.900000E-01   1.00800           0
     12221 MEMB     92       POPC     HB       HAL2     0.900000E-01   1.00800           0
     12222 MEMB     92       POPC     C2       CTL1     0.170000       12.0110           0
     12223 MEMB     92       POPC     HS       HAL1     0.900000E-01   1.00800           0
     12224 MEMB     92       POPC     O21      OSL     -0.490000       15.9994           0
     12225 MEMB     92       POPC     C21      CL       0.900000       12.0110           0
     12226 MEMB     92       POPC     O22      OBL     -0.630000       15.9994           0
     12227 MEMB     92       POPC     C22      CTL2    -0.220000       12.0110           0
     12228 MEMB     92       POPC     H2R      HAL2     0.900000E-01   1.00800           0
     12229 MEMB     92       POPC     H2S      HAL2     0.900000E-01   1.00800           0
     12230 MEMB     92       POPC     C3       CTL2     0.800000E-01   12.0110           0
     12231 MEMB     92       POPC     HX       HAL2     0.900000E-01   1.00800           0
     12232 MEMB     92       POPC     HY       HAL2     0.900000E-01   1.00800           0
     12233 MEMB     92       POPC     O31      OSL     -0.490000       15.9994           0
     12234 MEMB     92       POPC     C31      CL       0.900000       12.0110           0
     12235 MEMB     92       POPC     O32      OBL     -0.630000       15.9994           0
     12236 MEMB     92       POPC     C32      CTL2    -0.220000       12.0110           0
     12237 MEMB     92       POPC     H2X      HAL2     0.900000E-01   1.00800           0
     12238 MEMB     92       POPC     H2Y      HAL2     0.900000E-01   1.00800           0
     12239 MEMB     92       POPC     C23      CTL2    -0.180000       12.0110           0
     12240 MEMB     92       POPC     H3R      HAL2     0.900000E-01   1.00800           0
     12241 MEMB     92       POPC     H3S      HAL2     0.900000E-01   1.00800           0
     12242 MEMB     92       POPC     C24      CTL2    -0.180000       12.0110           0
     12243 MEMB     92       POPC     H4R      HAL2     0.900000E-01   1.00800           0
     12244 MEMB     92       POPC     H4S      HAL2     0.900000E-01   1.00800           0
     12245 MEMB     92       POPC     C25      CTL2    -0.180000       12.0110           0
     12246 MEMB     92       POPC     H5R      HAL2     0.900000E-01   1.00800           0
     12247 MEMB     92       POPC     H5S      HAL2     0.900000E-01   1.00800           0
     12248 MEMB     92       POPC     C26      CTL2    -0.180000       12.0110           0
     12249 MEMB     92       POPC     H6R      HAL2     0.900000E-01   1.00800           0
     12250 MEMB     92       POPC     H6S      HAL2     0.900000E-01   1.00800           0
     12251 MEMB     92       POPC     C27      CTL2    -0.180000       12.0110           0
     12252 MEMB     92       POPC     H7R      HAL2     0.900000E-01   1.00800           0
     12253 MEMB     92       POPC     H7S      HAL2     0.900000E-01   1.00800           0
     12254 MEMB     92       POPC     C28      CTL2    -0.180000       12.0110           0
     12255 MEMB     92       POPC     H8R      HAL2     0.900000E-01   1.00800           0
     12256 MEMB     92       POPC     H8S      HAL2     0.900000E-01   1.00800           0
     12257 MEMB     92       POPC     C29      CEL1    -0.150000       12.0110           0
     12258 MEMB     92       POPC     H91      HEL1     0.150000       1.00800           0
     12259 MEMB     92       POPC     C210     CEL1    -0.150000       12.0110           0
     12260 MEMB     92       POPC     H101     HEL1     0.150000       1.00800           0
     12261 MEMB     92       POPC     C211     CTL2    -0.180000       12.0110           0
     12262 MEMB     92       POPC     H11R     HAL2     0.900000E-01   1.00800           0
     12263 MEMB     92       POPC     H11S     HAL2     0.900000E-01   1.00800           0
     12264 MEMB     92       POPC     C212     CTL2    -0.180000       12.0110           0
     12265 MEMB     92       POPC     H12R     HAL2     0.900000E-01   1.00800           0
     12266 MEMB     92       POPC     H12S     HAL2     0.900000E-01   1.00800           0
     12267 MEMB     92       POPC     C213     CTL2    -0.180000       12.0110           0
     12268 MEMB     92       POPC     H13R     HAL2     0.900000E-01   1.00800           0
     12269 MEMB     92       POPC     H13S     HAL2     0.900000E-01   1.00800           0
     12270 MEMB     92       POPC     C214     CTL2    -0.180000       12.0110           0
     12271 MEMB     92       POPC     H14R     HAL2     0.900000E-01   1.00800           0
     12272 MEMB     92       POPC     H14S     HAL2     0.900000E-01   1.00800           0
     12273 MEMB     92       POPC     C215     CTL2    -0.180000       12.0110           0
     12274 MEMB     92       POPC     H15R     HAL2     0.900000E-01   1.00800           0
     12275 MEMB     92       POPC     H15S     HAL2     0.900000E-01   1.00800           0
     12276 MEMB     92       POPC     C216     CTL2    -0.180000       12.0110           0
     12277 MEMB     92       POPC     H16R     HAL2     0.900000E-01   1.00800           0
     12278 MEMB     92       POPC     H16S     HAL2     0.900000E-01   1.00800           0
     12279 MEMB     92       POPC     C217     CTL2    -0.180000       12.0110           0
     12280 MEMB     92       POPC     H17R     HAL2     0.900000E-01   1.00800           0
     12281 MEMB     92       POPC     H17S     HAL2     0.900000E-01   1.00800           0
     12282 MEMB     92       POPC     C218     CTL3    -0.270000       12.0110           0
     12283 MEMB     92       POPC     H18R     HAL3     0.900000E-01   1.00800           0
     12284 MEMB     92       POPC     H18S     HAL3     0.900000E-01   1.00800           0
     12285 MEMB     92       POPC     H18T     HAL3     0.900000E-01   1.00800           0
     12286 MEMB     92       POPC     C33      CTL2    -0.180000       12.0110           0
     12287 MEMB     92       POPC     H3X      HAL2     0.900000E-01   1.00800           0
     12288 MEMB     92       POPC     H3Y      HAL2     0.900000E-01   1.00800           0
     12289 MEMB     92       POPC     C34      CTL2    -0.180000       12.0110           0
     12290 MEMB     92       POPC     H4X      HAL2     0.900000E-01   1.00800           0
     12291 MEMB     92       POPC     H4Y      HAL2     0.900000E-01   1.00800           0
     12292 MEMB     92       POPC     C35      CTL2    -0.180000       12.0110           0
     12293 MEMB     92       POPC     H5X      HAL2     0.900000E-01   1.00800           0
     12294 MEMB     92       POPC     H5Y      HAL2     0.900000E-01   1.00800           0
     12295 MEMB     92       POPC     C36      CTL2    -0.180000       12.0110           0
     12296 MEMB     92       POPC     H6X      HAL2     0.900000E-01   1.00800           0
     12297 MEMB     92       POPC     H6Y      HAL2     0.900000E-01   1.00800           0
     12298 MEMB     92       POPC     C37      CTL2    -0.180000       12.0110           0
     12299 MEMB     92       POPC     H7X      HAL2     0.900000E-01   1.00800           0
     12300 MEMB     92       POPC     H7Y      HAL2     0.900000E-01   1.00800           0
     12301 MEMB     92       POPC     C38      CTL2    -0.180000       12.0110           0
     12302 MEMB     92       POPC     H8X      HAL2     0.900000E-01   1.00800           0
     12303 MEMB     92       POPC     H8Y      HAL2     0.900000E-01   1.00800           0
     12304 MEMB     92       POPC     C39      CTL2    -0.180000       12.0110           0
     12305 MEMB     92       POPC     H9X      HAL2     0.900000E-01   1.00800           0
     12306 MEMB     92       POPC     H9Y      HAL2     0.900000E-01   1.00800           0
     12307 MEMB     92       POPC     C310     CTL2    -0.180000       12.0110           0
     12308 MEMB     92       POPC     H10X     HAL2     0.900000E-01   1.00800           0
     12309 MEMB     92       POPC     H10Y     HAL2     0.900000E-01   1.00800           0
     12310 MEMB     92       POPC     C311     CTL2    -0.180000       12.0110           0
     12311 MEMB     92       POPC     H11X     HAL2     0.900000E-01   1.00800           0
     12312 MEMB     92       POPC     H11Y     HAL2     0.900000E-01   1.00800           0
     12313 MEMB     92       POPC     C312     CTL2    -0.180000       12.0110           0
     12314 MEMB     92       POPC     H12X     HAL2     0.900000E-01   1.00800           0
     12315 MEMB     92       POPC     H12Y     HAL2     0.900000E-01   1.00800           0
     12316 MEMB     92       POPC     C313     CTL2    -0.180000       12.0110           0
     12317 MEMB     92       POPC     H13X     HAL2     0.900000E-01   1.00800           0
     12318 MEMB     92       POPC     H13Y     HAL2     0.900000E-01   1.00800           0
     12319 MEMB     92       POPC     C314     CTL2    -0.180000       12.0110           0
     12320 MEMB     92       POPC     H14X     HAL2     0.900000E-01   1.00800           0
     12321 MEMB     92       POPC     H14Y     HAL2     0.900000E-01   1.00800           0
     12322 MEMB     92       POPC     C315     CTL2    -0.180000       12.0110           0
     12323 MEMB     92       POPC     H15X     HAL2     0.900000E-01   1.00800           0
     12324 MEMB     92       POPC     H15Y     HAL2     0.900000E-01   1.00800           0
     12325 MEMB     92       POPC     C316     CTL3    -0.270000       12.0110           0
     12326 MEMB     92       POPC     H16X     HAL3     0.900000E-01   1.00800           0
     12327 MEMB     92       POPC     H16Y     HAL3     0.900000E-01   1.00800           0
     12328 MEMB     92       POPC     H16Z     HAL3     0.900000E-01   1.00800           0
     12329 MEMB     93       POPC     N        NTL     -0.600000       14.0070           0
     12330 MEMB     93       POPC     C12      CTL2    -0.100000       12.0110           0
     12331 MEMB     93       POPC     H12A     HL       0.250000       1.00800           0
     12332 MEMB     93       POPC     H12B     HL       0.250000       1.00800           0
     12333 MEMB     93       POPC     C13      CTL5    -0.350000       12.0110           0
     12334 MEMB     93       POPC     H13A     HL       0.250000       1.00800           0
     12335 MEMB     93       POPC     H13B     HL       0.250000       1.00800           0
     12336 MEMB     93       POPC     H13C     HL       0.250000       1.00800           0
     12337 MEMB     93       POPC     C14      CTL5    -0.350000       12.0110           0
     12338 MEMB     93       POPC     H14A     HL       0.250000       1.00800           0
     12339 MEMB     93       POPC     H14B     HL       0.250000       1.00800           0
     12340 MEMB     93       POPC     H14C     HL       0.250000       1.00800           0
     12341 MEMB     93       POPC     C15      CTL5    -0.350000       12.0110           0
     12342 MEMB     93       POPC     H15A     HL       0.250000       1.00800           0
     12343 MEMB     93       POPC     H15B     HL       0.250000       1.00800           0
     12344 MEMB     93       POPC     H15C     HL       0.250000       1.00800           0
     12345 MEMB     93       POPC     C11      CTL2    -0.800000E-01   12.0110           0
     12346 MEMB     93       POPC     H11A     HAL2     0.900000E-01   1.00800           0
     12347 MEMB     93       POPC     H11B     HAL2     0.900000E-01   1.00800           0
     12348 MEMB     93       POPC     P        PL       1.50000        30.9740           0
     12349 MEMB     93       POPC     O13      O2L     -0.780000       15.9994           0
     12350 MEMB     93       POPC     O14      O2L     -0.780000       15.9994           0
     12351 MEMB     93       POPC     O12      OSLP    -0.570000       15.9994           0
     12352 MEMB     93       POPC     O11      OSLP    -0.570000       15.9994           0
     12353 MEMB     93       POPC     C1       CTL2    -0.800000E-01   12.0110           0
     12354 MEMB     93       POPC     HA       HAL2     0.900000E-01   1.00800           0
     12355 MEMB     93       POPC     HB       HAL2     0.900000E-01   1.00800           0
     12356 MEMB     93       POPC     C2       CTL1     0.170000       12.0110           0
     12357 MEMB     93       POPC     HS       HAL1     0.900000E-01   1.00800           0
     12358 MEMB     93       POPC     O21      OSL     -0.490000       15.9994           0
     12359 MEMB     93       POPC     C21      CL       0.900000       12.0110           0
     12360 MEMB     93       POPC     O22      OBL     -0.630000       15.9994           0
     12361 MEMB     93       POPC     C22      CTL2    -0.220000       12.0110           0
     12362 MEMB     93       POPC     H2R      HAL2     0.900000E-01   1.00800           0
     12363 MEMB     93       POPC     H2S      HAL2     0.900000E-01   1.00800           0
     12364 MEMB     93       POPC     C3       CTL2     0.800000E-01   12.0110           0
     12365 MEMB     93       POPC     HX       HAL2     0.900000E-01   1.00800           0
     12366 MEMB     93       POPC     HY       HAL2     0.900000E-01   1.00800           0
     12367 MEMB     93       POPC     O31      OSL     -0.490000       15.9994           0
     12368 MEMB     93       POPC     C31      CL       0.900000       12.0110           0
     12369 MEMB     93       POPC     O32      OBL     -0.630000       15.9994           0
     12370 MEMB     93       POPC     C32      CTL2    -0.220000       12.0110           0
     12371 MEMB     93       POPC     H2X      HAL2     0.900000E-01   1.00800           0
     12372 MEMB     93       POPC     H2Y      HAL2     0.900000E-01   1.00800           0
     12373 MEMB     93       POPC     C23      CTL2    -0.180000       12.0110           0
     12374 MEMB     93       POPC     H3R      HAL2     0.900000E-01   1.00800           0
     12375 MEMB     93       POPC     H3S      HAL2     0.900000E-01   1.00800           0
     12376 MEMB     93       POPC     C24      CTL2    -0.180000       12.0110           0
     12377 MEMB     93       POPC     H4R      HAL2     0.900000E-01   1.00800           0
     12378 MEMB     93       POPC     H4S      HAL2     0.900000E-01   1.00800           0
     12379 MEMB     93       POPC     C25      CTL2    -0.180000       12.0110           0
     12380 MEMB     93       POPC     H5R      HAL2     0.900000E-01   1.00800           0
     12381 MEMB     93       POPC     H5S      HAL2     0.900000E-01   1.00800           0
     12382 MEMB     93       POPC     C26      CTL2    -0.180000       12.0110           0
     12383 MEMB     93       POPC     H6R      HAL2     0.900000E-01   1.00800           0
     12384 MEMB     93       POPC     H6S      HAL2     0.900000E-01   1.00800           0
     12385 MEMB     93       POPC     C27      CTL2    -0.180000       12.0110           0
     12386 MEMB     93       POPC     H7R      HAL2     0.900000E-01   1.00800           0
     12387 MEMB     93       POPC     H7S      HAL2     0.900000E-01   1.00800           0
     12388 MEMB     93       POPC     C28      CTL2    -0.180000       12.0110           0
     12389 MEMB     93       POPC     H8R      HAL2     0.900000E-01   1.00800           0
     12390 MEMB     93       POPC     H8S      HAL2     0.900000E-01   1.00800           0
     12391 MEMB     93       POPC     C29      CEL1    -0.150000       12.0110           0
     12392 MEMB     93       POPC     H91      HEL1     0.150000       1.00800           0
     12393 MEMB     93       POPC     C210     CEL1    -0.150000       12.0110           0
     12394 MEMB     93       POPC     H101     HEL1     0.150000       1.00800           0
     12395 MEMB     93       POPC     C211     CTL2    -0.180000       12.0110           0
     12396 MEMB     93       POPC     H11R     HAL2     0.900000E-01   1.00800           0
     12397 MEMB     93       POPC     H11S     HAL2     0.900000E-01   1.00800           0
     12398 MEMB     93       POPC     C212     CTL2    -0.180000       12.0110           0
     12399 MEMB     93       POPC     H12R     HAL2     0.900000E-01   1.00800           0
     12400 MEMB     93       POPC     H12S     HAL2     0.900000E-01   1.00800           0
     12401 MEMB     93       POPC     C213     CTL2    -0.180000       12.0110           0
     12402 MEMB     93       POPC     H13R     HAL2     0.900000E-01   1.00800           0
     12403 MEMB     93       POPC     H13S     HAL2     0.900000E-01   1.00800           0
     12404 MEMB     93       POPC     C214     CTL2    -0.180000       12.0110           0
     12405 MEMB     93       POPC     H14R     HAL2     0.900000E-01   1.00800           0
     12406 MEMB     93       POPC     H14S     HAL2     0.900000E-01   1.00800           0
     12407 MEMB     93       POPC     C215     CTL2    -0.180000       12.0110           0
     12408 MEMB     93       POPC     H15R     HAL2     0.900000E-01   1.00800           0
     12409 MEMB     93       POPC     H15S     HAL2     0.900000E-01   1.00800           0
     12410 MEMB     93       POPC     C216     CTL2    -0.180000       12.0110           0
     12411 MEMB     93       POPC     H16R     HAL2     0.900000E-01   1.00800           0
     12412 MEMB     93       POPC     H16S     HAL2     0.900000E-01   1.00800           0
     12413 MEMB     93       POPC     C217     CTL2    -0.180000       12.0110           0
     12414 MEMB     93       POPC     H17R     HAL2     0.900000E-01   1.00800           0
     12415 MEMB     93       POPC     H17S     HAL2     0.900000E-01   1.00800           0
     12416 MEMB     93       POPC     C218     CTL3    -0.270000       12.0110           0
     12417 MEMB     93       POPC     H18R     HAL3     0.900000E-01   1.00800           0
     12418 MEMB     93       POPC     H18S     HAL3     0.900000E-01   1.00800           0
     12419 MEMB     93       POPC     H18T     HAL3     0.900000E-01   1.00800           0
     12420 MEMB     93       POPC     C33      CTL2    -0.180000       12.0110           0
     12421 MEMB     93       POPC     H3X      HAL2     0.900000E-01   1.00800           0
     12422 MEMB     93       POPC     H3Y      HAL2     0.900000E-01   1.00800           0
     12423 MEMB     93       POPC     C34      CTL2    -0.180000       12.0110           0
     12424 MEMB     93       POPC     H4X      HAL2     0.900000E-01   1.00800           0
     12425 MEMB     93       POPC     H4Y      HAL2     0.900000E-01   1.00800           0
     12426 MEMB     93       POPC     C35      CTL2    -0.180000       12.0110           0
     12427 MEMB     93       POPC     H5X      HAL2     0.900000E-01   1.00800           0
     12428 MEMB     93       POPC     H5Y      HAL2     0.900000E-01   1.00800           0
     12429 MEMB     93       POPC     C36      CTL2    -0.180000       12.0110           0
     12430 MEMB     93       POPC     H6X      HAL2     0.900000E-01   1.00800           0
     12431 MEMB     93       POPC     H6Y      HAL2     0.900000E-01   1.00800           0
     12432 MEMB     93       POPC     C37      CTL2    -0.180000       12.0110           0
     12433 MEMB     93       POPC     H7X      HAL2     0.900000E-01   1.00800           0
     12434 MEMB     93       POPC     H7Y      HAL2     0.900000E-01   1.00800           0
     12435 MEMB     93       POPC     C38      CTL2    -0.180000       12.0110           0
     12436 MEMB     93       POPC     H8X      HAL2     0.900000E-01   1.00800           0
     12437 MEMB     93       POPC     H8Y      HAL2     0.900000E-01   1.00800           0
     12438 MEMB     93       POPC     C39      CTL2    -0.180000       12.0110           0
     12439 MEMB     93       POPC     H9X      HAL2     0.900000E-01   1.00800           0
     12440 MEMB     93       POPC     H9Y      HAL2     0.900000E-01   1.00800           0
     12441 MEMB     93       POPC     C310     CTL2    -0.180000       12.0110           0
     12442 MEMB     93       POPC     H10X     HAL2     0.900000E-01   1.00800           0
     12443 MEMB     93       POPC     H10Y     HAL2     0.900000E-01   1.00800           0
     12444 MEMB     93       POPC     C311     CTL2    -0.180000       12.0110           0
     12445 MEMB     93       POPC     H11X     HAL2     0.900000E-01   1.00800           0
     12446 MEMB     93       POPC     H11Y     HAL2     0.900000E-01   1.00800           0
     12447 MEMB     93       POPC     C312     CTL2    -0.180000       12.0110           0
     12448 MEMB     93       POPC     H12X     HAL2     0.900000E-01   1.00800           0
     12449 MEMB     93       POPC     H12Y     HAL2     0.900000E-01   1.00800           0
     12450 MEMB     93       POPC     C313     CTL2    -0.180000       12.0110           0
     12451 MEMB     93       POPC     H13X     HAL2     0.900000E-01   1.00800           0
     12452 MEMB     93       POPC     H13Y     HAL2     0.900000E-01   1.00800           0
     12453 MEMB     93       POPC     C314     CTL2    -0.180000       12.0110           0
     12454 MEMB     93       POPC     H14X     HAL2     0.900000E-01   1.00800           0
     12455 MEMB     93       POPC     H14Y     HAL2     0.900000E-01   1.00800           0
     12456 MEMB     93       POPC     C315     CTL2    -0.180000       12.0110           0
     12457 MEMB     93       POPC     H15X     HAL2     0.900000E-01   1.00800           0
     12458 MEMB     93       POPC     H15Y     HAL2     0.900000E-01   1.00800           0
     12459 MEMB     93       POPC     C316     CTL3    -0.270000       12.0110           0
     12460 MEMB     93       POPC     H16X     HAL3     0.900000E-01   1.00800           0
     12461 MEMB     93       POPC     H16Y     HAL3     0.900000E-01   1.00800           0
     12462 MEMB     93       POPC     H16Z     HAL3     0.900000E-01   1.00800           0
     12463 MEMB     94       POPC     N        NTL     -0.600000       14.0070           0
     12464 MEMB     94       POPC     C12      CTL2    -0.100000       12.0110           0
     12465 MEMB     94       POPC     H12A     HL       0.250000       1.00800           0
     12466 MEMB     94       POPC     H12B     HL       0.250000       1.00800           0
     12467 MEMB     94       POPC     C13      CTL5    -0.350000       12.0110           0
     12468 MEMB     94       POPC     H13A     HL       0.250000       1.00800           0
     12469 MEMB     94       POPC     H13B     HL       0.250000       1.00800           0
     12470 MEMB     94       POPC     H13C     HL       0.250000       1.00800           0
     12471 MEMB     94       POPC     C14      CTL5    -0.350000       12.0110           0
     12472 MEMB     94       POPC     H14A     HL       0.250000       1.00800           0
     12473 MEMB     94       POPC     H14B     HL       0.250000       1.00800           0
     12474 MEMB     94       POPC     H14C     HL       0.250000       1.00800           0
     12475 MEMB     94       POPC     C15      CTL5    -0.350000       12.0110           0
     12476 MEMB     94       POPC     H15A     HL       0.250000       1.00800           0
     12477 MEMB     94       POPC     H15B     HL       0.250000       1.00800           0
     12478 MEMB     94       POPC     H15C     HL       0.250000       1.00800           0
     12479 MEMB     94       POPC     C11      CTL2    -0.800000E-01   12.0110           0
     12480 MEMB     94       POPC     H11A     HAL2     0.900000E-01   1.00800           0
     12481 MEMB     94       POPC     H11B     HAL2     0.900000E-01   1.00800           0
     12482 MEMB     94       POPC     P        PL       1.50000        30.9740           0
     12483 MEMB     94       POPC     O13      O2L     -0.780000       15.9994           0
     12484 MEMB     94       POPC     O14      O2L     -0.780000       15.9994           0
     12485 MEMB     94       POPC     O12      OSLP    -0.570000       15.9994           0
     12486 MEMB     94       POPC     O11      OSLP    -0.570000       15.9994           0
     12487 MEMB     94       POPC     C1       CTL2    -0.800000E-01   12.0110           0
     12488 MEMB     94       POPC     HA       HAL2     0.900000E-01   1.00800           0
     12489 MEMB     94       POPC     HB       HAL2     0.900000E-01   1.00800           0
     12490 MEMB     94       POPC     C2       CTL1     0.170000       12.0110           0
     12491 MEMB     94       POPC     HS       HAL1     0.900000E-01   1.00800           0
     12492 MEMB     94       POPC     O21      OSL     -0.490000       15.9994           0
     12493 MEMB     94       POPC     C21      CL       0.900000       12.0110           0
     12494 MEMB     94       POPC     O22      OBL     -0.630000       15.9994           0
     12495 MEMB     94       POPC     C22      CTL2    -0.220000       12.0110           0
     12496 MEMB     94       POPC     H2R      HAL2     0.900000E-01   1.00800           0
     12497 MEMB     94       POPC     H2S      HAL2     0.900000E-01   1.00800           0
     12498 MEMB     94       POPC     C3       CTL2     0.800000E-01   12.0110           0
     12499 MEMB     94       POPC     HX       HAL2     0.900000E-01   1.00800           0
     12500 MEMB     94       POPC     HY       HAL2     0.900000E-01   1.00800           0
     12501 MEMB     94       POPC     O31      OSL     -0.490000       15.9994           0
     12502 MEMB     94       POPC     C31      CL       0.900000       12.0110           0
     12503 MEMB     94       POPC     O32      OBL     -0.630000       15.9994           0
     12504 MEMB     94       POPC     C32      CTL2    -0.220000       12.0110           0
     12505 MEMB     94       POPC     H2X      HAL2     0.900000E-01   1.00800           0
     12506 MEMB     94       POPC     H2Y      HAL2     0.900000E-01   1.00800           0
     12507 MEMB     94       POPC     C23      CTL2    -0.180000       12.0110           0
     12508 MEMB     94       POPC     H3R      HAL2     0.900000E-01   1.00800           0
     12509 MEMB     94       POPC     H3S      HAL2     0.900000E-01   1.00800           0
     12510 MEMB     94       POPC     C24      CTL2    -0.180000       12.0110           0
     12511 MEMB     94       POPC     H4R      HAL2     0.900000E-01   1.00800           0
     12512 MEMB     94       POPC     H4S      HAL2     0.900000E-01   1.00800           0
     12513 MEMB     94       POPC     C25      CTL2    -0.180000       12.0110           0
     12514 MEMB     94       POPC     H5R      HAL2     0.900000E-01   1.00800           0
     12515 MEMB     94       POPC     H5S      HAL2     0.900000E-01   1.00800           0
     12516 MEMB     94       POPC     C26      CTL2    -0.180000       12.0110           0
     12517 MEMB     94       POPC     H6R      HAL2     0.900000E-01   1.00800           0
     12518 MEMB     94       POPC     H6S      HAL2     0.900000E-01   1.00800           0
     12519 MEMB     94       POPC     C27      CTL2    -0.180000       12.0110           0
     12520 MEMB     94       POPC     H7R      HAL2     0.900000E-01   1.00800           0
     12521 MEMB     94       POPC     H7S      HAL2     0.900000E-01   1.00800           0
     12522 MEMB     94       POPC     C28      CTL2    -0.180000       12.0110           0
     12523 MEMB     94       POPC     H8R      HAL2     0.900000E-01   1.00800           0
     12524 MEMB     94       POPC     H8S      HAL2     0.900000E-01   1.00800           0
     12525 MEMB     94       POPC     C29      CEL1    -0.150000       12.0110           0
     12526 MEMB     94       POPC     H91      HEL1     0.150000       1.00800           0
     12527 MEMB     94       POPC     C210     CEL1    -0.150000       12.0110           0
     12528 MEMB     94       POPC     H101     HEL1     0.150000       1.00800           0
     12529 MEMB     94       POPC     C211     CTL2    -0.180000       12.0110           0
     12530 MEMB     94       POPC     H11R     HAL2     0.900000E-01   1.00800           0
     12531 MEMB     94       POPC     H11S     HAL2     0.900000E-01   1.00800           0
     12532 MEMB     94       POPC     C212     CTL2    -0.180000       12.0110           0
     12533 MEMB     94       POPC     H12R     HAL2     0.900000E-01   1.00800           0
     12534 MEMB     94       POPC     H12S     HAL2     0.900000E-01   1.00800           0
     12535 MEMB     94       POPC     C213     CTL2    -0.180000       12.0110           0
     12536 MEMB     94       POPC     H13R     HAL2     0.900000E-01   1.00800           0
     12537 MEMB     94       POPC     H13S     HAL2     0.900000E-01   1.00800           0
     12538 MEMB     94       POPC     C214     CTL2    -0.180000       12.0110           0
     12539 MEMB     94       POPC     H14R     HAL2     0.900000E-01   1.00800           0
     12540 MEMB     94       POPC     H14S     HAL2     0.900000E-01   1.00800           0
     12541 MEMB     94       POPC     C215     CTL2    -0.180000       12.0110           0
     12542 MEMB     94       POPC     H15R     HAL2     0.900000E-01   1.00800           0
     12543 MEMB     94       POPC     H15S     HAL2     0.900000E-01   1.00800           0
     12544 MEMB     94       POPC     C216     CTL2    -0.180000       12.0110           0
     12545 MEMB     94       POPC     H16R     HAL2     0.900000E-01   1.00800           0
     12546 MEMB     94       POPC     H16S     HAL2     0.900000E-01   1.00800           0
     12547 MEMB     94       POPC     C217     CTL2    -0.180000       12.0110           0
     12548 MEMB     94       POPC     H17R     HAL2     0.900000E-01   1.00800           0
     12549 MEMB     94       POPC     H17S     HAL2     0.900000E-01   1.00800           0
     12550 MEMB     94       POPC     C218     CTL3    -0.270000       12.0110           0
     12551 MEMB     94       POPC     H18R     HAL3     0.900000E-01   1.00800           0
     12552 MEMB     94       POPC     H18S     HAL3     0.900000E-01   1.00800           0
     12553 MEMB     94       POPC     H18T     HAL3     0.900000E-01   1.00800           0
     12554 MEMB     94       POPC     C33      CTL2    -0.180000       12.0110           0
     12555 MEMB     94       POPC     H3X      HAL2     0.900000E-01   1.00800           0
     12556 MEMB     94       POPC     H3Y      HAL2     0.900000E-01   1.00800           0
     12557 MEMB     94       POPC     C34      CTL2    -0.180000       12.0110           0
     12558 MEMB     94       POPC     H4X      HAL2     0.900000E-01   1.00800           0
     12559 MEMB     94       POPC     H4Y      HAL2     0.900000E-01   1.00800           0
     12560 MEMB     94       POPC     C35      CTL2    -0.180000       12.0110           0
     12561 MEMB     94       POPC     H5X      HAL2     0.900000E-01   1.00800           0
     12562 MEMB     94       POPC     H5Y      HAL2     0.900000E-01   1.00800           0
     12563 MEMB     94       POPC     C36      CTL2    -0.180000       12.0110           0
     12564 MEMB     94       POPC     H6X      HAL2     0.900000E-01   1.00800           0
     12565 MEMB     94       POPC     H6Y      HAL2     0.900000E-01   1.00800           0
     12566 MEMB     94       POPC     C37      CTL2    -0.180000       12.0110           0
     12567 MEMB     94       POPC     H7X      HAL2     0.900000E-01   1.00800           0
     12568 MEMB     94       POPC     H7Y      HAL2     0.900000E-01   1.00800           0
     12569 MEMB     94       POPC     C38      CTL2    -0.180000       12.0110           0
     12570 MEMB     94       POPC     H8X      HAL2     0.900000E-01   1.00800           0
     12571 MEMB     94       POPC     H8Y      HAL2     0.900000E-01   1.00800           0
     12572 MEMB     94       POPC     C39      CTL2    -0.180000       12.0110           0
     12573 MEMB     94       POPC     H9X      HAL2     0.900000E-01   1.00800           0
     12574 MEMB     94       POPC     H9Y      HAL2     0.900000E-01   1.00800           0
     12575 MEMB     94       POPC     C310     CTL2    -0.180000       12.0110           0
     12576 MEMB     94       POPC     H10X     HAL2     0.900000E-01   1.00800           0
     12577 MEMB     94       POPC     H10Y     HAL2     0.900000E-01   1.00800           0
     12578 MEMB     94       POPC     C311     CTL2    -0.180000       12.0110           0
     12579 MEMB     94       POPC     H11X     HAL2     0.900000E-01   1.00800           0
     12580 MEMB     94       POPC     H11Y     HAL2     0.900000E-01   1.00800           0
     12581 MEMB     94       POPC     C312     CTL2    -0.180000       12.0110           0
     12582 MEMB     94       POPC     H12X     HAL2     0.900000E-01   1.00800           0
     12583 MEMB     94       POPC     H12Y     HAL2     0.900000E-01   1.00800           0
     12584 MEMB     94       POPC     C313     CTL2    -0.180000       12.0110           0
     12585 MEMB     94       POPC     H13X     HAL2     0.900000E-01   1.00800           0
     12586 MEMB     94       POPC     H13Y     HAL2     0.900000E-01   1.00800           0
     12587 MEMB     94       POPC     C314     CTL2    -0.180000       12.0110           0
     12588 MEMB     94       POPC     H14X     HAL2     0.900000E-01   1.00800           0
     12589 MEMB     94       POPC     H14Y     HAL2     0.900000E-01   1.00800           0
     12590 MEMB     94       POPC     C315     CTL2    -0.180000       12.0110           0
     12591 MEMB     94       POPC     H15X     HAL2     0.900000E-01   1.00800           0
     12592 MEMB     94       POPC     H15Y     HAL2     0.900000E-01   1.00800           0
     12593 MEMB     94       POPC     C316     CTL3    -0.270000       12.0110           0
     12594 MEMB     94       POPC     H16X     HAL3     0.900000E-01   1.00800           0
     12595 MEMB     94       POPC     H16Y     HAL3     0.900000E-01   1.00800           0
     12596 MEMB     94       POPC     H16Z     HAL3     0.900000E-01   1.00800           0
     12597 MEMB     95       POPC     N        NTL     -0.600000       14.0070           0
     12598 MEMB     95       POPC     C12      CTL2    -0.100000       12.0110           0
     12599 MEMB     95       POPC     H12A     HL       0.250000       1.00800           0
     12600 MEMB     95       POPC     H12B     HL       0.250000       1.00800           0
     12601 MEMB     95       POPC     C13      CTL5    -0.350000       12.0110           0
     12602 MEMB     95       POPC     H13A     HL       0.250000       1.00800           0
     12603 MEMB     95       POPC     H13B     HL       0.250000       1.00800           0
     12604 MEMB     95       POPC     H13C     HL       0.250000       1.00800           0
     12605 MEMB     95       POPC     C14      CTL5    -0.350000       12.0110           0
     12606 MEMB     95       POPC     H14A     HL       0.250000       1.00800           0
     12607 MEMB     95       POPC     H14B     HL       0.250000       1.00800           0
     12608 MEMB     95       POPC     H14C     HL       0.250000       1.00800           0
     12609 MEMB     95       POPC     C15      CTL5    -0.350000       12.0110           0
     12610 MEMB     95       POPC     H15A     HL       0.250000       1.00800           0
     12611 MEMB     95       POPC     H15B     HL       0.250000       1.00800           0
     12612 MEMB     95       POPC     H15C     HL       0.250000       1.00800           0
     12613 MEMB     95       POPC     C11      CTL2    -0.800000E-01   12.0110           0
     12614 MEMB     95       POPC     H11A     HAL2     0.900000E-01   1.00800           0
     12615 MEMB     95       POPC     H11B     HAL2     0.900000E-01   1.00800           0
     12616 MEMB     95       POPC     P        PL       1.50000        30.9740           0
     12617 MEMB     95       POPC     O13      O2L     -0.780000       15.9994           0
     12618 MEMB     95       POPC     O14      O2L     -0.780000       15.9994           0
     12619 MEMB     95       POPC     O12      OSLP    -0.570000       15.9994           0
     12620 MEMB     95       POPC     O11      OSLP    -0.570000       15.9994           0
     12621 MEMB     95       POPC     C1       CTL2    -0.800000E-01   12.0110           0
     12622 MEMB     95       POPC     HA       HAL2     0.900000E-01   1.00800           0
     12623 MEMB     95       POPC     HB       HAL2     0.900000E-01   1.00800           0
     12624 MEMB     95       POPC     C2       CTL1     0.170000       12.0110           0
     12625 MEMB     95       POPC     HS       HAL1     0.900000E-01   1.00800           0
     12626 MEMB     95       POPC     O21      OSL     -0.490000       15.9994           0
     12627 MEMB     95       POPC     C21      CL       0.900000       12.0110           0
     12628 MEMB     95       POPC     O22      OBL     -0.630000       15.9994           0
     12629 MEMB     95       POPC     C22      CTL2    -0.220000       12.0110           0
     12630 MEMB     95       POPC     H2R      HAL2     0.900000E-01   1.00800           0
     12631 MEMB     95       POPC     H2S      HAL2     0.900000E-01   1.00800           0
     12632 MEMB     95       POPC     C3       CTL2     0.800000E-01   12.0110           0
     12633 MEMB     95       POPC     HX       HAL2     0.900000E-01   1.00800           0
     12634 MEMB     95       POPC     HY       HAL2     0.900000E-01   1.00800           0
     12635 MEMB     95       POPC     O31      OSL     -0.490000       15.9994           0
     12636 MEMB     95       POPC     C31      CL       0.900000       12.0110           0
     12637 MEMB     95       POPC     O32      OBL     -0.630000       15.9994           0
     12638 MEMB     95       POPC     C32      CTL2    -0.220000       12.0110           0
     12639 MEMB     95       POPC     H2X      HAL2     0.900000E-01   1.00800           0
     12640 MEMB     95       POPC     H2Y      HAL2     0.900000E-01   1.00800           0
     12641 MEMB     95       POPC     C23      CTL2    -0.180000       12.0110           0
     12642 MEMB     95       POPC     H3R      HAL2     0.900000E-01   1.00800           0
     12643 MEMB     95       POPC     H3S      HAL2     0.900000E-01   1.00800           0
     12644 MEMB     95       POPC     C24      CTL2    -0.180000       12.0110           0
     12645 MEMB     95       POPC     H4R      HAL2     0.900000E-01   1.00800           0
     12646 MEMB     95       POPC     H4S      HAL2     0.900000E-01   1.00800           0
     12647 MEMB     95       POPC     C25      CTL2    -0.180000       12.0110           0
     12648 MEMB     95       POPC     H5R      HAL2     0.900000E-01   1.00800           0
     12649 MEMB     95       POPC     H5S      HAL2     0.900000E-01   1.00800           0
     12650 MEMB     95       POPC     C26      CTL2    -0.180000       12.0110           0
     12651 MEMB     95       POPC     H6R      HAL2     0.900000E-01   1.00800           0
     12652 MEMB     95       POPC     H6S      HAL2     0.900000E-01   1.00800           0
     12653 MEMB     95       POPC     C27      CTL2    -0.180000       12.0110           0
     12654 MEMB     95       POPC     H7R      HAL2     0.900000E-01   1.00800           0
     12655 MEMB     95       POPC     H7S      HAL2     0.900000E-01   1.00800           0
     12656 MEMB     95       POPC     C28      CTL2    -0.180000       12.0110           0
     12657 MEMB     95       POPC     H8R      HAL2     0.900000E-01   1.00800           0
     12658 MEMB     95       POPC     H8S      HAL2     0.900000E-01   1.00800           0
     12659 MEMB     95       POPC     C29      CEL1    -0.150000       12.0110           0
     12660 MEMB     95       POPC     H91      HEL1     0.150000       1.00800           0
     12661 MEMB     95       POPC     C210     CEL1    -0.150000       12.0110           0
     12662 MEMB     95       POPC     H101     HEL1     0.150000       1.00800           0
     12663 MEMB     95       POPC     C211     CTL2    -0.180000       12.0110           0
     12664 MEMB     95       POPC     H11R     HAL2     0.900000E-01   1.00800           0
     12665 MEMB     95       POPC     H11S     HAL2     0.900000E-01   1.00800           0
     12666 MEMB     95       POPC     C212     CTL2    -0.180000       12.0110           0
     12667 MEMB     95       POPC     H12R     HAL2     0.900000E-01   1.00800           0
     12668 MEMB     95       POPC     H12S     HAL2     0.900000E-01   1.00800           0
     12669 MEMB     95       POPC     C213     CTL2    -0.180000       12.0110           0
     12670 MEMB     95       POPC     H13R     HAL2     0.900000E-01   1.00800           0
     12671 MEMB     95       POPC     H13S     HAL2     0.900000E-01   1.00800           0
     12672 MEMB     95       POPC     C214     CTL2    -0.180000       12.0110           0
     12673 MEMB     95       POPC     H14R     HAL2     0.900000E-01   1.00800           0
     12674 MEMB     95       POPC     H14S     HAL2     0.900000E-01   1.00800           0
     12675 MEMB     95       POPC     C215     CTL2    -0.180000       12.0110           0
     12676 MEMB     95       POPC     H15R     HAL2     0.900000E-01   1.00800           0
     12677 MEMB     95       POPC     H15S     HAL2     0.900000E-01   1.00800           0
     12678 MEMB     95       POPC     C216     CTL2    -0.180000       12.0110           0
     12679 MEMB     95       POPC     H16R     HAL2     0.900000E-01   1.00800           0
     12680 MEMB     95       POPC     H16S     HAL2     0.900000E-01   1.00800           0
     12681 MEMB     95       POPC     C217     CTL2    -0.180000       12.0110           0
     12682 MEMB     95       POPC     H17R     HAL2     0.900000E-01   1.00800           0
     12683 MEMB     95       POPC     H17S     HAL2     0.900000E-01   1.00800           0
     12684 MEMB     95       POPC     C218     CTL3    -0.270000       12.0110           0
     12685 MEMB     95       POPC     H18R     HAL3     0.900000E-01   1.00800           0
     12686 MEMB     95       POPC     H18S     HAL3     0.900000E-01   1.00800           0
     12687 MEMB     95       POPC     H18T     HAL3     0.900000E-01   1.00800           0
     12688 MEMB     95       POPC     C33      CTL2    -0.180000       12.0110           0
     12689 MEMB     95       POPC     H3X      HAL2     0.900000E-01   1.00800           0
     12690 MEMB     95       POPC     H3Y      HAL2     0.900000E-01   1.00800           0
     12691 MEMB     95       POPC     C34      CTL2    -0.180000       12.0110           0
     12692 MEMB     95       POPC     H4X      HAL2     0.900000E-01   1.00800           0
     12693 MEMB     95       POPC     H4Y      HAL2     0.900000E-01   1.00800           0
     12694 MEMB     95       POPC     C35      CTL2    -0.180000       12.0110           0
     12695 MEMB     95       POPC     H5X      HAL2     0.900000E-01   1.00800           0
     12696 MEMB     95       POPC     H5Y      HAL2     0.900000E-01   1.00800           0
     12697 MEMB     95       POPC     C36      CTL2    -0.180000       12.0110           0
     12698 MEMB     95       POPC     H6X      HAL2     0.900000E-01   1.00800           0
     12699 MEMB     95       POPC     H6Y      HAL2     0.900000E-01   1.00800           0
     12700 MEMB     95       POPC     C37      CTL2    -0.180000       12.0110           0
     12701 MEMB     95       POPC     H7X      HAL2     0.900000E-01   1.00800           0
     12702 MEMB     95       POPC     H7Y      HAL2     0.900000E-01   1.00800           0
     12703 MEMB     95       POPC     C38      CTL2    -0.180000       12.0110           0
     12704 MEMB     95       POPC     H8X      HAL2     0.900000E-01   1.00800           0
     12705 MEMB     95       POPC     H8Y      HAL2     0.900000E-01   1.00800           0
     12706 MEMB     95       POPC     C39      CTL2    -0.180000       12.0110           0
     12707 MEMB     95       POPC     H9X      HAL2     0.900000E-01   1.00800           0
     12708 MEMB     95       POPC     H9Y      HAL2     0.900000E-01   1.00800           0
     12709 MEMB     95       POPC     C310     CTL2    -0.180000       12.0110           0
     12710 MEMB     95       POPC     H10X     HAL2     0.900000E-01   1.00800           0
     12711 MEMB     95       POPC     H10Y     HAL2     0.900000E-01   1.00800           0
     12712 MEMB     95       POPC     C311     CTL2    -0.180000       12.0110           0
     12713 MEMB     95       POPC     H11X     HAL2     0.900000E-01   1.00800           0
     12714 MEMB     95       POPC     H11Y     HAL2     0.900000E-01   1.00800           0
     12715 MEMB     95       POPC     C312     CTL2    -0.180000       12.0110           0
     12716 MEMB     95       POPC     H12X     HAL2     0.900000E-01   1.00800           0
     12717 MEMB     95       POPC     H12Y     HAL2     0.900000E-01   1.00800           0
     12718 MEMB     95       POPC     C313     CTL2    -0.180000       12.0110           0
     12719 MEMB     95       POPC     H13X     HAL2     0.900000E-01   1.00800           0
     12720 MEMB     95       POPC     H13Y     HAL2     0.900000E-01   1.00800           0
     12721 MEMB     95       POPC     C314     CTL2    -0.180000       12.0110           0
     12722 MEMB     95       POPC     H14X     HAL2     0.900000E-01   1.00800           0
     12723 MEMB     95       POPC     H14Y     HAL2     0.900000E-01   1.00800           0
     12724 MEMB     95       POPC     C315     CTL2    -0.180000       12.0110           0
     12725 MEMB     95       POPC     H15X     HAL2     0.900000E-01   1.00800           0
     12726 MEMB     95       POPC     H15Y     HAL2     0.900000E-01   1.00800           0
     12727 MEMB     95       POPC     C316     CTL3    -0.270000       12.0110           0
     12728 MEMB     95       POPC     H16X     HAL3     0.900000E-01   1.00800           0
     12729 MEMB     95       POPC     H16Y     HAL3     0.900000E-01   1.00800           0
     12730 MEMB     95       POPC     H16Z     HAL3     0.900000E-01   1.00800           0
     12731 MEMB     96       POPC     N        NTL     -0.600000       14.0070           0
     12732 MEMB     96       POPC     C12      CTL2    -0.100000       12.0110           0
     12733 MEMB     96       POPC     H12A     HL       0.250000       1.00800           0
     12734 MEMB     96       POPC     H12B     HL       0.250000       1.00800           0
     12735 MEMB     96       POPC     C13      CTL5    -0.350000       12.0110           0
     12736 MEMB     96       POPC     H13A     HL       0.250000       1.00800           0
     12737 MEMB     96       POPC     H13B     HL       0.250000       1.00800           0
     12738 MEMB     96       POPC     H13C     HL       0.250000       1.00800           0
     12739 MEMB     96       POPC     C14      CTL5    -0.350000       12.0110           0
     12740 MEMB     96       POPC     H14A     HL       0.250000       1.00800           0
     12741 MEMB     96       POPC     H14B     HL       0.250000       1.00800           0
     12742 MEMB     96       POPC     H14C     HL       0.250000       1.00800           0
     12743 MEMB     96       POPC     C15      CTL5    -0.350000       12.0110           0
     12744 MEMB     96       POPC     H15A     HL       0.250000       1.00800           0
     12745 MEMB     96       POPC     H15B     HL       0.250000       1.00800           0
     12746 MEMB     96       POPC     H15C     HL       0.250000       1.00800           0
     12747 MEMB     96       POPC     C11      CTL2    -0.800000E-01   12.0110           0
     12748 MEMB     96       POPC     H11A     HAL2     0.900000E-01   1.00800           0
     12749 MEMB     96       POPC     H11B     HAL2     0.900000E-01   1.00800           0
     12750 MEMB     96       POPC     P        PL       1.50000        30.9740           0
     12751 MEMB     96       POPC     O13      O2L     -0.780000       15.9994           0
     12752 MEMB     96       POPC     O14      O2L     -0.780000       15.9994           0
     12753 MEMB     96       POPC     O12      OSLP    -0.570000       15.9994           0
     12754 MEMB     96       POPC     O11      OSLP    -0.570000       15.9994           0
     12755 MEMB     96       POPC     C1       CTL2    -0.800000E-01   12.0110           0
     12756 MEMB     96       POPC     HA       HAL2     0.900000E-01   1.00800           0
     12757 MEMB     96       POPC     HB       HAL2     0.900000E-01   1.00800           0
     12758 MEMB     96       POPC     C2       CTL1     0.170000       12.0110           0
     12759 MEMB     96       POPC     HS       HAL1     0.900000E-01   1.00800           0
     12760 MEMB     96       POPC     O21      OSL     -0.490000       15.9994           0
     12761 MEMB     96       POPC     C21      CL       0.900000       12.0110           0
     12762 MEMB     96       POPC     O22      OBL     -0.630000       15.9994           0
     12763 MEMB     96       POPC     C22      CTL2    -0.220000       12.0110           0
     12764 MEMB     96       POPC     H2R      HAL2     0.900000E-01   1.00800           0
     12765 MEMB     96       POPC     H2S      HAL2     0.900000E-01   1.00800           0
     12766 MEMB     96       POPC     C3       CTL2     0.800000E-01   12.0110           0
     12767 MEMB     96       POPC     HX       HAL2     0.900000E-01   1.00800           0
     12768 MEMB     96       POPC     HY       HAL2     0.900000E-01   1.00800           0
     12769 MEMB     96       POPC     O31      OSL     -0.490000       15.9994           0
     12770 MEMB     96       POPC     C31      CL       0.900000       12.0110           0
     12771 MEMB     96       POPC     O32      OBL     -0.630000       15.9994           0
     12772 MEMB     96       POPC     C32      CTL2    -0.220000       12.0110           0
     12773 MEMB     96       POPC     H2X      HAL2     0.900000E-01   1.00800           0
     12774 MEMB     96       POPC     H2Y      HAL2     0.900000E-01   1.00800           0
     12775 MEMB     96       POPC     C23      CTL2    -0.180000       12.0110           0
     12776 MEMB     96       POPC     H3R      HAL2     0.900000E-01   1.00800           0
     12777 MEMB     96       POPC     H3S      HAL2     0.900000E-01   1.00800           0
     12778 MEMB     96       POPC     C24      CTL2    -0.180000       12.0110           0
     12779 MEMB     96       POPC     H4R      HAL2     0.900000E-01   1.00800           0
     12780 MEMB     96       POPC     H4S      HAL2     0.900000E-01   1.00800           0
     12781 MEMB     96       POPC     C25      CTL2    -0.180000       12.0110           0
     12782 MEMB     96       POPC     H5R      HAL2     0.900000E-01   1.00800           0
     12783 MEMB     96       POPC     H5S      HAL2     0.900000E-01   1.00800           0
     12784 MEMB     96       POPC     C26      CTL2    -0.180000       12.0110           0
     12785 MEMB     96       POPC     H6R      HAL2     0.900000E-01   1.00800           0
     12786 MEMB     96       POPC     H6S      HAL2     0.900000E-01   1.00800           0
     12787 MEMB     96       POPC     C27      CTL2    -0.180000       12.0110           0
     12788 MEMB     96       POPC     H7R      HAL2     0.900000E-01   1.00800           0
     12789 MEMB     96       POPC     H7S      HAL2     0.900000E-01   1.00800           0
     12790 MEMB     96       POPC     C28      CTL2    -0.180000       12.0110           0
     12791 MEMB     96       POPC     H8R      HAL2     0.900000E-01   1.00800           0
     12792 MEMB     96       POPC     H8S      HAL2     0.900000E-01   1.00800           0
     12793 MEMB     96       POPC     C29      CEL1    -0.150000       12.0110           0
     12794 MEMB     96       POPC     H91      HEL1     0.150000       1.00800           0
     12795 MEMB     96       POPC     C210     CEL1    -0.150000       12.0110           0
     12796 MEMB     96       POPC     H101     HEL1     0.150000       1.00800           0
     12797 MEMB     96       POPC     C211     CTL2    -0.180000       12.0110           0
     12798 MEMB     96       POPC     H11R     HAL2     0.900000E-01   1.00800           0
     12799 MEMB     96       POPC     H11S     HAL2     0.900000E-01   1.00800           0
     12800 MEMB     96       POPC     C212     CTL2    -0.180000       12.0110           0
     12801 MEMB     96       POPC     H12R     HAL2     0.900000E-01   1.00800           0
     12802 MEMB     96       POPC     H12S     HAL2     0.900000E-01   1.00800           0
     12803 MEMB     96       POPC     C213     CTL2    -0.180000       12.0110           0
     12804 MEMB     96       POPC     H13R     HAL2     0.900000E-01   1.00800           0
     12805 MEMB     96       POPC     H13S     HAL2     0.900000E-01   1.00800           0
     12806 MEMB     96       POPC     C214     CTL2    -0.180000       12.0110           0
     12807 MEMB     96       POPC     H14R     HAL2     0.900000E-01   1.00800           0
     12808 MEMB     96       POPC     H14S     HAL2     0.900000E-01   1.00800           0
     12809 MEMB     96       POPC     C215     CTL2    -0.180000       12.0110           0
     12810 MEMB     96       POPC     H15R     HAL2     0.900000E-01   1.00800           0
     12811 MEMB     96       POPC     H15S     HAL2     0.900000E-01   1.00800           0
     12812 MEMB     96       POPC     C216     CTL2    -0.180000       12.0110           0
     12813 MEMB     96       POPC     H16R     HAL2     0.900000E-01   1.00800           0
     12814 MEMB     96       POPC     H16S     HAL2     0.900000E-01   1.00800           0
     12815 MEMB     96       POPC     C217     CTL2    -0.180000       12.0110           0
     12816 MEMB     96       POPC     H17R     HAL2     0.900000E-01   1.00800           0
     12817 MEMB     96       POPC     H17S     HAL2     0.900000E-01   1.00800           0
     12818 MEMB     96       POPC     C218     CTL3    -0.270000       12.0110           0
     12819 MEMB     96       POPC     H18R     HAL3     0.900000E-01   1.00800           0
     12820 MEMB     96       POPC     H18S     HAL3     0.900000E-01   1.00800           0
     12821 MEMB     96       POPC     H18T     HAL3     0.900000E-01   1.00800           0
     12822 MEMB     96       POPC     C33      CTL2    -0.180000       12.0110           0
     12823 MEMB     96       POPC     H3X      HAL2     0.900000E-01   1.00800           0
     12824 MEMB     96       POPC     H3Y      HAL2     0.900000E-01   1.00800           0
     12825 MEMB     96       POPC     C34      CTL2    -0.180000       12.0110           0
     12826 MEMB     96       POPC     H4X      HAL2     0.900000E-01   1.00800           0
     12827 MEMB     96       POPC     H4Y      HAL2     0.900000E-01   1.00800           0
     12828 MEMB     96       POPC     C35      CTL2    -0.180000       12.0110           0
     12829 MEMB     96       POPC     H5X      HAL2     0.900000E-01   1.00800           0
     12830 MEMB     96       POPC     H5Y      HAL2     0.900000E-01   1.00800           0
     12831 MEMB     96       POPC     C36      CTL2    -0.180000       12.0110           0
     12832 MEMB     96       POPC     H6X      HAL2     0.900000E-01   1.00800           0
     12833 MEMB     96       POPC     H6Y      HAL2     0.900000E-01   1.00800           0
     12834 MEMB     96       POPC     C37      CTL2    -0.180000       12.0110           0
     12835 MEMB     96       POPC     H7X      HAL2     0.900000E-01   1.00800           0
     12836 MEMB     96       POPC     H7Y      HAL2     0.900000E-01   1.00800           0
     12837 MEMB     96       POPC     C38      CTL2    -0.180000       12.0110           0
     12838 MEMB     96       POPC     H8X      HAL2     0.900000E-01   1.00800           0
     12839 MEMB     96       POPC     H8Y      HAL2     0.900000E-01   1.00800           0
     12840 MEMB     96       POPC     C39      CTL2    -0.180000       12.0110           0
     12841 MEMB     96       POPC     H9X      HAL2     0.900000E-01   1.00800           0
     12842 MEMB     96       POPC     H9Y      HAL2     0.900000E-01   1.00800           0
     12843 MEMB     96       POPC     C310     CTL2    -0.180000       12.0110           0
     12844 MEMB     96       POPC     H10X     HAL2     0.900000E-01   1.00800           0
     12845 MEMB     96       POPC     H10Y     HAL2     0.900000E-01   1.00800           0
     12846 MEMB     96       POPC     C311     CTL2    -0.180000       12.0110           0
     12847 MEMB     96       POPC     H11X     HAL2     0.900000E-01   1.00800           0
     12848 MEMB     96       POPC     H11Y     HAL2     0.900000E-01   1.00800           0
     12849 MEMB     96       POPC     C312     CTL2    -0.180000       12.0110           0
     12850 MEMB     96       POPC     H12X     HAL2     0.900000E-01   1.00800           0
     12851 MEMB     96       POPC     H12Y     HAL2     0.900000E-01   1.00800           0
     12852 MEMB     96       POPC     C313     CTL2    -0.180000       12.0110           0
     12853 MEMB     96       POPC     H13X     HAL2     0.900000E-01   1.00800           0
     12854 MEMB     96       POPC     H13Y     HAL2     0.900000E-01   1.00800           0
     12855 MEMB     96       POPC     C314     CTL2    -0.180000       12.0110           0
     12856 MEMB     96       POPC     H14X     HAL2     0.900000E-01   1.00800           0
     12857 MEMB     96       POPC     H14Y     HAL2     0.900000E-01   1.00800           0
     12858 MEMB     96       POPC     C315     CTL2    -0.180000       12.0110           0
     12859 MEMB     96       POPC     H15X     HAL2     0.900000E-01   1.00800           0
     12860 MEMB     96       POPC     H15Y     HAL2     0.900000E-01   1.00800           0
     12861 MEMB     96       POPC     C316     CTL3    -0.270000       12.0110           0
     12862 MEMB     96       POPC     H16X     HAL3     0.900000E-01   1.00800           0
     12863 MEMB     96       POPC     H16Y     HAL3     0.900000E-01   1.00800           0
     12864 MEMB     96       POPC     H16Z     HAL3     0.900000E-01   1.00800           0
     12865 MEMB     97       POPC     N        NTL     -0.600000       14.0070           0
     12866 MEMB     97       POPC     C12      CTL2    -0.100000       12.0110           0
     12867 MEMB     97       POPC     H12A     HL       0.250000       1.00800           0
     12868 MEMB     97       POPC     H12B     HL       0.250000       1.00800           0
     12869 MEMB     97       POPC     C13      CTL5    -0.350000       12.0110           0
     12870 MEMB     97       POPC     H13A     HL       0.250000       1.00800           0
     12871 MEMB     97       POPC     H13B     HL       0.250000       1.00800           0
     12872 MEMB     97       POPC     H13C     HL       0.250000       1.00800           0
     12873 MEMB     97       POPC     C14      CTL5    -0.350000       12.0110           0
     12874 MEMB     97       POPC     H14A     HL       0.250000       1.00800           0
     12875 MEMB     97       POPC     H14B     HL       0.250000       1.00800           0
     12876 MEMB     97       POPC     H14C     HL       0.250000       1.00800           0
     12877 MEMB     97       POPC     C15      CTL5    -0.350000       12.0110           0
     12878 MEMB     97       POPC     H15A     HL       0.250000       1.00800           0
     12879 MEMB     97       POPC     H15B     HL       0.250000       1.00800           0
     12880 MEMB     97       POPC     H15C     HL       0.250000       1.00800           0
     12881 MEMB     97       POPC     C11      CTL2    -0.800000E-01   12.0110           0
     12882 MEMB     97       POPC     H11A     HAL2     0.900000E-01   1.00800           0
     12883 MEMB     97       POPC     H11B     HAL2     0.900000E-01   1.00800           0
     12884 MEMB     97       POPC     P        PL       1.50000        30.9740           0
     12885 MEMB     97       POPC     O13      O2L     -0.780000       15.9994           0
     12886 MEMB     97       POPC     O14      O2L     -0.780000       15.9994           0
     12887 MEMB     97       POPC     O12      OSLP    -0.570000       15.9994           0
     12888 MEMB     97       POPC     O11      OSLP    -0.570000       15.9994           0
     12889 MEMB     97       POPC     C1       CTL2    -0.800000E-01   12.0110           0
     12890 MEMB     97       POPC     HA       HAL2     0.900000E-01   1.00800           0
     12891 MEMB     97       POPC     HB       HAL2     0.900000E-01   1.00800           0
     12892 MEMB     97       POPC     C2       CTL1     0.170000       12.0110           0
     12893 MEMB     97       POPC     HS       HAL1     0.900000E-01   1.00800           0
     12894 MEMB     97       POPC     O21      OSL     -0.490000       15.9994           0
     12895 MEMB     97       POPC     C21      CL       0.900000       12.0110           0
     12896 MEMB     97       POPC     O22      OBL     -0.630000       15.9994           0
     12897 MEMB     97       POPC     C22      CTL2    -0.220000       12.0110           0
     12898 MEMB     97       POPC     H2R      HAL2     0.900000E-01   1.00800           0
     12899 MEMB     97       POPC     H2S      HAL2     0.900000E-01   1.00800           0
     12900 MEMB     97       POPC     C3       CTL2     0.800000E-01   12.0110           0
     12901 MEMB     97       POPC     HX       HAL2     0.900000E-01   1.00800           0
     12902 MEMB     97       POPC     HY       HAL2     0.900000E-01   1.00800           0
     12903 MEMB     97       POPC     O31      OSL     -0.490000       15.9994           0
     12904 MEMB     97       POPC     C31      CL       0.900000       12.0110           0
     12905 MEMB     97       POPC     O32      OBL     -0.630000       15.9994           0
     12906 MEMB     97       POPC     C32      CTL2    -0.220000       12.0110           0
     12907 MEMB     97       POPC     H2X      HAL2     0.900000E-01   1.00800           0
     12908 MEMB     97       POPC     H2Y      HAL2     0.900000E-01   1.00800           0
     12909 MEMB     97       POPC     C23      CTL2    -0.180000       12.0110           0
     12910 MEMB     97       POPC     H3R      HAL2     0.900000E-01   1.00800           0
     12911 MEMB     97       POPC     H3S      HAL2     0.900000E-01   1.00800           0
     12912 MEMB     97       POPC     C24      CTL2    -0.180000       12.0110           0
     12913 MEMB     97       POPC     H4R      HAL2     0.900000E-01   1.00800           0
     12914 MEMB     97       POPC     H4S      HAL2     0.900000E-01   1.00800           0
     12915 MEMB     97       POPC     C25      CTL2    -0.180000       12.0110           0
     12916 MEMB     97       POPC     H5R      HAL2     0.900000E-01   1.00800           0
     12917 MEMB     97       POPC     H5S      HAL2     0.900000E-01   1.00800           0
     12918 MEMB     97       POPC     C26      CTL2    -0.180000       12.0110           0
     12919 MEMB     97       POPC     H6R      HAL2     0.900000E-01   1.00800           0
     12920 MEMB     97       POPC     H6S      HAL2     0.900000E-01   1.00800           0
     12921 MEMB     97       POPC     C27      CTL2    -0.180000       12.0110           0
     12922 MEMB     97       POPC     H7R      HAL2     0.900000E-01   1.00800           0
     12923 MEMB     97       POPC     H7S      HAL2     0.900000E-01   1.00800           0
     12924 MEMB     97       POPC     C28      CTL2    -0.180000       12.0110           0
     12925 MEMB     97       POPC     H8R      HAL2     0.900000E-01   1.00800           0
     12926 MEMB     97       POPC     H8S      HAL2     0.900000E-01   1.00800           0
     12927 MEMB     97       POPC     C29      CEL1    -0.150000       12.0110           0
     12928 MEMB     97       POPC     H91      HEL1     0.150000       1.00800           0
     12929 MEMB     97       POPC     C210     CEL1    -0.150000       12.0110           0
     12930 MEMB     97       POPC     H101     HEL1     0.150000       1.00800           0
     12931 MEMB     97       POPC     C211     CTL2    -0.180000       12.0110           0
     12932 MEMB     97       POPC     H11R     HAL2     0.900000E-01   1.00800           0
     12933 MEMB     97       POPC     H11S     HAL2     0.900000E-01   1.00800           0
     12934 MEMB     97       POPC     C212     CTL2    -0.180000       12.0110           0
     12935 MEMB     97       POPC     H12R     HAL2     0.900000E-01   1.00800           0
     12936 MEMB     97       POPC     H12S     HAL2     0.900000E-01   1.00800           0
     12937 MEMB     97       POPC     C213     CTL2    -0.180000       12.0110           0
     12938 MEMB     97       POPC     H13R     HAL2     0.900000E-01   1.00800           0
     12939 MEMB     97       POPC     H13S     HAL2     0.900000E-01   1.00800           0
     12940 MEMB     97       POPC     C214     CTL2    -0.180000       12.0110           0
     12941 MEMB     97       POPC     H14R     HAL2     0.900000E-01   1.00800           0
     12942 MEMB     97       POPC     H14S     HAL2     0.900000E-01   1.00800           0
     12943 MEMB     97       POPC     C215     CTL2    -0.180000       12.0110           0
     12944 MEMB     97       POPC     H15R     HAL2     0.900000E-01   1.00800           0
     12945 MEMB     97       POPC     H15S     HAL2     0.900000E-01   1.00800           0
     12946 MEMB     97       POPC     C216     CTL2    -0.180000       12.0110           0
     12947 MEMB     97       POPC     H16R     HAL2     0.900000E-01   1.00800           0
     12948 MEMB     97       POPC     H16S     HAL2     0.900000E-01   1.00800           0
     12949 MEMB     97       POPC     C217     CTL2    -0.180000       12.0110           0
     12950 MEMB     97       POPC     H17R     HAL2     0.900000E-01   1.00800           0
     12951 MEMB     97       POPC     H17S     HAL2     0.900000E-01   1.00800           0
     12952 MEMB     97       POPC     C218     CTL3    -0.270000       12.0110           0
     12953 MEMB     97       POPC     H18R     HAL3     0.900000E-01   1.00800           0
     12954 MEMB     97       POPC     H18S     HAL3     0.900000E-01   1.00800           0
     12955 MEMB     97       POPC     H18T     HAL3     0.900000E-01   1.00800           0
     12956 MEMB     97       POPC     C33      CTL2    -0.180000       12.0110           0
     12957 MEMB     97       POPC     H3X      HAL2     0.900000E-01   1.00800           0
     12958 MEMB     97       POPC     H3Y      HAL2     0.900000E-01   1.00800           0
     12959 MEMB     97       POPC     C34      CTL2    -0.180000       12.0110           0
     12960 MEMB     97       POPC     H4X      HAL2     0.900000E-01   1.00800           0
     12961 MEMB     97       POPC     H4Y      HAL2     0.900000E-01   1.00800           0
     12962 MEMB     97       POPC     C35      CTL2    -0.180000       12.0110           0
     12963 MEMB     97       POPC     H5X      HAL2     0.900000E-01   1.00800           0
     12964 MEMB     97       POPC     H5Y      HAL2     0.900000E-01   1.00800           0
     12965 MEMB     97       POPC     C36      CTL2    -0.180000       12.0110           0
     12966 MEMB     97       POPC     H6X      HAL2     0.900000E-01   1.00800           0
     12967 MEMB     97       POPC     H6Y      HAL2     0.900000E-01   1.00800           0
     12968 MEMB     97       POPC     C37      CTL2    -0.180000       12.0110           0
     12969 MEMB     97       POPC     H7X      HAL2     0.900000E-01   1.00800           0
     12970 MEMB     97       POPC     H7Y      HAL2     0.900000E-01   1.00800           0
     12971 MEMB     97       POPC     C38      CTL2    -0.180000       12.0110           0
     12972 MEMB     97       POPC     H8X      HAL2     0.900000E-01   1.00800           0
     12973 MEMB     97       POPC     H8Y      HAL2     0.900000E-01   1.00800           0
     12974 MEMB     97       POPC     C39      CTL2    -0.180000       12.0110           0
     12975 MEMB     97       POPC     H9X      HAL2     0.900000E-01   1.00800           0
     12976 MEMB     97       POPC     H9Y      HAL2     0.900000E-01   1.00800           0
     12977 MEMB     97       POPC     C310     CTL2    -0.180000       12.0110           0
     12978 MEMB     97       POPC     H10X     HAL2     0.900000E-01   1.00800           0
     12979 MEMB     97       POPC     H10Y     HAL2     0.900000E-01   1.00800           0
     12980 MEMB     97       POPC     C311     CTL2    -0.180000       12.0110           0
     12981 MEMB     97       POPC     H11X     HAL2     0.900000E-01   1.00800           0
     12982 MEMB     97       POPC     H11Y     HAL2     0.900000E-01   1.00800           0
     12983 MEMB     97       POPC     C312     CTL2    -0.180000       12.0110           0
     12984 MEMB     97       POPC     H12X     HAL2     0.900000E-01   1.00800           0
     12985 MEMB     97       POPC     H12Y     HAL2     0.900000E-01   1.00800           0
     12986 MEMB     97       POPC     C313     CTL2    -0.180000       12.0110           0
     12987 MEMB     97       POPC     H13X     HAL2     0.900000E-01   1.00800           0
     12988 MEMB     97       POPC     H13Y     HAL2     0.900000E-01   1.00800           0
     12989 MEMB     97       POPC     C314     CTL2    -0.180000       12.0110           0
     12990 MEMB     97       POPC     H14X     HAL2     0.900000E-01   1.00800           0
     12991 MEMB     97       POPC     H14Y     HAL2     0.900000E-01   1.00800           0
     12992 MEMB     97       POPC     C315     CTL2    -0.180000       12.0110           0
     12993 MEMB     97       POPC     H15X     HAL2     0.900000E-01   1.00800           0
     12994 MEMB     97       POPC     H15Y     HAL2     0.900000E-01   1.00800           0
     12995 MEMB     97       POPC     C316     CTL3    -0.270000       12.0110           0
     12996 MEMB     97       POPC     H16X     HAL3     0.900000E-01   1.00800           0
     12997 MEMB     97       POPC     H16Y     HAL3     0.900000E-01   1.00800           0
     12998 MEMB     97       POPC     H16Z     HAL3     0.900000E-01   1.00800           0
     12999 MEMB     98       POPC     N        NTL     -0.600000       14.0070           0
     13000 MEMB     98       POPC     C12      CTL2    -0.100000       12.0110           0
     13001 MEMB     98       POPC     H12A     HL       0.250000       1.00800           0
     13002 MEMB     98       POPC     H12B     HL       0.250000       1.00800           0
     13003 MEMB     98       POPC     C13      CTL5    -0.350000       12.0110           0
     13004 MEMB     98       POPC     H13A     HL       0.250000       1.00800           0
     13005 MEMB     98       POPC     H13B     HL       0.250000       1.00800           0
     13006 MEMB     98       POPC     H13C     HL       0.250000       1.00800           0
     13007 MEMB     98       POPC     C14      CTL5    -0.350000       12.0110           0
     13008 MEMB     98       POPC     H14A     HL       0.250000       1.00800           0
     13009 MEMB     98       POPC     H14B     HL       0.250000       1.00800           0
     13010 MEMB     98       POPC     H14C     HL       0.250000       1.00800           0
     13011 MEMB     98       POPC     C15      CTL5    -0.350000       12.0110           0
     13012 MEMB     98       POPC     H15A     HL       0.250000       1.00800           0
     13013 MEMB     98       POPC     H15B     HL       0.250000       1.00800           0
     13014 MEMB     98       POPC     H15C     HL       0.250000       1.00800           0
     13015 MEMB     98       POPC     C11      CTL2    -0.800000E-01   12.0110           0
     13016 MEMB     98       POPC     H11A     HAL2     0.900000E-01   1.00800           0
     13017 MEMB     98       POPC     H11B     HAL2     0.900000E-01   1.00800           0
     13018 MEMB     98       POPC     P        PL       1.50000        30.9740           0
     13019 MEMB     98       POPC     O13      O2L     -0.780000       15.9994           0
     13020 MEMB     98       POPC     O14      O2L     -0.780000       15.9994           0
     13021 MEMB     98       POPC     O12      OSLP    -0.570000       15.9994           0
     13022 MEMB     98       POPC     O11      OSLP    -0.570000       15.9994           0
     13023 MEMB     98       POPC     C1       CTL2    -0.800000E-01   12.0110           0
     13024 MEMB     98       POPC     HA       HAL2     0.900000E-01   1.00800           0
     13025 MEMB     98       POPC     HB       HAL2     0.900000E-01   1.00800           0
     13026 MEMB     98       POPC     C2       CTL1     0.170000       12.0110           0
     13027 MEMB     98       POPC     HS       HAL1     0.900000E-01   1.00800           0
     13028 MEMB     98       POPC     O21      OSL     -0.490000       15.9994           0
     13029 MEMB     98       POPC     C21      CL       0.900000       12.0110           0
     13030 MEMB     98       POPC     O22      OBL     -0.630000       15.9994           0
     13031 MEMB     98       POPC     C22      CTL2    -0.220000       12.0110           0
     13032 MEMB     98       POPC     H2R      HAL2     0.900000E-01   1.00800           0
     13033 MEMB     98       POPC     H2S      HAL2     0.900000E-01   1.00800           0
     13034 MEMB     98       POPC     C3       CTL2     0.800000E-01   12.0110           0
     13035 MEMB     98       POPC     HX       HAL2     0.900000E-01   1.00800           0
     13036 MEMB     98       POPC     HY       HAL2     0.900000E-01   1.00800           0
     13037 MEMB     98       POPC     O31      OSL     -0.490000       15.9994           0
     13038 MEMB     98       POPC     C31      CL       0.900000       12.0110           0
     13039 MEMB     98       POPC     O32      OBL     -0.630000       15.9994           0
     13040 MEMB     98       POPC     C32      CTL2    -0.220000       12.0110           0
     13041 MEMB     98       POPC     H2X      HAL2     0.900000E-01   1.00800           0
     13042 MEMB     98       POPC     H2Y      HAL2     0.900000E-01   1.00800           0
     13043 MEMB     98       POPC     C23      CTL2    -0.180000       12.0110           0
     13044 MEMB     98       POPC     H3R      HAL2     0.900000E-01   1.00800           0
     13045 MEMB     98       POPC     H3S      HAL2     0.900000E-01   1.00800           0
     13046 MEMB     98       POPC     C24      CTL2    -0.180000       12.0110           0
     13047 MEMB     98       POPC     H4R      HAL2     0.900000E-01   1.00800           0
     13048 MEMB     98       POPC     H4S      HAL2     0.900000E-01   1.00800           0
     13049 MEMB     98       POPC     C25      CTL2    -0.180000       12.0110           0
     13050 MEMB     98       POPC     H5R      HAL2     0.900000E-01   1.00800           0
     13051 MEMB     98       POPC     H5S      HAL2     0.900000E-01   1.00800           0
     13052 MEMB     98       POPC     C26      CTL2    -0.180000       12.0110           0
     13053 MEMB     98       POPC     H6R      HAL2     0.900000E-01   1.00800           0
     13054 MEMB     98       POPC     H6S      HAL2     0.900000E-01   1.00800           0
     13055 MEMB     98       POPC     C27      CTL2    -0.180000       12.0110           0
     13056 MEMB     98       POPC     H7R      HAL2     0.900000E-01   1.00800           0
     13057 MEMB     98       POPC     H7S      HAL2     0.900000E-01   1.00800           0
     13058 MEMB     98       POPC     C28      CTL2    -0.180000       12.0110           0
     13059 MEMB     98       POPC     H8R      HAL2     0.900000E-01   1.00800           0
     13060 MEMB     98       POPC     H8S      HAL2     0.900000E-01   1.00800           0
     13061 MEMB     98       POPC     C29      CEL1    -0.150000       12.0110           0
     13062 MEMB     98       POPC     H91      HEL1     0.150000       1.00800           0
     13063 MEMB     98       POPC     C210     CEL1    -0.150000       12.0110           0
     13064 MEMB     98       POPC     H101     HEL1     0.150000       1.00800           0
     13065 MEMB     98       POPC     C211     CTL2    -0.180000       12.0110           0
     13066 MEMB     98       POPC     H11R     HAL2     0.900000E-01   1.00800           0
     13067 MEMB     98       POPC     H11S     HAL2     0.900000E-01   1.00800           0
     13068 MEMB     98       POPC     C212     CTL2    -0.180000       12.0110           0
     13069 MEMB     98       POPC     H12R     HAL2     0.900000E-01   1.00800           0
     13070 MEMB     98       POPC     H12S     HAL2     0.900000E-01   1.00800           0
     13071 MEMB     98       POPC     C213     CTL2    -0.180000       12.0110           0
     13072 MEMB     98       POPC     H13R     HAL2     0.900000E-01   1.00800           0
     13073 MEMB     98       POPC     H13S     HAL2     0.900000E-01   1.00800           0
     13074 MEMB     98       POPC     C214     CTL2    -0.180000       12.0110           0
     13075 MEMB     98       POPC     H14R     HAL2     0.900000E-01   1.00800           0
     13076 MEMB     98       POPC     H14S     HAL2     0.900000E-01   1.00800           0
     13077 MEMB     98       POPC     C215     CTL2    -0.180000       12.0110           0
     13078 MEMB     98       POPC     H15R     HAL2     0.900000E-01   1.00800           0
     13079 MEMB     98       POPC     H15S     HAL2     0.900000E-01   1.00800           0
     13080 MEMB     98       POPC     C216     CTL2    -0.180000       12.0110           0
     13081 MEMB     98       POPC     H16R     HAL2     0.900000E-01   1.00800           0
     13082 MEMB     98       POPC     H16S     HAL2     0.900000E-01   1.00800           0
     13083 MEMB     98       POPC     C217     CTL2    -0.180000       12.0110           0
     13084 MEMB     98       POPC     H17R     HAL2     0.900000E-01   1.00800           0
     13085 MEMB     98       POPC     H17S     HAL2     0.900000E-01   1.00800           0
     13086 MEMB     98       POPC     C218     CTL3    -0.270000       12.0110           0
     13087 MEMB     98       POPC     H18R     HAL3     0.900000E-01   1.00800           0
     13088 MEMB     98       POPC     H18S     HAL3     0.900000E-01   1.00800           0
     13089 MEMB     98       POPC     H18T     HAL3     0.900000E-01   1.00800           0
     13090 MEMB     98       POPC     C33      CTL2    -0.180000       12.0110           0
     13091 MEMB     98       POPC     H3X      HAL2     0.900000E-01   1.00800           0
     13092 MEMB     98       POPC     H3Y      HAL2     0.900000E-01   1.00800           0
     13093 MEMB     98       POPC     C34      CTL2    -0.180000       12.0110           0
     13094 MEMB     98       POPC     H4X      HAL2     0.900000E-01   1.00800           0
     13095 MEMB     98       POPC     H4Y      HAL2     0.900000E-01   1.00800           0
     13096 MEMB     98       POPC     C35      CTL2    -0.180000       12.0110           0
     13097 MEMB     98       POPC     H5X      HAL2     0.900000E-01   1.00800           0
     13098 MEMB     98       POPC     H5Y      HAL2     0.900000E-01   1.00800           0
     13099 MEMB     98       POPC     C36      CTL2    -0.180000       12.0110           0
     13100 MEMB     98       POPC     H6X      HAL2     0.900000E-01   1.00800           0
     13101 MEMB     98       POPC     H6Y      HAL2     0.900000E-01   1.00800           0
     13102 MEMB     98       POPC     C37      CTL2    -0.180000       12.0110           0
     13103 MEMB     98       POPC     H7X      HAL2     0.900000E-01   1.00800           0
     13104 MEMB     98       POPC     H7Y      HAL2     0.900000E-01   1.00800           0
     13105 MEMB     98       POPC     C38      CTL2    -0.180000       12.0110           0
     13106 MEMB     98       POPC     H8X      HAL2     0.900000E-01   1.00800           0
     13107 MEMB     98       POPC     H8Y      HAL2     0.900000E-01   1.00800           0
     13108 MEMB     98       POPC     C39      CTL2    -0.180000       12.0110           0
     13109 MEMB     98       POPC     H9X      HAL2     0.900000E-01   1.00800           0
     13110 MEMB     98       POPC     H9Y      HAL2     0.900000E-01   1.00800           0
     13111 MEMB     98       POPC     C310     CTL2    -0.180000       12.0110           0
     13112 MEMB     98       POPC     H10X     HAL2     0.900000E-01   1.00800           0
     13113 MEMB     98       POPC     H10Y     HAL2     0.900000E-01   1.00800           0
     13114 MEMB     98       POPC     C311     CTL2    -0.180000       12.0110           0
     13115 MEMB     98       POPC     H11X     HAL2     0.900000E-01   1.00800           0
     13116 MEMB     98       POPC     H11Y     HAL2     0.900000E-01   1.00800           0
     13117 MEMB     98       POPC     C312     CTL2    -0.180000       12.0110           0
     13118 MEMB     98       POPC     H12X     HAL2     0.900000E-01   1.00800           0
     13119 MEMB     98       POPC     H12Y     HAL2     0.900000E-01   1.00800           0
     13120 MEMB     98       POPC     C313     CTL2    -0.180000       12.0110           0
     13121 MEMB     98       POPC     H13X     HAL2     0.900000E-01   1.00800           0
     13122 MEMB     98       POPC     H13Y     HAL2     0.900000E-01   1.00800           0
     13123 MEMB     98       POPC     C314     CTL2    -0.180000       12.0110           0
     13124 MEMB     98       POPC     H14X     HAL2     0.900000E-01   1.00800           0
     13125 MEMB     98       POPC     H14Y     HAL2     0.900000E-01   1.00800           0
     13126 MEMB     98       POPC     C315     CTL2    -0.180000       12.0110           0
     13127 MEMB     98       POPC     H15X     HAL2     0.900000E-01   1.00800           0
     13128 MEMB     98       POPC     H15Y     HAL2     0.900000E-01   1.00800           0
     13129 MEMB     98       POPC     C316     CTL3    -0.270000       12.0110           0
     13130 MEMB     98       POPC     H16X     HAL3     0.900000E-01   1.00800           0
     13131 MEMB     98       POPC     H16Y     HAL3     0.900000E-01   1.00800           0
     13132 MEMB     98       POPC     H16Z     HAL3     0.900000E-01   1.00800           0
     13133 MEMB     99       POPC     N        NTL     -0.600000       14.0070           0
     13134 MEMB     99       POPC     C12      CTL2    -0.100000       12.0110           0
     13135 MEMB     99       POPC     H12A     HL       0.250000       1.00800           0
     13136 MEMB     99       POPC     H12B     HL       0.250000       1.00800           0
     13137 MEMB     99       POPC     C13      CTL5    -0.350000       12.0110           0
     13138 MEMB     99       POPC     H13A     HL       0.250000       1.00800           0
     13139 MEMB     99       POPC     H13B     HL       0.250000       1.00800           0
     13140 MEMB     99       POPC     H13C     HL       0.250000       1.00800           0
     13141 MEMB     99       POPC     C14      CTL5    -0.350000       12.0110           0
     13142 MEMB     99       POPC     H14A     HL       0.250000       1.00800           0
     13143 MEMB     99       POPC     H14B     HL       0.250000       1.00800           0
     13144 MEMB     99       POPC     H14C     HL       0.250000       1.00800           0
     13145 MEMB     99       POPC     C15      CTL5    -0.350000       12.0110           0
     13146 MEMB     99       POPC     H15A     HL       0.250000       1.00800           0
     13147 MEMB     99       POPC     H15B     HL       0.250000       1.00800           0
     13148 MEMB     99       POPC     H15C     HL       0.250000       1.00800           0
     13149 MEMB     99       POPC     C11      CTL2    -0.800000E-01   12.0110           0
     13150 MEMB     99       POPC     H11A     HAL2     0.900000E-01   1.00800           0
     13151 MEMB     99       POPC     H11B     HAL2     0.900000E-01   1.00800           0
     13152 MEMB     99       POPC     P        PL       1.50000        30.9740           0
     13153 MEMB     99       POPC     O13      O2L     -0.780000       15.9994           0
     13154 MEMB     99       POPC     O14      O2L     -0.780000       15.9994           0
     13155 MEMB     99       POPC     O12      OSLP    -0.570000       15.9994           0
     13156 MEMB     99       POPC     O11      OSLP    -0.570000       15.9994           0
     13157 MEMB     99       POPC     C1       CTL2    -0.800000E-01   12.0110           0
     13158 MEMB     99       POPC     HA       HAL2     0.900000E-01   1.00800           0
     13159 MEMB     99       POPC     HB       HAL2     0.900000E-01   1.00800           0
     13160 MEMB     99       POPC     C2       CTL1     0.170000       12.0110           0
     13161 MEMB     99       POPC     HS       HAL1     0.900000E-01   1.00800           0
     13162 MEMB     99       POPC     O21      OSL     -0.490000       15.9994           0
     13163 MEMB     99       POPC     C21      CL       0.900000       12.0110           0
     13164 MEMB     99       POPC     O22      OBL     -0.630000       15.9994           0
     13165 MEMB     99       POPC     C22      CTL2    -0.220000       12.0110           0
     13166 MEMB     99       POPC     H2R      HAL2     0.900000E-01   1.00800           0
     13167 MEMB     99       POPC     H2S      HAL2     0.900000E-01   1.00800           0
     13168 MEMB     99       POPC     C3       CTL2     0.800000E-01   12.0110           0
     13169 MEMB     99       POPC     HX       HAL2     0.900000E-01   1.00800           0
     13170 MEMB     99       POPC     HY       HAL2     0.900000E-01   1.00800           0
     13171 MEMB     99       POPC     O31      OSL     -0.490000       15.9994           0
     13172 MEMB     99       POPC     C31      CL       0.900000       12.0110           0
     13173 MEMB     99       POPC     O32      OBL     -0.630000       15.9994           0
     13174 MEMB     99       POPC     C32      CTL2    -0.220000       12.0110           0
     13175 MEMB     99       POPC     H2X      HAL2     0.900000E-01   1.00800           0
     13176 MEMB     99       POPC     H2Y      HAL2     0.900000E-01   1.00800           0
     13177 MEMB     99       POPC     C23      CTL2    -0.180000       12.0110           0
     13178 MEMB     99       POPC     H3R      HAL2     0.900000E-01   1.00800           0
     13179 MEMB     99       POPC     H3S      HAL2     0.900000E-01   1.00800           0
     13180 MEMB     99       POPC     C24      CTL2    -0.180000       12.0110           0
     13181 MEMB     99       POPC     H4R      HAL2     0.900000E-01   1.00800           0
     13182 MEMB     99       POPC     H4S      HAL2     0.900000E-01   1.00800           0
     13183 MEMB     99       POPC     C25      CTL2    -0.180000       12.0110           0
     13184 MEMB     99       POPC     H5R      HAL2     0.900000E-01   1.00800           0
     13185 MEMB     99       POPC     H5S      HAL2     0.900000E-01   1.00800           0
     13186 MEMB     99       POPC     C26      CTL2    -0.180000       12.0110           0
     13187 MEMB     99       POPC     H6R      HAL2     0.900000E-01   1.00800           0
     13188 MEMB     99       POPC     H6S      HAL2     0.900000E-01   1.00800           0
     13189 MEMB     99       POPC     C27      CTL2    -0.180000       12.0110           0
     13190 MEMB     99       POPC     H7R      HAL2     0.900000E-01   1.00800           0
     13191 MEMB     99       POPC     H7S      HAL2     0.900000E-01   1.00800           0
     13192 MEMB     99       POPC     C28      CTL2    -0.180000       12.0110           0
     13193 MEMB     99       POPC     H8R      HAL2     0.900000E-01   1.00800           0
     13194 MEMB     99       POPC     H8S      HAL2     0.900000E-01   1.00800           0
     13195 MEMB     99       POPC     C29      CEL1    -0.150000       12.0110           0
     13196 MEMB     99       POPC     H91      HEL1     0.150000       1.00800           0
     13197 MEMB     99       POPC     C210     CEL1    -0.150000       12.0110           0
     13198 MEMB     99       POPC     H101     HEL1     0.150000       1.00800           0
     13199 MEMB     99       POPC     C211     CTL2    -0.180000       12.0110           0
     13200 MEMB     99       POPC     H11R     HAL2     0.900000E-01   1.00800           0
     13201 MEMB     99       POPC     H11S     HAL2     0.900000E-01   1.00800           0
     13202 MEMB     99       POPC     C212     CTL2    -0.180000       12.0110           0
     13203 MEMB     99       POPC     H12R     HAL2     0.900000E-01   1.00800           0
     13204 MEMB     99       POPC     H12S     HAL2     0.900000E-01   1.00800           0
     13205 MEMB     99       POPC     C213     CTL2    -0.180000       12.0110           0
     13206 MEMB     99       POPC     H13R     HAL2     0.900000E-01   1.00800           0
     13207 MEMB     99       POPC     H13S     HAL2     0.900000E-01   1.00800           0
     13208 MEMB     99       POPC     C214     CTL2    -0.180000       12.0110           0
     13209 MEMB     99       POPC     H14R     HAL2     0.900000E-01   1.00800           0
     13210 MEMB     99       POPC     H14S     HAL2     0.900000E-01   1.00800           0
     13211 MEMB     99       POPC     C215     CTL2    -0.180000       12.0110           0
     13212 MEMB     99       POPC     H15R     HAL2     0.900000E-01   1.00800           0
     13213 MEMB     99       POPC     H15S     HAL2     0.900000E-01   1.00800           0
     13214 MEMB     99       POPC     C216     CTL2    -0.180000       12.0110           0
     13215 MEMB     99       POPC     H16R     HAL2     0.900000E-01   1.00800           0
     13216 MEMB     99       POPC     H16S     HAL2     0.900000E-01   1.00800           0
     13217 MEMB     99       POPC     C217     CTL2    -0.180000       12.0110           0
     13218 MEMB     99       POPC     H17R     HAL2     0.900000E-01   1.00800           0
     13219 MEMB     99       POPC     H17S     HAL2     0.900000E-01   1.00800           0
     13220 MEMB     99       POPC     C218     CTL3    -0.270000       12.0110           0
     13221 MEMB     99       POPC     H18R     HAL3     0.900000E-01   1.00800           0
     13222 MEMB     99       POPC     H18S     HAL3     0.900000E-01   1.00800           0
     13223 MEMB     99       POPC     H18T     HAL3     0.900000E-01   1.00800           0
     13224 MEMB     99       POPC     C33      CTL2    -0.180000       12.0110           0
     13225 MEMB     99       POPC     H3X      HAL2     0.900000E-01   1.00800           0
     13226 MEMB     99       POPC     H3Y      HAL2     0.900000E-01   1.00800           0
     13227 MEMB     99       POPC     C34      CTL2    -0.180000       12.0110           0
     13228 MEMB     99       POPC     H4X      HAL2     0.900000E-01   1.00800           0
     13229 MEMB     99       POPC     H4Y      HAL2     0.900000E-01   1.00800           0
     13230 MEMB     99       POPC     C35      CTL2    -0.180000       12.0110           0
     13231 MEMB     99       POPC     H5X      HAL2     0.900000E-01   1.00800           0
     13232 MEMB     99       POPC     H5Y      HAL2     0.900000E-01   1.00800           0
     13233 MEMB     99       POPC     C36      CTL2    -0.180000       12.0110           0
     13234 MEMB     99       POPC     H6X      HAL2     0.900000E-01   1.00800           0
     13235 MEMB     99       POPC     H6Y      HAL2     0.900000E-01   1.00800           0
     13236 MEMB     99       POPC     C37      CTL2    -0.180000       12.0110           0
     13237 MEMB     99       POPC     H7X      HAL2     0.900000E-01   1.00800           0
     13238 MEMB     99       POPC     H7Y      HAL2     0.900000E-01   1.00800           0
     13239 MEMB     99       POPC     C38      CTL2    -0.180000       12.0110           0
     13240 MEMB     99       POPC     H8X      HAL2     0.900000E-01   1.00800           0
     13241 MEMB     99       POPC     H8Y      HAL2     0.900000E-01   1.00800           0
     13242 MEMB     99       POPC     C39      CTL2    -0.180000       12.0110           0
     13243 MEMB     99       POPC     H9X      HAL2     0.900000E-01   1.00800           0
     13244 MEMB     99       POPC     H9Y      HAL2     0.900000E-01   1.00800           0
     13245 MEMB     99       POPC     C310     CTL2    -0.180000       12.0110           0
     13246 MEMB     99       POPC     H10X     HAL2     0.900000E-01   1.00800           0
     13247 MEMB     99       POPC     H10Y     HAL2     0.900000E-01   1.00800           0
     13248 MEMB     99       POPC     C311     CTL2    -0.180000       12.0110           0
     13249 MEMB     99       POPC     H11X     HAL2     0.900000E-01   1.00800           0
     13250 MEMB     99       POPC     H11Y     HAL2     0.900000E-01   1.00800           0
     13251 MEMB     99       POPC     C312     CTL2    -0.180000       12.0110           0
     13252 MEMB     99       POPC     H12X     HAL2     0.900000E-01   1.00800           0
     13253 MEMB     99       POPC     H12Y     HAL2     0.900000E-01   1.00800           0
     13254 MEMB     99       POPC     C313     CTL2    -0.180000       12.0110           0
     13255 MEMB     99       POPC     H13X     HAL2     0.900000E-01   1.00800           0
     13256 MEMB     99       POPC     H13Y     HAL2     0.900000E-01   1.00800           0
     13257 MEMB     99       POPC     C314     CTL2    -0.180000       12.0110           0
     13258 MEMB     99       POPC     H14X     HAL2     0.900000E-01   1.00800           0
     13259 MEMB     99       POPC     H14Y     HAL2     0.900000E-01   1.00800           0
     13260 MEMB     99       POPC     C315     CTL2    -0.180000       12.0110           0
     13261 MEMB     99       POPC     H15X     HAL2     0.900000E-01   1.00800           0
     13262 MEMB     99       POPC     H15Y     HAL2     0.900000E-01   1.00800           0
     13263 MEMB     99       POPC     C316     CTL3    -0.270000       12.0110           0
     13264 MEMB     99       POPC     H16X     HAL3     0.900000E-01   1.00800           0
     13265 MEMB     99       POPC     H16Y     HAL3     0.900000E-01   1.00800           0
     13266 MEMB     99       POPC     H16Z     HAL3     0.900000E-01   1.00800           0
     13267 MEMB     100      POPC     N        NTL     -0.600000       14.0070           0
     13268 MEMB     100      POPC     C12      CTL2    -0.100000       12.0110           0
     13269 MEMB     100      POPC     H12A     HL       0.250000       1.00800           0
     13270 MEMB     100      POPC     H12B     HL       0.250000       1.00800           0
     13271 MEMB     100      POPC     C13      CTL5    -0.350000       12.0110           0
     13272 MEMB     100      POPC     H13A     HL       0.250000       1.00800           0
     13273 MEMB     100      POPC     H13B     HL       0.250000       1.00800           0
     13274 MEMB     100      POPC     H13C     HL       0.250000       1.00800           0
     13275 MEMB     100      POPC     C14      CTL5    -0.350000       12.0110           0
     13276 MEMB     100      POPC     H14A     HL       0.250000       1.00800           0
     13277 MEMB     100      POPC     H14B     HL       0.250000       1.00800           0
     13278 MEMB     100      POPC     H14C     HL       0.250000       1.00800           0
     13279 MEMB     100      POPC     C15      CTL5    -0.350000       12.0110           0
     13280 MEMB     100      POPC     H15A     HL       0.250000       1.00800           0
     13281 MEMB     100      POPC     H15B     HL       0.250000       1.00800           0
     13282 MEMB     100      POPC     H15C     HL       0.250000       1.00800           0
     13283 MEMB     100      POPC     C11      CTL2    -0.800000E-01   12.0110           0
     13284 MEMB     100      POPC     H11A     HAL2     0.900000E-01   1.00800           0
     13285 MEMB     100      POPC     H11B     HAL2     0.900000E-01   1.00800           0
     13286 MEMB     100      POPC     P        PL       1.50000        30.9740           0
     13287 MEMB     100      POPC     O13      O2L     -0.780000       15.9994           0
     13288 MEMB     100      POPC     O14      O2L     -0.780000       15.9994           0
     13289 MEMB     100      POPC     O12      OSLP    -0.570000       15.9994           0
     13290 MEMB     100      POPC     O11      OSLP    -0.570000       15.9994           0
     13291 MEMB     100      POPC     C1       CTL2    -0.800000E-01   12.0110           0
     13292 MEMB     100      POPC     HA       HAL2     0.900000E-01   1.00800           0
     13293 MEMB     100      POPC     HB       HAL2     0.900000E-01   1.00800           0
     13294 MEMB     100      POPC     C2       CTL1     0.170000       12.0110           0
     13295 MEMB     100      POPC     HS       HAL1     0.900000E-01   1.00800           0
     13296 MEMB     100      POPC     O21      OSL     -0.490000       15.9994           0
     13297 MEMB     100      POPC     C21      CL       0.900000       12.0110           0
     13298 MEMB     100      POPC     O22      OBL     -0.630000       15.9994           0
     13299 MEMB     100      POPC     C22      CTL2    -0.220000       12.0110           0
     13300 MEMB     100      POPC     H2R      HAL2     0.900000E-01   1.00800           0
     13301 MEMB     100      POPC     H2S      HAL2     0.900000E-01   1.00800           0
     13302 MEMB     100      POPC     C3       CTL2     0.800000E-01   12.0110           0
     13303 MEMB     100      POPC     HX       HAL2     0.900000E-01   1.00800           0
     13304 MEMB     100      POPC     HY       HAL2     0.900000E-01   1.00800           0
     13305 MEMB     100      POPC     O31      OSL     -0.490000       15.9994           0
     13306 MEMB     100      POPC     C31      CL       0.900000       12.0110           0
     13307 MEMB     100      POPC     O32      OBL     -0.630000       15.9994           0
     13308 MEMB     100      POPC     C32      CTL2    -0.220000       12.0110           0
     13309 MEMB     100      POPC     H2X      HAL2     0.900000E-01   1.00800           0
     13310 MEMB     100      POPC     H2Y      HAL2     0.900000E-01   1.00800           0
     13311 MEMB     100      POPC     C23      CTL2    -0.180000       12.0110           0
     13312 MEMB     100      POPC     H3R      HAL2     0.900000E-01   1.00800           0
     13313 MEMB     100      POPC     H3S      HAL2     0.900000E-01   1.00800           0
     13314 MEMB     100      POPC     C24      CTL2    -0.180000       12.0110           0
     13315 MEMB     100      POPC     H4R      HAL2     0.900000E-01   1.00800           0
     13316 MEMB     100      POPC     H4S      HAL2     0.900000E-01   1.00800           0
     13317 MEMB     100      POPC     C25      CTL2    -0.180000       12.0110           0
     13318 MEMB     100      POPC     H5R      HAL2     0.900000E-01   1.00800           0
     13319 MEMB     100      POPC     H5S      HAL2     0.900000E-01   1.00800           0
     13320 MEMB     100      POPC     C26      CTL2    -0.180000       12.0110           0
     13321 MEMB     100      POPC     H6R      HAL2     0.900000E-01   1.00800           0
     13322 MEMB     100      POPC     H6S      HAL2     0.900000E-01   1.00800           0
     13323 MEMB     100      POPC     C27      CTL2    -0.180000       12.0110           0
     13324 MEMB     100      POPC     H7R      HAL2     0.900000E-01   1.00800           0
     13325 MEMB     100      POPC     H7S      HAL2     0.900000E-01   1.00800           0
     13326 MEMB     100      POPC     C28      CTL2    -0.180000       12.0110           0
     13327 MEMB     100      POPC     H8R      HAL2     0.900000E-01   1.00800           0
     13328 MEMB     100      POPC     H8S      HAL2     0.900000E-01   1.00800           0
     13329 MEMB     100      POPC     C29      CEL1    -0.150000       12.0110           0
     13330 MEMB     100      POPC     H91      HEL1     0.150000       1.00800           0
     13331 MEMB     100      POPC     C210     CEL1    -0.150000       12.0110           0
     13332 MEMB     100      POPC     H101     HEL1     0.150000       1.00800           0
     13333 MEMB     100      POPC     C211     CTL2    -0.180000       12.0110           0
     13334 MEMB     100      POPC     H11R     HAL2     0.900000E-01   1.00800           0
     13335 MEMB     100      POPC     H11S     HAL2     0.900000E-01   1.00800           0
     13336 MEMB     100      POPC     C212     CTL2    -0.180000       12.0110           0
     13337 MEMB     100      POPC     H12R     HAL2     0.900000E-01   1.00800           0
     13338 MEMB     100      POPC     H12S     HAL2     0.900000E-01   1.00800           0
     13339 MEMB     100      POPC     C213     CTL2    -0.180000       12.0110           0
     13340 MEMB     100      POPC     H13R     HAL2     0.900000E-01   1.00800           0
     13341 MEMB     100      POPC     H13S     HAL2     0.900000E-01   1.00800           0
     13342 MEMB     100      POPC     C214     CTL2    -0.180000       12.0110           0
     13343 MEMB     100      POPC     H14R     HAL2     0.900000E-01   1.00800           0
     13344 MEMB     100      POPC     H14S     HAL2     0.900000E-01   1.00800           0
     13345 MEMB     100      POPC     C215     CTL2    -0.180000       12.0110           0
     13346 MEMB     100      POPC     H15R     HAL2     0.900000E-01   1.00800           0
     13347 MEMB     100      POPC     H15S     HAL2     0.900000E-01   1.00800           0
     13348 MEMB     100      POPC     C216     CTL2    -0.180000       12.0110           0
     13349 MEMB     100      POPC     H16R     HAL2     0.900000E-01   1.00800           0
     13350 MEMB     100      POPC     H16S     HAL2     0.900000E-01   1.00800           0
     13351 MEMB     100      POPC     C217     CTL2    -0.180000       12.0110           0
     13352 MEMB     100      POPC     H17R     HAL2     0.900000E-01   1.00800           0
     13353 MEMB     100      POPC     H17S     HAL2     0.900000E-01   1.00800           0
     13354 MEMB     100      POPC     C218     CTL3    -0.270000       12.0110           0
     13355 MEMB     100      POPC     H18R     HAL3     0.900000E-01   1.00800           0
     13356 MEMB     100      POPC     H18S     HAL3     0.900000E-01   1.00800           0
     13357 MEMB     100      POPC     H18T     HAL3     0.900000E-01   1.00800           0
     13358 MEMB     100      POPC     C33      CTL2    -0.180000       12.0110           0
     13359 MEMB     100      POPC     H3X      HAL2     0.900000E-01   1.00800           0
     13360 MEMB     100      POPC     H3Y      HAL2     0.900000E-01   1.00800           0
     13361 MEMB     100      POPC     C34      CTL2    -0.180000       12.0110           0
     13362 MEMB     100      POPC     H4X      HAL2     0.900000E-01   1.00800           0
     13363 MEMB     100      POPC     H4Y      HAL2     0.900000E-01   1.00800           0
     13364 MEMB     100      POPC     C35      CTL2    -0.180000       12.0110           0
     13365 MEMB     100      POPC     H5X      HAL2     0.900000E-01   1.00800           0
     13366 MEMB     100      POPC     H5Y      HAL2     0.900000E-01   1.00800           0
     13367 MEMB     100      POPC     C36      CTL2    -0.180000       12.0110           0
     13368 MEMB     100      POPC     H6X      HAL2     0.900000E-01   1.00800           0
     13369 MEMB     100      POPC     H6Y      HAL2     0.900000E-01   1.00800           0
     13370 MEMB     100      POPC     C37      CTL2    -0.180000       12.0110           0
     13371 MEMB     100      POPC     H7X      HAL2     0.900000E-01   1.00800           0
     13372 MEMB     100      POPC     H7Y      HAL2     0.900000E-01   1.00800           0
     13373 MEMB     100      POPC     C38      CTL2    -0.180000       12.0110           0
     13374 MEMB     100      POPC     H8X      HAL2     0.900000E-01   1.00800           0
     13375 MEMB     100      POPC     H8Y      HAL2     0.900000E-01   1.00800           0
     13376 MEMB     100      POPC     C39      CTL2    -0.180000       12.0110           0
     13377 MEMB     100      POPC     H9X      HAL2     0.900000E-01   1.00800           0
     13378 MEMB     100      POPC     H9Y      HAL2     0.900000E-01   1.00800           0
     13379 MEMB     100      POPC     C310     CTL2    -0.180000       12.0110           0
     13380 MEMB     100      POPC     H10X     HAL2     0.900000E-01   1.00800           0
     13381 MEMB     100      POPC     H10Y     HAL2     0.900000E-01   1.00800           0
     13382 MEMB     100      POPC     C311     CTL2    -0.180000       12.0110           0
     13383 MEMB     100      POPC     H11X     HAL2     0.900000E-01   1.00800           0
     13384 MEMB     100      POPC     H11Y     HAL2     0.900000E-01   1.00800           0
     13385 MEMB     100      POPC     C312     CTL2    -0.180000       12.0110           0
     13386 MEMB     100      POPC     H12X     HAL2     0.900000E-01   1.00800           0
     13387 MEMB     100      POPC     H12Y     HAL2     0.900000E-01   1.00800           0
     13388 MEMB     100      POPC     C313     CTL2    -0.180000       12.0110           0
     13389 MEMB     100      POPC     H13X     HAL2     0.900000E-01   1.00800           0
     13390 MEMB     100      POPC     H13Y     HAL2     0.900000E-01   1.00800           0
     13391 MEMB     100      POPC     C314     CTL2    -0.180000       12.0110           0
     13392 MEMB     100      POPC     H14X     HAL2     0.900000E-01   1.00800           0
     13393 MEMB     100      POPC     H14Y     HAL2     0.900000E-01   1.00800           0
     13394 MEMB     100      POPC     C315     CTL2    -0.180000       12.0110           0
     13395 MEMB     100      POPC     H15X     HAL2     0.900000E-01   1.00800           0
     13396 MEMB     100      POPC     H15Y     HAL2     0.900000E-01   1.00800           0
     13397 MEMB     100      POPC     C316     CTL3    -0.270000       12.0110           0
     13398 MEMB     100      POPC     H16X     HAL3     0.900000E-01   1.00800           0
     13399 MEMB     100      POPC     H16Y     HAL3     0.900000E-01   1.00800           0
     13400 MEMB     100      POPC     H16Z     HAL3     0.900000E-01   1.00800           0
     13401 MEMB     101      POPC     N        NTL     -0.600000       14.0070           0
     13402 MEMB     101      POPC     C12      CTL2    -0.100000       12.0110           0
     13403 MEMB     101      POPC     H12A     HL       0.250000       1.00800           0
     13404 MEMB     101      POPC     H12B     HL       0.250000       1.00800           0
     13405 MEMB     101      POPC     C13      CTL5    -0.350000       12.0110           0
     13406 MEMB     101      POPC     H13A     HL       0.250000       1.00800           0
     13407 MEMB     101      POPC     H13B     HL       0.250000       1.00800           0
     13408 MEMB     101      POPC     H13C     HL       0.250000       1.00800           0
     13409 MEMB     101      POPC     C14      CTL5    -0.350000       12.0110           0
     13410 MEMB     101      POPC     H14A     HL       0.250000       1.00800           0
     13411 MEMB     101      POPC     H14B     HL       0.250000       1.00800           0
     13412 MEMB     101      POPC     H14C     HL       0.250000       1.00800           0
     13413 MEMB     101      POPC     C15      CTL5    -0.350000       12.0110           0
     13414 MEMB     101      POPC     H15A     HL       0.250000       1.00800           0
     13415 MEMB     101      POPC     H15B     HL       0.250000       1.00800           0
     13416 MEMB     101      POPC     H15C     HL       0.250000       1.00800           0
     13417 MEMB     101      POPC     C11      CTL2    -0.800000E-01   12.0110           0
     13418 MEMB     101      POPC     H11A     HAL2     0.900000E-01   1.00800           0
     13419 MEMB     101      POPC     H11B     HAL2     0.900000E-01   1.00800           0
     13420 MEMB     101      POPC     P        PL       1.50000        30.9740           0
     13421 MEMB     101      POPC     O13      O2L     -0.780000       15.9994           0
     13422 MEMB     101      POPC     O14      O2L     -0.780000       15.9994           0
     13423 MEMB     101      POPC     O12      OSLP    -0.570000       15.9994           0
     13424 MEMB     101      POPC     O11      OSLP    -0.570000       15.9994           0
     13425 MEMB     101      POPC     C1       CTL2    -0.800000E-01   12.0110           0
     13426 MEMB     101      POPC     HA       HAL2     0.900000E-01   1.00800           0
     13427 MEMB     101      POPC     HB       HAL2     0.900000E-01   1.00800           0
     13428 MEMB     101      POPC     C2       CTL1     0.170000       12.0110           0
     13429 MEMB     101      POPC     HS       HAL1     0.900000E-01   1.00800           0
     13430 MEMB     101      POPC     O21      OSL     -0.490000       15.9994           0
     13431 MEMB     101      POPC     C21      CL       0.900000       12.0110           0
     13432 MEMB     101      POPC     O22      OBL     -0.630000       15.9994           0
     13433 MEMB     101      POPC     C22      CTL2    -0.220000       12.0110           0
     13434 MEMB     101      POPC     H2R      HAL2     0.900000E-01   1.00800           0
     13435 MEMB     101      POPC     H2S      HAL2     0.900000E-01   1.00800           0
     13436 MEMB     101      POPC     C3       CTL2     0.800000E-01   12.0110           0
     13437 MEMB     101      POPC     HX       HAL2     0.900000E-01   1.00800           0
     13438 MEMB     101      POPC     HY       HAL2     0.900000E-01   1.00800           0
     13439 MEMB     101      POPC     O31      OSL     -0.490000       15.9994           0
     13440 MEMB     101      POPC     C31      CL       0.900000       12.0110           0
     13441 MEMB     101      POPC     O32      OBL     -0.630000       15.9994           0
     13442 MEMB     101      POPC     C32      CTL2    -0.220000       12.0110           0
     13443 MEMB     101      POPC     H2X      HAL2     0.900000E-01   1.00800           0
     13444 MEMB     101      POPC     H2Y      HAL2     0.900000E-01   1.00800           0
     13445 MEMB     101      POPC     C23      CTL2    -0.180000       12.0110           0
     13446 MEMB     101      POPC     H3R      HAL2     0.900000E-01   1.00800           0
     13447 MEMB     101      POPC     H3S      HAL2     0.900000E-01   1.00800           0
     13448 MEMB     101      POPC     C24      CTL2    -0.180000       12.0110           0
     13449 MEMB     101      POPC     H4R      HAL2     0.900000E-01   1.00800           0
     13450 MEMB     101      POPC     H4S      HAL2     0.900000E-01   1.00800           0
     13451 MEMB     101      POPC     C25      CTL2    -0.180000       12.0110           0
     13452 MEMB     101      POPC     H5R      HAL2     0.900000E-01   1.00800           0
     13453 MEMB     101      POPC     H5S      HAL2     0.900000E-01   1.00800           0
     13454 MEMB     101      POPC     C26      CTL2    -0.180000       12.0110           0
     13455 MEMB     101      POPC     H6R      HAL2     0.900000E-01   1.00800           0
     13456 MEMB     101      POPC     H6S      HAL2     0.900000E-01   1.00800           0
     13457 MEMB     101      POPC     C27      CTL2    -0.180000       12.0110           0
     13458 MEMB     101      POPC     H7R      HAL2     0.900000E-01   1.00800           0
     13459 MEMB     101      POPC     H7S      HAL2     0.900000E-01   1.00800           0
     13460 MEMB     101      POPC     C28      CTL2    -0.180000       12.0110           0
     13461 MEMB     101      POPC     H8R      HAL2     0.900000E-01   1.00800           0
     13462 MEMB     101      POPC     H8S      HAL2     0.900000E-01   1.00800           0
     13463 MEMB     101      POPC     C29      CEL1    -0.150000       12.0110           0
     13464 MEMB     101      POPC     H91      HEL1     0.150000       1.00800           0
     13465 MEMB     101      POPC     C210     CEL1    -0.150000       12.0110           0
     13466 MEMB     101      POPC     H101     HEL1     0.150000       1.00800           0
     13467 MEMB     101      POPC     C211     CTL2    -0.180000       12.0110           0
     13468 MEMB     101      POPC     H11R     HAL2     0.900000E-01   1.00800           0
     13469 MEMB     101      POPC     H11S     HAL2     0.900000E-01   1.00800           0
     13470 MEMB     101      POPC     C212     CTL2    -0.180000       12.0110           0
     13471 MEMB     101      POPC     H12R     HAL2     0.900000E-01   1.00800           0
     13472 MEMB     101      POPC     H12S     HAL2     0.900000E-01   1.00800           0
     13473 MEMB     101      POPC     C213     CTL2    -0.180000       12.0110           0
     13474 MEMB     101      POPC     H13R     HAL2     0.900000E-01   1.00800           0
     13475 MEMB     101      POPC     H13S     HAL2     0.900000E-01   1.00800           0
     13476 MEMB     101      POPC     C214     CTL2    -0.180000       12.0110           0
     13477 MEMB     101      POPC     H14R     HAL2     0.900000E-01   1.00800           0
     13478 MEMB     101      POPC     H14S     HAL2     0.900000E-01   1.00800           0
     13479 MEMB     101      POPC     C215     CTL2    -0.180000       12.0110           0
     13480 MEMB     101      POPC     H15R     HAL2     0.900000E-01   1.00800           0
     13481 MEMB     101      POPC     H15S     HAL2     0.900000E-01   1.00800           0
     13482 MEMB     101      POPC     C216     CTL2    -0.180000       12.0110           0
     13483 MEMB     101      POPC     H16R     HAL2     0.900000E-01   1.00800           0
     13484 MEMB     101      POPC     H16S     HAL2     0.900000E-01   1.00800           0
     13485 MEMB     101      POPC     C217     CTL2    -0.180000       12.0110           0
     13486 MEMB     101      POPC     H17R     HAL2     0.900000E-01   1.00800           0
     13487 MEMB     101      POPC     H17S     HAL2     0.900000E-01   1.00800           0
     13488 MEMB     101      POPC     C218     CTL3    -0.270000       12.0110           0
     13489 MEMB     101      POPC     H18R     HAL3     0.900000E-01   1.00800           0
     13490 MEMB     101      POPC     H18S     HAL3     0.900000E-01   1.00800           0
     13491 MEMB     101      POPC     H18T     HAL3     0.900000E-01   1.00800           0
     13492 MEMB     101      POPC     C33      CTL2    -0.180000       12.0110           0
     13493 MEMB     101      POPC     H3X      HAL2     0.900000E-01   1.00800           0
     13494 MEMB     101      POPC     H3Y      HAL2     0.900000E-01   1.00800           0
     13495 MEMB     101      POPC     C34      CTL2    -0.180000       12.0110           0
     13496 MEMB     101      POPC     H4X      HAL2     0.900000E-01   1.00800           0
     13497 MEMB     101      POPC     H4Y      HAL2     0.900000E-01   1.00800           0
     13498 MEMB     101      POPC     C35      CTL2    -0.180000       12.0110           0
     13499 MEMB     101      POPC     H5X      HAL2     0.900000E-01   1.00800           0
     13500 MEMB     101      POPC     H5Y      HAL2     0.900000E-01   1.00800           0
     13501 MEMB     101      POPC     C36      CTL2    -0.180000       12.0110           0
     13502 MEMB     101      POPC     H6X      HAL2     0.900000E-01   1.00800           0
     13503 MEMB     101      POPC     H6Y      HAL2     0.900000E-01   1.00800           0
     13504 MEMB     101      POPC     C37      CTL2    -0.180000       12.0110           0
     13505 MEMB     101      POPC     H7X      HAL2     0.900000E-01   1.00800           0
     13506 MEMB     101      POPC     H7Y      HAL2     0.900000E-01   1.00800           0
     13507 MEMB     101      POPC     C38      CTL2    -0.180000       12.0110           0
     13508 MEMB     101      POPC     H8X      HAL2     0.900000E-01   1.00800           0
     13509 MEMB     101      POPC     H8Y      HAL2     0.900000E-01   1.00800           0
     13510 MEMB     101      POPC     C39      CTL2    -0.180000       12.0110           0
     13511 MEMB     101      POPC     H9X      HAL2     0.900000E-01   1.00800           0
     13512 MEMB     101      POPC     H9Y      HAL2     0.900000E-01   1.00800           0
     13513 MEMB     101      POPC     C310     CTL2    -0.180000       12.0110           0
     13514 MEMB     101      POPC     H10X     HAL2     0.900000E-01   1.00800           0
     13515 MEMB     101      POPC     H10Y     HAL2     0.900000E-01   1.00800           0
     13516 MEMB     101      POPC     C311     CTL2    -0.180000       12.0110           0
     13517 MEMB     101      POPC     H11X     HAL2     0.900000E-01   1.00800           0
     13518 MEMB     101      POPC     H11Y     HAL2     0.900000E-01   1.00800           0
     13519 MEMB     101      POPC     C312     CTL2    -0.180000       12.0110           0
     13520 MEMB     101      POPC     H12X     HAL2     0.900000E-01   1.00800           0
     13521 MEMB     101      POPC     H12Y     HAL2     0.900000E-01   1.00800           0
     13522 MEMB     101      POPC     C313     CTL2    -0.180000       12.0110           0
     13523 MEMB     101      POPC     H13X     HAL2     0.900000E-01   1.00800           0
     13524 MEMB     101      POPC     H13Y     HAL2     0.900000E-01   1.00800           0
     13525 MEMB     101      POPC     C314     CTL2    -0.180000       12.0110           0
     13526 MEMB     101      POPC     H14X     HAL2     0.900000E-01   1.00800           0
     13527 MEMB     101      POPC     H14Y     HAL2     0.900000E-01   1.00800           0
     13528 MEMB     101      POPC     C315     CTL2    -0.180000       12.0110           0
     13529 MEMB     101      POPC     H15X     HAL2     0.900000E-01   1.00800           0
     13530 MEMB     101      POPC     H15Y     HAL2     0.900000E-01   1.00800           0
     13531 MEMB     101      POPC     C316     CTL3    -0.270000       12.0110           0
     13532 MEMB     101      POPC     H16X     HAL3     0.900000E-01   1.00800           0
     13533 MEMB     101      POPC     H16Y     HAL3     0.900000E-01   1.00800           0
     13534 MEMB     101      POPC     H16Z     HAL3     0.900000E-01   1.00800           0
     13535 MEMB     102      POPC     N        NTL     -0.600000       14.0070           0
     13536 MEMB     102      POPC     C12      CTL2    -0.100000       12.0110           0
     13537 MEMB     102      POPC     H12A     HL       0.250000       1.00800           0
     13538 MEMB     102      POPC     H12B     HL       0.250000       1.00800           0
     13539 MEMB     102      POPC     C13      CTL5    -0.350000       12.0110           0
     13540 MEMB     102      POPC     H13A     HL       0.250000       1.00800           0
     13541 MEMB     102      POPC     H13B     HL       0.250000       1.00800           0
     13542 MEMB     102      POPC     H13C     HL       0.250000       1.00800           0
     13543 MEMB     102      POPC     C14      CTL5    -0.350000       12.0110           0
     13544 MEMB     102      POPC     H14A     HL       0.250000       1.00800           0
     13545 MEMB     102      POPC     H14B     HL       0.250000       1.00800           0
     13546 MEMB     102      POPC     H14C     HL       0.250000       1.00800           0
     13547 MEMB     102      POPC     C15      CTL5    -0.350000       12.0110           0
     13548 MEMB     102      POPC     H15A     HL       0.250000       1.00800           0
     13549 MEMB     102      POPC     H15B     HL       0.250000       1.00800           0
     13550 MEMB     102      POPC     H15C     HL       0.250000       1.00800           0
     13551 MEMB     102      POPC     C11      CTL2    -0.800000E-01   12.0110           0
     13552 MEMB     102      POPC     H11A     HAL2     0.900000E-01   1.00800           0
     13553 MEMB     102      POPC     H11B     HAL2     0.900000E-01   1.00800           0
     13554 MEMB     102      POPC     P        PL       1.50000        30.9740           0
     13555 MEMB     102      POPC     O13      O2L     -0.780000       15.9994           0
     13556 MEMB     102      POPC     O14      O2L     -0.780000       15.9994           0
     13557 MEMB     102      POPC     O12      OSLP    -0.570000       15.9994           0
     13558 MEMB     102      POPC     O11      OSLP    -0.570000       15.9994           0
     13559 MEMB     102      POPC     C1       CTL2    -0.800000E-01   12.0110           0
     13560 MEMB     102      POPC     HA       HAL2     0.900000E-01   1.00800           0
     13561 MEMB     102      POPC     HB       HAL2     0.900000E-01   1.00800           0
     13562 MEMB     102      POPC     C2       CTL1     0.170000       12.0110           0
     13563 MEMB     102      POPC     HS       HAL1     0.900000E-01   1.00800           0
     13564 MEMB     102      POPC     O21      OSL     -0.490000       15.9994           0
     13565 MEMB     102      POPC     C21      CL       0.900000       12.0110           0
     13566 MEMB     102      POPC     O22      OBL     -0.630000       15.9994           0
     13567 MEMB     102      POPC     C22      CTL2    -0.220000       12.0110           0
     13568 MEMB     102      POPC     H2R      HAL2     0.900000E-01   1.00800           0
     13569 MEMB     102      POPC     H2S      HAL2     0.900000E-01   1.00800           0
     13570 MEMB     102      POPC     C3       CTL2     0.800000E-01   12.0110           0
     13571 MEMB     102      POPC     HX       HAL2     0.900000E-01   1.00800           0
     13572 MEMB     102      POPC     HY       HAL2     0.900000E-01   1.00800           0
     13573 MEMB     102      POPC     O31      OSL     -0.490000       15.9994           0
     13574 MEMB     102      POPC     C31      CL       0.900000       12.0110           0
     13575 MEMB     102      POPC     O32      OBL     -0.630000       15.9994           0
     13576 MEMB     102      POPC     C32      CTL2    -0.220000       12.0110           0
     13577 MEMB     102      POPC     H2X      HAL2     0.900000E-01   1.00800           0
     13578 MEMB     102      POPC     H2Y      HAL2     0.900000E-01   1.00800           0
     13579 MEMB     102      POPC     C23      CTL2    -0.180000       12.0110           0
     13580 MEMB     102      POPC     H3R      HAL2     0.900000E-01   1.00800           0
     13581 MEMB     102      POPC     H3S      HAL2     0.900000E-01   1.00800           0
     13582 MEMB     102      POPC     C24      CTL2    -0.180000       12.0110           0
     13583 MEMB     102      POPC     H4R      HAL2     0.900000E-01   1.00800           0
     13584 MEMB     102      POPC     H4S      HAL2     0.900000E-01   1.00800           0
     13585 MEMB     102      POPC     C25      CTL2    -0.180000       12.0110           0
     13586 MEMB     102      POPC     H5R      HAL2     0.900000E-01   1.00800           0
     13587 MEMB     102      POPC     H5S      HAL2     0.900000E-01   1.00800           0
     13588 MEMB     102      POPC     C26      CTL2    -0.180000       12.0110           0
     13589 MEMB     102      POPC     H6R      HAL2     0.900000E-01   1.00800           0
     13590 MEMB     102      POPC     H6S      HAL2     0.900000E-01   1.00800           0
     13591 MEMB     102      POPC     C27      CTL2    -0.180000       12.0110           0
     13592 MEMB     102      POPC     H7R      HAL2     0.900000E-01   1.00800           0
     13593 MEMB     102      POPC     H7S      HAL2     0.900000E-01   1.00800           0
     13594 MEMB     102      POPC     C28      CTL2    -0.180000       12.0110           0
     13595 MEMB     102      POPC     H8R      HAL2     0.900000E-01   1.00800           0
     13596 MEMB     102      POPC     H8S      HAL2     0.900000E-01   1.00800           0
     13597 MEMB     102      POPC     C29      CEL1    -0.150000       12.0110           0
     13598 MEMB     102      POPC     H91      HEL1     0.150000       1.00800           0
     13599 MEMB     102      POPC     C210     CEL1    -0.150000       12.0110           0
     13600 MEMB     102      POPC     H101     HEL1     0.150000       1.00800           0
     13601 MEMB     102      POPC     C211     CTL2    -0.180000       12.0110           0
     13602 MEMB     102      POPC     H11R     HAL2     0.900000E-01   1.00800           0
     13603 MEMB     102      POPC     H11S     HAL2     0.900000E-01   1.00800           0
     13604 MEMB     102      POPC     C212     CTL2    -0.180000       12.0110           0
     13605 MEMB     102      POPC     H12R     HAL2     0.900000E-01   1.00800           0
     13606 MEMB     102      POPC     H12S     HAL2     0.900000E-01   1.00800           0
     13607 MEMB     102      POPC     C213     CTL2    -0.180000       12.0110           0
     13608 MEMB     102      POPC     H13R     HAL2     0.900000E-01   1.00800           0
     13609 MEMB     102      POPC     H13S     HAL2     0.900000E-01   1.00800           0
     13610 MEMB     102      POPC     C214     CTL2    -0.180000       12.0110           0
     13611 MEMB     102      POPC     H14R     HAL2     0.900000E-01   1.00800           0
     13612 MEMB     102      POPC     H14S     HAL2     0.900000E-01   1.00800           0
     13613 MEMB     102      POPC     C215     CTL2    -0.180000       12.0110           0
     13614 MEMB     102      POPC     H15R     HAL2     0.900000E-01   1.00800           0
     13615 MEMB     102      POPC     H15S     HAL2     0.900000E-01   1.00800           0
     13616 MEMB     102      POPC     C216     CTL2    -0.180000       12.0110           0
     13617 MEMB     102      POPC     H16R     HAL2     0.900000E-01   1.00800           0
     13618 MEMB     102      POPC     H16S     HAL2     0.900000E-01   1.00800           0
     13619 MEMB     102      POPC     C217     CTL2    -0.180000       12.0110           0
     13620 MEMB     102      POPC     H17R     HAL2     0.900000E-01   1.00800           0
     13621 MEMB     102      POPC     H17S     HAL2     0.900000E-01   1.00800           0
     13622 MEMB     102      POPC     C218     CTL3    -0.270000       12.0110           0
     13623 MEMB     102      POPC     H18R     HAL3     0.900000E-01   1.00800           0
     13624 MEMB     102      POPC     H18S     HAL3     0.900000E-01   1.00800           0
     13625 MEMB     102      POPC     H18T     HAL3     0.900000E-01   1.00800           0
     13626 MEMB     102      POPC     C33      CTL2    -0.180000       12.0110           0
     13627 MEMB     102      POPC     H3X      HAL2     0.900000E-01   1.00800           0
     13628 MEMB     102      POPC     H3Y      HAL2     0.900000E-01   1.00800           0
     13629 MEMB     102      POPC     C34      CTL2    -0.180000       12.0110           0
     13630 MEMB     102      POPC     H4X      HAL2     0.900000E-01   1.00800           0
     13631 MEMB     102      POPC     H4Y      HAL2     0.900000E-01   1.00800           0
     13632 MEMB     102      POPC     C35      CTL2    -0.180000       12.0110           0
     13633 MEMB     102      POPC     H5X      HAL2     0.900000E-01   1.00800           0
     13634 MEMB     102      POPC     H5Y      HAL2     0.900000E-01   1.00800           0
     13635 MEMB     102      POPC     C36      CTL2    -0.180000       12.0110           0
     13636 MEMB     102      POPC     H6X      HAL2     0.900000E-01   1.00800           0
     13637 MEMB     102      POPC     H6Y      HAL2     0.900000E-01   1.00800           0
     13638 MEMB     102      POPC     C37      CTL2    -0.180000       12.0110           0
     13639 MEMB     102      POPC     H7X      HAL2     0.900000E-01   1.00800           0
     13640 MEMB     102      POPC     H7Y      HAL2     0.900000E-01   1.00800           0
     13641 MEMB     102      POPC     C38      CTL2    -0.180000       12.0110           0
     13642 MEMB     102      POPC     H8X      HAL2     0.900000E-01   1.00800           0
     13643 MEMB     102      POPC     H8Y      HAL2     0.900000E-01   1.00800           0
     13644 MEMB     102      POPC     C39      CTL2    -0.180000       12.0110           0
     13645 MEMB     102      POPC     H9X      HAL2     0.900000E-01   1.00800           0
     13646 MEMB     102      POPC     H9Y      HAL2     0.900000E-01   1.00800           0
     13647 MEMB     102      POPC     C310     CTL2    -0.180000       12.0110           0
     13648 MEMB     102      POPC     H10X     HAL2     0.900000E-01   1.00800           0
     13649 MEMB     102      POPC     H10Y     HAL2     0.900000E-01   1.00800           0
     13650 MEMB     102      POPC     C311     CTL2    -0.180000       12.0110           0
     13651 MEMB     102      POPC     H11X     HAL2     0.900000E-01   1.00800           0
     13652 MEMB     102      POPC     H11Y     HAL2     0.900000E-01   1.00800           0
     13653 MEMB     102      POPC     C312     CTL2    -0.180000       12.0110           0
     13654 MEMB     102      POPC     H12X     HAL2     0.900000E-01   1.00800           0
     13655 MEMB     102      POPC     H12Y     HAL2     0.900000E-01   1.00800           0
     13656 MEMB     102      POPC     C313     CTL2    -0.180000       12.0110           0
     13657 MEMB     102      POPC     H13X     HAL2     0.900000E-01   1.00800           0
     13658 MEMB     102      POPC     H13Y     HAL2     0.900000E-01   1.00800           0
     13659 MEMB     102      POPC     C314     CTL2    -0.180000       12.0110           0
     13660 MEMB     102      POPC     H14X     HAL2     0.900000E-01   1.00800           0
     13661 MEMB     102      POPC     H14Y     HAL2     0.900000E-01   1.00800           0
     13662 MEMB     102      POPC     C315     CTL2    -0.180000       12.0110           0
     13663 MEMB     102      POPC     H15X     HAL2     0.900000E-01   1.00800           0
     13664 MEMB     102      POPC     H15Y     HAL2     0.900000E-01   1.00800           0
     13665 MEMB     102      POPC     C316     CTL3    -0.270000       12.0110           0
     13666 MEMB     102      POPC     H16X     HAL3     0.900000E-01   1.00800           0
     13667 MEMB     102      POPC     H16Y     HAL3     0.900000E-01   1.00800           0
     13668 MEMB     102      POPC     H16Z     HAL3     0.900000E-01   1.00800           0
     13669 MEMB     103      POPC     N        NTL     -0.600000       14.0070           0
     13670 MEMB     103      POPC     C12      CTL2    -0.100000       12.0110           0
     13671 MEMB     103      POPC     H12A     HL       0.250000       1.00800           0
     13672 MEMB     103      POPC     H12B     HL       0.250000       1.00800           0
     13673 MEMB     103      POPC     C13      CTL5    -0.350000       12.0110           0
     13674 MEMB     103      POPC     H13A     HL       0.250000       1.00800           0
     13675 MEMB     103      POPC     H13B     HL       0.250000       1.00800           0
     13676 MEMB     103      POPC     H13C     HL       0.250000       1.00800           0
     13677 MEMB     103      POPC     C14      CTL5    -0.350000       12.0110           0
     13678 MEMB     103      POPC     H14A     HL       0.250000       1.00800           0
     13679 MEMB     103      POPC     H14B     HL       0.250000       1.00800           0
     13680 MEMB     103      POPC     H14C     HL       0.250000       1.00800           0
     13681 MEMB     103      POPC     C15      CTL5    -0.350000       12.0110           0
     13682 MEMB     103      POPC     H15A     HL       0.250000       1.00800           0
     13683 MEMB     103      POPC     H15B     HL       0.250000       1.00800           0
     13684 MEMB     103      POPC     H15C     HL       0.250000       1.00800           0
     13685 MEMB     103      POPC     C11      CTL2    -0.800000E-01   12.0110           0
     13686 MEMB     103      POPC     H11A     HAL2     0.900000E-01   1.00800           0
     13687 MEMB     103      POPC     H11B     HAL2     0.900000E-01   1.00800           0
     13688 MEMB     103      POPC     P        PL       1.50000        30.9740           0
     13689 MEMB     103      POPC     O13      O2L     -0.780000       15.9994           0
     13690 MEMB     103      POPC     O14      O2L     -0.780000       15.9994           0
     13691 MEMB     103      POPC     O12      OSLP    -0.570000       15.9994           0
     13692 MEMB     103      POPC     O11      OSLP    -0.570000       15.9994           0
     13693 MEMB     103      POPC     C1       CTL2    -0.800000E-01   12.0110           0
     13694 MEMB     103      POPC     HA       HAL2     0.900000E-01   1.00800           0
     13695 MEMB     103      POPC     HB       HAL2     0.900000E-01   1.00800           0
     13696 MEMB     103      POPC     C2       CTL1     0.170000       12.0110           0
     13697 MEMB     103      POPC     HS       HAL1     0.900000E-01   1.00800           0
     13698 MEMB     103      POPC     O21      OSL     -0.490000       15.9994           0
     13699 MEMB     103      POPC     C21      CL       0.900000       12.0110           0
     13700 MEMB     103      POPC     O22      OBL     -0.630000       15.9994           0
     13701 MEMB     103      POPC     C22      CTL2    -0.220000       12.0110           0
     13702 MEMB     103      POPC     H2R      HAL2     0.900000E-01   1.00800           0
     13703 MEMB     103      POPC     H2S      HAL2     0.900000E-01   1.00800           0
     13704 MEMB     103      POPC     C3       CTL2     0.800000E-01   12.0110           0
     13705 MEMB     103      POPC     HX       HAL2     0.900000E-01   1.00800           0
     13706 MEMB     103      POPC     HY       HAL2     0.900000E-01   1.00800           0
     13707 MEMB     103      POPC     O31      OSL     -0.490000       15.9994           0
     13708 MEMB     103      POPC     C31      CL       0.900000       12.0110           0
     13709 MEMB     103      POPC     O32      OBL     -0.630000       15.9994           0
     13710 MEMB     103      POPC     C32      CTL2    -0.220000       12.0110           0
     13711 MEMB     103      POPC     H2X      HAL2     0.900000E-01   1.00800           0
     13712 MEMB     103      POPC     H2Y      HAL2     0.900000E-01   1.00800           0
     13713 MEMB     103      POPC     C23      CTL2    -0.180000       12.0110           0
     13714 MEMB     103      POPC     H3R      HAL2     0.900000E-01   1.00800           0
     13715 MEMB     103      POPC     H3S      HAL2     0.900000E-01   1.00800           0
     13716 MEMB     103      POPC     C24      CTL2    -0.180000       12.0110           0
     13717 MEMB     103      POPC     H4R      HAL2     0.900000E-01   1.00800           0
     13718 MEMB     103      POPC     H4S      HAL2     0.900000E-01   1.00800           0
     13719 MEMB     103      POPC     C25      CTL2    -0.180000       12.0110           0
     13720 MEMB     103      POPC     H5R      HAL2     0.900000E-01   1.00800           0
     13721 MEMB     103      POPC     H5S      HAL2     0.900000E-01   1.00800           0
     13722 MEMB     103      POPC     C26      CTL2    -0.180000       12.0110           0
     13723 MEMB     103      POPC     H6R      HAL2     0.900000E-01   1.00800           0
     13724 MEMB     103      POPC     H6S      HAL2     0.900000E-01   1.00800           0
     13725 MEMB     103      POPC     C27      CTL2    -0.180000       12.0110           0
     13726 MEMB     103      POPC     H7R      HAL2     0.900000E-01   1.00800           0
     13727 MEMB     103      POPC     H7S      HAL2     0.900000E-01   1.00800           0
     13728 MEMB     103      POPC     C28      CTL2    -0.180000       12.0110           0
     13729 MEMB     103      POPC     H8R      HAL2     0.900000E-01   1.00800           0
     13730 MEMB     103      POPC     H8S      HAL2     0.900000E-01   1.00800           0
     13731 MEMB     103      POPC     C29      CEL1    -0.150000       12.0110           0
     13732 MEMB     103      POPC     H91      HEL1     0.150000       1.00800           0
     13733 MEMB     103      POPC     C210     CEL1    -0.150000       12.0110           0
     13734 MEMB     103      POPC     H101     HEL1     0.150000       1.00800           0
     13735 MEMB     103      POPC     C211     CTL2    -0.180000       12.0110           0
     13736 MEMB     103      POPC     H11R     HAL2     0.900000E-01   1.00800           0
     13737 MEMB     103      POPC     H11S     HAL2     0.900000E-01   1.00800           0
     13738 MEMB     103      POPC     C212     CTL2    -0.180000       12.0110           0
     13739 MEMB     103      POPC     H12R     HAL2     0.900000E-01   1.00800           0
     13740 MEMB     103      POPC     H12S     HAL2     0.900000E-01   1.00800           0
     13741 MEMB     103      POPC     C213     CTL2    -0.180000       12.0110           0
     13742 MEMB     103      POPC     H13R     HAL2     0.900000E-01   1.00800           0
     13743 MEMB     103      POPC     H13S     HAL2     0.900000E-01   1.00800           0
     13744 MEMB     103      POPC     C214     CTL2    -0.180000       12.0110           0
     13745 MEMB     103      POPC     H14R     HAL2     0.900000E-01   1.00800           0
     13746 MEMB     103      POPC     H14S     HAL2     0.900000E-01   1.00800           0
     13747 MEMB     103      POPC     C215     CTL2    -0.180000       12.0110           0
     13748 MEMB     103      POPC     H15R     HAL2     0.900000E-01   1.00800           0
     13749 MEMB     103      POPC     H15S     HAL2     0.900000E-01   1.00800           0
     13750 MEMB     103      POPC     C216     CTL2    -0.180000       12.0110           0
     13751 MEMB     103      POPC     H16R     HAL2     0.900000E-01   1.00800           0
     13752 MEMB     103      POPC     H16S     HAL2     0.900000E-01   1.00800           0
     13753 MEMB     103      POPC     C217     CTL2    -0.180000       12.0110           0
     13754 MEMB     103      POPC     H17R     HAL2     0.900000E-01   1.00800           0
     13755 MEMB     103      POPC     H17S     HAL2     0.900000E-01   1.00800           0
     13756 MEMB     103      POPC     C218     CTL3    -0.270000       12.0110           0
     13757 MEMB     103      POPC     H18R     HAL3     0.900000E-01   1.00800           0
     13758 MEMB     103      POPC     H18S     HAL3     0.900000E-01   1.00800           0
     13759 MEMB     103      POPC     H18T     HAL3     0.900000E-01   1.00800           0
     13760 MEMB     103      POPC     C33      CTL2    -0.180000       12.0110           0
     13761 MEMB     103      POPC     H3X      HAL2     0.900000E-01   1.00800           0
     13762 MEMB     103      POPC     H3Y      HAL2     0.900000E-01   1.00800           0
     13763 MEMB     103      POPC     C34      CTL2    -0.180000       12.0110           0
     13764 MEMB     103      POPC     H4X      HAL2     0.900000E-01   1.00800           0
     13765 MEMB     103      POPC     H4Y      HAL2     0.900000E-01   1.00800           0
     13766 MEMB     103      POPC     C35      CTL2    -0.180000       12.0110           0
     13767 MEMB     103      POPC     H5X      HAL2     0.900000E-01   1.00800           0
     13768 MEMB     103      POPC     H5Y      HAL2     0.900000E-01   1.00800           0
     13769 MEMB     103      POPC     C36      CTL2    -0.180000       12.0110           0
     13770 MEMB     103      POPC     H6X      HAL2     0.900000E-01   1.00800           0
     13771 MEMB     103      POPC     H6Y      HAL2     0.900000E-01   1.00800           0
     13772 MEMB     103      POPC     C37      CTL2    -0.180000       12.0110           0
     13773 MEMB     103      POPC     H7X      HAL2     0.900000E-01   1.00800           0
     13774 MEMB     103      POPC     H7Y      HAL2     0.900000E-01   1.00800           0
     13775 MEMB     103      POPC     C38      CTL2    -0.180000       12.0110           0
     13776 MEMB     103      POPC     H8X      HAL2     0.900000E-01   1.00800           0
     13777 MEMB     103      POPC     H8Y      HAL2     0.900000E-01   1.00800           0
     13778 MEMB     103      POPC     C39      CTL2    -0.180000       12.0110           0
     13779 MEMB     103      POPC     H9X      HAL2     0.900000E-01   1.00800           0
     13780 MEMB     103      POPC     H9Y      HAL2     0.900000E-01   1.00800           0
     13781 MEMB     103      POPC     C310     CTL2    -0.180000       12.0110           0
     13782 MEMB     103      POPC     H10X     HAL2     0.900000E-01   1.00800           0
     13783 MEMB     103      POPC     H10Y     HAL2     0.900000E-01   1.00800           0
     13784 MEMB     103      POPC     C311     CTL2    -0.180000       12.0110           0
     13785 MEMB     103      POPC     H11X     HAL2     0.900000E-01   1.00800           0
     13786 MEMB     103      POPC     H11Y     HAL2     0.900000E-01   1.00800           0
     13787 MEMB     103      POPC     C312     CTL2    -0.180000       12.0110           0
     13788 MEMB     103      POPC     H12X     HAL2     0.900000E-01   1.00800           0
     13789 MEMB     103      POPC     H12Y     HAL2     0.900000E-01   1.00800           0
     13790 MEMB     103      POPC     C313     CTL2    -0.180000       12.0110           0
     13791 MEMB     103      POPC     H13X     HAL2     0.900000E-01   1.00800           0
     13792 MEMB     103      POPC     H13Y     HAL2     0.900000E-01   1.00800           0
     13793 MEMB     103      POPC     C314     CTL2    -0.180000       12.0110           0
     13794 MEMB     103      POPC     H14X     HAL2     0.900000E-01   1.00800           0
     13795 MEMB     103      POPC     H14Y     HAL2     0.900000E-01   1.00800           0
     13796 MEMB     103      POPC     C315     CTL2    -0.180000       12.0110           0
     13797 MEMB     103      POPC     H15X     HAL2     0.900000E-01   1.00800           0
     13798 MEMB     103      POPC     H15Y     HAL2     0.900000E-01   1.00800           0
     13799 MEMB     103      POPC     C316     CTL3    -0.270000       12.0110           0
     13800 MEMB     103      POPC     H16X     HAL3     0.900000E-01   1.00800           0
     13801 MEMB     103      POPC     H16Y     HAL3     0.900000E-01   1.00800           0
     13802 MEMB     103      POPC     H16Z     HAL3     0.900000E-01   1.00800           0
     13803 MEMB     104      POPC     N        NTL     -0.600000       14.0070           0
     13804 MEMB     104      POPC     C12      CTL2    -0.100000       12.0110           0
     13805 MEMB     104      POPC     H12A     HL       0.250000       1.00800           0
     13806 MEMB     104      POPC     H12B     HL       0.250000       1.00800           0
     13807 MEMB     104      POPC     C13      CTL5    -0.350000       12.0110           0
     13808 MEMB     104      POPC     H13A     HL       0.250000       1.00800           0
     13809 MEMB     104      POPC     H13B     HL       0.250000       1.00800           0
     13810 MEMB     104      POPC     H13C     HL       0.250000       1.00800           0
     13811 MEMB     104      POPC     C14      CTL5    -0.350000       12.0110           0
     13812 MEMB     104      POPC     H14A     HL       0.250000       1.00800           0
     13813 MEMB     104      POPC     H14B     HL       0.250000       1.00800           0
     13814 MEMB     104      POPC     H14C     HL       0.250000       1.00800           0
     13815 MEMB     104      POPC     C15      CTL5    -0.350000       12.0110           0
     13816 MEMB     104      POPC     H15A     HL       0.250000       1.00800           0
     13817 MEMB     104      POPC     H15B     HL       0.250000       1.00800           0
     13818 MEMB     104      POPC     H15C     HL       0.250000       1.00800           0
     13819 MEMB     104      POPC     C11      CTL2    -0.800000E-01   12.0110           0
     13820 MEMB     104      POPC     H11A     HAL2     0.900000E-01   1.00800           0
     13821 MEMB     104      POPC     H11B     HAL2     0.900000E-01   1.00800           0
     13822 MEMB     104      POPC     P        PL       1.50000        30.9740           0
     13823 MEMB     104      POPC     O13      O2L     -0.780000       15.9994           0
     13824 MEMB     104      POPC     O14      O2L     -0.780000       15.9994           0
     13825 MEMB     104      POPC     O12      OSLP    -0.570000       15.9994           0
     13826 MEMB     104      POPC     O11      OSLP    -0.570000       15.9994           0
     13827 MEMB     104      POPC     C1       CTL2    -0.800000E-01   12.0110           0
     13828 MEMB     104      POPC     HA       HAL2     0.900000E-01   1.00800           0
     13829 MEMB     104      POPC     HB       HAL2     0.900000E-01   1.00800           0
     13830 MEMB     104      POPC     C2       CTL1     0.170000       12.0110           0
     13831 MEMB     104      POPC     HS       HAL1     0.900000E-01   1.00800           0
     13832 MEMB     104      POPC     O21      OSL     -0.490000       15.9994           0
     13833 MEMB     104      POPC     C21      CL       0.900000       12.0110           0
     13834 MEMB     104      POPC     O22      OBL     -0.630000       15.9994           0
     13835 MEMB     104      POPC     C22      CTL2    -0.220000       12.0110           0
     13836 MEMB     104      POPC     H2R      HAL2     0.900000E-01   1.00800           0
     13837 MEMB     104      POPC     H2S      HAL2     0.900000E-01   1.00800           0
     13838 MEMB     104      POPC     C3       CTL2     0.800000E-01   12.0110           0
     13839 MEMB     104      POPC     HX       HAL2     0.900000E-01   1.00800           0
     13840 MEMB     104      POPC     HY       HAL2     0.900000E-01   1.00800           0
     13841 MEMB     104      POPC     O31      OSL     -0.490000       15.9994           0
     13842 MEMB     104      POPC     C31      CL       0.900000       12.0110           0
     13843 MEMB     104      POPC     O32      OBL     -0.630000       15.9994           0
     13844 MEMB     104      POPC     C32      CTL2    -0.220000       12.0110           0
     13845 MEMB     104      POPC     H2X      HAL2     0.900000E-01   1.00800           0
     13846 MEMB     104      POPC     H2Y      HAL2     0.900000E-01   1.00800           0
     13847 MEMB     104      POPC     C23      CTL2    -0.180000       12.0110           0
     13848 MEMB     104      POPC     H3R      HAL2     0.900000E-01   1.00800           0
     13849 MEMB     104      POPC     H3S      HAL2     0.900000E-01   1.00800           0
     13850 MEMB     104      POPC     C24      CTL2    -0.180000       12.0110           0
     13851 MEMB     104      POPC     H4R      HAL2     0.900000E-01   1.00800           0
     13852 MEMB     104      POPC     H4S      HAL2     0.900000E-01   1.00800           0
     13853 MEMB     104      POPC     C25      CTL2    -0.180000       12.0110           0
     13854 MEMB     104      POPC     H5R      HAL2     0.900000E-01   1.00800           0
     13855 MEMB     104      POPC     H5S      HAL2     0.900000E-01   1.00800           0
     13856 MEMB     104      POPC     C26      CTL2    -0.180000       12.0110           0
     13857 MEMB     104      POPC     H6R      HAL2     0.900000E-01   1.00800           0
     13858 MEMB     104      POPC     H6S      HAL2     0.900000E-01   1.00800           0
     13859 MEMB     104      POPC     C27      CTL2    -0.180000       12.0110           0
     13860 MEMB     104      POPC     H7R      HAL2     0.900000E-01   1.00800           0
     13861 MEMB     104      POPC     H7S      HAL2     0.900000E-01   1.00800           0
     13862 MEMB     104      POPC     C28      CTL2    -0.180000       12.0110           0
     13863 MEMB     104      POPC     H8R      HAL2     0.900000E-01   1.00800           0
     13864 MEMB     104      POPC     H8S      HAL2     0.900000E-01   1.00800           0
     13865 MEMB     104      POPC     C29      CEL1    -0.150000       12.0110           0
     13866 MEMB     104      POPC     H91      HEL1     0.150000       1.00800           0
     13867 MEMB     104      POPC     C210     CEL1    -0.150000       12.0110           0
     13868 MEMB     104      POPC     H101     HEL1     0.150000       1.00800           0
     13869 MEMB     104      POPC     C211     CTL2    -0.180000       12.0110           0
     13870 MEMB     104      POPC     H11R     HAL2     0.900000E-01   1.00800           0
     13871 MEMB     104      POPC     H11S     HAL2     0.900000E-01   1.00800           0
     13872 MEMB     104      POPC     C212     CTL2    -0.180000       12.0110           0
     13873 MEMB     104      POPC     H12R     HAL2     0.900000E-01   1.00800           0
     13874 MEMB     104      POPC     H12S     HAL2     0.900000E-01   1.00800           0
     13875 MEMB     104      POPC     C213     CTL2    -0.180000       12.0110           0
     13876 MEMB     104      POPC     H13R     HAL2     0.900000E-01   1.00800           0
     13877 MEMB     104      POPC     H13S     HAL2     0.900000E-01   1.00800           0
     13878 MEMB     104      POPC     C214     CTL2    -0.180000       12.0110           0
     13879 MEMB     104      POPC     H14R     HAL2     0.900000E-01   1.00800           0
     13880 MEMB     104      POPC     H14S     HAL2     0.900000E-01   1.00800           0
     13881 MEMB     104      POPC     C215     CTL2    -0.180000       12.0110           0
     13882 MEMB     104      POPC     H15R     HAL2     0.900000E-01   1.00800           0
     13883 MEMB     104      POPC     H15S     HAL2     0.900000E-01   1.00800           0
     13884 MEMB     104      POPC     C216     CTL2    -0.180000       12.0110           0
     13885 MEMB     104      POPC     H16R     HAL2     0.900000E-01   1.00800           0
     13886 MEMB     104      POPC     H16S     HAL2     0.900000E-01   1.00800           0
     13887 MEMB     104      POPC     C217     CTL2    -0.180000       12.0110           0
     13888 MEMB     104      POPC     H17R     HAL2     0.900000E-01   1.00800           0
     13889 MEMB     104      POPC     H17S     HAL2     0.900000E-01   1.00800           0
     13890 MEMB     104      POPC     C218     CTL3    -0.270000       12.0110           0
     13891 MEMB     104      POPC     H18R     HAL3     0.900000E-01   1.00800           0
     13892 MEMB     104      POPC     H18S     HAL3     0.900000E-01   1.00800           0
     13893 MEMB     104      POPC     H18T     HAL3     0.900000E-01   1.00800           0
     13894 MEMB     104      POPC     C33      CTL2    -0.180000       12.0110           0
     13895 MEMB     104      POPC     H3X      HAL2     0.900000E-01   1.00800           0
     13896 MEMB     104      POPC     H3Y      HAL2     0.900000E-01   1.00800           0
     13897 MEMB     104      POPC     C34      CTL2    -0.180000       12.0110           0
     13898 MEMB     104      POPC     H4X      HAL2     0.900000E-01   1.00800           0
     13899 MEMB     104      POPC     H4Y      HAL2     0.900000E-01   1.00800           0
     13900 MEMB     104      POPC     C35      CTL2    -0.180000       12.0110           0
     13901 MEMB     104      POPC     H5X      HAL2     0.900000E-01   1.00800           0
     13902 MEMB     104      POPC     H5Y      HAL2     0.900000E-01   1.00800           0
     13903 MEMB     104      POPC     C36      CTL2    -0.180000       12.0110           0
     13904 MEMB     104      POPC     H6X      HAL2     0.900000E-01   1.00800           0
     13905 MEMB     104      POPC     H6Y      HAL2     0.900000E-01   1.00800           0
     13906 MEMB     104      POPC     C37      CTL2    -0.180000       12.0110           0
     13907 MEMB     104      POPC     H7X      HAL2     0.900000E-01   1.00800           0
     13908 MEMB     104      POPC     H7Y      HAL2     0.900000E-01   1.00800           0
     13909 MEMB     104      POPC     C38      CTL2    -0.180000       12.0110           0
     13910 MEMB     104      POPC     H8X      HAL2     0.900000E-01   1.00800           0
     13911 MEMB     104      POPC     H8Y      HAL2     0.900000E-01   1.00800           0
     13912 MEMB     104      POPC     C39      CTL2    -0.180000       12.0110           0
     13913 MEMB     104      POPC     H9X      HAL2     0.900000E-01   1.00800           0
     13914 MEMB     104      POPC     H9Y      HAL2     0.900000E-01   1.00800           0
     13915 MEMB     104      POPC     C310     CTL2    -0.180000       12.0110           0
     13916 MEMB     104      POPC     H10X     HAL2     0.900000E-01   1.00800           0
     13917 MEMB     104      POPC     H10Y     HAL2     0.900000E-01   1.00800           0
     13918 MEMB     104      POPC     C311     CTL2    -0.180000       12.0110           0
     13919 MEMB     104      POPC     H11X     HAL2     0.900000E-01   1.00800           0
     13920 MEMB     104      POPC     H11Y     HAL2     0.900000E-01   1.00800           0
     13921 MEMB     104      POPC     C312     CTL2    -0.180000       12.0110           0
     13922 MEMB     104      POPC     H12X     HAL2     0.900000E-01   1.00800           0
     13923 MEMB     104      POPC     H12Y     HAL2     0.900000E-01   1.00800           0
     13924 MEMB     104      POPC     C313     CTL2    -0.180000       12.0110           0
     13925 MEMB     104      POPC     H13X     HAL2     0.900000E-01   1.00800           0
     13926 MEMB     104      POPC     H13Y     HAL2     0.900000E-01   1.00800           0
     13927 MEMB     104      POPC     C314     CTL2    -0.180000       12.0110           0
     13928 MEMB     104      POPC     H14X     HAL2     0.900000E-01   1.00800           0
     13929 MEMB     104      POPC     H14Y     HAL2     0.900000E-01   1.00800           0
     13930 MEMB     104      POPC     C315     CTL2    -0.180000       12.0110           0
     13931 MEMB     104      POPC     H15X     HAL2     0.900000E-01   1.00800           0
     13932 MEMB     104      POPC     H15Y     HAL2     0.900000E-01   1.00800           0
     13933 MEMB     104      POPC     C316     CTL3    -0.270000       12.0110           0
     13934 MEMB     104      POPC     H16X     HAL3     0.900000E-01   1.00800           0
     13935 MEMB     104      POPC     H16Y     HAL3     0.900000E-01   1.00800           0
     13936 MEMB     104      POPC     H16Z     HAL3     0.900000E-01   1.00800           0
     13937 MEMB     105      POPC     N        NTL     -0.600000       14.0070           0
     13938 MEMB     105      POPC     C12      CTL2    -0.100000       12.0110           0
     13939 MEMB     105      POPC     H12A     HL       0.250000       1.00800           0
     13940 MEMB     105      POPC     H12B     HL       0.250000       1.00800           0
     13941 MEMB     105      POPC     C13      CTL5    -0.350000       12.0110           0
     13942 MEMB     105      POPC     H13A     HL       0.250000       1.00800           0
     13943 MEMB     105      POPC     H13B     HL       0.250000       1.00800           0
     13944 MEMB     105      POPC     H13C     HL       0.250000       1.00800           0
     13945 MEMB     105      POPC     C14      CTL5    -0.350000       12.0110           0
     13946 MEMB     105      POPC     H14A     HL       0.250000       1.00800           0
     13947 MEMB     105      POPC     H14B     HL       0.250000       1.00800           0
     13948 MEMB     105      POPC     H14C     HL       0.250000       1.00800           0
     13949 MEMB     105      POPC     C15      CTL5    -0.350000       12.0110           0
     13950 MEMB     105      POPC     H15A     HL       0.250000       1.00800           0
     13951 MEMB     105      POPC     H15B     HL       0.250000       1.00800           0
     13952 MEMB     105      POPC     H15C     HL       0.250000       1.00800           0
     13953 MEMB     105      POPC     C11      CTL2    -0.800000E-01   12.0110           0
     13954 MEMB     105      POPC     H11A     HAL2     0.900000E-01   1.00800           0
     13955 MEMB     105      POPC     H11B     HAL2     0.900000E-01   1.00800           0
     13956 MEMB     105      POPC     P        PL       1.50000        30.9740           0
     13957 MEMB     105      POPC     O13      O2L     -0.780000       15.9994           0
     13958 MEMB     105      POPC     O14      O2L     -0.780000       15.9994           0
     13959 MEMB     105      POPC     O12      OSLP    -0.570000       15.9994           0
     13960 MEMB     105      POPC     O11      OSLP    -0.570000       15.9994           0
     13961 MEMB     105      POPC     C1       CTL2    -0.800000E-01   12.0110           0
     13962 MEMB     105      POPC     HA       HAL2     0.900000E-01   1.00800           0
     13963 MEMB     105      POPC     HB       HAL2     0.900000E-01   1.00800           0
     13964 MEMB     105      POPC     C2       CTL1     0.170000       12.0110           0
     13965 MEMB     105      POPC     HS       HAL1     0.900000E-01   1.00800           0
     13966 MEMB     105      POPC     O21      OSL     -0.490000       15.9994           0
     13967 MEMB     105      POPC     C21      CL       0.900000       12.0110           0
     13968 MEMB     105      POPC     O22      OBL     -0.630000       15.9994           0
     13969 MEMB     105      POPC     C22      CTL2    -0.220000       12.0110           0
     13970 MEMB     105      POPC     H2R      HAL2     0.900000E-01   1.00800           0
     13971 MEMB     105      POPC     H2S      HAL2     0.900000E-01   1.00800           0
     13972 MEMB     105      POPC     C3       CTL2     0.800000E-01   12.0110           0
     13973 MEMB     105      POPC     HX       HAL2     0.900000E-01   1.00800           0
     13974 MEMB     105      POPC     HY       HAL2     0.900000E-01   1.00800           0
     13975 MEMB     105      POPC     O31      OSL     -0.490000       15.9994           0
     13976 MEMB     105      POPC     C31      CL       0.900000       12.0110           0
     13977 MEMB     105      POPC     O32      OBL     -0.630000       15.9994           0
     13978 MEMB     105      POPC     C32      CTL2    -0.220000       12.0110           0
     13979 MEMB     105      POPC     H2X      HAL2     0.900000E-01   1.00800           0
     13980 MEMB     105      POPC     H2Y      HAL2     0.900000E-01   1.00800           0
     13981 MEMB     105      POPC     C23      CTL2    -0.180000       12.0110           0
     13982 MEMB     105      POPC     H3R      HAL2     0.900000E-01   1.00800           0
     13983 MEMB     105      POPC     H3S      HAL2     0.900000E-01   1.00800           0
     13984 MEMB     105      POPC     C24      CTL2    -0.180000       12.0110           0
     13985 MEMB     105      POPC     H4R      HAL2     0.900000E-01   1.00800           0
     13986 MEMB     105      POPC     H4S      HAL2     0.900000E-01   1.00800           0
     13987 MEMB     105      POPC     C25      CTL2    -0.180000       12.0110           0
     13988 MEMB     105      POPC     H5R      HAL2     0.900000E-01   1.00800           0
     13989 MEMB     105      POPC     H5S      HAL2     0.900000E-01   1.00800           0
     13990 MEMB     105      POPC     C26      CTL2    -0.180000       12.0110           0
     13991 MEMB     105      POPC     H6R      HAL2     0.900000E-01   1.00800           0
     13992 MEMB     105      POPC     H6S      HAL2     0.900000E-01   1.00800           0
     13993 MEMB     105      POPC     C27      CTL2    -0.180000       12.0110           0
     13994 MEMB     105      POPC     H7R      HAL2     0.900000E-01   1.00800           0
     13995 MEMB     105      POPC     H7S      HAL2     0.900000E-01   1.00800           0
     13996 MEMB     105      POPC     C28      CTL2    -0.180000       12.0110           0
     13997 MEMB     105      POPC     H8R      HAL2     0.900000E-01   1.00800           0
     13998 MEMB     105      POPC     H8S      HAL2     0.900000E-01   1.00800           0
     13999 MEMB     105      POPC     C29      CEL1    -0.150000       12.0110           0
     14000 MEMB     105      POPC     H91      HEL1     0.150000       1.00800           0
     14001 MEMB     105      POPC     C210     CEL1    -0.150000       12.0110           0
     14002 MEMB     105      POPC     H101     HEL1     0.150000       1.00800           0
     14003 MEMB     105      POPC     C211     CTL2    -0.180000       12.0110           0
     14004 MEMB     105      POPC     H11R     HAL2     0.900000E-01   1.00800           0
     14005 MEMB     105      POPC     H11S     HAL2     0.900000E-01   1.00800           0
     14006 MEMB     105      POPC     C212     CTL2    -0.180000       12.0110           0
     14007 MEMB     105      POPC     H12R     HAL2     0.900000E-01   1.00800           0
     14008 MEMB     105      POPC     H12S     HAL2     0.900000E-01   1.00800           0
     14009 MEMB     105      POPC     C213     CTL2    -0.180000       12.0110           0
     14010 MEMB     105      POPC     H13R     HAL2     0.900000E-01   1.00800           0
     14011 MEMB     105      POPC     H13S     HAL2     0.900000E-01   1.00800           0
     14012 MEMB     105      POPC     C214     CTL2    -0.180000       12.0110           0
     14013 MEMB     105      POPC     H14R     HAL2     0.900000E-01   1.00800           0
     14014 MEMB     105      POPC     H14S     HAL2     0.900000E-01   1.00800           0
     14015 MEMB     105      POPC     C215     CTL2    -0.180000       12.0110           0
     14016 MEMB     105      POPC     H15R     HAL2     0.900000E-01   1.00800           0
     14017 MEMB     105      POPC     H15S     HAL2     0.900000E-01   1.00800           0
     14018 MEMB     105      POPC     C216     CTL2    -0.180000       12.0110           0
     14019 MEMB     105      POPC     H16R     HAL2     0.900000E-01   1.00800           0
     14020 MEMB     105      POPC     H16S     HAL2     0.900000E-01   1.00800           0
     14021 MEMB     105      POPC     C217     CTL2    -0.180000       12.0110           0
     14022 MEMB     105      POPC     H17R     HAL2     0.900000E-01   1.00800           0
     14023 MEMB     105      POPC     H17S     HAL2     0.900000E-01   1.00800           0
     14024 MEMB     105      POPC     C218     CTL3    -0.270000       12.0110           0
     14025 MEMB     105      POPC     H18R     HAL3     0.900000E-01   1.00800           0
     14026 MEMB     105      POPC     H18S     HAL3     0.900000E-01   1.00800           0
     14027 MEMB     105      POPC     H18T     HAL3     0.900000E-01   1.00800           0
     14028 MEMB     105      POPC     C33      CTL2    -0.180000       12.0110           0
     14029 MEMB     105      POPC     H3X      HAL2     0.900000E-01   1.00800           0
     14030 MEMB     105      POPC     H3Y      HAL2     0.900000E-01   1.00800           0
     14031 MEMB     105      POPC     C34      CTL2    -0.180000       12.0110           0
     14032 MEMB     105      POPC     H4X      HAL2     0.900000E-01   1.00800           0
     14033 MEMB     105      POPC     H4Y      HAL2     0.900000E-01   1.00800           0
     14034 MEMB     105      POPC     C35      CTL2    -0.180000       12.0110           0
     14035 MEMB     105      POPC     H5X      HAL2     0.900000E-01   1.00800           0
     14036 MEMB     105      POPC     H5Y      HAL2     0.900000E-01   1.00800           0
     14037 MEMB     105      POPC     C36      CTL2    -0.180000       12.0110           0
     14038 MEMB     105      POPC     H6X      HAL2     0.900000E-01   1.00800           0
     14039 MEMB     105      POPC     H6Y      HAL2     0.900000E-01   1.00800           0
     14040 MEMB     105      POPC     C37      CTL2    -0.180000       12.0110           0
     14041 MEMB     105      POPC     H7X      HAL2     0.900000E-01   1.00800           0
     14042 MEMB     105      POPC     H7Y      HAL2     0.900000E-01   1.00800           0
     14043 MEMB     105      POPC     C38      CTL2    -0.180000       12.0110           0
     14044 MEMB     105      POPC     H8X      HAL2     0.900000E-01   1.00800           0
     14045 MEMB     105      POPC     H8Y      HAL2     0.900000E-01   1.00800           0
     14046 MEMB     105      POPC     C39      CTL2    -0.180000       12.0110           0
     14047 MEMB     105      POPC     H9X      HAL2     0.900000E-01   1.00800           0
     14048 MEMB     105      POPC     H9Y      HAL2     0.900000E-01   1.00800           0
     14049 MEMB     105      POPC     C310     CTL2    -0.180000       12.0110           0
     14050 MEMB     105      POPC     H10X     HAL2     0.900000E-01   1.00800           0
     14051 MEMB     105      POPC     H10Y     HAL2     0.900000E-01   1.00800           0
     14052 MEMB     105      POPC     C311     CTL2    -0.180000       12.0110           0
     14053 MEMB     105      POPC     H11X     HAL2     0.900000E-01   1.00800           0
     14054 MEMB     105      POPC     H11Y     HAL2     0.900000E-01   1.00800           0
     14055 MEMB     105      POPC     C312     CTL2    -0.180000       12.0110           0
     14056 MEMB     105      POPC     H12X     HAL2     0.900000E-01   1.00800           0
     14057 MEMB     105      POPC     H12Y     HAL2     0.900000E-01   1.00800           0
     14058 MEMB     105      POPC     C313     CTL2    -0.180000       12.0110           0
     14059 MEMB     105      POPC     H13X     HAL2     0.900000E-01   1.00800           0
     14060 MEMB     105      POPC     H13Y     HAL2     0.900000E-01   1.00800           0
     14061 MEMB     105      POPC     C314     CTL2    -0.180000       12.0110           0
     14062 MEMB     105      POPC     H14X     HAL2     0.900000E-01   1.00800           0
     14063 MEMB     105      POPC     H14Y     HAL2     0.900000E-01   1.00800           0
     14064 MEMB     105      POPC     C315     CTL2    -0.180000       12.0110           0
     14065 MEMB     105      POPC     H15X     HAL2     0.900000E-01   1.00800           0
     14066 MEMB     105      POPC     H15Y     HAL2     0.900000E-01   1.00800           0
     14067 MEMB     105      POPC     C316     CTL3    -0.270000       12.0110           0
     14068 MEMB     105      POPC     H16X     HAL3     0.900000E-01   1.00800           0
     14069 MEMB     105      POPC     H16Y     HAL3     0.900000E-01   1.00800           0
     14070 MEMB     105      POPC     H16Z     HAL3     0.900000E-01   1.00800           0
     14071 MEMB     106      POPC     N        NTL     -0.600000       14.0070           0
     14072 MEMB     106      POPC     C12      CTL2    -0.100000       12.0110           0
     14073 MEMB     106      POPC     H12A     HL       0.250000       1.00800           0
     14074 MEMB     106      POPC     H12B     HL       0.250000       1.00800           0
     14075 MEMB     106      POPC     C13      CTL5    -0.350000       12.0110           0
     14076 MEMB     106      POPC     H13A     HL       0.250000       1.00800           0
     14077 MEMB     106      POPC     H13B     HL       0.250000       1.00800           0
     14078 MEMB     106      POPC     H13C     HL       0.250000       1.00800           0
     14079 MEMB     106      POPC     C14      CTL5    -0.350000       12.0110           0
     14080 MEMB     106      POPC     H14A     HL       0.250000       1.00800           0
     14081 MEMB     106      POPC     H14B     HL       0.250000       1.00800           0
     14082 MEMB     106      POPC     H14C     HL       0.250000       1.00800           0
     14083 MEMB     106      POPC     C15      CTL5    -0.350000       12.0110           0
     14084 MEMB     106      POPC     H15A     HL       0.250000       1.00800           0
     14085 MEMB     106      POPC     H15B     HL       0.250000       1.00800           0
     14086 MEMB     106      POPC     H15C     HL       0.250000       1.00800           0
     14087 MEMB     106      POPC     C11      CTL2    -0.800000E-01   12.0110           0
     14088 MEMB     106      POPC     H11A     HAL2     0.900000E-01   1.00800           0
     14089 MEMB     106      POPC     H11B     HAL2     0.900000E-01   1.00800           0
     14090 MEMB     106      POPC     P        PL       1.50000        30.9740           0
     14091 MEMB     106      POPC     O13      O2L     -0.780000       15.9994           0
     14092 MEMB     106      POPC     O14      O2L     -0.780000       15.9994           0
     14093 MEMB     106      POPC     O12      OSLP    -0.570000       15.9994           0
     14094 MEMB     106      POPC     O11      OSLP    -0.570000       15.9994           0
     14095 MEMB     106      POPC     C1       CTL2    -0.800000E-01   12.0110           0
     14096 MEMB     106      POPC     HA       HAL2     0.900000E-01   1.00800           0
     14097 MEMB     106      POPC     HB       HAL2     0.900000E-01   1.00800           0
     14098 MEMB     106      POPC     C2       CTL1     0.170000       12.0110           0
     14099 MEMB     106      POPC     HS       HAL1     0.900000E-01   1.00800           0
     14100 MEMB     106      POPC     O21      OSL     -0.490000       15.9994           0
     14101 MEMB     106      POPC     C21      CL       0.900000       12.0110           0
     14102 MEMB     106      POPC     O22      OBL     -0.630000       15.9994           0
     14103 MEMB     106      POPC     C22      CTL2    -0.220000       12.0110           0
     14104 MEMB     106      POPC     H2R      HAL2     0.900000E-01   1.00800           0
     14105 MEMB     106      POPC     H2S      HAL2     0.900000E-01   1.00800           0
     14106 MEMB     106      POPC     C3       CTL2     0.800000E-01   12.0110           0
     14107 MEMB     106      POPC     HX       HAL2     0.900000E-01   1.00800           0
     14108 MEMB     106      POPC     HY       HAL2     0.900000E-01   1.00800           0
     14109 MEMB     106      POPC     O31      OSL     -0.490000       15.9994           0
     14110 MEMB     106      POPC     C31      CL       0.900000       12.0110           0
     14111 MEMB     106      POPC     O32      OBL     -0.630000       15.9994           0
     14112 MEMB     106      POPC     C32      CTL2    -0.220000       12.0110           0
     14113 MEMB     106      POPC     H2X      HAL2     0.900000E-01   1.00800           0
     14114 MEMB     106      POPC     H2Y      HAL2     0.900000E-01   1.00800           0
     14115 MEMB     106      POPC     C23      CTL2    -0.180000       12.0110           0
     14116 MEMB     106      POPC     H3R      HAL2     0.900000E-01   1.00800           0
     14117 MEMB     106      POPC     H3S      HAL2     0.900000E-01   1.00800           0
     14118 MEMB     106      POPC     C24      CTL2    -0.180000       12.0110           0
     14119 MEMB     106      POPC     H4R      HAL2     0.900000E-01   1.00800           0
     14120 MEMB     106      POPC     H4S      HAL2     0.900000E-01   1.00800           0
     14121 MEMB     106      POPC     C25      CTL2    -0.180000       12.0110           0
     14122 MEMB     106      POPC     H5R      HAL2     0.900000E-01   1.00800           0
     14123 MEMB     106      POPC     H5S      HAL2     0.900000E-01   1.00800           0
     14124 MEMB     106      POPC     C26      CTL2    -0.180000       12.0110           0
     14125 MEMB     106      POPC     H6R      HAL2     0.900000E-01   1.00800           0
     14126 MEMB     106      POPC     H6S      HAL2     0.900000E-01   1.00800           0
     14127 MEMB     106      POPC     C27      CTL2    -0.180000       12.0110           0
     14128 MEMB     106      POPC     H7R      HAL2     0.900000E-01   1.00800           0
     14129 MEMB     106      POPC     H7S      HAL2     0.900000E-01   1.00800           0
     14130 MEMB     106      POPC     C28      CTL2    -0.180000       12.0110           0
     14131 MEMB     106      POPC     H8R      HAL2     0.900000E-01   1.00800           0
     14132 MEMB     106      POPC     H8S      HAL2     0.900000E-01   1.00800           0
     14133 MEMB     106      POPC     C29      CEL1    -0.150000       12.0110           0
     14134 MEMB     106      POPC     H91      HEL1     0.150000       1.00800           0
     14135 MEMB     106      POPC     C210     CEL1    -0.150000       12.0110           0
     14136 MEMB     106      POPC     H101     HEL1     0.150000       1.00800           0
     14137 MEMB     106      POPC     C211     CTL2    -0.180000       12.0110           0
     14138 MEMB     106      POPC     H11R     HAL2     0.900000E-01   1.00800           0
     14139 MEMB     106      POPC     H11S     HAL2     0.900000E-01   1.00800           0
     14140 MEMB     106      POPC     C212     CTL2    -0.180000       12.0110           0
     14141 MEMB     106      POPC     H12R     HAL2     0.900000E-01   1.00800           0
     14142 MEMB     106      POPC     H12S     HAL2     0.900000E-01   1.00800           0
     14143 MEMB     106      POPC     C213     CTL2    -0.180000       12.0110           0
     14144 MEMB     106      POPC     H13R     HAL2     0.900000E-01   1.00800           0
     14145 MEMB     106      POPC     H13S     HAL2     0.900000E-01   1.00800           0
     14146 MEMB     106      POPC     C214     CTL2    -0.180000       12.0110           0
     14147 MEMB     106      POPC     H14R     HAL2     0.900000E-01   1.00800           0
     14148 MEMB     106      POPC     H14S     HAL2     0.900000E-01   1.00800           0
     14149 MEMB     106      POPC     C215     CTL2    -0.180000       12.0110           0
     14150 MEMB     106      POPC     H15R     HAL2     0.900000E-01   1.00800           0
     14151 MEMB     106      POPC     H15S     HAL2     0.900000E-01   1.00800           0
     14152 MEMB     106      POPC     C216     CTL2    -0.180000       12.0110           0
     14153 MEMB     106      POPC     H16R     HAL2     0.900000E-01   1.00800           0
     14154 MEMB     106      POPC     H16S     HAL2     0.900000E-01   1.00800           0
     14155 MEMB     106      POPC     C217     CTL2    -0.180000       12.0110           0
     14156 MEMB     106      POPC     H17R     HAL2     0.900000E-01   1.00800           0
     14157 MEMB     106      POPC     H17S     HAL2     0.900000E-01   1.00800           0
     14158 MEMB     106      POPC     C218     CTL3    -0.270000       12.0110           0
     14159 MEMB     106      POPC     H18R     HAL3     0.900000E-01   1.00800           0
     14160 MEMB     106      POPC     H18S     HAL3     0.900000E-01   1.00800           0
     14161 MEMB     106      POPC     H18T     HAL3     0.900000E-01   1.00800           0
     14162 MEMB     106      POPC     C33      CTL2    -0.180000       12.0110           0
     14163 MEMB     106      POPC     H3X      HAL2     0.900000E-01   1.00800           0
     14164 MEMB     106      POPC     H3Y      HAL2     0.900000E-01   1.00800           0
     14165 MEMB     106      POPC     C34      CTL2    -0.180000       12.0110           0
     14166 MEMB     106      POPC     H4X      HAL2     0.900000E-01   1.00800           0
     14167 MEMB     106      POPC     H4Y      HAL2     0.900000E-01   1.00800           0
     14168 MEMB     106      POPC     C35      CTL2    -0.180000       12.0110           0
     14169 MEMB     106      POPC     H5X      HAL2     0.900000E-01   1.00800           0
     14170 MEMB     106      POPC     H5Y      HAL2     0.900000E-01   1.00800           0
     14171 MEMB     106      POPC     C36      CTL2    -0.180000       12.0110           0
     14172 MEMB     106      POPC     H6X      HAL2     0.900000E-01   1.00800           0
     14173 MEMB     106      POPC     H6Y      HAL2     0.900000E-01   1.00800           0
     14174 MEMB     106      POPC     C37      CTL2    -0.180000       12.0110           0
     14175 MEMB     106      POPC     H7X      HAL2     0.900000E-01   1.00800           0
     14176 MEMB     106      POPC     H7Y      HAL2     0.900000E-01   1.00800           0
     14177 MEMB     106      POPC     C38      CTL2    -0.180000       12.0110           0
     14178 MEMB     106      POPC     H8X      HAL2     0.900000E-01   1.00800           0
     14179 MEMB     106      POPC     H8Y      HAL2     0.900000E-01   1.00800           0
     14180 MEMB     106      POPC     C39      CTL2    -0.180000       12.0110           0
     14181 MEMB     106      POPC     H9X      HAL2     0.900000E-01   1.00800           0
     14182 MEMB     106      POPC     H9Y      HAL2     0.900000E-01   1.00800           0
     14183 MEMB     106      POPC     C310     CTL2    -0.180000       12.0110           0
     14184 MEMB     106      POPC     H10X     HAL2     0.900000E-01   1.00800           0
     14185 MEMB     106      POPC     H10Y     HAL2     0.900000E-01   1.00800           0
     14186 MEMB     106      POPC     C311     CTL2    -0.180000       12.0110           0
     14187 MEMB     106      POPC     H11X     HAL2     0.900000E-01   1.00800           0
     14188 MEMB     106      POPC     H11Y     HAL2     0.900000E-01   1.00800           0
     14189 MEMB     106      POPC     C312     CTL2    -0.180000       12.0110           0
     14190 MEMB     106      POPC     H12X     HAL2     0.900000E-01   1.00800           0
     14191 MEMB     106      POPC     H12Y     HAL2     0.900000E-01   1.00800           0
     14192 MEMB     106      POPC     C313     CTL2    -0.180000       12.0110           0
     14193 MEMB     106      POPC     H13X     HAL2     0.900000E-01   1.00800           0
     14194 MEMB     106      POPC     H13Y     HAL2     0.900000E-01   1.00800           0
     14195 MEMB     106      POPC     C314     CTL2    -0.180000       12.0110           0
     14196 MEMB     106      POPC     H14X     HAL2     0.900000E-01   1.00800           0
     14197 MEMB     106      POPC     H14Y     HAL2     0.900000E-01   1.00800           0
     14198 MEMB     106      POPC     C315     CTL2    -0.180000       12.0110           0
     14199 MEMB     106      POPC     H15X     HAL2     0.900000E-01   1.00800           0
     14200 MEMB     106      POPC     H15Y     HAL2     0.900000E-01   1.00800           0
     14201 MEMB     106      POPC     C316     CTL3    -0.270000       12.0110           0
     14202 MEMB     106      POPC     H16X     HAL3     0.900000E-01   1.00800           0
     14203 MEMB     106      POPC     H16Y     HAL3     0.900000E-01   1.00800           0
     14204 MEMB     106      POPC     H16Z     HAL3     0.900000E-01   1.00800           0
     14205 MEMB     107      POPC     N        NTL     -0.600000       14.0070           0
     14206 MEMB     107      POPC     C12      CTL2    -0.100000       12.0110           0
     14207 MEMB     107      POPC     H12A     HL       0.250000       1.00800           0
     14208 MEMB     107      POPC     H12B     HL       0.250000       1.00800           0
     14209 MEMB     107      POPC     C13      CTL5    -0.350000       12.0110           0
     14210 MEMB     107      POPC     H13A     HL       0.250000       1.00800           0
     14211 MEMB     107      POPC     H13B     HL       0.250000       1.00800           0
     14212 MEMB     107      POPC     H13C     HL       0.250000       1.00800           0
     14213 MEMB     107      POPC     C14      CTL5    -0.350000       12.0110           0
     14214 MEMB     107      POPC     H14A     HL       0.250000       1.00800           0
     14215 MEMB     107      POPC     H14B     HL       0.250000       1.00800           0
     14216 MEMB     107      POPC     H14C     HL       0.250000       1.00800           0
     14217 MEMB     107      POPC     C15      CTL5    -0.350000       12.0110           0
     14218 MEMB     107      POPC     H15A     HL       0.250000       1.00800           0
     14219 MEMB     107      POPC     H15B     HL       0.250000       1.00800           0
     14220 MEMB     107      POPC     H15C     HL       0.250000       1.00800           0
     14221 MEMB     107      POPC     C11      CTL2    -0.800000E-01   12.0110           0
     14222 MEMB     107      POPC     H11A     HAL2     0.900000E-01   1.00800           0
     14223 MEMB     107      POPC     H11B     HAL2     0.900000E-01   1.00800           0
     14224 MEMB     107      POPC     P        PL       1.50000        30.9740           0
     14225 MEMB     107      POPC     O13      O2L     -0.780000       15.9994           0
     14226 MEMB     107      POPC     O14      O2L     -0.780000       15.9994           0
     14227 MEMB     107      POPC     O12      OSLP    -0.570000       15.9994           0
     14228 MEMB     107      POPC     O11      OSLP    -0.570000       15.9994           0
     14229 MEMB     107      POPC     C1       CTL2    -0.800000E-01   12.0110           0
     14230 MEMB     107      POPC     HA       HAL2     0.900000E-01   1.00800           0
     14231 MEMB     107      POPC     HB       HAL2     0.900000E-01   1.00800           0
     14232 MEMB     107      POPC     C2       CTL1     0.170000       12.0110           0
     14233 MEMB     107      POPC     HS       HAL1     0.900000E-01   1.00800           0
     14234 MEMB     107      POPC     O21      OSL     -0.490000       15.9994           0
     14235 MEMB     107      POPC     C21      CL       0.900000       12.0110           0
     14236 MEMB     107      POPC     O22      OBL     -0.630000       15.9994           0
     14237 MEMB     107      POPC     C22      CTL2    -0.220000       12.0110           0
     14238 MEMB     107      POPC     H2R      HAL2     0.900000E-01   1.00800           0
     14239 MEMB     107      POPC     H2S      HAL2     0.900000E-01   1.00800           0
     14240 MEMB     107      POPC     C3       CTL2     0.800000E-01   12.0110           0
     14241 MEMB     107      POPC     HX       HAL2     0.900000E-01   1.00800           0
     14242 MEMB     107      POPC     HY       HAL2     0.900000E-01   1.00800           0
     14243 MEMB     107      POPC     O31      OSL     -0.490000       15.9994           0
     14244 MEMB     107      POPC     C31      CL       0.900000       12.0110           0
     14245 MEMB     107      POPC     O32      OBL     -0.630000       15.9994           0
     14246 MEMB     107      POPC     C32      CTL2    -0.220000       12.0110           0
     14247 MEMB     107      POPC     H2X      HAL2     0.900000E-01   1.00800           0
     14248 MEMB     107      POPC     H2Y      HAL2     0.900000E-01   1.00800           0
     14249 MEMB     107      POPC     C23      CTL2    -0.180000       12.0110           0
     14250 MEMB     107      POPC     H3R      HAL2     0.900000E-01   1.00800           0
     14251 MEMB     107      POPC     H3S      HAL2     0.900000E-01   1.00800           0
     14252 MEMB     107      POPC     C24      CTL2    -0.180000       12.0110           0
     14253 MEMB     107      POPC     H4R      HAL2     0.900000E-01   1.00800           0
     14254 MEMB     107      POPC     H4S      HAL2     0.900000E-01   1.00800           0
     14255 MEMB     107      POPC     C25      CTL2    -0.180000       12.0110           0
     14256 MEMB     107      POPC     H5R      HAL2     0.900000E-01   1.00800           0
     14257 MEMB     107      POPC     H5S      HAL2     0.900000E-01   1.00800           0
     14258 MEMB     107      POPC     C26      CTL2    -0.180000       12.0110           0
     14259 MEMB     107      POPC     H6R      HAL2     0.900000E-01   1.00800           0
     14260 MEMB     107      POPC     H6S      HAL2     0.900000E-01   1.00800           0
     14261 MEMB     107      POPC     C27      CTL2    -0.180000       12.0110           0
     14262 MEMB     107      POPC     H7R      HAL2     0.900000E-01   1.00800           0
     14263 MEMB     107      POPC     H7S      HAL2     0.900000E-01   1.00800           0
     14264 MEMB     107      POPC     C28      CTL2    -0.180000       12.0110           0
     14265 MEMB     107      POPC     H8R      HAL2     0.900000E-01   1.00800           0
     14266 MEMB     107      POPC     H8S      HAL2     0.900000E-01   1.00800           0
     14267 MEMB     107      POPC     C29      CEL1    -0.150000       12.0110           0
     14268 MEMB     107      POPC     H91      HEL1     0.150000       1.00800           0
     14269 MEMB     107      POPC     C210     CEL1    -0.150000       12.0110           0
     14270 MEMB     107      POPC     H101     HEL1     0.150000       1.00800           0
     14271 MEMB     107      POPC     C211     CTL2    -0.180000       12.0110           0
     14272 MEMB     107      POPC     H11R     HAL2     0.900000E-01   1.00800           0
     14273 MEMB     107      POPC     H11S     HAL2     0.900000E-01   1.00800           0
     14274 MEMB     107      POPC     C212     CTL2    -0.180000       12.0110           0
     14275 MEMB     107      POPC     H12R     HAL2     0.900000E-01   1.00800           0
     14276 MEMB     107      POPC     H12S     HAL2     0.900000E-01   1.00800           0
     14277 MEMB     107      POPC     C213     CTL2    -0.180000       12.0110           0
     14278 MEMB     107      POPC     H13R     HAL2     0.900000E-01   1.00800           0
     14279 MEMB     107      POPC     H13S     HAL2     0.900000E-01   1.00800           0
     14280 MEMB     107      POPC     C214     CTL2    -0.180000       12.0110           0
     14281 MEMB     107      POPC     H14R     HAL2     0.900000E-01   1.00800           0
     14282 MEMB     107      POPC     H14S     HAL2     0.900000E-01   1.00800           0
     14283 MEMB     107      POPC     C215     CTL2    -0.180000       12.0110           0
     14284 MEMB     107      POPC     H15R     HAL2     0.900000E-01   1.00800           0
     14285 MEMB     107      POPC     H15S     HAL2     0.900000E-01   1.00800           0
     14286 MEMB     107      POPC     C216     CTL2    -0.180000       12.0110           0
     14287 MEMB     107      POPC     H16R     HAL2     0.900000E-01   1.00800           0
     14288 MEMB     107      POPC     H16S     HAL2     0.900000E-01   1.00800           0
     14289 MEMB     107      POPC     C217     CTL2    -0.180000       12.0110           0
     14290 MEMB     107      POPC     H17R     HAL2     0.900000E-01   1.00800           0
     14291 MEMB     107      POPC     H17S     HAL2     0.900000E-01   1.00800           0
     14292 MEMB     107      POPC     C218     CTL3    -0.270000       12.0110           0
     14293 MEMB     107      POPC     H18R     HAL3     0.900000E-01   1.00800           0
     14294 MEMB     107      POPC     H18S     HAL3     0.900000E-01   1.00800           0
     14295 MEMB     107      POPC     H18T     HAL3     0.900000E-01   1.00800           0
     14296 MEMB     107      POPC     C33      CTL2    -0.180000       12.0110           0
     14297 MEMB     107      POPC     H3X      HAL2     0.900000E-01   1.00800           0
     14298 MEMB     107      POPC     H3Y      HAL2     0.900000E-01   1.00800           0
     14299 MEMB     107      POPC     C34      CTL2    -0.180000       12.0110           0
     14300 MEMB     107      POPC     H4X      HAL2     0.900000E-01   1.00800           0
     14301 MEMB     107      POPC     H4Y      HAL2     0.900000E-01   1.00800           0
     14302 MEMB     107      POPC     C35      CTL2    -0.180000       12.0110           0
     14303 MEMB     107      POPC     H5X      HAL2     0.900000E-01   1.00800           0
     14304 MEMB     107      POPC     H5Y      HAL2     0.900000E-01   1.00800           0
     14305 MEMB     107      POPC     C36      CTL2    -0.180000       12.0110           0
     14306 MEMB     107      POPC     H6X      HAL2     0.900000E-01   1.00800           0
     14307 MEMB     107      POPC     H6Y      HAL2     0.900000E-01   1.00800           0
     14308 MEMB     107      POPC     C37      CTL2    -0.180000       12.0110           0
     14309 MEMB     107      POPC     H7X      HAL2     0.900000E-01   1.00800           0
     14310 MEMB     107      POPC     H7Y      HAL2     0.900000E-01   1.00800           0
     14311 MEMB     107      POPC     C38      CTL2    -0.180000       12.0110           0
     14312 MEMB     107      POPC     H8X      HAL2     0.900000E-01   1.00800           0
     14313 MEMB     107      POPC     H8Y      HAL2     0.900000E-01   1.00800           0
     14314 MEMB     107      POPC     C39      CTL2    -0.180000       12.0110           0
     14315 MEMB     107      POPC     H9X      HAL2     0.900000E-01   1.00800           0
     14316 MEMB     107      POPC     H9Y      HAL2     0.900000E-01   1.00800           0
     14317 MEMB     107      POPC     C310     CTL2    -0.180000       12.0110           0
     14318 MEMB     107      POPC     H10X     HAL2     0.900000E-01   1.00800           0
     14319 MEMB     107      POPC     H10Y     HAL2     0.900000E-01   1.00800           0
     14320 MEMB     107      POPC     C311     CTL2    -0.180000       12.0110           0
     14321 MEMB     107      POPC     H11X     HAL2     0.900000E-01   1.00800           0
     14322 MEMB     107      POPC     H11Y     HAL2     0.900000E-01   1.00800           0
     14323 MEMB     107      POPC     C312     CTL2    -0.180000       12.0110           0
     14324 MEMB     107      POPC     H12X     HAL2     0.900000E-01   1.00800           0
     14325 MEMB     107      POPC     H12Y     HAL2     0.900000E-01   1.00800           0
     14326 MEMB     107      POPC     C313     CTL2    -0.180000       12.0110           0
     14327 MEMB     107      POPC     H13X     HAL2     0.900000E-01   1.00800           0
     14328 MEMB     107      POPC     H13Y     HAL2     0.900000E-01   1.00800           0
     14329 MEMB     107      POPC     C314     CTL2    -0.180000       12.0110           0
     14330 MEMB     107      POPC     H14X     HAL2     0.900000E-01   1.00800           0
     14331 MEMB     107      POPC     H14Y     HAL2     0.900000E-01   1.00800           0
     14332 MEMB     107      POPC     C315     CTL2    -0.180000       12.0110           0
     14333 MEMB     107      POPC     H15X     HAL2     0.900000E-01   1.00800           0
     14334 MEMB     107      POPC     H15Y     HAL2     0.900000E-01   1.00800           0
     14335 MEMB     107      POPC     C316     CTL3    -0.270000       12.0110           0
     14336 MEMB     107      POPC     H16X     HAL3     0.900000E-01   1.00800           0
     14337 MEMB     107      POPC     H16Y     HAL3     0.900000E-01   1.00800           0
     14338 MEMB     107      POPC     H16Z     HAL3     0.900000E-01   1.00800           0
     14339 MEMB     108      POPC     N        NTL     -0.600000       14.0070           0
     14340 MEMB     108      POPC     C12      CTL2    -0.100000       12.0110           0
     14341 MEMB     108      POPC     H12A     HL       0.250000       1.00800           0
     14342 MEMB     108      POPC     H12B     HL       0.250000       1.00800           0
     14343 MEMB     108      POPC     C13      CTL5    -0.350000       12.0110           0
     14344 MEMB     108      POPC     H13A     HL       0.250000       1.00800           0
     14345 MEMB     108      POPC     H13B     HL       0.250000       1.00800           0
     14346 MEMB     108      POPC     H13C     HL       0.250000       1.00800           0
     14347 MEMB     108      POPC     C14      CTL5    -0.350000       12.0110           0
     14348 MEMB     108      POPC     H14A     HL       0.250000       1.00800           0
     14349 MEMB     108      POPC     H14B     HL       0.250000       1.00800           0
     14350 MEMB     108      POPC     H14C     HL       0.250000       1.00800           0
     14351 MEMB     108      POPC     C15      CTL5    -0.350000       12.0110           0
     14352 MEMB     108      POPC     H15A     HL       0.250000       1.00800           0
     14353 MEMB     108      POPC     H15B     HL       0.250000       1.00800           0
     14354 MEMB     108      POPC     H15C     HL       0.250000       1.00800           0
     14355 MEMB     108      POPC     C11      CTL2    -0.800000E-01   12.0110           0
     14356 MEMB     108      POPC     H11A     HAL2     0.900000E-01   1.00800           0
     14357 MEMB     108      POPC     H11B     HAL2     0.900000E-01   1.00800           0
     14358 MEMB     108      POPC     P        PL       1.50000        30.9740           0
     14359 MEMB     108      POPC     O13      O2L     -0.780000       15.9994           0
     14360 MEMB     108      POPC     O14      O2L     -0.780000       15.9994           0
     14361 MEMB     108      POPC     O12      OSLP    -0.570000       15.9994           0
     14362 MEMB     108      POPC     O11      OSLP    -0.570000       15.9994           0
     14363 MEMB     108      POPC     C1       CTL2    -0.800000E-01   12.0110           0
     14364 MEMB     108      POPC     HA       HAL2     0.900000E-01   1.00800           0
     14365 MEMB     108      POPC     HB       HAL2     0.900000E-01   1.00800           0
     14366 MEMB     108      POPC     C2       CTL1     0.170000       12.0110           0
     14367 MEMB     108      POPC     HS       HAL1     0.900000E-01   1.00800           0
     14368 MEMB     108      POPC     O21      OSL     -0.490000       15.9994           0
     14369 MEMB     108      POPC     C21      CL       0.900000       12.0110           0
     14370 MEMB     108      POPC     O22      OBL     -0.630000       15.9994           0
     14371 MEMB     108      POPC     C22      CTL2    -0.220000       12.0110           0
     14372 MEMB     108      POPC     H2R      HAL2     0.900000E-01   1.00800           0
     14373 MEMB     108      POPC     H2S      HAL2     0.900000E-01   1.00800           0
     14374 MEMB     108      POPC     C3       CTL2     0.800000E-01   12.0110           0
     14375 MEMB     108      POPC     HX       HAL2     0.900000E-01   1.00800           0
     14376 MEMB     108      POPC     HY       HAL2     0.900000E-01   1.00800           0
     14377 MEMB     108      POPC     O31      OSL     -0.490000       15.9994           0
     14378 MEMB     108      POPC     C31      CL       0.900000       12.0110           0
     14379 MEMB     108      POPC     O32      OBL     -0.630000       15.9994           0
     14380 MEMB     108      POPC     C32      CTL2    -0.220000       12.0110           0
     14381 MEMB     108      POPC     H2X      HAL2     0.900000E-01   1.00800           0
     14382 MEMB     108      POPC     H2Y      HAL2     0.900000E-01   1.00800           0
     14383 MEMB     108      POPC     C23      CTL2    -0.180000       12.0110           0
     14384 MEMB     108      POPC     H3R      HAL2     0.900000E-01   1.00800           0
     14385 MEMB     108      POPC     H3S      HAL2     0.900000E-01   1.00800           0
     14386 MEMB     108      POPC     C24      CTL2    -0.180000       12.0110           0
     14387 MEMB     108      POPC     H4R      HAL2     0.900000E-01   1.00800           0
     14388 MEMB     108      POPC     H4S      HAL2     0.900000E-01   1.00800           0
     14389 MEMB     108      POPC     C25      CTL2    -0.180000       12.0110           0
     14390 MEMB     108      POPC     H5R      HAL2     0.900000E-01   1.00800           0
     14391 MEMB     108      POPC     H5S      HAL2     0.900000E-01   1.00800           0
     14392 MEMB     108      POPC     C26      CTL2    -0.180000       12.0110           0
     14393 MEMB     108      POPC     H6R      HAL2     0.900000E-01   1.00800           0
     14394 MEMB     108      POPC     H6S      HAL2     0.900000E-01   1.00800           0
     14395 MEMB     108      POPC     C27      CTL2    -0.180000       12.0110           0
     14396 MEMB     108      POPC     H7R      HAL2     0.900000E-01   1.00800           0
     14397 MEMB     108      POPC     H7S      HAL2     0.900000E-01   1.00800           0
     14398 MEMB     108      POPC     C28      CTL2    -0.180000       12.0110           0
     14399 MEMB     108      POPC     H8R      HAL2     0.900000E-01   1.00800           0
     14400 MEMB     108      POPC     H8S      HAL2     0.900000E-01   1.00800           0
     14401 MEMB     108      POPC     C29      CEL1    -0.150000       12.0110           0
     14402 MEMB     108      POPC     H91      HEL1     0.150000       1.00800           0
     14403 MEMB     108      POPC     C210     CEL1    -0.150000       12.0110           0
     14404 MEMB     108      POPC     H101     HEL1     0.150000       1.00800           0
     14405 MEMB     108      POPC     C211     CTL2    -0.180000       12.0110           0
     14406 MEMB     108      POPC     H11R     HAL2     0.900000E-01   1.00800           0
     14407 MEMB     108      POPC     H11S     HAL2     0.900000E-01   1.00800           0
     14408 MEMB     108      POPC     C212     CTL2    -0.180000       12.0110           0
     14409 MEMB     108      POPC     H12R     HAL2     0.900000E-01   1.00800           0
     14410 MEMB     108      POPC     H12S     HAL2     0.900000E-01   1.00800           0
     14411 MEMB     108      POPC     C213     CTL2    -0.180000       12.0110           0
     14412 MEMB     108      POPC     H13R     HAL2     0.900000E-01   1.00800           0
     14413 MEMB     108      POPC     H13S     HAL2     0.900000E-01   1.00800           0
     14414 MEMB     108      POPC     C214     CTL2    -0.180000       12.0110           0
     14415 MEMB     108      POPC     H14R     HAL2     0.900000E-01   1.00800           0
     14416 MEMB     108      POPC     H14S     HAL2     0.900000E-01   1.00800           0
     14417 MEMB     108      POPC     C215     CTL2    -0.180000       12.0110           0
     14418 MEMB     108      POPC     H15R     HAL2     0.900000E-01   1.00800           0
     14419 MEMB     108      POPC     H15S     HAL2     0.900000E-01   1.00800           0
     14420 MEMB     108      POPC     C216     CTL2    -0.180000       12.0110           0
     14421 MEMB     108      POPC     H16R     HAL2     0.900000E-01   1.00800           0
     14422 MEMB     108      POPC     H16S     HAL2     0.900000E-01   1.00800           0
     14423 MEMB     108      POPC     C217     CTL2    -0.180000       12.0110           0
     14424 MEMB     108      POPC     H17R     HAL2     0.900000E-01   1.00800           0
     14425 MEMB     108      POPC     H17S     HAL2     0.900000E-01   1.00800           0
     14426 MEMB     108      POPC     C218     CTL3    -0.270000       12.0110           0
     14427 MEMB     108      POPC     H18R     HAL3     0.900000E-01   1.00800           0
     14428 MEMB     108      POPC     H18S     HAL3     0.900000E-01   1.00800           0
     14429 MEMB     108      POPC     H18T     HAL3     0.900000E-01   1.00800           0
     14430 MEMB     108      POPC     C33      CTL2    -0.180000       12.0110           0
     14431 MEMB     108      POPC     H3X      HAL2     0.900000E-01   1.00800           0
     14432 MEMB     108      POPC     H3Y      HAL2     0.900000E-01   1.00800           0
     14433 MEMB     108      POPC     C34      CTL2    -0.180000       12.0110           0
     14434 MEMB     108      POPC     H4X      HAL2     0.900000E-01   1.00800           0
     14435 MEMB     108      POPC     H4Y      HAL2     0.900000E-01   1.00800           0
     14436 MEMB     108      POPC     C35      CTL2    -0.180000       12.0110           0
     14437 MEMB     108      POPC     H5X      HAL2     0.900000E-01   1.00800           0
     14438 MEMB     108      POPC     H5Y      HAL2     0.900000E-01   1.00800           0
     14439 MEMB     108      POPC     C36      CTL2    -0.180000       12.0110           0
     14440 MEMB     108      POPC     H6X      HAL2     0.900000E-01   1.00800           0
     14441 MEMB     108      POPC     H6Y      HAL2     0.900000E-01   1.00800           0
     14442 MEMB     108      POPC     C37      CTL2    -0.180000       12.0110           0
     14443 MEMB     108      POPC     H7X      HAL2     0.900000E-01   1.00800           0
     14444 MEMB     108      POPC     H7Y      HAL2     0.900000E-01   1.00800           0
     14445 MEMB     108      POPC     C38      CTL2    -0.180000       12.0110           0
     14446 MEMB     108      POPC     H8X      HAL2     0.900000E-01   1.00800           0
     14447 MEMB     108      POPC     H8Y      HAL2     0.900000E-01   1.00800           0
     14448 MEMB     108      POPC     C39      CTL2    -0.180000       12.0110           0
     14449 MEMB     108      POPC     H9X      HAL2     0.900000E-01   1.00800           0
     14450 MEMB     108      POPC     H9Y      HAL2     0.900000E-01   1.00800           0
     14451 MEMB     108      POPC     C310     CTL2    -0.180000       12.0110           0
     14452 MEMB     108      POPC     H10X     HAL2     0.900000E-01   1.00800           0
     14453 MEMB     108      POPC     H10Y     HAL2     0.900000E-01   1.00800           0
     14454 MEMB     108      POPC     C311     CTL2    -0.180000       12.0110           0
     14455 MEMB     108      POPC     H11X     HAL2     0.900000E-01   1.00800           0
     14456 MEMB     108      POPC     H11Y     HAL2     0.900000E-01   1.00800           0
     14457 MEMB     108      POPC     C312     CTL2    -0.180000       12.0110           0
     14458 MEMB     108      POPC     H12X     HAL2     0.900000E-01   1.00800           0
     14459 MEMB     108      POPC     H12Y     HAL2     0.900000E-01   1.00800           0
     14460 MEMB     108      POPC     C313     CTL2    -0.180000       12.0110           0
     14461 MEMB     108      POPC     H13X     HAL2     0.900000E-01   1.00800           0
     14462 MEMB     108      POPC     H13Y     HAL2     0.900000E-01   1.00800           0
     14463 MEMB     108      POPC     C314     CTL2    -0.180000       12.0110           0
     14464 MEMB     108      POPC     H14X     HAL2     0.900000E-01   1.00800           0
     14465 MEMB     108      POPC     H14Y     HAL2     0.900000E-01   1.00800           0
     14466 MEMB     108      POPC     C315     CTL2    -0.180000       12.0110           0
     14467 MEMB     108      POPC     H15X     HAL2     0.900000E-01   1.00800           0
     14468 MEMB     108      POPC     H15Y     HAL2     0.900000E-01   1.00800           0
     14469 MEMB     108      POPC     C316     CTL3    -0.270000       12.0110           0
     14470 MEMB     108      POPC     H16X     HAL3     0.900000E-01   1.00800           0
     14471 MEMB     108      POPC     H16Y     HAL3     0.900000E-01   1.00800           0
     14472 MEMB     108      POPC     H16Z     HAL3     0.900000E-01   1.00800           0
     14473 MEMB     109      POPC     N        NTL     -0.600000       14.0070           0
     14474 MEMB     109      POPC     C12      CTL2    -0.100000       12.0110           0
     14475 MEMB     109      POPC     H12A     HL       0.250000       1.00800           0
     14476 MEMB     109      POPC     H12B     HL       0.250000       1.00800           0
     14477 MEMB     109      POPC     C13      CTL5    -0.350000       12.0110           0
     14478 MEMB     109      POPC     H13A     HL       0.250000       1.00800           0
     14479 MEMB     109      POPC     H13B     HL       0.250000       1.00800           0
     14480 MEMB     109      POPC     H13C     HL       0.250000       1.00800           0
     14481 MEMB     109      POPC     C14      CTL5    -0.350000       12.0110           0
     14482 MEMB     109      POPC     H14A     HL       0.250000       1.00800           0
     14483 MEMB     109      POPC     H14B     HL       0.250000       1.00800           0
     14484 MEMB     109      POPC     H14C     HL       0.250000       1.00800           0
     14485 MEMB     109      POPC     C15      CTL5    -0.350000       12.0110           0
     14486 MEMB     109      POPC     H15A     HL       0.250000       1.00800           0
     14487 MEMB     109      POPC     H15B     HL       0.250000       1.00800           0
     14488 MEMB     109      POPC     H15C     HL       0.250000       1.00800           0
     14489 MEMB     109      POPC     C11      CTL2    -0.800000E-01   12.0110           0
     14490 MEMB     109      POPC     H11A     HAL2     0.900000E-01   1.00800           0
     14491 MEMB     109      POPC     H11B     HAL2     0.900000E-01   1.00800           0
     14492 MEMB     109      POPC     P        PL       1.50000        30.9740           0
     14493 MEMB     109      POPC     O13      O2L     -0.780000       15.9994           0
     14494 MEMB     109      POPC     O14      O2L     -0.780000       15.9994           0
     14495 MEMB     109      POPC     O12      OSLP    -0.570000       15.9994           0
     14496 MEMB     109      POPC     O11      OSLP    -0.570000       15.9994           0
     14497 MEMB     109      POPC     C1       CTL2    -0.800000E-01   12.0110           0
     14498 MEMB     109      POPC     HA       HAL2     0.900000E-01   1.00800           0
     14499 MEMB     109      POPC     HB       HAL2     0.900000E-01   1.00800           0
     14500 MEMB     109      POPC     C2       CTL1     0.170000       12.0110           0
     14501 MEMB     109      POPC     HS       HAL1     0.900000E-01   1.00800           0
     14502 MEMB     109      POPC     O21      OSL     -0.490000       15.9994           0
     14503 MEMB     109      POPC     C21      CL       0.900000       12.0110           0
     14504 MEMB     109      POPC     O22      OBL     -0.630000       15.9994           0
     14505 MEMB     109      POPC     C22      CTL2    -0.220000       12.0110           0
     14506 MEMB     109      POPC     H2R      HAL2     0.900000E-01   1.00800           0
     14507 MEMB     109      POPC     H2S      HAL2     0.900000E-01   1.00800           0
     14508 MEMB     109      POPC     C3       CTL2     0.800000E-01   12.0110           0
     14509 MEMB     109      POPC     HX       HAL2     0.900000E-01   1.00800           0
     14510 MEMB     109      POPC     HY       HAL2     0.900000E-01   1.00800           0
     14511 MEMB     109      POPC     O31      OSL     -0.490000       15.9994           0
     14512 MEMB     109      POPC     C31      CL       0.900000       12.0110           0
     14513 MEMB     109      POPC     O32      OBL     -0.630000       15.9994           0
     14514 MEMB     109      POPC     C32      CTL2    -0.220000       12.0110           0
     14515 MEMB     109      POPC     H2X      HAL2     0.900000E-01   1.00800           0
     14516 MEMB     109      POPC     H2Y      HAL2     0.900000E-01   1.00800           0
     14517 MEMB     109      POPC     C23      CTL2    -0.180000       12.0110           0
     14518 MEMB     109      POPC     H3R      HAL2     0.900000E-01   1.00800           0
     14519 MEMB     109      POPC     H3S      HAL2     0.900000E-01   1.00800           0
     14520 MEMB     109      POPC     C24      CTL2    -0.180000       12.0110           0
     14521 MEMB     109      POPC     H4R      HAL2     0.900000E-01   1.00800           0
     14522 MEMB     109      POPC     H4S      HAL2     0.900000E-01   1.00800           0
     14523 MEMB     109      POPC     C25      CTL2    -0.180000       12.0110           0
     14524 MEMB     109      POPC     H5R      HAL2     0.900000E-01   1.00800           0
     14525 MEMB     109      POPC     H5S      HAL2     0.900000E-01   1.00800           0
     14526 MEMB     109      POPC     C26      CTL2    -0.180000       12.0110           0
     14527 MEMB     109      POPC     H6R      HAL2     0.900000E-01   1.00800           0
     14528 MEMB     109      POPC     H6S      HAL2     0.900000E-01   1.00800           0
     14529 MEMB     109      POPC     C27      CTL2    -0.180000       12.0110           0
     14530 MEMB     109      POPC     H7R      HAL2     0.900000E-01   1.00800           0
     14531 MEMB     109      POPC     H7S      HAL2     0.900000E-01   1.00800           0
     14532 MEMB     109      POPC     C28      CTL2    -0.180000       12.0110           0
     14533 MEMB     109      POPC     H8R      HAL2     0.900000E-01   1.00800           0
     14534 MEMB     109      POPC     H8S      HAL2     0.900000E-01   1.00800           0
     14535 MEMB     109      POPC     C29      CEL1    -0.150000       12.0110           0
     14536 MEMB     109      POPC     H91      HEL1     0.150000       1.00800           0
     14537 MEMB     109      POPC     C210     CEL1    -0.150000       12.0110           0
     14538 MEMB     109      POPC     H101     HEL1     0.150000       1.00800           0
     14539 MEMB     109      POPC     C211     CTL2    -0.180000       12.0110           0
     14540 MEMB     109      POPC     H11R     HAL2     0.900000E-01   1.00800           0
     14541 MEMB     109      POPC     H11S     HAL2     0.900000E-01   1.00800           0
     14542 MEMB     109      POPC     C212     CTL2    -0.180000       12.0110           0
     14543 MEMB     109      POPC     H12R     HAL2     0.900000E-01   1.00800           0
     14544 MEMB     109      POPC     H12S     HAL2     0.900000E-01   1.00800           0
     14545 MEMB     109      POPC     C213     CTL2    -0.180000       12.0110           0
     14546 MEMB     109      POPC     H13R     HAL2     0.900000E-01   1.00800           0
     14547 MEMB     109      POPC     H13S     HAL2     0.900000E-01   1.00800           0
     14548 MEMB     109      POPC     C214     CTL2    -0.180000       12.0110           0
     14549 MEMB     109      POPC     H14R     HAL2     0.900000E-01   1.00800           0
     14550 MEMB     109      POPC     H14S     HAL2     0.900000E-01   1.00800           0
     14551 MEMB     109      POPC     C215     CTL2    -0.180000       12.0110           0
     14552 MEMB     109      POPC     H15R     HAL2     0.900000E-01   1.00800           0
     14553 MEMB     109      POPC     H15S     HAL2     0.900000E-01   1.00800           0
     14554 MEMB     109      POPC     C216     CTL2    -0.180000       12.0110           0
     14555 MEMB     109      POPC     H16R     HAL2     0.900000E-01   1.00800           0
     14556 MEMB     109      POPC     H16S     HAL2     0.900000E-01   1.00800           0
     14557 MEMB     109      POPC     C217     CTL2    -0.180000       12.0110           0
     14558 MEMB     109      POPC     H17R     HAL2     0.900000E-01   1.00800           0
     14559 MEMB     109      POPC     H17S     HAL2     0.900000E-01   1.00800           0
     14560 MEMB     109      POPC     C218     CTL3    -0.270000       12.0110           0
     14561 MEMB     109      POPC     H18R     HAL3     0.900000E-01   1.00800           0
     14562 MEMB     109      POPC     H18S     HAL3     0.900000E-01   1.00800           0
     14563 MEMB     109      POPC     H18T     HAL3     0.900000E-01   1.00800           0
     14564 MEMB     109      POPC     C33      CTL2    -0.180000       12.0110           0
     14565 MEMB     109      POPC     H3X      HAL2     0.900000E-01   1.00800           0
     14566 MEMB     109      POPC     H3Y      HAL2     0.900000E-01   1.00800           0
     14567 MEMB     109      POPC     C34      CTL2    -0.180000       12.0110           0
     14568 MEMB     109      POPC     H4X      HAL2     0.900000E-01   1.00800           0
     14569 MEMB     109      POPC     H4Y      HAL2     0.900000E-01   1.00800           0
     14570 MEMB     109      POPC     C35      CTL2    -0.180000       12.0110           0
     14571 MEMB     109      POPC     H5X      HAL2     0.900000E-01   1.00800           0
     14572 MEMB     109      POPC     H5Y      HAL2     0.900000E-01   1.00800           0
     14573 MEMB     109      POPC     C36      CTL2    -0.180000       12.0110           0
     14574 MEMB     109      POPC     H6X      HAL2     0.900000E-01   1.00800           0
     14575 MEMB     109      POPC     H6Y      HAL2     0.900000E-01   1.00800           0
     14576 MEMB     109      POPC     C37      CTL2    -0.180000       12.0110           0
     14577 MEMB     109      POPC     H7X      HAL2     0.900000E-01   1.00800           0
     14578 MEMB     109      POPC     H7Y      HAL2     0.900000E-01   1.00800           0
     14579 MEMB     109      POPC     C38      CTL2    -0.180000       12.0110           0
     14580 MEMB     109      POPC     H8X      HAL2     0.900000E-01   1.00800           0
     14581 MEMB     109      POPC     H8Y      HAL2     0.900000E-01   1.00800           0
     14582 MEMB     109      POPC     C39      CTL2    -0.180000       12.0110           0
     14583 MEMB     109      POPC     H9X      HAL2     0.900000E-01   1.00800           0
     14584 MEMB     109      POPC     H9Y      HAL2     0.900000E-01   1.00800           0
     14585 MEMB     109      POPC     C310     CTL2    -0.180000       12.0110           0
     14586 MEMB     109      POPC     H10X     HAL2     0.900000E-01   1.00800           0
     14587 MEMB     109      POPC     H10Y     HAL2     0.900000E-01   1.00800           0
     14588 MEMB     109      POPC     C311     CTL2    -0.180000       12.0110           0
     14589 MEMB     109      POPC     H11X     HAL2     0.900000E-01   1.00800           0
     14590 MEMB     109      POPC     H11Y     HAL2     0.900000E-01   1.00800           0
     14591 MEMB     109      POPC     C312     CTL2    -0.180000       12.0110           0
     14592 MEMB     109      POPC     H12X     HAL2     0.900000E-01   1.00800           0
     14593 MEMB     109      POPC     H12Y     HAL2     0.900000E-01   1.00800           0
     14594 MEMB     109      POPC     C313     CTL2    -0.180000       12.0110           0
     14595 MEMB     109      POPC     H13X     HAL2     0.900000E-01   1.00800           0
     14596 MEMB     109      POPC     H13Y     HAL2     0.900000E-01   1.00800           0
     14597 MEMB     109      POPC     C314     CTL2    -0.180000       12.0110           0
     14598 MEMB     109      POPC     H14X     HAL2     0.900000E-01   1.00800           0
     14599 MEMB     109      POPC     H14Y     HAL2     0.900000E-01   1.00800           0
     14600 MEMB     109      POPC     C315     CTL2    -0.180000       12.0110           0
     14601 MEMB     109      POPC     H15X     HAL2     0.900000E-01   1.00800           0
     14602 MEMB     109      POPC     H15Y     HAL2     0.900000E-01   1.00800           0
     14603 MEMB     109      POPC     C316     CTL3    -0.270000       12.0110           0
     14604 MEMB     109      POPC     H16X     HAL3     0.900000E-01   1.00800           0
     14605 MEMB     109      POPC     H16Y     HAL3     0.900000E-01   1.00800           0
     14606 MEMB     109      POPC     H16Z     HAL3     0.900000E-01   1.00800           0
     14607 MEMB     110      POPC     N        NTL     -0.600000       14.0070           0
     14608 MEMB     110      POPC     C12      CTL2    -0.100000       12.0110           0
     14609 MEMB     110      POPC     H12A     HL       0.250000       1.00800           0
     14610 MEMB     110      POPC     H12B     HL       0.250000       1.00800           0
     14611 MEMB     110      POPC     C13      CTL5    -0.350000       12.0110           0
     14612 MEMB     110      POPC     H13A     HL       0.250000       1.00800           0
     14613 MEMB     110      POPC     H13B     HL       0.250000       1.00800           0
     14614 MEMB     110      POPC     H13C     HL       0.250000       1.00800           0
     14615 MEMB     110      POPC     C14      CTL5    -0.350000       12.0110           0
     14616 MEMB     110      POPC     H14A     HL       0.250000       1.00800           0
     14617 MEMB     110      POPC     H14B     HL       0.250000       1.00800           0
     14618 MEMB     110      POPC     H14C     HL       0.250000       1.00800           0
     14619 MEMB     110      POPC     C15      CTL5    -0.350000       12.0110           0
     14620 MEMB     110      POPC     H15A     HL       0.250000       1.00800           0
     14621 MEMB     110      POPC     H15B     HL       0.250000       1.00800           0
     14622 MEMB     110      POPC     H15C     HL       0.250000       1.00800           0
     14623 MEMB     110      POPC     C11      CTL2    -0.800000E-01   12.0110           0
     14624 MEMB     110      POPC     H11A     HAL2     0.900000E-01   1.00800           0
     14625 MEMB     110      POPC     H11B     HAL2     0.900000E-01   1.00800           0
     14626 MEMB     110      POPC     P        PL       1.50000        30.9740           0
     14627 MEMB     110      POPC     O13      O2L     -0.780000       15.9994           0
     14628 MEMB     110      POPC     O14      O2L     -0.780000       15.9994           0
     14629 MEMB     110      POPC     O12      OSLP    -0.570000       15.9994           0
     14630 MEMB     110      POPC     O11      OSLP    -0.570000       15.9994           0
     14631 MEMB     110      POPC     C1       CTL2    -0.800000E-01   12.0110           0
     14632 MEMB     110      POPC     HA       HAL2     0.900000E-01   1.00800           0
     14633 MEMB     110      POPC     HB       HAL2     0.900000E-01   1.00800           0
     14634 MEMB     110      POPC     C2       CTL1     0.170000       12.0110           0
     14635 MEMB     110      POPC     HS       HAL1     0.900000E-01   1.00800           0
     14636 MEMB     110      POPC     O21      OSL     -0.490000       15.9994           0
     14637 MEMB     110      POPC     C21      CL       0.900000       12.0110           0
     14638 MEMB     110      POPC     O22      OBL     -0.630000       15.9994           0
     14639 MEMB     110      POPC     C22      CTL2    -0.220000       12.0110           0
     14640 MEMB     110      POPC     H2R      HAL2     0.900000E-01   1.00800           0
     14641 MEMB     110      POPC     H2S      HAL2     0.900000E-01   1.00800           0
     14642 MEMB     110      POPC     C3       CTL2     0.800000E-01   12.0110           0
     14643 MEMB     110      POPC     HX       HAL2     0.900000E-01   1.00800           0
     14644 MEMB     110      POPC     HY       HAL2     0.900000E-01   1.00800           0
     14645 MEMB     110      POPC     O31      OSL     -0.490000       15.9994           0
     14646 MEMB     110      POPC     C31      CL       0.900000       12.0110           0
     14647 MEMB     110      POPC     O32      OBL     -0.630000       15.9994           0
     14648 MEMB     110      POPC     C32      CTL2    -0.220000       12.0110           0
     14649 MEMB     110      POPC     H2X      HAL2     0.900000E-01   1.00800           0
     14650 MEMB     110      POPC     H2Y      HAL2     0.900000E-01   1.00800           0
     14651 MEMB     110      POPC     C23      CTL2    -0.180000       12.0110           0
     14652 MEMB     110      POPC     H3R      HAL2     0.900000E-01   1.00800           0
     14653 MEMB     110      POPC     H3S      HAL2     0.900000E-01   1.00800           0
     14654 MEMB     110      POPC     C24      CTL2    -0.180000       12.0110           0
     14655 MEMB     110      POPC     H4R      HAL2     0.900000E-01   1.00800           0
     14656 MEMB     110      POPC     H4S      HAL2     0.900000E-01   1.00800           0
     14657 MEMB     110      POPC     C25      CTL2    -0.180000       12.0110           0
     14658 MEMB     110      POPC     H5R      HAL2     0.900000E-01   1.00800           0
     14659 MEMB     110      POPC     H5S      HAL2     0.900000E-01   1.00800           0
     14660 MEMB     110      POPC     C26      CTL2    -0.180000       12.0110           0
     14661 MEMB     110      POPC     H6R      HAL2     0.900000E-01   1.00800           0
     14662 MEMB     110      POPC     H6S      HAL2     0.900000E-01   1.00800           0
     14663 MEMB     110      POPC     C27      CTL2    -0.180000       12.0110           0
     14664 MEMB     110      POPC     H7R      HAL2     0.900000E-01   1.00800           0
     14665 MEMB     110      POPC     H7S      HAL2     0.900000E-01   1.00800           0
     14666 MEMB     110      POPC     C28      CTL2    -0.180000       12.0110           0
     14667 MEMB     110      POPC     H8R      HAL2     0.900000E-01   1.00800           0
     14668 MEMB     110      POPC     H8S      HAL2     0.900000E-01   1.00800           0
     14669 MEMB     110      POPC     C29      CEL1    -0.150000       12.0110           0
     14670 MEMB     110      POPC     H91      HEL1     0.150000       1.00800           0
     14671 MEMB     110      POPC     C210     CEL1    -0.150000       12.0110           0
     14672 MEMB     110      POPC     H101     HEL1     0.150000       1.00800           0
     14673 MEMB     110      POPC     C211     CTL2    -0.180000       12.0110           0
     14674 MEMB     110      POPC     H11R     HAL2     0.900000E-01   1.00800           0
     14675 MEMB     110      POPC     H11S     HAL2     0.900000E-01   1.00800           0
     14676 MEMB     110      POPC     C212     CTL2    -0.180000       12.0110           0
     14677 MEMB     110      POPC     H12R     HAL2     0.900000E-01   1.00800           0
     14678 MEMB     110      POPC     H12S     HAL2     0.900000E-01   1.00800           0
     14679 MEMB     110      POPC     C213     CTL2    -0.180000       12.0110           0
     14680 MEMB     110      POPC     H13R     HAL2     0.900000E-01   1.00800           0
     14681 MEMB     110      POPC     H13S     HAL2     0.900000E-01   1.00800           0
     14682 MEMB     110      POPC     C214     CTL2    -0.180000       12.0110           0
     14683 MEMB     110      POPC     H14R     HAL2     0.900000E-01   1.00800           0
     14684 MEMB     110      POPC     H14S     HAL2     0.900000E-01   1.00800           0
     14685 MEMB     110      POPC     C215     CTL2    -0.180000       12.0110           0
     14686 MEMB     110      POPC     H15R     HAL2     0.900000E-01   1.00800           0
     14687 MEMB     110      POPC     H15S     HAL2     0.900000E-01   1.00800           0
     14688 MEMB     110      POPC     C216     CTL2    -0.180000       12.0110           0
     14689 MEMB     110      POPC     H16R     HAL2     0.900000E-01   1.00800           0
     14690 MEMB     110      POPC     H16S     HAL2     0.900000E-01   1.00800           0
     14691 MEMB     110      POPC     C217     CTL2    -0.180000       12.0110           0
     14692 MEMB     110      POPC     H17R     HAL2     0.900000E-01   1.00800           0
     14693 MEMB     110      POPC     H17S     HAL2     0.900000E-01   1.00800           0
     14694 MEMB     110      POPC     C218     CTL3    -0.270000       12.0110           0
     14695 MEMB     110      POPC     H18R     HAL3     0.900000E-01   1.00800           0
     14696 MEMB     110      POPC     H18S     HAL3     0.900000E-01   1.00800           0
     14697 MEMB     110      POPC     H18T     HAL3     0.900000E-01   1.00800           0
     14698 MEMB     110      POPC     C33      CTL2    -0.180000       12.0110           0
     14699 MEMB     110      POPC     H3X      HAL2     0.900000E-01   1.00800           0
     14700 MEMB     110      POPC     H3Y      HAL2     0.900000E-01   1.00800           0
     14701 MEMB     110      POPC     C34      CTL2    -0.180000       12.0110           0
     14702 MEMB     110      POPC     H4X      HAL2     0.900000E-01   1.00800           0
     14703 MEMB     110      POPC     H4Y      HAL2     0.900000E-01   1.00800           0
     14704 MEMB     110      POPC     C35      CTL2    -0.180000       12.0110           0
     14705 MEMB     110      POPC     H5X      HAL2     0.900000E-01   1.00800           0
     14706 MEMB     110      POPC     H5Y      HAL2     0.900000E-01   1.00800           0
     14707 MEMB     110      POPC     C36      CTL2    -0.180000       12.0110           0
     14708 MEMB     110      POPC     H6X      HAL2     0.900000E-01   1.00800           0
     14709 MEMB     110      POPC     H6Y      HAL2     0.900000E-01   1.00800           0
     14710 MEMB     110      POPC     C37      CTL2    -0.180000       12.0110           0
     14711 MEMB     110      POPC     H7X      HAL2     0.900000E-01   1.00800           0
     14712 MEMB     110      POPC     H7Y      HAL2     0.900000E-01   1.00800           0
     14713 MEMB     110      POPC     C38      CTL2    -0.180000       12.0110           0
     14714 MEMB     110      POPC     H8X      HAL2     0.900000E-01   1.00800           0
     14715 MEMB     110      POPC     H8Y      HAL2     0.900000E-01   1.00800           0
     14716 MEMB     110      POPC     C39      CTL2    -0.180000       12.0110           0
     14717 MEMB     110      POPC     H9X      HAL2     0.900000E-01   1.00800           0
     14718 MEMB     110      POPC     H9Y      HAL2     0.900000E-01   1.00800           0
     14719 MEMB     110      POPC     C310     CTL2    -0.180000       12.0110           0
     14720 MEMB     110      POPC     H10X     HAL2     0.900000E-01   1.00800           0
     14721 MEMB     110      POPC     H10Y     HAL2     0.900000E-01   1.00800           0
     14722 MEMB     110      POPC     C311     CTL2    -0.180000       12.0110           0
     14723 MEMB     110      POPC     H11X     HAL2     0.900000E-01   1.00800           0
     14724 MEMB     110      POPC     H11Y     HAL2     0.900000E-01   1.00800           0
     14725 MEMB     110      POPC     C312     CTL2    -0.180000       12.0110           0
     14726 MEMB     110      POPC     H12X     HAL2     0.900000E-01   1.00800           0
     14727 MEMB     110      POPC     H12Y     HAL2     0.900000E-01   1.00800           0
     14728 MEMB     110      POPC     C313     CTL2    -0.180000       12.0110           0
     14729 MEMB     110      POPC     H13X     HAL2     0.900000E-01   1.00800           0
     14730 MEMB     110      POPC     H13Y     HAL2     0.900000E-01   1.00800           0
     14731 MEMB     110      POPC     C314     CTL2    -0.180000       12.0110           0
     14732 MEMB     110      POPC     H14X     HAL2     0.900000E-01   1.00800           0
     14733 MEMB     110      POPC     H14Y     HAL2     0.900000E-01   1.00800           0
     14734 MEMB     110      POPC     C315     CTL2    -0.180000       12.0110           0
     14735 MEMB     110      POPC     H15X     HAL2     0.900000E-01   1.00800           0
     14736 MEMB     110      POPC     H15Y     HAL2     0.900000E-01   1.00800           0
     14737 MEMB     110      POPC     C316     CTL3    -0.270000       12.0110           0
     14738 MEMB     110      POPC     H16X     HAL3     0.900000E-01   1.00800           0
     14739 MEMB     110      POPC     H16Y     HAL3     0.900000E-01   1.00800           0
     14740 MEMB     110      POPC     H16Z     HAL3     0.900000E-01   1.00800           0
     14741 MEMB     111      POPC     N        NTL     -0.600000       14.0070           0
     14742 MEMB     111      POPC     C12      CTL2    -0.100000       12.0110           0
     14743 MEMB     111      POPC     H12A     HL       0.250000       1.00800           0
     14744 MEMB     111      POPC     H12B     HL       0.250000       1.00800           0
     14745 MEMB     111      POPC     C13      CTL5    -0.350000       12.0110           0
     14746 MEMB     111      POPC     H13A     HL       0.250000       1.00800           0
     14747 MEMB     111      POPC     H13B     HL       0.250000       1.00800           0
     14748 MEMB     111      POPC     H13C     HL       0.250000       1.00800           0
     14749 MEMB     111      POPC     C14      CTL5    -0.350000       12.0110           0
     14750 MEMB     111      POPC     H14A     HL       0.250000       1.00800           0
     14751 MEMB     111      POPC     H14B     HL       0.250000       1.00800           0
     14752 MEMB     111      POPC     H14C     HL       0.250000       1.00800           0
     14753 MEMB     111      POPC     C15      CTL5    -0.350000       12.0110           0
     14754 MEMB     111      POPC     H15A     HL       0.250000       1.00800           0
     14755 MEMB     111      POPC     H15B     HL       0.250000       1.00800           0
     14756 MEMB     111      POPC     H15C     HL       0.250000       1.00800           0
     14757 MEMB     111      POPC     C11      CTL2    -0.800000E-01   12.0110           0
     14758 MEMB     111      POPC     H11A     HAL2     0.900000E-01   1.00800           0
     14759 MEMB     111      POPC     H11B     HAL2     0.900000E-01   1.00800           0
     14760 MEMB     111      POPC     P        PL       1.50000        30.9740           0
     14761 MEMB     111      POPC     O13      O2L     -0.780000       15.9994           0
     14762 MEMB     111      POPC     O14      O2L     -0.780000       15.9994           0
     14763 MEMB     111      POPC     O12      OSLP    -0.570000       15.9994           0
     14764 MEMB     111      POPC     O11      OSLP    -0.570000       15.9994           0
     14765 MEMB     111      POPC     C1       CTL2    -0.800000E-01   12.0110           0
     14766 MEMB     111      POPC     HA       HAL2     0.900000E-01   1.00800           0
     14767 MEMB     111      POPC     HB       HAL2     0.900000E-01   1.00800           0
     14768 MEMB     111      POPC     C2       CTL1     0.170000       12.0110           0
     14769 MEMB     111      POPC     HS       HAL1     0.900000E-01   1.00800           0
     14770 MEMB     111      POPC     O21      OSL     -0.490000       15.9994           0
     14771 MEMB     111      POPC     C21      CL       0.900000       12.0110           0
     14772 MEMB     111      POPC     O22      OBL     -0.630000       15.9994           0
     14773 MEMB     111      POPC     C22      CTL2    -0.220000       12.0110           0
     14774 MEMB     111      POPC     H2R      HAL2     0.900000E-01   1.00800           0
     14775 MEMB     111      POPC     H2S      HAL2     0.900000E-01   1.00800           0
     14776 MEMB     111      POPC     C3       CTL2     0.800000E-01   12.0110           0
     14777 MEMB     111      POPC     HX       HAL2     0.900000E-01   1.00800           0
     14778 MEMB     111      POPC     HY       HAL2     0.900000E-01   1.00800           0
     14779 MEMB     111      POPC     O31      OSL     -0.490000       15.9994           0
     14780 MEMB     111      POPC     C31      CL       0.900000       12.0110           0
     14781 MEMB     111      POPC     O32      OBL     -0.630000       15.9994           0
     14782 MEMB     111      POPC     C32      CTL2    -0.220000       12.0110           0
     14783 MEMB     111      POPC     H2X      HAL2     0.900000E-01   1.00800           0
     14784 MEMB     111      POPC     H2Y      HAL2     0.900000E-01   1.00800           0
     14785 MEMB     111      POPC     C23      CTL2    -0.180000       12.0110           0
     14786 MEMB     111      POPC     H3R      HAL2     0.900000E-01   1.00800           0
     14787 MEMB     111      POPC     H3S      HAL2     0.900000E-01   1.00800           0
     14788 MEMB     111      POPC     C24      CTL2    -0.180000       12.0110           0
     14789 MEMB     111      POPC     H4R      HAL2     0.900000E-01   1.00800           0
     14790 MEMB     111      POPC     H4S      HAL2     0.900000E-01   1.00800           0
     14791 MEMB     111      POPC     C25      CTL2    -0.180000       12.0110           0
     14792 MEMB     111      POPC     H5R      HAL2     0.900000E-01   1.00800           0
     14793 MEMB     111      POPC     H5S      HAL2     0.900000E-01   1.00800           0
     14794 MEMB     111      POPC     C26      CTL2    -0.180000       12.0110           0
     14795 MEMB     111      POPC     H6R      HAL2     0.900000E-01   1.00800           0
     14796 MEMB     111      POPC     H6S      HAL2     0.900000E-01   1.00800           0
     14797 MEMB     111      POPC     C27      CTL2    -0.180000       12.0110           0
     14798 MEMB     111      POPC     H7R      HAL2     0.900000E-01   1.00800           0
     14799 MEMB     111      POPC     H7S      HAL2     0.900000E-01   1.00800           0
     14800 MEMB     111      POPC     C28      CTL2    -0.180000       12.0110           0
     14801 MEMB     111      POPC     H8R      HAL2     0.900000E-01   1.00800           0
     14802 MEMB     111      POPC     H8S      HAL2     0.900000E-01   1.00800           0
     14803 MEMB     111      POPC     C29      CEL1    -0.150000       12.0110           0
     14804 MEMB     111      POPC     H91      HEL1     0.150000       1.00800           0
     14805 MEMB     111      POPC     C210     CEL1    -0.150000       12.0110           0
     14806 MEMB     111      POPC     H101     HEL1     0.150000       1.00800           0
     14807 MEMB     111      POPC     C211     CTL2    -0.180000       12.0110           0
     14808 MEMB     111      POPC     H11R     HAL2     0.900000E-01   1.00800           0
     14809 MEMB     111      POPC     H11S     HAL2     0.900000E-01   1.00800           0
     14810 MEMB     111      POPC     C212     CTL2    -0.180000       12.0110           0
     14811 MEMB     111      POPC     H12R     HAL2     0.900000E-01   1.00800           0
     14812 MEMB     111      POPC     H12S     HAL2     0.900000E-01   1.00800           0
     14813 MEMB     111      POPC     C213     CTL2    -0.180000       12.0110           0
     14814 MEMB     111      POPC     H13R     HAL2     0.900000E-01   1.00800           0
     14815 MEMB     111      POPC     H13S     HAL2     0.900000E-01   1.00800           0
     14816 MEMB     111      POPC     C214     CTL2    -0.180000       12.0110           0
     14817 MEMB     111      POPC     H14R     HAL2     0.900000E-01   1.00800           0
     14818 MEMB     111      POPC     H14S     HAL2     0.900000E-01   1.00800           0
     14819 MEMB     111      POPC     C215     CTL2    -0.180000       12.0110           0
     14820 MEMB     111      POPC     H15R     HAL2     0.900000E-01   1.00800           0
     14821 MEMB     111      POPC     H15S     HAL2     0.900000E-01   1.00800           0
     14822 MEMB     111      POPC     C216     CTL2    -0.180000       12.0110           0
     14823 MEMB     111      POPC     H16R     HAL2     0.900000E-01   1.00800           0
     14824 MEMB     111      POPC     H16S     HAL2     0.900000E-01   1.00800           0
     14825 MEMB     111      POPC     C217     CTL2    -0.180000       12.0110           0
     14826 MEMB     111      POPC     H17R     HAL2     0.900000E-01   1.00800           0
     14827 MEMB     111      POPC     H17S     HAL2     0.900000E-01   1.00800           0
     14828 MEMB     111      POPC     C218     CTL3    -0.270000       12.0110           0
     14829 MEMB     111      POPC     H18R     HAL3     0.900000E-01   1.00800           0
     14830 MEMB     111      POPC     H18S     HAL3     0.900000E-01   1.00800           0
     14831 MEMB     111      POPC     H18T     HAL3     0.900000E-01   1.00800           0
     14832 MEMB     111      POPC     C33      CTL2    -0.180000       12.0110           0
     14833 MEMB     111      POPC     H3X      HAL2     0.900000E-01   1.00800           0
     14834 MEMB     111      POPC     H3Y      HAL2     0.900000E-01   1.00800           0
     14835 MEMB     111      POPC     C34      CTL2    -0.180000       12.0110           0
     14836 MEMB     111      POPC     H4X      HAL2     0.900000E-01   1.00800           0
     14837 MEMB     111      POPC     H4Y      HAL2     0.900000E-01   1.00800           0
     14838 MEMB     111      POPC     C35      CTL2    -0.180000       12.0110           0
     14839 MEMB     111      POPC     H5X      HAL2     0.900000E-01   1.00800           0
     14840 MEMB     111      POPC     H5Y      HAL2     0.900000E-01   1.00800           0
     14841 MEMB     111      POPC     C36      CTL2    -0.180000       12.0110           0
     14842 MEMB     111      POPC     H6X      HAL2     0.900000E-01   1.00800           0
     14843 MEMB     111      POPC     H6Y      HAL2     0.900000E-01   1.00800           0
     14844 MEMB     111      POPC     C37      CTL2    -0.180000       12.0110           0
     14845 MEMB     111      POPC     H7X      HAL2     0.900000E-01   1.00800           0
     14846 MEMB     111      POPC     H7Y      HAL2     0.900000E-01   1.00800           0
     14847 MEMB     111      POPC     C38      CTL2    -0.180000       12.0110           0
     14848 MEMB     111      POPC     H8X      HAL2     0.900000E-01   1.00800           0
     14849 MEMB     111      POPC     H8Y      HAL2     0.900000E-01   1.00800           0
     14850 MEMB     111      POPC     C39      CTL2    -0.180000       12.0110           0
     14851 MEMB     111      POPC     H9X      HAL2     0.900000E-01   1.00800           0
     14852 MEMB     111      POPC     H9Y      HAL2     0.900000E-01   1.00800           0
     14853 MEMB     111      POPC     C310     CTL2    -0.180000       12.0110           0
     14854 MEMB     111      POPC     H10X     HAL2     0.900000E-01   1.00800           0
     14855 MEMB     111      POPC     H10Y     HAL2     0.900000E-01   1.00800           0
     14856 MEMB     111      POPC     C311     CTL2    -0.180000       12.0110           0
     14857 MEMB     111      POPC     H11X     HAL2     0.900000E-01   1.00800           0
     14858 MEMB     111      POPC     H11Y     HAL2     0.900000E-01   1.00800           0
     14859 MEMB     111      POPC     C312     CTL2    -0.180000       12.0110           0
     14860 MEMB     111      POPC     H12X     HAL2     0.900000E-01   1.00800           0
     14861 MEMB     111      POPC     H12Y     HAL2     0.900000E-01   1.00800           0
     14862 MEMB     111      POPC     C313     CTL2    -0.180000       12.0110           0
     14863 MEMB     111      POPC     H13X     HAL2     0.900000E-01   1.00800           0
     14864 MEMB     111      POPC     H13Y     HAL2     0.900000E-01   1.00800           0
     14865 MEMB     111      POPC     C314     CTL2    -0.180000       12.0110           0
     14866 MEMB     111      POPC     H14X     HAL2     0.900000E-01   1.00800           0
     14867 MEMB     111      POPC     H14Y     HAL2     0.900000E-01   1.00800           0
     14868 MEMB     111      POPC     C315     CTL2    -0.180000       12.0110           0
     14869 MEMB     111      POPC     H15X     HAL2     0.900000E-01   1.00800           0
     14870 MEMB     111      POPC     H15Y     HAL2     0.900000E-01   1.00800           0
     14871 MEMB     111      POPC     C316     CTL3    -0.270000       12.0110           0
     14872 MEMB     111      POPC     H16X     HAL3     0.900000E-01   1.00800           0
     14873 MEMB     111      POPC     H16Y     HAL3     0.900000E-01   1.00800           0
     14874 MEMB     111      POPC     H16Z     HAL3     0.900000E-01   1.00800           0
     14875 MEMB     112      POPC     N        NTL     -0.600000       14.0070           0
     14876 MEMB     112      POPC     C12      CTL2    -0.100000       12.0110           0
     14877 MEMB     112      POPC     H12A     HL       0.250000       1.00800           0
     14878 MEMB     112      POPC     H12B     HL       0.250000       1.00800           0
     14879 MEMB     112      POPC     C13      CTL5    -0.350000       12.0110           0
     14880 MEMB     112      POPC     H13A     HL       0.250000       1.00800           0
     14881 MEMB     112      POPC     H13B     HL       0.250000       1.00800           0
     14882 MEMB     112      POPC     H13C     HL       0.250000       1.00800           0
     14883 MEMB     112      POPC     C14      CTL5    -0.350000       12.0110           0
     14884 MEMB     112      POPC     H14A     HL       0.250000       1.00800           0
     14885 MEMB     112      POPC     H14B     HL       0.250000       1.00800           0
     14886 MEMB     112      POPC     H14C     HL       0.250000       1.00800           0
     14887 MEMB     112      POPC     C15      CTL5    -0.350000       12.0110           0
     14888 MEMB     112      POPC     H15A     HL       0.250000       1.00800           0
     14889 MEMB     112      POPC     H15B     HL       0.250000       1.00800           0
     14890 MEMB     112      POPC     H15C     HL       0.250000       1.00800           0
     14891 MEMB     112      POPC     C11      CTL2    -0.800000E-01   12.0110           0
     14892 MEMB     112      POPC     H11A     HAL2     0.900000E-01   1.00800           0
     14893 MEMB     112      POPC     H11B     HAL2     0.900000E-01   1.00800           0
     14894 MEMB     112      POPC     P        PL       1.50000        30.9740           0
     14895 MEMB     112      POPC     O13      O2L     -0.780000       15.9994           0
     14896 MEMB     112      POPC     O14      O2L     -0.780000       15.9994           0
     14897 MEMB     112      POPC     O12      OSLP    -0.570000       15.9994           0
     14898 MEMB     112      POPC     O11      OSLP    -0.570000       15.9994           0
     14899 MEMB     112      POPC     C1       CTL2    -0.800000E-01   12.0110           0
     14900 MEMB     112      POPC     HA       HAL2     0.900000E-01   1.00800           0
     14901 MEMB     112      POPC     HB       HAL2     0.900000E-01   1.00800           0
     14902 MEMB     112      POPC     C2       CTL1     0.170000       12.0110           0
     14903 MEMB     112      POPC     HS       HAL1     0.900000E-01   1.00800           0
     14904 MEMB     112      POPC     O21      OSL     -0.490000       15.9994           0
     14905 MEMB     112      POPC     C21      CL       0.900000       12.0110           0
     14906 MEMB     112      POPC     O22      OBL     -0.630000       15.9994           0
     14907 MEMB     112      POPC     C22      CTL2    -0.220000       12.0110           0
     14908 MEMB     112      POPC     H2R      HAL2     0.900000E-01   1.00800           0
     14909 MEMB     112      POPC     H2S      HAL2     0.900000E-01   1.00800           0
     14910 MEMB     112      POPC     C3       CTL2     0.800000E-01   12.0110           0
     14911 MEMB     112      POPC     HX       HAL2     0.900000E-01   1.00800           0
     14912 MEMB     112      POPC     HY       HAL2     0.900000E-01   1.00800           0
     14913 MEMB     112      POPC     O31      OSL     -0.490000       15.9994           0
     14914 MEMB     112      POPC     C31      CL       0.900000       12.0110           0
     14915 MEMB     112      POPC     O32      OBL     -0.630000       15.9994           0
     14916 MEMB     112      POPC     C32      CTL2    -0.220000       12.0110           0
     14917 MEMB     112      POPC     H2X      HAL2     0.900000E-01   1.00800           0
     14918 MEMB     112      POPC     H2Y      HAL2     0.900000E-01   1.00800           0
     14919 MEMB     112      POPC     C23      CTL2    -0.180000       12.0110           0
     14920 MEMB     112      POPC     H3R      HAL2     0.900000E-01   1.00800           0
     14921 MEMB     112      POPC     H3S      HAL2     0.900000E-01   1.00800           0
     14922 MEMB     112      POPC     C24      CTL2    -0.180000       12.0110           0
     14923 MEMB     112      POPC     H4R      HAL2     0.900000E-01   1.00800           0
     14924 MEMB     112      POPC     H4S      HAL2     0.900000E-01   1.00800           0
     14925 MEMB     112      POPC     C25      CTL2    -0.180000       12.0110           0
     14926 MEMB     112      POPC     H5R      HAL2     0.900000E-01   1.00800           0
     14927 MEMB     112      POPC     H5S      HAL2     0.900000E-01   1.00800           0
     14928 MEMB     112      POPC     C26      CTL2    -0.180000       12.0110           0
     14929 MEMB     112      POPC     H6R      HAL2     0.900000E-01   1.00800           0
     14930 MEMB     112      POPC     H6S      HAL2     0.900000E-01   1.00800           0
     14931 MEMB     112      POPC     C27      CTL2    -0.180000       12.0110           0
     14932 MEMB     112      POPC     H7R      HAL2     0.900000E-01   1.00800           0
     14933 MEMB     112      POPC     H7S      HAL2     0.900000E-01   1.00800           0
     14934 MEMB     112      POPC     C28      CTL2    -0.180000       12.0110           0
     14935 MEMB     112      POPC     H8R      HAL2     0.900000E-01   1.00800           0
     14936 MEMB     112      POPC     H8S      HAL2     0.900000E-01   1.00800           0
     14937 MEMB     112      POPC     C29      CEL1    -0.150000       12.0110           0
     14938 MEMB     112      POPC     H91      HEL1     0.150000       1.00800           0
     14939 MEMB     112      POPC     C210     CEL1    -0.150000       12.0110           0
     14940 MEMB     112      POPC     H101     HEL1     0.150000       1.00800           0
     14941 MEMB     112      POPC     C211     CTL2    -0.180000       12.0110           0
     14942 MEMB     112      POPC     H11R     HAL2     0.900000E-01   1.00800           0
     14943 MEMB     112      POPC     H11S     HAL2     0.900000E-01   1.00800           0
     14944 MEMB     112      POPC     C212     CTL2    -0.180000       12.0110           0
     14945 MEMB     112      POPC     H12R     HAL2     0.900000E-01   1.00800           0
     14946 MEMB     112      POPC     H12S     HAL2     0.900000E-01   1.00800           0
     14947 MEMB     112      POPC     C213     CTL2    -0.180000       12.0110           0
     14948 MEMB     112      POPC     H13R     HAL2     0.900000E-01   1.00800           0
     14949 MEMB     112      POPC     H13S     HAL2     0.900000E-01   1.00800           0
     14950 MEMB     112      POPC     C214     CTL2    -0.180000       12.0110           0
     14951 MEMB     112      POPC     H14R     HAL2     0.900000E-01   1.00800           0
     14952 MEMB     112      POPC     H14S     HAL2     0.900000E-01   1.00800           0
     14953 MEMB     112      POPC     C215     CTL2    -0.180000       12.0110           0
     14954 MEMB     112      POPC     H15R     HAL2     0.900000E-01   1.00800           0
     14955 MEMB     112      POPC     H15S     HAL2     0.900000E-01   1.00800           0
     14956 MEMB     112      POPC     C216     CTL2    -0.180000       12.0110           0
     14957 MEMB     112      POPC     H16R     HAL2     0.900000E-01   1.00800           0
     14958 MEMB     112      POPC     H16S     HAL2     0.900000E-01   1.00800           0
     14959 MEMB     112      POPC     C217     CTL2    -0.180000       12.0110           0
     14960 MEMB     112      POPC     H17R     HAL2     0.900000E-01   1.00800           0
     14961 MEMB     112      POPC     H17S     HAL2     0.900000E-01   1.00800           0
     14962 MEMB     112      POPC     C218     CTL3    -0.270000       12.0110           0
     14963 MEMB     112      POPC     H18R     HAL3     0.900000E-01   1.00800           0
     14964 MEMB     112      POPC     H18S     HAL3     0.900000E-01   1.00800           0
     14965 MEMB     112      POPC     H18T     HAL3     0.900000E-01   1.00800           0
     14966 MEMB     112      POPC     C33      CTL2    -0.180000       12.0110           0
     14967 MEMB     112      POPC     H3X      HAL2     0.900000E-01   1.00800           0
     14968 MEMB     112      POPC     H3Y      HAL2     0.900000E-01   1.00800           0
     14969 MEMB     112      POPC     C34      CTL2    -0.180000       12.0110           0
     14970 MEMB     112      POPC     H4X      HAL2     0.900000E-01   1.00800           0
     14971 MEMB     112      POPC     H4Y      HAL2     0.900000E-01   1.00800           0
     14972 MEMB     112      POPC     C35      CTL2    -0.180000       12.0110           0
     14973 MEMB     112      POPC     H5X      HAL2     0.900000E-01   1.00800           0
     14974 MEMB     112      POPC     H5Y      HAL2     0.900000E-01   1.00800           0
     14975 MEMB     112      POPC     C36      CTL2    -0.180000       12.0110           0
     14976 MEMB     112      POPC     H6X      HAL2     0.900000E-01   1.00800           0
     14977 MEMB     112      POPC     H6Y      HAL2     0.900000E-01   1.00800           0
     14978 MEMB     112      POPC     C37      CTL2    -0.180000       12.0110           0
     14979 MEMB     112      POPC     H7X      HAL2     0.900000E-01   1.00800           0
     14980 MEMB     112      POPC     H7Y      HAL2     0.900000E-01   1.00800           0
     14981 MEMB     112      POPC     C38      CTL2    -0.180000       12.0110           0
     14982 MEMB     112      POPC     H8X      HAL2     0.900000E-01   1.00800           0
     14983 MEMB     112      POPC     H8Y      HAL2     0.900000E-01   1.00800           0
     14984 MEMB     112      POPC     C39      CTL2    -0.180000       12.0110           0
     14985 MEMB     112      POPC     H9X      HAL2     0.900000E-01   1.00800           0
     14986 MEMB     112      POPC     H9Y      HAL2     0.900000E-01   1.00800           0
     14987 MEMB     112      POPC     C310     CTL2    -0.180000       12.0110           0
     14988 MEMB     112      POPC     H10X     HAL2     0.900000E-01   1.00800           0
     14989 MEMB     112      POPC     H10Y     HAL2     0.900000E-01   1.00800           0
     14990 MEMB     112      POPC     C311     CTL2    -0.180000       12.0110           0
     14991 MEMB     112      POPC     H11X     HAL2     0.900000E-01   1.00800           0
     14992 MEMB     112      POPC     H11Y     HAL2     0.900000E-01   1.00800           0
     14993 MEMB     112      POPC     C312     CTL2    -0.180000       12.0110           0
     14994 MEMB     112      POPC     H12X     HAL2     0.900000E-01   1.00800           0
     14995 MEMB     112      POPC     H12Y     HAL2     0.900000E-01   1.00800           0
     14996 MEMB     112      POPC     C313     CTL2    -0.180000       12.0110           0
     14997 MEMB     112      POPC     H13X     HAL2     0.900000E-01   1.00800           0
     14998 MEMB     112      POPC     H13Y     HAL2     0.900000E-01   1.00800           0
     14999 MEMB     112      POPC     C314     CTL2    -0.180000       12.0110           0
     15000 MEMB     112      POPC     H14X     HAL2     0.900000E-01   1.00800           0
     15001 MEMB     112      POPC     H14Y     HAL2     0.900000E-01   1.00800           0
     15002 MEMB     112      POPC     C315     CTL2    -0.180000       12.0110           0
     15003 MEMB     112      POPC     H15X     HAL2     0.900000E-01   1.00800           0
     15004 MEMB     112      POPC     H15Y     HAL2     0.900000E-01   1.00800           0
     15005 MEMB     112      POPC     C316     CTL3    -0.270000       12.0110           0
     15006 MEMB     112      POPC     H16X     HAL3     0.900000E-01   1.00800           0
     15007 MEMB     112      POPC     H16Y     HAL3     0.900000E-01   1.00800           0
     15008 MEMB     112      POPC     H16Z     HAL3     0.900000E-01   1.00800           0
     15009 MEMB     113      POPC     N        NTL     -0.600000       14.0070           0
     15010 MEMB     113      POPC     C12      CTL2    -0.100000       12.0110           0
     15011 MEMB     113      POPC     H12A     HL       0.250000       1.00800           0
     15012 MEMB     113      POPC     H12B     HL       0.250000       1.00800           0
     15013 MEMB     113      POPC     C13      CTL5    -0.350000       12.0110           0
     15014 MEMB     113      POPC     H13A     HL       0.250000       1.00800           0
     15015 MEMB     113      POPC     H13B     HL       0.250000       1.00800           0
     15016 MEMB     113      POPC     H13C     HL       0.250000       1.00800           0
     15017 MEMB     113      POPC     C14      CTL5    -0.350000       12.0110           0
     15018 MEMB     113      POPC     H14A     HL       0.250000       1.00800           0
     15019 MEMB     113      POPC     H14B     HL       0.250000       1.00800           0
     15020 MEMB     113      POPC     H14C     HL       0.250000       1.00800           0
     15021 MEMB     113      POPC     C15      CTL5    -0.350000       12.0110           0
     15022 MEMB     113      POPC     H15A     HL       0.250000       1.00800           0
     15023 MEMB     113      POPC     H15B     HL       0.250000       1.00800           0
     15024 MEMB     113      POPC     H15C     HL       0.250000       1.00800           0
     15025 MEMB     113      POPC     C11      CTL2    -0.800000E-01   12.0110           0
     15026 MEMB     113      POPC     H11A     HAL2     0.900000E-01   1.00800           0
     15027 MEMB     113      POPC     H11B     HAL2     0.900000E-01   1.00800           0
     15028 MEMB     113      POPC     P        PL       1.50000        30.9740           0
     15029 MEMB     113      POPC     O13      O2L     -0.780000       15.9994           0
     15030 MEMB     113      POPC     O14      O2L     -0.780000       15.9994           0
     15031 MEMB     113      POPC     O12      OSLP    -0.570000       15.9994           0
     15032 MEMB     113      POPC     O11      OSLP    -0.570000       15.9994           0
     15033 MEMB     113      POPC     C1       CTL2    -0.800000E-01   12.0110           0
     15034 MEMB     113      POPC     HA       HAL2     0.900000E-01   1.00800           0
     15035 MEMB     113      POPC     HB       HAL2     0.900000E-01   1.00800           0
     15036 MEMB     113      POPC     C2       CTL1     0.170000       12.0110           0
     15037 MEMB     113      POPC     HS       HAL1     0.900000E-01   1.00800           0
     15038 MEMB     113      POPC     O21      OSL     -0.490000       15.9994           0
     15039 MEMB     113      POPC     C21      CL       0.900000       12.0110           0
     15040 MEMB     113      POPC     O22      OBL     -0.630000       15.9994           0
     15041 MEMB     113      POPC     C22      CTL2    -0.220000       12.0110           0
     15042 MEMB     113      POPC     H2R      HAL2     0.900000E-01   1.00800           0
     15043 MEMB     113      POPC     H2S      HAL2     0.900000E-01   1.00800           0
     15044 MEMB     113      POPC     C3       CTL2     0.800000E-01   12.0110           0
     15045 MEMB     113      POPC     HX       HAL2     0.900000E-01   1.00800           0
     15046 MEMB     113      POPC     HY       HAL2     0.900000E-01   1.00800           0
     15047 MEMB     113      POPC     O31      OSL     -0.490000       15.9994           0
     15048 MEMB     113      POPC     C31      CL       0.900000       12.0110           0
     15049 MEMB     113      POPC     O32      OBL     -0.630000       15.9994           0
     15050 MEMB     113      POPC     C32      CTL2    -0.220000       12.0110           0
     15051 MEMB     113      POPC     H2X      HAL2     0.900000E-01   1.00800           0
     15052 MEMB     113      POPC     H2Y      HAL2     0.900000E-01   1.00800           0
     15053 MEMB     113      POPC     C23      CTL2    -0.180000       12.0110           0
     15054 MEMB     113      POPC     H3R      HAL2     0.900000E-01   1.00800           0
     15055 MEMB     113      POPC     H3S      HAL2     0.900000E-01   1.00800           0
     15056 MEMB     113      POPC     C24      CTL2    -0.180000       12.0110           0
     15057 MEMB     113      POPC     H4R      HAL2     0.900000E-01   1.00800           0
     15058 MEMB     113      POPC     H4S      HAL2     0.900000E-01   1.00800           0
     15059 MEMB     113      POPC     C25      CTL2    -0.180000       12.0110           0
     15060 MEMB     113      POPC     H5R      HAL2     0.900000E-01   1.00800           0
     15061 MEMB     113      POPC     H5S      HAL2     0.900000E-01   1.00800           0
     15062 MEMB     113      POPC     C26      CTL2    -0.180000       12.0110           0
     15063 MEMB     113      POPC     H6R      HAL2     0.900000E-01   1.00800           0
     15064 MEMB     113      POPC     H6S      HAL2     0.900000E-01   1.00800           0
     15065 MEMB     113      POPC     C27      CTL2    -0.180000       12.0110           0
     15066 MEMB     113      POPC     H7R      HAL2     0.900000E-01   1.00800           0
     15067 MEMB     113      POPC     H7S      HAL2     0.900000E-01   1.00800           0
     15068 MEMB     113      POPC     C28      CTL2    -0.180000       12.0110           0
     15069 MEMB     113      POPC     H8R      HAL2     0.900000E-01   1.00800           0
     15070 MEMB     113      POPC     H8S      HAL2     0.900000E-01   1.00800           0
     15071 MEMB     113      POPC     C29      CEL1    -0.150000       12.0110           0
     15072 MEMB     113      POPC     H91      HEL1     0.150000       1.00800           0
     15073 MEMB     113      POPC     C210     CEL1    -0.150000       12.0110           0
     15074 MEMB     113      POPC     H101     HEL1     0.150000       1.00800           0
     15075 MEMB     113      POPC     C211     CTL2    -0.180000       12.0110           0
     15076 MEMB     113      POPC     H11R     HAL2     0.900000E-01   1.00800           0
     15077 MEMB     113      POPC     H11S     HAL2     0.900000E-01   1.00800           0
     15078 MEMB     113      POPC     C212     CTL2    -0.180000       12.0110           0
     15079 MEMB     113      POPC     H12R     HAL2     0.900000E-01   1.00800           0
     15080 MEMB     113      POPC     H12S     HAL2     0.900000E-01   1.00800           0
     15081 MEMB     113      POPC     C213     CTL2    -0.180000       12.0110           0
     15082 MEMB     113      POPC     H13R     HAL2     0.900000E-01   1.00800           0
     15083 MEMB     113      POPC     H13S     HAL2     0.900000E-01   1.00800           0
     15084 MEMB     113      POPC     C214     CTL2    -0.180000       12.0110           0
     15085 MEMB     113      POPC     H14R     HAL2     0.900000E-01   1.00800           0
     15086 MEMB     113      POPC     H14S     HAL2     0.900000E-01   1.00800           0
     15087 MEMB     113      POPC     C215     CTL2    -0.180000       12.0110           0
     15088 MEMB     113      POPC     H15R     HAL2     0.900000E-01   1.00800           0
     15089 MEMB     113      POPC     H15S     HAL2     0.900000E-01   1.00800           0
     15090 MEMB     113      POPC     C216     CTL2    -0.180000       12.0110           0
     15091 MEMB     113      POPC     H16R     HAL2     0.900000E-01   1.00800           0
     15092 MEMB     113      POPC     H16S     HAL2     0.900000E-01   1.00800           0
     15093 MEMB     113      POPC     C217     CTL2    -0.180000       12.0110           0
     15094 MEMB     113      POPC     H17R     HAL2     0.900000E-01   1.00800           0
     15095 MEMB     113      POPC     H17S     HAL2     0.900000E-01   1.00800           0
     15096 MEMB     113      POPC     C218     CTL3    -0.270000       12.0110           0
     15097 MEMB     113      POPC     H18R     HAL3     0.900000E-01   1.00800           0
     15098 MEMB     113      POPC     H18S     HAL3     0.900000E-01   1.00800           0
     15099 MEMB     113      POPC     H18T     HAL3     0.900000E-01   1.00800           0
     15100 MEMB     113      POPC     C33      CTL2    -0.180000       12.0110           0
     15101 MEMB     113      POPC     H3X      HAL2     0.900000E-01   1.00800           0
     15102 MEMB     113      POPC     H3Y      HAL2     0.900000E-01   1.00800           0
     15103 MEMB     113      POPC     C34      CTL2    -0.180000       12.0110           0
     15104 MEMB     113      POPC     H4X      HAL2     0.900000E-01   1.00800           0
     15105 MEMB     113      POPC     H4Y      HAL2     0.900000E-01   1.00800           0
     15106 MEMB     113      POPC     C35      CTL2    -0.180000       12.0110           0
     15107 MEMB     113      POPC     H5X      HAL2     0.900000E-01   1.00800           0
     15108 MEMB     113      POPC     H5Y      HAL2     0.900000E-01   1.00800           0
     15109 MEMB     113      POPC     C36      CTL2    -0.180000       12.0110           0
     15110 MEMB     113      POPC     H6X      HAL2     0.900000E-01   1.00800           0
     15111 MEMB     113      POPC     H6Y      HAL2     0.900000E-01   1.00800           0
     15112 MEMB     113      POPC     C37      CTL2    -0.180000       12.0110           0
     15113 MEMB     113      POPC     H7X      HAL2     0.900000E-01   1.00800           0
     15114 MEMB     113      POPC     H7Y      HAL2     0.900000E-01   1.00800           0
     15115 MEMB     113      POPC     C38      CTL2    -0.180000       12.0110           0
     15116 MEMB     113      POPC     H8X      HAL2     0.900000E-01   1.00800           0
     15117 MEMB     113      POPC     H8Y      HAL2     0.900000E-01   1.00800           0
     15118 MEMB     113      POPC     C39      CTL2    -0.180000       12.0110           0
     15119 MEMB     113      POPC     H9X      HAL2     0.900000E-01   1.00800           0
     15120 MEMB     113      POPC     H9Y      HAL2     0.900000E-01   1.00800           0
     15121 MEMB     113      POPC     C310     CTL2    -0.180000       12.0110           0
     15122 MEMB     113      POPC     H10X     HAL2     0.900000E-01   1.00800           0
     15123 MEMB     113      POPC     H10Y     HAL2     0.900000E-01   1.00800           0
     15124 MEMB     113      POPC     C311     CTL2    -0.180000       12.0110           0
     15125 MEMB     113      POPC     H11X     HAL2     0.900000E-01   1.00800           0
     15126 MEMB     113      POPC     H11Y     HAL2     0.900000E-01   1.00800           0
     15127 MEMB     113      POPC     C312     CTL2    -0.180000       12.0110           0
     15128 MEMB     113      POPC     H12X     HAL2     0.900000E-01   1.00800           0
     15129 MEMB     113      POPC     H12Y     HAL2     0.900000E-01   1.00800           0
     15130 MEMB     113      POPC     C313     CTL2    -0.180000       12.0110           0
     15131 MEMB     113      POPC     H13X     HAL2     0.900000E-01   1.00800           0
     15132 MEMB     113      POPC     H13Y     HAL2     0.900000E-01   1.00800           0
     15133 MEMB     113      POPC     C314     CTL2    -0.180000       12.0110           0
     15134 MEMB     113      POPC     H14X     HAL2     0.900000E-01   1.00800           0
     15135 MEMB     113      POPC     H14Y     HAL2     0.900000E-01   1.00800           0
     15136 MEMB     113      POPC     C315     CTL2    -0.180000       12.0110           0
     15137 MEMB     113      POPC     H15X     HAL2     0.900000E-01   1.00800           0
     15138 MEMB     113      POPC     H15Y     HAL2     0.900000E-01   1.00800           0
     15139 MEMB     113      POPC     C316     CTL3    -0.270000       12.0110           0
     15140 MEMB     113      POPC     H16X     HAL3     0.900000E-01   1.00800           0
     15141 MEMB     113      POPC     H16Y     HAL3     0.900000E-01   1.00800           0
     15142 MEMB     113      POPC     H16Z     HAL3     0.900000E-01   1.00800           0
     15143 MEMB     114      POPC     N        NTL     -0.600000       14.0070           0
     15144 MEMB     114      POPC     C12      CTL2    -0.100000       12.0110           0
     15145 MEMB     114      POPC     H12A     HL       0.250000       1.00800           0
     15146 MEMB     114      POPC     H12B     HL       0.250000       1.00800           0
     15147 MEMB     114      POPC     C13      CTL5    -0.350000       12.0110           0
     15148 MEMB     114      POPC     H13A     HL       0.250000       1.00800           0
     15149 MEMB     114      POPC     H13B     HL       0.250000       1.00800           0
     15150 MEMB     114      POPC     H13C     HL       0.250000       1.00800           0
     15151 MEMB     114      POPC     C14      CTL5    -0.350000       12.0110           0
     15152 MEMB     114      POPC     H14A     HL       0.250000       1.00800           0
     15153 MEMB     114      POPC     H14B     HL       0.250000       1.00800           0
     15154 MEMB     114      POPC     H14C     HL       0.250000       1.00800           0
     15155 MEMB     114      POPC     C15      CTL5    -0.350000       12.0110           0
     15156 MEMB     114      POPC     H15A     HL       0.250000       1.00800           0
     15157 MEMB     114      POPC     H15B     HL       0.250000       1.00800           0
     15158 MEMB     114      POPC     H15C     HL       0.250000       1.00800           0
     15159 MEMB     114      POPC     C11      CTL2    -0.800000E-01   12.0110           0
     15160 MEMB     114      POPC     H11A     HAL2     0.900000E-01   1.00800           0
     15161 MEMB     114      POPC     H11B     HAL2     0.900000E-01   1.00800           0
     15162 MEMB     114      POPC     P        PL       1.50000        30.9740           0
     15163 MEMB     114      POPC     O13      O2L     -0.780000       15.9994           0
     15164 MEMB     114      POPC     O14      O2L     -0.780000       15.9994           0
     15165 MEMB     114      POPC     O12      OSLP    -0.570000       15.9994           0
     15166 MEMB     114      POPC     O11      OSLP    -0.570000       15.9994           0
     15167 MEMB     114      POPC     C1       CTL2    -0.800000E-01   12.0110           0
     15168 MEMB     114      POPC     HA       HAL2     0.900000E-01   1.00800           0
     15169 MEMB     114      POPC     HB       HAL2     0.900000E-01   1.00800           0
     15170 MEMB     114      POPC     C2       CTL1     0.170000       12.0110           0
     15171 MEMB     114      POPC     HS       HAL1     0.900000E-01   1.00800           0
     15172 MEMB     114      POPC     O21      OSL     -0.490000       15.9994           0
     15173 MEMB     114      POPC     C21      CL       0.900000       12.0110           0
     15174 MEMB     114      POPC     O22      OBL     -0.630000       15.9994           0
     15175 MEMB     114      POPC     C22      CTL2    -0.220000       12.0110           0
     15176 MEMB     114      POPC     H2R      HAL2     0.900000E-01   1.00800           0
     15177 MEMB     114      POPC     H2S      HAL2     0.900000E-01   1.00800           0
     15178 MEMB     114      POPC     C3       CTL2     0.800000E-01   12.0110           0
     15179 MEMB     114      POPC     HX       HAL2     0.900000E-01   1.00800           0
     15180 MEMB     114      POPC     HY       HAL2     0.900000E-01   1.00800           0
     15181 MEMB     114      POPC     O31      OSL     -0.490000       15.9994           0
     15182 MEMB     114      POPC     C31      CL       0.900000       12.0110           0
     15183 MEMB     114      POPC     O32      OBL     -0.630000       15.9994           0
     15184 MEMB     114      POPC     C32      CTL2    -0.220000       12.0110           0
     15185 MEMB     114      POPC     H2X      HAL2     0.900000E-01   1.00800           0
     15186 MEMB     114      POPC     H2Y      HAL2     0.900000E-01   1.00800           0
     15187 MEMB     114      POPC     C23      CTL2    -0.180000       12.0110           0
     15188 MEMB     114      POPC     H3R      HAL2     0.900000E-01   1.00800           0
     15189 MEMB     114      POPC     H3S      HAL2     0.900000E-01   1.00800           0
     15190 MEMB     114      POPC     C24      CTL2    -0.180000       12.0110           0
     15191 MEMB     114      POPC     H4R      HAL2     0.900000E-01   1.00800           0
     15192 MEMB     114      POPC     H4S      HAL2     0.900000E-01   1.00800           0
     15193 MEMB     114      POPC     C25      CTL2    -0.180000       12.0110           0
     15194 MEMB     114      POPC     H5R      HAL2     0.900000E-01   1.00800           0
     15195 MEMB     114      POPC     H5S      HAL2     0.900000E-01   1.00800           0
     15196 MEMB     114      POPC     C26      CTL2    -0.180000       12.0110           0
     15197 MEMB     114      POPC     H6R      HAL2     0.900000E-01   1.00800           0
     15198 MEMB     114      POPC     H6S      HAL2     0.900000E-01   1.00800           0
     15199 MEMB     114      POPC     C27      CTL2    -0.180000       12.0110           0
     15200 MEMB     114      POPC     H7R      HAL2     0.900000E-01   1.00800           0
     15201 MEMB     114      POPC     H7S      HAL2     0.900000E-01   1.00800           0
     15202 MEMB     114      POPC     C28      CTL2    -0.180000       12.0110           0
     15203 MEMB     114      POPC     H8R      HAL2     0.900000E-01   1.00800           0
     15204 MEMB     114      POPC     H8S      HAL2     0.900000E-01   1.00800           0
     15205 MEMB     114      POPC     C29      CEL1    -0.150000       12.0110           0
     15206 MEMB     114      POPC     H91      HEL1     0.150000       1.00800           0
     15207 MEMB     114      POPC     C210     CEL1    -0.150000       12.0110           0
     15208 MEMB     114      POPC     H101     HEL1     0.150000       1.00800           0
     15209 MEMB     114      POPC     C211     CTL2    -0.180000       12.0110           0
     15210 MEMB     114      POPC     H11R     HAL2     0.900000E-01   1.00800           0
     15211 MEMB     114      POPC     H11S     HAL2     0.900000E-01   1.00800           0
     15212 MEMB     114      POPC     C212     CTL2    -0.180000       12.0110           0
     15213 MEMB     114      POPC     H12R     HAL2     0.900000E-01   1.00800           0
     15214 MEMB     114      POPC     H12S     HAL2     0.900000E-01   1.00800           0
     15215 MEMB     114      POPC     C213     CTL2    -0.180000       12.0110           0
     15216 MEMB     114      POPC     H13R     HAL2     0.900000E-01   1.00800           0
     15217 MEMB     114      POPC     H13S     HAL2     0.900000E-01   1.00800           0
     15218 MEMB     114      POPC     C214     CTL2    -0.180000       12.0110           0
     15219 MEMB     114      POPC     H14R     HAL2     0.900000E-01   1.00800           0
     15220 MEMB     114      POPC     H14S     HAL2     0.900000E-01   1.00800           0
     15221 MEMB     114      POPC     C215     CTL2    -0.180000       12.0110           0
     15222 MEMB     114      POPC     H15R     HAL2     0.900000E-01   1.00800           0
     15223 MEMB     114      POPC     H15S     HAL2     0.900000E-01   1.00800           0
     15224 MEMB     114      POPC     C216     CTL2    -0.180000       12.0110           0
     15225 MEMB     114      POPC     H16R     HAL2     0.900000E-01   1.00800           0
     15226 MEMB     114      POPC     H16S     HAL2     0.900000E-01   1.00800           0
     15227 MEMB     114      POPC     C217     CTL2    -0.180000       12.0110           0
     15228 MEMB     114      POPC     H17R     HAL2     0.900000E-01   1.00800           0
     15229 MEMB     114      POPC     H17S     HAL2     0.900000E-01   1.00800           0
     15230 MEMB     114      POPC     C218     CTL3    -0.270000       12.0110           0
     15231 MEMB     114      POPC     H18R     HAL3     0.900000E-01   1.00800           0
     15232 MEMB     114      POPC     H18S     HAL3     0.900000E-01   1.00800           0
     15233 MEMB     114      POPC     H18T     HAL3     0.900000E-01   1.00800           0
     15234 MEMB     114      POPC     C33      CTL2    -0.180000       12.0110           0
     15235 MEMB     114      POPC     H3X      HAL2     0.900000E-01   1.00800           0
     15236 MEMB     114      POPC     H3Y      HAL2     0.900000E-01   1.00800           0
     15237 MEMB     114      POPC     C34      CTL2    -0.180000       12.0110           0
     15238 MEMB     114      POPC     H4X      HAL2     0.900000E-01   1.00800           0
     15239 MEMB     114      POPC     H4Y      HAL2     0.900000E-01   1.00800           0
     15240 MEMB     114      POPC     C35      CTL2    -0.180000       12.0110           0
     15241 MEMB     114      POPC     H5X      HAL2     0.900000E-01   1.00800           0
     15242 MEMB     114      POPC     H5Y      HAL2     0.900000E-01   1.00800           0
     15243 MEMB     114      POPC     C36      CTL2    -0.180000       12.0110           0
     15244 MEMB     114      POPC     H6X      HAL2     0.900000E-01   1.00800           0
     15245 MEMB     114      POPC     H6Y      HAL2     0.900000E-01   1.00800           0
     15246 MEMB     114      POPC     C37      CTL2    -0.180000       12.0110           0
     15247 MEMB     114      POPC     H7X      HAL2     0.900000E-01   1.00800           0
     15248 MEMB     114      POPC     H7Y      HAL2     0.900000E-01   1.00800           0
     15249 MEMB     114      POPC     C38      CTL2    -0.180000       12.0110           0
     15250 MEMB     114      POPC     H8X      HAL2     0.900000E-01   1.00800           0
     15251 MEMB     114      POPC     H8Y      HAL2     0.900000E-01   1.00800           0
     15252 MEMB     114      POPC     C39      CTL2    -0.180000       12.0110           0
     15253 MEMB     114      POPC     H9X      HAL2     0.900000E-01   1.00800           0
     15254 MEMB     114      POPC     H9Y      HAL2     0.900000E-01   1.00800           0
     15255 MEMB     114      POPC     C310     CTL2    -0.180000       12.0110           0
     15256 MEMB     114      POPC     H10X     HAL2     0.900000E-01   1.00800           0
     15257 MEMB     114      POPC     H10Y     HAL2     0.900000E-01   1.00800           0
     15258 MEMB     114      POPC     C311     CTL2    -0.180000       12.0110           0
     15259 MEMB     114      POPC     H11X     HAL2     0.900000E-01   1.00800           0
     15260 MEMB     114      POPC     H11Y     HAL2     0.900000E-01   1.00800           0
     15261 MEMB     114      POPC     C312     CTL2    -0.180000       12.0110           0
     15262 MEMB     114      POPC     H12X     HAL2     0.900000E-01   1.00800           0
     15263 MEMB     114      POPC     H12Y     HAL2     0.900000E-01   1.00800           0
     15264 MEMB     114      POPC     C313     CTL2    -0.180000       12.0110           0
     15265 MEMB     114      POPC     H13X     HAL2     0.900000E-01   1.00800           0
     15266 MEMB     114      POPC     H13Y     HAL2     0.900000E-01   1.00800           0
     15267 MEMB     114      POPC     C314     CTL2    -0.180000       12.0110           0
     15268 MEMB     114      POPC     H14X     HAL2     0.900000E-01   1.00800           0
     15269 MEMB     114      POPC     H14Y     HAL2     0.900000E-01   1.00800           0
     15270 MEMB     114      POPC     C315     CTL2    -0.180000       12.0110           0
     15271 MEMB     114      POPC     H15X     HAL2     0.900000E-01   1.00800           0
     15272 MEMB     114      POPC     H15Y     HAL2     0.900000E-01   1.00800           0
     15273 MEMB     114      POPC     C316     CTL3    -0.270000       12.0110           0
     15274 MEMB     114      POPC     H16X     HAL3     0.900000E-01   1.00800           0
     15275 MEMB     114      POPC     H16Y     HAL3     0.900000E-01   1.00800           0
     15276 MEMB     114      POPC     H16Z     HAL3     0.900000E-01   1.00800           0
     15277 MEMB     115      POPC     N        NTL     -0.600000       14.0070           0
     15278 MEMB     115      POPC     C12      CTL2    -0.100000       12.0110           0
     15279 MEMB     115      POPC     H12A     HL       0.250000       1.00800           0
     15280 MEMB     115      POPC     H12B     HL       0.250000       1.00800           0
     15281 MEMB     115      POPC     C13      CTL5    -0.350000       12.0110           0
     15282 MEMB     115      POPC     H13A     HL       0.250000       1.00800           0
     15283 MEMB     115      POPC     H13B     HL       0.250000       1.00800           0
     15284 MEMB     115      POPC     H13C     HL       0.250000       1.00800           0
     15285 MEMB     115      POPC     C14      CTL5    -0.350000       12.0110           0
     15286 MEMB     115      POPC     H14A     HL       0.250000       1.00800           0
     15287 MEMB     115      POPC     H14B     HL       0.250000       1.00800           0
     15288 MEMB     115      POPC     H14C     HL       0.250000       1.00800           0
     15289 MEMB     115      POPC     C15      CTL5    -0.350000       12.0110           0
     15290 MEMB     115      POPC     H15A     HL       0.250000       1.00800           0
     15291 MEMB     115      POPC     H15B     HL       0.250000       1.00800           0
     15292 MEMB     115      POPC     H15C     HL       0.250000       1.00800           0
     15293 MEMB     115      POPC     C11      CTL2    -0.800000E-01   12.0110           0
     15294 MEMB     115      POPC     H11A     HAL2     0.900000E-01   1.00800           0
     15295 MEMB     115      POPC     H11B     HAL2     0.900000E-01   1.00800           0
     15296 MEMB     115      POPC     P        PL       1.50000        30.9740           0
     15297 MEMB     115      POPC     O13      O2L     -0.780000       15.9994           0
     15298 MEMB     115      POPC     O14      O2L     -0.780000       15.9994           0
     15299 MEMB     115      POPC     O12      OSLP    -0.570000       15.9994           0
     15300 MEMB     115      POPC     O11      OSLP    -0.570000       15.9994           0
     15301 MEMB     115      POPC     C1       CTL2    -0.800000E-01   12.0110           0
     15302 MEMB     115      POPC     HA       HAL2     0.900000E-01   1.00800           0
     15303 MEMB     115      POPC     HB       HAL2     0.900000E-01   1.00800           0
     15304 MEMB     115      POPC     C2       CTL1     0.170000       12.0110           0
     15305 MEMB     115      POPC     HS       HAL1     0.900000E-01   1.00800           0
     15306 MEMB     115      POPC     O21      OSL     -0.490000       15.9994           0
     15307 MEMB     115      POPC     C21      CL       0.900000       12.0110           0
     15308 MEMB     115      POPC     O22      OBL     -0.630000       15.9994           0
     15309 MEMB     115      POPC     C22      CTL2    -0.220000       12.0110           0
     15310 MEMB     115      POPC     H2R      HAL2     0.900000E-01   1.00800           0
     15311 MEMB     115      POPC     H2S      HAL2     0.900000E-01   1.00800           0
     15312 MEMB     115      POPC     C3       CTL2     0.800000E-01   12.0110           0
     15313 MEMB     115      POPC     HX       HAL2     0.900000E-01   1.00800           0
     15314 MEMB     115      POPC     HY       HAL2     0.900000E-01   1.00800           0
     15315 MEMB     115      POPC     O31      OSL     -0.490000       15.9994           0
     15316 MEMB     115      POPC     C31      CL       0.900000       12.0110           0
     15317 MEMB     115      POPC     O32      OBL     -0.630000       15.9994           0
     15318 MEMB     115      POPC     C32      CTL2    -0.220000       12.0110           0
     15319 MEMB     115      POPC     H2X      HAL2     0.900000E-01   1.00800           0
     15320 MEMB     115      POPC     H2Y      HAL2     0.900000E-01   1.00800           0
     15321 MEMB     115      POPC     C23      CTL2    -0.180000       12.0110           0
     15322 MEMB     115      POPC     H3R      HAL2     0.900000E-01   1.00800           0
     15323 MEMB     115      POPC     H3S      HAL2     0.900000E-01   1.00800           0
     15324 MEMB     115      POPC     C24      CTL2    -0.180000       12.0110           0
     15325 MEMB     115      POPC     H4R      HAL2     0.900000E-01   1.00800           0
     15326 MEMB     115      POPC     H4S      HAL2     0.900000E-01   1.00800           0
     15327 MEMB     115      POPC     C25      CTL2    -0.180000       12.0110           0
     15328 MEMB     115      POPC     H5R      HAL2     0.900000E-01   1.00800           0
     15329 MEMB     115      POPC     H5S      HAL2     0.900000E-01   1.00800           0
     15330 MEMB     115      POPC     C26      CTL2    -0.180000       12.0110           0
     15331 MEMB     115      POPC     H6R      HAL2     0.900000E-01   1.00800           0
     15332 MEMB     115      POPC     H6S      HAL2     0.900000E-01   1.00800           0
     15333 MEMB     115      POPC     C27      CTL2    -0.180000       12.0110           0
     15334 MEMB     115      POPC     H7R      HAL2     0.900000E-01   1.00800           0
     15335 MEMB     115      POPC     H7S      HAL2     0.900000E-01   1.00800           0
     15336 MEMB     115      POPC     C28      CTL2    -0.180000       12.0110           0
     15337 MEMB     115      POPC     H8R      HAL2     0.900000E-01   1.00800           0
     15338 MEMB     115      POPC     H8S      HAL2     0.900000E-01   1.00800           0
     15339 MEMB     115      POPC     C29      CEL1    -0.150000       12.0110           0
     15340 MEMB     115      POPC     H91      HEL1     0.150000       1.00800           0
     15341 MEMB     115      POPC     C210     CEL1    -0.150000       12.0110           0
     15342 MEMB     115      POPC     H101     HEL1     0.150000       1.00800           0
     15343 MEMB     115      POPC     C211     CTL2    -0.180000       12.0110           0
     15344 MEMB     115      POPC     H11R     HAL2     0.900000E-01   1.00800           0
     15345 MEMB     115      POPC     H11S     HAL2     0.900000E-01   1.00800           0
     15346 MEMB     115      POPC     C212     CTL2    -0.180000       12.0110           0
     15347 MEMB     115      POPC     H12R     HAL2     0.900000E-01   1.00800           0
     15348 MEMB     115      POPC     H12S     HAL2     0.900000E-01   1.00800           0
     15349 MEMB     115      POPC     C213     CTL2    -0.180000       12.0110           0
     15350 MEMB     115      POPC     H13R     HAL2     0.900000E-01   1.00800           0
     15351 MEMB     115      POPC     H13S     HAL2     0.900000E-01   1.00800           0
     15352 MEMB     115      POPC     C214     CTL2    -0.180000       12.0110           0
     15353 MEMB     115      POPC     H14R     HAL2     0.900000E-01   1.00800           0
     15354 MEMB     115      POPC     H14S     HAL2     0.900000E-01   1.00800           0
     15355 MEMB     115      POPC     C215     CTL2    -0.180000       12.0110           0
     15356 MEMB     115      POPC     H15R     HAL2     0.900000E-01   1.00800           0
     15357 MEMB     115      POPC     H15S     HAL2     0.900000E-01   1.00800           0
     15358 MEMB     115      POPC     C216     CTL2    -0.180000       12.0110           0
     15359 MEMB     115      POPC     H16R     HAL2     0.900000E-01   1.00800           0
     15360 MEMB     115      POPC     H16S     HAL2     0.900000E-01   1.00800           0
     15361 MEMB     115      POPC     C217     CTL2    -0.180000       12.0110           0
     15362 MEMB     115      POPC     H17R     HAL2     0.900000E-01   1.00800           0
     15363 MEMB     115      POPC     H17S     HAL2     0.900000E-01   1.00800           0
     15364 MEMB     115      POPC     C218     CTL3    -0.270000       12.0110           0
     15365 MEMB     115      POPC     H18R     HAL3     0.900000E-01   1.00800           0
     15366 MEMB     115      POPC     H18S     HAL3     0.900000E-01   1.00800           0
     15367 MEMB     115      POPC     H18T     HAL3     0.900000E-01   1.00800           0
     15368 MEMB     115      POPC     C33      CTL2    -0.180000       12.0110           0
     15369 MEMB     115      POPC     H3X      HAL2     0.900000E-01   1.00800           0
     15370 MEMB     115      POPC     H3Y      HAL2     0.900000E-01   1.00800           0
     15371 MEMB     115      POPC     C34      CTL2    -0.180000       12.0110           0
     15372 MEMB     115      POPC     H4X      HAL2     0.900000E-01   1.00800           0
     15373 MEMB     115      POPC     H4Y      HAL2     0.900000E-01   1.00800           0
     15374 MEMB     115      POPC     C35      CTL2    -0.180000       12.0110           0
     15375 MEMB     115      POPC     H5X      HAL2     0.900000E-01   1.00800           0
     15376 MEMB     115      POPC     H5Y      HAL2     0.900000E-01   1.00800           0
     15377 MEMB     115      POPC     C36      CTL2    -0.180000       12.0110           0
     15378 MEMB     115      POPC     H6X      HAL2     0.900000E-01   1.00800           0
     15379 MEMB     115      POPC     H6Y      HAL2     0.900000E-01   1.00800           0
     15380 MEMB     115      POPC     C37      CTL2    -0.180000       12.0110           0
     15381 MEMB     115      POPC     H7X      HAL2     0.900000E-01   1.00800           0
     15382 MEMB     115      POPC     H7Y      HAL2     0.900000E-01   1.00800           0
     15383 MEMB     115      POPC     C38      CTL2    -0.180000       12.0110           0
     15384 MEMB     115      POPC     H8X      HAL2     0.900000E-01   1.00800           0
     15385 MEMB     115      POPC     H8Y      HAL2     0.900000E-01   1.00800           0
     15386 MEMB     115      POPC     C39      CTL2    -0.180000       12.0110           0
     15387 MEMB     115      POPC     H9X      HAL2     0.900000E-01   1.00800           0
     15388 MEMB     115      POPC     H9Y      HAL2     0.900000E-01   1.00800           0
     15389 MEMB     115      POPC     C310     CTL2    -0.180000       12.0110           0
     15390 MEMB     115      POPC     H10X     HAL2     0.900000E-01   1.00800           0
     15391 MEMB     115      POPC     H10Y     HAL2     0.900000E-01   1.00800           0
     15392 MEMB     115      POPC     C311     CTL2    -0.180000       12.0110           0
     15393 MEMB     115      POPC     H11X     HAL2     0.900000E-01   1.00800           0
     15394 MEMB     115      POPC     H11Y     HAL2     0.900000E-01   1.00800           0
     15395 MEMB     115      POPC     C312     CTL2    -0.180000       12.0110           0
     15396 MEMB     115      POPC     H12X     HAL2     0.900000E-01   1.00800           0
     15397 MEMB     115      POPC     H12Y     HAL2     0.900000E-01   1.00800           0
     15398 MEMB     115      POPC     C313     CTL2    -0.180000       12.0110           0
     15399 MEMB     115      POPC     H13X     HAL2     0.900000E-01   1.00800           0
     15400 MEMB     115      POPC     H13Y     HAL2     0.900000E-01   1.00800           0
     15401 MEMB     115      POPC     C314     CTL2    -0.180000       12.0110           0
     15402 MEMB     115      POPC     H14X     HAL2     0.900000E-01   1.00800           0
     15403 MEMB     115      POPC     H14Y     HAL2     0.900000E-01   1.00800           0
     15404 MEMB     115      POPC     C315     CTL2    -0.180000       12.0110           0
     15405 MEMB     115      POPC     H15X     HAL2     0.900000E-01   1.00800           0
     15406 MEMB     115      POPC     H15Y     HAL2     0.900000E-01   1.00800           0
     15407 MEMB     115      POPC     C316     CTL3    -0.270000       12.0110           0
     15408 MEMB     115      POPC     H16X     HAL3     0.900000E-01   1.00800           0
     15409 MEMB     115      POPC     H16Y     HAL3     0.900000E-01   1.00800           0
     15410 MEMB     115      POPC     H16Z     HAL3     0.900000E-01   1.00800           0
     15411 MEMB     116      POPC     N        NTL     -0.600000       14.0070           0
     15412 MEMB     116      POPC     C12      CTL2    -0.100000       12.0110           0
     15413 MEMB     116      POPC     H12A     HL       0.250000       1.00800           0
     15414 MEMB     116      POPC     H12B     HL       0.250000       1.00800           0
     15415 MEMB     116      POPC     C13      CTL5    -0.350000       12.0110           0
     15416 MEMB     116      POPC     H13A     HL       0.250000       1.00800           0
     15417 MEMB     116      POPC     H13B     HL       0.250000       1.00800           0
     15418 MEMB     116      POPC     H13C     HL       0.250000       1.00800           0
     15419 MEMB     116      POPC     C14      CTL5    -0.350000       12.0110           0
     15420 MEMB     116      POPC     H14A     HL       0.250000       1.00800           0
     15421 MEMB     116      POPC     H14B     HL       0.250000       1.00800           0
     15422 MEMB     116      POPC     H14C     HL       0.250000       1.00800           0
     15423 MEMB     116      POPC     C15      CTL5    -0.350000       12.0110           0
     15424 MEMB     116      POPC     H15A     HL       0.250000       1.00800           0
     15425 MEMB     116      POPC     H15B     HL       0.250000       1.00800           0
     15426 MEMB     116      POPC     H15C     HL       0.250000       1.00800           0
     15427 MEMB     116      POPC     C11      CTL2    -0.800000E-01   12.0110           0
     15428 MEMB     116      POPC     H11A     HAL2     0.900000E-01   1.00800           0
     15429 MEMB     116      POPC     H11B     HAL2     0.900000E-01   1.00800           0
     15430 MEMB     116      POPC     P        PL       1.50000        30.9740           0
     15431 MEMB     116      POPC     O13      O2L     -0.780000       15.9994           0
     15432 MEMB     116      POPC     O14      O2L     -0.780000       15.9994           0
     15433 MEMB     116      POPC     O12      OSLP    -0.570000       15.9994           0
     15434 MEMB     116      POPC     O11      OSLP    -0.570000       15.9994           0
     15435 MEMB     116      POPC     C1       CTL2    -0.800000E-01   12.0110           0
     15436 MEMB     116      POPC     HA       HAL2     0.900000E-01   1.00800           0
     15437 MEMB     116      POPC     HB       HAL2     0.900000E-01   1.00800           0
     15438 MEMB     116      POPC     C2       CTL1     0.170000       12.0110           0
     15439 MEMB     116      POPC     HS       HAL1     0.900000E-01   1.00800           0
     15440 MEMB     116      POPC     O21      OSL     -0.490000       15.9994           0
     15441 MEMB     116      POPC     C21      CL       0.900000       12.0110           0
     15442 MEMB     116      POPC     O22      OBL     -0.630000       15.9994           0
     15443 MEMB     116      POPC     C22      CTL2    -0.220000       12.0110           0
     15444 MEMB     116      POPC     H2R      HAL2     0.900000E-01   1.00800           0
     15445 MEMB     116      POPC     H2S      HAL2     0.900000E-01   1.00800           0
     15446 MEMB     116      POPC     C3       CTL2     0.800000E-01   12.0110           0
     15447 MEMB     116      POPC     HX       HAL2     0.900000E-01   1.00800           0
     15448 MEMB     116      POPC     HY       HAL2     0.900000E-01   1.00800           0
     15449 MEMB     116      POPC     O31      OSL     -0.490000       15.9994           0
     15450 MEMB     116      POPC     C31      CL       0.900000       12.0110           0
     15451 MEMB     116      POPC     O32      OBL     -0.630000       15.9994           0
     15452 MEMB     116      POPC     C32      CTL2    -0.220000       12.0110           0
     15453 MEMB     116      POPC     H2X      HAL2     0.900000E-01   1.00800           0
     15454 MEMB     116      POPC     H2Y      HAL2     0.900000E-01   1.00800           0
     15455 MEMB     116      POPC     C23      CTL2    -0.180000       12.0110           0
     15456 MEMB     116      POPC     H3R      HAL2     0.900000E-01   1.00800           0
     15457 MEMB     116      POPC     H3S      HAL2     0.900000E-01   1.00800           0
     15458 MEMB     116      POPC     C24      CTL2    -0.180000       12.0110           0
     15459 MEMB     116      POPC     H4R      HAL2     0.900000E-01   1.00800           0
     15460 MEMB     116      POPC     H4S      HAL2     0.900000E-01   1.00800           0
     15461 MEMB     116      POPC     C25      CTL2    -0.180000       12.0110           0
     15462 MEMB     116      POPC     H5R      HAL2     0.900000E-01   1.00800           0
     15463 MEMB     116      POPC     H5S      HAL2     0.900000E-01   1.00800           0
     15464 MEMB     116      POPC     C26      CTL2    -0.180000       12.0110           0
     15465 MEMB     116      POPC     H6R      HAL2     0.900000E-01   1.00800           0
     15466 MEMB     116      POPC     H6S      HAL2     0.900000E-01   1.00800           0
     15467 MEMB     116      POPC     C27      CTL2    -0.180000       12.0110           0
     15468 MEMB     116      POPC     H7R      HAL2     0.900000E-01   1.00800           0
     15469 MEMB     116      POPC     H7S      HAL2     0.900000E-01   1.00800           0
     15470 MEMB     116      POPC     C28      CTL2    -0.180000       12.0110           0
     15471 MEMB     116      POPC     H8R      HAL2     0.900000E-01   1.00800           0
     15472 MEMB     116      POPC     H8S      HAL2     0.900000E-01   1.00800           0
     15473 MEMB     116      POPC     C29      CEL1    -0.150000       12.0110           0
     15474 MEMB     116      POPC     H91      HEL1     0.150000       1.00800           0
     15475 MEMB     116      POPC     C210     CEL1    -0.150000       12.0110           0
     15476 MEMB     116      POPC     H101     HEL1     0.150000       1.00800           0
     15477 MEMB     116      POPC     C211     CTL2    -0.180000       12.0110           0
     15478 MEMB     116      POPC     H11R     HAL2     0.900000E-01   1.00800           0
     15479 MEMB     116      POPC     H11S     HAL2     0.900000E-01   1.00800           0
     15480 MEMB     116      POPC     C212     CTL2    -0.180000       12.0110           0
     15481 MEMB     116      POPC     H12R     HAL2     0.900000E-01   1.00800           0
     15482 MEMB     116      POPC     H12S     HAL2     0.900000E-01   1.00800           0
     15483 MEMB     116      POPC     C213     CTL2    -0.180000       12.0110           0
     15484 MEMB     116      POPC     H13R     HAL2     0.900000E-01   1.00800           0
     15485 MEMB     116      POPC     H13S     HAL2     0.900000E-01   1.00800           0
     15486 MEMB     116      POPC     C214     CTL2    -0.180000       12.0110           0
     15487 MEMB     116      POPC     H14R     HAL2     0.900000E-01   1.00800           0
     15488 MEMB     116      POPC     H14S     HAL2     0.900000E-01   1.00800           0
     15489 MEMB     116      POPC     C215     CTL2    -0.180000       12.0110           0
     15490 MEMB     116      POPC     H15R     HAL2     0.900000E-01   1.00800           0
     15491 MEMB     116      POPC     H15S     HAL2     0.900000E-01   1.00800           0
     15492 MEMB     116      POPC     C216     CTL2    -0.180000       12.0110           0
     15493 MEMB     116      POPC     H16R     HAL2     0.900000E-01   1.00800           0
     15494 MEMB     116      POPC     H16S     HAL2     0.900000E-01   1.00800           0
     15495 MEMB     116      POPC     C217     CTL2    -0.180000       12.0110           0
     15496 MEMB     116      POPC     H17R     HAL2     0.900000E-01   1.00800           0
     15497 MEMB     116      POPC     H17S     HAL2     0.900000E-01   1.00800           0
     15498 MEMB     116      POPC     C218     CTL3    -0.270000       12.0110           0
     15499 MEMB     116      POPC     H18R     HAL3     0.900000E-01   1.00800           0
     15500 MEMB     116      POPC     H18S     HAL3     0.900000E-01   1.00800           0
     15501 MEMB     116      POPC     H18T     HAL3     0.900000E-01   1.00800           0
     15502 MEMB     116      POPC     C33      CTL2    -0.180000       12.0110           0
     15503 MEMB     116      POPC     H3X      HAL2     0.900000E-01   1.00800           0
     15504 MEMB     116      POPC     H3Y      HAL2     0.900000E-01   1.00800           0
     15505 MEMB     116      POPC     C34      CTL2    -0.180000       12.0110           0
     15506 MEMB     116      POPC     H4X      HAL2     0.900000E-01   1.00800           0
     15507 MEMB     116      POPC     H4Y      HAL2     0.900000E-01   1.00800           0
     15508 MEMB     116      POPC     C35      CTL2    -0.180000       12.0110           0
     15509 MEMB     116      POPC     H5X      HAL2     0.900000E-01   1.00800           0
     15510 MEMB     116      POPC     H5Y      HAL2     0.900000E-01   1.00800           0
     15511 MEMB     116      POPC     C36      CTL2    -0.180000       12.0110           0
     15512 MEMB     116      POPC     H6X      HAL2     0.900000E-01   1.00800           0
     15513 MEMB     116      POPC     H6Y      HAL2     0.900000E-01   1.00800           0
     15514 MEMB     116      POPC     C37      CTL2    -0.180000       12.0110           0
     15515 MEMB     116      POPC     H7X      HAL2     0.900000E-01   1.00800           0
     15516 MEMB     116      POPC     H7Y      HAL2     0.900000E-01   1.00800           0
     15517 MEMB     116      POPC     C38      CTL2    -0.180000       12.0110           0
     15518 MEMB     116      POPC     H8X      HAL2     0.900000E-01   1.00800           0
     15519 MEMB     116      POPC     H8Y      HAL2     0.900000E-01   1.00800           0
     15520 MEMB     116      POPC     C39      CTL2    -0.180000       12.0110           0
     15521 MEMB     116      POPC     H9X      HAL2     0.900000E-01   1.00800           0
     15522 MEMB     116      POPC     H9Y      HAL2     0.900000E-01   1.00800           0
     15523 MEMB     116      POPC     C310     CTL2    -0.180000       12.0110           0
     15524 MEMB     116      POPC     H10X     HAL2     0.900000E-01   1.00800           0
     15525 MEMB     116      POPC     H10Y     HAL2     0.900000E-01   1.00800           0
     15526 MEMB     116      POPC     C311     CTL2    -0.180000       12.0110           0
     15527 MEMB     116      POPC     H11X     HAL2     0.900000E-01   1.00800           0
     15528 MEMB     116      POPC     H11Y     HAL2     0.900000E-01   1.00800           0
     15529 MEMB     116      POPC     C312     CTL2    -0.180000       12.0110           0
     15530 MEMB     116      POPC     H12X     HAL2     0.900000E-01   1.00800           0
     15531 MEMB     116      POPC     H12Y     HAL2     0.900000E-01   1.00800           0
     15532 MEMB     116      POPC     C313     CTL2    -0.180000       12.0110           0
     15533 MEMB     116      POPC     H13X     HAL2     0.900000E-01   1.00800           0
     15534 MEMB     116      POPC     H13Y     HAL2     0.900000E-01   1.00800           0
     15535 MEMB     116      POPC     C314     CTL2    -0.180000       12.0110           0
     15536 MEMB     116      POPC     H14X     HAL2     0.900000E-01   1.00800           0
     15537 MEMB     116      POPC     H14Y     HAL2     0.900000E-01   1.00800           0
     15538 MEMB     116      POPC     C315     CTL2    -0.180000       12.0110           0
     15539 MEMB     116      POPC     H15X     HAL2     0.900000E-01   1.00800           0
     15540 MEMB     116      POPC     H15Y     HAL2     0.900000E-01   1.00800           0
     15541 MEMB     116      POPC     C316     CTL3    -0.270000       12.0110           0
     15542 MEMB     116      POPC     H16X     HAL3     0.900000E-01   1.00800           0
     15543 MEMB     116      POPC     H16Y     HAL3     0.900000E-01   1.00800           0
     15544 MEMB     116      POPC     H16Z     HAL3     0.900000E-01   1.00800           0
     15545 MEMB     117      POPC     N        NTL     -0.600000       14.0070           0
     15546 MEMB     117      POPC     C12      CTL2    -0.100000       12.0110           0
     15547 MEMB     117      POPC     H12A     HL       0.250000       1.00800           0
     15548 MEMB     117      POPC     H12B     HL       0.250000       1.00800           0
     15549 MEMB     117      POPC     C13      CTL5    -0.350000       12.0110           0
     15550 MEMB     117      POPC     H13A     HL       0.250000       1.00800           0
     15551 MEMB     117      POPC     H13B     HL       0.250000       1.00800           0
     15552 MEMB     117      POPC     H13C     HL       0.250000       1.00800           0
     15553 MEMB     117      POPC     C14      CTL5    -0.350000       12.0110           0
     15554 MEMB     117      POPC     H14A     HL       0.250000       1.00800           0
     15555 MEMB     117      POPC     H14B     HL       0.250000       1.00800           0
     15556 MEMB     117      POPC     H14C     HL       0.250000       1.00800           0
     15557 MEMB     117      POPC     C15      CTL5    -0.350000       12.0110           0
     15558 MEMB     117      POPC     H15A     HL       0.250000       1.00800           0
     15559 MEMB     117      POPC     H15B     HL       0.250000       1.00800           0
     15560 MEMB     117      POPC     H15C     HL       0.250000       1.00800           0
     15561 MEMB     117      POPC     C11      CTL2    -0.800000E-01   12.0110           0
     15562 MEMB     117      POPC     H11A     HAL2     0.900000E-01   1.00800           0
     15563 MEMB     117      POPC     H11B     HAL2     0.900000E-01   1.00800           0
     15564 MEMB     117      POPC     P        PL       1.50000        30.9740           0
     15565 MEMB     117      POPC     O13      O2L     -0.780000       15.9994           0
     15566 MEMB     117      POPC     O14      O2L     -0.780000       15.9994           0
     15567 MEMB     117      POPC     O12      OSLP    -0.570000       15.9994           0
     15568 MEMB     117      POPC     O11      OSLP    -0.570000       15.9994           0
     15569 MEMB     117      POPC     C1       CTL2    -0.800000E-01   12.0110           0
     15570 MEMB     117      POPC     HA       HAL2     0.900000E-01   1.00800           0
     15571 MEMB     117      POPC     HB       HAL2     0.900000E-01   1.00800           0
     15572 MEMB     117      POPC     C2       CTL1     0.170000       12.0110           0
     15573 MEMB     117      POPC     HS       HAL1     0.900000E-01   1.00800           0
     15574 MEMB     117      POPC     O21      OSL     -0.490000       15.9994           0
     15575 MEMB     117      POPC     C21      CL       0.900000       12.0110           0
     15576 MEMB     117      POPC     O22      OBL     -0.630000       15.9994           0
     15577 MEMB     117      POPC     C22      CTL2    -0.220000       12.0110           0
     15578 MEMB     117      POPC     H2R      HAL2     0.900000E-01   1.00800           0
     15579 MEMB     117      POPC     H2S      HAL2     0.900000E-01   1.00800           0
     15580 MEMB     117      POPC     C3       CTL2     0.800000E-01   12.0110           0
     15581 MEMB     117      POPC     HX       HAL2     0.900000E-01   1.00800           0
     15582 MEMB     117      POPC     HY       HAL2     0.900000E-01   1.00800           0
     15583 MEMB     117      POPC     O31      OSL     -0.490000       15.9994           0
     15584 MEMB     117      POPC     C31      CL       0.900000       12.0110           0
     15585 MEMB     117      POPC     O32      OBL     -0.630000       15.9994           0
     15586 MEMB     117      POPC     C32      CTL2    -0.220000       12.0110           0
     15587 MEMB     117      POPC     H2X      HAL2     0.900000E-01   1.00800           0
     15588 MEMB     117      POPC     H2Y      HAL2     0.900000E-01   1.00800           0
     15589 MEMB     117      POPC     C23      CTL2    -0.180000       12.0110           0
     15590 MEMB     117      POPC     H3R      HAL2     0.900000E-01   1.00800           0
     15591 MEMB     117      POPC     H3S      HAL2     0.900000E-01   1.00800           0
     15592 MEMB     117      POPC     C24      CTL2    -0.180000       12.0110           0
     15593 MEMB     117      POPC     H4R      HAL2     0.900000E-01   1.00800           0
     15594 MEMB     117      POPC     H4S      HAL2     0.900000E-01   1.00800           0
     15595 MEMB     117      POPC     C25      CTL2    -0.180000       12.0110           0
     15596 MEMB     117      POPC     H5R      HAL2     0.900000E-01   1.00800           0
     15597 MEMB     117      POPC     H5S      HAL2     0.900000E-01   1.00800           0
     15598 MEMB     117      POPC     C26      CTL2    -0.180000       12.0110           0
     15599 MEMB     117      POPC     H6R      HAL2     0.900000E-01   1.00800           0
     15600 MEMB     117      POPC     H6S      HAL2     0.900000E-01   1.00800           0
     15601 MEMB     117      POPC     C27      CTL2    -0.180000       12.0110           0
     15602 MEMB     117      POPC     H7R      HAL2     0.900000E-01   1.00800           0
     15603 MEMB     117      POPC     H7S      HAL2     0.900000E-01   1.00800           0
     15604 MEMB     117      POPC     C28      CTL2    -0.180000       12.0110           0
     15605 MEMB     117      POPC     H8R      HAL2     0.900000E-01   1.00800           0
     15606 MEMB     117      POPC     H8S      HAL2     0.900000E-01   1.00800           0
     15607 MEMB     117      POPC     C29      CEL1    -0.150000       12.0110           0
     15608 MEMB     117      POPC     H91      HEL1     0.150000       1.00800           0
     15609 MEMB     117      POPC     C210     CEL1    -0.150000       12.0110           0
     15610 MEMB     117      POPC     H101     HEL1     0.150000       1.00800           0
     15611 MEMB     117      POPC     C211     CTL2    -0.180000       12.0110           0
     15612 MEMB     117      POPC     H11R     HAL2     0.900000E-01   1.00800           0
     15613 MEMB     117      POPC     H11S     HAL2     0.900000E-01   1.00800           0
     15614 MEMB     117      POPC     C212     CTL2    -0.180000       12.0110           0
     15615 MEMB     117      POPC     H12R     HAL2     0.900000E-01   1.00800           0
     15616 MEMB     117      POPC     H12S     HAL2     0.900000E-01   1.00800           0
     15617 MEMB     117      POPC     C213     CTL2    -0.180000       12.0110           0
     15618 MEMB     117      POPC     H13R     HAL2     0.900000E-01   1.00800           0
     15619 MEMB     117      POPC     H13S     HAL2     0.900000E-01   1.00800           0
     15620 MEMB     117      POPC     C214     CTL2    -0.180000       12.0110           0
     15621 MEMB     117      POPC     H14R     HAL2     0.900000E-01   1.00800           0
     15622 MEMB     117      POPC     H14S     HAL2     0.900000E-01   1.00800           0
     15623 MEMB     117      POPC     C215     CTL2    -0.180000       12.0110           0
     15624 MEMB     117      POPC     H15R     HAL2     0.900000E-01   1.00800           0
     15625 MEMB     117      POPC     H15S     HAL2     0.900000E-01   1.00800           0
     15626 MEMB     117      POPC     C216     CTL2    -0.180000       12.0110           0
     15627 MEMB     117      POPC     H16R     HAL2     0.900000E-01   1.00800           0
     15628 MEMB     117      POPC     H16S     HAL2     0.900000E-01   1.00800           0
     15629 MEMB     117      POPC     C217     CTL2    -0.180000       12.0110           0
     15630 MEMB     117      POPC     H17R     HAL2     0.900000E-01   1.00800           0
     15631 MEMB     117      POPC     H17S     HAL2     0.900000E-01   1.00800           0
     15632 MEMB     117      POPC     C218     CTL3    -0.270000       12.0110           0
     15633 MEMB     117      POPC     H18R     HAL3     0.900000E-01   1.00800           0
     15634 MEMB     117      POPC     H18S     HAL3     0.900000E-01   1.00800           0
     15635 MEMB     117      POPC     H18T     HAL3     0.900000E-01   1.00800           0
     15636 MEMB     117      POPC     C33      CTL2    -0.180000       12.0110           0
     15637 MEMB     117      POPC     H3X      HAL2     0.900000E-01   1.00800           0
     15638 MEMB     117      POPC     H3Y      HAL2     0.900000E-01   1.00800           0
     15639 MEMB     117      POPC     C34      CTL2    -0.180000       12.0110           0
     15640 MEMB     117      POPC     H4X      HAL2     0.900000E-01   1.00800           0
     15641 MEMB     117      POPC     H4Y      HAL2     0.900000E-01   1.00800           0
     15642 MEMB     117      POPC     C35      CTL2    -0.180000       12.0110           0
     15643 MEMB     117      POPC     H5X      HAL2     0.900000E-01   1.00800           0
     15644 MEMB     117      POPC     H5Y      HAL2     0.900000E-01   1.00800           0
     15645 MEMB     117      POPC     C36      CTL2    -0.180000       12.0110           0
     15646 MEMB     117      POPC     H6X      HAL2     0.900000E-01   1.00800           0
     15647 MEMB     117      POPC     H6Y      HAL2     0.900000E-01   1.00800           0
     15648 MEMB     117      POPC     C37      CTL2    -0.180000       12.0110           0
     15649 MEMB     117      POPC     H7X      HAL2     0.900000E-01   1.00800           0
     15650 MEMB     117      POPC     H7Y      HAL2     0.900000E-01   1.00800           0
     15651 MEMB     117      POPC     C38      CTL2    -0.180000       12.0110           0
     15652 MEMB     117      POPC     H8X      HAL2     0.900000E-01   1.00800           0
     15653 MEMB     117      POPC     H8Y      HAL2     0.900000E-01   1.00800           0
     15654 MEMB     117      POPC     C39      CTL2    -0.180000       12.0110           0
     15655 MEMB     117      POPC     H9X      HAL2     0.900000E-01   1.00800           0
     15656 MEMB     117      POPC     H9Y      HAL2     0.900000E-01   1.00800           0
     15657 MEMB     117      POPC     C310     CTL2    -0.180000       12.0110           0
     15658 MEMB     117      POPC     H10X     HAL2     0.900000E-01   1.00800           0
     15659 MEMB     117      POPC     H10Y     HAL2     0.900000E-01   1.00800           0
     15660 MEMB     117      POPC     C311     CTL2    -0.180000       12.0110           0
     15661 MEMB     117      POPC     H11X     HAL2     0.900000E-01   1.00800           0
     15662 MEMB     117      POPC     H11Y     HAL2     0.900000E-01   1.00800           0
     15663 MEMB     117      POPC     C312     CTL2    -0.180000       12.0110           0
     15664 MEMB     117      POPC     H12X     HAL2     0.900000E-01   1.00800           0
     15665 MEMB     117      POPC     H12Y     HAL2     0.900000E-01   1.00800           0
     15666 MEMB     117      POPC     C313     CTL2    -0.180000       12.0110           0
     15667 MEMB     117      POPC     H13X     HAL2     0.900000E-01   1.00800           0
     15668 MEMB     117      POPC     H13Y     HAL2     0.900000E-01   1.00800           0
     15669 MEMB     117      POPC     C314     CTL2    -0.180000       12.0110           0
     15670 MEMB     117      POPC     H14X     HAL2     0.900000E-01   1.00800           0
     15671 MEMB     117      POPC     H14Y     HAL2     0.900000E-01   1.00800           0
     15672 MEMB     117      POPC     C315     CTL2    -0.180000       12.0110           0
     15673 MEMB     117      POPC     H15X     HAL2     0.900000E-01   1.00800           0
     15674 MEMB     117      POPC     H15Y     HAL2     0.900000E-01   1.00800           0
     15675 MEMB     117      POPC     C316     CTL3    -0.270000       12.0110           0
     15676 MEMB     117      POPC     H16X     HAL3     0.900000E-01   1.00800           0
     15677 MEMB     117      POPC     H16Y     HAL3     0.900000E-01   1.00800           0
     15678 MEMB     117      POPC     H16Z     HAL3     0.900000E-01   1.00800           0
     15679 MEMB     118      POPC     N        NTL     -0.600000       14.0070           0
     15680 MEMB     118      POPC     C12      CTL2    -0.100000       12.0110           0
     15681 MEMB     118      POPC     H12A     HL       0.250000       1.00800           0
     15682 MEMB     118      POPC     H12B     HL       0.250000       1.00800           0
     15683 MEMB     118      POPC     C13      CTL5    -0.350000       12.0110           0
     15684 MEMB     118      POPC     H13A     HL       0.250000       1.00800           0
     15685 MEMB     118      POPC     H13B     HL       0.250000       1.00800           0
     15686 MEMB     118      POPC     H13C     HL       0.250000       1.00800           0
     15687 MEMB     118      POPC     C14      CTL5    -0.350000       12.0110           0
     15688 MEMB     118      POPC     H14A     HL       0.250000       1.00800           0
     15689 MEMB     118      POPC     H14B     HL       0.250000       1.00800           0
     15690 MEMB     118      POPC     H14C     HL       0.250000       1.00800           0
     15691 MEMB     118      POPC     C15      CTL5    -0.350000       12.0110           0
     15692 MEMB     118      POPC     H15A     HL       0.250000       1.00800           0
     15693 MEMB     118      POPC     H15B     HL       0.250000       1.00800           0
     15694 MEMB     118      POPC     H15C     HL       0.250000       1.00800           0
     15695 MEMB     118      POPC     C11      CTL2    -0.800000E-01   12.0110           0
     15696 MEMB     118      POPC     H11A     HAL2     0.900000E-01   1.00800           0
     15697 MEMB     118      POPC     H11B     HAL2     0.900000E-01   1.00800           0
     15698 MEMB     118      POPC     P        PL       1.50000        30.9740           0
     15699 MEMB     118      POPC     O13      O2L     -0.780000       15.9994           0
     15700 MEMB     118      POPC     O14      O2L     -0.780000       15.9994           0
     15701 MEMB     118      POPC     O12      OSLP    -0.570000       15.9994           0
     15702 MEMB     118      POPC     O11      OSLP    -0.570000       15.9994           0
     15703 MEMB     118      POPC     C1       CTL2    -0.800000E-01   12.0110           0
     15704 MEMB     118      POPC     HA       HAL2     0.900000E-01   1.00800           0
     15705 MEMB     118      POPC     HB       HAL2     0.900000E-01   1.00800           0
     15706 MEMB     118      POPC     C2       CTL1     0.170000       12.0110           0
     15707 MEMB     118      POPC     HS       HAL1     0.900000E-01   1.00800           0
     15708 MEMB     118      POPC     O21      OSL     -0.490000       15.9994           0
     15709 MEMB     118      POPC     C21      CL       0.900000       12.0110           0
     15710 MEMB     118      POPC     O22      OBL     -0.630000       15.9994           0
     15711 MEMB     118      POPC     C22      CTL2    -0.220000       12.0110           0
     15712 MEMB     118      POPC     H2R      HAL2     0.900000E-01   1.00800           0
     15713 MEMB     118      POPC     H2S      HAL2     0.900000E-01   1.00800           0
     15714 MEMB     118      POPC     C3       CTL2     0.800000E-01   12.0110           0
     15715 MEMB     118      POPC     HX       HAL2     0.900000E-01   1.00800           0
     15716 MEMB     118      POPC     HY       HAL2     0.900000E-01   1.00800           0
     15717 MEMB     118      POPC     O31      OSL     -0.490000       15.9994           0
     15718 MEMB     118      POPC     C31      CL       0.900000       12.0110           0
     15719 MEMB     118      POPC     O32      OBL     -0.630000       15.9994           0
     15720 MEMB     118      POPC     C32      CTL2    -0.220000       12.0110           0
     15721 MEMB     118      POPC     H2X      HAL2     0.900000E-01   1.00800           0
     15722 MEMB     118      POPC     H2Y      HAL2     0.900000E-01   1.00800           0
     15723 MEMB     118      POPC     C23      CTL2    -0.180000       12.0110           0
     15724 MEMB     118      POPC     H3R      HAL2     0.900000E-01   1.00800           0
     15725 MEMB     118      POPC     H3S      HAL2     0.900000E-01   1.00800           0
     15726 MEMB     118      POPC     C24      CTL2    -0.180000       12.0110           0
     15727 MEMB     118      POPC     H4R      HAL2     0.900000E-01   1.00800           0
     15728 MEMB     118      POPC     H4S      HAL2     0.900000E-01   1.00800           0
     15729 MEMB     118      POPC     C25      CTL2    -0.180000       12.0110           0
     15730 MEMB     118      POPC     H5R      HAL2     0.900000E-01   1.00800           0
     15731 MEMB     118      POPC     H5S      HAL2     0.900000E-01   1.00800           0
     15732 MEMB     118      POPC     C26      CTL2    -0.180000       12.0110           0
     15733 MEMB     118      POPC     H6R      HAL2     0.900000E-01   1.00800           0
     15734 MEMB     118      POPC     H6S      HAL2     0.900000E-01   1.00800           0
     15735 MEMB     118      POPC     C27      CTL2    -0.180000       12.0110           0
     15736 MEMB     118      POPC     H7R      HAL2     0.900000E-01   1.00800           0
     15737 MEMB     118      POPC     H7S      HAL2     0.900000E-01   1.00800           0
     15738 MEMB     118      POPC     C28      CTL2    -0.180000       12.0110           0
     15739 MEMB     118      POPC     H8R      HAL2     0.900000E-01   1.00800           0
     15740 MEMB     118      POPC     H8S      HAL2     0.900000E-01   1.00800           0
     15741 MEMB     118      POPC     C29      CEL1    -0.150000       12.0110           0
     15742 MEMB     118      POPC     H91      HEL1     0.150000       1.00800           0
     15743 MEMB     118      POPC     C210     CEL1    -0.150000       12.0110           0
     15744 MEMB     118      POPC     H101     HEL1     0.150000       1.00800           0
     15745 MEMB     118      POPC     C211     CTL2    -0.180000       12.0110           0
     15746 MEMB     118      POPC     H11R     HAL2     0.900000E-01   1.00800           0
     15747 MEMB     118      POPC     H11S     HAL2     0.900000E-01   1.00800           0
     15748 MEMB     118      POPC     C212     CTL2    -0.180000       12.0110           0
     15749 MEMB     118      POPC     H12R     HAL2     0.900000E-01   1.00800           0
     15750 MEMB     118      POPC     H12S     HAL2     0.900000E-01   1.00800           0
     15751 MEMB     118      POPC     C213     CTL2    -0.180000       12.0110           0
     15752 MEMB     118      POPC     H13R     HAL2     0.900000E-01   1.00800           0
     15753 MEMB     118      POPC     H13S     HAL2     0.900000E-01   1.00800           0
     15754 MEMB     118      POPC     C214     CTL2    -0.180000       12.0110           0
     15755 MEMB     118      POPC     H14R     HAL2     0.900000E-01   1.00800           0
     15756 MEMB     118      POPC     H14S     HAL2     0.900000E-01   1.00800           0
     15757 MEMB     118      POPC     C215     CTL2    -0.180000       12.0110           0
     15758 MEMB     118      POPC     H15R     HAL2     0.900000E-01   1.00800           0
     15759 MEMB     118      POPC     H15S     HAL2     0.900000E-01   1.00800           0
     15760 MEMB     118      POPC     C216     CTL2    -0.180000       12.0110           0
     15761 MEMB     118      POPC     H16R     HAL2     0.900000E-01   1.00800           0
     15762 MEMB     118      POPC     H16S     HAL2     0.900000E-01   1.00800           0
     15763 MEMB     118      POPC     C217     CTL2    -0.180000       12.0110           0
     15764 MEMB     118      POPC     H17R     HAL2     0.900000E-01   1.00800           0
     15765 MEMB     118      POPC     H17S     HAL2     0.900000E-01   1.00800           0
     15766 MEMB     118      POPC     C218     CTL3    -0.270000       12.0110           0
     15767 MEMB     118      POPC     H18R     HAL3     0.900000E-01   1.00800           0
     15768 MEMB     118      POPC     H18S     HAL3     0.900000E-01   1.00800           0
     15769 MEMB     118      POPC     H18T     HAL3     0.900000E-01   1.00800           0
     15770 MEMB     118      POPC     C33      CTL2    -0.180000       12.0110           0
     15771 MEMB     118      POPC     H3X      HAL2     0.900000E-01   1.00800           0
     15772 MEMB     118      POPC     H3Y      HAL2     0.900000E-01   1.00800           0
     15773 MEMB     118      POPC     C34      CTL2    -0.180000       12.0110           0
     15774 MEMB     118      POPC     H4X      HAL2     0.900000E-01   1.00800           0
     15775 MEMB     118      POPC     H4Y      HAL2     0.900000E-01   1.00800           0
     15776 MEMB     118      POPC     C35      CTL2    -0.180000       12.0110           0
     15777 MEMB     118      POPC     H5X      HAL2     0.900000E-01   1.00800           0
     15778 MEMB     118      POPC     H5Y      HAL2     0.900000E-01   1.00800           0
     15779 MEMB     118      POPC     C36      CTL2    -0.180000       12.0110           0
     15780 MEMB     118      POPC     H6X      HAL2     0.900000E-01   1.00800           0
     15781 MEMB     118      POPC     H6Y      HAL2     0.900000E-01   1.00800           0
     15782 MEMB     118      POPC     C37      CTL2    -0.180000       12.0110           0
     15783 MEMB     118      POPC     H7X      HAL2     0.900000E-01   1.00800           0
     15784 MEMB     118      POPC     H7Y      HAL2     0.900000E-01   1.00800           0
     15785 MEMB     118      POPC     C38      CTL2    -0.180000       12.0110           0
     15786 MEMB     118      POPC     H8X      HAL2     0.900000E-01   1.00800           0
     15787 MEMB     118      POPC     H8Y      HAL2     0.900000E-01   1.00800           0
     15788 MEMB     118      POPC     C39      CTL2    -0.180000       12.0110           0
     15789 MEMB     118      POPC     H9X      HAL2     0.900000E-01   1.00800           0
     15790 MEMB     118      POPC     H9Y      HAL2     0.900000E-01   1.00800           0
     15791 MEMB     118      POPC     C310     CTL2    -0.180000       12.0110           0
     15792 MEMB     118      POPC     H10X     HAL2     0.900000E-01   1.00800           0
     15793 MEMB     118      POPC     H10Y     HAL2     0.900000E-01   1.00800           0
     15794 MEMB     118      POPC     C311     CTL2    -0.180000       12.0110           0
     15795 MEMB     118      POPC     H11X     HAL2     0.900000E-01   1.00800           0
     15796 MEMB     118      POPC     H11Y     HAL2     0.900000E-01   1.00800           0
     15797 MEMB     118      POPC     C312     CTL2    -0.180000       12.0110           0
     15798 MEMB     118      POPC     H12X     HAL2     0.900000E-01   1.00800           0
     15799 MEMB     118      POPC     H12Y     HAL2     0.900000E-01   1.00800           0
     15800 MEMB     118      POPC     C313     CTL2    -0.180000       12.0110           0
     15801 MEMB     118      POPC     H13X     HAL2     0.900000E-01   1.00800           0
     15802 MEMB     118      POPC     H13Y     HAL2     0.900000E-01   1.00800           0
     15803 MEMB     118      POPC     C314     CTL2    -0.180000       12.0110           0
     15804 MEMB     118      POPC     H14X     HAL2     0.900000E-01   1.00800           0
     15805 MEMB     118      POPC     H14Y     HAL2     0.900000E-01   1.00800           0
     15806 MEMB     118      POPC     C315     CTL2    -0.180000       12.0110           0
     15807 MEMB     118      POPC     H15X     HAL2     0.900000E-01   1.00800           0
     15808 MEMB     118      POPC     H15Y     HAL2     0.900000E-01   1.00800           0
     15809 MEMB     118      POPC     C316     CTL3    -0.270000       12.0110           0
     15810 MEMB     118      POPC     H16X     HAL3     0.900000E-01   1.00800           0
     15811 MEMB     118      POPC     H16Y     HAL3     0.900000E-01   1.00800           0
     15812 MEMB     118      POPC     H16Z     HAL3     0.900000E-01   1.00800           0
     15813 MEMB     119      POPC     N        NTL     -0.600000       14.0070           0
     15814 MEMB     119      POPC     C12      CTL2    -0.100000       12.0110           0
     15815 MEMB     119      POPC     H12A     HL       0.250000       1.00800           0
     15816 MEMB     119      POPC     H12B     HL       0.250000       1.00800           0
     15817 MEMB     119      POPC     C13      CTL5    -0.350000       12.0110           0
     15818 MEMB     119      POPC     H13A     HL       0.250000       1.00800           0
     15819 MEMB     119      POPC     H13B     HL       0.250000       1.00800           0
     15820 MEMB     119      POPC     H13C     HL       0.250000       1.00800           0
     15821 MEMB     119      POPC     C14      CTL5    -0.350000       12.0110           0
     15822 MEMB     119      POPC     H14A     HL       0.250000       1.00800           0
     15823 MEMB     119      POPC     H14B     HL       0.250000       1.00800           0
     15824 MEMB     119      POPC     H14C     HL       0.250000       1.00800           0
     15825 MEMB     119      POPC     C15      CTL5    -0.350000       12.0110           0
     15826 MEMB     119      POPC     H15A     HL       0.250000       1.00800           0
     15827 MEMB     119      POPC     H15B     HL       0.250000       1.00800           0
     15828 MEMB     119      POPC     H15C     HL       0.250000       1.00800           0
     15829 MEMB     119      POPC     C11      CTL2    -0.800000E-01   12.0110           0
     15830 MEMB     119      POPC     H11A     HAL2     0.900000E-01   1.00800           0
     15831 MEMB     119      POPC     H11B     HAL2     0.900000E-01   1.00800           0
     15832 MEMB     119      POPC     P        PL       1.50000        30.9740           0
     15833 MEMB     119      POPC     O13      O2L     -0.780000       15.9994           0
     15834 MEMB     119      POPC     O14      O2L     -0.780000       15.9994           0
     15835 MEMB     119      POPC     O12      OSLP    -0.570000       15.9994           0
     15836 MEMB     119      POPC     O11      OSLP    -0.570000       15.9994           0
     15837 MEMB     119      POPC     C1       CTL2    -0.800000E-01   12.0110           0
     15838 MEMB     119      POPC     HA       HAL2     0.900000E-01   1.00800           0
     15839 MEMB     119      POPC     HB       HAL2     0.900000E-01   1.00800           0
     15840 MEMB     119      POPC     C2       CTL1     0.170000       12.0110           0
     15841 MEMB     119      POPC     HS       HAL1     0.900000E-01   1.00800           0
     15842 MEMB     119      POPC     O21      OSL     -0.490000       15.9994           0
     15843 MEMB     119      POPC     C21      CL       0.900000       12.0110           0
     15844 MEMB     119      POPC     O22      OBL     -0.630000       15.9994           0
     15845 MEMB     119      POPC     C22      CTL2    -0.220000       12.0110           0
     15846 MEMB     119      POPC     H2R      HAL2     0.900000E-01   1.00800           0
     15847 MEMB     119      POPC     H2S      HAL2     0.900000E-01   1.00800           0
     15848 MEMB     119      POPC     C3       CTL2     0.800000E-01   12.0110           0
     15849 MEMB     119      POPC     HX       HAL2     0.900000E-01   1.00800           0
     15850 MEMB     119      POPC     HY       HAL2     0.900000E-01   1.00800           0
     15851 MEMB     119      POPC     O31      OSL     -0.490000       15.9994           0
     15852 MEMB     119      POPC     C31      CL       0.900000       12.0110           0
     15853 MEMB     119      POPC     O32      OBL     -0.630000       15.9994           0
     15854 MEMB     119      POPC     C32      CTL2    -0.220000       12.0110           0
     15855 MEMB     119      POPC     H2X      HAL2     0.900000E-01   1.00800           0
     15856 MEMB     119      POPC     H2Y      HAL2     0.900000E-01   1.00800           0
     15857 MEMB     119      POPC     C23      CTL2    -0.180000       12.0110           0
     15858 MEMB     119      POPC     H3R      HAL2     0.900000E-01   1.00800           0
     15859 MEMB     119      POPC     H3S      HAL2     0.900000E-01   1.00800           0
     15860 MEMB     119      POPC     C24      CTL2    -0.180000       12.0110           0
     15861 MEMB     119      POPC     H4R      HAL2     0.900000E-01   1.00800           0
     15862 MEMB     119      POPC     H4S      HAL2     0.900000E-01   1.00800           0
     15863 MEMB     119      POPC     C25      CTL2    -0.180000       12.0110           0
     15864 MEMB     119      POPC     H5R      HAL2     0.900000E-01   1.00800           0
     15865 MEMB     119      POPC     H5S      HAL2     0.900000E-01   1.00800           0
     15866 MEMB     119      POPC     C26      CTL2    -0.180000       12.0110           0
     15867 MEMB     119      POPC     H6R      HAL2     0.900000E-01   1.00800           0
     15868 MEMB     119      POPC     H6S      HAL2     0.900000E-01   1.00800           0
     15869 MEMB     119      POPC     C27      CTL2    -0.180000       12.0110           0
     15870 MEMB     119      POPC     H7R      HAL2     0.900000E-01   1.00800           0
     15871 MEMB     119      POPC     H7S      HAL2     0.900000E-01   1.00800           0
     15872 MEMB     119      POPC     C28      CTL2    -0.180000       12.0110           0
     15873 MEMB     119      POPC     H8R      HAL2     0.900000E-01   1.00800           0
     15874 MEMB     119      POPC     H8S      HAL2     0.900000E-01   1.00800           0
     15875 MEMB     119      POPC     C29      CEL1    -0.150000       12.0110           0
     15876 MEMB     119      POPC     H91      HEL1     0.150000       1.00800           0
     15877 MEMB     119      POPC     C210     CEL1    -0.150000       12.0110           0
     15878 MEMB     119      POPC     H101     HEL1     0.150000       1.00800           0
     15879 MEMB     119      POPC     C211     CTL2    -0.180000       12.0110           0
     15880 MEMB     119      POPC     H11R     HAL2     0.900000E-01   1.00800           0
     15881 MEMB     119      POPC     H11S     HAL2     0.900000E-01   1.00800           0
     15882 MEMB     119      POPC     C212     CTL2    -0.180000       12.0110           0
     15883 MEMB     119      POPC     H12R     HAL2     0.900000E-01   1.00800           0
     15884 MEMB     119      POPC     H12S     HAL2     0.900000E-01   1.00800           0
     15885 MEMB     119      POPC     C213     CTL2    -0.180000       12.0110           0
     15886 MEMB     119      POPC     H13R     HAL2     0.900000E-01   1.00800           0
     15887 MEMB     119      POPC     H13S     HAL2     0.900000E-01   1.00800           0
     15888 MEMB     119      POPC     C214     CTL2    -0.180000       12.0110           0
     15889 MEMB     119      POPC     H14R     HAL2     0.900000E-01   1.00800           0
     15890 MEMB     119      POPC     H14S     HAL2     0.900000E-01   1.00800           0
     15891 MEMB     119      POPC     C215     CTL2    -0.180000       12.0110           0
     15892 MEMB     119      POPC     H15R     HAL2     0.900000E-01   1.00800           0
     15893 MEMB     119      POPC     H15S     HAL2     0.900000E-01   1.00800           0
     15894 MEMB     119      POPC     C216     CTL2    -0.180000       12.0110           0
     15895 MEMB     119      POPC     H16R     HAL2     0.900000E-01   1.00800           0
     15896 MEMB     119      POPC     H16S     HAL2     0.900000E-01   1.00800           0
     15897 MEMB     119      POPC     C217     CTL2    -0.180000       12.0110           0
     15898 MEMB     119      POPC     H17R     HAL2     0.900000E-01   1.00800           0
     15899 MEMB     119      POPC     H17S     HAL2     0.900000E-01   1.00800           0
     15900 MEMB     119      POPC     C218     CTL3    -0.270000       12.0110           0
     15901 MEMB     119      POPC     H18R     HAL3     0.900000E-01   1.00800           0
     15902 MEMB     119      POPC     H18S     HAL3     0.900000E-01   1.00800           0
     15903 MEMB     119      POPC     H18T     HAL3     0.900000E-01   1.00800           0
     15904 MEMB     119      POPC     C33      CTL2    -0.180000       12.0110           0
     15905 MEMB     119      POPC     H3X      HAL2     0.900000E-01   1.00800           0
     15906 MEMB     119      POPC     H3Y      HAL2     0.900000E-01   1.00800           0
     15907 MEMB     119      POPC     C34      CTL2    -0.180000       12.0110           0
     15908 MEMB     119      POPC     H4X      HAL2     0.900000E-01   1.00800           0
     15909 MEMB     119      POPC     H4Y      HAL2     0.900000E-01   1.00800           0
     15910 MEMB     119      POPC     C35      CTL2    -0.180000       12.0110           0
     15911 MEMB     119      POPC     H5X      HAL2     0.900000E-01   1.00800           0
     15912 MEMB     119      POPC     H5Y      HAL2     0.900000E-01   1.00800           0
     15913 MEMB     119      POPC     C36      CTL2    -0.180000       12.0110           0
     15914 MEMB     119      POPC     H6X      HAL2     0.900000E-01   1.00800           0
     15915 MEMB     119      POPC     H6Y      HAL2     0.900000E-01   1.00800           0
     15916 MEMB     119      POPC     C37      CTL2    -0.180000       12.0110           0
     15917 MEMB     119      POPC     H7X      HAL2     0.900000E-01   1.00800           0
     15918 MEMB     119      POPC     H7Y      HAL2     0.900000E-01   1.00800           0
     15919 MEMB     119      POPC     C38      CTL2    -0.180000       12.0110           0
     15920 MEMB     119      POPC     H8X      HAL2     0.900000E-01   1.00800           0
     15921 MEMB     119      POPC     H8Y      HAL2     0.900000E-01   1.00800           0
     15922 MEMB     119      POPC     C39      CTL2    -0.180000       12.0110           0
     15923 MEMB     119      POPC     H9X      HAL2     0.900000E-01   1.00800           0
     15924 MEMB     119      POPC     H9Y      HAL2     0.900000E-01   1.00800           0
     15925 MEMB     119      POPC     C310     CTL2    -0.180000       12.0110           0
     15926 MEMB     119      POPC     H10X     HAL2     0.900000E-01   1.00800           0
     15927 MEMB     119      POPC     H10Y     HAL2     0.900000E-01   1.00800           0
     15928 MEMB     119      POPC     C311     CTL2    -0.180000       12.0110           0
     15929 MEMB     119      POPC     H11X     HAL2     0.900000E-01   1.00800           0
     15930 MEMB     119      POPC     H11Y     HAL2     0.900000E-01   1.00800           0
     15931 MEMB     119      POPC     C312     CTL2    -0.180000       12.0110           0
     15932 MEMB     119      POPC     H12X     HAL2     0.900000E-01   1.00800           0
     15933 MEMB     119      POPC     H12Y     HAL2     0.900000E-01   1.00800           0
     15934 MEMB     119      POPC     C313     CTL2    -0.180000       12.0110           0
     15935 MEMB     119      POPC     H13X     HAL2     0.900000E-01   1.00800           0
     15936 MEMB     119      POPC     H13Y     HAL2     0.900000E-01   1.00800           0
     15937 MEMB     119      POPC     C314     CTL2    -0.180000       12.0110           0
     15938 MEMB     119      POPC     H14X     HAL2     0.900000E-01   1.00800           0
     15939 MEMB     119      POPC     H14Y     HAL2     0.900000E-01   1.00800           0
     15940 MEMB     119      POPC     C315     CTL2    -0.180000       12.0110           0
     15941 MEMB     119      POPC     H15X     HAL2     0.900000E-01   1.00800           0
     15942 MEMB     119      POPC     H15Y     HAL2     0.900000E-01   1.00800           0
     15943 MEMB     119      POPC     C316     CTL3    -0.270000       12.0110           0
     15944 MEMB     119      POPC     H16X     HAL3     0.900000E-01   1.00800           0
     15945 MEMB     119      POPC     H16Y     HAL3     0.900000E-01   1.00800           0
     15946 MEMB     119      POPC     H16Z     HAL3     0.900000E-01   1.00800           0
     15947 MEMB     120      POPC     N        NTL     -0.600000       14.0070           0
     15948 MEMB     120      POPC     C12      CTL2    -0.100000       12.0110           0
     15949 MEMB     120      POPC     H12A     HL       0.250000       1.00800           0
     15950 MEMB     120      POPC     H12B     HL       0.250000       1.00800           0
     15951 MEMB     120      POPC     C13      CTL5    -0.350000       12.0110           0
     15952 MEMB     120      POPC     H13A     HL       0.250000       1.00800           0
     15953 MEMB     120      POPC     H13B     HL       0.250000       1.00800           0
     15954 MEMB     120      POPC     H13C     HL       0.250000       1.00800           0
     15955 MEMB     120      POPC     C14      CTL5    -0.350000       12.0110           0
     15956 MEMB     120      POPC     H14A     HL       0.250000       1.00800           0
     15957 MEMB     120      POPC     H14B     HL       0.250000       1.00800           0
     15958 MEMB     120      POPC     H14C     HL       0.250000       1.00800           0
     15959 MEMB     120      POPC     C15      CTL5    -0.350000       12.0110           0
     15960 MEMB     120      POPC     H15A     HL       0.250000       1.00800           0
     15961 MEMB     120      POPC     H15B     HL       0.250000       1.00800           0
     15962 MEMB     120      POPC     H15C     HL       0.250000       1.00800           0
     15963 MEMB     120      POPC     C11      CTL2    -0.800000E-01   12.0110           0
     15964 MEMB     120      POPC     H11A     HAL2     0.900000E-01   1.00800           0
     15965 MEMB     120      POPC     H11B     HAL2     0.900000E-01   1.00800           0
     15966 MEMB     120      POPC     P        PL       1.50000        30.9740           0
     15967 MEMB     120      POPC     O13      O2L     -0.780000       15.9994           0
     15968 MEMB     120      POPC     O14      O2L     -0.780000       15.9994           0
     15969 MEMB     120      POPC     O12      OSLP    -0.570000       15.9994           0
     15970 MEMB     120      POPC     O11      OSLP    -0.570000       15.9994           0
     15971 MEMB     120      POPC     C1       CTL2    -0.800000E-01   12.0110           0
     15972 MEMB     120      POPC     HA       HAL2     0.900000E-01   1.00800           0
     15973 MEMB     120      POPC     HB       HAL2     0.900000E-01   1.00800           0
     15974 MEMB     120      POPC     C2       CTL1     0.170000       12.0110           0
     15975 MEMB     120      POPC     HS       HAL1     0.900000E-01   1.00800           0
     15976 MEMB     120      POPC     O21      OSL     -0.490000       15.9994           0
     15977 MEMB     120      POPC     C21      CL       0.900000       12.0110           0
     15978 MEMB     120      POPC     O22      OBL     -0.630000       15.9994           0
     15979 MEMB     120      POPC     C22      CTL2    -0.220000       12.0110           0
     15980 MEMB     120      POPC     H2R      HAL2     0.900000E-01   1.00800           0
     15981 MEMB     120      POPC     H2S      HAL2     0.900000E-01   1.00800           0
     15982 MEMB     120      POPC     C3       CTL2     0.800000E-01   12.0110           0
     15983 MEMB     120      POPC     HX       HAL2     0.900000E-01   1.00800           0
     15984 MEMB     120      POPC     HY       HAL2     0.900000E-01   1.00800           0
     15985 MEMB     120      POPC     O31      OSL     -0.490000       15.9994           0
     15986 MEMB     120      POPC     C31      CL       0.900000       12.0110           0
     15987 MEMB     120      POPC     O32      OBL     -0.630000       15.9994           0
     15988 MEMB     120      POPC     C32      CTL2    -0.220000       12.0110           0
     15989 MEMB     120      POPC     H2X      HAL2     0.900000E-01   1.00800           0
     15990 MEMB     120      POPC     H2Y      HAL2     0.900000E-01   1.00800           0
     15991 MEMB     120      POPC     C23      CTL2    -0.180000       12.0110           0
     15992 MEMB     120      POPC     H3R      HAL2     0.900000E-01   1.00800           0
     15993 MEMB     120      POPC     H3S      HAL2     0.900000E-01   1.00800           0
     15994 MEMB     120      POPC     C24      CTL2    -0.180000       12.0110           0
     15995 MEMB     120      POPC     H4R      HAL2     0.900000E-01   1.00800           0
     15996 MEMB     120      POPC     H4S      HAL2     0.900000E-01   1.00800           0
     15997 MEMB     120      POPC     C25      CTL2    -0.180000       12.0110           0
     15998 MEMB     120      POPC     H5R      HAL2     0.900000E-01   1.00800           0
     15999 MEMB     120      POPC     H5S      HAL2     0.900000E-01   1.00800           0
     16000 MEMB     120      POPC     C26      CTL2    -0.180000       12.0110           0
     16001 MEMB     120      POPC     H6R      HAL2     0.900000E-01   1.00800           0
     16002 MEMB     120      POPC     H6S      HAL2     0.900000E-01   1.00800           0
     16003 MEMB     120      POPC     C27      CTL2    -0.180000       12.0110           0
     16004 MEMB     120      POPC     H7R      HAL2     0.900000E-01   1.00800           0
     16005 MEMB     120      POPC     H7S      HAL2     0.900000E-01   1.00800           0
     16006 MEMB     120      POPC     C28      CTL2    -0.180000       12.0110           0
     16007 MEMB     120      POPC     H8R      HAL2     0.900000E-01   1.00800           0
     16008 MEMB     120      POPC     H8S      HAL2     0.900000E-01   1.00800           0
     16009 MEMB     120      POPC     C29      CEL1    -0.150000       12.0110           0
     16010 MEMB     120      POPC     H91      HEL1     0.150000       1.00800           0
     16011 MEMB     120      POPC     C210     CEL1    -0.150000       12.0110           0
     16012 MEMB     120      POPC     H101     HEL1     0.150000       1.00800           0
     16013 MEMB     120      POPC     C211     CTL2    -0.180000       12.0110           0
     16014 MEMB     120      POPC     H11R     HAL2     0.900000E-01   1.00800           0
     16015 MEMB     120      POPC     H11S     HAL2     0.900000E-01   1.00800           0
     16016 MEMB     120      POPC     C212     CTL2    -0.180000       12.0110           0
     16017 MEMB     120      POPC     H12R     HAL2     0.900000E-01   1.00800           0
     16018 MEMB     120      POPC     H12S     HAL2     0.900000E-01   1.00800           0
     16019 MEMB     120      POPC     C213     CTL2    -0.180000       12.0110           0
     16020 MEMB     120      POPC     H13R     HAL2     0.900000E-01   1.00800           0
     16021 MEMB     120      POPC     H13S     HAL2     0.900000E-01   1.00800           0
     16022 MEMB     120      POPC     C214     CTL2    -0.180000       12.0110           0
     16023 MEMB     120      POPC     H14R     HAL2     0.900000E-01   1.00800           0
     16024 MEMB     120      POPC     H14S     HAL2     0.900000E-01   1.00800           0
     16025 MEMB     120      POPC     C215     CTL2    -0.180000       12.0110           0
     16026 MEMB     120      POPC     H15R     HAL2     0.900000E-01   1.00800           0
     16027 MEMB     120      POPC     H15S     HAL2     0.900000E-01   1.00800           0
     16028 MEMB     120      POPC     C216     CTL2    -0.180000       12.0110           0
     16029 MEMB     120      POPC     H16R     HAL2     0.900000E-01   1.00800           0
     16030 MEMB     120      POPC     H16S     HAL2     0.900000E-01   1.00800           0
     16031 MEMB     120      POPC     C217     CTL2    -0.180000       12.0110           0
     16032 MEMB     120      POPC     H17R     HAL2     0.900000E-01   1.00800           0
     16033 MEMB     120      POPC     H17S     HAL2     0.900000E-01   1.00800           0
     16034 MEMB     120      POPC     C218     CTL3    -0.270000       12.0110           0
     16035 MEMB     120      POPC     H18R     HAL3     0.900000E-01   1.00800           0
     16036 MEMB     120      POPC     H18S     HAL3     0.900000E-01   1.00800           0
     16037 MEMB     120      POPC     H18T     HAL3     0.900000E-01   1.00800           0
     16038 MEMB     120      POPC     C33      CTL2    -0.180000       12.0110           0
     16039 MEMB     120      POPC     H3X      HAL2     0.900000E-01   1.00800           0
     16040 MEMB     120      POPC     H3Y      HAL2     0.900000E-01   1.00800           0
     16041 MEMB     120      POPC     C34      CTL2    -0.180000       12.0110           0
     16042 MEMB     120      POPC     H4X      HAL2     0.900000E-01   1.00800           0
     16043 MEMB     120      POPC     H4Y      HAL2     0.900000E-01   1.00800           0
     16044 MEMB     120      POPC     C35      CTL2    -0.180000       12.0110           0
     16045 MEMB     120      POPC     H5X      HAL2     0.900000E-01   1.00800           0
     16046 MEMB     120      POPC     H5Y      HAL2     0.900000E-01   1.00800           0
     16047 MEMB     120      POPC     C36      CTL2    -0.180000       12.0110           0
     16048 MEMB     120      POPC     H6X      HAL2     0.900000E-01   1.00800           0
     16049 MEMB     120      POPC     H6Y      HAL2     0.900000E-01   1.00800           0
     16050 MEMB     120      POPC     C37      CTL2    -0.180000       12.0110           0
     16051 MEMB     120      POPC     H7X      HAL2     0.900000E-01   1.00800           0
     16052 MEMB     120      POPC     H7Y      HAL2     0.900000E-01   1.00800           0
     16053 MEMB     120      POPC     C38      CTL2    -0.180000       12.0110           0
     16054 MEMB     120      POPC     H8X      HAL2     0.900000E-01   1.00800           0
     16055 MEMB     120      POPC     H8Y      HAL2     0.900000E-01   1.00800           0
     16056 MEMB     120      POPC     C39      CTL2    -0.180000       12.0110           0
     16057 MEMB     120      POPC     H9X      HAL2     0.900000E-01   1.00800           0
     16058 MEMB     120      POPC     H9Y      HAL2     0.900000E-01   1.00800           0
     16059 MEMB     120      POPC     C310     CTL2    -0.180000       12.0110           0
     16060 MEMB     120      POPC     H10X     HAL2     0.900000E-01   1.00800           0
     16061 MEMB     120      POPC     H10Y     HAL2     0.900000E-01   1.00800           0
     16062 MEMB     120      POPC     C311     CTL2    -0.180000       12.0110           0
     16063 MEMB     120      POPC     H11X     HAL2     0.900000E-01   1.00800           0
     16064 MEMB     120      POPC     H11Y     HAL2     0.900000E-01   1.00800           0
     16065 MEMB     120      POPC     C312     CTL2    -0.180000       12.0110           0
     16066 MEMB     120      POPC     H12X     HAL2     0.900000E-01   1.00800           0
     16067 MEMB     120      POPC     H12Y     HAL2     0.900000E-01   1.00800           0
     16068 MEMB     120      POPC     C313     CTL2    -0.180000       12.0110           0
     16069 MEMB     120      POPC     H13X     HAL2     0.900000E-01   1.00800           0
     16070 MEMB     120      POPC     H13Y     HAL2     0.900000E-01   1.00800           0
     16071 MEMB     120      POPC     C314     CTL2    -0.180000       12.0110           0
     16072 MEMB     120      POPC     H14X     HAL2     0.900000E-01   1.00800           0
     16073 MEMB     120      POPC     H14Y     HAL2     0.900000E-01   1.00800           0
     16074 MEMB     120      POPC     C315     CTL2    -0.180000       12.0110           0
     16075 MEMB     120      POPC     H15X     HAL2     0.900000E-01   1.00800           0
     16076 MEMB     120      POPC     H15Y     HAL2     0.900000E-01   1.00800           0
     16077 MEMB     120      POPC     C316     CTL3    -0.270000       12.0110           0
     16078 MEMB     120      POPC     H16X     HAL3     0.900000E-01   1.00800           0
     16079 MEMB     120      POPC     H16Y     HAL3     0.900000E-01   1.00800           0
     16080 MEMB     120      POPC     H16Z     HAL3     0.900000E-01   1.00800           0
     16081 MEMB     121      POPC     N        NTL     -0.600000       14.0070           0
     16082 MEMB     121      POPC     C12      CTL2    -0.100000       12.0110           0
     16083 MEMB     121      POPC     H12A     HL       0.250000       1.00800           0
     16084 MEMB     121      POPC     H12B     HL       0.250000       1.00800           0
     16085 MEMB     121      POPC     C13      CTL5    -0.350000       12.0110           0
     16086 MEMB     121      POPC     H13A     HL       0.250000       1.00800           0
     16087 MEMB     121      POPC     H13B     HL       0.250000       1.00800           0
     16088 MEMB     121      POPC     H13C     HL       0.250000       1.00800           0
     16089 MEMB     121      POPC     C14      CTL5    -0.350000       12.0110           0
     16090 MEMB     121      POPC     H14A     HL       0.250000       1.00800           0
     16091 MEMB     121      POPC     H14B     HL       0.250000       1.00800           0
     16092 MEMB     121      POPC     H14C     HL       0.250000       1.00800           0
     16093 MEMB     121      POPC     C15      CTL5    -0.350000       12.0110           0
     16094 MEMB     121      POPC     H15A     HL       0.250000       1.00800           0
     16095 MEMB     121      POPC     H15B     HL       0.250000       1.00800           0
     16096 MEMB     121      POPC     H15C     HL       0.250000       1.00800           0
     16097 MEMB     121      POPC     C11      CTL2    -0.800000E-01   12.0110           0
     16098 MEMB     121      POPC     H11A     HAL2     0.900000E-01   1.00800           0
     16099 MEMB     121      POPC     H11B     HAL2     0.900000E-01   1.00800           0
     16100 MEMB     121      POPC     P        PL       1.50000        30.9740           0
     16101 MEMB     121      POPC     O13      O2L     -0.780000       15.9994           0
     16102 MEMB     121      POPC     O14      O2L     -0.780000       15.9994           0
     16103 MEMB     121      POPC     O12      OSLP    -0.570000       15.9994           0
     16104 MEMB     121      POPC     O11      OSLP    -0.570000       15.9994           0
     16105 MEMB     121      POPC     C1       CTL2    -0.800000E-01   12.0110           0
     16106 MEMB     121      POPC     HA       HAL2     0.900000E-01   1.00800           0
     16107 MEMB     121      POPC     HB       HAL2     0.900000E-01   1.00800           0
     16108 MEMB     121      POPC     C2       CTL1     0.170000       12.0110           0
     16109 MEMB     121      POPC     HS       HAL1     0.900000E-01   1.00800           0
     16110 MEMB     121      POPC     O21      OSL     -0.490000       15.9994           0
     16111 MEMB     121      POPC     C21      CL       0.900000       12.0110           0
     16112 MEMB     121      POPC     O22      OBL     -0.630000       15.9994           0
     16113 MEMB     121      POPC     C22      CTL2    -0.220000       12.0110           0
     16114 MEMB     121      POPC     H2R      HAL2     0.900000E-01   1.00800           0
     16115 MEMB     121      POPC     H2S      HAL2     0.900000E-01   1.00800           0
     16116 MEMB     121      POPC     C3       CTL2     0.800000E-01   12.0110           0
     16117 MEMB     121      POPC     HX       HAL2     0.900000E-01   1.00800           0
     16118 MEMB     121      POPC     HY       HAL2     0.900000E-01   1.00800           0
     16119 MEMB     121      POPC     O31      OSL     -0.490000       15.9994           0
     16120 MEMB     121      POPC     C31      CL       0.900000       12.0110           0
     16121 MEMB     121      POPC     O32      OBL     -0.630000       15.9994           0
     16122 MEMB     121      POPC     C32      CTL2    -0.220000       12.0110           0
     16123 MEMB     121      POPC     H2X      HAL2     0.900000E-01   1.00800           0
     16124 MEMB     121      POPC     H2Y      HAL2     0.900000E-01   1.00800           0
     16125 MEMB     121      POPC     C23      CTL2    -0.180000       12.0110           0
     16126 MEMB     121      POPC     H3R      HAL2     0.900000E-01   1.00800           0
     16127 MEMB     121      POPC     H3S      HAL2     0.900000E-01   1.00800           0
     16128 MEMB     121      POPC     C24      CTL2    -0.180000       12.0110           0
     16129 MEMB     121      POPC     H4R      HAL2     0.900000E-01   1.00800           0
     16130 MEMB     121      POPC     H4S      HAL2     0.900000E-01   1.00800           0
     16131 MEMB     121      POPC     C25      CTL2    -0.180000       12.0110           0
     16132 MEMB     121      POPC     H5R      HAL2     0.900000E-01   1.00800           0
     16133 MEMB     121      POPC     H5S      HAL2     0.900000E-01   1.00800           0
     16134 MEMB     121      POPC     C26      CTL2    -0.180000       12.0110           0
     16135 MEMB     121      POPC     H6R      HAL2     0.900000E-01   1.00800           0
     16136 MEMB     121      POPC     H6S      HAL2     0.900000E-01   1.00800           0
     16137 MEMB     121      POPC     C27      CTL2    -0.180000       12.0110           0
     16138 MEMB     121      POPC     H7R      HAL2     0.900000E-01   1.00800           0
     16139 MEMB     121      POPC     H7S      HAL2     0.900000E-01   1.00800           0
     16140 MEMB     121      POPC     C28      CTL2    -0.180000       12.0110           0
     16141 MEMB     121      POPC     H8R      HAL2     0.900000E-01   1.00800           0
     16142 MEMB     121      POPC     H8S      HAL2     0.900000E-01   1.00800           0
     16143 MEMB     121      POPC     C29      CEL1    -0.150000       12.0110           0
     16144 MEMB     121      POPC     H91      HEL1     0.150000       1.00800           0
     16145 MEMB     121      POPC     C210     CEL1    -0.150000       12.0110           0
     16146 MEMB     121      POPC     H101     HEL1     0.150000       1.00800           0
     16147 MEMB     121      POPC     C211     CTL2    -0.180000       12.0110           0
     16148 MEMB     121      POPC     H11R     HAL2     0.900000E-01   1.00800           0
     16149 MEMB     121      POPC     H11S     HAL2     0.900000E-01   1.00800           0
     16150 MEMB     121      POPC     C212     CTL2    -0.180000       12.0110           0
     16151 MEMB     121      POPC     H12R     HAL2     0.900000E-01   1.00800           0
     16152 MEMB     121      POPC     H12S     HAL2     0.900000E-01   1.00800           0
     16153 MEMB     121      POPC     C213     CTL2    -0.180000       12.0110           0
     16154 MEMB     121      POPC     H13R     HAL2     0.900000E-01   1.00800           0
     16155 MEMB     121      POPC     H13S     HAL2     0.900000E-01   1.00800           0
     16156 MEMB     121      POPC     C214     CTL2    -0.180000       12.0110           0
     16157 MEMB     121      POPC     H14R     HAL2     0.900000E-01   1.00800           0
     16158 MEMB     121      POPC     H14S     HAL2     0.900000E-01   1.00800           0
     16159 MEMB     121      POPC     C215     CTL2    -0.180000       12.0110           0
     16160 MEMB     121      POPC     H15R     HAL2     0.900000E-01   1.00800           0
     16161 MEMB     121      POPC     H15S     HAL2     0.900000E-01   1.00800           0
     16162 MEMB     121      POPC     C216     CTL2    -0.180000       12.0110           0
     16163 MEMB     121      POPC     H16R     HAL2     0.900000E-01   1.00800           0
     16164 MEMB     121      POPC     H16S     HAL2     0.900000E-01   1.00800           0
     16165 MEMB     121      POPC     C217     CTL2    -0.180000       12.0110           0
     16166 MEMB     121      POPC     H17R     HAL2     0.900000E-01   1.00800           0
     16167 MEMB     121      POPC     H17S     HAL2     0.900000E-01   1.00800           0
     16168 MEMB     121      POPC     C218     CTL3    -0.270000       12.0110           0
     16169 MEMB     121      POPC     H18R     HAL3     0.900000E-01   1.00800           0
     16170 MEMB     121      POPC     H18S     HAL3     0.900000E-01   1.00800           0
     16171 MEMB     121      POPC     H18T     HAL3     0.900000E-01   1.00800           0
     16172 MEMB     121      POPC     C33      CTL2    -0.180000       12.0110           0
     16173 MEMB     121      POPC     H3X      HAL2     0.900000E-01   1.00800           0
     16174 MEMB     121      POPC     H3Y      HAL2     0.900000E-01   1.00800           0
     16175 MEMB     121      POPC     C34      CTL2    -0.180000       12.0110           0
     16176 MEMB     121      POPC     H4X      HAL2     0.900000E-01   1.00800           0
     16177 MEMB     121      POPC     H4Y      HAL2     0.900000E-01   1.00800           0
     16178 MEMB     121      POPC     C35      CTL2    -0.180000       12.0110           0
     16179 MEMB     121      POPC     H5X      HAL2     0.900000E-01   1.00800           0
     16180 MEMB     121      POPC     H5Y      HAL2     0.900000E-01   1.00800           0
     16181 MEMB     121      POPC     C36      CTL2    -0.180000       12.0110           0
     16182 MEMB     121      POPC     H6X      HAL2     0.900000E-01   1.00800           0
     16183 MEMB     121      POPC     H6Y      HAL2     0.900000E-01   1.00800           0
     16184 MEMB     121      POPC     C37      CTL2    -0.180000       12.0110           0
     16185 MEMB     121      POPC     H7X      HAL2     0.900000E-01   1.00800           0
     16186 MEMB     121      POPC     H7Y      HAL2     0.900000E-01   1.00800           0
     16187 MEMB     121      POPC     C38      CTL2    -0.180000       12.0110           0
     16188 MEMB     121      POPC     H8X      HAL2     0.900000E-01   1.00800           0
     16189 MEMB     121      POPC     H8Y      HAL2     0.900000E-01   1.00800           0
     16190 MEMB     121      POPC     C39      CTL2    -0.180000       12.0110           0
     16191 MEMB     121      POPC     H9X      HAL2     0.900000E-01   1.00800           0
     16192 MEMB     121      POPC     H9Y      HAL2     0.900000E-01   1.00800           0
     16193 MEMB     121      POPC     C310     CTL2    -0.180000       12.0110           0
     16194 MEMB     121      POPC     H10X     HAL2     0.900000E-01   1.00800           0
     16195 MEMB     121      POPC     H10Y     HAL2     0.900000E-01   1.00800           0
     16196 MEMB     121      POPC     C311     CTL2    -0.180000       12.0110           0
     16197 MEMB     121      POPC     H11X     HAL2     0.900000E-01   1.00800           0
     16198 MEMB     121      POPC     H11Y     HAL2     0.900000E-01   1.00800           0
     16199 MEMB     121      POPC     C312     CTL2    -0.180000       12.0110           0
     16200 MEMB     121      POPC     H12X     HAL2     0.900000E-01   1.00800           0
     16201 MEMB     121      POPC     H12Y     HAL2     0.900000E-01   1.00800           0
     16202 MEMB     121      POPC     C313     CTL2    -0.180000       12.0110           0
     16203 MEMB     121      POPC     H13X     HAL2     0.900000E-01   1.00800           0
     16204 MEMB     121      POPC     H13Y     HAL2     0.900000E-01   1.00800           0
     16205 MEMB     121      POPC     C314     CTL2    -0.180000       12.0110           0
     16206 MEMB     121      POPC     H14X     HAL2     0.900000E-01   1.00800           0
     16207 MEMB     121      POPC     H14Y     HAL2     0.900000E-01   1.00800           0
     16208 MEMB     121      POPC     C315     CTL2    -0.180000       12.0110           0
     16209 MEMB     121      POPC     H15X     HAL2     0.900000E-01   1.00800           0
     16210 MEMB     121      POPC     H15Y     HAL2     0.900000E-01   1.00800           0
     16211 MEMB     121      POPC     C316     CTL3    -0.270000       12.0110           0
     16212 MEMB     121      POPC     H16X     HAL3     0.900000E-01   1.00800           0
     16213 MEMB     121      POPC     H16Y     HAL3     0.900000E-01   1.00800           0
     16214 MEMB     121      POPC     H16Z     HAL3     0.900000E-01   1.00800           0
     16215 MEMB     122      POPC     N        NTL     -0.600000       14.0070           0
     16216 MEMB     122      POPC     C12      CTL2    -0.100000       12.0110           0
     16217 MEMB     122      POPC     H12A     HL       0.250000       1.00800           0
     16218 MEMB     122      POPC     H12B     HL       0.250000       1.00800           0
     16219 MEMB     122      POPC     C13      CTL5    -0.350000       12.0110           0
     16220 MEMB     122      POPC     H13A     HL       0.250000       1.00800           0
     16221 MEMB     122      POPC     H13B     HL       0.250000       1.00800           0
     16222 MEMB     122      POPC     H13C     HL       0.250000       1.00800           0
     16223 MEMB     122      POPC     C14      CTL5    -0.350000       12.0110           0
     16224 MEMB     122      POPC     H14A     HL       0.250000       1.00800           0
     16225 MEMB     122      POPC     H14B     HL       0.250000       1.00800           0
     16226 MEMB     122      POPC     H14C     HL       0.250000       1.00800           0
     16227 MEMB     122      POPC     C15      CTL5    -0.350000       12.0110           0
     16228 MEMB     122      POPC     H15A     HL       0.250000       1.00800           0
     16229 MEMB     122      POPC     H15B     HL       0.250000       1.00800           0
     16230 MEMB     122      POPC     H15C     HL       0.250000       1.00800           0
     16231 MEMB     122      POPC     C11      CTL2    -0.800000E-01   12.0110           0
     16232 MEMB     122      POPC     H11A     HAL2     0.900000E-01   1.00800           0
     16233 MEMB     122      POPC     H11B     HAL2     0.900000E-01   1.00800           0
     16234 MEMB     122      POPC     P        PL       1.50000        30.9740           0
     16235 MEMB     122      POPC     O13      O2L     -0.780000       15.9994           0
     16236 MEMB     122      POPC     O14      O2L     -0.780000       15.9994           0
     16237 MEMB     122      POPC     O12      OSLP    -0.570000       15.9994           0
     16238 MEMB     122      POPC     O11      OSLP    -0.570000       15.9994           0
     16239 MEMB     122      POPC     C1       CTL2    -0.800000E-01   12.0110           0
     16240 MEMB     122      POPC     HA       HAL2     0.900000E-01   1.00800           0
     16241 MEMB     122      POPC     HB       HAL2     0.900000E-01   1.00800           0
     16242 MEMB     122      POPC     C2       CTL1     0.170000       12.0110           0
     16243 MEMB     122      POPC     HS       HAL1     0.900000E-01   1.00800           0
     16244 MEMB     122      POPC     O21      OSL     -0.490000       15.9994           0
     16245 MEMB     122      POPC     C21      CL       0.900000       12.0110           0
     16246 MEMB     122      POPC     O22      OBL     -0.630000       15.9994           0
     16247 MEMB     122      POPC     C22      CTL2    -0.220000       12.0110           0
     16248 MEMB     122      POPC     H2R      HAL2     0.900000E-01   1.00800           0
     16249 MEMB     122      POPC     H2S      HAL2     0.900000E-01   1.00800           0
     16250 MEMB     122      POPC     C3       CTL2     0.800000E-01   12.0110           0
     16251 MEMB     122      POPC     HX       HAL2     0.900000E-01   1.00800           0
     16252 MEMB     122      POPC     HY       HAL2     0.900000E-01   1.00800           0
     16253 MEMB     122      POPC     O31      OSL     -0.490000       15.9994           0
     16254 MEMB     122      POPC     C31      CL       0.900000       12.0110           0
     16255 MEMB     122      POPC     O32      OBL     -0.630000       15.9994           0
     16256 MEMB     122      POPC     C32      CTL2    -0.220000       12.0110           0
     16257 MEMB     122      POPC     H2X      HAL2     0.900000E-01   1.00800           0
     16258 MEMB     122      POPC     H2Y      HAL2     0.900000E-01   1.00800           0
     16259 MEMB     122      POPC     C23      CTL2    -0.180000       12.0110           0
     16260 MEMB     122      POPC     H3R      HAL2     0.900000E-01   1.00800           0
     16261 MEMB     122      POPC     H3S      HAL2     0.900000E-01   1.00800           0
     16262 MEMB     122      POPC     C24      CTL2    -0.180000       12.0110           0
     16263 MEMB     122      POPC     H4R      HAL2     0.900000E-01   1.00800           0
     16264 MEMB     122      POPC     H4S      HAL2     0.900000E-01   1.00800           0
     16265 MEMB     122      POPC     C25      CTL2    -0.180000       12.0110           0
     16266 MEMB     122      POPC     H5R      HAL2     0.900000E-01   1.00800           0
     16267 MEMB     122      POPC     H5S      HAL2     0.900000E-01   1.00800           0
     16268 MEMB     122      POPC     C26      CTL2    -0.180000       12.0110           0
     16269 MEMB     122      POPC     H6R      HAL2     0.900000E-01   1.00800           0
     16270 MEMB     122      POPC     H6S      HAL2     0.900000E-01   1.00800           0
     16271 MEMB     122      POPC     C27      CTL2    -0.180000       12.0110           0
     16272 MEMB     122      POPC     H7R      HAL2     0.900000E-01   1.00800           0
     16273 MEMB     122      POPC     H7S      HAL2     0.900000E-01   1.00800           0
     16274 MEMB     122      POPC     C28      CTL2    -0.180000       12.0110           0
     16275 MEMB     122      POPC     H8R      HAL2     0.900000E-01   1.00800           0
     16276 MEMB     122      POPC     H8S      HAL2     0.900000E-01   1.00800           0
     16277 MEMB     122      POPC     C29      CEL1    -0.150000       12.0110           0
     16278 MEMB     122      POPC     H91      HEL1     0.150000       1.00800           0
     16279 MEMB     122      POPC     C210     CEL1    -0.150000       12.0110           0
     16280 MEMB     122      POPC     H101     HEL1     0.150000       1.00800           0
     16281 MEMB     122      POPC     C211     CTL2    -0.180000       12.0110           0
     16282 MEMB     122      POPC     H11R     HAL2     0.900000E-01   1.00800           0
     16283 MEMB     122      POPC     H11S     HAL2     0.900000E-01   1.00800           0
     16284 MEMB     122      POPC     C212     CTL2    -0.180000       12.0110           0
     16285 MEMB     122      POPC     H12R     HAL2     0.900000E-01   1.00800           0
     16286 MEMB     122      POPC     H12S     HAL2     0.900000E-01   1.00800           0
     16287 MEMB     122      POPC     C213     CTL2    -0.180000       12.0110           0
     16288 MEMB     122      POPC     H13R     HAL2     0.900000E-01   1.00800           0
     16289 MEMB     122      POPC     H13S     HAL2     0.900000E-01   1.00800           0
     16290 MEMB     122      POPC     C214     CTL2    -0.180000       12.0110           0
     16291 MEMB     122      POPC     H14R     HAL2     0.900000E-01   1.00800           0
     16292 MEMB     122      POPC     H14S     HAL2     0.900000E-01   1.00800           0
     16293 MEMB     122      POPC     C215     CTL2    -0.180000       12.0110           0
     16294 MEMB     122      POPC     H15R     HAL2     0.900000E-01   1.00800           0
     16295 MEMB     122      POPC     H15S     HAL2     0.900000E-01   1.00800           0
     16296 MEMB     122      POPC     C216     CTL2    -0.180000       12.0110           0
     16297 MEMB     122      POPC     H16R     HAL2     0.900000E-01   1.00800           0
     16298 MEMB     122      POPC     H16S     HAL2     0.900000E-01   1.00800           0
     16299 MEMB     122      POPC     C217     CTL2    -0.180000       12.0110           0
     16300 MEMB     122      POPC     H17R     HAL2     0.900000E-01   1.00800           0
     16301 MEMB     122      POPC     H17S     HAL2     0.900000E-01   1.00800           0
     16302 MEMB     122      POPC     C218     CTL3    -0.270000       12.0110           0
     16303 MEMB     122      POPC     H18R     HAL3     0.900000E-01   1.00800           0
     16304 MEMB     122      POPC     H18S     HAL3     0.900000E-01   1.00800           0
     16305 MEMB     122      POPC     H18T     HAL3     0.900000E-01   1.00800           0
     16306 MEMB     122      POPC     C33      CTL2    -0.180000       12.0110           0
     16307 MEMB     122      POPC     H3X      HAL2     0.900000E-01   1.00800           0
     16308 MEMB     122      POPC     H3Y      HAL2     0.900000E-01   1.00800           0
     16309 MEMB     122      POPC     C34      CTL2    -0.180000       12.0110           0
     16310 MEMB     122      POPC     H4X      HAL2     0.900000E-01   1.00800           0
     16311 MEMB     122      POPC     H4Y      HAL2     0.900000E-01   1.00800           0
     16312 MEMB     122      POPC     C35      CTL2    -0.180000       12.0110           0
     16313 MEMB     122      POPC     H5X      HAL2     0.900000E-01   1.00800           0
     16314 MEMB     122      POPC     H5Y      HAL2     0.900000E-01   1.00800           0
     16315 MEMB     122      POPC     C36      CTL2    -0.180000       12.0110           0
     16316 MEMB     122      POPC     H6X      HAL2     0.900000E-01   1.00800           0
     16317 MEMB     122      POPC     H6Y      HAL2     0.900000E-01   1.00800           0
     16318 MEMB     122      POPC     C37      CTL2    -0.180000       12.0110           0
     16319 MEMB     122      POPC     H7X      HAL2     0.900000E-01   1.00800           0
     16320 MEMB     122      POPC     H7Y      HAL2     0.900000E-01   1.00800           0
     16321 MEMB     122      POPC     C38      CTL2    -0.180000       12.0110           0
     16322 MEMB     122      POPC     H8X      HAL2     0.900000E-01   1.00800           0
     16323 MEMB     122      POPC     H8Y      HAL2     0.900000E-01   1.00800           0
     16324 MEMB     122      POPC     C39      CTL2    -0.180000       12.0110           0
     16325 MEMB     122      POPC     H9X      HAL2     0.900000E-01   1.00800           0
     16326 MEMB     122      POPC     H9Y      HAL2     0.900000E-01   1.00800           0
     16327 MEMB     122      POPC     C310     CTL2    -0.180000       12.0110           0
     16328 MEMB     122      POPC     H10X     HAL2     0.900000E-01   1.00800           0
     16329 MEMB     122      POPC     H10Y     HAL2     0.900000E-01   1.00800           0
     16330 MEMB     122      POPC     C311     CTL2    -0.180000       12.0110           0
     16331 MEMB     122      POPC     H11X     HAL2     0.900000E-01   1.00800           0
     16332 MEMB     122      POPC     H11Y     HAL2     0.900000E-01   1.00800           0
     16333 MEMB     122      POPC     C312     CTL2    -0.180000       12.0110           0
     16334 MEMB     122      POPC     H12X     HAL2     0.900000E-01   1.00800           0
     16335 MEMB     122      POPC     H12Y     HAL2     0.900000E-01   1.00800           0
     16336 MEMB     122      POPC     C313     CTL2    -0.180000       12.0110           0
     16337 MEMB     122      POPC     H13X     HAL2     0.900000E-01   1.00800           0
     16338 MEMB     122      POPC     H13Y     HAL2     0.900000E-01   1.00800           0
     16339 MEMB     122      POPC     C314     CTL2    -0.180000       12.0110           0
     16340 MEMB     122      POPC     H14X     HAL2     0.900000E-01   1.00800           0
     16341 MEMB     122      POPC     H14Y     HAL2     0.900000E-01   1.00800           0
     16342 MEMB     122      POPC     C315     CTL2    -0.180000       12.0110           0
     16343 MEMB     122      POPC     H15X     HAL2     0.900000E-01   1.00800           0
     16344 MEMB     122      POPC     H15Y     HAL2     0.900000E-01   1.00800           0
     16345 MEMB     122      POPC     C316     CTL3    -0.270000       12.0110           0
     16346 MEMB     122      POPC     H16X     HAL3     0.900000E-01   1.00800           0
     16347 MEMB     122      POPC     H16Y     HAL3     0.900000E-01   1.00800           0
     16348 MEMB     122      POPC     H16Z     HAL3     0.900000E-01   1.00800           0
     16349 MEMB     123      POPC     N        NTL     -0.600000       14.0070           0
     16350 MEMB     123      POPC     C12      CTL2    -0.100000       12.0110           0
     16351 MEMB     123      POPC     H12A     HL       0.250000       1.00800           0
     16352 MEMB     123      POPC     H12B     HL       0.250000       1.00800           0
     16353 MEMB     123      POPC     C13      CTL5    -0.350000       12.0110           0
     16354 MEMB     123      POPC     H13A     HL       0.250000       1.00800           0
     16355 MEMB     123      POPC     H13B     HL       0.250000       1.00800           0
     16356 MEMB     123      POPC     H13C     HL       0.250000       1.00800           0
     16357 MEMB     123      POPC     C14      CTL5    -0.350000       12.0110           0
     16358 MEMB     123      POPC     H14A     HL       0.250000       1.00800           0
     16359 MEMB     123      POPC     H14B     HL       0.250000       1.00800           0
     16360 MEMB     123      POPC     H14C     HL       0.250000       1.00800           0
     16361 MEMB     123      POPC     C15      CTL5    -0.350000       12.0110           0
     16362 MEMB     123      POPC     H15A     HL       0.250000       1.00800           0
     16363 MEMB     123      POPC     H15B     HL       0.250000       1.00800           0
     16364 MEMB     123      POPC     H15C     HL       0.250000       1.00800           0
     16365 MEMB     123      POPC     C11      CTL2    -0.800000E-01   12.0110           0
     16366 MEMB     123      POPC     H11A     HAL2     0.900000E-01   1.00800           0
     16367 MEMB     123      POPC     H11B     HAL2     0.900000E-01   1.00800           0
     16368 MEMB     123      POPC     P        PL       1.50000        30.9740           0
     16369 MEMB     123      POPC     O13      O2L     -0.780000       15.9994           0
     16370 MEMB     123      POPC     O14      O2L     -0.780000       15.9994           0
     16371 MEMB     123      POPC     O12      OSLP    -0.570000       15.9994           0
     16372 MEMB     123      POPC     O11      OSLP    -0.570000       15.9994           0
     16373 MEMB     123      POPC     C1       CTL2    -0.800000E-01   12.0110           0
     16374 MEMB     123      POPC     HA       HAL2     0.900000E-01   1.00800           0
     16375 MEMB     123      POPC     HB       HAL2     0.900000E-01   1.00800           0
     16376 MEMB     123      POPC     C2       CTL1     0.170000       12.0110           0
     16377 MEMB     123      POPC     HS       HAL1     0.900000E-01   1.00800           0
     16378 MEMB     123      POPC     O21      OSL     -0.490000       15.9994           0
     16379 MEMB     123      POPC     C21      CL       0.900000       12.0110           0
     16380 MEMB     123      POPC     O22      OBL     -0.630000       15.9994           0
     16381 MEMB     123      POPC     C22      CTL2    -0.220000       12.0110           0
     16382 MEMB     123      POPC     H2R      HAL2     0.900000E-01   1.00800           0
     16383 MEMB     123      POPC     H2S      HAL2     0.900000E-01   1.00800           0
     16384 MEMB     123      POPC     C3       CTL2     0.800000E-01   12.0110           0
     16385 MEMB     123      POPC     HX       HAL2     0.900000E-01   1.00800           0
     16386 MEMB     123      POPC     HY       HAL2     0.900000E-01   1.00800           0
     16387 MEMB     123      POPC     O31      OSL     -0.490000       15.9994           0
     16388 MEMB     123      POPC     C31      CL       0.900000       12.0110           0
     16389 MEMB     123      POPC     O32      OBL     -0.630000       15.9994           0
     16390 MEMB     123      POPC     C32      CTL2    -0.220000       12.0110           0
     16391 MEMB     123      POPC     H2X      HAL2     0.900000E-01   1.00800           0
     16392 MEMB     123      POPC     H2Y      HAL2     0.900000E-01   1.00800           0
     16393 MEMB     123      POPC     C23      CTL2    -0.180000       12.0110           0
     16394 MEMB     123      POPC     H3R      HAL2     0.900000E-01   1.00800           0
     16395 MEMB     123      POPC     H3S      HAL2     0.900000E-01   1.00800           0
     16396 MEMB     123      POPC     C24      CTL2    -0.180000       12.0110           0
     16397 MEMB     123      POPC     H4R      HAL2     0.900000E-01   1.00800           0
     16398 MEMB     123      POPC     H4S      HAL2     0.900000E-01   1.00800           0
     16399 MEMB     123      POPC     C25      CTL2    -0.180000       12.0110           0
     16400 MEMB     123      POPC     H5R      HAL2     0.900000E-01   1.00800           0
     16401 MEMB     123      POPC     H5S      HAL2     0.900000E-01   1.00800           0
     16402 MEMB     123      POPC     C26      CTL2    -0.180000       12.0110           0
     16403 MEMB     123      POPC     H6R      HAL2     0.900000E-01   1.00800           0
     16404 MEMB     123      POPC     H6S      HAL2     0.900000E-01   1.00800           0
     16405 MEMB     123      POPC     C27      CTL2    -0.180000       12.0110           0
     16406 MEMB     123      POPC     H7R      HAL2     0.900000E-01   1.00800           0
     16407 MEMB     123      POPC     H7S      HAL2     0.900000E-01   1.00800           0
     16408 MEMB     123      POPC     C28      CTL2    -0.180000       12.0110           0
     16409 MEMB     123      POPC     H8R      HAL2     0.900000E-01   1.00800           0
     16410 MEMB     123      POPC     H8S      HAL2     0.900000E-01   1.00800           0
     16411 MEMB     123      POPC     C29      CEL1    -0.150000       12.0110           0
     16412 MEMB     123      POPC     H91      HEL1     0.150000       1.00800           0
     16413 MEMB     123      POPC     C210     CEL1    -0.150000       12.0110           0
     16414 MEMB     123      POPC     H101     HEL1     0.150000       1.00800           0
     16415 MEMB     123      POPC     C211     CTL2    -0.180000       12.0110           0
     16416 MEMB     123      POPC     H11R     HAL2     0.900000E-01   1.00800           0
     16417 MEMB     123      POPC     H11S     HAL2     0.900000E-01   1.00800           0
     16418 MEMB     123      POPC     C212     CTL2    -0.180000       12.0110           0
     16419 MEMB     123      POPC     H12R     HAL2     0.900000E-01   1.00800           0
     16420 MEMB     123      POPC     H12S     HAL2     0.900000E-01   1.00800           0
     16421 MEMB     123      POPC     C213     CTL2    -0.180000       12.0110           0
     16422 MEMB     123      POPC     H13R     HAL2     0.900000E-01   1.00800           0
     16423 MEMB     123      POPC     H13S     HAL2     0.900000E-01   1.00800           0
     16424 MEMB     123      POPC     C214     CTL2    -0.180000       12.0110           0
     16425 MEMB     123      POPC     H14R     HAL2     0.900000E-01   1.00800           0
     16426 MEMB     123      POPC     H14S     HAL2     0.900000E-01   1.00800           0
     16427 MEMB     123      POPC     C215     CTL2    -0.180000       12.0110           0
     16428 MEMB     123      POPC     H15R     HAL2     0.900000E-01   1.00800           0
     16429 MEMB     123      POPC     H15S     HAL2     0.900000E-01   1.00800           0
     16430 MEMB     123      POPC     C216     CTL2    -0.180000       12.0110           0
     16431 MEMB     123      POPC     H16R     HAL2     0.900000E-01   1.00800           0
     16432 MEMB     123      POPC     H16S     HAL2     0.900000E-01   1.00800           0
     16433 MEMB     123      POPC     C217     CTL2    -0.180000       12.0110           0
     16434 MEMB     123      POPC     H17R     HAL2     0.900000E-01   1.00800           0
     16435 MEMB     123      POPC     H17S     HAL2     0.900000E-01   1.00800           0
     16436 MEMB     123      POPC     C218     CTL3    -0.270000       12.0110           0
     16437 MEMB     123      POPC     H18R     HAL3     0.900000E-01   1.00800           0
     16438 MEMB     123      POPC     H18S     HAL3     0.900000E-01   1.00800           0
     16439 MEMB     123      POPC     H18T     HAL3     0.900000E-01   1.00800           0
     16440 MEMB     123      POPC     C33      CTL2    -0.180000       12.0110           0
     16441 MEMB     123      POPC     H3X      HAL2     0.900000E-01   1.00800           0
     16442 MEMB     123      POPC     H3Y      HAL2     0.900000E-01   1.00800           0
     16443 MEMB     123      POPC     C34      CTL2    -0.180000       12.0110           0
     16444 MEMB     123      POPC     H4X      HAL2     0.900000E-01   1.00800           0
     16445 MEMB     123      POPC     H4Y      HAL2     0.900000E-01   1.00800           0
     16446 MEMB     123      POPC     C35      CTL2    -0.180000       12.0110           0
     16447 MEMB     123      POPC     H5X      HAL2     0.900000E-01   1.00800           0
     16448 MEMB     123      POPC     H5Y      HAL2     0.900000E-01   1.00800           0
     16449 MEMB     123      POPC     C36      CTL2    -0.180000       12.0110           0
     16450 MEMB     123      POPC     H6X      HAL2     0.900000E-01   1.00800           0
     16451 MEMB     123      POPC     H6Y      HAL2     0.900000E-01   1.00800           0
     16452 MEMB     123      POPC     C37      CTL2    -0.180000       12.0110           0
     16453 MEMB     123      POPC     H7X      HAL2     0.900000E-01   1.00800           0
     16454 MEMB     123      POPC     H7Y      HAL2     0.900000E-01   1.00800           0
     16455 MEMB     123      POPC     C38      CTL2    -0.180000       12.0110           0
     16456 MEMB     123      POPC     H8X      HAL2     0.900000E-01   1.00800           0
     16457 MEMB     123      POPC     H8Y      HAL2     0.900000E-01   1.00800           0
     16458 MEMB     123      POPC     C39      CTL2    -0.180000       12.0110           0
     16459 MEMB     123      POPC     H9X      HAL2     0.900000E-01   1.00800           0
     16460 MEMB     123      POPC     H9Y      HAL2     0.900000E-01   1.00800           0
     16461 MEMB     123      POPC     C310     CTL2    -0.180000       12.0110           0
     16462 MEMB     123      POPC     H10X     HAL2     0.900000E-01   1.00800           0
     16463 MEMB     123      POPC     H10Y     HAL2     0.900000E-01   1.00800           0
     16464 MEMB     123      POPC     C311     CTL2    -0.180000       12.0110           0
     16465 MEMB     123      POPC     H11X     HAL2     0.900000E-01   1.00800           0
     16466 MEMB     123      POPC     H11Y     HAL2     0.900000E-01   1.00800           0
     16467 MEMB     123      POPC     C312     CTL2    -0.180000       12.0110           0
     16468 MEMB     123      POPC     H12X     HAL2     0.900000E-01   1.00800           0
     16469 MEMB     123      POPC     H12Y     HAL2     0.900000E-01   1.00800           0
     16470 MEMB     123      POPC     C313     CTL2    -0.180000       12.0110           0
     16471 MEMB     123      POPC     H13X     HAL2     0.900000E-01   1.00800           0
     16472 MEMB     123      POPC     H13Y     HAL2     0.900000E-01   1.00800           0
     16473 MEMB     123      POPC     C314     CTL2    -0.180000       12.0110           0
     16474 MEMB     123      POPC     H14X     HAL2     0.900000E-01   1.00800           0
     16475 MEMB     123      POPC     H14Y     HAL2     0.900000E-01   1.00800           0
     16476 MEMB     123      POPC     C315     CTL2    -0.180000       12.0110           0
     16477 MEMB     123      POPC     H15X     HAL2     0.900000E-01   1.00800           0
     16478 MEMB     123      POPC     H15Y     HAL2     0.900000E-01   1.00800           0
     16479 MEMB     123      POPC     C316     CTL3    -0.270000       12.0110           0
     16480 MEMB     123      POPC     H16X     HAL3     0.900000E-01   1.00800           0
     16481 MEMB     123      POPC     H16Y     HAL3     0.900000E-01   1.00800           0
     16482 MEMB     123      POPC     H16Z     HAL3     0.900000E-01   1.00800           0
     16483 MEMB     124      POPC     N        NTL     -0.600000       14.0070           0
     16484 MEMB     124      POPC     C12      CTL2    -0.100000       12.0110           0
     16485 MEMB     124      POPC     H12A     HL       0.250000       1.00800           0
     16486 MEMB     124      POPC     H12B     HL       0.250000       1.00800           0
     16487 MEMB     124      POPC     C13      CTL5    -0.350000       12.0110           0
     16488 MEMB     124      POPC     H13A     HL       0.250000       1.00800           0
     16489 MEMB     124      POPC     H13B     HL       0.250000       1.00800           0
     16490 MEMB     124      POPC     H13C     HL       0.250000       1.00800           0
     16491 MEMB     124      POPC     C14      CTL5    -0.350000       12.0110           0
     16492 MEMB     124      POPC     H14A     HL       0.250000       1.00800           0
     16493 MEMB     124      POPC     H14B     HL       0.250000       1.00800           0
     16494 MEMB     124      POPC     H14C     HL       0.250000       1.00800           0
     16495 MEMB     124      POPC     C15      CTL5    -0.350000       12.0110           0
     16496 MEMB     124      POPC     H15A     HL       0.250000       1.00800           0
     16497 MEMB     124      POPC     H15B     HL       0.250000       1.00800           0
     16498 MEMB     124      POPC     H15C     HL       0.250000       1.00800           0
     16499 MEMB     124      POPC     C11      CTL2    -0.800000E-01   12.0110           0
     16500 MEMB     124      POPC     H11A     HAL2     0.900000E-01   1.00800           0
     16501 MEMB     124      POPC     H11B     HAL2     0.900000E-01   1.00800           0
     16502 MEMB     124      POPC     P        PL       1.50000        30.9740           0
     16503 MEMB     124      POPC     O13      O2L     -0.780000       15.9994           0
     16504 MEMB     124      POPC     O14      O2L     -0.780000       15.9994           0
     16505 MEMB     124      POPC     O12      OSLP    -0.570000       15.9994           0
     16506 MEMB     124      POPC     O11      OSLP    -0.570000       15.9994           0
     16507 MEMB     124      POPC     C1       CTL2    -0.800000E-01   12.0110           0
     16508 MEMB     124      POPC     HA       HAL2     0.900000E-01   1.00800           0
     16509 MEMB     124      POPC     HB       HAL2     0.900000E-01   1.00800           0
     16510 MEMB     124      POPC     C2       CTL1     0.170000       12.0110           0
     16511 MEMB     124      POPC     HS       HAL1     0.900000E-01   1.00800           0
     16512 MEMB     124      POPC     O21      OSL     -0.490000       15.9994           0
     16513 MEMB     124      POPC     C21      CL       0.900000       12.0110           0
     16514 MEMB     124      POPC     O22      OBL     -0.630000       15.9994           0
     16515 MEMB     124      POPC     C22      CTL2    -0.220000       12.0110           0
     16516 MEMB     124      POPC     H2R      HAL2     0.900000E-01   1.00800           0
     16517 MEMB     124      POPC     H2S      HAL2     0.900000E-01   1.00800           0
     16518 MEMB     124      POPC     C3       CTL2     0.800000E-01   12.0110           0
     16519 MEMB     124      POPC     HX       HAL2     0.900000E-01   1.00800           0
     16520 MEMB     124      POPC     HY       HAL2     0.900000E-01   1.00800           0
     16521 MEMB     124      POPC     O31      OSL     -0.490000       15.9994           0
     16522 MEMB     124      POPC     C31      CL       0.900000       12.0110           0
     16523 MEMB     124      POPC     O32      OBL     -0.630000       15.9994           0
     16524 MEMB     124      POPC     C32      CTL2    -0.220000       12.0110           0
     16525 MEMB     124      POPC     H2X      HAL2     0.900000E-01   1.00800           0
     16526 MEMB     124      POPC     H2Y      HAL2     0.900000E-01   1.00800           0
     16527 MEMB     124      POPC     C23      CTL2    -0.180000       12.0110           0
     16528 MEMB     124      POPC     H3R      HAL2     0.900000E-01   1.00800           0
     16529 MEMB     124      POPC     H3S      HAL2     0.900000E-01   1.00800           0
     16530 MEMB     124      POPC     C24      CTL2    -0.180000       12.0110           0
     16531 MEMB     124      POPC     H4R      HAL2     0.900000E-01   1.00800           0
     16532 MEMB     124      POPC     H4S      HAL2     0.900000E-01   1.00800           0
     16533 MEMB     124      POPC     C25      CTL2    -0.180000       12.0110           0
     16534 MEMB     124      POPC     H5R      HAL2     0.900000E-01   1.00800           0
     16535 MEMB     124      POPC     H5S      HAL2     0.900000E-01   1.00800           0
     16536 MEMB     124      POPC     C26      CTL2    -0.180000       12.0110           0
     16537 MEMB     124      POPC     H6R      HAL2     0.900000E-01   1.00800           0
     16538 MEMB     124      POPC     H6S      HAL2     0.900000E-01   1.00800           0
     16539 MEMB     124      POPC     C27      CTL2    -0.180000       12.0110           0
     16540 MEMB     124      POPC     H7R      HAL2     0.900000E-01   1.00800           0
     16541 MEMB     124      POPC     H7S      HAL2     0.900000E-01   1.00800           0
     16542 MEMB     124      POPC     C28      CTL2    -0.180000       12.0110           0
     16543 MEMB     124      POPC     H8R      HAL2     0.900000E-01   1.00800           0
     16544 MEMB     124      POPC     H8S      HAL2     0.900000E-01   1.00800           0
     16545 MEMB     124      POPC     C29      CEL1    -0.150000       12.0110           0
     16546 MEMB     124      POPC     H91      HEL1     0.150000       1.00800           0
     16547 MEMB     124      POPC     C210     CEL1    -0.150000       12.0110           0
     16548 MEMB     124      POPC     H101     HEL1     0.150000       1.00800           0
     16549 MEMB     124      POPC     C211     CTL2    -0.180000       12.0110           0
     16550 MEMB     124      POPC     H11R     HAL2     0.900000E-01   1.00800           0
     16551 MEMB     124      POPC     H11S     HAL2     0.900000E-01   1.00800           0
     16552 MEMB     124      POPC     C212     CTL2    -0.180000       12.0110           0
     16553 MEMB     124      POPC     H12R     HAL2     0.900000E-01   1.00800           0
     16554 MEMB     124      POPC     H12S     HAL2     0.900000E-01   1.00800           0
     16555 MEMB     124      POPC     C213     CTL2    -0.180000       12.0110           0
     16556 MEMB     124      POPC     H13R     HAL2     0.900000E-01   1.00800           0
     16557 MEMB     124      POPC     H13S     HAL2     0.900000E-01   1.00800           0
     16558 MEMB     124      POPC     C214     CTL2    -0.180000       12.0110           0
     16559 MEMB     124      POPC     H14R     HAL2     0.900000E-01   1.00800           0
     16560 MEMB     124      POPC     H14S     HAL2     0.900000E-01   1.00800           0
     16561 MEMB     124      POPC     C215     CTL2    -0.180000       12.0110           0
     16562 MEMB     124      POPC     H15R     HAL2     0.900000E-01   1.00800           0
     16563 MEMB     124      POPC     H15S     HAL2     0.900000E-01   1.00800           0
     16564 MEMB     124      POPC     C216     CTL2    -0.180000       12.0110           0
     16565 MEMB     124      POPC     H16R     HAL2     0.900000E-01   1.00800           0
     16566 MEMB     124      POPC     H16S     HAL2     0.900000E-01   1.00800           0
     16567 MEMB     124      POPC     C217     CTL2    -0.180000       12.0110           0
     16568 MEMB     124      POPC     H17R     HAL2     0.900000E-01   1.00800           0
     16569 MEMB     124      POPC     H17S     HAL2     0.900000E-01   1.00800           0
     16570 MEMB     124      POPC     C218     CTL3    -0.270000       12.0110           0
     16571 MEMB     124      POPC     H18R     HAL3     0.900000E-01   1.00800           0
     16572 MEMB     124      POPC     H18S     HAL3     0.900000E-01   1.00800           0
     16573 MEMB     124      POPC     H18T     HAL3     0.900000E-01   1.00800           0
     16574 MEMB     124      POPC     C33      CTL2    -0.180000       12.0110           0
     16575 MEMB     124      POPC     H3X      HAL2     0.900000E-01   1.00800           0
     16576 MEMB     124      POPC     H3Y      HAL2     0.900000E-01   1.00800           0
     16577 MEMB     124      POPC     C34      CTL2    -0.180000       12.0110           0
     16578 MEMB     124      POPC     H4X      HAL2     0.900000E-01   1.00800           0
     16579 MEMB     124      POPC     H4Y      HAL2     0.900000E-01   1.00800           0
     16580 MEMB     124      POPC     C35      CTL2    -0.180000       12.0110           0
     16581 MEMB     124      POPC     H5X      HAL2     0.900000E-01   1.00800           0
     16582 MEMB     124      POPC     H5Y      HAL2     0.900000E-01   1.00800           0
     16583 MEMB     124      POPC     C36      CTL2    -0.180000       12.0110           0
     16584 MEMB     124      POPC     H6X      HAL2     0.900000E-01   1.00800           0
     16585 MEMB     124      POPC     H6Y      HAL2     0.900000E-01   1.00800           0
     16586 MEMB     124      POPC     C37      CTL2    -0.180000       12.0110           0
     16587 MEMB     124      POPC     H7X      HAL2     0.900000E-01   1.00800           0
     16588 MEMB     124      POPC     H7Y      HAL2     0.900000E-01   1.00800           0
     16589 MEMB     124      POPC     C38      CTL2    -0.180000       12.0110           0
     16590 MEMB     124      POPC     H8X      HAL2     0.900000E-01   1.00800           0
     16591 MEMB     124      POPC     H8Y      HAL2     0.900000E-01   1.00800           0
     16592 MEMB     124      POPC     C39      CTL2    -0.180000       12.0110           0
     16593 MEMB     124      POPC     H9X      HAL2     0.900000E-01   1.00800           0
     16594 MEMB     124      POPC     H9Y      HAL2     0.900000E-01   1.00800           0
     16595 MEMB     124      POPC     C310     CTL2    -0.180000       12.0110           0
     16596 MEMB     124      POPC     H10X     HAL2     0.900000E-01   1.00800           0
     16597 MEMB     124      POPC     H10Y     HAL2     0.900000E-01   1.00800           0
     16598 MEMB     124      POPC     C311     CTL2    -0.180000       12.0110           0
     16599 MEMB     124      POPC     H11X     HAL2     0.900000E-01   1.00800           0
     16600 MEMB     124      POPC     H11Y     HAL2     0.900000E-01   1.00800           0
     16601 MEMB     124      POPC     C312     CTL2    -0.180000       12.0110           0
     16602 MEMB     124      POPC     H12X     HAL2     0.900000E-01   1.00800           0
     16603 MEMB     124      POPC     H12Y     HAL2     0.900000E-01   1.00800           0
     16604 MEMB     124      POPC     C313     CTL2    -0.180000       12.0110           0
     16605 MEMB     124      POPC     H13X     HAL2     0.900000E-01   1.00800           0
     16606 MEMB     124      POPC     H13Y     HAL2     0.900000E-01   1.00800           0
     16607 MEMB     124      POPC     C314     CTL2    -0.180000       12.0110           0
     16608 MEMB     124      POPC     H14X     HAL2     0.900000E-01   1.00800           0
     16609 MEMB     124      POPC     H14Y     HAL2     0.900000E-01   1.00800           0
     16610 MEMB     124      POPC     C315     CTL2    -0.180000       12.0110           0
     16611 MEMB     124      POPC     H15X     HAL2     0.900000E-01   1.00800           0
     16612 MEMB     124      POPC     H15Y     HAL2     0.900000E-01   1.00800           0
     16613 MEMB     124      POPC     C316     CTL3    -0.270000       12.0110           0
     16614 MEMB     124      POPC     H16X     HAL3     0.900000E-01   1.00800           0
     16615 MEMB     124      POPC     H16Y     HAL3     0.900000E-01   1.00800           0
     16616 MEMB     124      POPC     H16Z     HAL3     0.900000E-01   1.00800           0
     16617 MEMB     125      POPC     N        NTL     -0.600000       14.0070           0
     16618 MEMB     125      POPC     C12      CTL2    -0.100000       12.0110           0
     16619 MEMB     125      POPC     H12A     HL       0.250000       1.00800           0
     16620 MEMB     125      POPC     H12B     HL       0.250000       1.00800           0
     16621 MEMB     125      POPC     C13      CTL5    -0.350000       12.0110           0
     16622 MEMB     125      POPC     H13A     HL       0.250000       1.00800           0
     16623 MEMB     125      POPC     H13B     HL       0.250000       1.00800           0
     16624 MEMB     125      POPC     H13C     HL       0.250000       1.00800           0
     16625 MEMB     125      POPC     C14      CTL5    -0.350000       12.0110           0
     16626 MEMB     125      POPC     H14A     HL       0.250000       1.00800           0
     16627 MEMB     125      POPC     H14B     HL       0.250000       1.00800           0
     16628 MEMB     125      POPC     H14C     HL       0.250000       1.00800           0
     16629 MEMB     125      POPC     C15      CTL5    -0.350000       12.0110           0
     16630 MEMB     125      POPC     H15A     HL       0.250000       1.00800           0
     16631 MEMB     125      POPC     H15B     HL       0.250000       1.00800           0
     16632 MEMB     125      POPC     H15C     HL       0.250000       1.00800           0
     16633 MEMB     125      POPC     C11      CTL2    -0.800000E-01   12.0110           0
     16634 MEMB     125      POPC     H11A     HAL2     0.900000E-01   1.00800           0
     16635 MEMB     125      POPC     H11B     HAL2     0.900000E-01   1.00800           0
     16636 MEMB     125      POPC     P        PL       1.50000        30.9740           0
     16637 MEMB     125      POPC     O13      O2L     -0.780000       15.9994           0
     16638 MEMB     125      POPC     O14      O2L     -0.780000       15.9994           0
     16639 MEMB     125      POPC     O12      OSLP    -0.570000       15.9994           0
     16640 MEMB     125      POPC     O11      OSLP    -0.570000       15.9994           0
     16641 MEMB     125      POPC     C1       CTL2    -0.800000E-01   12.0110           0
     16642 MEMB     125      POPC     HA       HAL2     0.900000E-01   1.00800           0
     16643 MEMB     125      POPC     HB       HAL2     0.900000E-01   1.00800           0
     16644 MEMB     125      POPC     C2       CTL1     0.170000       12.0110           0
     16645 MEMB     125      POPC     HS       HAL1     0.900000E-01   1.00800           0
     16646 MEMB     125      POPC     O21      OSL     -0.490000       15.9994           0
     16647 MEMB     125      POPC     C21      CL       0.900000       12.0110           0
     16648 MEMB     125      POPC     O22      OBL     -0.630000       15.9994           0
     16649 MEMB     125      POPC     C22      CTL2    -0.220000       12.0110           0
     16650 MEMB     125      POPC     H2R      HAL2     0.900000E-01   1.00800           0
     16651 MEMB     125      POPC     H2S      HAL2     0.900000E-01   1.00800           0
     16652 MEMB     125      POPC     C3       CTL2     0.800000E-01   12.0110           0
     16653 MEMB     125      POPC     HX       HAL2     0.900000E-01   1.00800           0
     16654 MEMB     125      POPC     HY       HAL2     0.900000E-01   1.00800           0
     16655 MEMB     125      POPC     O31      OSL     -0.490000       15.9994           0
     16656 MEMB     125      POPC     C31      CL       0.900000       12.0110           0
     16657 MEMB     125      POPC     O32      OBL     -0.630000       15.9994           0
     16658 MEMB     125      POPC     C32      CTL2    -0.220000       12.0110           0
     16659 MEMB     125      POPC     H2X      HAL2     0.900000E-01   1.00800           0
     16660 MEMB     125      POPC     H2Y      HAL2     0.900000E-01   1.00800           0
     16661 MEMB     125      POPC     C23      CTL2    -0.180000       12.0110           0
     16662 MEMB     125      POPC     H3R      HAL2     0.900000E-01   1.00800           0
     16663 MEMB     125      POPC     H3S      HAL2     0.900000E-01   1.00800           0
     16664 MEMB     125      POPC     C24      CTL2    -0.180000       12.0110           0
     16665 MEMB     125      POPC     H4R      HAL2     0.900000E-01   1.00800           0
     16666 MEMB     125      POPC     H4S      HAL2     0.900000E-01   1.00800           0
     16667 MEMB     125      POPC     C25      CTL2    -0.180000       12.0110           0
     16668 MEMB     125      POPC     H5R      HAL2     0.900000E-01   1.00800           0
     16669 MEMB     125      POPC     H5S      HAL2     0.900000E-01   1.00800           0
     16670 MEMB     125      POPC     C26      CTL2    -0.180000       12.0110           0
     16671 MEMB     125      POPC     H6R      HAL2     0.900000E-01   1.00800           0
     16672 MEMB     125      POPC     H6S      HAL2     0.900000E-01   1.00800           0
     16673 MEMB     125      POPC     C27      CTL2    -0.180000       12.0110           0
     16674 MEMB     125      POPC     H7R      HAL2     0.900000E-01   1.00800           0
     16675 MEMB     125      POPC     H7S      HAL2     0.900000E-01   1.00800           0
     16676 MEMB     125      POPC     C28      CTL2    -0.180000       12.0110           0
     16677 MEMB     125      POPC     H8R      HAL2     0.900000E-01   1.00800           0
     16678 MEMB     125      POPC     H8S      HAL2     0.900000E-01   1.00800           0
     16679 MEMB     125      POPC     C29      CEL1    -0.150000       12.0110           0
     16680 MEMB     125      POPC     H91      HEL1     0.150000       1.00800           0
     16681 MEMB     125      POPC     C210     CEL1    -0.150000       12.0110           0
     16682 MEMB     125      POPC     H101     HEL1     0.150000       1.00800           0
     16683 MEMB     125      POPC     C211     CTL2    -0.180000       12.0110           0
     16684 MEMB     125      POPC     H11R     HAL2     0.900000E-01   1.00800           0
     16685 MEMB     125      POPC     H11S     HAL2     0.900000E-01   1.00800           0
     16686 MEMB     125      POPC     C212     CTL2    -0.180000       12.0110           0
     16687 MEMB     125      POPC     H12R     HAL2     0.900000E-01   1.00800           0
     16688 MEMB     125      POPC     H12S     HAL2     0.900000E-01   1.00800           0
     16689 MEMB     125      POPC     C213     CTL2    -0.180000       12.0110           0
     16690 MEMB     125      POPC     H13R     HAL2     0.900000E-01   1.00800           0
     16691 MEMB     125      POPC     H13S     HAL2     0.900000E-01   1.00800           0
     16692 MEMB     125      POPC     C214     CTL2    -0.180000       12.0110           0
     16693 MEMB     125      POPC     H14R     HAL2     0.900000E-01   1.00800           0
     16694 MEMB     125      POPC     H14S     HAL2     0.900000E-01   1.00800           0
     16695 MEMB     125      POPC     C215     CTL2    -0.180000       12.0110           0
     16696 MEMB     125      POPC     H15R     HAL2     0.900000E-01   1.00800           0
     16697 MEMB     125      POPC     H15S     HAL2     0.900000E-01   1.00800           0
     16698 MEMB     125      POPC     C216     CTL2    -0.180000       12.0110           0
     16699 MEMB     125      POPC     H16R     HAL2     0.900000E-01   1.00800           0
     16700 MEMB     125      POPC     H16S     HAL2     0.900000E-01   1.00800           0
     16701 MEMB     125      POPC     C217     CTL2    -0.180000       12.0110           0
     16702 MEMB     125      POPC     H17R     HAL2     0.900000E-01   1.00800           0
     16703 MEMB     125      POPC     H17S     HAL2     0.900000E-01   1.00800           0
     16704 MEMB     125      POPC     C218     CTL3    -0.270000       12.0110           0
     16705 MEMB     125      POPC     H18R     HAL3     0.900000E-01   1.00800           0
     16706 MEMB     125      POPC     H18S     HAL3     0.900000E-01   1.00800           0
     16707 MEMB     125      POPC     H18T     HAL3     0.900000E-01   1.00800           0
     16708 MEMB     125      POPC     C33      CTL2    -0.180000       12.0110           0
     16709 MEMB     125      POPC     H3X      HAL2     0.900000E-01   1.00800           0
     16710 MEMB     125      POPC     H3Y      HAL2     0.900000E-01   1.00800           0
     16711 MEMB     125      POPC     C34      CTL2    -0.180000       12.0110           0
     16712 MEMB     125      POPC     H4X      HAL2     0.900000E-01   1.00800           0
     16713 MEMB     125      POPC     H4Y      HAL2     0.900000E-01   1.00800           0
     16714 MEMB     125      POPC     C35      CTL2    -0.180000       12.0110           0
     16715 MEMB     125      POPC     H5X      HAL2     0.900000E-01   1.00800           0
     16716 MEMB     125      POPC     H5Y      HAL2     0.900000E-01   1.00800           0
     16717 MEMB     125      POPC     C36      CTL2    -0.180000       12.0110           0
     16718 MEMB     125      POPC     H6X      HAL2     0.900000E-01   1.00800           0
     16719 MEMB     125      POPC     H6Y      HAL2     0.900000E-01   1.00800           0
     16720 MEMB     125      POPC     C37      CTL2    -0.180000       12.0110           0
     16721 MEMB     125      POPC     H7X      HAL2     0.900000E-01   1.00800           0
     16722 MEMB     125      POPC     H7Y      HAL2     0.900000E-01   1.00800           0
     16723 MEMB     125      POPC     C38      CTL2    -0.180000       12.0110           0
     16724 MEMB     125      POPC     H8X      HAL2     0.900000E-01   1.00800           0
     16725 MEMB     125      POPC     H8Y      HAL2     0.900000E-01   1.00800           0
     16726 MEMB     125      POPC     C39      CTL2    -0.180000       12.0110           0
     16727 MEMB     125      POPC     H9X      HAL2     0.900000E-01   1.00800           0
     16728 MEMB     125      POPC     H9Y      HAL2     0.900000E-01   1.00800           0
     16729 MEMB     125      POPC     C310     CTL2    -0.180000       12.0110           0
     16730 MEMB     125      POPC     H10X     HAL2     0.900000E-01   1.00800           0
     16731 MEMB     125      POPC     H10Y     HAL2     0.900000E-01   1.00800           0
     16732 MEMB     125      POPC     C311     CTL2    -0.180000       12.0110           0
     16733 MEMB     125      POPC     H11X     HAL2     0.900000E-01   1.00800           0
     16734 MEMB     125      POPC     H11Y     HAL2     0.900000E-01   1.00800           0
     16735 MEMB     125      POPC     C312     CTL2    -0.180000       12.0110           0
     16736 MEMB     125      POPC     H12X     HAL2     0.900000E-01   1.00800           0
     16737 MEMB     125      POPC     H12Y     HAL2     0.900000E-01   1.00800           0
     16738 MEMB     125      POPC     C313     CTL2    -0.180000       12.0110           0
     16739 MEMB     125      POPC     H13X     HAL2     0.900000E-01   1.00800           0
     16740 MEMB     125      POPC     H13Y     HAL2     0.900000E-01   1.00800           0
     16741 MEMB     125      POPC     C314     CTL2    -0.180000       12.0110           0
     16742 MEMB     125      POPC     H14X     HAL2     0.900000E-01   1.00800           0
     16743 MEMB     125      POPC     H14Y     HAL2     0.900000E-01   1.00800           0
     16744 MEMB     125      POPC     C315     CTL2    -0.180000       12.0110           0
     16745 MEMB     125      POPC     H15X     HAL2     0.900000E-01   1.00800           0
     16746 MEMB     125      POPC     H15Y     HAL2     0.900000E-01   1.00800           0
     16747 MEMB     125      POPC     C316     CTL3    -0.270000       12.0110           0
     16748 MEMB     125      POPC     H16X     HAL3     0.900000E-01   1.00800           0
     16749 MEMB     125      POPC     H16Y     HAL3     0.900000E-01   1.00800           0
     16750 MEMB     125      POPC     H16Z     HAL3     0.900000E-01   1.00800           0
     16751 MEMB     126      POPC     N        NTL     -0.600000       14.0070           0
     16752 MEMB     126      POPC     C12      CTL2    -0.100000       12.0110           0
     16753 MEMB     126      POPC     H12A     HL       0.250000       1.00800           0
     16754 MEMB     126      POPC     H12B     HL       0.250000       1.00800           0
     16755 MEMB     126      POPC     C13      CTL5    -0.350000       12.0110           0
     16756 MEMB     126      POPC     H13A     HL       0.250000       1.00800           0
     16757 MEMB     126      POPC     H13B     HL       0.250000       1.00800           0
     16758 MEMB     126      POPC     H13C     HL       0.250000       1.00800           0
     16759 MEMB     126      POPC     C14      CTL5    -0.350000       12.0110           0
     16760 MEMB     126      POPC     H14A     HL       0.250000       1.00800           0
     16761 MEMB     126      POPC     H14B     HL       0.250000       1.00800           0
     16762 MEMB     126      POPC     H14C     HL       0.250000       1.00800           0
     16763 MEMB     126      POPC     C15      CTL5    -0.350000       12.0110           0
     16764 MEMB     126      POPC     H15A     HL       0.250000       1.00800           0
     16765 MEMB     126      POPC     H15B     HL       0.250000       1.00800           0
     16766 MEMB     126      POPC     H15C     HL       0.250000       1.00800           0
     16767 MEMB     126      POPC     C11      CTL2    -0.800000E-01   12.0110           0
     16768 MEMB     126      POPC     H11A     HAL2     0.900000E-01   1.00800           0
     16769 MEMB     126      POPC     H11B     HAL2     0.900000E-01   1.00800           0
     16770 MEMB     126      POPC     P        PL       1.50000        30.9740           0
     16771 MEMB     126      POPC     O13      O2L     -0.780000       15.9994           0
     16772 MEMB     126      POPC     O14      O2L     -0.780000       15.9994           0
     16773 MEMB     126      POPC     O12      OSLP    -0.570000       15.9994           0
     16774 MEMB     126      POPC     O11      OSLP    -0.570000       15.9994           0
     16775 MEMB     126      POPC     C1       CTL2    -0.800000E-01   12.0110           0
     16776 MEMB     126      POPC     HA       HAL2     0.900000E-01   1.00800           0
     16777 MEMB     126      POPC     HB       HAL2     0.900000E-01   1.00800           0
     16778 MEMB     126      POPC     C2       CTL1     0.170000       12.0110           0
     16779 MEMB     126      POPC     HS       HAL1     0.900000E-01   1.00800           0
     16780 MEMB     126      POPC     O21      OSL     -0.490000       15.9994           0
     16781 MEMB     126      POPC     C21      CL       0.900000       12.0110           0
     16782 MEMB     126      POPC     O22      OBL     -0.630000       15.9994           0
     16783 MEMB     126      POPC     C22      CTL2    -0.220000       12.0110           0
     16784 MEMB     126      POPC     H2R      HAL2     0.900000E-01   1.00800           0
     16785 MEMB     126      POPC     H2S      HAL2     0.900000E-01   1.00800           0
     16786 MEMB     126      POPC     C3       CTL2     0.800000E-01   12.0110           0
     16787 MEMB     126      POPC     HX       HAL2     0.900000E-01   1.00800           0
     16788 MEMB     126      POPC     HY       HAL2     0.900000E-01   1.00800           0
     16789 MEMB     126      POPC     O31      OSL     -0.490000       15.9994           0
     16790 MEMB     126      POPC     C31      CL       0.900000       12.0110           0
     16791 MEMB     126      POPC     O32      OBL     -0.630000       15.9994           0
     16792 MEMB     126      POPC     C32      CTL2    -0.220000       12.0110           0
     16793 MEMB     126      POPC     H2X      HAL2     0.900000E-01   1.00800           0
     16794 MEMB     126      POPC     H2Y      HAL2     0.900000E-01   1.00800           0
     16795 MEMB     126      POPC     C23      CTL2    -0.180000       12.0110           0
     16796 MEMB     126      POPC     H3R      HAL2     0.900000E-01   1.00800           0
     16797 MEMB     126      POPC     H3S      HAL2     0.900000E-01   1.00800           0
     16798 MEMB     126      POPC     C24      CTL2    -0.180000       12.0110           0
     16799 MEMB     126      POPC     H4R      HAL2     0.900000E-01   1.00800           0
     16800 MEMB     126      POPC     H4S      HAL2     0.900000E-01   1.00800           0
     16801 MEMB     126      POPC     C25      CTL2    -0.180000       12.0110           0
     16802 MEMB     126      POPC     H5R      HAL2     0.900000E-01   1.00800           0
     16803 MEMB     126      POPC     H5S      HAL2     0.900000E-01   1.00800           0
     16804 MEMB     126      POPC     C26      CTL2    -0.180000       12.0110           0
     16805 MEMB     126      POPC     H6R      HAL2     0.900000E-01   1.00800           0
     16806 MEMB     126      POPC     H6S      HAL2     0.900000E-01   1.00800           0
     16807 MEMB     126      POPC     C27      CTL2    -0.180000       12.0110           0
     16808 MEMB     126      POPC     H7R      HAL2     0.900000E-01   1.00800           0
     16809 MEMB     126      POPC     H7S      HAL2     0.900000E-01   1.00800           0
     16810 MEMB     126      POPC     C28      CTL2    -0.180000       12.0110           0
     16811 MEMB     126      POPC     H8R      HAL2     0.900000E-01   1.00800           0
     16812 MEMB     126      POPC     H8S      HAL2     0.900000E-01   1.00800           0
     16813 MEMB     126      POPC     C29      CEL1    -0.150000       12.0110           0
     16814 MEMB     126      POPC     H91      HEL1     0.150000       1.00800           0
     16815 MEMB     126      POPC     C210     CEL1    -0.150000       12.0110           0
     16816 MEMB     126      POPC     H101     HEL1     0.150000       1.00800           0
     16817 MEMB     126      POPC     C211     CTL2    -0.180000       12.0110           0
     16818 MEMB     126      POPC     H11R     HAL2     0.900000E-01   1.00800           0
     16819 MEMB     126      POPC     H11S     HAL2     0.900000E-01   1.00800           0
     16820 MEMB     126      POPC     C212     CTL2    -0.180000       12.0110           0
     16821 MEMB     126      POPC     H12R     HAL2     0.900000E-01   1.00800           0
     16822 MEMB     126      POPC     H12S     HAL2     0.900000E-01   1.00800           0
     16823 MEMB     126      POPC     C213     CTL2    -0.180000       12.0110           0
     16824 MEMB     126      POPC     H13R     HAL2     0.900000E-01   1.00800           0
     16825 MEMB     126      POPC     H13S     HAL2     0.900000E-01   1.00800           0
     16826 MEMB     126      POPC     C214     CTL2    -0.180000       12.0110           0
     16827 MEMB     126      POPC     H14R     HAL2     0.900000E-01   1.00800           0
     16828 MEMB     126      POPC     H14S     HAL2     0.900000E-01   1.00800           0
     16829 MEMB     126      POPC     C215     CTL2    -0.180000       12.0110           0
     16830 MEMB     126      POPC     H15R     HAL2     0.900000E-01   1.00800           0
     16831 MEMB     126      POPC     H15S     HAL2     0.900000E-01   1.00800           0
     16832 MEMB     126      POPC     C216     CTL2    -0.180000       12.0110           0
     16833 MEMB     126      POPC     H16R     HAL2     0.900000E-01   1.00800           0
     16834 MEMB     126      POPC     H16S     HAL2     0.900000E-01   1.00800           0
     16835 MEMB     126      POPC     C217     CTL2    -0.180000       12.0110           0
     16836 MEMB     126      POPC     H17R     HAL2     0.900000E-01   1.00800           0
     16837 MEMB     126      POPC     H17S     HAL2     0.900000E-01   1.00800           0
     16838 MEMB     126      POPC     C218     CTL3    -0.270000       12.0110           0
     16839 MEMB     126      POPC     H18R     HAL3     0.900000E-01   1.00800           0
     16840 MEMB     126      POPC     H18S     HAL3     0.900000E-01   1.00800           0
     16841 MEMB     126      POPC     H18T     HAL3     0.900000E-01   1.00800           0
     16842 MEMB     126      POPC     C33      CTL2    -0.180000       12.0110           0
     16843 MEMB     126      POPC     H3X      HAL2     0.900000E-01   1.00800           0
     16844 MEMB     126      POPC     H3Y      HAL2     0.900000E-01   1.00800           0
     16845 MEMB     126      POPC     C34      CTL2    -0.180000       12.0110           0
     16846 MEMB     126      POPC     H4X      HAL2     0.900000E-01   1.00800           0
     16847 MEMB     126      POPC     H4Y      HAL2     0.900000E-01   1.00800           0
     16848 MEMB     126      POPC     C35      CTL2    -0.180000       12.0110           0
     16849 MEMB     126      POPC     H5X      HAL2     0.900000E-01   1.00800           0
     16850 MEMB     126      POPC     H5Y      HAL2     0.900000E-01   1.00800           0
     16851 MEMB     126      POPC     C36      CTL2    -0.180000       12.0110           0
     16852 MEMB     126      POPC     H6X      HAL2     0.900000E-01   1.00800           0
     16853 MEMB     126      POPC     H6Y      HAL2     0.900000E-01   1.00800           0
     16854 MEMB     126      POPC     C37      CTL2    -0.180000       12.0110           0
     16855 MEMB     126      POPC     H7X      HAL2     0.900000E-01   1.00800           0
     16856 MEMB     126      POPC     H7Y      HAL2     0.900000E-01   1.00800           0
     16857 MEMB     126      POPC     C38      CTL2    -0.180000       12.0110           0
     16858 MEMB     126      POPC     H8X      HAL2     0.900000E-01   1.00800           0
     16859 MEMB     126      POPC     H8Y      HAL2     0.900000E-01   1.00800           0
     16860 MEMB     126      POPC     C39      CTL2    -0.180000       12.0110           0
     16861 MEMB     126      POPC     H9X      HAL2     0.900000E-01   1.00800           0
     16862 MEMB     126      POPC     H9Y      HAL2     0.900000E-01   1.00800           0
     16863 MEMB     126      POPC     C310     CTL2    -0.180000       12.0110           0
     16864 MEMB     126      POPC     H10X     HAL2     0.900000E-01   1.00800           0
     16865 MEMB     126      POPC     H10Y     HAL2     0.900000E-01   1.00800           0
     16866 MEMB     126      POPC     C311     CTL2    -0.180000       12.0110           0
     16867 MEMB     126      POPC     H11X     HAL2     0.900000E-01   1.00800           0
     16868 MEMB     126      POPC     H11Y     HAL2     0.900000E-01   1.00800           0
     16869 MEMB     126      POPC     C312     CTL2    -0.180000       12.0110           0
     16870 MEMB     126      POPC     H12X     HAL2     0.900000E-01   1.00800           0
     16871 MEMB     126      POPC     H12Y     HAL2     0.900000E-01   1.00800           0
     16872 MEMB     126      POPC     C313     CTL2    -0.180000       12.0110           0
     16873 MEMB     126      POPC     H13X     HAL2     0.900000E-01   1.00800           0
     16874 MEMB     126      POPC     H13Y     HAL2     0.900000E-01   1.00800           0
     16875 MEMB     126      POPC     C314     CTL2    -0.180000       12.0110           0
     16876 MEMB     126      POPC     H14X     HAL2     0.900000E-01   1.00800           0
     16877 MEMB     126      POPC     H14Y     HAL2     0.900000E-01   1.00800           0
     16878 MEMB     126      POPC     C315     CTL2    -0.180000       12.0110           0
     16879 MEMB     126      POPC     H15X     HAL2     0.900000E-01   1.00800           0
     16880 MEMB     126      POPC     H15Y     HAL2     0.900000E-01   1.00800           0
     16881 MEMB     126      POPC     C316     CTL3    -0.270000       12.0110           0
     16882 MEMB     126      POPC     H16X     HAL3     0.900000E-01   1.00800           0
     16883 MEMB     126      POPC     H16Y     HAL3     0.900000E-01   1.00800           0
     16884 MEMB     126      POPC     H16Z     HAL3     0.900000E-01   1.00800           0
     16885 MEMB     127      POPC     N        NTL     -0.600000       14.0070           0
     16886 MEMB     127      POPC     C12      CTL2    -0.100000       12.0110           0
     16887 MEMB     127      POPC     H12A     HL       0.250000       1.00800           0
     16888 MEMB     127      POPC     H12B     HL       0.250000       1.00800           0
     16889 MEMB     127      POPC     C13      CTL5    -0.350000       12.0110           0
     16890 MEMB     127      POPC     H13A     HL       0.250000       1.00800           0
     16891 MEMB     127      POPC     H13B     HL       0.250000       1.00800           0
     16892 MEMB     127      POPC     H13C     HL       0.250000       1.00800           0
     16893 MEMB     127      POPC     C14      CTL5    -0.350000       12.0110           0
     16894 MEMB     127      POPC     H14A     HL       0.250000       1.00800           0
     16895 MEMB     127      POPC     H14B     HL       0.250000       1.00800           0
     16896 MEMB     127      POPC     H14C     HL       0.250000       1.00800           0
     16897 MEMB     127      POPC     C15      CTL5    -0.350000       12.0110           0
     16898 MEMB     127      POPC     H15A     HL       0.250000       1.00800           0
     16899 MEMB     127      POPC     H15B     HL       0.250000       1.00800           0
     16900 MEMB     127      POPC     H15C     HL       0.250000       1.00800           0
     16901 MEMB     127      POPC     C11      CTL2    -0.800000E-01   12.0110           0
     16902 MEMB     127      POPC     H11A     HAL2     0.900000E-01   1.00800           0
     16903 MEMB     127      POPC     H11B     HAL2     0.900000E-01   1.00800           0
     16904 MEMB     127      POPC     P        PL       1.50000        30.9740           0
     16905 MEMB     127      POPC     O13      O2L     -0.780000       15.9994           0
     16906 MEMB     127      POPC     O14      O2L     -0.780000       15.9994           0
     16907 MEMB     127      POPC     O12      OSLP    -0.570000       15.9994           0
     16908 MEMB     127      POPC     O11      OSLP    -0.570000       15.9994           0
     16909 MEMB     127      POPC     C1       CTL2    -0.800000E-01   12.0110           0
     16910 MEMB     127      POPC     HA       HAL2     0.900000E-01   1.00800           0
     16911 MEMB     127      POPC     HB       HAL2     0.900000E-01   1.00800           0
     16912 MEMB     127      POPC     C2       CTL1     0.170000       12.0110           0
     16913 MEMB     127      POPC     HS       HAL1     0.900000E-01   1.00800           0
     16914 MEMB     127      POPC     O21      OSL     -0.490000       15.9994           0
     16915 MEMB     127      POPC     C21      CL       0.900000       12.0110           0
     16916 MEMB     127      POPC     O22      OBL     -0.630000       15.9994           0
     16917 MEMB     127      POPC     C22      CTL2    -0.220000       12.0110           0
     16918 MEMB     127      POPC     H2R      HAL2     0.900000E-01   1.00800           0
     16919 MEMB     127      POPC     H2S      HAL2     0.900000E-01   1.00800           0
     16920 MEMB     127      POPC     C3       CTL2     0.800000E-01   12.0110           0
     16921 MEMB     127      POPC     HX       HAL2     0.900000E-01   1.00800           0
     16922 MEMB     127      POPC     HY       HAL2     0.900000E-01   1.00800           0
     16923 MEMB     127      POPC     O31      OSL     -0.490000       15.9994           0
     16924 MEMB     127      POPC     C31      CL       0.900000       12.0110           0
     16925 MEMB     127      POPC     O32      OBL     -0.630000       15.9994           0
     16926 MEMB     127      POPC     C32      CTL2    -0.220000       12.0110           0
     16927 MEMB     127      POPC     H2X      HAL2     0.900000E-01   1.00800           0
     16928 MEMB     127      POPC     H2Y      HAL2     0.900000E-01   1.00800           0
     16929 MEMB     127      POPC     C23      CTL2    -0.180000       12.0110           0
     16930 MEMB     127      POPC     H3R      HAL2     0.900000E-01   1.00800           0
     16931 MEMB     127      POPC     H3S      HAL2     0.900000E-01   1.00800           0
     16932 MEMB     127      POPC     C24      CTL2    -0.180000       12.0110           0
     16933 MEMB     127      POPC     H4R      HAL2     0.900000E-01   1.00800           0
     16934 MEMB     127      POPC     H4S      HAL2     0.900000E-01   1.00800           0
     16935 MEMB     127      POPC     C25      CTL2    -0.180000       12.0110           0
     16936 MEMB     127      POPC     H5R      HAL2     0.900000E-01   1.00800           0
     16937 MEMB     127      POPC     H5S      HAL2     0.900000E-01   1.00800           0
     16938 MEMB     127      POPC     C26      CTL2    -0.180000       12.0110           0
     16939 MEMB     127      POPC     H6R      HAL2     0.900000E-01   1.00800           0
     16940 MEMB     127      POPC     H6S      HAL2     0.900000E-01   1.00800           0
     16941 MEMB     127      POPC     C27      CTL2    -0.180000       12.0110           0
     16942 MEMB     127      POPC     H7R      HAL2     0.900000E-01   1.00800           0
     16943 MEMB     127      POPC     H7S      HAL2     0.900000E-01   1.00800           0
     16944 MEMB     127      POPC     C28      CTL2    -0.180000       12.0110           0
     16945 MEMB     127      POPC     H8R      HAL2     0.900000E-01   1.00800           0
     16946 MEMB     127      POPC     H8S      HAL2     0.900000E-01   1.00800           0
     16947 MEMB     127      POPC     C29      CEL1    -0.150000       12.0110           0
     16948 MEMB     127      POPC     H91      HEL1     0.150000       1.00800           0
     16949 MEMB     127      POPC     C210     CEL1    -0.150000       12.0110           0
     16950 MEMB     127      POPC     H101     HEL1     0.150000       1.00800           0
     16951 MEMB     127      POPC     C211     CTL2    -0.180000       12.0110           0
     16952 MEMB     127      POPC     H11R     HAL2     0.900000E-01   1.00800           0
     16953 MEMB     127      POPC     H11S     HAL2     0.900000E-01   1.00800           0
     16954 MEMB     127      POPC     C212     CTL2    -0.180000       12.0110           0
     16955 MEMB     127      POPC     H12R     HAL2     0.900000E-01   1.00800           0
     16956 MEMB     127      POPC     H12S     HAL2     0.900000E-01   1.00800           0
     16957 MEMB     127      POPC     C213     CTL2    -0.180000       12.0110           0
     16958 MEMB     127      POPC     H13R     HAL2     0.900000E-01   1.00800           0
     16959 MEMB     127      POPC     H13S     HAL2     0.900000E-01   1.00800           0
     16960 MEMB     127      POPC     C214     CTL2    -0.180000       12.0110           0
     16961 MEMB     127      POPC     H14R     HAL2     0.900000E-01   1.00800           0
     16962 MEMB     127      POPC     H14S     HAL2     0.900000E-01   1.00800           0
     16963 MEMB     127      POPC     C215     CTL2    -0.180000       12.0110           0
     16964 MEMB     127      POPC     H15R     HAL2     0.900000E-01   1.00800           0
     16965 MEMB     127      POPC     H15S     HAL2     0.900000E-01   1.00800           0
     16966 MEMB     127      POPC     C216     CTL2    -0.180000       12.0110           0
     16967 MEMB     127      POPC     H16R     HAL2     0.900000E-01   1.00800           0
     16968 MEMB     127      POPC     H16S     HAL2     0.900000E-01   1.00800           0
     16969 MEMB     127      POPC     C217     CTL2    -0.180000       12.0110           0
     16970 MEMB     127      POPC     H17R     HAL2     0.900000E-01   1.00800           0
     16971 MEMB     127      POPC     H17S     HAL2     0.900000E-01   1.00800           0
     16972 MEMB     127      POPC     C218     CTL3    -0.270000       12.0110           0
     16973 MEMB     127      POPC     H18R     HAL3     0.900000E-01   1.00800           0
     16974 MEMB     127      POPC     H18S     HAL3     0.900000E-01   1.00800           0
     16975 MEMB     127      POPC     H18T     HAL3     0.900000E-01   1.00800           0
     16976 MEMB     127      POPC     C33      CTL2    -0.180000       12.0110           0
     16977 MEMB     127      POPC     H3X      HAL2     0.900000E-01   1.00800           0
     16978 MEMB     127      POPC     H3Y      HAL2     0.900000E-01   1.00800           0
     16979 MEMB     127      POPC     C34      CTL2    -0.180000       12.0110           0
     16980 MEMB     127      POPC     H4X      HAL2     0.900000E-01   1.00800           0
     16981 MEMB     127      POPC     H4Y      HAL2     0.900000E-01   1.00800           0
     16982 MEMB     127      POPC     C35      CTL2    -0.180000       12.0110           0
     16983 MEMB     127      POPC     H5X      HAL2     0.900000E-01   1.00800           0
     16984 MEMB     127      POPC     H5Y      HAL2     0.900000E-01   1.00800           0
     16985 MEMB     127      POPC     C36      CTL2    -0.180000       12.0110           0
     16986 MEMB     127      POPC     H6X      HAL2     0.900000E-01   1.00800           0
     16987 MEMB     127      POPC     H6Y      HAL2     0.900000E-01   1.00800           0
     16988 MEMB     127      POPC     C37      CTL2    -0.180000       12.0110           0
     16989 MEMB     127      POPC     H7X      HAL2     0.900000E-01   1.00800           0
     16990 MEMB     127      POPC     H7Y      HAL2     0.900000E-01   1.00800           0
     16991 MEMB     127      POPC     C38      CTL2    -0.180000       12.0110           0
     16992 MEMB     127      POPC     H8X      HAL2     0.900000E-01   1.00800           0
     16993 MEMB     127      POPC     H8Y      HAL2     0.900000E-01   1.00800           0
     16994 MEMB     127      POPC     C39      CTL2    -0.180000       12.0110           0
     16995 MEMB     127      POPC     H9X      HAL2     0.900000E-01   1.00800           0
     16996 MEMB     127      POPC     H9Y      HAL2     0.900000E-01   1.00800           0
     16997 MEMB     127      POPC     C310     CTL2    -0.180000       12.0110           0
     16998 MEMB     127      POPC     H10X     HAL2     0.900000E-01   1.00800           0
     16999 MEMB     127      POPC     H10Y     HAL2     0.900000E-01   1.00800           0
     17000 MEMB     127      POPC     C311     CTL2    -0.180000       12.0110           0
     17001 MEMB     127      POPC     H11X     HAL2     0.900000E-01   1.00800           0
     17002 MEMB     127      POPC     H11Y     HAL2     0.900000E-01   1.00800           0
     17003 MEMB     127      POPC     C312     CTL2    -0.180000       12.0110           0
     17004 MEMB     127      POPC     H12X     HAL2     0.900000E-01   1.00800           0
     17005 MEMB     127      POPC     H12Y     HAL2     0.900000E-01   1.00800           0
     17006 MEMB     127      POPC     C313     CTL2    -0.180000       12.0110           0
     17007 MEMB     127      POPC     H13X     HAL2     0.900000E-01   1.00800           0
     17008 MEMB     127      POPC     H13Y     HAL2     0.900000E-01   1.00800           0
     17009 MEMB     127      POPC     C314     CTL2    -0.180000       12.0110           0
     17010 MEMB     127      POPC     H14X     HAL2     0.900000E-01   1.00800           0
     17011 MEMB     127      POPC     H14Y     HAL2     0.900000E-01   1.00800           0
     17012 MEMB     127      POPC     C315     CTL2    -0.180000       12.0110           0
     17013 MEMB     127      POPC     H15X     HAL2     0.900000E-01   1.00800           0
     17014 MEMB     127      POPC     H15Y     HAL2     0.900000E-01   1.00800           0
     17015 MEMB     127      POPC     C316     CTL3    -0.270000       12.0110           0
     17016 MEMB     127      POPC     H16X     HAL3     0.900000E-01   1.00800           0
     17017 MEMB     127      POPC     H16Y     HAL3     0.900000E-01   1.00800           0
     17018 MEMB     127      POPC     H16Z     HAL3     0.900000E-01   1.00800           0
     17019 MEMB     128      POPC     N        NTL     -0.600000       14.0070           0
     17020 MEMB     128      POPC     C12      CTL2    -0.100000       12.0110           0
     17021 MEMB     128      POPC     H12A     HL       0.250000       1.00800           0
     17022 MEMB     128      POPC     H12B     HL       0.250000       1.00800           0
     17023 MEMB     128      POPC     C13      CTL5    -0.350000       12.0110           0
     17024 MEMB     128      POPC     H13A     HL       0.250000       1.00800           0
     17025 MEMB     128      POPC     H13B     HL       0.250000       1.00800           0
     17026 MEMB     128      POPC     H13C     HL       0.250000       1.00800           0
     17027 MEMB     128      POPC     C14      CTL5    -0.350000       12.0110           0
     17028 MEMB     128      POPC     H14A     HL       0.250000       1.00800           0
     17029 MEMB     128      POPC     H14B     HL       0.250000       1.00800           0
     17030 MEMB     128      POPC     H14C     HL       0.250000       1.00800           0
     17031 MEMB     128      POPC     C15      CTL5    -0.350000       12.0110           0
     17032 MEMB     128      POPC     H15A     HL       0.250000       1.00800           0
     17033 MEMB     128      POPC     H15B     HL       0.250000       1.00800           0
     17034 MEMB     128      POPC     H15C     HL       0.250000       1.00800           0
     17035 MEMB     128      POPC     C11      CTL2    -0.800000E-01   12.0110           0
     17036 MEMB     128      POPC     H11A     HAL2     0.900000E-01   1.00800           0
     17037 MEMB     128      POPC     H11B     HAL2     0.900000E-01   1.00800           0
     17038 MEMB     128      POPC     P        PL       1.50000        30.9740           0
     17039 MEMB     128      POPC     O13      O2L     -0.780000       15.9994           0
     17040 MEMB     128      POPC     O14      O2L     -0.780000       15.9994           0
     17041 MEMB     128      POPC     O12      OSLP    -0.570000       15.9994           0
     17042 MEMB     128      POPC     O11      OSLP    -0.570000       15.9994           0
     17043 MEMB     128      POPC     C1       CTL2    -0.800000E-01   12.0110           0
     17044 MEMB     128      POPC     HA       HAL2     0.900000E-01   1.00800           0
     17045 MEMB     128      POPC     HB       HAL2     0.900000E-01   1.00800           0
     17046 MEMB     128      POPC     C2       CTL1     0.170000       12.0110           0
     17047 MEMB     128      POPC     HS       HAL1     0.900000E-01   1.00800           0
     17048 MEMB     128      POPC     O21      OSL     -0.490000       15.9994           0
     17049 MEMB     128      POPC     C21      CL       0.900000       12.0110           0
     17050 MEMB     128      POPC     O22      OBL     -0.630000       15.9994           0
     17051 MEMB     128      POPC     C22      CTL2    -0.220000       12.0110           0
     17052 MEMB     128      POPC     H2R      HAL2     0.900000E-01   1.00800           0
     17053 MEMB     128      POPC     H2S      HAL2     0.900000E-01   1.00800           0
     17054 MEMB     128      POPC     C3       CTL2     0.800000E-01   12.0110           0
     17055 MEMB     128      POPC     HX       HAL2     0.900000E-01   1.00800           0
     17056 MEMB     128      POPC     HY       HAL2     0.900000E-01   1.00800           0
     17057 MEMB     128      POPC     O31      OSL     -0.490000       15.9994           0
     17058 MEMB     128      POPC     C31      CL       0.900000       12.0110           0
     17059 MEMB     128      POPC     O32      OBL     -0.630000       15.9994           0
     17060 MEMB     128      POPC     C32      CTL2    -0.220000       12.0110           0
     17061 MEMB     128      POPC     H2X      HAL2     0.900000E-01   1.00800           0
     17062 MEMB     128      POPC     H2Y      HAL2     0.900000E-01   1.00800           0
     17063 MEMB     128      POPC     C23      CTL2    -0.180000       12.0110           0
     17064 MEMB     128      POPC     H3R      HAL2     0.900000E-01   1.00800           0
     17065 MEMB     128      POPC     H3S      HAL2     0.900000E-01   1.00800           0
     17066 MEMB     128      POPC     C24      CTL2    -0.180000       12.0110           0
     17067 MEMB     128      POPC     H4R      HAL2     0.900000E-01   1.00800           0
     17068 MEMB     128      POPC     H4S      HAL2     0.900000E-01   1.00800           0
     17069 MEMB     128      POPC     C25      CTL2    -0.180000       12.0110           0
     17070 MEMB     128      POPC     H5R      HAL2     0.900000E-01   1.00800           0
     17071 MEMB     128      POPC     H5S      HAL2     0.900000E-01   1.00800           0
     17072 MEMB     128      POPC     C26      CTL2    -0.180000       12.0110           0
     17073 MEMB     128      POPC     H6R      HAL2     0.900000E-01   1.00800           0
     17074 MEMB     128      POPC     H6S      HAL2     0.900000E-01   1.00800           0
     17075 MEMB     128      POPC     C27      CTL2    -0.180000       12.0110           0
     17076 MEMB     128      POPC     H7R      HAL2     0.900000E-01   1.00800           0
     17077 MEMB     128      POPC     H7S      HAL2     0.900000E-01   1.00800           0
     17078 MEMB     128      POPC     C28      CTL2    -0.180000       12.0110           0
     17079 MEMB     128      POPC     H8R      HAL2     0.900000E-01   1.00800           0
     17080 MEMB     128      POPC     H8S      HAL2     0.900000E-01   1.00800           0
     17081 MEMB     128      POPC     C29      CEL1    -0.150000       12.0110           0
     17082 MEMB     128      POPC     H91      HEL1     0.150000       1.00800           0
     17083 MEMB     128      POPC     C210     CEL1    -0.150000       12.0110           0
     17084 MEMB     128      POPC     H101     HEL1     0.150000       1.00800           0
     17085 MEMB     128      POPC     C211     CTL2    -0.180000       12.0110           0
     17086 MEMB     128      POPC     H11R     HAL2     0.900000E-01   1.00800           0
     17087 MEMB     128      POPC     H11S     HAL2     0.900000E-01   1.00800           0
     17088 MEMB     128      POPC     C212     CTL2    -0.180000       12.0110           0
     17089 MEMB     128      POPC     H12R     HAL2     0.900000E-01   1.00800           0
     17090 MEMB     128      POPC     H12S     HAL2     0.900000E-01   1.00800           0
     17091 MEMB     128      POPC     C213     CTL2    -0.180000       12.0110           0
     17092 MEMB     128      POPC     H13R     HAL2     0.900000E-01   1.00800           0
     17093 MEMB     128      POPC     H13S     HAL2     0.900000E-01   1.00800           0
     17094 MEMB     128      POPC     C214     CTL2    -0.180000       12.0110           0
     17095 MEMB     128      POPC     H14R     HAL2     0.900000E-01   1.00800           0
     17096 MEMB     128      POPC     H14S     HAL2     0.900000E-01   1.00800           0
     17097 MEMB     128      POPC     C215     CTL2    -0.180000       12.0110           0
     17098 MEMB     128      POPC     H15R     HAL2     0.900000E-01   1.00800           0
     17099 MEMB     128      POPC     H15S     HAL2     0.900000E-01   1.00800           0
     17100 MEMB     128      POPC     C216     CTL2    -0.180000       12.0110           0
     17101 MEMB     128      POPC     H16R     HAL2     0.900000E-01   1.00800           0
     17102 MEMB     128      POPC     H16S     HAL2     0.900000E-01   1.00800           0
     17103 MEMB     128      POPC     C217     CTL2    -0.180000       12.0110           0
     17104 MEMB     128      POPC     H17R     HAL2     0.900000E-01   1.00800           0
     17105 MEMB     128      POPC     H17S     HAL2     0.900000E-01   1.00800           0
     17106 MEMB     128      POPC     C218     CTL3    -0.270000       12.0110           0
     17107 MEMB     128      POPC     H18R     HAL3     0.900000E-01   1.00800           0
     17108 MEMB     128      POPC     H18S     HAL3     0.900000E-01   1.00800           0
     17109 MEMB     128      POPC     H18T     HAL3     0.900000E-01   1.00800           0
     17110 MEMB     128      POPC     C33      CTL2    -0.180000       12.0110           0
     17111 MEMB     128      POPC     H3X      HAL2     0.900000E-01   1.00800           0
     17112 MEMB     128      POPC     H3Y      HAL2     0.900000E-01   1.00800           0
     17113 MEMB     128      POPC     C34      CTL2    -0.180000       12.0110           0
     17114 MEMB     128      POPC     H4X      HAL2     0.900000E-01   1.00800           0
     17115 MEMB     128      POPC     H4Y      HAL2     0.900000E-01   1.00800           0
     17116 MEMB     128      POPC     C35      CTL2    -0.180000       12.0110           0
     17117 MEMB     128      POPC     H5X      HAL2     0.900000E-01   1.00800           0
     17118 MEMB     128      POPC     H5Y      HAL2     0.900000E-01   1.00800           0
     17119 MEMB     128      POPC     C36      CTL2    -0.180000       12.0110           0
     17120 MEMB     128      POPC     H6X      HAL2     0.900000E-01   1.00800           0
     17121 MEMB     128      POPC     H6Y      HAL2     0.900000E-01   1.00800           0
     17122 MEMB     128      POPC     C37      CTL2    -0.180000       12.0110           0
     17123 MEMB     128      POPC     H7X      HAL2     0.900000E-01   1.00800           0
     17124 MEMB     128      POPC     H7Y      HAL2     0.900000E-01   1.00800           0
     17125 MEMB     128      POPC     C38      CTL2    -0.180000       12.0110           0
     17126 MEMB     128      POPC     H8X      HAL2     0.900000E-01   1.00800           0
     17127 MEMB     128      POPC     H8Y      HAL2     0.900000E-01   1.00800           0
     17128 MEMB     128      POPC     C39      CTL2    -0.180000       12.0110           0
     17129 MEMB     128      POPC     H9X      HAL2     0.900000E-01   1.00800           0
     17130 MEMB     128      POPC     H9Y      HAL2     0.900000E-01   1.00800           0
     17131 MEMB     128      POPC     C310     CTL2    -0.180000       12.0110           0
     17132 MEMB     128      POPC     H10X     HAL2     0.900000E-01   1.00800           0
     17133 MEMB     128      POPC     H10Y     HAL2     0.900000E-01   1.00800           0
     17134 MEMB     128      POPC     C311     CTL2    -0.180000       12.0110           0
     17135 MEMB     128      POPC     H11X     HAL2     0.900000E-01   1.00800           0
     17136 MEMB     128      POPC     H11Y     HAL2     0.900000E-01   1.00800           0
     17137 MEMB     128      POPC     C312     CTL2    -0.180000       12.0110           0
     17138 MEMB     128      POPC     H12X     HAL2     0.900000E-01   1.00800           0
     17139 MEMB     128      POPC     H12Y     HAL2     0.900000E-01   1.00800           0
     17140 MEMB     128      POPC     C313     CTL2    -0.180000       12.0110           0
     17141 MEMB     128      POPC     H13X     HAL2     0.900000E-01   1.00800           0
     17142 MEMB     128      POPC     H13Y     HAL2     0.900000E-01   1.00800           0
     17143 MEMB     128      POPC     C314     CTL2    -0.180000       12.0110           0
     17144 MEMB     128      POPC     H14X     HAL2     0.900000E-01   1.00800           0
     17145 MEMB     128      POPC     H14Y     HAL2     0.900000E-01   1.00800           0
     17146 MEMB     128      POPC     C315     CTL2    -0.180000       12.0110           0
     17147 MEMB     128      POPC     H15X     HAL2     0.900000E-01   1.00800           0
     17148 MEMB     128      POPC     H15Y     HAL2     0.900000E-01   1.00800           0
     17149 MEMB     128      POPC     C316     CTL3    -0.270000       12.0110           0
     17150 MEMB     128      POPC     H16X     HAL3     0.900000E-01   1.00800           0
     17151 MEMB     128      POPC     H16Y     HAL3     0.900000E-01   1.00800           0
     17152 MEMB     128      POPC     H16Z     HAL3     0.900000E-01   1.00800           0
     17153 MEMB     129      POPC     N        NTL     -0.600000       14.0070           0
     17154 MEMB     129      POPC     C12      CTL2    -0.100000       12.0110           0
     17155 MEMB     129      POPC     H12A     HL       0.250000       1.00800           0
     17156 MEMB     129      POPC     H12B     HL       0.250000       1.00800           0
     17157 MEMB     129      POPC     C13      CTL5    -0.350000       12.0110           0
     17158 MEMB     129      POPC     H13A     HL       0.250000       1.00800           0
     17159 MEMB     129      POPC     H13B     HL       0.250000       1.00800           0
     17160 MEMB     129      POPC     H13C     HL       0.250000       1.00800           0
     17161 MEMB     129      POPC     C14      CTL5    -0.350000       12.0110           0
     17162 MEMB     129      POPC     H14A     HL       0.250000       1.00800           0
     17163 MEMB     129      POPC     H14B     HL       0.250000       1.00800           0
     17164 MEMB     129      POPC     H14C     HL       0.250000       1.00800           0
     17165 MEMB     129      POPC     C15      CTL5    -0.350000       12.0110           0
     17166 MEMB     129      POPC     H15A     HL       0.250000       1.00800           0
     17167 MEMB     129      POPC     H15B     HL       0.250000       1.00800           0
     17168 MEMB     129      POPC     H15C     HL       0.250000       1.00800           0
     17169 MEMB     129      POPC     C11      CTL2    -0.800000E-01   12.0110           0
     17170 MEMB     129      POPC     H11A     HAL2     0.900000E-01   1.00800           0
     17171 MEMB     129      POPC     H11B     HAL2     0.900000E-01   1.00800           0
     17172 MEMB     129      POPC     P        PL       1.50000        30.9740           0
     17173 MEMB     129      POPC     O13      O2L     -0.780000       15.9994           0
     17174 MEMB     129      POPC     O14      O2L     -0.780000       15.9994           0
     17175 MEMB     129      POPC     O12      OSLP    -0.570000       15.9994           0
     17176 MEMB     129      POPC     O11      OSLP    -0.570000       15.9994           0
     17177 MEMB     129      POPC     C1       CTL2    -0.800000E-01   12.0110           0
     17178 MEMB     129      POPC     HA       HAL2     0.900000E-01   1.00800           0
     17179 MEMB     129      POPC     HB       HAL2     0.900000E-01   1.00800           0
     17180 MEMB     129      POPC     C2       CTL1     0.170000       12.0110           0
     17181 MEMB     129      POPC     HS       HAL1     0.900000E-01   1.00800           0
     17182 MEMB     129      POPC     O21      OSL     -0.490000       15.9994           0
     17183 MEMB     129      POPC     C21      CL       0.900000       12.0110           0
     17184 MEMB     129      POPC     O22      OBL     -0.630000       15.9994           0
     17185 MEMB     129      POPC     C22      CTL2    -0.220000       12.0110           0
     17186 MEMB     129      POPC     H2R      HAL2     0.900000E-01   1.00800           0
     17187 MEMB     129      POPC     H2S      HAL2     0.900000E-01   1.00800           0
     17188 MEMB     129      POPC     C3       CTL2     0.800000E-01   12.0110           0
     17189 MEMB     129      POPC     HX       HAL2     0.900000E-01   1.00800           0
     17190 MEMB     129      POPC     HY       HAL2     0.900000E-01   1.00800           0
     17191 MEMB     129      POPC     O31      OSL     -0.490000       15.9994           0
     17192 MEMB     129      POPC     C31      CL       0.900000       12.0110           0
     17193 MEMB     129      POPC     O32      OBL     -0.630000       15.9994           0
     17194 MEMB     129      POPC     C32      CTL2    -0.220000       12.0110           0
     17195 MEMB     129      POPC     H2X      HAL2     0.900000E-01   1.00800           0
     17196 MEMB     129      POPC     H2Y      HAL2     0.900000E-01   1.00800           0
     17197 MEMB     129      POPC     C23      CTL2    -0.180000       12.0110           0
     17198 MEMB     129      POPC     H3R      HAL2     0.900000E-01   1.00800           0
     17199 MEMB     129      POPC     H3S      HAL2     0.900000E-01   1.00800           0
     17200 MEMB     129      POPC     C24      CTL2    -0.180000       12.0110           0
     17201 MEMB     129      POPC     H4R      HAL2     0.900000E-01   1.00800           0
     17202 MEMB     129      POPC     H4S      HAL2     0.900000E-01   1.00800           0
     17203 MEMB     129      POPC     C25      CTL2    -0.180000       12.0110           0
     17204 MEMB     129      POPC     H5R      HAL2     0.900000E-01   1.00800           0
     17205 MEMB     129      POPC     H5S      HAL2     0.900000E-01   1.00800           0
     17206 MEMB     129      POPC     C26      CTL2    -0.180000       12.0110           0
     17207 MEMB     129      POPC     H6R      HAL2     0.900000E-01   1.00800           0
     17208 MEMB     129      POPC     H6S      HAL2     0.900000E-01   1.00800           0
     17209 MEMB     129      POPC     C27      CTL2    -0.180000       12.0110           0
     17210 MEMB     129      POPC     H7R      HAL2     0.900000E-01   1.00800           0
     17211 MEMB     129      POPC     H7S      HAL2     0.900000E-01   1.00800           0
     17212 MEMB     129      POPC     C28      CTL2    -0.180000       12.0110           0
     17213 MEMB     129      POPC     H8R      HAL2     0.900000E-01   1.00800           0
     17214 MEMB     129      POPC     H8S      HAL2     0.900000E-01   1.00800           0
     17215 MEMB     129      POPC     C29      CEL1    -0.150000       12.0110           0
     17216 MEMB     129      POPC     H91      HEL1     0.150000       1.00800           0
     17217 MEMB     129      POPC     C210     CEL1    -0.150000       12.0110           0
     17218 MEMB     129      POPC     H101     HEL1     0.150000       1.00800           0
     17219 MEMB     129      POPC     C211     CTL2    -0.180000       12.0110           0
     17220 MEMB     129      POPC     H11R     HAL2     0.900000E-01   1.00800           0
     17221 MEMB     129      POPC     H11S     HAL2     0.900000E-01   1.00800           0
     17222 MEMB     129      POPC     C212     CTL2    -0.180000       12.0110           0
     17223 MEMB     129      POPC     H12R     HAL2     0.900000E-01   1.00800           0
     17224 MEMB     129      POPC     H12S     HAL2     0.900000E-01   1.00800           0
     17225 MEMB     129      POPC     C213     CTL2    -0.180000       12.0110           0
     17226 MEMB     129      POPC     H13R     HAL2     0.900000E-01   1.00800           0
     17227 MEMB     129      POPC     H13S     HAL2     0.900000E-01   1.00800           0
     17228 MEMB     129      POPC     C214     CTL2    -0.180000       12.0110           0
     17229 MEMB     129      POPC     H14R     HAL2     0.900000E-01   1.00800           0
     17230 MEMB     129      POPC     H14S     HAL2     0.900000E-01   1.00800           0
     17231 MEMB     129      POPC     C215     CTL2    -0.180000       12.0110           0
     17232 MEMB     129      POPC     H15R     HAL2     0.900000E-01   1.00800           0
     17233 MEMB     129      POPC     H15S     HAL2     0.900000E-01   1.00800           0
     17234 MEMB     129      POPC     C216     CTL2    -0.180000       12.0110           0
     17235 MEMB     129      POPC     H16R     HAL2     0.900000E-01   1.00800           0
     17236 MEMB     129      POPC     H16S     HAL2     0.900000E-01   1.00800           0
     17237 MEMB     129      POPC     C217     CTL2    -0.180000       12.0110           0
     17238 MEMB     129      POPC     H17R     HAL2     0.900000E-01   1.00800           0
     17239 MEMB     129      POPC     H17S     HAL2     0.900000E-01   1.00800           0
     17240 MEMB     129      POPC     C218     CTL3    -0.270000       12.0110           0
     17241 MEMB     129      POPC     H18R     HAL3     0.900000E-01   1.00800           0
     17242 MEMB     129      POPC     H18S     HAL3     0.900000E-01   1.00800           0
     17243 MEMB     129      POPC     H18T     HAL3     0.900000E-01   1.00800           0
     17244 MEMB     129      POPC     C33      CTL2    -0.180000       12.0110           0
     17245 MEMB     129      POPC     H3X      HAL2     0.900000E-01   1.00800           0
     17246 MEMB     129      POPC     H3Y      HAL2     0.900000E-01   1.00800           0
     17247 MEMB     129      POPC     C34      CTL2    -0.180000       12.0110           0
     17248 MEMB     129      POPC     H4X      HAL2     0.900000E-01   1.00800           0
     17249 MEMB     129      POPC     H4Y      HAL2     0.900000E-01   1.00800           0
     17250 MEMB     129      POPC     C35      CTL2    -0.180000       12.0110           0
     17251 MEMB     129      POPC     H5X      HAL2     0.900000E-01   1.00800           0
     17252 MEMB     129      POPC     H5Y      HAL2     0.900000E-01   1.00800           0
     17253 MEMB     129      POPC     C36      CTL2    -0.180000       12.0110           0
     17254 MEMB     129      POPC     H6X      HAL2     0.900000E-01   1.00800           0
     17255 MEMB     129      POPC     H6Y      HAL2     0.900000E-01   1.00800           0
     17256 MEMB     129      POPC     C37      CTL2    -0.180000       12.0110           0
     17257 MEMB     129      POPC     H7X      HAL2     0.900000E-01   1.00800           0
     17258 MEMB     129      POPC     H7Y      HAL2     0.900000E-01   1.00800           0
     17259 MEMB     129      POPC     C38      CTL2    -0.180000       12.0110           0
     17260 MEMB     129      POPC     H8X      HAL2     0.900000E-01   1.00800           0
     17261 MEMB     129      POPC     H8Y      HAL2     0.900000E-01   1.00800           0
     17262 MEMB     129      POPC     C39      CTL2    -0.180000       12.0110           0
     17263 MEMB     129      POPC     H9X      HAL2     0.900000E-01   1.00800           0
     17264 MEMB     129      POPC     H9Y      HAL2     0.900000E-01   1.00800           0
     17265 MEMB     129      POPC     C310     CTL2    -0.180000       12.0110           0
     17266 MEMB     129      POPC     H10X     HAL2     0.900000E-01   1.00800           0
     17267 MEMB     129      POPC     H10Y     HAL2     0.900000E-01   1.00800           0
     17268 MEMB     129      POPC     C311     CTL2    -0.180000       12.0110           0
     17269 MEMB     129      POPC     H11X     HAL2     0.900000E-01   1.00800           0
     17270 MEMB     129      POPC     H11Y     HAL2     0.900000E-01   1.00800           0
     17271 MEMB     129      POPC     C312     CTL2    -0.180000       12.0110           0
     17272 MEMB     129      POPC     H12X     HAL2     0.900000E-01   1.00800           0
     17273 MEMB     129      POPC     H12Y     HAL2     0.900000E-01   1.00800           0
     17274 MEMB     129      POPC     C313     CTL2    -0.180000       12.0110           0
     17275 MEMB     129      POPC     H13X     HAL2     0.900000E-01   1.00800           0
     17276 MEMB     129      POPC     H13Y     HAL2     0.900000E-01   1.00800           0
     17277 MEMB     129      POPC     C314     CTL2    -0.180000       12.0110           0
     17278 MEMB     129      POPC     H14X     HAL2     0.900000E-01   1.00800           0
     17279 MEMB     129      POPC     H14Y     HAL2     0.900000E-01   1.00800           0
     17280 MEMB     129      POPC     C315     CTL2    -0.180000       12.0110           0
     17281 MEMB     129      POPC     H15X     HAL2     0.900000E-01   1.00800           0
     17282 MEMB     129      POPC     H15Y     HAL2     0.900000E-01   1.00800           0
     17283 MEMB     129      POPC     C316     CTL3    -0.270000       12.0110           0
     17284 MEMB     129      POPC     H16X     HAL3     0.900000E-01   1.00800           0
     17285 MEMB     129      POPC     H16Y     HAL3     0.900000E-01   1.00800           0
     17286 MEMB     129      POPC     H16Z     HAL3     0.900000E-01   1.00800           0
     17287 MEMB     130      POPC     N        NTL     -0.600000       14.0070           0
     17288 MEMB     130      POPC     C12      CTL2    -0.100000       12.0110           0
     17289 MEMB     130      POPC     H12A     HL       0.250000       1.00800           0
     17290 MEMB     130      POPC     H12B     HL       0.250000       1.00800           0
     17291 MEMB     130      POPC     C13      CTL5    -0.350000       12.0110           0
     17292 MEMB     130      POPC     H13A     HL       0.250000       1.00800           0
     17293 MEMB     130      POPC     H13B     HL       0.250000       1.00800           0
     17294 MEMB     130      POPC     H13C     HL       0.250000       1.00800           0
     17295 MEMB     130      POPC     C14      CTL5    -0.350000       12.0110           0
     17296 MEMB     130      POPC     H14A     HL       0.250000       1.00800           0
     17297 MEMB     130      POPC     H14B     HL       0.250000       1.00800           0
     17298 MEMB     130      POPC     H14C     HL       0.250000       1.00800           0
     17299 MEMB     130      POPC     C15      CTL5    -0.350000       12.0110           0
     17300 MEMB     130      POPC     H15A     HL       0.250000       1.00800           0
     17301 MEMB     130      POPC     H15B     HL       0.250000       1.00800           0
     17302 MEMB     130      POPC     H15C     HL       0.250000       1.00800           0
     17303 MEMB     130      POPC     C11      CTL2    -0.800000E-01   12.0110           0
     17304 MEMB     130      POPC     H11A     HAL2     0.900000E-01   1.00800           0
     17305 MEMB     130      POPC     H11B     HAL2     0.900000E-01   1.00800           0
     17306 MEMB     130      POPC     P        PL       1.50000        30.9740           0
     17307 MEMB     130      POPC     O13      O2L     -0.780000       15.9994           0
     17308 MEMB     130      POPC     O14      O2L     -0.780000       15.9994           0
     17309 MEMB     130      POPC     O12      OSLP    -0.570000       15.9994           0
     17310 MEMB     130      POPC     O11      OSLP    -0.570000       15.9994           0
     17311 MEMB     130      POPC     C1       CTL2    -0.800000E-01   12.0110           0
     17312 MEMB     130      POPC     HA       HAL2     0.900000E-01   1.00800           0
     17313 MEMB     130      POPC     HB       HAL2     0.900000E-01   1.00800           0
     17314 MEMB     130      POPC     C2       CTL1     0.170000       12.0110           0
     17315 MEMB     130      POPC     HS       HAL1     0.900000E-01   1.00800           0
     17316 MEMB     130      POPC     O21      OSL     -0.490000       15.9994           0
     17317 MEMB     130      POPC     C21      CL       0.900000       12.0110           0
     17318 MEMB     130      POPC     O22      OBL     -0.630000       15.9994           0
     17319 MEMB     130      POPC     C22      CTL2    -0.220000       12.0110           0
     17320 MEMB     130      POPC     H2R      HAL2     0.900000E-01   1.00800           0
     17321 MEMB     130      POPC     H2S      HAL2     0.900000E-01   1.00800           0
     17322 MEMB     130      POPC     C3       CTL2     0.800000E-01   12.0110           0
     17323 MEMB     130      POPC     HX       HAL2     0.900000E-01   1.00800           0
     17324 MEMB     130      POPC     HY       HAL2     0.900000E-01   1.00800           0
     17325 MEMB     130      POPC     O31      OSL     -0.490000       15.9994           0
     17326 MEMB     130      POPC     C31      CL       0.900000       12.0110           0
     17327 MEMB     130      POPC     O32      OBL     -0.630000       15.9994           0
     17328 MEMB     130      POPC     C32      CTL2    -0.220000       12.0110           0
     17329 MEMB     130      POPC     H2X      HAL2     0.900000E-01   1.00800           0
     17330 MEMB     130      POPC     H2Y      HAL2     0.900000E-01   1.00800           0
     17331 MEMB     130      POPC     C23      CTL2    -0.180000       12.0110           0
     17332 MEMB     130      POPC     H3R      HAL2     0.900000E-01   1.00800           0
     17333 MEMB     130      POPC     H3S      HAL2     0.900000E-01   1.00800           0
     17334 MEMB     130      POPC     C24      CTL2    -0.180000       12.0110           0
     17335 MEMB     130      POPC     H4R      HAL2     0.900000E-01   1.00800           0
     17336 MEMB     130      POPC     H4S      HAL2     0.900000E-01   1.00800           0
     17337 MEMB     130      POPC     C25      CTL2    -0.180000       12.0110           0
     17338 MEMB     130      POPC     H5R      HAL2     0.900000E-01   1.00800           0
     17339 MEMB     130      POPC     H5S      HAL2     0.900000E-01   1.00800           0
     17340 MEMB     130      POPC     C26      CTL2    -0.180000       12.0110           0
     17341 MEMB     130      POPC     H6R      HAL2     0.900000E-01   1.00800           0
     17342 MEMB     130      POPC     H6S      HAL2     0.900000E-01   1.00800           0
     17343 MEMB     130      POPC     C27      CTL2    -0.180000       12.0110           0
     17344 MEMB     130      POPC     H7R      HAL2     0.900000E-01   1.00800           0
     17345 MEMB     130      POPC     H7S      HAL2     0.900000E-01   1.00800           0
     17346 MEMB     130      POPC     C28      CTL2    -0.180000       12.0110           0
     17347 MEMB     130      POPC     H8R      HAL2     0.900000E-01   1.00800           0
     17348 MEMB     130      POPC     H8S      HAL2     0.900000E-01   1.00800           0
     17349 MEMB     130      POPC     C29      CEL1    -0.150000       12.0110           0
     17350 MEMB     130      POPC     H91      HEL1     0.150000       1.00800           0
     17351 MEMB     130      POPC     C210     CEL1    -0.150000       12.0110           0
     17352 MEMB     130      POPC     H101     HEL1     0.150000       1.00800           0
     17353 MEMB     130      POPC     C211     CTL2    -0.180000       12.0110           0
     17354 MEMB     130      POPC     H11R     HAL2     0.900000E-01   1.00800           0
     17355 MEMB     130      POPC     H11S     HAL2     0.900000E-01   1.00800           0
     17356 MEMB     130      POPC     C212     CTL2    -0.180000       12.0110           0
     17357 MEMB     130      POPC     H12R     HAL2     0.900000E-01   1.00800           0
     17358 MEMB     130      POPC     H12S     HAL2     0.900000E-01   1.00800           0
     17359 MEMB     130      POPC     C213     CTL2    -0.180000       12.0110           0
     17360 MEMB     130      POPC     H13R     HAL2     0.900000E-01   1.00800           0
     17361 MEMB     130      POPC     H13S     HAL2     0.900000E-01   1.00800           0
     17362 MEMB     130      POPC     C214     CTL2    -0.180000       12.0110           0
     17363 MEMB     130      POPC     H14R     HAL2     0.900000E-01   1.00800           0
     17364 MEMB     130      POPC     H14S     HAL2     0.900000E-01   1.00800           0
     17365 MEMB     130      POPC     C215     CTL2    -0.180000       12.0110           0
     17366 MEMB     130      POPC     H15R     HAL2     0.900000E-01   1.00800           0
     17367 MEMB     130      POPC     H15S     HAL2     0.900000E-01   1.00800           0
     17368 MEMB     130      POPC     C216     CTL2    -0.180000       12.0110           0
     17369 MEMB     130      POPC     H16R     HAL2     0.900000E-01   1.00800           0
     17370 MEMB     130      POPC     H16S     HAL2     0.900000E-01   1.00800           0
     17371 MEMB     130      POPC     C217     CTL2    -0.180000       12.0110           0
     17372 MEMB     130      POPC     H17R     HAL2     0.900000E-01   1.00800           0
     17373 MEMB     130      POPC     H17S     HAL2     0.900000E-01   1.00800           0
     17374 MEMB     130      POPC     C218     CTL3    -0.270000       12.0110           0
     17375 MEMB     130      POPC     H18R     HAL3     0.900000E-01   1.00800           0
     17376 MEMB     130      POPC     H18S     HAL3     0.900000E-01   1.00800           0
     17377 MEMB     130      POPC     H18T     HAL3     0.900000E-01   1.00800           0
     17378 MEMB     130      POPC     C33      CTL2    -0.180000       12.0110           0
     17379 MEMB     130      POPC     H3X      HAL2     0.900000E-01   1.00800           0
     17380 MEMB     130      POPC     H3Y      HAL2     0.900000E-01   1.00800           0
     17381 MEMB     130      POPC     C34      CTL2    -0.180000       12.0110           0
     17382 MEMB     130      POPC     H4X      HAL2     0.900000E-01   1.00800           0
     17383 MEMB     130      POPC     H4Y      HAL2     0.900000E-01   1.00800           0
     17384 MEMB     130      POPC     C35      CTL2    -0.180000       12.0110           0
     17385 MEMB     130      POPC     H5X      HAL2     0.900000E-01   1.00800           0
     17386 MEMB     130      POPC     H5Y      HAL2     0.900000E-01   1.00800           0
     17387 MEMB     130      POPC     C36      CTL2    -0.180000       12.0110           0
     17388 MEMB     130      POPC     H6X      HAL2     0.900000E-01   1.00800           0
     17389 MEMB     130      POPC     H6Y      HAL2     0.900000E-01   1.00800           0
     17390 MEMB     130      POPC     C37      CTL2    -0.180000       12.0110           0
     17391 MEMB     130      POPC     H7X      HAL2     0.900000E-01   1.00800           0
     17392 MEMB     130      POPC     H7Y      HAL2     0.900000E-01   1.00800           0
     17393 MEMB     130      POPC     C38      CTL2    -0.180000       12.0110           0
     17394 MEMB     130      POPC     H8X      HAL2     0.900000E-01   1.00800           0
     17395 MEMB     130      POPC     H8Y      HAL2     0.900000E-01   1.00800           0
     17396 MEMB     130      POPC     C39      CTL2    -0.180000       12.0110           0
     17397 MEMB     130      POPC     H9X      HAL2     0.900000E-01   1.00800           0
     17398 MEMB     130      POPC     H9Y      HAL2     0.900000E-01   1.00800           0
     17399 MEMB     130      POPC     C310     CTL2    -0.180000       12.0110           0
     17400 MEMB     130      POPC     H10X     HAL2     0.900000E-01   1.00800           0
     17401 MEMB     130      POPC     H10Y     HAL2     0.900000E-01   1.00800           0
     17402 MEMB     130      POPC     C311     CTL2    -0.180000       12.0110           0
     17403 MEMB     130      POPC     H11X     HAL2     0.900000E-01   1.00800           0
     17404 MEMB     130      POPC     H11Y     HAL2     0.900000E-01   1.00800           0
     17405 MEMB     130      POPC     C312     CTL2    -0.180000       12.0110           0
     17406 MEMB     130      POPC     H12X     HAL2     0.900000E-01   1.00800           0
     17407 MEMB     130      POPC     H12Y     HAL2     0.900000E-01   1.00800           0
     17408 MEMB     130      POPC     C313     CTL2    -0.180000       12.0110           0
     17409 MEMB     130      POPC     H13X     HAL2     0.900000E-01   1.00800           0
     17410 MEMB     130      POPC     H13Y     HAL2     0.900000E-01   1.00800           0
     17411 MEMB     130      POPC     C314     CTL2    -0.180000       12.0110           0
     17412 MEMB     130      POPC     H14X     HAL2     0.900000E-01   1.00800           0
     17413 MEMB     130      POPC     H14Y     HAL2     0.900000E-01   1.00800           0
     17414 MEMB     130      POPC     C315     CTL2    -0.180000       12.0110           0
     17415 MEMB     130      POPC     H15X     HAL2     0.900000E-01   1.00800           0
     17416 MEMB     130      POPC     H15Y     HAL2     0.900000E-01   1.00800           0
     17417 MEMB     130      POPC     C316     CTL3    -0.270000       12.0110           0
     17418 MEMB     130      POPC     H16X     HAL3     0.900000E-01   1.00800           0
     17419 MEMB     130      POPC     H16Y     HAL3     0.900000E-01   1.00800           0
     17420 MEMB     130      POPC     H16Z     HAL3     0.900000E-01   1.00800           0
     17421 MEMB     131      POPC     N        NTL     -0.600000       14.0070           0
     17422 MEMB     131      POPC     C12      CTL2    -0.100000       12.0110           0
     17423 MEMB     131      POPC     H12A     HL       0.250000       1.00800           0
     17424 MEMB     131      POPC     H12B     HL       0.250000       1.00800           0
     17425 MEMB     131      POPC     C13      CTL5    -0.350000       12.0110           0
     17426 MEMB     131      POPC     H13A     HL       0.250000       1.00800           0
     17427 MEMB     131      POPC     H13B     HL       0.250000       1.00800           0
     17428 MEMB     131      POPC     H13C     HL       0.250000       1.00800           0
     17429 MEMB     131      POPC     C14      CTL5    -0.350000       12.0110           0
     17430 MEMB     131      POPC     H14A     HL       0.250000       1.00800           0
     17431 MEMB     131      POPC     H14B     HL       0.250000       1.00800           0
     17432 MEMB     131      POPC     H14C     HL       0.250000       1.00800           0
     17433 MEMB     131      POPC     C15      CTL5    -0.350000       12.0110           0
     17434 MEMB     131      POPC     H15A     HL       0.250000       1.00800           0
     17435 MEMB     131      POPC     H15B     HL       0.250000       1.00800           0
     17436 MEMB     131      POPC     H15C     HL       0.250000       1.00800           0
     17437 MEMB     131      POPC     C11      CTL2    -0.800000E-01   12.0110           0
     17438 MEMB     131      POPC     H11A     HAL2     0.900000E-01   1.00800           0
     17439 MEMB     131      POPC     H11B     HAL2     0.900000E-01   1.00800           0
     17440 MEMB     131      POPC     P        PL       1.50000        30.9740           0
     17441 MEMB     131      POPC     O13      O2L     -0.780000       15.9994           0
     17442 MEMB     131      POPC     O14      O2L     -0.780000       15.9994           0
     17443 MEMB     131      POPC     O12      OSLP    -0.570000       15.9994           0
     17444 MEMB     131      POPC     O11      OSLP    -0.570000       15.9994           0
     17445 MEMB     131      POPC     C1       CTL2    -0.800000E-01   12.0110           0
     17446 MEMB     131      POPC     HA       HAL2     0.900000E-01   1.00800           0
     17447 MEMB     131      POPC     HB       HAL2     0.900000E-01   1.00800           0
     17448 MEMB     131      POPC     C2       CTL1     0.170000       12.0110           0
     17449 MEMB     131      POPC     HS       HAL1     0.900000E-01   1.00800           0
     17450 MEMB     131      POPC     O21      OSL     -0.490000       15.9994           0
     17451 MEMB     131      POPC     C21      CL       0.900000       12.0110           0
     17452 MEMB     131      POPC     O22      OBL     -0.630000       15.9994           0
     17453 MEMB     131      POPC     C22      CTL2    -0.220000       12.0110           0
     17454 MEMB     131      POPC     H2R      HAL2     0.900000E-01   1.00800           0
     17455 MEMB     131      POPC     H2S      HAL2     0.900000E-01   1.00800           0
     17456 MEMB     131      POPC     C3       CTL2     0.800000E-01   12.0110           0
     17457 MEMB     131      POPC     HX       HAL2     0.900000E-01   1.00800           0
     17458 MEMB     131      POPC     HY       HAL2     0.900000E-01   1.00800           0
     17459 MEMB     131      POPC     O31      OSL     -0.490000       15.9994           0
     17460 MEMB     131      POPC     C31      CL       0.900000       12.0110           0
     17461 MEMB     131      POPC     O32      OBL     -0.630000       15.9994           0
     17462 MEMB     131      POPC     C32      CTL2    -0.220000       12.0110           0
     17463 MEMB     131      POPC     H2X      HAL2     0.900000E-01   1.00800           0
     17464 MEMB     131      POPC     H2Y      HAL2     0.900000E-01   1.00800           0
     17465 MEMB     131      POPC     C23      CTL2    -0.180000       12.0110           0
     17466 MEMB     131      POPC     H3R      HAL2     0.900000E-01   1.00800           0
     17467 MEMB     131      POPC     H3S      HAL2     0.900000E-01   1.00800           0
     17468 MEMB     131      POPC     C24      CTL2    -0.180000       12.0110           0
     17469 MEMB     131      POPC     H4R      HAL2     0.900000E-01   1.00800           0
     17470 MEMB     131      POPC     H4S      HAL2     0.900000E-01   1.00800           0
     17471 MEMB     131      POPC     C25      CTL2    -0.180000       12.0110           0
     17472 MEMB     131      POPC     H5R      HAL2     0.900000E-01   1.00800           0
     17473 MEMB     131      POPC     H5S      HAL2     0.900000E-01   1.00800           0
     17474 MEMB     131      POPC     C26      CTL2    -0.180000       12.0110           0
     17475 MEMB     131      POPC     H6R      HAL2     0.900000E-01   1.00800           0
     17476 MEMB     131      POPC     H6S      HAL2     0.900000E-01   1.00800           0
     17477 MEMB     131      POPC     C27      CTL2    -0.180000       12.0110           0
     17478 MEMB     131      POPC     H7R      HAL2     0.900000E-01   1.00800           0
     17479 MEMB     131      POPC     H7S      HAL2     0.900000E-01   1.00800           0
     17480 MEMB     131      POPC     C28      CTL2    -0.180000       12.0110           0
     17481 MEMB     131      POPC     H8R      HAL2     0.900000E-01   1.00800           0
     17482 MEMB     131      POPC     H8S      HAL2     0.900000E-01   1.00800           0
     17483 MEMB     131      POPC     C29      CEL1    -0.150000       12.0110           0
     17484 MEMB     131      POPC     H91      HEL1     0.150000       1.00800           0
     17485 MEMB     131      POPC     C210     CEL1    -0.150000       12.0110           0
     17486 MEMB     131      POPC     H101     HEL1     0.150000       1.00800           0
     17487 MEMB     131      POPC     C211     CTL2    -0.180000       12.0110           0
     17488 MEMB     131      POPC     H11R     HAL2     0.900000E-01   1.00800           0
     17489 MEMB     131      POPC     H11S     HAL2     0.900000E-01   1.00800           0
     17490 MEMB     131      POPC     C212     CTL2    -0.180000       12.0110           0
     17491 MEMB     131      POPC     H12R     HAL2     0.900000E-01   1.00800           0
     17492 MEMB     131      POPC     H12S     HAL2     0.900000E-01   1.00800           0
     17493 MEMB     131      POPC     C213     CTL2    -0.180000       12.0110           0
     17494 MEMB     131      POPC     H13R     HAL2     0.900000E-01   1.00800           0
     17495 MEMB     131      POPC     H13S     HAL2     0.900000E-01   1.00800           0
     17496 MEMB     131      POPC     C214     CTL2    -0.180000       12.0110           0
     17497 MEMB     131      POPC     H14R     HAL2     0.900000E-01   1.00800           0
     17498 MEMB     131      POPC     H14S     HAL2     0.900000E-01   1.00800           0
     17499 MEMB     131      POPC     C215     CTL2    -0.180000       12.0110           0
     17500 MEMB     131      POPC     H15R     HAL2     0.900000E-01   1.00800           0
     17501 MEMB     131      POPC     H15S     HAL2     0.900000E-01   1.00800           0
     17502 MEMB     131      POPC     C216     CTL2    -0.180000       12.0110           0
     17503 MEMB     131      POPC     H16R     HAL2     0.900000E-01   1.00800           0
     17504 MEMB     131      POPC     H16S     HAL2     0.900000E-01   1.00800           0
     17505 MEMB     131      POPC     C217     CTL2    -0.180000       12.0110           0
     17506 MEMB     131      POPC     H17R     HAL2     0.900000E-01   1.00800           0
     17507 MEMB     131      POPC     H17S     HAL2     0.900000E-01   1.00800           0
     17508 MEMB     131      POPC     C218     CTL3    -0.270000       12.0110           0
     17509 MEMB     131      POPC     H18R     HAL3     0.900000E-01   1.00800           0
     17510 MEMB     131      POPC     H18S     HAL3     0.900000E-01   1.00800           0
     17511 MEMB     131      POPC     H18T     HAL3     0.900000E-01   1.00800           0
     17512 MEMB     131      POPC     C33      CTL2    -0.180000       12.0110           0
     17513 MEMB     131      POPC     H3X      HAL2     0.900000E-01   1.00800           0
     17514 MEMB     131      POPC     H3Y      HAL2     0.900000E-01   1.00800           0
     17515 MEMB     131      POPC     C34      CTL2    -0.180000       12.0110           0
     17516 MEMB     131      POPC     H4X      HAL2     0.900000E-01   1.00800           0
     17517 MEMB     131      POPC     H4Y      HAL2     0.900000E-01   1.00800           0
     17518 MEMB     131      POPC     C35      CTL2    -0.180000       12.0110           0
     17519 MEMB     131      POPC     H5X      HAL2     0.900000E-01   1.00800           0
     17520 MEMB     131      POPC     H5Y      HAL2     0.900000E-01   1.00800           0
     17521 MEMB     131      POPC     C36      CTL2    -0.180000       12.0110           0
     17522 MEMB     131      POPC     H6X      HAL2     0.900000E-01   1.00800           0
     17523 MEMB     131      POPC     H6Y      HAL2     0.900000E-01   1.00800           0
     17524 MEMB     131      POPC     C37      CTL2    -0.180000       12.0110           0
     17525 MEMB     131      POPC     H7X      HAL2     0.900000E-01   1.00800           0
     17526 MEMB     131      POPC     H7Y      HAL2     0.900000E-01   1.00800           0
     17527 MEMB     131      POPC     C38      CTL2    -0.180000       12.0110           0
     17528 MEMB     131      POPC     H8X      HAL2     0.900000E-01   1.00800           0
     17529 MEMB     131      POPC     H8Y      HAL2     0.900000E-01   1.00800           0
     17530 MEMB     131      POPC     C39      CTL2    -0.180000       12.0110           0
     17531 MEMB     131      POPC     H9X      HAL2     0.900000E-01   1.00800           0
     17532 MEMB     131      POPC     H9Y      HAL2     0.900000E-01   1.00800           0
     17533 MEMB     131      POPC     C310     CTL2    -0.180000       12.0110           0
     17534 MEMB     131      POPC     H10X     HAL2     0.900000E-01   1.00800           0
     17535 MEMB     131      POPC     H10Y     HAL2     0.900000E-01   1.00800           0
     17536 MEMB     131      POPC     C311     CTL2    -0.180000       12.0110           0
     17537 MEMB     131      POPC     H11X     HAL2     0.900000E-01   1.00800           0
     17538 MEMB     131      POPC     H11Y     HAL2     0.900000E-01   1.00800           0
     17539 MEMB     131      POPC     C312     CTL2    -0.180000       12.0110           0
     17540 MEMB     131      POPC     H12X     HAL2     0.900000E-01   1.00800           0
     17541 MEMB     131      POPC     H12Y     HAL2     0.900000E-01   1.00800           0
     17542 MEMB     131      POPC     C313     CTL2    -0.180000       12.0110           0
     17543 MEMB     131      POPC     H13X     HAL2     0.900000E-01   1.00800           0
     17544 MEMB     131      POPC     H13Y     HAL2     0.900000E-01   1.00800           0
     17545 MEMB     131      POPC     C314     CTL2    -0.180000       12.0110           0
     17546 MEMB     131      POPC     H14X     HAL2     0.900000E-01   1.00800           0
     17547 MEMB     131      POPC     H14Y     HAL2     0.900000E-01   1.00800           0
     17548 MEMB     131      POPC     C315     CTL2    -0.180000       12.0110           0
     17549 MEMB     131      POPC     H15X     HAL2     0.900000E-01   1.00800           0
     17550 MEMB     131      POPC     H15Y     HAL2     0.900000E-01   1.00800           0
     17551 MEMB     131      POPC     C316     CTL3    -0.270000       12.0110           0
     17552 MEMB     131      POPC     H16X     HAL3     0.900000E-01   1.00800           0
     17553 MEMB     131      POPC     H16Y     HAL3     0.900000E-01   1.00800           0
     17554 MEMB     131      POPC     H16Z     HAL3     0.900000E-01   1.00800           0
     17555 MEMB     132      POPC     N        NTL     -0.600000       14.0070           0
     17556 MEMB     132      POPC     C12      CTL2    -0.100000       12.0110           0
     17557 MEMB     132      POPC     H12A     HL       0.250000       1.00800           0
     17558 MEMB     132      POPC     H12B     HL       0.250000       1.00800           0
     17559 MEMB     132      POPC     C13      CTL5    -0.350000       12.0110           0
     17560 MEMB     132      POPC     H13A     HL       0.250000       1.00800           0
     17561 MEMB     132      POPC     H13B     HL       0.250000       1.00800           0
     17562 MEMB     132      POPC     H13C     HL       0.250000       1.00800           0
     17563 MEMB     132      POPC     C14      CTL5    -0.350000       12.0110           0
     17564 MEMB     132      POPC     H14A     HL       0.250000       1.00800           0
     17565 MEMB     132      POPC     H14B     HL       0.250000       1.00800           0
     17566 MEMB     132      POPC     H14C     HL       0.250000       1.00800           0
     17567 MEMB     132      POPC     C15      CTL5    -0.350000       12.0110           0
     17568 MEMB     132      POPC     H15A     HL       0.250000       1.00800           0
     17569 MEMB     132      POPC     H15B     HL       0.250000       1.00800           0
     17570 MEMB     132      POPC     H15C     HL       0.250000       1.00800           0
     17571 MEMB     132      POPC     C11      CTL2    -0.800000E-01   12.0110           0
     17572 MEMB     132      POPC     H11A     HAL2     0.900000E-01   1.00800           0
     17573 MEMB     132      POPC     H11B     HAL2     0.900000E-01   1.00800           0
     17574 MEMB     132      POPC     P        PL       1.50000        30.9740           0
     17575 MEMB     132      POPC     O13      O2L     -0.780000       15.9994           0
     17576 MEMB     132      POPC     O14      O2L     -0.780000       15.9994           0
     17577 MEMB     132      POPC     O12      OSLP    -0.570000       15.9994           0
     17578 MEMB     132      POPC     O11      OSLP    -0.570000       15.9994           0
     17579 MEMB     132      POPC     C1       CTL2    -0.800000E-01   12.0110           0
     17580 MEMB     132      POPC     HA       HAL2     0.900000E-01   1.00800           0
     17581 MEMB     132      POPC     HB       HAL2     0.900000E-01   1.00800           0
     17582 MEMB     132      POPC     C2       CTL1     0.170000       12.0110           0
     17583 MEMB     132      POPC     HS       HAL1     0.900000E-01   1.00800           0
     17584 MEMB     132      POPC     O21      OSL     -0.490000       15.9994           0
     17585 MEMB     132      POPC     C21      CL       0.900000       12.0110           0
     17586 MEMB     132      POPC     O22      OBL     -0.630000       15.9994           0
     17587 MEMB     132      POPC     C22      CTL2    -0.220000       12.0110           0
     17588 MEMB     132      POPC     H2R      HAL2     0.900000E-01   1.00800           0
     17589 MEMB     132      POPC     H2S      HAL2     0.900000E-01   1.00800           0
     17590 MEMB     132      POPC     C3       CTL2     0.800000E-01   12.0110           0
     17591 MEMB     132      POPC     HX       HAL2     0.900000E-01   1.00800           0
     17592 MEMB     132      POPC     HY       HAL2     0.900000E-01   1.00800           0
     17593 MEMB     132      POPC     O31      OSL     -0.490000       15.9994           0
     17594 MEMB     132      POPC     C31      CL       0.900000       12.0110           0
     17595 MEMB     132      POPC     O32      OBL     -0.630000       15.9994           0
     17596 MEMB     132      POPC     C32      CTL2    -0.220000       12.0110           0
     17597 MEMB     132      POPC     H2X      HAL2     0.900000E-01   1.00800           0
     17598 MEMB     132      POPC     H2Y      HAL2     0.900000E-01   1.00800           0
     17599 MEMB     132      POPC     C23      CTL2    -0.180000       12.0110           0
     17600 MEMB     132      POPC     H3R      HAL2     0.900000E-01   1.00800           0
     17601 MEMB     132      POPC     H3S      HAL2     0.900000E-01   1.00800           0
     17602 MEMB     132      POPC     C24      CTL2    -0.180000       12.0110           0
     17603 MEMB     132      POPC     H4R      HAL2     0.900000E-01   1.00800           0
     17604 MEMB     132      POPC     H4S      HAL2     0.900000E-01   1.00800           0
     17605 MEMB     132      POPC     C25      CTL2    -0.180000       12.0110           0
     17606 MEMB     132      POPC     H5R      HAL2     0.900000E-01   1.00800           0
     17607 MEMB     132      POPC     H5S      HAL2     0.900000E-01   1.00800           0
     17608 MEMB     132      POPC     C26      CTL2    -0.180000       12.0110           0
     17609 MEMB     132      POPC     H6R      HAL2     0.900000E-01   1.00800           0
     17610 MEMB     132      POPC     H6S      HAL2     0.900000E-01   1.00800           0
     17611 MEMB     132      POPC     C27      CTL2    -0.180000       12.0110           0
     17612 MEMB     132      POPC     H7R      HAL2     0.900000E-01   1.00800           0
     17613 MEMB     132      POPC     H7S      HAL2     0.900000E-01   1.00800           0
     17614 MEMB     132      POPC     C28      CTL2    -0.180000       12.0110           0
     17615 MEMB     132      POPC     H8R      HAL2     0.900000E-01   1.00800           0
     17616 MEMB     132      POPC     H8S      HAL2     0.900000E-01   1.00800           0
     17617 MEMB     132      POPC     C29      CEL1    -0.150000       12.0110           0
     17618 MEMB     132      POPC     H91      HEL1     0.150000       1.00800           0
     17619 MEMB     132      POPC     C210     CEL1    -0.150000       12.0110           0
     17620 MEMB     132      POPC     H101     HEL1     0.150000       1.00800           0
     17621 MEMB     132      POPC     C211     CTL2    -0.180000       12.0110           0
     17622 MEMB     132      POPC     H11R     HAL2     0.900000E-01   1.00800           0
     17623 MEMB     132      POPC     H11S     HAL2     0.900000E-01   1.00800           0
     17624 MEMB     132      POPC     C212     CTL2    -0.180000       12.0110           0
     17625 MEMB     132      POPC     H12R     HAL2     0.900000E-01   1.00800           0
     17626 MEMB     132      POPC     H12S     HAL2     0.900000E-01   1.00800           0
     17627 MEMB     132      POPC     C213     CTL2    -0.180000       12.0110           0
     17628 MEMB     132      POPC     H13R     HAL2     0.900000E-01   1.00800           0
     17629 MEMB     132      POPC     H13S     HAL2     0.900000E-01   1.00800           0
     17630 MEMB     132      POPC     C214     CTL2    -0.180000       12.0110           0
     17631 MEMB     132      POPC     H14R     HAL2     0.900000E-01   1.00800           0
     17632 MEMB     132      POPC     H14S     HAL2     0.900000E-01   1.00800           0
     17633 MEMB     132      POPC     C215     CTL2    -0.180000       12.0110           0
     17634 MEMB     132      POPC     H15R     HAL2     0.900000E-01   1.00800           0
     17635 MEMB     132      POPC     H15S     HAL2     0.900000E-01   1.00800           0
     17636 MEMB     132      POPC     C216     CTL2    -0.180000       12.0110           0
     17637 MEMB     132      POPC     H16R     HAL2     0.900000E-01   1.00800           0
     17638 MEMB     132      POPC     H16S     HAL2     0.900000E-01   1.00800           0
     17639 MEMB     132      POPC     C217     CTL2    -0.180000       12.0110           0
     17640 MEMB     132      POPC     H17R     HAL2     0.900000E-01   1.00800           0
     17641 MEMB     132      POPC     H17S     HAL2     0.900000E-01   1.00800           0
     17642 MEMB     132      POPC     C218     CTL3    -0.270000       12.0110           0
     17643 MEMB     132      POPC     H18R     HAL3     0.900000E-01   1.00800           0
     17644 MEMB     132      POPC     H18S     HAL3     0.900000E-01   1.00800           0
     17645 MEMB     132      POPC     H18T     HAL3     0.900000E-01   1.00800           0
     17646 MEMB     132      POPC     C33      CTL2    -0.180000       12.0110           0
     17647 MEMB     132      POPC     H3X      HAL2     0.900000E-01   1.00800           0
     17648 MEMB     132      POPC     H3Y      HAL2     0.900000E-01   1.00800           0
     17649 MEMB     132      POPC     C34      CTL2    -0.180000       12.0110           0
     17650 MEMB     132      POPC     H4X      HAL2     0.900000E-01   1.00800           0
     17651 MEMB     132      POPC     H4Y      HAL2     0.900000E-01   1.00800           0
     17652 MEMB     132      POPC     C35      CTL2    -0.180000       12.0110           0
     17653 MEMB     132      POPC     H5X      HAL2     0.900000E-01   1.00800           0
     17654 MEMB     132      POPC     H5Y      HAL2     0.900000E-01   1.00800           0
     17655 MEMB     132      POPC     C36      CTL2    -0.180000       12.0110           0
     17656 MEMB     132      POPC     H6X      HAL2     0.900000E-01   1.00800           0
     17657 MEMB     132      POPC     H6Y      HAL2     0.900000E-01   1.00800           0
     17658 MEMB     132      POPC     C37      CTL2    -0.180000       12.0110           0
     17659 MEMB     132      POPC     H7X      HAL2     0.900000E-01   1.00800           0
     17660 MEMB     132      POPC     H7Y      HAL2     0.900000E-01   1.00800           0
     17661 MEMB     132      POPC     C38      CTL2    -0.180000       12.0110           0
     17662 MEMB     132      POPC     H8X      HAL2     0.900000E-01   1.00800           0
     17663 MEMB     132      POPC     H8Y      HAL2     0.900000E-01   1.00800           0
     17664 MEMB     132      POPC     C39      CTL2    -0.180000       12.0110           0
     17665 MEMB     132      POPC     H9X      HAL2     0.900000E-01   1.00800           0
     17666 MEMB     132      POPC     H9Y      HAL2     0.900000E-01   1.00800           0
     17667 MEMB     132      POPC     C310     CTL2    -0.180000       12.0110           0
     17668 MEMB     132      POPC     H10X     HAL2     0.900000E-01   1.00800           0
     17669 MEMB     132      POPC     H10Y     HAL2     0.900000E-01   1.00800           0
     17670 MEMB     132      POPC     C311     CTL2    -0.180000       12.0110           0
     17671 MEMB     132      POPC     H11X     HAL2     0.900000E-01   1.00800           0
     17672 MEMB     132      POPC     H11Y     HAL2     0.900000E-01   1.00800           0
     17673 MEMB     132      POPC     C312     CTL2    -0.180000       12.0110           0
     17674 MEMB     132      POPC     H12X     HAL2     0.900000E-01   1.00800           0
     17675 MEMB     132      POPC     H12Y     HAL2     0.900000E-01   1.00800           0
     17676 MEMB     132      POPC     C313     CTL2    -0.180000       12.0110           0
     17677 MEMB     132      POPC     H13X     HAL2     0.900000E-01   1.00800           0
     17678 MEMB     132      POPC     H13Y     HAL2     0.900000E-01   1.00800           0
     17679 MEMB     132      POPC     C314     CTL2    -0.180000       12.0110           0
     17680 MEMB     132      POPC     H14X     HAL2     0.900000E-01   1.00800           0
     17681 MEMB     132      POPC     H14Y     HAL2     0.900000E-01   1.00800           0
     17682 MEMB     132      POPC     C315     CTL2    -0.180000       12.0110           0
     17683 MEMB     132      POPC     H15X     HAL2     0.900000E-01   1.00800           0
     17684 MEMB     132      POPC     H15Y     HAL2     0.900000E-01   1.00800           0
     17685 MEMB     132      POPC     C316     CTL3    -0.270000       12.0110           0
     17686 MEMB     132      POPC     H16X     HAL3     0.900000E-01   1.00800           0
     17687 MEMB     132      POPC     H16Y     HAL3     0.900000E-01   1.00800           0
     17688 MEMB     132      POPC     H16Z     HAL3     0.900000E-01   1.00800           0
     17689 MEMB     133      POPC     N        NTL     -0.600000       14.0070           0
     17690 MEMB     133      POPC     C12      CTL2    -0.100000       12.0110           0
     17691 MEMB     133      POPC     H12A     HL       0.250000       1.00800           0
     17692 MEMB     133      POPC     H12B     HL       0.250000       1.00800           0
     17693 MEMB     133      POPC     C13      CTL5    -0.350000       12.0110           0
     17694 MEMB     133      POPC     H13A     HL       0.250000       1.00800           0
     17695 MEMB     133      POPC     H13B     HL       0.250000       1.00800           0
     17696 MEMB     133      POPC     H13C     HL       0.250000       1.00800           0
     17697 MEMB     133      POPC     C14      CTL5    -0.350000       12.0110           0
     17698 MEMB     133      POPC     H14A     HL       0.250000       1.00800           0
     17699 MEMB     133      POPC     H14B     HL       0.250000       1.00800           0
     17700 MEMB     133      POPC     H14C     HL       0.250000       1.00800           0
     17701 MEMB     133      POPC     C15      CTL5    -0.350000       12.0110           0
     17702 MEMB     133      POPC     H15A     HL       0.250000       1.00800           0
     17703 MEMB     133      POPC     H15B     HL       0.250000       1.00800           0
     17704 MEMB     133      POPC     H15C     HL       0.250000       1.00800           0
     17705 MEMB     133      POPC     C11      CTL2    -0.800000E-01   12.0110           0
     17706 MEMB     133      POPC     H11A     HAL2     0.900000E-01   1.00800           0
     17707 MEMB     133      POPC     H11B     HAL2     0.900000E-01   1.00800           0
     17708 MEMB     133      POPC     P        PL       1.50000        30.9740           0
     17709 MEMB     133      POPC     O13      O2L     -0.780000       15.9994           0
     17710 MEMB     133      POPC     O14      O2L     -0.780000       15.9994           0
     17711 MEMB     133      POPC     O12      OSLP    -0.570000       15.9994           0
     17712 MEMB     133      POPC     O11      OSLP    -0.570000       15.9994           0
     17713 MEMB     133      POPC     C1       CTL2    -0.800000E-01   12.0110           0
     17714 MEMB     133      POPC     HA       HAL2     0.900000E-01   1.00800           0
     17715 MEMB     133      POPC     HB       HAL2     0.900000E-01   1.00800           0
     17716 MEMB     133      POPC     C2       CTL1     0.170000       12.0110           0
     17717 MEMB     133      POPC     HS       HAL1     0.900000E-01   1.00800           0
     17718 MEMB     133      POPC     O21      OSL     -0.490000       15.9994           0
     17719 MEMB     133      POPC     C21      CL       0.900000       12.0110           0
     17720 MEMB     133      POPC     O22      OBL     -0.630000       15.9994           0
     17721 MEMB     133      POPC     C22      CTL2    -0.220000       12.0110           0
     17722 MEMB     133      POPC     H2R      HAL2     0.900000E-01   1.00800           0
     17723 MEMB     133      POPC     H2S      HAL2     0.900000E-01   1.00800           0
     17724 MEMB     133      POPC     C3       CTL2     0.800000E-01   12.0110           0
     17725 MEMB     133      POPC     HX       HAL2     0.900000E-01   1.00800           0
     17726 MEMB     133      POPC     HY       HAL2     0.900000E-01   1.00800           0
     17727 MEMB     133      POPC     O31      OSL     -0.490000       15.9994           0
     17728 MEMB     133      POPC     C31      CL       0.900000       12.0110           0
     17729 MEMB     133      POPC     O32      OBL     -0.630000       15.9994           0
     17730 MEMB     133      POPC     C32      CTL2    -0.220000       12.0110           0
     17731 MEMB     133      POPC     H2X      HAL2     0.900000E-01   1.00800           0
     17732 MEMB     133      POPC     H2Y      HAL2     0.900000E-01   1.00800           0
     17733 MEMB     133      POPC     C23      CTL2    -0.180000       12.0110           0
     17734 MEMB     133      POPC     H3R      HAL2     0.900000E-01   1.00800           0
     17735 MEMB     133      POPC     H3S      HAL2     0.900000E-01   1.00800           0
     17736 MEMB     133      POPC     C24      CTL2    -0.180000       12.0110           0
     17737 MEMB     133      POPC     H4R      HAL2     0.900000E-01   1.00800           0
     17738 MEMB     133      POPC     H4S      HAL2     0.900000E-01   1.00800           0
     17739 MEMB     133      POPC     C25      CTL2    -0.180000       12.0110           0
     17740 MEMB     133      POPC     H5R      HAL2     0.900000E-01   1.00800           0
     17741 MEMB     133      POPC     H5S      HAL2     0.900000E-01   1.00800           0
     17742 MEMB     133      POPC     C26      CTL2    -0.180000       12.0110           0
     17743 MEMB     133      POPC     H6R      HAL2     0.900000E-01   1.00800           0
     17744 MEMB     133      POPC     H6S      HAL2     0.900000E-01   1.00800           0
     17745 MEMB     133      POPC     C27      CTL2    -0.180000       12.0110           0
     17746 MEMB     133      POPC     H7R      HAL2     0.900000E-01   1.00800           0
     17747 MEMB     133      POPC     H7S      HAL2     0.900000E-01   1.00800           0
     17748 MEMB     133      POPC     C28      CTL2    -0.180000       12.0110           0
     17749 MEMB     133      POPC     H8R      HAL2     0.900000E-01   1.00800           0
     17750 MEMB     133      POPC     H8S      HAL2     0.900000E-01   1.00800           0
     17751 MEMB     133      POPC     C29      CEL1    -0.150000       12.0110           0
     17752 MEMB     133      POPC     H91      HEL1     0.150000       1.00800           0
     17753 MEMB     133      POPC     C210     CEL1    -0.150000       12.0110           0
     17754 MEMB     133      POPC     H101     HEL1     0.150000       1.00800           0
     17755 MEMB     133      POPC     C211     CTL2    -0.180000       12.0110           0
     17756 MEMB     133      POPC     H11R     HAL2     0.900000E-01   1.00800           0
     17757 MEMB     133      POPC     H11S     HAL2     0.900000E-01   1.00800           0
     17758 MEMB     133      POPC     C212     CTL2    -0.180000       12.0110           0
     17759 MEMB     133      POPC     H12R     HAL2     0.900000E-01   1.00800           0
     17760 MEMB     133      POPC     H12S     HAL2     0.900000E-01   1.00800           0
     17761 MEMB     133      POPC     C213     CTL2    -0.180000       12.0110           0
     17762 MEMB     133      POPC     H13R     HAL2     0.900000E-01   1.00800           0
     17763 MEMB     133      POPC     H13S     HAL2     0.900000E-01   1.00800           0
     17764 MEMB     133      POPC     C214     CTL2    -0.180000       12.0110           0
     17765 MEMB     133      POPC     H14R     HAL2     0.900000E-01   1.00800           0
     17766 MEMB     133      POPC     H14S     HAL2     0.900000E-01   1.00800           0
     17767 MEMB     133      POPC     C215     CTL2    -0.180000       12.0110           0
     17768 MEMB     133      POPC     H15R     HAL2     0.900000E-01   1.00800           0
     17769 MEMB     133      POPC     H15S     HAL2     0.900000E-01   1.00800           0
     17770 MEMB     133      POPC     C216     CTL2    -0.180000       12.0110           0
     17771 MEMB     133      POPC     H16R     HAL2     0.900000E-01   1.00800           0
     17772 MEMB     133      POPC     H16S     HAL2     0.900000E-01   1.00800           0
     17773 MEMB     133      POPC     C217     CTL2    -0.180000       12.0110           0
     17774 MEMB     133      POPC     H17R     HAL2     0.900000E-01   1.00800           0
     17775 MEMB     133      POPC     H17S     HAL2     0.900000E-01   1.00800           0
     17776 MEMB     133      POPC     C218     CTL3    -0.270000       12.0110           0
     17777 MEMB     133      POPC     H18R     HAL3     0.900000E-01   1.00800           0
     17778 MEMB     133      POPC     H18S     HAL3     0.900000E-01   1.00800           0
     17779 MEMB     133      POPC     H18T     HAL3     0.900000E-01   1.00800           0
     17780 MEMB     133      POPC     C33      CTL2    -0.180000       12.0110           0
     17781 MEMB     133      POPC     H3X      HAL2     0.900000E-01   1.00800           0
     17782 MEMB     133      POPC     H3Y      HAL2     0.900000E-01   1.00800           0
     17783 MEMB     133      POPC     C34      CTL2    -0.180000       12.0110           0
     17784 MEMB     133      POPC     H4X      HAL2     0.900000E-01   1.00800           0
     17785 MEMB     133      POPC     H4Y      HAL2     0.900000E-01   1.00800           0
     17786 MEMB     133      POPC     C35      CTL2    -0.180000       12.0110           0
     17787 MEMB     133      POPC     H5X      HAL2     0.900000E-01   1.00800           0
     17788 MEMB     133      POPC     H5Y      HAL2     0.900000E-01   1.00800           0
     17789 MEMB     133      POPC     C36      CTL2    -0.180000       12.0110           0
     17790 MEMB     133      POPC     H6X      HAL2     0.900000E-01   1.00800           0
     17791 MEMB     133      POPC     H6Y      HAL2     0.900000E-01   1.00800           0
     17792 MEMB     133      POPC     C37      CTL2    -0.180000       12.0110           0
     17793 MEMB     133      POPC     H7X      HAL2     0.900000E-01   1.00800           0
     17794 MEMB     133      POPC     H7Y      HAL2     0.900000E-01   1.00800           0
     17795 MEMB     133      POPC     C38      CTL2    -0.180000       12.0110           0
     17796 MEMB     133      POPC     H8X      HAL2     0.900000E-01   1.00800           0
     17797 MEMB     133      POPC     H8Y      HAL2     0.900000E-01   1.00800           0
     17798 MEMB     133      POPC     C39      CTL2    -0.180000       12.0110           0
     17799 MEMB     133      POPC     H9X      HAL2     0.900000E-01   1.00800           0
     17800 MEMB     133      POPC     H9Y      HAL2     0.900000E-01   1.00800           0
     17801 MEMB     133      POPC     C310     CTL2    -0.180000       12.0110           0
     17802 MEMB     133      POPC     H10X     HAL2     0.900000E-01   1.00800           0
     17803 MEMB     133      POPC     H10Y     HAL2     0.900000E-01   1.00800           0
     17804 MEMB     133      POPC     C311     CTL2    -0.180000       12.0110           0
     17805 MEMB     133      POPC     H11X     HAL2     0.900000E-01   1.00800           0
     17806 MEMB     133      POPC     H11Y     HAL2     0.900000E-01   1.00800           0
     17807 MEMB     133      POPC     C312     CTL2    -0.180000       12.0110           0
     17808 MEMB     133      POPC     H12X     HAL2     0.900000E-01   1.00800           0
     17809 MEMB     133      POPC     H12Y     HAL2     0.900000E-01   1.00800           0
     17810 MEMB     133      POPC     C313     CTL2    -0.180000       12.0110           0
     17811 MEMB     133      POPC     H13X     HAL2     0.900000E-01   1.00800           0
     17812 MEMB     133      POPC     H13Y     HAL2     0.900000E-01   1.00800           0
     17813 MEMB     133      POPC     C314     CTL2    -0.180000       12.0110           0
     17814 MEMB     133      POPC     H14X     HAL2     0.900000E-01   1.00800           0
     17815 MEMB     133      POPC     H14Y     HAL2     0.900000E-01   1.00800           0
     17816 MEMB     133      POPC     C315     CTL2    -0.180000       12.0110           0
     17817 MEMB     133      POPC     H15X     HAL2     0.900000E-01   1.00800           0
     17818 MEMB     133      POPC     H15Y     HAL2     0.900000E-01   1.00800           0
     17819 MEMB     133      POPC     C316     CTL3    -0.270000       12.0110           0
     17820 MEMB     133      POPC     H16X     HAL3     0.900000E-01   1.00800           0
     17821 MEMB     133      POPC     H16Y     HAL3     0.900000E-01   1.00800           0
     17822 MEMB     133      POPC     H16Z     HAL3     0.900000E-01   1.00800           0
     17823 MEMB     134      POPC     N        NTL     -0.600000       14.0070           0
     17824 MEMB     134      POPC     C12      CTL2    -0.100000       12.0110           0
     17825 MEMB     134      POPC     H12A     HL       0.250000       1.00800           0
     17826 MEMB     134      POPC     H12B     HL       0.250000       1.00800           0
     17827 MEMB     134      POPC     C13      CTL5    -0.350000       12.0110           0
     17828 MEMB     134      POPC     H13A     HL       0.250000       1.00800           0
     17829 MEMB     134      POPC     H13B     HL       0.250000       1.00800           0
     17830 MEMB     134      POPC     H13C     HL       0.250000       1.00800           0
     17831 MEMB     134      POPC     C14      CTL5    -0.350000       12.0110           0
     17832 MEMB     134      POPC     H14A     HL       0.250000       1.00800           0
     17833 MEMB     134      POPC     H14B     HL       0.250000       1.00800           0
     17834 MEMB     134      POPC     H14C     HL       0.250000       1.00800           0
     17835 MEMB     134      POPC     C15      CTL5    -0.350000       12.0110           0
     17836 MEMB     134      POPC     H15A     HL       0.250000       1.00800           0
     17837 MEMB     134      POPC     H15B     HL       0.250000       1.00800           0
     17838 MEMB     134      POPC     H15C     HL       0.250000       1.00800           0
     17839 MEMB     134      POPC     C11      CTL2    -0.800000E-01   12.0110           0
     17840 MEMB     134      POPC     H11A     HAL2     0.900000E-01   1.00800           0
     17841 MEMB     134      POPC     H11B     HAL2     0.900000E-01   1.00800           0
     17842 MEMB     134      POPC     P        PL       1.50000        30.9740           0
     17843 MEMB     134      POPC     O13      O2L     -0.780000       15.9994           0
     17844 MEMB     134      POPC     O14      O2L     -0.780000       15.9994           0
     17845 MEMB     134      POPC     O12      OSLP    -0.570000       15.9994           0
     17846 MEMB     134      POPC     O11      OSLP    -0.570000       15.9994           0
     17847 MEMB     134      POPC     C1       CTL2    -0.800000E-01   12.0110           0
     17848 MEMB     134      POPC     HA       HAL2     0.900000E-01   1.00800           0
     17849 MEMB     134      POPC     HB       HAL2     0.900000E-01   1.00800           0
     17850 MEMB     134      POPC     C2       CTL1     0.170000       12.0110           0
     17851 MEMB     134      POPC     HS       HAL1     0.900000E-01   1.00800           0
     17852 MEMB     134      POPC     O21      OSL     -0.490000       15.9994           0
     17853 MEMB     134      POPC     C21      CL       0.900000       12.0110           0
     17854 MEMB     134      POPC     O22      OBL     -0.630000       15.9994           0
     17855 MEMB     134      POPC     C22      CTL2    -0.220000       12.0110           0
     17856 MEMB     134      POPC     H2R      HAL2     0.900000E-01   1.00800           0
     17857 MEMB     134      POPC     H2S      HAL2     0.900000E-01   1.00800           0
     17858 MEMB     134      POPC     C3       CTL2     0.800000E-01   12.0110           0
     17859 MEMB     134      POPC     HX       HAL2     0.900000E-01   1.00800           0
     17860 MEMB     134      POPC     HY       HAL2     0.900000E-01   1.00800           0
     17861 MEMB     134      POPC     O31      OSL     -0.490000       15.9994           0
     17862 MEMB     134      POPC     C31      CL       0.900000       12.0110           0
     17863 MEMB     134      POPC     O32      OBL     -0.630000       15.9994           0
     17864 MEMB     134      POPC     C32      CTL2    -0.220000       12.0110           0
     17865 MEMB     134      POPC     H2X      HAL2     0.900000E-01   1.00800           0
     17866 MEMB     134      POPC     H2Y      HAL2     0.900000E-01   1.00800           0
     17867 MEMB     134      POPC     C23      CTL2    -0.180000       12.0110           0
     17868 MEMB     134      POPC     H3R      HAL2     0.900000E-01   1.00800           0
     17869 MEMB     134      POPC     H3S      HAL2     0.900000E-01   1.00800           0
     17870 MEMB     134      POPC     C24      CTL2    -0.180000       12.0110           0
     17871 MEMB     134      POPC     H4R      HAL2     0.900000E-01   1.00800           0
     17872 MEMB     134      POPC     H4S      HAL2     0.900000E-01   1.00800           0
     17873 MEMB     134      POPC     C25      CTL2    -0.180000       12.0110           0
     17874 MEMB     134      POPC     H5R      HAL2     0.900000E-01   1.00800           0
     17875 MEMB     134      POPC     H5S      HAL2     0.900000E-01   1.00800           0
     17876 MEMB     134      POPC     C26      CTL2    -0.180000       12.0110           0
     17877 MEMB     134      POPC     H6R      HAL2     0.900000E-01   1.00800           0
     17878 MEMB     134      POPC     H6S      HAL2     0.900000E-01   1.00800           0
     17879 MEMB     134      POPC     C27      CTL2    -0.180000       12.0110           0
     17880 MEMB     134      POPC     H7R      HAL2     0.900000E-01   1.00800           0
     17881 MEMB     134      POPC     H7S      HAL2     0.900000E-01   1.00800           0
     17882 MEMB     134      POPC     C28      CTL2    -0.180000       12.0110           0
     17883 MEMB     134      POPC     H8R      HAL2     0.900000E-01   1.00800           0
     17884 MEMB     134      POPC     H8S      HAL2     0.900000E-01   1.00800           0
     17885 MEMB     134      POPC     C29      CEL1    -0.150000       12.0110           0
     17886 MEMB     134      POPC     H91      HEL1     0.150000       1.00800           0
     17887 MEMB     134      POPC     C210     CEL1    -0.150000       12.0110           0
     17888 MEMB     134      POPC     H101     HEL1     0.150000       1.00800           0
     17889 MEMB     134      POPC     C211     CTL2    -0.180000       12.0110           0
     17890 MEMB     134      POPC     H11R     HAL2     0.900000E-01   1.00800           0
     17891 MEMB     134      POPC     H11S     HAL2     0.900000E-01   1.00800           0
     17892 MEMB     134      POPC     C212     CTL2    -0.180000       12.0110           0
     17893 MEMB     134      POPC     H12R     HAL2     0.900000E-01   1.00800           0
     17894 MEMB     134      POPC     H12S     HAL2     0.900000E-01   1.00800           0
     17895 MEMB     134      POPC     C213     CTL2    -0.180000       12.0110           0
     17896 MEMB     134      POPC     H13R     HAL2     0.900000E-01   1.00800           0
     17897 MEMB     134      POPC     H13S     HAL2     0.900000E-01   1.00800           0
     17898 MEMB     134      POPC     C214     CTL2    -0.180000       12.0110           0
     17899 MEMB     134      POPC     H14R     HAL2     0.900000E-01   1.00800           0
     17900 MEMB     134      POPC     H14S     HAL2     0.900000E-01   1.00800           0
     17901 MEMB     134      POPC     C215     CTL2    -0.180000       12.0110           0
     17902 MEMB     134      POPC     H15R     HAL2     0.900000E-01   1.00800           0
     17903 MEMB     134      POPC     H15S     HAL2     0.900000E-01   1.00800           0
     17904 MEMB     134      POPC     C216     CTL2    -0.180000       12.0110           0
     17905 MEMB     134      POPC     H16R     HAL2     0.900000E-01   1.00800           0
     17906 MEMB     134      POPC     H16S     HAL2     0.900000E-01   1.00800           0
     17907 MEMB     134      POPC     C217     CTL2    -0.180000       12.0110           0
     17908 MEMB     134      POPC     H17R     HAL2     0.900000E-01   1.00800           0
     17909 MEMB     134      POPC     H17S     HAL2     0.900000E-01   1.00800           0
     17910 MEMB     134      POPC     C218     CTL3    -0.270000       12.0110           0
     17911 MEMB     134      POPC     H18R     HAL3     0.900000E-01   1.00800           0
     17912 MEMB     134      POPC     H18S     HAL3     0.900000E-01   1.00800           0
     17913 MEMB     134      POPC     H18T     HAL3     0.900000E-01   1.00800           0
     17914 MEMB     134      POPC     C33      CTL2    -0.180000       12.0110           0
     17915 MEMB     134      POPC     H3X      HAL2     0.900000E-01   1.00800           0
     17916 MEMB     134      POPC     H3Y      HAL2     0.900000E-01   1.00800           0
     17917 MEMB     134      POPC     C34      CTL2    -0.180000       12.0110           0
     17918 MEMB     134      POPC     H4X      HAL2     0.900000E-01   1.00800           0
     17919 MEMB     134      POPC     H4Y      HAL2     0.900000E-01   1.00800           0
     17920 MEMB     134      POPC     C35      CTL2    -0.180000       12.0110           0
     17921 MEMB     134      POPC     H5X      HAL2     0.900000E-01   1.00800           0
     17922 MEMB     134      POPC     H5Y      HAL2     0.900000E-01   1.00800           0
     17923 MEMB     134      POPC     C36      CTL2    -0.180000       12.0110           0
     17924 MEMB     134      POPC     H6X      HAL2     0.900000E-01   1.00800           0
     17925 MEMB     134      POPC     H6Y      HAL2     0.900000E-01   1.00800           0
     17926 MEMB     134      POPC     C37      CTL2    -0.180000       12.0110           0
     17927 MEMB     134      POPC     H7X      HAL2     0.900000E-01   1.00800           0
     17928 MEMB     134      POPC     H7Y      HAL2     0.900000E-01   1.00800           0
     17929 MEMB     134      POPC     C38      CTL2    -0.180000       12.0110           0
     17930 MEMB     134      POPC     H8X      HAL2     0.900000E-01   1.00800           0
     17931 MEMB     134      POPC     H8Y      HAL2     0.900000E-01   1.00800           0
     17932 MEMB     134      POPC     C39      CTL2    -0.180000       12.0110           0
     17933 MEMB     134      POPC     H9X      HAL2     0.900000E-01   1.00800           0
     17934 MEMB     134      POPC     H9Y      HAL2     0.900000E-01   1.00800           0
     17935 MEMB     134      POPC     C310     CTL2    -0.180000       12.0110           0
     17936 MEMB     134      POPC     H10X     HAL2     0.900000E-01   1.00800           0
     17937 MEMB     134      POPC     H10Y     HAL2     0.900000E-01   1.00800           0
     17938 MEMB     134      POPC     C311     CTL2    -0.180000       12.0110           0
     17939 MEMB     134      POPC     H11X     HAL2     0.900000E-01   1.00800           0
     17940 MEMB     134      POPC     H11Y     HAL2     0.900000E-01   1.00800           0
     17941 MEMB     134      POPC     C312     CTL2    -0.180000       12.0110           0
     17942 MEMB     134      POPC     H12X     HAL2     0.900000E-01   1.00800           0
     17943 MEMB     134      POPC     H12Y     HAL2     0.900000E-01   1.00800           0
     17944 MEMB     134      POPC     C313     CTL2    -0.180000       12.0110           0
     17945 MEMB     134      POPC     H13X     HAL2     0.900000E-01   1.00800           0
     17946 MEMB     134      POPC     H13Y     HAL2     0.900000E-01   1.00800           0
     17947 MEMB     134      POPC     C314     CTL2    -0.180000       12.0110           0
     17948 MEMB     134      POPC     H14X     HAL2     0.900000E-01   1.00800           0
     17949 MEMB     134      POPC     H14Y     HAL2     0.900000E-01   1.00800           0
     17950 MEMB     134      POPC     C315     CTL2    -0.180000       12.0110           0
     17951 MEMB     134      POPC     H15X     HAL2     0.900000E-01   1.00800           0
     17952 MEMB     134      POPC     H15Y     HAL2     0.900000E-01   1.00800           0
     17953 MEMB     134      POPC     C316     CTL3    -0.270000       12.0110           0
     17954 MEMB     134      POPC     H16X     HAL3     0.900000E-01   1.00800           0
     17955 MEMB     134      POPC     H16Y     HAL3     0.900000E-01   1.00800           0
     17956 MEMB     134      POPC     H16Z     HAL3     0.900000E-01   1.00800           0
     17957 MEMB     135      POPC     N        NTL     -0.600000       14.0070           0
     17958 MEMB     135      POPC     C12      CTL2    -0.100000       12.0110           0
     17959 MEMB     135      POPC     H12A     HL       0.250000       1.00800           0
     17960 MEMB     135      POPC     H12B     HL       0.250000       1.00800           0
     17961 MEMB     135      POPC     C13      CTL5    -0.350000       12.0110           0
     17962 MEMB     135      POPC     H13A     HL       0.250000       1.00800           0
     17963 MEMB     135      POPC     H13B     HL       0.250000       1.00800           0
     17964 MEMB     135      POPC     H13C     HL       0.250000       1.00800           0
     17965 MEMB     135      POPC     C14      CTL5    -0.350000       12.0110           0
     17966 MEMB     135      POPC     H14A     HL       0.250000       1.00800           0
     17967 MEMB     135      POPC     H14B     HL       0.250000       1.00800           0
     17968 MEMB     135      POPC     H14C     HL       0.250000       1.00800           0
     17969 MEMB     135      POPC     C15      CTL5    -0.350000       12.0110           0
     17970 MEMB     135      POPC     H15A     HL       0.250000       1.00800           0
     17971 MEMB     135      POPC     H15B     HL       0.250000       1.00800           0
     17972 MEMB     135      POPC     H15C     HL       0.250000       1.00800           0
     17973 MEMB     135      POPC     C11      CTL2    -0.800000E-01   12.0110           0
     17974 MEMB     135      POPC     H11A     HAL2     0.900000E-01   1.00800           0
     17975 MEMB     135      POPC     H11B     HAL2     0.900000E-01   1.00800           0
     17976 MEMB     135      POPC     P        PL       1.50000        30.9740           0
     17977 MEMB     135      POPC     O13      O2L     -0.780000       15.9994           0
     17978 MEMB     135      POPC     O14      O2L     -0.780000       15.9994           0
     17979 MEMB     135      POPC     O12      OSLP    -0.570000       15.9994           0
     17980 MEMB     135      POPC     O11      OSLP    -0.570000       15.9994           0
     17981 MEMB     135      POPC     C1       CTL2    -0.800000E-01   12.0110           0
     17982 MEMB     135      POPC     HA       HAL2     0.900000E-01   1.00800           0
     17983 MEMB     135      POPC     HB       HAL2     0.900000E-01   1.00800           0
     17984 MEMB     135      POPC     C2       CTL1     0.170000       12.0110           0
     17985 MEMB     135      POPC     HS       HAL1     0.900000E-01   1.00800           0
     17986 MEMB     135      POPC     O21      OSL     -0.490000       15.9994           0
     17987 MEMB     135      POPC     C21      CL       0.900000       12.0110           0
     17988 MEMB     135      POPC     O22      OBL     -0.630000       15.9994           0
     17989 MEMB     135      POPC     C22      CTL2    -0.220000       12.0110           0
     17990 MEMB     135      POPC     H2R      HAL2     0.900000E-01   1.00800           0
     17991 MEMB     135      POPC     H2S      HAL2     0.900000E-01   1.00800           0
     17992 MEMB     135      POPC     C3       CTL2     0.800000E-01   12.0110           0
     17993 MEMB     135      POPC     HX       HAL2     0.900000E-01   1.00800           0
     17994 MEMB     135      POPC     HY       HAL2     0.900000E-01   1.00800           0
     17995 MEMB     135      POPC     O31      OSL     -0.490000       15.9994           0
     17996 MEMB     135      POPC     C31      CL       0.900000       12.0110           0
     17997 MEMB     135      POPC     O32      OBL     -0.630000       15.9994           0
     17998 MEMB     135      POPC     C32      CTL2    -0.220000       12.0110           0
     17999 MEMB     135      POPC     H2X      HAL2     0.900000E-01   1.00800           0
     18000 MEMB     135      POPC     H2Y      HAL2     0.900000E-01   1.00800           0
     18001 MEMB     135      POPC     C23      CTL2    -0.180000       12.0110           0
     18002 MEMB     135      POPC     H3R      HAL2     0.900000E-01   1.00800           0
     18003 MEMB     135      POPC     H3S      HAL2     0.900000E-01   1.00800           0
     18004 MEMB     135      POPC     C24      CTL2    -0.180000       12.0110           0
     18005 MEMB     135      POPC     H4R      HAL2     0.900000E-01   1.00800           0
     18006 MEMB     135      POPC     H4S      HAL2     0.900000E-01   1.00800           0
     18007 MEMB     135      POPC     C25      CTL2    -0.180000       12.0110           0
     18008 MEMB     135      POPC     H5R      HAL2     0.900000E-01   1.00800           0
     18009 MEMB     135      POPC     H5S      HAL2     0.900000E-01   1.00800           0
     18010 MEMB     135      POPC     C26      CTL2    -0.180000       12.0110           0
     18011 MEMB     135      POPC     H6R      HAL2     0.900000E-01   1.00800           0
     18012 MEMB     135      POPC     H6S      HAL2     0.900000E-01   1.00800           0
     18013 MEMB     135      POPC     C27      CTL2    -0.180000       12.0110           0
     18014 MEMB     135      POPC     H7R      HAL2     0.900000E-01   1.00800           0
     18015 MEMB     135      POPC     H7S      HAL2     0.900000E-01   1.00800           0
     18016 MEMB     135      POPC     C28      CTL2    -0.180000       12.0110           0
     18017 MEMB     135      POPC     H8R      HAL2     0.900000E-01   1.00800           0
     18018 MEMB     135      POPC     H8S      HAL2     0.900000E-01   1.00800           0
     18019 MEMB     135      POPC     C29      CEL1    -0.150000       12.0110           0
     18020 MEMB     135      POPC     H91      HEL1     0.150000       1.00800           0
     18021 MEMB     135      POPC     C210     CEL1    -0.150000       12.0110           0
     18022 MEMB     135      POPC     H101     HEL1     0.150000       1.00800           0
     18023 MEMB     135      POPC     C211     CTL2    -0.180000       12.0110           0
     18024 MEMB     135      POPC     H11R     HAL2     0.900000E-01   1.00800           0
     18025 MEMB     135      POPC     H11S     HAL2     0.900000E-01   1.00800           0
     18026 MEMB     135      POPC     C212     CTL2    -0.180000       12.0110           0
     18027 MEMB     135      POPC     H12R     HAL2     0.900000E-01   1.00800           0
     18028 MEMB     135      POPC     H12S     HAL2     0.900000E-01   1.00800           0
     18029 MEMB     135      POPC     C213     CTL2    -0.180000       12.0110           0
     18030 MEMB     135      POPC     H13R     HAL2     0.900000E-01   1.00800           0
     18031 MEMB     135      POPC     H13S     HAL2     0.900000E-01   1.00800           0
     18032 MEMB     135      POPC     C214     CTL2    -0.180000       12.0110           0
     18033 MEMB     135      POPC     H14R     HAL2     0.900000E-01   1.00800           0
     18034 MEMB     135      POPC     H14S     HAL2     0.900000E-01   1.00800           0
     18035 MEMB     135      POPC     C215     CTL2    -0.180000       12.0110           0
     18036 MEMB     135      POPC     H15R     HAL2     0.900000E-01   1.00800           0
     18037 MEMB     135      POPC     H15S     HAL2     0.900000E-01   1.00800           0
     18038 MEMB     135      POPC     C216     CTL2    -0.180000       12.0110           0
     18039 MEMB     135      POPC     H16R     HAL2     0.900000E-01   1.00800           0
     18040 MEMB     135      POPC     H16S     HAL2     0.900000E-01   1.00800           0
     18041 MEMB     135      POPC     C217     CTL2    -0.180000       12.0110           0
     18042 MEMB     135      POPC     H17R     HAL2     0.900000E-01   1.00800           0
     18043 MEMB     135      POPC     H17S     HAL2     0.900000E-01   1.00800           0
     18044 MEMB     135      POPC     C218     CTL3    -0.270000       12.0110           0
     18045 MEMB     135      POPC     H18R     HAL3     0.900000E-01   1.00800           0
     18046 MEMB     135      POPC     H18S     HAL3     0.900000E-01   1.00800           0
     18047 MEMB     135      POPC     H18T     HAL3     0.900000E-01   1.00800           0
     18048 MEMB     135      POPC     C33      CTL2    -0.180000       12.0110           0
     18049 MEMB     135      POPC     H3X      HAL2     0.900000E-01   1.00800           0
     18050 MEMB     135      POPC     H3Y      HAL2     0.900000E-01   1.00800           0
     18051 MEMB     135      POPC     C34      CTL2    -0.180000       12.0110           0
     18052 MEMB     135      POPC     H4X      HAL2     0.900000E-01   1.00800           0
     18053 MEMB     135      POPC     H4Y      HAL2     0.900000E-01   1.00800           0
     18054 MEMB     135      POPC     C35      CTL2    -0.180000       12.0110           0
     18055 MEMB     135      POPC     H5X      HAL2     0.900000E-01   1.00800           0
     18056 MEMB     135      POPC     H5Y      HAL2     0.900000E-01   1.00800           0
     18057 MEMB     135      POPC     C36      CTL2    -0.180000       12.0110           0
     18058 MEMB     135      POPC     H6X      HAL2     0.900000E-01   1.00800           0
     18059 MEMB     135      POPC     H6Y      HAL2     0.900000E-01   1.00800           0
     18060 MEMB     135      POPC     C37      CTL2    -0.180000       12.0110           0
     18061 MEMB     135      POPC     H7X      HAL2     0.900000E-01   1.00800           0
     18062 MEMB     135      POPC     H7Y      HAL2     0.900000E-01   1.00800           0
     18063 MEMB     135      POPC     C38      CTL2    -0.180000       12.0110           0
     18064 MEMB     135      POPC     H8X      HAL2     0.900000E-01   1.00800           0
     18065 MEMB     135      POPC     H8Y      HAL2     0.900000E-01   1.00800           0
     18066 MEMB     135      POPC     C39      CTL2    -0.180000       12.0110           0
     18067 MEMB     135      POPC     H9X      HAL2     0.900000E-01   1.00800           0
     18068 MEMB     135      POPC     H9Y      HAL2     0.900000E-01   1.00800           0
     18069 MEMB     135      POPC     C310     CTL2    -0.180000       12.0110           0
     18070 MEMB     135      POPC     H10X     HAL2     0.900000E-01   1.00800           0
     18071 MEMB     135      POPC     H10Y     HAL2     0.900000E-01   1.00800           0
     18072 MEMB     135      POPC     C311     CTL2    -0.180000       12.0110           0
     18073 MEMB     135      POPC     H11X     HAL2     0.900000E-01   1.00800           0
     18074 MEMB     135      POPC     H11Y     HAL2     0.900000E-01   1.00800           0
     18075 MEMB     135      POPC     C312     CTL2    -0.180000       12.0110           0
     18076 MEMB     135      POPC     H12X     HAL2     0.900000E-01   1.00800           0
     18077 MEMB     135      POPC     H12Y     HAL2     0.900000E-01   1.00800           0
     18078 MEMB     135      POPC     C313     CTL2    -0.180000       12.0110           0
     18079 MEMB     135      POPC     H13X     HAL2     0.900000E-01   1.00800           0
     18080 MEMB     135      POPC     H13Y     HAL2     0.900000E-01   1.00800           0
     18081 MEMB     135      POPC     C314     CTL2    -0.180000       12.0110           0
     18082 MEMB     135      POPC     H14X     HAL2     0.900000E-01   1.00800           0
     18083 MEMB     135      POPC     H14Y     HAL2     0.900000E-01   1.00800           0
     18084 MEMB     135      POPC     C315     CTL2    -0.180000       12.0110           0
     18085 MEMB     135      POPC     H15X     HAL2     0.900000E-01   1.00800           0
     18086 MEMB     135      POPC     H15Y     HAL2     0.900000E-01   1.00800           0
     18087 MEMB     135      POPC     C316     CTL3    -0.270000       12.0110           0
     18088 MEMB     135      POPC     H16X     HAL3     0.900000E-01   1.00800           0
     18089 MEMB     135      POPC     H16Y     HAL3     0.900000E-01   1.00800           0
     18090 MEMB     135      POPC     H16Z     HAL3     0.900000E-01   1.00800           0
     18091 MEMB     136      POPC     N        NTL     -0.600000       14.0070           0
     18092 MEMB     136      POPC     C12      CTL2    -0.100000       12.0110           0
     18093 MEMB     136      POPC     H12A     HL       0.250000       1.00800           0
     18094 MEMB     136      POPC     H12B     HL       0.250000       1.00800           0
     18095 MEMB     136      POPC     C13      CTL5    -0.350000       12.0110           0
     18096 MEMB     136      POPC     H13A     HL       0.250000       1.00800           0
     18097 MEMB     136      POPC     H13B     HL       0.250000       1.00800           0
     18098 MEMB     136      POPC     H13C     HL       0.250000       1.00800           0
     18099 MEMB     136      POPC     C14      CTL5    -0.350000       12.0110           0
     18100 MEMB     136      POPC     H14A     HL       0.250000       1.00800           0
     18101 MEMB     136      POPC     H14B     HL       0.250000       1.00800           0
     18102 MEMB     136      POPC     H14C     HL       0.250000       1.00800           0
     18103 MEMB     136      POPC     C15      CTL5    -0.350000       12.0110           0
     18104 MEMB     136      POPC     H15A     HL       0.250000       1.00800           0
     18105 MEMB     136      POPC     H15B     HL       0.250000       1.00800           0
     18106 MEMB     136      POPC     H15C     HL       0.250000       1.00800           0
     18107 MEMB     136      POPC     C11      CTL2    -0.800000E-01   12.0110           0
     18108 MEMB     136      POPC     H11A     HAL2     0.900000E-01   1.00800           0
     18109 MEMB     136      POPC     H11B     HAL2     0.900000E-01   1.00800           0
     18110 MEMB     136      POPC     P        PL       1.50000        30.9740           0
     18111 MEMB     136      POPC     O13      O2L     -0.780000       15.9994           0
     18112 MEMB     136      POPC     O14      O2L     -0.780000       15.9994           0
     18113 MEMB     136      POPC     O12      OSLP    -0.570000       15.9994           0
     18114 MEMB     136      POPC     O11      OSLP    -0.570000       15.9994           0
     18115 MEMB     136      POPC     C1       CTL2    -0.800000E-01   12.0110           0
     18116 MEMB     136      POPC     HA       HAL2     0.900000E-01   1.00800           0
     18117 MEMB     136      POPC     HB       HAL2     0.900000E-01   1.00800           0
     18118 MEMB     136      POPC     C2       CTL1     0.170000       12.0110           0
     18119 MEMB     136      POPC     HS       HAL1     0.900000E-01   1.00800           0
     18120 MEMB     136      POPC     O21      OSL     -0.490000       15.9994           0
     18121 MEMB     136      POPC     C21      CL       0.900000       12.0110           0
     18122 MEMB     136      POPC     O22      OBL     -0.630000       15.9994           0
     18123 MEMB     136      POPC     C22      CTL2    -0.220000       12.0110           0
     18124 MEMB     136      POPC     H2R      HAL2     0.900000E-01   1.00800           0
     18125 MEMB     136      POPC     H2S      HAL2     0.900000E-01   1.00800           0
     18126 MEMB     136      POPC     C3       CTL2     0.800000E-01   12.0110           0
     18127 MEMB     136      POPC     HX       HAL2     0.900000E-01   1.00800           0
     18128 MEMB     136      POPC     HY       HAL2     0.900000E-01   1.00800           0
     18129 MEMB     136      POPC     O31      OSL     -0.490000       15.9994           0
     18130 MEMB     136      POPC     C31      CL       0.900000       12.0110           0
     18131 MEMB     136      POPC     O32      OBL     -0.630000       15.9994           0
     18132 MEMB     136      POPC     C32      CTL2    -0.220000       12.0110           0
     18133 MEMB     136      POPC     H2X      HAL2     0.900000E-01   1.00800           0
     18134 MEMB     136      POPC     H2Y      HAL2     0.900000E-01   1.00800           0
     18135 MEMB     136      POPC     C23      CTL2    -0.180000       12.0110           0
     18136 MEMB     136      POPC     H3R      HAL2     0.900000E-01   1.00800           0
     18137 MEMB     136      POPC     H3S      HAL2     0.900000E-01   1.00800           0
     18138 MEMB     136      POPC     C24      CTL2    -0.180000       12.0110           0
     18139 MEMB     136      POPC     H4R      HAL2     0.900000E-01   1.00800           0
     18140 MEMB     136      POPC     H4S      HAL2     0.900000E-01   1.00800           0
     18141 MEMB     136      POPC     C25      CTL2    -0.180000       12.0110           0
     18142 MEMB     136      POPC     H5R      HAL2     0.900000E-01   1.00800           0
     18143 MEMB     136      POPC     H5S      HAL2     0.900000E-01   1.00800           0
     18144 MEMB     136      POPC     C26      CTL2    -0.180000       12.0110           0
     18145 MEMB     136      POPC     H6R      HAL2     0.900000E-01   1.00800           0
     18146 MEMB     136      POPC     H6S      HAL2     0.900000E-01   1.00800           0
     18147 MEMB     136      POPC     C27      CTL2    -0.180000       12.0110           0
     18148 MEMB     136      POPC     H7R      HAL2     0.900000E-01   1.00800           0
     18149 MEMB     136      POPC     H7S      HAL2     0.900000E-01   1.00800           0
     18150 MEMB     136      POPC     C28      CTL2    -0.180000       12.0110           0
     18151 MEMB     136      POPC     H8R      HAL2     0.900000E-01   1.00800           0
     18152 MEMB     136      POPC     H8S      HAL2     0.900000E-01   1.00800           0
     18153 MEMB     136      POPC     C29      CEL1    -0.150000       12.0110           0
     18154 MEMB     136      POPC     H91      HEL1     0.150000       1.00800           0
     18155 MEMB     136      POPC     C210     CEL1    -0.150000       12.0110           0
     18156 MEMB     136      POPC     H101     HEL1     0.150000       1.00800           0
     18157 MEMB     136      POPC     C211     CTL2    -0.180000       12.0110           0
     18158 MEMB     136      POPC     H11R     HAL2     0.900000E-01   1.00800           0
     18159 MEMB     136      POPC     H11S     HAL2     0.900000E-01   1.00800           0
     18160 MEMB     136      POPC     C212     CTL2    -0.180000       12.0110           0
     18161 MEMB     136      POPC     H12R     HAL2     0.900000E-01   1.00800           0
     18162 MEMB     136      POPC     H12S     HAL2     0.900000E-01   1.00800           0
     18163 MEMB     136      POPC     C213     CTL2    -0.180000       12.0110           0
     18164 MEMB     136      POPC     H13R     HAL2     0.900000E-01   1.00800           0
     18165 MEMB     136      POPC     H13S     HAL2     0.900000E-01   1.00800           0
     18166 MEMB     136      POPC     C214     CTL2    -0.180000       12.0110           0
     18167 MEMB     136      POPC     H14R     HAL2     0.900000E-01   1.00800           0
     18168 MEMB     136      POPC     H14S     HAL2     0.900000E-01   1.00800           0
     18169 MEMB     136      POPC     C215     CTL2    -0.180000       12.0110           0
     18170 MEMB     136      POPC     H15R     HAL2     0.900000E-01   1.00800           0
     18171 MEMB     136      POPC     H15S     HAL2     0.900000E-01   1.00800           0
     18172 MEMB     136      POPC     C216     CTL2    -0.180000       12.0110           0
     18173 MEMB     136      POPC     H16R     HAL2     0.900000E-01   1.00800           0
     18174 MEMB     136      POPC     H16S     HAL2     0.900000E-01   1.00800           0
     18175 MEMB     136      POPC     C217     CTL2    -0.180000       12.0110           0
     18176 MEMB     136      POPC     H17R     HAL2     0.900000E-01   1.00800           0
     18177 MEMB     136      POPC     H17S     HAL2     0.900000E-01   1.00800           0
     18178 MEMB     136      POPC     C218     CTL3    -0.270000       12.0110           0
     18179 MEMB     136      POPC     H18R     HAL3     0.900000E-01   1.00800           0
     18180 MEMB     136      POPC     H18S     HAL3     0.900000E-01   1.00800           0
     18181 MEMB     136      POPC     H18T     HAL3     0.900000E-01   1.00800           0
     18182 MEMB     136      POPC     C33      CTL2    -0.180000       12.0110           0
     18183 MEMB     136      POPC     H3X      HAL2     0.900000E-01   1.00800           0
     18184 MEMB     136      POPC     H3Y      HAL2     0.900000E-01   1.00800           0
     18185 MEMB     136      POPC     C34      CTL2    -0.180000       12.0110           0
     18186 MEMB     136      POPC     H4X      HAL2     0.900000E-01   1.00800           0
     18187 MEMB     136      POPC     H4Y      HAL2     0.900000E-01   1.00800           0
     18188 MEMB     136      POPC     C35      CTL2    -0.180000       12.0110           0
     18189 MEMB     136      POPC     H5X      HAL2     0.900000E-01   1.00800           0
     18190 MEMB     136      POPC     H5Y      HAL2     0.900000E-01   1.00800           0
     18191 MEMB     136      POPC     C36      CTL2    -0.180000       12.0110           0
     18192 MEMB     136      POPC     H6X      HAL2     0.900000E-01   1.00800           0
     18193 MEMB     136      POPC     H6Y      HAL2     0.900000E-01   1.00800           0
     18194 MEMB     136      POPC     C37      CTL2    -0.180000       12.0110           0
     18195 MEMB     136      POPC     H7X      HAL2     0.900000E-01   1.00800           0
     18196 MEMB     136      POPC     H7Y      HAL2     0.900000E-01   1.00800           0
     18197 MEMB     136      POPC     C38      CTL2    -0.180000       12.0110           0
     18198 MEMB     136      POPC     H8X      HAL2     0.900000E-01   1.00800           0
     18199 MEMB     136      POPC     H8Y      HAL2     0.900000E-01   1.00800           0
     18200 MEMB     136      POPC     C39      CTL2    -0.180000       12.0110           0
     18201 MEMB     136      POPC     H9X      HAL2     0.900000E-01   1.00800           0
     18202 MEMB     136      POPC     H9Y      HAL2     0.900000E-01   1.00800           0
     18203 MEMB     136      POPC     C310     CTL2    -0.180000       12.0110           0
     18204 MEMB     136      POPC     H10X     HAL2     0.900000E-01   1.00800           0
     18205 MEMB     136      POPC     H10Y     HAL2     0.900000E-01   1.00800           0
     18206 MEMB     136      POPC     C311     CTL2    -0.180000       12.0110           0
     18207 MEMB     136      POPC     H11X     HAL2     0.900000E-01   1.00800           0
     18208 MEMB     136      POPC     H11Y     HAL2     0.900000E-01   1.00800           0
     18209 MEMB     136      POPC     C312     CTL2    -0.180000       12.0110           0
     18210 MEMB     136      POPC     H12X     HAL2     0.900000E-01   1.00800           0
     18211 MEMB     136      POPC     H12Y     HAL2     0.900000E-01   1.00800           0
     18212 MEMB     136      POPC     C313     CTL2    -0.180000       12.0110           0
     18213 MEMB     136      POPC     H13X     HAL2     0.900000E-01   1.00800           0
     18214 MEMB     136      POPC     H13Y     HAL2     0.900000E-01   1.00800           0
     18215 MEMB     136      POPC     C314     CTL2    -0.180000       12.0110           0
     18216 MEMB     136      POPC     H14X     HAL2     0.900000E-01   1.00800           0
     18217 MEMB     136      POPC     H14Y     HAL2     0.900000E-01   1.00800           0
     18218 MEMB     136      POPC     C315     CTL2    -0.180000       12.0110           0
     18219 MEMB     136      POPC     H15X     HAL2     0.900000E-01   1.00800           0
     18220 MEMB     136      POPC     H15Y     HAL2     0.900000E-01   1.00800           0
     18221 MEMB     136      POPC     C316     CTL3    -0.270000       12.0110           0
     18222 MEMB     136      POPC     H16X     HAL3     0.900000E-01   1.00800           0
     18223 MEMB     136      POPC     H16Y     HAL3     0.900000E-01   1.00800           0
     18224 MEMB     136      POPC     H16Z     HAL3     0.900000E-01   1.00800           0
     18225 MEMB     137      POPC     N        NTL     -0.600000       14.0070           0
     18226 MEMB     137      POPC     C12      CTL2    -0.100000       12.0110           0
     18227 MEMB     137      POPC     H12A     HL       0.250000       1.00800           0
     18228 MEMB     137      POPC     H12B     HL       0.250000       1.00800           0
     18229 MEMB     137      POPC     C13      CTL5    -0.350000       12.0110           0
     18230 MEMB     137      POPC     H13A     HL       0.250000       1.00800           0
     18231 MEMB     137      POPC     H13B     HL       0.250000       1.00800           0
     18232 MEMB     137      POPC     H13C     HL       0.250000       1.00800           0
     18233 MEMB     137      POPC     C14      CTL5    -0.350000       12.0110           0
     18234 MEMB     137      POPC     H14A     HL       0.250000       1.00800           0
     18235 MEMB     137      POPC     H14B     HL       0.250000       1.00800           0
     18236 MEMB     137      POPC     H14C     HL       0.250000       1.00800           0
     18237 MEMB     137      POPC     C15      CTL5    -0.350000       12.0110           0
     18238 MEMB     137      POPC     H15A     HL       0.250000       1.00800           0
     18239 MEMB     137      POPC     H15B     HL       0.250000       1.00800           0
     18240 MEMB     137      POPC     H15C     HL       0.250000       1.00800           0
     18241 MEMB     137      POPC     C11      CTL2    -0.800000E-01   12.0110           0
     18242 MEMB     137      POPC     H11A     HAL2     0.900000E-01   1.00800           0
     18243 MEMB     137      POPC     H11B     HAL2     0.900000E-01   1.00800           0
     18244 MEMB     137      POPC     P        PL       1.50000        30.9740           0
     18245 MEMB     137      POPC     O13      O2L     -0.780000       15.9994           0
     18246 MEMB     137      POPC     O14      O2L     -0.780000       15.9994           0
     18247 MEMB     137      POPC     O12      OSLP    -0.570000       15.9994           0
     18248 MEMB     137      POPC     O11      OSLP    -0.570000       15.9994           0
     18249 MEMB     137      POPC     C1       CTL2    -0.800000E-01   12.0110           0
     18250 MEMB     137      POPC     HA       HAL2     0.900000E-01   1.00800           0
     18251 MEMB     137      POPC     HB       HAL2     0.900000E-01   1.00800           0
     18252 MEMB     137      POPC     C2       CTL1     0.170000       12.0110           0
     18253 MEMB     137      POPC     HS       HAL1     0.900000E-01   1.00800           0
     18254 MEMB     137      POPC     O21      OSL     -0.490000       15.9994           0
     18255 MEMB     137      POPC     C21      CL       0.900000       12.0110           0
     18256 MEMB     137      POPC     O22      OBL     -0.630000       15.9994           0
     18257 MEMB     137      POPC     C22      CTL2    -0.220000       12.0110           0
     18258 MEMB     137      POPC     H2R      HAL2     0.900000E-01   1.00800           0
     18259 MEMB     137      POPC     H2S      HAL2     0.900000E-01   1.00800           0
     18260 MEMB     137      POPC     C3       CTL2     0.800000E-01   12.0110           0
     18261 MEMB     137      POPC     HX       HAL2     0.900000E-01   1.00800           0
     18262 MEMB     137      POPC     HY       HAL2     0.900000E-01   1.00800           0
     18263 MEMB     137      POPC     O31      OSL     -0.490000       15.9994           0
     18264 MEMB     137      POPC     C31      CL       0.900000       12.0110           0
     18265 MEMB     137      POPC     O32      OBL     -0.630000       15.9994           0
     18266 MEMB     137      POPC     C32      CTL2    -0.220000       12.0110           0
     18267 MEMB     137      POPC     H2X      HAL2     0.900000E-01   1.00800           0
     18268 MEMB     137      POPC     H2Y      HAL2     0.900000E-01   1.00800           0
     18269 MEMB     137      POPC     C23      CTL2    -0.180000       12.0110           0
     18270 MEMB     137      POPC     H3R      HAL2     0.900000E-01   1.00800           0
     18271 MEMB     137      POPC     H3S      HAL2     0.900000E-01   1.00800           0
     18272 MEMB     137      POPC     C24      CTL2    -0.180000       12.0110           0
     18273 MEMB     137      POPC     H4R      HAL2     0.900000E-01   1.00800           0
     18274 MEMB     137      POPC     H4S      HAL2     0.900000E-01   1.00800           0
     18275 MEMB     137      POPC     C25      CTL2    -0.180000       12.0110           0
     18276 MEMB     137      POPC     H5R      HAL2     0.900000E-01   1.00800           0
     18277 MEMB     137      POPC     H5S      HAL2     0.900000E-01   1.00800           0
     18278 MEMB     137      POPC     C26      CTL2    -0.180000       12.0110           0
     18279 MEMB     137      POPC     H6R      HAL2     0.900000E-01   1.00800           0
     18280 MEMB     137      POPC     H6S      HAL2     0.900000E-01   1.00800           0
     18281 MEMB     137      POPC     C27      CTL2    -0.180000       12.0110           0
     18282 MEMB     137      POPC     H7R      HAL2     0.900000E-01   1.00800           0
     18283 MEMB     137      POPC     H7S      HAL2     0.900000E-01   1.00800           0
     18284 MEMB     137      POPC     C28      CTL2    -0.180000       12.0110           0
     18285 MEMB     137      POPC     H8R      HAL2     0.900000E-01   1.00800           0
     18286 MEMB     137      POPC     H8S      HAL2     0.900000E-01   1.00800           0
     18287 MEMB     137      POPC     C29      CEL1    -0.150000       12.0110           0
     18288 MEMB     137      POPC     H91      HEL1     0.150000       1.00800           0
     18289 MEMB     137      POPC     C210     CEL1    -0.150000       12.0110           0
     18290 MEMB     137      POPC     H101     HEL1     0.150000       1.00800           0
     18291 MEMB     137      POPC     C211     CTL2    -0.180000       12.0110           0
     18292 MEMB     137      POPC     H11R     HAL2     0.900000E-01   1.00800           0
     18293 MEMB     137      POPC     H11S     HAL2     0.900000E-01   1.00800           0
     18294 MEMB     137      POPC     C212     CTL2    -0.180000       12.0110           0
     18295 MEMB     137      POPC     H12R     HAL2     0.900000E-01   1.00800           0
     18296 MEMB     137      POPC     H12S     HAL2     0.900000E-01   1.00800           0
     18297 MEMB     137      POPC     C213     CTL2    -0.180000       12.0110           0
     18298 MEMB     137      POPC     H13R     HAL2     0.900000E-01   1.00800           0
     18299 MEMB     137      POPC     H13S     HAL2     0.900000E-01   1.00800           0
     18300 MEMB     137      POPC     C214     CTL2    -0.180000       12.0110           0
     18301 MEMB     137      POPC     H14R     HAL2     0.900000E-01   1.00800           0
     18302 MEMB     137      POPC     H14S     HAL2     0.900000E-01   1.00800           0
     18303 MEMB     137      POPC     C215     CTL2    -0.180000       12.0110           0
     18304 MEMB     137      POPC     H15R     HAL2     0.900000E-01   1.00800           0
     18305 MEMB     137      POPC     H15S     HAL2     0.900000E-01   1.00800           0
     18306 MEMB     137      POPC     C216     CTL2    -0.180000       12.0110           0
     18307 MEMB     137      POPC     H16R     HAL2     0.900000E-01   1.00800           0
     18308 MEMB     137      POPC     H16S     HAL2     0.900000E-01   1.00800           0
     18309 MEMB     137      POPC     C217     CTL2    -0.180000       12.0110           0
     18310 MEMB     137      POPC     H17R     HAL2     0.900000E-01   1.00800           0
     18311 MEMB     137      POPC     H17S     HAL2     0.900000E-01   1.00800           0
     18312 MEMB     137      POPC     C218     CTL3    -0.270000       12.0110           0
     18313 MEMB     137      POPC     H18R     HAL3     0.900000E-01   1.00800           0
     18314 MEMB     137      POPC     H18S     HAL3     0.900000E-01   1.00800           0
     18315 MEMB     137      POPC     H18T     HAL3     0.900000E-01   1.00800           0
     18316 MEMB     137      POPC     C33      CTL2    -0.180000       12.0110           0
     18317 MEMB     137      POPC     H3X      HAL2     0.900000E-01   1.00800           0
     18318 MEMB     137      POPC     H3Y      HAL2     0.900000E-01   1.00800           0
     18319 MEMB     137      POPC     C34      CTL2    -0.180000       12.0110           0
     18320 MEMB     137      POPC     H4X      HAL2     0.900000E-01   1.00800           0
     18321 MEMB     137      POPC     H4Y      HAL2     0.900000E-01   1.00800           0
     18322 MEMB     137      POPC     C35      CTL2    -0.180000       12.0110           0
     18323 MEMB     137      POPC     H5X      HAL2     0.900000E-01   1.00800           0
     18324 MEMB     137      POPC     H5Y      HAL2     0.900000E-01   1.00800           0
     18325 MEMB     137      POPC     C36      CTL2    -0.180000       12.0110           0
     18326 MEMB     137      POPC     H6X      HAL2     0.900000E-01   1.00800           0
     18327 MEMB     137      POPC     H6Y      HAL2     0.900000E-01   1.00800           0
     18328 MEMB     137      POPC     C37      CTL2    -0.180000       12.0110           0
     18329 MEMB     137      POPC     H7X      HAL2     0.900000E-01   1.00800           0
     18330 MEMB     137      POPC     H7Y      HAL2     0.900000E-01   1.00800           0
     18331 MEMB     137      POPC     C38      CTL2    -0.180000       12.0110           0
     18332 MEMB     137      POPC     H8X      HAL2     0.900000E-01   1.00800           0
     18333 MEMB     137      POPC     H8Y      HAL2     0.900000E-01   1.00800           0
     18334 MEMB     137      POPC     C39      CTL2    -0.180000       12.0110           0
     18335 MEMB     137      POPC     H9X      HAL2     0.900000E-01   1.00800           0
     18336 MEMB     137      POPC     H9Y      HAL2     0.900000E-01   1.00800           0
     18337 MEMB     137      POPC     C310     CTL2    -0.180000       12.0110           0
     18338 MEMB     137      POPC     H10X     HAL2     0.900000E-01   1.00800           0
     18339 MEMB     137      POPC     H10Y     HAL2     0.900000E-01   1.00800           0
     18340 MEMB     137      POPC     C311     CTL2    -0.180000       12.0110           0
     18341 MEMB     137      POPC     H11X     HAL2     0.900000E-01   1.00800           0
     18342 MEMB     137      POPC     H11Y     HAL2     0.900000E-01   1.00800           0
     18343 MEMB     137      POPC     C312     CTL2    -0.180000       12.0110           0
     18344 MEMB     137      POPC     H12X     HAL2     0.900000E-01   1.00800           0
     18345 MEMB     137      POPC     H12Y     HAL2     0.900000E-01   1.00800           0
     18346 MEMB     137      POPC     C313     CTL2    -0.180000       12.0110           0
     18347 MEMB     137      POPC     H13X     HAL2     0.900000E-01   1.00800           0
     18348 MEMB     137      POPC     H13Y     HAL2     0.900000E-01   1.00800           0
     18349 MEMB     137      POPC     C314     CTL2    -0.180000       12.0110           0
     18350 MEMB     137      POPC     H14X     HAL2     0.900000E-01   1.00800           0
     18351 MEMB     137      POPC     H14Y     HAL2     0.900000E-01   1.00800           0
     18352 MEMB     137      POPC     C315     CTL2    -0.180000       12.0110           0
     18353 MEMB     137      POPC     H15X     HAL2     0.900000E-01   1.00800           0
     18354 MEMB     137      POPC     H15Y     HAL2     0.900000E-01   1.00800           0
     18355 MEMB     137      POPC     C316     CTL3    -0.270000       12.0110           0
     18356 MEMB     137      POPC     H16X     HAL3     0.900000E-01   1.00800           0
     18357 MEMB     137      POPC     H16Y     HAL3     0.900000E-01   1.00800           0
     18358 MEMB     137      POPC     H16Z     HAL3     0.900000E-01   1.00800           0
     18359 MEMB     138      POPC     N        NTL     -0.600000       14.0070           0
     18360 MEMB     138      POPC     C12      CTL2    -0.100000       12.0110           0
     18361 MEMB     138      POPC     H12A     HL       0.250000       1.00800           0
     18362 MEMB     138      POPC     H12B     HL       0.250000       1.00800           0
     18363 MEMB     138      POPC     C13      CTL5    -0.350000       12.0110           0
     18364 MEMB     138      POPC     H13A     HL       0.250000       1.00800           0
     18365 MEMB     138      POPC     H13B     HL       0.250000       1.00800           0
     18366 MEMB     138      POPC     H13C     HL       0.250000       1.00800           0
     18367 MEMB     138      POPC     C14      CTL5    -0.350000       12.0110           0
     18368 MEMB     138      POPC     H14A     HL       0.250000       1.00800           0
     18369 MEMB     138      POPC     H14B     HL       0.250000       1.00800           0
     18370 MEMB     138      POPC     H14C     HL       0.250000       1.00800           0
     18371 MEMB     138      POPC     C15      CTL5    -0.350000       12.0110           0
     18372 MEMB     138      POPC     H15A     HL       0.250000       1.00800           0
     18373 MEMB     138      POPC     H15B     HL       0.250000       1.00800           0
     18374 MEMB     138      POPC     H15C     HL       0.250000       1.00800           0
     18375 MEMB     138      POPC     C11      CTL2    -0.800000E-01   12.0110           0
     18376 MEMB     138      POPC     H11A     HAL2     0.900000E-01   1.00800           0
     18377 MEMB     138      POPC     H11B     HAL2     0.900000E-01   1.00800           0
     18378 MEMB     138      POPC     P        PL       1.50000        30.9740           0
     18379 MEMB     138      POPC     O13      O2L     -0.780000       15.9994           0
     18380 MEMB     138      POPC     O14      O2L     -0.780000       15.9994           0
     18381 MEMB     138      POPC     O12      OSLP    -0.570000       15.9994           0
     18382 MEMB     138      POPC     O11      OSLP    -0.570000       15.9994           0
     18383 MEMB     138      POPC     C1       CTL2    -0.800000E-01   12.0110           0
     18384 MEMB     138      POPC     HA       HAL2     0.900000E-01   1.00800           0
     18385 MEMB     138      POPC     HB       HAL2     0.900000E-01   1.00800           0
     18386 MEMB     138      POPC     C2       CTL1     0.170000       12.0110           0
     18387 MEMB     138      POPC     HS       HAL1     0.900000E-01   1.00800           0
     18388 MEMB     138      POPC     O21      OSL     -0.490000       15.9994           0
     18389 MEMB     138      POPC     C21      CL       0.900000       12.0110           0
     18390 MEMB     138      POPC     O22      OBL     -0.630000       15.9994           0
     18391 MEMB     138      POPC     C22      CTL2    -0.220000       12.0110           0
     18392 MEMB     138      POPC     H2R      HAL2     0.900000E-01   1.00800           0
     18393 MEMB     138      POPC     H2S      HAL2     0.900000E-01   1.00800           0
     18394 MEMB     138      POPC     C3       CTL2     0.800000E-01   12.0110           0
     18395 MEMB     138      POPC     HX       HAL2     0.900000E-01   1.00800           0
     18396 MEMB     138      POPC     HY       HAL2     0.900000E-01   1.00800           0
     18397 MEMB     138      POPC     O31      OSL     -0.490000       15.9994           0
     18398 MEMB     138      POPC     C31      CL       0.900000       12.0110           0
     18399 MEMB     138      POPC     O32      OBL     -0.630000       15.9994           0
     18400 MEMB     138      POPC     C32      CTL2    -0.220000       12.0110           0
     18401 MEMB     138      POPC     H2X      HAL2     0.900000E-01   1.00800           0
     18402 MEMB     138      POPC     H2Y      HAL2     0.900000E-01   1.00800           0
     18403 MEMB     138      POPC     C23      CTL2    -0.180000       12.0110           0
     18404 MEMB     138      POPC     H3R      HAL2     0.900000E-01   1.00800           0
     18405 MEMB     138      POPC     H3S      HAL2     0.900000E-01   1.00800           0
     18406 MEMB     138      POPC     C24      CTL2    -0.180000       12.0110           0
     18407 MEMB     138      POPC     H4R      HAL2     0.900000E-01   1.00800           0
     18408 MEMB     138      POPC     H4S      HAL2     0.900000E-01   1.00800           0
     18409 MEMB     138      POPC     C25      CTL2    -0.180000       12.0110           0
     18410 MEMB     138      POPC     H5R      HAL2     0.900000E-01   1.00800           0
     18411 MEMB     138      POPC     H5S      HAL2     0.900000E-01   1.00800           0
     18412 MEMB     138      POPC     C26      CTL2    -0.180000       12.0110           0
     18413 MEMB     138      POPC     H6R      HAL2     0.900000E-01   1.00800           0
     18414 MEMB     138      POPC     H6S      HAL2     0.900000E-01   1.00800           0
     18415 MEMB     138      POPC     C27      CTL2    -0.180000       12.0110           0
     18416 MEMB     138      POPC     H7R      HAL2     0.900000E-01   1.00800           0
     18417 MEMB     138      POPC     H7S      HAL2     0.900000E-01   1.00800           0
     18418 MEMB     138      POPC     C28      CTL2    -0.180000       12.0110           0
     18419 MEMB     138      POPC     H8R      HAL2     0.900000E-01   1.00800           0
     18420 MEMB     138      POPC     H8S      HAL2     0.900000E-01   1.00800           0
     18421 MEMB     138      POPC     C29      CEL1    -0.150000       12.0110           0
     18422 MEMB     138      POPC     H91      HEL1     0.150000       1.00800           0
     18423 MEMB     138      POPC     C210     CEL1    -0.150000       12.0110           0
     18424 MEMB     138      POPC     H101     HEL1     0.150000       1.00800           0
     18425 MEMB     138      POPC     C211     CTL2    -0.180000       12.0110           0
     18426 MEMB     138      POPC     H11R     HAL2     0.900000E-01   1.00800           0
     18427 MEMB     138      POPC     H11S     HAL2     0.900000E-01   1.00800           0
     18428 MEMB     138      POPC     C212     CTL2    -0.180000       12.0110           0
     18429 MEMB     138      POPC     H12R     HAL2     0.900000E-01   1.00800           0
     18430 MEMB     138      POPC     H12S     HAL2     0.900000E-01   1.00800           0
     18431 MEMB     138      POPC     C213     CTL2    -0.180000       12.0110           0
     18432 MEMB     138      POPC     H13R     HAL2     0.900000E-01   1.00800           0
     18433 MEMB     138      POPC     H13S     HAL2     0.900000E-01   1.00800           0
     18434 MEMB     138      POPC     C214     CTL2    -0.180000       12.0110           0
     18435 MEMB     138      POPC     H14R     HAL2     0.900000E-01   1.00800           0
     18436 MEMB     138      POPC     H14S     HAL2     0.900000E-01   1.00800           0
     18437 MEMB     138      POPC     C215     CTL2    -0.180000       12.0110           0
     18438 MEMB     138      POPC     H15R     HAL2     0.900000E-01   1.00800           0
     18439 MEMB     138      POPC     H15S     HAL2     0.900000E-01   1.00800           0
     18440 MEMB     138      POPC     C216     CTL2    -0.180000       12.0110           0
     18441 MEMB     138      POPC     H16R     HAL2     0.900000E-01   1.00800           0
     18442 MEMB     138      POPC     H16S     HAL2     0.900000E-01   1.00800           0
     18443 MEMB     138      POPC     C217     CTL2    -0.180000       12.0110           0
     18444 MEMB     138      POPC     H17R     HAL2     0.900000E-01   1.00800           0
     18445 MEMB     138      POPC     H17S     HAL2     0.900000E-01   1.00800           0
     18446 MEMB     138      POPC     C218     CTL3    -0.270000       12.0110           0
     18447 MEMB     138      POPC     H18R     HAL3     0.900000E-01   1.00800           0
     18448 MEMB     138      POPC     H18S     HAL3     0.900000E-01   1.00800           0
     18449 MEMB     138      POPC     H18T     HAL3     0.900000E-01   1.00800           0
     18450 MEMB     138      POPC     C33      CTL2    -0.180000       12.0110           0
     18451 MEMB     138      POPC     H3X      HAL2     0.900000E-01   1.00800           0
     18452 MEMB     138      POPC     H3Y      HAL2     0.900000E-01   1.00800           0
     18453 MEMB     138      POPC     C34      CTL2    -0.180000       12.0110           0
     18454 MEMB     138      POPC     H4X      HAL2     0.900000E-01   1.00800           0
     18455 MEMB     138      POPC     H4Y      HAL2     0.900000E-01   1.00800           0
     18456 MEMB     138      POPC     C35      CTL2    -0.180000       12.0110           0
     18457 MEMB     138      POPC     H5X      HAL2     0.900000E-01   1.00800           0
     18458 MEMB     138      POPC     H5Y      HAL2     0.900000E-01   1.00800           0
     18459 MEMB     138      POPC     C36      CTL2    -0.180000       12.0110           0
     18460 MEMB     138      POPC     H6X      HAL2     0.900000E-01   1.00800           0
     18461 MEMB     138      POPC     H6Y      HAL2     0.900000E-01   1.00800           0
     18462 MEMB     138      POPC     C37      CTL2    -0.180000       12.0110           0
     18463 MEMB     138      POPC     H7X      HAL2     0.900000E-01   1.00800           0
     18464 MEMB     138      POPC     H7Y      HAL2     0.900000E-01   1.00800           0
     18465 MEMB     138      POPC     C38      CTL2    -0.180000       12.0110           0
     18466 MEMB     138      POPC     H8X      HAL2     0.900000E-01   1.00800           0
     18467 MEMB     138      POPC     H8Y      HAL2     0.900000E-01   1.00800           0
     18468 MEMB     138      POPC     C39      CTL2    -0.180000       12.0110           0
     18469 MEMB     138      POPC     H9X      HAL2     0.900000E-01   1.00800           0
     18470 MEMB     138      POPC     H9Y      HAL2     0.900000E-01   1.00800           0
     18471 MEMB     138      POPC     C310     CTL2    -0.180000       12.0110           0
     18472 MEMB     138      POPC     H10X     HAL2     0.900000E-01   1.00800           0
     18473 MEMB     138      POPC     H10Y     HAL2     0.900000E-01   1.00800           0
     18474 MEMB     138      POPC     C311     CTL2    -0.180000       12.0110           0
     18475 MEMB     138      POPC     H11X     HAL2     0.900000E-01   1.00800           0
     18476 MEMB     138      POPC     H11Y     HAL2     0.900000E-01   1.00800           0
     18477 MEMB     138      POPC     C312     CTL2    -0.180000       12.0110           0
     18478 MEMB     138      POPC     H12X     HAL2     0.900000E-01   1.00800           0
     18479 MEMB     138      POPC     H12Y     HAL2     0.900000E-01   1.00800           0
     18480 MEMB     138      POPC     C313     CTL2    -0.180000       12.0110           0
     18481 MEMB     138      POPC     H13X     HAL2     0.900000E-01   1.00800           0
     18482 MEMB     138      POPC     H13Y     HAL2     0.900000E-01   1.00800           0
     18483 MEMB     138      POPC     C314     CTL2    -0.180000       12.0110           0
     18484 MEMB     138      POPC     H14X     HAL2     0.900000E-01   1.00800           0
     18485 MEMB     138      POPC     H14Y     HAL2     0.900000E-01   1.00800           0
     18486 MEMB     138      POPC     C315     CTL2    -0.180000       12.0110           0
     18487 MEMB     138      POPC     H15X     HAL2     0.900000E-01   1.00800           0
     18488 MEMB     138      POPC     H15Y     HAL2     0.900000E-01   1.00800           0
     18489 MEMB     138      POPC     C316     CTL3    -0.270000       12.0110           0
     18490 MEMB     138      POPC     H16X     HAL3     0.900000E-01   1.00800           0
     18491 MEMB     138      POPC     H16Y     HAL3     0.900000E-01   1.00800           0
     18492 MEMB     138      POPC     H16Z     HAL3     0.900000E-01   1.00800           0
     18493 MEMB     139      POPC     N        NTL     -0.600000       14.0070           0
     18494 MEMB     139      POPC     C12      CTL2    -0.100000       12.0110           0
     18495 MEMB     139      POPC     H12A     HL       0.250000       1.00800           0
     18496 MEMB     139      POPC     H12B     HL       0.250000       1.00800           0
     18497 MEMB     139      POPC     C13      CTL5    -0.350000       12.0110           0
     18498 MEMB     139      POPC     H13A     HL       0.250000       1.00800           0
     18499 MEMB     139      POPC     H13B     HL       0.250000       1.00800           0
     18500 MEMB     139      POPC     H13C     HL       0.250000       1.00800           0
     18501 MEMB     139      POPC     C14      CTL5    -0.350000       12.0110           0
     18502 MEMB     139      POPC     H14A     HL       0.250000       1.00800           0
     18503 MEMB     139      POPC     H14B     HL       0.250000       1.00800           0
     18504 MEMB     139      POPC     H14C     HL       0.250000       1.00800           0
     18505 MEMB     139      POPC     C15      CTL5    -0.350000       12.0110           0
     18506 MEMB     139      POPC     H15A     HL       0.250000       1.00800           0
     18507 MEMB     139      POPC     H15B     HL       0.250000       1.00800           0
     18508 MEMB     139      POPC     H15C     HL       0.250000       1.00800           0
     18509 MEMB     139      POPC     C11      CTL2    -0.800000E-01   12.0110           0
     18510 MEMB     139      POPC     H11A     HAL2     0.900000E-01   1.00800           0
     18511 MEMB     139      POPC     H11B     HAL2     0.900000E-01   1.00800           0
     18512 MEMB     139      POPC     P        PL       1.50000        30.9740           0
     18513 MEMB     139      POPC     O13      O2L     -0.780000       15.9994           0
     18514 MEMB     139      POPC     O14      O2L     -0.780000       15.9994           0
     18515 MEMB     139      POPC     O12      OSLP    -0.570000       15.9994           0
     18516 MEMB     139      POPC     O11      OSLP    -0.570000       15.9994           0
     18517 MEMB     139      POPC     C1       CTL2    -0.800000E-01   12.0110           0
     18518 MEMB     139      POPC     HA       HAL2     0.900000E-01   1.00800           0
     18519 MEMB     139      POPC     HB       HAL2     0.900000E-01   1.00800           0
     18520 MEMB     139      POPC     C2       CTL1     0.170000       12.0110           0
     18521 MEMB     139      POPC     HS       HAL1     0.900000E-01   1.00800           0
     18522 MEMB     139      POPC     O21      OSL     -0.490000       15.9994           0
     18523 MEMB     139      POPC     C21      CL       0.900000       12.0110           0
     18524 MEMB     139      POPC     O22      OBL     -0.630000       15.9994           0
     18525 MEMB     139      POPC     C22      CTL2    -0.220000       12.0110           0
     18526 MEMB     139      POPC     H2R      HAL2     0.900000E-01   1.00800           0
     18527 MEMB     139      POPC     H2S      HAL2     0.900000E-01   1.00800           0
     18528 MEMB     139      POPC     C3       CTL2     0.800000E-01   12.0110           0
     18529 MEMB     139      POPC     HX       HAL2     0.900000E-01   1.00800           0
     18530 MEMB     139      POPC     HY       HAL2     0.900000E-01   1.00800           0
     18531 MEMB     139      POPC     O31      OSL     -0.490000       15.9994           0
     18532 MEMB     139      POPC     C31      CL       0.900000       12.0110           0
     18533 MEMB     139      POPC     O32      OBL     -0.630000       15.9994           0
     18534 MEMB     139      POPC     C32      CTL2    -0.220000       12.0110           0
     18535 MEMB     139      POPC     H2X      HAL2     0.900000E-01   1.00800           0
     18536 MEMB     139      POPC     H2Y      HAL2     0.900000E-01   1.00800           0
     18537 MEMB     139      POPC     C23      CTL2    -0.180000       12.0110           0
     18538 MEMB     139      POPC     H3R      HAL2     0.900000E-01   1.00800           0
     18539 MEMB     139      POPC     H3S      HAL2     0.900000E-01   1.00800           0
     18540 MEMB     139      POPC     C24      CTL2    -0.180000       12.0110           0
     18541 MEMB     139      POPC     H4R      HAL2     0.900000E-01   1.00800           0
     18542 MEMB     139      POPC     H4S      HAL2     0.900000E-01   1.00800           0
     18543 MEMB     139      POPC     C25      CTL2    -0.180000       12.0110           0
     18544 MEMB     139      POPC     H5R      HAL2     0.900000E-01   1.00800           0
     18545 MEMB     139      POPC     H5S      HAL2     0.900000E-01   1.00800           0
     18546 MEMB     139      POPC     C26      CTL2    -0.180000       12.0110           0
     18547 MEMB     139      POPC     H6R      HAL2     0.900000E-01   1.00800           0
     18548 MEMB     139      POPC     H6S      HAL2     0.900000E-01   1.00800           0
     18549 MEMB     139      POPC     C27      CTL2    -0.180000       12.0110           0
     18550 MEMB     139      POPC     H7R      HAL2     0.900000E-01   1.00800           0
     18551 MEMB     139      POPC     H7S      HAL2     0.900000E-01   1.00800           0
     18552 MEMB     139      POPC     C28      CTL2    -0.180000       12.0110           0
     18553 MEMB     139      POPC     H8R      HAL2     0.900000E-01   1.00800           0
     18554 MEMB     139      POPC     H8S      HAL2     0.900000E-01   1.00800           0
     18555 MEMB     139      POPC     C29      CEL1    -0.150000       12.0110           0
     18556 MEMB     139      POPC     H91      HEL1     0.150000       1.00800           0
     18557 MEMB     139      POPC     C210     CEL1    -0.150000       12.0110           0
     18558 MEMB     139      POPC     H101     HEL1     0.150000       1.00800           0
     18559 MEMB     139      POPC     C211     CTL2    -0.180000       12.0110           0
     18560 MEMB     139      POPC     H11R     HAL2     0.900000E-01   1.00800           0
     18561 MEMB     139      POPC     H11S     HAL2     0.900000E-01   1.00800           0
     18562 MEMB     139      POPC     C212     CTL2    -0.180000       12.0110           0
     18563 MEMB     139      POPC     H12R     HAL2     0.900000E-01   1.00800           0
     18564 MEMB     139      POPC     H12S     HAL2     0.900000E-01   1.00800           0
     18565 MEMB     139      POPC     C213     CTL2    -0.180000       12.0110           0
     18566 MEMB     139      POPC     H13R     HAL2     0.900000E-01   1.00800           0
     18567 MEMB     139      POPC     H13S     HAL2     0.900000E-01   1.00800           0
     18568 MEMB     139      POPC     C214     CTL2    -0.180000       12.0110           0
     18569 MEMB     139      POPC     H14R     HAL2     0.900000E-01   1.00800           0
     18570 MEMB     139      POPC     H14S     HAL2     0.900000E-01   1.00800           0
     18571 MEMB     139      POPC     C215     CTL2    -0.180000       12.0110           0
     18572 MEMB     139      POPC     H15R     HAL2     0.900000E-01   1.00800           0
     18573 MEMB     139      POPC     H15S     HAL2     0.900000E-01   1.00800           0
     18574 MEMB     139      POPC     C216     CTL2    -0.180000       12.0110           0
     18575 MEMB     139      POPC     H16R     HAL2     0.900000E-01   1.00800           0
     18576 MEMB     139      POPC     H16S     HAL2     0.900000E-01   1.00800           0
     18577 MEMB     139      POPC     C217     CTL2    -0.180000       12.0110           0
     18578 MEMB     139      POPC     H17R     HAL2     0.900000E-01   1.00800           0
     18579 MEMB     139      POPC     H17S     HAL2     0.900000E-01   1.00800           0
     18580 MEMB     139      POPC     C218     CTL3    -0.270000       12.0110           0
     18581 MEMB     139      POPC     H18R     HAL3     0.900000E-01   1.00800           0
     18582 MEMB     139      POPC     H18S     HAL3     0.900000E-01   1.00800           0
     18583 MEMB     139      POPC     H18T     HAL3     0.900000E-01   1.00800           0
     18584 MEMB     139      POPC     C33      CTL2    -0.180000       12.0110           0
     18585 MEMB     139      POPC     H3X      HAL2     0.900000E-01   1.00800           0
     18586 MEMB     139      POPC     H3Y      HAL2     0.900000E-01   1.00800           0
     18587 MEMB     139      POPC     C34      CTL2    -0.180000       12.0110           0
     18588 MEMB     139      POPC     H4X      HAL2     0.900000E-01   1.00800           0
     18589 MEMB     139      POPC     H4Y      HAL2     0.900000E-01   1.00800           0
     18590 MEMB     139      POPC     C35      CTL2    -0.180000       12.0110           0
     18591 MEMB     139      POPC     H5X      HAL2     0.900000E-01   1.00800           0
     18592 MEMB     139      POPC     H5Y      HAL2     0.900000E-01   1.00800           0
     18593 MEMB     139      POPC     C36      CTL2    -0.180000       12.0110           0
     18594 MEMB     139      POPC     H6X      HAL2     0.900000E-01   1.00800           0
     18595 MEMB     139      POPC     H6Y      HAL2     0.900000E-01   1.00800           0
     18596 MEMB     139      POPC     C37      CTL2    -0.180000       12.0110           0
     18597 MEMB     139      POPC     H7X      HAL2     0.900000E-01   1.00800           0
     18598 MEMB     139      POPC     H7Y      HAL2     0.900000E-01   1.00800           0
     18599 MEMB     139      POPC     C38      CTL2    -0.180000       12.0110           0
     18600 MEMB     139      POPC     H8X      HAL2     0.900000E-01   1.00800           0
     18601 MEMB     139      POPC     H8Y      HAL2     0.900000E-01   1.00800           0
     18602 MEMB     139      POPC     C39      CTL2    -0.180000       12.0110           0
     18603 MEMB     139      POPC     H9X      HAL2     0.900000E-01   1.00800           0
     18604 MEMB     139      POPC     H9Y      HAL2     0.900000E-01   1.00800           0
     18605 MEMB     139      POPC     C310     CTL2    -0.180000       12.0110           0
     18606 MEMB     139      POPC     H10X     HAL2     0.900000E-01   1.00800           0
     18607 MEMB     139      POPC     H10Y     HAL2     0.900000E-01   1.00800           0
     18608 MEMB     139      POPC     C311     CTL2    -0.180000       12.0110           0
     18609 MEMB     139      POPC     H11X     HAL2     0.900000E-01   1.00800           0
     18610 MEMB     139      POPC     H11Y     HAL2     0.900000E-01   1.00800           0
     18611 MEMB     139      POPC     C312     CTL2    -0.180000       12.0110           0
     18612 MEMB     139      POPC     H12X     HAL2     0.900000E-01   1.00800           0
     18613 MEMB     139      POPC     H12Y     HAL2     0.900000E-01   1.00800           0
     18614 MEMB     139      POPC     C313     CTL2    -0.180000       12.0110           0
     18615 MEMB     139      POPC     H13X     HAL2     0.900000E-01   1.00800           0
     18616 MEMB     139      POPC     H13Y     HAL2     0.900000E-01   1.00800           0
     18617 MEMB     139      POPC     C314     CTL2    -0.180000       12.0110           0
     18618 MEMB     139      POPC     H14X     HAL2     0.900000E-01   1.00800           0
     18619 MEMB     139      POPC     H14Y     HAL2     0.900000E-01   1.00800           0
     18620 MEMB     139      POPC     C315     CTL2    -0.180000       12.0110           0
     18621 MEMB     139      POPC     H15X     HAL2     0.900000E-01   1.00800           0
     18622 MEMB     139      POPC     H15Y     HAL2     0.900000E-01   1.00800           0
     18623 MEMB     139      POPC     C316     CTL3    -0.270000       12.0110           0
     18624 MEMB     139      POPC     H16X     HAL3     0.900000E-01   1.00800           0
     18625 MEMB     139      POPC     H16Y     HAL3     0.900000E-01   1.00800           0
     18626 MEMB     139      POPC     H16Z     HAL3     0.900000E-01   1.00800           0
     18627 MEMB     140      POPC     N        NTL     -0.600000       14.0070           0
     18628 MEMB     140      POPC     C12      CTL2    -0.100000       12.0110           0
     18629 MEMB     140      POPC     H12A     HL       0.250000       1.00800           0
     18630 MEMB     140      POPC     H12B     HL       0.250000       1.00800           0
     18631 MEMB     140      POPC     C13      CTL5    -0.350000       12.0110           0
     18632 MEMB     140      POPC     H13A     HL       0.250000       1.00800           0
     18633 MEMB     140      POPC     H13B     HL       0.250000       1.00800           0
     18634 MEMB     140      POPC     H13C     HL       0.250000       1.00800           0
     18635 MEMB     140      POPC     C14      CTL5    -0.350000       12.0110           0
     18636 MEMB     140      POPC     H14A     HL       0.250000       1.00800           0
     18637 MEMB     140      POPC     H14B     HL       0.250000       1.00800           0
     18638 MEMB     140      POPC     H14C     HL       0.250000       1.00800           0
     18639 MEMB     140      POPC     C15      CTL5    -0.350000       12.0110           0
     18640 MEMB     140      POPC     H15A     HL       0.250000       1.00800           0
     18641 MEMB     140      POPC     H15B     HL       0.250000       1.00800           0
     18642 MEMB     140      POPC     H15C     HL       0.250000       1.00800           0
     18643 MEMB     140      POPC     C11      CTL2    -0.800000E-01   12.0110           0
     18644 MEMB     140      POPC     H11A     HAL2     0.900000E-01   1.00800           0
     18645 MEMB     140      POPC     H11B     HAL2     0.900000E-01   1.00800           0
     18646 MEMB     140      POPC     P        PL       1.50000        30.9740           0
     18647 MEMB     140      POPC     O13      O2L     -0.780000       15.9994           0
     18648 MEMB     140      POPC     O14      O2L     -0.780000       15.9994           0
     18649 MEMB     140      POPC     O12      OSLP    -0.570000       15.9994           0
     18650 MEMB     140      POPC     O11      OSLP    -0.570000       15.9994           0
     18651 MEMB     140      POPC     C1       CTL2    -0.800000E-01   12.0110           0
     18652 MEMB     140      POPC     HA       HAL2     0.900000E-01   1.00800           0
     18653 MEMB     140      POPC     HB       HAL2     0.900000E-01   1.00800           0
     18654 MEMB     140      POPC     C2       CTL1     0.170000       12.0110           0
     18655 MEMB     140      POPC     HS       HAL1     0.900000E-01   1.00800           0
     18656 MEMB     140      POPC     O21      OSL     -0.490000       15.9994           0
     18657 MEMB     140      POPC     C21      CL       0.900000       12.0110           0
     18658 MEMB     140      POPC     O22      OBL     -0.630000       15.9994           0
     18659 MEMB     140      POPC     C22      CTL2    -0.220000       12.0110           0
     18660 MEMB     140      POPC     H2R      HAL2     0.900000E-01   1.00800           0
     18661 MEMB     140      POPC     H2S      HAL2     0.900000E-01   1.00800           0
     18662 MEMB     140      POPC     C3       CTL2     0.800000E-01   12.0110           0
     18663 MEMB     140      POPC     HX       HAL2     0.900000E-01   1.00800           0
     18664 MEMB     140      POPC     HY       HAL2     0.900000E-01   1.00800           0
     18665 MEMB     140      POPC     O31      OSL     -0.490000       15.9994           0
     18666 MEMB     140      POPC     C31      CL       0.900000       12.0110           0
     18667 MEMB     140      POPC     O32      OBL     -0.630000       15.9994           0
     18668 MEMB     140      POPC     C32      CTL2    -0.220000       12.0110           0
     18669 MEMB     140      POPC     H2X      HAL2     0.900000E-01   1.00800           0
     18670 MEMB     140      POPC     H2Y      HAL2     0.900000E-01   1.00800           0
     18671 MEMB     140      POPC     C23      CTL2    -0.180000       12.0110           0
     18672 MEMB     140      POPC     H3R      HAL2     0.900000E-01   1.00800           0
     18673 MEMB     140      POPC     H3S      HAL2     0.900000E-01   1.00800           0
     18674 MEMB     140      POPC     C24      CTL2    -0.180000       12.0110           0
     18675 MEMB     140      POPC     H4R      HAL2     0.900000E-01   1.00800           0
     18676 MEMB     140      POPC     H4S      HAL2     0.900000E-01   1.00800           0
     18677 MEMB     140      POPC     C25      CTL2    -0.180000       12.0110           0
     18678 MEMB     140      POPC     H5R      HAL2     0.900000E-01   1.00800           0
     18679 MEMB     140      POPC     H5S      HAL2     0.900000E-01   1.00800           0
     18680 MEMB     140      POPC     C26      CTL2    -0.180000       12.0110           0
     18681 MEMB     140      POPC     H6R      HAL2     0.900000E-01   1.00800           0
     18682 MEMB     140      POPC     H6S      HAL2     0.900000E-01   1.00800           0
     18683 MEMB     140      POPC     C27      CTL2    -0.180000       12.0110           0
     18684 MEMB     140      POPC     H7R      HAL2     0.900000E-01   1.00800           0
     18685 MEMB     140      POPC     H7S      HAL2     0.900000E-01   1.00800           0
     18686 MEMB     140      POPC     C28      CTL2    -0.180000       12.0110           0
     18687 MEMB     140      POPC     H8R      HAL2     0.900000E-01   1.00800           0
     18688 MEMB     140      POPC     H8S      HAL2     0.900000E-01   1.00800           0
     18689 MEMB     140      POPC     C29      CEL1    -0.150000       12.0110           0
     18690 MEMB     140      POPC     H91      HEL1     0.150000       1.00800           0
     18691 MEMB     140      POPC     C210     CEL1    -0.150000       12.0110           0
     18692 MEMB     140      POPC     H101     HEL1     0.150000       1.00800           0
     18693 MEMB     140      POPC     C211     CTL2    -0.180000       12.0110           0
     18694 MEMB     140      POPC     H11R     HAL2     0.900000E-01   1.00800           0
     18695 MEMB     140      POPC     H11S     HAL2     0.900000E-01   1.00800           0
     18696 MEMB     140      POPC     C212     CTL2    -0.180000       12.0110           0
     18697 MEMB     140      POPC     H12R     HAL2     0.900000E-01   1.00800           0
     18698 MEMB     140      POPC     H12S     HAL2     0.900000E-01   1.00800           0
     18699 MEMB     140      POPC     C213     CTL2    -0.180000       12.0110           0
     18700 MEMB     140      POPC     H13R     HAL2     0.900000E-01   1.00800           0
     18701 MEMB     140      POPC     H13S     HAL2     0.900000E-01   1.00800           0
     18702 MEMB     140      POPC     C214     CTL2    -0.180000       12.0110           0
     18703 MEMB     140      POPC     H14R     HAL2     0.900000E-01   1.00800           0
     18704 MEMB     140      POPC     H14S     HAL2     0.900000E-01   1.00800           0
     18705 MEMB     140      POPC     C215     CTL2    -0.180000       12.0110           0
     18706 MEMB     140      POPC     H15R     HAL2     0.900000E-01   1.00800           0
     18707 MEMB     140      POPC     H15S     HAL2     0.900000E-01   1.00800           0
     18708 MEMB     140      POPC     C216     CTL2    -0.180000       12.0110           0
     18709 MEMB     140      POPC     H16R     HAL2     0.900000E-01   1.00800           0
     18710 MEMB     140      POPC     H16S     HAL2     0.900000E-01   1.00800           0
     18711 MEMB     140      POPC     C217     CTL2    -0.180000       12.0110           0
     18712 MEMB     140      POPC     H17R     HAL2     0.900000E-01   1.00800           0
     18713 MEMB     140      POPC     H17S     HAL2     0.900000E-01   1.00800           0
     18714 MEMB     140      POPC     C218     CTL3    -0.270000       12.0110           0
     18715 MEMB     140      POPC     H18R     HAL3     0.900000E-01   1.00800           0
     18716 MEMB     140      POPC     H18S     HAL3     0.900000E-01   1.00800           0
     18717 MEMB     140      POPC     H18T     HAL3     0.900000E-01   1.00800           0
     18718 MEMB     140      POPC     C33      CTL2    -0.180000       12.0110           0
     18719 MEMB     140      POPC     H3X      HAL2     0.900000E-01   1.00800           0
     18720 MEMB     140      POPC     H3Y      HAL2     0.900000E-01   1.00800           0
     18721 MEMB     140      POPC     C34      CTL2    -0.180000       12.0110           0
     18722 MEMB     140      POPC     H4X      HAL2     0.900000E-01   1.00800           0
     18723 MEMB     140      POPC     H4Y      HAL2     0.900000E-01   1.00800           0
     18724 MEMB     140      POPC     C35      CTL2    -0.180000       12.0110           0
     18725 MEMB     140      POPC     H5X      HAL2     0.900000E-01   1.00800           0
     18726 MEMB     140      POPC     H5Y      HAL2     0.900000E-01   1.00800           0
     18727 MEMB     140      POPC     C36      CTL2    -0.180000       12.0110           0
     18728 MEMB     140      POPC     H6X      HAL2     0.900000E-01   1.00800           0
     18729 MEMB     140      POPC     H6Y      HAL2     0.900000E-01   1.00800           0
     18730 MEMB     140      POPC     C37      CTL2    -0.180000       12.0110           0
     18731 MEMB     140      POPC     H7X      HAL2     0.900000E-01   1.00800           0
     18732 MEMB     140      POPC     H7Y      HAL2     0.900000E-01   1.00800           0
     18733 MEMB     140      POPC     C38      CTL2    -0.180000       12.0110           0
     18734 MEMB     140      POPC     H8X      HAL2     0.900000E-01   1.00800           0
     18735 MEMB     140      POPC     H8Y      HAL2     0.900000E-01   1.00800           0
     18736 MEMB     140      POPC     C39      CTL2    -0.180000       12.0110           0
     18737 MEMB     140      POPC     H9X      HAL2     0.900000E-01   1.00800           0
     18738 MEMB     140      POPC     H9Y      HAL2     0.900000E-01   1.00800           0
     18739 MEMB     140      POPC     C310     CTL2    -0.180000       12.0110           0
     18740 MEMB     140      POPC     H10X     HAL2     0.900000E-01   1.00800           0
     18741 MEMB     140      POPC     H10Y     HAL2     0.900000E-01   1.00800           0
     18742 MEMB     140      POPC     C311     CTL2    -0.180000       12.0110           0
     18743 MEMB     140      POPC     H11X     HAL2     0.900000E-01   1.00800           0
     18744 MEMB     140      POPC     H11Y     HAL2     0.900000E-01   1.00800           0
     18745 MEMB     140      POPC     C312     CTL2    -0.180000       12.0110           0
     18746 MEMB     140      POPC     H12X     HAL2     0.900000E-01   1.00800           0
     18747 MEMB     140      POPC     H12Y     HAL2     0.900000E-01   1.00800           0
     18748 MEMB     140      POPC     C313     CTL2    -0.180000       12.0110           0
     18749 MEMB     140      POPC     H13X     HAL2     0.900000E-01   1.00800           0
     18750 MEMB     140      POPC     H13Y     HAL2     0.900000E-01   1.00800           0
     18751 MEMB     140      POPC     C314     CTL2    -0.180000       12.0110           0
     18752 MEMB     140      POPC     H14X     HAL2     0.900000E-01   1.00800           0
     18753 MEMB     140      POPC     H14Y     HAL2     0.900000E-01   1.00800           0
     18754 MEMB     140      POPC     C315     CTL2    -0.180000       12.0110           0
     18755 MEMB     140      POPC     H15X     HAL2     0.900000E-01   1.00800           0
     18756 MEMB     140      POPC     H15Y     HAL2     0.900000E-01   1.00800           0
     18757 MEMB     140      POPC     C316     CTL3    -0.270000       12.0110           0
     18758 MEMB     140      POPC     H16X     HAL3     0.900000E-01   1.00800           0
     18759 MEMB     140      POPC     H16Y     HAL3     0.900000E-01   1.00800           0
     18760 MEMB     140      POPC     H16Z     HAL3     0.900000E-01   1.00800           0
     18761 MEMB     141      POPC     N        NTL     -0.600000       14.0070           0
     18762 MEMB     141      POPC     C12      CTL2    -0.100000       12.0110           0
     18763 MEMB     141      POPC     H12A     HL       0.250000       1.00800           0
     18764 MEMB     141      POPC     H12B     HL       0.250000       1.00800           0
     18765 MEMB     141      POPC     C13      CTL5    -0.350000       12.0110           0
     18766 MEMB     141      POPC     H13A     HL       0.250000       1.00800           0
     18767 MEMB     141      POPC     H13B     HL       0.250000       1.00800           0
     18768 MEMB     141      POPC     H13C     HL       0.250000       1.00800           0
     18769 MEMB     141      POPC     C14      CTL5    -0.350000       12.0110           0
     18770 MEMB     141      POPC     H14A     HL       0.250000       1.00800           0
     18771 MEMB     141      POPC     H14B     HL       0.250000       1.00800           0
     18772 MEMB     141      POPC     H14C     HL       0.250000       1.00800           0
     18773 MEMB     141      POPC     C15      CTL5    -0.350000       12.0110           0
     18774 MEMB     141      POPC     H15A     HL       0.250000       1.00800           0
     18775 MEMB     141      POPC     H15B     HL       0.250000       1.00800           0
     18776 MEMB     141      POPC     H15C     HL       0.250000       1.00800           0
     18777 MEMB     141      POPC     C11      CTL2    -0.800000E-01   12.0110           0
     18778 MEMB     141      POPC     H11A     HAL2     0.900000E-01   1.00800           0
     18779 MEMB     141      POPC     H11B     HAL2     0.900000E-01   1.00800           0
     18780 MEMB     141      POPC     P        PL       1.50000        30.9740           0
     18781 MEMB     141      POPC     O13      O2L     -0.780000       15.9994           0
     18782 MEMB     141      POPC     O14      O2L     -0.780000       15.9994           0
     18783 MEMB     141      POPC     O12      OSLP    -0.570000       15.9994           0
     18784 MEMB     141      POPC     O11      OSLP    -0.570000       15.9994           0
     18785 MEMB     141      POPC     C1       CTL2    -0.800000E-01   12.0110           0
     18786 MEMB     141      POPC     HA       HAL2     0.900000E-01   1.00800           0
     18787 MEMB     141      POPC     HB       HAL2     0.900000E-01   1.00800           0
     18788 MEMB     141      POPC     C2       CTL1     0.170000       12.0110           0
     18789 MEMB     141      POPC     HS       HAL1     0.900000E-01   1.00800           0
     18790 MEMB     141      POPC     O21      OSL     -0.490000       15.9994           0
     18791 MEMB     141      POPC     C21      CL       0.900000       12.0110           0
     18792 MEMB     141      POPC     O22      OBL     -0.630000       15.9994           0
     18793 MEMB     141      POPC     C22      CTL2    -0.220000       12.0110           0
     18794 MEMB     141      POPC     H2R      HAL2     0.900000E-01   1.00800           0
     18795 MEMB     141      POPC     H2S      HAL2     0.900000E-01   1.00800           0
     18796 MEMB     141      POPC     C3       CTL2     0.800000E-01   12.0110           0
     18797 MEMB     141      POPC     HX       HAL2     0.900000E-01   1.00800           0
     18798 MEMB     141      POPC     HY       HAL2     0.900000E-01   1.00800           0
     18799 MEMB     141      POPC     O31      OSL     -0.490000       15.9994           0
     18800 MEMB     141      POPC     C31      CL       0.900000       12.0110           0
     18801 MEMB     141      POPC     O32      OBL     -0.630000       15.9994           0
     18802 MEMB     141      POPC     C32      CTL2    -0.220000       12.0110           0
     18803 MEMB     141      POPC     H2X      HAL2     0.900000E-01   1.00800           0
     18804 MEMB     141      POPC     H2Y      HAL2     0.900000E-01   1.00800           0
     18805 MEMB     141      POPC     C23      CTL2    -0.180000       12.0110           0
     18806 MEMB     141      POPC     H3R      HAL2     0.900000E-01   1.00800           0
     18807 MEMB     141      POPC     H3S      HAL2     0.900000E-01   1.00800           0
     18808 MEMB     141      POPC     C24      CTL2    -0.180000       12.0110           0
     18809 MEMB     141      POPC     H4R      HAL2     0.900000E-01   1.00800           0
     18810 MEMB     141      POPC     H4S      HAL2     0.900000E-01   1.00800           0
     18811 MEMB     141      POPC     C25      CTL2    -0.180000       12.0110           0
     18812 MEMB     141      POPC     H5R      HAL2     0.900000E-01   1.00800           0
     18813 MEMB     141      POPC     H5S      HAL2     0.900000E-01   1.00800           0
     18814 MEMB     141      POPC     C26      CTL2    -0.180000       12.0110           0
     18815 MEMB     141      POPC     H6R      HAL2     0.900000E-01   1.00800           0
     18816 MEMB     141      POPC     H6S      HAL2     0.900000E-01   1.00800           0
     18817 MEMB     141      POPC     C27      CTL2    -0.180000       12.0110           0
     18818 MEMB     141      POPC     H7R      HAL2     0.900000E-01   1.00800           0
     18819 MEMB     141      POPC     H7S      HAL2     0.900000E-01   1.00800           0
     18820 MEMB     141      POPC     C28      CTL2    -0.180000       12.0110           0
     18821 MEMB     141      POPC     H8R      HAL2     0.900000E-01   1.00800           0
     18822 MEMB     141      POPC     H8S      HAL2     0.900000E-01   1.00800           0
     18823 MEMB     141      POPC     C29      CEL1    -0.150000       12.0110           0
     18824 MEMB     141      POPC     H91      HEL1     0.150000       1.00800           0
     18825 MEMB     141      POPC     C210     CEL1    -0.150000       12.0110           0
     18826 MEMB     141      POPC     H101     HEL1     0.150000       1.00800           0
     18827 MEMB     141      POPC     C211     CTL2    -0.180000       12.0110           0
     18828 MEMB     141      POPC     H11R     HAL2     0.900000E-01   1.00800           0
     18829 MEMB     141      POPC     H11S     HAL2     0.900000E-01   1.00800           0
     18830 MEMB     141      POPC     C212     CTL2    -0.180000       12.0110           0
     18831 MEMB     141      POPC     H12R     HAL2     0.900000E-01   1.00800           0
     18832 MEMB     141      POPC     H12S     HAL2     0.900000E-01   1.00800           0
     18833 MEMB     141      POPC     C213     CTL2    -0.180000       12.0110           0
     18834 MEMB     141      POPC     H13R     HAL2     0.900000E-01   1.00800           0
     18835 MEMB     141      POPC     H13S     HAL2     0.900000E-01   1.00800           0
     18836 MEMB     141      POPC     C214     CTL2    -0.180000       12.0110           0
     18837 MEMB     141      POPC     H14R     HAL2     0.900000E-01   1.00800           0
     18838 MEMB     141      POPC     H14S     HAL2     0.900000E-01   1.00800           0
     18839 MEMB     141      POPC     C215     CTL2    -0.180000       12.0110           0
     18840 MEMB     141      POPC     H15R     HAL2     0.900000E-01   1.00800           0
     18841 MEMB     141      POPC     H15S     HAL2     0.900000E-01   1.00800           0
     18842 MEMB     141      POPC     C216     CTL2    -0.180000       12.0110           0
     18843 MEMB     141      POPC     H16R     HAL2     0.900000E-01   1.00800           0
     18844 MEMB     141      POPC     H16S     HAL2     0.900000E-01   1.00800           0
     18845 MEMB     141      POPC     C217     CTL2    -0.180000       12.0110           0
     18846 MEMB     141      POPC     H17R     HAL2     0.900000E-01   1.00800           0
     18847 MEMB     141      POPC     H17S     HAL2     0.900000E-01   1.00800           0
     18848 MEMB     141      POPC     C218     CTL3    -0.270000       12.0110           0
     18849 MEMB     141      POPC     H18R     HAL3     0.900000E-01   1.00800           0
     18850 MEMB     141      POPC     H18S     HAL3     0.900000E-01   1.00800           0
     18851 MEMB     141      POPC     H18T     HAL3     0.900000E-01   1.00800           0
     18852 MEMB     141      POPC     C33      CTL2    -0.180000       12.0110           0
     18853 MEMB     141      POPC     H3X      HAL2     0.900000E-01   1.00800           0
     18854 MEMB     141      POPC     H3Y      HAL2     0.900000E-01   1.00800           0
     18855 MEMB     141      POPC     C34      CTL2    -0.180000       12.0110           0
     18856 MEMB     141      POPC     H4X      HAL2     0.900000E-01   1.00800           0
     18857 MEMB     141      POPC     H4Y      HAL2     0.900000E-01   1.00800           0
     18858 MEMB     141      POPC     C35      CTL2    -0.180000       12.0110           0
     18859 MEMB     141      POPC     H5X      HAL2     0.900000E-01   1.00800           0
     18860 MEMB     141      POPC     H5Y      HAL2     0.900000E-01   1.00800           0
     18861 MEMB     141      POPC     C36      CTL2    -0.180000       12.0110           0
     18862 MEMB     141      POPC     H6X      HAL2     0.900000E-01   1.00800           0
     18863 MEMB     141      POPC     H6Y      HAL2     0.900000E-01   1.00800           0
     18864 MEMB     141      POPC     C37      CTL2    -0.180000       12.0110           0
     18865 MEMB     141      POPC     H7X      HAL2     0.900000E-01   1.00800           0
     18866 MEMB     141      POPC     H7Y      HAL2     0.900000E-01   1.00800           0
     18867 MEMB     141      POPC     C38      CTL2    -0.180000       12.0110           0
     18868 MEMB     141      POPC     H8X      HAL2     0.900000E-01   1.00800           0
     18869 MEMB     141      POPC     H8Y      HAL2     0.900000E-01   1.00800           0
     18870 MEMB     141      POPC     C39      CTL2    -0.180000       12.0110           0
     18871 MEMB     141      POPC     H9X      HAL2     0.900000E-01   1.00800           0
     18872 MEMB     141      POPC     H9Y      HAL2     0.900000E-01   1.00800           0
     18873 MEMB     141      POPC     C310     CTL2    -0.180000       12.0110           0
     18874 MEMB     141      POPC     H10X     HAL2     0.900000E-01   1.00800           0
     18875 MEMB     141      POPC     H10Y     HAL2     0.900000E-01   1.00800           0
     18876 MEMB     141      POPC     C311     CTL2    -0.180000       12.0110           0
     18877 MEMB     141      POPC     H11X     HAL2     0.900000E-01   1.00800           0
     18878 MEMB     141      POPC     H11Y     HAL2     0.900000E-01   1.00800           0
     18879 MEMB     141      POPC     C312     CTL2    -0.180000       12.0110           0
     18880 MEMB     141      POPC     H12X     HAL2     0.900000E-01   1.00800           0
     18881 MEMB     141      POPC     H12Y     HAL2     0.900000E-01   1.00800           0
     18882 MEMB     141      POPC     C313     CTL2    -0.180000       12.0110           0
     18883 MEMB     141      POPC     H13X     HAL2     0.900000E-01   1.00800           0
     18884 MEMB     141      POPC     H13Y     HAL2     0.900000E-01   1.00800           0
     18885 MEMB     141      POPC     C314     CTL2    -0.180000       12.0110           0
     18886 MEMB     141      POPC     H14X     HAL2     0.900000E-01   1.00800           0
     18887 MEMB     141      POPC     H14Y     HAL2     0.900000E-01   1.00800           0
     18888 MEMB     141      POPC     C315     CTL2    -0.180000       12.0110           0
     18889 MEMB     141      POPC     H15X     HAL2     0.900000E-01   1.00800           0
     18890 MEMB     141      POPC     H15Y     HAL2     0.900000E-01   1.00800           0
     18891 MEMB     141      POPC     C316     CTL3    -0.270000       12.0110           0
     18892 MEMB     141      POPC     H16X     HAL3     0.900000E-01   1.00800           0
     18893 MEMB     141      POPC     H16Y     HAL3     0.900000E-01   1.00800           0
     18894 MEMB     141      POPC     H16Z     HAL3     0.900000E-01   1.00800           0
     18895 MEMB     142      POPC     N        NTL     -0.600000       14.0070           0
     18896 MEMB     142      POPC     C12      CTL2    -0.100000       12.0110           0
     18897 MEMB     142      POPC     H12A     HL       0.250000       1.00800           0
     18898 MEMB     142      POPC     H12B     HL       0.250000       1.00800           0
     18899 MEMB     142      POPC     C13      CTL5    -0.350000       12.0110           0
     18900 MEMB     142      POPC     H13A     HL       0.250000       1.00800           0
     18901 MEMB     142      POPC     H13B     HL       0.250000       1.00800           0
     18902 MEMB     142      POPC     H13C     HL       0.250000       1.00800           0
     18903 MEMB     142      POPC     C14      CTL5    -0.350000       12.0110           0
     18904 MEMB     142      POPC     H14A     HL       0.250000       1.00800           0
     18905 MEMB     142      POPC     H14B     HL       0.250000       1.00800           0
     18906 MEMB     142      POPC     H14C     HL       0.250000       1.00800           0
     18907 MEMB     142      POPC     C15      CTL5    -0.350000       12.0110           0
     18908 MEMB     142      POPC     H15A     HL       0.250000       1.00800           0
     18909 MEMB     142      POPC     H15B     HL       0.250000       1.00800           0
     18910 MEMB     142      POPC     H15C     HL       0.250000       1.00800           0
     18911 MEMB     142      POPC     C11      CTL2    -0.800000E-01   12.0110           0
     18912 MEMB     142      POPC     H11A     HAL2     0.900000E-01   1.00800           0
     18913 MEMB     142      POPC     H11B     HAL2     0.900000E-01   1.00800           0
     18914 MEMB     142      POPC     P        PL       1.50000        30.9740           0
     18915 MEMB     142      POPC     O13      O2L     -0.780000       15.9994           0
     18916 MEMB     142      POPC     O14      O2L     -0.780000       15.9994           0
     18917 MEMB     142      POPC     O12      OSLP    -0.570000       15.9994           0
     18918 MEMB     142      POPC     O11      OSLP    -0.570000       15.9994           0
     18919 MEMB     142      POPC     C1       CTL2    -0.800000E-01   12.0110           0
     18920 MEMB     142      POPC     HA       HAL2     0.900000E-01   1.00800           0
     18921 MEMB     142      POPC     HB       HAL2     0.900000E-01   1.00800           0
     18922 MEMB     142      POPC     C2       CTL1     0.170000       12.0110           0
     18923 MEMB     142      POPC     HS       HAL1     0.900000E-01   1.00800           0
     18924 MEMB     142      POPC     O21      OSL     -0.490000       15.9994           0
     18925 MEMB     142      POPC     C21      CL       0.900000       12.0110           0
     18926 MEMB     142      POPC     O22      OBL     -0.630000       15.9994           0
     18927 MEMB     142      POPC     C22      CTL2    -0.220000       12.0110           0
     18928 MEMB     142      POPC     H2R      HAL2     0.900000E-01   1.00800           0
     18929 MEMB     142      POPC     H2S      HAL2     0.900000E-01   1.00800           0
     18930 MEMB     142      POPC     C3       CTL2     0.800000E-01   12.0110           0
     18931 MEMB     142      POPC     HX       HAL2     0.900000E-01   1.00800           0
     18932 MEMB     142      POPC     HY       HAL2     0.900000E-01   1.00800           0
     18933 MEMB     142      POPC     O31      OSL     -0.490000       15.9994           0
     18934 MEMB     142      POPC     C31      CL       0.900000       12.0110           0
     18935 MEMB     142      POPC     O32      OBL     -0.630000       15.9994           0
     18936 MEMB     142      POPC     C32      CTL2    -0.220000       12.0110           0
     18937 MEMB     142      POPC     H2X      HAL2     0.900000E-01   1.00800           0
     18938 MEMB     142      POPC     H2Y      HAL2     0.900000E-01   1.00800           0
     18939 MEMB     142      POPC     C23      CTL2    -0.180000       12.0110           0
     18940 MEMB     142      POPC     H3R      HAL2     0.900000E-01   1.00800           0
     18941 MEMB     142      POPC     H3S      HAL2     0.900000E-01   1.00800           0
     18942 MEMB     142      POPC     C24      CTL2    -0.180000       12.0110           0
     18943 MEMB     142      POPC     H4R      HAL2     0.900000E-01   1.00800           0
     18944 MEMB     142      POPC     H4S      HAL2     0.900000E-01   1.00800           0
     18945 MEMB     142      POPC     C25      CTL2    -0.180000       12.0110           0
     18946 MEMB     142      POPC     H5R      HAL2     0.900000E-01   1.00800           0
     18947 MEMB     142      POPC     H5S      HAL2     0.900000E-01   1.00800           0
     18948 MEMB     142      POPC     C26      CTL2    -0.180000       12.0110           0
     18949 MEMB     142      POPC     H6R      HAL2     0.900000E-01   1.00800           0
     18950 MEMB     142      POPC     H6S      HAL2     0.900000E-01   1.00800           0
     18951 MEMB     142      POPC     C27      CTL2    -0.180000       12.0110           0
     18952 MEMB     142      POPC     H7R      HAL2     0.900000E-01   1.00800           0
     18953 MEMB     142      POPC     H7S      HAL2     0.900000E-01   1.00800           0
     18954 MEMB     142      POPC     C28      CTL2    -0.180000       12.0110           0
     18955 MEMB     142      POPC     H8R      HAL2     0.900000E-01   1.00800           0
     18956 MEMB     142      POPC     H8S      HAL2     0.900000E-01   1.00800           0
     18957 MEMB     142      POPC     C29      CEL1    -0.150000       12.0110           0
     18958 MEMB     142      POPC     H91      HEL1     0.150000       1.00800           0
     18959 MEMB     142      POPC     C210     CEL1    -0.150000       12.0110           0
     18960 MEMB     142      POPC     H101     HEL1     0.150000       1.00800           0
     18961 MEMB     142      POPC     C211     CTL2    -0.180000       12.0110           0
     18962 MEMB     142      POPC     H11R     HAL2     0.900000E-01   1.00800           0
     18963 MEMB     142      POPC     H11S     HAL2     0.900000E-01   1.00800           0
     18964 MEMB     142      POPC     C212     CTL2    -0.180000       12.0110           0
     18965 MEMB     142      POPC     H12R     HAL2     0.900000E-01   1.00800           0
     18966 MEMB     142      POPC     H12S     HAL2     0.900000E-01   1.00800           0
     18967 MEMB     142      POPC     C213     CTL2    -0.180000       12.0110           0
     18968 MEMB     142      POPC     H13R     HAL2     0.900000E-01   1.00800           0
     18969 MEMB     142      POPC     H13S     HAL2     0.900000E-01   1.00800           0
     18970 MEMB     142      POPC     C214     CTL2    -0.180000       12.0110           0
     18971 MEMB     142      POPC     H14R     HAL2     0.900000E-01   1.00800           0
     18972 MEMB     142      POPC     H14S     HAL2     0.900000E-01   1.00800           0
     18973 MEMB     142      POPC     C215     CTL2    -0.180000       12.0110           0
     18974 MEMB     142      POPC     H15R     HAL2     0.900000E-01   1.00800           0
     18975 MEMB     142      POPC     H15S     HAL2     0.900000E-01   1.00800           0
     18976 MEMB     142      POPC     C216     CTL2    -0.180000       12.0110           0
     18977 MEMB     142      POPC     H16R     HAL2     0.900000E-01   1.00800           0
     18978 MEMB     142      POPC     H16S     HAL2     0.900000E-01   1.00800           0
     18979 MEMB     142      POPC     C217     CTL2    -0.180000       12.0110           0
     18980 MEMB     142      POPC     H17R     HAL2     0.900000E-01   1.00800           0
     18981 MEMB     142      POPC     H17S     HAL2     0.900000E-01   1.00800           0
     18982 MEMB     142      POPC     C218     CTL3    -0.270000       12.0110           0
     18983 MEMB     142      POPC     H18R     HAL3     0.900000E-01   1.00800           0
     18984 MEMB     142      POPC     H18S     HAL3     0.900000E-01   1.00800           0
     18985 MEMB     142      POPC     H18T     HAL3     0.900000E-01   1.00800           0
     18986 MEMB     142      POPC     C33      CTL2    -0.180000       12.0110           0
     18987 MEMB     142      POPC     H3X      HAL2     0.900000E-01   1.00800           0
     18988 MEMB     142      POPC     H3Y      HAL2     0.900000E-01   1.00800           0
     18989 MEMB     142      POPC     C34      CTL2    -0.180000       12.0110           0
     18990 MEMB     142      POPC     H4X      HAL2     0.900000E-01   1.00800           0
     18991 MEMB     142      POPC     H4Y      HAL2     0.900000E-01   1.00800           0
     18992 MEMB     142      POPC     C35      CTL2    -0.180000       12.0110           0
     18993 MEMB     142      POPC     H5X      HAL2     0.900000E-01   1.00800           0
     18994 MEMB     142      POPC     H5Y      HAL2     0.900000E-01   1.00800           0
     18995 MEMB     142      POPC     C36      CTL2    -0.180000       12.0110           0
     18996 MEMB     142      POPC     H6X      HAL2     0.900000E-01   1.00800           0
     18997 MEMB     142      POPC     H6Y      HAL2     0.900000E-01   1.00800           0
     18998 MEMB     142      POPC     C37      CTL2    -0.180000       12.0110           0
     18999 MEMB     142      POPC     H7X      HAL2     0.900000E-01   1.00800           0
     19000 MEMB     142      POPC     H7Y      HAL2     0.900000E-01   1.00800           0
     19001 MEMB     142      POPC     C38      CTL2    -0.180000       12.0110           0
     19002 MEMB     142      POPC     H8X      HAL2     0.900000E-01   1.00800           0
     19003 MEMB     142      POPC     H8Y      HAL2     0.900000E-01   1.00800           0
     19004 MEMB     142      POPC     C39      CTL2    -0.180000       12.0110           0
     19005 MEMB     142      POPC     H9X      HAL2     0.900000E-01   1.00800           0
     19006 MEMB     142      POPC     H9Y      HAL2     0.900000E-01   1.00800           0
     19007 MEMB     142      POPC     C310     CTL2    -0.180000       12.0110           0
     19008 MEMB     142      POPC     H10X     HAL2     0.900000E-01   1.00800           0
     19009 MEMB     142      POPC     H10Y     HAL2     0.900000E-01   1.00800           0
     19010 MEMB     142      POPC     C311     CTL2    -0.180000       12.0110           0
     19011 MEMB     142      POPC     H11X     HAL2     0.900000E-01   1.00800           0
     19012 MEMB     142      POPC     H11Y     HAL2     0.900000E-01   1.00800           0
     19013 MEMB     142      POPC     C312     CTL2    -0.180000       12.0110           0
     19014 MEMB     142      POPC     H12X     HAL2     0.900000E-01   1.00800           0
     19015 MEMB     142      POPC     H12Y     HAL2     0.900000E-01   1.00800           0
     19016 MEMB     142      POPC     C313     CTL2    -0.180000       12.0110           0
     19017 MEMB     142      POPC     H13X     HAL2     0.900000E-01   1.00800           0
     19018 MEMB     142      POPC     H13Y     HAL2     0.900000E-01   1.00800           0
     19019 MEMB     142      POPC     C314     CTL2    -0.180000       12.0110           0
     19020 MEMB     142      POPC     H14X     HAL2     0.900000E-01   1.00800           0
     19021 MEMB     142      POPC     H14Y     HAL2     0.900000E-01   1.00800           0
     19022 MEMB     142      POPC     C315     CTL2    -0.180000       12.0110           0
     19023 MEMB     142      POPC     H15X     HAL2     0.900000E-01   1.00800           0
     19024 MEMB     142      POPC     H15Y     HAL2     0.900000E-01   1.00800           0
     19025 MEMB     142      POPC     C316     CTL3    -0.270000       12.0110           0
     19026 MEMB     142      POPC     H16X     HAL3     0.900000E-01   1.00800           0
     19027 MEMB     142      POPC     H16Y     HAL3     0.900000E-01   1.00800           0
     19028 MEMB     142      POPC     H16Z     HAL3     0.900000E-01   1.00800           0
     19029 MEMB     143      POPC     N        NTL     -0.600000       14.0070           0
     19030 MEMB     143      POPC     C12      CTL2    -0.100000       12.0110           0
     19031 MEMB     143      POPC     H12A     HL       0.250000       1.00800           0
     19032 MEMB     143      POPC     H12B     HL       0.250000       1.00800           0
     19033 MEMB     143      POPC     C13      CTL5    -0.350000       12.0110           0
     19034 MEMB     143      POPC     H13A     HL       0.250000       1.00800           0
     19035 MEMB     143      POPC     H13B     HL       0.250000       1.00800           0
     19036 MEMB     143      POPC     H13C     HL       0.250000       1.00800           0
     19037 MEMB     143      POPC     C14      CTL5    -0.350000       12.0110           0
     19038 MEMB     143      POPC     H14A     HL       0.250000       1.00800           0
     19039 MEMB     143      POPC     H14B     HL       0.250000       1.00800           0
     19040 MEMB     143      POPC     H14C     HL       0.250000       1.00800           0
     19041 MEMB     143      POPC     C15      CTL5    -0.350000       12.0110           0
     19042 MEMB     143      POPC     H15A     HL       0.250000       1.00800           0
     19043 MEMB     143      POPC     H15B     HL       0.250000       1.00800           0
     19044 MEMB     143      POPC     H15C     HL       0.250000       1.00800           0
     19045 MEMB     143      POPC     C11      CTL2    -0.800000E-01   12.0110           0
     19046 MEMB     143      POPC     H11A     HAL2     0.900000E-01   1.00800           0
     19047 MEMB     143      POPC     H11B     HAL2     0.900000E-01   1.00800           0
     19048 MEMB     143      POPC     P        PL       1.50000        30.9740           0
     19049 MEMB     143      POPC     O13      O2L     -0.780000       15.9994           0
     19050 MEMB     143      POPC     O14      O2L     -0.780000       15.9994           0
     19051 MEMB     143      POPC     O12      OSLP    -0.570000       15.9994           0
     19052 MEMB     143      POPC     O11      OSLP    -0.570000       15.9994           0
     19053 MEMB     143      POPC     C1       CTL2    -0.800000E-01   12.0110           0
     19054 MEMB     143      POPC     HA       HAL2     0.900000E-01   1.00800           0
     19055 MEMB     143      POPC     HB       HAL2     0.900000E-01   1.00800           0
     19056 MEMB     143      POPC     C2       CTL1     0.170000       12.0110           0
     19057 MEMB     143      POPC     HS       HAL1     0.900000E-01   1.00800           0
     19058 MEMB     143      POPC     O21      OSL     -0.490000       15.9994           0
     19059 MEMB     143      POPC     C21      CL       0.900000       12.0110           0
     19060 MEMB     143      POPC     O22      OBL     -0.630000       15.9994           0
     19061 MEMB     143      POPC     C22      CTL2    -0.220000       12.0110           0
     19062 MEMB     143      POPC     H2R      HAL2     0.900000E-01   1.00800           0
     19063 MEMB     143      POPC     H2S      HAL2     0.900000E-01   1.00800           0
     19064 MEMB     143      POPC     C3       CTL2     0.800000E-01   12.0110           0
     19065 MEMB     143      POPC     HX       HAL2     0.900000E-01   1.00800           0
     19066 MEMB     143      POPC     HY       HAL2     0.900000E-01   1.00800           0
     19067 MEMB     143      POPC     O31      OSL     -0.490000       15.9994           0
     19068 MEMB     143      POPC     C31      CL       0.900000       12.0110           0
     19069 MEMB     143      POPC     O32      OBL     -0.630000       15.9994           0
     19070 MEMB     143      POPC     C32      CTL2    -0.220000       12.0110           0
     19071 MEMB     143      POPC     H2X      HAL2     0.900000E-01   1.00800           0
     19072 MEMB     143      POPC     H2Y      HAL2     0.900000E-01   1.00800           0
     19073 MEMB     143      POPC     C23      CTL2    -0.180000       12.0110           0
     19074 MEMB     143      POPC     H3R      HAL2     0.900000E-01   1.00800           0
     19075 MEMB     143      POPC     H3S      HAL2     0.900000E-01   1.00800           0
     19076 MEMB     143      POPC     C24      CTL2    -0.180000       12.0110           0
     19077 MEMB     143      POPC     H4R      HAL2     0.900000E-01   1.00800           0
     19078 MEMB     143      POPC     H4S      HAL2     0.900000E-01   1.00800           0
     19079 MEMB     143      POPC     C25      CTL2    -0.180000       12.0110           0
     19080 MEMB     143      POPC     H5R      HAL2     0.900000E-01   1.00800           0
     19081 MEMB     143      POPC     H5S      HAL2     0.900000E-01   1.00800           0
     19082 MEMB     143      POPC     C26      CTL2    -0.180000       12.0110           0
     19083 MEMB     143      POPC     H6R      HAL2     0.900000E-01   1.00800           0
     19084 MEMB     143      POPC     H6S      HAL2     0.900000E-01   1.00800           0
     19085 MEMB     143      POPC     C27      CTL2    -0.180000       12.0110           0
     19086 MEMB     143      POPC     H7R      HAL2     0.900000E-01   1.00800           0
     19087 MEMB     143      POPC     H7S      HAL2     0.900000E-01   1.00800           0
     19088 MEMB     143      POPC     C28      CTL2    -0.180000       12.0110           0
     19089 MEMB     143      POPC     H8R      HAL2     0.900000E-01   1.00800           0
     19090 MEMB     143      POPC     H8S      HAL2     0.900000E-01   1.00800           0
     19091 MEMB     143      POPC     C29      CEL1    -0.150000       12.0110           0
     19092 MEMB     143      POPC     H91      HEL1     0.150000       1.00800           0
     19093 MEMB     143      POPC     C210     CEL1    -0.150000       12.0110           0
     19094 MEMB     143      POPC     H101     HEL1     0.150000       1.00800           0
     19095 MEMB     143      POPC     C211     CTL2    -0.180000       12.0110           0
     19096 MEMB     143      POPC     H11R     HAL2     0.900000E-01   1.00800           0
     19097 MEMB     143      POPC     H11S     HAL2     0.900000E-01   1.00800           0
     19098 MEMB     143      POPC     C212     CTL2    -0.180000       12.0110           0
     19099 MEMB     143      POPC     H12R     HAL2     0.900000E-01   1.00800           0
     19100 MEMB     143      POPC     H12S     HAL2     0.900000E-01   1.00800           0
     19101 MEMB     143      POPC     C213     CTL2    -0.180000       12.0110           0
     19102 MEMB     143      POPC     H13R     HAL2     0.900000E-01   1.00800           0
     19103 MEMB     143      POPC     H13S     HAL2     0.900000E-01   1.00800           0
     19104 MEMB     143      POPC     C214     CTL2    -0.180000       12.0110           0
     19105 MEMB     143      POPC     H14R     HAL2     0.900000E-01   1.00800           0
     19106 MEMB     143      POPC     H14S     HAL2     0.900000E-01   1.00800           0
     19107 MEMB     143      POPC     C215     CTL2    -0.180000       12.0110           0
     19108 MEMB     143      POPC     H15R     HAL2     0.900000E-01   1.00800           0
     19109 MEMB     143      POPC     H15S     HAL2     0.900000E-01   1.00800           0
     19110 MEMB     143      POPC     C216     CTL2    -0.180000       12.0110           0
     19111 MEMB     143      POPC     H16R     HAL2     0.900000E-01   1.00800           0
     19112 MEMB     143      POPC     H16S     HAL2     0.900000E-01   1.00800           0
     19113 MEMB     143      POPC     C217     CTL2    -0.180000       12.0110           0
     19114 MEMB     143      POPC     H17R     HAL2     0.900000E-01   1.00800           0
     19115 MEMB     143      POPC     H17S     HAL2     0.900000E-01   1.00800           0
     19116 MEMB     143      POPC     C218     CTL3    -0.270000       12.0110           0
     19117 MEMB     143      POPC     H18R     HAL3     0.900000E-01   1.00800           0
     19118 MEMB     143      POPC     H18S     HAL3     0.900000E-01   1.00800           0
     19119 MEMB     143      POPC     H18T     HAL3     0.900000E-01   1.00800           0
     19120 MEMB     143      POPC     C33      CTL2    -0.180000       12.0110           0
     19121 MEMB     143      POPC     H3X      HAL2     0.900000E-01   1.00800           0
     19122 MEMB     143      POPC     H3Y      HAL2     0.900000E-01   1.00800           0
     19123 MEMB     143      POPC     C34      CTL2    -0.180000       12.0110           0
     19124 MEMB     143      POPC     H4X      HAL2     0.900000E-01   1.00800           0
     19125 MEMB     143      POPC     H4Y      HAL2     0.900000E-01   1.00800           0
     19126 MEMB     143      POPC     C35      CTL2    -0.180000       12.0110           0
     19127 MEMB     143      POPC     H5X      HAL2     0.900000E-01   1.00800           0
     19128 MEMB     143      POPC     H5Y      HAL2     0.900000E-01   1.00800           0
     19129 MEMB     143      POPC     C36      CTL2    -0.180000       12.0110           0
     19130 MEMB     143      POPC     H6X      HAL2     0.900000E-01   1.00800           0
     19131 MEMB     143      POPC     H6Y      HAL2     0.900000E-01   1.00800           0
     19132 MEMB     143      POPC     C37      CTL2    -0.180000       12.0110           0
     19133 MEMB     143      POPC     H7X      HAL2     0.900000E-01   1.00800           0
     19134 MEMB     143      POPC     H7Y      HAL2     0.900000E-01   1.00800           0
     19135 MEMB     143      POPC     C38      CTL2    -0.180000       12.0110           0
     19136 MEMB     143      POPC     H8X      HAL2     0.900000E-01   1.00800           0
     19137 MEMB     143      POPC     H8Y      HAL2     0.900000E-01   1.00800           0
     19138 MEMB     143      POPC     C39      CTL2    -0.180000       12.0110           0
     19139 MEMB     143      POPC     H9X      HAL2     0.900000E-01   1.00800           0
     19140 MEMB     143      POPC     H9Y      HAL2     0.900000E-01   1.00800           0
     19141 MEMB     143      POPC     C310     CTL2    -0.180000       12.0110           0
     19142 MEMB     143      POPC     H10X     HAL2     0.900000E-01   1.00800           0
     19143 MEMB     143      POPC     H10Y     HAL2     0.900000E-01   1.00800           0
     19144 MEMB     143      POPC     C311     CTL2    -0.180000       12.0110           0
     19145 MEMB     143      POPC     H11X     HAL2     0.900000E-01   1.00800           0
     19146 MEMB     143      POPC     H11Y     HAL2     0.900000E-01   1.00800           0
     19147 MEMB     143      POPC     C312     CTL2    -0.180000       12.0110           0
     19148 MEMB     143      POPC     H12X     HAL2     0.900000E-01   1.00800           0
     19149 MEMB     143      POPC     H12Y     HAL2     0.900000E-01   1.00800           0
     19150 MEMB     143      POPC     C313     CTL2    -0.180000       12.0110           0
     19151 MEMB     143      POPC     H13X     HAL2     0.900000E-01   1.00800           0
     19152 MEMB     143      POPC     H13Y     HAL2     0.900000E-01   1.00800           0
     19153 MEMB     143      POPC     C314     CTL2    -0.180000       12.0110           0
     19154 MEMB     143      POPC     H14X     HAL2     0.900000E-01   1.00800           0
     19155 MEMB     143      POPC     H14Y     HAL2     0.900000E-01   1.00800           0
     19156 MEMB     143      POPC     C315     CTL2    -0.180000       12.0110           0
     19157 MEMB     143      POPC     H15X     HAL2     0.900000E-01   1.00800           0
     19158 MEMB     143      POPC     H15Y     HAL2     0.900000E-01   1.00800           0
     19159 MEMB     143      POPC     C316     CTL3    -0.270000       12.0110           0
     19160 MEMB     143      POPC     H16X     HAL3     0.900000E-01   1.00800           0
     19161 MEMB     143      POPC     H16Y     HAL3     0.900000E-01   1.00800           0
     19162 MEMB     143      POPC     H16Z     HAL3     0.900000E-01   1.00800           0
     19163 MEMB     144      POPC     N        NTL     -0.600000       14.0070           0
     19164 MEMB     144      POPC     C12      CTL2    -0.100000       12.0110           0
     19165 MEMB     144      POPC     H12A     HL       0.250000       1.00800           0
     19166 MEMB     144      POPC     H12B     HL       0.250000       1.00800           0
     19167 MEMB     144      POPC     C13      CTL5    -0.350000       12.0110           0
     19168 MEMB     144      POPC     H13A     HL       0.250000       1.00800           0
     19169 MEMB     144      POPC     H13B     HL       0.250000       1.00800           0
     19170 MEMB     144      POPC     H13C     HL       0.250000       1.00800           0
     19171 MEMB     144      POPC     C14      CTL5    -0.350000       12.0110           0
     19172 MEMB     144      POPC     H14A     HL       0.250000       1.00800           0
     19173 MEMB     144      POPC     H14B     HL       0.250000       1.00800           0
     19174 MEMB     144      POPC     H14C     HL       0.250000       1.00800           0
     19175 MEMB     144      POPC     C15      CTL5    -0.350000       12.0110           0
     19176 MEMB     144      POPC     H15A     HL       0.250000       1.00800           0
     19177 MEMB     144      POPC     H15B     HL       0.250000       1.00800           0
     19178 MEMB     144      POPC     H15C     HL       0.250000       1.00800           0
     19179 MEMB     144      POPC     C11      CTL2    -0.800000E-01   12.0110           0
     19180 MEMB     144      POPC     H11A     HAL2     0.900000E-01   1.00800           0
     19181 MEMB     144      POPC     H11B     HAL2     0.900000E-01   1.00800           0
     19182 MEMB     144      POPC     P        PL       1.50000        30.9740           0
     19183 MEMB     144      POPC     O13      O2L     -0.780000       15.9994           0
     19184 MEMB     144      POPC     O14      O2L     -0.780000       15.9994           0
     19185 MEMB     144      POPC     O12      OSLP    -0.570000       15.9994           0
     19186 MEMB     144      POPC     O11      OSLP    -0.570000       15.9994           0
     19187 MEMB     144      POPC     C1       CTL2    -0.800000E-01   12.0110           0
     19188 MEMB     144      POPC     HA       HAL2     0.900000E-01   1.00800           0
     19189 MEMB     144      POPC     HB       HAL2     0.900000E-01   1.00800           0
     19190 MEMB     144      POPC     C2       CTL1     0.170000       12.0110           0
     19191 MEMB     144      POPC     HS       HAL1     0.900000E-01   1.00800           0
     19192 MEMB     144      POPC     O21      OSL     -0.490000       15.9994           0
     19193 MEMB     144      POPC     C21      CL       0.900000       12.0110           0
     19194 MEMB     144      POPC     O22      OBL     -0.630000       15.9994           0
     19195 MEMB     144      POPC     C22      CTL2    -0.220000       12.0110           0
     19196 MEMB     144      POPC     H2R      HAL2     0.900000E-01   1.00800           0
     19197 MEMB     144      POPC     H2S      HAL2     0.900000E-01   1.00800           0
     19198 MEMB     144      POPC     C3       CTL2     0.800000E-01   12.0110           0
     19199 MEMB     144      POPC     HX       HAL2     0.900000E-01   1.00800           0
     19200 MEMB     144      POPC     HY       HAL2     0.900000E-01   1.00800           0
     19201 MEMB     144      POPC     O31      OSL     -0.490000       15.9994           0
     19202 MEMB     144      POPC     C31      CL       0.900000       12.0110           0
     19203 MEMB     144      POPC     O32      OBL     -0.630000       15.9994           0
     19204 MEMB     144      POPC     C32      CTL2    -0.220000       12.0110           0
     19205 MEMB     144      POPC     H2X      HAL2     0.900000E-01   1.00800           0
     19206 MEMB     144      POPC     H2Y      HAL2     0.900000E-01   1.00800           0
     19207 MEMB     144      POPC     C23      CTL2    -0.180000       12.0110           0
     19208 MEMB     144      POPC     H3R      HAL2     0.900000E-01   1.00800           0
     19209 MEMB     144      POPC     H3S      HAL2     0.900000E-01   1.00800           0
     19210 MEMB     144      POPC     C24      CTL2    -0.180000       12.0110           0
     19211 MEMB     144      POPC     H4R      HAL2     0.900000E-01   1.00800           0
     19212 MEMB     144      POPC     H4S      HAL2     0.900000E-01   1.00800           0
     19213 MEMB     144      POPC     C25      CTL2    -0.180000       12.0110           0
     19214 MEMB     144      POPC     H5R      HAL2     0.900000E-01   1.00800           0
     19215 MEMB     144      POPC     H5S      HAL2     0.900000E-01   1.00800           0
     19216 MEMB     144      POPC     C26      CTL2    -0.180000       12.0110           0
     19217 MEMB     144      POPC     H6R      HAL2     0.900000E-01   1.00800           0
     19218 MEMB     144      POPC     H6S      HAL2     0.900000E-01   1.00800           0
     19219 MEMB     144      POPC     C27      CTL2    -0.180000       12.0110           0
     19220 MEMB     144      POPC     H7R      HAL2     0.900000E-01   1.00800           0
     19221 MEMB     144      POPC     H7S      HAL2     0.900000E-01   1.00800           0
     19222 MEMB     144      POPC     C28      CTL2    -0.180000       12.0110           0
     19223 MEMB     144      POPC     H8R      HAL2     0.900000E-01   1.00800           0
     19224 MEMB     144      POPC     H8S      HAL2     0.900000E-01   1.00800           0
     19225 MEMB     144      POPC     C29      CEL1    -0.150000       12.0110           0
     19226 MEMB     144      POPC     H91      HEL1     0.150000       1.00800           0
     19227 MEMB     144      POPC     C210     CEL1    -0.150000       12.0110           0
     19228 MEMB     144      POPC     H101     HEL1     0.150000       1.00800           0
     19229 MEMB     144      POPC     C211     CTL2    -0.180000       12.0110           0
     19230 MEMB     144      POPC     H11R     HAL2     0.900000E-01   1.00800           0
     19231 MEMB     144      POPC     H11S     HAL2     0.900000E-01   1.00800           0
     19232 MEMB     144      POPC     C212     CTL2    -0.180000       12.0110           0
     19233 MEMB     144      POPC     H12R     HAL2     0.900000E-01   1.00800           0
     19234 MEMB     144      POPC     H12S     HAL2     0.900000E-01   1.00800           0
     19235 MEMB     144      POPC     C213     CTL2    -0.180000       12.0110           0
     19236 MEMB     144      POPC     H13R     HAL2     0.900000E-01   1.00800           0
     19237 MEMB     144      POPC     H13S     HAL2     0.900000E-01   1.00800           0
     19238 MEMB     144      POPC     C214     CTL2    -0.180000       12.0110           0
     19239 MEMB     144      POPC     H14R     HAL2     0.900000E-01   1.00800           0
     19240 MEMB     144      POPC     H14S     HAL2     0.900000E-01   1.00800           0
     19241 MEMB     144      POPC     C215     CTL2    -0.180000       12.0110           0
     19242 MEMB     144      POPC     H15R     HAL2     0.900000E-01   1.00800           0
     19243 MEMB     144      POPC     H15S     HAL2     0.900000E-01   1.00800           0
     19244 MEMB     144      POPC     C216     CTL2    -0.180000       12.0110           0
     19245 MEMB     144      POPC     H16R     HAL2     0.900000E-01   1.00800           0
     19246 MEMB     144      POPC     H16S     HAL2     0.900000E-01   1.00800           0
     19247 MEMB     144      POPC     C217     CTL2    -0.180000       12.0110           0
     19248 MEMB     144      POPC     H17R     HAL2     0.900000E-01   1.00800           0
     19249 MEMB     144      POPC     H17S     HAL2     0.900000E-01   1.00800           0
     19250 MEMB     144      POPC     C218     CTL3    -0.270000       12.0110           0
     19251 MEMB     144      POPC     H18R     HAL3     0.900000E-01   1.00800           0
     19252 MEMB     144      POPC     H18S     HAL3     0.900000E-01   1.00800           0
     19253 MEMB     144      POPC     H18T     HAL3     0.900000E-01   1.00800           0
     19254 MEMB     144      POPC     C33      CTL2    -0.180000       12.0110           0
     19255 MEMB     144      POPC     H3X      HAL2     0.900000E-01   1.00800           0
     19256 MEMB     144      POPC     H3Y      HAL2     0.900000E-01   1.00800           0
     19257 MEMB     144      POPC     C34      CTL2    -0.180000       12.0110           0
     19258 MEMB     144      POPC     H4X      HAL2     0.900000E-01   1.00800           0
     19259 MEMB     144      POPC     H4Y      HAL2     0.900000E-01   1.00800           0
     19260 MEMB     144      POPC     C35      CTL2    -0.180000       12.0110           0
     19261 MEMB     144      POPC     H5X      HAL2     0.900000E-01   1.00800           0
     19262 MEMB     144      POPC     H5Y      HAL2     0.900000E-01   1.00800           0
     19263 MEMB     144      POPC     C36      CTL2    -0.180000       12.0110           0
     19264 MEMB     144      POPC     H6X      HAL2     0.900000E-01   1.00800           0
     19265 MEMB     144      POPC     H6Y      HAL2     0.900000E-01   1.00800           0
     19266 MEMB     144      POPC     C37      CTL2    -0.180000       12.0110           0
     19267 MEMB     144      POPC     H7X      HAL2     0.900000E-01   1.00800           0
     19268 MEMB     144      POPC     H7Y      HAL2     0.900000E-01   1.00800           0
     19269 MEMB     144      POPC     C38      CTL2    -0.180000       12.0110           0
     19270 MEMB     144      POPC     H8X      HAL2     0.900000E-01   1.00800           0
     19271 MEMB     144      POPC     H8Y      HAL2     0.900000E-01   1.00800           0
     19272 MEMB     144      POPC     C39      CTL2    -0.180000       12.0110           0
     19273 MEMB     144      POPC     H9X      HAL2     0.900000E-01   1.00800           0
     19274 MEMB     144      POPC     H9Y      HAL2     0.900000E-01   1.00800           0
     19275 MEMB     144      POPC     C310     CTL2    -0.180000       12.0110           0
     19276 MEMB     144      POPC     H10X     HAL2     0.900000E-01   1.00800           0
     19277 MEMB     144      POPC     H10Y     HAL2     0.900000E-01   1.00800           0
     19278 MEMB     144      POPC     C311     CTL2    -0.180000       12.0110           0
     19279 MEMB     144      POPC     H11X     HAL2     0.900000E-01   1.00800           0
     19280 MEMB     144      POPC     H11Y     HAL2     0.900000E-01   1.00800           0
     19281 MEMB     144      POPC     C312     CTL2    -0.180000       12.0110           0
     19282 MEMB     144      POPC     H12X     HAL2     0.900000E-01   1.00800           0
     19283 MEMB     144      POPC     H12Y     HAL2     0.900000E-01   1.00800           0
     19284 MEMB     144      POPC     C313     CTL2    -0.180000       12.0110           0
     19285 MEMB     144      POPC     H13X     HAL2     0.900000E-01   1.00800           0
     19286 MEMB     144      POPC     H13Y     HAL2     0.900000E-01   1.00800           0
     19287 MEMB     144      POPC     C314     CTL2    -0.180000       12.0110           0
     19288 MEMB     144      POPC     H14X     HAL2     0.900000E-01   1.00800           0
     19289 MEMB     144      POPC     H14Y     HAL2     0.900000E-01   1.00800           0
     19290 MEMB     144      POPC     C315     CTL2    -0.180000       12.0110           0
     19291 MEMB     144      POPC     H15X     HAL2     0.900000E-01   1.00800           0
     19292 MEMB     144      POPC     H15Y     HAL2     0.900000E-01   1.00800           0
     19293 MEMB     144      POPC     C316     CTL3    -0.270000       12.0110           0
     19294 MEMB     144      POPC     H16X     HAL3     0.900000E-01   1.00800           0
     19295 MEMB     144      POPC     H16Y     HAL3     0.900000E-01   1.00800           0
     19296 MEMB     144      POPC     H16Z     HAL3     0.900000E-01   1.00800           0
     19297 MEMB     145      POPC     N        NTL     -0.600000       14.0070           0
     19298 MEMB     145      POPC     C12      CTL2    -0.100000       12.0110           0
     19299 MEMB     145      POPC     H12A     HL       0.250000       1.00800           0
     19300 MEMB     145      POPC     H12B     HL       0.250000       1.00800           0
     19301 MEMB     145      POPC     C13      CTL5    -0.350000       12.0110           0
     19302 MEMB     145      POPC     H13A     HL       0.250000       1.00800           0
     19303 MEMB     145      POPC     H13B     HL       0.250000       1.00800           0
     19304 MEMB     145      POPC     H13C     HL       0.250000       1.00800           0
     19305 MEMB     145      POPC     C14      CTL5    -0.350000       12.0110           0
     19306 MEMB     145      POPC     H14A     HL       0.250000       1.00800           0
     19307 MEMB     145      POPC     H14B     HL       0.250000       1.00800           0
     19308 MEMB     145      POPC     H14C     HL       0.250000       1.00800           0
     19309 MEMB     145      POPC     C15      CTL5    -0.350000       12.0110           0
     19310 MEMB     145      POPC     H15A     HL       0.250000       1.00800           0
     19311 MEMB     145      POPC     H15B     HL       0.250000       1.00800           0
     19312 MEMB     145      POPC     H15C     HL       0.250000       1.00800           0
     19313 MEMB     145      POPC     C11      CTL2    -0.800000E-01   12.0110           0
     19314 MEMB     145      POPC     H11A     HAL2     0.900000E-01   1.00800           0
     19315 MEMB     145      POPC     H11B     HAL2     0.900000E-01   1.00800           0
     19316 MEMB     145      POPC     P        PL       1.50000        30.9740           0
     19317 MEMB     145      POPC     O13      O2L     -0.780000       15.9994           0
     19318 MEMB     145      POPC     O14      O2L     -0.780000       15.9994           0
     19319 MEMB     145      POPC     O12      OSLP    -0.570000       15.9994           0
     19320 MEMB     145      POPC     O11      OSLP    -0.570000       15.9994           0
     19321 MEMB     145      POPC     C1       CTL2    -0.800000E-01   12.0110           0
     19322 MEMB     145      POPC     HA       HAL2     0.900000E-01   1.00800           0
     19323 MEMB     145      POPC     HB       HAL2     0.900000E-01   1.00800           0
     19324 MEMB     145      POPC     C2       CTL1     0.170000       12.0110           0
     19325 MEMB     145      POPC     HS       HAL1     0.900000E-01   1.00800           0
     19326 MEMB     145      POPC     O21      OSL     -0.490000       15.9994           0
     19327 MEMB     145      POPC     C21      CL       0.900000       12.0110           0
     19328 MEMB     145      POPC     O22      OBL     -0.630000       15.9994           0
     19329 MEMB     145      POPC     C22      CTL2    -0.220000       12.0110           0
     19330 MEMB     145      POPC     H2R      HAL2     0.900000E-01   1.00800           0
     19331 MEMB     145      POPC     H2S      HAL2     0.900000E-01   1.00800           0
     19332 MEMB     145      POPC     C3       CTL2     0.800000E-01   12.0110           0
     19333 MEMB     145      POPC     HX       HAL2     0.900000E-01   1.00800           0
     19334 MEMB     145      POPC     HY       HAL2     0.900000E-01   1.00800           0
     19335 MEMB     145      POPC     O31      OSL     -0.490000       15.9994           0
     19336 MEMB     145      POPC     C31      CL       0.900000       12.0110           0
     19337 MEMB     145      POPC     O32      OBL     -0.630000       15.9994           0
     19338 MEMB     145      POPC     C32      CTL2    -0.220000       12.0110           0
     19339 MEMB     145      POPC     H2X      HAL2     0.900000E-01   1.00800           0
     19340 MEMB     145      POPC     H2Y      HAL2     0.900000E-01   1.00800           0
     19341 MEMB     145      POPC     C23      CTL2    -0.180000       12.0110           0
     19342 MEMB     145      POPC     H3R      HAL2     0.900000E-01   1.00800           0
     19343 MEMB     145      POPC     H3S      HAL2     0.900000E-01   1.00800           0
     19344 MEMB     145      POPC     C24      CTL2    -0.180000       12.0110           0
     19345 MEMB     145      POPC     H4R      HAL2     0.900000E-01   1.00800           0
     19346 MEMB     145      POPC     H4S      HAL2     0.900000E-01   1.00800           0
     19347 MEMB     145      POPC     C25      CTL2    -0.180000       12.0110           0
     19348 MEMB     145      POPC     H5R      HAL2     0.900000E-01   1.00800           0
     19349 MEMB     145      POPC     H5S      HAL2     0.900000E-01   1.00800           0
     19350 MEMB     145      POPC     C26      CTL2    -0.180000       12.0110           0
     19351 MEMB     145      POPC     H6R      HAL2     0.900000E-01   1.00800           0
     19352 MEMB     145      POPC     H6S      HAL2     0.900000E-01   1.00800           0
     19353 MEMB     145      POPC     C27      CTL2    -0.180000       12.0110           0
     19354 MEMB     145      POPC     H7R      HAL2     0.900000E-01   1.00800           0
     19355 MEMB     145      POPC     H7S      HAL2     0.900000E-01   1.00800           0
     19356 MEMB     145      POPC     C28      CTL2    -0.180000       12.0110           0
     19357 MEMB     145      POPC     H8R      HAL2     0.900000E-01   1.00800           0
     19358 MEMB     145      POPC     H8S      HAL2     0.900000E-01   1.00800           0
     19359 MEMB     145      POPC     C29      CEL1    -0.150000       12.0110           0
     19360 MEMB     145      POPC     H91      HEL1     0.150000       1.00800           0
     19361 MEMB     145      POPC     C210     CEL1    -0.150000       12.0110           0
     19362 MEMB     145      POPC     H101     HEL1     0.150000       1.00800           0
     19363 MEMB     145      POPC     C211     CTL2    -0.180000       12.0110           0
     19364 MEMB     145      POPC     H11R     HAL2     0.900000E-01   1.00800           0
     19365 MEMB     145      POPC     H11S     HAL2     0.900000E-01   1.00800           0
     19366 MEMB     145      POPC     C212     CTL2    -0.180000       12.0110           0
     19367 MEMB     145      POPC     H12R     HAL2     0.900000E-01   1.00800           0
     19368 MEMB     145      POPC     H12S     HAL2     0.900000E-01   1.00800           0
     19369 MEMB     145      POPC     C213     CTL2    -0.180000       12.0110           0
     19370 MEMB     145      POPC     H13R     HAL2     0.900000E-01   1.00800           0
     19371 MEMB     145      POPC     H13S     HAL2     0.900000E-01   1.00800           0
     19372 MEMB     145      POPC     C214     CTL2    -0.180000       12.0110           0
     19373 MEMB     145      POPC     H14R     HAL2     0.900000E-01   1.00800           0
     19374 MEMB     145      POPC     H14S     HAL2     0.900000E-01   1.00800           0
     19375 MEMB     145      POPC     C215     CTL2    -0.180000       12.0110           0
     19376 MEMB     145      POPC     H15R     HAL2     0.900000E-01   1.00800           0
     19377 MEMB     145      POPC     H15S     HAL2     0.900000E-01   1.00800           0
     19378 MEMB     145      POPC     C216     CTL2    -0.180000       12.0110           0
     19379 MEMB     145      POPC     H16R     HAL2     0.900000E-01   1.00800           0
     19380 MEMB     145      POPC     H16S     HAL2     0.900000E-01   1.00800           0
     19381 MEMB     145      POPC     C217     CTL2    -0.180000       12.0110           0
     19382 MEMB     145      POPC     H17R     HAL2     0.900000E-01   1.00800           0
     19383 MEMB     145      POPC     H17S     HAL2     0.900000E-01   1.00800           0
     19384 MEMB     145      POPC     C218     CTL3    -0.270000       12.0110           0
     19385 MEMB     145      POPC     H18R     HAL3     0.900000E-01   1.00800           0
     19386 MEMB     145      POPC     H18S     HAL3     0.900000E-01   1.00800           0
     19387 MEMB     145      POPC     H18T     HAL3     0.900000E-01   1.00800           0
     19388 MEMB     145      POPC     C33      CTL2    -0.180000       12.0110           0
     19389 MEMB     145      POPC     H3X      HAL2     0.900000E-01   1.00800           0
     19390 MEMB     145      POPC     H3Y      HAL2     0.900000E-01   1.00800           0
     19391 MEMB     145      POPC     C34      CTL2    -0.180000       12.0110           0
     19392 MEMB     145      POPC     H4X      HAL2     0.900000E-01   1.00800           0
     19393 MEMB     145      POPC     H4Y      HAL2     0.900000E-01   1.00800           0
     19394 MEMB     145      POPC     C35      CTL2    -0.180000       12.0110           0
     19395 MEMB     145      POPC     H5X      HAL2     0.900000E-01   1.00800           0
     19396 MEMB     145      POPC     H5Y      HAL2     0.900000E-01   1.00800           0
     19397 MEMB     145      POPC     C36      CTL2    -0.180000       12.0110           0
     19398 MEMB     145      POPC     H6X      HAL2     0.900000E-01   1.00800           0
     19399 MEMB     145      POPC     H6Y      HAL2     0.900000E-01   1.00800           0
     19400 MEMB     145      POPC     C37      CTL2    -0.180000       12.0110           0
     19401 MEMB     145      POPC     H7X      HAL2     0.900000E-01   1.00800           0
     19402 MEMB     145      POPC     H7Y      HAL2     0.900000E-01   1.00800           0
     19403 MEMB     145      POPC     C38      CTL2    -0.180000       12.0110           0
     19404 MEMB     145      POPC     H8X      HAL2     0.900000E-01   1.00800           0
     19405 MEMB     145      POPC     H8Y      HAL2     0.900000E-01   1.00800           0
     19406 MEMB     145      POPC     C39      CTL2    -0.180000       12.0110           0
     19407 MEMB     145      POPC     H9X      HAL2     0.900000E-01   1.00800           0
     19408 MEMB     145      POPC     H9Y      HAL2     0.900000E-01   1.00800           0
     19409 MEMB     145      POPC     C310     CTL2    -0.180000       12.0110           0
     19410 MEMB     145      POPC     H10X     HAL2     0.900000E-01   1.00800           0
     19411 MEMB     145      POPC     H10Y     HAL2     0.900000E-01   1.00800           0
     19412 MEMB     145      POPC     C311     CTL2    -0.180000       12.0110           0
     19413 MEMB     145      POPC     H11X     HAL2     0.900000E-01   1.00800           0
     19414 MEMB     145      POPC     H11Y     HAL2     0.900000E-01   1.00800           0
     19415 MEMB     145      POPC     C312     CTL2    -0.180000       12.0110           0
     19416 MEMB     145      POPC     H12X     HAL2     0.900000E-01   1.00800           0
     19417 MEMB     145      POPC     H12Y     HAL2     0.900000E-01   1.00800           0
     19418 MEMB     145      POPC     C313     CTL2    -0.180000       12.0110           0
     19419 MEMB     145      POPC     H13X     HAL2     0.900000E-01   1.00800           0
     19420 MEMB     145      POPC     H13Y     HAL2     0.900000E-01   1.00800           0
     19421 MEMB     145      POPC     C314     CTL2    -0.180000       12.0110           0
     19422 MEMB     145      POPC     H14X     HAL2     0.900000E-01   1.00800           0
     19423 MEMB     145      POPC     H14Y     HAL2     0.900000E-01   1.00800           0
     19424 MEMB     145      POPC     C315     CTL2    -0.180000       12.0110           0
     19425 MEMB     145      POPC     H15X     HAL2     0.900000E-01   1.00800           0
     19426 MEMB     145      POPC     H15Y     HAL2     0.900000E-01   1.00800           0
     19427 MEMB     145      POPC     C316     CTL3    -0.270000       12.0110           0
     19428 MEMB     145      POPC     H16X     HAL3     0.900000E-01   1.00800           0
     19429 MEMB     145      POPC     H16Y     HAL3     0.900000E-01   1.00800           0
     19430 MEMB     145      POPC     H16Z     HAL3     0.900000E-01   1.00800           0
     19431 MEMB     146      POPC     N        NTL     -0.600000       14.0070           0
     19432 MEMB     146      POPC     C12      CTL2    -0.100000       12.0110           0
     19433 MEMB     146      POPC     H12A     HL       0.250000       1.00800           0
     19434 MEMB     146      POPC     H12B     HL       0.250000       1.00800           0
     19435 MEMB     146      POPC     C13      CTL5    -0.350000       12.0110           0
     19436 MEMB     146      POPC     H13A     HL       0.250000       1.00800           0
     19437 MEMB     146      POPC     H13B     HL       0.250000       1.00800           0
     19438 MEMB     146      POPC     H13C     HL       0.250000       1.00800           0
     19439 MEMB     146      POPC     C14      CTL5    -0.350000       12.0110           0
     19440 MEMB     146      POPC     H14A     HL       0.250000       1.00800           0
     19441 MEMB     146      POPC     H14B     HL       0.250000       1.00800           0
     19442 MEMB     146      POPC     H14C     HL       0.250000       1.00800           0
     19443 MEMB     146      POPC     C15      CTL5    -0.350000       12.0110           0
     19444 MEMB     146      POPC     H15A     HL       0.250000       1.00800           0
     19445 MEMB     146      POPC     H15B     HL       0.250000       1.00800           0
     19446 MEMB     146      POPC     H15C     HL       0.250000       1.00800           0
     19447 MEMB     146      POPC     C11      CTL2    -0.800000E-01   12.0110           0
     19448 MEMB     146      POPC     H11A     HAL2     0.900000E-01   1.00800           0
     19449 MEMB     146      POPC     H11B     HAL2     0.900000E-01   1.00800           0
     19450 MEMB     146      POPC     P        PL       1.50000        30.9740           0
     19451 MEMB     146      POPC     O13      O2L     -0.780000       15.9994           0
     19452 MEMB     146      POPC     O14      O2L     -0.780000       15.9994           0
     19453 MEMB     146      POPC     O12      OSLP    -0.570000       15.9994           0
     19454 MEMB     146      POPC     O11      OSLP    -0.570000       15.9994           0
     19455 MEMB     146      POPC     C1       CTL2    -0.800000E-01   12.0110           0
     19456 MEMB     146      POPC     HA       HAL2     0.900000E-01   1.00800           0
     19457 MEMB     146      POPC     HB       HAL2     0.900000E-01   1.00800           0
     19458 MEMB     146      POPC     C2       CTL1     0.170000       12.0110           0
     19459 MEMB     146      POPC     HS       HAL1     0.900000E-01   1.00800           0
     19460 MEMB     146      POPC     O21      OSL     -0.490000       15.9994           0
     19461 MEMB     146      POPC     C21      CL       0.900000       12.0110           0
     19462 MEMB     146      POPC     O22      OBL     -0.630000       15.9994           0
     19463 MEMB     146      POPC     C22      CTL2    -0.220000       12.0110           0
     19464 MEMB     146      POPC     H2R      HAL2     0.900000E-01   1.00800           0
     19465 MEMB     146      POPC     H2S      HAL2     0.900000E-01   1.00800           0
     19466 MEMB     146      POPC     C3       CTL2     0.800000E-01   12.0110           0
     19467 MEMB     146      POPC     HX       HAL2     0.900000E-01   1.00800           0
     19468 MEMB     146      POPC     HY       HAL2     0.900000E-01   1.00800           0
     19469 MEMB     146      POPC     O31      OSL     -0.490000       15.9994           0
     19470 MEMB     146      POPC     C31      CL       0.900000       12.0110           0
     19471 MEMB     146      POPC     O32      OBL     -0.630000       15.9994           0
     19472 MEMB     146      POPC     C32      CTL2    -0.220000       12.0110           0
     19473 MEMB     146      POPC     H2X      HAL2     0.900000E-01   1.00800           0
     19474 MEMB     146      POPC     H2Y      HAL2     0.900000E-01   1.00800           0
     19475 MEMB     146      POPC     C23      CTL2    -0.180000       12.0110           0
     19476 MEMB     146      POPC     H3R      HAL2     0.900000E-01   1.00800           0
     19477 MEMB     146      POPC     H3S      HAL2     0.900000E-01   1.00800           0
     19478 MEMB     146      POPC     C24      CTL2    -0.180000       12.0110           0
     19479 MEMB     146      POPC     H4R      HAL2     0.900000E-01   1.00800           0
     19480 MEMB     146      POPC     H4S      HAL2     0.900000E-01   1.00800           0
     19481 MEMB     146      POPC     C25      CTL2    -0.180000       12.0110           0
     19482 MEMB     146      POPC     H5R      HAL2     0.900000E-01   1.00800           0
     19483 MEMB     146      POPC     H5S      HAL2     0.900000E-01   1.00800           0
     19484 MEMB     146      POPC     C26      CTL2    -0.180000       12.0110           0
     19485 MEMB     146      POPC     H6R      HAL2     0.900000E-01   1.00800           0
     19486 MEMB     146      POPC     H6S      HAL2     0.900000E-01   1.00800           0
     19487 MEMB     146      POPC     C27      CTL2    -0.180000       12.0110           0
     19488 MEMB     146      POPC     H7R      HAL2     0.900000E-01   1.00800           0
     19489 MEMB     146      POPC     H7S      HAL2     0.900000E-01   1.00800           0
     19490 MEMB     146      POPC     C28      CTL2    -0.180000       12.0110           0
     19491 MEMB     146      POPC     H8R      HAL2     0.900000E-01   1.00800           0
     19492 MEMB     146      POPC     H8S      HAL2     0.900000E-01   1.00800           0
     19493 MEMB     146      POPC     C29      CEL1    -0.150000       12.0110           0
     19494 MEMB     146      POPC     H91      HEL1     0.150000       1.00800           0
     19495 MEMB     146      POPC     C210     CEL1    -0.150000       12.0110           0
     19496 MEMB     146      POPC     H101     HEL1     0.150000       1.00800           0
     19497 MEMB     146      POPC     C211     CTL2    -0.180000       12.0110           0
     19498 MEMB     146      POPC     H11R     HAL2     0.900000E-01   1.00800           0
     19499 MEMB     146      POPC     H11S     HAL2     0.900000E-01   1.00800           0
     19500 MEMB     146      POPC     C212     CTL2    -0.180000       12.0110           0
     19501 MEMB     146      POPC     H12R     HAL2     0.900000E-01   1.00800           0
     19502 MEMB     146      POPC     H12S     HAL2     0.900000E-01   1.00800           0
     19503 MEMB     146      POPC     C213     CTL2    -0.180000       12.0110           0
     19504 MEMB     146      POPC     H13R     HAL2     0.900000E-01   1.00800           0
     19505 MEMB     146      POPC     H13S     HAL2     0.900000E-01   1.00800           0
     19506 MEMB     146      POPC     C214     CTL2    -0.180000       12.0110           0
     19507 MEMB     146      POPC     H14R     HAL2     0.900000E-01   1.00800           0
     19508 MEMB     146      POPC     H14S     HAL2     0.900000E-01   1.00800           0
     19509 MEMB     146      POPC     C215     CTL2    -0.180000       12.0110           0
     19510 MEMB     146      POPC     H15R     HAL2     0.900000E-01   1.00800           0
     19511 MEMB     146      POPC     H15S     HAL2     0.900000E-01   1.00800           0
     19512 MEMB     146      POPC     C216     CTL2    -0.180000       12.0110           0
     19513 MEMB     146      POPC     H16R     HAL2     0.900000E-01   1.00800           0
     19514 MEMB     146      POPC     H16S     HAL2     0.900000E-01   1.00800           0
     19515 MEMB     146      POPC     C217     CTL2    -0.180000       12.0110           0
     19516 MEMB     146      POPC     H17R     HAL2     0.900000E-01   1.00800           0
     19517 MEMB     146      POPC     H17S     HAL2     0.900000E-01   1.00800           0
     19518 MEMB     146      POPC     C218     CTL3    -0.270000       12.0110           0
     19519 MEMB     146      POPC     H18R     HAL3     0.900000E-01   1.00800           0
     19520 MEMB     146      POPC     H18S     HAL3     0.900000E-01   1.00800           0
     19521 MEMB     146      POPC     H18T     HAL3     0.900000E-01   1.00800           0
     19522 MEMB     146      POPC     C33      CTL2    -0.180000       12.0110           0
     19523 MEMB     146      POPC     H3X      HAL2     0.900000E-01   1.00800           0
     19524 MEMB     146      POPC     H3Y      HAL2     0.900000E-01   1.00800           0
     19525 MEMB     146      POPC     C34      CTL2    -0.180000       12.0110           0
     19526 MEMB     146      POPC     H4X      HAL2     0.900000E-01   1.00800           0
     19527 MEMB     146      POPC     H4Y      HAL2     0.900000E-01   1.00800           0
     19528 MEMB     146      POPC     C35      CTL2    -0.180000       12.0110           0
     19529 MEMB     146      POPC     H5X      HAL2     0.900000E-01   1.00800           0
     19530 MEMB     146      POPC     H5Y      HAL2     0.900000E-01   1.00800           0
     19531 MEMB     146      POPC     C36      CTL2    -0.180000       12.0110           0
     19532 MEMB     146      POPC     H6X      HAL2     0.900000E-01   1.00800           0
     19533 MEMB     146      POPC     H6Y      HAL2     0.900000E-01   1.00800           0
     19534 MEMB     146      POPC     C37      CTL2    -0.180000       12.0110           0
     19535 MEMB     146      POPC     H7X      HAL2     0.900000E-01   1.00800           0
     19536 MEMB     146      POPC     H7Y      HAL2     0.900000E-01   1.00800           0
     19537 MEMB     146      POPC     C38      CTL2    -0.180000       12.0110           0
     19538 MEMB     146      POPC     H8X      HAL2     0.900000E-01   1.00800           0
     19539 MEMB     146      POPC     H8Y      HAL2     0.900000E-01   1.00800           0
     19540 MEMB     146      POPC     C39      CTL2    -0.180000       12.0110           0
     19541 MEMB     146      POPC     H9X      HAL2     0.900000E-01   1.00800           0
     19542 MEMB     146      POPC     H9Y      HAL2     0.900000E-01   1.00800           0
     19543 MEMB     146      POPC     C310     CTL2    -0.180000       12.0110           0
     19544 MEMB     146      POPC     H10X     HAL2     0.900000E-01   1.00800           0
     19545 MEMB     146      POPC     H10Y     HAL2     0.900000E-01   1.00800           0
     19546 MEMB     146      POPC     C311     CTL2    -0.180000       12.0110           0
     19547 MEMB     146      POPC     H11X     HAL2     0.900000E-01   1.00800           0
     19548 MEMB     146      POPC     H11Y     HAL2     0.900000E-01   1.00800           0
     19549 MEMB     146      POPC     C312     CTL2    -0.180000       12.0110           0
     19550 MEMB     146      POPC     H12X     HAL2     0.900000E-01   1.00800           0
     19551 MEMB     146      POPC     H12Y     HAL2     0.900000E-01   1.00800           0
     19552 MEMB     146      POPC     C313     CTL2    -0.180000       12.0110           0
     19553 MEMB     146      POPC     H13X     HAL2     0.900000E-01   1.00800           0
     19554 MEMB     146      POPC     H13Y     HAL2     0.900000E-01   1.00800           0
     19555 MEMB     146      POPC     C314     CTL2    -0.180000       12.0110           0
     19556 MEMB     146      POPC     H14X     HAL2     0.900000E-01   1.00800           0
     19557 MEMB     146      POPC     H14Y     HAL2     0.900000E-01   1.00800           0
     19558 MEMB     146      POPC     C315     CTL2    -0.180000       12.0110           0
     19559 MEMB     146      POPC     H15X     HAL2     0.900000E-01   1.00800           0
     19560 MEMB     146      POPC     H15Y     HAL2     0.900000E-01   1.00800           0
     19561 MEMB     146      POPC     C316     CTL3    -0.270000       12.0110           0
     19562 MEMB     146      POPC     H16X     HAL3     0.900000E-01   1.00800           0
     19563 MEMB     146      POPC     H16Y     HAL3     0.900000E-01   1.00800           0
     19564 MEMB     146      POPC     H16Z     HAL3     0.900000E-01   1.00800           0
     19565 MEMB     147      POPC     N        NTL     -0.600000       14.0070           0
     19566 MEMB     147      POPC     C12      CTL2    -0.100000       12.0110           0
     19567 MEMB     147      POPC     H12A     HL       0.250000       1.00800           0
     19568 MEMB     147      POPC     H12B     HL       0.250000       1.00800           0
     19569 MEMB     147      POPC     C13      CTL5    -0.350000       12.0110           0
     19570 MEMB     147      POPC     H13A     HL       0.250000       1.00800           0
     19571 MEMB     147      POPC     H13B     HL       0.250000       1.00800           0
     19572 MEMB     147      POPC     H13C     HL       0.250000       1.00800           0
     19573 MEMB     147      POPC     C14      CTL5    -0.350000       12.0110           0
     19574 MEMB     147      POPC     H14A     HL       0.250000       1.00800           0
     19575 MEMB     147      POPC     H14B     HL       0.250000       1.00800           0
     19576 MEMB     147      POPC     H14C     HL       0.250000       1.00800           0
     19577 MEMB     147      POPC     C15      CTL5    -0.350000       12.0110           0
     19578 MEMB     147      POPC     H15A     HL       0.250000       1.00800           0
     19579 MEMB     147      POPC     H15B     HL       0.250000       1.00800           0
     19580 MEMB     147      POPC     H15C     HL       0.250000       1.00800           0
     19581 MEMB     147      POPC     C11      CTL2    -0.800000E-01   12.0110           0
     19582 MEMB     147      POPC     H11A     HAL2     0.900000E-01   1.00800           0
     19583 MEMB     147      POPC     H11B     HAL2     0.900000E-01   1.00800           0
     19584 MEMB     147      POPC     P        PL       1.50000        30.9740           0
     19585 MEMB     147      POPC     O13      O2L     -0.780000       15.9994           0
     19586 MEMB     147      POPC     O14      O2L     -0.780000       15.9994           0
     19587 MEMB     147      POPC     O12      OSLP    -0.570000       15.9994           0
     19588 MEMB     147      POPC     O11      OSLP    -0.570000       15.9994           0
     19589 MEMB     147      POPC     C1       CTL2    -0.800000E-01   12.0110           0
     19590 MEMB     147      POPC     HA       HAL2     0.900000E-01   1.00800           0
     19591 MEMB     147      POPC     HB       HAL2     0.900000E-01   1.00800           0
     19592 MEMB     147      POPC     C2       CTL1     0.170000       12.0110           0
     19593 MEMB     147      POPC     HS       HAL1     0.900000E-01   1.00800           0
     19594 MEMB     147      POPC     O21      OSL     -0.490000       15.9994           0
     19595 MEMB     147      POPC     C21      CL       0.900000       12.0110           0
     19596 MEMB     147      POPC     O22      OBL     -0.630000       15.9994           0
     19597 MEMB     147      POPC     C22      CTL2    -0.220000       12.0110           0
     19598 MEMB     147      POPC     H2R      HAL2     0.900000E-01   1.00800           0
     19599 MEMB     147      POPC     H2S      HAL2     0.900000E-01   1.00800           0
     19600 MEMB     147      POPC     C3       CTL2     0.800000E-01   12.0110           0
     19601 MEMB     147      POPC     HX       HAL2     0.900000E-01   1.00800           0
     19602 MEMB     147      POPC     HY       HAL2     0.900000E-01   1.00800           0
     19603 MEMB     147      POPC     O31      OSL     -0.490000       15.9994           0
     19604 MEMB     147      POPC     C31      CL       0.900000       12.0110           0
     19605 MEMB     147      POPC     O32      OBL     -0.630000       15.9994           0
     19606 MEMB     147      POPC     C32      CTL2    -0.220000       12.0110           0
     19607 MEMB     147      POPC     H2X      HAL2     0.900000E-01   1.00800           0
     19608 MEMB     147      POPC     H2Y      HAL2     0.900000E-01   1.00800           0
     19609 MEMB     147      POPC     C23      CTL2    -0.180000       12.0110           0
     19610 MEMB     147      POPC     H3R      HAL2     0.900000E-01   1.00800           0
     19611 MEMB     147      POPC     H3S      HAL2     0.900000E-01   1.00800           0
     19612 MEMB     147      POPC     C24      CTL2    -0.180000       12.0110           0
     19613 MEMB     147      POPC     H4R      HAL2     0.900000E-01   1.00800           0
     19614 MEMB     147      POPC     H4S      HAL2     0.900000E-01   1.00800           0
     19615 MEMB     147      POPC     C25      CTL2    -0.180000       12.0110           0
     19616 MEMB     147      POPC     H5R      HAL2     0.900000E-01   1.00800           0
     19617 MEMB     147      POPC     H5S      HAL2     0.900000E-01   1.00800           0
     19618 MEMB     147      POPC     C26      CTL2    -0.180000       12.0110           0
     19619 MEMB     147      POPC     H6R      HAL2     0.900000E-01   1.00800           0
     19620 MEMB     147      POPC     H6S      HAL2     0.900000E-01   1.00800           0
     19621 MEMB     147      POPC     C27      CTL2    -0.180000       12.0110           0
     19622 MEMB     147      POPC     H7R      HAL2     0.900000E-01   1.00800           0
     19623 MEMB     147      POPC     H7S      HAL2     0.900000E-01   1.00800           0
     19624 MEMB     147      POPC     C28      CTL2    -0.180000       12.0110           0
     19625 MEMB     147      POPC     H8R      HAL2     0.900000E-01   1.00800           0
     19626 MEMB     147      POPC     H8S      HAL2     0.900000E-01   1.00800           0
     19627 MEMB     147      POPC     C29      CEL1    -0.150000       12.0110           0
     19628 MEMB     147      POPC     H91      HEL1     0.150000       1.00800           0
     19629 MEMB     147      POPC     C210     CEL1    -0.150000       12.0110           0
     19630 MEMB     147      POPC     H101     HEL1     0.150000       1.00800           0
     19631 MEMB     147      POPC     C211     CTL2    -0.180000       12.0110           0
     19632 MEMB     147      POPC     H11R     HAL2     0.900000E-01   1.00800           0
     19633 MEMB     147      POPC     H11S     HAL2     0.900000E-01   1.00800           0
     19634 MEMB     147      POPC     C212     CTL2    -0.180000       12.0110           0
     19635 MEMB     147      POPC     H12R     HAL2     0.900000E-01   1.00800           0
     19636 MEMB     147      POPC     H12S     HAL2     0.900000E-01   1.00800           0
     19637 MEMB     147      POPC     C213     CTL2    -0.180000       12.0110           0
     19638 MEMB     147      POPC     H13R     HAL2     0.900000E-01   1.00800           0
     19639 MEMB     147      POPC     H13S     HAL2     0.900000E-01   1.00800           0
     19640 MEMB     147      POPC     C214     CTL2    -0.180000       12.0110           0
     19641 MEMB     147      POPC     H14R     HAL2     0.900000E-01   1.00800           0
     19642 MEMB     147      POPC     H14S     HAL2     0.900000E-01   1.00800           0
     19643 MEMB     147      POPC     C215     CTL2    -0.180000       12.0110           0
     19644 MEMB     147      POPC     H15R     HAL2     0.900000E-01   1.00800           0
     19645 MEMB     147      POPC     H15S     HAL2     0.900000E-01   1.00800           0
     19646 MEMB     147      POPC     C216     CTL2    -0.180000       12.0110           0
     19647 MEMB     147      POPC     H16R     HAL2     0.900000E-01   1.00800           0
     19648 MEMB     147      POPC     H16S     HAL2     0.900000E-01   1.00800           0
     19649 MEMB     147      POPC     C217     CTL2    -0.180000       12.0110           0
     19650 MEMB     147      POPC     H17R     HAL2     0.900000E-01   1.00800           0
     19651 MEMB     147      POPC     H17S     HAL2     0.900000E-01   1.00800           0
     19652 MEMB     147      POPC     C218     CTL3    -0.270000       12.0110           0
     19653 MEMB     147      POPC     H18R     HAL3     0.900000E-01   1.00800           0
     19654 MEMB     147      POPC     H18S     HAL3     0.900000E-01   1.00800           0
     19655 MEMB     147      POPC     H18T     HAL3     0.900000E-01   1.00800           0
     19656 MEMB     147      POPC     C33      CTL2    -0.180000       12.0110           0
     19657 MEMB     147      POPC     H3X      HAL2     0.900000E-01   1.00800           0
     19658 MEMB     147      POPC     H3Y      HAL2     0.900000E-01   1.00800           0
     19659 MEMB     147      POPC     C34      CTL2    -0.180000       12.0110           0
     19660 MEMB     147      POPC     H4X      HAL2     0.900000E-01   1.00800           0
     19661 MEMB     147      POPC     H4Y      HAL2     0.900000E-01   1.00800           0
     19662 MEMB     147      POPC     C35      CTL2    -0.180000       12.0110           0
     19663 MEMB     147      POPC     H5X      HAL2     0.900000E-01   1.00800           0
     19664 MEMB     147      POPC     H5Y      HAL2     0.900000E-01   1.00800           0
     19665 MEMB     147      POPC     C36      CTL2    -0.180000       12.0110           0
     19666 MEMB     147      POPC     H6X      HAL2     0.900000E-01   1.00800           0
     19667 MEMB     147      POPC     H6Y      HAL2     0.900000E-01   1.00800           0
     19668 MEMB     147      POPC     C37      CTL2    -0.180000       12.0110           0
     19669 MEMB     147      POPC     H7X      HAL2     0.900000E-01   1.00800           0
     19670 MEMB     147      POPC     H7Y      HAL2     0.900000E-01   1.00800           0
     19671 MEMB     147      POPC     C38      CTL2    -0.180000       12.0110           0
     19672 MEMB     147      POPC     H8X      HAL2     0.900000E-01   1.00800           0
     19673 MEMB     147      POPC     H8Y      HAL2     0.900000E-01   1.00800           0
     19674 MEMB     147      POPC     C39      CTL2    -0.180000       12.0110           0
     19675 MEMB     147      POPC     H9X      HAL2     0.900000E-01   1.00800           0
     19676 MEMB     147      POPC     H9Y      HAL2     0.900000E-01   1.00800           0
     19677 MEMB     147      POPC     C310     CTL2    -0.180000       12.0110           0
     19678 MEMB     147      POPC     H10X     HAL2     0.900000E-01   1.00800           0
     19679 MEMB     147      POPC     H10Y     HAL2     0.900000E-01   1.00800           0
     19680 MEMB     147      POPC     C311     CTL2    -0.180000       12.0110           0
     19681 MEMB     147      POPC     H11X     HAL2     0.900000E-01   1.00800           0
     19682 MEMB     147      POPC     H11Y     HAL2     0.900000E-01   1.00800           0
     19683 MEMB     147      POPC     C312     CTL2    -0.180000       12.0110           0
     19684 MEMB     147      POPC     H12X     HAL2     0.900000E-01   1.00800           0
     19685 MEMB     147      POPC     H12Y     HAL2     0.900000E-01   1.00800           0
     19686 MEMB     147      POPC     C313     CTL2    -0.180000       12.0110           0
     19687 MEMB     147      POPC     H13X     HAL2     0.900000E-01   1.00800           0
     19688 MEMB     147      POPC     H13Y     HAL2     0.900000E-01   1.00800           0
     19689 MEMB     147      POPC     C314     CTL2    -0.180000       12.0110           0
     19690 MEMB     147      POPC     H14X     HAL2     0.900000E-01   1.00800           0
     19691 MEMB     147      POPC     H14Y     HAL2     0.900000E-01   1.00800           0
     19692 MEMB     147      POPC     C315     CTL2    -0.180000       12.0110           0
     19693 MEMB     147      POPC     H15X     HAL2     0.900000E-01   1.00800           0
     19694 MEMB     147      POPC     H15Y     HAL2     0.900000E-01   1.00800           0
     19695 MEMB     147      POPC     C316     CTL3    -0.270000       12.0110           0
     19696 MEMB     147      POPC     H16X     HAL3     0.900000E-01   1.00800           0
     19697 MEMB     147      POPC     H16Y     HAL3     0.900000E-01   1.00800           0
     19698 MEMB     147      POPC     H16Z     HAL3     0.900000E-01   1.00800           0
     19699 MEMB     148      POPC     N        NTL     -0.600000       14.0070           0
     19700 MEMB     148      POPC     C12      CTL2    -0.100000       12.0110           0
     19701 MEMB     148      POPC     H12A     HL       0.250000       1.00800           0
     19702 MEMB     148      POPC     H12B     HL       0.250000       1.00800           0
     19703 MEMB     148      POPC     C13      CTL5    -0.350000       12.0110           0
     19704 MEMB     148      POPC     H13A     HL       0.250000       1.00800           0
     19705 MEMB     148      POPC     H13B     HL       0.250000       1.00800           0
     19706 MEMB     148      POPC     H13C     HL       0.250000       1.00800           0
     19707 MEMB     148      POPC     C14      CTL5    -0.350000       12.0110           0
     19708 MEMB     148      POPC     H14A     HL       0.250000       1.00800           0
     19709 MEMB     148      POPC     H14B     HL       0.250000       1.00800           0
     19710 MEMB     148      POPC     H14C     HL       0.250000       1.00800           0
     19711 MEMB     148      POPC     C15      CTL5    -0.350000       12.0110           0
     19712 MEMB     148      POPC     H15A     HL       0.250000       1.00800           0
     19713 MEMB     148      POPC     H15B     HL       0.250000       1.00800           0
     19714 MEMB     148      POPC     H15C     HL       0.250000       1.00800           0
     19715 MEMB     148      POPC     C11      CTL2    -0.800000E-01   12.0110           0
     19716 MEMB     148      POPC     H11A     HAL2     0.900000E-01   1.00800           0
     19717 MEMB     148      POPC     H11B     HAL2     0.900000E-01   1.00800           0
     19718 MEMB     148      POPC     P        PL       1.50000        30.9740           0
     19719 MEMB     148      POPC     O13      O2L     -0.780000       15.9994           0
     19720 MEMB     148      POPC     O14      O2L     -0.780000       15.9994           0
     19721 MEMB     148      POPC     O12      OSLP    -0.570000       15.9994           0
     19722 MEMB     148      POPC     O11      OSLP    -0.570000       15.9994           0
     19723 MEMB     148      POPC     C1       CTL2    -0.800000E-01   12.0110           0
     19724 MEMB     148      POPC     HA       HAL2     0.900000E-01   1.00800           0
     19725 MEMB     148      POPC     HB       HAL2     0.900000E-01   1.00800           0
     19726 MEMB     148      POPC     C2       CTL1     0.170000       12.0110           0
     19727 MEMB     148      POPC     HS       HAL1     0.900000E-01   1.00800           0
     19728 MEMB     148      POPC     O21      OSL     -0.490000       15.9994           0
     19729 MEMB     148      POPC     C21      CL       0.900000       12.0110           0
     19730 MEMB     148      POPC     O22      OBL     -0.630000       15.9994           0
     19731 MEMB     148      POPC     C22      CTL2    -0.220000       12.0110           0
     19732 MEMB     148      POPC     H2R      HAL2     0.900000E-01   1.00800           0
     19733 MEMB     148      POPC     H2S      HAL2     0.900000E-01   1.00800           0
     19734 MEMB     148      POPC     C3       CTL2     0.800000E-01   12.0110           0
     19735 MEMB     148      POPC     HX       HAL2     0.900000E-01   1.00800           0
     19736 MEMB     148      POPC     HY       HAL2     0.900000E-01   1.00800           0
     19737 MEMB     148      POPC     O31      OSL     -0.490000       15.9994           0
     19738 MEMB     148      POPC     C31      CL       0.900000       12.0110           0
     19739 MEMB     148      POPC     O32      OBL     -0.630000       15.9994           0
     19740 MEMB     148      POPC     C32      CTL2    -0.220000       12.0110           0
     19741 MEMB     148      POPC     H2X      HAL2     0.900000E-01   1.00800           0
     19742 MEMB     148      POPC     H2Y      HAL2     0.900000E-01   1.00800           0
     19743 MEMB     148      POPC     C23      CTL2    -0.180000       12.0110           0
     19744 MEMB     148      POPC     H3R      HAL2     0.900000E-01   1.00800           0
     19745 MEMB     148      POPC     H3S      HAL2     0.900000E-01   1.00800           0
     19746 MEMB     148      POPC     C24      CTL2    -0.180000       12.0110           0
     19747 MEMB     148      POPC     H4R      HAL2     0.900000E-01   1.00800           0
     19748 MEMB     148      POPC     H4S      HAL2     0.900000E-01   1.00800           0
     19749 MEMB     148      POPC     C25      CTL2    -0.180000       12.0110           0
     19750 MEMB     148      POPC     H5R      HAL2     0.900000E-01   1.00800           0
     19751 MEMB     148      POPC     H5S      HAL2     0.900000E-01   1.00800           0
     19752 MEMB     148      POPC     C26      CTL2    -0.180000       12.0110           0
     19753 MEMB     148      POPC     H6R      HAL2     0.900000E-01   1.00800           0
     19754 MEMB     148      POPC     H6S      HAL2     0.900000E-01   1.00800           0
     19755 MEMB     148      POPC     C27      CTL2    -0.180000       12.0110           0
     19756 MEMB     148      POPC     H7R      HAL2     0.900000E-01   1.00800           0
     19757 MEMB     148      POPC     H7S      HAL2     0.900000E-01   1.00800           0
     19758 MEMB     148      POPC     C28      CTL2    -0.180000       12.0110           0
     19759 MEMB     148      POPC     H8R      HAL2     0.900000E-01   1.00800           0
     19760 MEMB     148      POPC     H8S      HAL2     0.900000E-01   1.00800           0
     19761 MEMB     148      POPC     C29      CEL1    -0.150000       12.0110           0
     19762 MEMB     148      POPC     H91      HEL1     0.150000       1.00800           0
     19763 MEMB     148      POPC     C210     CEL1    -0.150000       12.0110           0
     19764 MEMB     148      POPC     H101     HEL1     0.150000       1.00800           0
     19765 MEMB     148      POPC     C211     CTL2    -0.180000       12.0110           0
     19766 MEMB     148      POPC     H11R     HAL2     0.900000E-01   1.00800           0
     19767 MEMB     148      POPC     H11S     HAL2     0.900000E-01   1.00800           0
     19768 MEMB     148      POPC     C212     CTL2    -0.180000       12.0110           0
     19769 MEMB     148      POPC     H12R     HAL2     0.900000E-01   1.00800           0
     19770 MEMB     148      POPC     H12S     HAL2     0.900000E-01   1.00800           0
     19771 MEMB     148      POPC     C213     CTL2    -0.180000       12.0110           0
     19772 MEMB     148      POPC     H13R     HAL2     0.900000E-01   1.00800           0
     19773 MEMB     148      POPC     H13S     HAL2     0.900000E-01   1.00800           0
     19774 MEMB     148      POPC     C214     CTL2    -0.180000       12.0110           0
     19775 MEMB     148      POPC     H14R     HAL2     0.900000E-01   1.00800           0
     19776 MEMB     148      POPC     H14S     HAL2     0.900000E-01   1.00800           0
     19777 MEMB     148      POPC     C215     CTL2    -0.180000       12.0110           0
     19778 MEMB     148      POPC     H15R     HAL2     0.900000E-01   1.00800           0
     19779 MEMB     148      POPC     H15S     HAL2     0.900000E-01   1.00800           0
     19780 MEMB     148      POPC     C216     CTL2    -0.180000       12.0110           0
     19781 MEMB     148      POPC     H16R     HAL2     0.900000E-01   1.00800           0
     19782 MEMB     148      POPC     H16S     HAL2     0.900000E-01   1.00800           0
     19783 MEMB     148      POPC     C217     CTL2    -0.180000       12.0110           0
     19784 MEMB     148      POPC     H17R     HAL2     0.900000E-01   1.00800           0
     19785 MEMB     148      POPC     H17S     HAL2     0.900000E-01   1.00800           0
     19786 MEMB     148      POPC     C218     CTL3    -0.270000       12.0110           0
     19787 MEMB     148      POPC     H18R     HAL3     0.900000E-01   1.00800           0
     19788 MEMB     148      POPC     H18S     HAL3     0.900000E-01   1.00800           0
     19789 MEMB     148      POPC     H18T     HAL3     0.900000E-01   1.00800           0
     19790 MEMB     148      POPC     C33      CTL2    -0.180000       12.0110           0
     19791 MEMB     148      POPC     H3X      HAL2     0.900000E-01   1.00800           0
     19792 MEMB     148      POPC     H3Y      HAL2     0.900000E-01   1.00800           0
     19793 MEMB     148      POPC     C34      CTL2    -0.180000       12.0110           0
     19794 MEMB     148      POPC     H4X      HAL2     0.900000E-01   1.00800           0
     19795 MEMB     148      POPC     H4Y      HAL2     0.900000E-01   1.00800           0
     19796 MEMB     148      POPC     C35      CTL2    -0.180000       12.0110           0
     19797 MEMB     148      POPC     H5X      HAL2     0.900000E-01   1.00800           0
     19798 MEMB     148      POPC     H5Y      HAL2     0.900000E-01   1.00800           0
     19799 MEMB     148      POPC     C36      CTL2    -0.180000       12.0110           0
     19800 MEMB     148      POPC     H6X      HAL2     0.900000E-01   1.00800           0
     19801 MEMB     148      POPC     H6Y      HAL2     0.900000E-01   1.00800           0
     19802 MEMB     148      POPC     C37      CTL2    -0.180000       12.0110           0
     19803 MEMB     148      POPC     H7X      HAL2     0.900000E-01   1.00800           0
     19804 MEMB     148      POPC     H7Y      HAL2     0.900000E-01   1.00800           0
     19805 MEMB     148      POPC     C38      CTL2    -0.180000       12.0110           0
     19806 MEMB     148      POPC     H8X      HAL2     0.900000E-01   1.00800           0
     19807 MEMB     148      POPC     H8Y      HAL2     0.900000E-01   1.00800           0
     19808 MEMB     148      POPC     C39      CTL2    -0.180000       12.0110           0
     19809 MEMB     148      POPC     H9X      HAL2     0.900000E-01   1.00800           0
     19810 MEMB     148      POPC     H9Y      HAL2     0.900000E-01   1.00800           0
     19811 MEMB     148      POPC     C310     CTL2    -0.180000       12.0110           0
     19812 MEMB     148      POPC     H10X     HAL2     0.900000E-01   1.00800           0
     19813 MEMB     148      POPC     H10Y     HAL2     0.900000E-01   1.00800           0
     19814 MEMB     148      POPC     C311     CTL2    -0.180000       12.0110           0
     19815 MEMB     148      POPC     H11X     HAL2     0.900000E-01   1.00800           0
     19816 MEMB     148      POPC     H11Y     HAL2     0.900000E-01   1.00800           0
     19817 MEMB     148      POPC     C312     CTL2    -0.180000       12.0110           0
     19818 MEMB     148      POPC     H12X     HAL2     0.900000E-01   1.00800           0
     19819 MEMB     148      POPC     H12Y     HAL2     0.900000E-01   1.00800           0
     19820 MEMB     148      POPC     C313     CTL2    -0.180000       12.0110           0
     19821 MEMB     148      POPC     H13X     HAL2     0.900000E-01   1.00800           0
     19822 MEMB     148      POPC     H13Y     HAL2     0.900000E-01   1.00800           0
     19823 MEMB     148      POPC     C314     CTL2    -0.180000       12.0110           0
     19824 MEMB     148      POPC     H14X     HAL2     0.900000E-01   1.00800           0
     19825 MEMB     148      POPC     H14Y     HAL2     0.900000E-01   1.00800           0
     19826 MEMB     148      POPC     C315     CTL2    -0.180000       12.0110           0
     19827 MEMB     148      POPC     H15X     HAL2     0.900000E-01   1.00800           0
     19828 MEMB     148      POPC     H15Y     HAL2     0.900000E-01   1.00800           0
     19829 MEMB     148      POPC     C316     CTL3    -0.270000       12.0110           0
     19830 MEMB     148      POPC     H16X     HAL3     0.900000E-01   1.00800           0
     19831 MEMB     148      POPC     H16Y     HAL3     0.900000E-01   1.00800           0
     19832 MEMB     148      POPC     H16Z     HAL3     0.900000E-01   1.00800           0
     19833 MEMB     149      POPC     N        NTL     -0.600000       14.0070           0
     19834 MEMB     149      POPC     C12      CTL2    -0.100000       12.0110           0
     19835 MEMB     149      POPC     H12A     HL       0.250000       1.00800           0
     19836 MEMB     149      POPC     H12B     HL       0.250000       1.00800           0
     19837 MEMB     149      POPC     C13      CTL5    -0.350000       12.0110           0
     19838 MEMB     149      POPC     H13A     HL       0.250000       1.00800           0
     19839 MEMB     149      POPC     H13B     HL       0.250000       1.00800           0
     19840 MEMB     149      POPC     H13C     HL       0.250000       1.00800           0
     19841 MEMB     149      POPC     C14      CTL5    -0.350000       12.0110           0
     19842 MEMB     149      POPC     H14A     HL       0.250000       1.00800           0
     19843 MEMB     149      POPC     H14B     HL       0.250000       1.00800           0
     19844 MEMB     149      POPC     H14C     HL       0.250000       1.00800           0
     19845 MEMB     149      POPC     C15      CTL5    -0.350000       12.0110           0
     19846 MEMB     149      POPC     H15A     HL       0.250000       1.00800           0
     19847 MEMB     149      POPC     H15B     HL       0.250000       1.00800           0
     19848 MEMB     149      POPC     H15C     HL       0.250000       1.00800           0
     19849 MEMB     149      POPC     C11      CTL2    -0.800000E-01   12.0110           0
     19850 MEMB     149      POPC     H11A     HAL2     0.900000E-01   1.00800           0
     19851 MEMB     149      POPC     H11B     HAL2     0.900000E-01   1.00800           0
     19852 MEMB     149      POPC     P        PL       1.50000        30.9740           0
     19853 MEMB     149      POPC     O13      O2L     -0.780000       15.9994           0
     19854 MEMB     149      POPC     O14      O2L     -0.780000       15.9994           0
     19855 MEMB     149      POPC     O12      OSLP    -0.570000       15.9994           0
     19856 MEMB     149      POPC     O11      OSLP    -0.570000       15.9994           0
     19857 MEMB     149      POPC     C1       CTL2    -0.800000E-01   12.0110           0
     19858 MEMB     149      POPC     HA       HAL2     0.900000E-01   1.00800           0
     19859 MEMB     149      POPC     HB       HAL2     0.900000E-01   1.00800           0
     19860 MEMB     149      POPC     C2       CTL1     0.170000       12.0110           0
     19861 MEMB     149      POPC     HS       HAL1     0.900000E-01   1.00800           0
     19862 MEMB     149      POPC     O21      OSL     -0.490000       15.9994           0
     19863 MEMB     149      POPC     C21      CL       0.900000       12.0110           0
     19864 MEMB     149      POPC     O22      OBL     -0.630000       15.9994           0
     19865 MEMB     149      POPC     C22      CTL2    -0.220000       12.0110           0
     19866 MEMB     149      POPC     H2R      HAL2     0.900000E-01   1.00800           0
     19867 MEMB     149      POPC     H2S      HAL2     0.900000E-01   1.00800           0
     19868 MEMB     149      POPC     C3       CTL2     0.800000E-01   12.0110           0
     19869 MEMB     149      POPC     HX       HAL2     0.900000E-01   1.00800           0
     19870 MEMB     149      POPC     HY       HAL2     0.900000E-01   1.00800           0
     19871 MEMB     149      POPC     O31      OSL     -0.490000       15.9994           0
     19872 MEMB     149      POPC     C31      CL       0.900000       12.0110           0
     19873 MEMB     149      POPC     O32      OBL     -0.630000       15.9994           0
     19874 MEMB     149      POPC     C32      CTL2    -0.220000       12.0110           0
     19875 MEMB     149      POPC     H2X      HAL2     0.900000E-01   1.00800           0
     19876 MEMB     149      POPC     H2Y      HAL2     0.900000E-01   1.00800           0
     19877 MEMB     149      POPC     C23      CTL2    -0.180000       12.0110           0
     19878 MEMB     149      POPC     H3R      HAL2     0.900000E-01   1.00800           0
     19879 MEMB     149      POPC     H3S      HAL2     0.900000E-01   1.00800           0
     19880 MEMB     149      POPC     C24      CTL2    -0.180000       12.0110           0
     19881 MEMB     149      POPC     H4R      HAL2     0.900000E-01   1.00800           0
     19882 MEMB     149      POPC     H4S      HAL2     0.900000E-01   1.00800           0
     19883 MEMB     149      POPC     C25      CTL2    -0.180000       12.0110           0
     19884 MEMB     149      POPC     H5R      HAL2     0.900000E-01   1.00800           0
     19885 MEMB     149      POPC     H5S      HAL2     0.900000E-01   1.00800           0
     19886 MEMB     149      POPC     C26      CTL2    -0.180000       12.0110           0
     19887 MEMB     149      POPC     H6R      HAL2     0.900000E-01   1.00800           0
     19888 MEMB     149      POPC     H6S      HAL2     0.900000E-01   1.00800           0
     19889 MEMB     149      POPC     C27      CTL2    -0.180000       12.0110           0
     19890 MEMB     149      POPC     H7R      HAL2     0.900000E-01   1.00800           0
     19891 MEMB     149      POPC     H7S      HAL2     0.900000E-01   1.00800           0
     19892 MEMB     149      POPC     C28      CTL2    -0.180000       12.0110           0
     19893 MEMB     149      POPC     H8R      HAL2     0.900000E-01   1.00800           0
     19894 MEMB     149      POPC     H8S      HAL2     0.900000E-01   1.00800           0
     19895 MEMB     149      POPC     C29      CEL1    -0.150000       12.0110           0
     19896 MEMB     149      POPC     H91      HEL1     0.150000       1.00800           0
     19897 MEMB     149      POPC     C210     CEL1    -0.150000       12.0110           0
     19898 MEMB     149      POPC     H101     HEL1     0.150000       1.00800           0
     19899 MEMB     149      POPC     C211     CTL2    -0.180000       12.0110           0
     19900 MEMB     149      POPC     H11R     HAL2     0.900000E-01   1.00800           0
     19901 MEMB     149      POPC     H11S     HAL2     0.900000E-01   1.00800           0
     19902 MEMB     149      POPC     C212     CTL2    -0.180000       12.0110           0
     19903 MEMB     149      POPC     H12R     HAL2     0.900000E-01   1.00800           0
     19904 MEMB     149      POPC     H12S     HAL2     0.900000E-01   1.00800           0
     19905 MEMB     149      POPC     C213     CTL2    -0.180000       12.0110           0
     19906 MEMB     149      POPC     H13R     HAL2     0.900000E-01   1.00800           0
     19907 MEMB     149      POPC     H13S     HAL2     0.900000E-01   1.00800           0
     19908 MEMB     149      POPC     C214     CTL2    -0.180000       12.0110           0
     19909 MEMB     149      POPC     H14R     HAL2     0.900000E-01   1.00800           0
     19910 MEMB     149      POPC     H14S     HAL2     0.900000E-01   1.00800           0
     19911 MEMB     149      POPC     C215     CTL2    -0.180000       12.0110           0
     19912 MEMB     149      POPC     H15R     HAL2     0.900000E-01   1.00800           0
     19913 MEMB     149      POPC     H15S     HAL2     0.900000E-01   1.00800           0
     19914 MEMB     149      POPC     C216     CTL2    -0.180000       12.0110           0
     19915 MEMB     149      POPC     H16R     HAL2     0.900000E-01   1.00800           0
     19916 MEMB     149      POPC     H16S     HAL2     0.900000E-01   1.00800           0
     19917 MEMB     149      POPC     C217     CTL2    -0.180000       12.0110           0
     19918 MEMB     149      POPC     H17R     HAL2     0.900000E-01   1.00800           0
     19919 MEMB     149      POPC     H17S     HAL2     0.900000E-01   1.00800           0
     19920 MEMB     149      POPC     C218     CTL3    -0.270000       12.0110           0
     19921 MEMB     149      POPC     H18R     HAL3     0.900000E-01   1.00800           0
     19922 MEMB     149      POPC     H18S     HAL3     0.900000E-01   1.00800           0
     19923 MEMB     149      POPC     H18T     HAL3     0.900000E-01   1.00800           0
     19924 MEMB     149      POPC     C33      CTL2    -0.180000       12.0110           0
     19925 MEMB     149      POPC     H3X      HAL2     0.900000E-01   1.00800           0
     19926 MEMB     149      POPC     H3Y      HAL2     0.900000E-01   1.00800           0
     19927 MEMB     149      POPC     C34      CTL2    -0.180000       12.0110           0
     19928 MEMB     149      POPC     H4X      HAL2     0.900000E-01   1.00800           0
     19929 MEMB     149      POPC     H4Y      HAL2     0.900000E-01   1.00800           0
     19930 MEMB     149      POPC     C35      CTL2    -0.180000       12.0110           0
     19931 MEMB     149      POPC     H5X      HAL2     0.900000E-01   1.00800           0
     19932 MEMB     149      POPC     H5Y      HAL2     0.900000E-01   1.00800           0
     19933 MEMB     149      POPC     C36      CTL2    -0.180000       12.0110           0
     19934 MEMB     149      POPC     H6X      HAL2     0.900000E-01   1.00800           0
     19935 MEMB     149      POPC     H6Y      HAL2     0.900000E-01   1.00800           0
     19936 MEMB     149      POPC     C37      CTL2    -0.180000       12.0110           0
     19937 MEMB     149      POPC     H7X      HAL2     0.900000E-01   1.00800           0
     19938 MEMB     149      POPC     H7Y      HAL2     0.900000E-01   1.00800           0
     19939 MEMB     149      POPC     C38      CTL2    -0.180000       12.0110           0
     19940 MEMB     149      POPC     H8X      HAL2     0.900000E-01   1.00800           0
     19941 MEMB     149      POPC     H8Y      HAL2     0.900000E-01   1.00800           0
     19942 MEMB     149      POPC     C39      CTL2    -0.180000       12.0110           0
     19943 MEMB     149      POPC     H9X      HAL2     0.900000E-01   1.00800           0
     19944 MEMB     149      POPC     H9Y      HAL2     0.900000E-01   1.00800           0
     19945 MEMB     149      POPC     C310     CTL2    -0.180000       12.0110           0
     19946 MEMB     149      POPC     H10X     HAL2     0.900000E-01   1.00800           0
     19947 MEMB     149      POPC     H10Y     HAL2     0.900000E-01   1.00800           0
     19948 MEMB     149      POPC     C311     CTL2    -0.180000       12.0110           0
     19949 MEMB     149      POPC     H11X     HAL2     0.900000E-01   1.00800           0
     19950 MEMB     149      POPC     H11Y     HAL2     0.900000E-01   1.00800           0
     19951 MEMB     149      POPC     C312     CTL2    -0.180000       12.0110           0
     19952 MEMB     149      POPC     H12X     HAL2     0.900000E-01   1.00800           0
     19953 MEMB     149      POPC     H12Y     HAL2     0.900000E-01   1.00800           0
     19954 MEMB     149      POPC     C313     CTL2    -0.180000       12.0110           0
     19955 MEMB     149      POPC     H13X     HAL2     0.900000E-01   1.00800           0
     19956 MEMB     149      POPC     H13Y     HAL2     0.900000E-01   1.00800           0
     19957 MEMB     149      POPC     C314     CTL2    -0.180000       12.0110           0
     19958 MEMB     149      POPC     H14X     HAL2     0.900000E-01   1.00800           0
     19959 MEMB     149      POPC     H14Y     HAL2     0.900000E-01   1.00800           0
     19960 MEMB     149      POPC     C315     CTL2    -0.180000       12.0110           0
     19961 MEMB     149      POPC     H15X     HAL2     0.900000E-01   1.00800           0
     19962 MEMB     149      POPC     H15Y     HAL2     0.900000E-01   1.00800           0
     19963 MEMB     149      POPC     C316     CTL3    -0.270000       12.0110           0
     19964 MEMB     149      POPC     H16X     HAL3     0.900000E-01   1.00800           0
     19965 MEMB     149      POPC     H16Y     HAL3     0.900000E-01   1.00800           0
     19966 MEMB     149      POPC     H16Z     HAL3     0.900000E-01   1.00800           0
     19967 MEMB     150      POPC     N        NTL     -0.600000       14.0070           0
     19968 MEMB     150      POPC     C12      CTL2    -0.100000       12.0110           0
     19969 MEMB     150      POPC     H12A     HL       0.250000       1.00800           0
     19970 MEMB     150      POPC     H12B     HL       0.250000       1.00800           0
     19971 MEMB     150      POPC     C13      CTL5    -0.350000       12.0110           0
     19972 MEMB     150      POPC     H13A     HL       0.250000       1.00800           0
     19973 MEMB     150      POPC     H13B     HL       0.250000       1.00800           0
     19974 MEMB     150      POPC     H13C     HL       0.250000       1.00800           0
     19975 MEMB     150      POPC     C14      CTL5    -0.350000       12.0110           0
     19976 MEMB     150      POPC     H14A     HL       0.250000       1.00800           0
     19977 MEMB     150      POPC     H14B     HL       0.250000       1.00800           0
     19978 MEMB     150      POPC     H14C     HL       0.250000       1.00800           0
     19979 MEMB     150      POPC     C15      CTL5    -0.350000       12.0110           0
     19980 MEMB     150      POPC     H15A     HL       0.250000       1.00800           0
     19981 MEMB     150      POPC     H15B     HL       0.250000       1.00800           0
     19982 MEMB     150      POPC     H15C     HL       0.250000       1.00800           0
     19983 MEMB     150      POPC     C11      CTL2    -0.800000E-01   12.0110           0
     19984 MEMB     150      POPC     H11A     HAL2     0.900000E-01   1.00800           0
     19985 MEMB     150      POPC     H11B     HAL2     0.900000E-01   1.00800           0
     19986 MEMB     150      POPC     P        PL       1.50000        30.9740           0
     19987 MEMB     150      POPC     O13      O2L     -0.780000       15.9994           0
     19988 MEMB     150      POPC     O14      O2L     -0.780000       15.9994           0
     19989 MEMB     150      POPC     O12      OSLP    -0.570000       15.9994           0
     19990 MEMB     150      POPC     O11      OSLP    -0.570000       15.9994           0
     19991 MEMB     150      POPC     C1       CTL2    -0.800000E-01   12.0110           0
     19992 MEMB     150      POPC     HA       HAL2     0.900000E-01   1.00800           0
     19993 MEMB     150      POPC     HB       HAL2     0.900000E-01   1.00800           0
     19994 MEMB     150      POPC     C2       CTL1     0.170000       12.0110           0
     19995 MEMB     150      POPC     HS       HAL1     0.900000E-01   1.00800           0
     19996 MEMB     150      POPC     O21      OSL     -0.490000       15.9994           0
     19997 MEMB     150      POPC     C21      CL       0.900000       12.0110           0
     19998 MEMB     150      POPC     O22      OBL     -0.630000       15.9994           0
     19999 MEMB     150      POPC     C22      CTL2    -0.220000       12.0110           0
     20000 MEMB     150      POPC     H2R      HAL2     0.900000E-01   1.00800           0
     20001 MEMB     150      POPC     H2S      HAL2     0.900000E-01   1.00800           0
     20002 MEMB     150      POPC     C3       CTL2     0.800000E-01   12.0110           0
     20003 MEMB     150      POPC     HX       HAL2     0.900000E-01   1.00800           0
     20004 MEMB     150      POPC     HY       HAL2     0.900000E-01   1.00800           0
     20005 MEMB     150      POPC     O31      OSL     -0.490000       15.9994           0
     20006 MEMB     150      POPC     C31      CL       0.900000       12.0110           0
     20007 MEMB     150      POPC     O32      OBL     -0.630000       15.9994           0
     20008 MEMB     150      POPC     C32      CTL2    -0.220000       12.0110           0
     20009 MEMB     150      POPC     H2X      HAL2     0.900000E-01   1.00800           0
     20010 MEMB     150      POPC     H2Y      HAL2     0.900000E-01   1.00800           0
     20011 MEMB     150      POPC     C23      CTL2    -0.180000       12.0110           0
     20012 MEMB     150      POPC     H3R      HAL2     0.900000E-01   1.00800           0
     20013 MEMB     150      POPC     H3S      HAL2     0.900000E-01   1.00800           0
     20014 MEMB     150      POPC     C24      CTL2    -0.180000       12.0110           0
     20015 MEMB     150      POPC     H4R      HAL2     0.900000E-01   1.00800           0
     20016 MEMB     150      POPC     H4S      HAL2     0.900000E-01   1.00800           0
     20017 MEMB     150      POPC     C25      CTL2    -0.180000       12.0110           0
     20018 MEMB     150      POPC     H5R      HAL2     0.900000E-01   1.00800           0
     20019 MEMB     150      POPC     H5S      HAL2     0.900000E-01   1.00800           0
     20020 MEMB     150      POPC     C26      CTL2    -0.180000       12.0110           0
     20021 MEMB     150      POPC     H6R      HAL2     0.900000E-01   1.00800           0
     20022 MEMB     150      POPC     H6S      HAL2     0.900000E-01   1.00800           0
     20023 MEMB     150      POPC     C27      CTL2    -0.180000       12.0110           0
     20024 MEMB     150      POPC     H7R      HAL2     0.900000E-01   1.00800           0
     20025 MEMB     150      POPC     H7S      HAL2     0.900000E-01   1.00800           0
     20026 MEMB     150      POPC     C28      CTL2    -0.180000       12.0110           0
     20027 MEMB     150      POPC     H8R      HAL2     0.900000E-01   1.00800           0
     20028 MEMB     150      POPC     H8S      HAL2     0.900000E-01   1.00800           0
     20029 MEMB     150      POPC     C29      CEL1    -0.150000       12.0110           0
     20030 MEMB     150      POPC     H91      HEL1     0.150000       1.00800           0
     20031 MEMB     150      POPC     C210     CEL1    -0.150000       12.0110           0
     20032 MEMB     150      POPC     H101     HEL1     0.150000       1.00800           0
     20033 MEMB     150      POPC     C211     CTL2    -0.180000       12.0110           0
     20034 MEMB     150      POPC     H11R     HAL2     0.900000E-01   1.00800           0
     20035 MEMB     150      POPC     H11S     HAL2     0.900000E-01   1.00800           0
     20036 MEMB     150      POPC     C212     CTL2    -0.180000       12.0110           0
     20037 MEMB     150      POPC     H12R     HAL2     0.900000E-01   1.00800           0
     20038 MEMB     150      POPC     H12S     HAL2     0.900000E-01   1.00800           0
     20039 MEMB     150      POPC     C213     CTL2    -0.180000       12.0110           0
     20040 MEMB     150      POPC     H13R     HAL2     0.900000E-01   1.00800           0
     20041 MEMB     150      POPC     H13S     HAL2     0.900000E-01   1.00800           0
     20042 MEMB     150      POPC     C214     CTL2    -0.180000       12.0110           0
     20043 MEMB     150      POPC     H14R     HAL2     0.900000E-01   1.00800           0
     20044 MEMB     150      POPC     H14S     HAL2     0.900000E-01   1.00800           0
     20045 MEMB     150      POPC     C215     CTL2    -0.180000       12.0110           0
     20046 MEMB     150      POPC     H15R     HAL2     0.900000E-01   1.00800           0
     20047 MEMB     150      POPC     H15S     HAL2     0.900000E-01   1.00800           0
     20048 MEMB     150      POPC     C216     CTL2    -0.180000       12.0110           0
     20049 MEMB     150      POPC     H16R     HAL2     0.900000E-01   1.00800           0
     20050 MEMB     150      POPC     H16S     HAL2     0.900000E-01   1.00800           0
     20051 MEMB     150      POPC     C217     CTL2    -0.180000       12.0110           0
     20052 MEMB     150      POPC     H17R     HAL2     0.900000E-01   1.00800           0
     20053 MEMB     150      POPC     H17S     HAL2     0.900000E-01   1.00800           0
     20054 MEMB     150      POPC     C218     CTL3    -0.270000       12.0110           0
     20055 MEMB     150      POPC     H18R     HAL3     0.900000E-01   1.00800           0
     20056 MEMB     150      POPC     H18S     HAL3     0.900000E-01   1.00800           0
     20057 MEMB     150      POPC     H18T     HAL3     0.900000E-01   1.00800           0
     20058 MEMB     150      POPC     C33      CTL2    -0.180000       12.0110           0
     20059 MEMB     150      POPC     H3X      HAL2     0.900000E-01   1.00800           0
     20060 MEMB     150      POPC     H3Y      HAL2     0.900000E-01   1.00800           0
     20061 MEMB     150      POPC     C34      CTL2    -0.180000       12.0110           0
     20062 MEMB     150      POPC     H4X      HAL2     0.900000E-01   1.00800           0
     20063 MEMB     150      POPC     H4Y      HAL2     0.900000E-01   1.00800           0
     20064 MEMB     150      POPC     C35      CTL2    -0.180000       12.0110           0
     20065 MEMB     150      POPC     H5X      HAL2     0.900000E-01   1.00800           0
     20066 MEMB     150      POPC     H5Y      HAL2     0.900000E-01   1.00800           0
     20067 MEMB     150      POPC     C36      CTL2    -0.180000       12.0110           0
     20068 MEMB     150      POPC     H6X      HAL2     0.900000E-01   1.00800           0
     20069 MEMB     150      POPC     H6Y      HAL2     0.900000E-01   1.00800           0
     20070 MEMB     150      POPC     C37      CTL2    -0.180000       12.0110           0
     20071 MEMB     150      POPC     H7X      HAL2     0.900000E-01   1.00800           0
     20072 MEMB     150      POPC     H7Y      HAL2     0.900000E-01   1.00800           0
     20073 MEMB     150      POPC     C38      CTL2    -0.180000       12.0110           0
     20074 MEMB     150      POPC     H8X      HAL2     0.900000E-01   1.00800           0
     20075 MEMB     150      POPC     H8Y      HAL2     0.900000E-01   1.00800           0
     20076 MEMB     150      POPC     C39      CTL2    -0.180000       12.0110           0
     20077 MEMB     150      POPC     H9X      HAL2     0.900000E-01   1.00800           0
     20078 MEMB     150      POPC     H9Y      HAL2     0.900000E-01   1.00800           0
     20079 MEMB     150      POPC     C310     CTL2    -0.180000       12.0110           0
     20080 MEMB     150      POPC     H10X     HAL2     0.900000E-01   1.00800           0
     20081 MEMB     150      POPC     H10Y     HAL2     0.900000E-01   1.00800           0
     20082 MEMB     150      POPC     C311     CTL2    -0.180000       12.0110           0
     20083 MEMB     150      POPC     H11X     HAL2     0.900000E-01   1.00800           0
     20084 MEMB     150      POPC     H11Y     HAL2     0.900000E-01   1.00800           0
     20085 MEMB     150      POPC     C312     CTL2    -0.180000       12.0110           0
     20086 MEMB     150      POPC     H12X     HAL2     0.900000E-01   1.00800           0
     20087 MEMB     150      POPC     H12Y     HAL2     0.900000E-01   1.00800           0
     20088 MEMB     150      POPC     C313     CTL2    -0.180000       12.0110           0
     20089 MEMB     150      POPC     H13X     HAL2     0.900000E-01   1.00800           0
     20090 MEMB     150      POPC     H13Y     HAL2     0.900000E-01   1.00800           0
     20091 MEMB     150      POPC     C314     CTL2    -0.180000       12.0110           0
     20092 MEMB     150      POPC     H14X     HAL2     0.900000E-01   1.00800           0
     20093 MEMB     150      POPC     H14Y     HAL2     0.900000E-01   1.00800           0
     20094 MEMB     150      POPC     C315     CTL2    -0.180000       12.0110           0
     20095 MEMB     150      POPC     H15X     HAL2     0.900000E-01   1.00800           0
     20096 MEMB     150      POPC     H15Y     HAL2     0.900000E-01   1.00800           0
     20097 MEMB     150      POPC     C316     CTL3    -0.270000       12.0110           0
     20098 MEMB     150      POPC     H16X     HAL3     0.900000E-01   1.00800           0
     20099 MEMB     150      POPC     H16Y     HAL3     0.900000E-01   1.00800           0
     20100 MEMB     150      POPC     H16Z     HAL3     0.900000E-01   1.00800           0
     20101 MEMB     151      POPC     N        NTL     -0.600000       14.0070           0
     20102 MEMB     151      POPC     C12      CTL2    -0.100000       12.0110           0
     20103 MEMB     151      POPC     H12A     HL       0.250000       1.00800           0
     20104 MEMB     151      POPC     H12B     HL       0.250000       1.00800           0
     20105 MEMB     151      POPC     C13      CTL5    -0.350000       12.0110           0
     20106 MEMB     151      POPC     H13A     HL       0.250000       1.00800           0
     20107 MEMB     151      POPC     H13B     HL       0.250000       1.00800           0
     20108 MEMB     151      POPC     H13C     HL       0.250000       1.00800           0
     20109 MEMB     151      POPC     C14      CTL5    -0.350000       12.0110           0
     20110 MEMB     151      POPC     H14A     HL       0.250000       1.00800           0
     20111 MEMB     151      POPC     H14B     HL       0.250000       1.00800           0
     20112 MEMB     151      POPC     H14C     HL       0.250000       1.00800           0
     20113 MEMB     151      POPC     C15      CTL5    -0.350000       12.0110           0
     20114 MEMB     151      POPC     H15A     HL       0.250000       1.00800           0
     20115 MEMB     151      POPC     H15B     HL       0.250000       1.00800           0
     20116 MEMB     151      POPC     H15C     HL       0.250000       1.00800           0
     20117 MEMB     151      POPC     C11      CTL2    -0.800000E-01   12.0110           0
     20118 MEMB     151      POPC     H11A     HAL2     0.900000E-01   1.00800           0
     20119 MEMB     151      POPC     H11B     HAL2     0.900000E-01   1.00800           0
     20120 MEMB     151      POPC     P        PL       1.50000        30.9740           0
     20121 MEMB     151      POPC     O13      O2L     -0.780000       15.9994           0
     20122 MEMB     151      POPC     O14      O2L     -0.780000       15.9994           0
     20123 MEMB     151      POPC     O12      OSLP    -0.570000       15.9994           0
     20124 MEMB     151      POPC     O11      OSLP    -0.570000       15.9994           0
     20125 MEMB     151      POPC     C1       CTL2    -0.800000E-01   12.0110           0
     20126 MEMB     151      POPC     HA       HAL2     0.900000E-01   1.00800           0
     20127 MEMB     151      POPC     HB       HAL2     0.900000E-01   1.00800           0
     20128 MEMB     151      POPC     C2       CTL1     0.170000       12.0110           0
     20129 MEMB     151      POPC     HS       HAL1     0.900000E-01   1.00800           0
     20130 MEMB     151      POPC     O21      OSL     -0.490000       15.9994           0
     20131 MEMB     151      POPC     C21      CL       0.900000       12.0110           0
     20132 MEMB     151      POPC     O22      OBL     -0.630000       15.9994           0
     20133 MEMB     151      POPC     C22      CTL2    -0.220000       12.0110           0
     20134 MEMB     151      POPC     H2R      HAL2     0.900000E-01   1.00800           0
     20135 MEMB     151      POPC     H2S      HAL2     0.900000E-01   1.00800           0
     20136 MEMB     151      POPC     C3       CTL2     0.800000E-01   12.0110           0
     20137 MEMB     151      POPC     HX       HAL2     0.900000E-01   1.00800           0
     20138 MEMB     151      POPC     HY       HAL2     0.900000E-01   1.00800           0
     20139 MEMB     151      POPC     O31      OSL     -0.490000       15.9994           0
     20140 MEMB     151      POPC     C31      CL       0.900000       12.0110           0
     20141 MEMB     151      POPC     O32      OBL     -0.630000       15.9994           0
     20142 MEMB     151      POPC     C32      CTL2    -0.220000       12.0110           0
     20143 MEMB     151      POPC     H2X      HAL2     0.900000E-01   1.00800           0
     20144 MEMB     151      POPC     H2Y      HAL2     0.900000E-01   1.00800           0
     20145 MEMB     151      POPC     C23      CTL2    -0.180000       12.0110           0
     20146 MEMB     151      POPC     H3R      HAL2     0.900000E-01   1.00800           0
     20147 MEMB     151      POPC     H3S      HAL2     0.900000E-01   1.00800           0
     20148 MEMB     151      POPC     C24      CTL2    -0.180000       12.0110           0
     20149 MEMB     151      POPC     H4R      HAL2     0.900000E-01   1.00800           0
     20150 MEMB     151      POPC     H4S      HAL2     0.900000E-01   1.00800           0
     20151 MEMB     151      POPC     C25      CTL2    -0.180000       12.0110           0
     20152 MEMB     151      POPC     H5R      HAL2     0.900000E-01   1.00800           0
     20153 MEMB     151      POPC     H5S      HAL2     0.900000E-01   1.00800           0
     20154 MEMB     151      POPC     C26      CTL2    -0.180000       12.0110           0
     20155 MEMB     151      POPC     H6R      HAL2     0.900000E-01   1.00800           0
     20156 MEMB     151      POPC     H6S      HAL2     0.900000E-01   1.00800           0
     20157 MEMB     151      POPC     C27      CTL2    -0.180000       12.0110           0
     20158 MEMB     151      POPC     H7R      HAL2     0.900000E-01   1.00800           0
     20159 MEMB     151      POPC     H7S      HAL2     0.900000E-01   1.00800           0
     20160 MEMB     151      POPC     C28      CTL2    -0.180000       12.0110           0
     20161 MEMB     151      POPC     H8R      HAL2     0.900000E-01   1.00800           0
     20162 MEMB     151      POPC     H8S      HAL2     0.900000E-01   1.00800           0
     20163 MEMB     151      POPC     C29      CEL1    -0.150000       12.0110           0
     20164 MEMB     151      POPC     H91      HEL1     0.150000       1.00800           0
     20165 MEMB     151      POPC     C210     CEL1    -0.150000       12.0110           0
     20166 MEMB     151      POPC     H101     HEL1     0.150000       1.00800           0
     20167 MEMB     151      POPC     C211     CTL2    -0.180000       12.0110           0
     20168 MEMB     151      POPC     H11R     HAL2     0.900000E-01   1.00800           0
     20169 MEMB     151      POPC     H11S     HAL2     0.900000E-01   1.00800           0
     20170 MEMB     151      POPC     C212     CTL2    -0.180000       12.0110           0
     20171 MEMB     151      POPC     H12R     HAL2     0.900000E-01   1.00800           0
     20172 MEMB     151      POPC     H12S     HAL2     0.900000E-01   1.00800           0
     20173 MEMB     151      POPC     C213     CTL2    -0.180000       12.0110           0
     20174 MEMB     151      POPC     H13R     HAL2     0.900000E-01   1.00800           0
     20175 MEMB     151      POPC     H13S     HAL2     0.900000E-01   1.00800           0
     20176 MEMB     151      POPC     C214     CTL2    -0.180000       12.0110           0
     20177 MEMB     151      POPC     H14R     HAL2     0.900000E-01   1.00800           0
     20178 MEMB     151      POPC     H14S     HAL2     0.900000E-01   1.00800           0
     20179 MEMB     151      POPC     C215     CTL2    -0.180000       12.0110           0
     20180 MEMB     151      POPC     H15R     HAL2     0.900000E-01   1.00800           0
     20181 MEMB     151      POPC     H15S     HAL2     0.900000E-01   1.00800           0
     20182 MEMB     151      POPC     C216     CTL2    -0.180000       12.0110           0
     20183 MEMB     151      POPC     H16R     HAL2     0.900000E-01   1.00800           0
     20184 MEMB     151      POPC     H16S     HAL2     0.900000E-01   1.00800           0
     20185 MEMB     151      POPC     C217     CTL2    -0.180000       12.0110           0
     20186 MEMB     151      POPC     H17R     HAL2     0.900000E-01   1.00800           0
     20187 MEMB     151      POPC     H17S     HAL2     0.900000E-01   1.00800           0
     20188 MEMB     151      POPC     C218     CTL3    -0.270000       12.0110           0
     20189 MEMB     151      POPC     H18R     HAL3     0.900000E-01   1.00800           0
     20190 MEMB     151      POPC     H18S     HAL3     0.900000E-01   1.00800           0
     20191 MEMB     151      POPC     H18T     HAL3     0.900000E-01   1.00800           0
     20192 MEMB     151      POPC     C33      CTL2    -0.180000       12.0110           0
     20193 MEMB     151      POPC     H3X      HAL2     0.900000E-01   1.00800           0
     20194 MEMB     151      POPC     H3Y      HAL2     0.900000E-01   1.00800           0
     20195 MEMB     151      POPC     C34      CTL2    -0.180000       12.0110           0
     20196 MEMB     151      POPC     H4X      HAL2     0.900000E-01   1.00800           0
     20197 MEMB     151      POPC     H4Y      HAL2     0.900000E-01   1.00800           0
     20198 MEMB     151      POPC     C35      CTL2    -0.180000       12.0110           0
     20199 MEMB     151      POPC     H5X      HAL2     0.900000E-01   1.00800           0
     20200 MEMB     151      POPC     H5Y      HAL2     0.900000E-01   1.00800           0
     20201 MEMB     151      POPC     C36      CTL2    -0.180000       12.0110           0
     20202 MEMB     151      POPC     H6X      HAL2     0.900000E-01   1.00800           0
     20203 MEMB     151      POPC     H6Y      HAL2     0.900000E-01   1.00800           0
     20204 MEMB     151      POPC     C37      CTL2    -0.180000       12.0110           0
     20205 MEMB     151      POPC     H7X      HAL2     0.900000E-01   1.00800           0
     20206 MEMB     151      POPC     H7Y      HAL2     0.900000E-01   1.00800           0
     20207 MEMB     151      POPC     C38      CTL2    -0.180000       12.0110           0
     20208 MEMB     151      POPC     H8X      HAL2     0.900000E-01   1.00800           0
     20209 MEMB     151      POPC     H8Y      HAL2     0.900000E-01   1.00800           0
     20210 MEMB     151      POPC     C39      CTL2    -0.180000       12.0110           0
     20211 MEMB     151      POPC     H9X      HAL2     0.900000E-01   1.00800           0
     20212 MEMB     151      POPC     H9Y      HAL2     0.900000E-01   1.00800           0
     20213 MEMB     151      POPC     C310     CTL2    -0.180000       12.0110           0
     20214 MEMB     151      POPC     H10X     HAL2     0.900000E-01   1.00800           0
     20215 MEMB     151      POPC     H10Y     HAL2     0.900000E-01   1.00800           0
     20216 MEMB     151      POPC     C311     CTL2    -0.180000       12.0110           0
     20217 MEMB     151      POPC     H11X     HAL2     0.900000E-01   1.00800           0
     20218 MEMB     151      POPC     H11Y     HAL2     0.900000E-01   1.00800           0
     20219 MEMB     151      POPC     C312     CTL2    -0.180000       12.0110           0
     20220 MEMB     151      POPC     H12X     HAL2     0.900000E-01   1.00800           0
     20221 MEMB     151      POPC     H12Y     HAL2     0.900000E-01   1.00800           0
     20222 MEMB     151      POPC     C313     CTL2    -0.180000       12.0110           0
     20223 MEMB     151      POPC     H13X     HAL2     0.900000E-01   1.00800           0
     20224 MEMB     151      POPC     H13Y     HAL2     0.900000E-01   1.00800           0
     20225 MEMB     151      POPC     C314     CTL2    -0.180000       12.0110           0
     20226 MEMB     151      POPC     H14X     HAL2     0.900000E-01   1.00800           0
     20227 MEMB     151      POPC     H14Y     HAL2     0.900000E-01   1.00800           0
     20228 MEMB     151      POPC     C315     CTL2    -0.180000       12.0110           0
     20229 MEMB     151      POPC     H15X     HAL2     0.900000E-01   1.00800           0
     20230 MEMB     151      POPC     H15Y     HAL2     0.900000E-01   1.00800           0
     20231 MEMB     151      POPC     C316     CTL3    -0.270000       12.0110           0
     20232 MEMB     151      POPC     H16X     HAL3     0.900000E-01   1.00800           0
     20233 MEMB     151      POPC     H16Y     HAL3     0.900000E-01   1.00800           0
     20234 MEMB     151      POPC     H16Z     HAL3     0.900000E-01   1.00800           0
     20235 MEMB     152      POPC     N        NTL     -0.600000       14.0070           0
     20236 MEMB     152      POPC     C12      CTL2    -0.100000       12.0110           0
     20237 MEMB     152      POPC     H12A     HL       0.250000       1.00800           0
     20238 MEMB     152      POPC     H12B     HL       0.250000       1.00800           0
     20239 MEMB     152      POPC     C13      CTL5    -0.350000       12.0110           0
     20240 MEMB     152      POPC     H13A     HL       0.250000       1.00800           0
     20241 MEMB     152      POPC     H13B     HL       0.250000       1.00800           0
     20242 MEMB     152      POPC     H13C     HL       0.250000       1.00800           0
     20243 MEMB     152      POPC     C14      CTL5    -0.350000       12.0110           0
     20244 MEMB     152      POPC     H14A     HL       0.250000       1.00800           0
     20245 MEMB     152      POPC     H14B     HL       0.250000       1.00800           0
     20246 MEMB     152      POPC     H14C     HL       0.250000       1.00800           0
     20247 MEMB     152      POPC     C15      CTL5    -0.350000       12.0110           0
     20248 MEMB     152      POPC     H15A     HL       0.250000       1.00800           0
     20249 MEMB     152      POPC     H15B     HL       0.250000       1.00800           0
     20250 MEMB     152      POPC     H15C     HL       0.250000       1.00800           0
     20251 MEMB     152      POPC     C11      CTL2    -0.800000E-01   12.0110           0
     20252 MEMB     152      POPC     H11A     HAL2     0.900000E-01   1.00800           0
     20253 MEMB     152      POPC     H11B     HAL2     0.900000E-01   1.00800           0
     20254 MEMB     152      POPC     P        PL       1.50000        30.9740           0
     20255 MEMB     152      POPC     O13      O2L     -0.780000       15.9994           0
     20256 MEMB     152      POPC     O14      O2L     -0.780000       15.9994           0
     20257 MEMB     152      POPC     O12      OSLP    -0.570000       15.9994           0
     20258 MEMB     152      POPC     O11      OSLP    -0.570000       15.9994           0
     20259 MEMB     152      POPC     C1       CTL2    -0.800000E-01   12.0110           0
     20260 MEMB     152      POPC     HA       HAL2     0.900000E-01   1.00800           0
     20261 MEMB     152      POPC     HB       HAL2     0.900000E-01   1.00800           0
     20262 MEMB     152      POPC     C2       CTL1     0.170000       12.0110           0
     20263 MEMB     152      POPC     HS       HAL1     0.900000E-01   1.00800           0
     20264 MEMB     152      POPC     O21      OSL     -0.490000       15.9994           0
     20265 MEMB     152      POPC     C21      CL       0.900000       12.0110           0
     20266 MEMB     152      POPC     O22      OBL     -0.630000       15.9994           0
     20267 MEMB     152      POPC     C22      CTL2    -0.220000       12.0110           0
     20268 MEMB     152      POPC     H2R      HAL2     0.900000E-01   1.00800           0
     20269 MEMB     152      POPC     H2S      HAL2     0.900000E-01   1.00800           0
     20270 MEMB     152      POPC     C3       CTL2     0.800000E-01   12.0110           0
     20271 MEMB     152      POPC     HX       HAL2     0.900000E-01   1.00800           0
     20272 MEMB     152      POPC     HY       HAL2     0.900000E-01   1.00800           0
     20273 MEMB     152      POPC     O31      OSL     -0.490000       15.9994           0
     20274 MEMB     152      POPC     C31      CL       0.900000       12.0110           0
     20275 MEMB     152      POPC     O32      OBL     -0.630000       15.9994           0
     20276 MEMB     152      POPC     C32      CTL2    -0.220000       12.0110           0
     20277 MEMB     152      POPC     H2X      HAL2     0.900000E-01   1.00800           0
     20278 MEMB     152      POPC     H2Y      HAL2     0.900000E-01   1.00800           0
     20279 MEMB     152      POPC     C23      CTL2    -0.180000       12.0110           0
     20280 MEMB     152      POPC     H3R      HAL2     0.900000E-01   1.00800           0
     20281 MEMB     152      POPC     H3S      HAL2     0.900000E-01   1.00800           0
     20282 MEMB     152      POPC     C24      CTL2    -0.180000       12.0110           0
     20283 MEMB     152      POPC     H4R      HAL2     0.900000E-01   1.00800           0
     20284 MEMB     152      POPC     H4S      HAL2     0.900000E-01   1.00800           0
     20285 MEMB     152      POPC     C25      CTL2    -0.180000       12.0110           0
     20286 MEMB     152      POPC     H5R      HAL2     0.900000E-01   1.00800           0
     20287 MEMB     152      POPC     H5S      HAL2     0.900000E-01   1.00800           0
     20288 MEMB     152      POPC     C26      CTL2    -0.180000       12.0110           0
     20289 MEMB     152      POPC     H6R      HAL2     0.900000E-01   1.00800           0
     20290 MEMB     152      POPC     H6S      HAL2     0.900000E-01   1.00800           0
     20291 MEMB     152      POPC     C27      CTL2    -0.180000       12.0110           0
     20292 MEMB     152      POPC     H7R      HAL2     0.900000E-01   1.00800           0
     20293 MEMB     152      POPC     H7S      HAL2     0.900000E-01   1.00800           0
     20294 MEMB     152      POPC     C28      CTL2    -0.180000       12.0110           0
     20295 MEMB     152      POPC     H8R      HAL2     0.900000E-01   1.00800           0
     20296 MEMB     152      POPC     H8S      HAL2     0.900000E-01   1.00800           0
     20297 MEMB     152      POPC     C29      CEL1    -0.150000       12.0110           0
     20298 MEMB     152      POPC     H91      HEL1     0.150000       1.00800           0
     20299 MEMB     152      POPC     C210     CEL1    -0.150000       12.0110           0
     20300 MEMB     152      POPC     H101     HEL1     0.150000       1.00800           0
     20301 MEMB     152      POPC     C211     CTL2    -0.180000       12.0110           0
     20302 MEMB     152      POPC     H11R     HAL2     0.900000E-01   1.00800           0
     20303 MEMB     152      POPC     H11S     HAL2     0.900000E-01   1.00800           0
     20304 MEMB     152      POPC     C212     CTL2    -0.180000       12.0110           0
     20305 MEMB     152      POPC     H12R     HAL2     0.900000E-01   1.00800           0
     20306 MEMB     152      POPC     H12S     HAL2     0.900000E-01   1.00800           0
     20307 MEMB     152      POPC     C213     CTL2    -0.180000       12.0110           0
     20308 MEMB     152      POPC     H13R     HAL2     0.900000E-01   1.00800           0
     20309 MEMB     152      POPC     H13S     HAL2     0.900000E-01   1.00800           0
     20310 MEMB     152      POPC     C214     CTL2    -0.180000       12.0110           0
     20311 MEMB     152      POPC     H14R     HAL2     0.900000E-01   1.00800           0
     20312 MEMB     152      POPC     H14S     HAL2     0.900000E-01   1.00800           0
     20313 MEMB     152      POPC     C215     CTL2    -0.180000       12.0110           0
     20314 MEMB     152      POPC     H15R     HAL2     0.900000E-01   1.00800           0
     20315 MEMB     152      POPC     H15S     HAL2     0.900000E-01   1.00800           0
     20316 MEMB     152      POPC     C216     CTL2    -0.180000       12.0110           0
     20317 MEMB     152      POPC     H16R     HAL2     0.900000E-01   1.00800           0
     20318 MEMB     152      POPC     H16S     HAL2     0.900000E-01   1.00800           0
     20319 MEMB     152      POPC     C217     CTL2    -0.180000       12.0110           0
     20320 MEMB     152      POPC     H17R     HAL2     0.900000E-01   1.00800           0
     20321 MEMB     152      POPC     H17S     HAL2     0.900000E-01   1.00800           0
     20322 MEMB     152      POPC     C218     CTL3    -0.270000       12.0110           0
     20323 MEMB     152      POPC     H18R     HAL3     0.900000E-01   1.00800           0
     20324 MEMB     152      POPC     H18S     HAL3     0.900000E-01   1.00800           0
     20325 MEMB     152      POPC     H18T     HAL3     0.900000E-01   1.00800           0
     20326 MEMB     152      POPC     C33      CTL2    -0.180000       12.0110           0
     20327 MEMB     152      POPC     H3X      HAL2     0.900000E-01   1.00800           0
     20328 MEMB     152      POPC     H3Y      HAL2     0.900000E-01   1.00800           0
     20329 MEMB     152      POPC     C34      CTL2    -0.180000       12.0110           0
     20330 MEMB     152      POPC     H4X      HAL2     0.900000E-01   1.00800           0
     20331 MEMB     152      POPC     H4Y      HAL2     0.900000E-01   1.00800           0
     20332 MEMB     152      POPC     C35      CTL2    -0.180000       12.0110           0
     20333 MEMB     152      POPC     H5X      HAL2     0.900000E-01   1.00800           0
     20334 MEMB     152      POPC     H5Y      HAL2     0.900000E-01   1.00800           0
     20335 MEMB     152      POPC     C36      CTL2    -0.180000       12.0110           0
     20336 MEMB     152      POPC     H6X      HAL2     0.900000E-01   1.00800           0
     20337 MEMB     152      POPC     H6Y      HAL2     0.900000E-01   1.00800           0
     20338 MEMB     152      POPC     C37      CTL2    -0.180000       12.0110           0
     20339 MEMB     152      POPC     H7X      HAL2     0.900000E-01   1.00800           0
     20340 MEMB     152      POPC     H7Y      HAL2     0.900000E-01   1.00800           0
     20341 MEMB     152      POPC     C38      CTL2    -0.180000       12.0110           0
     20342 MEMB     152      POPC     H8X      HAL2     0.900000E-01   1.00800           0
     20343 MEMB     152      POPC     H8Y      HAL2     0.900000E-01   1.00800           0
     20344 MEMB     152      POPC     C39      CTL2    -0.180000       12.0110           0
     20345 MEMB     152      POPC     H9X      HAL2     0.900000E-01   1.00800           0
     20346 MEMB     152      POPC     H9Y      HAL2     0.900000E-01   1.00800           0
     20347 MEMB     152      POPC     C310     CTL2    -0.180000       12.0110           0
     20348 MEMB     152      POPC     H10X     HAL2     0.900000E-01   1.00800           0
     20349 MEMB     152      POPC     H10Y     HAL2     0.900000E-01   1.00800           0
     20350 MEMB     152      POPC     C311     CTL2    -0.180000       12.0110           0
     20351 MEMB     152      POPC     H11X     HAL2     0.900000E-01   1.00800           0
     20352 MEMB     152      POPC     H11Y     HAL2     0.900000E-01   1.00800           0
     20353 MEMB     152      POPC     C312     CTL2    -0.180000       12.0110           0
     20354 MEMB     152      POPC     H12X     HAL2     0.900000E-01   1.00800           0
     20355 MEMB     152      POPC     H12Y     HAL2     0.900000E-01   1.00800           0
     20356 MEMB     152      POPC     C313     CTL2    -0.180000       12.0110           0
     20357 MEMB     152      POPC     H13X     HAL2     0.900000E-01   1.00800           0
     20358 MEMB     152      POPC     H13Y     HAL2     0.900000E-01   1.00800           0
     20359 MEMB     152      POPC     C314     CTL2    -0.180000       12.0110           0
     20360 MEMB     152      POPC     H14X     HAL2     0.900000E-01   1.00800           0
     20361 MEMB     152      POPC     H14Y     HAL2     0.900000E-01   1.00800           0
     20362 MEMB     152      POPC     C315     CTL2    -0.180000       12.0110           0
     20363 MEMB     152      POPC     H15X     HAL2     0.900000E-01   1.00800           0
     20364 MEMB     152      POPC     H15Y     HAL2     0.900000E-01   1.00800           0
     20365 MEMB     152      POPC     C316     CTL3    -0.270000       12.0110           0
     20366 MEMB     152      POPC     H16X     HAL3     0.900000E-01   1.00800           0
     20367 MEMB     152      POPC     H16Y     HAL3     0.900000E-01   1.00800           0
     20368 MEMB     152      POPC     H16Z     HAL3     0.900000E-01   1.00800           0
     20369 MEMB     153      POPC     N        NTL     -0.600000       14.0070           0
     20370 MEMB     153      POPC     C12      CTL2    -0.100000       12.0110           0
     20371 MEMB     153      POPC     H12A     HL       0.250000       1.00800           0
     20372 MEMB     153      POPC     H12B     HL       0.250000       1.00800           0
     20373 MEMB     153      POPC     C13      CTL5    -0.350000       12.0110           0
     20374 MEMB     153      POPC     H13A     HL       0.250000       1.00800           0
     20375 MEMB     153      POPC     H13B     HL       0.250000       1.00800           0
     20376 MEMB     153      POPC     H13C     HL       0.250000       1.00800           0
     20377 MEMB     153      POPC     C14      CTL5    -0.350000       12.0110           0
     20378 MEMB     153      POPC     H14A     HL       0.250000       1.00800           0
     20379 MEMB     153      POPC     H14B     HL       0.250000       1.00800           0
     20380 MEMB     153      POPC     H14C     HL       0.250000       1.00800           0
     20381 MEMB     153      POPC     C15      CTL5    -0.350000       12.0110           0
     20382 MEMB     153      POPC     H15A     HL       0.250000       1.00800           0
     20383 MEMB     153      POPC     H15B     HL       0.250000       1.00800           0
     20384 MEMB     153      POPC     H15C     HL       0.250000       1.00800           0
     20385 MEMB     153      POPC     C11      CTL2    -0.800000E-01   12.0110           0
     20386 MEMB     153      POPC     H11A     HAL2     0.900000E-01   1.00800           0
     20387 MEMB     153      POPC     H11B     HAL2     0.900000E-01   1.00800           0
     20388 MEMB     153      POPC     P        PL       1.50000        30.9740           0
     20389 MEMB     153      POPC     O13      O2L     -0.780000       15.9994           0
     20390 MEMB     153      POPC     O14      O2L     -0.780000       15.9994           0
     20391 MEMB     153      POPC     O12      OSLP    -0.570000       15.9994           0
     20392 MEMB     153      POPC     O11      OSLP    -0.570000       15.9994           0
     20393 MEMB     153      POPC     C1       CTL2    -0.800000E-01   12.0110           0
     20394 MEMB     153      POPC     HA       HAL2     0.900000E-01   1.00800           0
     20395 MEMB     153      POPC     HB       HAL2     0.900000E-01   1.00800           0
     20396 MEMB     153      POPC     C2       CTL1     0.170000       12.0110           0
     20397 MEMB     153      POPC     HS       HAL1     0.900000E-01   1.00800           0
     20398 MEMB     153      POPC     O21      OSL     -0.490000       15.9994           0
     20399 MEMB     153      POPC     C21      CL       0.900000       12.0110           0
     20400 MEMB     153      POPC     O22      OBL     -0.630000       15.9994           0
     20401 MEMB     153      POPC     C22      CTL2    -0.220000       12.0110           0
     20402 MEMB     153      POPC     H2R      HAL2     0.900000E-01   1.00800           0
     20403 MEMB     153      POPC     H2S      HAL2     0.900000E-01   1.00800           0
     20404 MEMB     153      POPC     C3       CTL2     0.800000E-01   12.0110           0
     20405 MEMB     153      POPC     HX       HAL2     0.900000E-01   1.00800           0
     20406 MEMB     153      POPC     HY       HAL2     0.900000E-01   1.00800           0
     20407 MEMB     153      POPC     O31      OSL     -0.490000       15.9994           0
     20408 MEMB     153      POPC     C31      CL       0.900000       12.0110           0
     20409 MEMB     153      POPC     O32      OBL     -0.630000       15.9994           0
     20410 MEMB     153      POPC     C32      CTL2    -0.220000       12.0110           0
     20411 MEMB     153      POPC     H2X      HAL2     0.900000E-01   1.00800           0
     20412 MEMB     153      POPC     H2Y      HAL2     0.900000E-01   1.00800           0
     20413 MEMB     153      POPC     C23      CTL2    -0.180000       12.0110           0
     20414 MEMB     153      POPC     H3R      HAL2     0.900000E-01   1.00800           0
     20415 MEMB     153      POPC     H3S      HAL2     0.900000E-01   1.00800           0
     20416 MEMB     153      POPC     C24      CTL2    -0.180000       12.0110           0
     20417 MEMB     153      POPC     H4R      HAL2     0.900000E-01   1.00800           0
     20418 MEMB     153      POPC     H4S      HAL2     0.900000E-01   1.00800           0
     20419 MEMB     153      POPC     C25      CTL2    -0.180000       12.0110           0
     20420 MEMB     153      POPC     H5R      HAL2     0.900000E-01   1.00800           0
     20421 MEMB     153      POPC     H5S      HAL2     0.900000E-01   1.00800           0
     20422 MEMB     153      POPC     C26      CTL2    -0.180000       12.0110           0
     20423 MEMB     153      POPC     H6R      HAL2     0.900000E-01   1.00800           0
     20424 MEMB     153      POPC     H6S      HAL2     0.900000E-01   1.00800           0
     20425 MEMB     153      POPC     C27      CTL2    -0.180000       12.0110           0
     20426 MEMB     153      POPC     H7R      HAL2     0.900000E-01   1.00800           0
     20427 MEMB     153      POPC     H7S      HAL2     0.900000E-01   1.00800           0
     20428 MEMB     153      POPC     C28      CTL2    -0.180000       12.0110           0
     20429 MEMB     153      POPC     H8R      HAL2     0.900000E-01   1.00800           0
     20430 MEMB     153      POPC     H8S      HAL2     0.900000E-01   1.00800           0
     20431 MEMB     153      POPC     C29      CEL1    -0.150000       12.0110           0
     20432 MEMB     153      POPC     H91      HEL1     0.150000       1.00800           0
     20433 MEMB     153      POPC     C210     CEL1    -0.150000       12.0110           0
     20434 MEMB     153      POPC     H101     HEL1     0.150000       1.00800           0
     20435 MEMB     153      POPC     C211     CTL2    -0.180000       12.0110           0
     20436 MEMB     153      POPC     H11R     HAL2     0.900000E-01   1.00800           0
     20437 MEMB     153      POPC     H11S     HAL2     0.900000E-01   1.00800           0
     20438 MEMB     153      POPC     C212     CTL2    -0.180000       12.0110           0
     20439 MEMB     153      POPC     H12R     HAL2     0.900000E-01   1.00800           0
     20440 MEMB     153      POPC     H12S     HAL2     0.900000E-01   1.00800           0
     20441 MEMB     153      POPC     C213     CTL2    -0.180000       12.0110           0
     20442 MEMB     153      POPC     H13R     HAL2     0.900000E-01   1.00800           0
     20443 MEMB     153      POPC     H13S     HAL2     0.900000E-01   1.00800           0
     20444 MEMB     153      POPC     C214     CTL2    -0.180000       12.0110           0
     20445 MEMB     153      POPC     H14R     HAL2     0.900000E-01   1.00800           0
     20446 MEMB     153      POPC     H14S     HAL2     0.900000E-01   1.00800           0
     20447 MEMB     153      POPC     C215     CTL2    -0.180000       12.0110           0
     20448 MEMB     153      POPC     H15R     HAL2     0.900000E-01   1.00800           0
     20449 MEMB     153      POPC     H15S     HAL2     0.900000E-01   1.00800           0
     20450 MEMB     153      POPC     C216     CTL2    -0.180000       12.0110           0
     20451 MEMB     153      POPC     H16R     HAL2     0.900000E-01   1.00800           0
     20452 MEMB     153      POPC     H16S     HAL2     0.900000E-01   1.00800           0
     20453 MEMB     153      POPC     C217     CTL2    -0.180000       12.0110           0
     20454 MEMB     153      POPC     H17R     HAL2     0.900000E-01   1.00800           0
     20455 MEMB     153      POPC     H17S     HAL2     0.900000E-01   1.00800           0
     20456 MEMB     153      POPC     C218     CTL3    -0.270000       12.0110           0
     20457 MEMB     153      POPC     H18R     HAL3     0.900000E-01   1.00800           0
     20458 MEMB     153      POPC     H18S     HAL3     0.900000E-01   1.00800           0
     20459 MEMB     153      POPC     H18T     HAL3     0.900000E-01   1.00800           0
     20460 MEMB     153      POPC     C33      CTL2    -0.180000       12.0110           0
     20461 MEMB     153      POPC     H3X      HAL2     0.900000E-01   1.00800           0
     20462 MEMB     153      POPC     H3Y      HAL2     0.900000E-01   1.00800           0
     20463 MEMB     153      POPC     C34      CTL2    -0.180000       12.0110           0
     20464 MEMB     153      POPC     H4X      HAL2     0.900000E-01   1.00800           0
     20465 MEMB     153      POPC     H4Y      HAL2     0.900000E-01   1.00800           0
     20466 MEMB     153      POPC     C35      CTL2    -0.180000       12.0110           0
     20467 MEMB     153      POPC     H5X      HAL2     0.900000E-01   1.00800           0
     20468 MEMB     153      POPC     H5Y      HAL2     0.900000E-01   1.00800           0
     20469 MEMB     153      POPC     C36      CTL2    -0.180000       12.0110           0
     20470 MEMB     153      POPC     H6X      HAL2     0.900000E-01   1.00800           0
     20471 MEMB     153      POPC     H6Y      HAL2     0.900000E-01   1.00800           0
     20472 MEMB     153      POPC     C37      CTL2    -0.180000       12.0110           0
     20473 MEMB     153      POPC     H7X      HAL2     0.900000E-01   1.00800           0
     20474 MEMB     153      POPC     H7Y      HAL2     0.900000E-01   1.00800           0
     20475 MEMB     153      POPC     C38      CTL2    -0.180000       12.0110           0
     20476 MEMB     153      POPC     H8X      HAL2     0.900000E-01   1.00800           0
     20477 MEMB     153      POPC     H8Y      HAL2     0.900000E-01   1.00800           0
     20478 MEMB     153      POPC     C39      CTL2    -0.180000       12.0110           0
     20479 MEMB     153      POPC     H9X      HAL2     0.900000E-01   1.00800           0
     20480 MEMB     153      POPC     H9Y      HAL2     0.900000E-01   1.00800           0
     20481 MEMB     153      POPC     C310     CTL2    -0.180000       12.0110           0
     20482 MEMB     153      POPC     H10X     HAL2     0.900000E-01   1.00800           0
     20483 MEMB     153      POPC     H10Y     HAL2     0.900000E-01   1.00800           0
     20484 MEMB     153      POPC     C311     CTL2    -0.180000       12.0110           0
     20485 MEMB     153      POPC     H11X     HAL2     0.900000E-01   1.00800           0
     20486 MEMB     153      POPC     H11Y     HAL2     0.900000E-01   1.00800           0
     20487 MEMB     153      POPC     C312     CTL2    -0.180000       12.0110           0
     20488 MEMB     153      POPC     H12X     HAL2     0.900000E-01   1.00800           0
     20489 MEMB     153      POPC     H12Y     HAL2     0.900000E-01   1.00800           0
     20490 MEMB     153      POPC     C313     CTL2    -0.180000       12.0110           0
     20491 MEMB     153      POPC     H13X     HAL2     0.900000E-01   1.00800           0
     20492 MEMB     153      POPC     H13Y     HAL2     0.900000E-01   1.00800           0
     20493 MEMB     153      POPC     C314     CTL2    -0.180000       12.0110           0
     20494 MEMB     153      POPC     H14X     HAL2     0.900000E-01   1.00800           0
     20495 MEMB     153      POPC     H14Y     HAL2     0.900000E-01   1.00800           0
     20496 MEMB     153      POPC     C315     CTL2    -0.180000       12.0110           0
     20497 MEMB     153      POPC     H15X     HAL2     0.900000E-01   1.00800           0
     20498 MEMB     153      POPC     H15Y     HAL2     0.900000E-01   1.00800           0
     20499 MEMB     153      POPC     C316     CTL3    -0.270000       12.0110           0
     20500 MEMB     153      POPC     H16X     HAL3     0.900000E-01   1.00800           0
     20501 MEMB     153      POPC     H16Y     HAL3     0.900000E-01   1.00800           0
     20502 MEMB     153      POPC     H16Z     HAL3     0.900000E-01   1.00800           0
     20503 MEMB     154      POPC     N        NTL     -0.600000       14.0070           0
     20504 MEMB     154      POPC     C12      CTL2    -0.100000       12.0110           0
     20505 MEMB     154      POPC     H12A     HL       0.250000       1.00800           0
     20506 MEMB     154      POPC     H12B     HL       0.250000       1.00800           0
     20507 MEMB     154      POPC     C13      CTL5    -0.350000       12.0110           0
     20508 MEMB     154      POPC     H13A     HL       0.250000       1.00800           0
     20509 MEMB     154      POPC     H13B     HL       0.250000       1.00800           0
     20510 MEMB     154      POPC     H13C     HL       0.250000       1.00800           0
     20511 MEMB     154      POPC     C14      CTL5    -0.350000       12.0110           0
     20512 MEMB     154      POPC     H14A     HL       0.250000       1.00800           0
     20513 MEMB     154      POPC     H14B     HL       0.250000       1.00800           0
     20514 MEMB     154      POPC     H14C     HL       0.250000       1.00800           0
     20515 MEMB     154      POPC     C15      CTL5    -0.350000       12.0110           0
     20516 MEMB     154      POPC     H15A     HL       0.250000       1.00800           0
     20517 MEMB     154      POPC     H15B     HL       0.250000       1.00800           0
     20518 MEMB     154      POPC     H15C     HL       0.250000       1.00800           0
     20519 MEMB     154      POPC     C11      CTL2    -0.800000E-01   12.0110           0
     20520 MEMB     154      POPC     H11A     HAL2     0.900000E-01   1.00800           0
     20521 MEMB     154      POPC     H11B     HAL2     0.900000E-01   1.00800           0
     20522 MEMB     154      POPC     P        PL       1.50000        30.9740           0
     20523 MEMB     154      POPC     O13      O2L     -0.780000       15.9994           0
     20524 MEMB     154      POPC     O14      O2L     -0.780000       15.9994           0
     20525 MEMB     154      POPC     O12      OSLP    -0.570000       15.9994           0
     20526 MEMB     154      POPC     O11      OSLP    -0.570000       15.9994           0
     20527 MEMB     154      POPC     C1       CTL2    -0.800000E-01   12.0110           0
     20528 MEMB     154      POPC     HA       HAL2     0.900000E-01   1.00800           0
     20529 MEMB     154      POPC     HB       HAL2     0.900000E-01   1.00800           0
     20530 MEMB     154      POPC     C2       CTL1     0.170000       12.0110           0
     20531 MEMB     154      POPC     HS       HAL1     0.900000E-01   1.00800           0
     20532 MEMB     154      POPC     O21      OSL     -0.490000       15.9994           0
     20533 MEMB     154      POPC     C21      CL       0.900000       12.0110           0
     20534 MEMB     154      POPC     O22      OBL     -0.630000       15.9994           0
     20535 MEMB     154      POPC     C22      CTL2    -0.220000       12.0110           0
     20536 MEMB     154      POPC     H2R      HAL2     0.900000E-01   1.00800           0
     20537 MEMB     154      POPC     H2S      HAL2     0.900000E-01   1.00800           0
     20538 MEMB     154      POPC     C3       CTL2     0.800000E-01   12.0110           0
     20539 MEMB     154      POPC     HX       HAL2     0.900000E-01   1.00800           0
     20540 MEMB     154      POPC     HY       HAL2     0.900000E-01   1.00800           0
     20541 MEMB     154      POPC     O31      OSL     -0.490000       15.9994           0
     20542 MEMB     154      POPC     C31      CL       0.900000       12.0110           0
     20543 MEMB     154      POPC     O32      OBL     -0.630000       15.9994           0
     20544 MEMB     154      POPC     C32      CTL2    -0.220000       12.0110           0
     20545 MEMB     154      POPC     H2X      HAL2     0.900000E-01   1.00800           0
     20546 MEMB     154      POPC     H2Y      HAL2     0.900000E-01   1.00800           0
     20547 MEMB     154      POPC     C23      CTL2    -0.180000       12.0110           0
     20548 MEMB     154      POPC     H3R      HAL2     0.900000E-01   1.00800           0
     20549 MEMB     154      POPC     H3S      HAL2     0.900000E-01   1.00800           0
     20550 MEMB     154      POPC     C24      CTL2    -0.180000       12.0110           0
     20551 MEMB     154      POPC     H4R      HAL2     0.900000E-01   1.00800           0
     20552 MEMB     154      POPC     H4S      HAL2     0.900000E-01   1.00800           0
     20553 MEMB     154      POPC     C25      CTL2    -0.180000       12.0110           0
     20554 MEMB     154      POPC     H5R      HAL2     0.900000E-01   1.00800           0
     20555 MEMB     154      POPC     H5S      HAL2     0.900000E-01   1.00800           0
     20556 MEMB     154      POPC     C26      CTL2    -0.180000       12.0110           0
     20557 MEMB     154      POPC     H6R      HAL2     0.900000E-01   1.00800           0
     20558 MEMB     154      POPC     H6S      HAL2     0.900000E-01   1.00800           0
     20559 MEMB     154      POPC     C27      CTL2    -0.180000       12.0110           0
     20560 MEMB     154      POPC     H7R      HAL2     0.900000E-01   1.00800           0
     20561 MEMB     154      POPC     H7S      HAL2     0.900000E-01   1.00800           0
     20562 MEMB     154      POPC     C28      CTL2    -0.180000       12.0110           0
     20563 MEMB     154      POPC     H8R      HAL2     0.900000E-01   1.00800           0
     20564 MEMB     154      POPC     H8S      HAL2     0.900000E-01   1.00800           0
     20565 MEMB     154      POPC     C29      CEL1    -0.150000       12.0110           0
     20566 MEMB     154      POPC     H91      HEL1     0.150000       1.00800           0
     20567 MEMB     154      POPC     C210     CEL1    -0.150000       12.0110           0
     20568 MEMB     154      POPC     H101     HEL1     0.150000       1.00800           0
     20569 MEMB     154      POPC     C211     CTL2    -0.180000       12.0110           0
     20570 MEMB     154      POPC     H11R     HAL2     0.900000E-01   1.00800           0
     20571 MEMB     154      POPC     H11S     HAL2     0.900000E-01   1.00800           0
     20572 MEMB     154      POPC     C212     CTL2    -0.180000       12.0110           0
     20573 MEMB     154      POPC     H12R     HAL2     0.900000E-01   1.00800           0
     20574 MEMB     154      POPC     H12S     HAL2     0.900000E-01   1.00800           0
     20575 MEMB     154      POPC     C213     CTL2    -0.180000       12.0110           0
     20576 MEMB     154      POPC     H13R     HAL2     0.900000E-01   1.00800           0
     20577 MEMB     154      POPC     H13S     HAL2     0.900000E-01   1.00800           0
     20578 MEMB     154      POPC     C214     CTL2    -0.180000       12.0110           0
     20579 MEMB     154      POPC     H14R     HAL2     0.900000E-01   1.00800           0
     20580 MEMB     154      POPC     H14S     HAL2     0.900000E-01   1.00800           0
     20581 MEMB     154      POPC     C215     CTL2    -0.180000       12.0110           0
     20582 MEMB     154      POPC     H15R     HAL2     0.900000E-01   1.00800           0
     20583 MEMB     154      POPC     H15S     HAL2     0.900000E-01   1.00800           0
     20584 MEMB     154      POPC     C216     CTL2    -0.180000       12.0110           0
     20585 MEMB     154      POPC     H16R     HAL2     0.900000E-01   1.00800           0
     20586 MEMB     154      POPC     H16S     HAL2     0.900000E-01   1.00800           0
     20587 MEMB     154      POPC     C217     CTL2    -0.180000       12.0110           0
     20588 MEMB     154      POPC     H17R     HAL2     0.900000E-01   1.00800           0
     20589 MEMB     154      POPC     H17S     HAL2     0.900000E-01   1.00800           0
     20590 MEMB     154      POPC     C218     CTL3    -0.270000       12.0110           0
     20591 MEMB     154      POPC     H18R     HAL3     0.900000E-01   1.00800           0
     20592 MEMB     154      POPC     H18S     HAL3     0.900000E-01   1.00800           0
     20593 MEMB     154      POPC     H18T     HAL3     0.900000E-01   1.00800           0
     20594 MEMB     154      POPC     C33      CTL2    -0.180000       12.0110           0
     20595 MEMB     154      POPC     H3X      HAL2     0.900000E-01   1.00800           0
     20596 MEMB     154      POPC     H3Y      HAL2     0.900000E-01   1.00800           0
     20597 MEMB     154      POPC     C34      CTL2    -0.180000       12.0110           0
     20598 MEMB     154      POPC     H4X      HAL2     0.900000E-01   1.00800           0
     20599 MEMB     154      POPC     H4Y      HAL2     0.900000E-01   1.00800           0
     20600 MEMB     154      POPC     C35      CTL2    -0.180000       12.0110           0
     20601 MEMB     154      POPC     H5X      HAL2     0.900000E-01   1.00800           0
     20602 MEMB     154      POPC     H5Y      HAL2     0.900000E-01   1.00800           0
     20603 MEMB     154      POPC     C36      CTL2    -0.180000       12.0110           0
     20604 MEMB     154      POPC     H6X      HAL2     0.900000E-01   1.00800           0
     20605 MEMB     154      POPC     H6Y      HAL2     0.900000E-01   1.00800           0
     20606 MEMB     154      POPC     C37      CTL2    -0.180000       12.0110           0
     20607 MEMB     154      POPC     H7X      HAL2     0.900000E-01   1.00800           0
     20608 MEMB     154      POPC     H7Y      HAL2     0.900000E-01   1.00800           0
     20609 MEMB     154      POPC     C38      CTL2    -0.180000       12.0110           0
     20610 MEMB     154      POPC     H8X      HAL2     0.900000E-01   1.00800           0
     20611 MEMB     154      POPC     H8Y      HAL2     0.900000E-01   1.00800           0
     20612 MEMB     154      POPC     C39      CTL2    -0.180000       12.0110           0
     20613 MEMB     154      POPC     H9X      HAL2     0.900000E-01   1.00800           0
     20614 MEMB     154      POPC     H9Y      HAL2     0.900000E-01   1.00800           0
     20615 MEMB     154      POPC     C310     CTL2    -0.180000       12.0110           0
     20616 MEMB     154      POPC     H10X     HAL2     0.900000E-01   1.00800           0
     20617 MEMB     154      POPC     H10Y     HAL2     0.900000E-01   1.00800           0
     20618 MEMB     154      POPC     C311     CTL2    -0.180000       12.0110           0
     20619 MEMB     154      POPC     H11X     HAL2     0.900000E-01   1.00800           0
     20620 MEMB     154      POPC     H11Y     HAL2     0.900000E-01   1.00800           0
     20621 MEMB     154      POPC     C312     CTL2    -0.180000       12.0110           0
     20622 MEMB     154      POPC     H12X     HAL2     0.900000E-01   1.00800           0
     20623 MEMB     154      POPC     H12Y     HAL2     0.900000E-01   1.00800           0
     20624 MEMB     154      POPC     C313     CTL2    -0.180000       12.0110           0
     20625 MEMB     154      POPC     H13X     HAL2     0.900000E-01   1.00800           0
     20626 MEMB     154      POPC     H13Y     HAL2     0.900000E-01   1.00800           0
     20627 MEMB     154      POPC     C314     CTL2    -0.180000       12.0110           0
     20628 MEMB     154      POPC     H14X     HAL2     0.900000E-01   1.00800           0
     20629 MEMB     154      POPC     H14Y     HAL2     0.900000E-01   1.00800           0
     20630 MEMB     154      POPC     C315     CTL2    -0.180000       12.0110           0
     20631 MEMB     154      POPC     H15X     HAL2     0.900000E-01   1.00800           0
     20632 MEMB     154      POPC     H15Y     HAL2     0.900000E-01   1.00800           0
     20633 MEMB     154      POPC     C316     CTL3    -0.270000       12.0110           0
     20634 MEMB     154      POPC     H16X     HAL3     0.900000E-01   1.00800           0
     20635 MEMB     154      POPC     H16Y     HAL3     0.900000E-01   1.00800           0
     20636 MEMB     154      POPC     H16Z     HAL3     0.900000E-01   1.00800           0
     20637 MEMB     155      POPC     N        NTL     -0.600000       14.0070           0
     20638 MEMB     155      POPC     C12      CTL2    -0.100000       12.0110           0
     20639 MEMB     155      POPC     H12A     HL       0.250000       1.00800           0
     20640 MEMB     155      POPC     H12B     HL       0.250000       1.00800           0
     20641 MEMB     155      POPC     C13      CTL5    -0.350000       12.0110           0
     20642 MEMB     155      POPC     H13A     HL       0.250000       1.00800           0
     20643 MEMB     155      POPC     H13B     HL       0.250000       1.00800           0
     20644 MEMB     155      POPC     H13C     HL       0.250000       1.00800           0
     20645 MEMB     155      POPC     C14      CTL5    -0.350000       12.0110           0
     20646 MEMB     155      POPC     H14A     HL       0.250000       1.00800           0
     20647 MEMB     155      POPC     H14B     HL       0.250000       1.00800           0
     20648 MEMB     155      POPC     H14C     HL       0.250000       1.00800           0
     20649 MEMB     155      POPC     C15      CTL5    -0.350000       12.0110           0
     20650 MEMB     155      POPC     H15A     HL       0.250000       1.00800           0
     20651 MEMB     155      POPC     H15B     HL       0.250000       1.00800           0
     20652 MEMB     155      POPC     H15C     HL       0.250000       1.00800           0
     20653 MEMB     155      POPC     C11      CTL2    -0.800000E-01   12.0110           0
     20654 MEMB     155      POPC     H11A     HAL2     0.900000E-01   1.00800           0
     20655 MEMB     155      POPC     H11B     HAL2     0.900000E-01   1.00800           0
     20656 MEMB     155      POPC     P        PL       1.50000        30.9740           0
     20657 MEMB     155      POPC     O13      O2L     -0.780000       15.9994           0
     20658 MEMB     155      POPC     O14      O2L     -0.780000       15.9994           0
     20659 MEMB     155      POPC     O12      OSLP    -0.570000       15.9994           0
     20660 MEMB     155      POPC     O11      OSLP    -0.570000       15.9994           0
     20661 MEMB     155      POPC     C1       CTL2    -0.800000E-01   12.0110           0
     20662 MEMB     155      POPC     HA       HAL2     0.900000E-01   1.00800           0
     20663 MEMB     155      POPC     HB       HAL2     0.900000E-01   1.00800           0
     20664 MEMB     155      POPC     C2       CTL1     0.170000       12.0110           0
     20665 MEMB     155      POPC     HS       HAL1     0.900000E-01   1.00800           0
     20666 MEMB     155      POPC     O21      OSL     -0.490000       15.9994           0
     20667 MEMB     155      POPC     C21      CL       0.900000       12.0110           0
     20668 MEMB     155      POPC     O22      OBL     -0.630000       15.9994           0
     20669 MEMB     155      POPC     C22      CTL2    -0.220000       12.0110           0
     20670 MEMB     155      POPC     H2R      HAL2     0.900000E-01   1.00800           0
     20671 MEMB     155      POPC     H2S      HAL2     0.900000E-01   1.00800           0
     20672 MEMB     155      POPC     C3       CTL2     0.800000E-01   12.0110           0
     20673 MEMB     155      POPC     HX       HAL2     0.900000E-01   1.00800           0
     20674 MEMB     155      POPC     HY       HAL2     0.900000E-01   1.00800           0
     20675 MEMB     155      POPC     O31      OSL     -0.490000       15.9994           0
     20676 MEMB     155      POPC     C31      CL       0.900000       12.0110           0
     20677 MEMB     155      POPC     O32      OBL     -0.630000       15.9994           0
     20678 MEMB     155      POPC     C32      CTL2    -0.220000       12.0110           0
     20679 MEMB     155      POPC     H2X      HAL2     0.900000E-01   1.00800           0
     20680 MEMB     155      POPC     H2Y      HAL2     0.900000E-01   1.00800           0
     20681 MEMB     155      POPC     C23      CTL2    -0.180000       12.0110           0
     20682 MEMB     155      POPC     H3R      HAL2     0.900000E-01   1.00800           0
     20683 MEMB     155      POPC     H3S      HAL2     0.900000E-01   1.00800           0
     20684 MEMB     155      POPC     C24      CTL2    -0.180000       12.0110           0
     20685 MEMB     155      POPC     H4R      HAL2     0.900000E-01   1.00800           0
     20686 MEMB     155      POPC     H4S      HAL2     0.900000E-01   1.00800           0
     20687 MEMB     155      POPC     C25      CTL2    -0.180000       12.0110           0
     20688 MEMB     155      POPC     H5R      HAL2     0.900000E-01   1.00800           0
     20689 MEMB     155      POPC     H5S      HAL2     0.900000E-01   1.00800           0
     20690 MEMB     155      POPC     C26      CTL2    -0.180000       12.0110           0
     20691 MEMB     155      POPC     H6R      HAL2     0.900000E-01   1.00800           0
     20692 MEMB     155      POPC     H6S      HAL2     0.900000E-01   1.00800           0
     20693 MEMB     155      POPC     C27      CTL2    -0.180000       12.0110           0
     20694 MEMB     155      POPC     H7R      HAL2     0.900000E-01   1.00800           0
     20695 MEMB     155      POPC     H7S      HAL2     0.900000E-01   1.00800           0
     20696 MEMB     155      POPC     C28      CTL2    -0.180000       12.0110           0
     20697 MEMB     155      POPC     H8R      HAL2     0.900000E-01   1.00800           0
     20698 MEMB     155      POPC     H8S      HAL2     0.900000E-01   1.00800           0
     20699 MEMB     155      POPC     C29      CEL1    -0.150000       12.0110           0
     20700 MEMB     155      POPC     H91      HEL1     0.150000       1.00800           0
     20701 MEMB     155      POPC     C210     CEL1    -0.150000       12.0110           0
     20702 MEMB     155      POPC     H101     HEL1     0.150000       1.00800           0
     20703 MEMB     155      POPC     C211     CTL2    -0.180000       12.0110           0
     20704 MEMB     155      POPC     H11R     HAL2     0.900000E-01   1.00800           0
     20705 MEMB     155      POPC     H11S     HAL2     0.900000E-01   1.00800           0
     20706 MEMB     155      POPC     C212     CTL2    -0.180000       12.0110           0
     20707 MEMB     155      POPC     H12R     HAL2     0.900000E-01   1.00800           0
     20708 MEMB     155      POPC     H12S     HAL2     0.900000E-01   1.00800           0
     20709 MEMB     155      POPC     C213     CTL2    -0.180000       12.0110           0
     20710 MEMB     155      POPC     H13R     HAL2     0.900000E-01   1.00800           0
     20711 MEMB     155      POPC     H13S     HAL2     0.900000E-01   1.00800           0
     20712 MEMB     155      POPC     C214     CTL2    -0.180000       12.0110           0
     20713 MEMB     155      POPC     H14R     HAL2     0.900000E-01   1.00800           0
     20714 MEMB     155      POPC     H14S     HAL2     0.900000E-01   1.00800           0
     20715 MEMB     155      POPC     C215     CTL2    -0.180000       12.0110           0
     20716 MEMB     155      POPC     H15R     HAL2     0.900000E-01   1.00800           0
     20717 MEMB     155      POPC     H15S     HAL2     0.900000E-01   1.00800           0
     20718 MEMB     155      POPC     C216     CTL2    -0.180000       12.0110           0
     20719 MEMB     155      POPC     H16R     HAL2     0.900000E-01   1.00800           0
     20720 MEMB     155      POPC     H16S     HAL2     0.900000E-01   1.00800           0
     20721 MEMB     155      POPC     C217     CTL2    -0.180000       12.0110           0
     20722 MEMB     155      POPC     H17R     HAL2     0.900000E-01   1.00800           0
     20723 MEMB     155      POPC     H17S     HAL2     0.900000E-01   1.00800           0
     20724 MEMB     155      POPC     C218     CTL3    -0.270000       12.0110           0
     20725 MEMB     155      POPC     H18R     HAL3     0.900000E-01   1.00800           0
     20726 MEMB     155      POPC     H18S     HAL3     0.900000E-01   1.00800           0
     20727 MEMB     155      POPC     H18T     HAL3     0.900000E-01   1.00800           0
     20728 MEMB     155      POPC     C33      CTL2    -0.180000       12.0110           0
     20729 MEMB     155      POPC     H3X      HAL2     0.900000E-01   1.00800           0
     20730 MEMB     155      POPC     H3Y      HAL2     0.900000E-01   1.00800           0
     20731 MEMB     155      POPC     C34      CTL2    -0.180000       12.0110           0
     20732 MEMB     155      POPC     H4X      HAL2     0.900000E-01   1.00800           0
     20733 MEMB     155      POPC     H4Y      HAL2     0.900000E-01   1.00800           0
     20734 MEMB     155      POPC     C35      CTL2    -0.180000       12.0110           0
     20735 MEMB     155      POPC     H5X      HAL2     0.900000E-01   1.00800           0
     20736 MEMB     155      POPC     H5Y      HAL2     0.900000E-01   1.00800           0
     20737 MEMB     155      POPC     C36      CTL2    -0.180000       12.0110           0
     20738 MEMB     155      POPC     H6X      HAL2     0.900000E-01   1.00800           0
     20739 MEMB     155      POPC     H6Y      HAL2     0.900000E-01   1.00800           0
     20740 MEMB     155      POPC     C37      CTL2    -0.180000       12.0110           0
     20741 MEMB     155      POPC     H7X      HAL2     0.900000E-01   1.00800           0
     20742 MEMB     155      POPC     H7Y      HAL2     0.900000E-01   1.00800           0
     20743 MEMB     155      POPC     C38      CTL2    -0.180000       12.0110           0
     20744 MEMB     155      POPC     H8X      HAL2     0.900000E-01   1.00800           0
     20745 MEMB     155      POPC     H8Y      HAL2     0.900000E-01   1.00800           0
     20746 MEMB     155      POPC     C39      CTL2    -0.180000       12.0110           0
     20747 MEMB     155      POPC     H9X      HAL2     0.900000E-01   1.00800           0
     20748 MEMB     155      POPC     H9Y      HAL2     0.900000E-01   1.00800           0
     20749 MEMB     155      POPC     C310     CTL2    -0.180000       12.0110           0
     20750 MEMB     155      POPC     H10X     HAL2     0.900000E-01   1.00800           0
     20751 MEMB     155      POPC     H10Y     HAL2     0.900000E-01   1.00800           0
     20752 MEMB     155      POPC     C311     CTL2    -0.180000       12.0110           0
     20753 MEMB     155      POPC     H11X     HAL2     0.900000E-01   1.00800           0
     20754 MEMB     155      POPC     H11Y     HAL2     0.900000E-01   1.00800           0
     20755 MEMB     155      POPC     C312     CTL2    -0.180000       12.0110           0
     20756 MEMB     155      POPC     H12X     HAL2     0.900000E-01   1.00800           0
     20757 MEMB     155      POPC     H12Y     HAL2     0.900000E-01   1.00800           0
     20758 MEMB     155      POPC     C313     CTL2    -0.180000       12.0110           0
     20759 MEMB     155      POPC     H13X     HAL2     0.900000E-01   1.00800           0
     20760 MEMB     155      POPC     H13Y     HAL2     0.900000E-01   1.00800           0
     20761 MEMB     155      POPC     C314     CTL2    -0.180000       12.0110           0
     20762 MEMB     155      POPC     H14X     HAL2     0.900000E-01   1.00800           0
     20763 MEMB     155      POPC     H14Y     HAL2     0.900000E-01   1.00800           0
     20764 MEMB     155      POPC     C315     CTL2    -0.180000       12.0110           0
     20765 MEMB     155      POPC     H15X     HAL2     0.900000E-01   1.00800           0
     20766 MEMB     155      POPC     H15Y     HAL2     0.900000E-01   1.00800           0
     20767 MEMB     155      POPC     C316     CTL3    -0.270000       12.0110           0
     20768 MEMB     155      POPC     H16X     HAL3     0.900000E-01   1.00800           0
     20769 MEMB     155      POPC     H16Y     HAL3     0.900000E-01   1.00800           0
     20770 MEMB     155      POPC     H16Z     HAL3     0.900000E-01   1.00800           0
     20771 MEMB     156      POPC     N        NTL     -0.600000       14.0070           0
     20772 MEMB     156      POPC     C12      CTL2    -0.100000       12.0110           0
     20773 MEMB     156      POPC     H12A     HL       0.250000       1.00800           0
     20774 MEMB     156      POPC     H12B     HL       0.250000       1.00800           0
     20775 MEMB     156      POPC     C13      CTL5    -0.350000       12.0110           0
     20776 MEMB     156      POPC     H13A     HL       0.250000       1.00800           0
     20777 MEMB     156      POPC     H13B     HL       0.250000       1.00800           0
     20778 MEMB     156      POPC     H13C     HL       0.250000       1.00800           0
     20779 MEMB     156      POPC     C14      CTL5    -0.350000       12.0110           0
     20780 MEMB     156      POPC     H14A     HL       0.250000       1.00800           0
     20781 MEMB     156      POPC     H14B     HL       0.250000       1.00800           0
     20782 MEMB     156      POPC     H14C     HL       0.250000       1.00800           0
     20783 MEMB     156      POPC     C15      CTL5    -0.350000       12.0110           0
     20784 MEMB     156      POPC     H15A     HL       0.250000       1.00800           0
     20785 MEMB     156      POPC     H15B     HL       0.250000       1.00800           0
     20786 MEMB     156      POPC     H15C     HL       0.250000       1.00800           0
     20787 MEMB     156      POPC     C11      CTL2    -0.800000E-01   12.0110           0
     20788 MEMB     156      POPC     H11A     HAL2     0.900000E-01   1.00800           0
     20789 MEMB     156      POPC     H11B     HAL2     0.900000E-01   1.00800           0
     20790 MEMB     156      POPC     P        PL       1.50000        30.9740           0
     20791 MEMB     156      POPC     O13      O2L     -0.780000       15.9994           0
     20792 MEMB     156      POPC     O14      O2L     -0.780000       15.9994           0
     20793 MEMB     156      POPC     O12      OSLP    -0.570000       15.9994           0
     20794 MEMB     156      POPC     O11      OSLP    -0.570000       15.9994           0
     20795 MEMB     156      POPC     C1       CTL2    -0.800000E-01   12.0110           0
     20796 MEMB     156      POPC     HA       HAL2     0.900000E-01   1.00800           0
     20797 MEMB     156      POPC     HB       HAL2     0.900000E-01   1.00800           0
     20798 MEMB     156      POPC     C2       CTL1     0.170000       12.0110           0
     20799 MEMB     156      POPC     HS       HAL1     0.900000E-01   1.00800           0
     20800 MEMB     156      POPC     O21      OSL     -0.490000       15.9994           0
     20801 MEMB     156      POPC     C21      CL       0.900000       12.0110           0
     20802 MEMB     156      POPC     O22      OBL     -0.630000       15.9994           0
     20803 MEMB     156      POPC     C22      CTL2    -0.220000       12.0110           0
     20804 MEMB     156      POPC     H2R      HAL2     0.900000E-01   1.00800           0
     20805 MEMB     156      POPC     H2S      HAL2     0.900000E-01   1.00800           0
     20806 MEMB     156      POPC     C3       CTL2     0.800000E-01   12.0110           0
     20807 MEMB     156      POPC     HX       HAL2     0.900000E-01   1.00800           0
     20808 MEMB     156      POPC     HY       HAL2     0.900000E-01   1.00800           0
     20809 MEMB     156      POPC     O31      OSL     -0.490000       15.9994           0
     20810 MEMB     156      POPC     C31      CL       0.900000       12.0110           0
     20811 MEMB     156      POPC     O32      OBL     -0.630000       15.9994           0
     20812 MEMB     156      POPC     C32      CTL2    -0.220000       12.0110           0
     20813 MEMB     156      POPC     H2X      HAL2     0.900000E-01   1.00800           0
     20814 MEMB     156      POPC     H2Y      HAL2     0.900000E-01   1.00800           0
     20815 MEMB     156      POPC     C23      CTL2    -0.180000       12.0110           0
     20816 MEMB     156      POPC     H3R      HAL2     0.900000E-01   1.00800           0
     20817 MEMB     156      POPC     H3S      HAL2     0.900000E-01   1.00800           0
     20818 MEMB     156      POPC     C24      CTL2    -0.180000       12.0110           0
     20819 MEMB     156      POPC     H4R      HAL2     0.900000E-01   1.00800           0
     20820 MEMB     156      POPC     H4S      HAL2     0.900000E-01   1.00800           0
     20821 MEMB     156      POPC     C25      CTL2    -0.180000       12.0110           0
     20822 MEMB     156      POPC     H5R      HAL2     0.900000E-01   1.00800           0
     20823 MEMB     156      POPC     H5S      HAL2     0.900000E-01   1.00800           0
     20824 MEMB     156      POPC     C26      CTL2    -0.180000       12.0110           0
     20825 MEMB     156      POPC     H6R      HAL2     0.900000E-01   1.00800           0
     20826 MEMB     156      POPC     H6S      HAL2     0.900000E-01   1.00800           0
     20827 MEMB     156      POPC     C27      CTL2    -0.180000       12.0110           0
     20828 MEMB     156      POPC     H7R      HAL2     0.900000E-01   1.00800           0
     20829 MEMB     156      POPC     H7S      HAL2     0.900000E-01   1.00800           0
     20830 MEMB     156      POPC     C28      CTL2    -0.180000       12.0110           0
     20831 MEMB     156      POPC     H8R      HAL2     0.900000E-01   1.00800           0
     20832 MEMB     156      POPC     H8S      HAL2     0.900000E-01   1.00800           0
     20833 MEMB     156      POPC     C29      CEL1    -0.150000       12.0110           0
     20834 MEMB     156      POPC     H91      HEL1     0.150000       1.00800           0
     20835 MEMB     156      POPC     C210     CEL1    -0.150000       12.0110           0
     20836 MEMB     156      POPC     H101     HEL1     0.150000       1.00800           0
     20837 MEMB     156      POPC     C211     CTL2    -0.180000       12.0110           0
     20838 MEMB     156      POPC     H11R     HAL2     0.900000E-01   1.00800           0
     20839 MEMB     156      POPC     H11S     HAL2     0.900000E-01   1.00800           0
     20840 MEMB     156      POPC     C212     CTL2    -0.180000       12.0110           0
     20841 MEMB     156      POPC     H12R     HAL2     0.900000E-01   1.00800           0
     20842 MEMB     156      POPC     H12S     HAL2     0.900000E-01   1.00800           0
     20843 MEMB     156      POPC     C213     CTL2    -0.180000       12.0110           0
     20844 MEMB     156      POPC     H13R     HAL2     0.900000E-01   1.00800           0
     20845 MEMB     156      POPC     H13S     HAL2     0.900000E-01   1.00800           0
     20846 MEMB     156      POPC     C214     CTL2    -0.180000       12.0110           0
     20847 MEMB     156      POPC     H14R     HAL2     0.900000E-01   1.00800           0
     20848 MEMB     156      POPC     H14S     HAL2     0.900000E-01   1.00800           0
     20849 MEMB     156      POPC     C215     CTL2    -0.180000       12.0110           0
     20850 MEMB     156      POPC     H15R     HAL2     0.900000E-01   1.00800           0
     20851 MEMB     156      POPC     H15S     HAL2     0.900000E-01   1.00800           0
     20852 MEMB     156      POPC     C216     CTL2    -0.180000       12.0110           0
     20853 MEMB     156      POPC     H16R     HAL2     0.900000E-01   1.00800           0
     20854 MEMB     156      POPC     H16S     HAL2     0.900000E-01   1.00800           0
     20855 MEMB     156      POPC     C217     CTL2    -0.180000       12.0110           0
     20856 MEMB     156      POPC     H17R     HAL2     0.900000E-01   1.00800           0
     20857 MEMB     156      POPC     H17S     HAL2     0.900000E-01   1.00800           0
     20858 MEMB     156      POPC     C218     CTL3    -0.270000       12.0110           0
     20859 MEMB     156      POPC     H18R     HAL3     0.900000E-01   1.00800           0
     20860 MEMB     156      POPC     H18S     HAL3     0.900000E-01   1.00800           0
     20861 MEMB     156      POPC     H18T     HAL3     0.900000E-01   1.00800           0
     20862 MEMB     156      POPC     C33      CTL2    -0.180000       12.0110           0
     20863 MEMB     156      POPC     H3X      HAL2     0.900000E-01   1.00800           0
     20864 MEMB     156      POPC     H3Y      HAL2     0.900000E-01   1.00800           0
     20865 MEMB     156      POPC     C34      CTL2    -0.180000       12.0110           0
     20866 MEMB     156      POPC     H4X      HAL2     0.900000E-01   1.00800           0
     20867 MEMB     156      POPC     H4Y      HAL2     0.900000E-01   1.00800           0
     20868 MEMB     156      POPC     C35      CTL2    -0.180000       12.0110           0
     20869 MEMB     156      POPC     H5X      HAL2     0.900000E-01   1.00800           0
     20870 MEMB     156      POPC     H5Y      HAL2     0.900000E-01   1.00800           0
     20871 MEMB     156      POPC     C36      CTL2    -0.180000       12.0110           0
     20872 MEMB     156      POPC     H6X      HAL2     0.900000E-01   1.00800           0
     20873 MEMB     156      POPC     H6Y      HAL2     0.900000E-01   1.00800           0
     20874 MEMB     156      POPC     C37      CTL2    -0.180000       12.0110           0
     20875 MEMB     156      POPC     H7X      HAL2     0.900000E-01   1.00800           0
     20876 MEMB     156      POPC     H7Y      HAL2     0.900000E-01   1.00800           0
     20877 MEMB     156      POPC     C38      CTL2    -0.180000       12.0110           0
     20878 MEMB     156      POPC     H8X      HAL2     0.900000E-01   1.00800           0
     20879 MEMB     156      POPC     H8Y      HAL2     0.900000E-01   1.00800           0
     20880 MEMB     156      POPC     C39      CTL2    -0.180000       12.0110           0
     20881 MEMB     156      POPC     H9X      HAL2     0.900000E-01   1.00800           0
     20882 MEMB     156      POPC     H9Y      HAL2     0.900000E-01   1.00800           0
     20883 MEMB     156      POPC     C310     CTL2    -0.180000       12.0110           0
     20884 MEMB     156      POPC     H10X     HAL2     0.900000E-01   1.00800           0
     20885 MEMB     156      POPC     H10Y     HAL2     0.900000E-01   1.00800           0
     20886 MEMB     156      POPC     C311     CTL2    -0.180000       12.0110           0
     20887 MEMB     156      POPC     H11X     HAL2     0.900000E-01   1.00800           0
     20888 MEMB     156      POPC     H11Y     HAL2     0.900000E-01   1.00800           0
     20889 MEMB     156      POPC     C312     CTL2    -0.180000       12.0110           0
     20890 MEMB     156      POPC     H12X     HAL2     0.900000E-01   1.00800           0
     20891 MEMB     156      POPC     H12Y     HAL2     0.900000E-01   1.00800           0
     20892 MEMB     156      POPC     C313     CTL2    -0.180000       12.0110           0
     20893 MEMB     156      POPC     H13X     HAL2     0.900000E-01   1.00800           0
     20894 MEMB     156      POPC     H13Y     HAL2     0.900000E-01   1.00800           0
     20895 MEMB     156      POPC     C314     CTL2    -0.180000       12.0110           0
     20896 MEMB     156      POPC     H14X     HAL2     0.900000E-01   1.00800           0
     20897 MEMB     156      POPC     H14Y     HAL2     0.900000E-01   1.00800           0
     20898 MEMB     156      POPC     C315     CTL2    -0.180000       12.0110           0
     20899 MEMB     156      POPC     H15X     HAL2     0.900000E-01   1.00800           0
     20900 MEMB     156      POPC     H15Y     HAL2     0.900000E-01   1.00800           0
     20901 MEMB     156      POPC     C316     CTL3    -0.270000       12.0110           0
     20902 MEMB     156      POPC     H16X     HAL3     0.900000E-01   1.00800           0
     20903 MEMB     156      POPC     H16Y     HAL3     0.900000E-01   1.00800           0
     20904 MEMB     156      POPC     H16Z     HAL3     0.900000E-01   1.00800           0
     20905 MEMB     157      POPC     N        NTL     -0.600000       14.0070           0
     20906 MEMB     157      POPC     C12      CTL2    -0.100000       12.0110           0
     20907 MEMB     157      POPC     H12A     HL       0.250000       1.00800           0
     20908 MEMB     157      POPC     H12B     HL       0.250000       1.00800           0
     20909 MEMB     157      POPC     C13      CTL5    -0.350000       12.0110           0
     20910 MEMB     157      POPC     H13A     HL       0.250000       1.00800           0
     20911 MEMB     157      POPC     H13B     HL       0.250000       1.00800           0
     20912 MEMB     157      POPC     H13C     HL       0.250000       1.00800           0
     20913 MEMB     157      POPC     C14      CTL5    -0.350000       12.0110           0
     20914 MEMB     157      POPC     H14A     HL       0.250000       1.00800           0
     20915 MEMB     157      POPC     H14B     HL       0.250000       1.00800           0
     20916 MEMB     157      POPC     H14C     HL       0.250000       1.00800           0
     20917 MEMB     157      POPC     C15      CTL5    -0.350000       12.0110           0
     20918 MEMB     157      POPC     H15A     HL       0.250000       1.00800           0
     20919 MEMB     157      POPC     H15B     HL       0.250000       1.00800           0
     20920 MEMB     157      POPC     H15C     HL       0.250000       1.00800           0
     20921 MEMB     157      POPC     C11      CTL2    -0.800000E-01   12.0110           0
     20922 MEMB     157      POPC     H11A     HAL2     0.900000E-01   1.00800           0
     20923 MEMB     157      POPC     H11B     HAL2     0.900000E-01   1.00800           0
     20924 MEMB     157      POPC     P        PL       1.50000        30.9740           0
     20925 MEMB     157      POPC     O13      O2L     -0.780000       15.9994           0
     20926 MEMB     157      POPC     O14      O2L     -0.780000       15.9994           0
     20927 MEMB     157      POPC     O12      OSLP    -0.570000       15.9994           0
     20928 MEMB     157      POPC     O11      OSLP    -0.570000       15.9994           0
     20929 MEMB     157      POPC     C1       CTL2    -0.800000E-01   12.0110           0
     20930 MEMB     157      POPC     HA       HAL2     0.900000E-01   1.00800           0
     20931 MEMB     157      POPC     HB       HAL2     0.900000E-01   1.00800           0
     20932 MEMB     157      POPC     C2       CTL1     0.170000       12.0110           0
     20933 MEMB     157      POPC     HS       HAL1     0.900000E-01   1.00800           0
     20934 MEMB     157      POPC     O21      OSL     -0.490000       15.9994           0
     20935 MEMB     157      POPC     C21      CL       0.900000       12.0110           0
     20936 MEMB     157      POPC     O22      OBL     -0.630000       15.9994           0
     20937 MEMB     157      POPC     C22      CTL2    -0.220000       12.0110           0
     20938 MEMB     157      POPC     H2R      HAL2     0.900000E-01   1.00800           0
     20939 MEMB     157      POPC     H2S      HAL2     0.900000E-01   1.00800           0
     20940 MEMB     157      POPC     C3       CTL2     0.800000E-01   12.0110           0
     20941 MEMB     157      POPC     HX       HAL2     0.900000E-01   1.00800           0
     20942 MEMB     157      POPC     HY       HAL2     0.900000E-01   1.00800           0
     20943 MEMB     157      POPC     O31      OSL     -0.490000       15.9994           0
     20944 MEMB     157      POPC     C31      CL       0.900000       12.0110           0
     20945 MEMB     157      POPC     O32      OBL     -0.630000       15.9994           0
     20946 MEMB     157      POPC     C32      CTL2    -0.220000       12.0110           0
     20947 MEMB     157      POPC     H2X      HAL2     0.900000E-01   1.00800           0
     20948 MEMB     157      POPC     H2Y      HAL2     0.900000E-01   1.00800           0
     20949 MEMB     157      POPC     C23      CTL2    -0.180000       12.0110           0
     20950 MEMB     157      POPC     H3R      HAL2     0.900000E-01   1.00800           0
     20951 MEMB     157      POPC     H3S      HAL2     0.900000E-01   1.00800           0
     20952 MEMB     157      POPC     C24      CTL2    -0.180000       12.0110           0
     20953 MEMB     157      POPC     H4R      HAL2     0.900000E-01   1.00800           0
     20954 MEMB     157      POPC     H4S      HAL2     0.900000E-01   1.00800           0
     20955 MEMB     157      POPC     C25      CTL2    -0.180000       12.0110           0
     20956 MEMB     157      POPC     H5R      HAL2     0.900000E-01   1.00800           0
     20957 MEMB     157      POPC     H5S      HAL2     0.900000E-01   1.00800           0
     20958 MEMB     157      POPC     C26      CTL2    -0.180000       12.0110           0
     20959 MEMB     157      POPC     H6R      HAL2     0.900000E-01   1.00800           0
     20960 MEMB     157      POPC     H6S      HAL2     0.900000E-01   1.00800           0
     20961 MEMB     157      POPC     C27      CTL2    -0.180000       12.0110           0
     20962 MEMB     157      POPC     H7R      HAL2     0.900000E-01   1.00800           0
     20963 MEMB     157      POPC     H7S      HAL2     0.900000E-01   1.00800           0
     20964 MEMB     157      POPC     C28      CTL2    -0.180000       12.0110           0
     20965 MEMB     157      POPC     H8R      HAL2     0.900000E-01   1.00800           0
     20966 MEMB     157      POPC     H8S      HAL2     0.900000E-01   1.00800           0
     20967 MEMB     157      POPC     C29      CEL1    -0.150000       12.0110           0
     20968 MEMB     157      POPC     H91      HEL1     0.150000       1.00800           0
     20969 MEMB     157      POPC     C210     CEL1    -0.150000       12.0110           0
     20970 MEMB     157      POPC     H101     HEL1     0.150000       1.00800           0
     20971 MEMB     157      POPC     C211     CTL2    -0.180000       12.0110           0
     20972 MEMB     157      POPC     H11R     HAL2     0.900000E-01   1.00800           0
     20973 MEMB     157      POPC     H11S     HAL2     0.900000E-01   1.00800           0
     20974 MEMB     157      POPC     C212     CTL2    -0.180000       12.0110           0
     20975 MEMB     157      POPC     H12R     HAL2     0.900000E-01   1.00800           0
     20976 MEMB     157      POPC     H12S     HAL2     0.900000E-01   1.00800           0
     20977 MEMB     157      POPC     C213     CTL2    -0.180000       12.0110           0
     20978 MEMB     157      POPC     H13R     HAL2     0.900000E-01   1.00800           0
     20979 MEMB     157      POPC     H13S     HAL2     0.900000E-01   1.00800           0
     20980 MEMB     157      POPC     C214     CTL2    -0.180000       12.0110           0
     20981 MEMB     157      POPC     H14R     HAL2     0.900000E-01   1.00800           0
     20982 MEMB     157      POPC     H14S     HAL2     0.900000E-01   1.00800           0
     20983 MEMB     157      POPC     C215     CTL2    -0.180000       12.0110           0
     20984 MEMB     157      POPC     H15R     HAL2     0.900000E-01   1.00800           0
     20985 MEMB     157      POPC     H15S     HAL2     0.900000E-01   1.00800           0
     20986 MEMB     157      POPC     C216     CTL2    -0.180000       12.0110           0
     20987 MEMB     157      POPC     H16R     HAL2     0.900000E-01   1.00800           0
     20988 MEMB     157      POPC     H16S     HAL2     0.900000E-01   1.00800           0
     20989 MEMB     157      POPC     C217     CTL2    -0.180000       12.0110           0
     20990 MEMB     157      POPC     H17R     HAL2     0.900000E-01   1.00800           0
     20991 MEMB     157      POPC     H17S     HAL2     0.900000E-01   1.00800           0
     20992 MEMB     157      POPC     C218     CTL3    -0.270000       12.0110           0
     20993 MEMB     157      POPC     H18R     HAL3     0.900000E-01   1.00800           0
     20994 MEMB     157      POPC     H18S     HAL3     0.900000E-01   1.00800           0
     20995 MEMB     157      POPC     H18T     HAL3     0.900000E-01   1.00800           0
     20996 MEMB     157      POPC     C33      CTL2    -0.180000       12.0110           0
     20997 MEMB     157      POPC     H3X      HAL2     0.900000E-01   1.00800           0
     20998 MEMB     157      POPC     H3Y      HAL2     0.900000E-01   1.00800           0
     20999 MEMB     157      POPC     C34      CTL2    -0.180000       12.0110           0
     21000 MEMB     157      POPC     H4X      HAL2     0.900000E-01   1.00800           0
     21001 MEMB     157      POPC     H4Y      HAL2     0.900000E-01   1.00800           0
     21002 MEMB     157      POPC     C35      CTL2    -0.180000       12.0110           0
     21003 MEMB     157      POPC     H5X      HAL2     0.900000E-01   1.00800           0
     21004 MEMB     157      POPC     H5Y      HAL2     0.900000E-01   1.00800           0
     21005 MEMB     157      POPC     C36      CTL2    -0.180000       12.0110           0
     21006 MEMB     157      POPC     H6X      HAL2     0.900000E-01   1.00800           0
     21007 MEMB     157      POPC     H6Y      HAL2     0.900000E-01   1.00800           0
     21008 MEMB     157      POPC     C37      CTL2    -0.180000       12.0110           0
     21009 MEMB     157      POPC     H7X      HAL2     0.900000E-01   1.00800           0
     21010 MEMB     157      POPC     H7Y      HAL2     0.900000E-01   1.00800           0
     21011 MEMB     157      POPC     C38      CTL2    -0.180000       12.0110           0
     21012 MEMB     157      POPC     H8X      HAL2     0.900000E-01   1.00800           0
     21013 MEMB     157      POPC     H8Y      HAL2     0.900000E-01   1.00800           0
     21014 MEMB     157      POPC     C39      CTL2    -0.180000       12.0110           0
     21015 MEMB     157      POPC     H9X      HAL2     0.900000E-01   1.00800           0
     21016 MEMB     157      POPC     H9Y      HAL2     0.900000E-01   1.00800           0
     21017 MEMB     157      POPC     C310     CTL2    -0.180000       12.0110           0
     21018 MEMB     157      POPC     H10X     HAL2     0.900000E-01   1.00800           0
     21019 MEMB     157      POPC     H10Y     HAL2     0.900000E-01   1.00800           0
     21020 MEMB     157      POPC     C311     CTL2    -0.180000       12.0110           0
     21021 MEMB     157      POPC     H11X     HAL2     0.900000E-01   1.00800           0
     21022 MEMB     157      POPC     H11Y     HAL2     0.900000E-01   1.00800           0
     21023 MEMB     157      POPC     C312     CTL2    -0.180000       12.0110           0
     21024 MEMB     157      POPC     H12X     HAL2     0.900000E-01   1.00800           0
     21025 MEMB     157      POPC     H12Y     HAL2     0.900000E-01   1.00800           0
     21026 MEMB     157      POPC     C313     CTL2    -0.180000       12.0110           0
     21027 MEMB     157      POPC     H13X     HAL2     0.900000E-01   1.00800           0
     21028 MEMB     157      POPC     H13Y     HAL2     0.900000E-01   1.00800           0
     21029 MEMB     157      POPC     C314     CTL2    -0.180000       12.0110           0
     21030 MEMB     157      POPC     H14X     HAL2     0.900000E-01   1.00800           0
     21031 MEMB     157      POPC     H14Y     HAL2     0.900000E-01   1.00800           0
     21032 MEMB     157      POPC     C315     CTL2    -0.180000       12.0110           0
     21033 MEMB     157      POPC     H15X     HAL2     0.900000E-01   1.00800           0
     21034 MEMB     157      POPC     H15Y     HAL2     0.900000E-01   1.00800           0
     21035 MEMB     157      POPC     C316     CTL3    -0.270000       12.0110           0
     21036 MEMB     157      POPC     H16X     HAL3     0.900000E-01   1.00800           0
     21037 MEMB     157      POPC     H16Y     HAL3     0.900000E-01   1.00800           0
     21038 MEMB     157      POPC     H16Z     HAL3     0.900000E-01   1.00800           0
     21039 MEMB     158      POPC     N        NTL     -0.600000       14.0070           0
     21040 MEMB     158      POPC     C12      CTL2    -0.100000       12.0110           0
     21041 MEMB     158      POPC     H12A     HL       0.250000       1.00800           0
     21042 MEMB     158      POPC     H12B     HL       0.250000       1.00800           0
     21043 MEMB     158      POPC     C13      CTL5    -0.350000       12.0110           0
     21044 MEMB     158      POPC     H13A     HL       0.250000       1.00800           0
     21045 MEMB     158      POPC     H13B     HL       0.250000       1.00800           0
     21046 MEMB     158      POPC     H13C     HL       0.250000       1.00800           0
     21047 MEMB     158      POPC     C14      CTL5    -0.350000       12.0110           0
     21048 MEMB     158      POPC     H14A     HL       0.250000       1.00800           0
     21049 MEMB     158      POPC     H14B     HL       0.250000       1.00800           0
     21050 MEMB     158      POPC     H14C     HL       0.250000       1.00800           0
     21051 MEMB     158      POPC     C15      CTL5    -0.350000       12.0110           0
     21052 MEMB     158      POPC     H15A     HL       0.250000       1.00800           0
     21053 MEMB     158      POPC     H15B     HL       0.250000       1.00800           0
     21054 MEMB     158      POPC     H15C     HL       0.250000       1.00800           0
     21055 MEMB     158      POPC     C11      CTL2    -0.800000E-01   12.0110           0
     21056 MEMB     158      POPC     H11A     HAL2     0.900000E-01   1.00800           0
     21057 MEMB     158      POPC     H11B     HAL2     0.900000E-01   1.00800           0
     21058 MEMB     158      POPC     P        PL       1.50000        30.9740           0
     21059 MEMB     158      POPC     O13      O2L     -0.780000       15.9994           0
     21060 MEMB     158      POPC     O14      O2L     -0.780000       15.9994           0
     21061 MEMB     158      POPC     O12      OSLP    -0.570000       15.9994           0
     21062 MEMB     158      POPC     O11      OSLP    -0.570000       15.9994           0
     21063 MEMB     158      POPC     C1       CTL2    -0.800000E-01   12.0110           0
     21064 MEMB     158      POPC     HA       HAL2     0.900000E-01   1.00800           0
     21065 MEMB     158      POPC     HB       HAL2     0.900000E-01   1.00800           0
     21066 MEMB     158      POPC     C2       CTL1     0.170000       12.0110           0
     21067 MEMB     158      POPC     HS       HAL1     0.900000E-01   1.00800           0
     21068 MEMB     158      POPC     O21      OSL     -0.490000       15.9994           0
     21069 MEMB     158      POPC     C21      CL       0.900000       12.0110           0
     21070 MEMB     158      POPC     O22      OBL     -0.630000       15.9994           0
     21071 MEMB     158      POPC     C22      CTL2    -0.220000       12.0110           0
     21072 MEMB     158      POPC     H2R      HAL2     0.900000E-01   1.00800           0
     21073 MEMB     158      POPC     H2S      HAL2     0.900000E-01   1.00800           0
     21074 MEMB     158      POPC     C3       CTL2     0.800000E-01   12.0110           0
     21075 MEMB     158      POPC     HX       HAL2     0.900000E-01   1.00800           0
     21076 MEMB     158      POPC     HY       HAL2     0.900000E-01   1.00800           0
     21077 MEMB     158      POPC     O31      OSL     -0.490000       15.9994           0
     21078 MEMB     158      POPC     C31      CL       0.900000       12.0110           0
     21079 MEMB     158      POPC     O32      OBL     -0.630000       15.9994           0
     21080 MEMB     158      POPC     C32      CTL2    -0.220000       12.0110           0
     21081 MEMB     158      POPC     H2X      HAL2     0.900000E-01   1.00800           0
     21082 MEMB     158      POPC     H2Y      HAL2     0.900000E-01   1.00800           0
     21083 MEMB     158      POPC     C23      CTL2    -0.180000       12.0110           0
     21084 MEMB     158      POPC     H3R      HAL2     0.900000E-01   1.00800           0
     21085 MEMB     158      POPC     H3S      HAL2     0.900000E-01   1.00800           0
     21086 MEMB     158      POPC     C24      CTL2    -0.180000       12.0110           0
     21087 MEMB     158      POPC     H4R      HAL2     0.900000E-01   1.00800           0
     21088 MEMB     158      POPC     H4S      HAL2     0.900000E-01   1.00800           0
     21089 MEMB     158      POPC     C25      CTL2    -0.180000       12.0110           0
     21090 MEMB     158      POPC     H5R      HAL2     0.900000E-01   1.00800           0
     21091 MEMB     158      POPC     H5S      HAL2     0.900000E-01   1.00800           0
     21092 MEMB     158      POPC     C26      CTL2    -0.180000       12.0110           0
     21093 MEMB     158      POPC     H6R      HAL2     0.900000E-01   1.00800           0
     21094 MEMB     158      POPC     H6S      HAL2     0.900000E-01   1.00800           0
     21095 MEMB     158      POPC     C27      CTL2    -0.180000       12.0110           0
     21096 MEMB     158      POPC     H7R      HAL2     0.900000E-01   1.00800           0
     21097 MEMB     158      POPC     H7S      HAL2     0.900000E-01   1.00800           0
     21098 MEMB     158      POPC     C28      CTL2    -0.180000       12.0110           0
     21099 MEMB     158      POPC     H8R      HAL2     0.900000E-01   1.00800           0
     21100 MEMB     158      POPC     H8S      HAL2     0.900000E-01   1.00800           0
     21101 MEMB     158      POPC     C29      CEL1    -0.150000       12.0110           0
     21102 MEMB     158      POPC     H91      HEL1     0.150000       1.00800           0
     21103 MEMB     158      POPC     C210     CEL1    -0.150000       12.0110           0
     21104 MEMB     158      POPC     H101     HEL1     0.150000       1.00800           0
     21105 MEMB     158      POPC     C211     CTL2    -0.180000       12.0110           0
     21106 MEMB     158      POPC     H11R     HAL2     0.900000E-01   1.00800           0
     21107 MEMB     158      POPC     H11S     HAL2     0.900000E-01   1.00800           0
     21108 MEMB     158      POPC     C212     CTL2    -0.180000       12.0110           0
     21109 MEMB     158      POPC     H12R     HAL2     0.900000E-01   1.00800           0
     21110 MEMB     158      POPC     H12S     HAL2     0.900000E-01   1.00800           0
     21111 MEMB     158      POPC     C213     CTL2    -0.180000       12.0110           0
     21112 MEMB     158      POPC     H13R     HAL2     0.900000E-01   1.00800           0
     21113 MEMB     158      POPC     H13S     HAL2     0.900000E-01   1.00800           0
     21114 MEMB     158      POPC     C214     CTL2    -0.180000       12.0110           0
     21115 MEMB     158      POPC     H14R     HAL2     0.900000E-01   1.00800           0
     21116 MEMB     158      POPC     H14S     HAL2     0.900000E-01   1.00800           0
     21117 MEMB     158      POPC     C215     CTL2    -0.180000       12.0110           0
     21118 MEMB     158      POPC     H15R     HAL2     0.900000E-01   1.00800           0
     21119 MEMB     158      POPC     H15S     HAL2     0.900000E-01   1.00800           0
     21120 MEMB     158      POPC     C216     CTL2    -0.180000       12.0110           0
     21121 MEMB     158      POPC     H16R     HAL2     0.900000E-01   1.00800           0
     21122 MEMB     158      POPC     H16S     HAL2     0.900000E-01   1.00800           0
     21123 MEMB     158      POPC     C217     CTL2    -0.180000       12.0110           0
     21124 MEMB     158      POPC     H17R     HAL2     0.900000E-01   1.00800           0
     21125 MEMB     158      POPC     H17S     HAL2     0.900000E-01   1.00800           0
     21126 MEMB     158      POPC     C218     CTL3    -0.270000       12.0110           0
     21127 MEMB     158      POPC     H18R     HAL3     0.900000E-01   1.00800           0
     21128 MEMB     158      POPC     H18S     HAL3     0.900000E-01   1.00800           0
     21129 MEMB     158      POPC     H18T     HAL3     0.900000E-01   1.00800           0
     21130 MEMB     158      POPC     C33      CTL2    -0.180000       12.0110           0
     21131 MEMB     158      POPC     H3X      HAL2     0.900000E-01   1.00800           0
     21132 MEMB     158      POPC     H3Y      HAL2     0.900000E-01   1.00800           0
     21133 MEMB     158      POPC     C34      CTL2    -0.180000       12.0110           0
     21134 MEMB     158      POPC     H4X      HAL2     0.900000E-01   1.00800           0
     21135 MEMB     158      POPC     H4Y      HAL2     0.900000E-01   1.00800           0
     21136 MEMB     158      POPC     C35      CTL2    -0.180000       12.0110           0
     21137 MEMB     158      POPC     H5X      HAL2     0.900000E-01   1.00800           0
     21138 MEMB     158      POPC     H5Y      HAL2     0.900000E-01   1.00800           0
     21139 MEMB     158      POPC     C36      CTL2    -0.180000       12.0110           0
     21140 MEMB     158      POPC     H6X      HAL2     0.900000E-01   1.00800           0
     21141 MEMB     158      POPC     H6Y      HAL2     0.900000E-01   1.00800           0
     21142 MEMB     158      POPC     C37      CTL2    -0.180000       12.0110           0
     21143 MEMB     158      POPC     H7X      HAL2     0.900000E-01   1.00800           0
     21144 MEMB     158      POPC     H7Y      HAL2     0.900000E-01   1.00800           0
     21145 MEMB     158      POPC     C38      CTL2    -0.180000       12.0110           0
     21146 MEMB     158      POPC     H8X      HAL2     0.900000E-01   1.00800           0
     21147 MEMB     158      POPC     H8Y      HAL2     0.900000E-01   1.00800           0
     21148 MEMB     158      POPC     C39      CTL2    -0.180000       12.0110           0
     21149 MEMB     158      POPC     H9X      HAL2     0.900000E-01   1.00800           0
     21150 MEMB     158      POPC     H9Y      HAL2     0.900000E-01   1.00800           0
     21151 MEMB     158      POPC     C310     CTL2    -0.180000       12.0110           0
     21152 MEMB     158      POPC     H10X     HAL2     0.900000E-01   1.00800           0
     21153 MEMB     158      POPC     H10Y     HAL2     0.900000E-01   1.00800           0
     21154 MEMB     158      POPC     C311     CTL2    -0.180000       12.0110           0
     21155 MEMB     158      POPC     H11X     HAL2     0.900000E-01   1.00800           0
     21156 MEMB     158      POPC     H11Y     HAL2     0.900000E-01   1.00800           0
     21157 MEMB     158      POPC     C312     CTL2    -0.180000       12.0110           0
     21158 MEMB     158      POPC     H12X     HAL2     0.900000E-01   1.00800           0
     21159 MEMB     158      POPC     H12Y     HAL2     0.900000E-01   1.00800           0
     21160 MEMB     158      POPC     C313     CTL2    -0.180000       12.0110           0
     21161 MEMB     158      POPC     H13X     HAL2     0.900000E-01   1.00800           0
     21162 MEMB     158      POPC     H13Y     HAL2     0.900000E-01   1.00800           0
     21163 MEMB     158      POPC     C314     CTL2    -0.180000       12.0110           0
     21164 MEMB     158      POPC     H14X     HAL2     0.900000E-01   1.00800           0
     21165 MEMB     158      POPC     H14Y     HAL2     0.900000E-01   1.00800           0
     21166 MEMB     158      POPC     C315     CTL2    -0.180000       12.0110           0
     21167 MEMB     158      POPC     H15X     HAL2     0.900000E-01   1.00800           0
     21168 MEMB     158      POPC     H15Y     HAL2     0.900000E-01   1.00800           0
     21169 MEMB     158      POPC     C316     CTL3    -0.270000       12.0110           0
     21170 MEMB     158      POPC     H16X     HAL3     0.900000E-01   1.00800           0
     21171 MEMB     158      POPC     H16Y     HAL3     0.900000E-01   1.00800           0
     21172 MEMB     158      POPC     H16Z     HAL3     0.900000E-01   1.00800           0
     21173 MEMB     159      POPC     N        NTL     -0.600000       14.0070           0
     21174 MEMB     159      POPC     C12      CTL2    -0.100000       12.0110           0
     21175 MEMB     159      POPC     H12A     HL       0.250000       1.00800           0
     21176 MEMB     159      POPC     H12B     HL       0.250000       1.00800           0
     21177 MEMB     159      POPC     C13      CTL5    -0.350000       12.0110           0
     21178 MEMB     159      POPC     H13A     HL       0.250000       1.00800           0
     21179 MEMB     159      POPC     H13B     HL       0.250000       1.00800           0
     21180 MEMB     159      POPC     H13C     HL       0.250000       1.00800           0
     21181 MEMB     159      POPC     C14      CTL5    -0.350000       12.0110           0
     21182 MEMB     159      POPC     H14A     HL       0.250000       1.00800           0
     21183 MEMB     159      POPC     H14B     HL       0.250000       1.00800           0
     21184 MEMB     159      POPC     H14C     HL       0.250000       1.00800           0
     21185 MEMB     159      POPC     C15      CTL5    -0.350000       12.0110           0
     21186 MEMB     159      POPC     H15A     HL       0.250000       1.00800           0
     21187 MEMB     159      POPC     H15B     HL       0.250000       1.00800           0
     21188 MEMB     159      POPC     H15C     HL       0.250000       1.00800           0
     21189 MEMB     159      POPC     C11      CTL2    -0.800000E-01   12.0110           0
     21190 MEMB     159      POPC     H11A     HAL2     0.900000E-01   1.00800           0
     21191 MEMB     159      POPC     H11B     HAL2     0.900000E-01   1.00800           0
     21192 MEMB     159      POPC     P        PL       1.50000        30.9740           0
     21193 MEMB     159      POPC     O13      O2L     -0.780000       15.9994           0
     21194 MEMB     159      POPC     O14      O2L     -0.780000       15.9994           0
     21195 MEMB     159      POPC     O12      OSLP    -0.570000       15.9994           0
     21196 MEMB     159      POPC     O11      OSLP    -0.570000       15.9994           0
     21197 MEMB     159      POPC     C1       CTL2    -0.800000E-01   12.0110           0
     21198 MEMB     159      POPC     HA       HAL2     0.900000E-01   1.00800           0
     21199 MEMB     159      POPC     HB       HAL2     0.900000E-01   1.00800           0
     21200 MEMB     159      POPC     C2       CTL1     0.170000       12.0110           0
     21201 MEMB     159      POPC     HS       HAL1     0.900000E-01   1.00800           0
     21202 MEMB     159      POPC     O21      OSL     -0.490000       15.9994           0
     21203 MEMB     159      POPC     C21      CL       0.900000       12.0110           0
     21204 MEMB     159      POPC     O22      OBL     -0.630000       15.9994           0
     21205 MEMB     159      POPC     C22      CTL2    -0.220000       12.0110           0
     21206 MEMB     159      POPC     H2R      HAL2     0.900000E-01   1.00800           0
     21207 MEMB     159      POPC     H2S      HAL2     0.900000E-01   1.00800           0
     21208 MEMB     159      POPC     C3       CTL2     0.800000E-01   12.0110           0
     21209 MEMB     159      POPC     HX       HAL2     0.900000E-01   1.00800           0
     21210 MEMB     159      POPC     HY       HAL2     0.900000E-01   1.00800           0
     21211 MEMB     159      POPC     O31      OSL     -0.490000       15.9994           0
     21212 MEMB     159      POPC     C31      CL       0.900000       12.0110           0
     21213 MEMB     159      POPC     O32      OBL     -0.630000       15.9994           0
     21214 MEMB     159      POPC     C32      CTL2    -0.220000       12.0110           0
     21215 MEMB     159      POPC     H2X      HAL2     0.900000E-01   1.00800           0
     21216 MEMB     159      POPC     H2Y      HAL2     0.900000E-01   1.00800           0
     21217 MEMB     159      POPC     C23      CTL2    -0.180000       12.0110           0
     21218 MEMB     159      POPC     H3R      HAL2     0.900000E-01   1.00800           0
     21219 MEMB     159      POPC     H3S      HAL2     0.900000E-01   1.00800           0
     21220 MEMB     159      POPC     C24      CTL2    -0.180000       12.0110           0
     21221 MEMB     159      POPC     H4R      HAL2     0.900000E-01   1.00800           0
     21222 MEMB     159      POPC     H4S      HAL2     0.900000E-01   1.00800           0
     21223 MEMB     159      POPC     C25      CTL2    -0.180000       12.0110           0
     21224 MEMB     159      POPC     H5R      HAL2     0.900000E-01   1.00800           0
     21225 MEMB     159      POPC     H5S      HAL2     0.900000E-01   1.00800           0
     21226 MEMB     159      POPC     C26      CTL2    -0.180000       12.0110           0
     21227 MEMB     159      POPC     H6R      HAL2     0.900000E-01   1.00800           0
     21228 MEMB     159      POPC     H6S      HAL2     0.900000E-01   1.00800           0
     21229 MEMB     159      POPC     C27      CTL2    -0.180000       12.0110           0
     21230 MEMB     159      POPC     H7R      HAL2     0.900000E-01   1.00800           0
     21231 MEMB     159      POPC     H7S      HAL2     0.900000E-01   1.00800           0
     21232 MEMB     159      POPC     C28      CTL2    -0.180000       12.0110           0
     21233 MEMB     159      POPC     H8R      HAL2     0.900000E-01   1.00800           0
     21234 MEMB     159      POPC     H8S      HAL2     0.900000E-01   1.00800           0
     21235 MEMB     159      POPC     C29      CEL1    -0.150000       12.0110           0
     21236 MEMB     159      POPC     H91      HEL1     0.150000       1.00800           0
     21237 MEMB     159      POPC     C210     CEL1    -0.150000       12.0110           0
     21238 MEMB     159      POPC     H101     HEL1     0.150000       1.00800           0
     21239 MEMB     159      POPC     C211     CTL2    -0.180000       12.0110           0
     21240 MEMB     159      POPC     H11R     HAL2     0.900000E-01   1.00800           0
     21241 MEMB     159      POPC     H11S     HAL2     0.900000E-01   1.00800           0
     21242 MEMB     159      POPC     C212     CTL2    -0.180000       12.0110           0
     21243 MEMB     159      POPC     H12R     HAL2     0.900000E-01   1.00800           0
     21244 MEMB     159      POPC     H12S     HAL2     0.900000E-01   1.00800           0
     21245 MEMB     159      POPC     C213     CTL2    -0.180000       12.0110           0
     21246 MEMB     159      POPC     H13R     HAL2     0.900000E-01   1.00800           0
     21247 MEMB     159      POPC     H13S     HAL2     0.900000E-01   1.00800           0
     21248 MEMB     159      POPC     C214     CTL2    -0.180000       12.0110           0
     21249 MEMB     159      POPC     H14R     HAL2     0.900000E-01   1.00800           0
     21250 MEMB     159      POPC     H14S     HAL2     0.900000E-01   1.00800           0
     21251 MEMB     159      POPC     C215     CTL2    -0.180000       12.0110           0
     21252 MEMB     159      POPC     H15R     HAL2     0.900000E-01   1.00800           0
     21253 MEMB     159      POPC     H15S     HAL2     0.900000E-01   1.00800           0
     21254 MEMB     159      POPC     C216     CTL2    -0.180000       12.0110           0
     21255 MEMB     159      POPC     H16R     HAL2     0.900000E-01   1.00800           0
     21256 MEMB     159      POPC     H16S     HAL2     0.900000E-01   1.00800           0
     21257 MEMB     159      POPC     C217     CTL2    -0.180000       12.0110           0
     21258 MEMB     159      POPC     H17R     HAL2     0.900000E-01   1.00800           0
     21259 MEMB     159      POPC     H17S     HAL2     0.900000E-01   1.00800           0
     21260 MEMB     159      POPC     C218     CTL3    -0.270000       12.0110           0
     21261 MEMB     159      POPC     H18R     HAL3     0.900000E-01   1.00800           0
     21262 MEMB     159      POPC     H18S     HAL3     0.900000E-01   1.00800           0
     21263 MEMB     159      POPC     H18T     HAL3     0.900000E-01   1.00800           0
     21264 MEMB     159      POPC     C33      CTL2    -0.180000       12.0110           0
     21265 MEMB     159      POPC     H3X      HAL2     0.900000E-01   1.00800           0
     21266 MEMB     159      POPC     H3Y      HAL2     0.900000E-01   1.00800           0
     21267 MEMB     159      POPC     C34      CTL2    -0.180000       12.0110           0
     21268 MEMB     159      POPC     H4X      HAL2     0.900000E-01   1.00800           0
     21269 MEMB     159      POPC     H4Y      HAL2     0.900000E-01   1.00800           0
     21270 MEMB     159      POPC     C35      CTL2    -0.180000       12.0110           0
     21271 MEMB     159      POPC     H5X      HAL2     0.900000E-01   1.00800           0
     21272 MEMB     159      POPC     H5Y      HAL2     0.900000E-01   1.00800           0
     21273 MEMB     159      POPC     C36      CTL2    -0.180000       12.0110           0
     21274 MEMB     159      POPC     H6X      HAL2     0.900000E-01   1.00800           0
     21275 MEMB     159      POPC     H6Y      HAL2     0.900000E-01   1.00800           0
     21276 MEMB     159      POPC     C37      CTL2    -0.180000       12.0110           0
     21277 MEMB     159      POPC     H7X      HAL2     0.900000E-01   1.00800           0
     21278 MEMB     159      POPC     H7Y      HAL2     0.900000E-01   1.00800           0
     21279 MEMB     159      POPC     C38      CTL2    -0.180000       12.0110           0
     21280 MEMB     159      POPC     H8X      HAL2     0.900000E-01   1.00800           0
     21281 MEMB     159      POPC     H8Y      HAL2     0.900000E-01   1.00800           0
     21282 MEMB     159      POPC     C39      CTL2    -0.180000       12.0110           0
     21283 MEMB     159      POPC     H9X      HAL2     0.900000E-01   1.00800           0
     21284 MEMB     159      POPC     H9Y      HAL2     0.900000E-01   1.00800           0
     21285 MEMB     159      POPC     C310     CTL2    -0.180000       12.0110           0
     21286 MEMB     159      POPC     H10X     HAL2     0.900000E-01   1.00800           0
     21287 MEMB     159      POPC     H10Y     HAL2     0.900000E-01   1.00800           0
     21288 MEMB     159      POPC     C311     CTL2    -0.180000       12.0110           0
     21289 MEMB     159      POPC     H11X     HAL2     0.900000E-01   1.00800           0
     21290 MEMB     159      POPC     H11Y     HAL2     0.900000E-01   1.00800           0
     21291 MEMB     159      POPC     C312     CTL2    -0.180000       12.0110           0
     21292 MEMB     159      POPC     H12X     HAL2     0.900000E-01   1.00800           0
     21293 MEMB     159      POPC     H12Y     HAL2     0.900000E-01   1.00800           0
     21294 MEMB     159      POPC     C313     CTL2    -0.180000       12.0110           0
     21295 MEMB     159      POPC     H13X     HAL2     0.900000E-01   1.00800           0
     21296 MEMB     159      POPC     H13Y     HAL2     0.900000E-01   1.00800           0
     21297 MEMB     159      POPC     C314     CTL2    -0.180000       12.0110           0
     21298 MEMB     159      POPC     H14X     HAL2     0.900000E-01   1.00800           0
     21299 MEMB     159      POPC     H14Y     HAL2     0.900000E-01   1.00800           0
     21300 MEMB     159      POPC     C315     CTL2    -0.180000       12.0110           0
     21301 MEMB     159      POPC     H15X     HAL2     0.900000E-01   1.00800           0
     21302 MEMB     159      POPC     H15Y     HAL2     0.900000E-01   1.00800           0
     21303 MEMB     159      POPC     C316     CTL3    -0.270000       12.0110           0
     21304 MEMB     159      POPC     H16X     HAL3     0.900000E-01   1.00800           0
     21305 MEMB     159      POPC     H16Y     HAL3     0.900000E-01   1.00800           0
     21306 MEMB     159      POPC     H16Z     HAL3     0.900000E-01   1.00800           0
     21307 MEMB     160      POPC     N        NTL     -0.600000       14.0070           0
     21308 MEMB     160      POPC     C12      CTL2    -0.100000       12.0110           0
     21309 MEMB     160      POPC     H12A     HL       0.250000       1.00800           0
     21310 MEMB     160      POPC     H12B     HL       0.250000       1.00800           0
     21311 MEMB     160      POPC     C13      CTL5    -0.350000       12.0110           0
     21312 MEMB     160      POPC     H13A     HL       0.250000       1.00800           0
     21313 MEMB     160      POPC     H13B     HL       0.250000       1.00800           0
     21314 MEMB     160      POPC     H13C     HL       0.250000       1.00800           0
     21315 MEMB     160      POPC     C14      CTL5    -0.350000       12.0110           0
     21316 MEMB     160      POPC     H14A     HL       0.250000       1.00800           0
     21317 MEMB     160      POPC     H14B     HL       0.250000       1.00800           0
     21318 MEMB     160      POPC     H14C     HL       0.250000       1.00800           0
     21319 MEMB     160      POPC     C15      CTL5    -0.350000       12.0110           0
     21320 MEMB     160      POPC     H15A     HL       0.250000       1.00800           0
     21321 MEMB     160      POPC     H15B     HL       0.250000       1.00800           0
     21322 MEMB     160      POPC     H15C     HL       0.250000       1.00800           0
     21323 MEMB     160      POPC     C11      CTL2    -0.800000E-01   12.0110           0
     21324 MEMB     160      POPC     H11A     HAL2     0.900000E-01   1.00800           0
     21325 MEMB     160      POPC     H11B     HAL2     0.900000E-01   1.00800           0
     21326 MEMB     160      POPC     P        PL       1.50000        30.9740           0
     21327 MEMB     160      POPC     O13      O2L     -0.780000       15.9994           0
     21328 MEMB     160      POPC     O14      O2L     -0.780000       15.9994           0
     21329 MEMB     160      POPC     O12      OSLP    -0.570000       15.9994           0
     21330 MEMB     160      POPC     O11      OSLP    -0.570000       15.9994           0
     21331 MEMB     160      POPC     C1       CTL2    -0.800000E-01   12.0110           0
     21332 MEMB     160      POPC     HA       HAL2     0.900000E-01   1.00800           0
     21333 MEMB     160      POPC     HB       HAL2     0.900000E-01   1.00800           0
     21334 MEMB     160      POPC     C2       CTL1     0.170000       12.0110           0
     21335 MEMB     160      POPC     HS       HAL1     0.900000E-01   1.00800           0
     21336 MEMB     160      POPC     O21      OSL     -0.490000       15.9994           0
     21337 MEMB     160      POPC     C21      CL       0.900000       12.0110           0
     21338 MEMB     160      POPC     O22      OBL     -0.630000       15.9994           0
     21339 MEMB     160      POPC     C22      CTL2    -0.220000       12.0110           0
     21340 MEMB     160      POPC     H2R      HAL2     0.900000E-01   1.00800           0
     21341 MEMB     160      POPC     H2S      HAL2     0.900000E-01   1.00800           0
     21342 MEMB     160      POPC     C3       CTL2     0.800000E-01   12.0110           0
     21343 MEMB     160      POPC     HX       HAL2     0.900000E-01   1.00800           0
     21344 MEMB     160      POPC     HY       HAL2     0.900000E-01   1.00800           0
     21345 MEMB     160      POPC     O31      OSL     -0.490000       15.9994           0
     21346 MEMB     160      POPC     C31      CL       0.900000       12.0110           0
     21347 MEMB     160      POPC     O32      OBL     -0.630000       15.9994           0
     21348 MEMB     160      POPC     C32      CTL2    -0.220000       12.0110           0
     21349 MEMB     160      POPC     H2X      HAL2     0.900000E-01   1.00800           0
     21350 MEMB     160      POPC     H2Y      HAL2     0.900000E-01   1.00800           0
     21351 MEMB     160      POPC     C23      CTL2    -0.180000       12.0110           0
     21352 MEMB     160      POPC     H3R      HAL2     0.900000E-01   1.00800           0
     21353 MEMB     160      POPC     H3S      HAL2     0.900000E-01   1.00800           0
     21354 MEMB     160      POPC     C24      CTL2    -0.180000       12.0110           0
     21355 MEMB     160      POPC     H4R      HAL2     0.900000E-01   1.00800           0
     21356 MEMB     160      POPC     H4S      HAL2     0.900000E-01   1.00800           0
     21357 MEMB     160      POPC     C25      CTL2    -0.180000       12.0110           0
     21358 MEMB     160      POPC     H5R      HAL2     0.900000E-01   1.00800           0
     21359 MEMB     160      POPC     H5S      HAL2     0.900000E-01   1.00800           0
     21360 MEMB     160      POPC     C26      CTL2    -0.180000       12.0110           0
     21361 MEMB     160      POPC     H6R      HAL2     0.900000E-01   1.00800           0
     21362 MEMB     160      POPC     H6S      HAL2     0.900000E-01   1.00800           0
     21363 MEMB     160      POPC     C27      CTL2    -0.180000       12.0110           0
     21364 MEMB     160      POPC     H7R      HAL2     0.900000E-01   1.00800           0
     21365 MEMB     160      POPC     H7S      HAL2     0.900000E-01   1.00800           0
     21366 MEMB     160      POPC     C28      CTL2    -0.180000       12.0110           0
     21367 MEMB     160      POPC     H8R      HAL2     0.900000E-01   1.00800           0
     21368 MEMB     160      POPC     H8S      HAL2     0.900000E-01   1.00800           0
     21369 MEMB     160      POPC     C29      CEL1    -0.150000       12.0110           0
     21370 MEMB     160      POPC     H91      HEL1     0.150000       1.00800           0
     21371 MEMB     160      POPC     C210     CEL1    -0.150000       12.0110           0
     21372 MEMB     160      POPC     H101     HEL1     0.150000       1.00800           0
     21373 MEMB     160      POPC     C211     CTL2    -0.180000       12.0110           0
     21374 MEMB     160      POPC     H11R     HAL2     0.900000E-01   1.00800           0
     21375 MEMB     160      POPC     H11S     HAL2     0.900000E-01   1.00800           0
     21376 MEMB     160      POPC     C212     CTL2    -0.180000       12.0110           0
     21377 MEMB     160      POPC     H12R     HAL2     0.900000E-01   1.00800           0
     21378 MEMB     160      POPC     H12S     HAL2     0.900000E-01   1.00800           0
     21379 MEMB     160      POPC     C213     CTL2    -0.180000       12.0110           0
     21380 MEMB     160      POPC     H13R     HAL2     0.900000E-01   1.00800           0
     21381 MEMB     160      POPC     H13S     HAL2     0.900000E-01   1.00800           0
     21382 MEMB     160      POPC     C214     CTL2    -0.180000       12.0110           0
     21383 MEMB     160      POPC     H14R     HAL2     0.900000E-01   1.00800           0
     21384 MEMB     160      POPC     H14S     HAL2     0.900000E-01   1.00800           0
     21385 MEMB     160      POPC     C215     CTL2    -0.180000       12.0110           0
     21386 MEMB     160      POPC     H15R     HAL2     0.900000E-01   1.00800           0
     21387 MEMB     160      POPC     H15S     HAL2     0.900000E-01   1.00800           0
     21388 MEMB     160      POPC     C216     CTL2    -0.180000       12.0110           0
     21389 MEMB     160      POPC     H16R     HAL2     0.900000E-01   1.00800           0
     21390 MEMB     160      POPC     H16S     HAL2     0.900000E-01   1.00800           0
     21391 MEMB     160      POPC     C217     CTL2    -0.180000       12.0110           0
     21392 MEMB     160      POPC     H17R     HAL2     0.900000E-01   1.00800           0
     21393 MEMB     160      POPC     H17S     HAL2     0.900000E-01   1.00800           0
     21394 MEMB     160      POPC     C218     CTL3    -0.270000       12.0110           0
     21395 MEMB     160      POPC     H18R     HAL3     0.900000E-01   1.00800           0
     21396 MEMB     160      POPC     H18S     HAL3     0.900000E-01   1.00800           0
     21397 MEMB     160      POPC     H18T     HAL3     0.900000E-01   1.00800           0
     21398 MEMB     160      POPC     C33      CTL2    -0.180000       12.0110           0
     21399 MEMB     160      POPC     H3X      HAL2     0.900000E-01   1.00800           0
     21400 MEMB     160      POPC     H3Y      HAL2     0.900000E-01   1.00800           0
     21401 MEMB     160      POPC     C34      CTL2    -0.180000       12.0110           0
     21402 MEMB     160      POPC     H4X      HAL2     0.900000E-01   1.00800           0
     21403 MEMB     160      POPC     H4Y      HAL2     0.900000E-01   1.00800           0
     21404 MEMB     160      POPC     C35      CTL2    -0.180000       12.0110           0
     21405 MEMB     160      POPC     H5X      HAL2     0.900000E-01   1.00800           0
     21406 MEMB     160      POPC     H5Y      HAL2     0.900000E-01   1.00800           0
     21407 MEMB     160      POPC     C36      CTL2    -0.180000       12.0110           0
     21408 MEMB     160      POPC     H6X      HAL2     0.900000E-01   1.00800           0
     21409 MEMB     160      POPC     H6Y      HAL2     0.900000E-01   1.00800           0
     21410 MEMB     160      POPC     C37      CTL2    -0.180000       12.0110           0
     21411 MEMB     160      POPC     H7X      HAL2     0.900000E-01   1.00800           0
     21412 MEMB     160      POPC     H7Y      HAL2     0.900000E-01   1.00800           0
     21413 MEMB     160      POPC     C38      CTL2    -0.180000       12.0110           0
     21414 MEMB     160      POPC     H8X      HAL2     0.900000E-01   1.00800           0
     21415 MEMB     160      POPC     H8Y      HAL2     0.900000E-01   1.00800           0
     21416 MEMB     160      POPC     C39      CTL2    -0.180000       12.0110           0
     21417 MEMB     160      POPC     H9X      HAL2     0.900000E-01   1.00800           0
     21418 MEMB     160      POPC     H9Y      HAL2     0.900000E-01   1.00800           0
     21419 MEMB     160      POPC     C310     CTL2    -0.180000       12.0110           0
     21420 MEMB     160      POPC     H10X     HAL2     0.900000E-01   1.00800           0
     21421 MEMB     160      POPC     H10Y     HAL2     0.900000E-01   1.00800           0
     21422 MEMB     160      POPC     C311     CTL2    -0.180000       12.0110           0
     21423 MEMB     160      POPC     H11X     HAL2     0.900000E-01   1.00800           0
     21424 MEMB     160      POPC     H11Y     HAL2     0.900000E-01   1.00800           0
     21425 MEMB     160      POPC     C312     CTL2    -0.180000       12.0110           0
     21426 MEMB     160      POPC     H12X     HAL2     0.900000E-01   1.00800           0
     21427 MEMB     160      POPC     H12Y     HAL2     0.900000E-01   1.00800           0
     21428 MEMB     160      POPC     C313     CTL2    -0.180000       12.0110           0
     21429 MEMB     160      POPC     H13X     HAL2     0.900000E-01   1.00800           0
     21430 MEMB     160      POPC     H13Y     HAL2     0.900000E-01   1.00800           0
     21431 MEMB     160      POPC     C314     CTL2    -0.180000       12.0110           0
     21432 MEMB     160      POPC     H14X     HAL2     0.900000E-01   1.00800           0
     21433 MEMB     160      POPC     H14Y     HAL2     0.900000E-01   1.00800           0
     21434 MEMB     160      POPC     C315     CTL2    -0.180000       12.0110           0
     21435 MEMB     160      POPC     H15X     HAL2     0.900000E-01   1.00800           0
     21436 MEMB     160      POPC     H15Y     HAL2     0.900000E-01   1.00800           0
     21437 MEMB     160      POPC     C316     CTL3    -0.270000       12.0110           0
     21438 MEMB     160      POPC     H16X     HAL3     0.900000E-01   1.00800           0
     21439 MEMB     160      POPC     H16Y     HAL3     0.900000E-01   1.00800           0
     21440 MEMB     160      POPC     H16Z     HAL3     0.900000E-01   1.00800           0
     21441 MEMB     161      POPC     N        NTL     -0.600000       14.0070           0
     21442 MEMB     161      POPC     C12      CTL2    -0.100000       12.0110           0
     21443 MEMB     161      POPC     H12A     HL       0.250000       1.00800           0
     21444 MEMB     161      POPC     H12B     HL       0.250000       1.00800           0
     21445 MEMB     161      POPC     C13      CTL5    -0.350000       12.0110           0
     21446 MEMB     161      POPC     H13A     HL       0.250000       1.00800           0
     21447 MEMB     161      POPC     H13B     HL       0.250000       1.00800           0
     21448 MEMB     161      POPC     H13C     HL       0.250000       1.00800           0
     21449 MEMB     161      POPC     C14      CTL5    -0.350000       12.0110           0
     21450 MEMB     161      POPC     H14A     HL       0.250000       1.00800           0
     21451 MEMB     161      POPC     H14B     HL       0.250000       1.00800           0
     21452 MEMB     161      POPC     H14C     HL       0.250000       1.00800           0
     21453 MEMB     161      POPC     C15      CTL5    -0.350000       12.0110           0
     21454 MEMB     161      POPC     H15A     HL       0.250000       1.00800           0
     21455 MEMB     161      POPC     H15B     HL       0.250000       1.00800           0
     21456 MEMB     161      POPC     H15C     HL       0.250000       1.00800           0
     21457 MEMB     161      POPC     C11      CTL2    -0.800000E-01   12.0110           0
     21458 MEMB     161      POPC     H11A     HAL2     0.900000E-01   1.00800           0
     21459 MEMB     161      POPC     H11B     HAL2     0.900000E-01   1.00800           0
     21460 MEMB     161      POPC     P        PL       1.50000        30.9740           0
     21461 MEMB     161      POPC     O13      O2L     -0.780000       15.9994           0
     21462 MEMB     161      POPC     O14      O2L     -0.780000       15.9994           0
     21463 MEMB     161      POPC     O12      OSLP    -0.570000       15.9994           0
     21464 MEMB     161      POPC     O11      OSLP    -0.570000       15.9994           0
     21465 MEMB     161      POPC     C1       CTL2    -0.800000E-01   12.0110           0
     21466 MEMB     161      POPC     HA       HAL2     0.900000E-01   1.00800           0
     21467 MEMB     161      POPC     HB       HAL2     0.900000E-01   1.00800           0
     21468 MEMB     161      POPC     C2       CTL1     0.170000       12.0110           0
     21469 MEMB     161      POPC     HS       HAL1     0.900000E-01   1.00800           0
     21470 MEMB     161      POPC     O21      OSL     -0.490000       15.9994           0
     21471 MEMB     161      POPC     C21      CL       0.900000       12.0110           0
     21472 MEMB     161      POPC     O22      OBL     -0.630000       15.9994           0
     21473 MEMB     161      POPC     C22      CTL2    -0.220000       12.0110           0
     21474 MEMB     161      POPC     H2R      HAL2     0.900000E-01   1.00800           0
     21475 MEMB     161      POPC     H2S      HAL2     0.900000E-01   1.00800           0
     21476 MEMB     161      POPC     C3       CTL2     0.800000E-01   12.0110           0
     21477 MEMB     161      POPC     HX       HAL2     0.900000E-01   1.00800           0
     21478 MEMB     161      POPC     HY       HAL2     0.900000E-01   1.00800           0
     21479 MEMB     161      POPC     O31      OSL     -0.490000       15.9994           0
     21480 MEMB     161      POPC     C31      CL       0.900000       12.0110           0
     21481 MEMB     161      POPC     O32      OBL     -0.630000       15.9994           0
     21482 MEMB     161      POPC     C32      CTL2    -0.220000       12.0110           0
     21483 MEMB     161      POPC     H2X      HAL2     0.900000E-01   1.00800           0
     21484 MEMB     161      POPC     H2Y      HAL2     0.900000E-01   1.00800           0
     21485 MEMB     161      POPC     C23      CTL2    -0.180000       12.0110           0
     21486 MEMB     161      POPC     H3R      HAL2     0.900000E-01   1.00800           0
     21487 MEMB     161      POPC     H3S      HAL2     0.900000E-01   1.00800           0
     21488 MEMB     161      POPC     C24      CTL2    -0.180000       12.0110           0
     21489 MEMB     161      POPC     H4R      HAL2     0.900000E-01   1.00800           0
     21490 MEMB     161      POPC     H4S      HAL2     0.900000E-01   1.00800           0
     21491 MEMB     161      POPC     C25      CTL2    -0.180000       12.0110           0
     21492 MEMB     161      POPC     H5R      HAL2     0.900000E-01   1.00800           0
     21493 MEMB     161      POPC     H5S      HAL2     0.900000E-01   1.00800           0
     21494 MEMB     161      POPC     C26      CTL2    -0.180000       12.0110           0
     21495 MEMB     161      POPC     H6R      HAL2     0.900000E-01   1.00800           0
     21496 MEMB     161      POPC     H6S      HAL2     0.900000E-01   1.00800           0
     21497 MEMB     161      POPC     C27      CTL2    -0.180000       12.0110           0
     21498 MEMB     161      POPC     H7R      HAL2     0.900000E-01   1.00800           0
     21499 MEMB     161      POPC     H7S      HAL2     0.900000E-01   1.00800           0
     21500 MEMB     161      POPC     C28      CTL2    -0.180000       12.0110           0
     21501 MEMB     161      POPC     H8R      HAL2     0.900000E-01   1.00800           0
     21502 MEMB     161      POPC     H8S      HAL2     0.900000E-01   1.00800           0
     21503 MEMB     161      POPC     C29      CEL1    -0.150000       12.0110           0
     21504 MEMB     161      POPC     H91      HEL1     0.150000       1.00800           0
     21505 MEMB     161      POPC     C210     CEL1    -0.150000       12.0110           0
     21506 MEMB     161      POPC     H101     HEL1     0.150000       1.00800           0
     21507 MEMB     161      POPC     C211     CTL2    -0.180000       12.0110           0
     21508 MEMB     161      POPC     H11R     HAL2     0.900000E-01   1.00800           0
     21509 MEMB     161      POPC     H11S     HAL2     0.900000E-01   1.00800           0
     21510 MEMB     161      POPC     C212     CTL2    -0.180000       12.0110           0
     21511 MEMB     161      POPC     H12R     HAL2     0.900000E-01   1.00800           0
     21512 MEMB     161      POPC     H12S     HAL2     0.900000E-01   1.00800           0
     21513 MEMB     161      POPC     C213     CTL2    -0.180000       12.0110           0
     21514 MEMB     161      POPC     H13R     HAL2     0.900000E-01   1.00800           0
     21515 MEMB     161      POPC     H13S     HAL2     0.900000E-01   1.00800           0
     21516 MEMB     161      POPC     C214     CTL2    -0.180000       12.0110           0
     21517 MEMB     161      POPC     H14R     HAL2     0.900000E-01   1.00800           0
     21518 MEMB     161      POPC     H14S     HAL2     0.900000E-01   1.00800           0
     21519 MEMB     161      POPC     C215     CTL2    -0.180000       12.0110           0
     21520 MEMB     161      POPC     H15R     HAL2     0.900000E-01   1.00800           0
     21521 MEMB     161      POPC     H15S     HAL2     0.900000E-01   1.00800           0
     21522 MEMB     161      POPC     C216     CTL2    -0.180000       12.0110           0
     21523 MEMB     161      POPC     H16R     HAL2     0.900000E-01   1.00800           0
     21524 MEMB     161      POPC     H16S     HAL2     0.900000E-01   1.00800           0
     21525 MEMB     161      POPC     C217     CTL2    -0.180000       12.0110           0
     21526 MEMB     161      POPC     H17R     HAL2     0.900000E-01   1.00800           0
     21527 MEMB     161      POPC     H17S     HAL2     0.900000E-01   1.00800           0
     21528 MEMB     161      POPC     C218     CTL3    -0.270000       12.0110           0
     21529 MEMB     161      POPC     H18R     HAL3     0.900000E-01   1.00800           0
     21530 MEMB     161      POPC     H18S     HAL3     0.900000E-01   1.00800           0
     21531 MEMB     161      POPC     H18T     HAL3     0.900000E-01   1.00800           0
     21532 MEMB     161      POPC     C33      CTL2    -0.180000       12.0110           0
     21533 MEMB     161      POPC     H3X      HAL2     0.900000E-01   1.00800           0
     21534 MEMB     161      POPC     H3Y      HAL2     0.900000E-01   1.00800           0
     21535 MEMB     161      POPC     C34      CTL2    -0.180000       12.0110           0
     21536 MEMB     161      POPC     H4X      HAL2     0.900000E-01   1.00800           0
     21537 MEMB     161      POPC     H4Y      HAL2     0.900000E-01   1.00800           0
     21538 MEMB     161      POPC     C35      CTL2    -0.180000       12.0110           0
     21539 MEMB     161      POPC     H5X      HAL2     0.900000E-01   1.00800           0
     21540 MEMB     161      POPC     H5Y      HAL2     0.900000E-01   1.00800           0
     21541 MEMB     161      POPC     C36      CTL2    -0.180000       12.0110           0
     21542 MEMB     161      POPC     H6X      HAL2     0.900000E-01   1.00800           0
     21543 MEMB     161      POPC     H6Y      HAL2     0.900000E-01   1.00800           0
     21544 MEMB     161      POPC     C37      CTL2    -0.180000       12.0110           0
     21545 MEMB     161      POPC     H7X      HAL2     0.900000E-01   1.00800           0
     21546 MEMB     161      POPC     H7Y      HAL2     0.900000E-01   1.00800           0
     21547 MEMB     161      POPC     C38      CTL2    -0.180000       12.0110           0
     21548 MEMB     161      POPC     H8X      HAL2     0.900000E-01   1.00800           0
     21549 MEMB     161      POPC     H8Y      HAL2     0.900000E-01   1.00800           0
     21550 MEMB     161      POPC     C39      CTL2    -0.180000       12.0110           0
     21551 MEMB     161      POPC     H9X      HAL2     0.900000E-01   1.00800           0
     21552 MEMB     161      POPC     H9Y      HAL2     0.900000E-01   1.00800           0
     21553 MEMB     161      POPC     C310     CTL2    -0.180000       12.0110           0
     21554 MEMB     161      POPC     H10X     HAL2     0.900000E-01   1.00800           0
     21555 MEMB     161      POPC     H10Y     HAL2     0.900000E-01   1.00800           0
     21556 MEMB     161      POPC     C311     CTL2    -0.180000       12.0110           0
     21557 MEMB     161      POPC     H11X     HAL2     0.900000E-01   1.00800           0
     21558 MEMB     161      POPC     H11Y     HAL2     0.900000E-01   1.00800           0
     21559 MEMB     161      POPC     C312     CTL2    -0.180000       12.0110           0
     21560 MEMB     161      POPC     H12X     HAL2     0.900000E-01   1.00800           0
     21561 MEMB     161      POPC     H12Y     HAL2     0.900000E-01   1.00800           0
     21562 MEMB     161      POPC     C313     CTL2    -0.180000       12.0110           0
     21563 MEMB     161      POPC     H13X     HAL2     0.900000E-01   1.00800           0
     21564 MEMB     161      POPC     H13Y     HAL2     0.900000E-01   1.00800           0
     21565 MEMB     161      POPC     C314     CTL2    -0.180000       12.0110           0
     21566 MEMB     161      POPC     H14X     HAL2     0.900000E-01   1.00800           0
     21567 MEMB     161      POPC     H14Y     HAL2     0.900000E-01   1.00800           0
     21568 MEMB     161      POPC     C315     CTL2    -0.180000       12.0110           0
     21569 MEMB     161      POPC     H15X     HAL2     0.900000E-01   1.00800           0
     21570 MEMB     161      POPC     H15Y     HAL2     0.900000E-01   1.00800           0
     21571 MEMB     161      POPC     C316     CTL3    -0.270000       12.0110           0
     21572 MEMB     161      POPC     H16X     HAL3     0.900000E-01   1.00800           0
     21573 MEMB     161      POPC     H16Y     HAL3     0.900000E-01   1.00800           0
     21574 MEMB     161      POPC     H16Z     HAL3     0.900000E-01   1.00800           0
     21575 MEMB     162      POPC     N        NTL     -0.600000       14.0070           0
     21576 MEMB     162      POPC     C12      CTL2    -0.100000       12.0110           0
     21577 MEMB     162      POPC     H12A     HL       0.250000       1.00800           0
     21578 MEMB     162      POPC     H12B     HL       0.250000       1.00800           0
     21579 MEMB     162      POPC     C13      CTL5    -0.350000       12.0110           0
     21580 MEMB     162      POPC     H13A     HL       0.250000       1.00800           0
     21581 MEMB     162      POPC     H13B     HL       0.250000       1.00800           0
     21582 MEMB     162      POPC     H13C     HL       0.250000       1.00800           0
     21583 MEMB     162      POPC     C14      CTL5    -0.350000       12.0110           0
     21584 MEMB     162      POPC     H14A     HL       0.250000       1.00800           0
     21585 MEMB     162      POPC     H14B     HL       0.250000       1.00800           0
     21586 MEMB     162      POPC     H14C     HL       0.250000       1.00800           0
     21587 MEMB     162      POPC     C15      CTL5    -0.350000       12.0110           0
     21588 MEMB     162      POPC     H15A     HL       0.250000       1.00800           0
     21589 MEMB     162      POPC     H15B     HL       0.250000       1.00800           0
     21590 MEMB     162      POPC     H15C     HL       0.250000       1.00800           0
     21591 MEMB     162      POPC     C11      CTL2    -0.800000E-01   12.0110           0
     21592 MEMB     162      POPC     H11A     HAL2     0.900000E-01   1.00800           0
     21593 MEMB     162      POPC     H11B     HAL2     0.900000E-01   1.00800           0
     21594 MEMB     162      POPC     P        PL       1.50000        30.9740           0
     21595 MEMB     162      POPC     O13      O2L     -0.780000       15.9994           0
     21596 MEMB     162      POPC     O14      O2L     -0.780000       15.9994           0
     21597 MEMB     162      POPC     O12      OSLP    -0.570000       15.9994           0
     21598 MEMB     162      POPC     O11      OSLP    -0.570000       15.9994           0
     21599 MEMB     162      POPC     C1       CTL2    -0.800000E-01   12.0110           0
     21600 MEMB     162      POPC     HA       HAL2     0.900000E-01   1.00800           0
     21601 MEMB     162      POPC     HB       HAL2     0.900000E-01   1.00800           0
     21602 MEMB     162      POPC     C2       CTL1     0.170000       12.0110           0
     21603 MEMB     162      POPC     HS       HAL1     0.900000E-01   1.00800           0
     21604 MEMB     162      POPC     O21      OSL     -0.490000       15.9994           0
     21605 MEMB     162      POPC     C21      CL       0.900000       12.0110           0
     21606 MEMB     162      POPC     O22      OBL     -0.630000       15.9994           0
     21607 MEMB     162      POPC     C22      CTL2    -0.220000       12.0110           0
     21608 MEMB     162      POPC     H2R      HAL2     0.900000E-01   1.00800           0
     21609 MEMB     162      POPC     H2S      HAL2     0.900000E-01   1.00800           0
     21610 MEMB     162      POPC     C3       CTL2     0.800000E-01   12.0110           0
     21611 MEMB     162      POPC     HX       HAL2     0.900000E-01   1.00800           0
     21612 MEMB     162      POPC     HY       HAL2     0.900000E-01   1.00800           0
     21613 MEMB     162      POPC     O31      OSL     -0.490000       15.9994           0
     21614 MEMB     162      POPC     C31      CL       0.900000       12.0110           0
     21615 MEMB     162      POPC     O32      OBL     -0.630000       15.9994           0
     21616 MEMB     162      POPC     C32      CTL2    -0.220000       12.0110           0
     21617 MEMB     162      POPC     H2X      HAL2     0.900000E-01   1.00800           0
     21618 MEMB     162      POPC     H2Y      HAL2     0.900000E-01   1.00800           0
     21619 MEMB     162      POPC     C23      CTL2    -0.180000       12.0110           0
     21620 MEMB     162      POPC     H3R      HAL2     0.900000E-01   1.00800           0
     21621 MEMB     162      POPC     H3S      HAL2     0.900000E-01   1.00800           0
     21622 MEMB     162      POPC     C24      CTL2    -0.180000       12.0110           0
     21623 MEMB     162      POPC     H4R      HAL2     0.900000E-01   1.00800           0
     21624 MEMB     162      POPC     H4S      HAL2     0.900000E-01   1.00800           0
     21625 MEMB     162      POPC     C25      CTL2    -0.180000       12.0110           0
     21626 MEMB     162      POPC     H5R      HAL2     0.900000E-01   1.00800           0
     21627 MEMB     162      POPC     H5S      HAL2     0.900000E-01   1.00800           0
     21628 MEMB     162      POPC     C26      CTL2    -0.180000       12.0110           0
     21629 MEMB     162      POPC     H6R      HAL2     0.900000E-01   1.00800           0
     21630 MEMB     162      POPC     H6S      HAL2     0.900000E-01   1.00800           0
     21631 MEMB     162      POPC     C27      CTL2    -0.180000       12.0110           0
     21632 MEMB     162      POPC     H7R      HAL2     0.900000E-01   1.00800           0
     21633 MEMB     162      POPC     H7S      HAL2     0.900000E-01   1.00800           0
     21634 MEMB     162      POPC     C28      CTL2    -0.180000       12.0110           0
     21635 MEMB     162      POPC     H8R      HAL2     0.900000E-01   1.00800           0
     21636 MEMB     162      POPC     H8S      HAL2     0.900000E-01   1.00800           0
     21637 MEMB     162      POPC     C29      CEL1    -0.150000       12.0110           0
     21638 MEMB     162      POPC     H91      HEL1     0.150000       1.00800           0
     21639 MEMB     162      POPC     C210     CEL1    -0.150000       12.0110           0
     21640 MEMB     162      POPC     H101     HEL1     0.150000       1.00800           0
     21641 MEMB     162      POPC     C211     CTL2    -0.180000       12.0110           0
     21642 MEMB     162      POPC     H11R     HAL2     0.900000E-01   1.00800           0
     21643 MEMB     162      POPC     H11S     HAL2     0.900000E-01   1.00800           0
     21644 MEMB     162      POPC     C212     CTL2    -0.180000       12.0110           0
     21645 MEMB     162      POPC     H12R     HAL2     0.900000E-01   1.00800           0
     21646 MEMB     162      POPC     H12S     HAL2     0.900000E-01   1.00800           0
     21647 MEMB     162      POPC     C213     CTL2    -0.180000       12.0110           0
     21648 MEMB     162      POPC     H13R     HAL2     0.900000E-01   1.00800           0
     21649 MEMB     162      POPC     H13S     HAL2     0.900000E-01   1.00800           0
     21650 MEMB     162      POPC     C214     CTL2    -0.180000       12.0110           0
     21651 MEMB     162      POPC     H14R     HAL2     0.900000E-01   1.00800           0
     21652 MEMB     162      POPC     H14S     HAL2     0.900000E-01   1.00800           0
     21653 MEMB     162      POPC     C215     CTL2    -0.180000       12.0110           0
     21654 MEMB     162      POPC     H15R     HAL2     0.900000E-01   1.00800           0
     21655 MEMB     162      POPC     H15S     HAL2     0.900000E-01   1.00800           0
     21656 MEMB     162      POPC     C216     CTL2    -0.180000       12.0110           0
     21657 MEMB     162      POPC     H16R     HAL2     0.900000E-01   1.00800           0
     21658 MEMB     162      POPC     H16S     HAL2     0.900000E-01   1.00800           0
     21659 MEMB     162      POPC     C217     CTL2    -0.180000       12.0110           0
     21660 MEMB     162      POPC     H17R     HAL2     0.900000E-01   1.00800           0
     21661 MEMB     162      POPC     H17S     HAL2     0.900000E-01   1.00800           0
     21662 MEMB     162      POPC     C218     CTL3    -0.270000       12.0110           0
     21663 MEMB     162      POPC     H18R     HAL3     0.900000E-01   1.00800           0
     21664 MEMB     162      POPC     H18S     HAL3     0.900000E-01   1.00800           0
     21665 MEMB     162      POPC     H18T     HAL3     0.900000E-01   1.00800           0
     21666 MEMB     162      POPC     C33      CTL2    -0.180000       12.0110           0
     21667 MEMB     162      POPC     H3X      HAL2     0.900000E-01   1.00800           0
     21668 MEMB     162      POPC     H3Y      HAL2     0.900000E-01   1.00800           0
     21669 MEMB     162      POPC     C34      CTL2    -0.180000       12.0110           0
     21670 MEMB     162      POPC     H4X      HAL2     0.900000E-01   1.00800           0
     21671 MEMB     162      POPC     H4Y      HAL2     0.900000E-01   1.00800           0
     21672 MEMB     162      POPC     C35      CTL2    -0.180000       12.0110           0
     21673 MEMB     162      POPC     H5X      HAL2     0.900000E-01   1.00800           0
     21674 MEMB     162      POPC     H5Y      HAL2     0.900000E-01   1.00800           0
     21675 MEMB     162      POPC     C36      CTL2    -0.180000       12.0110           0
     21676 MEMB     162      POPC     H6X      HAL2     0.900000E-01   1.00800           0
     21677 MEMB     162      POPC     H6Y      HAL2     0.900000E-01   1.00800           0
     21678 MEMB     162      POPC     C37      CTL2    -0.180000       12.0110           0
     21679 MEMB     162      POPC     H7X      HAL2     0.900000E-01   1.00800           0
     21680 MEMB     162      POPC     H7Y      HAL2     0.900000E-01   1.00800           0
     21681 MEMB     162      POPC     C38      CTL2    -0.180000       12.0110           0
     21682 MEMB     162      POPC     H8X      HAL2     0.900000E-01   1.00800           0
     21683 MEMB     162      POPC     H8Y      HAL2     0.900000E-01   1.00800           0
     21684 MEMB     162      POPC     C39      CTL2    -0.180000       12.0110           0
     21685 MEMB     162      POPC     H9X      HAL2     0.900000E-01   1.00800           0
     21686 MEMB     162      POPC     H9Y      HAL2     0.900000E-01   1.00800           0
     21687 MEMB     162      POPC     C310     CTL2    -0.180000       12.0110           0
     21688 MEMB     162      POPC     H10X     HAL2     0.900000E-01   1.00800           0
     21689 MEMB     162      POPC     H10Y     HAL2     0.900000E-01   1.00800           0
     21690 MEMB     162      POPC     C311     CTL2    -0.180000       12.0110           0
     21691 MEMB     162      POPC     H11X     HAL2     0.900000E-01   1.00800           0
     21692 MEMB     162      POPC     H11Y     HAL2     0.900000E-01   1.00800           0
     21693 MEMB     162      POPC     C312     CTL2    -0.180000       12.0110           0
     21694 MEMB     162      POPC     H12X     HAL2     0.900000E-01   1.00800           0
     21695 MEMB     162      POPC     H12Y     HAL2     0.900000E-01   1.00800           0
     21696 MEMB     162      POPC     C313     CTL2    -0.180000       12.0110           0
     21697 MEMB     162      POPC     H13X     HAL2     0.900000E-01   1.00800           0
     21698 MEMB     162      POPC     H13Y     HAL2     0.900000E-01   1.00800           0
     21699 MEMB     162      POPC     C314     CTL2    -0.180000       12.0110           0
     21700 MEMB     162      POPC     H14X     HAL2     0.900000E-01   1.00800           0
     21701 MEMB     162      POPC     H14Y     HAL2     0.900000E-01   1.00800           0
     21702 MEMB     162      POPC     C315     CTL2    -0.180000       12.0110           0
     21703 MEMB     162      POPC     H15X     HAL2     0.900000E-01   1.00800           0
     21704 MEMB     162      POPC     H15Y     HAL2     0.900000E-01   1.00800           0
     21705 MEMB     162      POPC     C316     CTL3    -0.270000       12.0110           0
     21706 MEMB     162      POPC     H16X     HAL3     0.900000E-01   1.00800           0
     21707 MEMB     162      POPC     H16Y     HAL3     0.900000E-01   1.00800           0
     21708 MEMB     162      POPC     H16Z     HAL3     0.900000E-01   1.00800           0
     21709 MEMB     163      POPC     N        NTL     -0.600000       14.0070           0
     21710 MEMB     163      POPC     C12      CTL2    -0.100000       12.0110           0
     21711 MEMB     163      POPC     H12A     HL       0.250000       1.00800           0
     21712 MEMB     163      POPC     H12B     HL       0.250000       1.00800           0
     21713 MEMB     163      POPC     C13      CTL5    -0.350000       12.0110           0
     21714 MEMB     163      POPC     H13A     HL       0.250000       1.00800           0
     21715 MEMB     163      POPC     H13B     HL       0.250000       1.00800           0
     21716 MEMB     163      POPC     H13C     HL       0.250000       1.00800           0
     21717 MEMB     163      POPC     C14      CTL5    -0.350000       12.0110           0
     21718 MEMB     163      POPC     H14A     HL       0.250000       1.00800           0
     21719 MEMB     163      POPC     H14B     HL       0.250000       1.00800           0
     21720 MEMB     163      POPC     H14C     HL       0.250000       1.00800           0
     21721 MEMB     163      POPC     C15      CTL5    -0.350000       12.0110           0
     21722 MEMB     163      POPC     H15A     HL       0.250000       1.00800           0
     21723 MEMB     163      POPC     H15B     HL       0.250000       1.00800           0
     21724 MEMB     163      POPC     H15C     HL       0.250000       1.00800           0
     21725 MEMB     163      POPC     C11      CTL2    -0.800000E-01   12.0110           0
     21726 MEMB     163      POPC     H11A     HAL2     0.900000E-01   1.00800           0
     21727 MEMB     163      POPC     H11B     HAL2     0.900000E-01   1.00800           0
     21728 MEMB     163      POPC     P        PL       1.50000        30.9740           0
     21729 MEMB     163      POPC     O13      O2L     -0.780000       15.9994           0
     21730 MEMB     163      POPC     O14      O2L     -0.780000       15.9994           0
     21731 MEMB     163      POPC     O12      OSLP    -0.570000       15.9994           0
     21732 MEMB     163      POPC     O11      OSLP    -0.570000       15.9994           0
     21733 MEMB     163      POPC     C1       CTL2    -0.800000E-01   12.0110           0
     21734 MEMB     163      POPC     HA       HAL2     0.900000E-01   1.00800           0
     21735 MEMB     163      POPC     HB       HAL2     0.900000E-01   1.00800           0
     21736 MEMB     163      POPC     C2       CTL1     0.170000       12.0110           0
     21737 MEMB     163      POPC     HS       HAL1     0.900000E-01   1.00800           0
     21738 MEMB     163      POPC     O21      OSL     -0.490000       15.9994           0
     21739 MEMB     163      POPC     C21      CL       0.900000       12.0110           0
     21740 MEMB     163      POPC     O22      OBL     -0.630000       15.9994           0
     21741 MEMB     163      POPC     C22      CTL2    -0.220000       12.0110           0
     21742 MEMB     163      POPC     H2R      HAL2     0.900000E-01   1.00800           0
     21743 MEMB     163      POPC     H2S      HAL2     0.900000E-01   1.00800           0
     21744 MEMB     163      POPC     C3       CTL2     0.800000E-01   12.0110           0
     21745 MEMB     163      POPC     HX       HAL2     0.900000E-01   1.00800           0
     21746 MEMB     163      POPC     HY       HAL2     0.900000E-01   1.00800           0
     21747 MEMB     163      POPC     O31      OSL     -0.490000       15.9994           0
     21748 MEMB     163      POPC     C31      CL       0.900000       12.0110           0
     21749 MEMB     163      POPC     O32      OBL     -0.630000       15.9994           0
     21750 MEMB     163      POPC     C32      CTL2    -0.220000       12.0110           0
     21751 MEMB     163      POPC     H2X      HAL2     0.900000E-01   1.00800           0
     21752 MEMB     163      POPC     H2Y      HAL2     0.900000E-01   1.00800           0
     21753 MEMB     163      POPC     C23      CTL2    -0.180000       12.0110           0
     21754 MEMB     163      POPC     H3R      HAL2     0.900000E-01   1.00800           0
     21755 MEMB     163      POPC     H3S      HAL2     0.900000E-01   1.00800           0
     21756 MEMB     163      POPC     C24      CTL2    -0.180000       12.0110           0
     21757 MEMB     163      POPC     H4R      HAL2     0.900000E-01   1.00800           0
     21758 MEMB     163      POPC     H4S      HAL2     0.900000E-01   1.00800           0
     21759 MEMB     163      POPC     C25      CTL2    -0.180000       12.0110           0
     21760 MEMB     163      POPC     H5R      HAL2     0.900000E-01   1.00800           0
     21761 MEMB     163      POPC     H5S      HAL2     0.900000E-01   1.00800           0
     21762 MEMB     163      POPC     C26      CTL2    -0.180000       12.0110           0
     21763 MEMB     163      POPC     H6R      HAL2     0.900000E-01   1.00800           0
     21764 MEMB     163      POPC     H6S      HAL2     0.900000E-01   1.00800           0
     21765 MEMB     163      POPC     C27      CTL2    -0.180000       12.0110           0
     21766 MEMB     163      POPC     H7R      HAL2     0.900000E-01   1.00800           0
     21767 MEMB     163      POPC     H7S      HAL2     0.900000E-01   1.00800           0
     21768 MEMB     163      POPC     C28      CTL2    -0.180000       12.0110           0
     21769 MEMB     163      POPC     H8R      HAL2     0.900000E-01   1.00800           0
     21770 MEMB     163      POPC     H8S      HAL2     0.900000E-01   1.00800           0
     21771 MEMB     163      POPC     C29      CEL1    -0.150000       12.0110           0
     21772 MEMB     163      POPC     H91      HEL1     0.150000       1.00800           0
     21773 MEMB     163      POPC     C210     CEL1    -0.150000       12.0110           0
     21774 MEMB     163      POPC     H101     HEL1     0.150000       1.00800           0
     21775 MEMB     163      POPC     C211     CTL2    -0.180000       12.0110           0
     21776 MEMB     163      POPC     H11R     HAL2     0.900000E-01   1.00800           0
     21777 MEMB     163      POPC     H11S     HAL2     0.900000E-01   1.00800           0
     21778 MEMB     163      POPC     C212     CTL2    -0.180000       12.0110           0
     21779 MEMB     163      POPC     H12R     HAL2     0.900000E-01   1.00800           0
     21780 MEMB     163      POPC     H12S     HAL2     0.900000E-01   1.00800           0
     21781 MEMB     163      POPC     C213     CTL2    -0.180000       12.0110           0
     21782 MEMB     163      POPC     H13R     HAL2     0.900000E-01   1.00800           0
     21783 MEMB     163      POPC     H13S     HAL2     0.900000E-01   1.00800           0
     21784 MEMB     163      POPC     C214     CTL2    -0.180000       12.0110           0
     21785 MEMB     163      POPC     H14R     HAL2     0.900000E-01   1.00800           0
     21786 MEMB     163      POPC     H14S     HAL2     0.900000E-01   1.00800           0
     21787 MEMB     163      POPC     C215     CTL2    -0.180000       12.0110           0
     21788 MEMB     163      POPC     H15R     HAL2     0.900000E-01   1.00800           0
     21789 MEMB     163      POPC     H15S     HAL2     0.900000E-01   1.00800           0
     21790 MEMB     163      POPC     C216     CTL2    -0.180000       12.0110           0
     21791 MEMB     163      POPC     H16R     HAL2     0.900000E-01   1.00800           0
     21792 MEMB     163      POPC     H16S     HAL2     0.900000E-01   1.00800           0
     21793 MEMB     163      POPC     C217     CTL2    -0.180000       12.0110           0
     21794 MEMB     163      POPC     H17R     HAL2     0.900000E-01   1.00800           0
     21795 MEMB     163      POPC     H17S     HAL2     0.900000E-01   1.00800           0
     21796 MEMB     163      POPC     C218     CTL3    -0.270000       12.0110           0
     21797 MEMB     163      POPC     H18R     HAL3     0.900000E-01   1.00800           0
     21798 MEMB     163      POPC     H18S     HAL3     0.900000E-01   1.00800           0
     21799 MEMB     163      POPC     H18T     HAL3     0.900000E-01   1.00800           0
     21800 MEMB     163      POPC     C33      CTL2    -0.180000       12.0110           0
     21801 MEMB     163      POPC     H3X      HAL2     0.900000E-01   1.00800           0
     21802 MEMB     163      POPC     H3Y      HAL2     0.900000E-01   1.00800           0
     21803 MEMB     163      POPC     C34      CTL2    -0.180000       12.0110           0
     21804 MEMB     163      POPC     H4X      HAL2     0.900000E-01   1.00800           0
     21805 MEMB     163      POPC     H4Y      HAL2     0.900000E-01   1.00800           0
     21806 MEMB     163      POPC     C35      CTL2    -0.180000       12.0110           0
     21807 MEMB     163      POPC     H5X      HAL2     0.900000E-01   1.00800           0
     21808 MEMB     163      POPC     H5Y      HAL2     0.900000E-01   1.00800           0
     21809 MEMB     163      POPC     C36      CTL2    -0.180000       12.0110           0
     21810 MEMB     163      POPC     H6X      HAL2     0.900000E-01   1.00800           0
     21811 MEMB     163      POPC     H6Y      HAL2     0.900000E-01   1.00800           0
     21812 MEMB     163      POPC     C37      CTL2    -0.180000       12.0110           0
     21813 MEMB     163      POPC     H7X      HAL2     0.900000E-01   1.00800           0
     21814 MEMB     163      POPC     H7Y      HAL2     0.900000E-01   1.00800           0
     21815 MEMB     163      POPC     C38      CTL2    -0.180000       12.0110           0
     21816 MEMB     163      POPC     H8X      HAL2     0.900000E-01   1.00800           0
     21817 MEMB     163      POPC     H8Y      HAL2     0.900000E-01   1.00800           0
     21818 MEMB     163      POPC     C39      CTL2    -0.180000       12.0110           0
     21819 MEMB     163      POPC     H9X      HAL2     0.900000E-01   1.00800           0
     21820 MEMB     163      POPC     H9Y      HAL2     0.900000E-01   1.00800           0
     21821 MEMB     163      POPC     C310     CTL2    -0.180000       12.0110           0
     21822 MEMB     163      POPC     H10X     HAL2     0.900000E-01   1.00800           0
     21823 MEMB     163      POPC     H10Y     HAL2     0.900000E-01   1.00800           0
     21824 MEMB     163      POPC     C311     CTL2    -0.180000       12.0110           0
     21825 MEMB     163      POPC     H11X     HAL2     0.900000E-01   1.00800           0
     21826 MEMB     163      POPC     H11Y     HAL2     0.900000E-01   1.00800           0
     21827 MEMB     163      POPC     C312     CTL2    -0.180000       12.0110           0
     21828 MEMB     163      POPC     H12X     HAL2     0.900000E-01   1.00800           0
     21829 MEMB     163      POPC     H12Y     HAL2     0.900000E-01   1.00800           0
     21830 MEMB     163      POPC     C313     CTL2    -0.180000       12.0110           0
     21831 MEMB     163      POPC     H13X     HAL2     0.900000E-01   1.00800           0
     21832 MEMB     163      POPC     H13Y     HAL2     0.900000E-01   1.00800           0
     21833 MEMB     163      POPC     C314     CTL2    -0.180000       12.0110           0
     21834 MEMB     163      POPC     H14X     HAL2     0.900000E-01   1.00800           0
     21835 MEMB     163      POPC     H14Y     HAL2     0.900000E-01   1.00800           0
     21836 MEMB     163      POPC     C315     CTL2    -0.180000       12.0110           0
     21837 MEMB     163      POPC     H15X     HAL2     0.900000E-01   1.00800           0
     21838 MEMB     163      POPC     H15Y     HAL2     0.900000E-01   1.00800           0
     21839 MEMB     163      POPC     C316     CTL3    -0.270000       12.0110           0
     21840 MEMB     163      POPC     H16X     HAL3     0.900000E-01   1.00800           0
     21841 MEMB     163      POPC     H16Y     HAL3     0.900000E-01   1.00800           0
     21842 MEMB     163      POPC     H16Z     HAL3     0.900000E-01   1.00800           0
     21843 MEMB     164      POPC     N        NTL     -0.600000       14.0070           0
     21844 MEMB     164      POPC     C12      CTL2    -0.100000       12.0110           0
     21845 MEMB     164      POPC     H12A     HL       0.250000       1.00800           0
     21846 MEMB     164      POPC     H12B     HL       0.250000       1.00800           0
     21847 MEMB     164      POPC     C13      CTL5    -0.350000       12.0110           0
     21848 MEMB     164      POPC     H13A     HL       0.250000       1.00800           0
     21849 MEMB     164      POPC     H13B     HL       0.250000       1.00800           0
     21850 MEMB     164      POPC     H13C     HL       0.250000       1.00800           0
     21851 MEMB     164      POPC     C14      CTL5    -0.350000       12.0110           0
     21852 MEMB     164      POPC     H14A     HL       0.250000       1.00800           0
     21853 MEMB     164      POPC     H14B     HL       0.250000       1.00800           0
     21854 MEMB     164      POPC     H14C     HL       0.250000       1.00800           0
     21855 MEMB     164      POPC     C15      CTL5    -0.350000       12.0110           0
     21856 MEMB     164      POPC     H15A     HL       0.250000       1.00800           0
     21857 MEMB     164      POPC     H15B     HL       0.250000       1.00800           0
     21858 MEMB     164      POPC     H15C     HL       0.250000       1.00800           0
     21859 MEMB     164      POPC     C11      CTL2    -0.800000E-01   12.0110           0
     21860 MEMB     164      POPC     H11A     HAL2     0.900000E-01   1.00800           0
     21861 MEMB     164      POPC     H11B     HAL2     0.900000E-01   1.00800           0
     21862 MEMB     164      POPC     P        PL       1.50000        30.9740           0
     21863 MEMB     164      POPC     O13      O2L     -0.780000       15.9994           0
     21864 MEMB     164      POPC     O14      O2L     -0.780000       15.9994           0
     21865 MEMB     164      POPC     O12      OSLP    -0.570000       15.9994           0
     21866 MEMB     164      POPC     O11      OSLP    -0.570000       15.9994           0
     21867 MEMB     164      POPC     C1       CTL2    -0.800000E-01   12.0110           0
     21868 MEMB     164      POPC     HA       HAL2     0.900000E-01   1.00800           0
     21869 MEMB     164      POPC     HB       HAL2     0.900000E-01   1.00800           0
     21870 MEMB     164      POPC     C2       CTL1     0.170000       12.0110           0
     21871 MEMB     164      POPC     HS       HAL1     0.900000E-01   1.00800           0
     21872 MEMB     164      POPC     O21      OSL     -0.490000       15.9994           0
     21873 MEMB     164      POPC     C21      CL       0.900000       12.0110           0
     21874 MEMB     164      POPC     O22      OBL     -0.630000       15.9994           0
     21875 MEMB     164      POPC     C22      CTL2    -0.220000       12.0110           0
     21876 MEMB     164      POPC     H2R      HAL2     0.900000E-01   1.00800           0
     21877 MEMB     164      POPC     H2S      HAL2     0.900000E-01   1.00800           0
     21878 MEMB     164      POPC     C3       CTL2     0.800000E-01   12.0110           0
     21879 MEMB     164      POPC     HX       HAL2     0.900000E-01   1.00800           0
     21880 MEMB     164      POPC     HY       HAL2     0.900000E-01   1.00800           0
     21881 MEMB     164      POPC     O31      OSL     -0.490000       15.9994           0
     21882 MEMB     164      POPC     C31      CL       0.900000       12.0110           0
     21883 MEMB     164      POPC     O32      OBL     -0.630000       15.9994           0
     21884 MEMB     164      POPC     C32      CTL2    -0.220000       12.0110           0
     21885 MEMB     164      POPC     H2X      HAL2     0.900000E-01   1.00800           0
     21886 MEMB     164      POPC     H2Y      HAL2     0.900000E-01   1.00800           0
     21887 MEMB     164      POPC     C23      CTL2    -0.180000       12.0110           0
     21888 MEMB     164      POPC     H3R      HAL2     0.900000E-01   1.00800           0
     21889 MEMB     164      POPC     H3S      HAL2     0.900000E-01   1.00800           0
     21890 MEMB     164      POPC     C24      CTL2    -0.180000       12.0110           0
     21891 MEMB     164      POPC     H4R      HAL2     0.900000E-01   1.00800           0
     21892 MEMB     164      POPC     H4S      HAL2     0.900000E-01   1.00800           0
     21893 MEMB     164      POPC     C25      CTL2    -0.180000       12.0110           0
     21894 MEMB     164      POPC     H5R      HAL2     0.900000E-01   1.00800           0
     21895 MEMB     164      POPC     H5S      HAL2     0.900000E-01   1.00800           0
     21896 MEMB     164      POPC     C26      CTL2    -0.180000       12.0110           0
     21897 MEMB     164      POPC     H6R      HAL2     0.900000E-01   1.00800           0
     21898 MEMB     164      POPC     H6S      HAL2     0.900000E-01   1.00800           0
     21899 MEMB     164      POPC     C27      CTL2    -0.180000       12.0110           0
     21900 MEMB     164      POPC     H7R      HAL2     0.900000E-01   1.00800           0
     21901 MEMB     164      POPC     H7S      HAL2     0.900000E-01   1.00800           0
     21902 MEMB     164      POPC     C28      CTL2    -0.180000       12.0110           0
     21903 MEMB     164      POPC     H8R      HAL2     0.900000E-01   1.00800           0
     21904 MEMB     164      POPC     H8S      HAL2     0.900000E-01   1.00800           0
     21905 MEMB     164      POPC     C29      CEL1    -0.150000       12.0110           0
     21906 MEMB     164      POPC     H91      HEL1     0.150000       1.00800           0
     21907 MEMB     164      POPC     C210     CEL1    -0.150000       12.0110           0
     21908 MEMB     164      POPC     H101     HEL1     0.150000       1.00800           0
     21909 MEMB     164      POPC     C211     CTL2    -0.180000       12.0110           0
     21910 MEMB     164      POPC     H11R     HAL2     0.900000E-01   1.00800           0
     21911 MEMB     164      POPC     H11S     HAL2     0.900000E-01   1.00800           0
     21912 MEMB     164      POPC     C212     CTL2    -0.180000       12.0110           0
     21913 MEMB     164      POPC     H12R     HAL2     0.900000E-01   1.00800           0
     21914 MEMB     164      POPC     H12S     HAL2     0.900000E-01   1.00800           0
     21915 MEMB     164      POPC     C213     CTL2    -0.180000       12.0110           0
     21916 MEMB     164      POPC     H13R     HAL2     0.900000E-01   1.00800           0
     21917 MEMB     164      POPC     H13S     HAL2     0.900000E-01   1.00800           0
     21918 MEMB     164      POPC     C214     CTL2    -0.180000       12.0110           0
     21919 MEMB     164      POPC     H14R     HAL2     0.900000E-01   1.00800           0
     21920 MEMB     164      POPC     H14S     HAL2     0.900000E-01   1.00800           0
     21921 MEMB     164      POPC     C215     CTL2    -0.180000       12.0110           0
     21922 MEMB     164      POPC     H15R     HAL2     0.900000E-01   1.00800           0
     21923 MEMB     164      POPC     H15S     HAL2     0.900000E-01   1.00800           0
     21924 MEMB     164      POPC     C216     CTL2    -0.180000       12.0110           0
     21925 MEMB     164      POPC     H16R     HAL2     0.900000E-01   1.00800           0
     21926 MEMB     164      POPC     H16S     HAL2     0.900000E-01   1.00800           0
     21927 MEMB     164      POPC     C217     CTL2    -0.180000       12.0110           0
     21928 MEMB     164      POPC     H17R     HAL2     0.900000E-01   1.00800           0
     21929 MEMB     164      POPC     H17S     HAL2     0.900000E-01   1.00800           0
     21930 MEMB     164      POPC     C218     CTL3    -0.270000       12.0110           0
     21931 MEMB     164      POPC     H18R     HAL3     0.900000E-01   1.00800           0
     21932 MEMB     164      POPC     H18S     HAL3     0.900000E-01   1.00800           0
     21933 MEMB     164      POPC     H18T     HAL3     0.900000E-01   1.00800           0
     21934 MEMB     164      POPC     C33      CTL2    -0.180000       12.0110           0
     21935 MEMB     164      POPC     H3X      HAL2     0.900000E-01   1.00800           0
     21936 MEMB     164      POPC     H3Y      HAL2     0.900000E-01   1.00800           0
     21937 MEMB     164      POPC     C34      CTL2    -0.180000       12.0110           0
     21938 MEMB     164      POPC     H4X      HAL2     0.900000E-01   1.00800           0
     21939 MEMB     164      POPC     H4Y      HAL2     0.900000E-01   1.00800           0
     21940 MEMB     164      POPC     C35      CTL2    -0.180000       12.0110           0
     21941 MEMB     164      POPC     H5X      HAL2     0.900000E-01   1.00800           0
     21942 MEMB     164      POPC     H5Y      HAL2     0.900000E-01   1.00800           0
     21943 MEMB     164      POPC     C36      CTL2    -0.180000       12.0110           0
     21944 MEMB     164      POPC     H6X      HAL2     0.900000E-01   1.00800           0
     21945 MEMB     164      POPC     H6Y      HAL2     0.900000E-01   1.00800           0
     21946 MEMB     164      POPC     C37      CTL2    -0.180000       12.0110           0
     21947 MEMB     164      POPC     H7X      HAL2     0.900000E-01   1.00800           0
     21948 MEMB     164      POPC     H7Y      HAL2     0.900000E-01   1.00800           0
     21949 MEMB     164      POPC     C38      CTL2    -0.180000       12.0110           0
     21950 MEMB     164      POPC     H8X      HAL2     0.900000E-01   1.00800           0
     21951 MEMB     164      POPC     H8Y      HAL2     0.900000E-01   1.00800           0
     21952 MEMB     164      POPC     C39      CTL2    -0.180000       12.0110           0
     21953 MEMB     164      POPC     H9X      HAL2     0.900000E-01   1.00800           0
     21954 MEMB     164      POPC     H9Y      HAL2     0.900000E-01   1.00800           0
     21955 MEMB     164      POPC     C310     CTL2    -0.180000       12.0110           0
     21956 MEMB     164      POPC     H10X     HAL2     0.900000E-01   1.00800           0
     21957 MEMB     164      POPC     H10Y     HAL2     0.900000E-01   1.00800           0
     21958 MEMB     164      POPC     C311     CTL2    -0.180000       12.0110           0
     21959 MEMB     164      POPC     H11X     HAL2     0.900000E-01   1.00800           0
     21960 MEMB     164      POPC     H11Y     HAL2     0.900000E-01   1.00800           0
     21961 MEMB     164      POPC     C312     CTL2    -0.180000       12.0110           0
     21962 MEMB     164      POPC     H12X     HAL2     0.900000E-01   1.00800           0
     21963 MEMB     164      POPC     H12Y     HAL2     0.900000E-01   1.00800           0
     21964 MEMB     164      POPC     C313     CTL2    -0.180000       12.0110           0
     21965 MEMB     164      POPC     H13X     HAL2     0.900000E-01   1.00800           0
     21966 MEMB     164      POPC     H13Y     HAL2     0.900000E-01   1.00800           0
     21967 MEMB     164      POPC     C314     CTL2    -0.180000       12.0110           0
     21968 MEMB     164      POPC     H14X     HAL2     0.900000E-01   1.00800           0
     21969 MEMB     164      POPC     H14Y     HAL2     0.900000E-01   1.00800           0
     21970 MEMB     164      POPC     C315     CTL2    -0.180000       12.0110           0
     21971 MEMB     164      POPC     H15X     HAL2     0.900000E-01   1.00800           0
     21972 MEMB     164      POPC     H15Y     HAL2     0.900000E-01   1.00800           0
     21973 MEMB     164      POPC     C316     CTL3    -0.270000       12.0110           0
     21974 MEMB     164      POPC     H16X     HAL3     0.900000E-01   1.00800           0
     21975 MEMB     164      POPC     H16Y     HAL3     0.900000E-01   1.00800           0
     21976 MEMB     164      POPC     H16Z     HAL3     0.900000E-01   1.00800           0
     21977 MEMB     165      POPC     N        NTL     -0.600000       14.0070           0
     21978 MEMB     165      POPC     C12      CTL2    -0.100000       12.0110           0
     21979 MEMB     165      POPC     H12A     HL       0.250000       1.00800           0
     21980 MEMB     165      POPC     H12B     HL       0.250000       1.00800           0
     21981 MEMB     165      POPC     C13      CTL5    -0.350000       12.0110           0
     21982 MEMB     165      POPC     H13A     HL       0.250000       1.00800           0
     21983 MEMB     165      POPC     H13B     HL       0.250000       1.00800           0
     21984 MEMB     165      POPC     H13C     HL       0.250000       1.00800           0
     21985 MEMB     165      POPC     C14      CTL5    -0.350000       12.0110           0
     21986 MEMB     165      POPC     H14A     HL       0.250000       1.00800           0
     21987 MEMB     165      POPC     H14B     HL       0.250000       1.00800           0
     21988 MEMB     165      POPC     H14C     HL       0.250000       1.00800           0
     21989 MEMB     165      POPC     C15      CTL5    -0.350000       12.0110           0
     21990 MEMB     165      POPC     H15A     HL       0.250000       1.00800           0
     21991 MEMB     165      POPC     H15B     HL       0.250000       1.00800           0
     21992 MEMB     165      POPC     H15C     HL       0.250000       1.00800           0
     21993 MEMB     165      POPC     C11      CTL2    -0.800000E-01   12.0110           0
     21994 MEMB     165      POPC     H11A     HAL2     0.900000E-01   1.00800           0
     21995 MEMB     165      POPC     H11B     HAL2     0.900000E-01   1.00800           0
     21996 MEMB     165      POPC     P        PL       1.50000        30.9740           0
     21997 MEMB     165      POPC     O13      O2L     -0.780000       15.9994           0
     21998 MEMB     165      POPC     O14      O2L     -0.780000       15.9994           0
     21999 MEMB     165      POPC     O12      OSLP    -0.570000       15.9994           0
     22000 MEMB     165      POPC     O11      OSLP    -0.570000       15.9994           0
     22001 MEMB     165      POPC     C1       CTL2    -0.800000E-01   12.0110           0
     22002 MEMB     165      POPC     HA       HAL2     0.900000E-01   1.00800           0
     22003 MEMB     165      POPC     HB       HAL2     0.900000E-01   1.00800           0
     22004 MEMB     165      POPC     C2       CTL1     0.170000       12.0110           0
     22005 MEMB     165      POPC     HS       HAL1     0.900000E-01   1.00800           0
     22006 MEMB     165      POPC     O21      OSL     -0.490000       15.9994           0
     22007 MEMB     165      POPC     C21      CL       0.900000       12.0110           0
     22008 MEMB     165      POPC     O22      OBL     -0.630000       15.9994           0
     22009 MEMB     165      POPC     C22      CTL2    -0.220000       12.0110           0
     22010 MEMB     165      POPC     H2R      HAL2     0.900000E-01   1.00800           0
     22011 MEMB     165      POPC     H2S      HAL2     0.900000E-01   1.00800           0
     22012 MEMB     165      POPC     C3       CTL2     0.800000E-01   12.0110           0
     22013 MEMB     165      POPC     HX       HAL2     0.900000E-01   1.00800           0
     22014 MEMB     165      POPC     HY       HAL2     0.900000E-01   1.00800           0
     22015 MEMB     165      POPC     O31      OSL     -0.490000       15.9994           0
     22016 MEMB     165      POPC     C31      CL       0.900000       12.0110           0
     22017 MEMB     165      POPC     O32      OBL     -0.630000       15.9994           0
     22018 MEMB     165      POPC     C32      CTL2    -0.220000       12.0110           0
     22019 MEMB     165      POPC     H2X      HAL2     0.900000E-01   1.00800           0
     22020 MEMB     165      POPC     H2Y      HAL2     0.900000E-01   1.00800           0
     22021 MEMB     165      POPC     C23      CTL2    -0.180000       12.0110           0
     22022 MEMB     165      POPC     H3R      HAL2     0.900000E-01   1.00800           0
     22023 MEMB     165      POPC     H3S      HAL2     0.900000E-01   1.00800           0
     22024 MEMB     165      POPC     C24      CTL2    -0.180000       12.0110           0
     22025 MEMB     165      POPC     H4R      HAL2     0.900000E-01   1.00800           0
     22026 MEMB     165      POPC     H4S      HAL2     0.900000E-01   1.00800           0
     22027 MEMB     165      POPC     C25      CTL2    -0.180000       12.0110           0
     22028 MEMB     165      POPC     H5R      HAL2     0.900000E-01   1.00800           0
     22029 MEMB     165      POPC     H5S      HAL2     0.900000E-01   1.00800           0
     22030 MEMB     165      POPC     C26      CTL2    -0.180000       12.0110           0
     22031 MEMB     165      POPC     H6R      HAL2     0.900000E-01   1.00800           0
     22032 MEMB     165      POPC     H6S      HAL2     0.900000E-01   1.00800           0
     22033 MEMB     165      POPC     C27      CTL2    -0.180000       12.0110           0
     22034 MEMB     165      POPC     H7R      HAL2     0.900000E-01   1.00800           0
     22035 MEMB     165      POPC     H7S      HAL2     0.900000E-01   1.00800           0
     22036 MEMB     165      POPC     C28      CTL2    -0.180000       12.0110           0
     22037 MEMB     165      POPC     H8R      HAL2     0.900000E-01   1.00800           0
     22038 MEMB     165      POPC     H8S      HAL2     0.900000E-01   1.00800           0
     22039 MEMB     165      POPC     C29      CEL1    -0.150000       12.0110           0
     22040 MEMB     165      POPC     H91      HEL1     0.150000       1.00800           0
     22041 MEMB     165      POPC     C210     CEL1    -0.150000       12.0110           0
     22042 MEMB     165      POPC     H101     HEL1     0.150000       1.00800           0
     22043 MEMB     165      POPC     C211     CTL2    -0.180000       12.0110           0
     22044 MEMB     165      POPC     H11R     HAL2     0.900000E-01   1.00800           0
     22045 MEMB     165      POPC     H11S     HAL2     0.900000E-01   1.00800           0
     22046 MEMB     165      POPC     C212     CTL2    -0.180000       12.0110           0
     22047 MEMB     165      POPC     H12R     HAL2     0.900000E-01   1.00800           0
     22048 MEMB     165      POPC     H12S     HAL2     0.900000E-01   1.00800           0
     22049 MEMB     165      POPC     C213     CTL2    -0.180000       12.0110           0
     22050 MEMB     165      POPC     H13R     HAL2     0.900000E-01   1.00800           0
     22051 MEMB     165      POPC     H13S     HAL2     0.900000E-01   1.00800           0
     22052 MEMB     165      POPC     C214     CTL2    -0.180000       12.0110           0
     22053 MEMB     165      POPC     H14R     HAL2     0.900000E-01   1.00800           0
     22054 MEMB     165      POPC     H14S     HAL2     0.900000E-01   1.00800           0
     22055 MEMB     165      POPC     C215     CTL2    -0.180000       12.0110           0
     22056 MEMB     165      POPC     H15R     HAL2     0.900000E-01   1.00800           0
     22057 MEMB     165      POPC     H15S     HAL2     0.900000E-01   1.00800           0
     22058 MEMB     165      POPC     C216     CTL2    -0.180000       12.0110           0
     22059 MEMB     165      POPC     H16R     HAL2     0.900000E-01   1.00800           0
     22060 MEMB     165      POPC     H16S     HAL2     0.900000E-01   1.00800           0
     22061 MEMB     165      POPC     C217     CTL2    -0.180000       12.0110           0
     22062 MEMB     165      POPC     H17R     HAL2     0.900000E-01   1.00800           0
     22063 MEMB     165      POPC     H17S     HAL2     0.900000E-01   1.00800           0
     22064 MEMB     165      POPC     C218     CTL3    -0.270000       12.0110           0
     22065 MEMB     165      POPC     H18R     HAL3     0.900000E-01   1.00800           0
     22066 MEMB     165      POPC     H18S     HAL3     0.900000E-01   1.00800           0
     22067 MEMB     165      POPC     H18T     HAL3     0.900000E-01   1.00800           0
     22068 MEMB     165      POPC     C33      CTL2    -0.180000       12.0110           0
     22069 MEMB     165      POPC     H3X      HAL2     0.900000E-01   1.00800           0
     22070 MEMB     165      POPC     H3Y      HAL2     0.900000E-01   1.00800           0
     22071 MEMB     165      POPC     C34      CTL2    -0.180000       12.0110           0
     22072 MEMB     165      POPC     H4X      HAL2     0.900000E-01   1.00800           0
     22073 MEMB     165      POPC     H4Y      HAL2     0.900000E-01   1.00800           0
     22074 MEMB     165      POPC     C35      CTL2    -0.180000       12.0110           0
     22075 MEMB     165      POPC     H5X      HAL2     0.900000E-01   1.00800           0
     22076 MEMB     165      POPC     H5Y      HAL2     0.900000E-01   1.00800           0
     22077 MEMB     165      POPC     C36      CTL2    -0.180000       12.0110           0
     22078 MEMB     165      POPC     H6X      HAL2     0.900000E-01   1.00800           0
     22079 MEMB     165      POPC     H6Y      HAL2     0.900000E-01   1.00800           0
     22080 MEMB     165      POPC     C37      CTL2    -0.180000       12.0110           0
     22081 MEMB     165      POPC     H7X      HAL2     0.900000E-01   1.00800           0
     22082 MEMB     165      POPC     H7Y      HAL2     0.900000E-01   1.00800           0
     22083 MEMB     165      POPC     C38      CTL2    -0.180000       12.0110           0
     22084 MEMB     165      POPC     H8X      HAL2     0.900000E-01   1.00800           0
     22085 MEMB     165      POPC     H8Y      HAL2     0.900000E-01   1.00800           0
     22086 MEMB     165      POPC     C39      CTL2    -0.180000       12.0110           0
     22087 MEMB     165      POPC     H9X      HAL2     0.900000E-01   1.00800           0
     22088 MEMB     165      POPC     H9Y      HAL2     0.900000E-01   1.00800           0
     22089 MEMB     165      POPC     C310     CTL2    -0.180000       12.0110           0
     22090 MEMB     165      POPC     H10X     HAL2     0.900000E-01   1.00800           0
     22091 MEMB     165      POPC     H10Y     HAL2     0.900000E-01   1.00800           0
     22092 MEMB     165      POPC     C311     CTL2    -0.180000       12.0110           0
     22093 MEMB     165      POPC     H11X     HAL2     0.900000E-01   1.00800           0
     22094 MEMB     165      POPC     H11Y     HAL2     0.900000E-01   1.00800           0
     22095 MEMB     165      POPC     C312     CTL2    -0.180000       12.0110           0
     22096 MEMB     165      POPC     H12X     HAL2     0.900000E-01   1.00800           0
     22097 MEMB     165      POPC     H12Y     HAL2     0.900000E-01   1.00800           0
     22098 MEMB     165      POPC     C313     CTL2    -0.180000       12.0110           0
     22099 MEMB     165      POPC     H13X     HAL2     0.900000E-01   1.00800           0
     22100 MEMB     165      POPC     H13Y     HAL2     0.900000E-01   1.00800           0
     22101 MEMB     165      POPC     C314     CTL2    -0.180000       12.0110           0
     22102 MEMB     165      POPC     H14X     HAL2     0.900000E-01   1.00800           0
     22103 MEMB     165      POPC     H14Y     HAL2     0.900000E-01   1.00800           0
     22104 MEMB     165      POPC     C315     CTL2    -0.180000       12.0110           0
     22105 MEMB     165      POPC     H15X     HAL2     0.900000E-01   1.00800           0
     22106 MEMB     165      POPC     H15Y     HAL2     0.900000E-01   1.00800           0
     22107 MEMB     165      POPC     C316     CTL3    -0.270000       12.0110           0
     22108 MEMB     165      POPC     H16X     HAL3     0.900000E-01   1.00800           0
     22109 MEMB     165      POPC     H16Y     HAL3     0.900000E-01   1.00800           0
     22110 MEMB     165      POPC     H16Z     HAL3     0.900000E-01   1.00800           0
     22111 MEMB     166      POPC     N        NTL     -0.600000       14.0070           0
     22112 MEMB     166      POPC     C12      CTL2    -0.100000       12.0110           0
     22113 MEMB     166      POPC     H12A     HL       0.250000       1.00800           0
     22114 MEMB     166      POPC     H12B     HL       0.250000       1.00800           0
     22115 MEMB     166      POPC     C13      CTL5    -0.350000       12.0110           0
     22116 MEMB     166      POPC     H13A     HL       0.250000       1.00800           0
     22117 MEMB     166      POPC     H13B     HL       0.250000       1.00800           0
     22118 MEMB     166      POPC     H13C     HL       0.250000       1.00800           0
     22119 MEMB     166      POPC     C14      CTL5    -0.350000       12.0110           0
     22120 MEMB     166      POPC     H14A     HL       0.250000       1.00800           0
     22121 MEMB     166      POPC     H14B     HL       0.250000       1.00800           0
     22122 MEMB     166      POPC     H14C     HL       0.250000       1.00800           0
     22123 MEMB     166      POPC     C15      CTL5    -0.350000       12.0110           0
     22124 MEMB     166      POPC     H15A     HL       0.250000       1.00800           0
     22125 MEMB     166      POPC     H15B     HL       0.250000       1.00800           0
     22126 MEMB     166      POPC     H15C     HL       0.250000       1.00800           0
     22127 MEMB     166      POPC     C11      CTL2    -0.800000E-01   12.0110           0
     22128 MEMB     166      POPC     H11A     HAL2     0.900000E-01   1.00800           0
     22129 MEMB     166      POPC     H11B     HAL2     0.900000E-01   1.00800           0
     22130 MEMB     166      POPC     P        PL       1.50000        30.9740           0
     22131 MEMB     166      POPC     O13      O2L     -0.780000       15.9994           0
     22132 MEMB     166      POPC     O14      O2L     -0.780000       15.9994           0
     22133 MEMB     166      POPC     O12      OSLP    -0.570000       15.9994           0
     22134 MEMB     166      POPC     O11      OSLP    -0.570000       15.9994           0
     22135 MEMB     166      POPC     C1       CTL2    -0.800000E-01   12.0110           0
     22136 MEMB     166      POPC     HA       HAL2     0.900000E-01   1.00800           0
     22137 MEMB     166      POPC     HB       HAL2     0.900000E-01   1.00800           0
     22138 MEMB     166      POPC     C2       CTL1     0.170000       12.0110           0
     22139 MEMB     166      POPC     HS       HAL1     0.900000E-01   1.00800           0
     22140 MEMB     166      POPC     O21      OSL     -0.490000       15.9994           0
     22141 MEMB     166      POPC     C21      CL       0.900000       12.0110           0
     22142 MEMB     166      POPC     O22      OBL     -0.630000       15.9994           0
     22143 MEMB     166      POPC     C22      CTL2    -0.220000       12.0110           0
     22144 MEMB     166      POPC     H2R      HAL2     0.900000E-01   1.00800           0
     22145 MEMB     166      POPC     H2S      HAL2     0.900000E-01   1.00800           0
     22146 MEMB     166      POPC     C3       CTL2     0.800000E-01   12.0110           0
     22147 MEMB     166      POPC     HX       HAL2     0.900000E-01   1.00800           0
     22148 MEMB     166      POPC     HY       HAL2     0.900000E-01   1.00800           0
     22149 MEMB     166      POPC     O31      OSL     -0.490000       15.9994           0
     22150 MEMB     166      POPC     C31      CL       0.900000       12.0110           0
     22151 MEMB     166      POPC     O32      OBL     -0.630000       15.9994           0
     22152 MEMB     166      POPC     C32      CTL2    -0.220000       12.0110           0
     22153 MEMB     166      POPC     H2X      HAL2     0.900000E-01   1.00800           0
     22154 MEMB     166      POPC     H2Y      HAL2     0.900000E-01   1.00800           0
     22155 MEMB     166      POPC     C23      CTL2    -0.180000       12.0110           0
     22156 MEMB     166      POPC     H3R      HAL2     0.900000E-01   1.00800           0
     22157 MEMB     166      POPC     H3S      HAL2     0.900000E-01   1.00800           0
     22158 MEMB     166      POPC     C24      CTL2    -0.180000       12.0110           0
     22159 MEMB     166      POPC     H4R      HAL2     0.900000E-01   1.00800           0
     22160 MEMB     166      POPC     H4S      HAL2     0.900000E-01   1.00800           0
     22161 MEMB     166      POPC     C25      CTL2    -0.180000       12.0110           0
     22162 MEMB     166      POPC     H5R      HAL2     0.900000E-01   1.00800           0
     22163 MEMB     166      POPC     H5S      HAL2     0.900000E-01   1.00800           0
     22164 MEMB     166      POPC     C26      CTL2    -0.180000       12.0110           0
     22165 MEMB     166      POPC     H6R      HAL2     0.900000E-01   1.00800           0
     22166 MEMB     166      POPC     H6S      HAL2     0.900000E-01   1.00800           0
     22167 MEMB     166      POPC     C27      CTL2    -0.180000       12.0110           0
     22168 MEMB     166      POPC     H7R      HAL2     0.900000E-01   1.00800           0
     22169 MEMB     166      POPC     H7S      HAL2     0.900000E-01   1.00800           0
     22170 MEMB     166      POPC     C28      CTL2    -0.180000       12.0110           0
     22171 MEMB     166      POPC     H8R      HAL2     0.900000E-01   1.00800           0
     22172 MEMB     166      POPC     H8S      HAL2     0.900000E-01   1.00800           0
     22173 MEMB     166      POPC     C29      CEL1    -0.150000       12.0110           0
     22174 MEMB     166      POPC     H91      HEL1     0.150000       1.00800           0
     22175 MEMB     166      POPC     C210     CEL1    -0.150000       12.0110           0
     22176 MEMB     166      POPC     H101     HEL1     0.150000       1.00800           0
     22177 MEMB     166      POPC     C211     CTL2    -0.180000       12.0110           0
     22178 MEMB     166      POPC     H11R     HAL2     0.900000E-01   1.00800           0
     22179 MEMB     166      POPC     H11S     HAL2     0.900000E-01   1.00800           0
     22180 MEMB     166      POPC     C212     CTL2    -0.180000       12.0110           0
     22181 MEMB     166      POPC     H12R     HAL2     0.900000E-01   1.00800           0
     22182 MEMB     166      POPC     H12S     HAL2     0.900000E-01   1.00800           0
     22183 MEMB     166      POPC     C213     CTL2    -0.180000       12.0110           0
     22184 MEMB     166      POPC     H13R     HAL2     0.900000E-01   1.00800           0
     22185 MEMB     166      POPC     H13S     HAL2     0.900000E-01   1.00800           0
     22186 MEMB     166      POPC     C214     CTL2    -0.180000       12.0110           0
     22187 MEMB     166      POPC     H14R     HAL2     0.900000E-01   1.00800           0
     22188 MEMB     166      POPC     H14S     HAL2     0.900000E-01   1.00800           0
     22189 MEMB     166      POPC     C215     CTL2    -0.180000       12.0110           0
     22190 MEMB     166      POPC     H15R     HAL2     0.900000E-01   1.00800           0
     22191 MEMB     166      POPC     H15S     HAL2     0.900000E-01   1.00800           0
     22192 MEMB     166      POPC     C216     CTL2    -0.180000       12.0110           0
     22193 MEMB     166      POPC     H16R     HAL2     0.900000E-01   1.00800           0
     22194 MEMB     166      POPC     H16S     HAL2     0.900000E-01   1.00800           0
     22195 MEMB     166      POPC     C217     CTL2    -0.180000       12.0110           0
     22196 MEMB     166      POPC     H17R     HAL2     0.900000E-01   1.00800           0
     22197 MEMB     166      POPC     H17S     HAL2     0.900000E-01   1.00800           0
     22198 MEMB     166      POPC     C218     CTL3    -0.270000       12.0110           0
     22199 MEMB     166      POPC     H18R     HAL3     0.900000E-01   1.00800           0
     22200 MEMB     166      POPC     H18S     HAL3     0.900000E-01   1.00800           0
     22201 MEMB     166      POPC     H18T     HAL3     0.900000E-01   1.00800           0
     22202 MEMB     166      POPC     C33      CTL2    -0.180000       12.0110           0
     22203 MEMB     166      POPC     H3X      HAL2     0.900000E-01   1.00800           0
     22204 MEMB     166      POPC     H3Y      HAL2     0.900000E-01   1.00800           0
     22205 MEMB     166      POPC     C34      CTL2    -0.180000       12.0110           0
     22206 MEMB     166      POPC     H4X      HAL2     0.900000E-01   1.00800           0
     22207 MEMB     166      POPC     H4Y      HAL2     0.900000E-01   1.00800           0
     22208 MEMB     166      POPC     C35      CTL2    -0.180000       12.0110           0
     22209 MEMB     166      POPC     H5X      HAL2     0.900000E-01   1.00800           0
     22210 MEMB     166      POPC     H5Y      HAL2     0.900000E-01   1.00800           0
     22211 MEMB     166      POPC     C36      CTL2    -0.180000       12.0110           0
     22212 MEMB     166      POPC     H6X      HAL2     0.900000E-01   1.00800           0
     22213 MEMB     166      POPC     H6Y      HAL2     0.900000E-01   1.00800           0
     22214 MEMB     166      POPC     C37      CTL2    -0.180000       12.0110           0
     22215 MEMB     166      POPC     H7X      HAL2     0.900000E-01   1.00800           0
     22216 MEMB     166      POPC     H7Y      HAL2     0.900000E-01   1.00800           0
     22217 MEMB     166      POPC     C38      CTL2    -0.180000       12.0110           0
     22218 MEMB     166      POPC     H8X      HAL2     0.900000E-01   1.00800           0
     22219 MEMB     166      POPC     H8Y      HAL2     0.900000E-01   1.00800           0
     22220 MEMB     166      POPC     C39      CTL2    -0.180000       12.0110           0
     22221 MEMB     166      POPC     H9X      HAL2     0.900000E-01   1.00800           0
     22222 MEMB     166      POPC     H9Y      HAL2     0.900000E-01   1.00800           0
     22223 MEMB     166      POPC     C310     CTL2    -0.180000       12.0110           0
     22224 MEMB     166      POPC     H10X     HAL2     0.900000E-01   1.00800           0
     22225 MEMB     166      POPC     H10Y     HAL2     0.900000E-01   1.00800           0
     22226 MEMB     166      POPC     C311     CTL2    -0.180000       12.0110           0
     22227 MEMB     166      POPC     H11X     HAL2     0.900000E-01   1.00800           0
     22228 MEMB     166      POPC     H11Y     HAL2     0.900000E-01   1.00800           0
     22229 MEMB     166      POPC     C312     CTL2    -0.180000       12.0110           0
     22230 MEMB     166      POPC     H12X     HAL2     0.900000E-01   1.00800           0
     22231 MEMB     166      POPC     H12Y     HAL2     0.900000E-01   1.00800           0
     22232 MEMB     166      POPC     C313     CTL2    -0.180000       12.0110           0
     22233 MEMB     166      POPC     H13X     HAL2     0.900000E-01   1.00800           0
     22234 MEMB     166      POPC     H13Y     HAL2     0.900000E-01   1.00800           0
     22235 MEMB     166      POPC     C314     CTL2    -0.180000       12.0110           0
     22236 MEMB     166      POPC     H14X     HAL2     0.900000E-01   1.00800           0
     22237 MEMB     166      POPC     H14Y     HAL2     0.900000E-01   1.00800           0
     22238 MEMB     166      POPC     C315     CTL2    -0.180000       12.0110           0
     22239 MEMB     166      POPC     H15X     HAL2     0.900000E-01   1.00800           0
     22240 MEMB     166      POPC     H15Y     HAL2     0.900000E-01   1.00800           0
     22241 MEMB     166      POPC     C316     CTL3    -0.270000       12.0110           0
     22242 MEMB     166      POPC     H16X     HAL3     0.900000E-01   1.00800           0
     22243 MEMB     166      POPC     H16Y     HAL3     0.900000E-01   1.00800           0
     22244 MEMB     166      POPC     H16Z     HAL3     0.900000E-01   1.00800           0
     22245 MEMB     167      POPC     N        NTL     -0.600000       14.0070           0
     22246 MEMB     167      POPC     C12      CTL2    -0.100000       12.0110           0
     22247 MEMB     167      POPC     H12A     HL       0.250000       1.00800           0
     22248 MEMB     167      POPC     H12B     HL       0.250000       1.00800           0
     22249 MEMB     167      POPC     C13      CTL5    -0.350000       12.0110           0
     22250 MEMB     167      POPC     H13A     HL       0.250000       1.00800           0
     22251 MEMB     167      POPC     H13B     HL       0.250000       1.00800           0
     22252 MEMB     167      POPC     H13C     HL       0.250000       1.00800           0
     22253 MEMB     167      POPC     C14      CTL5    -0.350000       12.0110           0
     22254 MEMB     167      POPC     H14A     HL       0.250000       1.00800           0
     22255 MEMB     167      POPC     H14B     HL       0.250000       1.00800           0
     22256 MEMB     167      POPC     H14C     HL       0.250000       1.00800           0
     22257 MEMB     167      POPC     C15      CTL5    -0.350000       12.0110           0
     22258 MEMB     167      POPC     H15A     HL       0.250000       1.00800           0
     22259 MEMB     167      POPC     H15B     HL       0.250000       1.00800           0
     22260 MEMB     167      POPC     H15C     HL       0.250000       1.00800           0
     22261 MEMB     167      POPC     C11      CTL2    -0.800000E-01   12.0110           0
     22262 MEMB     167      POPC     H11A     HAL2     0.900000E-01   1.00800           0
     22263 MEMB     167      POPC     H11B     HAL2     0.900000E-01   1.00800           0
     22264 MEMB     167      POPC     P        PL       1.50000        30.9740           0
     22265 MEMB     167      POPC     O13      O2L     -0.780000       15.9994           0
     22266 MEMB     167      POPC     O14      O2L     -0.780000       15.9994           0
     22267 MEMB     167      POPC     O12      OSLP    -0.570000       15.9994           0
     22268 MEMB     167      POPC     O11      OSLP    -0.570000       15.9994           0
     22269 MEMB     167      POPC     C1       CTL2    -0.800000E-01   12.0110           0
     22270 MEMB     167      POPC     HA       HAL2     0.900000E-01   1.00800           0
     22271 MEMB     167      POPC     HB       HAL2     0.900000E-01   1.00800           0
     22272 MEMB     167      POPC     C2       CTL1     0.170000       12.0110           0
     22273 MEMB     167      POPC     HS       HAL1     0.900000E-01   1.00800           0
     22274 MEMB     167      POPC     O21      OSL     -0.490000       15.9994           0
     22275 MEMB     167      POPC     C21      CL       0.900000       12.0110           0
     22276 MEMB     167      POPC     O22      OBL     -0.630000       15.9994           0
     22277 MEMB     167      POPC     C22      CTL2    -0.220000       12.0110           0
     22278 MEMB     167      POPC     H2R      HAL2     0.900000E-01   1.00800           0
     22279 MEMB     167      POPC     H2S      HAL2     0.900000E-01   1.00800           0
     22280 MEMB     167      POPC     C3       CTL2     0.800000E-01   12.0110           0
     22281 MEMB     167      POPC     HX       HAL2     0.900000E-01   1.00800           0
     22282 MEMB     167      POPC     HY       HAL2     0.900000E-01   1.00800           0
     22283 MEMB     167      POPC     O31      OSL     -0.490000       15.9994           0
     22284 MEMB     167      POPC     C31      CL       0.900000       12.0110           0
     22285 MEMB     167      POPC     O32      OBL     -0.630000       15.9994           0
     22286 MEMB     167      POPC     C32      CTL2    -0.220000       12.0110           0
     22287 MEMB     167      POPC     H2X      HAL2     0.900000E-01   1.00800           0
     22288 MEMB     167      POPC     H2Y      HAL2     0.900000E-01   1.00800           0
     22289 MEMB     167      POPC     C23      CTL2    -0.180000       12.0110           0
     22290 MEMB     167      POPC     H3R      HAL2     0.900000E-01   1.00800           0
     22291 MEMB     167      POPC     H3S      HAL2     0.900000E-01   1.00800           0
     22292 MEMB     167      POPC     C24      CTL2    -0.180000       12.0110           0
     22293 MEMB     167      POPC     H4R      HAL2     0.900000E-01   1.00800           0
     22294 MEMB     167      POPC     H4S      HAL2     0.900000E-01   1.00800           0
     22295 MEMB     167      POPC     C25      CTL2    -0.180000       12.0110           0
     22296 MEMB     167      POPC     H5R      HAL2     0.900000E-01   1.00800           0
     22297 MEMB     167      POPC     H5S      HAL2     0.900000E-01   1.00800           0
     22298 MEMB     167      POPC     C26      CTL2    -0.180000       12.0110           0
     22299 MEMB     167      POPC     H6R      HAL2     0.900000E-01   1.00800           0
     22300 MEMB     167      POPC     H6S      HAL2     0.900000E-01   1.00800           0
     22301 MEMB     167      POPC     C27      CTL2    -0.180000       12.0110           0
     22302 MEMB     167      POPC     H7R      HAL2     0.900000E-01   1.00800           0
     22303 MEMB     167      POPC     H7S      HAL2     0.900000E-01   1.00800           0
     22304 MEMB     167      POPC     C28      CTL2    -0.180000       12.0110           0
     22305 MEMB     167      POPC     H8R      HAL2     0.900000E-01   1.00800           0
     22306 MEMB     167      POPC     H8S      HAL2     0.900000E-01   1.00800           0
     22307 MEMB     167      POPC     C29      CEL1    -0.150000       12.0110           0
     22308 MEMB     167      POPC     H91      HEL1     0.150000       1.00800           0
     22309 MEMB     167      POPC     C210     CEL1    -0.150000       12.0110           0
     22310 MEMB     167      POPC     H101     HEL1     0.150000       1.00800           0
     22311 MEMB     167      POPC     C211     CTL2    -0.180000       12.0110           0
     22312 MEMB     167      POPC     H11R     HAL2     0.900000E-01   1.00800           0
     22313 MEMB     167      POPC     H11S     HAL2     0.900000E-01   1.00800           0
     22314 MEMB     167      POPC     C212     CTL2    -0.180000       12.0110           0
     22315 MEMB     167      POPC     H12R     HAL2     0.900000E-01   1.00800           0
     22316 MEMB     167      POPC     H12S     HAL2     0.900000E-01   1.00800           0
     22317 MEMB     167      POPC     C213     CTL2    -0.180000       12.0110           0
     22318 MEMB     167      POPC     H13R     HAL2     0.900000E-01   1.00800           0
     22319 MEMB     167      POPC     H13S     HAL2     0.900000E-01   1.00800           0
     22320 MEMB     167      POPC     C214     CTL2    -0.180000       12.0110           0
     22321 MEMB     167      POPC     H14R     HAL2     0.900000E-01   1.00800           0
     22322 MEMB     167      POPC     H14S     HAL2     0.900000E-01   1.00800           0
     22323 MEMB     167      POPC     C215     CTL2    -0.180000       12.0110           0
     22324 MEMB     167      POPC     H15R     HAL2     0.900000E-01   1.00800           0
     22325 MEMB     167      POPC     H15S     HAL2     0.900000E-01   1.00800           0
     22326 MEMB     167      POPC     C216     CTL2    -0.180000       12.0110           0
     22327 MEMB     167      POPC     H16R     HAL2     0.900000E-01   1.00800           0
     22328 MEMB     167      POPC     H16S     HAL2     0.900000E-01   1.00800           0
     22329 MEMB     167      POPC     C217     CTL2    -0.180000       12.0110           0
     22330 MEMB     167      POPC     H17R     HAL2     0.900000E-01   1.00800           0
     22331 MEMB     167      POPC     H17S     HAL2     0.900000E-01   1.00800           0
     22332 MEMB     167      POPC     C218     CTL3    -0.270000       12.0110           0
     22333 MEMB     167      POPC     H18R     HAL3     0.900000E-01   1.00800           0
     22334 MEMB     167      POPC     H18S     HAL3     0.900000E-01   1.00800           0
     22335 MEMB     167      POPC     H18T     HAL3     0.900000E-01   1.00800           0
     22336 MEMB     167      POPC     C33      CTL2    -0.180000       12.0110           0
     22337 MEMB     167      POPC     H3X      HAL2     0.900000E-01   1.00800           0
     22338 MEMB     167      POPC     H3Y      HAL2     0.900000E-01   1.00800           0
     22339 MEMB     167      POPC     C34      CTL2    -0.180000       12.0110           0
     22340 MEMB     167      POPC     H4X      HAL2     0.900000E-01   1.00800           0
     22341 MEMB     167      POPC     H4Y      HAL2     0.900000E-01   1.00800           0
     22342 MEMB     167      POPC     C35      CTL2    -0.180000       12.0110           0
     22343 MEMB     167      POPC     H5X      HAL2     0.900000E-01   1.00800           0
     22344 MEMB     167      POPC     H5Y      HAL2     0.900000E-01   1.00800           0
     22345 MEMB     167      POPC     C36      CTL2    -0.180000       12.0110           0
     22346 MEMB     167      POPC     H6X      HAL2     0.900000E-01   1.00800           0
     22347 MEMB     167      POPC     H6Y      HAL2     0.900000E-01   1.00800           0
     22348 MEMB     167      POPC     C37      CTL2    -0.180000       12.0110           0
     22349 MEMB     167      POPC     H7X      HAL2     0.900000E-01   1.00800           0
     22350 MEMB     167      POPC     H7Y      HAL2     0.900000E-01   1.00800           0
     22351 MEMB     167      POPC     C38      CTL2    -0.180000       12.0110           0
     22352 MEMB     167      POPC     H8X      HAL2     0.900000E-01   1.00800           0
     22353 MEMB     167      POPC     H8Y      HAL2     0.900000E-01   1.00800           0
     22354 MEMB     167      POPC     C39      CTL2    -0.180000       12.0110           0
     22355 MEMB     167      POPC     H9X      HAL2     0.900000E-01   1.00800           0
     22356 MEMB     167      POPC     H9Y      HAL2     0.900000E-01   1.00800           0
     22357 MEMB     167      POPC     C310     CTL2    -0.180000       12.0110           0
     22358 MEMB     167      POPC     H10X     HAL2     0.900000E-01   1.00800           0
     22359 MEMB     167      POPC     H10Y     HAL2     0.900000E-01   1.00800           0
     22360 MEMB     167      POPC     C311     CTL2    -0.180000       12.0110           0
     22361 MEMB     167      POPC     H11X     HAL2     0.900000E-01   1.00800           0
     22362 MEMB     167      POPC     H11Y     HAL2     0.900000E-01   1.00800           0
     22363 MEMB     167      POPC     C312     CTL2    -0.180000       12.0110           0
     22364 MEMB     167      POPC     H12X     HAL2     0.900000E-01   1.00800           0
     22365 MEMB     167      POPC     H12Y     HAL2     0.900000E-01   1.00800           0
     22366 MEMB     167      POPC     C313     CTL2    -0.180000       12.0110           0
     22367 MEMB     167      POPC     H13X     HAL2     0.900000E-01   1.00800           0
     22368 MEMB     167      POPC     H13Y     HAL2     0.900000E-01   1.00800           0
     22369 MEMB     167      POPC     C314     CTL2    -0.180000       12.0110           0
     22370 MEMB     167      POPC     H14X     HAL2     0.900000E-01   1.00800           0
     22371 MEMB     167      POPC     H14Y     HAL2     0.900000E-01   1.00800           0
     22372 MEMB     167      POPC     C315     CTL2    -0.180000       12.0110           0
     22373 MEMB     167      POPC     H15X     HAL2     0.900000E-01   1.00800           0
     22374 MEMB     167      POPC     H15Y     HAL2     0.900000E-01   1.00800           0
     22375 MEMB     167      POPC     C316     CTL3    -0.270000       12.0110           0
     22376 MEMB     167      POPC     H16X     HAL3     0.900000E-01   1.00800           0
     22377 MEMB     167      POPC     H16Y     HAL3     0.900000E-01   1.00800           0
     22378 MEMB     167      POPC     H16Z     HAL3     0.900000E-01   1.00800           0
     22379 MEMB     168      POPC     N        NTL     -0.600000       14.0070           0
     22380 MEMB     168      POPC     C12      CTL2    -0.100000       12.0110           0
     22381 MEMB     168      POPC     H12A     HL       0.250000       1.00800           0
     22382 MEMB     168      POPC     H12B     HL       0.250000       1.00800           0
     22383 MEMB     168      POPC     C13      CTL5    -0.350000       12.0110           0
     22384 MEMB     168      POPC     H13A     HL       0.250000       1.00800           0
     22385 MEMB     168      POPC     H13B     HL       0.250000       1.00800           0
     22386 MEMB     168      POPC     H13C     HL       0.250000       1.00800           0
     22387 MEMB     168      POPC     C14      CTL5    -0.350000       12.0110           0
     22388 MEMB     168      POPC     H14A     HL       0.250000       1.00800           0
     22389 MEMB     168      POPC     H14B     HL       0.250000       1.00800           0
     22390 MEMB     168      POPC     H14C     HL       0.250000       1.00800           0
     22391 MEMB     168      POPC     C15      CTL5    -0.350000       12.0110           0
     22392 MEMB     168      POPC     H15A     HL       0.250000       1.00800           0
     22393 MEMB     168      POPC     H15B     HL       0.250000       1.00800           0
     22394 MEMB     168      POPC     H15C     HL       0.250000       1.00800           0
     22395 MEMB     168      POPC     C11      CTL2    -0.800000E-01   12.0110           0
     22396 MEMB     168      POPC     H11A     HAL2     0.900000E-01   1.00800           0
     22397 MEMB     168      POPC     H11B     HAL2     0.900000E-01   1.00800           0
     22398 MEMB     168      POPC     P        PL       1.50000        30.9740           0
     22399 MEMB     168      POPC     O13      O2L     -0.780000       15.9994           0
     22400 MEMB     168      POPC     O14      O2L     -0.780000       15.9994           0
     22401 MEMB     168      POPC     O12      OSLP    -0.570000       15.9994           0
     22402 MEMB     168      POPC     O11      OSLP    -0.570000       15.9994           0
     22403 MEMB     168      POPC     C1       CTL2    -0.800000E-01   12.0110           0
     22404 MEMB     168      POPC     HA       HAL2     0.900000E-01   1.00800           0
     22405 MEMB     168      POPC     HB       HAL2     0.900000E-01   1.00800           0
     22406 MEMB     168      POPC     C2       CTL1     0.170000       12.0110           0
     22407 MEMB     168      POPC     HS       HAL1     0.900000E-01   1.00800           0
     22408 MEMB     168      POPC     O21      OSL     -0.490000       15.9994           0
     22409 MEMB     168      POPC     C21      CL       0.900000       12.0110           0
     22410 MEMB     168      POPC     O22      OBL     -0.630000       15.9994           0
     22411 MEMB     168      POPC     C22      CTL2    -0.220000       12.0110           0
     22412 MEMB     168      POPC     H2R      HAL2     0.900000E-01   1.00800           0
     22413 MEMB     168      POPC     H2S      HAL2     0.900000E-01   1.00800           0
     22414 MEMB     168      POPC     C3       CTL2     0.800000E-01   12.0110           0
     22415 MEMB     168      POPC     HX       HAL2     0.900000E-01   1.00800           0
     22416 MEMB     168      POPC     HY       HAL2     0.900000E-01   1.00800           0
     22417 MEMB     168      POPC     O31      OSL     -0.490000       15.9994           0
     22418 MEMB     168      POPC     C31      CL       0.900000       12.0110           0
     22419 MEMB     168      POPC     O32      OBL     -0.630000       15.9994           0
     22420 MEMB     168      POPC     C32      CTL2    -0.220000       12.0110           0
     22421 MEMB     168      POPC     H2X      HAL2     0.900000E-01   1.00800           0
     22422 MEMB     168      POPC     H2Y      HAL2     0.900000E-01   1.00800           0
     22423 MEMB     168      POPC     C23      CTL2    -0.180000       12.0110           0
     22424 MEMB     168      POPC     H3R      HAL2     0.900000E-01   1.00800           0
     22425 MEMB     168      POPC     H3S      HAL2     0.900000E-01   1.00800           0
     22426 MEMB     168      POPC     C24      CTL2    -0.180000       12.0110           0
     22427 MEMB     168      POPC     H4R      HAL2     0.900000E-01   1.00800           0
     22428 MEMB     168      POPC     H4S      HAL2     0.900000E-01   1.00800           0
     22429 MEMB     168      POPC     C25      CTL2    -0.180000       12.0110           0
     22430 MEMB     168      POPC     H5R      HAL2     0.900000E-01   1.00800           0
     22431 MEMB     168      POPC     H5S      HAL2     0.900000E-01   1.00800           0
     22432 MEMB     168      POPC     C26      CTL2    -0.180000       12.0110           0
     22433 MEMB     168      POPC     H6R      HAL2     0.900000E-01   1.00800           0
     22434 MEMB     168      POPC     H6S      HAL2     0.900000E-01   1.00800           0
     22435 MEMB     168      POPC     C27      CTL2    -0.180000       12.0110           0
     22436 MEMB     168      POPC     H7R      HAL2     0.900000E-01   1.00800           0
     22437 MEMB     168      POPC     H7S      HAL2     0.900000E-01   1.00800           0
     22438 MEMB     168      POPC     C28      CTL2    -0.180000       12.0110           0
     22439 MEMB     168      POPC     H8R      HAL2     0.900000E-01   1.00800           0
     22440 MEMB     168      POPC     H8S      HAL2     0.900000E-01   1.00800           0
     22441 MEMB     168      POPC     C29      CEL1    -0.150000       12.0110           0
     22442 MEMB     168      POPC     H91      HEL1     0.150000       1.00800           0
     22443 MEMB     168      POPC     C210     CEL1    -0.150000       12.0110           0
     22444 MEMB     168      POPC     H101     HEL1     0.150000       1.00800           0
     22445 MEMB     168      POPC     C211     CTL2    -0.180000       12.0110           0
     22446 MEMB     168      POPC     H11R     HAL2     0.900000E-01   1.00800           0
     22447 MEMB     168      POPC     H11S     HAL2     0.900000E-01   1.00800           0
     22448 MEMB     168      POPC     C212     CTL2    -0.180000       12.0110           0
     22449 MEMB     168      POPC     H12R     HAL2     0.900000E-01   1.00800           0
     22450 MEMB     168      POPC     H12S     HAL2     0.900000E-01   1.00800           0
     22451 MEMB     168      POPC     C213     CTL2    -0.180000       12.0110           0
     22452 MEMB     168      POPC     H13R     HAL2     0.900000E-01   1.00800           0
     22453 MEMB     168      POPC     H13S     HAL2     0.900000E-01   1.00800           0
     22454 MEMB     168      POPC     C214     CTL2    -0.180000       12.0110           0
     22455 MEMB     168      POPC     H14R     HAL2     0.900000E-01   1.00800           0
     22456 MEMB     168      POPC     H14S     HAL2     0.900000E-01   1.00800           0
     22457 MEMB     168      POPC     C215     CTL2    -0.180000       12.0110           0
     22458 MEMB     168      POPC     H15R     HAL2     0.900000E-01   1.00800           0
     22459 MEMB     168      POPC     H15S     HAL2     0.900000E-01   1.00800           0
     22460 MEMB     168      POPC     C216     CTL2    -0.180000       12.0110           0
     22461 MEMB     168      POPC     H16R     HAL2     0.900000E-01   1.00800           0
     22462 MEMB     168      POPC     H16S     HAL2     0.900000E-01   1.00800           0
     22463 MEMB     168      POPC     C217     CTL2    -0.180000       12.0110           0
     22464 MEMB     168      POPC     H17R     HAL2     0.900000E-01   1.00800           0
     22465 MEMB     168      POPC     H17S     HAL2     0.900000E-01   1.00800           0
     22466 MEMB     168      POPC     C218     CTL3    -0.270000       12.0110           0
     22467 MEMB     168      POPC     H18R     HAL3     0.900000E-01   1.00800           0
     22468 MEMB     168      POPC     H18S     HAL3     0.900000E-01   1.00800           0
     22469 MEMB     168      POPC     H18T     HAL3     0.900000E-01   1.00800           0
     22470 MEMB     168      POPC     C33      CTL2    -0.180000       12.0110           0
     22471 MEMB     168      POPC     H3X      HAL2     0.900000E-01   1.00800           0
     22472 MEMB     168      POPC     H3Y      HAL2     0.900000E-01   1.00800           0
     22473 MEMB     168      POPC     C34      CTL2    -0.180000       12.0110           0
     22474 MEMB     168      POPC     H4X      HAL2     0.900000E-01   1.00800           0
     22475 MEMB     168      POPC     H4Y      HAL2     0.900000E-01   1.00800           0
     22476 MEMB     168      POPC     C35      CTL2    -0.180000       12.0110           0
     22477 MEMB     168      POPC     H5X      HAL2     0.900000E-01   1.00800           0
     22478 MEMB     168      POPC     H5Y      HAL2     0.900000E-01   1.00800           0
     22479 MEMB     168      POPC     C36      CTL2    -0.180000       12.0110           0
     22480 MEMB     168      POPC     H6X      HAL2     0.900000E-01   1.00800           0
     22481 MEMB     168      POPC     H6Y      HAL2     0.900000E-01   1.00800           0
     22482 MEMB     168      POPC     C37      CTL2    -0.180000       12.0110           0
     22483 MEMB     168      POPC     H7X      HAL2     0.900000E-01   1.00800           0
     22484 MEMB     168      POPC     H7Y      HAL2     0.900000E-01   1.00800           0
     22485 MEMB     168      POPC     C38      CTL2    -0.180000       12.0110           0
     22486 MEMB     168      POPC     H8X      HAL2     0.900000E-01   1.00800           0
     22487 MEMB     168      POPC     H8Y      HAL2     0.900000E-01   1.00800           0
     22488 MEMB     168      POPC     C39      CTL2    -0.180000       12.0110           0
     22489 MEMB     168      POPC     H9X      HAL2     0.900000E-01   1.00800           0
     22490 MEMB     168      POPC     H9Y      HAL2     0.900000E-01   1.00800           0
     22491 MEMB     168      POPC     C310     CTL2    -0.180000       12.0110           0
     22492 MEMB     168      POPC     H10X     HAL2     0.900000E-01   1.00800           0
     22493 MEMB     168      POPC     H10Y     HAL2     0.900000E-01   1.00800           0
     22494 MEMB     168      POPC     C311     CTL2    -0.180000       12.0110           0
     22495 MEMB     168      POPC     H11X     HAL2     0.900000E-01   1.00800           0
     22496 MEMB     168      POPC     H11Y     HAL2     0.900000E-01   1.00800           0
     22497 MEMB     168      POPC     C312     CTL2    -0.180000       12.0110           0
     22498 MEMB     168      POPC     H12X     HAL2     0.900000E-01   1.00800           0
     22499 MEMB     168      POPC     H12Y     HAL2     0.900000E-01   1.00800           0
     22500 MEMB     168      POPC     C313     CTL2    -0.180000       12.0110           0
     22501 MEMB     168      POPC     H13X     HAL2     0.900000E-01   1.00800           0
     22502 MEMB     168      POPC     H13Y     HAL2     0.900000E-01   1.00800           0
     22503 MEMB     168      POPC     C314     CTL2    -0.180000       12.0110           0
     22504 MEMB     168      POPC     H14X     HAL2     0.900000E-01   1.00800           0
     22505 MEMB     168      POPC     H14Y     HAL2     0.900000E-01   1.00800           0
     22506 MEMB     168      POPC     C315     CTL2    -0.180000       12.0110           0
     22507 MEMB     168      POPC     H15X     HAL2     0.900000E-01   1.00800           0
     22508 MEMB     168      POPC     H15Y     HAL2     0.900000E-01   1.00800           0
     22509 MEMB     168      POPC     C316     CTL3    -0.270000       12.0110           0
     22510 MEMB     168      POPC     H16X     HAL3     0.900000E-01   1.00800           0
     22511 MEMB     168      POPC     H16Y     HAL3     0.900000E-01   1.00800           0
     22512 MEMB     168      POPC     H16Z     HAL3     0.900000E-01   1.00800           0
     22513 MEMB     169      POPC     N        NTL     -0.600000       14.0070           0
     22514 MEMB     169      POPC     C12      CTL2    -0.100000       12.0110           0
     22515 MEMB     169      POPC     H12A     HL       0.250000       1.00800           0
     22516 MEMB     169      POPC     H12B     HL       0.250000       1.00800           0
     22517 MEMB     169      POPC     C13      CTL5    -0.350000       12.0110           0
     22518 MEMB     169      POPC     H13A     HL       0.250000       1.00800           0
     22519 MEMB     169      POPC     H13B     HL       0.250000       1.00800           0
     22520 MEMB     169      POPC     H13C     HL       0.250000       1.00800           0
     22521 MEMB     169      POPC     C14      CTL5    -0.350000       12.0110           0
     22522 MEMB     169      POPC     H14A     HL       0.250000       1.00800           0
     22523 MEMB     169      POPC     H14B     HL       0.250000       1.00800           0
     22524 MEMB     169      POPC     H14C     HL       0.250000       1.00800           0
     22525 MEMB     169      POPC     C15      CTL5    -0.350000       12.0110           0
     22526 MEMB     169      POPC     H15A     HL       0.250000       1.00800           0
     22527 MEMB     169      POPC     H15B     HL       0.250000       1.00800           0
     22528 MEMB     169      POPC     H15C     HL       0.250000       1.00800           0
     22529 MEMB     169      POPC     C11      CTL2    -0.800000E-01   12.0110           0
     22530 MEMB     169      POPC     H11A     HAL2     0.900000E-01   1.00800           0
     22531 MEMB     169      POPC     H11B     HAL2     0.900000E-01   1.00800           0
     22532 MEMB     169      POPC     P        PL       1.50000        30.9740           0
     22533 MEMB     169      POPC     O13      O2L     -0.780000       15.9994           0
     22534 MEMB     169      POPC     O14      O2L     -0.780000       15.9994           0
     22535 MEMB     169      POPC     O12      OSLP    -0.570000       15.9994           0
     22536 MEMB     169      POPC     O11      OSLP    -0.570000       15.9994           0
     22537 MEMB     169      POPC     C1       CTL2    -0.800000E-01   12.0110           0
     22538 MEMB     169      POPC     HA       HAL2     0.900000E-01   1.00800           0
     22539 MEMB     169      POPC     HB       HAL2     0.900000E-01   1.00800           0
     22540 MEMB     169      POPC     C2       CTL1     0.170000       12.0110           0
     22541 MEMB     169      POPC     HS       HAL1     0.900000E-01   1.00800           0
     22542 MEMB     169      POPC     O21      OSL     -0.490000       15.9994           0
     22543 MEMB     169      POPC     C21      CL       0.900000       12.0110           0
     22544 MEMB     169      POPC     O22      OBL     -0.630000       15.9994           0
     22545 MEMB     169      POPC     C22      CTL2    -0.220000       12.0110           0
     22546 MEMB     169      POPC     H2R      HAL2     0.900000E-01   1.00800           0
     22547 MEMB     169      POPC     H2S      HAL2     0.900000E-01   1.00800           0
     22548 MEMB     169      POPC     C3       CTL2     0.800000E-01   12.0110           0
     22549 MEMB     169      POPC     HX       HAL2     0.900000E-01   1.00800           0
     22550 MEMB     169      POPC     HY       HAL2     0.900000E-01   1.00800           0
     22551 MEMB     169      POPC     O31      OSL     -0.490000       15.9994           0
     22552 MEMB     169      POPC     C31      CL       0.900000       12.0110           0
     22553 MEMB     169      POPC     O32      OBL     -0.630000       15.9994           0
     22554 MEMB     169      POPC     C32      CTL2    -0.220000       12.0110           0
     22555 MEMB     169      POPC     H2X      HAL2     0.900000E-01   1.00800           0
     22556 MEMB     169      POPC     H2Y      HAL2     0.900000E-01   1.00800           0
     22557 MEMB     169      POPC     C23      CTL2    -0.180000       12.0110           0
     22558 MEMB     169      POPC     H3R      HAL2     0.900000E-01   1.00800           0
     22559 MEMB     169      POPC     H3S      HAL2     0.900000E-01   1.00800           0
     22560 MEMB     169      POPC     C24      CTL2    -0.180000       12.0110           0
     22561 MEMB     169      POPC     H4R      HAL2     0.900000E-01   1.00800           0
     22562 MEMB     169      POPC     H4S      HAL2     0.900000E-01   1.00800           0
     22563 MEMB     169      POPC     C25      CTL2    -0.180000       12.0110           0
     22564 MEMB     169      POPC     H5R      HAL2     0.900000E-01   1.00800           0
     22565 MEMB     169      POPC     H5S      HAL2     0.900000E-01   1.00800           0
     22566 MEMB     169      POPC     C26      CTL2    -0.180000       12.0110           0
     22567 MEMB     169      POPC     H6R      HAL2     0.900000E-01   1.00800           0
     22568 MEMB     169      POPC     H6S      HAL2     0.900000E-01   1.00800           0
     22569 MEMB     169      POPC     C27      CTL2    -0.180000       12.0110           0
     22570 MEMB     169      POPC     H7R      HAL2     0.900000E-01   1.00800           0
     22571 MEMB     169      POPC     H7S      HAL2     0.900000E-01   1.00800           0
     22572 MEMB     169      POPC     C28      CTL2    -0.180000       12.0110           0
     22573 MEMB     169      POPC     H8R      HAL2     0.900000E-01   1.00800           0
     22574 MEMB     169      POPC     H8S      HAL2     0.900000E-01   1.00800           0
     22575 MEMB     169      POPC     C29      CEL1    -0.150000       12.0110           0
     22576 MEMB     169      POPC     H91      HEL1     0.150000       1.00800           0
     22577 MEMB     169      POPC     C210     CEL1    -0.150000       12.0110           0
     22578 MEMB     169      POPC     H101     HEL1     0.150000       1.00800           0
     22579 MEMB     169      POPC     C211     CTL2    -0.180000       12.0110           0
     22580 MEMB     169      POPC     H11R     HAL2     0.900000E-01   1.00800           0
     22581 MEMB     169      POPC     H11S     HAL2     0.900000E-01   1.00800           0
     22582 MEMB     169      POPC     C212     CTL2    -0.180000       12.0110           0
     22583 MEMB     169      POPC     H12R     HAL2     0.900000E-01   1.00800           0
     22584 MEMB     169      POPC     H12S     HAL2     0.900000E-01   1.00800           0
     22585 MEMB     169      POPC     C213     CTL2    -0.180000       12.0110           0
     22586 MEMB     169      POPC     H13R     HAL2     0.900000E-01   1.00800           0
     22587 MEMB     169      POPC     H13S     HAL2     0.900000E-01   1.00800           0
     22588 MEMB     169      POPC     C214     CTL2    -0.180000       12.0110           0
     22589 MEMB     169      POPC     H14R     HAL2     0.900000E-01   1.00800           0
     22590 MEMB     169      POPC     H14S     HAL2     0.900000E-01   1.00800           0
     22591 MEMB     169      POPC     C215     CTL2    -0.180000       12.0110           0
     22592 MEMB     169      POPC     H15R     HAL2     0.900000E-01   1.00800           0
     22593 MEMB     169      POPC     H15S     HAL2     0.900000E-01   1.00800           0
     22594 MEMB     169      POPC     C216     CTL2    -0.180000       12.0110           0
     22595 MEMB     169      POPC     H16R     HAL2     0.900000E-01   1.00800           0
     22596 MEMB     169      POPC     H16S     HAL2     0.900000E-01   1.00800           0
     22597 MEMB     169      POPC     C217     CTL2    -0.180000       12.0110           0
     22598 MEMB     169      POPC     H17R     HAL2     0.900000E-01   1.00800           0
     22599 MEMB     169      POPC     H17S     HAL2     0.900000E-01   1.00800           0
     22600 MEMB     169      POPC     C218     CTL3    -0.270000       12.0110           0
     22601 MEMB     169      POPC     H18R     HAL3     0.900000E-01   1.00800           0
     22602 MEMB     169      POPC     H18S     HAL3     0.900000E-01   1.00800           0
     22603 MEMB     169      POPC     H18T     HAL3     0.900000E-01   1.00800           0
     22604 MEMB     169      POPC     C33      CTL2    -0.180000       12.0110           0
     22605 MEMB     169      POPC     H3X      HAL2     0.900000E-01   1.00800           0
     22606 MEMB     169      POPC     H3Y      HAL2     0.900000E-01   1.00800           0
     22607 MEMB     169      POPC     C34      CTL2    -0.180000       12.0110           0
     22608 MEMB     169      POPC     H4X      HAL2     0.900000E-01   1.00800           0
     22609 MEMB     169      POPC     H4Y      HAL2     0.900000E-01   1.00800           0
     22610 MEMB     169      POPC     C35      CTL2    -0.180000       12.0110           0
     22611 MEMB     169      POPC     H5X      HAL2     0.900000E-01   1.00800           0
     22612 MEMB     169      POPC     H5Y      HAL2     0.900000E-01   1.00800           0
     22613 MEMB     169      POPC     C36      CTL2    -0.180000       12.0110           0
     22614 MEMB     169      POPC     H6X      HAL2     0.900000E-01   1.00800           0
     22615 MEMB     169      POPC     H6Y      HAL2     0.900000E-01   1.00800           0
     22616 MEMB     169      POPC     C37      CTL2    -0.180000       12.0110           0
     22617 MEMB     169      POPC     H7X      HAL2     0.900000E-01   1.00800           0
     22618 MEMB     169      POPC     H7Y      HAL2     0.900000E-01   1.00800           0
     22619 MEMB     169      POPC     C38      CTL2    -0.180000       12.0110           0
     22620 MEMB     169      POPC     H8X      HAL2     0.900000E-01   1.00800           0
     22621 MEMB     169      POPC     H8Y      HAL2     0.900000E-01   1.00800           0
     22622 MEMB     169      POPC     C39      CTL2    -0.180000       12.0110           0
     22623 MEMB     169      POPC     H9X      HAL2     0.900000E-01   1.00800           0
     22624 MEMB     169      POPC     H9Y      HAL2     0.900000E-01   1.00800           0
     22625 MEMB     169      POPC     C310     CTL2    -0.180000       12.0110           0
     22626 MEMB     169      POPC     H10X     HAL2     0.900000E-01   1.00800           0
     22627 MEMB     169      POPC     H10Y     HAL2     0.900000E-01   1.00800           0
     22628 MEMB     169      POPC     C311     CTL2    -0.180000       12.0110           0
     22629 MEMB     169      POPC     H11X     HAL2     0.900000E-01   1.00800           0
     22630 MEMB     169      POPC     H11Y     HAL2     0.900000E-01   1.00800           0
     22631 MEMB     169      POPC     C312     CTL2    -0.180000       12.0110           0
     22632 MEMB     169      POPC     H12X     HAL2     0.900000E-01   1.00800           0
     22633 MEMB     169      POPC     H12Y     HAL2     0.900000E-01   1.00800           0
     22634 MEMB     169      POPC     C313     CTL2    -0.180000       12.0110           0
     22635 MEMB     169      POPC     H13X     HAL2     0.900000E-01   1.00800           0
     22636 MEMB     169      POPC     H13Y     HAL2     0.900000E-01   1.00800           0
     22637 MEMB     169      POPC     C314     CTL2    -0.180000       12.0110           0
     22638 MEMB     169      POPC     H14X     HAL2     0.900000E-01   1.00800           0
     22639 MEMB     169      POPC     H14Y     HAL2     0.900000E-01   1.00800           0
     22640 MEMB     169      POPC     C315     CTL2    -0.180000       12.0110           0
     22641 MEMB     169      POPC     H15X     HAL2     0.900000E-01   1.00800           0
     22642 MEMB     169      POPC     H15Y     HAL2     0.900000E-01   1.00800           0
     22643 MEMB     169      POPC     C316     CTL3    -0.270000       12.0110           0
     22644 MEMB     169      POPC     H16X     HAL3     0.900000E-01   1.00800           0
     22645 MEMB     169      POPC     H16Y     HAL3     0.900000E-01   1.00800           0
     22646 MEMB     169      POPC     H16Z     HAL3     0.900000E-01   1.00800           0
     22647 MEMB     170      POPC     N        NTL     -0.600000       14.0070           0
     22648 MEMB     170      POPC     C12      CTL2    -0.100000       12.0110           0
     22649 MEMB     170      POPC     H12A     HL       0.250000       1.00800           0
     22650 MEMB     170      POPC     H12B     HL       0.250000       1.00800           0
     22651 MEMB     170      POPC     C13      CTL5    -0.350000       12.0110           0
     22652 MEMB     170      POPC     H13A     HL       0.250000       1.00800           0
     22653 MEMB     170      POPC     H13B     HL       0.250000       1.00800           0
     22654 MEMB     170      POPC     H13C     HL       0.250000       1.00800           0
     22655 MEMB     170      POPC     C14      CTL5    -0.350000       12.0110           0
     22656 MEMB     170      POPC     H14A     HL       0.250000       1.00800           0
     22657 MEMB     170      POPC     H14B     HL       0.250000       1.00800           0
     22658 MEMB     170      POPC     H14C     HL       0.250000       1.00800           0
     22659 MEMB     170      POPC     C15      CTL5    -0.350000       12.0110           0
     22660 MEMB     170      POPC     H15A     HL       0.250000       1.00800           0
     22661 MEMB     170      POPC     H15B     HL       0.250000       1.00800           0
     22662 MEMB     170      POPC     H15C     HL       0.250000       1.00800           0
     22663 MEMB     170      POPC     C11      CTL2    -0.800000E-01   12.0110           0
     22664 MEMB     170      POPC     H11A     HAL2     0.900000E-01   1.00800           0
     22665 MEMB     170      POPC     H11B     HAL2     0.900000E-01   1.00800           0
     22666 MEMB     170      POPC     P        PL       1.50000        30.9740           0
     22667 MEMB     170      POPC     O13      O2L     -0.780000       15.9994           0
     22668 MEMB     170      POPC     O14      O2L     -0.780000       15.9994           0
     22669 MEMB     170      POPC     O12      OSLP    -0.570000       15.9994           0
     22670 MEMB     170      POPC     O11      OSLP    -0.570000       15.9994           0
     22671 MEMB     170      POPC     C1       CTL2    -0.800000E-01   12.0110           0
     22672 MEMB     170      POPC     HA       HAL2     0.900000E-01   1.00800           0
     22673 MEMB     170      POPC     HB       HAL2     0.900000E-01   1.00800           0
     22674 MEMB     170      POPC     C2       CTL1     0.170000       12.0110           0
     22675 MEMB     170      POPC     HS       HAL1     0.900000E-01   1.00800           0
     22676 MEMB     170      POPC     O21      OSL     -0.490000       15.9994           0
     22677 MEMB     170      POPC     C21      CL       0.900000       12.0110           0
     22678 MEMB     170      POPC     O22      OBL     -0.630000       15.9994           0
     22679 MEMB     170      POPC     C22      CTL2    -0.220000       12.0110           0
     22680 MEMB     170      POPC     H2R      HAL2     0.900000E-01   1.00800           0
     22681 MEMB     170      POPC     H2S      HAL2     0.900000E-01   1.00800           0
     22682 MEMB     170      POPC     C3       CTL2     0.800000E-01   12.0110           0
     22683 MEMB     170      POPC     HX       HAL2     0.900000E-01   1.00800           0
     22684 MEMB     170      POPC     HY       HAL2     0.900000E-01   1.00800           0
     22685 MEMB     170      POPC     O31      OSL     -0.490000       15.9994           0
     22686 MEMB     170      POPC     C31      CL       0.900000       12.0110           0
     22687 MEMB     170      POPC     O32      OBL     -0.630000       15.9994           0
     22688 MEMB     170      POPC     C32      CTL2    -0.220000       12.0110           0
     22689 MEMB     170      POPC     H2X      HAL2     0.900000E-01   1.00800           0
     22690 MEMB     170      POPC     H2Y      HAL2     0.900000E-01   1.00800           0
     22691 MEMB     170      POPC     C23      CTL2    -0.180000       12.0110           0
     22692 MEMB     170      POPC     H3R      HAL2     0.900000E-01   1.00800           0
     22693 MEMB     170      POPC     H3S      HAL2     0.900000E-01   1.00800           0
     22694 MEMB     170      POPC     C24      CTL2    -0.180000       12.0110           0
     22695 MEMB     170      POPC     H4R      HAL2     0.900000E-01   1.00800           0
     22696 MEMB     170      POPC     H4S      HAL2     0.900000E-01   1.00800           0
     22697 MEMB     170      POPC     C25      CTL2    -0.180000       12.0110           0
     22698 MEMB     170      POPC     H5R      HAL2     0.900000E-01   1.00800           0
     22699 MEMB     170      POPC     H5S      HAL2     0.900000E-01   1.00800           0
     22700 MEMB     170      POPC     C26      CTL2    -0.180000       12.0110           0
     22701 MEMB     170      POPC     H6R      HAL2     0.900000E-01   1.00800           0
     22702 MEMB     170      POPC     H6S      HAL2     0.900000E-01   1.00800           0
     22703 MEMB     170      POPC     C27      CTL2    -0.180000       12.0110           0
     22704 MEMB     170      POPC     H7R      HAL2     0.900000E-01   1.00800           0
     22705 MEMB     170      POPC     H7S      HAL2     0.900000E-01   1.00800           0
     22706 MEMB     170      POPC     C28      CTL2    -0.180000       12.0110           0
     22707 MEMB     170      POPC     H8R      HAL2     0.900000E-01   1.00800           0
     22708 MEMB     170      POPC     H8S      HAL2     0.900000E-01   1.00800           0
     22709 MEMB     170      POPC     C29      CEL1    -0.150000       12.0110           0
     22710 MEMB     170      POPC     H91      HEL1     0.150000       1.00800           0
     22711 MEMB     170      POPC     C210     CEL1    -0.150000       12.0110           0
     22712 MEMB     170      POPC     H101     HEL1     0.150000       1.00800           0
     22713 MEMB     170      POPC     C211     CTL2    -0.180000       12.0110           0
     22714 MEMB     170      POPC     H11R     HAL2     0.900000E-01   1.00800           0
     22715 MEMB     170      POPC     H11S     HAL2     0.900000E-01   1.00800           0
     22716 MEMB     170      POPC     C212     CTL2    -0.180000       12.0110           0
     22717 MEMB     170      POPC     H12R     HAL2     0.900000E-01   1.00800           0
     22718 MEMB     170      POPC     H12S     HAL2     0.900000E-01   1.00800           0
     22719 MEMB     170      POPC     C213     CTL2    -0.180000       12.0110           0
     22720 MEMB     170      POPC     H13R     HAL2     0.900000E-01   1.00800           0
     22721 MEMB     170      POPC     H13S     HAL2     0.900000E-01   1.00800           0
     22722 MEMB     170      POPC     C214     CTL2    -0.180000       12.0110           0
     22723 MEMB     170      POPC     H14R     HAL2     0.900000E-01   1.00800           0
     22724 MEMB     170      POPC     H14S     HAL2     0.900000E-01   1.00800           0
     22725 MEMB     170      POPC     C215     CTL2    -0.180000       12.0110           0
     22726 MEMB     170      POPC     H15R     HAL2     0.900000E-01   1.00800           0
     22727 MEMB     170      POPC     H15S     HAL2     0.900000E-01   1.00800           0
     22728 MEMB     170      POPC     C216     CTL2    -0.180000       12.0110           0
     22729 MEMB     170      POPC     H16R     HAL2     0.900000E-01   1.00800           0
     22730 MEMB     170      POPC     H16S     HAL2     0.900000E-01   1.00800           0
     22731 MEMB     170      POPC     C217     CTL2    -0.180000       12.0110           0
     22732 MEMB     170      POPC     H17R     HAL2     0.900000E-01   1.00800           0
     22733 MEMB     170      POPC     H17S     HAL2     0.900000E-01   1.00800           0
     22734 MEMB     170      POPC     C218     CTL3    -0.270000       12.0110           0
     22735 MEMB     170      POPC     H18R     HAL3     0.900000E-01   1.00800           0
     22736 MEMB     170      POPC     H18S     HAL3     0.900000E-01   1.00800           0
     22737 MEMB     170      POPC     H18T     HAL3     0.900000E-01   1.00800           0
     22738 MEMB     170      POPC     C33      CTL2    -0.180000       12.0110           0
     22739 MEMB     170      POPC     H3X      HAL2     0.900000E-01   1.00800           0
     22740 MEMB     170      POPC     H3Y      HAL2     0.900000E-01   1.00800           0
     22741 MEMB     170      POPC     C34      CTL2    -0.180000       12.0110           0
     22742 MEMB     170      POPC     H4X      HAL2     0.900000E-01   1.00800           0
     22743 MEMB     170      POPC     H4Y      HAL2     0.900000E-01   1.00800           0
     22744 MEMB     170      POPC     C35      CTL2    -0.180000       12.0110           0
     22745 MEMB     170      POPC     H5X      HAL2     0.900000E-01   1.00800           0
     22746 MEMB     170      POPC     H5Y      HAL2     0.900000E-01   1.00800           0
     22747 MEMB     170      POPC     C36      CTL2    -0.180000       12.0110           0
     22748 MEMB     170      POPC     H6X      HAL2     0.900000E-01   1.00800           0
     22749 MEMB     170      POPC     H6Y      HAL2     0.900000E-01   1.00800           0
     22750 MEMB     170      POPC     C37      CTL2    -0.180000       12.0110           0
     22751 MEMB     170      POPC     H7X      HAL2     0.900000E-01   1.00800           0
     22752 MEMB     170      POPC     H7Y      HAL2     0.900000E-01   1.00800           0
     22753 MEMB     170      POPC     C38      CTL2    -0.180000       12.0110           0
     22754 MEMB     170      POPC     H8X      HAL2     0.900000E-01   1.00800           0
     22755 MEMB     170      POPC     H8Y      HAL2     0.900000E-01   1.00800           0
     22756 MEMB     170      POPC     C39      CTL2    -0.180000       12.0110           0
     22757 MEMB     170      POPC     H9X      HAL2     0.900000E-01   1.00800           0
     22758 MEMB     170      POPC     H9Y      HAL2     0.900000E-01   1.00800           0
     22759 MEMB     170      POPC     C310     CTL2    -0.180000       12.0110           0
     22760 MEMB     170      POPC     H10X     HAL2     0.900000E-01   1.00800           0
     22761 MEMB     170      POPC     H10Y     HAL2     0.900000E-01   1.00800           0
     22762 MEMB     170      POPC     C311     CTL2    -0.180000       12.0110           0
     22763 MEMB     170      POPC     H11X     HAL2     0.900000E-01   1.00800           0
     22764 MEMB     170      POPC     H11Y     HAL2     0.900000E-01   1.00800           0
     22765 MEMB     170      POPC     C312     CTL2    -0.180000       12.0110           0
     22766 MEMB     170      POPC     H12X     HAL2     0.900000E-01   1.00800           0
     22767 MEMB     170      POPC     H12Y     HAL2     0.900000E-01   1.00800           0
     22768 MEMB     170      POPC     C313     CTL2    -0.180000       12.0110           0
     22769 MEMB     170      POPC     H13X     HAL2     0.900000E-01   1.00800           0
     22770 MEMB     170      POPC     H13Y     HAL2     0.900000E-01   1.00800           0
     22771 MEMB     170      POPC     C314     CTL2    -0.180000       12.0110           0
     22772 MEMB     170      POPC     H14X     HAL2     0.900000E-01   1.00800           0
     22773 MEMB     170      POPC     H14Y     HAL2     0.900000E-01   1.00800           0
     22774 MEMB     170      POPC     C315     CTL2    -0.180000       12.0110           0
     22775 MEMB     170      POPC     H15X     HAL2     0.900000E-01   1.00800           0
     22776 MEMB     170      POPC     H15Y     HAL2     0.900000E-01   1.00800           0
     22777 MEMB     170      POPC     C316     CTL3    -0.270000       12.0110           0
     22778 MEMB     170      POPC     H16X     HAL3     0.900000E-01   1.00800           0
     22779 MEMB     170      POPC     H16Y     HAL3     0.900000E-01   1.00800           0
     22780 MEMB     170      POPC     H16Z     HAL3     0.900000E-01   1.00800           0
     22781 MEMB     171      POPC     N        NTL     -0.600000       14.0070           0
     22782 MEMB     171      POPC     C12      CTL2    -0.100000       12.0110           0
     22783 MEMB     171      POPC     H12A     HL       0.250000       1.00800           0
     22784 MEMB     171      POPC     H12B     HL       0.250000       1.00800           0
     22785 MEMB     171      POPC     C13      CTL5    -0.350000       12.0110           0
     22786 MEMB     171      POPC     H13A     HL       0.250000       1.00800           0
     22787 MEMB     171      POPC     H13B     HL       0.250000       1.00800           0
     22788 MEMB     171      POPC     H13C     HL       0.250000       1.00800           0
     22789 MEMB     171      POPC     C14      CTL5    -0.350000       12.0110           0
     22790 MEMB     171      POPC     H14A     HL       0.250000       1.00800           0
     22791 MEMB     171      POPC     H14B     HL       0.250000       1.00800           0
     22792 MEMB     171      POPC     H14C     HL       0.250000       1.00800           0
     22793 MEMB     171      POPC     C15      CTL5    -0.350000       12.0110           0
     22794 MEMB     171      POPC     H15A     HL       0.250000       1.00800           0
     22795 MEMB     171      POPC     H15B     HL       0.250000       1.00800           0
     22796 MEMB     171      POPC     H15C     HL       0.250000       1.00800           0
     22797 MEMB     171      POPC     C11      CTL2    -0.800000E-01   12.0110           0
     22798 MEMB     171      POPC     H11A     HAL2     0.900000E-01   1.00800           0
     22799 MEMB     171      POPC     H11B     HAL2     0.900000E-01   1.00800           0
     22800 MEMB     171      POPC     P        PL       1.50000        30.9740           0
     22801 MEMB     171      POPC     O13      O2L     -0.780000       15.9994           0
     22802 MEMB     171      POPC     O14      O2L     -0.780000       15.9994           0
     22803 MEMB     171      POPC     O12      OSLP    -0.570000       15.9994           0
     22804 MEMB     171      POPC     O11      OSLP    -0.570000       15.9994           0
     22805 MEMB     171      POPC     C1       CTL2    -0.800000E-01   12.0110           0
     22806 MEMB     171      POPC     HA       HAL2     0.900000E-01   1.00800           0
     22807 MEMB     171      POPC     HB       HAL2     0.900000E-01   1.00800           0
     22808 MEMB     171      POPC     C2       CTL1     0.170000       12.0110           0
     22809 MEMB     171      POPC     HS       HAL1     0.900000E-01   1.00800           0
     22810 MEMB     171      POPC     O21      OSL     -0.490000       15.9994           0
     22811 MEMB     171      POPC     C21      CL       0.900000       12.0110           0
     22812 MEMB     171      POPC     O22      OBL     -0.630000       15.9994           0
     22813 MEMB     171      POPC     C22      CTL2    -0.220000       12.0110           0
     22814 MEMB     171      POPC     H2R      HAL2     0.900000E-01   1.00800           0
     22815 MEMB     171      POPC     H2S      HAL2     0.900000E-01   1.00800           0
     22816 MEMB     171      POPC     C3       CTL2     0.800000E-01   12.0110           0
     22817 MEMB     171      POPC     HX       HAL2     0.900000E-01   1.00800           0
     22818 MEMB     171      POPC     HY       HAL2     0.900000E-01   1.00800           0
     22819 MEMB     171      POPC     O31      OSL     -0.490000       15.9994           0
     22820 MEMB     171      POPC     C31      CL       0.900000       12.0110           0
     22821 MEMB     171      POPC     O32      OBL     -0.630000       15.9994           0
     22822 MEMB     171      POPC     C32      CTL2    -0.220000       12.0110           0
     22823 MEMB     171      POPC     H2X      HAL2     0.900000E-01   1.00800           0
     22824 MEMB     171      POPC     H2Y      HAL2     0.900000E-01   1.00800           0
     22825 MEMB     171      POPC     C23      CTL2    -0.180000       12.0110           0
     22826 MEMB     171      POPC     H3R      HAL2     0.900000E-01   1.00800           0
     22827 MEMB     171      POPC     H3S      HAL2     0.900000E-01   1.00800           0
     22828 MEMB     171      POPC     C24      CTL2    -0.180000       12.0110           0
     22829 MEMB     171      POPC     H4R      HAL2     0.900000E-01   1.00800           0
     22830 MEMB     171      POPC     H4S      HAL2     0.900000E-01   1.00800           0
     22831 MEMB     171      POPC     C25      CTL2    -0.180000       12.0110           0
     22832 MEMB     171      POPC     H5R      HAL2     0.900000E-01   1.00800           0
     22833 MEMB     171      POPC     H5S      HAL2     0.900000E-01   1.00800           0
     22834 MEMB     171      POPC     C26      CTL2    -0.180000       12.0110           0
     22835 MEMB     171      POPC     H6R      HAL2     0.900000E-01   1.00800           0
     22836 MEMB     171      POPC     H6S      HAL2     0.900000E-01   1.00800           0
     22837 MEMB     171      POPC     C27      CTL2    -0.180000       12.0110           0
     22838 MEMB     171      POPC     H7R      HAL2     0.900000E-01   1.00800           0
     22839 MEMB     171      POPC     H7S      HAL2     0.900000E-01   1.00800           0
     22840 MEMB     171      POPC     C28      CTL2    -0.180000       12.0110           0
     22841 MEMB     171      POPC     H8R      HAL2     0.900000E-01   1.00800           0
     22842 MEMB     171      POPC     H8S      HAL2     0.900000E-01   1.00800           0
     22843 MEMB     171      POPC     C29      CEL1    -0.150000       12.0110           0
     22844 MEMB     171      POPC     H91      HEL1     0.150000       1.00800           0
     22845 MEMB     171      POPC     C210     CEL1    -0.150000       12.0110           0
     22846 MEMB     171      POPC     H101     HEL1     0.150000       1.00800           0
     22847 MEMB     171      POPC     C211     CTL2    -0.180000       12.0110           0
     22848 MEMB     171      POPC     H11R     HAL2     0.900000E-01   1.00800           0
     22849 MEMB     171      POPC     H11S     HAL2     0.900000E-01   1.00800           0
     22850 MEMB     171      POPC     C212     CTL2    -0.180000       12.0110           0
     22851 MEMB     171      POPC     H12R     HAL2     0.900000E-01   1.00800           0
     22852 MEMB     171      POPC     H12S     HAL2     0.900000E-01   1.00800           0
     22853 MEMB     171      POPC     C213     CTL2    -0.180000       12.0110           0
     22854 MEMB     171      POPC     H13R     HAL2     0.900000E-01   1.00800           0
     22855 MEMB     171      POPC     H13S     HAL2     0.900000E-01   1.00800           0
     22856 MEMB     171      POPC     C214     CTL2    -0.180000       12.0110           0
     22857 MEMB     171      POPC     H14R     HAL2     0.900000E-01   1.00800           0
     22858 MEMB     171      POPC     H14S     HAL2     0.900000E-01   1.00800           0
     22859 MEMB     171      POPC     C215     CTL2    -0.180000       12.0110           0
     22860 MEMB     171      POPC     H15R     HAL2     0.900000E-01   1.00800           0
     22861 MEMB     171      POPC     H15S     HAL2     0.900000E-01   1.00800           0
     22862 MEMB     171      POPC     C216     CTL2    -0.180000       12.0110           0
     22863 MEMB     171      POPC     H16R     HAL2     0.900000E-01   1.00800           0
     22864 MEMB     171      POPC     H16S     HAL2     0.900000E-01   1.00800           0
     22865 MEMB     171      POPC     C217     CTL2    -0.180000       12.0110           0
     22866 MEMB     171      POPC     H17R     HAL2     0.900000E-01   1.00800           0
     22867 MEMB     171      POPC     H17S     HAL2     0.900000E-01   1.00800           0
     22868 MEMB     171      POPC     C218     CTL3    -0.270000       12.0110           0
     22869 MEMB     171      POPC     H18R     HAL3     0.900000E-01   1.00800           0
     22870 MEMB     171      POPC     H18S     HAL3     0.900000E-01   1.00800           0
     22871 MEMB     171      POPC     H18T     HAL3     0.900000E-01   1.00800           0
     22872 MEMB     171      POPC     C33      CTL2    -0.180000       12.0110           0
     22873 MEMB     171      POPC     H3X      HAL2     0.900000E-01   1.00800           0
     22874 MEMB     171      POPC     H3Y      HAL2     0.900000E-01   1.00800           0
     22875 MEMB     171      POPC     C34      CTL2    -0.180000       12.0110           0
     22876 MEMB     171      POPC     H4X      HAL2     0.900000E-01   1.00800           0
     22877 MEMB     171      POPC     H4Y      HAL2     0.900000E-01   1.00800           0
     22878 MEMB     171      POPC     C35      CTL2    -0.180000       12.0110           0
     22879 MEMB     171      POPC     H5X      HAL2     0.900000E-01   1.00800           0
     22880 MEMB     171      POPC     H5Y      HAL2     0.900000E-01   1.00800           0
     22881 MEMB     171      POPC     C36      CTL2    -0.180000       12.0110           0
     22882 MEMB     171      POPC     H6X      HAL2     0.900000E-01   1.00800           0
     22883 MEMB     171      POPC     H6Y      HAL2     0.900000E-01   1.00800           0
     22884 MEMB     171      POPC     C37      CTL2    -0.180000       12.0110           0
     22885 MEMB     171      POPC     H7X      HAL2     0.900000E-01   1.00800           0
     22886 MEMB     171      POPC     H7Y      HAL2     0.900000E-01   1.00800           0
     22887 MEMB     171      POPC     C38      CTL2    -0.180000       12.0110           0
     22888 MEMB     171      POPC     H8X      HAL2     0.900000E-01   1.00800           0
     22889 MEMB     171      POPC     H8Y      HAL2     0.900000E-01   1.00800           0
     22890 MEMB     171      POPC     C39      CTL2    -0.180000       12.0110           0
     22891 MEMB     171      POPC     H9X      HAL2     0.900000E-01   1.00800           0
     22892 MEMB     171      POPC     H9Y      HAL2     0.900000E-01   1.00800           0
     22893 MEMB     171      POPC     C310     CTL2    -0.180000       12.0110           0
     22894 MEMB     171      POPC     H10X     HAL2     0.900000E-01   1.00800           0
     22895 MEMB     171      POPC     H10Y     HAL2     0.900000E-01   1.00800           0
     22896 MEMB     171      POPC     C311     CTL2    -0.180000       12.0110           0
     22897 MEMB     171      POPC     H11X     HAL2     0.900000E-01   1.00800           0
     22898 MEMB     171      POPC     H11Y     HAL2     0.900000E-01   1.00800           0
     22899 MEMB     171      POPC     C312     CTL2    -0.180000       12.0110           0
     22900 MEMB     171      POPC     H12X     HAL2     0.900000E-01   1.00800           0
     22901 MEMB     171      POPC     H12Y     HAL2     0.900000E-01   1.00800           0
     22902 MEMB     171      POPC     C313     CTL2    -0.180000       12.0110           0
     22903 MEMB     171      POPC     H13X     HAL2     0.900000E-01   1.00800           0
     22904 MEMB     171      POPC     H13Y     HAL2     0.900000E-01   1.00800           0
     22905 MEMB     171      POPC     C314     CTL2    -0.180000       12.0110           0
     22906 MEMB     171      POPC     H14X     HAL2     0.900000E-01   1.00800           0
     22907 MEMB     171      POPC     H14Y     HAL2     0.900000E-01   1.00800           0
     22908 MEMB     171      POPC     C315     CTL2    -0.180000       12.0110           0
     22909 MEMB     171      POPC     H15X     HAL2     0.900000E-01   1.00800           0
     22910 MEMB     171      POPC     H15Y     HAL2     0.900000E-01   1.00800           0
     22911 MEMB     171      POPC     C316     CTL3    -0.270000       12.0110           0
     22912 MEMB     171      POPC     H16X     HAL3     0.900000E-01   1.00800           0
     22913 MEMB     171      POPC     H16Y     HAL3     0.900000E-01   1.00800           0
     22914 MEMB     171      POPC     H16Z     HAL3     0.900000E-01   1.00800           0
     22915 MEMB     172      POPC     N        NTL     -0.600000       14.0070           0
     22916 MEMB     172      POPC     C12      CTL2    -0.100000       12.0110           0
     22917 MEMB     172      POPC     H12A     HL       0.250000       1.00800           0
     22918 MEMB     172      POPC     H12B     HL       0.250000       1.00800           0
     22919 MEMB     172      POPC     C13      CTL5    -0.350000       12.0110           0
     22920 MEMB     172      POPC     H13A     HL       0.250000       1.00800           0
     22921 MEMB     172      POPC     H13B     HL       0.250000       1.00800           0
     22922 MEMB     172      POPC     H13C     HL       0.250000       1.00800           0
     22923 MEMB     172      POPC     C14      CTL5    -0.350000       12.0110           0
     22924 MEMB     172      POPC     H14A     HL       0.250000       1.00800           0
     22925 MEMB     172      POPC     H14B     HL       0.250000       1.00800           0
     22926 MEMB     172      POPC     H14C     HL       0.250000       1.00800           0
     22927 MEMB     172      POPC     C15      CTL5    -0.350000       12.0110           0
     22928 MEMB     172      POPC     H15A     HL       0.250000       1.00800           0
     22929 MEMB     172      POPC     H15B     HL       0.250000       1.00800           0
     22930 MEMB     172      POPC     H15C     HL       0.250000       1.00800           0
     22931 MEMB     172      POPC     C11      CTL2    -0.800000E-01   12.0110           0
     22932 MEMB     172      POPC     H11A     HAL2     0.900000E-01   1.00800           0
     22933 MEMB     172      POPC     H11B     HAL2     0.900000E-01   1.00800           0
     22934 MEMB     172      POPC     P        PL       1.50000        30.9740           0
     22935 MEMB     172      POPC     O13      O2L     -0.780000       15.9994           0
     22936 MEMB     172      POPC     O14      O2L     -0.780000       15.9994           0
     22937 MEMB     172      POPC     O12      OSLP    -0.570000       15.9994           0
     22938 MEMB     172      POPC     O11      OSLP    -0.570000       15.9994           0
     22939 MEMB     172      POPC     C1       CTL2    -0.800000E-01   12.0110           0
     22940 MEMB     172      POPC     HA       HAL2     0.900000E-01   1.00800           0
     22941 MEMB     172      POPC     HB       HAL2     0.900000E-01   1.00800           0
     22942 MEMB     172      POPC     C2       CTL1     0.170000       12.0110           0
     22943 MEMB     172      POPC     HS       HAL1     0.900000E-01   1.00800           0
     22944 MEMB     172      POPC     O21      OSL     -0.490000       15.9994           0
     22945 MEMB     172      POPC     C21      CL       0.900000       12.0110           0
     22946 MEMB     172      POPC     O22      OBL     -0.630000       15.9994           0
     22947 MEMB     172      POPC     C22      CTL2    -0.220000       12.0110           0
     22948 MEMB     172      POPC     H2R      HAL2     0.900000E-01   1.00800           0
     22949 MEMB     172      POPC     H2S      HAL2     0.900000E-01   1.00800           0
     22950 MEMB     172      POPC     C3       CTL2     0.800000E-01   12.0110           0
     22951 MEMB     172      POPC     HX       HAL2     0.900000E-01   1.00800           0
     22952 MEMB     172      POPC     HY       HAL2     0.900000E-01   1.00800           0
     22953 MEMB     172      POPC     O31      OSL     -0.490000       15.9994           0
     22954 MEMB     172      POPC     C31      CL       0.900000       12.0110           0
     22955 MEMB     172      POPC     O32      OBL     -0.630000       15.9994           0
     22956 MEMB     172      POPC     C32      CTL2    -0.220000       12.0110           0
     22957 MEMB     172      POPC     H2X      HAL2     0.900000E-01   1.00800           0
     22958 MEMB     172      POPC     H2Y      HAL2     0.900000E-01   1.00800           0
     22959 MEMB     172      POPC     C23      CTL2    -0.180000       12.0110           0
     22960 MEMB     172      POPC     H3R      HAL2     0.900000E-01   1.00800           0
     22961 MEMB     172      POPC     H3S      HAL2     0.900000E-01   1.00800           0
     22962 MEMB     172      POPC     C24      CTL2    -0.180000       12.0110           0
     22963 MEMB     172      POPC     H4R      HAL2     0.900000E-01   1.00800           0
     22964 MEMB     172      POPC     H4S      HAL2     0.900000E-01   1.00800           0
     22965 MEMB     172      POPC     C25      CTL2    -0.180000       12.0110           0
     22966 MEMB     172      POPC     H5R      HAL2     0.900000E-01   1.00800           0
     22967 MEMB     172      POPC     H5S      HAL2     0.900000E-01   1.00800           0
     22968 MEMB     172      POPC     C26      CTL2    -0.180000       12.0110           0
     22969 MEMB     172      POPC     H6R      HAL2     0.900000E-01   1.00800           0
     22970 MEMB     172      POPC     H6S      HAL2     0.900000E-01   1.00800           0
     22971 MEMB     172      POPC     C27      CTL2    -0.180000       12.0110           0
     22972 MEMB     172      POPC     H7R      HAL2     0.900000E-01   1.00800           0
     22973 MEMB     172      POPC     H7S      HAL2     0.900000E-01   1.00800           0
     22974 MEMB     172      POPC     C28      CTL2    -0.180000       12.0110           0
     22975 MEMB     172      POPC     H8R      HAL2     0.900000E-01   1.00800           0
     22976 MEMB     172      POPC     H8S      HAL2     0.900000E-01   1.00800           0
     22977 MEMB     172      POPC     C29      CEL1    -0.150000       12.0110           0
     22978 MEMB     172      POPC     H91      HEL1     0.150000       1.00800           0
     22979 MEMB     172      POPC     C210     CEL1    -0.150000       12.0110           0
     22980 MEMB     172      POPC     H101     HEL1     0.150000       1.00800           0
     22981 MEMB     172      POPC     C211     CTL2    -0.180000       12.0110           0
     22982 MEMB     172      POPC     H11R     HAL2     0.900000E-01   1.00800           0
     22983 MEMB     172      POPC     H11S     HAL2     0.900000E-01   1.00800           0
     22984 MEMB     172      POPC     C212     CTL2    -0.180000       12.0110           0
     22985 MEMB     172      POPC     H12R     HAL2     0.900000E-01   1.00800           0
     22986 MEMB     172      POPC     H12S     HAL2     0.900000E-01   1.00800           0
     22987 MEMB     172      POPC     C213     CTL2    -0.180000       12.0110           0
     22988 MEMB     172      POPC     H13R     HAL2     0.900000E-01   1.00800           0
     22989 MEMB     172      POPC     H13S     HAL2     0.900000E-01   1.00800           0
     22990 MEMB     172      POPC     C214     CTL2    -0.180000       12.0110           0
     22991 MEMB     172      POPC     H14R     HAL2     0.900000E-01   1.00800           0
     22992 MEMB     172      POPC     H14S     HAL2     0.900000E-01   1.00800           0
     22993 MEMB     172      POPC     C215     CTL2    -0.180000       12.0110           0
     22994 MEMB     172      POPC     H15R     HAL2     0.900000E-01   1.00800           0
     22995 MEMB     172      POPC     H15S     HAL2     0.900000E-01   1.00800           0
     22996 MEMB     172      POPC     C216     CTL2    -0.180000       12.0110           0
     22997 MEMB     172      POPC     H16R     HAL2     0.900000E-01   1.00800           0
     22998 MEMB     172      POPC     H16S     HAL2     0.900000E-01   1.00800           0
     22999 MEMB     172      POPC     C217     CTL2    -0.180000       12.0110           0
     23000 MEMB     172      POPC     H17R     HAL2     0.900000E-01   1.00800           0
     23001 MEMB     172      POPC     H17S     HAL2     0.900000E-01   1.00800           0
     23002 MEMB     172      POPC     C218     CTL3    -0.270000       12.0110           0
     23003 MEMB     172      POPC     H18R     HAL3     0.900000E-01   1.00800           0
     23004 MEMB     172      POPC     H18S     HAL3     0.900000E-01   1.00800           0
     23005 MEMB     172      POPC     H18T     HAL3     0.900000E-01   1.00800           0
     23006 MEMB     172      POPC     C33      CTL2    -0.180000       12.0110           0
     23007 MEMB     172      POPC     H3X      HAL2     0.900000E-01   1.00800           0
     23008 MEMB     172      POPC     H3Y      HAL2     0.900000E-01   1.00800           0
     23009 MEMB     172      POPC     C34      CTL2    -0.180000       12.0110           0
     23010 MEMB     172      POPC     H4X      HAL2     0.900000E-01   1.00800           0
     23011 MEMB     172      POPC     H4Y      HAL2     0.900000E-01   1.00800           0
     23012 MEMB     172      POPC     C35      CTL2    -0.180000       12.0110           0
     23013 MEMB     172      POPC     H5X      HAL2     0.900000E-01   1.00800           0
     23014 MEMB     172      POPC     H5Y      HAL2     0.900000E-01   1.00800           0
     23015 MEMB     172      POPC     C36      CTL2    -0.180000       12.0110           0
     23016 MEMB     172      POPC     H6X      HAL2     0.900000E-01   1.00800           0
     23017 MEMB     172      POPC     H6Y      HAL2     0.900000E-01   1.00800           0
     23018 MEMB     172      POPC     C37      CTL2    -0.180000       12.0110           0
     23019 MEMB     172      POPC     H7X      HAL2     0.900000E-01   1.00800           0
     23020 MEMB     172      POPC     H7Y      HAL2     0.900000E-01   1.00800           0
     23021 MEMB     172      POPC     C38      CTL2    -0.180000       12.0110           0
     23022 MEMB     172      POPC     H8X      HAL2     0.900000E-01   1.00800           0
     23023 MEMB     172      POPC     H8Y      HAL2     0.900000E-01   1.00800           0
     23024 MEMB     172      POPC     C39      CTL2    -0.180000       12.0110           0
     23025 MEMB     172      POPC     H9X      HAL2     0.900000E-01   1.00800           0
     23026 MEMB     172      POPC     H9Y      HAL2     0.900000E-01   1.00800           0
     23027 MEMB     172      POPC     C310     CTL2    -0.180000       12.0110           0
     23028 MEMB     172      POPC     H10X     HAL2     0.900000E-01   1.00800           0
     23029 MEMB     172      POPC     H10Y     HAL2     0.900000E-01   1.00800           0
     23030 MEMB     172      POPC     C311     CTL2    -0.180000       12.0110           0
     23031 MEMB     172      POPC     H11X     HAL2     0.900000E-01   1.00800           0
     23032 MEMB     172      POPC     H11Y     HAL2     0.900000E-01   1.00800           0
     23033 MEMB     172      POPC     C312     CTL2    -0.180000       12.0110           0
     23034 MEMB     172      POPC     H12X     HAL2     0.900000E-01   1.00800           0
     23035 MEMB     172      POPC     H12Y     HAL2     0.900000E-01   1.00800           0
     23036 MEMB     172      POPC     C313     CTL2    -0.180000       12.0110           0
     23037 MEMB     172      POPC     H13X     HAL2     0.900000E-01   1.00800           0
     23038 MEMB     172      POPC     H13Y     HAL2     0.900000E-01   1.00800           0
     23039 MEMB     172      POPC     C314     CTL2    -0.180000       12.0110           0
     23040 MEMB     172      POPC     H14X     HAL2     0.900000E-01   1.00800           0
     23041 MEMB     172      POPC     H14Y     HAL2     0.900000E-01   1.00800           0
     23042 MEMB     172      POPC     C315     CTL2    -0.180000       12.0110           0
     23043 MEMB     172      POPC     H15X     HAL2     0.900000E-01   1.00800           0
     23044 MEMB     172      POPC     H15Y     HAL2     0.900000E-01   1.00800           0
     23045 MEMB     172      POPC     C316     CTL3    -0.270000       12.0110           0
     23046 MEMB     172      POPC     H16X     HAL3     0.900000E-01   1.00800           0
     23047 MEMB     172      POPC     H16Y     HAL3     0.900000E-01   1.00800           0
     23048 MEMB     172      POPC     H16Z     HAL3     0.900000E-01   1.00800           0
     23049 MEMB     173      POPC     N        NTL     -0.600000       14.0070           0
     23050 MEMB     173      POPC     C12      CTL2    -0.100000       12.0110           0
     23051 MEMB     173      POPC     H12A     HL       0.250000       1.00800           0
     23052 MEMB     173      POPC     H12B     HL       0.250000       1.00800           0
     23053 MEMB     173      POPC     C13      CTL5    -0.350000       12.0110           0
     23054 MEMB     173      POPC     H13A     HL       0.250000       1.00800           0
     23055 MEMB     173      POPC     H13B     HL       0.250000       1.00800           0
     23056 MEMB     173      POPC     H13C     HL       0.250000       1.00800           0
     23057 MEMB     173      POPC     C14      CTL5    -0.350000       12.0110           0
     23058 MEMB     173      POPC     H14A     HL       0.250000       1.00800           0
     23059 MEMB     173      POPC     H14B     HL       0.250000       1.00800           0
     23060 MEMB     173      POPC     H14C     HL       0.250000       1.00800           0
     23061 MEMB     173      POPC     C15      CTL5    -0.350000       12.0110           0
     23062 MEMB     173      POPC     H15A     HL       0.250000       1.00800           0
     23063 MEMB     173      POPC     H15B     HL       0.250000       1.00800           0
     23064 MEMB     173      POPC     H15C     HL       0.250000       1.00800           0
     23065 MEMB     173      POPC     C11      CTL2    -0.800000E-01   12.0110           0
     23066 MEMB     173      POPC     H11A     HAL2     0.900000E-01   1.00800           0
     23067 MEMB     173      POPC     H11B     HAL2     0.900000E-01   1.00800           0
     23068 MEMB     173      POPC     P        PL       1.50000        30.9740           0
     23069 MEMB     173      POPC     O13      O2L     -0.780000       15.9994           0
     23070 MEMB     173      POPC     O14      O2L     -0.780000       15.9994           0
     23071 MEMB     173      POPC     O12      OSLP    -0.570000       15.9994           0
     23072 MEMB     173      POPC     O11      OSLP    -0.570000       15.9994           0
     23073 MEMB     173      POPC     C1       CTL2    -0.800000E-01   12.0110           0
     23074 MEMB     173      POPC     HA       HAL2     0.900000E-01   1.00800           0
     23075 MEMB     173      POPC     HB       HAL2     0.900000E-01   1.00800           0
     23076 MEMB     173      POPC     C2       CTL1     0.170000       12.0110           0
     23077 MEMB     173      POPC     HS       HAL1     0.900000E-01   1.00800           0
     23078 MEMB     173      POPC     O21      OSL     -0.490000       15.9994           0
     23079 MEMB     173      POPC     C21      CL       0.900000       12.0110           0
     23080 MEMB     173      POPC     O22      OBL     -0.630000       15.9994           0
     23081 MEMB     173      POPC     C22      CTL2    -0.220000       12.0110           0
     23082 MEMB     173      POPC     H2R      HAL2     0.900000E-01   1.00800           0
     23083 MEMB     173      POPC     H2S      HAL2     0.900000E-01   1.00800           0
     23084 MEMB     173      POPC     C3       CTL2     0.800000E-01   12.0110           0
     23085 MEMB     173      POPC     HX       HAL2     0.900000E-01   1.00800           0
     23086 MEMB     173      POPC     HY       HAL2     0.900000E-01   1.00800           0
     23087 MEMB     173      POPC     O31      OSL     -0.490000       15.9994           0
     23088 MEMB     173      POPC     C31      CL       0.900000       12.0110           0
     23089 MEMB     173      POPC     O32      OBL     -0.630000       15.9994           0
     23090 MEMB     173      POPC     C32      CTL2    -0.220000       12.0110           0
     23091 MEMB     173      POPC     H2X      HAL2     0.900000E-01   1.00800           0
     23092 MEMB     173      POPC     H2Y      HAL2     0.900000E-01   1.00800           0
     23093 MEMB     173      POPC     C23      CTL2    -0.180000       12.0110           0
     23094 MEMB     173      POPC     H3R      HAL2     0.900000E-01   1.00800           0
     23095 MEMB     173      POPC     H3S      HAL2     0.900000E-01   1.00800           0
     23096 MEMB     173      POPC     C24      CTL2    -0.180000       12.0110           0
     23097 MEMB     173      POPC     H4R      HAL2     0.900000E-01   1.00800           0
     23098 MEMB     173      POPC     H4S      HAL2     0.900000E-01   1.00800           0
     23099 MEMB     173      POPC     C25      CTL2    -0.180000       12.0110           0
     23100 MEMB     173      POPC     H5R      HAL2     0.900000E-01   1.00800           0
     23101 MEMB     173      POPC     H5S      HAL2     0.900000E-01   1.00800           0
     23102 MEMB     173      POPC     C26      CTL2    -0.180000       12.0110           0
     23103 MEMB     173      POPC     H6R      HAL2     0.900000E-01   1.00800           0
     23104 MEMB     173      POPC     H6S      HAL2     0.900000E-01   1.00800           0
     23105 MEMB     173      POPC     C27      CTL2    -0.180000       12.0110           0
     23106 MEMB     173      POPC     H7R      HAL2     0.900000E-01   1.00800           0
     23107 MEMB     173      POPC     H7S      HAL2     0.900000E-01   1.00800           0
     23108 MEMB     173      POPC     C28      CTL2    -0.180000       12.0110           0
     23109 MEMB     173      POPC     H8R      HAL2     0.900000E-01   1.00800           0
     23110 MEMB     173      POPC     H8S      HAL2     0.900000E-01   1.00800           0
     23111 MEMB     173      POPC     C29      CEL1    -0.150000       12.0110           0
     23112 MEMB     173      POPC     H91      HEL1     0.150000       1.00800           0
     23113 MEMB     173      POPC     C210     CEL1    -0.150000       12.0110           0
     23114 MEMB     173      POPC     H101     HEL1     0.150000       1.00800           0
     23115 MEMB     173      POPC     C211     CTL2    -0.180000       12.0110           0
     23116 MEMB     173      POPC     H11R     HAL2     0.900000E-01   1.00800           0
     23117 MEMB     173      POPC     H11S     HAL2     0.900000E-01   1.00800           0
     23118 MEMB     173      POPC     C212     CTL2    -0.180000       12.0110           0
     23119 MEMB     173      POPC     H12R     HAL2     0.900000E-01   1.00800           0
     23120 MEMB     173      POPC     H12S     HAL2     0.900000E-01   1.00800           0
     23121 MEMB     173      POPC     C213     CTL2    -0.180000       12.0110           0
     23122 MEMB     173      POPC     H13R     HAL2     0.900000E-01   1.00800           0
     23123 MEMB     173      POPC     H13S     HAL2     0.900000E-01   1.00800           0
     23124 MEMB     173      POPC     C214     CTL2    -0.180000       12.0110           0
     23125 MEMB     173      POPC     H14R     HAL2     0.900000E-01   1.00800           0
     23126 MEMB     173      POPC     H14S     HAL2     0.900000E-01   1.00800           0
     23127 MEMB     173      POPC     C215     CTL2    -0.180000       12.0110           0
     23128 MEMB     173      POPC     H15R     HAL2     0.900000E-01   1.00800           0
     23129 MEMB     173      POPC     H15S     HAL2     0.900000E-01   1.00800           0
     23130 MEMB     173      POPC     C216     CTL2    -0.180000       12.0110           0
     23131 MEMB     173      POPC     H16R     HAL2     0.900000E-01   1.00800           0
     23132 MEMB     173      POPC     H16S     HAL2     0.900000E-01   1.00800           0
     23133 MEMB     173      POPC     C217     CTL2    -0.180000       12.0110           0
     23134 MEMB     173      POPC     H17R     HAL2     0.900000E-01   1.00800           0
     23135 MEMB     173      POPC     H17S     HAL2     0.900000E-01   1.00800           0
     23136 MEMB     173      POPC     C218     CTL3    -0.270000       12.0110           0
     23137 MEMB     173      POPC     H18R     HAL3     0.900000E-01   1.00800           0
     23138 MEMB     173      POPC     H18S     HAL3     0.900000E-01   1.00800           0
     23139 MEMB     173      POPC     H18T     HAL3     0.900000E-01   1.00800           0
     23140 MEMB     173      POPC     C33      CTL2    -0.180000       12.0110           0
     23141 MEMB     173      POPC     H3X      HAL2     0.900000E-01   1.00800           0
     23142 MEMB     173      POPC     H3Y      HAL2     0.900000E-01   1.00800           0
     23143 MEMB     173      POPC     C34      CTL2    -0.180000       12.0110           0
     23144 MEMB     173      POPC     H4X      HAL2     0.900000E-01   1.00800           0
     23145 MEMB     173      POPC     H4Y      HAL2     0.900000E-01   1.00800           0
     23146 MEMB     173      POPC     C35      CTL2    -0.180000       12.0110           0
     23147 MEMB     173      POPC     H5X      HAL2     0.900000E-01   1.00800           0
     23148 MEMB     173      POPC     H5Y      HAL2     0.900000E-01   1.00800           0
     23149 MEMB     173      POPC     C36      CTL2    -0.180000       12.0110           0
     23150 MEMB     173      POPC     H6X      HAL2     0.900000E-01   1.00800           0
     23151 MEMB     173      POPC     H6Y      HAL2     0.900000E-01   1.00800           0
     23152 MEMB     173      POPC     C37      CTL2    -0.180000       12.0110           0
     23153 MEMB     173      POPC     H7X      HAL2     0.900000E-01   1.00800           0
     23154 MEMB     173      POPC     H7Y      HAL2     0.900000E-01   1.00800           0
     23155 MEMB     173      POPC     C38      CTL2    -0.180000       12.0110           0
     23156 MEMB     173      POPC     H8X      HAL2     0.900000E-01   1.00800           0
     23157 MEMB     173      POPC     H8Y      HAL2     0.900000E-01   1.00800           0
     23158 MEMB     173      POPC     C39      CTL2    -0.180000       12.0110           0
     23159 MEMB     173      POPC     H9X      HAL2     0.900000E-01   1.00800           0
     23160 MEMB     173      POPC     H9Y      HAL2     0.900000E-01   1.00800           0
     23161 MEMB     173      POPC     C310     CTL2    -0.180000       12.0110           0
     23162 MEMB     173      POPC     H10X     HAL2     0.900000E-01   1.00800           0
     23163 MEMB     173      POPC     H10Y     HAL2     0.900000E-01   1.00800           0
     23164 MEMB     173      POPC     C311     CTL2    -0.180000       12.0110           0
     23165 MEMB     173      POPC     H11X     HAL2     0.900000E-01   1.00800           0
     23166 MEMB     173      POPC     H11Y     HAL2     0.900000E-01   1.00800           0
     23167 MEMB     173      POPC     C312     CTL2    -0.180000       12.0110           0
     23168 MEMB     173      POPC     H12X     HAL2     0.900000E-01   1.00800           0
     23169 MEMB     173      POPC     H12Y     HAL2     0.900000E-01   1.00800           0
     23170 MEMB     173      POPC     C313     CTL2    -0.180000       12.0110           0
     23171 MEMB     173      POPC     H13X     HAL2     0.900000E-01   1.00800           0
     23172 MEMB     173      POPC     H13Y     HAL2     0.900000E-01   1.00800           0
     23173 MEMB     173      POPC     C314     CTL2    -0.180000       12.0110           0
     23174 MEMB     173      POPC     H14X     HAL2     0.900000E-01   1.00800           0
     23175 MEMB     173      POPC     H14Y     HAL2     0.900000E-01   1.00800           0
     23176 MEMB     173      POPC     C315     CTL2    -0.180000       12.0110           0
     23177 MEMB     173      POPC     H15X     HAL2     0.900000E-01   1.00800           0
     23178 MEMB     173      POPC     H15Y     HAL2     0.900000E-01   1.00800           0
     23179 MEMB     173      POPC     C316     CTL3    -0.270000       12.0110           0
     23180 MEMB     173      POPC     H16X     HAL3     0.900000E-01   1.00800           0
     23181 MEMB     173      POPC     H16Y     HAL3     0.900000E-01   1.00800           0
     23182 MEMB     173      POPC     H16Z     HAL3     0.900000E-01   1.00800           0
     23183 MEMB     174      POPC     N        NTL     -0.600000       14.0070           0
     23184 MEMB     174      POPC     C12      CTL2    -0.100000       12.0110           0
     23185 MEMB     174      POPC     H12A     HL       0.250000       1.00800           0
     23186 MEMB     174      POPC     H12B     HL       0.250000       1.00800           0
     23187 MEMB     174      POPC     C13      CTL5    -0.350000       12.0110           0
     23188 MEMB     174      POPC     H13A     HL       0.250000       1.00800           0
     23189 MEMB     174      POPC     H13B     HL       0.250000       1.00800           0
     23190 MEMB     174      POPC     H13C     HL       0.250000       1.00800           0
     23191 MEMB     174      POPC     C14      CTL5    -0.350000       12.0110           0
     23192 MEMB     174      POPC     H14A     HL       0.250000       1.00800           0
     23193 MEMB     174      POPC     H14B     HL       0.250000       1.00800           0
     23194 MEMB     174      POPC     H14C     HL       0.250000       1.00800           0
     23195 MEMB     174      POPC     C15      CTL5    -0.350000       12.0110           0
     23196 MEMB     174      POPC     H15A     HL       0.250000       1.00800           0
     23197 MEMB     174      POPC     H15B     HL       0.250000       1.00800           0
     23198 MEMB     174      POPC     H15C     HL       0.250000       1.00800           0
     23199 MEMB     174      POPC     C11      CTL2    -0.800000E-01   12.0110           0
     23200 MEMB     174      POPC     H11A     HAL2     0.900000E-01   1.00800           0
     23201 MEMB     174      POPC     H11B     HAL2     0.900000E-01   1.00800           0
     23202 MEMB     174      POPC     P        PL       1.50000        30.9740           0
     23203 MEMB     174      POPC     O13      O2L     -0.780000       15.9994           0
     23204 MEMB     174      POPC     O14      O2L     -0.780000       15.9994           0
     23205 MEMB     174      POPC     O12      OSLP    -0.570000       15.9994           0
     23206 MEMB     174      POPC     O11      OSLP    -0.570000       15.9994           0
     23207 MEMB     174      POPC     C1       CTL2    -0.800000E-01   12.0110           0
     23208 MEMB     174      POPC     HA       HAL2     0.900000E-01   1.00800           0
     23209 MEMB     174      POPC     HB       HAL2     0.900000E-01   1.00800           0
     23210 MEMB     174      POPC     C2       CTL1     0.170000       12.0110           0
     23211 MEMB     174      POPC     HS       HAL1     0.900000E-01   1.00800           0
     23212 MEMB     174      POPC     O21      OSL     -0.490000       15.9994           0
     23213 MEMB     174      POPC     C21      CL       0.900000       12.0110           0
     23214 MEMB     174      POPC     O22      OBL     -0.630000       15.9994           0
     23215 MEMB     174      POPC     C22      CTL2    -0.220000       12.0110           0
     23216 MEMB     174      POPC     H2R      HAL2     0.900000E-01   1.00800           0
     23217 MEMB     174      POPC     H2S      HAL2     0.900000E-01   1.00800           0
     23218 MEMB     174      POPC     C3       CTL2     0.800000E-01   12.0110           0
     23219 MEMB     174      POPC     HX       HAL2     0.900000E-01   1.00800           0
     23220 MEMB     174      POPC     HY       HAL2     0.900000E-01   1.00800           0
     23221 MEMB     174      POPC     O31      OSL     -0.490000       15.9994           0
     23222 MEMB     174      POPC     C31      CL       0.900000       12.0110           0
     23223 MEMB     174      POPC     O32      OBL     -0.630000       15.9994           0
     23224 MEMB     174      POPC     C32      CTL2    -0.220000       12.0110           0
     23225 MEMB     174      POPC     H2X      HAL2     0.900000E-01   1.00800           0
     23226 MEMB     174      POPC     H2Y      HAL2     0.900000E-01   1.00800           0
     23227 MEMB     174      POPC     C23      CTL2    -0.180000       12.0110           0
     23228 MEMB     174      POPC     H3R      HAL2     0.900000E-01   1.00800           0
     23229 MEMB     174      POPC     H3S      HAL2     0.900000E-01   1.00800           0
     23230 MEMB     174      POPC     C24      CTL2    -0.180000       12.0110           0
     23231 MEMB     174      POPC     H4R      HAL2     0.900000E-01   1.00800           0
     23232 MEMB     174      POPC     H4S      HAL2     0.900000E-01   1.00800           0
     23233 MEMB     174      POPC     C25      CTL2    -0.180000       12.0110           0
     23234 MEMB     174      POPC     H5R      HAL2     0.900000E-01   1.00800           0
     23235 MEMB     174      POPC     H5S      HAL2     0.900000E-01   1.00800           0
     23236 MEMB     174      POPC     C26      CTL2    -0.180000       12.0110           0
     23237 MEMB     174      POPC     H6R      HAL2     0.900000E-01   1.00800           0
     23238 MEMB     174      POPC     H6S      HAL2     0.900000E-01   1.00800           0
     23239 MEMB     174      POPC     C27      CTL2    -0.180000       12.0110           0
     23240 MEMB     174      POPC     H7R      HAL2     0.900000E-01   1.00800           0
     23241 MEMB     174      POPC     H7S      HAL2     0.900000E-01   1.00800           0
     23242 MEMB     174      POPC     C28      CTL2    -0.180000       12.0110           0
     23243 MEMB     174      POPC     H8R      HAL2     0.900000E-01   1.00800           0
     23244 MEMB     174      POPC     H8S      HAL2     0.900000E-01   1.00800           0
     23245 MEMB     174      POPC     C29      CEL1    -0.150000       12.0110           0
     23246 MEMB     174      POPC     H91      HEL1     0.150000       1.00800           0
     23247 MEMB     174      POPC     C210     CEL1    -0.150000       12.0110           0
     23248 MEMB     174      POPC     H101     HEL1     0.150000       1.00800           0
     23249 MEMB     174      POPC     C211     CTL2    -0.180000       12.0110           0
     23250 MEMB     174      POPC     H11R     HAL2     0.900000E-01   1.00800           0
     23251 MEMB     174      POPC     H11S     HAL2     0.900000E-01   1.00800           0
     23252 MEMB     174      POPC     C212     CTL2    -0.180000       12.0110           0
     23253 MEMB     174      POPC     H12R     HAL2     0.900000E-01   1.00800           0
     23254 MEMB     174      POPC     H12S     HAL2     0.900000E-01   1.00800           0
     23255 MEMB     174      POPC     C213     CTL2    -0.180000       12.0110           0
     23256 MEMB     174      POPC     H13R     HAL2     0.900000E-01   1.00800           0
     23257 MEMB     174      POPC     H13S     HAL2     0.900000E-01   1.00800           0
     23258 MEMB     174      POPC     C214     CTL2    -0.180000       12.0110           0
     23259 MEMB     174      POPC     H14R     HAL2     0.900000E-01   1.00800           0
     23260 MEMB     174      POPC     H14S     HAL2     0.900000E-01   1.00800           0
     23261 MEMB     174      POPC     C215     CTL2    -0.180000       12.0110           0
     23262 MEMB     174      POPC     H15R     HAL2     0.900000E-01   1.00800           0
     23263 MEMB     174      POPC     H15S     HAL2     0.900000E-01   1.00800           0
     23264 MEMB     174      POPC     C216     CTL2    -0.180000       12.0110           0
     23265 MEMB     174      POPC     H16R     HAL2     0.900000E-01   1.00800           0
     23266 MEMB     174      POPC     H16S     HAL2     0.900000E-01   1.00800           0
     23267 MEMB     174      POPC     C217     CTL2    -0.180000       12.0110           0
     23268 MEMB     174      POPC     H17R     HAL2     0.900000E-01   1.00800           0
     23269 MEMB     174      POPC     H17S     HAL2     0.900000E-01   1.00800           0
     23270 MEMB     174      POPC     C218     CTL3    -0.270000       12.0110           0
     23271 MEMB     174      POPC     H18R     HAL3     0.900000E-01   1.00800           0
     23272 MEMB     174      POPC     H18S     HAL3     0.900000E-01   1.00800           0
     23273 MEMB     174      POPC     H18T     HAL3     0.900000E-01   1.00800           0
     23274 MEMB     174      POPC     C33      CTL2    -0.180000       12.0110           0
     23275 MEMB     174      POPC     H3X      HAL2     0.900000E-01   1.00800           0
     23276 MEMB     174      POPC     H3Y      HAL2     0.900000E-01   1.00800           0
     23277 MEMB     174      POPC     C34      CTL2    -0.180000       12.0110           0
     23278 MEMB     174      POPC     H4X      HAL2     0.900000E-01   1.00800           0
     23279 MEMB     174      POPC     H4Y      HAL2     0.900000E-01   1.00800           0
     23280 MEMB     174      POPC     C35      CTL2    -0.180000       12.0110           0
     23281 MEMB     174      POPC     H5X      HAL2     0.900000E-01   1.00800           0
     23282 MEMB     174      POPC     H5Y      HAL2     0.900000E-01   1.00800           0
     23283 MEMB     174      POPC     C36      CTL2    -0.180000       12.0110           0
     23284 MEMB     174      POPC     H6X      HAL2     0.900000E-01   1.00800           0
     23285 MEMB     174      POPC     H6Y      HAL2     0.900000E-01   1.00800           0
     23286 MEMB     174      POPC     C37      CTL2    -0.180000       12.0110           0
     23287 MEMB     174      POPC     H7X      HAL2     0.900000E-01   1.00800           0
     23288 MEMB     174      POPC     H7Y      HAL2     0.900000E-01   1.00800           0
     23289 MEMB     174      POPC     C38      CTL2    -0.180000       12.0110           0
     23290 MEMB     174      POPC     H8X      HAL2     0.900000E-01   1.00800           0
     23291 MEMB     174      POPC     H8Y      HAL2     0.900000E-01   1.00800           0
     23292 MEMB     174      POPC     C39      CTL2    -0.180000       12.0110           0
     23293 MEMB     174      POPC     H9X      HAL2     0.900000E-01   1.00800           0
     23294 MEMB     174      POPC     H9Y      HAL2     0.900000E-01   1.00800           0
     23295 MEMB     174      POPC     C310     CTL2    -0.180000       12.0110           0
     23296 MEMB     174      POPC     H10X     HAL2     0.900000E-01   1.00800           0
     23297 MEMB     174      POPC     H10Y     HAL2     0.900000E-01   1.00800           0
     23298 MEMB     174      POPC     C311     CTL2    -0.180000       12.0110           0
     23299 MEMB     174      POPC     H11X     HAL2     0.900000E-01   1.00800           0
     23300 MEMB     174      POPC     H11Y     HAL2     0.900000E-01   1.00800           0
     23301 MEMB     174      POPC     C312     CTL2    -0.180000       12.0110           0
     23302 MEMB     174      POPC     H12X     HAL2     0.900000E-01   1.00800           0
     23303 MEMB     174      POPC     H12Y     HAL2     0.900000E-01   1.00800           0
     23304 MEMB     174      POPC     C313     CTL2    -0.180000       12.0110           0
     23305 MEMB     174      POPC     H13X     HAL2     0.900000E-01   1.00800           0
     23306 MEMB     174      POPC     H13Y     HAL2     0.900000E-01   1.00800           0
     23307 MEMB     174      POPC     C314     CTL2    -0.180000       12.0110           0
     23308 MEMB     174      POPC     H14X     HAL2     0.900000E-01   1.00800           0
     23309 MEMB     174      POPC     H14Y     HAL2     0.900000E-01   1.00800           0
     23310 MEMB     174      POPC     C315     CTL2    -0.180000       12.0110           0
     23311 MEMB     174      POPC     H15X     HAL2     0.900000E-01   1.00800           0
     23312 MEMB     174      POPC     H15Y     HAL2     0.900000E-01   1.00800           0
     23313 MEMB     174      POPC     C316     CTL3    -0.270000       12.0110           0
     23314 MEMB     174      POPC     H16X     HAL3     0.900000E-01   1.00800           0
     23315 MEMB     174      POPC     H16Y     HAL3     0.900000E-01   1.00800           0
     23316 MEMB     174      POPC     H16Z     HAL3     0.900000E-01   1.00800           0
     23317 MEMB     175      POPC     N        NTL     -0.600000       14.0070           0
     23318 MEMB     175      POPC     C12      CTL2    -0.100000       12.0110           0
     23319 MEMB     175      POPC     H12A     HL       0.250000       1.00800           0
     23320 MEMB     175      POPC     H12B     HL       0.250000       1.00800           0
     23321 MEMB     175      POPC     C13      CTL5    -0.350000       12.0110           0
     23322 MEMB     175      POPC     H13A     HL       0.250000       1.00800           0
     23323 MEMB     175      POPC     H13B     HL       0.250000       1.00800           0
     23324 MEMB     175      POPC     H13C     HL       0.250000       1.00800           0
     23325 MEMB     175      POPC     C14      CTL5    -0.350000       12.0110           0
     23326 MEMB     175      POPC     H14A     HL       0.250000       1.00800           0
     23327 MEMB     175      POPC     H14B     HL       0.250000       1.00800           0
     23328 MEMB     175      POPC     H14C     HL       0.250000       1.00800           0
     23329 MEMB     175      POPC     C15      CTL5    -0.350000       12.0110           0
     23330 MEMB     175      POPC     H15A     HL       0.250000       1.00800           0
     23331 MEMB     175      POPC     H15B     HL       0.250000       1.00800           0
     23332 MEMB     175      POPC     H15C     HL       0.250000       1.00800           0
     23333 MEMB     175      POPC     C11      CTL2    -0.800000E-01   12.0110           0
     23334 MEMB     175      POPC     H11A     HAL2     0.900000E-01   1.00800           0
     23335 MEMB     175      POPC     H11B     HAL2     0.900000E-01   1.00800           0
     23336 MEMB     175      POPC     P        PL       1.50000        30.9740           0
     23337 MEMB     175      POPC     O13      O2L     -0.780000       15.9994           0
     23338 MEMB     175      POPC     O14      O2L     -0.780000       15.9994           0
     23339 MEMB     175      POPC     O12      OSLP    -0.570000       15.9994           0
     23340 MEMB     175      POPC     O11      OSLP    -0.570000       15.9994           0
     23341 MEMB     175      POPC     C1       CTL2    -0.800000E-01   12.0110           0
     23342 MEMB     175      POPC     HA       HAL2     0.900000E-01   1.00800           0
     23343 MEMB     175      POPC     HB       HAL2     0.900000E-01   1.00800           0
     23344 MEMB     175      POPC     C2       CTL1     0.170000       12.0110           0
     23345 MEMB     175      POPC     HS       HAL1     0.900000E-01   1.00800           0
     23346 MEMB     175      POPC     O21      OSL     -0.490000       15.9994           0
     23347 MEMB     175      POPC     C21      CL       0.900000       12.0110           0
     23348 MEMB     175      POPC     O22      OBL     -0.630000       15.9994           0
     23349 MEMB     175      POPC     C22      CTL2    -0.220000       12.0110           0
     23350 MEMB     175      POPC     H2R      HAL2     0.900000E-01   1.00800           0
     23351 MEMB     175      POPC     H2S      HAL2     0.900000E-01   1.00800           0
     23352 MEMB     175      POPC     C3       CTL2     0.800000E-01   12.0110           0
     23353 MEMB     175      POPC     HX       HAL2     0.900000E-01   1.00800           0
     23354 MEMB     175      POPC     HY       HAL2     0.900000E-01   1.00800           0
     23355 MEMB     175      POPC     O31      OSL     -0.490000       15.9994           0
     23356 MEMB     175      POPC     C31      CL       0.900000       12.0110           0
     23357 MEMB     175      POPC     O32      OBL     -0.630000       15.9994           0
     23358 MEMB     175      POPC     C32      CTL2    -0.220000       12.0110           0
     23359 MEMB     175      POPC     H2X      HAL2     0.900000E-01   1.00800           0
     23360 MEMB     175      POPC     H2Y      HAL2     0.900000E-01   1.00800           0
     23361 MEMB     175      POPC     C23      CTL2    -0.180000       12.0110           0
     23362 MEMB     175      POPC     H3R      HAL2     0.900000E-01   1.00800           0
     23363 MEMB     175      POPC     H3S      HAL2     0.900000E-01   1.00800           0
     23364 MEMB     175      POPC     C24      CTL2    -0.180000       12.0110           0
     23365 MEMB     175      POPC     H4R      HAL2     0.900000E-01   1.00800           0
     23366 MEMB     175      POPC     H4S      HAL2     0.900000E-01   1.00800           0
     23367 MEMB     175      POPC     C25      CTL2    -0.180000       12.0110           0
     23368 MEMB     175      POPC     H5R      HAL2     0.900000E-01   1.00800           0
     23369 MEMB     175      POPC     H5S      HAL2     0.900000E-01   1.00800           0
     23370 MEMB     175      POPC     C26      CTL2    -0.180000       12.0110           0
     23371 MEMB     175      POPC     H6R      HAL2     0.900000E-01   1.00800           0
     23372 MEMB     175      POPC     H6S      HAL2     0.900000E-01   1.00800           0
     23373 MEMB     175      POPC     C27      CTL2    -0.180000       12.0110           0
     23374 MEMB     175      POPC     H7R      HAL2     0.900000E-01   1.00800           0
     23375 MEMB     175      POPC     H7S      HAL2     0.900000E-01   1.00800           0
     23376 MEMB     175      POPC     C28      CTL2    -0.180000       12.0110           0
     23377 MEMB     175      POPC     H8R      HAL2     0.900000E-01   1.00800           0
     23378 MEMB     175      POPC     H8S      HAL2     0.900000E-01   1.00800           0
     23379 MEMB     175      POPC     C29      CEL1    -0.150000       12.0110           0
     23380 MEMB     175      POPC     H91      HEL1     0.150000       1.00800           0
     23381 MEMB     175      POPC     C210     CEL1    -0.150000       12.0110           0
     23382 MEMB     175      POPC     H101     HEL1     0.150000       1.00800           0
     23383 MEMB     175      POPC     C211     CTL2    -0.180000       12.0110           0
     23384 MEMB     175      POPC     H11R     HAL2     0.900000E-01   1.00800           0
     23385 MEMB     175      POPC     H11S     HAL2     0.900000E-01   1.00800           0
     23386 MEMB     175      POPC     C212     CTL2    -0.180000       12.0110           0
     23387 MEMB     175      POPC     H12R     HAL2     0.900000E-01   1.00800           0
     23388 MEMB     175      POPC     H12S     HAL2     0.900000E-01   1.00800           0
     23389 MEMB     175      POPC     C213     CTL2    -0.180000       12.0110           0
     23390 MEMB     175      POPC     H13R     HAL2     0.900000E-01   1.00800           0
     23391 MEMB     175      POPC     H13S     HAL2     0.900000E-01   1.00800           0
     23392 MEMB     175      POPC     C214     CTL2    -0.180000       12.0110           0
     23393 MEMB     175      POPC     H14R     HAL2     0.900000E-01   1.00800           0
     23394 MEMB     175      POPC     H14S     HAL2     0.900000E-01   1.00800           0
     23395 MEMB     175      POPC     C215     CTL2    -0.180000       12.0110           0
     23396 MEMB     175      POPC     H15R     HAL2     0.900000E-01   1.00800           0
     23397 MEMB     175      POPC     H15S     HAL2     0.900000E-01   1.00800           0
     23398 MEMB     175      POPC     C216     CTL2    -0.180000       12.0110           0
     23399 MEMB     175      POPC     H16R     HAL2     0.900000E-01   1.00800           0
     23400 MEMB     175      POPC     H16S     HAL2     0.900000E-01   1.00800           0
     23401 MEMB     175      POPC     C217     CTL2    -0.180000       12.0110           0
     23402 MEMB     175      POPC     H17R     HAL2     0.900000E-01   1.00800           0
     23403 MEMB     175      POPC     H17S     HAL2     0.900000E-01   1.00800           0
     23404 MEMB     175      POPC     C218     CTL3    -0.270000       12.0110           0
     23405 MEMB     175      POPC     H18R     HAL3     0.900000E-01   1.00800           0
     23406 MEMB     175      POPC     H18S     HAL3     0.900000E-01   1.00800           0
     23407 MEMB     175      POPC     H18T     HAL3     0.900000E-01   1.00800           0
     23408 MEMB     175      POPC     C33      CTL2    -0.180000       12.0110           0
     23409 MEMB     175      POPC     H3X      HAL2     0.900000E-01   1.00800           0
     23410 MEMB     175      POPC     H3Y      HAL2     0.900000E-01   1.00800           0
     23411 MEMB     175      POPC     C34      CTL2    -0.180000       12.0110           0
     23412 MEMB     175      POPC     H4X      HAL2     0.900000E-01   1.00800           0
     23413 MEMB     175      POPC     H4Y      HAL2     0.900000E-01   1.00800           0
     23414 MEMB     175      POPC     C35      CTL2    -0.180000       12.0110           0
     23415 MEMB     175      POPC     H5X      HAL2     0.900000E-01   1.00800           0
     23416 MEMB     175      POPC     H5Y      HAL2     0.900000E-01   1.00800           0
     23417 MEMB     175      POPC     C36      CTL2    -0.180000       12.0110           0
     23418 MEMB     175      POPC     H6X      HAL2     0.900000E-01   1.00800           0
     23419 MEMB     175      POPC     H6Y      HAL2     0.900000E-01   1.00800           0
     23420 MEMB     175      POPC     C37      CTL2    -0.180000       12.0110           0
     23421 MEMB     175      POPC     H7X      HAL2     0.900000E-01   1.00800           0
     23422 MEMB     175      POPC     H7Y      HAL2     0.900000E-01   1.00800           0
     23423 MEMB     175      POPC     C38      CTL2    -0.180000       12.0110           0
     23424 MEMB     175      POPC     H8X      HAL2     0.900000E-01   1.00800           0
     23425 MEMB     175      POPC     H8Y      HAL2     0.900000E-01   1.00800           0
     23426 MEMB     175      POPC     C39      CTL2    -0.180000       12.0110           0
     23427 MEMB     175      POPC     H9X      HAL2     0.900000E-01   1.00800           0
     23428 MEMB     175      POPC     H9Y      HAL2     0.900000E-01   1.00800           0
     23429 MEMB     175      POPC     C310     CTL2    -0.180000       12.0110           0
     23430 MEMB     175      POPC     H10X     HAL2     0.900000E-01   1.00800           0
     23431 MEMB     175      POPC     H10Y     HAL2     0.900000E-01   1.00800           0
     23432 MEMB     175      POPC     C311     CTL2    -0.180000       12.0110           0
     23433 MEMB     175      POPC     H11X     HAL2     0.900000E-01   1.00800           0
     23434 MEMB     175      POPC     H11Y     HAL2     0.900000E-01   1.00800           0
     23435 MEMB     175      POPC     C312     CTL2    -0.180000       12.0110           0
     23436 MEMB     175      POPC     H12X     HAL2     0.900000E-01   1.00800           0
     23437 MEMB     175      POPC     H12Y     HAL2     0.900000E-01   1.00800           0
     23438 MEMB     175      POPC     C313     CTL2    -0.180000       12.0110           0
     23439 MEMB     175      POPC     H13X     HAL2     0.900000E-01   1.00800           0
     23440 MEMB     175      POPC     H13Y     HAL2     0.900000E-01   1.00800           0
     23441 MEMB     175      POPC     C314     CTL2    -0.180000       12.0110           0
     23442 MEMB     175      POPC     H14X     HAL2     0.900000E-01   1.00800           0
     23443 MEMB     175      POPC     H14Y     HAL2     0.900000E-01   1.00800           0
     23444 MEMB     175      POPC     C315     CTL2    -0.180000       12.0110           0
     23445 MEMB     175      POPC     H15X     HAL2     0.900000E-01   1.00800           0
     23446 MEMB     175      POPC     H15Y     HAL2     0.900000E-01   1.00800           0
     23447 MEMB     175      POPC     C316     CTL3    -0.270000       12.0110           0
     23448 MEMB     175      POPC     H16X     HAL3     0.900000E-01   1.00800           0
     23449 MEMB     175      POPC     H16Y     HAL3     0.900000E-01   1.00800           0
     23450 MEMB     175      POPC     H16Z     HAL3     0.900000E-01   1.00800           0
     23451 MEMB     176      POPC     N        NTL     -0.600000       14.0070           0
     23452 MEMB     176      POPC     C12      CTL2    -0.100000       12.0110           0
     23453 MEMB     176      POPC     H12A     HL       0.250000       1.00800           0
     23454 MEMB     176      POPC     H12B     HL       0.250000       1.00800           0
     23455 MEMB     176      POPC     C13      CTL5    -0.350000       12.0110           0
     23456 MEMB     176      POPC     H13A     HL       0.250000       1.00800           0
     23457 MEMB     176      POPC     H13B     HL       0.250000       1.00800           0
     23458 MEMB     176      POPC     H13C     HL       0.250000       1.00800           0
     23459 MEMB     176      POPC     C14      CTL5    -0.350000       12.0110           0
     23460 MEMB     176      POPC     H14A     HL       0.250000       1.00800           0
     23461 MEMB     176      POPC     H14B     HL       0.250000       1.00800           0
     23462 MEMB     176      POPC     H14C     HL       0.250000       1.00800           0
     23463 MEMB     176      POPC     C15      CTL5    -0.350000       12.0110           0
     23464 MEMB     176      POPC     H15A     HL       0.250000       1.00800           0
     23465 MEMB     176      POPC     H15B     HL       0.250000       1.00800           0
     23466 MEMB     176      POPC     H15C     HL       0.250000       1.00800           0
     23467 MEMB     176      POPC     C11      CTL2    -0.800000E-01   12.0110           0
     23468 MEMB     176      POPC     H11A     HAL2     0.900000E-01   1.00800           0
     23469 MEMB     176      POPC     H11B     HAL2     0.900000E-01   1.00800           0
     23470 MEMB     176      POPC     P        PL       1.50000        30.9740           0
     23471 MEMB     176      POPC     O13      O2L     -0.780000       15.9994           0
     23472 MEMB     176      POPC     O14      O2L     -0.780000       15.9994           0
     23473 MEMB     176      POPC     O12      OSLP    -0.570000       15.9994           0
     23474 MEMB     176      POPC     O11      OSLP    -0.570000       15.9994           0
     23475 MEMB     176      POPC     C1       CTL2    -0.800000E-01   12.0110           0
     23476 MEMB     176      POPC     HA       HAL2     0.900000E-01   1.00800           0
     23477 MEMB     176      POPC     HB       HAL2     0.900000E-01   1.00800           0
     23478 MEMB     176      POPC     C2       CTL1     0.170000       12.0110           0
     23479 MEMB     176      POPC     HS       HAL1     0.900000E-01   1.00800           0
     23480 MEMB     176      POPC     O21      OSL     -0.490000       15.9994           0
     23481 MEMB     176      POPC     C21      CL       0.900000       12.0110           0
     23482 MEMB     176      POPC     O22      OBL     -0.630000       15.9994           0
     23483 MEMB     176      POPC     C22      CTL2    -0.220000       12.0110           0
     23484 MEMB     176      POPC     H2R      HAL2     0.900000E-01   1.00800           0
     23485 MEMB     176      POPC     H2S      HAL2     0.900000E-01   1.00800           0
     23486 MEMB     176      POPC     C3       CTL2     0.800000E-01   12.0110           0
     23487 MEMB     176      POPC     HX       HAL2     0.900000E-01   1.00800           0
     23488 MEMB     176      POPC     HY       HAL2     0.900000E-01   1.00800           0
     23489 MEMB     176      POPC     O31      OSL     -0.490000       15.9994           0
     23490 MEMB     176      POPC     C31      CL       0.900000       12.0110           0
     23491 MEMB     176      POPC     O32      OBL     -0.630000       15.9994           0
     23492 MEMB     176      POPC     C32      CTL2    -0.220000       12.0110           0
     23493 MEMB     176      POPC     H2X      HAL2     0.900000E-01   1.00800           0
     23494 MEMB     176      POPC     H2Y      HAL2     0.900000E-01   1.00800           0
     23495 MEMB     176      POPC     C23      CTL2    -0.180000       12.0110           0
     23496 MEMB     176      POPC     H3R      HAL2     0.900000E-01   1.00800           0
     23497 MEMB     176      POPC     H3S      HAL2     0.900000E-01   1.00800           0
     23498 MEMB     176      POPC     C24      CTL2    -0.180000       12.0110           0
     23499 MEMB     176      POPC     H4R      HAL2     0.900000E-01   1.00800           0
     23500 MEMB     176      POPC     H4S      HAL2     0.900000E-01   1.00800           0
     23501 MEMB     176      POPC     C25      CTL2    -0.180000       12.0110           0
     23502 MEMB     176      POPC     H5R      HAL2     0.900000E-01   1.00800           0
     23503 MEMB     176      POPC     H5S      HAL2     0.900000E-01   1.00800           0
     23504 MEMB     176      POPC     C26      CTL2    -0.180000       12.0110           0
     23505 MEMB     176      POPC     H6R      HAL2     0.900000E-01   1.00800           0
     23506 MEMB     176      POPC     H6S      HAL2     0.900000E-01   1.00800           0
     23507 MEMB     176      POPC     C27      CTL2    -0.180000       12.0110           0
     23508 MEMB     176      POPC     H7R      HAL2     0.900000E-01   1.00800           0
     23509 MEMB     176      POPC     H7S      HAL2     0.900000E-01   1.00800           0
     23510 MEMB     176      POPC     C28      CTL2    -0.180000       12.0110           0
     23511 MEMB     176      POPC     H8R      HAL2     0.900000E-01   1.00800           0
     23512 MEMB     176      POPC     H8S      HAL2     0.900000E-01   1.00800           0
     23513 MEMB     176      POPC     C29      CEL1    -0.150000       12.0110           0
     23514 MEMB     176      POPC     H91      HEL1     0.150000       1.00800           0
     23515 MEMB     176      POPC     C210     CEL1    -0.150000       12.0110           0
     23516 MEMB     176      POPC     H101     HEL1     0.150000       1.00800           0
     23517 MEMB     176      POPC     C211     CTL2    -0.180000       12.0110           0
     23518 MEMB     176      POPC     H11R     HAL2     0.900000E-01   1.00800           0
     23519 MEMB     176      POPC     H11S     HAL2     0.900000E-01   1.00800           0
     23520 MEMB     176      POPC     C212     CTL2    -0.180000       12.0110           0
     23521 MEMB     176      POPC     H12R     HAL2     0.900000E-01   1.00800           0
     23522 MEMB     176      POPC     H12S     HAL2     0.900000E-01   1.00800           0
     23523 MEMB     176      POPC     C213     CTL2    -0.180000       12.0110           0
     23524 MEMB     176      POPC     H13R     HAL2     0.900000E-01   1.00800           0
     23525 MEMB     176      POPC     H13S     HAL2     0.900000E-01   1.00800           0
     23526 MEMB     176      POPC     C214     CTL2    -0.180000       12.0110           0
     23527 MEMB     176      POPC     H14R     HAL2     0.900000E-01   1.00800           0
     23528 MEMB     176      POPC     H14S     HAL2     0.900000E-01   1.00800           0
     23529 MEMB     176      POPC     C215     CTL2    -0.180000       12.0110           0
     23530 MEMB     176      POPC     H15R     HAL2     0.900000E-01   1.00800           0
     23531 MEMB     176      POPC     H15S     HAL2     0.900000E-01   1.00800           0
     23532 MEMB     176      POPC     C216     CTL2    -0.180000       12.0110           0
     23533 MEMB     176      POPC     H16R     HAL2     0.900000E-01   1.00800           0
     23534 MEMB     176      POPC     H16S     HAL2     0.900000E-01   1.00800           0
     23535 MEMB     176      POPC     C217     CTL2    -0.180000       12.0110           0
     23536 MEMB     176      POPC     H17R     HAL2     0.900000E-01   1.00800           0
     23537 MEMB     176      POPC     H17S     HAL2     0.900000E-01   1.00800           0
     23538 MEMB     176      POPC     C218     CTL3    -0.270000       12.0110           0
     23539 MEMB     176      POPC     H18R     HAL3     0.900000E-01   1.00800           0
     23540 MEMB     176      POPC     H18S     HAL3     0.900000E-01   1.00800           0
     23541 MEMB     176      POPC     H18T     HAL3     0.900000E-01   1.00800           0
     23542 MEMB     176      POPC     C33      CTL2    -0.180000       12.0110           0
     23543 MEMB     176      POPC     H3X      HAL2     0.900000E-01   1.00800           0
     23544 MEMB     176      POPC     H3Y      HAL2     0.900000E-01   1.00800           0
     23545 MEMB     176      POPC     C34      CTL2    -0.180000       12.0110           0
     23546 MEMB     176      POPC     H4X      HAL2     0.900000E-01   1.00800           0
     23547 MEMB     176      POPC     H4Y      HAL2     0.900000E-01   1.00800           0
     23548 MEMB     176      POPC     C35      CTL2    -0.180000       12.0110           0
     23549 MEMB     176      POPC     H5X      HAL2     0.900000E-01   1.00800           0
     23550 MEMB     176      POPC     H5Y      HAL2     0.900000E-01   1.00800           0
     23551 MEMB     176      POPC     C36      CTL2    -0.180000       12.0110           0
     23552 MEMB     176      POPC     H6X      HAL2     0.900000E-01   1.00800           0
     23553 MEMB     176      POPC     H6Y      HAL2     0.900000E-01   1.00800           0
     23554 MEMB     176      POPC     C37      CTL2    -0.180000       12.0110           0
     23555 MEMB     176      POPC     H7X      HAL2     0.900000E-01   1.00800           0
     23556 MEMB     176      POPC     H7Y      HAL2     0.900000E-01   1.00800           0
     23557 MEMB     176      POPC     C38      CTL2    -0.180000       12.0110           0
     23558 MEMB     176      POPC     H8X      HAL2     0.900000E-01   1.00800           0
     23559 MEMB     176      POPC     H8Y      HAL2     0.900000E-01   1.00800           0
     23560 MEMB     176      POPC     C39      CTL2    -0.180000       12.0110           0
     23561 MEMB     176      POPC     H9X      HAL2     0.900000E-01   1.00800           0
     23562 MEMB     176      POPC     H9Y      HAL2     0.900000E-01   1.00800           0
     23563 MEMB     176      POPC     C310     CTL2    -0.180000       12.0110           0
     23564 MEMB     176      POPC     H10X     HAL2     0.900000E-01   1.00800           0
     23565 MEMB     176      POPC     H10Y     HAL2     0.900000E-01   1.00800           0
     23566 MEMB     176      POPC     C311     CTL2    -0.180000       12.0110           0
     23567 MEMB     176      POPC     H11X     HAL2     0.900000E-01   1.00800           0
     23568 MEMB     176      POPC     H11Y     HAL2     0.900000E-01   1.00800           0
     23569 MEMB     176      POPC     C312     CTL2    -0.180000       12.0110           0
     23570 MEMB     176      POPC     H12X     HAL2     0.900000E-01   1.00800           0
     23571 MEMB     176      POPC     H12Y     HAL2     0.900000E-01   1.00800           0
     23572 MEMB     176      POPC     C313     CTL2    -0.180000       12.0110           0
     23573 MEMB     176      POPC     H13X     HAL2     0.900000E-01   1.00800           0
     23574 MEMB     176      POPC     H13Y     HAL2     0.900000E-01   1.00800           0
     23575 MEMB     176      POPC     C314     CTL2    -0.180000       12.0110           0
     23576 MEMB     176      POPC     H14X     HAL2     0.900000E-01   1.00800           0
     23577 MEMB     176      POPC     H14Y     HAL2     0.900000E-01   1.00800           0
     23578 MEMB     176      POPC     C315     CTL2    -0.180000       12.0110           0
     23579 MEMB     176      POPC     H15X     HAL2     0.900000E-01   1.00800           0
     23580 MEMB     176      POPC     H15Y     HAL2     0.900000E-01   1.00800           0
     23581 MEMB     176      POPC     C316     CTL3    -0.270000       12.0110           0
     23582 MEMB     176      POPC     H16X     HAL3     0.900000E-01   1.00800           0
     23583 MEMB     176      POPC     H16Y     HAL3     0.900000E-01   1.00800           0
     23584 MEMB     176      POPC     H16Z     HAL3     0.900000E-01   1.00800           0
     23585 MEMB     177      POPC     N        NTL     -0.600000       14.0070           0
     23586 MEMB     177      POPC     C12      CTL2    -0.100000       12.0110           0
     23587 MEMB     177      POPC     H12A     HL       0.250000       1.00800           0
     23588 MEMB     177      POPC     H12B     HL       0.250000       1.00800           0
     23589 MEMB     177      POPC     C13      CTL5    -0.350000       12.0110           0
     23590 MEMB     177      POPC     H13A     HL       0.250000       1.00800           0
     23591 MEMB     177      POPC     H13B     HL       0.250000       1.00800           0
     23592 MEMB     177      POPC     H13C     HL       0.250000       1.00800           0
     23593 MEMB     177      POPC     C14      CTL5    -0.350000       12.0110           0
     23594 MEMB     177      POPC     H14A     HL       0.250000       1.00800           0
     23595 MEMB     177      POPC     H14B     HL       0.250000       1.00800           0
     23596 MEMB     177      POPC     H14C     HL       0.250000       1.00800           0
     23597 MEMB     177      POPC     C15      CTL5    -0.350000       12.0110           0
     23598 MEMB     177      POPC     H15A     HL       0.250000       1.00800           0
     23599 MEMB     177      POPC     H15B     HL       0.250000       1.00800           0
     23600 MEMB     177      POPC     H15C     HL       0.250000       1.00800           0
     23601 MEMB     177      POPC     C11      CTL2    -0.800000E-01   12.0110           0
     23602 MEMB     177      POPC     H11A     HAL2     0.900000E-01   1.00800           0
     23603 MEMB     177      POPC     H11B     HAL2     0.900000E-01   1.00800           0
     23604 MEMB     177      POPC     P        PL       1.50000        30.9740           0
     23605 MEMB     177      POPC     O13      O2L     -0.780000       15.9994           0
     23606 MEMB     177      POPC     O14      O2L     -0.780000       15.9994           0
     23607 MEMB     177      POPC     O12      OSLP    -0.570000       15.9994           0
     23608 MEMB     177      POPC     O11      OSLP    -0.570000       15.9994           0
     23609 MEMB     177      POPC     C1       CTL2    -0.800000E-01   12.0110           0
     23610 MEMB     177      POPC     HA       HAL2     0.900000E-01   1.00800           0
     23611 MEMB     177      POPC     HB       HAL2     0.900000E-01   1.00800           0
     23612 MEMB     177      POPC     C2       CTL1     0.170000       12.0110           0
     23613 MEMB     177      POPC     HS       HAL1     0.900000E-01   1.00800           0
     23614 MEMB     177      POPC     O21      OSL     -0.490000       15.9994           0
     23615 MEMB     177      POPC     C21      CL       0.900000       12.0110           0
     23616 MEMB     177      POPC     O22      OBL     -0.630000       15.9994           0
     23617 MEMB     177      POPC     C22      CTL2    -0.220000       12.0110           0
     23618 MEMB     177      POPC     H2R      HAL2     0.900000E-01   1.00800           0
     23619 MEMB     177      POPC     H2S      HAL2     0.900000E-01   1.00800           0
     23620 MEMB     177      POPC     C3       CTL2     0.800000E-01   12.0110           0
     23621 MEMB     177      POPC     HX       HAL2     0.900000E-01   1.00800           0
     23622 MEMB     177      POPC     HY       HAL2     0.900000E-01   1.00800           0
     23623 MEMB     177      POPC     O31      OSL     -0.490000       15.9994           0
     23624 MEMB     177      POPC     C31      CL       0.900000       12.0110           0
     23625 MEMB     177      POPC     O32      OBL     -0.630000       15.9994           0
     23626 MEMB     177      POPC     C32      CTL2    -0.220000       12.0110           0
     23627 MEMB     177      POPC     H2X      HAL2     0.900000E-01   1.00800           0
     23628 MEMB     177      POPC     H2Y      HAL2     0.900000E-01   1.00800           0
     23629 MEMB     177      POPC     C23      CTL2    -0.180000       12.0110           0
     23630 MEMB     177      POPC     H3R      HAL2     0.900000E-01   1.00800           0
     23631 MEMB     177      POPC     H3S      HAL2     0.900000E-01   1.00800           0
     23632 MEMB     177      POPC     C24      CTL2    -0.180000       12.0110           0
     23633 MEMB     177      POPC     H4R      HAL2     0.900000E-01   1.00800           0
     23634 MEMB     177      POPC     H4S      HAL2     0.900000E-01   1.00800           0
     23635 MEMB     177      POPC     C25      CTL2    -0.180000       12.0110           0
     23636 MEMB     177      POPC     H5R      HAL2     0.900000E-01   1.00800           0
     23637 MEMB     177      POPC     H5S      HAL2     0.900000E-01   1.00800           0
     23638 MEMB     177      POPC     C26      CTL2    -0.180000       12.0110           0
     23639 MEMB     177      POPC     H6R      HAL2     0.900000E-01   1.00800           0
     23640 MEMB     177      POPC     H6S      HAL2     0.900000E-01   1.00800           0
     23641 MEMB     177      POPC     C27      CTL2    -0.180000       12.0110           0
     23642 MEMB     177      POPC     H7R      HAL2     0.900000E-01   1.00800           0
     23643 MEMB     177      POPC     H7S      HAL2     0.900000E-01   1.00800           0
     23644 MEMB     177      POPC     C28      CTL2    -0.180000       12.0110           0
     23645 MEMB     177      POPC     H8R      HAL2     0.900000E-01   1.00800           0
     23646 MEMB     177      POPC     H8S      HAL2     0.900000E-01   1.00800           0
     23647 MEMB     177      POPC     C29      CEL1    -0.150000       12.0110           0
     23648 MEMB     177      POPC     H91      HEL1     0.150000       1.00800           0
     23649 MEMB     177      POPC     C210     CEL1    -0.150000       12.0110           0
     23650 MEMB     177      POPC     H101     HEL1     0.150000       1.00800           0
     23651 MEMB     177      POPC     C211     CTL2    -0.180000       12.0110           0
     23652 MEMB     177      POPC     H11R     HAL2     0.900000E-01   1.00800           0
     23653 MEMB     177      POPC     H11S     HAL2     0.900000E-01   1.00800           0
     23654 MEMB     177      POPC     C212     CTL2    -0.180000       12.0110           0
     23655 MEMB     177      POPC     H12R     HAL2     0.900000E-01   1.00800           0
     23656 MEMB     177      POPC     H12S     HAL2     0.900000E-01   1.00800           0
     23657 MEMB     177      POPC     C213     CTL2    -0.180000       12.0110           0
     23658 MEMB     177      POPC     H13R     HAL2     0.900000E-01   1.00800           0
     23659 MEMB     177      POPC     H13S     HAL2     0.900000E-01   1.00800           0
     23660 MEMB     177      POPC     C214     CTL2    -0.180000       12.0110           0
     23661 MEMB     177      POPC     H14R     HAL2     0.900000E-01   1.00800           0
     23662 MEMB     177      POPC     H14S     HAL2     0.900000E-01   1.00800           0
     23663 MEMB     177      POPC     C215     CTL2    -0.180000       12.0110           0
     23664 MEMB     177      POPC     H15R     HAL2     0.900000E-01   1.00800           0
     23665 MEMB     177      POPC     H15S     HAL2     0.900000E-01   1.00800           0
     23666 MEMB     177      POPC     C216     CTL2    -0.180000       12.0110           0
     23667 MEMB     177      POPC     H16R     HAL2     0.900000E-01   1.00800           0
     23668 MEMB     177      POPC     H16S     HAL2     0.900000E-01   1.00800           0
     23669 MEMB     177      POPC     C217     CTL2    -0.180000       12.0110           0
     23670 MEMB     177      POPC     H17R     HAL2     0.900000E-01   1.00800           0
     23671 MEMB     177      POPC     H17S     HAL2     0.900000E-01   1.00800           0
     23672 MEMB     177      POPC     C218     CTL3    -0.270000       12.0110           0
     23673 MEMB     177      POPC     H18R     HAL3     0.900000E-01   1.00800           0
     23674 MEMB     177      POPC     H18S     HAL3     0.900000E-01   1.00800           0
     23675 MEMB     177      POPC     H18T     HAL3     0.900000E-01   1.00800           0
     23676 MEMB     177      POPC     C33      CTL2    -0.180000       12.0110           0
     23677 MEMB     177      POPC     H3X      HAL2     0.900000E-01   1.00800           0
     23678 MEMB     177      POPC     H3Y      HAL2     0.900000E-01   1.00800           0
     23679 MEMB     177      POPC     C34      CTL2    -0.180000       12.0110           0
     23680 MEMB     177      POPC     H4X      HAL2     0.900000E-01   1.00800           0
     23681 MEMB     177      POPC     H4Y      HAL2     0.900000E-01   1.00800           0
     23682 MEMB     177      POPC     C35      CTL2    -0.180000       12.0110           0
     23683 MEMB     177      POPC     H5X      HAL2     0.900000E-01   1.00800           0
     23684 MEMB     177      POPC     H5Y      HAL2     0.900000E-01   1.00800           0
     23685 MEMB     177      POPC     C36      CTL2    -0.180000       12.0110           0
     23686 MEMB     177      POPC     H6X      HAL2     0.900000E-01   1.00800           0
     23687 MEMB     177      POPC     H6Y      HAL2     0.900000E-01   1.00800           0
     23688 MEMB     177      POPC     C37      CTL2    -0.180000       12.0110           0
     23689 MEMB     177      POPC     H7X      HAL2     0.900000E-01   1.00800           0
     23690 MEMB     177      POPC     H7Y      HAL2     0.900000E-01   1.00800           0
     23691 MEMB     177      POPC     C38      CTL2    -0.180000       12.0110           0
     23692 MEMB     177      POPC     H8X      HAL2     0.900000E-01   1.00800           0
     23693 MEMB     177      POPC     H8Y      HAL2     0.900000E-01   1.00800           0
     23694 MEMB     177      POPC     C39      CTL2    -0.180000       12.0110           0
     23695 MEMB     177      POPC     H9X      HAL2     0.900000E-01   1.00800           0
     23696 MEMB     177      POPC     H9Y      HAL2     0.900000E-01   1.00800           0
     23697 MEMB     177      POPC     C310     CTL2    -0.180000       12.0110           0
     23698 MEMB     177      POPC     H10X     HAL2     0.900000E-01   1.00800           0
     23699 MEMB     177      POPC     H10Y     HAL2     0.900000E-01   1.00800           0
     23700 MEMB     177      POPC     C311     CTL2    -0.180000       12.0110           0
     23701 MEMB     177      POPC     H11X     HAL2     0.900000E-01   1.00800           0
     23702 MEMB     177      POPC     H11Y     HAL2     0.900000E-01   1.00800           0
     23703 MEMB     177      POPC     C312     CTL2    -0.180000       12.0110           0
     23704 MEMB     177      POPC     H12X     HAL2     0.900000E-01   1.00800           0
     23705 MEMB     177      POPC     H12Y     HAL2     0.900000E-01   1.00800           0
     23706 MEMB     177      POPC     C313     CTL2    -0.180000       12.0110           0
     23707 MEMB     177      POPC     H13X     HAL2     0.900000E-01   1.00800           0
     23708 MEMB     177      POPC     H13Y     HAL2     0.900000E-01   1.00800           0
     23709 MEMB     177      POPC     C314     CTL2    -0.180000       12.0110           0
     23710 MEMB     177      POPC     H14X     HAL2     0.900000E-01   1.00800           0
     23711 MEMB     177      POPC     H14Y     HAL2     0.900000E-01   1.00800           0
     23712 MEMB     177      POPC     C315     CTL2    -0.180000       12.0110           0
     23713 MEMB     177      POPC     H15X     HAL2     0.900000E-01   1.00800           0
     23714 MEMB     177      POPC     H15Y     HAL2     0.900000E-01   1.00800           0
     23715 MEMB     177      POPC     C316     CTL3    -0.270000       12.0110           0
     23716 MEMB     177      POPC     H16X     HAL3     0.900000E-01   1.00800           0
     23717 MEMB     177      POPC     H16Y     HAL3     0.900000E-01   1.00800           0
     23718 MEMB     177      POPC     H16Z     HAL3     0.900000E-01   1.00800           0
     23719 MEMB     178      POPC     N        NTL     -0.600000       14.0070           0
     23720 MEMB     178      POPC     C12      CTL2    -0.100000       12.0110           0
     23721 MEMB     178      POPC     H12A     HL       0.250000       1.00800           0
     23722 MEMB     178      POPC     H12B     HL       0.250000       1.00800           0
     23723 MEMB     178      POPC     C13      CTL5    -0.350000       12.0110           0
     23724 MEMB     178      POPC     H13A     HL       0.250000       1.00800           0
     23725 MEMB     178      POPC     H13B     HL       0.250000       1.00800           0
     23726 MEMB     178      POPC     H13C     HL       0.250000       1.00800           0
     23727 MEMB     178      POPC     C14      CTL5    -0.350000       12.0110           0
     23728 MEMB     178      POPC     H14A     HL       0.250000       1.00800           0
     23729 MEMB     178      POPC     H14B     HL       0.250000       1.00800           0
     23730 MEMB     178      POPC     H14C     HL       0.250000       1.00800           0
     23731 MEMB     178      POPC     C15      CTL5    -0.350000       12.0110           0
     23732 MEMB     178      POPC     H15A     HL       0.250000       1.00800           0
     23733 MEMB     178      POPC     H15B     HL       0.250000       1.00800           0
     23734 MEMB     178      POPC     H15C     HL       0.250000       1.00800           0
     23735 MEMB     178      POPC     C11      CTL2    -0.800000E-01   12.0110           0
     23736 MEMB     178      POPC     H11A     HAL2     0.900000E-01   1.00800           0
     23737 MEMB     178      POPC     H11B     HAL2     0.900000E-01   1.00800           0
     23738 MEMB     178      POPC     P        PL       1.50000        30.9740           0
     23739 MEMB     178      POPC     O13      O2L     -0.780000       15.9994           0
     23740 MEMB     178      POPC     O14      O2L     -0.780000       15.9994           0
     23741 MEMB     178      POPC     O12      OSLP    -0.570000       15.9994           0
     23742 MEMB     178      POPC     O11      OSLP    -0.570000       15.9994           0
     23743 MEMB     178      POPC     C1       CTL2    -0.800000E-01   12.0110           0
     23744 MEMB     178      POPC     HA       HAL2     0.900000E-01   1.00800           0
     23745 MEMB     178      POPC     HB       HAL2     0.900000E-01   1.00800           0
     23746 MEMB     178      POPC     C2       CTL1     0.170000       12.0110           0
     23747 MEMB     178      POPC     HS       HAL1     0.900000E-01   1.00800           0
     23748 MEMB     178      POPC     O21      OSL     -0.490000       15.9994           0
     23749 MEMB     178      POPC     C21      CL       0.900000       12.0110           0
     23750 MEMB     178      POPC     O22      OBL     -0.630000       15.9994           0
     23751 MEMB     178      POPC     C22      CTL2    -0.220000       12.0110           0
     23752 MEMB     178      POPC     H2R      HAL2     0.900000E-01   1.00800           0
     23753 MEMB     178      POPC     H2S      HAL2     0.900000E-01   1.00800           0
     23754 MEMB     178      POPC     C3       CTL2     0.800000E-01   12.0110           0
     23755 MEMB     178      POPC     HX       HAL2     0.900000E-01   1.00800           0
     23756 MEMB     178      POPC     HY       HAL2     0.900000E-01   1.00800           0
     23757 MEMB     178      POPC     O31      OSL     -0.490000       15.9994           0
     23758 MEMB     178      POPC     C31      CL       0.900000       12.0110           0
     23759 MEMB     178      POPC     O32      OBL     -0.630000       15.9994           0
     23760 MEMB     178      POPC     C32      CTL2    -0.220000       12.0110           0
     23761 MEMB     178      POPC     H2X      HAL2     0.900000E-01   1.00800           0
     23762 MEMB     178      POPC     H2Y      HAL2     0.900000E-01   1.00800           0
     23763 MEMB     178      POPC     C23      CTL2    -0.180000       12.0110           0
     23764 MEMB     178      POPC     H3R      HAL2     0.900000E-01   1.00800           0
     23765 MEMB     178      POPC     H3S      HAL2     0.900000E-01   1.00800           0
     23766 MEMB     178      POPC     C24      CTL2    -0.180000       12.0110           0
     23767 MEMB     178      POPC     H4R      HAL2     0.900000E-01   1.00800           0
     23768 MEMB     178      POPC     H4S      HAL2     0.900000E-01   1.00800           0
     23769 MEMB     178      POPC     C25      CTL2    -0.180000       12.0110           0
     23770 MEMB     178      POPC     H5R      HAL2     0.900000E-01   1.00800           0
     23771 MEMB     178      POPC     H5S      HAL2     0.900000E-01   1.00800           0
     23772 MEMB     178      POPC     C26      CTL2    -0.180000       12.0110           0
     23773 MEMB     178      POPC     H6R      HAL2     0.900000E-01   1.00800           0
     23774 MEMB     178      POPC     H6S      HAL2     0.900000E-01   1.00800           0
     23775 MEMB     178      POPC     C27      CTL2    -0.180000       12.0110           0
     23776 MEMB     178      POPC     H7R      HAL2     0.900000E-01   1.00800           0
     23777 MEMB     178      POPC     H7S      HAL2     0.900000E-01   1.00800           0
     23778 MEMB     178      POPC     C28      CTL2    -0.180000       12.0110           0
     23779 MEMB     178      POPC     H8R      HAL2     0.900000E-01   1.00800           0
     23780 MEMB     178      POPC     H8S      HAL2     0.900000E-01   1.00800           0
     23781 MEMB     178      POPC     C29      CEL1    -0.150000       12.0110           0
     23782 MEMB     178      POPC     H91      HEL1     0.150000       1.00800           0
     23783 MEMB     178      POPC     C210     CEL1    -0.150000       12.0110           0
     23784 MEMB     178      POPC     H101     HEL1     0.150000       1.00800           0
     23785 MEMB     178      POPC     C211     CTL2    -0.180000       12.0110           0
     23786 MEMB     178      POPC     H11R     HAL2     0.900000E-01   1.00800           0
     23787 MEMB     178      POPC     H11S     HAL2     0.900000E-01   1.00800           0
     23788 MEMB     178      POPC     C212     CTL2    -0.180000       12.0110           0
     23789 MEMB     178      POPC     H12R     HAL2     0.900000E-01   1.00800           0
     23790 MEMB     178      POPC     H12S     HAL2     0.900000E-01   1.00800           0
     23791 MEMB     178      POPC     C213     CTL2    -0.180000       12.0110           0
     23792 MEMB     178      POPC     H13R     HAL2     0.900000E-01   1.00800           0
     23793 MEMB     178      POPC     H13S     HAL2     0.900000E-01   1.00800           0
     23794 MEMB     178      POPC     C214     CTL2    -0.180000       12.0110           0
     23795 MEMB     178      POPC     H14R     HAL2     0.900000E-01   1.00800           0
     23796 MEMB     178      POPC     H14S     HAL2     0.900000E-01   1.00800           0
     23797 MEMB     178      POPC     C215     CTL2    -0.180000       12.0110           0
     23798 MEMB     178      POPC     H15R     HAL2     0.900000E-01   1.00800           0
     23799 MEMB     178      POPC     H15S     HAL2     0.900000E-01   1.00800           0
     23800 MEMB     178      POPC     C216     CTL2    -0.180000       12.0110           0
     23801 MEMB     178      POPC     H16R     HAL2     0.900000E-01   1.00800           0
     23802 MEMB     178      POPC     H16S     HAL2     0.900000E-01   1.00800           0
     23803 MEMB     178      POPC     C217     CTL2    -0.180000       12.0110           0
     23804 MEMB     178      POPC     H17R     HAL2     0.900000E-01   1.00800           0
     23805 MEMB     178      POPC     H17S     HAL2     0.900000E-01   1.00800           0
     23806 MEMB     178      POPC     C218     CTL3    -0.270000       12.0110           0
     23807 MEMB     178      POPC     H18R     HAL3     0.900000E-01   1.00800           0
     23808 MEMB     178      POPC     H18S     HAL3     0.900000E-01   1.00800           0
     23809 MEMB     178      POPC     H18T     HAL3     0.900000E-01   1.00800           0
     23810 MEMB     178      POPC     C33      CTL2    -0.180000       12.0110           0
     23811 MEMB     178      POPC     H3X      HAL2     0.900000E-01   1.00800           0
     23812 MEMB     178      POPC     H3Y      HAL2     0.900000E-01   1.00800           0
     23813 MEMB     178      POPC     C34      CTL2    -0.180000       12.0110           0
     23814 MEMB     178      POPC     H4X      HAL2     0.900000E-01   1.00800           0
     23815 MEMB     178      POPC     H4Y      HAL2     0.900000E-01   1.00800           0
     23816 MEMB     178      POPC     C35      CTL2    -0.180000       12.0110           0
     23817 MEMB     178      POPC     H5X      HAL2     0.900000E-01   1.00800           0
     23818 MEMB     178      POPC     H5Y      HAL2     0.900000E-01   1.00800           0
     23819 MEMB     178      POPC     C36      CTL2    -0.180000       12.0110           0
     23820 MEMB     178      POPC     H6X      HAL2     0.900000E-01   1.00800           0
     23821 MEMB     178      POPC     H6Y      HAL2     0.900000E-01   1.00800           0
     23822 MEMB     178      POPC     C37      CTL2    -0.180000       12.0110           0
     23823 MEMB     178      POPC     H7X      HAL2     0.900000E-01   1.00800           0
     23824 MEMB     178      POPC     H7Y      HAL2     0.900000E-01   1.00800           0
     23825 MEMB     178      POPC     C38      CTL2    -0.180000       12.0110           0
     23826 MEMB     178      POPC     H8X      HAL2     0.900000E-01   1.00800           0
     23827 MEMB     178      POPC     H8Y      HAL2     0.900000E-01   1.00800           0
     23828 MEMB     178      POPC     C39      CTL2    -0.180000       12.0110           0
     23829 MEMB     178      POPC     H9X      HAL2     0.900000E-01   1.00800           0
     23830 MEMB     178      POPC     H9Y      HAL2     0.900000E-01   1.00800           0
     23831 MEMB     178      POPC     C310     CTL2    -0.180000       12.0110           0
     23832 MEMB     178      POPC     H10X     HAL2     0.900000E-01   1.00800           0
     23833 MEMB     178      POPC     H10Y     HAL2     0.900000E-01   1.00800           0
     23834 MEMB     178      POPC     C311     CTL2    -0.180000       12.0110           0
     23835 MEMB     178      POPC     H11X     HAL2     0.900000E-01   1.00800           0
     23836 MEMB     178      POPC     H11Y     HAL2     0.900000E-01   1.00800           0
     23837 MEMB     178      POPC     C312     CTL2    -0.180000       12.0110           0
     23838 MEMB     178      POPC     H12X     HAL2     0.900000E-01   1.00800           0
     23839 MEMB     178      POPC     H12Y     HAL2     0.900000E-01   1.00800           0
     23840 MEMB     178      POPC     C313     CTL2    -0.180000       12.0110           0
     23841 MEMB     178      POPC     H13X     HAL2     0.900000E-01   1.00800           0
     23842 MEMB     178      POPC     H13Y     HAL2     0.900000E-01   1.00800           0
     23843 MEMB     178      POPC     C314     CTL2    -0.180000       12.0110           0
     23844 MEMB     178      POPC     H14X     HAL2     0.900000E-01   1.00800           0
     23845 MEMB     178      POPC     H14Y     HAL2     0.900000E-01   1.00800           0
     23846 MEMB     178      POPC     C315     CTL2    -0.180000       12.0110           0
     23847 MEMB     178      POPC     H15X     HAL2     0.900000E-01   1.00800           0
     23848 MEMB     178      POPC     H15Y     HAL2     0.900000E-01   1.00800           0
     23849 MEMB     178      POPC     C316     CTL3    -0.270000       12.0110           0
     23850 MEMB     178      POPC     H16X     HAL3     0.900000E-01   1.00800           0
     23851 MEMB     178      POPC     H16Y     HAL3     0.900000E-01   1.00800           0
     23852 MEMB     178      POPC     H16Z     HAL3     0.900000E-01   1.00800           0
     23853 MEMB     179      POPC     N        NTL     -0.600000       14.0070           0
     23854 MEMB     179      POPC     C12      CTL2    -0.100000       12.0110           0
     23855 MEMB     179      POPC     H12A     HL       0.250000       1.00800           0
     23856 MEMB     179      POPC     H12B     HL       0.250000       1.00800           0
     23857 MEMB     179      POPC     C13      CTL5    -0.350000       12.0110           0
     23858 MEMB     179      POPC     H13A     HL       0.250000       1.00800           0
     23859 MEMB     179      POPC     H13B     HL       0.250000       1.00800           0
     23860 MEMB     179      POPC     H13C     HL       0.250000       1.00800           0
     23861 MEMB     179      POPC     C14      CTL5    -0.350000       12.0110           0
     23862 MEMB     179      POPC     H14A     HL       0.250000       1.00800           0
     23863 MEMB     179      POPC     H14B     HL       0.250000       1.00800           0
     23864 MEMB     179      POPC     H14C     HL       0.250000       1.00800           0
     23865 MEMB     179      POPC     C15      CTL5    -0.350000       12.0110           0
     23866 MEMB     179      POPC     H15A     HL       0.250000       1.00800           0
     23867 MEMB     179      POPC     H15B     HL       0.250000       1.00800           0
     23868 MEMB     179      POPC     H15C     HL       0.250000       1.00800           0
     23869 MEMB     179      POPC     C11      CTL2    -0.800000E-01   12.0110           0
     23870 MEMB     179      POPC     H11A     HAL2     0.900000E-01   1.00800           0
     23871 MEMB     179      POPC     H11B     HAL2     0.900000E-01   1.00800           0
     23872 MEMB     179      POPC     P        PL       1.50000        30.9740           0
     23873 MEMB     179      POPC     O13      O2L     -0.780000       15.9994           0
     23874 MEMB     179      POPC     O14      O2L     -0.780000       15.9994           0
     23875 MEMB     179      POPC     O12      OSLP    -0.570000       15.9994           0
     23876 MEMB     179      POPC     O11      OSLP    -0.570000       15.9994           0
     23877 MEMB     179      POPC     C1       CTL2    -0.800000E-01   12.0110           0
     23878 MEMB     179      POPC     HA       HAL2     0.900000E-01   1.00800           0
     23879 MEMB     179      POPC     HB       HAL2     0.900000E-01   1.00800           0
     23880 MEMB     179      POPC     C2       CTL1     0.170000       12.0110           0
     23881 MEMB     179      POPC     HS       HAL1     0.900000E-01   1.00800           0
     23882 MEMB     179      POPC     O21      OSL     -0.490000       15.9994           0
     23883 MEMB     179      POPC     C21      CL       0.900000       12.0110           0
     23884 MEMB     179      POPC     O22      OBL     -0.630000       15.9994           0
     23885 MEMB     179      POPC     C22      CTL2    -0.220000       12.0110           0
     23886 MEMB     179      POPC     H2R      HAL2     0.900000E-01   1.00800           0
     23887 MEMB     179      POPC     H2S      HAL2     0.900000E-01   1.00800           0
     23888 MEMB     179      POPC     C3       CTL2     0.800000E-01   12.0110           0
     23889 MEMB     179      POPC     HX       HAL2     0.900000E-01   1.00800           0
     23890 MEMB     179      POPC     HY       HAL2     0.900000E-01   1.00800           0
     23891 MEMB     179      POPC     O31      OSL     -0.490000       15.9994           0
     23892 MEMB     179      POPC     C31      CL       0.900000       12.0110           0
     23893 MEMB     179      POPC     O32      OBL     -0.630000       15.9994           0
     23894 MEMB     179      POPC     C32      CTL2    -0.220000       12.0110           0
     23895 MEMB     179      POPC     H2X      HAL2     0.900000E-01   1.00800           0
     23896 MEMB     179      POPC     H2Y      HAL2     0.900000E-01   1.00800           0
     23897 MEMB     179      POPC     C23      CTL2    -0.180000       12.0110           0
     23898 MEMB     179      POPC     H3R      HAL2     0.900000E-01   1.00800           0
     23899 MEMB     179      POPC     H3S      HAL2     0.900000E-01   1.00800           0
     23900 MEMB     179      POPC     C24      CTL2    -0.180000       12.0110           0
     23901 MEMB     179      POPC     H4R      HAL2     0.900000E-01   1.00800           0
     23902 MEMB     179      POPC     H4S      HAL2     0.900000E-01   1.00800           0
     23903 MEMB     179      POPC     C25      CTL2    -0.180000       12.0110           0
     23904 MEMB     179      POPC     H5R      HAL2     0.900000E-01   1.00800           0
     23905 MEMB     179      POPC     H5S      HAL2     0.900000E-01   1.00800           0
     23906 MEMB     179      POPC     C26      CTL2    -0.180000       12.0110           0
     23907 MEMB     179      POPC     H6R      HAL2     0.900000E-01   1.00800           0
     23908 MEMB     179      POPC     H6S      HAL2     0.900000E-01   1.00800           0
     23909 MEMB     179      POPC     C27      CTL2    -0.180000       12.0110           0
     23910 MEMB     179      POPC     H7R      HAL2     0.900000E-01   1.00800           0
     23911 MEMB     179      POPC     H7S      HAL2     0.900000E-01   1.00800           0
     23912 MEMB     179      POPC     C28      CTL2    -0.180000       12.0110           0
     23913 MEMB     179      POPC     H8R      HAL2     0.900000E-01   1.00800           0
     23914 MEMB     179      POPC     H8S      HAL2     0.900000E-01   1.00800           0
     23915 MEMB     179      POPC     C29      CEL1    -0.150000       12.0110           0
     23916 MEMB     179      POPC     H91      HEL1     0.150000       1.00800           0
     23917 MEMB     179      POPC     C210     CEL1    -0.150000       12.0110           0
     23918 MEMB     179      POPC     H101     HEL1     0.150000       1.00800           0
     23919 MEMB     179      POPC     C211     CTL2    -0.180000       12.0110           0
     23920 MEMB     179      POPC     H11R     HAL2     0.900000E-01   1.00800           0
     23921 MEMB     179      POPC     H11S     HAL2     0.900000E-01   1.00800           0
     23922 MEMB     179      POPC     C212     CTL2    -0.180000       12.0110           0
     23923 MEMB     179      POPC     H12R     HAL2     0.900000E-01   1.00800           0
     23924 MEMB     179      POPC     H12S     HAL2     0.900000E-01   1.00800           0
     23925 MEMB     179      POPC     C213     CTL2    -0.180000       12.0110           0
     23926 MEMB     179      POPC     H13R     HAL2     0.900000E-01   1.00800           0
     23927 MEMB     179      POPC     H13S     HAL2     0.900000E-01   1.00800           0
     23928 MEMB     179      POPC     C214     CTL2    -0.180000       12.0110           0
     23929 MEMB     179      POPC     H14R     HAL2     0.900000E-01   1.00800           0
     23930 MEMB     179      POPC     H14S     HAL2     0.900000E-01   1.00800           0
     23931 MEMB     179      POPC     C215     CTL2    -0.180000       12.0110           0
     23932 MEMB     179      POPC     H15R     HAL2     0.900000E-01   1.00800           0
     23933 MEMB     179      POPC     H15S     HAL2     0.900000E-01   1.00800           0
     23934 MEMB     179      POPC     C216     CTL2    -0.180000       12.0110           0
     23935 MEMB     179      POPC     H16R     HAL2     0.900000E-01   1.00800           0
     23936 MEMB     179      POPC     H16S     HAL2     0.900000E-01   1.00800           0
     23937 MEMB     179      POPC     C217     CTL2    -0.180000       12.0110           0
     23938 MEMB     179      POPC     H17R     HAL2     0.900000E-01   1.00800           0
     23939 MEMB     179      POPC     H17S     HAL2     0.900000E-01   1.00800           0
     23940 MEMB     179      POPC     C218     CTL3    -0.270000       12.0110           0
     23941 MEMB     179      POPC     H18R     HAL3     0.900000E-01   1.00800           0
     23942 MEMB     179      POPC     H18S     HAL3     0.900000E-01   1.00800           0
     23943 MEMB     179      POPC     H18T     HAL3     0.900000E-01   1.00800           0
     23944 MEMB     179      POPC     C33      CTL2    -0.180000       12.0110           0
     23945 MEMB     179      POPC     H3X      HAL2     0.900000E-01   1.00800           0
     23946 MEMB     179      POPC     H3Y      HAL2     0.900000E-01   1.00800           0
     23947 MEMB     179      POPC     C34      CTL2    -0.180000       12.0110           0
     23948 MEMB     179      POPC     H4X      HAL2     0.900000E-01   1.00800           0
     23949 MEMB     179      POPC     H4Y      HAL2     0.900000E-01   1.00800           0
     23950 MEMB     179      POPC     C35      CTL2    -0.180000       12.0110           0
     23951 MEMB     179      POPC     H5X      HAL2     0.900000E-01   1.00800           0
     23952 MEMB     179      POPC     H5Y      HAL2     0.900000E-01   1.00800           0
     23953 MEMB     179      POPC     C36      CTL2    -0.180000       12.0110           0
     23954 MEMB     179      POPC     H6X      HAL2     0.900000E-01   1.00800           0
     23955 MEMB     179      POPC     H6Y      HAL2     0.900000E-01   1.00800           0
     23956 MEMB     179      POPC     C37      CTL2    -0.180000       12.0110           0
     23957 MEMB     179      POPC     H7X      HAL2     0.900000E-01   1.00800           0
     23958 MEMB     179      POPC     H7Y      HAL2     0.900000E-01   1.00800           0
     23959 MEMB     179      POPC     C38      CTL2    -0.180000       12.0110           0
     23960 MEMB     179      POPC     H8X      HAL2     0.900000E-01   1.00800           0
     23961 MEMB     179      POPC     H8Y      HAL2     0.900000E-01   1.00800           0
     23962 MEMB     179      POPC     C39      CTL2    -0.180000       12.0110           0
     23963 MEMB     179      POPC     H9X      HAL2     0.900000E-01   1.00800           0
     23964 MEMB     179      POPC     H9Y      HAL2     0.900000E-01   1.00800           0
     23965 MEMB     179      POPC     C310     CTL2    -0.180000       12.0110           0
     23966 MEMB     179      POPC     H10X     HAL2     0.900000E-01   1.00800           0
     23967 MEMB     179      POPC     H10Y     HAL2     0.900000E-01   1.00800           0
     23968 MEMB     179      POPC     C311     CTL2    -0.180000       12.0110           0
     23969 MEMB     179      POPC     H11X     HAL2     0.900000E-01   1.00800           0
     23970 MEMB     179      POPC     H11Y     HAL2     0.900000E-01   1.00800           0
     23971 MEMB     179      POPC     C312     CTL2    -0.180000       12.0110           0
     23972 MEMB     179      POPC     H12X     HAL2     0.900000E-01   1.00800           0
     23973 MEMB     179      POPC     H12Y     HAL2     0.900000E-01   1.00800           0
     23974 MEMB     179      POPC     C313     CTL2    -0.180000       12.0110           0
     23975 MEMB     179      POPC     H13X     HAL2     0.900000E-01   1.00800           0
     23976 MEMB     179      POPC     H13Y     HAL2     0.900000E-01   1.00800           0
     23977 MEMB     179      POPC     C314     CTL2    -0.180000       12.0110           0
     23978 MEMB     179      POPC     H14X     HAL2     0.900000E-01   1.00800           0
     23979 MEMB     179      POPC     H14Y     HAL2     0.900000E-01   1.00800           0
     23980 MEMB     179      POPC     C315     CTL2    -0.180000       12.0110           0
     23981 MEMB     179      POPC     H15X     HAL2     0.900000E-01   1.00800           0
     23982 MEMB     179      POPC     H15Y     HAL2     0.900000E-01   1.00800           0
     23983 MEMB     179      POPC     C316     CTL3    -0.270000       12.0110           0
     23984 MEMB     179      POPC     H16X     HAL3     0.900000E-01   1.00800           0
     23985 MEMB     179      POPC     H16Y     HAL3     0.900000E-01   1.00800           0
     23986 MEMB     179      POPC     H16Z     HAL3     0.900000E-01   1.00800           0
     23987 MEMB     180      POPC     N        NTL     -0.600000       14.0070           0
     23988 MEMB     180      POPC     C12      CTL2    -0.100000       12.0110           0
     23989 MEMB     180      POPC     H12A     HL       0.250000       1.00800           0
     23990 MEMB     180      POPC     H12B     HL       0.250000       1.00800           0
     23991 MEMB     180      POPC     C13      CTL5    -0.350000       12.0110           0
     23992 MEMB     180      POPC     H13A     HL       0.250000       1.00800           0
     23993 MEMB     180      POPC     H13B     HL       0.250000       1.00800           0
     23994 MEMB     180      POPC     H13C     HL       0.250000       1.00800           0
     23995 MEMB     180      POPC     C14      CTL5    -0.350000       12.0110           0
     23996 MEMB     180      POPC     H14A     HL       0.250000       1.00800           0
     23997 MEMB     180      POPC     H14B     HL       0.250000       1.00800           0
     23998 MEMB     180      POPC     H14C     HL       0.250000       1.00800           0
     23999 MEMB     180      POPC     C15      CTL5    -0.350000       12.0110           0
     24000 MEMB     180      POPC     H15A     HL       0.250000       1.00800           0
     24001 MEMB     180      POPC     H15B     HL       0.250000       1.00800           0
     24002 MEMB     180      POPC     H15C     HL       0.250000       1.00800           0
     24003 MEMB     180      POPC     C11      CTL2    -0.800000E-01   12.0110           0
     24004 MEMB     180      POPC     H11A     HAL2     0.900000E-01   1.00800           0
     24005 MEMB     180      POPC     H11B     HAL2     0.900000E-01   1.00800           0
     24006 MEMB     180      POPC     P        PL       1.50000        30.9740           0
     24007 MEMB     180      POPC     O13      O2L     -0.780000       15.9994           0
     24008 MEMB     180      POPC     O14      O2L     -0.780000       15.9994           0
     24009 MEMB     180      POPC     O12      OSLP    -0.570000       15.9994           0
     24010 MEMB     180      POPC     O11      OSLP    -0.570000       15.9994           0
     24011 MEMB     180      POPC     C1       CTL2    -0.800000E-01   12.0110           0
     24012 MEMB     180      POPC     HA       HAL2     0.900000E-01   1.00800           0
     24013 MEMB     180      POPC     HB       HAL2     0.900000E-01   1.00800           0
     24014 MEMB     180      POPC     C2       CTL1     0.170000       12.0110           0
     24015 MEMB     180      POPC     HS       HAL1     0.900000E-01   1.00800           0
     24016 MEMB     180      POPC     O21      OSL     -0.490000       15.9994           0
     24017 MEMB     180      POPC     C21      CL       0.900000       12.0110           0
     24018 MEMB     180      POPC     O22      OBL     -0.630000       15.9994           0
     24019 MEMB     180      POPC     C22      CTL2    -0.220000       12.0110           0
     24020 MEMB     180      POPC     H2R      HAL2     0.900000E-01   1.00800           0
     24021 MEMB     180      POPC     H2S      HAL2     0.900000E-01   1.00800           0
     24022 MEMB     180      POPC     C3       CTL2     0.800000E-01   12.0110           0
     24023 MEMB     180      POPC     HX       HAL2     0.900000E-01   1.00800           0
     24024 MEMB     180      POPC     HY       HAL2     0.900000E-01   1.00800           0
     24025 MEMB     180      POPC     O31      OSL     -0.490000       15.9994           0
     24026 MEMB     180      POPC     C31      CL       0.900000       12.0110           0
     24027 MEMB     180      POPC     O32      OBL     -0.630000       15.9994           0
     24028 MEMB     180      POPC     C32      CTL2    -0.220000       12.0110           0
     24029 MEMB     180      POPC     H2X      HAL2     0.900000E-01   1.00800           0
     24030 MEMB     180      POPC     H2Y      HAL2     0.900000E-01   1.00800           0
     24031 MEMB     180      POPC     C23      CTL2    -0.180000       12.0110           0
     24032 MEMB     180      POPC     H3R      HAL2     0.900000E-01   1.00800           0
     24033 MEMB     180      POPC     H3S      HAL2     0.900000E-01   1.00800           0
     24034 MEMB     180      POPC     C24      CTL2    -0.180000       12.0110           0
     24035 MEMB     180      POPC     H4R      HAL2     0.900000E-01   1.00800           0
     24036 MEMB     180      POPC     H4S      HAL2     0.900000E-01   1.00800           0
     24037 MEMB     180      POPC     C25      CTL2    -0.180000       12.0110           0
     24038 MEMB     180      POPC     H5R      HAL2     0.900000E-01   1.00800           0
     24039 MEMB     180      POPC     H5S      HAL2     0.900000E-01   1.00800           0
     24040 MEMB     180      POPC     C26      CTL2    -0.180000       12.0110           0
     24041 MEMB     180      POPC     H6R      HAL2     0.900000E-01   1.00800           0
     24042 MEMB     180      POPC     H6S      HAL2     0.900000E-01   1.00800           0
     24043 MEMB     180      POPC     C27      CTL2    -0.180000       12.0110           0
     24044 MEMB     180      POPC     H7R      HAL2     0.900000E-01   1.00800           0
     24045 MEMB     180      POPC     H7S      HAL2     0.900000E-01   1.00800           0
     24046 MEMB     180      POPC     C28      CTL2    -0.180000       12.0110           0
     24047 MEMB     180      POPC     H8R      HAL2     0.900000E-01   1.00800           0
     24048 MEMB     180      POPC     H8S      HAL2     0.900000E-01   1.00800           0
     24049 MEMB     180      POPC     C29      CEL1    -0.150000       12.0110           0
     24050 MEMB     180      POPC     H91      HEL1     0.150000       1.00800           0
     24051 MEMB     180      POPC     C210     CEL1    -0.150000       12.0110           0
     24052 MEMB     180      POPC     H101     HEL1     0.150000       1.00800           0
     24053 MEMB     180      POPC     C211     CTL2    -0.180000       12.0110           0
     24054 MEMB     180      POPC     H11R     HAL2     0.900000E-01   1.00800           0
     24055 MEMB     180      POPC     H11S     HAL2     0.900000E-01   1.00800           0
     24056 MEMB     180      POPC     C212     CTL2    -0.180000       12.0110           0
     24057 MEMB     180      POPC     H12R     HAL2     0.900000E-01   1.00800           0
     24058 MEMB     180      POPC     H12S     HAL2     0.900000E-01   1.00800           0
     24059 MEMB     180      POPC     C213     CTL2    -0.180000       12.0110           0
     24060 MEMB     180      POPC     H13R     HAL2     0.900000E-01   1.00800           0
     24061 MEMB     180      POPC     H13S     HAL2     0.900000E-01   1.00800           0
     24062 MEMB     180      POPC     C214     CTL2    -0.180000       12.0110           0
     24063 MEMB     180      POPC     H14R     HAL2     0.900000E-01   1.00800           0
     24064 MEMB     180      POPC     H14S     HAL2     0.900000E-01   1.00800           0
     24065 MEMB     180      POPC     C215     CTL2    -0.180000       12.0110           0
     24066 MEMB     180      POPC     H15R     HAL2     0.900000E-01   1.00800           0
     24067 MEMB     180      POPC     H15S     HAL2     0.900000E-01   1.00800           0
     24068 MEMB     180      POPC     C216     CTL2    -0.180000       12.0110           0
     24069 MEMB     180      POPC     H16R     HAL2     0.900000E-01   1.00800           0
     24070 MEMB     180      POPC     H16S     HAL2     0.900000E-01   1.00800           0
     24071 MEMB     180      POPC     C217     CTL2    -0.180000       12.0110           0
     24072 MEMB     180      POPC     H17R     HAL2     0.900000E-01   1.00800           0
     24073 MEMB     180      POPC     H17S     HAL2     0.900000E-01   1.00800           0
     24074 MEMB     180      POPC     C218     CTL3    -0.270000       12.0110           0
     24075 MEMB     180      POPC     H18R     HAL3     0.900000E-01   1.00800           0
     24076 MEMB     180      POPC     H18S     HAL3     0.900000E-01   1.00800           0
     24077 MEMB     180      POPC     H18T     HAL3     0.900000E-01   1.00800           0
     24078 MEMB     180      POPC     C33      CTL2    -0.180000       12.0110           0
     24079 MEMB     180      POPC     H3X      HAL2     0.900000E-01   1.00800           0
     24080 MEMB     180      POPC     H3Y      HAL2     0.900000E-01   1.00800           0
     24081 MEMB     180      POPC     C34      CTL2    -0.180000       12.0110           0
     24082 MEMB     180      POPC     H4X      HAL2     0.900000E-01   1.00800           0
     24083 MEMB     180      POPC     H4Y      HAL2     0.900000E-01   1.00800           0
     24084 MEMB     180      POPC     C35      CTL2    -0.180000       12.0110           0
     24085 MEMB     180      POPC     H5X      HAL2     0.900000E-01   1.00800           0
     24086 MEMB     180      POPC     H5Y      HAL2     0.900000E-01   1.00800           0
     24087 MEMB     180      POPC     C36      CTL2    -0.180000       12.0110           0
     24088 MEMB     180      POPC     H6X      HAL2     0.900000E-01   1.00800           0
     24089 MEMB     180      POPC     H6Y      HAL2     0.900000E-01   1.00800           0
     24090 MEMB     180      POPC     C37      CTL2    -0.180000       12.0110           0
     24091 MEMB     180      POPC     H7X      HAL2     0.900000E-01   1.00800           0
     24092 MEMB     180      POPC     H7Y      HAL2     0.900000E-01   1.00800           0
     24093 MEMB     180      POPC     C38      CTL2    -0.180000       12.0110           0
     24094 MEMB     180      POPC     H8X      HAL2     0.900000E-01   1.00800           0
     24095 MEMB     180      POPC     H8Y      HAL2     0.900000E-01   1.00800           0
     24096 MEMB     180      POPC     C39      CTL2    -0.180000       12.0110           0
     24097 MEMB     180      POPC     H9X      HAL2     0.900000E-01   1.00800           0
     24098 MEMB     180      POPC     H9Y      HAL2     0.900000E-01   1.00800           0
     24099 MEMB     180      POPC     C310     CTL2    -0.180000       12.0110           0
     24100 MEMB     180      POPC     H10X     HAL2     0.900000E-01   1.00800           0
     24101 MEMB     180      POPC     H10Y     HAL2     0.900000E-01   1.00800           0
     24102 MEMB     180      POPC     C311     CTL2    -0.180000       12.0110           0
     24103 MEMB     180      POPC     H11X     HAL2     0.900000E-01   1.00800           0
     24104 MEMB     180      POPC     H11Y     HAL2     0.900000E-01   1.00800           0
     24105 MEMB     180      POPC     C312     CTL2    -0.180000       12.0110           0
     24106 MEMB     180      POPC     H12X     HAL2     0.900000E-01   1.00800           0
     24107 MEMB     180      POPC     H12Y     HAL2     0.900000E-01   1.00800           0
     24108 MEMB     180      POPC     C313     CTL2    -0.180000       12.0110           0
     24109 MEMB     180      POPC     H13X     HAL2     0.900000E-01   1.00800           0
     24110 MEMB     180      POPC     H13Y     HAL2     0.900000E-01   1.00800           0
     24111 MEMB     180      POPC     C314     CTL2    -0.180000       12.0110           0
     24112 MEMB     180      POPC     H14X     HAL2     0.900000E-01   1.00800           0
     24113 MEMB     180      POPC     H14Y     HAL2     0.900000E-01   1.00800           0
     24114 MEMB     180      POPC     C315     CTL2    -0.180000       12.0110           0
     24115 MEMB     180      POPC     H15X     HAL2     0.900000E-01   1.00800           0
     24116 MEMB     180      POPC     H15Y     HAL2     0.900000E-01   1.00800           0
     24117 MEMB     180      POPC     C316     CTL3    -0.270000       12.0110           0
     24118 MEMB     180      POPC     H16X     HAL3     0.900000E-01   1.00800           0
     24119 MEMB     180      POPC     H16Y     HAL3     0.900000E-01   1.00800           0
     24120 MEMB     180      POPC     H16Z     HAL3     0.900000E-01   1.00800           0
     24121 MEMB     181      POPC     N        NTL     -0.600000       14.0070           0
     24122 MEMB     181      POPC     C12      CTL2    -0.100000       12.0110           0
     24123 MEMB     181      POPC     H12A     HL       0.250000       1.00800           0
     24124 MEMB     181      POPC     H12B     HL       0.250000       1.00800           0
     24125 MEMB     181      POPC     C13      CTL5    -0.350000       12.0110           0
     24126 MEMB     181      POPC     H13A     HL       0.250000       1.00800           0
     24127 MEMB     181      POPC     H13B     HL       0.250000       1.00800           0
     24128 MEMB     181      POPC     H13C     HL       0.250000       1.00800           0
     24129 MEMB     181      POPC     C14      CTL5    -0.350000       12.0110           0
     24130 MEMB     181      POPC     H14A     HL       0.250000       1.00800           0
     24131 MEMB     181      POPC     H14B     HL       0.250000       1.00800           0
     24132 MEMB     181      POPC     H14C     HL       0.250000       1.00800           0
     24133 MEMB     181      POPC     C15      CTL5    -0.350000       12.0110           0
     24134 MEMB     181      POPC     H15A     HL       0.250000       1.00800           0
     24135 MEMB     181      POPC     H15B     HL       0.250000       1.00800           0
     24136 MEMB     181      POPC     H15C     HL       0.250000       1.00800           0
     24137 MEMB     181      POPC     C11      CTL2    -0.800000E-01   12.0110           0
     24138 MEMB     181      POPC     H11A     HAL2     0.900000E-01   1.00800           0
     24139 MEMB     181      POPC     H11B     HAL2     0.900000E-01   1.00800           0
     24140 MEMB     181      POPC     P        PL       1.50000        30.9740           0
     24141 MEMB     181      POPC     O13      O2L     -0.780000       15.9994           0
     24142 MEMB     181      POPC     O14      O2L     -0.780000       15.9994           0
     24143 MEMB     181      POPC     O12      OSLP    -0.570000       15.9994           0
     24144 MEMB     181      POPC     O11      OSLP    -0.570000       15.9994           0
     24145 MEMB     181      POPC     C1       CTL2    -0.800000E-01   12.0110           0
     24146 MEMB     181      POPC     HA       HAL2     0.900000E-01   1.00800           0
     24147 MEMB     181      POPC     HB       HAL2     0.900000E-01   1.00800           0
     24148 MEMB     181      POPC     C2       CTL1     0.170000       12.0110           0
     24149 MEMB     181      POPC     HS       HAL1     0.900000E-01   1.00800           0
     24150 MEMB     181      POPC     O21      OSL     -0.490000       15.9994           0
     24151 MEMB     181      POPC     C21      CL       0.900000       12.0110           0
     24152 MEMB     181      POPC     O22      OBL     -0.630000       15.9994           0
     24153 MEMB     181      POPC     C22      CTL2    -0.220000       12.0110           0
     24154 MEMB     181      POPC     H2R      HAL2     0.900000E-01   1.00800           0
     24155 MEMB     181      POPC     H2S      HAL2     0.900000E-01   1.00800           0
     24156 MEMB     181      POPC     C3       CTL2     0.800000E-01   12.0110           0
     24157 MEMB     181      POPC     HX       HAL2     0.900000E-01   1.00800           0
     24158 MEMB     181      POPC     HY       HAL2     0.900000E-01   1.00800           0
     24159 MEMB     181      POPC     O31      OSL     -0.490000       15.9994           0
     24160 MEMB     181      POPC     C31      CL       0.900000       12.0110           0
     24161 MEMB     181      POPC     O32      OBL     -0.630000       15.9994           0
     24162 MEMB     181      POPC     C32      CTL2    -0.220000       12.0110           0
     24163 MEMB     181      POPC     H2X      HAL2     0.900000E-01   1.00800           0
     24164 MEMB     181      POPC     H2Y      HAL2     0.900000E-01   1.00800           0
     24165 MEMB     181      POPC     C23      CTL2    -0.180000       12.0110           0
     24166 MEMB     181      POPC     H3R      HAL2     0.900000E-01   1.00800           0
     24167 MEMB     181      POPC     H3S      HAL2     0.900000E-01   1.00800           0
     24168 MEMB     181      POPC     C24      CTL2    -0.180000       12.0110           0
     24169 MEMB     181      POPC     H4R      HAL2     0.900000E-01   1.00800           0
     24170 MEMB     181      POPC     H4S      HAL2     0.900000E-01   1.00800           0
     24171 MEMB     181      POPC     C25      CTL2    -0.180000       12.0110           0
     24172 MEMB     181      POPC     H5R      HAL2     0.900000E-01   1.00800           0
     24173 MEMB     181      POPC     H5S      HAL2     0.900000E-01   1.00800           0
     24174 MEMB     181      POPC     C26      CTL2    -0.180000       12.0110           0
     24175 MEMB     181      POPC     H6R      HAL2     0.900000E-01   1.00800           0
     24176 MEMB     181      POPC     H6S      HAL2     0.900000E-01   1.00800           0
     24177 MEMB     181      POPC     C27      CTL2    -0.180000       12.0110           0
     24178 MEMB     181      POPC     H7R      HAL2     0.900000E-01   1.00800           0
     24179 MEMB     181      POPC     H7S      HAL2     0.900000E-01   1.00800           0
     24180 MEMB     181      POPC     C28      CTL2    -0.180000       12.0110           0
     24181 MEMB     181      POPC     H8R      HAL2     0.900000E-01   1.00800           0
     24182 MEMB     181      POPC     H8S      HAL2     0.900000E-01   1.00800           0
     24183 MEMB     181      POPC     C29      CEL1    -0.150000       12.0110           0
     24184 MEMB     181      POPC     H91      HEL1     0.150000       1.00800           0
     24185 MEMB     181      POPC     C210     CEL1    -0.150000       12.0110           0
     24186 MEMB     181      POPC     H101     HEL1     0.150000       1.00800           0
     24187 MEMB     181      POPC     C211     CTL2    -0.180000       12.0110           0
     24188 MEMB     181      POPC     H11R     HAL2     0.900000E-01   1.00800           0
     24189 MEMB     181      POPC     H11S     HAL2     0.900000E-01   1.00800           0
     24190 MEMB     181      POPC     C212     CTL2    -0.180000       12.0110           0
     24191 MEMB     181      POPC     H12R     HAL2     0.900000E-01   1.00800           0
     24192 MEMB     181      POPC     H12S     HAL2     0.900000E-01   1.00800           0
     24193 MEMB     181      POPC     C213     CTL2    -0.180000       12.0110           0
     24194 MEMB     181      POPC     H13R     HAL2     0.900000E-01   1.00800           0
     24195 MEMB     181      POPC     H13S     HAL2     0.900000E-01   1.00800           0
     24196 MEMB     181      POPC     C214     CTL2    -0.180000       12.0110           0
     24197 MEMB     181      POPC     H14R     HAL2     0.900000E-01   1.00800           0
     24198 MEMB     181      POPC     H14S     HAL2     0.900000E-01   1.00800           0
     24199 MEMB     181      POPC     C215     CTL2    -0.180000       12.0110           0
     24200 MEMB     181      POPC     H15R     HAL2     0.900000E-01   1.00800           0
     24201 MEMB     181      POPC     H15S     HAL2     0.900000E-01   1.00800           0
     24202 MEMB     181      POPC     C216     CTL2    -0.180000       12.0110           0
     24203 MEMB     181      POPC     H16R     HAL2     0.900000E-01   1.00800           0
     24204 MEMB     181      POPC     H16S     HAL2     0.900000E-01   1.00800           0
     24205 MEMB     181      POPC     C217     CTL2    -0.180000       12.0110           0
     24206 MEMB     181      POPC     H17R     HAL2     0.900000E-01   1.00800           0
     24207 MEMB     181      POPC     H17S     HAL2     0.900000E-01   1.00800           0
     24208 MEMB     181      POPC     C218     CTL3    -0.270000       12.0110           0
     24209 MEMB     181      POPC     H18R     HAL3     0.900000E-01   1.00800           0
     24210 MEMB     181      POPC     H18S     HAL3     0.900000E-01   1.00800           0
     24211 MEMB     181      POPC     H18T     HAL3     0.900000E-01   1.00800           0
     24212 MEMB     181      POPC     C33      CTL2    -0.180000       12.0110           0
     24213 MEMB     181      POPC     H3X      HAL2     0.900000E-01   1.00800           0
     24214 MEMB     181      POPC     H3Y      HAL2     0.900000E-01   1.00800           0
     24215 MEMB     181      POPC     C34      CTL2    -0.180000       12.0110           0
     24216 MEMB     181      POPC     H4X      HAL2     0.900000E-01   1.00800           0
     24217 MEMB     181      POPC     H4Y      HAL2     0.900000E-01   1.00800           0
     24218 MEMB     181      POPC     C35      CTL2    -0.180000       12.0110           0
     24219 MEMB     181      POPC     H5X      HAL2     0.900000E-01   1.00800           0
     24220 MEMB     181      POPC     H5Y      HAL2     0.900000E-01   1.00800           0
     24221 MEMB     181      POPC     C36      CTL2    -0.180000       12.0110           0
     24222 MEMB     181      POPC     H6X      HAL2     0.900000E-01   1.00800           0
     24223 MEMB     181      POPC     H6Y      HAL2     0.900000E-01   1.00800           0
     24224 MEMB     181      POPC     C37      CTL2    -0.180000       12.0110           0
     24225 MEMB     181      POPC     H7X      HAL2     0.900000E-01   1.00800           0
     24226 MEMB     181      POPC     H7Y      HAL2     0.900000E-01   1.00800           0
     24227 MEMB     181      POPC     C38      CTL2    -0.180000       12.0110           0
     24228 MEMB     181      POPC     H8X      HAL2     0.900000E-01   1.00800           0
     24229 MEMB     181      POPC     H8Y      HAL2     0.900000E-01   1.00800           0
     24230 MEMB     181      POPC     C39      CTL2    -0.180000       12.0110           0
     24231 MEMB     181      POPC     H9X      HAL2     0.900000E-01   1.00800           0
     24232 MEMB     181      POPC     H9Y      HAL2     0.900000E-01   1.00800           0
     24233 MEMB     181      POPC     C310     CTL2    -0.180000       12.0110           0
     24234 MEMB     181      POPC     H10X     HAL2     0.900000E-01   1.00800           0
     24235 MEMB     181      POPC     H10Y     HAL2     0.900000E-01   1.00800           0
     24236 MEMB     181      POPC     C311     CTL2    -0.180000       12.0110           0
     24237 MEMB     181      POPC     H11X     HAL2     0.900000E-01   1.00800           0
     24238 MEMB     181      POPC     H11Y     HAL2     0.900000E-01   1.00800           0
     24239 MEMB     181      POPC     C312     CTL2    -0.180000       12.0110           0
     24240 MEMB     181      POPC     H12X     HAL2     0.900000E-01   1.00800           0
     24241 MEMB     181      POPC     H12Y     HAL2     0.900000E-01   1.00800           0
     24242 MEMB     181      POPC     C313     CTL2    -0.180000       12.0110           0
     24243 MEMB     181      POPC     H13X     HAL2     0.900000E-01   1.00800           0
     24244 MEMB     181      POPC     H13Y     HAL2     0.900000E-01   1.00800           0
     24245 MEMB     181      POPC     C314     CTL2    -0.180000       12.0110           0
     24246 MEMB     181      POPC     H14X     HAL2     0.900000E-01   1.00800           0
     24247 MEMB     181      POPC     H14Y     HAL2     0.900000E-01   1.00800           0
     24248 MEMB     181      POPC     C315     CTL2    -0.180000       12.0110           0
     24249 MEMB     181      POPC     H15X     HAL2     0.900000E-01   1.00800           0
     24250 MEMB     181      POPC     H15Y     HAL2     0.900000E-01   1.00800           0
     24251 MEMB     181      POPC     C316     CTL3    -0.270000       12.0110           0
     24252 MEMB     181      POPC     H16X     HAL3     0.900000E-01   1.00800           0
     24253 MEMB     181      POPC     H16Y     HAL3     0.900000E-01   1.00800           0
     24254 MEMB     181      POPC     H16Z     HAL3     0.900000E-01   1.00800           0
     24255 MEMB     182      POPC     N        NTL     -0.600000       14.0070           0
     24256 MEMB     182      POPC     C12      CTL2    -0.100000       12.0110           0
     24257 MEMB     182      POPC     H12A     HL       0.250000       1.00800           0
     24258 MEMB     182      POPC     H12B     HL       0.250000       1.00800           0
     24259 MEMB     182      POPC     C13      CTL5    -0.350000       12.0110           0
     24260 MEMB     182      POPC     H13A     HL       0.250000       1.00800           0
     24261 MEMB     182      POPC     H13B     HL       0.250000       1.00800           0
     24262 MEMB     182      POPC     H13C     HL       0.250000       1.00800           0
     24263 MEMB     182      POPC     C14      CTL5    -0.350000       12.0110           0
     24264 MEMB     182      POPC     H14A     HL       0.250000       1.00800           0
     24265 MEMB     182      POPC     H14B     HL       0.250000       1.00800           0
     24266 MEMB     182      POPC     H14C     HL       0.250000       1.00800           0
     24267 MEMB     182      POPC     C15      CTL5    -0.350000       12.0110           0
     24268 MEMB     182      POPC     H15A     HL       0.250000       1.00800           0
     24269 MEMB     182      POPC     H15B     HL       0.250000       1.00800           0
     24270 MEMB     182      POPC     H15C     HL       0.250000       1.00800           0
     24271 MEMB     182      POPC     C11      CTL2    -0.800000E-01   12.0110           0
     24272 MEMB     182      POPC     H11A     HAL2     0.900000E-01   1.00800           0
     24273 MEMB     182      POPC     H11B     HAL2     0.900000E-01   1.00800           0
     24274 MEMB     182      POPC     P        PL       1.50000        30.9740           0
     24275 MEMB     182      POPC     O13      O2L     -0.780000       15.9994           0
     24276 MEMB     182      POPC     O14      O2L     -0.780000       15.9994           0
     24277 MEMB     182      POPC     O12      OSLP    -0.570000       15.9994           0
     24278 MEMB     182      POPC     O11      OSLP    -0.570000       15.9994           0
     24279 MEMB     182      POPC     C1       CTL2    -0.800000E-01   12.0110           0
     24280 MEMB     182      POPC     HA       HAL2     0.900000E-01   1.00800           0
     24281 MEMB     182      POPC     HB       HAL2     0.900000E-01   1.00800           0
     24282 MEMB     182      POPC     C2       CTL1     0.170000       12.0110           0
     24283 MEMB     182      POPC     HS       HAL1     0.900000E-01   1.00800           0
     24284 MEMB     182      POPC     O21      OSL     -0.490000       15.9994           0
     24285 MEMB     182      POPC     C21      CL       0.900000       12.0110           0
     24286 MEMB     182      POPC     O22      OBL     -0.630000       15.9994           0
     24287 MEMB     182      POPC     C22      CTL2    -0.220000       12.0110           0
     24288 MEMB     182      POPC     H2R      HAL2     0.900000E-01   1.00800           0
     24289 MEMB     182      POPC     H2S      HAL2     0.900000E-01   1.00800           0
     24290 MEMB     182      POPC     C3       CTL2     0.800000E-01   12.0110           0
     24291 MEMB     182      POPC     HX       HAL2     0.900000E-01   1.00800           0
     24292 MEMB     182      POPC     HY       HAL2     0.900000E-01   1.00800           0
     24293 MEMB     182      POPC     O31      OSL     -0.490000       15.9994           0
     24294 MEMB     182      POPC     C31      CL       0.900000       12.0110           0
     24295 MEMB     182      POPC     O32      OBL     -0.630000       15.9994           0
     24296 MEMB     182      POPC     C32      CTL2    -0.220000       12.0110           0
     24297 MEMB     182      POPC     H2X      HAL2     0.900000E-01   1.00800           0
     24298 MEMB     182      POPC     H2Y      HAL2     0.900000E-01   1.00800           0
     24299 MEMB     182      POPC     C23      CTL2    -0.180000       12.0110           0
     24300 MEMB     182      POPC     H3R      HAL2     0.900000E-01   1.00800           0
     24301 MEMB     182      POPC     H3S      HAL2     0.900000E-01   1.00800           0
     24302 MEMB     182      POPC     C24      CTL2    -0.180000       12.0110           0
     24303 MEMB     182      POPC     H4R      HAL2     0.900000E-01   1.00800           0
     24304 MEMB     182      POPC     H4S      HAL2     0.900000E-01   1.00800           0
     24305 MEMB     182      POPC     C25      CTL2    -0.180000       12.0110           0
     24306 MEMB     182      POPC     H5R      HAL2     0.900000E-01   1.00800           0
     24307 MEMB     182      POPC     H5S      HAL2     0.900000E-01   1.00800           0
     24308 MEMB     182      POPC     C26      CTL2    -0.180000       12.0110           0
     24309 MEMB     182      POPC     H6R      HAL2     0.900000E-01   1.00800           0
     24310 MEMB     182      POPC     H6S      HAL2     0.900000E-01   1.00800           0
     24311 MEMB     182      POPC     C27      CTL2    -0.180000       12.0110           0
     24312 MEMB     182      POPC     H7R      HAL2     0.900000E-01   1.00800           0
     24313 MEMB     182      POPC     H7S      HAL2     0.900000E-01   1.00800           0
     24314 MEMB     182      POPC     C28      CTL2    -0.180000       12.0110           0
     24315 MEMB     182      POPC     H8R      HAL2     0.900000E-01   1.00800           0
     24316 MEMB     182      POPC     H8S      HAL2     0.900000E-01   1.00800           0
     24317 MEMB     182      POPC     C29      CEL1    -0.150000       12.0110           0
     24318 MEMB     182      POPC     H91      HEL1     0.150000       1.00800           0
     24319 MEMB     182      POPC     C210     CEL1    -0.150000       12.0110           0
     24320 MEMB     182      POPC     H101     HEL1     0.150000       1.00800           0
     24321 MEMB     182      POPC     C211     CTL2    -0.180000       12.0110           0
     24322 MEMB     182      POPC     H11R     HAL2     0.900000E-01   1.00800           0
     24323 MEMB     182      POPC     H11S     HAL2     0.900000E-01   1.00800           0
     24324 MEMB     182      POPC     C212     CTL2    -0.180000       12.0110           0
     24325 MEMB     182      POPC     H12R     HAL2     0.900000E-01   1.00800           0
     24326 MEMB     182      POPC     H12S     HAL2     0.900000E-01   1.00800           0
     24327 MEMB     182      POPC     C213     CTL2    -0.180000       12.0110           0
     24328 MEMB     182      POPC     H13R     HAL2     0.900000E-01   1.00800           0
     24329 MEMB     182      POPC     H13S     HAL2     0.900000E-01   1.00800           0
     24330 MEMB     182      POPC     C214     CTL2    -0.180000       12.0110           0
     24331 MEMB     182      POPC     H14R     HAL2     0.900000E-01   1.00800           0
     24332 MEMB     182      POPC     H14S     HAL2     0.900000E-01   1.00800           0
     24333 MEMB     182      POPC     C215     CTL2    -0.180000       12.0110           0
     24334 MEMB     182      POPC     H15R     HAL2     0.900000E-01   1.00800           0
     24335 MEMB     182      POPC     H15S     HAL2     0.900000E-01   1.00800           0
     24336 MEMB     182      POPC     C216     CTL2    -0.180000       12.0110           0
     24337 MEMB     182      POPC     H16R     HAL2     0.900000E-01   1.00800           0
     24338 MEMB     182      POPC     H16S     HAL2     0.900000E-01   1.00800           0
     24339 MEMB     182      POPC     C217     CTL2    -0.180000       12.0110           0
     24340 MEMB     182      POPC     H17R     HAL2     0.900000E-01   1.00800           0
     24341 MEMB     182      POPC     H17S     HAL2     0.900000E-01   1.00800           0
     24342 MEMB     182      POPC     C218     CTL3    -0.270000       12.0110           0
     24343 MEMB     182      POPC     H18R     HAL3     0.900000E-01   1.00800           0
     24344 MEMB     182      POPC     H18S     HAL3     0.900000E-01   1.00800           0
     24345 MEMB     182      POPC     H18T     HAL3     0.900000E-01   1.00800           0
     24346 MEMB     182      POPC     C33      CTL2    -0.180000       12.0110           0
     24347 MEMB     182      POPC     H3X      HAL2     0.900000E-01   1.00800           0
     24348 MEMB     182      POPC     H3Y      HAL2     0.900000E-01   1.00800           0
     24349 MEMB     182      POPC     C34      CTL2    -0.180000       12.0110           0
     24350 MEMB     182      POPC     H4X      HAL2     0.900000E-01   1.00800           0
     24351 MEMB     182      POPC     H4Y      HAL2     0.900000E-01   1.00800           0
     24352 MEMB     182      POPC     C35      CTL2    -0.180000       12.0110           0
     24353 MEMB     182      POPC     H5X      HAL2     0.900000E-01   1.00800           0
     24354 MEMB     182      POPC     H5Y      HAL2     0.900000E-01   1.00800           0
     24355 MEMB     182      POPC     C36      CTL2    -0.180000       12.0110           0
     24356 MEMB     182      POPC     H6X      HAL2     0.900000E-01   1.00800           0
     24357 MEMB     182      POPC     H6Y      HAL2     0.900000E-01   1.00800           0
     24358 MEMB     182      POPC     C37      CTL2    -0.180000       12.0110           0
     24359 MEMB     182      POPC     H7X      HAL2     0.900000E-01   1.00800           0
     24360 MEMB     182      POPC     H7Y      HAL2     0.900000E-01   1.00800           0
     24361 MEMB     182      POPC     C38      CTL2    -0.180000       12.0110           0
     24362 MEMB     182      POPC     H8X      HAL2     0.900000E-01   1.00800           0
     24363 MEMB     182      POPC     H8Y      HAL2     0.900000E-01   1.00800           0
     24364 MEMB     182      POPC     C39      CTL2    -0.180000       12.0110           0
     24365 MEMB     182      POPC     H9X      HAL2     0.900000E-01   1.00800           0
     24366 MEMB     182      POPC     H9Y      HAL2     0.900000E-01   1.00800           0
     24367 MEMB     182      POPC     C310     CTL2    -0.180000       12.0110           0
     24368 MEMB     182      POPC     H10X     HAL2     0.900000E-01   1.00800           0
     24369 MEMB     182      POPC     H10Y     HAL2     0.900000E-01   1.00800           0
     24370 MEMB     182      POPC     C311     CTL2    -0.180000       12.0110           0
     24371 MEMB     182      POPC     H11X     HAL2     0.900000E-01   1.00800           0
     24372 MEMB     182      POPC     H11Y     HAL2     0.900000E-01   1.00800           0
     24373 MEMB     182      POPC     C312     CTL2    -0.180000       12.0110           0
     24374 MEMB     182      POPC     H12X     HAL2     0.900000E-01   1.00800           0
     24375 MEMB     182      POPC     H12Y     HAL2     0.900000E-01   1.00800           0
     24376 MEMB     182      POPC     C313     CTL2    -0.180000       12.0110           0
     24377 MEMB     182      POPC     H13X     HAL2     0.900000E-01   1.00800           0
     24378 MEMB     182      POPC     H13Y     HAL2     0.900000E-01   1.00800           0
     24379 MEMB     182      POPC     C314     CTL2    -0.180000       12.0110           0
     24380 MEMB     182      POPC     H14X     HAL2     0.900000E-01   1.00800           0
     24381 MEMB     182      POPC     H14Y     HAL2     0.900000E-01   1.00800           0
     24382 MEMB     182      POPC     C315     CTL2    -0.180000       12.0110           0
     24383 MEMB     182      POPC     H15X     HAL2     0.900000E-01   1.00800           0
     24384 MEMB     182      POPC     H15Y     HAL2     0.900000E-01   1.00800           0
     24385 MEMB     182      POPC     C316     CTL3    -0.270000       12.0110           0
     24386 MEMB     182      POPC     H16X     HAL3     0.900000E-01   1.00800           0
     24387 MEMB     182      POPC     H16Y     HAL3     0.900000E-01   1.00800           0
     24388 MEMB     182      POPC     H16Z     HAL3     0.900000E-01   1.00800           0
     24389 MEMB     183      POPC     N        NTL     -0.600000       14.0070           0
     24390 MEMB     183      POPC     C12      CTL2    -0.100000       12.0110           0
     24391 MEMB     183      POPC     H12A     HL       0.250000       1.00800           0
     24392 MEMB     183      POPC     H12B     HL       0.250000       1.00800           0
     24393 MEMB     183      POPC     C13      CTL5    -0.350000       12.0110           0
     24394 MEMB     183      POPC     H13A     HL       0.250000       1.00800           0
     24395 MEMB     183      POPC     H13B     HL       0.250000       1.00800           0
     24396 MEMB     183      POPC     H13C     HL       0.250000       1.00800           0
     24397 MEMB     183      POPC     C14      CTL5    -0.350000       12.0110           0
     24398 MEMB     183      POPC     H14A     HL       0.250000       1.00800           0
     24399 MEMB     183      POPC     H14B     HL       0.250000       1.00800           0
     24400 MEMB     183      POPC     H14C     HL       0.250000       1.00800           0
     24401 MEMB     183      POPC     C15      CTL5    -0.350000       12.0110           0
     24402 MEMB     183      POPC     H15A     HL       0.250000       1.00800           0
     24403 MEMB     183      POPC     H15B     HL       0.250000       1.00800           0
     24404 MEMB     183      POPC     H15C     HL       0.250000       1.00800           0
     24405 MEMB     183      POPC     C11      CTL2    -0.800000E-01   12.0110           0
     24406 MEMB     183      POPC     H11A     HAL2     0.900000E-01   1.00800           0
     24407 MEMB     183      POPC     H11B     HAL2     0.900000E-01   1.00800           0
     24408 MEMB     183      POPC     P        PL       1.50000        30.9740           0
     24409 MEMB     183      POPC     O13      O2L     -0.780000       15.9994           0
     24410 MEMB     183      POPC     O14      O2L     -0.780000       15.9994           0
     24411 MEMB     183      POPC     O12      OSLP    -0.570000       15.9994           0
     24412 MEMB     183      POPC     O11      OSLP    -0.570000       15.9994           0
     24413 MEMB     183      POPC     C1       CTL2    -0.800000E-01   12.0110           0
     24414 MEMB     183      POPC     HA       HAL2     0.900000E-01   1.00800           0
     24415 MEMB     183      POPC     HB       HAL2     0.900000E-01   1.00800           0
     24416 MEMB     183      POPC     C2       CTL1     0.170000       12.0110           0
     24417 MEMB     183      POPC     HS       HAL1     0.900000E-01   1.00800           0
     24418 MEMB     183      POPC     O21      OSL     -0.490000       15.9994           0
     24419 MEMB     183      POPC     C21      CL       0.900000       12.0110           0
     24420 MEMB     183      POPC     O22      OBL     -0.630000       15.9994           0
     24421 MEMB     183      POPC     C22      CTL2    -0.220000       12.0110           0
     24422 MEMB     183      POPC     H2R      HAL2     0.900000E-01   1.00800           0
     24423 MEMB     183      POPC     H2S      HAL2     0.900000E-01   1.00800           0
     24424 MEMB     183      POPC     C3       CTL2     0.800000E-01   12.0110           0
     24425 MEMB     183      POPC     HX       HAL2     0.900000E-01   1.00800           0
     24426 MEMB     183      POPC     HY       HAL2     0.900000E-01   1.00800           0
     24427 MEMB     183      POPC     O31      OSL     -0.490000       15.9994           0
     24428 MEMB     183      POPC     C31      CL       0.900000       12.0110           0
     24429 MEMB     183      POPC     O32      OBL     -0.630000       15.9994           0
     24430 MEMB     183      POPC     C32      CTL2    -0.220000       12.0110           0
     24431 MEMB     183      POPC     H2X      HAL2     0.900000E-01   1.00800           0
     24432 MEMB     183      POPC     H2Y      HAL2     0.900000E-01   1.00800           0
     24433 MEMB     183      POPC     C23      CTL2    -0.180000       12.0110           0
     24434 MEMB     183      POPC     H3R      HAL2     0.900000E-01   1.00800           0
     24435 MEMB     183      POPC     H3S      HAL2     0.900000E-01   1.00800           0
     24436 MEMB     183      POPC     C24      CTL2    -0.180000       12.0110           0
     24437 MEMB     183      POPC     H4R      HAL2     0.900000E-01   1.00800           0
     24438 MEMB     183      POPC     H4S      HAL2     0.900000E-01   1.00800           0
     24439 MEMB     183      POPC     C25      CTL2    -0.180000       12.0110           0
     24440 MEMB     183      POPC     H5R      HAL2     0.900000E-01   1.00800           0
     24441 MEMB     183      POPC     H5S      HAL2     0.900000E-01   1.00800           0
     24442 MEMB     183      POPC     C26      CTL2    -0.180000       12.0110           0
     24443 MEMB     183      POPC     H6R      HAL2     0.900000E-01   1.00800           0
     24444 MEMB     183      POPC     H6S      HAL2     0.900000E-01   1.00800           0
     24445 MEMB     183      POPC     C27      CTL2    -0.180000       12.0110           0
     24446 MEMB     183      POPC     H7R      HAL2     0.900000E-01   1.00800           0
     24447 MEMB     183      POPC     H7S      HAL2     0.900000E-01   1.00800           0
     24448 MEMB     183      POPC     C28      CTL2    -0.180000       12.0110           0
     24449 MEMB     183      POPC     H8R      HAL2     0.900000E-01   1.00800           0
     24450 MEMB     183      POPC     H8S      HAL2     0.900000E-01   1.00800           0
     24451 MEMB     183      POPC     C29      CEL1    -0.150000       12.0110           0
     24452 MEMB     183      POPC     H91      HEL1     0.150000       1.00800           0
     24453 MEMB     183      POPC     C210     CEL1    -0.150000       12.0110           0
     24454 MEMB     183      POPC     H101     HEL1     0.150000       1.00800           0
     24455 MEMB     183      POPC     C211     CTL2    -0.180000       12.0110           0
     24456 MEMB     183      POPC     H11R     HAL2     0.900000E-01   1.00800           0
     24457 MEMB     183      POPC     H11S     HAL2     0.900000E-01   1.00800           0
     24458 MEMB     183      POPC     C212     CTL2    -0.180000       12.0110           0
     24459 MEMB     183      POPC     H12R     HAL2     0.900000E-01   1.00800           0
     24460 MEMB     183      POPC     H12S     HAL2     0.900000E-01   1.00800           0
     24461 MEMB     183      POPC     C213     CTL2    -0.180000       12.0110           0
     24462 MEMB     183      POPC     H13R     HAL2     0.900000E-01   1.00800           0
     24463 MEMB     183      POPC     H13S     HAL2     0.900000E-01   1.00800           0
     24464 MEMB     183      POPC     C214     CTL2    -0.180000       12.0110           0
     24465 MEMB     183      POPC     H14R     HAL2     0.900000E-01   1.00800           0
     24466 MEMB     183      POPC     H14S     HAL2     0.900000E-01   1.00800           0
     24467 MEMB     183      POPC     C215     CTL2    -0.180000       12.0110           0
     24468 MEMB     183      POPC     H15R     HAL2     0.900000E-01   1.00800           0
     24469 MEMB     183      POPC     H15S     HAL2     0.900000E-01   1.00800           0
     24470 MEMB     183      POPC     C216     CTL2    -0.180000       12.0110           0
     24471 MEMB     183      POPC     H16R     HAL2     0.900000E-01   1.00800           0
     24472 MEMB     183      POPC     H16S     HAL2     0.900000E-01   1.00800           0
     24473 MEMB     183      POPC     C217     CTL2    -0.180000       12.0110           0
     24474 MEMB     183      POPC     H17R     HAL2     0.900000E-01   1.00800           0
     24475 MEMB     183      POPC     H17S     HAL2     0.900000E-01   1.00800           0
     24476 MEMB     183      POPC     C218     CTL3    -0.270000       12.0110           0
     24477 MEMB     183      POPC     H18R     HAL3     0.900000E-01   1.00800           0
     24478 MEMB     183      POPC     H18S     HAL3     0.900000E-01   1.00800           0
     24479 MEMB     183      POPC     H18T     HAL3     0.900000E-01   1.00800           0
     24480 MEMB     183      POPC     C33      CTL2    -0.180000       12.0110           0
     24481 MEMB     183      POPC     H3X      HAL2     0.900000E-01   1.00800           0
     24482 MEMB     183      POPC     H3Y      HAL2     0.900000E-01   1.00800           0
     24483 MEMB     183      POPC     C34      CTL2    -0.180000       12.0110           0
     24484 MEMB     183      POPC     H4X      HAL2     0.900000E-01   1.00800           0
     24485 MEMB     183      POPC     H4Y      HAL2     0.900000E-01   1.00800           0
     24486 MEMB     183      POPC     C35      CTL2    -0.180000       12.0110           0
     24487 MEMB     183      POPC     H5X      HAL2     0.900000E-01   1.00800           0
     24488 MEMB     183      POPC     H5Y      HAL2     0.900000E-01   1.00800           0
     24489 MEMB     183      POPC     C36      CTL2    -0.180000       12.0110           0
     24490 MEMB     183      POPC     H6X      HAL2     0.900000E-01   1.00800           0
     24491 MEMB     183      POPC     H6Y      HAL2     0.900000E-01   1.00800           0
     24492 MEMB     183      POPC     C37      CTL2    -0.180000       12.0110           0
     24493 MEMB     183      POPC     H7X      HAL2     0.900000E-01   1.00800           0
     24494 MEMB     183      POPC     H7Y      HAL2     0.900000E-01   1.00800           0
     24495 MEMB     183      POPC     C38      CTL2    -0.180000       12.0110           0
     24496 MEMB     183      POPC     H8X      HAL2     0.900000E-01   1.00800           0
     24497 MEMB     183      POPC     H8Y      HAL2     0.900000E-01   1.00800           0
     24498 MEMB     183      POPC     C39      CTL2    -0.180000       12.0110           0
     24499 MEMB     183      POPC     H9X      HAL2     0.900000E-01   1.00800           0
     24500 MEMB     183      POPC     H9Y      HAL2     0.900000E-01   1.00800           0
     24501 MEMB     183      POPC     C310     CTL2    -0.180000       12.0110           0
     24502 MEMB     183      POPC     H10X     HAL2     0.900000E-01   1.00800           0
     24503 MEMB     183      POPC     H10Y     HAL2     0.900000E-01   1.00800           0
     24504 MEMB     183      POPC     C311     CTL2    -0.180000       12.0110           0
     24505 MEMB     183      POPC     H11X     HAL2     0.900000E-01   1.00800           0
     24506 MEMB     183      POPC     H11Y     HAL2     0.900000E-01   1.00800           0
     24507 MEMB     183      POPC     C312     CTL2    -0.180000       12.0110           0
     24508 MEMB     183      POPC     H12X     HAL2     0.900000E-01   1.00800           0
     24509 MEMB     183      POPC     H12Y     HAL2     0.900000E-01   1.00800           0
     24510 MEMB     183      POPC     C313     CTL2    -0.180000       12.0110           0
     24511 MEMB     183      POPC     H13X     HAL2     0.900000E-01   1.00800           0
     24512 MEMB     183      POPC     H13Y     HAL2     0.900000E-01   1.00800           0
     24513 MEMB     183      POPC     C314     CTL2    -0.180000       12.0110           0
     24514 MEMB     183      POPC     H14X     HAL2     0.900000E-01   1.00800           0
     24515 MEMB     183      POPC     H14Y     HAL2     0.900000E-01   1.00800           0
     24516 MEMB     183      POPC     C315     CTL2    -0.180000       12.0110           0
     24517 MEMB     183      POPC     H15X     HAL2     0.900000E-01   1.00800           0
     24518 MEMB     183      POPC     H15Y     HAL2     0.900000E-01   1.00800           0
     24519 MEMB     183      POPC     C316     CTL3    -0.270000       12.0110           0
     24520 MEMB     183      POPC     H16X     HAL3     0.900000E-01   1.00800           0
     24521 MEMB     183      POPC     H16Y     HAL3     0.900000E-01   1.00800           0
     24522 MEMB     183      POPC     H16Z     HAL3     0.900000E-01   1.00800           0
     24523 MEMB     184      POPC     N        NTL     -0.600000       14.0070           0
     24524 MEMB     184      POPC     C12      CTL2    -0.100000       12.0110           0
     24525 MEMB     184      POPC     H12A     HL       0.250000       1.00800           0
     24526 MEMB     184      POPC     H12B     HL       0.250000       1.00800           0
     24527 MEMB     184      POPC     C13      CTL5    -0.350000       12.0110           0
     24528 MEMB     184      POPC     H13A     HL       0.250000       1.00800           0
     24529 MEMB     184      POPC     H13B     HL       0.250000       1.00800           0
     24530 MEMB     184      POPC     H13C     HL       0.250000       1.00800           0
     24531 MEMB     184      POPC     C14      CTL5    -0.350000       12.0110           0
     24532 MEMB     184      POPC     H14A     HL       0.250000       1.00800           0
     24533 MEMB     184      POPC     H14B     HL       0.250000       1.00800           0
     24534 MEMB     184      POPC     H14C     HL       0.250000       1.00800           0
     24535 MEMB     184      POPC     C15      CTL5    -0.350000       12.0110           0
     24536 MEMB     184      POPC     H15A     HL       0.250000       1.00800           0
     24537 MEMB     184      POPC     H15B     HL       0.250000       1.00800           0
     24538 MEMB     184      POPC     H15C     HL       0.250000       1.00800           0
     24539 MEMB     184      POPC     C11      CTL2    -0.800000E-01   12.0110           0
     24540 MEMB     184      POPC     H11A     HAL2     0.900000E-01   1.00800           0
     24541 MEMB     184      POPC     H11B     HAL2     0.900000E-01   1.00800           0
     24542 MEMB     184      POPC     P        PL       1.50000        30.9740           0
     24543 MEMB     184      POPC     O13      O2L     -0.780000       15.9994           0
     24544 MEMB     184      POPC     O14      O2L     -0.780000       15.9994           0
     24545 MEMB     184      POPC     O12      OSLP    -0.570000       15.9994           0
     24546 MEMB     184      POPC     O11      OSLP    -0.570000       15.9994           0
     24547 MEMB     184      POPC     C1       CTL2    -0.800000E-01   12.0110           0
     24548 MEMB     184      POPC     HA       HAL2     0.900000E-01   1.00800           0
     24549 MEMB     184      POPC     HB       HAL2     0.900000E-01   1.00800           0
     24550 MEMB     184      POPC     C2       CTL1     0.170000       12.0110           0
     24551 MEMB     184      POPC     HS       HAL1     0.900000E-01   1.00800           0
     24552 MEMB     184      POPC     O21      OSL     -0.490000       15.9994           0
     24553 MEMB     184      POPC     C21      CL       0.900000       12.0110           0
     24554 MEMB     184      POPC     O22      OBL     -0.630000       15.9994           0
     24555 MEMB     184      POPC     C22      CTL2    -0.220000       12.0110           0
     24556 MEMB     184      POPC     H2R      HAL2     0.900000E-01   1.00800           0
     24557 MEMB     184      POPC     H2S      HAL2     0.900000E-01   1.00800           0
     24558 MEMB     184      POPC     C3       CTL2     0.800000E-01   12.0110           0
     24559 MEMB     184      POPC     HX       HAL2     0.900000E-01   1.00800           0
     24560 MEMB     184      POPC     HY       HAL2     0.900000E-01   1.00800           0
     24561 MEMB     184      POPC     O31      OSL     -0.490000       15.9994           0
     24562 MEMB     184      POPC     C31      CL       0.900000       12.0110           0
     24563 MEMB     184      POPC     O32      OBL     -0.630000       15.9994           0
     24564 MEMB     184      POPC     C32      CTL2    -0.220000       12.0110           0
     24565 MEMB     184      POPC     H2X      HAL2     0.900000E-01   1.00800           0
     24566 MEMB     184      POPC     H2Y      HAL2     0.900000E-01   1.00800           0
     24567 MEMB     184      POPC     C23      CTL2    -0.180000       12.0110           0
     24568 MEMB     184      POPC     H3R      HAL2     0.900000E-01   1.00800           0
     24569 MEMB     184      POPC     H3S      HAL2     0.900000E-01   1.00800           0
     24570 MEMB     184      POPC     C24      CTL2    -0.180000       12.0110           0
     24571 MEMB     184      POPC     H4R      HAL2     0.900000E-01   1.00800           0
     24572 MEMB     184      POPC     H4S      HAL2     0.900000E-01   1.00800           0
     24573 MEMB     184      POPC     C25      CTL2    -0.180000       12.0110           0
     24574 MEMB     184      POPC     H5R      HAL2     0.900000E-01   1.00800           0
     24575 MEMB     184      POPC     H5S      HAL2     0.900000E-01   1.00800           0
     24576 MEMB     184      POPC     C26      CTL2    -0.180000       12.0110           0
     24577 MEMB     184      POPC     H6R      HAL2     0.900000E-01   1.00800           0
     24578 MEMB     184      POPC     H6S      HAL2     0.900000E-01   1.00800           0
     24579 MEMB     184      POPC     C27      CTL2    -0.180000       12.0110           0
     24580 MEMB     184      POPC     H7R      HAL2     0.900000E-01   1.00800           0
     24581 MEMB     184      POPC     H7S      HAL2     0.900000E-01   1.00800           0
     24582 MEMB     184      POPC     C28      CTL2    -0.180000       12.0110           0
     24583 MEMB     184      POPC     H8R      HAL2     0.900000E-01   1.00800           0
     24584 MEMB     184      POPC     H8S      HAL2     0.900000E-01   1.00800           0
     24585 MEMB     184      POPC     C29      CEL1    -0.150000       12.0110           0
     24586 MEMB     184      POPC     H91      HEL1     0.150000       1.00800           0
     24587 MEMB     184      POPC     C210     CEL1    -0.150000       12.0110           0
     24588 MEMB     184      POPC     H101     HEL1     0.150000       1.00800           0
     24589 MEMB     184      POPC     C211     CTL2    -0.180000       12.0110           0
     24590 MEMB     184      POPC     H11R     HAL2     0.900000E-01   1.00800           0
     24591 MEMB     184      POPC     H11S     HAL2     0.900000E-01   1.00800           0
     24592 MEMB     184      POPC     C212     CTL2    -0.180000       12.0110           0
     24593 MEMB     184      POPC     H12R     HAL2     0.900000E-01   1.00800           0
     24594 MEMB     184      POPC     H12S     HAL2     0.900000E-01   1.00800           0
     24595 MEMB     184      POPC     C213     CTL2    -0.180000       12.0110           0
     24596 MEMB     184      POPC     H13R     HAL2     0.900000E-01   1.00800           0
     24597 MEMB     184      POPC     H13S     HAL2     0.900000E-01   1.00800           0
     24598 MEMB     184      POPC     C214     CTL2    -0.180000       12.0110           0
     24599 MEMB     184      POPC     H14R     HAL2     0.900000E-01   1.00800           0
     24600 MEMB     184      POPC     H14S     HAL2     0.900000E-01   1.00800           0
     24601 MEMB     184      POPC     C215     CTL2    -0.180000       12.0110           0
     24602 MEMB     184      POPC     H15R     HAL2     0.900000E-01   1.00800           0
     24603 MEMB     184      POPC     H15S     HAL2     0.900000E-01   1.00800           0
     24604 MEMB     184      POPC     C216     CTL2    -0.180000       12.0110           0
     24605 MEMB     184      POPC     H16R     HAL2     0.900000E-01   1.00800           0
     24606 MEMB     184      POPC     H16S     HAL2     0.900000E-01   1.00800           0
     24607 MEMB     184      POPC     C217     CTL2    -0.180000       12.0110           0
     24608 MEMB     184      POPC     H17R     HAL2     0.900000E-01   1.00800           0
     24609 MEMB     184      POPC     H17S     HAL2     0.900000E-01   1.00800           0
     24610 MEMB     184      POPC     C218     CTL3    -0.270000       12.0110           0
     24611 MEMB     184      POPC     H18R     HAL3     0.900000E-01   1.00800           0
     24612 MEMB     184      POPC     H18S     HAL3     0.900000E-01   1.00800           0
     24613 MEMB     184      POPC     H18T     HAL3     0.900000E-01   1.00800           0
     24614 MEMB     184      POPC     C33      CTL2    -0.180000       12.0110           0
     24615 MEMB     184      POPC     H3X      HAL2     0.900000E-01   1.00800           0
     24616 MEMB     184      POPC     H3Y      HAL2     0.900000E-01   1.00800           0
     24617 MEMB     184      POPC     C34      CTL2    -0.180000       12.0110           0
     24618 MEMB     184      POPC     H4X      HAL2     0.900000E-01   1.00800           0
     24619 MEMB     184      POPC     H4Y      HAL2     0.900000E-01   1.00800           0
     24620 MEMB     184      POPC     C35      CTL2    -0.180000       12.0110           0
     24621 MEMB     184      POPC     H5X      HAL2     0.900000E-01   1.00800           0
     24622 MEMB     184      POPC     H5Y      HAL2     0.900000E-01   1.00800           0
     24623 MEMB     184      POPC     C36      CTL2    -0.180000       12.0110           0
     24624 MEMB     184      POPC     H6X      HAL2     0.900000E-01   1.00800           0
     24625 MEMB     184      POPC     H6Y      HAL2     0.900000E-01   1.00800           0
     24626 MEMB     184      POPC     C37      CTL2    -0.180000       12.0110           0
     24627 MEMB     184      POPC     H7X      HAL2     0.900000E-01   1.00800           0
     24628 MEMB     184      POPC     H7Y      HAL2     0.900000E-01   1.00800           0
     24629 MEMB     184      POPC     C38      CTL2    -0.180000       12.0110           0
     24630 MEMB     184      POPC     H8X      HAL2     0.900000E-01   1.00800           0
     24631 MEMB     184      POPC     H8Y      HAL2     0.900000E-01   1.00800           0
     24632 MEMB     184      POPC     C39      CTL2    -0.180000       12.0110           0
     24633 MEMB     184      POPC     H9X      HAL2     0.900000E-01   1.00800           0
     24634 MEMB     184      POPC     H9Y      HAL2     0.900000E-01   1.00800           0
     24635 MEMB     184      POPC     C310     CTL2    -0.180000       12.0110           0
     24636 MEMB     184      POPC     H10X     HAL2     0.900000E-01   1.00800           0
     24637 MEMB     184      POPC     H10Y     HAL2     0.900000E-01   1.00800           0
     24638 MEMB     184      POPC     C311     CTL2    -0.180000       12.0110           0
     24639 MEMB     184      POPC     H11X     HAL2     0.900000E-01   1.00800           0
     24640 MEMB     184      POPC     H11Y     HAL2     0.900000E-01   1.00800           0
     24641 MEMB     184      POPC     C312     CTL2    -0.180000       12.0110           0
     24642 MEMB     184      POPC     H12X     HAL2     0.900000E-01   1.00800           0
     24643 MEMB     184      POPC     H12Y     HAL2     0.900000E-01   1.00800           0
     24644 MEMB     184      POPC     C313     CTL2    -0.180000       12.0110           0
     24645 MEMB     184      POPC     H13X     HAL2     0.900000E-01   1.00800           0
     24646 MEMB     184      POPC     H13Y     HAL2     0.900000E-01   1.00800           0
     24647 MEMB     184      POPC     C314     CTL2    -0.180000       12.0110           0
     24648 MEMB     184      POPC     H14X     HAL2     0.900000E-01   1.00800           0
     24649 MEMB     184      POPC     H14Y     HAL2     0.900000E-01   1.00800           0
     24650 MEMB     184      POPC     C315     CTL2    -0.180000       12.0110           0
     24651 MEMB     184      POPC     H15X     HAL2     0.900000E-01   1.00800           0
     24652 MEMB     184      POPC     H15Y     HAL2     0.900000E-01   1.00800           0
     24653 MEMB     184      POPC     C316     CTL3    -0.270000       12.0110           0
     24654 MEMB     184      POPC     H16X     HAL3     0.900000E-01   1.00800           0
     24655 MEMB     184      POPC     H16Y     HAL3     0.900000E-01   1.00800           0
     24656 MEMB     184      POPC     H16Z     HAL3     0.900000E-01   1.00800           0
     24657 MEMB     185      POPC     N        NTL     -0.600000       14.0070           0
     24658 MEMB     185      POPC     C12      CTL2    -0.100000       12.0110           0
     24659 MEMB     185      POPC     H12A     HL       0.250000       1.00800           0
     24660 MEMB     185      POPC     H12B     HL       0.250000       1.00800           0
     24661 MEMB     185      POPC     C13      CTL5    -0.350000       12.0110           0
     24662 MEMB     185      POPC     H13A     HL       0.250000       1.00800           0
     24663 MEMB     185      POPC     H13B     HL       0.250000       1.00800           0
     24664 MEMB     185      POPC     H13C     HL       0.250000       1.00800           0
     24665 MEMB     185      POPC     C14      CTL5    -0.350000       12.0110           0
     24666 MEMB     185      POPC     H14A     HL       0.250000       1.00800           0
     24667 MEMB     185      POPC     H14B     HL       0.250000       1.00800           0
     24668 MEMB     185      POPC     H14C     HL       0.250000       1.00800           0
     24669 MEMB     185      POPC     C15      CTL5    -0.350000       12.0110           0
     24670 MEMB     185      POPC     H15A     HL       0.250000       1.00800           0
     24671 MEMB     185      POPC     H15B     HL       0.250000       1.00800           0
     24672 MEMB     185      POPC     H15C     HL       0.250000       1.00800           0
     24673 MEMB     185      POPC     C11      CTL2    -0.800000E-01   12.0110           0
     24674 MEMB     185      POPC     H11A     HAL2     0.900000E-01   1.00800           0
     24675 MEMB     185      POPC     H11B     HAL2     0.900000E-01   1.00800           0
     24676 MEMB     185      POPC     P        PL       1.50000        30.9740           0
     24677 MEMB     185      POPC     O13      O2L     -0.780000       15.9994           0
     24678 MEMB     185      POPC     O14      O2L     -0.780000       15.9994           0
     24679 MEMB     185      POPC     O12      OSLP    -0.570000       15.9994           0
     24680 MEMB     185      POPC     O11      OSLP    -0.570000       15.9994           0
     24681 MEMB     185      POPC     C1       CTL2    -0.800000E-01   12.0110           0
     24682 MEMB     185      POPC     HA       HAL2     0.900000E-01   1.00800           0
     24683 MEMB     185      POPC     HB       HAL2     0.900000E-01   1.00800           0
     24684 MEMB     185      POPC     C2       CTL1     0.170000       12.0110           0
     24685 MEMB     185      POPC     HS       HAL1     0.900000E-01   1.00800           0
     24686 MEMB     185      POPC     O21      OSL     -0.490000       15.9994           0
     24687 MEMB     185      POPC     C21      CL       0.900000       12.0110           0
     24688 MEMB     185      POPC     O22      OBL     -0.630000       15.9994           0
     24689 MEMB     185      POPC     C22      CTL2    -0.220000       12.0110           0
     24690 MEMB     185      POPC     H2R      HAL2     0.900000E-01   1.00800           0
     24691 MEMB     185      POPC     H2S      HAL2     0.900000E-01   1.00800           0
     24692 MEMB     185      POPC     C3       CTL2     0.800000E-01   12.0110           0
     24693 MEMB     185      POPC     HX       HAL2     0.900000E-01   1.00800           0
     24694 MEMB     185      POPC     HY       HAL2     0.900000E-01   1.00800           0
     24695 MEMB     185      POPC     O31      OSL     -0.490000       15.9994           0
     24696 MEMB     185      POPC     C31      CL       0.900000       12.0110           0
     24697 MEMB     185      POPC     O32      OBL     -0.630000       15.9994           0
     24698 MEMB     185      POPC     C32      CTL2    -0.220000       12.0110           0
     24699 MEMB     185      POPC     H2X      HAL2     0.900000E-01   1.00800           0
     24700 MEMB     185      POPC     H2Y      HAL2     0.900000E-01   1.00800           0
     24701 MEMB     185      POPC     C23      CTL2    -0.180000       12.0110           0
     24702 MEMB     185      POPC     H3R      HAL2     0.900000E-01   1.00800           0
     24703 MEMB     185      POPC     H3S      HAL2     0.900000E-01   1.00800           0
     24704 MEMB     185      POPC     C24      CTL2    -0.180000       12.0110           0
     24705 MEMB     185      POPC     H4R      HAL2     0.900000E-01   1.00800           0
     24706 MEMB     185      POPC     H4S      HAL2     0.900000E-01   1.00800           0
     24707 MEMB     185      POPC     C25      CTL2    -0.180000       12.0110           0
     24708 MEMB     185      POPC     H5R      HAL2     0.900000E-01   1.00800           0
     24709 MEMB     185      POPC     H5S      HAL2     0.900000E-01   1.00800           0
     24710 MEMB     185      POPC     C26      CTL2    -0.180000       12.0110           0
     24711 MEMB     185      POPC     H6R      HAL2     0.900000E-01   1.00800           0
     24712 MEMB     185      POPC     H6S      HAL2     0.900000E-01   1.00800           0
     24713 MEMB     185      POPC     C27      CTL2    -0.180000       12.0110           0
     24714 MEMB     185      POPC     H7R      HAL2     0.900000E-01   1.00800           0
     24715 MEMB     185      POPC     H7S      HAL2     0.900000E-01   1.00800           0
     24716 MEMB     185      POPC     C28      CTL2    -0.180000       12.0110           0
     24717 MEMB     185      POPC     H8R      HAL2     0.900000E-01   1.00800           0
     24718 MEMB     185      POPC     H8S      HAL2     0.900000E-01   1.00800           0
     24719 MEMB     185      POPC     C29      CEL1    -0.150000       12.0110           0
     24720 MEMB     185      POPC     H91      HEL1     0.150000       1.00800           0
     24721 MEMB     185      POPC     C210     CEL1    -0.150000       12.0110           0
     24722 MEMB     185      POPC     H101     HEL1     0.150000       1.00800           0
     24723 MEMB     185      POPC     C211     CTL2    -0.180000       12.0110           0
     24724 MEMB     185      POPC     H11R     HAL2     0.900000E-01   1.00800           0
     24725 MEMB     185      POPC     H11S     HAL2     0.900000E-01   1.00800           0
     24726 MEMB     185      POPC     C212     CTL2    -0.180000       12.0110           0
     24727 MEMB     185      POPC     H12R     HAL2     0.900000E-01   1.00800           0
     24728 MEMB     185      POPC     H12S     HAL2     0.900000E-01   1.00800           0
     24729 MEMB     185      POPC     C213     CTL2    -0.180000       12.0110           0
     24730 MEMB     185      POPC     H13R     HAL2     0.900000E-01   1.00800           0
     24731 MEMB     185      POPC     H13S     HAL2     0.900000E-01   1.00800           0
     24732 MEMB     185      POPC     C214     CTL2    -0.180000       12.0110           0
     24733 MEMB     185      POPC     H14R     HAL2     0.900000E-01   1.00800           0
     24734 MEMB     185      POPC     H14S     HAL2     0.900000E-01   1.00800           0
     24735 MEMB     185      POPC     C215     CTL2    -0.180000       12.0110           0
     24736 MEMB     185      POPC     H15R     HAL2     0.900000E-01   1.00800           0
     24737 MEMB     185      POPC     H15S     HAL2     0.900000E-01   1.00800           0
     24738 MEMB     185      POPC     C216     CTL2    -0.180000       12.0110           0
     24739 MEMB     185      POPC     H16R     HAL2     0.900000E-01   1.00800           0
     24740 MEMB     185      POPC     H16S     HAL2     0.900000E-01   1.00800           0
     24741 MEMB     185      POPC     C217     CTL2    -0.180000       12.0110           0
     24742 MEMB     185      POPC     H17R     HAL2     0.900000E-01   1.00800           0
     24743 MEMB     185      POPC     H17S     HAL2     0.900000E-01   1.00800           0
     24744 MEMB     185      POPC     C218     CTL3    -0.270000       12.0110           0
     24745 MEMB     185      POPC     H18R     HAL3     0.900000E-01   1.00800           0
     24746 MEMB     185      POPC     H18S     HAL3     0.900000E-01   1.00800           0
     24747 MEMB     185      POPC     H18T     HAL3     0.900000E-01   1.00800           0
     24748 MEMB     185      POPC     C33      CTL2    -0.180000       12.0110           0
     24749 MEMB     185      POPC     H3X      HAL2     0.900000E-01   1.00800           0
     24750 MEMB     185      POPC     H3Y      HAL2     0.900000E-01   1.00800           0
     24751 MEMB     185      POPC     C34      CTL2    -0.180000       12.0110           0
     24752 MEMB     185      POPC     H4X      HAL2     0.900000E-01   1.00800           0
     24753 MEMB     185      POPC     H4Y      HAL2     0.900000E-01   1.00800           0
     24754 MEMB     185      POPC     C35      CTL2    -0.180000       12.0110           0
     24755 MEMB     185      POPC     H5X      HAL2     0.900000E-01   1.00800           0
     24756 MEMB     185      POPC     H5Y      HAL2     0.900000E-01   1.00800           0
     24757 MEMB     185      POPC     C36      CTL2    -0.180000       12.0110           0
     24758 MEMB     185      POPC     H6X      HAL2     0.900000E-01   1.00800           0
     24759 MEMB     185      POPC     H6Y      HAL2     0.900000E-01   1.00800           0
     24760 MEMB     185      POPC     C37      CTL2    -0.180000       12.0110           0
     24761 MEMB     185      POPC     H7X      HAL2     0.900000E-01   1.00800           0
     24762 MEMB     185      POPC     H7Y      HAL2     0.900000E-01   1.00800           0
     24763 MEMB     185      POPC     C38      CTL2    -0.180000       12.0110           0
     24764 MEMB     185      POPC     H8X      HAL2     0.900000E-01   1.00800           0
     24765 MEMB     185      POPC     H8Y      HAL2     0.900000E-01   1.00800           0
     24766 MEMB     185      POPC     C39      CTL2    -0.180000       12.0110           0
     24767 MEMB     185      POPC     H9X      HAL2     0.900000E-01   1.00800           0
     24768 MEMB     185      POPC     H9Y      HAL2     0.900000E-01   1.00800           0
     24769 MEMB     185      POPC     C310     CTL2    -0.180000       12.0110           0
     24770 MEMB     185      POPC     H10X     HAL2     0.900000E-01   1.00800           0
     24771 MEMB     185      POPC     H10Y     HAL2     0.900000E-01   1.00800           0
     24772 MEMB     185      POPC     C311     CTL2    -0.180000       12.0110           0
     24773 MEMB     185      POPC     H11X     HAL2     0.900000E-01   1.00800           0
     24774 MEMB     185      POPC     H11Y     HAL2     0.900000E-01   1.00800           0
     24775 MEMB     185      POPC     C312     CTL2    -0.180000       12.0110           0
     24776 MEMB     185      POPC     H12X     HAL2     0.900000E-01   1.00800           0
     24777 MEMB     185      POPC     H12Y     HAL2     0.900000E-01   1.00800           0
     24778 MEMB     185      POPC     C313     CTL2    -0.180000       12.0110           0
     24779 MEMB     185      POPC     H13X     HAL2     0.900000E-01   1.00800           0
     24780 MEMB     185      POPC     H13Y     HAL2     0.900000E-01   1.00800           0
     24781 MEMB     185      POPC     C314     CTL2    -0.180000       12.0110           0
     24782 MEMB     185      POPC     H14X     HAL2     0.900000E-01   1.00800           0
     24783 MEMB     185      POPC     H14Y     HAL2     0.900000E-01   1.00800           0
     24784 MEMB     185      POPC     C315     CTL2    -0.180000       12.0110           0
     24785 MEMB     185      POPC     H15X     HAL2     0.900000E-01   1.00800           0
     24786 MEMB     185      POPC     H15Y     HAL2     0.900000E-01   1.00800           0
     24787 MEMB     185      POPC     C316     CTL3    -0.270000       12.0110           0
     24788 MEMB     185      POPC     H16X     HAL3     0.900000E-01   1.00800           0
     24789 MEMB     185      POPC     H16Y     HAL3     0.900000E-01   1.00800           0
     24790 MEMB     185      POPC     H16Z     HAL3     0.900000E-01   1.00800           0
     24791 MEMB     186      POPC     N        NTL     -0.600000       14.0070           0
     24792 MEMB     186      POPC     C12      CTL2    -0.100000       12.0110           0
     24793 MEMB     186      POPC     H12A     HL       0.250000       1.00800           0
     24794 MEMB     186      POPC     H12B     HL       0.250000       1.00800           0
     24795 MEMB     186      POPC     C13      CTL5    -0.350000       12.0110           0
     24796 MEMB     186      POPC     H13A     HL       0.250000       1.00800           0
     24797 MEMB     186      POPC     H13B     HL       0.250000       1.00800           0
     24798 MEMB     186      POPC     H13C     HL       0.250000       1.00800           0
     24799 MEMB     186      POPC     C14      CTL5    -0.350000       12.0110           0
     24800 MEMB     186      POPC     H14A     HL       0.250000       1.00800           0
     24801 MEMB     186      POPC     H14B     HL       0.250000       1.00800           0
     24802 MEMB     186      POPC     H14C     HL       0.250000       1.00800           0
     24803 MEMB     186      POPC     C15      CTL5    -0.350000       12.0110           0
     24804 MEMB     186      POPC     H15A     HL       0.250000       1.00800           0
     24805 MEMB     186      POPC     H15B     HL       0.250000       1.00800           0
     24806 MEMB     186      POPC     H15C     HL       0.250000       1.00800           0
     24807 MEMB     186      POPC     C11      CTL2    -0.800000E-01   12.0110           0
     24808 MEMB     186      POPC     H11A     HAL2     0.900000E-01   1.00800           0
     24809 MEMB     186      POPC     H11B     HAL2     0.900000E-01   1.00800           0
     24810 MEMB     186      POPC     P        PL       1.50000        30.9740           0
     24811 MEMB     186      POPC     O13      O2L     -0.780000       15.9994           0
     24812 MEMB     186      POPC     O14      O2L     -0.780000       15.9994           0
     24813 MEMB     186      POPC     O12      OSLP    -0.570000       15.9994           0
     24814 MEMB     186      POPC     O11      OSLP    -0.570000       15.9994           0
     24815 MEMB     186      POPC     C1       CTL2    -0.800000E-01   12.0110           0
     24816 MEMB     186      POPC     HA       HAL2     0.900000E-01   1.00800           0
     24817 MEMB     186      POPC     HB       HAL2     0.900000E-01   1.00800           0
     24818 MEMB     186      POPC     C2       CTL1     0.170000       12.0110           0
     24819 MEMB     186      POPC     HS       HAL1     0.900000E-01   1.00800           0
     24820 MEMB     186      POPC     O21      OSL     -0.490000       15.9994           0
     24821 MEMB     186      POPC     C21      CL       0.900000       12.0110           0
     24822 MEMB     186      POPC     O22      OBL     -0.630000       15.9994           0
     24823 MEMB     186      POPC     C22      CTL2    -0.220000       12.0110           0
     24824 MEMB     186      POPC     H2R      HAL2     0.900000E-01   1.00800           0
     24825 MEMB     186      POPC     H2S      HAL2     0.900000E-01   1.00800           0
     24826 MEMB     186      POPC     C3       CTL2     0.800000E-01   12.0110           0
     24827 MEMB     186      POPC     HX       HAL2     0.900000E-01   1.00800           0
     24828 MEMB     186      POPC     HY       HAL2     0.900000E-01   1.00800           0
     24829 MEMB     186      POPC     O31      OSL     -0.490000       15.9994           0
     24830 MEMB     186      POPC     C31      CL       0.900000       12.0110           0
     24831 MEMB     186      POPC     O32      OBL     -0.630000       15.9994           0
     24832 MEMB     186      POPC     C32      CTL2    -0.220000       12.0110           0
     24833 MEMB     186      POPC     H2X      HAL2     0.900000E-01   1.00800           0
     24834 MEMB     186      POPC     H2Y      HAL2     0.900000E-01   1.00800           0
     24835 MEMB     186      POPC     C23      CTL2    -0.180000       12.0110           0
     24836 MEMB     186      POPC     H3R      HAL2     0.900000E-01   1.00800           0
     24837 MEMB     186      POPC     H3S      HAL2     0.900000E-01   1.00800           0
     24838 MEMB     186      POPC     C24      CTL2    -0.180000       12.0110           0
     24839 MEMB     186      POPC     H4R      HAL2     0.900000E-01   1.00800           0
     24840 MEMB     186      POPC     H4S      HAL2     0.900000E-01   1.00800           0
     24841 MEMB     186      POPC     C25      CTL2    -0.180000       12.0110           0
     24842 MEMB     186      POPC     H5R      HAL2     0.900000E-01   1.00800           0
     24843 MEMB     186      POPC     H5S      HAL2     0.900000E-01   1.00800           0
     24844 MEMB     186      POPC     C26      CTL2    -0.180000       12.0110           0
     24845 MEMB     186      POPC     H6R      HAL2     0.900000E-01   1.00800           0
     24846 MEMB     186      POPC     H6S      HAL2     0.900000E-01   1.00800           0
     24847 MEMB     186      POPC     C27      CTL2    -0.180000       12.0110           0
     24848 MEMB     186      POPC     H7R      HAL2     0.900000E-01   1.00800           0
     24849 MEMB     186      POPC     H7S      HAL2     0.900000E-01   1.00800           0
     24850 MEMB     186      POPC     C28      CTL2    -0.180000       12.0110           0
     24851 MEMB     186      POPC     H8R      HAL2     0.900000E-01   1.00800           0
     24852 MEMB     186      POPC     H8S      HAL2     0.900000E-01   1.00800           0
     24853 MEMB     186      POPC     C29      CEL1    -0.150000       12.0110           0
     24854 MEMB     186      POPC     H91      HEL1     0.150000       1.00800           0
     24855 MEMB     186      POPC     C210     CEL1    -0.150000       12.0110           0
     24856 MEMB     186      POPC     H101     HEL1     0.150000       1.00800           0
     24857 MEMB     186      POPC     C211     CTL2    -0.180000       12.0110           0
     24858 MEMB     186      POPC     H11R     HAL2     0.900000E-01   1.00800           0
     24859 MEMB     186      POPC     H11S     HAL2     0.900000E-01   1.00800           0
     24860 MEMB     186      POPC     C212     CTL2    -0.180000       12.0110           0
     24861 MEMB     186      POPC     H12R     HAL2     0.900000E-01   1.00800           0
     24862 MEMB     186      POPC     H12S     HAL2     0.900000E-01   1.00800           0
     24863 MEMB     186      POPC     C213     CTL2    -0.180000       12.0110           0
     24864 MEMB     186      POPC     H13R     HAL2     0.900000E-01   1.00800           0
     24865 MEMB     186      POPC     H13S     HAL2     0.900000E-01   1.00800           0
     24866 MEMB     186      POPC     C214     CTL2    -0.180000       12.0110           0
     24867 MEMB     186      POPC     H14R     HAL2     0.900000E-01   1.00800           0
     24868 MEMB     186      POPC     H14S     HAL2     0.900000E-01   1.00800           0
     24869 MEMB     186      POPC     C215     CTL2    -0.180000       12.0110           0
     24870 MEMB     186      POPC     H15R     HAL2     0.900000E-01   1.00800           0
     24871 MEMB     186      POPC     H15S     HAL2     0.900000E-01   1.00800           0
     24872 MEMB     186      POPC     C216     CTL2    -0.180000       12.0110           0
     24873 MEMB     186      POPC     H16R     HAL2     0.900000E-01   1.00800           0
     24874 MEMB     186      POPC     H16S     HAL2     0.900000E-01   1.00800           0
     24875 MEMB     186      POPC     C217     CTL2    -0.180000       12.0110           0
     24876 MEMB     186      POPC     H17R     HAL2     0.900000E-01   1.00800           0
     24877 MEMB     186      POPC     H17S     HAL2     0.900000E-01   1.00800           0
     24878 MEMB     186      POPC     C218     CTL3    -0.270000       12.0110           0
     24879 MEMB     186      POPC     H18R     HAL3     0.900000E-01   1.00800           0
     24880 MEMB     186      POPC     H18S     HAL3     0.900000E-01   1.00800           0
     24881 MEMB     186      POPC     H18T     HAL3     0.900000E-01   1.00800           0
     24882 MEMB     186      POPC     C33      CTL2    -0.180000       12.0110           0
     24883 MEMB     186      POPC     H3X      HAL2     0.900000E-01   1.00800           0
     24884 MEMB     186      POPC     H3Y      HAL2     0.900000E-01   1.00800           0
     24885 MEMB     186      POPC     C34      CTL2    -0.180000       12.0110           0
     24886 MEMB     186      POPC     H4X      HAL2     0.900000E-01   1.00800           0
     24887 MEMB     186      POPC     H4Y      HAL2     0.900000E-01   1.00800           0
     24888 MEMB     186      POPC     C35      CTL2    -0.180000       12.0110           0
     24889 MEMB     186      POPC     H5X      HAL2     0.900000E-01   1.00800           0
     24890 MEMB     186      POPC     H5Y      HAL2     0.900000E-01   1.00800           0
     24891 MEMB     186      POPC     C36      CTL2    -0.180000       12.0110           0
     24892 MEMB     186      POPC     H6X      HAL2     0.900000E-01   1.00800           0
     24893 MEMB     186      POPC     H6Y      HAL2     0.900000E-01   1.00800           0
     24894 MEMB     186      POPC     C37      CTL2    -0.180000       12.0110           0
     24895 MEMB     186      POPC     H7X      HAL2     0.900000E-01   1.00800           0
     24896 MEMB     186      POPC     H7Y      HAL2     0.900000E-01   1.00800           0
     24897 MEMB     186      POPC     C38      CTL2    -0.180000       12.0110           0
     24898 MEMB     186      POPC     H8X      HAL2     0.900000E-01   1.00800           0
     24899 MEMB     186      POPC     H8Y      HAL2     0.900000E-01   1.00800           0
     24900 MEMB     186      POPC     C39      CTL2    -0.180000       12.0110           0
     24901 MEMB     186      POPC     H9X      HAL2     0.900000E-01   1.00800           0
     24902 MEMB     186      POPC     H9Y      HAL2     0.900000E-01   1.00800           0
     24903 MEMB     186      POPC     C310     CTL2    -0.180000       12.0110           0
     24904 MEMB     186      POPC     H10X     HAL2     0.900000E-01   1.00800           0
     24905 MEMB     186      POPC     H10Y     HAL2     0.900000E-01   1.00800           0
     24906 MEMB     186      POPC     C311     CTL2    -0.180000       12.0110           0
     24907 MEMB     186      POPC     H11X     HAL2     0.900000E-01   1.00800           0
     24908 MEMB     186      POPC     H11Y     HAL2     0.900000E-01   1.00800           0
     24909 MEMB     186      POPC     C312     CTL2    -0.180000       12.0110           0
     24910 MEMB     186      POPC     H12X     HAL2     0.900000E-01   1.00800           0
     24911 MEMB     186      POPC     H12Y     HAL2     0.900000E-01   1.00800           0
     24912 MEMB     186      POPC     C313     CTL2    -0.180000       12.0110           0
     24913 MEMB     186      POPC     H13X     HAL2     0.900000E-01   1.00800           0
     24914 MEMB     186      POPC     H13Y     HAL2     0.900000E-01   1.00800           0
     24915 MEMB     186      POPC     C314     CTL2    -0.180000       12.0110           0
     24916 MEMB     186      POPC     H14X     HAL2     0.900000E-01   1.00800           0
     24917 MEMB     186      POPC     H14Y     HAL2     0.900000E-01   1.00800           0
     24918 MEMB     186      POPC     C315     CTL2    -0.180000       12.0110           0
     24919 MEMB     186      POPC     H15X     HAL2     0.900000E-01   1.00800           0
     24920 MEMB     186      POPC     H15Y     HAL2     0.900000E-01   1.00800           0
     24921 MEMB     186      POPC     C316     CTL3    -0.270000       12.0110           0
     24922 MEMB     186      POPC     H16X     HAL3     0.900000E-01   1.00800           0
     24923 MEMB     186      POPC     H16Y     HAL3     0.900000E-01   1.00800           0
     24924 MEMB     186      POPC     H16Z     HAL3     0.900000E-01   1.00800           0
     24925 MEMB     187      POPC     N        NTL     -0.600000       14.0070           0
     24926 MEMB     187      POPC     C12      CTL2    -0.100000       12.0110           0
     24927 MEMB     187      POPC     H12A     HL       0.250000       1.00800           0
     24928 MEMB     187      POPC     H12B     HL       0.250000       1.00800           0
     24929 MEMB     187      POPC     C13      CTL5    -0.350000       12.0110           0
     24930 MEMB     187      POPC     H13A     HL       0.250000       1.00800           0
     24931 MEMB     187      POPC     H13B     HL       0.250000       1.00800           0
     24932 MEMB     187      POPC     H13C     HL       0.250000       1.00800           0
     24933 MEMB     187      POPC     C14      CTL5    -0.350000       12.0110           0
     24934 MEMB     187      POPC     H14A     HL       0.250000       1.00800           0
     24935 MEMB     187      POPC     H14B     HL       0.250000       1.00800           0
     24936 MEMB     187      POPC     H14C     HL       0.250000       1.00800           0
     24937 MEMB     187      POPC     C15      CTL5    -0.350000       12.0110           0
     24938 MEMB     187      POPC     H15A     HL       0.250000       1.00800           0
     24939 MEMB     187      POPC     H15B     HL       0.250000       1.00800           0
     24940 MEMB     187      POPC     H15C     HL       0.250000       1.00800           0
     24941 MEMB     187      POPC     C11      CTL2    -0.800000E-01   12.0110           0
     24942 MEMB     187      POPC     H11A     HAL2     0.900000E-01   1.00800           0
     24943 MEMB     187      POPC     H11B     HAL2     0.900000E-01   1.00800           0
     24944 MEMB     187      POPC     P        PL       1.50000        30.9740           0
     24945 MEMB     187      POPC     O13      O2L     -0.780000       15.9994           0
     24946 MEMB     187      POPC     O14      O2L     -0.780000       15.9994           0
     24947 MEMB     187      POPC     O12      OSLP    -0.570000       15.9994           0
     24948 MEMB     187      POPC     O11      OSLP    -0.570000       15.9994           0
     24949 MEMB     187      POPC     C1       CTL2    -0.800000E-01   12.0110           0
     24950 MEMB     187      POPC     HA       HAL2     0.900000E-01   1.00800           0
     24951 MEMB     187      POPC     HB       HAL2     0.900000E-01   1.00800           0
     24952 MEMB     187      POPC     C2       CTL1     0.170000       12.0110           0
     24953 MEMB     187      POPC     HS       HAL1     0.900000E-01   1.00800           0
     24954 MEMB     187      POPC     O21      OSL     -0.490000       15.9994           0
     24955 MEMB     187      POPC     C21      CL       0.900000       12.0110           0
     24956 MEMB     187      POPC     O22      OBL     -0.630000       15.9994           0
     24957 MEMB     187      POPC     C22      CTL2    -0.220000       12.0110           0
     24958 MEMB     187      POPC     H2R      HAL2     0.900000E-01   1.00800           0
     24959 MEMB     187      POPC     H2S      HAL2     0.900000E-01   1.00800           0
     24960 MEMB     187      POPC     C3       CTL2     0.800000E-01   12.0110           0
     24961 MEMB     187      POPC     HX       HAL2     0.900000E-01   1.00800           0
     24962 MEMB     187      POPC     HY       HAL2     0.900000E-01   1.00800           0
     24963 MEMB     187      POPC     O31      OSL     -0.490000       15.9994           0
     24964 MEMB     187      POPC     C31      CL       0.900000       12.0110           0
     24965 MEMB     187      POPC     O32      OBL     -0.630000       15.9994           0
     24966 MEMB     187      POPC     C32      CTL2    -0.220000       12.0110           0
     24967 MEMB     187      POPC     H2X      HAL2     0.900000E-01   1.00800           0
     24968 MEMB     187      POPC     H2Y      HAL2     0.900000E-01   1.00800           0
     24969 MEMB     187      POPC     C23      CTL2    -0.180000       12.0110           0
     24970 MEMB     187      POPC     H3R      HAL2     0.900000E-01   1.00800           0
     24971 MEMB     187      POPC     H3S      HAL2     0.900000E-01   1.00800           0
     24972 MEMB     187      POPC     C24      CTL2    -0.180000       12.0110           0
     24973 MEMB     187      POPC     H4R      HAL2     0.900000E-01   1.00800           0
     24974 MEMB     187      POPC     H4S      HAL2     0.900000E-01   1.00800           0
     24975 MEMB     187      POPC     C25      CTL2    -0.180000       12.0110           0
     24976 MEMB     187      POPC     H5R      HAL2     0.900000E-01   1.00800           0
     24977 MEMB     187      POPC     H5S      HAL2     0.900000E-01   1.00800           0
     24978 MEMB     187      POPC     C26      CTL2    -0.180000       12.0110           0
     24979 MEMB     187      POPC     H6R      HAL2     0.900000E-01   1.00800           0
     24980 MEMB     187      POPC     H6S      HAL2     0.900000E-01   1.00800           0
     24981 MEMB     187      POPC     C27      CTL2    -0.180000       12.0110           0
     24982 MEMB     187      POPC     H7R      HAL2     0.900000E-01   1.00800           0
     24983 MEMB     187      POPC     H7S      HAL2     0.900000E-01   1.00800           0
     24984 MEMB     187      POPC     C28      CTL2    -0.180000       12.0110           0
     24985 MEMB     187      POPC     H8R      HAL2     0.900000E-01   1.00800           0
     24986 MEMB     187      POPC     H8S      HAL2     0.900000E-01   1.00800           0
     24987 MEMB     187      POPC     C29      CEL1    -0.150000       12.0110           0
     24988 MEMB     187      POPC     H91      HEL1     0.150000       1.00800           0
     24989 MEMB     187      POPC     C210     CEL1    -0.150000       12.0110           0
     24990 MEMB     187      POPC     H101     HEL1     0.150000       1.00800           0
     24991 MEMB     187      POPC     C211     CTL2    -0.180000       12.0110           0
     24992 MEMB     187      POPC     H11R     HAL2     0.900000E-01   1.00800           0
     24993 MEMB     187      POPC     H11S     HAL2     0.900000E-01   1.00800           0
     24994 MEMB     187      POPC     C212     CTL2    -0.180000       12.0110           0
     24995 MEMB     187      POPC     H12R     HAL2     0.900000E-01   1.00800           0
     24996 MEMB     187      POPC     H12S     HAL2     0.900000E-01   1.00800           0
     24997 MEMB     187      POPC     C213     CTL2    -0.180000       12.0110           0
     24998 MEMB     187      POPC     H13R     HAL2     0.900000E-01   1.00800           0
     24999 MEMB     187      POPC     H13S     HAL2     0.900000E-01   1.00800           0
     25000 MEMB     187      POPC     C214     CTL2    -0.180000       12.0110           0
     25001 MEMB     187      POPC     H14R     HAL2     0.900000E-01   1.00800           0
     25002 MEMB     187      POPC     H14S     HAL2     0.900000E-01   1.00800           0
     25003 MEMB     187      POPC     C215     CTL2    -0.180000       12.0110           0
     25004 MEMB     187      POPC     H15R     HAL2     0.900000E-01   1.00800           0
     25005 MEMB     187      POPC     H15S     HAL2     0.900000E-01   1.00800           0
     25006 MEMB     187      POPC     C216     CTL2    -0.180000       12.0110           0
     25007 MEMB     187      POPC     H16R     HAL2     0.900000E-01   1.00800           0
     25008 MEMB     187      POPC     H16S     HAL2     0.900000E-01   1.00800           0
     25009 MEMB     187      POPC     C217     CTL2    -0.180000       12.0110           0
     25010 MEMB     187      POPC     H17R     HAL2     0.900000E-01   1.00800           0
     25011 MEMB     187      POPC     H17S     HAL2     0.900000E-01   1.00800           0
     25012 MEMB     187      POPC     C218     CTL3    -0.270000       12.0110           0
     25013 MEMB     187      POPC     H18R     HAL3     0.900000E-01   1.00800           0
     25014 MEMB     187      POPC     H18S     HAL3     0.900000E-01   1.00800           0
     25015 MEMB     187      POPC     H18T     HAL3     0.900000E-01   1.00800           0
     25016 MEMB     187      POPC     C33      CTL2    -0.180000       12.0110           0
     25017 MEMB     187      POPC     H3X      HAL2     0.900000E-01   1.00800           0
     25018 MEMB     187      POPC     H3Y      HAL2     0.900000E-01   1.00800           0
     25019 MEMB     187      POPC     C34      CTL2    -0.180000       12.0110           0
     25020 MEMB     187      POPC     H4X      HAL2     0.900000E-01   1.00800           0
     25021 MEMB     187      POPC     H4Y      HAL2     0.900000E-01   1.00800           0
     25022 MEMB     187      POPC     C35      CTL2    -0.180000       12.0110           0
     25023 MEMB     187      POPC     H5X      HAL2     0.900000E-01   1.00800           0
     25024 MEMB     187      POPC     H5Y      HAL2     0.900000E-01   1.00800           0
     25025 MEMB     187      POPC     C36      CTL2    -0.180000       12.0110           0
     25026 MEMB     187      POPC     H6X      HAL2     0.900000E-01   1.00800           0
     25027 MEMB     187      POPC     H6Y      HAL2     0.900000E-01   1.00800           0
     25028 MEMB     187      POPC     C37      CTL2    -0.180000       12.0110           0
     25029 MEMB     187      POPC     H7X      HAL2     0.900000E-01   1.00800           0
     25030 MEMB     187      POPC     H7Y      HAL2     0.900000E-01   1.00800           0
     25031 MEMB     187      POPC     C38      CTL2    -0.180000       12.0110           0
     25032 MEMB     187      POPC     H8X      HAL2     0.900000E-01   1.00800           0
     25033 MEMB     187      POPC     H8Y      HAL2     0.900000E-01   1.00800           0
     25034 MEMB     187      POPC     C39      CTL2    -0.180000       12.0110           0
     25035 MEMB     187      POPC     H9X      HAL2     0.900000E-01   1.00800           0
     25036 MEMB     187      POPC     H9Y      HAL2     0.900000E-01   1.00800           0
     25037 MEMB     187      POPC     C310     CTL2    -0.180000       12.0110           0
     25038 MEMB     187      POPC     H10X     HAL2     0.900000E-01   1.00800           0
     25039 MEMB     187      POPC     H10Y     HAL2     0.900000E-01   1.00800           0
     25040 MEMB     187      POPC     C311     CTL2    -0.180000       12.0110           0
     25041 MEMB     187      POPC     H11X     HAL2     0.900000E-01   1.00800           0
     25042 MEMB     187      POPC     H11Y     HAL2     0.900000E-01   1.00800           0
     25043 MEMB     187      POPC     C312     CTL2    -0.180000       12.0110           0
     25044 MEMB     187      POPC     H12X     HAL2     0.900000E-01   1.00800           0
     25045 MEMB     187      POPC     H12Y     HAL2     0.900000E-01   1.00800           0
     25046 MEMB     187      POPC     C313     CTL2    -0.180000       12.0110           0
     25047 MEMB     187      POPC     H13X     HAL2     0.900000E-01   1.00800           0
     25048 MEMB     187      POPC     H13Y     HAL2     0.900000E-01   1.00800           0
     25049 MEMB     187      POPC     C314     CTL2    -0.180000       12.0110           0
     25050 MEMB     187      POPC     H14X     HAL2     0.900000E-01   1.00800           0
     25051 MEMB     187      POPC     H14Y     HAL2     0.900000E-01   1.00800           0
     25052 MEMB     187      POPC     C315     CTL2    -0.180000       12.0110           0
     25053 MEMB     187      POPC     H15X     HAL2     0.900000E-01   1.00800           0
     25054 MEMB     187      POPC     H15Y     HAL2     0.900000E-01   1.00800           0
     25055 MEMB     187      POPC     C316     CTL3    -0.270000       12.0110           0
     25056 MEMB     187      POPC     H16X     HAL3     0.900000E-01   1.00800           0
     25057 MEMB     187      POPC     H16Y     HAL3     0.900000E-01   1.00800           0
     25058 MEMB     187      POPC     H16Z     HAL3     0.900000E-01   1.00800           0
     25059 MEMB     188      POPC     N        NTL     -0.600000       14.0070           0
     25060 MEMB     188      POPC     C12      CTL2    -0.100000       12.0110           0
     25061 MEMB     188      POPC     H12A     HL       0.250000       1.00800           0
     25062 MEMB     188      POPC     H12B     HL       0.250000       1.00800           0
     25063 MEMB     188      POPC     C13      CTL5    -0.350000       12.0110           0
     25064 MEMB     188      POPC     H13A     HL       0.250000       1.00800           0
     25065 MEMB     188      POPC     H13B     HL       0.250000       1.00800           0
     25066 MEMB     188      POPC     H13C     HL       0.250000       1.00800           0
     25067 MEMB     188      POPC     C14      CTL5    -0.350000       12.0110           0
     25068 MEMB     188      POPC     H14A     HL       0.250000       1.00800           0
     25069 MEMB     188      POPC     H14B     HL       0.250000       1.00800           0
     25070 MEMB     188      POPC     H14C     HL       0.250000       1.00800           0
     25071 MEMB     188      POPC     C15      CTL5    -0.350000       12.0110           0
     25072 MEMB     188      POPC     H15A     HL       0.250000       1.00800           0
     25073 MEMB     188      POPC     H15B     HL       0.250000       1.00800           0
     25074 MEMB     188      POPC     H15C     HL       0.250000       1.00800           0
     25075 MEMB     188      POPC     C11      CTL2    -0.800000E-01   12.0110           0
     25076 MEMB     188      POPC     H11A     HAL2     0.900000E-01   1.00800           0
     25077 MEMB     188      POPC     H11B     HAL2     0.900000E-01   1.00800           0
     25078 MEMB     188      POPC     P        PL       1.50000        30.9740           0
     25079 MEMB     188      POPC     O13      O2L     -0.780000       15.9994           0
     25080 MEMB     188      POPC     O14      O2L     -0.780000       15.9994           0
     25081 MEMB     188      POPC     O12      OSLP    -0.570000       15.9994           0
     25082 MEMB     188      POPC     O11      OSLP    -0.570000       15.9994           0
     25083 MEMB     188      POPC     C1       CTL2    -0.800000E-01   12.0110           0
     25084 MEMB     188      POPC     HA       HAL2     0.900000E-01   1.00800           0
     25085 MEMB     188      POPC     HB       HAL2     0.900000E-01   1.00800           0
     25086 MEMB     188      POPC     C2       CTL1     0.170000       12.0110           0
     25087 MEMB     188      POPC     HS       HAL1     0.900000E-01   1.00800           0
     25088 MEMB     188      POPC     O21      OSL     -0.490000       15.9994           0
     25089 MEMB     188      POPC     C21      CL       0.900000       12.0110           0
     25090 MEMB     188      POPC     O22      OBL     -0.630000       15.9994           0
     25091 MEMB     188      POPC     C22      CTL2    -0.220000       12.0110           0
     25092 MEMB     188      POPC     H2R      HAL2     0.900000E-01   1.00800           0
     25093 MEMB     188      POPC     H2S      HAL2     0.900000E-01   1.00800           0
     25094 MEMB     188      POPC     C3       CTL2     0.800000E-01   12.0110           0
     25095 MEMB     188      POPC     HX       HAL2     0.900000E-01   1.00800           0
     25096 MEMB     188      POPC     HY       HAL2     0.900000E-01   1.00800           0
     25097 MEMB     188      POPC     O31      OSL     -0.490000       15.9994           0
     25098 MEMB     188      POPC     C31      CL       0.900000       12.0110           0
     25099 MEMB     188      POPC     O32      OBL     -0.630000       15.9994           0
     25100 MEMB     188      POPC     C32      CTL2    -0.220000       12.0110           0
     25101 MEMB     188      POPC     H2X      HAL2     0.900000E-01   1.00800           0
     25102 MEMB     188      POPC     H2Y      HAL2     0.900000E-01   1.00800           0
     25103 MEMB     188      POPC     C23      CTL2    -0.180000       12.0110           0
     25104 MEMB     188      POPC     H3R      HAL2     0.900000E-01   1.00800           0
     25105 MEMB     188      POPC     H3S      HAL2     0.900000E-01   1.00800           0
     25106 MEMB     188      POPC     C24      CTL2    -0.180000       12.0110           0
     25107 MEMB     188      POPC     H4R      HAL2     0.900000E-01   1.00800           0
     25108 MEMB     188      POPC     H4S      HAL2     0.900000E-01   1.00800           0
     25109 MEMB     188      POPC     C25      CTL2    -0.180000       12.0110           0
     25110 MEMB     188      POPC     H5R      HAL2     0.900000E-01   1.00800           0
     25111 MEMB     188      POPC     H5S      HAL2     0.900000E-01   1.00800           0
     25112 MEMB     188      POPC     C26      CTL2    -0.180000       12.0110           0
     25113 MEMB     188      POPC     H6R      HAL2     0.900000E-01   1.00800           0
     25114 MEMB     188      POPC     H6S      HAL2     0.900000E-01   1.00800           0
     25115 MEMB     188      POPC     C27      CTL2    -0.180000       12.0110           0
     25116 MEMB     188      POPC     H7R      HAL2     0.900000E-01   1.00800           0
     25117 MEMB     188      POPC     H7S      HAL2     0.900000E-01   1.00800           0
     25118 MEMB     188      POPC     C28      CTL2    -0.180000       12.0110           0
     25119 MEMB     188      POPC     H8R      HAL2     0.900000E-01   1.00800           0
     25120 MEMB     188      POPC     H8S      HAL2     0.900000E-01   1.00800           0
     25121 MEMB     188      POPC     C29      CEL1    -0.150000       12.0110           0
     25122 MEMB     188      POPC     H91      HEL1     0.150000       1.00800           0
     25123 MEMB     188      POPC     C210     CEL1    -0.150000       12.0110           0
     25124 MEMB     188      POPC     H101     HEL1     0.150000       1.00800           0
     25125 MEMB     188      POPC     C211     CTL2    -0.180000       12.0110           0
     25126 MEMB     188      POPC     H11R     HAL2     0.900000E-01   1.00800           0
     25127 MEMB     188      POPC     H11S     HAL2     0.900000E-01   1.00800           0
     25128 MEMB     188      POPC     C212     CTL2    -0.180000       12.0110           0
     25129 MEMB     188      POPC     H12R     HAL2     0.900000E-01   1.00800           0
     25130 MEMB     188      POPC     H12S     HAL2     0.900000E-01   1.00800           0
     25131 MEMB     188      POPC     C213     CTL2    -0.180000       12.0110           0
     25132 MEMB     188      POPC     H13R     HAL2     0.900000E-01   1.00800           0
     25133 MEMB     188      POPC     H13S     HAL2     0.900000E-01   1.00800           0
     25134 MEMB     188      POPC     C214     CTL2    -0.180000       12.0110           0
     25135 MEMB     188      POPC     H14R     HAL2     0.900000E-01   1.00800           0
     25136 MEMB     188      POPC     H14S     HAL2     0.900000E-01   1.00800           0
     25137 MEMB     188      POPC     C215     CTL2    -0.180000       12.0110           0
     25138 MEMB     188      POPC     H15R     HAL2     0.900000E-01   1.00800           0
     25139 MEMB     188      POPC     H15S     HAL2     0.900000E-01   1.00800           0
     25140 MEMB     188      POPC     C216     CTL2    -0.180000       12.0110           0
     25141 MEMB     188      POPC     H16R     HAL2     0.900000E-01   1.00800           0
     25142 MEMB     188      POPC     H16S     HAL2     0.900000E-01   1.00800           0
     25143 MEMB     188      POPC     C217     CTL2    -0.180000       12.0110           0
     25144 MEMB     188      POPC     H17R     HAL2     0.900000E-01   1.00800           0
     25145 MEMB     188      POPC     H17S     HAL2     0.900000E-01   1.00800           0
     25146 MEMB     188      POPC     C218     CTL3    -0.270000       12.0110           0
     25147 MEMB     188      POPC     H18R     HAL3     0.900000E-01   1.00800           0
     25148 MEMB     188      POPC     H18S     HAL3     0.900000E-01   1.00800           0
     25149 MEMB     188      POPC     H18T     HAL3     0.900000E-01   1.00800           0
     25150 MEMB     188      POPC     C33      CTL2    -0.180000       12.0110           0
     25151 MEMB     188      POPC     H3X      HAL2     0.900000E-01   1.00800           0
     25152 MEMB     188      POPC     H3Y      HAL2     0.900000E-01   1.00800           0
     25153 MEMB     188      POPC     C34      CTL2    -0.180000       12.0110           0
     25154 MEMB     188      POPC     H4X      HAL2     0.900000E-01   1.00800           0
     25155 MEMB     188      POPC     H4Y      HAL2     0.900000E-01   1.00800           0
     25156 MEMB     188      POPC     C35      CTL2    -0.180000       12.0110           0
     25157 MEMB     188      POPC     H5X      HAL2     0.900000E-01   1.00800           0
     25158 MEMB     188      POPC     H5Y      HAL2     0.900000E-01   1.00800           0
     25159 MEMB     188      POPC     C36      CTL2    -0.180000       12.0110           0
     25160 MEMB     188      POPC     H6X      HAL2     0.900000E-01   1.00800           0
     25161 MEMB     188      POPC     H6Y      HAL2     0.900000E-01   1.00800           0
     25162 MEMB     188      POPC     C37      CTL2    -0.180000       12.0110           0
     25163 MEMB     188      POPC     H7X      HAL2     0.900000E-01   1.00800           0
     25164 MEMB     188      POPC     H7Y      HAL2     0.900000E-01   1.00800           0
     25165 MEMB     188      POPC     C38      CTL2    -0.180000       12.0110           0
     25166 MEMB     188      POPC     H8X      HAL2     0.900000E-01   1.00800           0
     25167 MEMB     188      POPC     H8Y      HAL2     0.900000E-01   1.00800           0
     25168 MEMB     188      POPC     C39      CTL2    -0.180000       12.0110           0
     25169 MEMB     188      POPC     H9X      HAL2     0.900000E-01   1.00800           0
     25170 MEMB     188      POPC     H9Y      HAL2     0.900000E-01   1.00800           0
     25171 MEMB     188      POPC     C310     CTL2    -0.180000       12.0110           0
     25172 MEMB     188      POPC     H10X     HAL2     0.900000E-01   1.00800           0
     25173 MEMB     188      POPC     H10Y     HAL2     0.900000E-01   1.00800           0
     25174 MEMB     188      POPC     C311     CTL2    -0.180000       12.0110           0
     25175 MEMB     188      POPC     H11X     HAL2     0.900000E-01   1.00800           0
     25176 MEMB     188      POPC     H11Y     HAL2     0.900000E-01   1.00800           0
     25177 MEMB     188      POPC     C312     CTL2    -0.180000       12.0110           0
     25178 MEMB     188      POPC     H12X     HAL2     0.900000E-01   1.00800           0
     25179 MEMB     188      POPC     H12Y     HAL2     0.900000E-01   1.00800           0
     25180 MEMB     188      POPC     C313     CTL2    -0.180000       12.0110           0
     25181 MEMB     188      POPC     H13X     HAL2     0.900000E-01   1.00800           0
     25182 MEMB     188      POPC     H13Y     HAL2     0.900000E-01   1.00800           0
     25183 MEMB     188      POPC     C314     CTL2    -0.180000       12.0110           0
     25184 MEMB     188      POPC     H14X     HAL2     0.900000E-01   1.00800           0
     25185 MEMB     188      POPC     H14Y     HAL2     0.900000E-01   1.00800           0
     25186 MEMB     188      POPC     C315     CTL2    -0.180000       12.0110           0
     25187 MEMB     188      POPC     H15X     HAL2     0.900000E-01   1.00800           0
     25188 MEMB     188      POPC     H15Y     HAL2     0.900000E-01   1.00800           0
     25189 MEMB     188      POPC     C316     CTL3    -0.270000       12.0110           0
     25190 MEMB     188      POPC     H16X     HAL3     0.900000E-01   1.00800           0
     25191 MEMB     188      POPC     H16Y     HAL3     0.900000E-01   1.00800           0
     25192 MEMB     188      POPC     H16Z     HAL3     0.900000E-01   1.00800           0
     25193 MEMB     189      POPC     N        NTL     -0.600000       14.0070           0
     25194 MEMB     189      POPC     C12      CTL2    -0.100000       12.0110           0
     25195 MEMB     189      POPC     H12A     HL       0.250000       1.00800           0
     25196 MEMB     189      POPC     H12B     HL       0.250000       1.00800           0
     25197 MEMB     189      POPC     C13      CTL5    -0.350000       12.0110           0
     25198 MEMB     189      POPC     H13A     HL       0.250000       1.00800           0
     25199 MEMB     189      POPC     H13B     HL       0.250000       1.00800           0
     25200 MEMB     189      POPC     H13C     HL       0.250000       1.00800           0
     25201 MEMB     189      POPC     C14      CTL5    -0.350000       12.0110           0
     25202 MEMB     189      POPC     H14A     HL       0.250000       1.00800           0
     25203 MEMB     189      POPC     H14B     HL       0.250000       1.00800           0
     25204 MEMB     189      POPC     H14C     HL       0.250000       1.00800           0
     25205 MEMB     189      POPC     C15      CTL5    -0.350000       12.0110           0
     25206 MEMB     189      POPC     H15A     HL       0.250000       1.00800           0
     25207 MEMB     189      POPC     H15B     HL       0.250000       1.00800           0
     25208 MEMB     189      POPC     H15C     HL       0.250000       1.00800           0
     25209 MEMB     189      POPC     C11      CTL2    -0.800000E-01   12.0110           0
     25210 MEMB     189      POPC     H11A     HAL2     0.900000E-01   1.00800           0
     25211 MEMB     189      POPC     H11B     HAL2     0.900000E-01   1.00800           0
     25212 MEMB     189      POPC     P        PL       1.50000        30.9740           0
     25213 MEMB     189      POPC     O13      O2L     -0.780000       15.9994           0
     25214 MEMB     189      POPC     O14      O2L     -0.780000       15.9994           0
     25215 MEMB     189      POPC     O12      OSLP    -0.570000       15.9994           0
     25216 MEMB     189      POPC     O11      OSLP    -0.570000       15.9994           0
     25217 MEMB     189      POPC     C1       CTL2    -0.800000E-01   12.0110           0
     25218 MEMB     189      POPC     HA       HAL2     0.900000E-01   1.00800           0
     25219 MEMB     189      POPC     HB       HAL2     0.900000E-01   1.00800           0
     25220 MEMB     189      POPC     C2       CTL1     0.170000       12.0110           0
     25221 MEMB     189      POPC     HS       HAL1     0.900000E-01   1.00800           0
     25222 MEMB     189      POPC     O21      OSL     -0.490000       15.9994           0
     25223 MEMB     189      POPC     C21      CL       0.900000       12.0110           0
     25224 MEMB     189      POPC     O22      OBL     -0.630000       15.9994           0
     25225 MEMB     189      POPC     C22      CTL2    -0.220000       12.0110           0
     25226 MEMB     189      POPC     H2R      HAL2     0.900000E-01   1.00800           0
     25227 MEMB     189      POPC     H2S      HAL2     0.900000E-01   1.00800           0
     25228 MEMB     189      POPC     C3       CTL2     0.800000E-01   12.0110           0
     25229 MEMB     189      POPC     HX       HAL2     0.900000E-01   1.00800           0
     25230 MEMB     189      POPC     HY       HAL2     0.900000E-01   1.00800           0
     25231 MEMB     189      POPC     O31      OSL     -0.490000       15.9994           0
     25232 MEMB     189      POPC     C31      CL       0.900000       12.0110           0
     25233 MEMB     189      POPC     O32      OBL     -0.630000       15.9994           0
     25234 MEMB     189      POPC     C32      CTL2    -0.220000       12.0110           0
     25235 MEMB     189      POPC     H2X      HAL2     0.900000E-01   1.00800           0
     25236 MEMB     189      POPC     H2Y      HAL2     0.900000E-01   1.00800           0
     25237 MEMB     189      POPC     C23      CTL2    -0.180000       12.0110           0
     25238 MEMB     189      POPC     H3R      HAL2     0.900000E-01   1.00800           0
     25239 MEMB     189      POPC     H3S      HAL2     0.900000E-01   1.00800           0
     25240 MEMB     189      POPC     C24      CTL2    -0.180000       12.0110           0
     25241 MEMB     189      POPC     H4R      HAL2     0.900000E-01   1.00800           0
     25242 MEMB     189      POPC     H4S      HAL2     0.900000E-01   1.00800           0
     25243 MEMB     189      POPC     C25      CTL2    -0.180000       12.0110           0
     25244 MEMB     189      POPC     H5R      HAL2     0.900000E-01   1.00800           0
     25245 MEMB     189      POPC     H5S      HAL2     0.900000E-01   1.00800           0
     25246 MEMB     189      POPC     C26      CTL2    -0.180000       12.0110           0
     25247 MEMB     189      POPC     H6R      HAL2     0.900000E-01   1.00800           0
     25248 MEMB     189      POPC     H6S      HAL2     0.900000E-01   1.00800           0
     25249 MEMB     189      POPC     C27      CTL2    -0.180000       12.0110           0
     25250 MEMB     189      POPC     H7R      HAL2     0.900000E-01   1.00800           0
     25251 MEMB     189      POPC     H7S      HAL2     0.900000E-01   1.00800           0
     25252 MEMB     189      POPC     C28      CTL2    -0.180000       12.0110           0
     25253 MEMB     189      POPC     H8R      HAL2     0.900000E-01   1.00800           0
     25254 MEMB     189      POPC     H8S      HAL2     0.900000E-01   1.00800           0
     25255 MEMB     189      POPC     C29      CEL1    -0.150000       12.0110           0
     25256 MEMB     189      POPC     H91      HEL1     0.150000       1.00800           0
     25257 MEMB     189      POPC     C210     CEL1    -0.150000       12.0110           0
     25258 MEMB     189      POPC     H101     HEL1     0.150000       1.00800           0
     25259 MEMB     189      POPC     C211     CTL2    -0.180000       12.0110           0
     25260 MEMB     189      POPC     H11R     HAL2     0.900000E-01   1.00800           0
     25261 MEMB     189      POPC     H11S     HAL2     0.900000E-01   1.00800           0
     25262 MEMB     189      POPC     C212     CTL2    -0.180000       12.0110           0
     25263 MEMB     189      POPC     H12R     HAL2     0.900000E-01   1.00800           0
     25264 MEMB     189      POPC     H12S     HAL2     0.900000E-01   1.00800           0
     25265 MEMB     189      POPC     C213     CTL2    -0.180000       12.0110           0
     25266 MEMB     189      POPC     H13R     HAL2     0.900000E-01   1.00800           0
     25267 MEMB     189      POPC     H13S     HAL2     0.900000E-01   1.00800           0
     25268 MEMB     189      POPC     C214     CTL2    -0.180000       12.0110           0
     25269 MEMB     189      POPC     H14R     HAL2     0.900000E-01   1.00800           0
     25270 MEMB     189      POPC     H14S     HAL2     0.900000E-01   1.00800           0
     25271 MEMB     189      POPC     C215     CTL2    -0.180000       12.0110           0
     25272 MEMB     189      POPC     H15R     HAL2     0.900000E-01   1.00800           0
     25273 MEMB     189      POPC     H15S     HAL2     0.900000E-01   1.00800           0
     25274 MEMB     189      POPC     C216     CTL2    -0.180000       12.0110           0
     25275 MEMB     189      POPC     H16R     HAL2     0.900000E-01   1.00800           0
     25276 MEMB     189      POPC     H16S     HAL2     0.900000E-01   1.00800           0
     25277 MEMB     189      POPC     C217     CTL2    -0.180000       12.0110           0
     25278 MEMB     189      POPC     H17R     HAL2     0.900000E-01   1.00800           0
     25279 MEMB     189      POPC     H17S     HAL2     0.900000E-01   1.00800           0
     25280 MEMB     189      POPC     C218     CTL3    -0.270000       12.0110           0
     25281 MEMB     189      POPC     H18R     HAL3     0.900000E-01   1.00800           0
     25282 MEMB     189      POPC     H18S     HAL3     0.900000E-01   1.00800           0
     25283 MEMB     189      POPC     H18T     HAL3     0.900000E-01   1.00800           0
     25284 MEMB     189      POPC     C33      CTL2    -0.180000       12.0110           0
     25285 MEMB     189      POPC     H3X      HAL2     0.900000E-01   1.00800           0
     25286 MEMB     189      POPC     H3Y      HAL2     0.900000E-01   1.00800           0
     25287 MEMB     189      POPC     C34      CTL2    -0.180000       12.0110           0
     25288 MEMB     189      POPC     H4X      HAL2     0.900000E-01   1.00800           0
     25289 MEMB     189      POPC     H4Y      HAL2     0.900000E-01   1.00800           0
     25290 MEMB     189      POPC     C35      CTL2    -0.180000       12.0110           0
     25291 MEMB     189      POPC     H5X      HAL2     0.900000E-01   1.00800           0
     25292 MEMB     189      POPC     H5Y      HAL2     0.900000E-01   1.00800           0
     25293 MEMB     189      POPC     C36      CTL2    -0.180000       12.0110           0
     25294 MEMB     189      POPC     H6X      HAL2     0.900000E-01   1.00800           0
     25295 MEMB     189      POPC     H6Y      HAL2     0.900000E-01   1.00800           0
     25296 MEMB     189      POPC     C37      CTL2    -0.180000       12.0110           0
     25297 MEMB     189      POPC     H7X      HAL2     0.900000E-01   1.00800           0
     25298 MEMB     189      POPC     H7Y      HAL2     0.900000E-01   1.00800           0
     25299 MEMB     189      POPC     C38      CTL2    -0.180000       12.0110           0
     25300 MEMB     189      POPC     H8X      HAL2     0.900000E-01   1.00800           0
     25301 MEMB     189      POPC     H8Y      HAL2     0.900000E-01   1.00800           0
     25302 MEMB     189      POPC     C39      CTL2    -0.180000       12.0110           0
     25303 MEMB     189      POPC     H9X      HAL2     0.900000E-01   1.00800           0
     25304 MEMB     189      POPC     H9Y      HAL2     0.900000E-01   1.00800           0
     25305 MEMB     189      POPC     C310     CTL2    -0.180000       12.0110           0
     25306 MEMB     189      POPC     H10X     HAL2     0.900000E-01   1.00800           0
     25307 MEMB     189      POPC     H10Y     HAL2     0.900000E-01   1.00800           0
     25308 MEMB     189      POPC     C311     CTL2    -0.180000       12.0110           0
     25309 MEMB     189      POPC     H11X     HAL2     0.900000E-01   1.00800           0
     25310 MEMB     189      POPC     H11Y     HAL2     0.900000E-01   1.00800           0
     25311 MEMB     189      POPC     C312     CTL2    -0.180000       12.0110           0
     25312 MEMB     189      POPC     H12X     HAL2     0.900000E-01   1.00800           0
     25313 MEMB     189      POPC     H12Y     HAL2     0.900000E-01   1.00800           0
     25314 MEMB     189      POPC     C313     CTL2    -0.180000       12.0110           0
     25315 MEMB     189      POPC     H13X     HAL2     0.900000E-01   1.00800           0
     25316 MEMB     189      POPC     H13Y     HAL2     0.900000E-01   1.00800           0
     25317 MEMB     189      POPC     C314     CTL2    -0.180000       12.0110           0
     25318 MEMB     189      POPC     H14X     HAL2     0.900000E-01   1.00800           0
     25319 MEMB     189      POPC     H14Y     HAL2     0.900000E-01   1.00800           0
     25320 MEMB     189      POPC     C315     CTL2    -0.180000       12.0110           0
     25321 MEMB     189      POPC     H15X     HAL2     0.900000E-01   1.00800           0
     25322 MEMB     189      POPC     H15Y     HAL2     0.900000E-01   1.00800           0
     25323 MEMB     189      POPC     C316     CTL3    -0.270000       12.0110           0
     25324 MEMB     189      POPC     H16X     HAL3     0.900000E-01   1.00800           0
     25325 MEMB     189      POPC     H16Y     HAL3     0.900000E-01   1.00800           0
     25326 MEMB     189      POPC     H16Z     HAL3     0.900000E-01   1.00800           0
     25327 MEMB     190      POPC     N        NTL     -0.600000       14.0070           0
     25328 MEMB     190      POPC     C12      CTL2    -0.100000       12.0110           0
     25329 MEMB     190      POPC     H12A     HL       0.250000       1.00800           0
     25330 MEMB     190      POPC     H12B     HL       0.250000       1.00800           0
     25331 MEMB     190      POPC     C13      CTL5    -0.350000       12.0110           0
     25332 MEMB     190      POPC     H13A     HL       0.250000       1.00800           0
     25333 MEMB     190      POPC     H13B     HL       0.250000       1.00800           0
     25334 MEMB     190      POPC     H13C     HL       0.250000       1.00800           0
     25335 MEMB     190      POPC     C14      CTL5    -0.350000       12.0110           0
     25336 MEMB     190      POPC     H14A     HL       0.250000       1.00800           0
     25337 MEMB     190      POPC     H14B     HL       0.250000       1.00800           0
     25338 MEMB     190      POPC     H14C     HL       0.250000       1.00800           0
     25339 MEMB     190      POPC     C15      CTL5    -0.350000       12.0110           0
     25340 MEMB     190      POPC     H15A     HL       0.250000       1.00800           0
     25341 MEMB     190      POPC     H15B     HL       0.250000       1.00800           0
     25342 MEMB     190      POPC     H15C     HL       0.250000       1.00800           0
     25343 MEMB     190      POPC     C11      CTL2    -0.800000E-01   12.0110           0
     25344 MEMB     190      POPC     H11A     HAL2     0.900000E-01   1.00800           0
     25345 MEMB     190      POPC     H11B     HAL2     0.900000E-01   1.00800           0
     25346 MEMB     190      POPC     P        PL       1.50000        30.9740           0
     25347 MEMB     190      POPC     O13      O2L     -0.780000       15.9994           0
     25348 MEMB     190      POPC     O14      O2L     -0.780000       15.9994           0
     25349 MEMB     190      POPC     O12      OSLP    -0.570000       15.9994           0
     25350 MEMB     190      POPC     O11      OSLP    -0.570000       15.9994           0
     25351 MEMB     190      POPC     C1       CTL2    -0.800000E-01   12.0110           0
     25352 MEMB     190      POPC     HA       HAL2     0.900000E-01   1.00800           0
     25353 MEMB     190      POPC     HB       HAL2     0.900000E-01   1.00800           0
     25354 MEMB     190      POPC     C2       CTL1     0.170000       12.0110           0
     25355 MEMB     190      POPC     HS       HAL1     0.900000E-01   1.00800           0
     25356 MEMB     190      POPC     O21      OSL     -0.490000       15.9994           0
     25357 MEMB     190      POPC     C21      CL       0.900000       12.0110           0
     25358 MEMB     190      POPC     O22      OBL     -0.630000       15.9994           0
     25359 MEMB     190      POPC     C22      CTL2    -0.220000       12.0110           0
     25360 MEMB     190      POPC     H2R      HAL2     0.900000E-01   1.00800           0
     25361 MEMB     190      POPC     H2S      HAL2     0.900000E-01   1.00800           0
     25362 MEMB     190      POPC     C3       CTL2     0.800000E-01   12.0110           0
     25363 MEMB     190      POPC     HX       HAL2     0.900000E-01   1.00800           0
     25364 MEMB     190      POPC     HY       HAL2     0.900000E-01   1.00800           0
     25365 MEMB     190      POPC     O31      OSL     -0.490000       15.9994           0
     25366 MEMB     190      POPC     C31      CL       0.900000       12.0110           0
     25367 MEMB     190      POPC     O32      OBL     -0.630000       15.9994           0
     25368 MEMB     190      POPC     C32      CTL2    -0.220000       12.0110           0
     25369 MEMB     190      POPC     H2X      HAL2     0.900000E-01   1.00800           0
     25370 MEMB     190      POPC     H2Y      HAL2     0.900000E-01   1.00800           0
     25371 MEMB     190      POPC     C23      CTL2    -0.180000       12.0110           0
     25372 MEMB     190      POPC     H3R      HAL2     0.900000E-01   1.00800           0
     25373 MEMB     190      POPC     H3S      HAL2     0.900000E-01   1.00800           0
     25374 MEMB     190      POPC     C24      CTL2    -0.180000       12.0110           0
     25375 MEMB     190      POPC     H4R      HAL2     0.900000E-01   1.00800           0
     25376 MEMB     190      POPC     H4S      HAL2     0.900000E-01   1.00800           0
     25377 MEMB     190      POPC     C25      CTL2    -0.180000       12.0110           0
     25378 MEMB     190      POPC     H5R      HAL2     0.900000E-01   1.00800           0
     25379 MEMB     190      POPC     H5S      HAL2     0.900000E-01   1.00800           0
     25380 MEMB     190      POPC     C26      CTL2    -0.180000       12.0110           0
     25381 MEMB     190      POPC     H6R      HAL2     0.900000E-01   1.00800           0
     25382 MEMB     190      POPC     H6S      HAL2     0.900000E-01   1.00800           0
     25383 MEMB     190      POPC     C27      CTL2    -0.180000       12.0110           0
     25384 MEMB     190      POPC     H7R      HAL2     0.900000E-01   1.00800           0
     25385 MEMB     190      POPC     H7S      HAL2     0.900000E-01   1.00800           0
     25386 MEMB     190      POPC     C28      CTL2    -0.180000       12.0110           0
     25387 MEMB     190      POPC     H8R      HAL2     0.900000E-01   1.00800           0
     25388 MEMB     190      POPC     H8S      HAL2     0.900000E-01   1.00800           0
     25389 MEMB     190      POPC     C29      CEL1    -0.150000       12.0110           0
     25390 MEMB     190      POPC     H91      HEL1     0.150000       1.00800           0
     25391 MEMB     190      POPC     C210     CEL1    -0.150000       12.0110           0
     25392 MEMB     190      POPC     H101     HEL1     0.150000       1.00800           0
     25393 MEMB     190      POPC     C211     CTL2    -0.180000       12.0110           0
     25394 MEMB     190      POPC     H11R     HAL2     0.900000E-01   1.00800           0
     25395 MEMB     190      POPC     H11S     HAL2     0.900000E-01   1.00800           0
     25396 MEMB     190      POPC     C212     CTL2    -0.180000       12.0110           0
     25397 MEMB     190      POPC     H12R     HAL2     0.900000E-01   1.00800           0
     25398 MEMB     190      POPC     H12S     HAL2     0.900000E-01   1.00800           0
     25399 MEMB     190      POPC     C213     CTL2    -0.180000       12.0110           0
     25400 MEMB     190      POPC     H13R     HAL2     0.900000E-01   1.00800           0
     25401 MEMB     190      POPC     H13S     HAL2     0.900000E-01   1.00800           0
     25402 MEMB     190      POPC     C214     CTL2    -0.180000       12.0110           0
     25403 MEMB     190      POPC     H14R     HAL2     0.900000E-01   1.00800           0
     25404 MEMB     190      POPC     H14S     HAL2     0.900000E-01   1.00800           0
     25405 MEMB     190      POPC     C215     CTL2    -0.180000       12.0110           0
     25406 MEMB     190      POPC     H15R     HAL2     0.900000E-01   1.00800           0
     25407 MEMB     190      POPC     H15S     HAL2     0.900000E-01   1.00800           0
     25408 MEMB     190      POPC     C216     CTL2    -0.180000       12.0110           0
     25409 MEMB     190      POPC     H16R     HAL2     0.900000E-01   1.00800           0
     25410 MEMB     190      POPC     H16S     HAL2     0.900000E-01   1.00800           0
     25411 MEMB     190      POPC     C217     CTL2    -0.180000       12.0110           0
     25412 MEMB     190      POPC     H17R     HAL2     0.900000E-01   1.00800           0
     25413 MEMB     190      POPC     H17S     HAL2     0.900000E-01   1.00800           0
     25414 MEMB     190      POPC     C218     CTL3    -0.270000       12.0110           0
     25415 MEMB     190      POPC     H18R     HAL3     0.900000E-01   1.00800           0
     25416 MEMB     190      POPC     H18S     HAL3     0.900000E-01   1.00800           0
     25417 MEMB     190      POPC     H18T     HAL3     0.900000E-01   1.00800           0
     25418 MEMB     190      POPC     C33      CTL2    -0.180000       12.0110           0
     25419 MEMB     190      POPC     H3X      HAL2     0.900000E-01   1.00800           0
     25420 MEMB     190      POPC     H3Y      HAL2     0.900000E-01   1.00800           0
     25421 MEMB     190      POPC     C34      CTL2    -0.180000       12.0110           0
     25422 MEMB     190      POPC     H4X      HAL2     0.900000E-01   1.00800           0
     25423 MEMB     190      POPC     H4Y      HAL2     0.900000E-01   1.00800           0
     25424 MEMB     190      POPC     C35      CTL2    -0.180000       12.0110           0
     25425 MEMB     190      POPC     H5X      HAL2     0.900000E-01   1.00800           0
     25426 MEMB     190      POPC     H5Y      HAL2     0.900000E-01   1.00800           0
     25427 MEMB     190      POPC     C36      CTL2    -0.180000       12.0110           0
     25428 MEMB     190      POPC     H6X      HAL2     0.900000E-01   1.00800           0
     25429 MEMB     190      POPC     H6Y      HAL2     0.900000E-01   1.00800           0
     25430 MEMB     190      POPC     C37      CTL2    -0.180000       12.0110           0
     25431 MEMB     190      POPC     H7X      HAL2     0.900000E-01   1.00800           0
     25432 MEMB     190      POPC     H7Y      HAL2     0.900000E-01   1.00800           0
     25433 MEMB     190      POPC     C38      CTL2    -0.180000       12.0110           0
     25434 MEMB     190      POPC     H8X      HAL2     0.900000E-01   1.00800           0
     25435 MEMB     190      POPC     H8Y      HAL2     0.900000E-01   1.00800           0
     25436 MEMB     190      POPC     C39      CTL2    -0.180000       12.0110           0
     25437 MEMB     190      POPC     H9X      HAL2     0.900000E-01   1.00800           0
     25438 MEMB     190      POPC     H9Y      HAL2     0.900000E-01   1.00800           0
     25439 MEMB     190      POPC     C310     CTL2    -0.180000       12.0110           0
     25440 MEMB     190      POPC     H10X     HAL2     0.900000E-01   1.00800           0
     25441 MEMB     190      POPC     H10Y     HAL2     0.900000E-01   1.00800           0
     25442 MEMB     190      POPC     C311     CTL2    -0.180000       12.0110           0
     25443 MEMB     190      POPC     H11X     HAL2     0.900000E-01   1.00800           0
     25444 MEMB     190      POPC     H11Y     HAL2     0.900000E-01   1.00800           0
     25445 MEMB     190      POPC     C312     CTL2    -0.180000       12.0110           0
     25446 MEMB     190      POPC     H12X     HAL2     0.900000E-01   1.00800           0
     25447 MEMB     190      POPC     H12Y     HAL2     0.900000E-01   1.00800           0
     25448 MEMB     190      POPC     C313     CTL2    -0.180000       12.0110           0
     25449 MEMB     190      POPC     H13X     HAL2     0.900000E-01   1.00800           0
     25450 MEMB     190      POPC     H13Y     HAL2     0.900000E-01   1.00800           0
     25451 MEMB     190      POPC     C314     CTL2    -0.180000       12.0110           0
     25452 MEMB     190      POPC     H14X     HAL2     0.900000E-01   1.00800           0
     25453 MEMB     190      POPC     H14Y     HAL2     0.900000E-01   1.00800           0
     25454 MEMB     190      POPC     C315     CTL2    -0.180000       12.0110           0
     25455 MEMB     190      POPC     H15X     HAL2     0.900000E-01   1.00800           0
     25456 MEMB     190      POPC     H15Y     HAL2     0.900000E-01   1.00800           0
     25457 MEMB     190      POPC     C316     CTL3    -0.270000       12.0110           0
     25458 MEMB     190      POPC     H16X     HAL3     0.900000E-01   1.00800           0
     25459 MEMB     190      POPC     H16Y     HAL3     0.900000E-01   1.00800           0
     25460 MEMB     190      POPC     H16Z     HAL3     0.900000E-01   1.00800           0
     25461 MEMB     191      POPC     N        NTL     -0.600000       14.0070           0
     25462 MEMB     191      POPC     C12      CTL2    -0.100000       12.0110           0
     25463 MEMB     191      POPC     H12A     HL       0.250000       1.00800           0
     25464 MEMB     191      POPC     H12B     HL       0.250000       1.00800           0
     25465 MEMB     191      POPC     C13      CTL5    -0.350000       12.0110           0
     25466 MEMB     191      POPC     H13A     HL       0.250000       1.00800           0
     25467 MEMB     191      POPC     H13B     HL       0.250000       1.00800           0
     25468 MEMB     191      POPC     H13C     HL       0.250000       1.00800           0
     25469 MEMB     191      POPC     C14      CTL5    -0.350000       12.0110           0
     25470 MEMB     191      POPC     H14A     HL       0.250000       1.00800           0
     25471 MEMB     191      POPC     H14B     HL       0.250000       1.00800           0
     25472 MEMB     191      POPC     H14C     HL       0.250000       1.00800           0
     25473 MEMB     191      POPC     C15      CTL5    -0.350000       12.0110           0
     25474 MEMB     191      POPC     H15A     HL       0.250000       1.00800           0
     25475 MEMB     191      POPC     H15B     HL       0.250000       1.00800           0
     25476 MEMB     191      POPC     H15C     HL       0.250000       1.00800           0
     25477 MEMB     191      POPC     C11      CTL2    -0.800000E-01   12.0110           0
     25478 MEMB     191      POPC     H11A     HAL2     0.900000E-01   1.00800           0
     25479 MEMB     191      POPC     H11B     HAL2     0.900000E-01   1.00800           0
     25480 MEMB     191      POPC     P        PL       1.50000        30.9740           0
     25481 MEMB     191      POPC     O13      O2L     -0.780000       15.9994           0
     25482 MEMB     191      POPC     O14      O2L     -0.780000       15.9994           0
     25483 MEMB     191      POPC     O12      OSLP    -0.570000       15.9994           0
     25484 MEMB     191      POPC     O11      OSLP    -0.570000       15.9994           0
     25485 MEMB     191      POPC     C1       CTL2    -0.800000E-01   12.0110           0
     25486 MEMB     191      POPC     HA       HAL2     0.900000E-01   1.00800           0
     25487 MEMB     191      POPC     HB       HAL2     0.900000E-01   1.00800           0
     25488 MEMB     191      POPC     C2       CTL1     0.170000       12.0110           0
     25489 MEMB     191      POPC     HS       HAL1     0.900000E-01   1.00800           0
     25490 MEMB     191      POPC     O21      OSL     -0.490000       15.9994           0
     25491 MEMB     191      POPC     C21      CL       0.900000       12.0110           0
     25492 MEMB     191      POPC     O22      OBL     -0.630000       15.9994           0
     25493 MEMB     191      POPC     C22      CTL2    -0.220000       12.0110           0
     25494 MEMB     191      POPC     H2R      HAL2     0.900000E-01   1.00800           0
     25495 MEMB     191      POPC     H2S      HAL2     0.900000E-01   1.00800           0
     25496 MEMB     191      POPC     C3       CTL2     0.800000E-01   12.0110           0
     25497 MEMB     191      POPC     HX       HAL2     0.900000E-01   1.00800           0
     25498 MEMB     191      POPC     HY       HAL2     0.900000E-01   1.00800           0
     25499 MEMB     191      POPC     O31      OSL     -0.490000       15.9994           0
     25500 MEMB     191      POPC     C31      CL       0.900000       12.0110           0
     25501 MEMB     191      POPC     O32      OBL     -0.630000       15.9994           0
     25502 MEMB     191      POPC     C32      CTL2    -0.220000       12.0110           0
     25503 MEMB     191      POPC     H2X      HAL2     0.900000E-01   1.00800           0
     25504 MEMB     191      POPC     H2Y      HAL2     0.900000E-01   1.00800           0
     25505 MEMB     191      POPC     C23      CTL2    -0.180000       12.0110           0
     25506 MEMB     191      POPC     H3R      HAL2     0.900000E-01   1.00800           0
     25507 MEMB     191      POPC     H3S      HAL2     0.900000E-01   1.00800           0
     25508 MEMB     191      POPC     C24      CTL2    -0.180000       12.0110           0
     25509 MEMB     191      POPC     H4R      HAL2     0.900000E-01   1.00800           0
     25510 MEMB     191      POPC     H4S      HAL2     0.900000E-01   1.00800           0
     25511 MEMB     191      POPC     C25      CTL2    -0.180000       12.0110           0
     25512 MEMB     191      POPC     H5R      HAL2     0.900000E-01   1.00800           0
     25513 MEMB     191      POPC     H5S      HAL2     0.900000E-01   1.00800           0
     25514 MEMB     191      POPC     C26      CTL2    -0.180000       12.0110           0
     25515 MEMB     191      POPC     H6R      HAL2     0.900000E-01   1.00800           0
     25516 MEMB     191      POPC     H6S      HAL2     0.900000E-01   1.00800           0
     25517 MEMB     191      POPC     C27      CTL2    -0.180000       12.0110           0
     25518 MEMB     191      POPC     H7R      HAL2     0.900000E-01   1.00800           0
     25519 MEMB     191      POPC     H7S      HAL2     0.900000E-01   1.00800           0
     25520 MEMB     191      POPC     C28      CTL2    -0.180000       12.0110           0
     25521 MEMB     191      POPC     H8R      HAL2     0.900000E-01   1.00800           0
     25522 MEMB     191      POPC     H8S      HAL2     0.900000E-01   1.00800           0
     25523 MEMB     191      POPC     C29      CEL1    -0.150000       12.0110           0
     25524 MEMB     191      POPC     H91      HEL1     0.150000       1.00800           0
     25525 MEMB     191      POPC     C210     CEL1    -0.150000       12.0110           0
     25526 MEMB     191      POPC     H101     HEL1     0.150000       1.00800           0
     25527 MEMB     191      POPC     C211     CTL2    -0.180000       12.0110           0
     25528 MEMB     191      POPC     H11R     HAL2     0.900000E-01   1.00800           0
     25529 MEMB     191      POPC     H11S     HAL2     0.900000E-01   1.00800           0
     25530 MEMB     191      POPC     C212     CTL2    -0.180000       12.0110           0
     25531 MEMB     191      POPC     H12R     HAL2     0.900000E-01   1.00800           0
     25532 MEMB     191      POPC     H12S     HAL2     0.900000E-01   1.00800           0
     25533 MEMB     191      POPC     C213     CTL2    -0.180000       12.0110           0
     25534 MEMB     191      POPC     H13R     HAL2     0.900000E-01   1.00800           0
     25535 MEMB     191      POPC     H13S     HAL2     0.900000E-01   1.00800           0
     25536 MEMB     191      POPC     C214     CTL2    -0.180000       12.0110           0
     25537 MEMB     191      POPC     H14R     HAL2     0.900000E-01   1.00800           0
     25538 MEMB     191      POPC     H14S     HAL2     0.900000E-01   1.00800           0
     25539 MEMB     191      POPC     C215     CTL2    -0.180000       12.0110           0
     25540 MEMB     191      POPC     H15R     HAL2     0.900000E-01   1.00800           0
     25541 MEMB     191      POPC     H15S     HAL2     0.900000E-01   1.00800           0
     25542 MEMB     191      POPC     C216     CTL2    -0.180000       12.0110           0
     25543 MEMB     191      POPC     H16R     HAL2     0.900000E-01   1.00800           0
     25544 MEMB     191      POPC     H16S     HAL2     0.900000E-01   1.00800           0
     25545 MEMB     191      POPC     C217     CTL2    -0.180000       12.0110           0
     25546 MEMB     191      POPC     H17R     HAL2     0.900000E-01   1.00800           0
     25547 MEMB     191      POPC     H17S     HAL2     0.900000E-01   1.00800           0
     25548 MEMB     191      POPC     C218     CTL3    -0.270000       12.0110           0
     25549 MEMB     191      POPC     H18R     HAL3     0.900000E-01   1.00800           0
     25550 MEMB     191      POPC     H18S     HAL3     0.900000E-01   1.00800           0
     25551 MEMB     191      POPC     H18T     HAL3     0.900000E-01   1.00800           0
     25552 MEMB     191      POPC     C33      CTL2    -0.180000       12.0110           0
     25553 MEMB     191      POPC     H3X      HAL2     0.900000E-01   1.00800           0
     25554 MEMB     191      POPC     H3Y      HAL2     0.900000E-01   1.00800           0
     25555 MEMB     191      POPC     C34      CTL2    -0.180000       12.0110           0
     25556 MEMB     191      POPC     H4X      HAL2     0.900000E-01   1.00800           0
     25557 MEMB     191      POPC     H4Y      HAL2     0.900000E-01   1.00800           0
     25558 MEMB     191      POPC     C35      CTL2    -0.180000       12.0110           0
     25559 MEMB     191      POPC     H5X      HAL2     0.900000E-01   1.00800           0
     25560 MEMB     191      POPC     H5Y      HAL2     0.900000E-01   1.00800           0
     25561 MEMB     191      POPC     C36      CTL2    -0.180000       12.0110           0
     25562 MEMB     191      POPC     H6X      HAL2     0.900000E-01   1.00800           0
     25563 MEMB     191      POPC     H6Y      HAL2     0.900000E-01   1.00800           0
     25564 MEMB     191      POPC     C37      CTL2    -0.180000       12.0110           0
     25565 MEMB     191      POPC     H7X      HAL2     0.900000E-01   1.00800           0
     25566 MEMB     191      POPC     H7Y      HAL2     0.900000E-01   1.00800           0
     25567 MEMB     191      POPC     C38      CTL2    -0.180000       12.0110           0
     25568 MEMB     191      POPC     H8X      HAL2     0.900000E-01   1.00800           0
     25569 MEMB     191      POPC     H8Y      HAL2     0.900000E-01   1.00800           0
     25570 MEMB     191      POPC     C39      CTL2    -0.180000       12.0110           0
     25571 MEMB     191      POPC     H9X      HAL2     0.900000E-01   1.00800           0
     25572 MEMB     191      POPC     H9Y      HAL2     0.900000E-01   1.00800           0
     25573 MEMB     191      POPC     C310     CTL2    -0.180000       12.0110           0
     25574 MEMB     191      POPC     H10X     HAL2     0.900000E-01   1.00800           0
     25575 MEMB     191      POPC     H10Y     HAL2     0.900000E-01   1.00800           0
     25576 MEMB     191      POPC     C311     CTL2    -0.180000       12.0110           0
     25577 MEMB     191      POPC     H11X     HAL2     0.900000E-01   1.00800           0
     25578 MEMB     191      POPC     H11Y     HAL2     0.900000E-01   1.00800           0
     25579 MEMB     191      POPC     C312     CTL2    -0.180000       12.0110           0
     25580 MEMB     191      POPC     H12X     HAL2     0.900000E-01   1.00800           0
     25581 MEMB     191      POPC     H12Y     HAL2     0.900000E-01   1.00800           0
     25582 MEMB     191      POPC     C313     CTL2    -0.180000       12.0110           0
     25583 MEMB     191      POPC     H13X     HAL2     0.900000E-01   1.00800           0
     25584 MEMB     191      POPC     H13Y     HAL2     0.900000E-01   1.00800           0
     25585 MEMB     191      POPC     C314     CTL2    -0.180000       12.0110           0
     25586 MEMB     191      POPC     H14X     HAL2     0.900000E-01   1.00800           0
     25587 MEMB     191      POPC     H14Y     HAL2     0.900000E-01   1.00800           0
     25588 MEMB     191      POPC     C315     CTL2    -0.180000       12.0110           0
     25589 MEMB     191      POPC     H15X     HAL2     0.900000E-01   1.00800           0
     25590 MEMB     191      POPC     H15Y     HAL2     0.900000E-01   1.00800           0
     25591 MEMB     191      POPC     C316     CTL3    -0.270000       12.0110           0
     25592 MEMB     191      POPC     H16X     HAL3     0.900000E-01   1.00800           0
     25593 MEMB     191      POPC     H16Y     HAL3     0.900000E-01   1.00800           0
     25594 MEMB     191      POPC     H16Z     HAL3     0.900000E-01   1.00800           0
     25595 MEMB     192      POPC     N        NTL     -0.600000       14.0070           0
     25596 MEMB     192      POPC     C12      CTL2    -0.100000       12.0110           0
     25597 MEMB     192      POPC     H12A     HL       0.250000       1.00800           0
     25598 MEMB     192      POPC     H12B     HL       0.250000       1.00800           0
     25599 MEMB     192      POPC     C13      CTL5    -0.350000       12.0110           0
     25600 MEMB     192      POPC     H13A     HL       0.250000       1.00800           0
     25601 MEMB     192      POPC     H13B     HL       0.250000       1.00800           0
     25602 MEMB     192      POPC     H13C     HL       0.250000       1.00800           0
     25603 MEMB     192      POPC     C14      CTL5    -0.350000       12.0110           0
     25604 MEMB     192      POPC     H14A     HL       0.250000       1.00800           0
     25605 MEMB     192      POPC     H14B     HL       0.250000       1.00800           0
     25606 MEMB     192      POPC     H14C     HL       0.250000       1.00800           0
     25607 MEMB     192      POPC     C15      CTL5    -0.350000       12.0110           0
     25608 MEMB     192      POPC     H15A     HL       0.250000       1.00800           0
     25609 MEMB     192      POPC     H15B     HL       0.250000       1.00800           0
     25610 MEMB     192      POPC     H15C     HL       0.250000       1.00800           0
     25611 MEMB     192      POPC     C11      CTL2    -0.800000E-01   12.0110           0
     25612 MEMB     192      POPC     H11A     HAL2     0.900000E-01   1.00800           0
     25613 MEMB     192      POPC     H11B     HAL2     0.900000E-01   1.00800           0
     25614 MEMB     192      POPC     P        PL       1.50000        30.9740           0
     25615 MEMB     192      POPC     O13      O2L     -0.780000       15.9994           0
     25616 MEMB     192      POPC     O14      O2L     -0.780000       15.9994           0
     25617 MEMB     192      POPC     O12      OSLP    -0.570000       15.9994           0
     25618 MEMB     192      POPC     O11      OSLP    -0.570000       15.9994           0
     25619 MEMB     192      POPC     C1       CTL2    -0.800000E-01   12.0110           0
     25620 MEMB     192      POPC     HA       HAL2     0.900000E-01   1.00800           0
     25621 MEMB     192      POPC     HB       HAL2     0.900000E-01   1.00800           0
     25622 MEMB     192      POPC     C2       CTL1     0.170000       12.0110           0
     25623 MEMB     192      POPC     HS       HAL1     0.900000E-01   1.00800           0
     25624 MEMB     192      POPC     O21      OSL     -0.490000       15.9994           0
     25625 MEMB     192      POPC     C21      CL       0.900000       12.0110           0
     25626 MEMB     192      POPC     O22      OBL     -0.630000       15.9994           0
     25627 MEMB     192      POPC     C22      CTL2    -0.220000       12.0110           0
     25628 MEMB     192      POPC     H2R      HAL2     0.900000E-01   1.00800           0
     25629 MEMB     192      POPC     H2S      HAL2     0.900000E-01   1.00800           0
     25630 MEMB     192      POPC     C3       CTL2     0.800000E-01   12.0110           0
     25631 MEMB     192      POPC     HX       HAL2     0.900000E-01   1.00800           0
     25632 MEMB     192      POPC     HY       HAL2     0.900000E-01   1.00800           0
     25633 MEMB     192      POPC     O31      OSL     -0.490000       15.9994           0
     25634 MEMB     192      POPC     C31      CL       0.900000       12.0110           0
     25635 MEMB     192      POPC     O32      OBL     -0.630000       15.9994           0
     25636 MEMB     192      POPC     C32      CTL2    -0.220000       12.0110           0
     25637 MEMB     192      POPC     H2X      HAL2     0.900000E-01   1.00800           0
     25638 MEMB     192      POPC     H2Y      HAL2     0.900000E-01   1.00800           0
     25639 MEMB     192      POPC     C23      CTL2    -0.180000       12.0110           0
     25640 MEMB     192      POPC     H3R      HAL2     0.900000E-01   1.00800           0
     25641 MEMB     192      POPC     H3S      HAL2     0.900000E-01   1.00800           0
     25642 MEMB     192      POPC     C24      CTL2    -0.180000       12.0110           0
     25643 MEMB     192      POPC     H4R      HAL2     0.900000E-01   1.00800           0
     25644 MEMB     192      POPC     H4S      HAL2     0.900000E-01   1.00800           0
     25645 MEMB     192      POPC     C25      CTL2    -0.180000       12.0110           0
     25646 MEMB     192      POPC     H5R      HAL2     0.900000E-01   1.00800           0
     25647 MEMB     192      POPC     H5S      HAL2     0.900000E-01   1.00800           0
     25648 MEMB     192      POPC     C26      CTL2    -0.180000       12.0110           0
     25649 MEMB     192      POPC     H6R      HAL2     0.900000E-01   1.00800           0
     25650 MEMB     192      POPC     H6S      HAL2     0.900000E-01   1.00800           0
     25651 MEMB     192      POPC     C27      CTL2    -0.180000       12.0110           0
     25652 MEMB     192      POPC     H7R      HAL2     0.900000E-01   1.00800           0
     25653 MEMB     192      POPC     H7S      HAL2     0.900000E-01   1.00800           0
     25654 MEMB     192      POPC     C28      CTL2    -0.180000       12.0110           0
     25655 MEMB     192      POPC     H8R      HAL2     0.900000E-01   1.00800           0
     25656 MEMB     192      POPC     H8S      HAL2     0.900000E-01   1.00800           0
     25657 MEMB     192      POPC     C29      CEL1    -0.150000       12.0110           0
     25658 MEMB     192      POPC     H91      HEL1     0.150000       1.00800           0
     25659 MEMB     192      POPC     C210     CEL1    -0.150000       12.0110           0
     25660 MEMB     192      POPC     H101     HEL1     0.150000       1.00800           0
     25661 MEMB     192      POPC     C211     CTL2    -0.180000       12.0110           0
     25662 MEMB     192      POPC     H11R     HAL2     0.900000E-01   1.00800           0
     25663 MEMB     192      POPC     H11S     HAL2     0.900000E-01   1.00800           0
     25664 MEMB     192      POPC     C212     CTL2    -0.180000       12.0110           0
     25665 MEMB     192      POPC     H12R     HAL2     0.900000E-01   1.00800           0
     25666 MEMB     192      POPC     H12S     HAL2     0.900000E-01   1.00800           0
     25667 MEMB     192      POPC     C213     CTL2    -0.180000       12.0110           0
     25668 MEMB     192      POPC     H13R     HAL2     0.900000E-01   1.00800           0
     25669 MEMB     192      POPC     H13S     HAL2     0.900000E-01   1.00800           0
     25670 MEMB     192      POPC     C214     CTL2    -0.180000       12.0110           0
     25671 MEMB     192      POPC     H14R     HAL2     0.900000E-01   1.00800           0
     25672 MEMB     192      POPC     H14S     HAL2     0.900000E-01   1.00800           0
     25673 MEMB     192      POPC     C215     CTL2    -0.180000       12.0110           0
     25674 MEMB     192      POPC     H15R     HAL2     0.900000E-01   1.00800           0
     25675 MEMB     192      POPC     H15S     HAL2     0.900000E-01   1.00800           0
     25676 MEMB     192      POPC     C216     CTL2    -0.180000       12.0110           0
     25677 MEMB     192      POPC     H16R     HAL2     0.900000E-01   1.00800           0
     25678 MEMB     192      POPC     H16S     HAL2     0.900000E-01   1.00800           0
     25679 MEMB     192      POPC     C217     CTL2    -0.180000       12.0110           0
     25680 MEMB     192      POPC     H17R     HAL2     0.900000E-01   1.00800           0
     25681 MEMB     192      POPC     H17S     HAL2     0.900000E-01   1.00800           0
     25682 MEMB     192      POPC     C218     CTL3    -0.270000       12.0110           0
     25683 MEMB     192      POPC     H18R     HAL3     0.900000E-01   1.00800           0
     25684 MEMB     192      POPC     H18S     HAL3     0.900000E-01   1.00800           0
     25685 MEMB     192      POPC     H18T     HAL3     0.900000E-01   1.00800           0
     25686 MEMB     192      POPC     C33      CTL2    -0.180000       12.0110           0
     25687 MEMB     192      POPC     H3X      HAL2     0.900000E-01   1.00800           0
     25688 MEMB     192      POPC     H3Y      HAL2     0.900000E-01   1.00800           0
     25689 MEMB     192      POPC     C34      CTL2    -0.180000       12.0110           0
     25690 MEMB     192      POPC     H4X      HAL2     0.900000E-01   1.00800           0
     25691 MEMB     192      POPC     H4Y      HAL2     0.900000E-01   1.00800           0
     25692 MEMB     192      POPC     C35      CTL2    -0.180000       12.0110           0
     25693 MEMB     192      POPC     H5X      HAL2     0.900000E-01   1.00800           0
     25694 MEMB     192      POPC     H5Y      HAL2     0.900000E-01   1.00800           0
     25695 MEMB     192      POPC     C36      CTL2    -0.180000       12.0110           0
     25696 MEMB     192      POPC     H6X      HAL2     0.900000E-01   1.00800           0
     25697 MEMB     192      POPC     H6Y      HAL2     0.900000E-01   1.00800           0
     25698 MEMB     192      POPC     C37      CTL2    -0.180000       12.0110           0
     25699 MEMB     192      POPC     H7X      HAL2     0.900000E-01   1.00800           0
     25700 MEMB     192      POPC     H7Y      HAL2     0.900000E-01   1.00800           0
     25701 MEMB     192      POPC     C38      CTL2    -0.180000       12.0110           0
     25702 MEMB     192      POPC     H8X      HAL2     0.900000E-01   1.00800           0
     25703 MEMB     192      POPC     H8Y      HAL2     0.900000E-01   1.00800           0
     25704 MEMB     192      POPC     C39      CTL2    -0.180000       12.0110           0
     25705 MEMB     192      POPC     H9X      HAL2     0.900000E-01   1.00800           0
     25706 MEMB     192      POPC     H9Y      HAL2     0.900000E-01   1.00800           0
     25707 MEMB     192      POPC     C310     CTL2    -0.180000       12.0110           0
     25708 MEMB     192      POPC     H10X     HAL2     0.900000E-01   1.00800           0
     25709 MEMB     192      POPC     H10Y     HAL2     0.900000E-01   1.00800           0
     25710 MEMB     192      POPC     C311     CTL2    -0.180000       12.0110           0
     25711 MEMB     192      POPC     H11X     HAL2     0.900000E-01   1.00800           0
     25712 MEMB     192      POPC     H11Y     HAL2     0.900000E-01   1.00800           0
     25713 MEMB     192      POPC     C312     CTL2    -0.180000       12.0110           0
     25714 MEMB     192      POPC     H12X     HAL2     0.900000E-01   1.00800           0
     25715 MEMB     192      POPC     H12Y     HAL2     0.900000E-01   1.00800           0
     25716 MEMB     192      POPC     C313     CTL2    -0.180000       12.0110           0
     25717 MEMB     192      POPC     H13X     HAL2     0.900000E-01   1.00800           0
     25718 MEMB     192      POPC     H13Y     HAL2     0.900000E-01   1.00800           0
     25719 MEMB     192      POPC     C314     CTL2    -0.180000       12.0110           0
     25720 MEMB     192      POPC     H14X     HAL2     0.900000E-01   1.00800           0
     25721 MEMB     192      POPC     H14Y     HAL2     0.900000E-01   1.00800           0
     25722 MEMB     192      POPC     C315     CTL2    -0.180000       12.0110           0
     25723 MEMB     192      POPC     H15X     HAL2     0.900000E-01   1.00800           0
     25724 MEMB     192      POPC     H15Y     HAL2     0.900000E-01   1.00800           0
     25725 MEMB     192      POPC     C316     CTL3    -0.270000       12.0110           0
     25726 MEMB     192      POPC     H16X     HAL3     0.900000E-01   1.00800           0
     25727 MEMB     192      POPC     H16Y     HAL3     0.900000E-01   1.00800           0
     25728 MEMB     192      POPC     H16Z     HAL3     0.900000E-01   1.00800           0
     25729 MEMB     193      POPC     N        NTL     -0.600000       14.0070           0
     25730 MEMB     193      POPC     C12      CTL2    -0.100000       12.0110           0
     25731 MEMB     193      POPC     H12A     HL       0.250000       1.00800           0
     25732 MEMB     193      POPC     H12B     HL       0.250000       1.00800           0
     25733 MEMB     193      POPC     C13      CTL5    -0.350000       12.0110           0
     25734 MEMB     193      POPC     H13A     HL       0.250000       1.00800           0
     25735 MEMB     193      POPC     H13B     HL       0.250000       1.00800           0
     25736 MEMB     193      POPC     H13C     HL       0.250000       1.00800           0
     25737 MEMB     193      POPC     C14      CTL5    -0.350000       12.0110           0
     25738 MEMB     193      POPC     H14A     HL       0.250000       1.00800           0
     25739 MEMB     193      POPC     H14B     HL       0.250000       1.00800           0
     25740 MEMB     193      POPC     H14C     HL       0.250000       1.00800           0
     25741 MEMB     193      POPC     C15      CTL5    -0.350000       12.0110           0
     25742 MEMB     193      POPC     H15A     HL       0.250000       1.00800           0
     25743 MEMB     193      POPC     H15B     HL       0.250000       1.00800           0
     25744 MEMB     193      POPC     H15C     HL       0.250000       1.00800           0
     25745 MEMB     193      POPC     C11      CTL2    -0.800000E-01   12.0110           0
     25746 MEMB     193      POPC     H11A     HAL2     0.900000E-01   1.00800           0
     25747 MEMB     193      POPC     H11B     HAL2     0.900000E-01   1.00800           0
     25748 MEMB     193      POPC     P        PL       1.50000        30.9740           0
     25749 MEMB     193      POPC     O13      O2L     -0.780000       15.9994           0
     25750 MEMB     193      POPC     O14      O2L     -0.780000       15.9994           0
     25751 MEMB     193      POPC     O12      OSLP    -0.570000       15.9994           0
     25752 MEMB     193      POPC     O11      OSLP    -0.570000       15.9994           0
     25753 MEMB     193      POPC     C1       CTL2    -0.800000E-01   12.0110           0
     25754 MEMB     193      POPC     HA       HAL2     0.900000E-01   1.00800           0
     25755 MEMB     193      POPC     HB       HAL2     0.900000E-01   1.00800           0
     25756 MEMB     193      POPC     C2       CTL1     0.170000       12.0110           0
     25757 MEMB     193      POPC     HS       HAL1     0.900000E-01   1.00800           0
     25758 MEMB     193      POPC     O21      OSL     -0.490000       15.9994           0
     25759 MEMB     193      POPC     C21      CL       0.900000       12.0110           0
     25760 MEMB     193      POPC     O22      OBL     -0.630000       15.9994           0
     25761 MEMB     193      POPC     C22      CTL2    -0.220000       12.0110           0
     25762 MEMB     193      POPC     H2R      HAL2     0.900000E-01   1.00800           0
     25763 MEMB     193      POPC     H2S      HAL2     0.900000E-01   1.00800           0
     25764 MEMB     193      POPC     C3       CTL2     0.800000E-01   12.0110           0
     25765 MEMB     193      POPC     HX       HAL2     0.900000E-01   1.00800           0
     25766 MEMB     193      POPC     HY       HAL2     0.900000E-01   1.00800           0
     25767 MEMB     193      POPC     O31      OSL     -0.490000       15.9994           0
     25768 MEMB     193      POPC     C31      CL       0.900000       12.0110           0
     25769 MEMB     193      POPC     O32      OBL     -0.630000       15.9994           0
     25770 MEMB     193      POPC     C32      CTL2    -0.220000       12.0110           0
     25771 MEMB     193      POPC     H2X      HAL2     0.900000E-01   1.00800           0
     25772 MEMB     193      POPC     H2Y      HAL2     0.900000E-01   1.00800           0
     25773 MEMB     193      POPC     C23      CTL2    -0.180000       12.0110           0
     25774 MEMB     193      POPC     H3R      HAL2     0.900000E-01   1.00800           0
     25775 MEMB     193      POPC     H3S      HAL2     0.900000E-01   1.00800           0
     25776 MEMB     193      POPC     C24      CTL2    -0.180000       12.0110           0
     25777 MEMB     193      POPC     H4R      HAL2     0.900000E-01   1.00800           0
     25778 MEMB     193      POPC     H4S      HAL2     0.900000E-01   1.00800           0
     25779 MEMB     193      POPC     C25      CTL2    -0.180000       12.0110           0
     25780 MEMB     193      POPC     H5R      HAL2     0.900000E-01   1.00800           0
     25781 MEMB     193      POPC     H5S      HAL2     0.900000E-01   1.00800           0
     25782 MEMB     193      POPC     C26      CTL2    -0.180000       12.0110           0
     25783 MEMB     193      POPC     H6R      HAL2     0.900000E-01   1.00800           0
     25784 MEMB     193      POPC     H6S      HAL2     0.900000E-01   1.00800           0
     25785 MEMB     193      POPC     C27      CTL2    -0.180000       12.0110           0
     25786 MEMB     193      POPC     H7R      HAL2     0.900000E-01   1.00800           0
     25787 MEMB     193      POPC     H7S      HAL2     0.900000E-01   1.00800           0
     25788 MEMB     193      POPC     C28      CTL2    -0.180000       12.0110           0
     25789 MEMB     193      POPC     H8R      HAL2     0.900000E-01   1.00800           0
     25790 MEMB     193      POPC     H8S      HAL2     0.900000E-01   1.00800           0
     25791 MEMB     193      POPC     C29      CEL1    -0.150000       12.0110           0
     25792 MEMB     193      POPC     H91      HEL1     0.150000       1.00800           0
     25793 MEMB     193      POPC     C210     CEL1    -0.150000       12.0110           0
     25794 MEMB     193      POPC     H101     HEL1     0.150000       1.00800           0
     25795 MEMB     193      POPC     C211     CTL2    -0.180000       12.0110           0
     25796 MEMB     193      POPC     H11R     HAL2     0.900000E-01   1.00800           0
     25797 MEMB     193      POPC     H11S     HAL2     0.900000E-01   1.00800           0
     25798 MEMB     193      POPC     C212     CTL2    -0.180000       12.0110           0
     25799 MEMB     193      POPC     H12R     HAL2     0.900000E-01   1.00800           0
     25800 MEMB     193      POPC     H12S     HAL2     0.900000E-01   1.00800           0
     25801 MEMB     193      POPC     C213     CTL2    -0.180000       12.0110           0
     25802 MEMB     193      POPC     H13R     HAL2     0.900000E-01   1.00800           0
     25803 MEMB     193      POPC     H13S     HAL2     0.900000E-01   1.00800           0
     25804 MEMB     193      POPC     C214     CTL2    -0.180000       12.0110           0
     25805 MEMB     193      POPC     H14R     HAL2     0.900000E-01   1.00800           0
     25806 MEMB     193      POPC     H14S     HAL2     0.900000E-01   1.00800           0
     25807 MEMB     193      POPC     C215     CTL2    -0.180000       12.0110           0
     25808 MEMB     193      POPC     H15R     HAL2     0.900000E-01   1.00800           0
     25809 MEMB     193      POPC     H15S     HAL2     0.900000E-01   1.00800           0
     25810 MEMB     193      POPC     C216     CTL2    -0.180000       12.0110           0
     25811 MEMB     193      POPC     H16R     HAL2     0.900000E-01   1.00800           0
     25812 MEMB     193      POPC     H16S     HAL2     0.900000E-01   1.00800           0
     25813 MEMB     193      POPC     C217     CTL2    -0.180000       12.0110           0
     25814 MEMB     193      POPC     H17R     HAL2     0.900000E-01   1.00800           0
     25815 MEMB     193      POPC     H17S     HAL2     0.900000E-01   1.00800           0
     25816 MEMB     193      POPC     C218     CTL3    -0.270000       12.0110           0
     25817 MEMB     193      POPC     H18R     HAL3     0.900000E-01   1.00800           0
     25818 MEMB     193      POPC     H18S     HAL3     0.900000E-01   1.00800           0
     25819 MEMB     193      POPC     H18T     HAL3     0.900000E-01   1.00800           0
     25820 MEMB     193      POPC     C33      CTL2    -0.180000       12.0110           0
     25821 MEMB     193      POPC     H3X      HAL2     0.900000E-01   1.00800           0
     25822 MEMB     193      POPC     H3Y      HAL2     0.900000E-01   1.00800           0
     25823 MEMB     193      POPC     C34      CTL2    -0.180000       12.0110           0
     25824 MEMB     193      POPC     H4X      HAL2     0.900000E-01   1.00800           0
     25825 MEMB     193      POPC     H4Y      HAL2     0.900000E-01   1.00800           0
     25826 MEMB     193      POPC     C35      CTL2    -0.180000       12.0110           0
     25827 MEMB     193      POPC     H5X      HAL2     0.900000E-01   1.00800           0
     25828 MEMB     193      POPC     H5Y      HAL2     0.900000E-01   1.00800           0
     25829 MEMB     193      POPC     C36      CTL2    -0.180000       12.0110           0
     25830 MEMB     193      POPC     H6X      HAL2     0.900000E-01   1.00800           0
     25831 MEMB     193      POPC     H6Y      HAL2     0.900000E-01   1.00800           0
     25832 MEMB     193      POPC     C37      CTL2    -0.180000       12.0110           0
     25833 MEMB     193      POPC     H7X      HAL2     0.900000E-01   1.00800           0
     25834 MEMB     193      POPC     H7Y      HAL2     0.900000E-01   1.00800           0
     25835 MEMB     193      POPC     C38      CTL2    -0.180000       12.0110           0
     25836 MEMB     193      POPC     H8X      HAL2     0.900000E-01   1.00800           0
     25837 MEMB     193      POPC     H8Y      HAL2     0.900000E-01   1.00800           0
     25838 MEMB     193      POPC     C39      CTL2    -0.180000       12.0110           0
     25839 MEMB     193      POPC     H9X      HAL2     0.900000E-01   1.00800           0
     25840 MEMB     193      POPC     H9Y      HAL2     0.900000E-01   1.00800           0
     25841 MEMB     193      POPC     C310     CTL2    -0.180000       12.0110           0
     25842 MEMB     193      POPC     H10X     HAL2     0.900000E-01   1.00800           0
     25843 MEMB     193      POPC     H10Y     HAL2     0.900000E-01   1.00800           0
     25844 MEMB     193      POPC     C311     CTL2    -0.180000       12.0110           0
     25845 MEMB     193      POPC     H11X     HAL2     0.900000E-01   1.00800           0
     25846 MEMB     193      POPC     H11Y     HAL2     0.900000E-01   1.00800           0
     25847 MEMB     193      POPC     C312     CTL2    -0.180000       12.0110           0
     25848 MEMB     193      POPC     H12X     HAL2     0.900000E-01   1.00800           0
     25849 MEMB     193      POPC     H12Y     HAL2     0.900000E-01   1.00800           0
     25850 MEMB     193      POPC     C313     CTL2    -0.180000       12.0110           0
     25851 MEMB     193      POPC     H13X     HAL2     0.900000E-01   1.00800           0
     25852 MEMB     193      POPC     H13Y     HAL2     0.900000E-01   1.00800           0
     25853 MEMB     193      POPC     C314     CTL2    -0.180000       12.0110           0
     25854 MEMB     193      POPC     H14X     HAL2     0.900000E-01   1.00800           0
     25855 MEMB     193      POPC     H14Y     HAL2     0.900000E-01   1.00800           0
     25856 MEMB     193      POPC     C315     CTL2    -0.180000       12.0110           0
     25857 MEMB     193      POPC     H15X     HAL2     0.900000E-01   1.00800           0
     25858 MEMB     193      POPC     H15Y     HAL2     0.900000E-01   1.00800           0
     25859 MEMB     193      POPC     C316     CTL3    -0.270000       12.0110           0
     25860 MEMB     193      POPC     H16X     HAL3     0.900000E-01   1.00800           0
     25861 MEMB     193      POPC     H16Y     HAL3     0.900000E-01   1.00800           0
     25862 MEMB     193      POPC     H16Z     HAL3     0.900000E-01   1.00800           0
     25863 MEMB     194      POPC     N        NTL     -0.600000       14.0070           0
     25864 MEMB     194      POPC     C12      CTL2    -0.100000       12.0110           0
     25865 MEMB     194      POPC     H12A     HL       0.250000       1.00800           0
     25866 MEMB     194      POPC     H12B     HL       0.250000       1.00800           0
     25867 MEMB     194      POPC     C13      CTL5    -0.350000       12.0110           0
     25868 MEMB     194      POPC     H13A     HL       0.250000       1.00800           0
     25869 MEMB     194      POPC     H13B     HL       0.250000       1.00800           0
     25870 MEMB     194      POPC     H13C     HL       0.250000       1.00800           0
     25871 MEMB     194      POPC     C14      CTL5    -0.350000       12.0110           0
     25872 MEMB     194      POPC     H14A     HL       0.250000       1.00800           0
     25873 MEMB     194      POPC     H14B     HL       0.250000       1.00800           0
     25874 MEMB     194      POPC     H14C     HL       0.250000       1.00800           0
     25875 MEMB     194      POPC     C15      CTL5    -0.350000       12.0110           0
     25876 MEMB     194      POPC     H15A     HL       0.250000       1.00800           0
     25877 MEMB     194      POPC     H15B     HL       0.250000       1.00800           0
     25878 MEMB     194      POPC     H15C     HL       0.250000       1.00800           0
     25879 MEMB     194      POPC     C11      CTL2    -0.800000E-01   12.0110           0
     25880 MEMB     194      POPC     H11A     HAL2     0.900000E-01   1.00800           0
     25881 MEMB     194      POPC     H11B     HAL2     0.900000E-01   1.00800           0
     25882 MEMB     194      POPC     P        PL       1.50000        30.9740           0
     25883 MEMB     194      POPC     O13      O2L     -0.780000       15.9994           0
     25884 MEMB     194      POPC     O14      O2L     -0.780000       15.9994           0
     25885 MEMB     194      POPC     O12      OSLP    -0.570000       15.9994           0
     25886 MEMB     194      POPC     O11      OSLP    -0.570000       15.9994           0
     25887 MEMB     194      POPC     C1       CTL2    -0.800000E-01   12.0110           0
     25888 MEMB     194      POPC     HA       HAL2     0.900000E-01   1.00800           0
     25889 MEMB     194      POPC     HB       HAL2     0.900000E-01   1.00800           0
     25890 MEMB     194      POPC     C2       CTL1     0.170000       12.0110           0
     25891 MEMB     194      POPC     HS       HAL1     0.900000E-01   1.00800           0
     25892 MEMB     194      POPC     O21      OSL     -0.490000       15.9994           0
     25893 MEMB     194      POPC     C21      CL       0.900000       12.0110           0
     25894 MEMB     194      POPC     O22      OBL     -0.630000       15.9994           0
     25895 MEMB     194      POPC     C22      CTL2    -0.220000       12.0110           0
     25896 MEMB     194      POPC     H2R      HAL2     0.900000E-01   1.00800           0
     25897 MEMB     194      POPC     H2S      HAL2     0.900000E-01   1.00800           0
     25898 MEMB     194      POPC     C3       CTL2     0.800000E-01   12.0110           0
     25899 MEMB     194      POPC     HX       HAL2     0.900000E-01   1.00800           0
     25900 MEMB     194      POPC     HY       HAL2     0.900000E-01   1.00800           0
     25901 MEMB     194      POPC     O31      OSL     -0.490000       15.9994           0
     25902 MEMB     194      POPC     C31      CL       0.900000       12.0110           0
     25903 MEMB     194      POPC     O32      OBL     -0.630000       15.9994           0
     25904 MEMB     194      POPC     C32      CTL2    -0.220000       12.0110           0
     25905 MEMB     194      POPC     H2X      HAL2     0.900000E-01   1.00800           0
     25906 MEMB     194      POPC     H2Y      HAL2     0.900000E-01   1.00800           0
     25907 MEMB     194      POPC     C23      CTL2    -0.180000       12.0110           0
     25908 MEMB     194      POPC     H3R      HAL2     0.900000E-01   1.00800           0
     25909 MEMB     194      POPC     H3S      HAL2     0.900000E-01   1.00800           0
     25910 MEMB     194      POPC     C24      CTL2    -0.180000       12.0110           0
     25911 MEMB     194      POPC     H4R      HAL2     0.900000E-01   1.00800           0
     25912 MEMB     194      POPC     H4S      HAL2     0.900000E-01   1.00800           0
     25913 MEMB     194      POPC     C25      CTL2    -0.180000       12.0110           0
     25914 MEMB     194      POPC     H5R      HAL2     0.900000E-01   1.00800           0
     25915 MEMB     194      POPC     H5S      HAL2     0.900000E-01   1.00800           0
     25916 MEMB     194      POPC     C26      CTL2    -0.180000       12.0110           0
     25917 MEMB     194      POPC     H6R      HAL2     0.900000E-01   1.00800           0
     25918 MEMB     194      POPC     H6S      HAL2     0.900000E-01   1.00800           0
     25919 MEMB     194      POPC     C27      CTL2    -0.180000       12.0110           0
     25920 MEMB     194      POPC     H7R      HAL2     0.900000E-01   1.00800           0
     25921 MEMB     194      POPC     H7S      HAL2     0.900000E-01   1.00800           0
     25922 MEMB     194      POPC     C28      CTL2    -0.180000       12.0110           0
     25923 MEMB     194      POPC     H8R      HAL2     0.900000E-01   1.00800           0
     25924 MEMB     194      POPC     H8S      HAL2     0.900000E-01   1.00800           0
     25925 MEMB     194      POPC     C29      CEL1    -0.150000       12.0110           0
     25926 MEMB     194      POPC     H91      HEL1     0.150000       1.00800           0
     25927 MEMB     194      POPC     C210     CEL1    -0.150000       12.0110           0
     25928 MEMB     194      POPC     H101     HEL1     0.150000       1.00800           0
     25929 MEMB     194      POPC     C211     CTL2    -0.180000       12.0110           0
     25930 MEMB     194      POPC     H11R     HAL2     0.900000E-01   1.00800           0
     25931 MEMB     194      POPC     H11S     HAL2     0.900000E-01   1.00800           0
     25932 MEMB     194      POPC     C212     CTL2    -0.180000       12.0110           0
     25933 MEMB     194      POPC     H12R     HAL2     0.900000E-01   1.00800           0
     25934 MEMB     194      POPC     H12S     HAL2     0.900000E-01   1.00800           0
     25935 MEMB     194      POPC     C213     CTL2    -0.180000       12.0110           0
     25936 MEMB     194      POPC     H13R     HAL2     0.900000E-01   1.00800           0
     25937 MEMB     194      POPC     H13S     HAL2     0.900000E-01   1.00800           0
     25938 MEMB     194      POPC     C214     CTL2    -0.180000       12.0110           0
     25939 MEMB     194      POPC     H14R     HAL2     0.900000E-01   1.00800           0
     25940 MEMB     194      POPC     H14S     HAL2     0.900000E-01   1.00800           0
     25941 MEMB     194      POPC     C215     CTL2    -0.180000       12.0110           0
     25942 MEMB     194      POPC     H15R     HAL2     0.900000E-01   1.00800           0
     25943 MEMB     194      POPC     H15S     HAL2     0.900000E-01   1.00800           0
     25944 MEMB     194      POPC     C216     CTL2    -0.180000       12.0110           0
     25945 MEMB     194      POPC     H16R     HAL2     0.900000E-01   1.00800           0
     25946 MEMB     194      POPC     H16S     HAL2     0.900000E-01   1.00800           0
     25947 MEMB     194      POPC     C217     CTL2    -0.180000       12.0110           0
     25948 MEMB     194      POPC     H17R     HAL2     0.900000E-01   1.00800           0
     25949 MEMB     194      POPC     H17S     HAL2     0.900000E-01   1.00800           0
     25950 MEMB     194      POPC     C218     CTL3    -0.270000       12.0110           0
     25951 MEMB     194      POPC     H18R     HAL3     0.900000E-01   1.00800           0
     25952 MEMB     194      POPC     H18S     HAL3     0.900000E-01   1.00800           0
     25953 MEMB     194      POPC     H18T     HAL3     0.900000E-01   1.00800           0
     25954 MEMB     194      POPC     C33      CTL2    -0.180000       12.0110           0
     25955 MEMB     194      POPC     H3X      HAL2     0.900000E-01   1.00800           0
     25956 MEMB     194      POPC     H3Y      HAL2     0.900000E-01   1.00800           0
     25957 MEMB     194      POPC     C34      CTL2    -0.180000       12.0110           0
     25958 MEMB     194      POPC     H4X      HAL2     0.900000E-01   1.00800           0
     25959 MEMB     194      POPC     H4Y      HAL2     0.900000E-01   1.00800           0
     25960 MEMB     194      POPC     C35      CTL2    -0.180000       12.0110           0
     25961 MEMB     194      POPC     H5X      HAL2     0.900000E-01   1.00800           0
     25962 MEMB     194      POPC     H5Y      HAL2     0.900000E-01   1.00800           0
     25963 MEMB     194      POPC     C36      CTL2    -0.180000       12.0110           0
     25964 MEMB     194      POPC     H6X      HAL2     0.900000E-01   1.00800           0
     25965 MEMB     194      POPC     H6Y      HAL2     0.900000E-01   1.00800           0
     25966 MEMB     194      POPC     C37      CTL2    -0.180000       12.0110           0
     25967 MEMB     194      POPC     H7X      HAL2     0.900000E-01   1.00800           0
     25968 MEMB     194      POPC     H7Y      HAL2     0.900000E-01   1.00800           0
     25969 MEMB     194      POPC     C38      CTL2    -0.180000       12.0110           0
     25970 MEMB     194      POPC     H8X      HAL2     0.900000E-01   1.00800           0
     25971 MEMB     194      POPC     H8Y      HAL2     0.900000E-01   1.00800           0
     25972 MEMB     194      POPC     C39      CTL2    -0.180000       12.0110           0
     25973 MEMB     194      POPC     H9X      HAL2     0.900000E-01   1.00800           0
     25974 MEMB     194      POPC     H9Y      HAL2     0.900000E-01   1.00800           0
     25975 MEMB     194      POPC     C310     CTL2    -0.180000       12.0110           0
     25976 MEMB     194      POPC     H10X     HAL2     0.900000E-01   1.00800           0
     25977 MEMB     194      POPC     H10Y     HAL2     0.900000E-01   1.00800           0
     25978 MEMB     194      POPC     C311     CTL2    -0.180000       12.0110           0
     25979 MEMB     194      POPC     H11X     HAL2     0.900000E-01   1.00800           0
     25980 MEMB     194      POPC     H11Y     HAL2     0.900000E-01   1.00800           0
     25981 MEMB     194      POPC     C312     CTL2    -0.180000       12.0110           0
     25982 MEMB     194      POPC     H12X     HAL2     0.900000E-01   1.00800           0
     25983 MEMB     194      POPC     H12Y     HAL2     0.900000E-01   1.00800           0
     25984 MEMB     194      POPC     C313     CTL2    -0.180000       12.0110           0
     25985 MEMB     194      POPC     H13X     HAL2     0.900000E-01   1.00800           0
     25986 MEMB     194      POPC     H13Y     HAL2     0.900000E-01   1.00800           0
     25987 MEMB     194      POPC     C314     CTL2    -0.180000       12.0110           0
     25988 MEMB     194      POPC     H14X     HAL2     0.900000E-01   1.00800           0
     25989 MEMB     194      POPC     H14Y     HAL2     0.900000E-01   1.00800           0
     25990 MEMB     194      POPC     C315     CTL2    -0.180000       12.0110           0
     25991 MEMB     194      POPC     H15X     HAL2     0.900000E-01   1.00800           0
     25992 MEMB     194      POPC     H15Y     HAL2     0.900000E-01   1.00800           0
     25993 MEMB     194      POPC     C316     CTL3    -0.270000       12.0110           0
     25994 MEMB     194      POPC     H16X     HAL3     0.900000E-01   1.00800           0
     25995 MEMB     194      POPC     H16Y     HAL3     0.900000E-01   1.00800           0
     25996 MEMB     194      POPC     H16Z     HAL3     0.900000E-01   1.00800           0
     25997 MEMB     195      POPC     N        NTL     -0.600000       14.0070           0
     25998 MEMB     195      POPC     C12      CTL2    -0.100000       12.0110           0
     25999 MEMB     195      POPC     H12A     HL       0.250000       1.00800           0
     26000 MEMB     195      POPC     H12B     HL       0.250000       1.00800           0
     26001 MEMB     195      POPC     C13      CTL5    -0.350000       12.0110           0
     26002 MEMB     195      POPC     H13A     HL       0.250000       1.00800           0
     26003 MEMB     195      POPC     H13B     HL       0.250000       1.00800           0
     26004 MEMB     195      POPC     H13C     HL       0.250000       1.00800           0
     26005 MEMB     195      POPC     C14      CTL5    -0.350000       12.0110           0
     26006 MEMB     195      POPC     H14A     HL       0.250000       1.00800           0
     26007 MEMB     195      POPC     H14B     HL       0.250000       1.00800           0
     26008 MEMB     195      POPC     H14C     HL       0.250000       1.00800           0
     26009 MEMB     195      POPC     C15      CTL5    -0.350000       12.0110           0
     26010 MEMB     195      POPC     H15A     HL       0.250000       1.00800           0
     26011 MEMB     195      POPC     H15B     HL       0.250000       1.00800           0
     26012 MEMB     195      POPC     H15C     HL       0.250000       1.00800           0
     26013 MEMB     195      POPC     C11      CTL2    -0.800000E-01   12.0110           0
     26014 MEMB     195      POPC     H11A     HAL2     0.900000E-01   1.00800           0
     26015 MEMB     195      POPC     H11B     HAL2     0.900000E-01   1.00800           0
     26016 MEMB     195      POPC     P        PL       1.50000        30.9740           0
     26017 MEMB     195      POPC     O13      O2L     -0.780000       15.9994           0
     26018 MEMB     195      POPC     O14      O2L     -0.780000       15.9994           0
     26019 MEMB     195      POPC     O12      OSLP    -0.570000       15.9994           0
     26020 MEMB     195      POPC     O11      OSLP    -0.570000       15.9994           0
     26021 MEMB     195      POPC     C1       CTL2    -0.800000E-01   12.0110           0
     26022 MEMB     195      POPC     HA       HAL2     0.900000E-01   1.00800           0
     26023 MEMB     195      POPC     HB       HAL2     0.900000E-01   1.00800           0
     26024 MEMB     195      POPC     C2       CTL1     0.170000       12.0110           0
     26025 MEMB     195      POPC     HS       HAL1     0.900000E-01   1.00800           0
     26026 MEMB     195      POPC     O21      OSL     -0.490000       15.9994           0
     26027 MEMB     195      POPC     C21      CL       0.900000       12.0110           0
     26028 MEMB     195      POPC     O22      OBL     -0.630000       15.9994           0
     26029 MEMB     195      POPC     C22      CTL2    -0.220000       12.0110           0
     26030 MEMB     195      POPC     H2R      HAL2     0.900000E-01   1.00800           0
     26031 MEMB     195      POPC     H2S      HAL2     0.900000E-01   1.00800           0
     26032 MEMB     195      POPC     C3       CTL2     0.800000E-01   12.0110           0
     26033 MEMB     195      POPC     HX       HAL2     0.900000E-01   1.00800           0
     26034 MEMB     195      POPC     HY       HAL2     0.900000E-01   1.00800           0
     26035 MEMB     195      POPC     O31      OSL     -0.490000       15.9994           0
     26036 MEMB     195      POPC     C31      CL       0.900000       12.0110           0
     26037 MEMB     195      POPC     O32      OBL     -0.630000       15.9994           0
     26038 MEMB     195      POPC     C32      CTL2    -0.220000       12.0110           0
     26039 MEMB     195      POPC     H2X      HAL2     0.900000E-01   1.00800           0
     26040 MEMB     195      POPC     H2Y      HAL2     0.900000E-01   1.00800           0
     26041 MEMB     195      POPC     C23      CTL2    -0.180000       12.0110           0
     26042 MEMB     195      POPC     H3R      HAL2     0.900000E-01   1.00800           0
     26043 MEMB     195      POPC     H3S      HAL2     0.900000E-01   1.00800           0
     26044 MEMB     195      POPC     C24      CTL2    -0.180000       12.0110           0
     26045 MEMB     195      POPC     H4R      HAL2     0.900000E-01   1.00800           0
     26046 MEMB     195      POPC     H4S      HAL2     0.900000E-01   1.00800           0
     26047 MEMB     195      POPC     C25      CTL2    -0.180000       12.0110           0
     26048 MEMB     195      POPC     H5R      HAL2     0.900000E-01   1.00800           0
     26049 MEMB     195      POPC     H5S      HAL2     0.900000E-01   1.00800           0
     26050 MEMB     195      POPC     C26      CTL2    -0.180000       12.0110           0
     26051 MEMB     195      POPC     H6R      HAL2     0.900000E-01   1.00800           0
     26052 MEMB     195      POPC     H6S      HAL2     0.900000E-01   1.00800           0
     26053 MEMB     195      POPC     C27      CTL2    -0.180000       12.0110           0
     26054 MEMB     195      POPC     H7R      HAL2     0.900000E-01   1.00800           0
     26055 MEMB     195      POPC     H7S      HAL2     0.900000E-01   1.00800           0
     26056 MEMB     195      POPC     C28      CTL2    -0.180000       12.0110           0
     26057 MEMB     195      POPC     H8R      HAL2     0.900000E-01   1.00800           0
     26058 MEMB     195      POPC     H8S      HAL2     0.900000E-01   1.00800           0
     26059 MEMB     195      POPC     C29      CEL1    -0.150000       12.0110           0
     26060 MEMB     195      POPC     H91      HEL1     0.150000       1.00800           0
     26061 MEMB     195      POPC     C210     CEL1    -0.150000       12.0110           0
     26062 MEMB     195      POPC     H101     HEL1     0.150000       1.00800           0
     26063 MEMB     195      POPC     C211     CTL2    -0.180000       12.0110           0
     26064 MEMB     195      POPC     H11R     HAL2     0.900000E-01   1.00800           0
     26065 MEMB     195      POPC     H11S     HAL2     0.900000E-01   1.00800           0
     26066 MEMB     195      POPC     C212     CTL2    -0.180000       12.0110           0
     26067 MEMB     195      POPC     H12R     HAL2     0.900000E-01   1.00800           0
     26068 MEMB     195      POPC     H12S     HAL2     0.900000E-01   1.00800           0
     26069 MEMB     195      POPC     C213     CTL2    -0.180000       12.0110           0
     26070 MEMB     195      POPC     H13R     HAL2     0.900000E-01   1.00800           0
     26071 MEMB     195      POPC     H13S     HAL2     0.900000E-01   1.00800           0
     26072 MEMB     195      POPC     C214     CTL2    -0.180000       12.0110           0
     26073 MEMB     195      POPC     H14R     HAL2     0.900000E-01   1.00800           0
     26074 MEMB     195      POPC     H14S     HAL2     0.900000E-01   1.00800           0
     26075 MEMB     195      POPC     C215     CTL2    -0.180000       12.0110           0
     26076 MEMB     195      POPC     H15R     HAL2     0.900000E-01   1.00800           0
     26077 MEMB     195      POPC     H15S     HAL2     0.900000E-01   1.00800           0
     26078 MEMB     195      POPC     C216     CTL2    -0.180000       12.0110           0
     26079 MEMB     195      POPC     H16R     HAL2     0.900000E-01   1.00800           0
     26080 MEMB     195      POPC     H16S     HAL2     0.900000E-01   1.00800           0
     26081 MEMB     195      POPC     C217     CTL2    -0.180000       12.0110           0
     26082 MEMB     195      POPC     H17R     HAL2     0.900000E-01   1.00800           0
     26083 MEMB     195      POPC     H17S     HAL2     0.900000E-01   1.00800           0
     26084 MEMB     195      POPC     C218     CTL3    -0.270000       12.0110           0
     26085 MEMB     195      POPC     H18R     HAL3     0.900000E-01   1.00800           0
     26086 MEMB     195      POPC     H18S     HAL3     0.900000E-01   1.00800           0
     26087 MEMB     195      POPC     H18T     HAL3     0.900000E-01   1.00800           0
     26088 MEMB     195      POPC     C33      CTL2    -0.180000       12.0110           0
     26089 MEMB     195      POPC     H3X      HAL2     0.900000E-01   1.00800           0
     26090 MEMB     195      POPC     H3Y      HAL2     0.900000E-01   1.00800           0
     26091 MEMB     195      POPC     C34      CTL2    -0.180000       12.0110           0
     26092 MEMB     195      POPC     H4X      HAL2     0.900000E-01   1.00800           0
     26093 MEMB     195      POPC     H4Y      HAL2     0.900000E-01   1.00800           0
     26094 MEMB     195      POPC     C35      CTL2    -0.180000       12.0110           0
     26095 MEMB     195      POPC     H5X      HAL2     0.900000E-01   1.00800           0
     26096 MEMB     195      POPC     H5Y      HAL2     0.900000E-01   1.00800           0
     26097 MEMB     195      POPC     C36      CTL2    -0.180000       12.0110           0
     26098 MEMB     195      POPC     H6X      HAL2     0.900000E-01   1.00800           0
     26099 MEMB     195      POPC     H6Y      HAL2     0.900000E-01   1.00800           0
     26100 MEMB     195      POPC     C37      CTL2    -0.180000       12.0110           0
     26101 MEMB     195      POPC     H7X      HAL2     0.900000E-01   1.00800           0
     26102 MEMB     195      POPC     H7Y      HAL2     0.900000E-01   1.00800           0
     26103 MEMB     195      POPC     C38      CTL2    -0.180000       12.0110           0
     26104 MEMB     195      POPC     H8X      HAL2     0.900000E-01   1.00800           0
     26105 MEMB     195      POPC     H8Y      HAL2     0.900000E-01   1.00800           0
     26106 MEMB     195      POPC     C39      CTL2    -0.180000       12.0110           0
     26107 MEMB     195      POPC     H9X      HAL2     0.900000E-01   1.00800           0
     26108 MEMB     195      POPC     H9Y      HAL2     0.900000E-01   1.00800           0
     26109 MEMB     195      POPC     C310     CTL2    -0.180000       12.0110           0
     26110 MEMB     195      POPC     H10X     HAL2     0.900000E-01   1.00800           0
     26111 MEMB     195      POPC     H10Y     HAL2     0.900000E-01   1.00800           0
     26112 MEMB     195      POPC     C311     CTL2    -0.180000       12.0110           0
     26113 MEMB     195      POPC     H11X     HAL2     0.900000E-01   1.00800           0
     26114 MEMB     195      POPC     H11Y     HAL2     0.900000E-01   1.00800           0
     26115 MEMB     195      POPC     C312     CTL2    -0.180000       12.0110           0
     26116 MEMB     195      POPC     H12X     HAL2     0.900000E-01   1.00800           0
     26117 MEMB     195      POPC     H12Y     HAL2     0.900000E-01   1.00800           0
     26118 MEMB     195      POPC     C313     CTL2    -0.180000       12.0110           0
     26119 MEMB     195      POPC     H13X     HAL2     0.900000E-01   1.00800           0
     26120 MEMB     195      POPC     H13Y     HAL2     0.900000E-01   1.00800           0
     26121 MEMB     195      POPC     C314     CTL2    -0.180000       12.0110           0
     26122 MEMB     195      POPC     H14X     HAL2     0.900000E-01   1.00800           0
     26123 MEMB     195      POPC     H14Y     HAL2     0.900000E-01   1.00800           0
     26124 MEMB     195      POPC     C315     CTL2    -0.180000       12.0110           0
     26125 MEMB     195      POPC     H15X     HAL2     0.900000E-01   1.00800           0
     26126 MEMB     195      POPC     H15Y     HAL2     0.900000E-01   1.00800           0
     26127 MEMB     195      POPC     C316     CTL3    -0.270000       12.0110           0
     26128 MEMB     195      POPC     H16X     HAL3     0.900000E-01   1.00800           0
     26129 MEMB     195      POPC     H16Y     HAL3     0.900000E-01   1.00800           0
     26130 MEMB     195      POPC     H16Z     HAL3     0.900000E-01   1.00800           0
     26131 MEMB     196      POPC     N        NTL     -0.600000       14.0070           0
     26132 MEMB     196      POPC     C12      CTL2    -0.100000       12.0110           0
     26133 MEMB     196      POPC     H12A     HL       0.250000       1.00800           0
     26134 MEMB     196      POPC     H12B     HL       0.250000       1.00800           0
     26135 MEMB     196      POPC     C13      CTL5    -0.350000       12.0110           0
     26136 MEMB     196      POPC     H13A     HL       0.250000       1.00800           0
     26137 MEMB     196      POPC     H13B     HL       0.250000       1.00800           0
     26138 MEMB     196      POPC     H13C     HL       0.250000       1.00800           0
     26139 MEMB     196      POPC     C14      CTL5    -0.350000       12.0110           0
     26140 MEMB     196      POPC     H14A     HL       0.250000       1.00800           0
     26141 MEMB     196      POPC     H14B     HL       0.250000       1.00800           0
     26142 MEMB     196      POPC     H14C     HL       0.250000       1.00800           0
     26143 MEMB     196      POPC     C15      CTL5    -0.350000       12.0110           0
     26144 MEMB     196      POPC     H15A     HL       0.250000       1.00800           0
     26145 MEMB     196      POPC     H15B     HL       0.250000       1.00800           0
     26146 MEMB     196      POPC     H15C     HL       0.250000       1.00800           0
     26147 MEMB     196      POPC     C11      CTL2    -0.800000E-01   12.0110           0
     26148 MEMB     196      POPC     H11A     HAL2     0.900000E-01   1.00800           0
     26149 MEMB     196      POPC     H11B     HAL2     0.900000E-01   1.00800           0
     26150 MEMB     196      POPC     P        PL       1.50000        30.9740           0
     26151 MEMB     196      POPC     O13      O2L     -0.780000       15.9994           0
     26152 MEMB     196      POPC     O14      O2L     -0.780000       15.9994           0
     26153 MEMB     196      POPC     O12      OSLP    -0.570000       15.9994           0
     26154 MEMB     196      POPC     O11      OSLP    -0.570000       15.9994           0
     26155 MEMB     196      POPC     C1       CTL2    -0.800000E-01   12.0110           0
     26156 MEMB     196      POPC     HA       HAL2     0.900000E-01   1.00800           0
     26157 MEMB     196      POPC     HB       HAL2     0.900000E-01   1.00800           0
     26158 MEMB     196      POPC     C2       CTL1     0.170000       12.0110           0
     26159 MEMB     196      POPC     HS       HAL1     0.900000E-01   1.00800           0
     26160 MEMB     196      POPC     O21      OSL     -0.490000       15.9994           0
     26161 MEMB     196      POPC     C21      CL       0.900000       12.0110           0
     26162 MEMB     196      POPC     O22      OBL     -0.630000       15.9994           0
     26163 MEMB     196      POPC     C22      CTL2    -0.220000       12.0110           0
     26164 MEMB     196      POPC     H2R      HAL2     0.900000E-01   1.00800           0
     26165 MEMB     196      POPC     H2S      HAL2     0.900000E-01   1.00800           0
     26166 MEMB     196      POPC     C3       CTL2     0.800000E-01   12.0110           0
     26167 MEMB     196      POPC     HX       HAL2     0.900000E-01   1.00800           0
     26168 MEMB     196      POPC     HY       HAL2     0.900000E-01   1.00800           0
     26169 MEMB     196      POPC     O31      OSL     -0.490000       15.9994           0
     26170 MEMB     196      POPC     C31      CL       0.900000       12.0110           0
     26171 MEMB     196      POPC     O32      OBL     -0.630000       15.9994           0
     26172 MEMB     196      POPC     C32      CTL2    -0.220000       12.0110           0
     26173 MEMB     196      POPC     H2X      HAL2     0.900000E-01   1.00800           0
     26174 MEMB     196      POPC     H2Y      HAL2     0.900000E-01   1.00800           0
     26175 MEMB     196      POPC     C23      CTL2    -0.180000       12.0110           0
     26176 MEMB     196      POPC     H3R      HAL2     0.900000E-01   1.00800           0
     26177 MEMB     196      POPC     H3S      HAL2     0.900000E-01   1.00800           0
     26178 MEMB     196      POPC     C24      CTL2    -0.180000       12.0110           0
     26179 MEMB     196      POPC     H4R      HAL2     0.900000E-01   1.00800           0
     26180 MEMB     196      POPC     H4S      HAL2     0.900000E-01   1.00800           0
     26181 MEMB     196      POPC     C25      CTL2    -0.180000       12.0110           0
     26182 MEMB     196      POPC     H5R      HAL2     0.900000E-01   1.00800           0
     26183 MEMB     196      POPC     H5S      HAL2     0.900000E-01   1.00800           0
     26184 MEMB     196      POPC     C26      CTL2    -0.180000       12.0110           0
     26185 MEMB     196      POPC     H6R      HAL2     0.900000E-01   1.00800           0
     26186 MEMB     196      POPC     H6S      HAL2     0.900000E-01   1.00800           0
     26187 MEMB     196      POPC     C27      CTL2    -0.180000       12.0110           0
     26188 MEMB     196      POPC     H7R      HAL2     0.900000E-01   1.00800           0
     26189 MEMB     196      POPC     H7S      HAL2     0.900000E-01   1.00800           0
     26190 MEMB     196      POPC     C28      CTL2    -0.180000       12.0110           0
     26191 MEMB     196      POPC     H8R      HAL2     0.900000E-01   1.00800           0
     26192 MEMB     196      POPC     H8S      HAL2     0.900000E-01   1.00800           0
     26193 MEMB     196      POPC     C29      CEL1    -0.150000       12.0110           0
     26194 MEMB     196      POPC     H91      HEL1     0.150000       1.00800           0
     26195 MEMB     196      POPC     C210     CEL1    -0.150000       12.0110           0
     26196 MEMB     196      POPC     H101     HEL1     0.150000       1.00800           0
     26197 MEMB     196      POPC     C211     CTL2    -0.180000       12.0110           0
     26198 MEMB     196      POPC     H11R     HAL2     0.900000E-01   1.00800           0
     26199 MEMB     196      POPC     H11S     HAL2     0.900000E-01   1.00800           0
     26200 MEMB     196      POPC     C212     CTL2    -0.180000       12.0110           0
     26201 MEMB     196      POPC     H12R     HAL2     0.900000E-01   1.00800           0
     26202 MEMB     196      POPC     H12S     HAL2     0.900000E-01   1.00800           0
     26203 MEMB     196      POPC     C213     CTL2    -0.180000       12.0110           0
     26204 MEMB     196      POPC     H13R     HAL2     0.900000E-01   1.00800           0
     26205 MEMB     196      POPC     H13S     HAL2     0.900000E-01   1.00800           0
     26206 MEMB     196      POPC     C214     CTL2    -0.180000       12.0110           0
     26207 MEMB     196      POPC     H14R     HAL2     0.900000E-01   1.00800           0
     26208 MEMB     196      POPC     H14S     HAL2     0.900000E-01   1.00800           0
     26209 MEMB     196      POPC     C215     CTL2    -0.180000       12.0110           0
     26210 MEMB     196      POPC     H15R     HAL2     0.900000E-01   1.00800           0
     26211 MEMB     196      POPC     H15S     HAL2     0.900000E-01   1.00800           0
     26212 MEMB     196      POPC     C216     CTL2    -0.180000       12.0110           0
     26213 MEMB     196      POPC     H16R     HAL2     0.900000E-01   1.00800           0
     26214 MEMB     196      POPC     H16S     HAL2     0.900000E-01   1.00800           0
     26215 MEMB     196      POPC     C217     CTL2    -0.180000       12.0110           0
     26216 MEMB     196      POPC     H17R     HAL2     0.900000E-01   1.00800           0
     26217 MEMB     196      POPC     H17S     HAL2     0.900000E-01   1.00800           0
     26218 MEMB     196      POPC     C218     CTL3    -0.270000       12.0110           0
     26219 MEMB     196      POPC     H18R     HAL3     0.900000E-01   1.00800           0
     26220 MEMB     196      POPC     H18S     HAL3     0.900000E-01   1.00800           0
     26221 MEMB     196      POPC     H18T     HAL3     0.900000E-01   1.00800           0
     26222 MEMB     196      POPC     C33      CTL2    -0.180000       12.0110           0
     26223 MEMB     196      POPC     H3X      HAL2     0.900000E-01   1.00800           0
     26224 MEMB     196      POPC     H3Y      HAL2     0.900000E-01   1.00800           0
     26225 MEMB     196      POPC     C34      CTL2    -0.180000       12.0110           0
     26226 MEMB     196      POPC     H4X      HAL2     0.900000E-01   1.00800           0
     26227 MEMB     196      POPC     H4Y      HAL2     0.900000E-01   1.00800           0
     26228 MEMB     196      POPC     C35      CTL2    -0.180000       12.0110           0
     26229 MEMB     196      POPC     H5X      HAL2     0.900000E-01   1.00800           0
     26230 MEMB     196      POPC     H5Y      HAL2     0.900000E-01   1.00800           0
     26231 MEMB     196      POPC     C36      CTL2    -0.180000       12.0110           0
     26232 MEMB     196      POPC     H6X      HAL2     0.900000E-01   1.00800           0
     26233 MEMB     196      POPC     H6Y      HAL2     0.900000E-01   1.00800           0
     26234 MEMB     196      POPC     C37      CTL2    -0.180000       12.0110           0
     26235 MEMB     196      POPC     H7X      HAL2     0.900000E-01   1.00800           0
     26236 MEMB     196      POPC     H7Y      HAL2     0.900000E-01   1.00800           0
     26237 MEMB     196      POPC     C38      CTL2    -0.180000       12.0110           0
     26238 MEMB     196      POPC     H8X      HAL2     0.900000E-01   1.00800           0
     26239 MEMB     196      POPC     H8Y      HAL2     0.900000E-01   1.00800           0
     26240 MEMB     196      POPC     C39      CTL2    -0.180000       12.0110           0
     26241 MEMB     196      POPC     H9X      HAL2     0.900000E-01   1.00800           0
     26242 MEMB     196      POPC     H9Y      HAL2     0.900000E-01   1.00800           0
     26243 MEMB     196      POPC     C310     CTL2    -0.180000       12.0110           0
     26244 MEMB     196      POPC     H10X     HAL2     0.900000E-01   1.00800           0
     26245 MEMB     196      POPC     H10Y     HAL2     0.900000E-01   1.00800           0
     26246 MEMB     196      POPC     C311     CTL2    -0.180000       12.0110           0
     26247 MEMB     196      POPC     H11X     HAL2     0.900000E-01   1.00800           0
     26248 MEMB     196      POPC     H11Y     HAL2     0.900000E-01   1.00800           0
     26249 MEMB     196      POPC     C312     CTL2    -0.180000       12.0110           0
     26250 MEMB     196      POPC     H12X     HAL2     0.900000E-01   1.00800           0
     26251 MEMB     196      POPC     H12Y     HAL2     0.900000E-01   1.00800           0
     26252 MEMB     196      POPC     C313     CTL2    -0.180000       12.0110           0
     26253 MEMB     196      POPC     H13X     HAL2     0.900000E-01   1.00800           0
     26254 MEMB     196      POPC     H13Y     HAL2     0.900000E-01   1.00800           0
     26255 MEMB     196      POPC     C314     CTL2    -0.180000       12.0110           0
     26256 MEMB     196      POPC     H14X     HAL2     0.900000E-01   1.00800           0
     26257 MEMB     196      POPC     H14Y     HAL2     0.900000E-01   1.00800           0
     26258 MEMB     196      POPC     C315     CTL2    -0.180000       12.0110           0
     26259 MEMB     196      POPC     H15X     HAL2     0.900000E-01   1.00800           0
     26260 MEMB     196      POPC     H15Y     HAL2     0.900000E-01   1.00800           0
     26261 MEMB     196      POPC     C316     CTL3    -0.270000       12.0110           0
     26262 MEMB     196      POPC     H16X     HAL3     0.900000E-01   1.00800           0
     26263 MEMB     196      POPC     H16Y     HAL3     0.900000E-01   1.00800           0
     26264 MEMB     196      POPC     H16Z     HAL3     0.900000E-01   1.00800           0
     26265 MEMB     197      POPC     N        NTL     -0.600000       14.0070           0
     26266 MEMB     197      POPC     C12      CTL2    -0.100000       12.0110           0
     26267 MEMB     197      POPC     H12A     HL       0.250000       1.00800           0
     26268 MEMB     197      POPC     H12B     HL       0.250000       1.00800           0
     26269 MEMB     197      POPC     C13      CTL5    -0.350000       12.0110           0
     26270 MEMB     197      POPC     H13A     HL       0.250000       1.00800           0
     26271 MEMB     197      POPC     H13B     HL       0.250000       1.00800           0
     26272 MEMB     197      POPC     H13C     HL       0.250000       1.00800           0
     26273 MEMB     197      POPC     C14      CTL5    -0.350000       12.0110           0
     26274 MEMB     197      POPC     H14A     HL       0.250000       1.00800           0
     26275 MEMB     197      POPC     H14B     HL       0.250000       1.00800           0
     26276 MEMB     197      POPC     H14C     HL       0.250000       1.00800           0
     26277 MEMB     197      POPC     C15      CTL5    -0.350000       12.0110           0
     26278 MEMB     197      POPC     H15A     HL       0.250000       1.00800           0
     26279 MEMB     197      POPC     H15B     HL       0.250000       1.00800           0
     26280 MEMB     197      POPC     H15C     HL       0.250000       1.00800           0
     26281 MEMB     197      POPC     C11      CTL2    -0.800000E-01   12.0110           0
     26282 MEMB     197      POPC     H11A     HAL2     0.900000E-01   1.00800           0
     26283 MEMB     197      POPC     H11B     HAL2     0.900000E-01   1.00800           0
     26284 MEMB     197      POPC     P        PL       1.50000        30.9740           0
     26285 MEMB     197      POPC     O13      O2L     -0.780000       15.9994           0
     26286 MEMB     197      POPC     O14      O2L     -0.780000       15.9994           0
     26287 MEMB     197      POPC     O12      OSLP    -0.570000       15.9994           0
     26288 MEMB     197      POPC     O11      OSLP    -0.570000       15.9994           0
     26289 MEMB     197      POPC     C1       CTL2    -0.800000E-01   12.0110           0
     26290 MEMB     197      POPC     HA       HAL2     0.900000E-01   1.00800           0
     26291 MEMB     197      POPC     HB       HAL2     0.900000E-01   1.00800           0
     26292 MEMB     197      POPC     C2       CTL1     0.170000       12.0110           0
     26293 MEMB     197      POPC     HS       HAL1     0.900000E-01   1.00800           0
     26294 MEMB     197      POPC     O21      OSL     -0.490000       15.9994           0
     26295 MEMB     197      POPC     C21      CL       0.900000       12.0110           0
     26296 MEMB     197      POPC     O22      OBL     -0.630000       15.9994           0
     26297 MEMB     197      POPC     C22      CTL2    -0.220000       12.0110           0
     26298 MEMB     197      POPC     H2R      HAL2     0.900000E-01   1.00800           0
     26299 MEMB     197      POPC     H2S      HAL2     0.900000E-01   1.00800           0
     26300 MEMB     197      POPC     C3       CTL2     0.800000E-01   12.0110           0
     26301 MEMB     197      POPC     HX       HAL2     0.900000E-01   1.00800           0
     26302 MEMB     197      POPC     HY       HAL2     0.900000E-01   1.00800           0
     26303 MEMB     197      POPC     O31      OSL     -0.490000       15.9994           0
     26304 MEMB     197      POPC     C31      CL       0.900000       12.0110           0
     26305 MEMB     197      POPC     O32      OBL     -0.630000       15.9994           0
     26306 MEMB     197      POPC     C32      CTL2    -0.220000       12.0110           0
     26307 MEMB     197      POPC     H2X      HAL2     0.900000E-01   1.00800           0
     26308 MEMB     197      POPC     H2Y      HAL2     0.900000E-01   1.00800           0
     26309 MEMB     197      POPC     C23      CTL2    -0.180000       12.0110           0
     26310 MEMB     197      POPC     H3R      HAL2     0.900000E-01   1.00800           0
     26311 MEMB     197      POPC     H3S      HAL2     0.900000E-01   1.00800           0
     26312 MEMB     197      POPC     C24      CTL2    -0.180000       12.0110           0
     26313 MEMB     197      POPC     H4R      HAL2     0.900000E-01   1.00800           0
     26314 MEMB     197      POPC     H4S      HAL2     0.900000E-01   1.00800           0
     26315 MEMB     197      POPC     C25      CTL2    -0.180000       12.0110           0
     26316 MEMB     197      POPC     H5R      HAL2     0.900000E-01   1.00800           0
     26317 MEMB     197      POPC     H5S      HAL2     0.900000E-01   1.00800           0
     26318 MEMB     197      POPC     C26      CTL2    -0.180000       12.0110           0
     26319 MEMB     197      POPC     H6R      HAL2     0.900000E-01   1.00800           0
     26320 MEMB     197      POPC     H6S      HAL2     0.900000E-01   1.00800           0
     26321 MEMB     197      POPC     C27      CTL2    -0.180000       12.0110           0
     26322 MEMB     197      POPC     H7R      HAL2     0.900000E-01   1.00800           0
     26323 MEMB     197      POPC     H7S      HAL2     0.900000E-01   1.00800           0
     26324 MEMB     197      POPC     C28      CTL2    -0.180000       12.0110           0
     26325 MEMB     197      POPC     H8R      HAL2     0.900000E-01   1.00800           0
     26326 MEMB     197      POPC     H8S      HAL2     0.900000E-01   1.00800           0
     26327 MEMB     197      POPC     C29      CEL1    -0.150000       12.0110           0
     26328 MEMB     197      POPC     H91      HEL1     0.150000       1.00800           0
     26329 MEMB     197      POPC     C210     CEL1    -0.150000       12.0110           0
     26330 MEMB     197      POPC     H101     HEL1     0.150000       1.00800           0
     26331 MEMB     197      POPC     C211     CTL2    -0.180000       12.0110           0
     26332 MEMB     197      POPC     H11R     HAL2     0.900000E-01   1.00800           0
     26333 MEMB     197      POPC     H11S     HAL2     0.900000E-01   1.00800           0
     26334 MEMB     197      POPC     C212     CTL2    -0.180000       12.0110           0
     26335 MEMB     197      POPC     H12R     HAL2     0.900000E-01   1.00800           0
     26336 MEMB     197      POPC     H12S     HAL2     0.900000E-01   1.00800           0
     26337 MEMB     197      POPC     C213     CTL2    -0.180000       12.0110           0
     26338 MEMB     197      POPC     H13R     HAL2     0.900000E-01   1.00800           0
     26339 MEMB     197      POPC     H13S     HAL2     0.900000E-01   1.00800           0
     26340 MEMB     197      POPC     C214     CTL2    -0.180000       12.0110           0
     26341 MEMB     197      POPC     H14R     HAL2     0.900000E-01   1.00800           0
     26342 MEMB     197      POPC     H14S     HAL2     0.900000E-01   1.00800           0
     26343 MEMB     197      POPC     C215     CTL2    -0.180000       12.0110           0
     26344 MEMB     197      POPC     H15R     HAL2     0.900000E-01   1.00800           0
     26345 MEMB     197      POPC     H15S     HAL2     0.900000E-01   1.00800           0
     26346 MEMB     197      POPC     C216     CTL2    -0.180000       12.0110           0
     26347 MEMB     197      POPC     H16R     HAL2     0.900000E-01   1.00800           0
     26348 MEMB     197      POPC     H16S     HAL2     0.900000E-01   1.00800           0
     26349 MEMB     197      POPC     C217     CTL2    -0.180000       12.0110           0
     26350 MEMB     197      POPC     H17R     HAL2     0.900000E-01   1.00800           0
     26351 MEMB     197      POPC     H17S     HAL2     0.900000E-01   1.00800           0
     26352 MEMB     197      POPC     C218     CTL3    -0.270000       12.0110           0
     26353 MEMB     197      POPC     H18R     HAL3     0.900000E-01   1.00800           0
     26354 MEMB     197      POPC     H18S     HAL3     0.900000E-01   1.00800           0
     26355 MEMB     197      POPC     H18T     HAL3     0.900000E-01   1.00800           0
     26356 MEMB     197      POPC     C33      CTL2    -0.180000       12.0110           0
     26357 MEMB     197      POPC     H3X      HAL2     0.900000E-01   1.00800           0
     26358 MEMB     197      POPC     H3Y      HAL2     0.900000E-01   1.00800           0
     26359 MEMB     197      POPC     C34      CTL2    -0.180000       12.0110           0
     26360 MEMB     197      POPC     H4X      HAL2     0.900000E-01   1.00800           0
     26361 MEMB     197      POPC     H4Y      HAL2     0.900000E-01   1.00800           0
     26362 MEMB     197      POPC     C35      CTL2    -0.180000       12.0110           0
     26363 MEMB     197      POPC     H5X      HAL2     0.900000E-01   1.00800           0
     26364 MEMB     197      POPC     H5Y      HAL2     0.900000E-01   1.00800           0
     26365 MEMB     197      POPC     C36      CTL2    -0.180000       12.0110           0
     26366 MEMB     197      POPC     H6X      HAL2     0.900000E-01   1.00800           0
     26367 MEMB     197      POPC     H6Y      HAL2     0.900000E-01   1.00800           0
     26368 MEMB     197      POPC     C37      CTL2    -0.180000       12.0110           0
     26369 MEMB     197      POPC     H7X      HAL2     0.900000E-01   1.00800           0
     26370 MEMB     197      POPC     H7Y      HAL2     0.900000E-01   1.00800           0
     26371 MEMB     197      POPC     C38      CTL2    -0.180000       12.0110           0
     26372 MEMB     197      POPC     H8X      HAL2     0.900000E-01   1.00800           0
     26373 MEMB     197      POPC     H8Y      HAL2     0.900000E-01   1.00800           0
     26374 MEMB     197      POPC     C39      CTL2    -0.180000       12.0110           0
     26375 MEMB     197      POPC     H9X      HAL2     0.900000E-01   1.00800           0
     26376 MEMB     197      POPC     H9Y      HAL2     0.900000E-01   1.00800           0
     26377 MEMB     197      POPC     C310     CTL2    -0.180000       12.0110           0
     26378 MEMB     197      POPC     H10X     HAL2     0.900000E-01   1.00800           0
     26379 MEMB     197      POPC     H10Y     HAL2     0.900000E-01   1.00800           0
     26380 MEMB     197      POPC     C311     CTL2    -0.180000       12.0110           0
     26381 MEMB     197      POPC     H11X     HAL2     0.900000E-01   1.00800           0
     26382 MEMB     197      POPC     H11Y     HAL2     0.900000E-01   1.00800           0
     26383 MEMB     197      POPC     C312     CTL2    -0.180000       12.0110           0
     26384 MEMB     197      POPC     H12X     HAL2     0.900000E-01   1.00800           0
     26385 MEMB     197      POPC     H12Y     HAL2     0.900000E-01   1.00800           0
     26386 MEMB     197      POPC     C313     CTL2    -0.180000       12.0110           0
     26387 MEMB     197      POPC     H13X     HAL2     0.900000E-01   1.00800           0
     26388 MEMB     197      POPC     H13Y     HAL2     0.900000E-01   1.00800           0
     26389 MEMB     197      POPC     C314     CTL2    -0.180000       12.0110           0
     26390 MEMB     197      POPC     H14X     HAL2     0.900000E-01   1.00800           0
     26391 MEMB     197      POPC     H14Y     HAL2     0.900000E-01   1.00800           0
     26392 MEMB     197      POPC     C315     CTL2    -0.180000       12.0110           0
     26393 MEMB     197      POPC     H15X     HAL2     0.900000E-01   1.00800           0
     26394 MEMB     197      POPC     H15Y     HAL2     0.900000E-01   1.00800           0
     26395 MEMB     197      POPC     C316     CTL3    -0.270000       12.0110           0
     26396 MEMB     197      POPC     H16X     HAL3     0.900000E-01   1.00800           0
     26397 MEMB     197      POPC     H16Y     HAL3     0.900000E-01   1.00800           0
     26398 MEMB     197      POPC     H16Z     HAL3     0.900000E-01   1.00800           0
     26399 MEMB     198      POPC     N        NTL     -0.600000       14.0070           0
     26400 MEMB     198      POPC     C12      CTL2    -0.100000       12.0110           0
     26401 MEMB     198      POPC     H12A     HL       0.250000       1.00800           0
     26402 MEMB     198      POPC     H12B     HL       0.250000       1.00800           0
     26403 MEMB     198      POPC     C13      CTL5    -0.350000       12.0110           0
     26404 MEMB     198      POPC     H13A     HL       0.250000       1.00800           0
     26405 MEMB     198      POPC     H13B     HL       0.250000       1.00800           0
     26406 MEMB     198      POPC     H13C     HL       0.250000       1.00800           0
     26407 MEMB     198      POPC     C14      CTL5    -0.350000       12.0110           0
     26408 MEMB     198      POPC     H14A     HL       0.250000       1.00800           0
     26409 MEMB     198      POPC     H14B     HL       0.250000       1.00800           0
     26410 MEMB     198      POPC     H14C     HL       0.250000       1.00800           0
     26411 MEMB     198      POPC     C15      CTL5    -0.350000       12.0110           0
     26412 MEMB     198      POPC     H15A     HL       0.250000       1.00800           0
     26413 MEMB     198      POPC     H15B     HL       0.250000       1.00800           0
     26414 MEMB     198      POPC     H15C     HL       0.250000       1.00800           0
     26415 MEMB     198      POPC     C11      CTL2    -0.800000E-01   12.0110           0
     26416 MEMB     198      POPC     H11A     HAL2     0.900000E-01   1.00800           0
     26417 MEMB     198      POPC     H11B     HAL2     0.900000E-01   1.00800           0
     26418 MEMB     198      POPC     P        PL       1.50000        30.9740           0
     26419 MEMB     198      POPC     O13      O2L     -0.780000       15.9994           0
     26420 MEMB     198      POPC     O14      O2L     -0.780000       15.9994           0
     26421 MEMB     198      POPC     O12      OSLP    -0.570000       15.9994           0
     26422 MEMB     198      POPC     O11      OSLP    -0.570000       15.9994           0
     26423 MEMB     198      POPC     C1       CTL2    -0.800000E-01   12.0110           0
     26424 MEMB     198      POPC     HA       HAL2     0.900000E-01   1.00800           0
     26425 MEMB     198      POPC     HB       HAL2     0.900000E-01   1.00800           0
     26426 MEMB     198      POPC     C2       CTL1     0.170000       12.0110           0
     26427 MEMB     198      POPC     HS       HAL1     0.900000E-01   1.00800           0
     26428 MEMB     198      POPC     O21      OSL     -0.490000       15.9994           0
     26429 MEMB     198      POPC     C21      CL       0.900000       12.0110           0
     26430 MEMB     198      POPC     O22      OBL     -0.630000       15.9994           0
     26431 MEMB     198      POPC     C22      CTL2    -0.220000       12.0110           0
     26432 MEMB     198      POPC     H2R      HAL2     0.900000E-01   1.00800           0
     26433 MEMB     198      POPC     H2S      HAL2     0.900000E-01   1.00800           0
     26434 MEMB     198      POPC     C3       CTL2     0.800000E-01   12.0110           0
     26435 MEMB     198      POPC     HX       HAL2     0.900000E-01   1.00800           0
     26436 MEMB     198      POPC     HY       HAL2     0.900000E-01   1.00800           0
     26437 MEMB     198      POPC     O31      OSL     -0.490000       15.9994           0
     26438 MEMB     198      POPC     C31      CL       0.900000       12.0110           0
     26439 MEMB     198      POPC     O32      OBL     -0.630000       15.9994           0
     26440 MEMB     198      POPC     C32      CTL2    -0.220000       12.0110           0
     26441 MEMB     198      POPC     H2X      HAL2     0.900000E-01   1.00800           0
     26442 MEMB     198      POPC     H2Y      HAL2     0.900000E-01   1.00800           0
     26443 MEMB     198      POPC     C23      CTL2    -0.180000       12.0110           0
     26444 MEMB     198      POPC     H3R      HAL2     0.900000E-01   1.00800           0
     26445 MEMB     198      POPC     H3S      HAL2     0.900000E-01   1.00800           0
     26446 MEMB     198      POPC     C24      CTL2    -0.180000       12.0110           0
     26447 MEMB     198      POPC     H4R      HAL2     0.900000E-01   1.00800           0
     26448 MEMB     198      POPC     H4S      HAL2     0.900000E-01   1.00800           0
     26449 MEMB     198      POPC     C25      CTL2    -0.180000       12.0110           0
     26450 MEMB     198      POPC     H5R      HAL2     0.900000E-01   1.00800           0
     26451 MEMB     198      POPC     H5S      HAL2     0.900000E-01   1.00800           0
     26452 MEMB     198      POPC     C26      CTL2    -0.180000       12.0110           0
     26453 MEMB     198      POPC     H6R      HAL2     0.900000E-01   1.00800           0
     26454 MEMB     198      POPC     H6S      HAL2     0.900000E-01   1.00800           0
     26455 MEMB     198      POPC     C27      CTL2    -0.180000       12.0110           0
     26456 MEMB     198      POPC     H7R      HAL2     0.900000E-01   1.00800           0
     26457 MEMB     198      POPC     H7S      HAL2     0.900000E-01   1.00800           0
     26458 MEMB     198      POPC     C28      CTL2    -0.180000       12.0110           0
     26459 MEMB     198      POPC     H8R      HAL2     0.900000E-01   1.00800           0
     26460 MEMB     198      POPC     H8S      HAL2     0.900000E-01   1.00800           0
     26461 MEMB     198      POPC     C29      CEL1    -0.150000       12.0110           0
     26462 MEMB     198      POPC     H91      HEL1     0.150000       1.00800           0
     26463 MEMB     198      POPC     C210     CEL1    -0.150000       12.0110           0
     26464 MEMB     198      POPC     H101     HEL1     0.150000       1.00800           0
     26465 MEMB     198      POPC     C211     CTL2    -0.180000       12.0110           0
     26466 MEMB     198      POPC     H11R     HAL2     0.900000E-01   1.00800           0
     26467 MEMB     198      POPC     H11S     HAL2     0.900000E-01   1.00800           0
     26468 MEMB     198      POPC     C212     CTL2    -0.180000       12.0110           0
     26469 MEMB     198      POPC     H12R     HAL2     0.900000E-01   1.00800           0
     26470 MEMB     198      POPC     H12S     HAL2     0.900000E-01   1.00800           0
     26471 MEMB     198      POPC     C213     CTL2    -0.180000       12.0110           0
     26472 MEMB     198      POPC     H13R     HAL2     0.900000E-01   1.00800           0
     26473 MEMB     198      POPC     H13S     HAL2     0.900000E-01   1.00800           0
     26474 MEMB     198      POPC     C214     CTL2    -0.180000       12.0110           0
     26475 MEMB     198      POPC     H14R     HAL2     0.900000E-01   1.00800           0
     26476 MEMB     198      POPC     H14S     HAL2     0.900000E-01   1.00800           0
     26477 MEMB     198      POPC     C215     CTL2    -0.180000       12.0110           0
     26478 MEMB     198      POPC     H15R     HAL2     0.900000E-01   1.00800           0
     26479 MEMB     198      POPC     H15S     HAL2     0.900000E-01   1.00800           0
     26480 MEMB     198      POPC     C216     CTL2    -0.180000       12.0110           0
     26481 MEMB     198      POPC     H16R     HAL2     0.900000E-01   1.00800           0
     26482 MEMB     198      POPC     H16S     HAL2     0.900000E-01   1.00800           0
     26483 MEMB     198      POPC     C217     CTL2    -0.180000       12.0110           0
     26484 MEMB     198      POPC     H17R     HAL2     0.900000E-01   1.00800           0
     26485 MEMB     198      POPC     H17S     HAL2     0.900000E-01   1.00800           0
     26486 MEMB     198      POPC     C218     CTL3    -0.270000       12.0110           0
     26487 MEMB     198      POPC     H18R     HAL3     0.900000E-01   1.00800           0
     26488 MEMB     198      POPC     H18S     HAL3     0.900000E-01   1.00800           0
     26489 MEMB     198      POPC     H18T     HAL3     0.900000E-01   1.00800           0
     26490 MEMB     198      POPC     C33      CTL2    -0.180000       12.0110           0
     26491 MEMB     198      POPC     H3X      HAL2     0.900000E-01   1.00800           0
     26492 MEMB     198      POPC     H3Y      HAL2     0.900000E-01   1.00800           0
     26493 MEMB     198      POPC     C34      CTL2    -0.180000       12.0110           0
     26494 MEMB     198      POPC     H4X      HAL2     0.900000E-01   1.00800           0
     26495 MEMB     198      POPC     H4Y      HAL2     0.900000E-01   1.00800           0
     26496 MEMB     198      POPC     C35      CTL2    -0.180000       12.0110           0
     26497 MEMB     198      POPC     H5X      HAL2     0.900000E-01   1.00800           0
     26498 MEMB     198      POPC     H5Y      HAL2     0.900000E-01   1.00800           0
     26499 MEMB     198      POPC     C36      CTL2    -0.180000       12.0110           0
     26500 MEMB     198      POPC     H6X      HAL2     0.900000E-01   1.00800           0
     26501 MEMB     198      POPC     H6Y      HAL2     0.900000E-01   1.00800           0
     26502 MEMB     198      POPC     C37      CTL2    -0.180000       12.0110           0
     26503 MEMB     198      POPC     H7X      HAL2     0.900000E-01   1.00800           0
     26504 MEMB     198      POPC     H7Y      HAL2     0.900000E-01   1.00800           0
     26505 MEMB     198      POPC     C38      CTL2    -0.180000       12.0110           0
     26506 MEMB     198      POPC     H8X      HAL2     0.900000E-01   1.00800           0
     26507 MEMB     198      POPC     H8Y      HAL2     0.900000E-01   1.00800           0
     26508 MEMB     198      POPC     C39      CTL2    -0.180000       12.0110           0
     26509 MEMB     198      POPC     H9X      HAL2     0.900000E-01   1.00800           0
     26510 MEMB     198      POPC     H9Y      HAL2     0.900000E-01   1.00800           0
     26511 MEMB     198      POPC     C310     CTL2    -0.180000       12.0110           0
     26512 MEMB     198      POPC     H10X     HAL2     0.900000E-01   1.00800           0
     26513 MEMB     198      POPC     H10Y     HAL2     0.900000E-01   1.00800           0
     26514 MEMB     198      POPC     C311     CTL2    -0.180000       12.0110           0
     26515 MEMB     198      POPC     H11X     HAL2     0.900000E-01   1.00800           0
     26516 MEMB     198      POPC     H11Y     HAL2     0.900000E-01   1.00800           0
     26517 MEMB     198      POPC     C312     CTL2    -0.180000       12.0110           0
     26518 MEMB     198      POPC     H12X     HAL2     0.900000E-01   1.00800           0
     26519 MEMB     198      POPC     H12Y     HAL2     0.900000E-01   1.00800           0
     26520 MEMB     198      POPC     C313     CTL2    -0.180000       12.0110           0
     26521 MEMB     198      POPC     H13X     HAL2     0.900000E-01   1.00800           0
     26522 MEMB     198      POPC     H13Y     HAL2     0.900000E-01   1.00800           0
     26523 MEMB     198      POPC     C314     CTL2    -0.180000       12.0110           0
     26524 MEMB     198      POPC     H14X     HAL2     0.900000E-01   1.00800           0
     26525 MEMB     198      POPC     H14Y     HAL2     0.900000E-01   1.00800           0
     26526 MEMB     198      POPC     C315     CTL2    -0.180000       12.0110           0
     26527 MEMB     198      POPC     H15X     HAL2     0.900000E-01   1.00800           0
     26528 MEMB     198      POPC     H15Y     HAL2     0.900000E-01   1.00800           0
     26529 MEMB     198      POPC     C316     CTL3    -0.270000       12.0110           0
     26530 MEMB     198      POPC     H16X     HAL3     0.900000E-01   1.00800           0
     26531 MEMB     198      POPC     H16Y     HAL3     0.900000E-01   1.00800           0
     26532 MEMB     198      POPC     H16Z     HAL3     0.900000E-01   1.00800           0
     26533 MEMB     199      POPC     N        NTL     -0.600000       14.0070           0
     26534 MEMB     199      POPC     C12      CTL2    -0.100000       12.0110           0
     26535 MEMB     199      POPC     H12A     HL       0.250000       1.00800           0
     26536 MEMB     199      POPC     H12B     HL       0.250000       1.00800           0
     26537 MEMB     199      POPC     C13      CTL5    -0.350000       12.0110           0
     26538 MEMB     199      POPC     H13A     HL       0.250000       1.00800           0
     26539 MEMB     199      POPC     H13B     HL       0.250000       1.00800           0
     26540 MEMB     199      POPC     H13C     HL       0.250000       1.00800           0
     26541 MEMB     199      POPC     C14      CTL5    -0.350000       12.0110           0
     26542 MEMB     199      POPC     H14A     HL       0.250000       1.00800           0
     26543 MEMB     199      POPC     H14B     HL       0.250000       1.00800           0
     26544 MEMB     199      POPC     H14C     HL       0.250000       1.00800           0
     26545 MEMB     199      POPC     C15      CTL5    -0.350000       12.0110           0
     26546 MEMB     199      POPC     H15A     HL       0.250000       1.00800           0
     26547 MEMB     199      POPC     H15B     HL       0.250000       1.00800           0
     26548 MEMB     199      POPC     H15C     HL       0.250000       1.00800           0
     26549 MEMB     199      POPC     C11      CTL2    -0.800000E-01   12.0110           0
     26550 MEMB     199      POPC     H11A     HAL2     0.900000E-01   1.00800           0
     26551 MEMB     199      POPC     H11B     HAL2     0.900000E-01   1.00800           0
     26552 MEMB     199      POPC     P        PL       1.50000        30.9740           0
     26553 MEMB     199      POPC     O13      O2L     -0.780000       15.9994           0
     26554 MEMB     199      POPC     O14      O2L     -0.780000       15.9994           0
     26555 MEMB     199      POPC     O12      OSLP    -0.570000       15.9994           0
     26556 MEMB     199      POPC     O11      OSLP    -0.570000       15.9994           0
     26557 MEMB     199      POPC     C1       CTL2    -0.800000E-01   12.0110           0
     26558 MEMB     199      POPC     HA       HAL2     0.900000E-01   1.00800           0
     26559 MEMB     199      POPC     HB       HAL2     0.900000E-01   1.00800           0
     26560 MEMB     199      POPC     C2       CTL1     0.170000       12.0110           0
     26561 MEMB     199      POPC     HS       HAL1     0.900000E-01   1.00800           0
     26562 MEMB     199      POPC     O21      OSL     -0.490000       15.9994           0
     26563 MEMB     199      POPC     C21      CL       0.900000       12.0110           0
     26564 MEMB     199      POPC     O22      OBL     -0.630000       15.9994           0
     26565 MEMB     199      POPC     C22      CTL2    -0.220000       12.0110           0
     26566 MEMB     199      POPC     H2R      HAL2     0.900000E-01   1.00800           0
     26567 MEMB     199      POPC     H2S      HAL2     0.900000E-01   1.00800           0
     26568 MEMB     199      POPC     C3       CTL2     0.800000E-01   12.0110           0
     26569 MEMB     199      POPC     HX       HAL2     0.900000E-01   1.00800           0
     26570 MEMB     199      POPC     HY       HAL2     0.900000E-01   1.00800           0
     26571 MEMB     199      POPC     O31      OSL     -0.490000       15.9994           0
     26572 MEMB     199      POPC     C31      CL       0.900000       12.0110           0
     26573 MEMB     199      POPC     O32      OBL     -0.630000       15.9994           0
     26574 MEMB     199      POPC     C32      CTL2    -0.220000       12.0110           0
     26575 MEMB     199      POPC     H2X      HAL2     0.900000E-01   1.00800           0
     26576 MEMB     199      POPC     H2Y      HAL2     0.900000E-01   1.00800           0
     26577 MEMB     199      POPC     C23      CTL2    -0.180000       12.0110           0
     26578 MEMB     199      POPC     H3R      HAL2     0.900000E-01   1.00800           0
     26579 MEMB     199      POPC     H3S      HAL2     0.900000E-01   1.00800           0
     26580 MEMB     199      POPC     C24      CTL2    -0.180000       12.0110           0
     26581 MEMB     199      POPC     H4R      HAL2     0.900000E-01   1.00800           0
     26582 MEMB     199      POPC     H4S      HAL2     0.900000E-01   1.00800           0
     26583 MEMB     199      POPC     C25      CTL2    -0.180000       12.0110           0
     26584 MEMB     199      POPC     H5R      HAL2     0.900000E-01   1.00800           0
     26585 MEMB     199      POPC     H5S      HAL2     0.900000E-01   1.00800           0
     26586 MEMB     199      POPC     C26      CTL2    -0.180000       12.0110           0
     26587 MEMB     199      POPC     H6R      HAL2     0.900000E-01   1.00800           0
     26588 MEMB     199      POPC     H6S      HAL2     0.900000E-01   1.00800           0
     26589 MEMB     199      POPC     C27      CTL2    -0.180000       12.0110           0
     26590 MEMB     199      POPC     H7R      HAL2     0.900000E-01   1.00800           0
     26591 MEMB     199      POPC     H7S      HAL2     0.900000E-01   1.00800           0
     26592 MEMB     199      POPC     C28      CTL2    -0.180000       12.0110           0
     26593 MEMB     199      POPC     H8R      HAL2     0.900000E-01   1.00800           0
     26594 MEMB     199      POPC     H8S      HAL2     0.900000E-01   1.00800           0
     26595 MEMB     199      POPC     C29      CEL1    -0.150000       12.0110           0
     26596 MEMB     199      POPC     H91      HEL1     0.150000       1.00800           0
     26597 MEMB     199      POPC     C210     CEL1    -0.150000       12.0110           0
     26598 MEMB     199      POPC     H101     HEL1     0.150000       1.00800           0
     26599 MEMB     199      POPC     C211     CTL2    -0.180000       12.0110           0
     26600 MEMB     199      POPC     H11R     HAL2     0.900000E-01   1.00800           0
     26601 MEMB     199      POPC     H11S     HAL2     0.900000E-01   1.00800           0
     26602 MEMB     199      POPC     C212     CTL2    -0.180000       12.0110           0
     26603 MEMB     199      POPC     H12R     HAL2     0.900000E-01   1.00800           0
     26604 MEMB     199      POPC     H12S     HAL2     0.900000E-01   1.00800           0
     26605 MEMB     199      POPC     C213     CTL2    -0.180000       12.0110           0
     26606 MEMB     199      POPC     H13R     HAL2     0.900000E-01   1.00800           0
     26607 MEMB     199      POPC     H13S     HAL2     0.900000E-01   1.00800           0
     26608 MEMB     199      POPC     C214     CTL2    -0.180000       12.0110           0
     26609 MEMB     199      POPC     H14R     HAL2     0.900000E-01   1.00800           0
     26610 MEMB     199      POPC     H14S     HAL2     0.900000E-01   1.00800           0
     26611 MEMB     199      POPC     C215     CTL2    -0.180000       12.0110           0
     26612 MEMB     199      POPC     H15R     HAL2     0.900000E-01   1.00800           0
     26613 MEMB     199      POPC     H15S     HAL2     0.900000E-01   1.00800           0
     26614 MEMB     199      POPC     C216     CTL2    -0.180000       12.0110           0
     26615 MEMB     199      POPC     H16R     HAL2     0.900000E-01   1.00800           0
     26616 MEMB     199      POPC     H16S     HAL2     0.900000E-01   1.00800           0
     26617 MEMB     199      POPC     C217     CTL2    -0.180000       12.0110           0
     26618 MEMB     199      POPC     H17R     HAL2     0.900000E-01   1.00800           0
     26619 MEMB     199      POPC     H17S     HAL2     0.900000E-01   1.00800           0
     26620 MEMB     199      POPC     C218     CTL3    -0.270000       12.0110           0
     26621 MEMB     199      POPC     H18R     HAL3     0.900000E-01   1.00800           0
     26622 MEMB     199      POPC     H18S     HAL3     0.900000E-01   1.00800           0
     26623 MEMB     199      POPC     H18T     HAL3     0.900000E-01   1.00800           0
     26624 MEMB     199      POPC     C33      CTL2    -0.180000       12.0110           0
     26625 MEMB     199      POPC     H3X      HAL2     0.900000E-01   1.00800           0
     26626 MEMB     199      POPC     H3Y      HAL2     0.900000E-01   1.00800           0
     26627 MEMB     199      POPC     C34      CTL2    -0.180000       12.0110           0
     26628 MEMB     199      POPC     H4X      HAL2     0.900000E-01   1.00800           0
     26629 MEMB     199      POPC     H4Y      HAL2     0.900000E-01   1.00800           0
     26630 MEMB     199      POPC     C35      CTL2    -0.180000       12.0110           0
     26631 MEMB     199      POPC     H5X      HAL2     0.900000E-01   1.00800           0
     26632 MEMB     199      POPC     H5Y      HAL2     0.900000E-01   1.00800           0
     26633 MEMB     199      POPC     C36      CTL2    -0.180000       12.0110           0
     26634 MEMB     199      POPC     H6X      HAL2     0.900000E-01   1.00800           0
     26635 MEMB     199      POPC     H6Y      HAL2     0.900000E-01   1.00800           0
     26636 MEMB     199      POPC     C37      CTL2    -0.180000       12.0110           0
     26637 MEMB     199      POPC     H7X      HAL2     0.900000E-01   1.00800           0
     26638 MEMB     199      POPC     H7Y      HAL2     0.900000E-01   1.00800           0
     26639 MEMB     199      POPC     C38      CTL2    -0.180000       12.0110           0
     26640 MEMB     199      POPC     H8X      HAL2     0.900000E-01   1.00800           0
     26641 MEMB     199      POPC     H8Y      HAL2     0.900000E-01   1.00800           0
     26642 MEMB     199      POPC     C39      CTL2    -0.180000       12.0110           0
     26643 MEMB     199      POPC     H9X      HAL2     0.900000E-01   1.00800           0
     26644 MEMB     199      POPC     H9Y      HAL2     0.900000E-01   1.00800           0
     26645 MEMB     199      POPC     C310     CTL2    -0.180000       12.0110           0
     26646 MEMB     199      POPC     H10X     HAL2     0.900000E-01   1.00800           0
     26647 MEMB     199      POPC     H10Y     HAL2     0.900000E-01   1.00800           0
     26648 MEMB     199      POPC     C311     CTL2    -0.180000       12.0110           0
     26649 MEMB     199      POPC     H11X     HAL2     0.900000E-01   1.00800           0
     26650 MEMB     199      POPC     H11Y     HAL2     0.900000E-01   1.00800           0
     26651 MEMB     199      POPC     C312     CTL2    -0.180000       12.0110           0
     26652 MEMB     199      POPC     H12X     HAL2     0.900000E-01   1.00800           0
     26653 MEMB     199      POPC     H12Y     HAL2     0.900000E-01   1.00800           0
     26654 MEMB     199      POPC     C313     CTL2    -0.180000       12.0110           0
     26655 MEMB     199      POPC     H13X     HAL2     0.900000E-01   1.00800           0
     26656 MEMB     199      POPC     H13Y     HAL2     0.900000E-01   1.00800           0
     26657 MEMB     199      POPC     C314     CTL2    -0.180000       12.0110           0
     26658 MEMB     199      POPC     H14X     HAL2     0.900000E-01   1.00800           0
     26659 MEMB     199      POPC     H14Y     HAL2     0.900000E-01   1.00800           0
     26660 MEMB     199      POPC     C315     CTL2    -0.180000       12.0110           0
     26661 MEMB     199      POPC     H15X     HAL2     0.900000E-01   1.00800           0
     26662 MEMB     199      POPC     H15Y     HAL2     0.900000E-01   1.00800           0
     26663 MEMB     199      POPC     C316     CTL3    -0.270000       12.0110           0
     26664 MEMB     199      POPC     H16X     HAL3     0.900000E-01   1.00800           0
     26665 MEMB     199      POPC     H16Y     HAL3     0.900000E-01   1.00800           0
     26666 MEMB     199      POPC     H16Z     HAL3     0.900000E-01   1.00800           0
     26667 MEMB     200      POPC     N        NTL     -0.600000       14.0070           0
     26668 MEMB     200      POPC     C12      CTL2    -0.100000       12.0110           0
     26669 MEMB     200      POPC     H12A     HL       0.250000       1.00800           0
     26670 MEMB     200      POPC     H12B     HL       0.250000       1.00800           0
     26671 MEMB     200      POPC     C13      CTL5    -0.350000       12.0110           0
     26672 MEMB     200      POPC     H13A     HL       0.250000       1.00800           0
     26673 MEMB     200      POPC     H13B     HL       0.250000       1.00800           0
     26674 MEMB     200      POPC     H13C     HL       0.250000       1.00800           0
     26675 MEMB     200      POPC     C14      CTL5    -0.350000       12.0110           0
     26676 MEMB     200      POPC     H14A     HL       0.250000       1.00800           0
     26677 MEMB     200      POPC     H14B     HL       0.250000       1.00800           0
     26678 MEMB     200      POPC     H14C     HL       0.250000       1.00800           0
     26679 MEMB     200      POPC     C15      CTL5    -0.350000       12.0110           0
     26680 MEMB     200      POPC     H15A     HL       0.250000       1.00800           0
     26681 MEMB     200      POPC     H15B     HL       0.250000       1.00800           0
     26682 MEMB     200      POPC     H15C     HL       0.250000       1.00800           0
     26683 MEMB     200      POPC     C11      CTL2    -0.800000E-01   12.0110           0
     26684 MEMB     200      POPC     H11A     HAL2     0.900000E-01   1.00800           0
     26685 MEMB     200      POPC     H11B     HAL2     0.900000E-01   1.00800           0
     26686 MEMB     200      POPC     P        PL       1.50000        30.9740           0
     26687 MEMB     200      POPC     O13      O2L     -0.780000       15.9994           0
     26688 MEMB     200      POPC     O14      O2L     -0.780000       15.9994           0
     26689 MEMB     200      POPC     O12      OSLP    -0.570000       15.9994           0
     26690 MEMB     200      POPC     O11      OSLP    -0.570000       15.9994           0
     26691 MEMB     200      POPC     C1       CTL2    -0.800000E-01   12.0110           0
     26692 MEMB     200      POPC     HA       HAL2     0.900000E-01   1.00800           0
     26693 MEMB     200      POPC     HB       HAL2     0.900000E-01   1.00800           0
     26694 MEMB     200      POPC     C2       CTL1     0.170000       12.0110           0
     26695 MEMB     200      POPC     HS       HAL1     0.900000E-01   1.00800           0
     26696 MEMB     200      POPC     O21      OSL     -0.490000       15.9994           0
     26697 MEMB     200      POPC     C21      CL       0.900000       12.0110           0
     26698 MEMB     200      POPC     O22      OBL     -0.630000       15.9994           0
     26699 MEMB     200      POPC     C22      CTL2    -0.220000       12.0110           0
     26700 MEMB     200      POPC     H2R      HAL2     0.900000E-01   1.00800           0
     26701 MEMB     200      POPC     H2S      HAL2     0.900000E-01   1.00800           0
     26702 MEMB     200      POPC     C3       CTL2     0.800000E-01   12.0110           0
     26703 MEMB     200      POPC     HX       HAL2     0.900000E-01   1.00800           0
     26704 MEMB     200      POPC     HY       HAL2     0.900000E-01   1.00800           0
     26705 MEMB     200      POPC     O31      OSL     -0.490000       15.9994           0
     26706 MEMB     200      POPC     C31      CL       0.900000       12.0110           0
     26707 MEMB     200      POPC     O32      OBL     -0.630000       15.9994           0
     26708 MEMB     200      POPC     C32      CTL2    -0.220000       12.0110           0
     26709 MEMB     200      POPC     H2X      HAL2     0.900000E-01   1.00800           0
     26710 MEMB     200      POPC     H2Y      HAL2     0.900000E-01   1.00800           0
     26711 MEMB     200      POPC     C23      CTL2    -0.180000       12.0110           0
     26712 MEMB     200      POPC     H3R      HAL2     0.900000E-01   1.00800           0
     26713 MEMB     200      POPC     H3S      HAL2     0.900000E-01   1.00800           0
     26714 MEMB     200      POPC     C24      CTL2    -0.180000       12.0110           0
     26715 MEMB     200      POPC     H4R      HAL2     0.900000E-01   1.00800           0
     26716 MEMB     200      POPC     H4S      HAL2     0.900000E-01   1.00800           0
     26717 MEMB     200      POPC     C25      CTL2    -0.180000       12.0110           0
     26718 MEMB     200      POPC     H5R      HAL2     0.900000E-01   1.00800           0
     26719 MEMB     200      POPC     H5S      HAL2     0.900000E-01   1.00800           0
     26720 MEMB     200      POPC     C26      CTL2    -0.180000       12.0110           0
     26721 MEMB     200      POPC     H6R      HAL2     0.900000E-01   1.00800           0
     26722 MEMB     200      POPC     H6S      HAL2     0.900000E-01   1.00800           0
     26723 MEMB     200      POPC     C27      CTL2    -0.180000       12.0110           0
     26724 MEMB     200      POPC     H7R      HAL2     0.900000E-01   1.00800           0
     26725 MEMB     200      POPC     H7S      HAL2     0.900000E-01   1.00800           0
     26726 MEMB     200      POPC     C28      CTL2    -0.180000       12.0110           0
     26727 MEMB     200      POPC     H8R      HAL2     0.900000E-01   1.00800           0
     26728 MEMB     200      POPC     H8S      HAL2     0.900000E-01   1.00800           0
     26729 MEMB     200      POPC     C29      CEL1    -0.150000       12.0110           0
     26730 MEMB     200      POPC     H91      HEL1     0.150000       1.00800           0
     26731 MEMB     200      POPC     C210     CEL1    -0.150000       12.0110           0
     26732 MEMB     200      POPC     H101     HEL1     0.150000       1.00800           0
     26733 MEMB     200      POPC     C211     CTL2    -0.180000       12.0110           0
     26734 MEMB     200      POPC     H11R     HAL2     0.900000E-01   1.00800           0
     26735 MEMB     200      POPC     H11S     HAL2     0.900000E-01   1.00800           0
     26736 MEMB     200      POPC     C212     CTL2    -0.180000       12.0110           0
     26737 MEMB     200      POPC     H12R     HAL2     0.900000E-01   1.00800           0
     26738 MEMB     200      POPC     H12S     HAL2     0.900000E-01   1.00800           0
     26739 MEMB     200      POPC     C213     CTL2    -0.180000       12.0110           0
     26740 MEMB     200      POPC     H13R     HAL2     0.900000E-01   1.00800           0
     26741 MEMB     200      POPC     H13S     HAL2     0.900000E-01   1.00800           0
     26742 MEMB     200      POPC     C214     CTL2    -0.180000       12.0110           0
     26743 MEMB     200      POPC     H14R     HAL2     0.900000E-01   1.00800           0
     26744 MEMB     200      POPC     H14S     HAL2     0.900000E-01   1.00800           0
     26745 MEMB     200      POPC     C215     CTL2    -0.180000       12.0110           0
     26746 MEMB     200      POPC     H15R     HAL2     0.900000E-01   1.00800           0
     26747 MEMB     200      POPC     H15S     HAL2     0.900000E-01   1.00800           0
     26748 MEMB     200      POPC     C216     CTL2    -0.180000       12.0110           0
     26749 MEMB     200      POPC     H16R     HAL2     0.900000E-01   1.00800           0
     26750 MEMB     200      POPC     H16S     HAL2     0.900000E-01   1.00800           0
     26751 MEMB     200      POPC     C217     CTL2    -0.180000       12.0110           0
     26752 MEMB     200      POPC     H17R     HAL2     0.900000E-01   1.00800           0
     26753 MEMB     200      POPC     H17S     HAL2     0.900000E-01   1.00800           0
     26754 MEMB     200      POPC     C218     CTL3    -0.270000       12.0110           0
     26755 MEMB     200      POPC     H18R     HAL3     0.900000E-01   1.00800           0
     26756 MEMB     200      POPC     H18S     HAL3     0.900000E-01   1.00800           0
     26757 MEMB     200      POPC     H18T     HAL3     0.900000E-01   1.00800           0
     26758 MEMB     200      POPC     C33      CTL2    -0.180000       12.0110           0
     26759 MEMB     200      POPC     H3X      HAL2     0.900000E-01   1.00800           0
     26760 MEMB     200      POPC     H3Y      HAL2     0.900000E-01   1.00800           0
     26761 MEMB     200      POPC     C34      CTL2    -0.180000       12.0110           0
     26762 MEMB     200      POPC     H4X      HAL2     0.900000E-01   1.00800           0
     26763 MEMB     200      POPC     H4Y      HAL2     0.900000E-01   1.00800           0
     26764 MEMB     200      POPC     C35      CTL2    -0.180000       12.0110           0
     26765 MEMB     200      POPC     H5X      HAL2     0.900000E-01   1.00800           0
     26766 MEMB     200      POPC     H5Y      HAL2     0.900000E-01   1.00800           0
     26767 MEMB     200      POPC     C36      CTL2    -0.180000       12.0110           0
     26768 MEMB     200      POPC     H6X      HAL2     0.900000E-01   1.00800           0
     26769 MEMB     200      POPC     H6Y      HAL2     0.900000E-01   1.00800           0
     26770 MEMB     200      POPC     C37      CTL2    -0.180000       12.0110           0
     26771 MEMB     200      POPC     H7X      HAL2     0.900000E-01   1.00800           0
     26772 MEMB     200      POPC     H7Y      HAL2     0.900000E-01   1.00800           0
     26773 MEMB     200      POPC     C38      CTL2    -0.180000       12.0110           0
     26774 MEMB     200      POPC     H8X      HAL2     0.900000E-01   1.00800           0
     26775 MEMB     200      POPC     H8Y      HAL2     0.900000E-01   1.00800           0
     26776 MEMB     200      POPC     C39      CTL2    -0.180000       12.0110           0
     26777 MEMB     200      POPC     H9X      HAL2     0.900000E-01   1.00800           0
     26778 MEMB     200      POPC     H9Y      HAL2     0.900000E-01   1.00800           0
     26779 MEMB     200      POPC     C310     CTL2    -0.180000       12.0110           0
     26780 MEMB     200      POPC     H10X     HAL2     0.900000E-01   1.00800           0
     26781 MEMB     200      POPC     H10Y     HAL2     0.900000E-01   1.00800           0
     26782 MEMB     200      POPC     C311     CTL2    -0.180000       12.0110           0
     26783 MEMB     200      POPC     H11X     HAL2     0.900000E-01   1.00800           0
     26784 MEMB     200      POPC     H11Y     HAL2     0.900000E-01   1.00800           0
     26785 MEMB     200      POPC     C312     CTL2    -0.180000       12.0110           0
     26786 MEMB     200      POPC     H12X     HAL2     0.900000E-01   1.00800           0
     26787 MEMB     200      POPC     H12Y     HAL2     0.900000E-01   1.00800           0
     26788 MEMB     200      POPC     C313     CTL2    -0.180000       12.0110           0
     26789 MEMB     200      POPC     H13X     HAL2     0.900000E-01   1.00800           0
     26790 MEMB     200      POPC     H13Y     HAL2     0.900000E-01   1.00800           0
     26791 MEMB     200      POPC     C314     CTL2    -0.180000       12.0110           0
     26792 MEMB     200      POPC     H14X     HAL2     0.900000E-01   1.00800           0
     26793 MEMB     200      POPC     H14Y     HAL2     0.900000E-01   1.00800           0
     26794 MEMB     200      POPC     C315     CTL2    -0.180000       12.0110           0
     26795 MEMB     200      POPC     H15X     HAL2     0.900000E-01   1.00800           0
     26796 MEMB     200      POPC     H15Y     HAL2     0.900000E-01   1.00800           0
     26797 MEMB     200      POPC     C316     CTL3    -0.270000       12.0110           0
     26798 MEMB     200      POPC     H16X     HAL3     0.900000E-01   1.00800           0
     26799 MEMB     200      POPC     H16Y     HAL3     0.900000E-01   1.00800           0
     26800 MEMB     200      POPC     H16Z     HAL3     0.900000E-01   1.00800           0
     26801 MEMB     201      POPC     N        NTL     -0.600000       14.0070           0
     26802 MEMB     201      POPC     C12      CTL2    -0.100000       12.0110           0
     26803 MEMB     201      POPC     H12A     HL       0.250000       1.00800           0
     26804 MEMB     201      POPC     H12B     HL       0.250000       1.00800           0
     26805 MEMB     201      POPC     C13      CTL5    -0.350000       12.0110           0
     26806 MEMB     201      POPC     H13A     HL       0.250000       1.00800           0
     26807 MEMB     201      POPC     H13B     HL       0.250000       1.00800           0
     26808 MEMB     201      POPC     H13C     HL       0.250000       1.00800           0
     26809 MEMB     201      POPC     C14      CTL5    -0.350000       12.0110           0
     26810 MEMB     201      POPC     H14A     HL       0.250000       1.00800           0
     26811 MEMB     201      POPC     H14B     HL       0.250000       1.00800           0
     26812 MEMB     201      POPC     H14C     HL       0.250000       1.00800           0
     26813 MEMB     201      POPC     C15      CTL5    -0.350000       12.0110           0
     26814 MEMB     201      POPC     H15A     HL       0.250000       1.00800           0
     26815 MEMB     201      POPC     H15B     HL       0.250000       1.00800           0
     26816 MEMB     201      POPC     H15C     HL       0.250000       1.00800           0
     26817 MEMB     201      POPC     C11      CTL2    -0.800000E-01   12.0110           0
     26818 MEMB     201      POPC     H11A     HAL2     0.900000E-01   1.00800           0
     26819 MEMB     201      POPC     H11B     HAL2     0.900000E-01   1.00800           0
     26820 MEMB     201      POPC     P        PL       1.50000        30.9740           0
     26821 MEMB     201      POPC     O13      O2L     -0.780000       15.9994           0
     26822 MEMB     201      POPC     O14      O2L     -0.780000       15.9994           0
     26823 MEMB     201      POPC     O12      OSLP    -0.570000       15.9994           0
     26824 MEMB     201      POPC     O11      OSLP    -0.570000       15.9994           0
     26825 MEMB     201      POPC     C1       CTL2    -0.800000E-01   12.0110           0
     26826 MEMB     201      POPC     HA       HAL2     0.900000E-01   1.00800           0
     26827 MEMB     201      POPC     HB       HAL2     0.900000E-01   1.00800           0
     26828 MEMB     201      POPC     C2       CTL1     0.170000       12.0110           0
     26829 MEMB     201      POPC     HS       HAL1     0.900000E-01   1.00800           0
     26830 MEMB     201      POPC     O21      OSL     -0.490000       15.9994           0
     26831 MEMB     201      POPC     C21      CL       0.900000       12.0110           0
     26832 MEMB     201      POPC     O22      OBL     -0.630000       15.9994           0
     26833 MEMB     201      POPC     C22      CTL2    -0.220000       12.0110           0
     26834 MEMB     201      POPC     H2R      HAL2     0.900000E-01   1.00800           0
     26835 MEMB     201      POPC     H2S      HAL2     0.900000E-01   1.00800           0
     26836 MEMB     201      POPC     C3       CTL2     0.800000E-01   12.0110           0
     26837 MEMB     201      POPC     HX       HAL2     0.900000E-01   1.00800           0
     26838 MEMB     201      POPC     HY       HAL2     0.900000E-01   1.00800           0
     26839 MEMB     201      POPC     O31      OSL     -0.490000       15.9994           0
     26840 MEMB     201      POPC     C31      CL       0.900000       12.0110           0
     26841 MEMB     201      POPC     O32      OBL     -0.630000       15.9994           0
     26842 MEMB     201      POPC     C32      CTL2    -0.220000       12.0110           0
     26843 MEMB     201      POPC     H2X      HAL2     0.900000E-01   1.00800           0
     26844 MEMB     201      POPC     H2Y      HAL2     0.900000E-01   1.00800           0
     26845 MEMB     201      POPC     C23      CTL2    -0.180000       12.0110           0
     26846 MEMB     201      POPC     H3R      HAL2     0.900000E-01   1.00800           0
     26847 MEMB     201      POPC     H3S      HAL2     0.900000E-01   1.00800           0
     26848 MEMB     201      POPC     C24      CTL2    -0.180000       12.0110           0
     26849 MEMB     201      POPC     H4R      HAL2     0.900000E-01   1.00800           0
     26850 MEMB     201      POPC     H4S      HAL2     0.900000E-01   1.00800           0
     26851 MEMB     201      POPC     C25      CTL2    -0.180000       12.0110           0
     26852 MEMB     201      POPC     H5R      HAL2     0.900000E-01   1.00800           0
     26853 MEMB     201      POPC     H5S      HAL2     0.900000E-01   1.00800           0
     26854 MEMB     201      POPC     C26      CTL2    -0.180000       12.0110           0
     26855 MEMB     201      POPC     H6R      HAL2     0.900000E-01   1.00800           0
     26856 MEMB     201      POPC     H6S      HAL2     0.900000E-01   1.00800           0
     26857 MEMB     201      POPC     C27      CTL2    -0.180000       12.0110           0
     26858 MEMB     201      POPC     H7R      HAL2     0.900000E-01   1.00800           0
     26859 MEMB     201      POPC     H7S      HAL2     0.900000E-01   1.00800           0
     26860 MEMB     201      POPC     C28      CTL2    -0.180000       12.0110           0
     26861 MEMB     201      POPC     H8R      HAL2     0.900000E-01   1.00800           0
     26862 MEMB     201      POPC     H8S      HAL2     0.900000E-01   1.00800           0
     26863 MEMB     201      POPC     C29      CEL1    -0.150000       12.0110           0
     26864 MEMB     201      POPC     H91      HEL1     0.150000       1.00800           0
     26865 MEMB     201      POPC     C210     CEL1    -0.150000       12.0110           0
     26866 MEMB     201      POPC     H101     HEL1     0.150000       1.00800           0
     26867 MEMB     201      POPC     C211     CTL2    -0.180000       12.0110           0
     26868 MEMB     201      POPC     H11R     HAL2     0.900000E-01   1.00800           0
     26869 MEMB     201      POPC     H11S     HAL2     0.900000E-01   1.00800           0
     26870 MEMB     201      POPC     C212     CTL2    -0.180000       12.0110           0
     26871 MEMB     201      POPC     H12R     HAL2     0.900000E-01   1.00800           0
     26872 MEMB     201      POPC     H12S     HAL2     0.900000E-01   1.00800           0
     26873 MEMB     201      POPC     C213     CTL2    -0.180000       12.0110           0
     26874 MEMB     201      POPC     H13R     HAL2     0.900000E-01   1.00800           0
     26875 MEMB     201      POPC     H13S     HAL2     0.900000E-01   1.00800           0
     26876 MEMB     201      POPC     C214     CTL2    -0.180000       12.0110           0
     26877 MEMB     201      POPC     H14R     HAL2     0.900000E-01   1.00800           0
     26878 MEMB     201      POPC     H14S     HAL2     0.900000E-01   1.00800           0
     26879 MEMB     201      POPC     C215     CTL2    -0.180000       12.0110           0
     26880 MEMB     201      POPC     H15R     HAL2     0.900000E-01   1.00800           0
     26881 MEMB     201      POPC     H15S     HAL2     0.900000E-01   1.00800           0
     26882 MEMB     201      POPC     C216     CTL2    -0.180000       12.0110           0
     26883 MEMB     201      POPC     H16R     HAL2     0.900000E-01   1.00800           0
     26884 MEMB     201      POPC     H16S     HAL2     0.900000E-01   1.00800           0
     26885 MEMB     201      POPC     C217     CTL2    -0.180000       12.0110           0
     26886 MEMB     201      POPC     H17R     HAL2     0.900000E-01   1.00800           0
     26887 MEMB     201      POPC     H17S     HAL2     0.900000E-01   1.00800           0
     26888 MEMB     201      POPC     C218     CTL3    -0.270000       12.0110           0
     26889 MEMB     201      POPC     H18R     HAL3     0.900000E-01   1.00800           0
     26890 MEMB     201      POPC     H18S     HAL3     0.900000E-01   1.00800           0
     26891 MEMB     201      POPC     H18T     HAL3     0.900000E-01   1.00800           0
     26892 MEMB     201      POPC     C33      CTL2    -0.180000       12.0110           0
     26893 MEMB     201      POPC     H3X      HAL2     0.900000E-01   1.00800           0
     26894 MEMB     201      POPC     H3Y      HAL2     0.900000E-01   1.00800           0
     26895 MEMB     201      POPC     C34      CTL2    -0.180000       12.0110           0
     26896 MEMB     201      POPC     H4X      HAL2     0.900000E-01   1.00800           0
     26897 MEMB     201      POPC     H4Y      HAL2     0.900000E-01   1.00800           0
     26898 MEMB     201      POPC     C35      CTL2    -0.180000       12.0110           0
     26899 MEMB     201      POPC     H5X      HAL2     0.900000E-01   1.00800           0
     26900 MEMB     201      POPC     H5Y      HAL2     0.900000E-01   1.00800           0
     26901 MEMB     201      POPC     C36      CTL2    -0.180000       12.0110           0
     26902 MEMB     201      POPC     H6X      HAL2     0.900000E-01   1.00800           0
     26903 MEMB     201      POPC     H6Y      HAL2     0.900000E-01   1.00800           0
     26904 MEMB     201      POPC     C37      CTL2    -0.180000       12.0110           0
     26905 MEMB     201      POPC     H7X      HAL2     0.900000E-01   1.00800           0
     26906 MEMB     201      POPC     H7Y      HAL2     0.900000E-01   1.00800           0
     26907 MEMB     201      POPC     C38      CTL2    -0.180000       12.0110           0
     26908 MEMB     201      POPC     H8X      HAL2     0.900000E-01   1.00800           0
     26909 MEMB     201      POPC     H8Y      HAL2     0.900000E-01   1.00800           0
     26910 MEMB     201      POPC     C39      CTL2    -0.180000       12.0110           0
     26911 MEMB     201      POPC     H9X      HAL2     0.900000E-01   1.00800           0
     26912 MEMB     201      POPC     H9Y      HAL2     0.900000E-01   1.00800           0
     26913 MEMB     201      POPC     C310     CTL2    -0.180000       12.0110           0
     26914 MEMB     201      POPC     H10X     HAL2     0.900000E-01   1.00800           0
     26915 MEMB     201      POPC     H10Y     HAL2     0.900000E-01   1.00800           0
     26916 MEMB     201      POPC     C311     CTL2    -0.180000       12.0110           0
     26917 MEMB     201      POPC     H11X     HAL2     0.900000E-01   1.00800           0
     26918 MEMB     201      POPC     H11Y     HAL2     0.900000E-01   1.00800           0
     26919 MEMB     201      POPC     C312     CTL2    -0.180000       12.0110           0
     26920 MEMB     201      POPC     H12X     HAL2     0.900000E-01   1.00800           0
     26921 MEMB     201      POPC     H12Y     HAL2     0.900000E-01   1.00800           0
     26922 MEMB     201      POPC     C313     CTL2    -0.180000       12.0110           0
     26923 MEMB     201      POPC     H13X     HAL2     0.900000E-01   1.00800           0
     26924 MEMB     201      POPC     H13Y     HAL2     0.900000E-01   1.00800           0
     26925 MEMB     201      POPC     C314     CTL2    -0.180000       12.0110           0
     26926 MEMB     201      POPC     H14X     HAL2     0.900000E-01   1.00800           0
     26927 MEMB     201      POPC     H14Y     HAL2     0.900000E-01   1.00800           0
     26928 MEMB     201      POPC     C315     CTL2    -0.180000       12.0110           0
     26929 MEMB     201      POPC     H15X     HAL2     0.900000E-01   1.00800           0
     26930 MEMB     201      POPC     H15Y     HAL2     0.900000E-01   1.00800           0
     26931 MEMB     201      POPC     C316     CTL3    -0.270000       12.0110           0
     26932 MEMB     201      POPC     H16X     HAL3     0.900000E-01   1.00800           0
     26933 MEMB     201      POPC     H16Y     HAL3     0.900000E-01   1.00800           0
     26934 MEMB     201      POPC     H16Z     HAL3     0.900000E-01   1.00800           0
     26935 MEMB     202      POPC     N        NTL     -0.600000       14.0070           0
     26936 MEMB     202      POPC     C12      CTL2    -0.100000       12.0110           0
     26937 MEMB     202      POPC     H12A     HL       0.250000       1.00800           0
     26938 MEMB     202      POPC     H12B     HL       0.250000       1.00800           0
     26939 MEMB     202      POPC     C13      CTL5    -0.350000       12.0110           0
     26940 MEMB     202      POPC     H13A     HL       0.250000       1.00800           0
     26941 MEMB     202      POPC     H13B     HL       0.250000       1.00800           0
     26942 MEMB     202      POPC     H13C     HL       0.250000       1.00800           0
     26943 MEMB     202      POPC     C14      CTL5    -0.350000       12.0110           0
     26944 MEMB     202      POPC     H14A     HL       0.250000       1.00800           0
     26945 MEMB     202      POPC     H14B     HL       0.250000       1.00800           0
     26946 MEMB     202      POPC     H14C     HL       0.250000       1.00800           0
     26947 MEMB     202      POPC     C15      CTL5    -0.350000       12.0110           0
     26948 MEMB     202      POPC     H15A     HL       0.250000       1.00800           0
     26949 MEMB     202      POPC     H15B     HL       0.250000       1.00800           0
     26950 MEMB     202      POPC     H15C     HL       0.250000       1.00800           0
     26951 MEMB     202      POPC     C11      CTL2    -0.800000E-01   12.0110           0
     26952 MEMB     202      POPC     H11A     HAL2     0.900000E-01   1.00800           0
     26953 MEMB     202      POPC     H11B     HAL2     0.900000E-01   1.00800           0
     26954 MEMB     202      POPC     P        PL       1.50000        30.9740           0
     26955 MEMB     202      POPC     O13      O2L     -0.780000       15.9994           0
     26956 MEMB     202      POPC     O14      O2L     -0.780000       15.9994           0
     26957 MEMB     202      POPC     O12      OSLP    -0.570000       15.9994           0
     26958 MEMB     202      POPC     O11      OSLP    -0.570000       15.9994           0
     26959 MEMB     202      POPC     C1       CTL2    -0.800000E-01   12.0110           0
     26960 MEMB     202      POPC     HA       HAL2     0.900000E-01   1.00800           0
     26961 MEMB     202      POPC     HB       HAL2     0.900000E-01   1.00800           0
     26962 MEMB     202      POPC     C2       CTL1     0.170000       12.0110           0
     26963 MEMB     202      POPC     HS       HAL1     0.900000E-01   1.00800           0
     26964 MEMB     202      POPC     O21      OSL     -0.490000       15.9994           0
     26965 MEMB     202      POPC     C21      CL       0.900000       12.0110           0
     26966 MEMB     202      POPC     O22      OBL     -0.630000       15.9994           0
     26967 MEMB     202      POPC     C22      CTL2    -0.220000       12.0110           0
     26968 MEMB     202      POPC     H2R      HAL2     0.900000E-01   1.00800           0
     26969 MEMB     202      POPC     H2S      HAL2     0.900000E-01   1.00800           0
     26970 MEMB     202      POPC     C3       CTL2     0.800000E-01   12.0110           0
     26971 MEMB     202      POPC     HX       HAL2     0.900000E-01   1.00800           0
     26972 MEMB     202      POPC     HY       HAL2     0.900000E-01   1.00800           0
     26973 MEMB     202      POPC     O31      OSL     -0.490000       15.9994           0
     26974 MEMB     202      POPC     C31      CL       0.900000       12.0110           0
     26975 MEMB     202      POPC     O32      OBL     -0.630000       15.9994           0
     26976 MEMB     202      POPC     C32      CTL2    -0.220000       12.0110           0
     26977 MEMB     202      POPC     H2X      HAL2     0.900000E-01   1.00800           0
     26978 MEMB     202      POPC     H2Y      HAL2     0.900000E-01   1.00800           0
     26979 MEMB     202      POPC     C23      CTL2    -0.180000       12.0110           0
     26980 MEMB     202      POPC     H3R      HAL2     0.900000E-01   1.00800           0
     26981 MEMB     202      POPC     H3S      HAL2     0.900000E-01   1.00800           0
     26982 MEMB     202      POPC     C24      CTL2    -0.180000       12.0110           0
     26983 MEMB     202      POPC     H4R      HAL2     0.900000E-01   1.00800           0
     26984 MEMB     202      POPC     H4S      HAL2     0.900000E-01   1.00800           0
     26985 MEMB     202      POPC     C25      CTL2    -0.180000       12.0110           0
     26986 MEMB     202      POPC     H5R      HAL2     0.900000E-01   1.00800           0
     26987 MEMB     202      POPC     H5S      HAL2     0.900000E-01   1.00800           0
     26988 MEMB     202      POPC     C26      CTL2    -0.180000       12.0110           0
     26989 MEMB     202      POPC     H6R      HAL2     0.900000E-01   1.00800           0
     26990 MEMB     202      POPC     H6S      HAL2     0.900000E-01   1.00800           0
     26991 MEMB     202      POPC     C27      CTL2    -0.180000       12.0110           0
     26992 MEMB     202      POPC     H7R      HAL2     0.900000E-01   1.00800           0
     26993 MEMB     202      POPC     H7S      HAL2     0.900000E-01   1.00800           0
     26994 MEMB     202      POPC     C28      CTL2    -0.180000       12.0110           0
     26995 MEMB     202      POPC     H8R      HAL2     0.900000E-01   1.00800           0
     26996 MEMB     202      POPC     H8S      HAL2     0.900000E-01   1.00800           0
     26997 MEMB     202      POPC     C29      CEL1    -0.150000       12.0110           0
     26998 MEMB     202      POPC     H91      HEL1     0.150000       1.00800           0
     26999 MEMB     202      POPC     C210     CEL1    -0.150000       12.0110           0
     27000 MEMB     202      POPC     H101     HEL1     0.150000       1.00800           0
     27001 MEMB     202      POPC     C211     CTL2    -0.180000       12.0110           0
     27002 MEMB     202      POPC     H11R     HAL2     0.900000E-01   1.00800           0
     27003 MEMB     202      POPC     H11S     HAL2     0.900000E-01   1.00800           0
     27004 MEMB     202      POPC     C212     CTL2    -0.180000       12.0110           0
     27005 MEMB     202      POPC     H12R     HAL2     0.900000E-01   1.00800           0
     27006 MEMB     202      POPC     H12S     HAL2     0.900000E-01   1.00800           0
     27007 MEMB     202      POPC     C213     CTL2    -0.180000       12.0110           0
     27008 MEMB     202      POPC     H13R     HAL2     0.900000E-01   1.00800           0
     27009 MEMB     202      POPC     H13S     HAL2     0.900000E-01   1.00800           0
     27010 MEMB     202      POPC     C214     CTL2    -0.180000       12.0110           0
     27011 MEMB     202      POPC     H14R     HAL2     0.900000E-01   1.00800           0
     27012 MEMB     202      POPC     H14S     HAL2     0.900000E-01   1.00800           0
     27013 MEMB     202      POPC     C215     CTL2    -0.180000       12.0110           0
     27014 MEMB     202      POPC     H15R     HAL2     0.900000E-01   1.00800           0
     27015 MEMB     202      POPC     H15S     HAL2     0.900000E-01   1.00800           0
     27016 MEMB     202      POPC     C216     CTL2    -0.180000       12.0110           0
     27017 MEMB     202      POPC     H16R     HAL2     0.900000E-01   1.00800           0
     27018 MEMB     202      POPC     H16S     HAL2     0.900000E-01   1.00800           0
     27019 MEMB     202      POPC     C217     CTL2    -0.180000       12.0110           0
     27020 MEMB     202      POPC     H17R     HAL2     0.900000E-01   1.00800           0
     27021 MEMB     202      POPC     H17S     HAL2     0.900000E-01   1.00800           0
     27022 MEMB     202      POPC     C218     CTL3    -0.270000       12.0110           0
     27023 MEMB     202      POPC     H18R     HAL3     0.900000E-01   1.00800           0
     27024 MEMB     202      POPC     H18S     HAL3     0.900000E-01   1.00800           0
     27025 MEMB     202      POPC     H18T     HAL3     0.900000E-01   1.00800           0
     27026 MEMB     202      POPC     C33      CTL2    -0.180000       12.0110           0
     27027 MEMB     202      POPC     H3X      HAL2     0.900000E-01   1.00800           0
     27028 MEMB     202      POPC     H3Y      HAL2     0.900000E-01   1.00800           0
     27029 MEMB     202      POPC     C34      CTL2    -0.180000       12.0110           0
     27030 MEMB     202      POPC     H4X      HAL2     0.900000E-01   1.00800           0
     27031 MEMB     202      POPC     H4Y      HAL2     0.900000E-01   1.00800           0
     27032 MEMB     202      POPC     C35      CTL2    -0.180000       12.0110           0
     27033 MEMB     202      POPC     H5X      HAL2     0.900000E-01   1.00800           0
     27034 MEMB     202      POPC     H5Y      HAL2     0.900000E-01   1.00800           0
     27035 MEMB     202      POPC     C36      CTL2    -0.180000       12.0110           0
     27036 MEMB     202      POPC     H6X      HAL2     0.900000E-01   1.00800           0
     27037 MEMB     202      POPC     H6Y      HAL2     0.900000E-01   1.00800           0
     27038 MEMB     202      POPC     C37      CTL2    -0.180000       12.0110           0
     27039 MEMB     202      POPC     H7X      HAL2     0.900000E-01   1.00800           0
     27040 MEMB     202      POPC     H7Y      HAL2     0.900000E-01   1.00800           0
     27041 MEMB     202      POPC     C38      CTL2    -0.180000       12.0110           0
     27042 MEMB     202      POPC     H8X      HAL2     0.900000E-01   1.00800           0
     27043 MEMB     202      POPC     H8Y      HAL2     0.900000E-01   1.00800           0
     27044 MEMB     202      POPC     C39      CTL2    -0.180000       12.0110           0
     27045 MEMB     202      POPC     H9X      HAL2     0.900000E-01   1.00800           0
     27046 MEMB     202      POPC     H9Y      HAL2     0.900000E-01   1.00800           0
     27047 MEMB     202      POPC     C310     CTL2    -0.180000       12.0110           0
     27048 MEMB     202      POPC     H10X     HAL2     0.900000E-01   1.00800           0
     27049 MEMB     202      POPC     H10Y     HAL2     0.900000E-01   1.00800           0
     27050 MEMB     202      POPC     C311     CTL2    -0.180000       12.0110           0
     27051 MEMB     202      POPC     H11X     HAL2     0.900000E-01   1.00800           0
     27052 MEMB     202      POPC     H11Y     HAL2     0.900000E-01   1.00800           0
     27053 MEMB     202      POPC     C312     CTL2    -0.180000       12.0110           0
     27054 MEMB     202      POPC     H12X     HAL2     0.900000E-01   1.00800           0
     27055 MEMB     202      POPC     H12Y     HAL2     0.900000E-01   1.00800           0
     27056 MEMB     202      POPC     C313     CTL2    -0.180000       12.0110           0
     27057 MEMB     202      POPC     H13X     HAL2     0.900000E-01   1.00800           0
     27058 MEMB     202      POPC     H13Y     HAL2     0.900000E-01   1.00800           0
     27059 MEMB     202      POPC     C314     CTL2    -0.180000       12.0110           0
     27060 MEMB     202      POPC     H14X     HAL2     0.900000E-01   1.00800           0
     27061 MEMB     202      POPC     H14Y     HAL2     0.900000E-01   1.00800           0
     27062 MEMB     202      POPC     C315     CTL2    -0.180000       12.0110           0
     27063 MEMB     202      POPC     H15X     HAL2     0.900000E-01   1.00800           0
     27064 MEMB     202      POPC     H15Y     HAL2     0.900000E-01   1.00800           0
     27065 MEMB     202      POPC     C316     CTL3    -0.270000       12.0110           0
     27066 MEMB     202      POPC     H16X     HAL3     0.900000E-01   1.00800           0
     27067 MEMB     202      POPC     H16Y     HAL3     0.900000E-01   1.00800           0
     27068 MEMB     202      POPC     H16Z     HAL3     0.900000E-01   1.00800           0
     27069 MEMB     203      POPC     N        NTL     -0.600000       14.0070           0
     27070 MEMB     203      POPC     C12      CTL2    -0.100000       12.0110           0
     27071 MEMB     203      POPC     H12A     HL       0.250000       1.00800           0
     27072 MEMB     203      POPC     H12B     HL       0.250000       1.00800           0
     27073 MEMB     203      POPC     C13      CTL5    -0.350000       12.0110           0
     27074 MEMB     203      POPC     H13A     HL       0.250000       1.00800           0
     27075 MEMB     203      POPC     H13B     HL       0.250000       1.00800           0
     27076 MEMB     203      POPC     H13C     HL       0.250000       1.00800           0
     27077 MEMB     203      POPC     C14      CTL5    -0.350000       12.0110           0
     27078 MEMB     203      POPC     H14A     HL       0.250000       1.00800           0
     27079 MEMB     203      POPC     H14B     HL       0.250000       1.00800           0
     27080 MEMB     203      POPC     H14C     HL       0.250000       1.00800           0
     27081 MEMB     203      POPC     C15      CTL5    -0.350000       12.0110           0
     27082 MEMB     203      POPC     H15A     HL       0.250000       1.00800           0
     27083 MEMB     203      POPC     H15B     HL       0.250000       1.00800           0
     27084 MEMB     203      POPC     H15C     HL       0.250000       1.00800           0
     27085 MEMB     203      POPC     C11      CTL2    -0.800000E-01   12.0110           0
     27086 MEMB     203      POPC     H11A     HAL2     0.900000E-01   1.00800           0
     27087 MEMB     203      POPC     H11B     HAL2     0.900000E-01   1.00800           0
     27088 MEMB     203      POPC     P        PL       1.50000        30.9740           0
     27089 MEMB     203      POPC     O13      O2L     -0.780000       15.9994           0
     27090 MEMB     203      POPC     O14      O2L     -0.780000       15.9994           0
     27091 MEMB     203      POPC     O12      OSLP    -0.570000       15.9994           0
     27092 MEMB     203      POPC     O11      OSLP    -0.570000       15.9994           0
     27093 MEMB     203      POPC     C1       CTL2    -0.800000E-01   12.0110           0
     27094 MEMB     203      POPC     HA       HAL2     0.900000E-01   1.00800           0
     27095 MEMB     203      POPC     HB       HAL2     0.900000E-01   1.00800           0
     27096 MEMB     203      POPC     C2       CTL1     0.170000       12.0110           0
     27097 MEMB     203      POPC     HS       HAL1     0.900000E-01   1.00800           0
     27098 MEMB     203      POPC     O21      OSL     -0.490000       15.9994           0
     27099 MEMB     203      POPC     C21      CL       0.900000       12.0110           0
     27100 MEMB     203      POPC     O22      OBL     -0.630000       15.9994           0
     27101 MEMB     203      POPC     C22      CTL2    -0.220000       12.0110           0
     27102 MEMB     203      POPC     H2R      HAL2     0.900000E-01   1.00800           0
     27103 MEMB     203      POPC     H2S      HAL2     0.900000E-01   1.00800           0
     27104 MEMB     203      POPC     C3       CTL2     0.800000E-01   12.0110           0
     27105 MEMB     203      POPC     HX       HAL2     0.900000E-01   1.00800           0
     27106 MEMB     203      POPC     HY       HAL2     0.900000E-01   1.00800           0
     27107 MEMB     203      POPC     O31      OSL     -0.490000       15.9994           0
     27108 MEMB     203      POPC     C31      CL       0.900000       12.0110           0
     27109 MEMB     203      POPC     O32      OBL     -0.630000       15.9994           0
     27110 MEMB     203      POPC     C32      CTL2    -0.220000       12.0110           0
     27111 MEMB     203      POPC     H2X      HAL2     0.900000E-01   1.00800           0
     27112 MEMB     203      POPC     H2Y      HAL2     0.900000E-01   1.00800           0
     27113 MEMB     203      POPC     C23      CTL2    -0.180000       12.0110           0
     27114 MEMB     203      POPC     H3R      HAL2     0.900000E-01   1.00800           0
     27115 MEMB     203      POPC     H3S      HAL2     0.900000E-01   1.00800           0
     27116 MEMB     203      POPC     C24      CTL2    -0.180000       12.0110           0
     27117 MEMB     203      POPC     H4R      HAL2     0.900000E-01   1.00800           0
     27118 MEMB     203      POPC     H4S      HAL2     0.900000E-01   1.00800           0
     27119 MEMB     203      POPC     C25      CTL2    -0.180000       12.0110           0
     27120 MEMB     203      POPC     H5R      HAL2     0.900000E-01   1.00800           0
     27121 MEMB     203      POPC     H5S      HAL2     0.900000E-01   1.00800           0
     27122 MEMB     203      POPC     C26      CTL2    -0.180000       12.0110           0
     27123 MEMB     203      POPC     H6R      HAL2     0.900000E-01   1.00800           0
     27124 MEMB     203      POPC     H6S      HAL2     0.900000E-01   1.00800           0
     27125 MEMB     203      POPC     C27      CTL2    -0.180000       12.0110           0
     27126 MEMB     203      POPC     H7R      HAL2     0.900000E-01   1.00800           0
     27127 MEMB     203      POPC     H7S      HAL2     0.900000E-01   1.00800           0
     27128 MEMB     203      POPC     C28      CTL2    -0.180000       12.0110           0
     27129 MEMB     203      POPC     H8R      HAL2     0.900000E-01   1.00800           0
     27130 MEMB     203      POPC     H8S      HAL2     0.900000E-01   1.00800           0
     27131 MEMB     203      POPC     C29      CEL1    -0.150000       12.0110           0
     27132 MEMB     203      POPC     H91      HEL1     0.150000       1.00800           0
     27133 MEMB     203      POPC     C210     CEL1    -0.150000       12.0110           0
     27134 MEMB     203      POPC     H101     HEL1     0.150000       1.00800           0
     27135 MEMB     203      POPC     C211     CTL2    -0.180000       12.0110           0
     27136 MEMB     203      POPC     H11R     HAL2     0.900000E-01   1.00800           0
     27137 MEMB     203      POPC     H11S     HAL2     0.900000E-01   1.00800           0
     27138 MEMB     203      POPC     C212     CTL2    -0.180000       12.0110           0
     27139 MEMB     203      POPC     H12R     HAL2     0.900000E-01   1.00800           0
     27140 MEMB     203      POPC     H12S     HAL2     0.900000E-01   1.00800           0
     27141 MEMB     203      POPC     C213     CTL2    -0.180000       12.0110           0
     27142 MEMB     203      POPC     H13R     HAL2     0.900000E-01   1.00800           0
     27143 MEMB     203      POPC     H13S     HAL2     0.900000E-01   1.00800           0
     27144 MEMB     203      POPC     C214     CTL2    -0.180000       12.0110           0
     27145 MEMB     203      POPC     H14R     HAL2     0.900000E-01   1.00800           0
     27146 MEMB     203      POPC     H14S     HAL2     0.900000E-01   1.00800           0
     27147 MEMB     203      POPC     C215     CTL2    -0.180000       12.0110           0
     27148 MEMB     203      POPC     H15R     HAL2     0.900000E-01   1.00800           0
     27149 MEMB     203      POPC     H15S     HAL2     0.900000E-01   1.00800           0
     27150 MEMB     203      POPC     C216     CTL2    -0.180000       12.0110           0
     27151 MEMB     203      POPC     H16R     HAL2     0.900000E-01   1.00800           0
     27152 MEMB     203      POPC     H16S     HAL2     0.900000E-01   1.00800           0
     27153 MEMB     203      POPC     C217     CTL2    -0.180000       12.0110           0
     27154 MEMB     203      POPC     H17R     HAL2     0.900000E-01   1.00800           0
     27155 MEMB     203      POPC     H17S     HAL2     0.900000E-01   1.00800           0
     27156 MEMB     203      POPC     C218     CTL3    -0.270000       12.0110           0
     27157 MEMB     203      POPC     H18R     HAL3     0.900000E-01   1.00800           0
     27158 MEMB     203      POPC     H18S     HAL3     0.900000E-01   1.00800           0
     27159 MEMB     203      POPC     H18T     HAL3     0.900000E-01   1.00800           0
     27160 MEMB     203      POPC     C33      CTL2    -0.180000       12.0110           0
     27161 MEMB     203      POPC     H3X      HAL2     0.900000E-01   1.00800           0
     27162 MEMB     203      POPC     H3Y      HAL2     0.900000E-01   1.00800           0
     27163 MEMB     203      POPC     C34      CTL2    -0.180000       12.0110           0
     27164 MEMB     203      POPC     H4X      HAL2     0.900000E-01   1.00800           0
     27165 MEMB     203      POPC     H4Y      HAL2     0.900000E-01   1.00800           0
     27166 MEMB     203      POPC     C35      CTL2    -0.180000       12.0110           0
     27167 MEMB     203      POPC     H5X      HAL2     0.900000E-01   1.00800           0
     27168 MEMB     203      POPC     H5Y      HAL2     0.900000E-01   1.00800           0
     27169 MEMB     203      POPC     C36      CTL2    -0.180000       12.0110           0
     27170 MEMB     203      POPC     H6X      HAL2     0.900000E-01   1.00800           0
     27171 MEMB     203      POPC     H6Y      HAL2     0.900000E-01   1.00800           0
     27172 MEMB     203      POPC     C37      CTL2    -0.180000       12.0110           0
     27173 MEMB     203      POPC     H7X      HAL2     0.900000E-01   1.00800           0
     27174 MEMB     203      POPC     H7Y      HAL2     0.900000E-01   1.00800           0
     27175 MEMB     203      POPC     C38      CTL2    -0.180000       12.0110           0
     27176 MEMB     203      POPC     H8X      HAL2     0.900000E-01   1.00800           0
     27177 MEMB     203      POPC     H8Y      HAL2     0.900000E-01   1.00800           0
     27178 MEMB     203      POPC     C39      CTL2    -0.180000       12.0110           0
     27179 MEMB     203      POPC     H9X      HAL2     0.900000E-01   1.00800           0
     27180 MEMB     203      POPC     H9Y      HAL2     0.900000E-01   1.00800           0
     27181 MEMB     203      POPC     C310     CTL2    -0.180000       12.0110           0
     27182 MEMB     203      POPC     H10X     HAL2     0.900000E-01   1.00800           0
     27183 MEMB     203      POPC     H10Y     HAL2     0.900000E-01   1.00800           0
     27184 MEMB     203      POPC     C311     CTL2    -0.180000       12.0110           0
     27185 MEMB     203      POPC     H11X     HAL2     0.900000E-01   1.00800           0
     27186 MEMB     203      POPC     H11Y     HAL2     0.900000E-01   1.00800           0
     27187 MEMB     203      POPC     C312     CTL2    -0.180000       12.0110           0
     27188 MEMB     203      POPC     H12X     HAL2     0.900000E-01   1.00800           0
     27189 MEMB     203      POPC     H12Y     HAL2     0.900000E-01   1.00800           0
     27190 MEMB     203      POPC     C313     CTL2    -0.180000       12.0110           0
     27191 MEMB     203      POPC     H13X     HAL2     0.900000E-01   1.00800           0
     27192 MEMB     203      POPC     H13Y     HAL2     0.900000E-01   1.00800           0
     27193 MEMB     203      POPC     C314     CTL2    -0.180000       12.0110           0
     27194 MEMB     203      POPC     H14X     HAL2     0.900000E-01   1.00800           0
     27195 MEMB     203      POPC     H14Y     HAL2     0.900000E-01   1.00800           0
     27196 MEMB     203      POPC     C315     CTL2    -0.180000       12.0110           0
     27197 MEMB     203      POPC     H15X     HAL2     0.900000E-01   1.00800           0
     27198 MEMB     203      POPC     H15Y     HAL2     0.900000E-01   1.00800           0
     27199 MEMB     203      POPC     C316     CTL3    -0.270000       12.0110           0
     27200 MEMB     203      POPC     H16X     HAL3     0.900000E-01   1.00800           0
     27201 MEMB     203      POPC     H16Y     HAL3     0.900000E-01   1.00800           0
     27202 MEMB     203      POPC     H16Z     HAL3     0.900000E-01   1.00800           0
     27203 MEMB     204      POPC     N        NTL     -0.600000       14.0070           0
     27204 MEMB     204      POPC     C12      CTL2    -0.100000       12.0110           0
     27205 MEMB     204      POPC     H12A     HL       0.250000       1.00800           0
     27206 MEMB     204      POPC     H12B     HL       0.250000       1.00800           0
     27207 MEMB     204      POPC     C13      CTL5    -0.350000       12.0110           0
     27208 MEMB     204      POPC     H13A     HL       0.250000       1.00800           0
     27209 MEMB     204      POPC     H13B     HL       0.250000       1.00800           0
     27210 MEMB     204      POPC     H13C     HL       0.250000       1.00800           0
     27211 MEMB     204      POPC     C14      CTL5    -0.350000       12.0110           0
     27212 MEMB     204      POPC     H14A     HL       0.250000       1.00800           0
     27213 MEMB     204      POPC     H14B     HL       0.250000       1.00800           0
     27214 MEMB     204      POPC     H14C     HL       0.250000       1.00800           0
     27215 MEMB     204      POPC     C15      CTL5    -0.350000       12.0110           0
     27216 MEMB     204      POPC     H15A     HL       0.250000       1.00800           0
     27217 MEMB     204      POPC     H15B     HL       0.250000       1.00800           0
     27218 MEMB     204      POPC     H15C     HL       0.250000       1.00800           0
     27219 MEMB     204      POPC     C11      CTL2    -0.800000E-01   12.0110           0
     27220 MEMB     204      POPC     H11A     HAL2     0.900000E-01   1.00800           0
     27221 MEMB     204      POPC     H11B     HAL2     0.900000E-01   1.00800           0
     27222 MEMB     204      POPC     P        PL       1.50000        30.9740           0
     27223 MEMB     204      POPC     O13      O2L     -0.780000       15.9994           0
     27224 MEMB     204      POPC     O14      O2L     -0.780000       15.9994           0
     27225 MEMB     204      POPC     O12      OSLP    -0.570000       15.9994           0
     27226 MEMB     204      POPC     O11      OSLP    -0.570000       15.9994           0
     27227 MEMB     204      POPC     C1       CTL2    -0.800000E-01   12.0110           0
     27228 MEMB     204      POPC     HA       HAL2     0.900000E-01   1.00800           0
     27229 MEMB     204      POPC     HB       HAL2     0.900000E-01   1.00800           0
     27230 MEMB     204      POPC     C2       CTL1     0.170000       12.0110           0
     27231 MEMB     204      POPC     HS       HAL1     0.900000E-01   1.00800           0
     27232 MEMB     204      POPC     O21      OSL     -0.490000       15.9994           0
     27233 MEMB     204      POPC     C21      CL       0.900000       12.0110           0
     27234 MEMB     204      POPC     O22      OBL     -0.630000       15.9994           0
     27235 MEMB     204      POPC     C22      CTL2    -0.220000       12.0110           0
     27236 MEMB     204      POPC     H2R      HAL2     0.900000E-01   1.00800           0
     27237 MEMB     204      POPC     H2S      HAL2     0.900000E-01   1.00800           0
     27238 MEMB     204      POPC     C3       CTL2     0.800000E-01   12.0110           0
     27239 MEMB     204      POPC     HX       HAL2     0.900000E-01   1.00800           0
     27240 MEMB     204      POPC     HY       HAL2     0.900000E-01   1.00800           0
     27241 MEMB     204      POPC     O31      OSL     -0.490000       15.9994           0
     27242 MEMB     204      POPC     C31      CL       0.900000       12.0110           0
     27243 MEMB     204      POPC     O32      OBL     -0.630000       15.9994           0
     27244 MEMB     204      POPC     C32      CTL2    -0.220000       12.0110           0
     27245 MEMB     204      POPC     H2X      HAL2     0.900000E-01   1.00800           0
     27246 MEMB     204      POPC     H2Y      HAL2     0.900000E-01   1.00800           0
     27247 MEMB     204      POPC     C23      CTL2    -0.180000       12.0110           0
     27248 MEMB     204      POPC     H3R      HAL2     0.900000E-01   1.00800           0
     27249 MEMB     204      POPC     H3S      HAL2     0.900000E-01   1.00800           0
     27250 MEMB     204      POPC     C24      CTL2    -0.180000       12.0110           0
     27251 MEMB     204      POPC     H4R      HAL2     0.900000E-01   1.00800           0
     27252 MEMB     204      POPC     H4S      HAL2     0.900000E-01   1.00800           0
     27253 MEMB     204      POPC     C25      CTL2    -0.180000       12.0110           0
     27254 MEMB     204      POPC     H5R      HAL2     0.900000E-01   1.00800           0
     27255 MEMB     204      POPC     H5S      HAL2     0.900000E-01   1.00800           0
     27256 MEMB     204      POPC     C26      CTL2    -0.180000       12.0110           0
     27257 MEMB     204      POPC     H6R      HAL2     0.900000E-01   1.00800           0
     27258 MEMB     204      POPC     H6S      HAL2     0.900000E-01   1.00800           0
     27259 MEMB     204      POPC     C27      CTL2    -0.180000       12.0110           0
     27260 MEMB     204      POPC     H7R      HAL2     0.900000E-01   1.00800           0
     27261 MEMB     204      POPC     H7S      HAL2     0.900000E-01   1.00800           0
     27262 MEMB     204      POPC     C28      CTL2    -0.180000       12.0110           0
     27263 MEMB     204      POPC     H8R      HAL2     0.900000E-01   1.00800           0
     27264 MEMB     204      POPC     H8S      HAL2     0.900000E-01   1.00800           0
     27265 MEMB     204      POPC     C29      CEL1    -0.150000       12.0110           0
     27266 MEMB     204      POPC     H91      HEL1     0.150000       1.00800           0
     27267 MEMB     204      POPC     C210     CEL1    -0.150000       12.0110           0
     27268 MEMB     204      POPC     H101     HEL1     0.150000       1.00800           0
     27269 MEMB     204      POPC     C211     CTL2    -0.180000       12.0110           0
     27270 MEMB     204      POPC     H11R     HAL2     0.900000E-01   1.00800           0
     27271 MEMB     204      POPC     H11S     HAL2     0.900000E-01   1.00800           0
     27272 MEMB     204      POPC     C212     CTL2    -0.180000       12.0110           0
     27273 MEMB     204      POPC     H12R     HAL2     0.900000E-01   1.00800           0
     27274 MEMB     204      POPC     H12S     HAL2     0.900000E-01   1.00800           0
     27275 MEMB     204      POPC     C213     CTL2    -0.180000       12.0110           0
     27276 MEMB     204      POPC     H13R     HAL2     0.900000E-01   1.00800           0
     27277 MEMB     204      POPC     H13S     HAL2     0.900000E-01   1.00800           0
     27278 MEMB     204      POPC     C214     CTL2    -0.180000       12.0110           0
     27279 MEMB     204      POPC     H14R     HAL2     0.900000E-01   1.00800           0
     27280 MEMB     204      POPC     H14S     HAL2     0.900000E-01   1.00800           0
     27281 MEMB     204      POPC     C215     CTL2    -0.180000       12.0110           0
     27282 MEMB     204      POPC     H15R     HAL2     0.900000E-01   1.00800           0
     27283 MEMB     204      POPC     H15S     HAL2     0.900000E-01   1.00800           0
     27284 MEMB     204      POPC     C216     CTL2    -0.180000       12.0110           0
     27285 MEMB     204      POPC     H16R     HAL2     0.900000E-01   1.00800           0
     27286 MEMB     204      POPC     H16S     HAL2     0.900000E-01   1.00800           0
     27287 MEMB     204      POPC     C217     CTL2    -0.180000       12.0110           0
     27288 MEMB     204      POPC     H17R     HAL2     0.900000E-01   1.00800           0
     27289 MEMB     204      POPC     H17S     HAL2     0.900000E-01   1.00800           0
     27290 MEMB     204      POPC     C218     CTL3    -0.270000       12.0110           0
     27291 MEMB     204      POPC     H18R     HAL3     0.900000E-01   1.00800           0
     27292 MEMB     204      POPC     H18S     HAL3     0.900000E-01   1.00800           0
     27293 MEMB     204      POPC     H18T     HAL3     0.900000E-01   1.00800           0
     27294 MEMB     204      POPC     C33      CTL2    -0.180000       12.0110           0
     27295 MEMB     204      POPC     H3X      HAL2     0.900000E-01   1.00800           0
     27296 MEMB     204      POPC     H3Y      HAL2     0.900000E-01   1.00800           0
     27297 MEMB     204      POPC     C34      CTL2    -0.180000       12.0110           0
     27298 MEMB     204      POPC     H4X      HAL2     0.900000E-01   1.00800           0
     27299 MEMB     204      POPC     H4Y      HAL2     0.900000E-01   1.00800           0
     27300 MEMB     204      POPC     C35      CTL2    -0.180000       12.0110           0
     27301 MEMB     204      POPC     H5X      HAL2     0.900000E-01   1.00800           0
     27302 MEMB     204      POPC     H5Y      HAL2     0.900000E-01   1.00800           0
     27303 MEMB     204      POPC     C36      CTL2    -0.180000       12.0110           0
     27304 MEMB     204      POPC     H6X      HAL2     0.900000E-01   1.00800           0
     27305 MEMB     204      POPC     H6Y      HAL2     0.900000E-01   1.00800           0
     27306 MEMB     204      POPC     C37      CTL2    -0.180000       12.0110           0
     27307 MEMB     204      POPC     H7X      HAL2     0.900000E-01   1.00800           0
     27308 MEMB     204      POPC     H7Y      HAL2     0.900000E-01   1.00800           0
     27309 MEMB     204      POPC     C38      CTL2    -0.180000       12.0110           0
     27310 MEMB     204      POPC     H8X      HAL2     0.900000E-01   1.00800           0
     27311 MEMB     204      POPC     H8Y      HAL2     0.900000E-01   1.00800           0
     27312 MEMB     204      POPC     C39      CTL2    -0.180000       12.0110           0
     27313 MEMB     204      POPC     H9X      HAL2     0.900000E-01   1.00800           0
     27314 MEMB     204      POPC     H9Y      HAL2     0.900000E-01   1.00800           0
     27315 MEMB     204      POPC     C310     CTL2    -0.180000       12.0110           0
     27316 MEMB     204      POPC     H10X     HAL2     0.900000E-01   1.00800           0
     27317 MEMB     204      POPC     H10Y     HAL2     0.900000E-01   1.00800           0
     27318 MEMB     204      POPC     C311     CTL2    -0.180000       12.0110           0
     27319 MEMB     204      POPC     H11X     HAL2     0.900000E-01   1.00800           0
     27320 MEMB     204      POPC     H11Y     HAL2     0.900000E-01   1.00800           0
     27321 MEMB     204      POPC     C312     CTL2    -0.180000       12.0110           0
     27322 MEMB     204      POPC     H12X     HAL2     0.900000E-01   1.00800           0
     27323 MEMB     204      POPC     H12Y     HAL2     0.900000E-01   1.00800           0
     27324 MEMB     204      POPC     C313     CTL2    -0.180000       12.0110           0
     27325 MEMB     204      POPC     H13X     HAL2     0.900000E-01   1.00800           0
     27326 MEMB     204      POPC     H13Y     HAL2     0.900000E-01   1.00800           0
     27327 MEMB     204      POPC     C314     CTL2    -0.180000       12.0110           0
     27328 MEMB     204      POPC     H14X     HAL2     0.900000E-01   1.00800           0
     27329 MEMB     204      POPC     H14Y     HAL2     0.900000E-01   1.00800           0
     27330 MEMB     204      POPC     C315     CTL2    -0.180000       12.0110           0
     27331 MEMB     204      POPC     H15X     HAL2     0.900000E-01   1.00800           0
     27332 MEMB     204      POPC     H15Y     HAL2     0.900000E-01   1.00800           0
     27333 MEMB     204      POPC     C316     CTL3    -0.270000       12.0110           0
     27334 MEMB     204      POPC     H16X     HAL3     0.900000E-01   1.00800           0
     27335 MEMB     204      POPC     H16Y     HAL3     0.900000E-01   1.00800           0
     27336 MEMB     204      POPC     H16Z     HAL3     0.900000E-01   1.00800           0
     27337 MEMB     205      POPC     N        NTL     -0.600000       14.0070           0
     27338 MEMB     205      POPC     C12      CTL2    -0.100000       12.0110           0
     27339 MEMB     205      POPC     H12A     HL       0.250000       1.00800           0
     27340 MEMB     205      POPC     H12B     HL       0.250000       1.00800           0
     27341 MEMB     205      POPC     C13      CTL5    -0.350000       12.0110           0
     27342 MEMB     205      POPC     H13A     HL       0.250000       1.00800           0
     27343 MEMB     205      POPC     H13B     HL       0.250000       1.00800           0
     27344 MEMB     205      POPC     H13C     HL       0.250000       1.00800           0
     27345 MEMB     205      POPC     C14      CTL5    -0.350000       12.0110           0
     27346 MEMB     205      POPC     H14A     HL       0.250000       1.00800           0
     27347 MEMB     205      POPC     H14B     HL       0.250000       1.00800           0
     27348 MEMB     205      POPC     H14C     HL       0.250000       1.00800           0
     27349 MEMB     205      POPC     C15      CTL5    -0.350000       12.0110           0
     27350 MEMB     205      POPC     H15A     HL       0.250000       1.00800           0
     27351 MEMB     205      POPC     H15B     HL       0.250000       1.00800           0
     27352 MEMB     205      POPC     H15C     HL       0.250000       1.00800           0
     27353 MEMB     205      POPC     C11      CTL2    -0.800000E-01   12.0110           0
     27354 MEMB     205      POPC     H11A     HAL2     0.900000E-01   1.00800           0
     27355 MEMB     205      POPC     H11B     HAL2     0.900000E-01   1.00800           0
     27356 MEMB     205      POPC     P        PL       1.50000        30.9740           0
     27357 MEMB     205      POPC     O13      O2L     -0.780000       15.9994           0
     27358 MEMB     205      POPC     O14      O2L     -0.780000       15.9994           0
     27359 MEMB     205      POPC     O12      OSLP    -0.570000       15.9994           0
     27360 MEMB     205      POPC     O11      OSLP    -0.570000       15.9994           0
     27361 MEMB     205      POPC     C1       CTL2    -0.800000E-01   12.0110           0
     27362 MEMB     205      POPC     HA       HAL2     0.900000E-01   1.00800           0
     27363 MEMB     205      POPC     HB       HAL2     0.900000E-01   1.00800           0
     27364 MEMB     205      POPC     C2       CTL1     0.170000       12.0110           0
     27365 MEMB     205      POPC     HS       HAL1     0.900000E-01   1.00800           0
     27366 MEMB     205      POPC     O21      OSL     -0.490000       15.9994           0
     27367 MEMB     205      POPC     C21      CL       0.900000       12.0110           0
     27368 MEMB     205      POPC     O22      OBL     -0.630000       15.9994           0
     27369 MEMB     205      POPC     C22      CTL2    -0.220000       12.0110           0
     27370 MEMB     205      POPC     H2R      HAL2     0.900000E-01   1.00800           0
     27371 MEMB     205      POPC     H2S      HAL2     0.900000E-01   1.00800           0
     27372 MEMB     205      POPC     C3       CTL2     0.800000E-01   12.0110           0
     27373 MEMB     205      POPC     HX       HAL2     0.900000E-01   1.00800           0
     27374 MEMB     205      POPC     HY       HAL2     0.900000E-01   1.00800           0
     27375 MEMB     205      POPC     O31      OSL     -0.490000       15.9994           0
     27376 MEMB     205      POPC     C31      CL       0.900000       12.0110           0
     27377 MEMB     205      POPC     O32      OBL     -0.630000       15.9994           0
     27378 MEMB     205      POPC     C32      CTL2    -0.220000       12.0110           0
     27379 MEMB     205      POPC     H2X      HAL2     0.900000E-01   1.00800           0
     27380 MEMB     205      POPC     H2Y      HAL2     0.900000E-01   1.00800           0
     27381 MEMB     205      POPC     C23      CTL2    -0.180000       12.0110           0
     27382 MEMB     205      POPC     H3R      HAL2     0.900000E-01   1.00800           0
     27383 MEMB     205      POPC     H3S      HAL2     0.900000E-01   1.00800           0
     27384 MEMB     205      POPC     C24      CTL2    -0.180000       12.0110           0
     27385 MEMB     205      POPC     H4R      HAL2     0.900000E-01   1.00800           0
     27386 MEMB     205      POPC     H4S      HAL2     0.900000E-01   1.00800           0
     27387 MEMB     205      POPC     C25      CTL2    -0.180000       12.0110           0
     27388 MEMB     205      POPC     H5R      HAL2     0.900000E-01   1.00800           0
     27389 MEMB     205      POPC     H5S      HAL2     0.900000E-01   1.00800           0
     27390 MEMB     205      POPC     C26      CTL2    -0.180000       12.0110           0
     27391 MEMB     205      POPC     H6R      HAL2     0.900000E-01   1.00800           0
     27392 MEMB     205      POPC     H6S      HAL2     0.900000E-01   1.00800           0
     27393 MEMB     205      POPC     C27      CTL2    -0.180000       12.0110           0
     27394 MEMB     205      POPC     H7R      HAL2     0.900000E-01   1.00800           0
     27395 MEMB     205      POPC     H7S      HAL2     0.900000E-01   1.00800           0
     27396 MEMB     205      POPC     C28      CTL2    -0.180000       12.0110           0
     27397 MEMB     205      POPC     H8R      HAL2     0.900000E-01   1.00800           0
     27398 MEMB     205      POPC     H8S      HAL2     0.900000E-01   1.00800           0
     27399 MEMB     205      POPC     C29      CEL1    -0.150000       12.0110           0
     27400 MEMB     205      POPC     H91      HEL1     0.150000       1.00800           0
     27401 MEMB     205      POPC     C210     CEL1    -0.150000       12.0110           0
     27402 MEMB     205      POPC     H101     HEL1     0.150000       1.00800           0
     27403 MEMB     205      POPC     C211     CTL2    -0.180000       12.0110           0
     27404 MEMB     205      POPC     H11R     HAL2     0.900000E-01   1.00800           0
     27405 MEMB     205      POPC     H11S     HAL2     0.900000E-01   1.00800           0
     27406 MEMB     205      POPC     C212     CTL2    -0.180000       12.0110           0
     27407 MEMB     205      POPC     H12R     HAL2     0.900000E-01   1.00800           0
     27408 MEMB     205      POPC     H12S     HAL2     0.900000E-01   1.00800           0
     27409 MEMB     205      POPC     C213     CTL2    -0.180000       12.0110           0
     27410 MEMB     205      POPC     H13R     HAL2     0.900000E-01   1.00800           0
     27411 MEMB     205      POPC     H13S     HAL2     0.900000E-01   1.00800           0
     27412 MEMB     205      POPC     C214     CTL2    -0.180000       12.0110           0
     27413 MEMB     205      POPC     H14R     HAL2     0.900000E-01   1.00800           0
     27414 MEMB     205      POPC     H14S     HAL2     0.900000E-01   1.00800           0
     27415 MEMB     205      POPC     C215     CTL2    -0.180000       12.0110           0
     27416 MEMB     205      POPC     H15R     HAL2     0.900000E-01   1.00800           0
     27417 MEMB     205      POPC     H15S     HAL2     0.900000E-01   1.00800           0
     27418 MEMB     205      POPC     C216     CTL2    -0.180000       12.0110           0
     27419 MEMB     205      POPC     H16R     HAL2     0.900000E-01   1.00800           0
     27420 MEMB     205      POPC     H16S     HAL2     0.900000E-01   1.00800           0
     27421 MEMB     205      POPC     C217     CTL2    -0.180000       12.0110           0
     27422 MEMB     205      POPC     H17R     HAL2     0.900000E-01   1.00800           0
     27423 MEMB     205      POPC     H17S     HAL2     0.900000E-01   1.00800           0
     27424 MEMB     205      POPC     C218     CTL3    -0.270000       12.0110           0
     27425 MEMB     205      POPC     H18R     HAL3     0.900000E-01   1.00800           0
     27426 MEMB     205      POPC     H18S     HAL3     0.900000E-01   1.00800           0
     27427 MEMB     205      POPC     H18T     HAL3     0.900000E-01   1.00800           0
     27428 MEMB     205      POPC     C33      CTL2    -0.180000       12.0110           0
     27429 MEMB     205      POPC     H3X      HAL2     0.900000E-01   1.00800           0
     27430 MEMB     205      POPC     H3Y      HAL2     0.900000E-01   1.00800           0
     27431 MEMB     205      POPC     C34      CTL2    -0.180000       12.0110           0
     27432 MEMB     205      POPC     H4X      HAL2     0.900000E-01   1.00800           0
     27433 MEMB     205      POPC     H4Y      HAL2     0.900000E-01   1.00800           0
     27434 MEMB     205      POPC     C35      CTL2    -0.180000       12.0110           0
     27435 MEMB     205      POPC     H5X      HAL2     0.900000E-01   1.00800           0
     27436 MEMB     205      POPC     H5Y      HAL2     0.900000E-01   1.00800           0
     27437 MEMB     205      POPC     C36      CTL2    -0.180000       12.0110           0
     27438 MEMB     205      POPC     H6X      HAL2     0.900000E-01   1.00800           0
     27439 MEMB     205      POPC     H6Y      HAL2     0.900000E-01   1.00800           0
     27440 MEMB     205      POPC     C37      CTL2    -0.180000       12.0110           0
     27441 MEMB     205      POPC     H7X      HAL2     0.900000E-01   1.00800           0
     27442 MEMB     205      POPC     H7Y      HAL2     0.900000E-01   1.00800           0
     27443 MEMB     205      POPC     C38      CTL2    -0.180000       12.0110           0
     27444 MEMB     205      POPC     H8X      HAL2     0.900000E-01   1.00800           0
     27445 MEMB     205      POPC     H8Y      HAL2     0.900000E-01   1.00800           0
     27446 MEMB     205      POPC     C39      CTL2    -0.180000       12.0110           0
     27447 MEMB     205      POPC     H9X      HAL2     0.900000E-01   1.00800           0
     27448 MEMB     205      POPC     H9Y      HAL2     0.900000E-01   1.00800           0
     27449 MEMB     205      POPC     C310     CTL2    -0.180000       12.0110           0
     27450 MEMB     205      POPC     H10X     HAL2     0.900000E-01   1.00800           0
     27451 MEMB     205      POPC     H10Y     HAL2     0.900000E-01   1.00800           0
     27452 MEMB     205      POPC     C311     CTL2    -0.180000       12.0110           0
     27453 MEMB     205      POPC     H11X     HAL2     0.900000E-01   1.00800           0
     27454 MEMB     205      POPC     H11Y     HAL2     0.900000E-01   1.00800           0
     27455 MEMB     205      POPC     C312     CTL2    -0.180000       12.0110           0
     27456 MEMB     205      POPC     H12X     HAL2     0.900000E-01   1.00800           0
     27457 MEMB     205      POPC     H12Y     HAL2     0.900000E-01   1.00800           0
     27458 MEMB     205      POPC     C313     CTL2    -0.180000       12.0110           0
     27459 MEMB     205      POPC     H13X     HAL2     0.900000E-01   1.00800           0
     27460 MEMB     205      POPC     H13Y     HAL2     0.900000E-01   1.00800           0
     27461 MEMB     205      POPC     C314     CTL2    -0.180000       12.0110           0
     27462 MEMB     205      POPC     H14X     HAL2     0.900000E-01   1.00800           0
     27463 MEMB     205      POPC     H14Y     HAL2     0.900000E-01   1.00800           0
     27464 MEMB     205      POPC     C315     CTL2    -0.180000       12.0110           0
     27465 MEMB     205      POPC     H15X     HAL2     0.900000E-01   1.00800           0
     27466 MEMB     205      POPC     H15Y     HAL2     0.900000E-01   1.00800           0
     27467 MEMB     205      POPC     C316     CTL3    -0.270000       12.0110           0
     27468 MEMB     205      POPC     H16X     HAL3     0.900000E-01   1.00800           0
     27469 MEMB     205      POPC     H16Y     HAL3     0.900000E-01   1.00800           0
     27470 MEMB     205      POPC     H16Z     HAL3     0.900000E-01   1.00800           0
     27471 MEMB     206      POPC     N        NTL     -0.600000       14.0070           0
     27472 MEMB     206      POPC     C12      CTL2    -0.100000       12.0110           0
     27473 MEMB     206      POPC     H12A     HL       0.250000       1.00800           0
     27474 MEMB     206      POPC     H12B     HL       0.250000       1.00800           0
     27475 MEMB     206      POPC     C13      CTL5    -0.350000       12.0110           0
     27476 MEMB     206      POPC     H13A     HL       0.250000       1.00800           0
     27477 MEMB     206      POPC     H13B     HL       0.250000       1.00800           0
     27478 MEMB     206      POPC     H13C     HL       0.250000       1.00800           0
     27479 MEMB     206      POPC     C14      CTL5    -0.350000       12.0110           0
     27480 MEMB     206      POPC     H14A     HL       0.250000       1.00800           0
     27481 MEMB     206      POPC     H14B     HL       0.250000       1.00800           0
     27482 MEMB     206      POPC     H14C     HL       0.250000       1.00800           0
     27483 MEMB     206      POPC     C15      CTL5    -0.350000       12.0110           0
     27484 MEMB     206      POPC     H15A     HL       0.250000       1.00800           0
     27485 MEMB     206      POPC     H15B     HL       0.250000       1.00800           0
     27486 MEMB     206      POPC     H15C     HL       0.250000       1.00800           0
     27487 MEMB     206      POPC     C11      CTL2    -0.800000E-01   12.0110           0
     27488 MEMB     206      POPC     H11A     HAL2     0.900000E-01   1.00800           0
     27489 MEMB     206      POPC     H11B     HAL2     0.900000E-01   1.00800           0
     27490 MEMB     206      POPC     P        PL       1.50000        30.9740           0
     27491 MEMB     206      POPC     O13      O2L     -0.780000       15.9994           0
     27492 MEMB     206      POPC     O14      O2L     -0.780000       15.9994           0
     27493 MEMB     206      POPC     O12      OSLP    -0.570000       15.9994           0
     27494 MEMB     206      POPC     O11      OSLP    -0.570000       15.9994           0
     27495 MEMB     206      POPC     C1       CTL2    -0.800000E-01   12.0110           0
     27496 MEMB     206      POPC     HA       HAL2     0.900000E-01   1.00800           0
     27497 MEMB     206      POPC     HB       HAL2     0.900000E-01   1.00800           0
     27498 MEMB     206      POPC     C2       CTL1     0.170000       12.0110           0
     27499 MEMB     206      POPC     HS       HAL1     0.900000E-01   1.00800           0
     27500 MEMB     206      POPC     O21      OSL     -0.490000       15.9994           0
     27501 MEMB     206      POPC     C21      CL       0.900000       12.0110           0
     27502 MEMB     206      POPC     O22      OBL     -0.630000       15.9994           0
     27503 MEMB     206      POPC     C22      CTL2    -0.220000       12.0110           0
     27504 MEMB     206      POPC     H2R      HAL2     0.900000E-01   1.00800           0
     27505 MEMB     206      POPC     H2S      HAL2     0.900000E-01   1.00800           0
     27506 MEMB     206      POPC     C3       CTL2     0.800000E-01   12.0110           0
     27507 MEMB     206      POPC     HX       HAL2     0.900000E-01   1.00800           0
     27508 MEMB     206      POPC     HY       HAL2     0.900000E-01   1.00800           0
     27509 MEMB     206      POPC     O31      OSL     -0.490000       15.9994           0
     27510 MEMB     206      POPC     C31      CL       0.900000       12.0110           0
     27511 MEMB     206      POPC     O32      OBL     -0.630000       15.9994           0
     27512 MEMB     206      POPC     C32      CTL2    -0.220000       12.0110           0
     27513 MEMB     206      POPC     H2X      HAL2     0.900000E-01   1.00800           0
     27514 MEMB     206      POPC     H2Y      HAL2     0.900000E-01   1.00800           0
     27515 MEMB     206      POPC     C23      CTL2    -0.180000       12.0110           0
     27516 MEMB     206      POPC     H3R      HAL2     0.900000E-01   1.00800           0
     27517 MEMB     206      POPC     H3S      HAL2     0.900000E-01   1.00800           0
     27518 MEMB     206      POPC     C24      CTL2    -0.180000       12.0110           0
     27519 MEMB     206      POPC     H4R      HAL2     0.900000E-01   1.00800           0
     27520 MEMB     206      POPC     H4S      HAL2     0.900000E-01   1.00800           0
     27521 MEMB     206      POPC     C25      CTL2    -0.180000       12.0110           0
     27522 MEMB     206      POPC     H5R      HAL2     0.900000E-01   1.00800           0
     27523 MEMB     206      POPC     H5S      HAL2     0.900000E-01   1.00800           0
     27524 MEMB     206      POPC     C26      CTL2    -0.180000       12.0110           0
     27525 MEMB     206      POPC     H6R      HAL2     0.900000E-01   1.00800           0
     27526 MEMB     206      POPC     H6S      HAL2     0.900000E-01   1.00800           0
     27527 MEMB     206      POPC     C27      CTL2    -0.180000       12.0110           0
     27528 MEMB     206      POPC     H7R      HAL2     0.900000E-01   1.00800           0
     27529 MEMB     206      POPC     H7S      HAL2     0.900000E-01   1.00800           0
     27530 MEMB     206      POPC     C28      CTL2    -0.180000       12.0110           0
     27531 MEMB     206      POPC     H8R      HAL2     0.900000E-01   1.00800           0
     27532 MEMB     206      POPC     H8S      HAL2     0.900000E-01   1.00800           0
     27533 MEMB     206      POPC     C29      CEL1    -0.150000       12.0110           0
     27534 MEMB     206      POPC     H91      HEL1     0.150000       1.00800           0
     27535 MEMB     206      POPC     C210     CEL1    -0.150000       12.0110           0
     27536 MEMB     206      POPC     H101     HEL1     0.150000       1.00800           0
     27537 MEMB     206      POPC     C211     CTL2    -0.180000       12.0110           0
     27538 MEMB     206      POPC     H11R     HAL2     0.900000E-01   1.00800           0
     27539 MEMB     206      POPC     H11S     HAL2     0.900000E-01   1.00800           0
     27540 MEMB     206      POPC     C212     CTL2    -0.180000       12.0110           0
     27541 MEMB     206      POPC     H12R     HAL2     0.900000E-01   1.00800           0
     27542 MEMB     206      POPC     H12S     HAL2     0.900000E-01   1.00800           0
     27543 MEMB     206      POPC     C213     CTL2    -0.180000       12.0110           0
     27544 MEMB     206      POPC     H13R     HAL2     0.900000E-01   1.00800           0
     27545 MEMB     206      POPC     H13S     HAL2     0.900000E-01   1.00800           0
     27546 MEMB     206      POPC     C214     CTL2    -0.180000       12.0110           0
     27547 MEMB     206      POPC     H14R     HAL2     0.900000E-01   1.00800           0
     27548 MEMB     206      POPC     H14S     HAL2     0.900000E-01   1.00800           0
     27549 MEMB     206      POPC     C215     CTL2    -0.180000       12.0110           0
     27550 MEMB     206      POPC     H15R     HAL2     0.900000E-01   1.00800           0
     27551 MEMB     206      POPC     H15S     HAL2     0.900000E-01   1.00800           0
     27552 MEMB     206      POPC     C216     CTL2    -0.180000       12.0110           0
     27553 MEMB     206      POPC     H16R     HAL2     0.900000E-01   1.00800           0
     27554 MEMB     206      POPC     H16S     HAL2     0.900000E-01   1.00800           0
     27555 MEMB     206      POPC     C217     CTL2    -0.180000       12.0110           0
     27556 MEMB     206      POPC     H17R     HAL2     0.900000E-01   1.00800           0
     27557 MEMB     206      POPC     H17S     HAL2     0.900000E-01   1.00800           0
     27558 MEMB     206      POPC     C218     CTL3    -0.270000       12.0110           0
     27559 MEMB     206      POPC     H18R     HAL3     0.900000E-01   1.00800           0
     27560 MEMB     206      POPC     H18S     HAL3     0.900000E-01   1.00800           0
     27561 MEMB     206      POPC     H18T     HAL3     0.900000E-01   1.00800           0
     27562 MEMB     206      POPC     C33      CTL2    -0.180000       12.0110           0
     27563 MEMB     206      POPC     H3X      HAL2     0.900000E-01   1.00800           0
     27564 MEMB     206      POPC     H3Y      HAL2     0.900000E-01   1.00800           0
     27565 MEMB     206      POPC     C34      CTL2    -0.180000       12.0110           0
     27566 MEMB     206      POPC     H4X      HAL2     0.900000E-01   1.00800           0
     27567 MEMB     206      POPC     H4Y      HAL2     0.900000E-01   1.00800           0
     27568 MEMB     206      POPC     C35      CTL2    -0.180000       12.0110           0
     27569 MEMB     206      POPC     H5X      HAL2     0.900000E-01   1.00800           0
     27570 MEMB     206      POPC     H5Y      HAL2     0.900000E-01   1.00800           0
     27571 MEMB     206      POPC     C36      CTL2    -0.180000       12.0110           0
     27572 MEMB     206      POPC     H6X      HAL2     0.900000E-01   1.00800           0
     27573 MEMB     206      POPC     H6Y      HAL2     0.900000E-01   1.00800           0
     27574 MEMB     206      POPC     C37      CTL2    -0.180000       12.0110           0
     27575 MEMB     206      POPC     H7X      HAL2     0.900000E-01   1.00800           0
     27576 MEMB     206      POPC     H7Y      HAL2     0.900000E-01   1.00800           0
     27577 MEMB     206      POPC     C38      CTL2    -0.180000       12.0110           0
     27578 MEMB     206      POPC     H8X      HAL2     0.900000E-01   1.00800           0
     27579 MEMB     206      POPC     H8Y      HAL2     0.900000E-01   1.00800           0
     27580 MEMB     206      POPC     C39      CTL2    -0.180000       12.0110           0
     27581 MEMB     206      POPC     H9X      HAL2     0.900000E-01   1.00800           0
     27582 MEMB     206      POPC     H9Y      HAL2     0.900000E-01   1.00800           0
     27583 MEMB     206      POPC     C310     CTL2    -0.180000       12.0110           0
     27584 MEMB     206      POPC     H10X     HAL2     0.900000E-01   1.00800           0
     27585 MEMB     206      POPC     H10Y     HAL2     0.900000E-01   1.00800           0
     27586 MEMB     206      POPC     C311     CTL2    -0.180000       12.0110           0
     27587 MEMB     206      POPC     H11X     HAL2     0.900000E-01   1.00800           0
     27588 MEMB     206      POPC     H11Y     HAL2     0.900000E-01   1.00800           0
     27589 MEMB     206      POPC     C312     CTL2    -0.180000       12.0110           0
     27590 MEMB     206      POPC     H12X     HAL2     0.900000E-01   1.00800           0
     27591 MEMB     206      POPC     H12Y     HAL2     0.900000E-01   1.00800           0
     27592 MEMB     206      POPC     C313     CTL2    -0.180000       12.0110           0
     27593 MEMB     206      POPC     H13X     HAL2     0.900000E-01   1.00800           0
     27594 MEMB     206      POPC     H13Y     HAL2     0.900000E-01   1.00800           0
     27595 MEMB     206      POPC     C314     CTL2    -0.180000       12.0110           0
     27596 MEMB     206      POPC     H14X     HAL2     0.900000E-01   1.00800           0
     27597 MEMB     206      POPC     H14Y     HAL2     0.900000E-01   1.00800           0
     27598 MEMB     206      POPC     C315     CTL2    -0.180000       12.0110           0
     27599 MEMB     206      POPC     H15X     HAL2     0.900000E-01   1.00800           0
     27600 MEMB     206      POPC     H15Y     HAL2     0.900000E-01   1.00800           0
     27601 MEMB     206      POPC     C316     CTL3    -0.270000       12.0110           0
     27602 MEMB     206      POPC     H16X     HAL3     0.900000E-01   1.00800           0
     27603 MEMB     206      POPC     H16Y     HAL3     0.900000E-01   1.00800           0
     27604 MEMB     206      POPC     H16Z     HAL3     0.900000E-01   1.00800           0
     27605 MEMB     207      POPC     N        NTL     -0.600000       14.0070           0
     27606 MEMB     207      POPC     C12      CTL2    -0.100000       12.0110           0
     27607 MEMB     207      POPC     H12A     HL       0.250000       1.00800           0
     27608 MEMB     207      POPC     H12B     HL       0.250000       1.00800           0
     27609 MEMB     207      POPC     C13      CTL5    -0.350000       12.0110           0
     27610 MEMB     207      POPC     H13A     HL       0.250000       1.00800           0
     27611 MEMB     207      POPC     H13B     HL       0.250000       1.00800           0
     27612 MEMB     207      POPC     H13C     HL       0.250000       1.00800           0
     27613 MEMB     207      POPC     C14      CTL5    -0.350000       12.0110           0
     27614 MEMB     207      POPC     H14A     HL       0.250000       1.00800           0
     27615 MEMB     207      POPC     H14B     HL       0.250000       1.00800           0
     27616 MEMB     207      POPC     H14C     HL       0.250000       1.00800           0
     27617 MEMB     207      POPC     C15      CTL5    -0.350000       12.0110           0
     27618 MEMB     207      POPC     H15A     HL       0.250000       1.00800           0
     27619 MEMB     207      POPC     H15B     HL       0.250000       1.00800           0
     27620 MEMB     207      POPC     H15C     HL       0.250000       1.00800           0
     27621 MEMB     207      POPC     C11      CTL2    -0.800000E-01   12.0110           0
     27622 MEMB     207      POPC     H11A     HAL2     0.900000E-01   1.00800           0
     27623 MEMB     207      POPC     H11B     HAL2     0.900000E-01   1.00800           0
     27624 MEMB     207      POPC     P        PL       1.50000        30.9740           0
     27625 MEMB     207      POPC     O13      O2L     -0.780000       15.9994           0
     27626 MEMB     207      POPC     O14      O2L     -0.780000       15.9994           0
     27627 MEMB     207      POPC     O12      OSLP    -0.570000       15.9994           0
     27628 MEMB     207      POPC     O11      OSLP    -0.570000       15.9994           0
     27629 MEMB     207      POPC     C1       CTL2    -0.800000E-01   12.0110           0
     27630 MEMB     207      POPC     HA       HAL2     0.900000E-01   1.00800           0
     27631 MEMB     207      POPC     HB       HAL2     0.900000E-01   1.00800           0
     27632 MEMB     207      POPC     C2       CTL1     0.170000       12.0110           0
     27633 MEMB     207      POPC     HS       HAL1     0.900000E-01   1.00800           0
     27634 MEMB     207      POPC     O21      OSL     -0.490000       15.9994           0
     27635 MEMB     207      POPC     C21      CL       0.900000       12.0110           0
     27636 MEMB     207      POPC     O22      OBL     -0.630000       15.9994           0
     27637 MEMB     207      POPC     C22      CTL2    -0.220000       12.0110           0
     27638 MEMB     207      POPC     H2R      HAL2     0.900000E-01   1.00800           0
     27639 MEMB     207      POPC     H2S      HAL2     0.900000E-01   1.00800           0
     27640 MEMB     207      POPC     C3       CTL2     0.800000E-01   12.0110           0
     27641 MEMB     207      POPC     HX       HAL2     0.900000E-01   1.00800           0
     27642 MEMB     207      POPC     HY       HAL2     0.900000E-01   1.00800           0
     27643 MEMB     207      POPC     O31      OSL     -0.490000       15.9994           0
     27644 MEMB     207      POPC     C31      CL       0.900000       12.0110           0
     27645 MEMB     207      POPC     O32      OBL     -0.630000       15.9994           0
     27646 MEMB     207      POPC     C32      CTL2    -0.220000       12.0110           0
     27647 MEMB     207      POPC     H2X      HAL2     0.900000E-01   1.00800           0
     27648 MEMB     207      POPC     H2Y      HAL2     0.900000E-01   1.00800           0
     27649 MEMB     207      POPC     C23      CTL2    -0.180000       12.0110           0
     27650 MEMB     207      POPC     H3R      HAL2     0.900000E-01   1.00800           0
     27651 MEMB     207      POPC     H3S      HAL2     0.900000E-01   1.00800           0
     27652 MEMB     207      POPC     C24      CTL2    -0.180000       12.0110           0
     27653 MEMB     207      POPC     H4R      HAL2     0.900000E-01   1.00800           0
     27654 MEMB     207      POPC     H4S      HAL2     0.900000E-01   1.00800           0
     27655 MEMB     207      POPC     C25      CTL2    -0.180000       12.0110           0
     27656 MEMB     207      POPC     H5R      HAL2     0.900000E-01   1.00800           0
     27657 MEMB     207      POPC     H5S      HAL2     0.900000E-01   1.00800           0
     27658 MEMB     207      POPC     C26      CTL2    -0.180000       12.0110           0
     27659 MEMB     207      POPC     H6R      HAL2     0.900000E-01   1.00800           0
     27660 MEMB     207      POPC     H6S      HAL2     0.900000E-01   1.00800           0
     27661 MEMB     207      POPC     C27      CTL2    -0.180000       12.0110           0
     27662 MEMB     207      POPC     H7R      HAL2     0.900000E-01   1.00800           0
     27663 MEMB     207      POPC     H7S      HAL2     0.900000E-01   1.00800           0
     27664 MEMB     207      POPC     C28      CTL2    -0.180000       12.0110           0
     27665 MEMB     207      POPC     H8R      HAL2     0.900000E-01   1.00800           0
     27666 MEMB     207      POPC     H8S      HAL2     0.900000E-01   1.00800           0
     27667 MEMB     207      POPC     C29      CEL1    -0.150000       12.0110           0
     27668 MEMB     207      POPC     H91      HEL1     0.150000       1.00800           0
     27669 MEMB     207      POPC     C210     CEL1    -0.150000       12.0110           0
     27670 MEMB     207      POPC     H101     HEL1     0.150000       1.00800           0
     27671 MEMB     207      POPC     C211     CTL2    -0.180000       12.0110           0
     27672 MEMB     207      POPC     H11R     HAL2     0.900000E-01   1.00800           0
     27673 MEMB     207      POPC     H11S     HAL2     0.900000E-01   1.00800           0
     27674 MEMB     207      POPC     C212     CTL2    -0.180000       12.0110           0
     27675 MEMB     207      POPC     H12R     HAL2     0.900000E-01   1.00800           0
     27676 MEMB     207      POPC     H12S     HAL2     0.900000E-01   1.00800           0
     27677 MEMB     207      POPC     C213     CTL2    -0.180000       12.0110           0
     27678 MEMB     207      POPC     H13R     HAL2     0.900000E-01   1.00800           0
     27679 MEMB     207      POPC     H13S     HAL2     0.900000E-01   1.00800           0
     27680 MEMB     207      POPC     C214     CTL2    -0.180000       12.0110           0
     27681 MEMB     207      POPC     H14R     HAL2     0.900000E-01   1.00800           0
     27682 MEMB     207      POPC     H14S     HAL2     0.900000E-01   1.00800           0
     27683 MEMB     207      POPC     C215     CTL2    -0.180000       12.0110           0
     27684 MEMB     207      POPC     H15R     HAL2     0.900000E-01   1.00800           0
     27685 MEMB     207      POPC     H15S     HAL2     0.900000E-01   1.00800           0
     27686 MEMB     207      POPC     C216     CTL2    -0.180000       12.0110           0
     27687 MEMB     207      POPC     H16R     HAL2     0.900000E-01   1.00800           0
     27688 MEMB     207      POPC     H16S     HAL2     0.900000E-01   1.00800           0
     27689 MEMB     207      POPC     C217     CTL2    -0.180000       12.0110           0
     27690 MEMB     207      POPC     H17R     HAL2     0.900000E-01   1.00800           0
     27691 MEMB     207      POPC     H17S     HAL2     0.900000E-01   1.00800           0
     27692 MEMB     207      POPC     C218     CTL3    -0.270000       12.0110           0
     27693 MEMB     207      POPC     H18R     HAL3     0.900000E-01   1.00800           0
     27694 MEMB     207      POPC     H18S     HAL3     0.900000E-01   1.00800           0
     27695 MEMB     207      POPC     H18T     HAL3     0.900000E-01   1.00800           0
     27696 MEMB     207      POPC     C33      CTL2    -0.180000       12.0110           0
     27697 MEMB     207      POPC     H3X      HAL2     0.900000E-01   1.00800           0
     27698 MEMB     207      POPC     H3Y      HAL2     0.900000E-01   1.00800           0
     27699 MEMB     207      POPC     C34      CTL2    -0.180000       12.0110           0
     27700 MEMB     207      POPC     H4X      HAL2     0.900000E-01   1.00800           0
     27701 MEMB     207      POPC     H4Y      HAL2     0.900000E-01   1.00800           0
     27702 MEMB     207      POPC     C35      CTL2    -0.180000       12.0110           0
     27703 MEMB     207      POPC     H5X      HAL2     0.900000E-01   1.00800           0
     27704 MEMB     207      POPC     H5Y      HAL2     0.900000E-01   1.00800           0
     27705 MEMB     207      POPC     C36      CTL2    -0.180000       12.0110           0
     27706 MEMB     207      POPC     H6X      HAL2     0.900000E-01   1.00800           0
     27707 MEMB     207      POPC     H6Y      HAL2     0.900000E-01   1.00800           0
     27708 MEMB     207      POPC     C37      CTL2    -0.180000       12.0110           0
     27709 MEMB     207      POPC     H7X      HAL2     0.900000E-01   1.00800           0
     27710 MEMB     207      POPC     H7Y      HAL2     0.900000E-01   1.00800           0
     27711 MEMB     207      POPC     C38      CTL2    -0.180000       12.0110           0
     27712 MEMB     207      POPC     H8X      HAL2     0.900000E-01   1.00800           0
     27713 MEMB     207      POPC     H8Y      HAL2     0.900000E-01   1.00800           0
     27714 MEMB     207      POPC     C39      CTL2    -0.180000       12.0110           0
     27715 MEMB     207      POPC     H9X      HAL2     0.900000E-01   1.00800           0
     27716 MEMB     207      POPC     H9Y      HAL2     0.900000E-01   1.00800           0
     27717 MEMB     207      POPC     C310     CTL2    -0.180000       12.0110           0
     27718 MEMB     207      POPC     H10X     HAL2     0.900000E-01   1.00800           0
     27719 MEMB     207      POPC     H10Y     HAL2     0.900000E-01   1.00800           0
     27720 MEMB     207      POPC     C311     CTL2    -0.180000       12.0110           0
     27721 MEMB     207      POPC     H11X     HAL2     0.900000E-01   1.00800           0
     27722 MEMB     207      POPC     H11Y     HAL2     0.900000E-01   1.00800           0
     27723 MEMB     207      POPC     C312     CTL2    -0.180000       12.0110           0
     27724 MEMB     207      POPC     H12X     HAL2     0.900000E-01   1.00800           0
     27725 MEMB     207      POPC     H12Y     HAL2     0.900000E-01   1.00800           0
     27726 MEMB     207      POPC     C313     CTL2    -0.180000       12.0110           0
     27727 MEMB     207      POPC     H13X     HAL2     0.900000E-01   1.00800           0
     27728 MEMB     207      POPC     H13Y     HAL2     0.900000E-01   1.00800           0
     27729 MEMB     207      POPC     C314     CTL2    -0.180000       12.0110           0
     27730 MEMB     207      POPC     H14X     HAL2     0.900000E-01   1.00800           0
     27731 MEMB     207      POPC     H14Y     HAL2     0.900000E-01   1.00800           0
     27732 MEMB     207      POPC     C315     CTL2    -0.180000       12.0110           0
     27733 MEMB     207      POPC     H15X     HAL2     0.900000E-01   1.00800           0
     27734 MEMB     207      POPC     H15Y     HAL2     0.900000E-01   1.00800           0
     27735 MEMB     207      POPC     C316     CTL3    -0.270000       12.0110           0
     27736 MEMB     207      POPC     H16X     HAL3     0.900000E-01   1.00800           0
     27737 MEMB     207      POPC     H16Y     HAL3     0.900000E-01   1.00800           0
     27738 MEMB     207      POPC     H16Z     HAL3     0.900000E-01   1.00800           0
     27739 MEMB     208      POPC     N        NTL     -0.600000       14.0070           0
     27740 MEMB     208      POPC     C12      CTL2    -0.100000       12.0110           0
     27741 MEMB     208      POPC     H12A     HL       0.250000       1.00800           0
     27742 MEMB     208      POPC     H12B     HL       0.250000       1.00800           0
     27743 MEMB     208      POPC     C13      CTL5    -0.350000       12.0110           0
     27744 MEMB     208      POPC     H13A     HL       0.250000       1.00800           0
     27745 MEMB     208      POPC     H13B     HL       0.250000       1.00800           0
     27746 MEMB     208      POPC     H13C     HL       0.250000       1.00800           0
     27747 MEMB     208      POPC     C14      CTL5    -0.350000       12.0110           0
     27748 MEMB     208      POPC     H14A     HL       0.250000       1.00800           0
     27749 MEMB     208      POPC     H14B     HL       0.250000       1.00800           0
     27750 MEMB     208      POPC     H14C     HL       0.250000       1.00800           0
     27751 MEMB     208      POPC     C15      CTL5    -0.350000       12.0110           0
     27752 MEMB     208      POPC     H15A     HL       0.250000       1.00800           0
     27753 MEMB     208      POPC     H15B     HL       0.250000       1.00800           0
     27754 MEMB     208      POPC     H15C     HL       0.250000       1.00800           0
     27755 MEMB     208      POPC     C11      CTL2    -0.800000E-01   12.0110           0
     27756 MEMB     208      POPC     H11A     HAL2     0.900000E-01   1.00800           0
     27757 MEMB     208      POPC     H11B     HAL2     0.900000E-01   1.00800           0
     27758 MEMB     208      POPC     P        PL       1.50000        30.9740           0
     27759 MEMB     208      POPC     O13      O2L     -0.780000       15.9994           0
     27760 MEMB     208      POPC     O14      O2L     -0.780000       15.9994           0
     27761 MEMB     208      POPC     O12      OSLP    -0.570000       15.9994           0
     27762 MEMB     208      POPC     O11      OSLP    -0.570000       15.9994           0
     27763 MEMB     208      POPC     C1       CTL2    -0.800000E-01   12.0110           0
     27764 MEMB     208      POPC     HA       HAL2     0.900000E-01   1.00800           0
     27765 MEMB     208      POPC     HB       HAL2     0.900000E-01   1.00800           0
     27766 MEMB     208      POPC     C2       CTL1     0.170000       12.0110           0
     27767 MEMB     208      POPC     HS       HAL1     0.900000E-01   1.00800           0
     27768 MEMB     208      POPC     O21      OSL     -0.490000       15.9994           0
     27769 MEMB     208      POPC     C21      CL       0.900000       12.0110           0
     27770 MEMB     208      POPC     O22      OBL     -0.630000       15.9994           0
     27771 MEMB     208      POPC     C22      CTL2    -0.220000       12.0110           0
     27772 MEMB     208      POPC     H2R      HAL2     0.900000E-01   1.00800           0
     27773 MEMB     208      POPC     H2S      HAL2     0.900000E-01   1.00800           0
     27774 MEMB     208      POPC     C3       CTL2     0.800000E-01   12.0110           0
     27775 MEMB     208      POPC     HX       HAL2     0.900000E-01   1.00800           0
     27776 MEMB     208      POPC     HY       HAL2     0.900000E-01   1.00800           0
     27777 MEMB     208      POPC     O31      OSL     -0.490000       15.9994           0
     27778 MEMB     208      POPC     C31      CL       0.900000       12.0110           0
     27779 MEMB     208      POPC     O32      OBL     -0.630000       15.9994           0
     27780 MEMB     208      POPC     C32      CTL2    -0.220000       12.0110           0
     27781 MEMB     208      POPC     H2X      HAL2     0.900000E-01   1.00800           0
     27782 MEMB     208      POPC     H2Y      HAL2     0.900000E-01   1.00800           0
     27783 MEMB     208      POPC     C23      CTL2    -0.180000       12.0110           0
     27784 MEMB     208      POPC     H3R      HAL2     0.900000E-01   1.00800           0
     27785 MEMB     208      POPC     H3S      HAL2     0.900000E-01   1.00800           0
     27786 MEMB     208      POPC     C24      CTL2    -0.180000       12.0110           0
     27787 MEMB     208      POPC     H4R      HAL2     0.900000E-01   1.00800           0
     27788 MEMB     208      POPC     H4S      HAL2     0.900000E-01   1.00800           0
     27789 MEMB     208      POPC     C25      CTL2    -0.180000       12.0110           0
     27790 MEMB     208      POPC     H5R      HAL2     0.900000E-01   1.00800           0
     27791 MEMB     208      POPC     H5S      HAL2     0.900000E-01   1.00800           0
     27792 MEMB     208      POPC     C26      CTL2    -0.180000       12.0110           0
     27793 MEMB     208      POPC     H6R      HAL2     0.900000E-01   1.00800           0
     27794 MEMB     208      POPC     H6S      HAL2     0.900000E-01   1.00800           0
     27795 MEMB     208      POPC     C27      CTL2    -0.180000       12.0110           0
     27796 MEMB     208      POPC     H7R      HAL2     0.900000E-01   1.00800           0
     27797 MEMB     208      POPC     H7S      HAL2     0.900000E-01   1.00800           0
     27798 MEMB     208      POPC     C28      CTL2    -0.180000       12.0110           0
     27799 MEMB     208      POPC     H8R      HAL2     0.900000E-01   1.00800           0
     27800 MEMB     208      POPC     H8S      HAL2     0.900000E-01   1.00800           0
     27801 MEMB     208      POPC     C29      CEL1    -0.150000       12.0110           0
     27802 MEMB     208      POPC     H91      HEL1     0.150000       1.00800           0
     27803 MEMB     208      POPC     C210     CEL1    -0.150000       12.0110           0
     27804 MEMB     208      POPC     H101     HEL1     0.150000       1.00800           0
     27805 MEMB     208      POPC     C211     CTL2    -0.180000       12.0110           0
     27806 MEMB     208      POPC     H11R     HAL2     0.900000E-01   1.00800           0
     27807 MEMB     208      POPC     H11S     HAL2     0.900000E-01   1.00800           0
     27808 MEMB     208      POPC     C212     CTL2    -0.180000       12.0110           0
     27809 MEMB     208      POPC     H12R     HAL2     0.900000E-01   1.00800           0
     27810 MEMB     208      POPC     H12S     HAL2     0.900000E-01   1.00800           0
     27811 MEMB     208      POPC     C213     CTL2    -0.180000       12.0110           0
     27812 MEMB     208      POPC     H13R     HAL2     0.900000E-01   1.00800           0
     27813 MEMB     208      POPC     H13S     HAL2     0.900000E-01   1.00800           0
     27814 MEMB     208      POPC     C214     CTL2    -0.180000       12.0110           0
     27815 MEMB     208      POPC     H14R     HAL2     0.900000E-01   1.00800           0
     27816 MEMB     208      POPC     H14S     HAL2     0.900000E-01   1.00800           0
     27817 MEMB     208      POPC     C215     CTL2    -0.180000       12.0110           0
     27818 MEMB     208      POPC     H15R     HAL2     0.900000E-01   1.00800           0
     27819 MEMB     208      POPC     H15S     HAL2     0.900000E-01   1.00800           0
     27820 MEMB     208      POPC     C216     CTL2    -0.180000       12.0110           0
     27821 MEMB     208      POPC     H16R     HAL2     0.900000E-01   1.00800           0
     27822 MEMB     208      POPC     H16S     HAL2     0.900000E-01   1.00800           0
     27823 MEMB     208      POPC     C217     CTL2    -0.180000       12.0110           0
     27824 MEMB     208      POPC     H17R     HAL2     0.900000E-01   1.00800           0
     27825 MEMB     208      POPC     H17S     HAL2     0.900000E-01   1.00800           0
     27826 MEMB     208      POPC     C218     CTL3    -0.270000       12.0110           0
     27827 MEMB     208      POPC     H18R     HAL3     0.900000E-01   1.00800           0
     27828 MEMB     208      POPC     H18S     HAL3     0.900000E-01   1.00800           0
     27829 MEMB     208      POPC     H18T     HAL3     0.900000E-01   1.00800           0
     27830 MEMB     208      POPC     C33      CTL2    -0.180000       12.0110           0
     27831 MEMB     208      POPC     H3X      HAL2     0.900000E-01   1.00800           0
     27832 MEMB     208      POPC     H3Y      HAL2     0.900000E-01   1.00800           0
     27833 MEMB     208      POPC     C34      CTL2    -0.180000       12.0110           0
     27834 MEMB     208      POPC     H4X      HAL2     0.900000E-01   1.00800           0
     27835 MEMB     208      POPC     H4Y      HAL2     0.900000E-01   1.00800           0
     27836 MEMB     208      POPC     C35      CTL2    -0.180000       12.0110           0
     27837 MEMB     208      POPC     H5X      HAL2     0.900000E-01   1.00800           0
     27838 MEMB     208      POPC     H5Y      HAL2     0.900000E-01   1.00800           0
     27839 MEMB     208      POPC     C36      CTL2    -0.180000       12.0110           0
     27840 MEMB     208      POPC     H6X      HAL2     0.900000E-01   1.00800           0
     27841 MEMB     208      POPC     H6Y      HAL2     0.900000E-01   1.00800           0
     27842 MEMB     208      POPC     C37      CTL2    -0.180000       12.0110           0
     27843 MEMB     208      POPC     H7X      HAL2     0.900000E-01   1.00800           0
     27844 MEMB     208      POPC     H7Y      HAL2     0.900000E-01   1.00800           0
     27845 MEMB     208      POPC     C38      CTL2    -0.180000       12.0110           0
     27846 MEMB     208      POPC     H8X      HAL2     0.900000E-01   1.00800           0
     27847 MEMB     208      POPC     H8Y      HAL2     0.900000E-01   1.00800           0
     27848 MEMB     208      POPC     C39      CTL2    -0.180000       12.0110           0
     27849 MEMB     208      POPC     H9X      HAL2     0.900000E-01   1.00800           0
     27850 MEMB     208      POPC     H9Y      HAL2     0.900000E-01   1.00800           0
     27851 MEMB     208      POPC     C310     CTL2    -0.180000       12.0110           0
     27852 MEMB     208      POPC     H10X     HAL2     0.900000E-01   1.00800           0
     27853 MEMB     208      POPC     H10Y     HAL2     0.900000E-01   1.00800           0
     27854 MEMB     208      POPC     C311     CTL2    -0.180000       12.0110           0
     27855 MEMB     208      POPC     H11X     HAL2     0.900000E-01   1.00800           0
     27856 MEMB     208      POPC     H11Y     HAL2     0.900000E-01   1.00800           0
     27857 MEMB     208      POPC     C312     CTL2    -0.180000       12.0110           0
     27858 MEMB     208      POPC     H12X     HAL2     0.900000E-01   1.00800           0
     27859 MEMB     208      POPC     H12Y     HAL2     0.900000E-01   1.00800           0
     27860 MEMB     208      POPC     C313     CTL2    -0.180000       12.0110           0
     27861 MEMB     208      POPC     H13X     HAL2     0.900000E-01   1.00800           0
     27862 MEMB     208      POPC     H13Y     HAL2     0.900000E-01   1.00800           0
     27863 MEMB     208      POPC     C314     CTL2    -0.180000       12.0110           0
     27864 MEMB     208      POPC     H14X     HAL2     0.900000E-01   1.00800           0
     27865 MEMB     208      POPC     H14Y     HAL2     0.900000E-01   1.00800           0
     27866 MEMB     208      POPC     C315     CTL2    -0.180000       12.0110           0
     27867 MEMB     208      POPC     H15X     HAL2     0.900000E-01   1.00800           0
     27868 MEMB     208      POPC     H15Y     HAL2     0.900000E-01   1.00800           0
     27869 MEMB     208      POPC     C316     CTL3    -0.270000       12.0110           0
     27870 MEMB     208      POPC     H16X     HAL3     0.900000E-01   1.00800           0
     27871 MEMB     208      POPC     H16Y     HAL3     0.900000E-01   1.00800           0
     27872 MEMB     208      POPC     H16Z     HAL3     0.900000E-01   1.00800           0
     27873 MEMB     209      POPC     N        NTL     -0.600000       14.0070           0
     27874 MEMB     209      POPC     C12      CTL2    -0.100000       12.0110           0
     27875 MEMB     209      POPC     H12A     HL       0.250000       1.00800           0
     27876 MEMB     209      POPC     H12B     HL       0.250000       1.00800           0
     27877 MEMB     209      POPC     C13      CTL5    -0.350000       12.0110           0
     27878 MEMB     209      POPC     H13A     HL       0.250000       1.00800           0
     27879 MEMB     209      POPC     H13B     HL       0.250000       1.00800           0
     27880 MEMB     209      POPC     H13C     HL       0.250000       1.00800           0
     27881 MEMB     209      POPC     C14      CTL5    -0.350000       12.0110           0
     27882 MEMB     209      POPC     H14A     HL       0.250000       1.00800           0
     27883 MEMB     209      POPC     H14B     HL       0.250000       1.00800           0
     27884 MEMB     209      POPC     H14C     HL       0.250000       1.00800           0
     27885 MEMB     209      POPC     C15      CTL5    -0.350000       12.0110           0
     27886 MEMB     209      POPC     H15A     HL       0.250000       1.00800           0
     27887 MEMB     209      POPC     H15B     HL       0.250000       1.00800           0
     27888 MEMB     209      POPC     H15C     HL       0.250000       1.00800           0
     27889 MEMB     209      POPC     C11      CTL2    -0.800000E-01   12.0110           0
     27890 MEMB     209      POPC     H11A     HAL2     0.900000E-01   1.00800           0
     27891 MEMB     209      POPC     H11B     HAL2     0.900000E-01   1.00800           0
     27892 MEMB     209      POPC     P        PL       1.50000        30.9740           0
     27893 MEMB     209      POPC     O13      O2L     -0.780000       15.9994           0
     27894 MEMB     209      POPC     O14      O2L     -0.780000       15.9994           0
     27895 MEMB     209      POPC     O12      OSLP    -0.570000       15.9994           0
     27896 MEMB     209      POPC     O11      OSLP    -0.570000       15.9994           0
     27897 MEMB     209      POPC     C1       CTL2    -0.800000E-01   12.0110           0
     27898 MEMB     209      POPC     HA       HAL2     0.900000E-01   1.00800           0
     27899 MEMB     209      POPC     HB       HAL2     0.900000E-01   1.00800           0
     27900 MEMB     209      POPC     C2       CTL1     0.170000       12.0110           0
     27901 MEMB     209      POPC     HS       HAL1     0.900000E-01   1.00800           0
     27902 MEMB     209      POPC     O21      OSL     -0.490000       15.9994           0
     27903 MEMB     209      POPC     C21      CL       0.900000       12.0110           0
     27904 MEMB     209      POPC     O22      OBL     -0.630000       15.9994           0
     27905 MEMB     209      POPC     C22      CTL2    -0.220000       12.0110           0
     27906 MEMB     209      POPC     H2R      HAL2     0.900000E-01   1.00800           0
     27907 MEMB     209      POPC     H2S      HAL2     0.900000E-01   1.00800           0
     27908 MEMB     209      POPC     C3       CTL2     0.800000E-01   12.0110           0
     27909 MEMB     209      POPC     HX       HAL2     0.900000E-01   1.00800           0
     27910 MEMB     209      POPC     HY       HAL2     0.900000E-01   1.00800           0
     27911 MEMB     209      POPC     O31      OSL     -0.490000       15.9994           0
     27912 MEMB     209      POPC     C31      CL       0.900000       12.0110           0
     27913 MEMB     209      POPC     O32      OBL     -0.630000       15.9994           0
     27914 MEMB     209      POPC     C32      CTL2    -0.220000       12.0110           0
     27915 MEMB     209      POPC     H2X      HAL2     0.900000E-01   1.00800           0
     27916 MEMB     209      POPC     H2Y      HAL2     0.900000E-01   1.00800           0
     27917 MEMB     209      POPC     C23      CTL2    -0.180000       12.0110           0
     27918 MEMB     209      POPC     H3R      HAL2     0.900000E-01   1.00800           0
     27919 MEMB     209      POPC     H3S      HAL2     0.900000E-01   1.00800           0
     27920 MEMB     209      POPC     C24      CTL2    -0.180000       12.0110           0
     27921 MEMB     209      POPC     H4R      HAL2     0.900000E-01   1.00800           0
     27922 MEMB     209      POPC     H4S      HAL2     0.900000E-01   1.00800           0
     27923 MEMB     209      POPC     C25      CTL2    -0.180000       12.0110           0
     27924 MEMB     209      POPC     H5R      HAL2     0.900000E-01   1.00800           0
     27925 MEMB     209      POPC     H5S      HAL2     0.900000E-01   1.00800           0
     27926 MEMB     209      POPC     C26      CTL2    -0.180000       12.0110           0
     27927 MEMB     209      POPC     H6R      HAL2     0.900000E-01   1.00800           0
     27928 MEMB     209      POPC     H6S      HAL2     0.900000E-01   1.00800           0
     27929 MEMB     209      POPC     C27      CTL2    -0.180000       12.0110           0
     27930 MEMB     209      POPC     H7R      HAL2     0.900000E-01   1.00800           0
     27931 MEMB     209      POPC     H7S      HAL2     0.900000E-01   1.00800           0
     27932 MEMB     209      POPC     C28      CTL2    -0.180000       12.0110           0
     27933 MEMB     209      POPC     H8R      HAL2     0.900000E-01   1.00800           0
     27934 MEMB     209      POPC     H8S      HAL2     0.900000E-01   1.00800           0
     27935 MEMB     209      POPC     C29      CEL1    -0.150000       12.0110           0
     27936 MEMB     209      POPC     H91      HEL1     0.150000       1.00800           0
     27937 MEMB     209      POPC     C210     CEL1    -0.150000       12.0110           0
     27938 MEMB     209      POPC     H101     HEL1     0.150000       1.00800           0
     27939 MEMB     209      POPC     C211     CTL2    -0.180000       12.0110           0
     27940 MEMB     209      POPC     H11R     HAL2     0.900000E-01   1.00800           0
     27941 MEMB     209      POPC     H11S     HAL2     0.900000E-01   1.00800           0
     27942 MEMB     209      POPC     C212     CTL2    -0.180000       12.0110           0
     27943 MEMB     209      POPC     H12R     HAL2     0.900000E-01   1.00800           0
     27944 MEMB     209      POPC     H12S     HAL2     0.900000E-01   1.00800           0
     27945 MEMB     209      POPC     C213     CTL2    -0.180000       12.0110           0
     27946 MEMB     209      POPC     H13R     HAL2     0.900000E-01   1.00800           0
     27947 MEMB     209      POPC     H13S     HAL2     0.900000E-01   1.00800           0
     27948 MEMB     209      POPC     C214     CTL2    -0.180000       12.0110           0
     27949 MEMB     209      POPC     H14R     HAL2     0.900000E-01   1.00800           0
     27950 MEMB     209      POPC     H14S     HAL2     0.900000E-01   1.00800           0
     27951 MEMB     209      POPC     C215     CTL2    -0.180000       12.0110           0
     27952 MEMB     209      POPC     H15R     HAL2     0.900000E-01   1.00800           0
     27953 MEMB     209      POPC     H15S     HAL2     0.900000E-01   1.00800           0
     27954 MEMB     209      POPC     C216     CTL2    -0.180000       12.0110           0
     27955 MEMB     209      POPC     H16R     HAL2     0.900000E-01   1.00800           0
     27956 MEMB     209      POPC     H16S     HAL2     0.900000E-01   1.00800           0
     27957 MEMB     209      POPC     C217     CTL2    -0.180000       12.0110           0
     27958 MEMB     209      POPC     H17R     HAL2     0.900000E-01   1.00800           0
     27959 MEMB     209      POPC     H17S     HAL2     0.900000E-01   1.00800           0
     27960 MEMB     209      POPC     C218     CTL3    -0.270000       12.0110           0
     27961 MEMB     209      POPC     H18R     HAL3     0.900000E-01   1.00800           0
     27962 MEMB     209      POPC     H18S     HAL3     0.900000E-01   1.00800           0
     27963 MEMB     209      POPC     H18T     HAL3     0.900000E-01   1.00800           0
     27964 MEMB     209      POPC     C33      CTL2    -0.180000       12.0110           0
     27965 MEMB     209      POPC     H3X      HAL2     0.900000E-01   1.00800           0
     27966 MEMB     209      POPC     H3Y      HAL2     0.900000E-01   1.00800           0
     27967 MEMB     209      POPC     C34      CTL2    -0.180000       12.0110           0
     27968 MEMB     209      POPC     H4X      HAL2     0.900000E-01   1.00800           0
     27969 MEMB     209      POPC     H4Y      HAL2     0.900000E-01   1.00800           0
     27970 MEMB     209      POPC     C35      CTL2    -0.180000       12.0110           0
     27971 MEMB     209      POPC     H5X      HAL2     0.900000E-01   1.00800           0
     27972 MEMB     209      POPC     H5Y      HAL2     0.900000E-01   1.00800           0
     27973 MEMB     209      POPC     C36      CTL2    -0.180000       12.0110           0
     27974 MEMB     209      POPC     H6X      HAL2     0.900000E-01   1.00800           0
     27975 MEMB     209      POPC     H6Y      HAL2     0.900000E-01   1.00800           0
     27976 MEMB     209      POPC     C37      CTL2    -0.180000       12.0110           0
     27977 MEMB     209      POPC     H7X      HAL2     0.900000E-01   1.00800           0
     27978 MEMB     209      POPC     H7Y      HAL2     0.900000E-01   1.00800           0
     27979 MEMB     209      POPC     C38      CTL2    -0.180000       12.0110           0
     27980 MEMB     209      POPC     H8X      HAL2     0.900000E-01   1.00800           0
     27981 MEMB     209      POPC     H8Y      HAL2     0.900000E-01   1.00800           0
     27982 MEMB     209      POPC     C39      CTL2    -0.180000       12.0110           0
     27983 MEMB     209      POPC     H9X      HAL2     0.900000E-01   1.00800           0
     27984 MEMB     209      POPC     H9Y      HAL2     0.900000E-01   1.00800           0
     27985 MEMB     209      POPC     C310     CTL2    -0.180000       12.0110           0
     27986 MEMB     209      POPC     H10X     HAL2     0.900000E-01   1.00800           0
     27987 MEMB     209      POPC     H10Y     HAL2     0.900000E-01   1.00800           0
     27988 MEMB     209      POPC     C311     CTL2    -0.180000       12.0110           0
     27989 MEMB     209      POPC     H11X     HAL2     0.900000E-01   1.00800           0
     27990 MEMB     209      POPC     H11Y     HAL2     0.900000E-01   1.00800           0
     27991 MEMB     209      POPC     C312     CTL2    -0.180000       12.0110           0
     27992 MEMB     209      POPC     H12X     HAL2     0.900000E-01   1.00800           0
     27993 MEMB     209      POPC     H12Y     HAL2     0.900000E-01   1.00800           0
     27994 MEMB     209      POPC     C313     CTL2    -0.180000       12.0110           0
     27995 MEMB     209      POPC     H13X     HAL2     0.900000E-01   1.00800           0
     27996 MEMB     209      POPC     H13Y     HAL2     0.900000E-01   1.00800           0
     27997 MEMB     209      POPC     C314     CTL2    -0.180000       12.0110           0
     27998 MEMB     209      POPC     H14X     HAL2     0.900000E-01   1.00800           0
     27999 MEMB     209      POPC     H14Y     HAL2     0.900000E-01   1.00800           0
     28000 MEMB     209      POPC     C315     CTL2    -0.180000       12.0110           0
     28001 MEMB     209      POPC     H15X     HAL2     0.900000E-01   1.00800           0
     28002 MEMB     209      POPC     H15Y     HAL2     0.900000E-01   1.00800           0
     28003 MEMB     209      POPC     C316     CTL3    -0.270000       12.0110           0
     28004 MEMB     209      POPC     H16X     HAL3     0.900000E-01   1.00800           0
     28005 MEMB     209      POPC     H16Y     HAL3     0.900000E-01   1.00800           0
     28006 MEMB     209      POPC     H16Z     HAL3     0.900000E-01   1.00800           0
     28007 MEMB     210      POPC     N        NTL     -0.600000       14.0070           0
     28008 MEMB     210      POPC     C12      CTL2    -0.100000       12.0110           0
     28009 MEMB     210      POPC     H12A     HL       0.250000       1.00800           0
     28010 MEMB     210      POPC     H12B     HL       0.250000       1.00800           0
     28011 MEMB     210      POPC     C13      CTL5    -0.350000       12.0110           0
     28012 MEMB     210      POPC     H13A     HL       0.250000       1.00800           0
     28013 MEMB     210      POPC     H13B     HL       0.250000       1.00800           0
     28014 MEMB     210      POPC     H13C     HL       0.250000       1.00800           0
     28015 MEMB     210      POPC     C14      CTL5    -0.350000       12.0110           0
     28016 MEMB     210      POPC     H14A     HL       0.250000       1.00800           0
     28017 MEMB     210      POPC     H14B     HL       0.250000       1.00800           0
     28018 MEMB     210      POPC     H14C     HL       0.250000       1.00800           0
     28019 MEMB     210      POPC     C15      CTL5    -0.350000       12.0110           0
     28020 MEMB     210      POPC     H15A     HL       0.250000       1.00800           0
     28021 MEMB     210      POPC     H15B     HL       0.250000       1.00800           0
     28022 MEMB     210      POPC     H15C     HL       0.250000       1.00800           0
     28023 MEMB     210      POPC     C11      CTL2    -0.800000E-01   12.0110           0
     28024 MEMB     210      POPC     H11A     HAL2     0.900000E-01   1.00800           0
     28025 MEMB     210      POPC     H11B     HAL2     0.900000E-01   1.00800           0
     28026 MEMB     210      POPC     P        PL       1.50000        30.9740           0
     28027 MEMB     210      POPC     O13      O2L     -0.780000       15.9994           0
     28028 MEMB     210      POPC     O14      O2L     -0.780000       15.9994           0
     28029 MEMB     210      POPC     O12      OSLP    -0.570000       15.9994           0
     28030 MEMB     210      POPC     O11      OSLP    -0.570000       15.9994           0
     28031 MEMB     210      POPC     C1       CTL2    -0.800000E-01   12.0110           0
     28032 MEMB     210      POPC     HA       HAL2     0.900000E-01   1.00800           0
     28033 MEMB     210      POPC     HB       HAL2     0.900000E-01   1.00800           0
     28034 MEMB     210      POPC     C2       CTL1     0.170000       12.0110           0
     28035 MEMB     210      POPC     HS       HAL1     0.900000E-01   1.00800           0
     28036 MEMB     210      POPC     O21      OSL     -0.490000       15.9994           0
     28037 MEMB     210      POPC     C21      CL       0.900000       12.0110           0
     28038 MEMB     210      POPC     O22      OBL     -0.630000       15.9994           0
     28039 MEMB     210      POPC     C22      CTL2    -0.220000       12.0110           0
     28040 MEMB     210      POPC     H2R      HAL2     0.900000E-01   1.00800           0
     28041 MEMB     210      POPC     H2S      HAL2     0.900000E-01   1.00800           0
     28042 MEMB     210      POPC     C3       CTL2     0.800000E-01   12.0110           0
     28043 MEMB     210      POPC     HX       HAL2     0.900000E-01   1.00800           0
     28044 MEMB     210      POPC     HY       HAL2     0.900000E-01   1.00800           0
     28045 MEMB     210      POPC     O31      OSL     -0.490000       15.9994           0
     28046 MEMB     210      POPC     C31      CL       0.900000       12.0110           0
     28047 MEMB     210      POPC     O32      OBL     -0.630000       15.9994           0
     28048 MEMB     210      POPC     C32      CTL2    -0.220000       12.0110           0
     28049 MEMB     210      POPC     H2X      HAL2     0.900000E-01   1.00800           0
     28050 MEMB     210      POPC     H2Y      HAL2     0.900000E-01   1.00800           0
     28051 MEMB     210      POPC     C23      CTL2    -0.180000       12.0110           0
     28052 MEMB     210      POPC     H3R      HAL2     0.900000E-01   1.00800           0
     28053 MEMB     210      POPC     H3S      HAL2     0.900000E-01   1.00800           0
     28054 MEMB     210      POPC     C24      CTL2    -0.180000       12.0110           0
     28055 MEMB     210      POPC     H4R      HAL2     0.900000E-01   1.00800           0
     28056 MEMB     210      POPC     H4S      HAL2     0.900000E-01   1.00800           0
     28057 MEMB     210      POPC     C25      CTL2    -0.180000       12.0110           0
     28058 MEMB     210      POPC     H5R      HAL2     0.900000E-01   1.00800           0
     28059 MEMB     210      POPC     H5S      HAL2     0.900000E-01   1.00800           0
     28060 MEMB     210      POPC     C26      CTL2    -0.180000       12.0110           0
     28061 MEMB     210      POPC     H6R      HAL2     0.900000E-01   1.00800           0
     28062 MEMB     210      POPC     H6S      HAL2     0.900000E-01   1.00800           0
     28063 MEMB     210      POPC     C27      CTL2    -0.180000       12.0110           0
     28064 MEMB     210      POPC     H7R      HAL2     0.900000E-01   1.00800           0
     28065 MEMB     210      POPC     H7S      HAL2     0.900000E-01   1.00800           0
     28066 MEMB     210      POPC     C28      CTL2    -0.180000       12.0110           0
     28067 MEMB     210      POPC     H8R      HAL2     0.900000E-01   1.00800           0
     28068 MEMB     210      POPC     H8S      HAL2     0.900000E-01   1.00800           0
     28069 MEMB     210      POPC     C29      CEL1    -0.150000       12.0110           0
     28070 MEMB     210      POPC     H91      HEL1     0.150000       1.00800           0
     28071 MEMB     210      POPC     C210     CEL1    -0.150000       12.0110           0
     28072 MEMB     210      POPC     H101     HEL1     0.150000       1.00800           0
     28073 MEMB     210      POPC     C211     CTL2    -0.180000       12.0110           0
     28074 MEMB     210      POPC     H11R     HAL2     0.900000E-01   1.00800           0
     28075 MEMB     210      POPC     H11S     HAL2     0.900000E-01   1.00800           0
     28076 MEMB     210      POPC     C212     CTL2    -0.180000       12.0110           0
     28077 MEMB     210      POPC     H12R     HAL2     0.900000E-01   1.00800           0
     28078 MEMB     210      POPC     H12S     HAL2     0.900000E-01   1.00800           0
     28079 MEMB     210      POPC     C213     CTL2    -0.180000       12.0110           0
     28080 MEMB     210      POPC     H13R     HAL2     0.900000E-01   1.00800           0
     28081 MEMB     210      POPC     H13S     HAL2     0.900000E-01   1.00800           0
     28082 MEMB     210      POPC     C214     CTL2    -0.180000       12.0110           0
     28083 MEMB     210      POPC     H14R     HAL2     0.900000E-01   1.00800           0
     28084 MEMB     210      POPC     H14S     HAL2     0.900000E-01   1.00800           0
     28085 MEMB     210      POPC     C215     CTL2    -0.180000       12.0110           0
     28086 MEMB     210      POPC     H15R     HAL2     0.900000E-01   1.00800           0
     28087 MEMB     210      POPC     H15S     HAL2     0.900000E-01   1.00800           0
     28088 MEMB     210      POPC     C216     CTL2    -0.180000       12.0110           0
     28089 MEMB     210      POPC     H16R     HAL2     0.900000E-01   1.00800           0
     28090 MEMB     210      POPC     H16S     HAL2     0.900000E-01   1.00800           0
     28091 MEMB     210      POPC     C217     CTL2    -0.180000       12.0110           0
     28092 MEMB     210      POPC     H17R     HAL2     0.900000E-01   1.00800           0
     28093 MEMB     210      POPC     H17S     HAL2     0.900000E-01   1.00800           0
     28094 MEMB     210      POPC     C218     CTL3    -0.270000       12.0110           0
     28095 MEMB     210      POPC     H18R     HAL3     0.900000E-01   1.00800           0
     28096 MEMB     210      POPC     H18S     HAL3     0.900000E-01   1.00800           0
     28097 MEMB     210      POPC     H18T     HAL3     0.900000E-01   1.00800           0
     28098 MEMB     210      POPC     C33      CTL2    -0.180000       12.0110           0
     28099 MEMB     210      POPC     H3X      HAL2     0.900000E-01   1.00800           0
     28100 MEMB     210      POPC     H3Y      HAL2     0.900000E-01   1.00800           0
     28101 MEMB     210      POPC     C34      CTL2    -0.180000       12.0110           0
     28102 MEMB     210      POPC     H4X      HAL2     0.900000E-01   1.00800           0
     28103 MEMB     210      POPC     H4Y      HAL2     0.900000E-01   1.00800           0
     28104 MEMB     210      POPC     C35      CTL2    -0.180000       12.0110           0
     28105 MEMB     210      POPC     H5X      HAL2     0.900000E-01   1.00800           0
     28106 MEMB     210      POPC     H5Y      HAL2     0.900000E-01   1.00800           0
     28107 MEMB     210      POPC     C36      CTL2    -0.180000       12.0110           0
     28108 MEMB     210      POPC     H6X      HAL2     0.900000E-01   1.00800           0
     28109 MEMB     210      POPC     H6Y      HAL2     0.900000E-01   1.00800           0
     28110 MEMB     210      POPC     C37      CTL2    -0.180000       12.0110           0
     28111 MEMB     210      POPC     H7X      HAL2     0.900000E-01   1.00800           0
     28112 MEMB     210      POPC     H7Y      HAL2     0.900000E-01   1.00800           0
     28113 MEMB     210      POPC     C38      CTL2    -0.180000       12.0110           0
     28114 MEMB     210      POPC     H8X      HAL2     0.900000E-01   1.00800           0
     28115 MEMB     210      POPC     H8Y      HAL2     0.900000E-01   1.00800           0
     28116 MEMB     210      POPC     C39      CTL2    -0.180000       12.0110           0
     28117 MEMB     210      POPC     H9X      HAL2     0.900000E-01   1.00800           0
     28118 MEMB     210      POPC     H9Y      HAL2     0.900000E-01   1.00800           0
     28119 MEMB     210      POPC     C310     CTL2    -0.180000       12.0110           0
     28120 MEMB     210      POPC     H10X     HAL2     0.900000E-01   1.00800           0
     28121 MEMB     210      POPC     H10Y     HAL2     0.900000E-01   1.00800           0
     28122 MEMB     210      POPC     C311     CTL2    -0.180000       12.0110           0
     28123 MEMB     210      POPC     H11X     HAL2     0.900000E-01   1.00800           0
     28124 MEMB     210      POPC     H11Y     HAL2     0.900000E-01   1.00800           0
     28125 MEMB     210      POPC     C312     CTL2    -0.180000       12.0110           0
     28126 MEMB     210      POPC     H12X     HAL2     0.900000E-01   1.00800           0
     28127 MEMB     210      POPC     H12Y     HAL2     0.900000E-01   1.00800           0
     28128 MEMB     210      POPC     C313     CTL2    -0.180000       12.0110           0
     28129 MEMB     210      POPC     H13X     HAL2     0.900000E-01   1.00800           0
     28130 MEMB     210      POPC     H13Y     HAL2     0.900000E-01   1.00800           0
     28131 MEMB     210      POPC     C314     CTL2    -0.180000       12.0110           0
     28132 MEMB     210      POPC     H14X     HAL2     0.900000E-01   1.00800           0
     28133 MEMB     210      POPC     H14Y     HAL2     0.900000E-01   1.00800           0
     28134 MEMB     210      POPC     C315     CTL2    -0.180000       12.0110           0
     28135 MEMB     210      POPC     H15X     HAL2     0.900000E-01   1.00800           0
     28136 MEMB     210      POPC     H15Y     HAL2     0.900000E-01   1.00800           0
     28137 MEMB     210      POPC     C316     CTL3    -0.270000       12.0110           0
     28138 MEMB     210      POPC     H16X     HAL3     0.900000E-01   1.00800           0
     28139 MEMB     210      POPC     H16Y     HAL3     0.900000E-01   1.00800           0
     28140 MEMB     210      POPC     H16Z     HAL3     0.900000E-01   1.00800           0
     28141 MEMB     211      POPC     N        NTL     -0.600000       14.0070           0
     28142 MEMB     211      POPC     C12      CTL2    -0.100000       12.0110           0
     28143 MEMB     211      POPC     H12A     HL       0.250000       1.00800           0
     28144 MEMB     211      POPC     H12B     HL       0.250000       1.00800           0
     28145 MEMB     211      POPC     C13      CTL5    -0.350000       12.0110           0
     28146 MEMB     211      POPC     H13A     HL       0.250000       1.00800           0
     28147 MEMB     211      POPC     H13B     HL       0.250000       1.00800           0
     28148 MEMB     211      POPC     H13C     HL       0.250000       1.00800           0
     28149 MEMB     211      POPC     C14      CTL5    -0.350000       12.0110           0
     28150 MEMB     211      POPC     H14A     HL       0.250000       1.00800           0
     28151 MEMB     211      POPC     H14B     HL       0.250000       1.00800           0
     28152 MEMB     211      POPC     H14C     HL       0.250000       1.00800           0
     28153 MEMB     211      POPC     C15      CTL5    -0.350000       12.0110           0
     28154 MEMB     211      POPC     H15A     HL       0.250000       1.00800           0
     28155 MEMB     211      POPC     H15B     HL       0.250000       1.00800           0
     28156 MEMB     211      POPC     H15C     HL       0.250000       1.00800           0
     28157 MEMB     211      POPC     C11      CTL2    -0.800000E-01   12.0110           0
     28158 MEMB     211      POPC     H11A     HAL2     0.900000E-01   1.00800           0
     28159 MEMB     211      POPC     H11B     HAL2     0.900000E-01   1.00800           0
     28160 MEMB     211      POPC     P        PL       1.50000        30.9740           0
     28161 MEMB     211      POPC     O13      O2L     -0.780000       15.9994           0
     28162 MEMB     211      POPC     O14      O2L     -0.780000       15.9994           0
     28163 MEMB     211      POPC     O12      OSLP    -0.570000       15.9994           0
     28164 MEMB     211      POPC     O11      OSLP    -0.570000       15.9994           0
     28165 MEMB     211      POPC     C1       CTL2    -0.800000E-01   12.0110           0
     28166 MEMB     211      POPC     HA       HAL2     0.900000E-01   1.00800           0
     28167 MEMB     211      POPC     HB       HAL2     0.900000E-01   1.00800           0
     28168 MEMB     211      POPC     C2       CTL1     0.170000       12.0110           0
     28169 MEMB     211      POPC     HS       HAL1     0.900000E-01   1.00800           0
     28170 MEMB     211      POPC     O21      OSL     -0.490000       15.9994           0
     28171 MEMB     211      POPC     C21      CL       0.900000       12.0110           0
     28172 MEMB     211      POPC     O22      OBL     -0.630000       15.9994           0
     28173 MEMB     211      POPC     C22      CTL2    -0.220000       12.0110           0
     28174 MEMB     211      POPC     H2R      HAL2     0.900000E-01   1.00800           0
     28175 MEMB     211      POPC     H2S      HAL2     0.900000E-01   1.00800           0
     28176 MEMB     211      POPC     C3       CTL2     0.800000E-01   12.0110           0
     28177 MEMB     211      POPC     HX       HAL2     0.900000E-01   1.00800           0
     28178 MEMB     211      POPC     HY       HAL2     0.900000E-01   1.00800           0
     28179 MEMB     211      POPC     O31      OSL     -0.490000       15.9994           0
     28180 MEMB     211      POPC     C31      CL       0.900000       12.0110           0
     28181 MEMB     211      POPC     O32      OBL     -0.630000       15.9994           0
     28182 MEMB     211      POPC     C32      CTL2    -0.220000       12.0110           0
     28183 MEMB     211      POPC     H2X      HAL2     0.900000E-01   1.00800           0
     28184 MEMB     211      POPC     H2Y      HAL2     0.900000E-01   1.00800           0
     28185 MEMB     211      POPC     C23      CTL2    -0.180000       12.0110           0
     28186 MEMB     211      POPC     H3R      HAL2     0.900000E-01   1.00800           0
     28187 MEMB     211      POPC     H3S      HAL2     0.900000E-01   1.00800           0
     28188 MEMB     211      POPC     C24      CTL2    -0.180000       12.0110           0
     28189 MEMB     211      POPC     H4R      HAL2     0.900000E-01   1.00800           0
     28190 MEMB     211      POPC     H4S      HAL2     0.900000E-01   1.00800           0
     28191 MEMB     211      POPC     C25      CTL2    -0.180000       12.0110           0
     28192 MEMB     211      POPC     H5R      HAL2     0.900000E-01   1.00800           0
     28193 MEMB     211      POPC     H5S      HAL2     0.900000E-01   1.00800           0
     28194 MEMB     211      POPC     C26      CTL2    -0.180000       12.0110           0
     28195 MEMB     211      POPC     H6R      HAL2     0.900000E-01   1.00800           0
     28196 MEMB     211      POPC     H6S      HAL2     0.900000E-01   1.00800           0
     28197 MEMB     211      POPC     C27      CTL2    -0.180000       12.0110           0
     28198 MEMB     211      POPC     H7R      HAL2     0.900000E-01   1.00800           0
     28199 MEMB     211      POPC     H7S      HAL2     0.900000E-01   1.00800           0
     28200 MEMB     211      POPC     C28      CTL2    -0.180000       12.0110           0
     28201 MEMB     211      POPC     H8R      HAL2     0.900000E-01   1.00800           0
     28202 MEMB     211      POPC     H8S      HAL2     0.900000E-01   1.00800           0
     28203 MEMB     211      POPC     C29      CEL1    -0.150000       12.0110           0
     28204 MEMB     211      POPC     H91      HEL1     0.150000       1.00800           0
     28205 MEMB     211      POPC     C210     CEL1    -0.150000       12.0110           0
     28206 MEMB     211      POPC     H101     HEL1     0.150000       1.00800           0
     28207 MEMB     211      POPC     C211     CTL2    -0.180000       12.0110           0
     28208 MEMB     211      POPC     H11R     HAL2     0.900000E-01   1.00800           0
     28209 MEMB     211      POPC     H11S     HAL2     0.900000E-01   1.00800           0
     28210 MEMB     211      POPC     C212     CTL2    -0.180000       12.0110           0
     28211 MEMB     211      POPC     H12R     HAL2     0.900000E-01   1.00800           0
     28212 MEMB     211      POPC     H12S     HAL2     0.900000E-01   1.00800           0
     28213 MEMB     211      POPC     C213     CTL2    -0.180000       12.0110           0
     28214 MEMB     211      POPC     H13R     HAL2     0.900000E-01   1.00800           0
     28215 MEMB     211      POPC     H13S     HAL2     0.900000E-01   1.00800           0
     28216 MEMB     211      POPC     C214     CTL2    -0.180000       12.0110           0
     28217 MEMB     211      POPC     H14R     HAL2     0.900000E-01   1.00800           0
     28218 MEMB     211      POPC     H14S     HAL2     0.900000E-01   1.00800           0
     28219 MEMB     211      POPC     C215     CTL2    -0.180000       12.0110           0
     28220 MEMB     211      POPC     H15R     HAL2     0.900000E-01   1.00800           0
     28221 MEMB     211      POPC     H15S     HAL2     0.900000E-01   1.00800           0
     28222 MEMB     211      POPC     C216     CTL2    -0.180000       12.0110           0
     28223 MEMB     211      POPC     H16R     HAL2     0.900000E-01   1.00800           0
     28224 MEMB     211      POPC     H16S     HAL2     0.900000E-01   1.00800           0
     28225 MEMB     211      POPC     C217     CTL2    -0.180000       12.0110           0
     28226 MEMB     211      POPC     H17R     HAL2     0.900000E-01   1.00800           0
     28227 MEMB     211      POPC     H17S     HAL2     0.900000E-01   1.00800           0
     28228 MEMB     211      POPC     C218     CTL3    -0.270000       12.0110           0
     28229 MEMB     211      POPC     H18R     HAL3     0.900000E-01   1.00800           0
     28230 MEMB     211      POPC     H18S     HAL3     0.900000E-01   1.00800           0
     28231 MEMB     211      POPC     H18T     HAL3     0.900000E-01   1.00800           0
     28232 MEMB     211      POPC     C33      CTL2    -0.180000       12.0110           0
     28233 MEMB     211      POPC     H3X      HAL2     0.900000E-01   1.00800           0
     28234 MEMB     211      POPC     H3Y      HAL2     0.900000E-01   1.00800           0
     28235 MEMB     211      POPC     C34      CTL2    -0.180000       12.0110           0
     28236 MEMB     211      POPC     H4X      HAL2     0.900000E-01   1.00800           0
     28237 MEMB     211      POPC     H4Y      HAL2     0.900000E-01   1.00800           0
     28238 MEMB     211      POPC     C35      CTL2    -0.180000       12.0110           0
     28239 MEMB     211      POPC     H5X      HAL2     0.900000E-01   1.00800           0
     28240 MEMB     211      POPC     H5Y      HAL2     0.900000E-01   1.00800           0
     28241 MEMB     211      POPC     C36      CTL2    -0.180000       12.0110           0
     28242 MEMB     211      POPC     H6X      HAL2     0.900000E-01   1.00800           0
     28243 MEMB     211      POPC     H6Y      HAL2     0.900000E-01   1.00800           0
     28244 MEMB     211      POPC     C37      CTL2    -0.180000       12.0110           0
     28245 MEMB     211      POPC     H7X      HAL2     0.900000E-01   1.00800           0
     28246 MEMB     211      POPC     H7Y      HAL2     0.900000E-01   1.00800           0
     28247 MEMB     211      POPC     C38      CTL2    -0.180000       12.0110           0
     28248 MEMB     211      POPC     H8X      HAL2     0.900000E-01   1.00800           0
     28249 MEMB     211      POPC     H8Y      HAL2     0.900000E-01   1.00800           0
     28250 MEMB     211      POPC     C39      CTL2    -0.180000       12.0110           0
     28251 MEMB     211      POPC     H9X      HAL2     0.900000E-01   1.00800           0
     28252 MEMB     211      POPC     H9Y      HAL2     0.900000E-01   1.00800           0
     28253 MEMB     211      POPC     C310     CTL2    -0.180000       12.0110           0
     28254 MEMB     211      POPC     H10X     HAL2     0.900000E-01   1.00800           0
     28255 MEMB     211      POPC     H10Y     HAL2     0.900000E-01   1.00800           0
     28256 MEMB     211      POPC     C311     CTL2    -0.180000       12.0110           0
     28257 MEMB     211      POPC     H11X     HAL2     0.900000E-01   1.00800           0
     28258 MEMB     211      POPC     H11Y     HAL2     0.900000E-01   1.00800           0
     28259 MEMB     211      POPC     C312     CTL2    -0.180000       12.0110           0
     28260 MEMB     211      POPC     H12X     HAL2     0.900000E-01   1.00800           0
     28261 MEMB     211      POPC     H12Y     HAL2     0.900000E-01   1.00800           0
     28262 MEMB     211      POPC     C313     CTL2    -0.180000       12.0110           0
     28263 MEMB     211      POPC     H13X     HAL2     0.900000E-01   1.00800           0
     28264 MEMB     211      POPC     H13Y     HAL2     0.900000E-01   1.00800           0
     28265 MEMB     211      POPC     C314     CTL2    -0.180000       12.0110           0
     28266 MEMB     211      POPC     H14X     HAL2     0.900000E-01   1.00800           0
     28267 MEMB     211      POPC     H14Y     HAL2     0.900000E-01   1.00800           0
     28268 MEMB     211      POPC     C315     CTL2    -0.180000       12.0110           0
     28269 MEMB     211      POPC     H15X     HAL2     0.900000E-01   1.00800           0
     28270 MEMB     211      POPC     H15Y     HAL2     0.900000E-01   1.00800           0
     28271 MEMB     211      POPC     C316     CTL3    -0.270000       12.0110           0
     28272 MEMB     211      POPC     H16X     HAL3     0.900000E-01   1.00800           0
     28273 MEMB     211      POPC     H16Y     HAL3     0.900000E-01   1.00800           0
     28274 MEMB     211      POPC     H16Z     HAL3     0.900000E-01   1.00800           0
     28275 MEMB     212      POPC     N        NTL     -0.600000       14.0070           0
     28276 MEMB     212      POPC     C12      CTL2    -0.100000       12.0110           0
     28277 MEMB     212      POPC     H12A     HL       0.250000       1.00800           0
     28278 MEMB     212      POPC     H12B     HL       0.250000       1.00800           0
     28279 MEMB     212      POPC     C13      CTL5    -0.350000       12.0110           0
     28280 MEMB     212      POPC     H13A     HL       0.250000       1.00800           0
     28281 MEMB     212      POPC     H13B     HL       0.250000       1.00800           0
     28282 MEMB     212      POPC     H13C     HL       0.250000       1.00800           0
     28283 MEMB     212      POPC     C14      CTL5    -0.350000       12.0110           0
     28284 MEMB     212      POPC     H14A     HL       0.250000       1.00800           0
     28285 MEMB     212      POPC     H14B     HL       0.250000       1.00800           0
     28286 MEMB     212      POPC     H14C     HL       0.250000       1.00800           0
     28287 MEMB     212      POPC     C15      CTL5    -0.350000       12.0110           0
     28288 MEMB     212      POPC     H15A     HL       0.250000       1.00800           0
     28289 MEMB     212      POPC     H15B     HL       0.250000       1.00800           0
     28290 MEMB     212      POPC     H15C     HL       0.250000       1.00800           0
     28291 MEMB     212      POPC     C11      CTL2    -0.800000E-01   12.0110           0
     28292 MEMB     212      POPC     H11A     HAL2     0.900000E-01   1.00800           0
     28293 MEMB     212      POPC     H11B     HAL2     0.900000E-01   1.00800           0
     28294 MEMB     212      POPC     P        PL       1.50000        30.9740           0
     28295 MEMB     212      POPC     O13      O2L     -0.780000       15.9994           0
     28296 MEMB     212      POPC     O14      O2L     -0.780000       15.9994           0
     28297 MEMB     212      POPC     O12      OSLP    -0.570000       15.9994           0
     28298 MEMB     212      POPC     O11      OSLP    -0.570000       15.9994           0
     28299 MEMB     212      POPC     C1       CTL2    -0.800000E-01   12.0110           0
     28300 MEMB     212      POPC     HA       HAL2     0.900000E-01   1.00800           0
     28301 MEMB     212      POPC     HB       HAL2     0.900000E-01   1.00800           0
     28302 MEMB     212      POPC     C2       CTL1     0.170000       12.0110           0
     28303 MEMB     212      POPC     HS       HAL1     0.900000E-01   1.00800           0
     28304 MEMB     212      POPC     O21      OSL     -0.490000       15.9994           0
     28305 MEMB     212      POPC     C21      CL       0.900000       12.0110           0
     28306 MEMB     212      POPC     O22      OBL     -0.630000       15.9994           0
     28307 MEMB     212      POPC     C22      CTL2    -0.220000       12.0110           0
     28308 MEMB     212      POPC     H2R      HAL2     0.900000E-01   1.00800           0
     28309 MEMB     212      POPC     H2S      HAL2     0.900000E-01   1.00800           0
     28310 MEMB     212      POPC     C3       CTL2     0.800000E-01   12.0110           0
     28311 MEMB     212      POPC     HX       HAL2     0.900000E-01   1.00800           0
     28312 MEMB     212      POPC     HY       HAL2     0.900000E-01   1.00800           0
     28313 MEMB     212      POPC     O31      OSL     -0.490000       15.9994           0
     28314 MEMB     212      POPC     C31      CL       0.900000       12.0110           0
     28315 MEMB     212      POPC     O32      OBL     -0.630000       15.9994           0
     28316 MEMB     212      POPC     C32      CTL2    -0.220000       12.0110           0
     28317 MEMB     212      POPC     H2X      HAL2     0.900000E-01   1.00800           0
     28318 MEMB     212      POPC     H2Y      HAL2     0.900000E-01   1.00800           0
     28319 MEMB     212      POPC     C23      CTL2    -0.180000       12.0110           0
     28320 MEMB     212      POPC     H3R      HAL2     0.900000E-01   1.00800           0
     28321 MEMB     212      POPC     H3S      HAL2     0.900000E-01   1.00800           0
     28322 MEMB     212      POPC     C24      CTL2    -0.180000       12.0110           0
     28323 MEMB     212      POPC     H4R      HAL2     0.900000E-01   1.00800           0
     28324 MEMB     212      POPC     H4S      HAL2     0.900000E-01   1.00800           0
     28325 MEMB     212      POPC     C25      CTL2    -0.180000       12.0110           0
     28326 MEMB     212      POPC     H5R      HAL2     0.900000E-01   1.00800           0
     28327 MEMB     212      POPC     H5S      HAL2     0.900000E-01   1.00800           0
     28328 MEMB     212      POPC     C26      CTL2    -0.180000       12.0110           0
     28329 MEMB     212      POPC     H6R      HAL2     0.900000E-01   1.00800           0
     28330 MEMB     212      POPC     H6S      HAL2     0.900000E-01   1.00800           0
     28331 MEMB     212      POPC     C27      CTL2    -0.180000       12.0110           0
     28332 MEMB     212      POPC     H7R      HAL2     0.900000E-01   1.00800           0
     28333 MEMB     212      POPC     H7S      HAL2     0.900000E-01   1.00800           0
     28334 MEMB     212      POPC     C28      CTL2    -0.180000       12.0110           0
     28335 MEMB     212      POPC     H8R      HAL2     0.900000E-01   1.00800           0
     28336 MEMB     212      POPC     H8S      HAL2     0.900000E-01   1.00800           0
     28337 MEMB     212      POPC     C29      CEL1    -0.150000       12.0110           0
     28338 MEMB     212      POPC     H91      HEL1     0.150000       1.00800           0
     28339 MEMB     212      POPC     C210     CEL1    -0.150000       12.0110           0
     28340 MEMB     212      POPC     H101     HEL1     0.150000       1.00800           0
     28341 MEMB     212      POPC     C211     CTL2    -0.180000       12.0110           0
     28342 MEMB     212      POPC     H11R     HAL2     0.900000E-01   1.00800           0
     28343 MEMB     212      POPC     H11S     HAL2     0.900000E-01   1.00800           0
     28344 MEMB     212      POPC     C212     CTL2    -0.180000       12.0110           0
     28345 MEMB     212      POPC     H12R     HAL2     0.900000E-01   1.00800           0
     28346 MEMB     212      POPC     H12S     HAL2     0.900000E-01   1.00800           0
     28347 MEMB     212      POPC     C213     CTL2    -0.180000       12.0110           0
     28348 MEMB     212      POPC     H13R     HAL2     0.900000E-01   1.00800           0
     28349 MEMB     212      POPC     H13S     HAL2     0.900000E-01   1.00800           0
     28350 MEMB     212      POPC     C214     CTL2    -0.180000       12.0110           0
     28351 MEMB     212      POPC     H14R     HAL2     0.900000E-01   1.00800           0
     28352 MEMB     212      POPC     H14S     HAL2     0.900000E-01   1.00800           0
     28353 MEMB     212      POPC     C215     CTL2    -0.180000       12.0110           0
     28354 MEMB     212      POPC     H15R     HAL2     0.900000E-01   1.00800           0
     28355 MEMB     212      POPC     H15S     HAL2     0.900000E-01   1.00800           0
     28356 MEMB     212      POPC     C216     CTL2    -0.180000       12.0110           0
     28357 MEMB     212      POPC     H16R     HAL2     0.900000E-01   1.00800           0
     28358 MEMB     212      POPC     H16S     HAL2     0.900000E-01   1.00800           0
     28359 MEMB     212      POPC     C217     CTL2    -0.180000       12.0110           0
     28360 MEMB     212      POPC     H17R     HAL2     0.900000E-01   1.00800           0
     28361 MEMB     212      POPC     H17S     HAL2     0.900000E-01   1.00800           0
     28362 MEMB     212      POPC     C218     CTL3    -0.270000       12.0110           0
     28363 MEMB     212      POPC     H18R     HAL3     0.900000E-01   1.00800           0
     28364 MEMB     212      POPC     H18S     HAL3     0.900000E-01   1.00800           0
     28365 MEMB     212      POPC     H18T     HAL3     0.900000E-01   1.00800           0
     28366 MEMB     212      POPC     C33      CTL2    -0.180000       12.0110           0
     28367 MEMB     212      POPC     H3X      HAL2     0.900000E-01   1.00800           0
     28368 MEMB     212      POPC     H3Y      HAL2     0.900000E-01   1.00800           0
     28369 MEMB     212      POPC     C34      CTL2    -0.180000       12.0110           0
     28370 MEMB     212      POPC     H4X      HAL2     0.900000E-01   1.00800           0
     28371 MEMB     212      POPC     H4Y      HAL2     0.900000E-01   1.00800           0
     28372 MEMB     212      POPC     C35      CTL2    -0.180000       12.0110           0
     28373 MEMB     212      POPC     H5X      HAL2     0.900000E-01   1.00800           0
     28374 MEMB     212      POPC     H5Y      HAL2     0.900000E-01   1.00800           0
     28375 MEMB     212      POPC     C36      CTL2    -0.180000       12.0110           0
     28376 MEMB     212      POPC     H6X      HAL2     0.900000E-01   1.00800           0
     28377 MEMB     212      POPC     H6Y      HAL2     0.900000E-01   1.00800           0
     28378 MEMB     212      POPC     C37      CTL2    -0.180000       12.0110           0
     28379 MEMB     212      POPC     H7X      HAL2     0.900000E-01   1.00800           0
     28380 MEMB     212      POPC     H7Y      HAL2     0.900000E-01   1.00800           0
     28381 MEMB     212      POPC     C38      CTL2    -0.180000       12.0110           0
     28382 MEMB     212      POPC     H8X      HAL2     0.900000E-01   1.00800           0
     28383 MEMB     212      POPC     H8Y      HAL2     0.900000E-01   1.00800           0
     28384 MEMB     212      POPC     C39      CTL2    -0.180000       12.0110           0
     28385 MEMB     212      POPC     H9X      HAL2     0.900000E-01   1.00800           0
     28386 MEMB     212      POPC     H9Y      HAL2     0.900000E-01   1.00800           0
     28387 MEMB     212      POPC     C310     CTL2    -0.180000       12.0110           0
     28388 MEMB     212      POPC     H10X     HAL2     0.900000E-01   1.00800           0
     28389 MEMB     212      POPC     H10Y     HAL2     0.900000E-01   1.00800           0
     28390 MEMB     212      POPC     C311     CTL2    -0.180000       12.0110           0
     28391 MEMB     212      POPC     H11X     HAL2     0.900000E-01   1.00800           0
     28392 MEMB     212      POPC     H11Y     HAL2     0.900000E-01   1.00800           0
     28393 MEMB     212      POPC     C312     CTL2    -0.180000       12.0110           0
     28394 MEMB     212      POPC     H12X     HAL2     0.900000E-01   1.00800           0
     28395 MEMB     212      POPC     H12Y     HAL2     0.900000E-01   1.00800           0
     28396 MEMB     212      POPC     C313     CTL2    -0.180000       12.0110           0
     28397 MEMB     212      POPC     H13X     HAL2     0.900000E-01   1.00800           0
     28398 MEMB     212      POPC     H13Y     HAL2     0.900000E-01   1.00800           0
     28399 MEMB     212      POPC     C314     CTL2    -0.180000       12.0110           0
     28400 MEMB     212      POPC     H14X     HAL2     0.900000E-01   1.00800           0
     28401 MEMB     212      POPC     H14Y     HAL2     0.900000E-01   1.00800           0
     28402 MEMB     212      POPC     C315     CTL2    -0.180000       12.0110           0
     28403 MEMB     212      POPC     H15X     HAL2     0.900000E-01   1.00800           0
     28404 MEMB     212      POPC     H15Y     HAL2     0.900000E-01   1.00800           0
     28405 MEMB     212      POPC     C316     CTL3    -0.270000       12.0110           0
     28406 MEMB     212      POPC     H16X     HAL3     0.900000E-01   1.00800           0
     28407 MEMB     212      POPC     H16Y     HAL3     0.900000E-01   1.00800           0
     28408 MEMB     212      POPC     H16Z     HAL3     0.900000E-01   1.00800           0
     28409 MEMB     213      POPC     N        NTL     -0.600000       14.0070           0
     28410 MEMB     213      POPC     C12      CTL2    -0.100000       12.0110           0
     28411 MEMB     213      POPC     H12A     HL       0.250000       1.00800           0
     28412 MEMB     213      POPC     H12B     HL       0.250000       1.00800           0
     28413 MEMB     213      POPC     C13      CTL5    -0.350000       12.0110           0
     28414 MEMB     213      POPC     H13A     HL       0.250000       1.00800           0
     28415 MEMB     213      POPC     H13B     HL       0.250000       1.00800           0
     28416 MEMB     213      POPC     H13C     HL       0.250000       1.00800           0
     28417 MEMB     213      POPC     C14      CTL5    -0.350000       12.0110           0
     28418 MEMB     213      POPC     H14A     HL       0.250000       1.00800           0
     28419 MEMB     213      POPC     H14B     HL       0.250000       1.00800           0
     28420 MEMB     213      POPC     H14C     HL       0.250000       1.00800           0
     28421 MEMB     213      POPC     C15      CTL5    -0.350000       12.0110           0
     28422 MEMB     213      POPC     H15A     HL       0.250000       1.00800           0
     28423 MEMB     213      POPC     H15B     HL       0.250000       1.00800           0
     28424 MEMB     213      POPC     H15C     HL       0.250000       1.00800           0
     28425 MEMB     213      POPC     C11      CTL2    -0.800000E-01   12.0110           0
     28426 MEMB     213      POPC     H11A     HAL2     0.900000E-01   1.00800           0
     28427 MEMB     213      POPC     H11B     HAL2     0.900000E-01   1.00800           0
     28428 MEMB     213      POPC     P        PL       1.50000        30.9740           0
     28429 MEMB     213      POPC     O13      O2L     -0.780000       15.9994           0
     28430 MEMB     213      POPC     O14      O2L     -0.780000       15.9994           0
     28431 MEMB     213      POPC     O12      OSLP    -0.570000       15.9994           0
     28432 MEMB     213      POPC     O11      OSLP    -0.570000       15.9994           0
     28433 MEMB     213      POPC     C1       CTL2    -0.800000E-01   12.0110           0
     28434 MEMB     213      POPC     HA       HAL2     0.900000E-01   1.00800           0
     28435 MEMB     213      POPC     HB       HAL2     0.900000E-01   1.00800           0
     28436 MEMB     213      POPC     C2       CTL1     0.170000       12.0110           0
     28437 MEMB     213      POPC     HS       HAL1     0.900000E-01   1.00800           0
     28438 MEMB     213      POPC     O21      OSL     -0.490000       15.9994           0
     28439 MEMB     213      POPC     C21      CL       0.900000       12.0110           0
     28440 MEMB     213      POPC     O22      OBL     -0.630000       15.9994           0
     28441 MEMB     213      POPC     C22      CTL2    -0.220000       12.0110           0
     28442 MEMB     213      POPC     H2R      HAL2     0.900000E-01   1.00800           0
     28443 MEMB     213      POPC     H2S      HAL2     0.900000E-01   1.00800           0
     28444 MEMB     213      POPC     C3       CTL2     0.800000E-01   12.0110           0
     28445 MEMB     213      POPC     HX       HAL2     0.900000E-01   1.00800           0
     28446 MEMB     213      POPC     HY       HAL2     0.900000E-01   1.00800           0
     28447 MEMB     213      POPC     O31      OSL     -0.490000       15.9994           0
     28448 MEMB     213      POPC     C31      CL       0.900000       12.0110           0
     28449 MEMB     213      POPC     O32      OBL     -0.630000       15.9994           0
     28450 MEMB     213      POPC     C32      CTL2    -0.220000       12.0110           0
     28451 MEMB     213      POPC     H2X      HAL2     0.900000E-01   1.00800           0
     28452 MEMB     213      POPC     H2Y      HAL2     0.900000E-01   1.00800           0
     28453 MEMB     213      POPC     C23      CTL2    -0.180000       12.0110           0
     28454 MEMB     213      POPC     H3R      HAL2     0.900000E-01   1.00800           0
     28455 MEMB     213      POPC     H3S      HAL2     0.900000E-01   1.00800           0
     28456 MEMB     213      POPC     C24      CTL2    -0.180000       12.0110           0
     28457 MEMB     213      POPC     H4R      HAL2     0.900000E-01   1.00800           0
     28458 MEMB     213      POPC     H4S      HAL2     0.900000E-01   1.00800           0
     28459 MEMB     213      POPC     C25      CTL2    -0.180000       12.0110           0
     28460 MEMB     213      POPC     H5R      HAL2     0.900000E-01   1.00800           0
     28461 MEMB     213      POPC     H5S      HAL2     0.900000E-01   1.00800           0
     28462 MEMB     213      POPC     C26      CTL2    -0.180000       12.0110           0
     28463 MEMB     213      POPC     H6R      HAL2     0.900000E-01   1.00800           0
     28464 MEMB     213      POPC     H6S      HAL2     0.900000E-01   1.00800           0
     28465 MEMB     213      POPC     C27      CTL2    -0.180000       12.0110           0
     28466 MEMB     213      POPC     H7R      HAL2     0.900000E-01   1.00800           0
     28467 MEMB     213      POPC     H7S      HAL2     0.900000E-01   1.00800           0
     28468 MEMB     213      POPC     C28      CTL2    -0.180000       12.0110           0
     28469 MEMB     213      POPC     H8R      HAL2     0.900000E-01   1.00800           0
     28470 MEMB     213      POPC     H8S      HAL2     0.900000E-01   1.00800           0
     28471 MEMB     213      POPC     C29      CEL1    -0.150000       12.0110           0
     28472 MEMB     213      POPC     H91      HEL1     0.150000       1.00800           0
     28473 MEMB     213      POPC     C210     CEL1    -0.150000       12.0110           0
     28474 MEMB     213      POPC     H101     HEL1     0.150000       1.00800           0
     28475 MEMB     213      POPC     C211     CTL2    -0.180000       12.0110           0
     28476 MEMB     213      POPC     H11R     HAL2     0.900000E-01   1.00800           0
     28477 MEMB     213      POPC     H11S     HAL2     0.900000E-01   1.00800           0
     28478 MEMB     213      POPC     C212     CTL2    -0.180000       12.0110           0
     28479 MEMB     213      POPC     H12R     HAL2     0.900000E-01   1.00800           0
     28480 MEMB     213      POPC     H12S     HAL2     0.900000E-01   1.00800           0
     28481 MEMB     213      POPC     C213     CTL2    -0.180000       12.0110           0
     28482 MEMB     213      POPC     H13R     HAL2     0.900000E-01   1.00800           0
     28483 MEMB     213      POPC     H13S     HAL2     0.900000E-01   1.00800           0
     28484 MEMB     213      POPC     C214     CTL2    -0.180000       12.0110           0
     28485 MEMB     213      POPC     H14R     HAL2     0.900000E-01   1.00800           0
     28486 MEMB     213      POPC     H14S     HAL2     0.900000E-01   1.00800           0
     28487 MEMB     213      POPC     C215     CTL2    -0.180000       12.0110           0
     28488 MEMB     213      POPC     H15R     HAL2     0.900000E-01   1.00800           0
     28489 MEMB     213      POPC     H15S     HAL2     0.900000E-01   1.00800           0
     28490 MEMB     213      POPC     C216     CTL2    -0.180000       12.0110           0
     28491 MEMB     213      POPC     H16R     HAL2     0.900000E-01   1.00800           0
     28492 MEMB     213      POPC     H16S     HAL2     0.900000E-01   1.00800           0
     28493 MEMB     213      POPC     C217     CTL2    -0.180000       12.0110           0
     28494 MEMB     213      POPC     H17R     HAL2     0.900000E-01   1.00800           0
     28495 MEMB     213      POPC     H17S     HAL2     0.900000E-01   1.00800           0
     28496 MEMB     213      POPC     C218     CTL3    -0.270000       12.0110           0
     28497 MEMB     213      POPC     H18R     HAL3     0.900000E-01   1.00800           0
     28498 MEMB     213      POPC     H18S     HAL3     0.900000E-01   1.00800           0
     28499 MEMB     213      POPC     H18T     HAL3     0.900000E-01   1.00800           0
     28500 MEMB     213      POPC     C33      CTL2    -0.180000       12.0110           0
     28501 MEMB     213      POPC     H3X      HAL2     0.900000E-01   1.00800           0
     28502 MEMB     213      POPC     H3Y      HAL2     0.900000E-01   1.00800           0
     28503 MEMB     213      POPC     C34      CTL2    -0.180000       12.0110           0
     28504 MEMB     213      POPC     H4X      HAL2     0.900000E-01   1.00800           0
     28505 MEMB     213      POPC     H4Y      HAL2     0.900000E-01   1.00800           0
     28506 MEMB     213      POPC     C35      CTL2    -0.180000       12.0110           0
     28507 MEMB     213      POPC     H5X      HAL2     0.900000E-01   1.00800           0
     28508 MEMB     213      POPC     H5Y      HAL2     0.900000E-01   1.00800           0
     28509 MEMB     213      POPC     C36      CTL2    -0.180000       12.0110           0
     28510 MEMB     213      POPC     H6X      HAL2     0.900000E-01   1.00800           0
     28511 MEMB     213      POPC     H6Y      HAL2     0.900000E-01   1.00800           0
     28512 MEMB     213      POPC     C37      CTL2    -0.180000       12.0110           0
     28513 MEMB     213      POPC     H7X      HAL2     0.900000E-01   1.00800           0
     28514 MEMB     213      POPC     H7Y      HAL2     0.900000E-01   1.00800           0
     28515 MEMB     213      POPC     C38      CTL2    -0.180000       12.0110           0
     28516 MEMB     213      POPC     H8X      HAL2     0.900000E-01   1.00800           0
     28517 MEMB     213      POPC     H8Y      HAL2     0.900000E-01   1.00800           0
     28518 MEMB     213      POPC     C39      CTL2    -0.180000       12.0110           0
     28519 MEMB     213      POPC     H9X      HAL2     0.900000E-01   1.00800           0
     28520 MEMB     213      POPC     H9Y      HAL2     0.900000E-01   1.00800           0
     28521 MEMB     213      POPC     C310     CTL2    -0.180000       12.0110           0
     28522 MEMB     213      POPC     H10X     HAL2     0.900000E-01   1.00800           0
     28523 MEMB     213      POPC     H10Y     HAL2     0.900000E-01   1.00800           0
     28524 MEMB     213      POPC     C311     CTL2    -0.180000       12.0110           0
     28525 MEMB     213      POPC     H11X     HAL2     0.900000E-01   1.00800           0
     28526 MEMB     213      POPC     H11Y     HAL2     0.900000E-01   1.00800           0
     28527 MEMB     213      POPC     C312     CTL2    -0.180000       12.0110           0
     28528 MEMB     213      POPC     H12X     HAL2     0.900000E-01   1.00800           0
     28529 MEMB     213      POPC     H12Y     HAL2     0.900000E-01   1.00800           0
     28530 MEMB     213      POPC     C313     CTL2    -0.180000       12.0110           0
     28531 MEMB     213      POPC     H13X     HAL2     0.900000E-01   1.00800           0
     28532 MEMB     213      POPC     H13Y     HAL2     0.900000E-01   1.00800           0
     28533 MEMB     213      POPC     C314     CTL2    -0.180000       12.0110           0
     28534 MEMB     213      POPC     H14X     HAL2     0.900000E-01   1.00800           0
     28535 MEMB     213      POPC     H14Y     HAL2     0.900000E-01   1.00800           0
     28536 MEMB     213      POPC     C315     CTL2    -0.180000       12.0110           0
     28537 MEMB     213      POPC     H15X     HAL2     0.900000E-01   1.00800           0
     28538 MEMB     213      POPC     H15Y     HAL2     0.900000E-01   1.00800           0
     28539 MEMB     213      POPC     C316     CTL3    -0.270000       12.0110           0
     28540 MEMB     213      POPC     H16X     HAL3     0.900000E-01   1.00800           0
     28541 MEMB     213      POPC     H16Y     HAL3     0.900000E-01   1.00800           0
     28542 MEMB     213      POPC     H16Z     HAL3     0.900000E-01   1.00800           0
     28543 MEMB     214      POPC     N        NTL     -0.600000       14.0070           0
     28544 MEMB     214      POPC     C12      CTL2    -0.100000       12.0110           0
     28545 MEMB     214      POPC     H12A     HL       0.250000       1.00800           0
     28546 MEMB     214      POPC     H12B     HL       0.250000       1.00800           0
     28547 MEMB     214      POPC     C13      CTL5    -0.350000       12.0110           0
     28548 MEMB     214      POPC     H13A     HL       0.250000       1.00800           0
     28549 MEMB     214      POPC     H13B     HL       0.250000       1.00800           0
     28550 MEMB     214      POPC     H13C     HL       0.250000       1.00800           0
     28551 MEMB     214      POPC     C14      CTL5    -0.350000       12.0110           0
     28552 MEMB     214      POPC     H14A     HL       0.250000       1.00800           0
     28553 MEMB     214      POPC     H14B     HL       0.250000       1.00800           0
     28554 MEMB     214      POPC     H14C     HL       0.250000       1.00800           0
     28555 MEMB     214      POPC     C15      CTL5    -0.350000       12.0110           0
     28556 MEMB     214      POPC     H15A     HL       0.250000       1.00800           0
     28557 MEMB     214      POPC     H15B     HL       0.250000       1.00800           0
     28558 MEMB     214      POPC     H15C     HL       0.250000       1.00800           0
     28559 MEMB     214      POPC     C11      CTL2    -0.800000E-01   12.0110           0
     28560 MEMB     214      POPC     H11A     HAL2     0.900000E-01   1.00800           0
     28561 MEMB     214      POPC     H11B     HAL2     0.900000E-01   1.00800           0
     28562 MEMB     214      POPC     P        PL       1.50000        30.9740           0
     28563 MEMB     214      POPC     O13      O2L     -0.780000       15.9994           0
     28564 MEMB     214      POPC     O14      O2L     -0.780000       15.9994           0
     28565 MEMB     214      POPC     O12      OSLP    -0.570000       15.9994           0
     28566 MEMB     214      POPC     O11      OSLP    -0.570000       15.9994           0
     28567 MEMB     214      POPC     C1       CTL2    -0.800000E-01   12.0110           0
     28568 MEMB     214      POPC     HA       HAL2     0.900000E-01   1.00800           0
     28569 MEMB     214      POPC     HB       HAL2     0.900000E-01   1.00800           0
     28570 MEMB     214      POPC     C2       CTL1     0.170000       12.0110           0
     28571 MEMB     214      POPC     HS       HAL1     0.900000E-01   1.00800           0
     28572 MEMB     214      POPC     O21      OSL     -0.490000       15.9994           0
     28573 MEMB     214      POPC     C21      CL       0.900000       12.0110           0
     28574 MEMB     214      POPC     O22      OBL     -0.630000       15.9994           0
     28575 MEMB     214      POPC     C22      CTL2    -0.220000       12.0110           0
     28576 MEMB     214      POPC     H2R      HAL2     0.900000E-01   1.00800           0
     28577 MEMB     214      POPC     H2S      HAL2     0.900000E-01   1.00800           0
     28578 MEMB     214      POPC     C3       CTL2     0.800000E-01   12.0110           0
     28579 MEMB     214      POPC     HX       HAL2     0.900000E-01   1.00800           0
     28580 MEMB     214      POPC     HY       HAL2     0.900000E-01   1.00800           0
     28581 MEMB     214      POPC     O31      OSL     -0.490000       15.9994           0
     28582 MEMB     214      POPC     C31      CL       0.900000       12.0110           0
     28583 MEMB     214      POPC     O32      OBL     -0.630000       15.9994           0
     28584 MEMB     214      POPC     C32      CTL2    -0.220000       12.0110           0
     28585 MEMB     214      POPC     H2X      HAL2     0.900000E-01   1.00800           0
     28586 MEMB     214      POPC     H2Y      HAL2     0.900000E-01   1.00800           0
     28587 MEMB     214      POPC     C23      CTL2    -0.180000       12.0110           0
     28588 MEMB     214      POPC     H3R      HAL2     0.900000E-01   1.00800           0
     28589 MEMB     214      POPC     H3S      HAL2     0.900000E-01   1.00800           0
     28590 MEMB     214      POPC     C24      CTL2    -0.180000       12.0110           0
     28591 MEMB     214      POPC     H4R      HAL2     0.900000E-01   1.00800           0
     28592 MEMB     214      POPC     H4S      HAL2     0.900000E-01   1.00800           0
     28593 MEMB     214      POPC     C25      CTL2    -0.180000       12.0110           0
     28594 MEMB     214      POPC     H5R      HAL2     0.900000E-01   1.00800           0
     28595 MEMB     214      POPC     H5S      HAL2     0.900000E-01   1.00800           0
     28596 MEMB     214      POPC     C26      CTL2    -0.180000       12.0110           0
     28597 MEMB     214      POPC     H6R      HAL2     0.900000E-01   1.00800           0
     28598 MEMB     214      POPC     H6S      HAL2     0.900000E-01   1.00800           0
     28599 MEMB     214      POPC     C27      CTL2    -0.180000       12.0110           0
     28600 MEMB     214      POPC     H7R      HAL2     0.900000E-01   1.00800           0
     28601 MEMB     214      POPC     H7S      HAL2     0.900000E-01   1.00800           0
     28602 MEMB     214      POPC     C28      CTL2    -0.180000       12.0110           0
     28603 MEMB     214      POPC     H8R      HAL2     0.900000E-01   1.00800           0
     28604 MEMB     214      POPC     H8S      HAL2     0.900000E-01   1.00800           0
     28605 MEMB     214      POPC     C29      CEL1    -0.150000       12.0110           0
     28606 MEMB     214      POPC     H91      HEL1     0.150000       1.00800           0
     28607 MEMB     214      POPC     C210     CEL1    -0.150000       12.0110           0
     28608 MEMB     214      POPC     H101     HEL1     0.150000       1.00800           0
     28609 MEMB     214      POPC     C211     CTL2    -0.180000       12.0110           0
     28610 MEMB     214      POPC     H11R     HAL2     0.900000E-01   1.00800           0
     28611 MEMB     214      POPC     H11S     HAL2     0.900000E-01   1.00800           0
     28612 MEMB     214      POPC     C212     CTL2    -0.180000       12.0110           0
     28613 MEMB     214      POPC     H12R     HAL2     0.900000E-01   1.00800           0
     28614 MEMB     214      POPC     H12S     HAL2     0.900000E-01   1.00800           0
     28615 MEMB     214      POPC     C213     CTL2    -0.180000       12.0110           0
     28616 MEMB     214      POPC     H13R     HAL2     0.900000E-01   1.00800           0
     28617 MEMB     214      POPC     H13S     HAL2     0.900000E-01   1.00800           0
     28618 MEMB     214      POPC     C214     CTL2    -0.180000       12.0110           0
     28619 MEMB     214      POPC     H14R     HAL2     0.900000E-01   1.00800           0
     28620 MEMB     214      POPC     H14S     HAL2     0.900000E-01   1.00800           0
     28621 MEMB     214      POPC     C215     CTL2    -0.180000       12.0110           0
     28622 MEMB     214      POPC     H15R     HAL2     0.900000E-01   1.00800           0
     28623 MEMB     214      POPC     H15S     HAL2     0.900000E-01   1.00800           0
     28624 MEMB     214      POPC     C216     CTL2    -0.180000       12.0110           0
     28625 MEMB     214      POPC     H16R     HAL2     0.900000E-01   1.00800           0
     28626 MEMB     214      POPC     H16S     HAL2     0.900000E-01   1.00800           0
     28627 MEMB     214      POPC     C217     CTL2    -0.180000       12.0110           0
     28628 MEMB     214      POPC     H17R     HAL2     0.900000E-01   1.00800           0
     28629 MEMB     214      POPC     H17S     HAL2     0.900000E-01   1.00800           0
     28630 MEMB     214      POPC     C218     CTL3    -0.270000       12.0110           0
     28631 MEMB     214      POPC     H18R     HAL3     0.900000E-01   1.00800           0
     28632 MEMB     214      POPC     H18S     HAL3     0.900000E-01   1.00800           0
     28633 MEMB     214      POPC     H18T     HAL3     0.900000E-01   1.00800           0
     28634 MEMB     214      POPC     C33      CTL2    -0.180000       12.0110           0
     28635 MEMB     214      POPC     H3X      HAL2     0.900000E-01   1.00800           0
     28636 MEMB     214      POPC     H3Y      HAL2     0.900000E-01   1.00800           0
     28637 MEMB     214      POPC     C34      CTL2    -0.180000       12.0110           0
     28638 MEMB     214      POPC     H4X      HAL2     0.900000E-01   1.00800           0
     28639 MEMB     214      POPC     H4Y      HAL2     0.900000E-01   1.00800           0
     28640 MEMB     214      POPC     C35      CTL2    -0.180000       12.0110           0
     28641 MEMB     214      POPC     H5X      HAL2     0.900000E-01   1.00800           0
     28642 MEMB     214      POPC     H5Y      HAL2     0.900000E-01   1.00800           0
     28643 MEMB     214      POPC     C36      CTL2    -0.180000       12.0110           0
     28644 MEMB     214      POPC     H6X      HAL2     0.900000E-01   1.00800           0
     28645 MEMB     214      POPC     H6Y      HAL2     0.900000E-01   1.00800           0
     28646 MEMB     214      POPC     C37      CTL2    -0.180000       12.0110           0
     28647 MEMB     214      POPC     H7X      HAL2     0.900000E-01   1.00800           0
     28648 MEMB     214      POPC     H7Y      HAL2     0.900000E-01   1.00800           0
     28649 MEMB     214      POPC     C38      CTL2    -0.180000       12.0110           0
     28650 MEMB     214      POPC     H8X      HAL2     0.900000E-01   1.00800           0
     28651 MEMB     214      POPC     H8Y      HAL2     0.900000E-01   1.00800           0
     28652 MEMB     214      POPC     C39      CTL2    -0.180000       12.0110           0
     28653 MEMB     214      POPC     H9X      HAL2     0.900000E-01   1.00800           0
     28654 MEMB     214      POPC     H9Y      HAL2     0.900000E-01   1.00800           0
     28655 MEMB     214      POPC     C310     CTL2    -0.180000       12.0110           0
     28656 MEMB     214      POPC     H10X     HAL2     0.900000E-01   1.00800           0
     28657 MEMB     214      POPC     H10Y     HAL2     0.900000E-01   1.00800           0
     28658 MEMB     214      POPC     C311     CTL2    -0.180000       12.0110           0
     28659 MEMB     214      POPC     H11X     HAL2     0.900000E-01   1.00800           0
     28660 MEMB     214      POPC     H11Y     HAL2     0.900000E-01   1.00800           0
     28661 MEMB     214      POPC     C312     CTL2    -0.180000       12.0110           0
     28662 MEMB     214      POPC     H12X     HAL2     0.900000E-01   1.00800           0
     28663 MEMB     214      POPC     H12Y     HAL2     0.900000E-01   1.00800           0
     28664 MEMB     214      POPC     C313     CTL2    -0.180000       12.0110           0
     28665 MEMB     214      POPC     H13X     HAL2     0.900000E-01   1.00800           0
     28666 MEMB     214      POPC     H13Y     HAL2     0.900000E-01   1.00800           0
     28667 MEMB     214      POPC     C314     CTL2    -0.180000       12.0110           0
     28668 MEMB     214      POPC     H14X     HAL2     0.900000E-01   1.00800           0
     28669 MEMB     214      POPC     H14Y     HAL2     0.900000E-01   1.00800           0
     28670 MEMB     214      POPC     C315     CTL2    -0.180000       12.0110           0
     28671 MEMB     214      POPC     H15X     HAL2     0.900000E-01   1.00800           0
     28672 MEMB     214      POPC     H15Y     HAL2     0.900000E-01   1.00800           0
     28673 MEMB     214      POPC     C316     CTL3    -0.270000       12.0110           0
     28674 MEMB     214      POPC     H16X     HAL3     0.900000E-01   1.00800           0
     28675 MEMB     214      POPC     H16Y     HAL3     0.900000E-01   1.00800           0
     28676 MEMB     214      POPC     H16Z     HAL3     0.900000E-01   1.00800           0
     28677 MEMB     215      POPC     N        NTL     -0.600000       14.0070           0
     28678 MEMB     215      POPC     C12      CTL2    -0.100000       12.0110           0
     28679 MEMB     215      POPC     H12A     HL       0.250000       1.00800           0
     28680 MEMB     215      POPC     H12B     HL       0.250000       1.00800           0
     28681 MEMB     215      POPC     C13      CTL5    -0.350000       12.0110           0
     28682 MEMB     215      POPC     H13A     HL       0.250000       1.00800           0
     28683 MEMB     215      POPC     H13B     HL       0.250000       1.00800           0
     28684 MEMB     215      POPC     H13C     HL       0.250000       1.00800           0
     28685 MEMB     215      POPC     C14      CTL5    -0.350000       12.0110           0
     28686 MEMB     215      POPC     H14A     HL       0.250000       1.00800           0
     28687 MEMB     215      POPC     H14B     HL       0.250000       1.00800           0
     28688 MEMB     215      POPC     H14C     HL       0.250000       1.00800           0
     28689 MEMB     215      POPC     C15      CTL5    -0.350000       12.0110           0
     28690 MEMB     215      POPC     H15A     HL       0.250000       1.00800           0
     28691 MEMB     215      POPC     H15B     HL       0.250000       1.00800           0
     28692 MEMB     215      POPC     H15C     HL       0.250000       1.00800           0
     28693 MEMB     215      POPC     C11      CTL2    -0.800000E-01   12.0110           0
     28694 MEMB     215      POPC     H11A     HAL2     0.900000E-01   1.00800           0
     28695 MEMB     215      POPC     H11B     HAL2     0.900000E-01   1.00800           0
     28696 MEMB     215      POPC     P        PL       1.50000        30.9740           0
     28697 MEMB     215      POPC     O13      O2L     -0.780000       15.9994           0
     28698 MEMB     215      POPC     O14      O2L     -0.780000       15.9994           0
     28699 MEMB     215      POPC     O12      OSLP    -0.570000       15.9994           0
     28700 MEMB     215      POPC     O11      OSLP    -0.570000       15.9994           0
     28701 MEMB     215      POPC     C1       CTL2    -0.800000E-01   12.0110           0
     28702 MEMB     215      POPC     HA       HAL2     0.900000E-01   1.00800           0
     28703 MEMB     215      POPC     HB       HAL2     0.900000E-01   1.00800           0
     28704 MEMB     215      POPC     C2       CTL1     0.170000       12.0110           0
     28705 MEMB     215      POPC     HS       HAL1     0.900000E-01   1.00800           0
     28706 MEMB     215      POPC     O21      OSL     -0.490000       15.9994           0
     28707 MEMB     215      POPC     C21      CL       0.900000       12.0110           0
     28708 MEMB     215      POPC     O22      OBL     -0.630000       15.9994           0
     28709 MEMB     215      POPC     C22      CTL2    -0.220000       12.0110           0
     28710 MEMB     215      POPC     H2R      HAL2     0.900000E-01   1.00800           0
     28711 MEMB     215      POPC     H2S      HAL2     0.900000E-01   1.00800           0
     28712 MEMB     215      POPC     C3       CTL2     0.800000E-01   12.0110           0
     28713 MEMB     215      POPC     HX       HAL2     0.900000E-01   1.00800           0
     28714 MEMB     215      POPC     HY       HAL2     0.900000E-01   1.00800           0
     28715 MEMB     215      POPC     O31      OSL     -0.490000       15.9994           0
     28716 MEMB     215      POPC     C31      CL       0.900000       12.0110           0
     28717 MEMB     215      POPC     O32      OBL     -0.630000       15.9994           0
     28718 MEMB     215      POPC     C32      CTL2    -0.220000       12.0110           0
     28719 MEMB     215      POPC     H2X      HAL2     0.900000E-01   1.00800           0
     28720 MEMB     215      POPC     H2Y      HAL2     0.900000E-01   1.00800           0
     28721 MEMB     215      POPC     C23      CTL2    -0.180000       12.0110           0
     28722 MEMB     215      POPC     H3R      HAL2     0.900000E-01   1.00800           0
     28723 MEMB     215      POPC     H3S      HAL2     0.900000E-01   1.00800           0
     28724 MEMB     215      POPC     C24      CTL2    -0.180000       12.0110           0
     28725 MEMB     215      POPC     H4R      HAL2     0.900000E-01   1.00800           0
     28726 MEMB     215      POPC     H4S      HAL2     0.900000E-01   1.00800           0
     28727 MEMB     215      POPC     C25      CTL2    -0.180000       12.0110           0
     28728 MEMB     215      POPC     H5R      HAL2     0.900000E-01   1.00800           0
     28729 MEMB     215      POPC     H5S      HAL2     0.900000E-01   1.00800           0
     28730 MEMB     215      POPC     C26      CTL2    -0.180000       12.0110           0
     28731 MEMB     215      POPC     H6R      HAL2     0.900000E-01   1.00800           0
     28732 MEMB     215      POPC     H6S      HAL2     0.900000E-01   1.00800           0
     28733 MEMB     215      POPC     C27      CTL2    -0.180000       12.0110           0
     28734 MEMB     215      POPC     H7R      HAL2     0.900000E-01   1.00800           0
     28735 MEMB     215      POPC     H7S      HAL2     0.900000E-01   1.00800           0
     28736 MEMB     215      POPC     C28      CTL2    -0.180000       12.0110           0
     28737 MEMB     215      POPC     H8R      HAL2     0.900000E-01   1.00800           0
     28738 MEMB     215      POPC     H8S      HAL2     0.900000E-01   1.00800           0
     28739 MEMB     215      POPC     C29      CEL1    -0.150000       12.0110           0
     28740 MEMB     215      POPC     H91      HEL1     0.150000       1.00800           0
     28741 MEMB     215      POPC     C210     CEL1    -0.150000       12.0110           0
     28742 MEMB     215      POPC     H101     HEL1     0.150000       1.00800           0
     28743 MEMB     215      POPC     C211     CTL2    -0.180000       12.0110           0
     28744 MEMB     215      POPC     H11R     HAL2     0.900000E-01   1.00800           0
     28745 MEMB     215      POPC     H11S     HAL2     0.900000E-01   1.00800           0
     28746 MEMB     215      POPC     C212     CTL2    -0.180000       12.0110           0
     28747 MEMB     215      POPC     H12R     HAL2     0.900000E-01   1.00800           0
     28748 MEMB     215      POPC     H12S     HAL2     0.900000E-01   1.00800           0
     28749 MEMB     215      POPC     C213     CTL2    -0.180000       12.0110           0
     28750 MEMB     215      POPC     H13R     HAL2     0.900000E-01   1.00800           0
     28751 MEMB     215      POPC     H13S     HAL2     0.900000E-01   1.00800           0
     28752 MEMB     215      POPC     C214     CTL2    -0.180000       12.0110           0
     28753 MEMB     215      POPC     H14R     HAL2     0.900000E-01   1.00800           0
     28754 MEMB     215      POPC     H14S     HAL2     0.900000E-01   1.00800           0
     28755 MEMB     215      POPC     C215     CTL2    -0.180000       12.0110           0
     28756 MEMB     215      POPC     H15R     HAL2     0.900000E-01   1.00800           0
     28757 MEMB     215      POPC     H15S     HAL2     0.900000E-01   1.00800           0
     28758 MEMB     215      POPC     C216     CTL2    -0.180000       12.0110           0
     28759 MEMB     215      POPC     H16R     HAL2     0.900000E-01   1.00800           0
     28760 MEMB     215      POPC     H16S     HAL2     0.900000E-01   1.00800           0
     28761 MEMB     215      POPC     C217     CTL2    -0.180000       12.0110           0
     28762 MEMB     215      POPC     H17R     HAL2     0.900000E-01   1.00800           0
     28763 MEMB     215      POPC     H17S     HAL2     0.900000E-01   1.00800           0
     28764 MEMB     215      POPC     C218     CTL3    -0.270000       12.0110           0
     28765 MEMB     215      POPC     H18R     HAL3     0.900000E-01   1.00800           0
     28766 MEMB     215      POPC     H18S     HAL3     0.900000E-01   1.00800           0
     28767 MEMB     215      POPC     H18T     HAL3     0.900000E-01   1.00800           0
     28768 MEMB     215      POPC     C33      CTL2    -0.180000       12.0110           0
     28769 MEMB     215      POPC     H3X      HAL2     0.900000E-01   1.00800           0
     28770 MEMB     215      POPC     H3Y      HAL2     0.900000E-01   1.00800           0
     28771 MEMB     215      POPC     C34      CTL2    -0.180000       12.0110           0
     28772 MEMB     215      POPC     H4X      HAL2     0.900000E-01   1.00800           0
     28773 MEMB     215      POPC     H4Y      HAL2     0.900000E-01   1.00800           0
     28774 MEMB     215      POPC     C35      CTL2    -0.180000       12.0110           0
     28775 MEMB     215      POPC     H5X      HAL2     0.900000E-01   1.00800           0
     28776 MEMB     215      POPC     H5Y      HAL2     0.900000E-01   1.00800           0
     28777 MEMB     215      POPC     C36      CTL2    -0.180000       12.0110           0
     28778 MEMB     215      POPC     H6X      HAL2     0.900000E-01   1.00800           0
     28779 MEMB     215      POPC     H6Y      HAL2     0.900000E-01   1.00800           0
     28780 MEMB     215      POPC     C37      CTL2    -0.180000       12.0110           0
     28781 MEMB     215      POPC     H7X      HAL2     0.900000E-01   1.00800           0
     28782 MEMB     215      POPC     H7Y      HAL2     0.900000E-01   1.00800           0
     28783 MEMB     215      POPC     C38      CTL2    -0.180000       12.0110           0
     28784 MEMB     215      POPC     H8X      HAL2     0.900000E-01   1.00800           0
     28785 MEMB     215      POPC     H8Y      HAL2     0.900000E-01   1.00800           0
     28786 MEMB     215      POPC     C39      CTL2    -0.180000       12.0110           0
     28787 MEMB     215      POPC     H9X      HAL2     0.900000E-01   1.00800           0
     28788 MEMB     215      POPC     H9Y      HAL2     0.900000E-01   1.00800           0
     28789 MEMB     215      POPC     C310     CTL2    -0.180000       12.0110           0
     28790 MEMB     215      POPC     H10X     HAL2     0.900000E-01   1.00800           0
     28791 MEMB     215      POPC     H10Y     HAL2     0.900000E-01   1.00800           0
     28792 MEMB     215      POPC     C311     CTL2    -0.180000       12.0110           0
     28793 MEMB     215      POPC     H11X     HAL2     0.900000E-01   1.00800           0
     28794 MEMB     215      POPC     H11Y     HAL2     0.900000E-01   1.00800           0
     28795 MEMB     215      POPC     C312     CTL2    -0.180000       12.0110           0
     28796 MEMB     215      POPC     H12X     HAL2     0.900000E-01   1.00800           0
     28797 MEMB     215      POPC     H12Y     HAL2     0.900000E-01   1.00800           0
     28798 MEMB     215      POPC     C313     CTL2    -0.180000       12.0110           0
     28799 MEMB     215      POPC     H13X     HAL2     0.900000E-01   1.00800           0
     28800 MEMB     215      POPC     H13Y     HAL2     0.900000E-01   1.00800           0
     28801 MEMB     215      POPC     C314     CTL2    -0.180000       12.0110           0
     28802 MEMB     215      POPC     H14X     HAL2     0.900000E-01   1.00800           0
     28803 MEMB     215      POPC     H14Y     HAL2     0.900000E-01   1.00800           0
     28804 MEMB     215      POPC     C315     CTL2    -0.180000       12.0110           0
     28805 MEMB     215      POPC     H15X     HAL2     0.900000E-01   1.00800           0
     28806 MEMB     215      POPC     H15Y     HAL2     0.900000E-01   1.00800           0
     28807 MEMB     215      POPC     C316     CTL3    -0.270000       12.0110           0
     28808 MEMB     215      POPC     H16X     HAL3     0.900000E-01   1.00800           0
     28809 MEMB     215      POPC     H16Y     HAL3     0.900000E-01   1.00800           0
     28810 MEMB     215      POPC     H16Z     HAL3     0.900000E-01   1.00800           0
     28811 MEMB     216      POPC     N        NTL     -0.600000       14.0070           0
     28812 MEMB     216      POPC     C12      CTL2    -0.100000       12.0110           0
     28813 MEMB     216      POPC     H12A     HL       0.250000       1.00800           0
     28814 MEMB     216      POPC     H12B     HL       0.250000       1.00800           0
     28815 MEMB     216      POPC     C13      CTL5    -0.350000       12.0110           0
     28816 MEMB     216      POPC     H13A     HL       0.250000       1.00800           0
     28817 MEMB     216      POPC     H13B     HL       0.250000       1.00800           0
     28818 MEMB     216      POPC     H13C     HL       0.250000       1.00800           0
     28819 MEMB     216      POPC     C14      CTL5    -0.350000       12.0110           0
     28820 MEMB     216      POPC     H14A     HL       0.250000       1.00800           0
     28821 MEMB     216      POPC     H14B     HL       0.250000       1.00800           0
     28822 MEMB     216      POPC     H14C     HL       0.250000       1.00800           0
     28823 MEMB     216      POPC     C15      CTL5    -0.350000       12.0110           0
     28824 MEMB     216      POPC     H15A     HL       0.250000       1.00800           0
     28825 MEMB     216      POPC     H15B     HL       0.250000       1.00800           0
     28826 MEMB     216      POPC     H15C     HL       0.250000       1.00800           0
     28827 MEMB     216      POPC     C11      CTL2    -0.800000E-01   12.0110           0
     28828 MEMB     216      POPC     H11A     HAL2     0.900000E-01   1.00800           0
     28829 MEMB     216      POPC     H11B     HAL2     0.900000E-01   1.00800           0
     28830 MEMB     216      POPC     P        PL       1.50000        30.9740           0
     28831 MEMB     216      POPC     O13      O2L     -0.780000       15.9994           0
     28832 MEMB     216      POPC     O14      O2L     -0.780000       15.9994           0
     28833 MEMB     216      POPC     O12      OSLP    -0.570000       15.9994           0
     28834 MEMB     216      POPC     O11      OSLP    -0.570000       15.9994           0
     28835 MEMB     216      POPC     C1       CTL2    -0.800000E-01   12.0110           0
     28836 MEMB     216      POPC     HA       HAL2     0.900000E-01   1.00800           0
     28837 MEMB     216      POPC     HB       HAL2     0.900000E-01   1.00800           0
     28838 MEMB     216      POPC     C2       CTL1     0.170000       12.0110           0
     28839 MEMB     216      POPC     HS       HAL1     0.900000E-01   1.00800           0
     28840 MEMB     216      POPC     O21      OSL     -0.490000       15.9994           0
     28841 MEMB     216      POPC     C21      CL       0.900000       12.0110           0
     28842 MEMB     216      POPC     O22      OBL     -0.630000       15.9994           0
     28843 MEMB     216      POPC     C22      CTL2    -0.220000       12.0110           0
     28844 MEMB     216      POPC     H2R      HAL2     0.900000E-01   1.00800           0
     28845 MEMB     216      POPC     H2S      HAL2     0.900000E-01   1.00800           0
     28846 MEMB     216      POPC     C3       CTL2     0.800000E-01   12.0110           0
     28847 MEMB     216      POPC     HX       HAL2     0.900000E-01   1.00800           0
     28848 MEMB     216      POPC     HY       HAL2     0.900000E-01   1.00800           0
     28849 MEMB     216      POPC     O31      OSL     -0.490000       15.9994           0
     28850 MEMB     216      POPC     C31      CL       0.900000       12.0110           0
     28851 MEMB     216      POPC     O32      OBL     -0.630000       15.9994           0
     28852 MEMB     216      POPC     C32      CTL2    -0.220000       12.0110           0
     28853 MEMB     216      POPC     H2X      HAL2     0.900000E-01   1.00800           0
     28854 MEMB     216      POPC     H2Y      HAL2     0.900000E-01   1.00800           0
     28855 MEMB     216      POPC     C23      CTL2    -0.180000       12.0110           0
     28856 MEMB     216      POPC     H3R      HAL2     0.900000E-01   1.00800           0
     28857 MEMB     216      POPC     H3S      HAL2     0.900000E-01   1.00800           0
     28858 MEMB     216      POPC     C24      CTL2    -0.180000       12.0110           0
     28859 MEMB     216      POPC     H4R      HAL2     0.900000E-01   1.00800           0
     28860 MEMB     216      POPC     H4S      HAL2     0.900000E-01   1.00800           0
     28861 MEMB     216      POPC     C25      CTL2    -0.180000       12.0110           0
     28862 MEMB     216      POPC     H5R      HAL2     0.900000E-01   1.00800           0
     28863 MEMB     216      POPC     H5S      HAL2     0.900000E-01   1.00800           0
     28864 MEMB     216      POPC     C26      CTL2    -0.180000       12.0110           0
     28865 MEMB     216      POPC     H6R      HAL2     0.900000E-01   1.00800           0
     28866 MEMB     216      POPC     H6S      HAL2     0.900000E-01   1.00800           0
     28867 MEMB     216      POPC     C27      CTL2    -0.180000       12.0110           0
     28868 MEMB     216      POPC     H7R      HAL2     0.900000E-01   1.00800           0
     28869 MEMB     216      POPC     H7S      HAL2     0.900000E-01   1.00800           0
     28870 MEMB     216      POPC     C28      CTL2    -0.180000       12.0110           0
     28871 MEMB     216      POPC     H8R      HAL2     0.900000E-01   1.00800           0
     28872 MEMB     216      POPC     H8S      HAL2     0.900000E-01   1.00800           0
     28873 MEMB     216      POPC     C29      CEL1    -0.150000       12.0110           0
     28874 MEMB     216      POPC     H91      HEL1     0.150000       1.00800           0
     28875 MEMB     216      POPC     C210     CEL1    -0.150000       12.0110           0
     28876 MEMB     216      POPC     H101     HEL1     0.150000       1.00800           0
     28877 MEMB     216      POPC     C211     CTL2    -0.180000       12.0110           0
     28878 MEMB     216      POPC     H11R     HAL2     0.900000E-01   1.00800           0
     28879 MEMB     216      POPC     H11S     HAL2     0.900000E-01   1.00800           0
     28880 MEMB     216      POPC     C212     CTL2    -0.180000       12.0110           0
     28881 MEMB     216      POPC     H12R     HAL2     0.900000E-01   1.00800           0
     28882 MEMB     216      POPC     H12S     HAL2     0.900000E-01   1.00800           0
     28883 MEMB     216      POPC     C213     CTL2    -0.180000       12.0110           0
     28884 MEMB     216      POPC     H13R     HAL2     0.900000E-01   1.00800           0
     28885 MEMB     216      POPC     H13S     HAL2     0.900000E-01   1.00800           0
     28886 MEMB     216      POPC     C214     CTL2    -0.180000       12.0110           0
     28887 MEMB     216      POPC     H14R     HAL2     0.900000E-01   1.00800           0
     28888 MEMB     216      POPC     H14S     HAL2     0.900000E-01   1.00800           0
     28889 MEMB     216      POPC     C215     CTL2    -0.180000       12.0110           0
     28890 MEMB     216      POPC     H15R     HAL2     0.900000E-01   1.00800           0
     28891 MEMB     216      POPC     H15S     HAL2     0.900000E-01   1.00800           0
     28892 MEMB     216      POPC     C216     CTL2    -0.180000       12.0110           0
     28893 MEMB     216      POPC     H16R     HAL2     0.900000E-01   1.00800           0
     28894 MEMB     216      POPC     H16S     HAL2     0.900000E-01   1.00800           0
     28895 MEMB     216      POPC     C217     CTL2    -0.180000       12.0110           0
     28896 MEMB     216      POPC     H17R     HAL2     0.900000E-01   1.00800           0
     28897 MEMB     216      POPC     H17S     HAL2     0.900000E-01   1.00800           0
     28898 MEMB     216      POPC     C218     CTL3    -0.270000       12.0110           0
     28899 MEMB     216      POPC     H18R     HAL3     0.900000E-01   1.00800           0
     28900 MEMB     216      POPC     H18S     HAL3     0.900000E-01   1.00800           0
     28901 MEMB     216      POPC     H18T     HAL3     0.900000E-01   1.00800           0
     28902 MEMB     216      POPC     C33      CTL2    -0.180000       12.0110           0
     28903 MEMB     216      POPC     H3X      HAL2     0.900000E-01   1.00800           0
     28904 MEMB     216      POPC     H3Y      HAL2     0.900000E-01   1.00800           0
     28905 MEMB     216      POPC     C34      CTL2    -0.180000       12.0110           0
     28906 MEMB     216      POPC     H4X      HAL2     0.900000E-01   1.00800           0
     28907 MEMB     216      POPC     H4Y      HAL2     0.900000E-01   1.00800           0
     28908 MEMB     216      POPC     C35      CTL2    -0.180000       12.0110           0
     28909 MEMB     216      POPC     H5X      HAL2     0.900000E-01   1.00800           0
     28910 MEMB     216      POPC     H5Y      HAL2     0.900000E-01   1.00800           0
     28911 MEMB     216      POPC     C36      CTL2    -0.180000       12.0110           0
     28912 MEMB     216      POPC     H6X      HAL2     0.900000E-01   1.00800           0
     28913 MEMB     216      POPC     H6Y      HAL2     0.900000E-01   1.00800           0
     28914 MEMB     216      POPC     C37      CTL2    -0.180000       12.0110           0
     28915 MEMB     216      POPC     H7X      HAL2     0.900000E-01   1.00800           0
     28916 MEMB     216      POPC     H7Y      HAL2     0.900000E-01   1.00800           0
     28917 MEMB     216      POPC     C38      CTL2    -0.180000       12.0110           0
     28918 MEMB     216      POPC     H8X      HAL2     0.900000E-01   1.00800           0
     28919 MEMB     216      POPC     H8Y      HAL2     0.900000E-01   1.00800           0
     28920 MEMB     216      POPC     C39      CTL2    -0.180000       12.0110           0
     28921 MEMB     216      POPC     H9X      HAL2     0.900000E-01   1.00800           0
     28922 MEMB     216      POPC     H9Y      HAL2     0.900000E-01   1.00800           0
     28923 MEMB     216      POPC     C310     CTL2    -0.180000       12.0110           0
     28924 MEMB     216      POPC     H10X     HAL2     0.900000E-01   1.00800           0
     28925 MEMB     216      POPC     H10Y     HAL2     0.900000E-01   1.00800           0
     28926 MEMB     216      POPC     C311     CTL2    -0.180000       12.0110           0
     28927 MEMB     216      POPC     H11X     HAL2     0.900000E-01   1.00800           0
     28928 MEMB     216      POPC     H11Y     HAL2     0.900000E-01   1.00800           0
     28929 MEMB     216      POPC     C312     CTL2    -0.180000       12.0110           0
     28930 MEMB     216      POPC     H12X     HAL2     0.900000E-01   1.00800           0
     28931 MEMB     216      POPC     H12Y     HAL2     0.900000E-01   1.00800           0
     28932 MEMB     216      POPC     C313     CTL2    -0.180000       12.0110           0
     28933 MEMB     216      POPC     H13X     HAL2     0.900000E-01   1.00800           0
     28934 MEMB     216      POPC     H13Y     HAL2     0.900000E-01   1.00800           0
     28935 MEMB     216      POPC     C314     CTL2    -0.180000       12.0110           0
     28936 MEMB     216      POPC     H14X     HAL2     0.900000E-01   1.00800           0
     28937 MEMB     216      POPC     H14Y     HAL2     0.900000E-01   1.00800           0
     28938 MEMB     216      POPC     C315     CTL2    -0.180000       12.0110           0
     28939 MEMB     216      POPC     H15X     HAL2     0.900000E-01   1.00800           0
     28940 MEMB     216      POPC     H15Y     HAL2     0.900000E-01   1.00800           0
     28941 MEMB     216      POPC     C316     CTL3    -0.270000       12.0110           0
     28942 MEMB     216      POPC     H16X     HAL3     0.900000E-01   1.00800           0
     28943 MEMB     216      POPC     H16Y     HAL3     0.900000E-01   1.00800           0
     28944 MEMB     216      POPC     H16Z     HAL3     0.900000E-01   1.00800           0
     28945 MEMB     217      POPC     N        NTL     -0.600000       14.0070           0
     28946 MEMB     217      POPC     C12      CTL2    -0.100000       12.0110           0
     28947 MEMB     217      POPC     H12A     HL       0.250000       1.00800           0
     28948 MEMB     217      POPC     H12B     HL       0.250000       1.00800           0
     28949 MEMB     217      POPC     C13      CTL5    -0.350000       12.0110           0
     28950 MEMB     217      POPC     H13A     HL       0.250000       1.00800           0
     28951 MEMB     217      POPC     H13B     HL       0.250000       1.00800           0
     28952 MEMB     217      POPC     H13C     HL       0.250000       1.00800           0
     28953 MEMB     217      POPC     C14      CTL5    -0.350000       12.0110           0
     28954 MEMB     217      POPC     H14A     HL       0.250000       1.00800           0
     28955 MEMB     217      POPC     H14B     HL       0.250000       1.00800           0
     28956 MEMB     217      POPC     H14C     HL       0.250000       1.00800           0
     28957 MEMB     217      POPC     C15      CTL5    -0.350000       12.0110           0
     28958 MEMB     217      POPC     H15A     HL       0.250000       1.00800           0
     28959 MEMB     217      POPC     H15B     HL       0.250000       1.00800           0
     28960 MEMB     217      POPC     H15C     HL       0.250000       1.00800           0
     28961 MEMB     217      POPC     C11      CTL2    -0.800000E-01   12.0110           0
     28962 MEMB     217      POPC     H11A     HAL2     0.900000E-01   1.00800           0
     28963 MEMB     217      POPC     H11B     HAL2     0.900000E-01   1.00800           0
     28964 MEMB     217      POPC     P        PL       1.50000        30.9740           0
     28965 MEMB     217      POPC     O13      O2L     -0.780000       15.9994           0
     28966 MEMB     217      POPC     O14      O2L     -0.780000       15.9994           0
     28967 MEMB     217      POPC     O12      OSLP    -0.570000       15.9994           0
     28968 MEMB     217      POPC     O11      OSLP    -0.570000       15.9994           0
     28969 MEMB     217      POPC     C1       CTL2    -0.800000E-01   12.0110           0
     28970 MEMB     217      POPC     HA       HAL2     0.900000E-01   1.00800           0
     28971 MEMB     217      POPC     HB       HAL2     0.900000E-01   1.00800           0
     28972 MEMB     217      POPC     C2       CTL1     0.170000       12.0110           0
     28973 MEMB     217      POPC     HS       HAL1     0.900000E-01   1.00800           0
     28974 MEMB     217      POPC     O21      OSL     -0.490000       15.9994           0
     28975 MEMB     217      POPC     C21      CL       0.900000       12.0110           0
     28976 MEMB     217      POPC     O22      OBL     -0.630000       15.9994           0
     28977 MEMB     217      POPC     C22      CTL2    -0.220000       12.0110           0
     28978 MEMB     217      POPC     H2R      HAL2     0.900000E-01   1.00800           0
     28979 MEMB     217      POPC     H2S      HAL2     0.900000E-01   1.00800           0
     28980 MEMB     217      POPC     C3       CTL2     0.800000E-01   12.0110           0
     28981 MEMB     217      POPC     HX       HAL2     0.900000E-01   1.00800           0
     28982 MEMB     217      POPC     HY       HAL2     0.900000E-01   1.00800           0
     28983 MEMB     217      POPC     O31      OSL     -0.490000       15.9994           0
     28984 MEMB     217      POPC     C31      CL       0.900000       12.0110           0
     28985 MEMB     217      POPC     O32      OBL     -0.630000       15.9994           0
     28986 MEMB     217      POPC     C32      CTL2    -0.220000       12.0110           0
     28987 MEMB     217      POPC     H2X      HAL2     0.900000E-01   1.00800           0
     28988 MEMB     217      POPC     H2Y      HAL2     0.900000E-01   1.00800           0
     28989 MEMB     217      POPC     C23      CTL2    -0.180000       12.0110           0
     28990 MEMB     217      POPC     H3R      HAL2     0.900000E-01   1.00800           0
     28991 MEMB     217      POPC     H3S      HAL2     0.900000E-01   1.00800           0
     28992 MEMB     217      POPC     C24      CTL2    -0.180000       12.0110           0
     28993 MEMB     217      POPC     H4R      HAL2     0.900000E-01   1.00800           0
     28994 MEMB     217      POPC     H4S      HAL2     0.900000E-01   1.00800           0
     28995 MEMB     217      POPC     C25      CTL2    -0.180000       12.0110           0
     28996 MEMB     217      POPC     H5R      HAL2     0.900000E-01   1.00800           0
     28997 MEMB     217      POPC     H5S      HAL2     0.900000E-01   1.00800           0
     28998 MEMB     217      POPC     C26      CTL2    -0.180000       12.0110           0
     28999 MEMB     217      POPC     H6R      HAL2     0.900000E-01   1.00800           0
     29000 MEMB     217      POPC     H6S      HAL2     0.900000E-01   1.00800           0
     29001 MEMB     217      POPC     C27      CTL2    -0.180000       12.0110           0
     29002 MEMB     217      POPC     H7R      HAL2     0.900000E-01   1.00800           0
     29003 MEMB     217      POPC     H7S      HAL2     0.900000E-01   1.00800           0
     29004 MEMB     217      POPC     C28      CTL2    -0.180000       12.0110           0
     29005 MEMB     217      POPC     H8R      HAL2     0.900000E-01   1.00800           0
     29006 MEMB     217      POPC     H8S      HAL2     0.900000E-01   1.00800           0
     29007 MEMB     217      POPC     C29      CEL1    -0.150000       12.0110           0
     29008 MEMB     217      POPC     H91      HEL1     0.150000       1.00800           0
     29009 MEMB     217      POPC     C210     CEL1    -0.150000       12.0110           0
     29010 MEMB     217      POPC     H101     HEL1     0.150000       1.00800           0
     29011 MEMB     217      POPC     C211     CTL2    -0.180000       12.0110           0
     29012 MEMB     217      POPC     H11R     HAL2     0.900000E-01   1.00800           0
     29013 MEMB     217      POPC     H11S     HAL2     0.900000E-01   1.00800           0
     29014 MEMB     217      POPC     C212     CTL2    -0.180000       12.0110           0
     29015 MEMB     217      POPC     H12R     HAL2     0.900000E-01   1.00800           0
     29016 MEMB     217      POPC     H12S     HAL2     0.900000E-01   1.00800           0
     29017 MEMB     217      POPC     C213     CTL2    -0.180000       12.0110           0
     29018 MEMB     217      POPC     H13R     HAL2     0.900000E-01   1.00800           0
     29019 MEMB     217      POPC     H13S     HAL2     0.900000E-01   1.00800           0
     29020 MEMB     217      POPC     C214     CTL2    -0.180000       12.0110           0
     29021 MEMB     217      POPC     H14R     HAL2     0.900000E-01   1.00800           0
     29022 MEMB     217      POPC     H14S     HAL2     0.900000E-01   1.00800           0
     29023 MEMB     217      POPC     C215     CTL2    -0.180000       12.0110           0
     29024 MEMB     217      POPC     H15R     HAL2     0.900000E-01   1.00800           0
     29025 MEMB     217      POPC     H15S     HAL2     0.900000E-01   1.00800           0
     29026 MEMB     217      POPC     C216     CTL2    -0.180000       12.0110           0
     29027 MEMB     217      POPC     H16R     HAL2     0.900000E-01   1.00800           0
     29028 MEMB     217      POPC     H16S     HAL2     0.900000E-01   1.00800           0
     29029 MEMB     217      POPC     C217     CTL2    -0.180000       12.0110           0
     29030 MEMB     217      POPC     H17R     HAL2     0.900000E-01   1.00800           0
     29031 MEMB     217      POPC     H17S     HAL2     0.900000E-01   1.00800           0
     29032 MEMB     217      POPC     C218     CTL3    -0.270000       12.0110           0
     29033 MEMB     217      POPC     H18R     HAL3     0.900000E-01   1.00800           0
     29034 MEMB     217      POPC     H18S     HAL3     0.900000E-01   1.00800           0
     29035 MEMB     217      POPC     H18T     HAL3     0.900000E-01   1.00800           0
     29036 MEMB     217      POPC     C33      CTL2    -0.180000       12.0110           0
     29037 MEMB     217      POPC     H3X      HAL2     0.900000E-01   1.00800           0
     29038 MEMB     217      POPC     H3Y      HAL2     0.900000E-01   1.00800           0
     29039 MEMB     217      POPC     C34      CTL2    -0.180000       12.0110           0
     29040 MEMB     217      POPC     H4X      HAL2     0.900000E-01   1.00800           0
     29041 MEMB     217      POPC     H4Y      HAL2     0.900000E-01   1.00800           0
     29042 MEMB     217      POPC     C35      CTL2    -0.180000       12.0110           0
     29043 MEMB     217      POPC     H5X      HAL2     0.900000E-01   1.00800           0
     29044 MEMB     217      POPC     H5Y      HAL2     0.900000E-01   1.00800           0
     29045 MEMB     217      POPC     C36      CTL2    -0.180000       12.0110           0
     29046 MEMB     217      POPC     H6X      HAL2     0.900000E-01   1.00800           0
     29047 MEMB     217      POPC     H6Y      HAL2     0.900000E-01   1.00800           0
     29048 MEMB     217      POPC     C37      CTL2    -0.180000       12.0110           0
     29049 MEMB     217      POPC     H7X      HAL2     0.900000E-01   1.00800           0
     29050 MEMB     217      POPC     H7Y      HAL2     0.900000E-01   1.00800           0
     29051 MEMB     217      POPC     C38      CTL2    -0.180000       12.0110           0
     29052 MEMB     217      POPC     H8X      HAL2     0.900000E-01   1.00800           0
     29053 MEMB     217      POPC     H8Y      HAL2     0.900000E-01   1.00800           0
     29054 MEMB     217      POPC     C39      CTL2    -0.180000       12.0110           0
     29055 MEMB     217      POPC     H9X      HAL2     0.900000E-01   1.00800           0
     29056 MEMB     217      POPC     H9Y      HAL2     0.900000E-01   1.00800           0
     29057 MEMB     217      POPC     C310     CTL2    -0.180000       12.0110           0
     29058 MEMB     217      POPC     H10X     HAL2     0.900000E-01   1.00800           0
     29059 MEMB     217      POPC     H10Y     HAL2     0.900000E-01   1.00800           0
     29060 MEMB     217      POPC     C311     CTL2    -0.180000       12.0110           0
     29061 MEMB     217      POPC     H11X     HAL2     0.900000E-01   1.00800           0
     29062 MEMB     217      POPC     H11Y     HAL2     0.900000E-01   1.00800           0
     29063 MEMB     217      POPC     C312     CTL2    -0.180000       12.0110           0
     29064 MEMB     217      POPC     H12X     HAL2     0.900000E-01   1.00800           0
     29065 MEMB     217      POPC     H12Y     HAL2     0.900000E-01   1.00800           0
     29066 MEMB     217      POPC     C313     CTL2    -0.180000       12.0110           0
     29067 MEMB     217      POPC     H13X     HAL2     0.900000E-01   1.00800           0
     29068 MEMB     217      POPC     H13Y     HAL2     0.900000E-01   1.00800           0
     29069 MEMB     217      POPC     C314     CTL2    -0.180000       12.0110           0
     29070 MEMB     217      POPC     H14X     HAL2     0.900000E-01   1.00800           0
     29071 MEMB     217      POPC     H14Y     HAL2     0.900000E-01   1.00800           0
     29072 MEMB     217      POPC     C315     CTL2    -0.180000       12.0110           0
     29073 MEMB     217      POPC     H15X     HAL2     0.900000E-01   1.00800           0
     29074 MEMB     217      POPC     H15Y     HAL2     0.900000E-01   1.00800           0
     29075 MEMB     217      POPC     C316     CTL3    -0.270000       12.0110           0
     29076 MEMB     217      POPC     H16X     HAL3     0.900000E-01   1.00800           0
     29077 MEMB     217      POPC     H16Y     HAL3     0.900000E-01   1.00800           0
     29078 MEMB     217      POPC     H16Z     HAL3     0.900000E-01   1.00800           0
     29079 MEMB     218      POPC     N        NTL     -0.600000       14.0070           0
     29080 MEMB     218      POPC     C12      CTL2    -0.100000       12.0110           0
     29081 MEMB     218      POPC     H12A     HL       0.250000       1.00800           0
     29082 MEMB     218      POPC     H12B     HL       0.250000       1.00800           0
     29083 MEMB     218      POPC     C13      CTL5    -0.350000       12.0110           0
     29084 MEMB     218      POPC     H13A     HL       0.250000       1.00800           0
     29085 MEMB     218      POPC     H13B     HL       0.250000       1.00800           0
     29086 MEMB     218      POPC     H13C     HL       0.250000       1.00800           0
     29087 MEMB     218      POPC     C14      CTL5    -0.350000       12.0110           0
     29088 MEMB     218      POPC     H14A     HL       0.250000       1.00800           0
     29089 MEMB     218      POPC     H14B     HL       0.250000       1.00800           0
     29090 MEMB     218      POPC     H14C     HL       0.250000       1.00800           0
     29091 MEMB     218      POPC     C15      CTL5    -0.350000       12.0110           0
     29092 MEMB     218      POPC     H15A     HL       0.250000       1.00800           0
     29093 MEMB     218      POPC     H15B     HL       0.250000       1.00800           0
     29094 MEMB     218      POPC     H15C     HL       0.250000       1.00800           0
     29095 MEMB     218      POPC     C11      CTL2    -0.800000E-01   12.0110           0
     29096 MEMB     218      POPC     H11A     HAL2     0.900000E-01   1.00800           0
     29097 MEMB     218      POPC     H11B     HAL2     0.900000E-01   1.00800           0
     29098 MEMB     218      POPC     P        PL       1.50000        30.9740           0
     29099 MEMB     218      POPC     O13      O2L     -0.780000       15.9994           0
     29100 MEMB     218      POPC     O14      O2L     -0.780000       15.9994           0
     29101 MEMB     218      POPC     O12      OSLP    -0.570000       15.9994           0
     29102 MEMB     218      POPC     O11      OSLP    -0.570000       15.9994           0
     29103 MEMB     218      POPC     C1       CTL2    -0.800000E-01   12.0110           0
     29104 MEMB     218      POPC     HA       HAL2     0.900000E-01   1.00800           0
     29105 MEMB     218      POPC     HB       HAL2     0.900000E-01   1.00800           0
     29106 MEMB     218      POPC     C2       CTL1     0.170000       12.0110           0
     29107 MEMB     218      POPC     HS       HAL1     0.900000E-01   1.00800           0
     29108 MEMB     218      POPC     O21      OSL     -0.490000       15.9994           0
     29109 MEMB     218      POPC     C21      CL       0.900000       12.0110           0
     29110 MEMB     218      POPC     O22      OBL     -0.630000       15.9994           0
     29111 MEMB     218      POPC     C22      CTL2    -0.220000       12.0110           0
     29112 MEMB     218      POPC     H2R      HAL2     0.900000E-01   1.00800           0
     29113 MEMB     218      POPC     H2S      HAL2     0.900000E-01   1.00800           0
     29114 MEMB     218      POPC     C3       CTL2     0.800000E-01   12.0110           0
     29115 MEMB     218      POPC     HX       HAL2     0.900000E-01   1.00800           0
     29116 MEMB     218      POPC     HY       HAL2     0.900000E-01   1.00800           0
     29117 MEMB     218      POPC     O31      OSL     -0.490000       15.9994           0
     29118 MEMB     218      POPC     C31      CL       0.900000       12.0110           0
     29119 MEMB     218      POPC     O32      OBL     -0.630000       15.9994           0
     29120 MEMB     218      POPC     C32      CTL2    -0.220000       12.0110           0
     29121 MEMB     218      POPC     H2X      HAL2     0.900000E-01   1.00800           0
     29122 MEMB     218      POPC     H2Y      HAL2     0.900000E-01   1.00800           0
     29123 MEMB     218      POPC     C23      CTL2    -0.180000       12.0110           0
     29124 MEMB     218      POPC     H3R      HAL2     0.900000E-01   1.00800           0
     29125 MEMB     218      POPC     H3S      HAL2     0.900000E-01   1.00800           0
     29126 MEMB     218      POPC     C24      CTL2    -0.180000       12.0110           0
     29127 MEMB     218      POPC     H4R      HAL2     0.900000E-01   1.00800           0
     29128 MEMB     218      POPC     H4S      HAL2     0.900000E-01   1.00800           0
     29129 MEMB     218      POPC     C25      CTL2    -0.180000       12.0110           0
     29130 MEMB     218      POPC     H5R      HAL2     0.900000E-01   1.00800           0
     29131 MEMB     218      POPC     H5S      HAL2     0.900000E-01   1.00800           0
     29132 MEMB     218      POPC     C26      CTL2    -0.180000       12.0110           0
     29133 MEMB     218      POPC     H6R      HAL2     0.900000E-01   1.00800           0
     29134 MEMB     218      POPC     H6S      HAL2     0.900000E-01   1.00800           0
     29135 MEMB     218      POPC     C27      CTL2    -0.180000       12.0110           0
     29136 MEMB     218      POPC     H7R      HAL2     0.900000E-01   1.00800           0
     29137 MEMB     218      POPC     H7S      HAL2     0.900000E-01   1.00800           0
     29138 MEMB     218      POPC     C28      CTL2    -0.180000       12.0110           0
     29139 MEMB     218      POPC     H8R      HAL2     0.900000E-01   1.00800           0
     29140 MEMB     218      POPC     H8S      HAL2     0.900000E-01   1.00800           0
     29141 MEMB     218      POPC     C29      CEL1    -0.150000       12.0110           0
     29142 MEMB     218      POPC     H91      HEL1     0.150000       1.00800           0
     29143 MEMB     218      POPC     C210     CEL1    -0.150000       12.0110           0
     29144 MEMB     218      POPC     H101     HEL1     0.150000       1.00800           0
     29145 MEMB     218      POPC     C211     CTL2    -0.180000       12.0110           0
     29146 MEMB     218      POPC     H11R     HAL2     0.900000E-01   1.00800           0
     29147 MEMB     218      POPC     H11S     HAL2     0.900000E-01   1.00800           0
     29148 MEMB     218      POPC     C212     CTL2    -0.180000       12.0110           0
     29149 MEMB     218      POPC     H12R     HAL2     0.900000E-01   1.00800           0
     29150 MEMB     218      POPC     H12S     HAL2     0.900000E-01   1.00800           0
     29151 MEMB     218      POPC     C213     CTL2    -0.180000       12.0110           0
     29152 MEMB     218      POPC     H13R     HAL2     0.900000E-01   1.00800           0
     29153 MEMB     218      POPC     H13S     HAL2     0.900000E-01   1.00800           0
     29154 MEMB     218      POPC     C214     CTL2    -0.180000       12.0110           0
     29155 MEMB     218      POPC     H14R     HAL2     0.900000E-01   1.00800           0
     29156 MEMB     218      POPC     H14S     HAL2     0.900000E-01   1.00800           0
     29157 MEMB     218      POPC     C215     CTL2    -0.180000       12.0110           0
     29158 MEMB     218      POPC     H15R     HAL2     0.900000E-01   1.00800           0
     29159 MEMB     218      POPC     H15S     HAL2     0.900000E-01   1.00800           0
     29160 MEMB     218      POPC     C216     CTL2    -0.180000       12.0110           0
     29161 MEMB     218      POPC     H16R     HAL2     0.900000E-01   1.00800           0
     29162 MEMB     218      POPC     H16S     HAL2     0.900000E-01   1.00800           0
     29163 MEMB     218      POPC     C217     CTL2    -0.180000       12.0110           0
     29164 MEMB     218      POPC     H17R     HAL2     0.900000E-01   1.00800           0
     29165 MEMB     218      POPC     H17S     HAL2     0.900000E-01   1.00800           0
     29166 MEMB     218      POPC     C218     CTL3    -0.270000       12.0110           0
     29167 MEMB     218      POPC     H18R     HAL3     0.900000E-01   1.00800           0
     29168 MEMB     218      POPC     H18S     HAL3     0.900000E-01   1.00800           0
     29169 MEMB     218      POPC     H18T     HAL3     0.900000E-01   1.00800           0
     29170 MEMB     218      POPC     C33      CTL2    -0.180000       12.0110           0
     29171 MEMB     218      POPC     H3X      HAL2     0.900000E-01   1.00800           0
     29172 MEMB     218      POPC     H3Y      HAL2     0.900000E-01   1.00800           0
     29173 MEMB     218      POPC     C34      CTL2    -0.180000       12.0110           0
     29174 MEMB     218      POPC     H4X      HAL2     0.900000E-01   1.00800           0
     29175 MEMB     218      POPC     H4Y      HAL2     0.900000E-01   1.00800           0
     29176 MEMB     218      POPC     C35      CTL2    -0.180000       12.0110           0
     29177 MEMB     218      POPC     H5X      HAL2     0.900000E-01   1.00800           0
     29178 MEMB     218      POPC     H5Y      HAL2     0.900000E-01   1.00800           0
     29179 MEMB     218      POPC     C36      CTL2    -0.180000       12.0110           0
     29180 MEMB     218      POPC     H6X      HAL2     0.900000E-01   1.00800           0
     29181 MEMB     218      POPC     H6Y      HAL2     0.900000E-01   1.00800           0
     29182 MEMB     218      POPC     C37      CTL2    -0.180000       12.0110           0
     29183 MEMB     218      POPC     H7X      HAL2     0.900000E-01   1.00800           0
     29184 MEMB     218      POPC     H7Y      HAL2     0.900000E-01   1.00800           0
     29185 MEMB     218      POPC     C38      CTL2    -0.180000       12.0110           0
     29186 MEMB     218      POPC     H8X      HAL2     0.900000E-01   1.00800           0
     29187 MEMB     218      POPC     H8Y      HAL2     0.900000E-01   1.00800           0
     29188 MEMB     218      POPC     C39      CTL2    -0.180000       12.0110           0
     29189 MEMB     218      POPC     H9X      HAL2     0.900000E-01   1.00800           0
     29190 MEMB     218      POPC     H9Y      HAL2     0.900000E-01   1.00800           0
     29191 MEMB     218      POPC     C310     CTL2    -0.180000       12.0110           0
     29192 MEMB     218      POPC     H10X     HAL2     0.900000E-01   1.00800           0
     29193 MEMB     218      POPC     H10Y     HAL2     0.900000E-01   1.00800           0
     29194 MEMB     218      POPC     C311     CTL2    -0.180000       12.0110           0
     29195 MEMB     218      POPC     H11X     HAL2     0.900000E-01   1.00800           0
     29196 MEMB     218      POPC     H11Y     HAL2     0.900000E-01   1.00800           0
     29197 MEMB     218      POPC     C312     CTL2    -0.180000       12.0110           0
     29198 MEMB     218      POPC     H12X     HAL2     0.900000E-01   1.00800           0
     29199 MEMB     218      POPC     H12Y     HAL2     0.900000E-01   1.00800           0
     29200 MEMB     218      POPC     C313     CTL2    -0.180000       12.0110           0
     29201 MEMB     218      POPC     H13X     HAL2     0.900000E-01   1.00800           0
     29202 MEMB     218      POPC     H13Y     HAL2     0.900000E-01   1.00800           0
     29203 MEMB     218      POPC     C314     CTL2    -0.180000       12.0110           0
     29204 MEMB     218      POPC     H14X     HAL2     0.900000E-01   1.00800           0
     29205 MEMB     218      POPC     H14Y     HAL2     0.900000E-01   1.00800           0
     29206 MEMB     218      POPC     C315     CTL2    -0.180000       12.0110           0
     29207 MEMB     218      POPC     H15X     HAL2     0.900000E-01   1.00800           0
     29208 MEMB     218      POPC     H15Y     HAL2     0.900000E-01   1.00800           0
     29209 MEMB     218      POPC     C316     CTL3    -0.270000       12.0110           0
     29210 MEMB     218      POPC     H16X     HAL3     0.900000E-01   1.00800           0
     29211 MEMB     218      POPC     H16Y     HAL3     0.900000E-01   1.00800           0
     29212 MEMB     218      POPC     H16Z     HAL3     0.900000E-01   1.00800           0
     29213 MEMB     219      POPC     N        NTL     -0.600000       14.0070           0
     29214 MEMB     219      POPC     C12      CTL2    -0.100000       12.0110           0
     29215 MEMB     219      POPC     H12A     HL       0.250000       1.00800           0
     29216 MEMB     219      POPC     H12B     HL       0.250000       1.00800           0
     29217 MEMB     219      POPC     C13      CTL5    -0.350000       12.0110           0
     29218 MEMB     219      POPC     H13A     HL       0.250000       1.00800           0
     29219 MEMB     219      POPC     H13B     HL       0.250000       1.00800           0
     29220 MEMB     219      POPC     H13C     HL       0.250000       1.00800           0
     29221 MEMB     219      POPC     C14      CTL5    -0.350000       12.0110           0
     29222 MEMB     219      POPC     H14A     HL       0.250000       1.00800           0
     29223 MEMB     219      POPC     H14B     HL       0.250000       1.00800           0
     29224 MEMB     219      POPC     H14C     HL       0.250000       1.00800           0
     29225 MEMB     219      POPC     C15      CTL5    -0.350000       12.0110           0
     29226 MEMB     219      POPC     H15A     HL       0.250000       1.00800           0
     29227 MEMB     219      POPC     H15B     HL       0.250000       1.00800           0
     29228 MEMB     219      POPC     H15C     HL       0.250000       1.00800           0
     29229 MEMB     219      POPC     C11      CTL2    -0.800000E-01   12.0110           0
     29230 MEMB     219      POPC     H11A     HAL2     0.900000E-01   1.00800           0
     29231 MEMB     219      POPC     H11B     HAL2     0.900000E-01   1.00800           0
     29232 MEMB     219      POPC     P        PL       1.50000        30.9740           0
     29233 MEMB     219      POPC     O13      O2L     -0.780000       15.9994           0
     29234 MEMB     219      POPC     O14      O2L     -0.780000       15.9994           0
     29235 MEMB     219      POPC     O12      OSLP    -0.570000       15.9994           0
     29236 MEMB     219      POPC     O11      OSLP    -0.570000       15.9994           0
     29237 MEMB     219      POPC     C1       CTL2    -0.800000E-01   12.0110           0
     29238 MEMB     219      POPC     HA       HAL2     0.900000E-01   1.00800           0
     29239 MEMB     219      POPC     HB       HAL2     0.900000E-01   1.00800           0
     29240 MEMB     219      POPC     C2       CTL1     0.170000       12.0110           0
     29241 MEMB     219      POPC     HS       HAL1     0.900000E-01   1.00800           0
     29242 MEMB     219      POPC     O21      OSL     -0.490000       15.9994           0
     29243 MEMB     219      POPC     C21      CL       0.900000       12.0110           0
     29244 MEMB     219      POPC     O22      OBL     -0.630000       15.9994           0
     29245 MEMB     219      POPC     C22      CTL2    -0.220000       12.0110           0
     29246 MEMB     219      POPC     H2R      HAL2     0.900000E-01   1.00800           0
     29247 MEMB     219      POPC     H2S      HAL2     0.900000E-01   1.00800           0
     29248 MEMB     219      POPC     C3       CTL2     0.800000E-01   12.0110           0
     29249 MEMB     219      POPC     HX       HAL2     0.900000E-01   1.00800           0
     29250 MEMB     219      POPC     HY       HAL2     0.900000E-01   1.00800           0
     29251 MEMB     219      POPC     O31      OSL     -0.490000       15.9994           0
     29252 MEMB     219      POPC     C31      CL       0.900000       12.0110           0
     29253 MEMB     219      POPC     O32      OBL     -0.630000       15.9994           0
     29254 MEMB     219      POPC     C32      CTL2    -0.220000       12.0110           0
     29255 MEMB     219      POPC     H2X      HAL2     0.900000E-01   1.00800           0
     29256 MEMB     219      POPC     H2Y      HAL2     0.900000E-01   1.00800           0
     29257 MEMB     219      POPC     C23      CTL2    -0.180000       12.0110           0
     29258 MEMB     219      POPC     H3R      HAL2     0.900000E-01   1.00800           0
     29259 MEMB     219      POPC     H3S      HAL2     0.900000E-01   1.00800           0
     29260 MEMB     219      POPC     C24      CTL2    -0.180000       12.0110           0
     29261 MEMB     219      POPC     H4R      HAL2     0.900000E-01   1.00800           0
     29262 MEMB     219      POPC     H4S      HAL2     0.900000E-01   1.00800           0
     29263 MEMB     219      POPC     C25      CTL2    -0.180000       12.0110           0
     29264 MEMB     219      POPC     H5R      HAL2     0.900000E-01   1.00800           0
     29265 MEMB     219      POPC     H5S      HAL2     0.900000E-01   1.00800           0
     29266 MEMB     219      POPC     C26      CTL2    -0.180000       12.0110           0
     29267 MEMB     219      POPC     H6R      HAL2     0.900000E-01   1.00800           0
     29268 MEMB     219      POPC     H6S      HAL2     0.900000E-01   1.00800           0
     29269 MEMB     219      POPC     C27      CTL2    -0.180000       12.0110           0
     29270 MEMB     219      POPC     H7R      HAL2     0.900000E-01   1.00800           0
     29271 MEMB     219      POPC     H7S      HAL2     0.900000E-01   1.00800           0
     29272 MEMB     219      POPC     C28      CTL2    -0.180000       12.0110           0
     29273 MEMB     219      POPC     H8R      HAL2     0.900000E-01   1.00800           0
     29274 MEMB     219      POPC     H8S      HAL2     0.900000E-01   1.00800           0
     29275 MEMB     219      POPC     C29      CEL1    -0.150000       12.0110           0
     29276 MEMB     219      POPC     H91      HEL1     0.150000       1.00800           0
     29277 MEMB     219      POPC     C210     CEL1    -0.150000       12.0110           0
     29278 MEMB     219      POPC     H101     HEL1     0.150000       1.00800           0
     29279 MEMB     219      POPC     C211     CTL2    -0.180000       12.0110           0
     29280 MEMB     219      POPC     H11R     HAL2     0.900000E-01   1.00800           0
     29281 MEMB     219      POPC     H11S     HAL2     0.900000E-01   1.00800           0
     29282 MEMB     219      POPC     C212     CTL2    -0.180000       12.0110           0
     29283 MEMB     219      POPC     H12R     HAL2     0.900000E-01   1.00800           0
     29284 MEMB     219      POPC     H12S     HAL2     0.900000E-01   1.00800           0
     29285 MEMB     219      POPC     C213     CTL2    -0.180000       12.0110           0
     29286 MEMB     219      POPC     H13R     HAL2     0.900000E-01   1.00800           0
     29287 MEMB     219      POPC     H13S     HAL2     0.900000E-01   1.00800           0
     29288 MEMB     219      POPC     C214     CTL2    -0.180000       12.0110           0
     29289 MEMB     219      POPC     H14R     HAL2     0.900000E-01   1.00800           0
     29290 MEMB     219      POPC     H14S     HAL2     0.900000E-01   1.00800           0
     29291 MEMB     219      POPC     C215     CTL2    -0.180000       12.0110           0
     29292 MEMB     219      POPC     H15R     HAL2     0.900000E-01   1.00800           0
     29293 MEMB     219      POPC     H15S     HAL2     0.900000E-01   1.00800           0
     29294 MEMB     219      POPC     C216     CTL2    -0.180000       12.0110           0
     29295 MEMB     219      POPC     H16R     HAL2     0.900000E-01   1.00800           0
     29296 MEMB     219      POPC     H16S     HAL2     0.900000E-01   1.00800           0
     29297 MEMB     219      POPC     C217     CTL2    -0.180000       12.0110           0
     29298 MEMB     219      POPC     H17R     HAL2     0.900000E-01   1.00800           0
     29299 MEMB     219      POPC     H17S     HAL2     0.900000E-01   1.00800           0
     29300 MEMB     219      POPC     C218     CTL3    -0.270000       12.0110           0
     29301 MEMB     219      POPC     H18R     HAL3     0.900000E-01   1.00800           0
     29302 MEMB     219      POPC     H18S     HAL3     0.900000E-01   1.00800           0
     29303 MEMB     219      POPC     H18T     HAL3     0.900000E-01   1.00800           0
     29304 MEMB     219      POPC     C33      CTL2    -0.180000       12.0110           0
     29305 MEMB     219      POPC     H3X      HAL2     0.900000E-01   1.00800           0
     29306 MEMB     219      POPC     H3Y      HAL2     0.900000E-01   1.00800           0
     29307 MEMB     219      POPC     C34      CTL2    -0.180000       12.0110           0
     29308 MEMB     219      POPC     H4X      HAL2     0.900000E-01   1.00800           0
     29309 MEMB     219      POPC     H4Y      HAL2     0.900000E-01   1.00800           0
     29310 MEMB     219      POPC     C35      CTL2    -0.180000       12.0110           0
     29311 MEMB     219      POPC     H5X      HAL2     0.900000E-01   1.00800           0
     29312 MEMB     219      POPC     H5Y      HAL2     0.900000E-01   1.00800           0
     29313 MEMB     219      POPC     C36      CTL2    -0.180000       12.0110           0
     29314 MEMB     219      POPC     H6X      HAL2     0.900000E-01   1.00800           0
     29315 MEMB     219      POPC     H6Y      HAL2     0.900000E-01   1.00800           0
     29316 MEMB     219      POPC     C37      CTL2    -0.180000       12.0110           0
     29317 MEMB     219      POPC     H7X      HAL2     0.900000E-01   1.00800           0
     29318 MEMB     219      POPC     H7Y      HAL2     0.900000E-01   1.00800           0
     29319 MEMB     219      POPC     C38      CTL2    -0.180000       12.0110           0
     29320 MEMB     219      POPC     H8X      HAL2     0.900000E-01   1.00800           0
     29321 MEMB     219      POPC     H8Y      HAL2     0.900000E-01   1.00800           0
     29322 MEMB     219      POPC     C39      CTL2    -0.180000       12.0110           0
     29323 MEMB     219      POPC     H9X      HAL2     0.900000E-01   1.00800           0
     29324 MEMB     219      POPC     H9Y      HAL2     0.900000E-01   1.00800           0
     29325 MEMB     219      POPC     C310     CTL2    -0.180000       12.0110           0
     29326 MEMB     219      POPC     H10X     HAL2     0.900000E-01   1.00800           0
     29327 MEMB     219      POPC     H10Y     HAL2     0.900000E-01   1.00800           0
     29328 MEMB     219      POPC     C311     CTL2    -0.180000       12.0110           0
     29329 MEMB     219      POPC     H11X     HAL2     0.900000E-01   1.00800           0
     29330 MEMB     219      POPC     H11Y     HAL2     0.900000E-01   1.00800           0
     29331 MEMB     219      POPC     C312     CTL2    -0.180000       12.0110           0
     29332 MEMB     219      POPC     H12X     HAL2     0.900000E-01   1.00800           0
     29333 MEMB     219      POPC     H12Y     HAL2     0.900000E-01   1.00800           0
     29334 MEMB     219      POPC     C313     CTL2    -0.180000       12.0110           0
     29335 MEMB     219      POPC     H13X     HAL2     0.900000E-01   1.00800           0
     29336 MEMB     219      POPC     H13Y     HAL2     0.900000E-01   1.00800           0
     29337 MEMB     219      POPC     C314     CTL2    -0.180000       12.0110           0
     29338 MEMB     219      POPC     H14X     HAL2     0.900000E-01   1.00800           0
     29339 MEMB     219      POPC     H14Y     HAL2     0.900000E-01   1.00800           0
     29340 MEMB     219      POPC     C315     CTL2    -0.180000       12.0110           0
     29341 MEMB     219      POPC     H15X     HAL2     0.900000E-01   1.00800           0
     29342 MEMB     219      POPC     H15Y     HAL2     0.900000E-01   1.00800           0
     29343 MEMB     219      POPC     C316     CTL3    -0.270000       12.0110           0
     29344 MEMB     219      POPC     H16X     HAL3     0.900000E-01   1.00800           0
     29345 MEMB     219      POPC     H16Y     HAL3     0.900000E-01   1.00800           0
     29346 MEMB     219      POPC     H16Z     HAL3     0.900000E-01   1.00800           0
     29347 MEMB     220      POPC     N        NTL     -0.600000       14.0070           0
     29348 MEMB     220      POPC     C12      CTL2    -0.100000       12.0110           0
     29349 MEMB     220      POPC     H12A     HL       0.250000       1.00800           0
     29350 MEMB     220      POPC     H12B     HL       0.250000       1.00800           0
     29351 MEMB     220      POPC     C13      CTL5    -0.350000       12.0110           0
     29352 MEMB     220      POPC     H13A     HL       0.250000       1.00800           0
     29353 MEMB     220      POPC     H13B     HL       0.250000       1.00800           0
     29354 MEMB     220      POPC     H13C     HL       0.250000       1.00800           0
     29355 MEMB     220      POPC     C14      CTL5    -0.350000       12.0110           0
     29356 MEMB     220      POPC     H14A     HL       0.250000       1.00800           0
     29357 MEMB     220      POPC     H14B     HL       0.250000       1.00800           0
     29358 MEMB     220      POPC     H14C     HL       0.250000       1.00800           0
     29359 MEMB     220      POPC     C15      CTL5    -0.350000       12.0110           0
     29360 MEMB     220      POPC     H15A     HL       0.250000       1.00800           0
     29361 MEMB     220      POPC     H15B     HL       0.250000       1.00800           0
     29362 MEMB     220      POPC     H15C     HL       0.250000       1.00800           0
     29363 MEMB     220      POPC     C11      CTL2    -0.800000E-01   12.0110           0
     29364 MEMB     220      POPC     H11A     HAL2     0.900000E-01   1.00800           0
     29365 MEMB     220      POPC     H11B     HAL2     0.900000E-01   1.00800           0
     29366 MEMB     220      POPC     P        PL       1.50000        30.9740           0
     29367 MEMB     220      POPC     O13      O2L     -0.780000       15.9994           0
     29368 MEMB     220      POPC     O14      O2L     -0.780000       15.9994           0
     29369 MEMB     220      POPC     O12      OSLP    -0.570000       15.9994           0
     29370 MEMB     220      POPC     O11      OSLP    -0.570000       15.9994           0
     29371 MEMB     220      POPC     C1       CTL2    -0.800000E-01   12.0110           0
     29372 MEMB     220      POPC     HA       HAL2     0.900000E-01   1.00800           0
     29373 MEMB     220      POPC     HB       HAL2     0.900000E-01   1.00800           0
     29374 MEMB     220      POPC     C2       CTL1     0.170000       12.0110           0
     29375 MEMB     220      POPC     HS       HAL1     0.900000E-01   1.00800           0
     29376 MEMB     220      POPC     O21      OSL     -0.490000       15.9994           0
     29377 MEMB     220      POPC     C21      CL       0.900000       12.0110           0
     29378 MEMB     220      POPC     O22      OBL     -0.630000       15.9994           0
     29379 MEMB     220      POPC     C22      CTL2    -0.220000       12.0110           0
     29380 MEMB     220      POPC     H2R      HAL2     0.900000E-01   1.00800           0
     29381 MEMB     220      POPC     H2S      HAL2     0.900000E-01   1.00800           0
     29382 MEMB     220      POPC     C3       CTL2     0.800000E-01   12.0110           0
     29383 MEMB     220      POPC     HX       HAL2     0.900000E-01   1.00800           0
     29384 MEMB     220      POPC     HY       HAL2     0.900000E-01   1.00800           0
     29385 MEMB     220      POPC     O31      OSL     -0.490000       15.9994           0
     29386 MEMB     220      POPC     C31      CL       0.900000       12.0110           0
     29387 MEMB     220      POPC     O32      OBL     -0.630000       15.9994           0
     29388 MEMB     220      POPC     C32      CTL2    -0.220000       12.0110           0
     29389 MEMB     220      POPC     H2X      HAL2     0.900000E-01   1.00800           0
     29390 MEMB     220      POPC     H2Y      HAL2     0.900000E-01   1.00800           0
     29391 MEMB     220      POPC     C23      CTL2    -0.180000       12.0110           0
     29392 MEMB     220      POPC     H3R      HAL2     0.900000E-01   1.00800           0
     29393 MEMB     220      POPC     H3S      HAL2     0.900000E-01   1.00800           0
     29394 MEMB     220      POPC     C24      CTL2    -0.180000       12.0110           0
     29395 MEMB     220      POPC     H4R      HAL2     0.900000E-01   1.00800           0
     29396 MEMB     220      POPC     H4S      HAL2     0.900000E-01   1.00800           0
     29397 MEMB     220      POPC     C25      CTL2    -0.180000       12.0110           0
     29398 MEMB     220      POPC     H5R      HAL2     0.900000E-01   1.00800           0
     29399 MEMB     220      POPC     H5S      HAL2     0.900000E-01   1.00800           0
     29400 MEMB     220      POPC     C26      CTL2    -0.180000       12.0110           0
     29401 MEMB     220      POPC     H6R      HAL2     0.900000E-01   1.00800           0
     29402 MEMB     220      POPC     H6S      HAL2     0.900000E-01   1.00800           0
     29403 MEMB     220      POPC     C27      CTL2    -0.180000       12.0110           0
     29404 MEMB     220      POPC     H7R      HAL2     0.900000E-01   1.00800           0
     29405 MEMB     220      POPC     H7S      HAL2     0.900000E-01   1.00800           0
     29406 MEMB     220      POPC     C28      CTL2    -0.180000       12.0110           0
     29407 MEMB     220      POPC     H8R      HAL2     0.900000E-01   1.00800           0
     29408 MEMB     220      POPC     H8S      HAL2     0.900000E-01   1.00800           0
     29409 MEMB     220      POPC     C29      CEL1    -0.150000       12.0110           0
     29410 MEMB     220      POPC     H91      HEL1     0.150000       1.00800           0
     29411 MEMB     220      POPC     C210     CEL1    -0.150000       12.0110           0
     29412 MEMB     220      POPC     H101     HEL1     0.150000       1.00800           0
     29413 MEMB     220      POPC     C211     CTL2    -0.180000       12.0110           0
     29414 MEMB     220      POPC     H11R     HAL2     0.900000E-01   1.00800           0
     29415 MEMB     220      POPC     H11S     HAL2     0.900000E-01   1.00800           0
     29416 MEMB     220      POPC     C212     CTL2    -0.180000       12.0110           0
     29417 MEMB     220      POPC     H12R     HAL2     0.900000E-01   1.00800           0
     29418 MEMB     220      POPC     H12S     HAL2     0.900000E-01   1.00800           0
     29419 MEMB     220      POPC     C213     CTL2    -0.180000       12.0110           0
     29420 MEMB     220      POPC     H13R     HAL2     0.900000E-01   1.00800           0
     29421 MEMB     220      POPC     H13S     HAL2     0.900000E-01   1.00800           0
     29422 MEMB     220      POPC     C214     CTL2    -0.180000       12.0110           0
     29423 MEMB     220      POPC     H14R     HAL2     0.900000E-01   1.00800           0
     29424 MEMB     220      POPC     H14S     HAL2     0.900000E-01   1.00800           0
     29425 MEMB     220      POPC     C215     CTL2    -0.180000       12.0110           0
     29426 MEMB     220      POPC     H15R     HAL2     0.900000E-01   1.00800           0
     29427 MEMB     220      POPC     H15S     HAL2     0.900000E-01   1.00800           0
     29428 MEMB     220      POPC     C216     CTL2    -0.180000       12.0110           0
     29429 MEMB     220      POPC     H16R     HAL2     0.900000E-01   1.00800           0
     29430 MEMB     220      POPC     H16S     HAL2     0.900000E-01   1.00800           0
     29431 MEMB     220      POPC     C217     CTL2    -0.180000       12.0110           0
     29432 MEMB     220      POPC     H17R     HAL2     0.900000E-01   1.00800           0
     29433 MEMB     220      POPC     H17S     HAL2     0.900000E-01   1.00800           0
     29434 MEMB     220      POPC     C218     CTL3    -0.270000       12.0110           0
     29435 MEMB     220      POPC     H18R     HAL3     0.900000E-01   1.00800           0
     29436 MEMB     220      POPC     H18S     HAL3     0.900000E-01   1.00800           0
     29437 MEMB     220      POPC     H18T     HAL3     0.900000E-01   1.00800           0
     29438 MEMB     220      POPC     C33      CTL2    -0.180000       12.0110           0
     29439 MEMB     220      POPC     H3X      HAL2     0.900000E-01   1.00800           0
     29440 MEMB     220      POPC     H3Y      HAL2     0.900000E-01   1.00800           0
     29441 MEMB     220      POPC     C34      CTL2    -0.180000       12.0110           0
     29442 MEMB     220      POPC     H4X      HAL2     0.900000E-01   1.00800           0
     29443 MEMB     220      POPC     H4Y      HAL2     0.900000E-01   1.00800           0
     29444 MEMB     220      POPC     C35      CTL2    -0.180000       12.0110           0
     29445 MEMB     220      POPC     H5X      HAL2     0.900000E-01   1.00800           0
     29446 MEMB     220      POPC     H5Y      HAL2     0.900000E-01   1.00800           0
     29447 MEMB     220      POPC     C36      CTL2    -0.180000       12.0110           0
     29448 MEMB     220      POPC     H6X      HAL2     0.900000E-01   1.00800           0
     29449 MEMB     220      POPC     H6Y      HAL2     0.900000E-01   1.00800           0
     29450 MEMB     220      POPC     C37      CTL2    -0.180000       12.0110           0
     29451 MEMB     220      POPC     H7X      HAL2     0.900000E-01   1.00800           0
     29452 MEMB     220      POPC     H7Y      HAL2     0.900000E-01   1.00800           0
     29453 MEMB     220      POPC     C38      CTL2    -0.180000       12.0110           0
     29454 MEMB     220      POPC     H8X      HAL2     0.900000E-01   1.00800           0
     29455 MEMB     220      POPC     H8Y      HAL2     0.900000E-01   1.00800           0
     29456 MEMB     220      POPC     C39      CTL2    -0.180000       12.0110           0
     29457 MEMB     220      POPC     H9X      HAL2     0.900000E-01   1.00800           0
     29458 MEMB     220      POPC     H9Y      HAL2     0.900000E-01   1.00800           0
     29459 MEMB     220      POPC     C310     CTL2    -0.180000       12.0110           0
     29460 MEMB     220      POPC     H10X     HAL2     0.900000E-01   1.00800           0
     29461 MEMB     220      POPC     H10Y     HAL2     0.900000E-01   1.00800           0
     29462 MEMB     220      POPC     C311     CTL2    -0.180000       12.0110           0
     29463 MEMB     220      POPC     H11X     HAL2     0.900000E-01   1.00800           0
     29464 MEMB     220      POPC     H11Y     HAL2     0.900000E-01   1.00800           0
     29465 MEMB     220      POPC     C312     CTL2    -0.180000       12.0110           0
     29466 MEMB     220      POPC     H12X     HAL2     0.900000E-01   1.00800           0
     29467 MEMB     220      POPC     H12Y     HAL2     0.900000E-01   1.00800           0
     29468 MEMB     220      POPC     C313     CTL2    -0.180000       12.0110           0
     29469 MEMB     220      POPC     H13X     HAL2     0.900000E-01   1.00800           0
     29470 MEMB     220      POPC     H13Y     HAL2     0.900000E-01   1.00800           0
     29471 MEMB     220      POPC     C314     CTL2    -0.180000       12.0110           0
     29472 MEMB     220      POPC     H14X     HAL2     0.900000E-01   1.00800           0
     29473 MEMB     220      POPC     H14Y     HAL2     0.900000E-01   1.00800           0
     29474 MEMB     220      POPC     C315     CTL2    -0.180000       12.0110           0
     29475 MEMB     220      POPC     H15X     HAL2     0.900000E-01   1.00800           0
     29476 MEMB     220      POPC     H15Y     HAL2     0.900000E-01   1.00800           0
     29477 MEMB     220      POPC     C316     CTL3    -0.270000       12.0110           0
     29478 MEMB     220      POPC     H16X     HAL3     0.900000E-01   1.00800           0
     29479 MEMB     220      POPC     H16Y     HAL3     0.900000E-01   1.00800           0
     29480 MEMB     220      POPC     H16Z     HAL3     0.900000E-01   1.00800           0
     29481 MEMB     221      POPC     N        NTL     -0.600000       14.0070           0
     29482 MEMB     221      POPC     C12      CTL2    -0.100000       12.0110           0
     29483 MEMB     221      POPC     H12A     HL       0.250000       1.00800           0
     29484 MEMB     221      POPC     H12B     HL       0.250000       1.00800           0
     29485 MEMB     221      POPC     C13      CTL5    -0.350000       12.0110           0
     29486 MEMB     221      POPC     H13A     HL       0.250000       1.00800           0
     29487 MEMB     221      POPC     H13B     HL       0.250000       1.00800           0
     29488 MEMB     221      POPC     H13C     HL       0.250000       1.00800           0
     29489 MEMB     221      POPC     C14      CTL5    -0.350000       12.0110           0
     29490 MEMB     221      POPC     H14A     HL       0.250000       1.00800           0
     29491 MEMB     221      POPC     H14B     HL       0.250000       1.00800           0
     29492 MEMB     221      POPC     H14C     HL       0.250000       1.00800           0
     29493 MEMB     221      POPC     C15      CTL5    -0.350000       12.0110           0
     29494 MEMB     221      POPC     H15A     HL       0.250000       1.00800           0
     29495 MEMB     221      POPC     H15B     HL       0.250000       1.00800           0
     29496 MEMB     221      POPC     H15C     HL       0.250000       1.00800           0
     29497 MEMB     221      POPC     C11      CTL2    -0.800000E-01   12.0110           0
     29498 MEMB     221      POPC     H11A     HAL2     0.900000E-01   1.00800           0
     29499 MEMB     221      POPC     H11B     HAL2     0.900000E-01   1.00800           0
     29500 MEMB     221      POPC     P        PL       1.50000        30.9740           0
     29501 MEMB     221      POPC     O13      O2L     -0.780000       15.9994           0
     29502 MEMB     221      POPC     O14      O2L     -0.780000       15.9994           0
     29503 MEMB     221      POPC     O12      OSLP    -0.570000       15.9994           0
     29504 MEMB     221      POPC     O11      OSLP    -0.570000       15.9994           0
     29505 MEMB     221      POPC     C1       CTL2    -0.800000E-01   12.0110           0
     29506 MEMB     221      POPC     HA       HAL2     0.900000E-01   1.00800           0
     29507 MEMB     221      POPC     HB       HAL2     0.900000E-01   1.00800           0
     29508 MEMB     221      POPC     C2       CTL1     0.170000       12.0110           0
     29509 MEMB     221      POPC     HS       HAL1     0.900000E-01   1.00800           0
     29510 MEMB     221      POPC     O21      OSL     -0.490000       15.9994           0
     29511 MEMB     221      POPC     C21      CL       0.900000       12.0110           0
     29512 MEMB     221      POPC     O22      OBL     -0.630000       15.9994           0
     29513 MEMB     221      POPC     C22      CTL2    -0.220000       12.0110           0
     29514 MEMB     221      POPC     H2R      HAL2     0.900000E-01   1.00800           0
     29515 MEMB     221      POPC     H2S      HAL2     0.900000E-01   1.00800           0
     29516 MEMB     221      POPC     C3       CTL2     0.800000E-01   12.0110           0
     29517 MEMB     221      POPC     HX       HAL2     0.900000E-01   1.00800           0
     29518 MEMB     221      POPC     HY       HAL2     0.900000E-01   1.00800           0
     29519 MEMB     221      POPC     O31      OSL     -0.490000       15.9994           0
     29520 MEMB     221      POPC     C31      CL       0.900000       12.0110           0
     29521 MEMB     221      POPC     O32      OBL     -0.630000       15.9994           0
     29522 MEMB     221      POPC     C32      CTL2    -0.220000       12.0110           0
     29523 MEMB     221      POPC     H2X      HAL2     0.900000E-01   1.00800           0
     29524 MEMB     221      POPC     H2Y      HAL2     0.900000E-01   1.00800           0
     29525 MEMB     221      POPC     C23      CTL2    -0.180000       12.0110           0
     29526 MEMB     221      POPC     H3R      HAL2     0.900000E-01   1.00800           0
     29527 MEMB     221      POPC     H3S      HAL2     0.900000E-01   1.00800           0
     29528 MEMB     221      POPC     C24      CTL2    -0.180000       12.0110           0
     29529 MEMB     221      POPC     H4R      HAL2     0.900000E-01   1.00800           0
     29530 MEMB     221      POPC     H4S      HAL2     0.900000E-01   1.00800           0
     29531 MEMB     221      POPC     C25      CTL2    -0.180000       12.0110           0
     29532 MEMB     221      POPC     H5R      HAL2     0.900000E-01   1.00800           0
     29533 MEMB     221      POPC     H5S      HAL2     0.900000E-01   1.00800           0
     29534 MEMB     221      POPC     C26      CTL2    -0.180000       12.0110           0
     29535 MEMB     221      POPC     H6R      HAL2     0.900000E-01   1.00800           0
     29536 MEMB     221      POPC     H6S      HAL2     0.900000E-01   1.00800           0
     29537 MEMB     221      POPC     C27      CTL2    -0.180000       12.0110           0
     29538 MEMB     221      POPC     H7R      HAL2     0.900000E-01   1.00800           0
     29539 MEMB     221      POPC     H7S      HAL2     0.900000E-01   1.00800           0
     29540 MEMB     221      POPC     C28      CTL2    -0.180000       12.0110           0
     29541 MEMB     221      POPC     H8R      HAL2     0.900000E-01   1.00800           0
     29542 MEMB     221      POPC     H8S      HAL2     0.900000E-01   1.00800           0
     29543 MEMB     221      POPC     C29      CEL1    -0.150000       12.0110           0
     29544 MEMB     221      POPC     H91      HEL1     0.150000       1.00800           0
     29545 MEMB     221      POPC     C210     CEL1    -0.150000       12.0110           0
     29546 MEMB     221      POPC     H101     HEL1     0.150000       1.00800           0
     29547 MEMB     221      POPC     C211     CTL2    -0.180000       12.0110           0
     29548 MEMB     221      POPC     H11R     HAL2     0.900000E-01   1.00800           0
     29549 MEMB     221      POPC     H11S     HAL2     0.900000E-01   1.00800           0
     29550 MEMB     221      POPC     C212     CTL2    -0.180000       12.0110           0
     29551 MEMB     221      POPC     H12R     HAL2     0.900000E-01   1.00800           0
     29552 MEMB     221      POPC     H12S     HAL2     0.900000E-01   1.00800           0
     29553 MEMB     221      POPC     C213     CTL2    -0.180000       12.0110           0
     29554 MEMB     221      POPC     H13R     HAL2     0.900000E-01   1.00800           0
     29555 MEMB     221      POPC     H13S     HAL2     0.900000E-01   1.00800           0
     29556 MEMB     221      POPC     C214     CTL2    -0.180000       12.0110           0
     29557 MEMB     221      POPC     H14R     HAL2     0.900000E-01   1.00800           0
     29558 MEMB     221      POPC     H14S     HAL2     0.900000E-01   1.00800           0
     29559 MEMB     221      POPC     C215     CTL2    -0.180000       12.0110           0
     29560 MEMB     221      POPC     H15R     HAL2     0.900000E-01   1.00800           0
     29561 MEMB     221      POPC     H15S     HAL2     0.900000E-01   1.00800           0
     29562 MEMB     221      POPC     C216     CTL2    -0.180000       12.0110           0
     29563 MEMB     221      POPC     H16R     HAL2     0.900000E-01   1.00800           0
     29564 MEMB     221      POPC     H16S     HAL2     0.900000E-01   1.00800           0
     29565 MEMB     221      POPC     C217     CTL2    -0.180000       12.0110           0
     29566 MEMB     221      POPC     H17R     HAL2     0.900000E-01   1.00800           0
     29567 MEMB     221      POPC     H17S     HAL2     0.900000E-01   1.00800           0
     29568 MEMB     221      POPC     C218     CTL3    -0.270000       12.0110           0
     29569 MEMB     221      POPC     H18R     HAL3     0.900000E-01   1.00800           0
     29570 MEMB     221      POPC     H18S     HAL3     0.900000E-01   1.00800           0
     29571 MEMB     221      POPC     H18T     HAL3     0.900000E-01   1.00800           0
     29572 MEMB     221      POPC     C33      CTL2    -0.180000       12.0110           0
     29573 MEMB     221      POPC     H3X      HAL2     0.900000E-01   1.00800           0
     29574 MEMB     221      POPC     H3Y      HAL2     0.900000E-01   1.00800           0
     29575 MEMB     221      POPC     C34      CTL2    -0.180000       12.0110           0
     29576 MEMB     221      POPC     H4X      HAL2     0.900000E-01   1.00800           0
     29577 MEMB     221      POPC     H4Y      HAL2     0.900000E-01   1.00800           0
     29578 MEMB     221      POPC     C35      CTL2    -0.180000       12.0110           0
     29579 MEMB     221      POPC     H5X      HAL2     0.900000E-01   1.00800           0
     29580 MEMB     221      POPC     H5Y      HAL2     0.900000E-01   1.00800           0
     29581 MEMB     221      POPC     C36      CTL2    -0.180000       12.0110           0
     29582 MEMB     221      POPC     H6X      HAL2     0.900000E-01   1.00800           0
     29583 MEMB     221      POPC     H6Y      HAL2     0.900000E-01   1.00800           0
     29584 MEMB     221      POPC     C37      CTL2    -0.180000       12.0110           0
     29585 MEMB     221      POPC     H7X      HAL2     0.900000E-01   1.00800           0
     29586 MEMB     221      POPC     H7Y      HAL2     0.900000E-01   1.00800           0
     29587 MEMB     221      POPC     C38      CTL2    -0.180000       12.0110           0
     29588 MEMB     221      POPC     H8X      HAL2     0.900000E-01   1.00800           0
     29589 MEMB     221      POPC     H8Y      HAL2     0.900000E-01   1.00800           0
     29590 MEMB     221      POPC     C39      CTL2    -0.180000       12.0110           0
     29591 MEMB     221      POPC     H9X      HAL2     0.900000E-01   1.00800           0
     29592 MEMB     221      POPC     H9Y      HAL2     0.900000E-01   1.00800           0
     29593 MEMB     221      POPC     C310     CTL2    -0.180000       12.0110           0
     29594 MEMB     221      POPC     H10X     HAL2     0.900000E-01   1.00800           0
     29595 MEMB     221      POPC     H10Y     HAL2     0.900000E-01   1.00800           0
     29596 MEMB     221      POPC     C311     CTL2    -0.180000       12.0110           0
     29597 MEMB     221      POPC     H11X     HAL2     0.900000E-01   1.00800           0
     29598 MEMB     221      POPC     H11Y     HAL2     0.900000E-01   1.00800           0
     29599 MEMB     221      POPC     C312     CTL2    -0.180000       12.0110           0
     29600 MEMB     221      POPC     H12X     HAL2     0.900000E-01   1.00800           0
     29601 MEMB     221      POPC     H12Y     HAL2     0.900000E-01   1.00800           0
     29602 MEMB     221      POPC     C313     CTL2    -0.180000       12.0110           0
     29603 MEMB     221      POPC     H13X     HAL2     0.900000E-01   1.00800           0
     29604 MEMB     221      POPC     H13Y     HAL2     0.900000E-01   1.00800           0
     29605 MEMB     221      POPC     C314     CTL2    -0.180000       12.0110           0
     29606 MEMB     221      POPC     H14X     HAL2     0.900000E-01   1.00800           0
     29607 MEMB     221      POPC     H14Y     HAL2     0.900000E-01   1.00800           0
     29608 MEMB     221      POPC     C315     CTL2    -0.180000       12.0110           0
     29609 MEMB     221      POPC     H15X     HAL2     0.900000E-01   1.00800           0
     29610 MEMB     221      POPC     H15Y     HAL2     0.900000E-01   1.00800           0
     29611 MEMB     221      POPC     C316     CTL3    -0.270000       12.0110           0
     29612 MEMB     221      POPC     H16X     HAL3     0.900000E-01   1.00800           0
     29613 MEMB     221      POPC     H16Y     HAL3     0.900000E-01   1.00800           0
     29614 MEMB     221      POPC     H16Z     HAL3     0.900000E-01   1.00800           0
     29615 MEMB     222      POPC     N        NTL     -0.600000       14.0070           0
     29616 MEMB     222      POPC     C12      CTL2    -0.100000       12.0110           0
     29617 MEMB     222      POPC     H12A     HL       0.250000       1.00800           0
     29618 MEMB     222      POPC     H12B     HL       0.250000       1.00800           0
     29619 MEMB     222      POPC     C13      CTL5    -0.350000       12.0110           0
     29620 MEMB     222      POPC     H13A     HL       0.250000       1.00800           0
     29621 MEMB     222      POPC     H13B     HL       0.250000       1.00800           0
     29622 MEMB     222      POPC     H13C     HL       0.250000       1.00800           0
     29623 MEMB     222      POPC     C14      CTL5    -0.350000       12.0110           0
     29624 MEMB     222      POPC     H14A     HL       0.250000       1.00800           0
     29625 MEMB     222      POPC     H14B     HL       0.250000       1.00800           0
     29626 MEMB     222      POPC     H14C     HL       0.250000       1.00800           0
     29627 MEMB     222      POPC     C15      CTL5    -0.350000       12.0110           0
     29628 MEMB     222      POPC     H15A     HL       0.250000       1.00800           0
     29629 MEMB     222      POPC     H15B     HL       0.250000       1.00800           0
     29630 MEMB     222      POPC     H15C     HL       0.250000       1.00800           0
     29631 MEMB     222      POPC     C11      CTL2    -0.800000E-01   12.0110           0
     29632 MEMB     222      POPC     H11A     HAL2     0.900000E-01   1.00800           0
     29633 MEMB     222      POPC     H11B     HAL2     0.900000E-01   1.00800           0
     29634 MEMB     222      POPC     P        PL       1.50000        30.9740           0
     29635 MEMB     222      POPC     O13      O2L     -0.780000       15.9994           0
     29636 MEMB     222      POPC     O14      O2L     -0.780000       15.9994           0
     29637 MEMB     222      POPC     O12      OSLP    -0.570000       15.9994           0
     29638 MEMB     222      POPC     O11      OSLP    -0.570000       15.9994           0
     29639 MEMB     222      POPC     C1       CTL2    -0.800000E-01   12.0110           0
     29640 MEMB     222      POPC     HA       HAL2     0.900000E-01   1.00800           0
     29641 MEMB     222      POPC     HB       HAL2     0.900000E-01   1.00800           0
     29642 MEMB     222      POPC     C2       CTL1     0.170000       12.0110           0
     29643 MEMB     222      POPC     HS       HAL1     0.900000E-01   1.00800           0
     29644 MEMB     222      POPC     O21      OSL     -0.490000       15.9994           0
     29645 MEMB     222      POPC     C21      CL       0.900000       12.0110           0
     29646 MEMB     222      POPC     O22      OBL     -0.630000       15.9994           0
     29647 MEMB     222      POPC     C22      CTL2    -0.220000       12.0110           0
     29648 MEMB     222      POPC     H2R      HAL2     0.900000E-01   1.00800           0
     29649 MEMB     222      POPC     H2S      HAL2     0.900000E-01   1.00800           0
     29650 MEMB     222      POPC     C3       CTL2     0.800000E-01   12.0110           0
     29651 MEMB     222      POPC     HX       HAL2     0.900000E-01   1.00800           0
     29652 MEMB     222      POPC     HY       HAL2     0.900000E-01   1.00800           0
     29653 MEMB     222      POPC     O31      OSL     -0.490000       15.9994           0
     29654 MEMB     222      POPC     C31      CL       0.900000       12.0110           0
     29655 MEMB     222      POPC     O32      OBL     -0.630000       15.9994           0
     29656 MEMB     222      POPC     C32      CTL2    -0.220000       12.0110           0
     29657 MEMB     222      POPC     H2X      HAL2     0.900000E-01   1.00800           0
     29658 MEMB     222      POPC     H2Y      HAL2     0.900000E-01   1.00800           0
     29659 MEMB     222      POPC     C23      CTL2    -0.180000       12.0110           0
     29660 MEMB     222      POPC     H3R      HAL2     0.900000E-01   1.00800           0
     29661 MEMB     222      POPC     H3S      HAL2     0.900000E-01   1.00800           0
     29662 MEMB     222      POPC     C24      CTL2    -0.180000       12.0110           0
     29663 MEMB     222      POPC     H4R      HAL2     0.900000E-01   1.00800           0
     29664 MEMB     222      POPC     H4S      HAL2     0.900000E-01   1.00800           0
     29665 MEMB     222      POPC     C25      CTL2    -0.180000       12.0110           0
     29666 MEMB     222      POPC     H5R      HAL2     0.900000E-01   1.00800           0
     29667 MEMB     222      POPC     H5S      HAL2     0.900000E-01   1.00800           0
     29668 MEMB     222      POPC     C26      CTL2    -0.180000       12.0110           0
     29669 MEMB     222      POPC     H6R      HAL2     0.900000E-01   1.00800           0
     29670 MEMB     222      POPC     H6S      HAL2     0.900000E-01   1.00800           0
     29671 MEMB     222      POPC     C27      CTL2    -0.180000       12.0110           0
     29672 MEMB     222      POPC     H7R      HAL2     0.900000E-01   1.00800           0
     29673 MEMB     222      POPC     H7S      HAL2     0.900000E-01   1.00800           0
     29674 MEMB     222      POPC     C28      CTL2    -0.180000       12.0110           0
     29675 MEMB     222      POPC     H8R      HAL2     0.900000E-01   1.00800           0
     29676 MEMB     222      POPC     H8S      HAL2     0.900000E-01   1.00800           0
     29677 MEMB     222      POPC     C29      CEL1    -0.150000       12.0110           0
     29678 MEMB     222      POPC     H91      HEL1     0.150000       1.00800           0
     29679 MEMB     222      POPC     C210     CEL1    -0.150000       12.0110           0
     29680 MEMB     222      POPC     H101     HEL1     0.150000       1.00800           0
     29681 MEMB     222      POPC     C211     CTL2    -0.180000       12.0110           0
     29682 MEMB     222      POPC     H11R     HAL2     0.900000E-01   1.00800           0
     29683 MEMB     222      POPC     H11S     HAL2     0.900000E-01   1.00800           0
     29684 MEMB     222      POPC     C212     CTL2    -0.180000       12.0110           0
     29685 MEMB     222      POPC     H12R     HAL2     0.900000E-01   1.00800           0
     29686 MEMB     222      POPC     H12S     HAL2     0.900000E-01   1.00800           0
     29687 MEMB     222      POPC     C213     CTL2    -0.180000       12.0110           0
     29688 MEMB     222      POPC     H13R     HAL2     0.900000E-01   1.00800           0
     29689 MEMB     222      POPC     H13S     HAL2     0.900000E-01   1.00800           0
     29690 MEMB     222      POPC     C214     CTL2    -0.180000       12.0110           0
     29691 MEMB     222      POPC     H14R     HAL2     0.900000E-01   1.00800           0
     29692 MEMB     222      POPC     H14S     HAL2     0.900000E-01   1.00800           0
     29693 MEMB     222      POPC     C215     CTL2    -0.180000       12.0110           0
     29694 MEMB     222      POPC     H15R     HAL2     0.900000E-01   1.00800           0
     29695 MEMB     222      POPC     H15S     HAL2     0.900000E-01   1.00800           0
     29696 MEMB     222      POPC     C216     CTL2    -0.180000       12.0110           0
     29697 MEMB     222      POPC     H16R     HAL2     0.900000E-01   1.00800           0
     29698 MEMB     222      POPC     H16S     HAL2     0.900000E-01   1.00800           0
     29699 MEMB     222      POPC     C217     CTL2    -0.180000       12.0110           0
     29700 MEMB     222      POPC     H17R     HAL2     0.900000E-01   1.00800           0
     29701 MEMB     222      POPC     H17S     HAL2     0.900000E-01   1.00800           0
     29702 MEMB     222      POPC     C218     CTL3    -0.270000       12.0110           0
     29703 MEMB     222      POPC     H18R     HAL3     0.900000E-01   1.00800           0
     29704 MEMB     222      POPC     H18S     HAL3     0.900000E-01   1.00800           0
     29705 MEMB     222      POPC     H18T     HAL3     0.900000E-01   1.00800           0
     29706 MEMB     222      POPC     C33      CTL2    -0.180000       12.0110           0
     29707 MEMB     222      POPC     H3X      HAL2     0.900000E-01   1.00800           0
     29708 MEMB     222      POPC     H3Y      HAL2     0.900000E-01   1.00800           0
     29709 MEMB     222      POPC     C34      CTL2    -0.180000       12.0110           0
     29710 MEMB     222      POPC     H4X      HAL2     0.900000E-01   1.00800           0
     29711 MEMB     222      POPC     H4Y      HAL2     0.900000E-01   1.00800           0
     29712 MEMB     222      POPC     C35      CTL2    -0.180000       12.0110           0
     29713 MEMB     222      POPC     H5X      HAL2     0.900000E-01   1.00800           0
     29714 MEMB     222      POPC     H5Y      HAL2     0.900000E-01   1.00800           0
     29715 MEMB     222      POPC     C36      CTL2    -0.180000       12.0110           0
     29716 MEMB     222      POPC     H6X      HAL2     0.900000E-01   1.00800           0
     29717 MEMB     222      POPC     H6Y      HAL2     0.900000E-01   1.00800           0
     29718 MEMB     222      POPC     C37      CTL2    -0.180000       12.0110           0
     29719 MEMB     222      POPC     H7X      HAL2     0.900000E-01   1.00800           0
     29720 MEMB     222      POPC     H7Y      HAL2     0.900000E-01   1.00800           0
     29721 MEMB     222      POPC     C38      CTL2    -0.180000       12.0110           0
     29722 MEMB     222      POPC     H8X      HAL2     0.900000E-01   1.00800           0
     29723 MEMB     222      POPC     H8Y      HAL2     0.900000E-01   1.00800           0
     29724 MEMB     222      POPC     C39      CTL2    -0.180000       12.0110           0
     29725 MEMB     222      POPC     H9X      HAL2     0.900000E-01   1.00800           0
     29726 MEMB     222      POPC     H9Y      HAL2     0.900000E-01   1.00800           0
     29727 MEMB     222      POPC     C310     CTL2    -0.180000       12.0110           0
     29728 MEMB     222      POPC     H10X     HAL2     0.900000E-01   1.00800           0
     29729 MEMB     222      POPC     H10Y     HAL2     0.900000E-01   1.00800           0
     29730 MEMB     222      POPC     C311     CTL2    -0.180000       12.0110           0
     29731 MEMB     222      POPC     H11X     HAL2     0.900000E-01   1.00800           0
     29732 MEMB     222      POPC     H11Y     HAL2     0.900000E-01   1.00800           0
     29733 MEMB     222      POPC     C312     CTL2    -0.180000       12.0110           0
     29734 MEMB     222      POPC     H12X     HAL2     0.900000E-01   1.00800           0
     29735 MEMB     222      POPC     H12Y     HAL2     0.900000E-01   1.00800           0
     29736 MEMB     222      POPC     C313     CTL2    -0.180000       12.0110           0
     29737 MEMB     222      POPC     H13X     HAL2     0.900000E-01   1.00800           0
     29738 MEMB     222      POPC     H13Y     HAL2     0.900000E-01   1.00800           0
     29739 MEMB     222      POPC     C314     CTL2    -0.180000       12.0110           0
     29740 MEMB     222      POPC     H14X     HAL2     0.900000E-01   1.00800           0
     29741 MEMB     222      POPC     H14Y     HAL2     0.900000E-01   1.00800           0
     29742 MEMB     222      POPC     C315     CTL2    -0.180000       12.0110           0
     29743 MEMB     222      POPC     H15X     HAL2     0.900000E-01   1.00800           0
     29744 MEMB     222      POPC     H15Y     HAL2     0.900000E-01   1.00800           0
     29745 MEMB     222      POPC     C316     CTL3    -0.270000       12.0110           0
     29746 MEMB     222      POPC     H16X     HAL3     0.900000E-01   1.00800           0
     29747 MEMB     222      POPC     H16Y     HAL3     0.900000E-01   1.00800           0
     29748 MEMB     222      POPC     H16Z     HAL3     0.900000E-01   1.00800           0
     29749 MEMB     223      POPC     N        NTL     -0.600000       14.0070           0
     29750 MEMB     223      POPC     C12      CTL2    -0.100000       12.0110           0
     29751 MEMB     223      POPC     H12A     HL       0.250000       1.00800           0
     29752 MEMB     223      POPC     H12B     HL       0.250000       1.00800           0
     29753 MEMB     223      POPC     C13      CTL5    -0.350000       12.0110           0
     29754 MEMB     223      POPC     H13A     HL       0.250000       1.00800           0
     29755 MEMB     223      POPC     H13B     HL       0.250000       1.00800           0
     29756 MEMB     223      POPC     H13C     HL       0.250000       1.00800           0
     29757 MEMB     223      POPC     C14      CTL5    -0.350000       12.0110           0
     29758 MEMB     223      POPC     H14A     HL       0.250000       1.00800           0
     29759 MEMB     223      POPC     H14B     HL       0.250000       1.00800           0
     29760 MEMB     223      POPC     H14C     HL       0.250000       1.00800           0
     29761 MEMB     223      POPC     C15      CTL5    -0.350000       12.0110           0
     29762 MEMB     223      POPC     H15A     HL       0.250000       1.00800           0
     29763 MEMB     223      POPC     H15B     HL       0.250000       1.00800           0
     29764 MEMB     223      POPC     H15C     HL       0.250000       1.00800           0
     29765 MEMB     223      POPC     C11      CTL2    -0.800000E-01   12.0110           0
     29766 MEMB     223      POPC     H11A     HAL2     0.900000E-01   1.00800           0
     29767 MEMB     223      POPC     H11B     HAL2     0.900000E-01   1.00800           0
     29768 MEMB     223      POPC     P        PL       1.50000        30.9740           0
     29769 MEMB     223      POPC     O13      O2L     -0.780000       15.9994           0
     29770 MEMB     223      POPC     O14      O2L     -0.780000       15.9994           0
     29771 MEMB     223      POPC     O12      OSLP    -0.570000       15.9994           0
     29772 MEMB     223      POPC     O11      OSLP    -0.570000       15.9994           0
     29773 MEMB     223      POPC     C1       CTL2    -0.800000E-01   12.0110           0
     29774 MEMB     223      POPC     HA       HAL2     0.900000E-01   1.00800           0
     29775 MEMB     223      POPC     HB       HAL2     0.900000E-01   1.00800           0
     29776 MEMB     223      POPC     C2       CTL1     0.170000       12.0110           0
     29777 MEMB     223      POPC     HS       HAL1     0.900000E-01   1.00800           0
     29778 MEMB     223      POPC     O21      OSL     -0.490000       15.9994           0
     29779 MEMB     223      POPC     C21      CL       0.900000       12.0110           0
     29780 MEMB     223      POPC     O22      OBL     -0.630000       15.9994           0
     29781 MEMB     223      POPC     C22      CTL2    -0.220000       12.0110           0
     29782 MEMB     223      POPC     H2R      HAL2     0.900000E-01   1.00800           0
     29783 MEMB     223      POPC     H2S      HAL2     0.900000E-01   1.00800           0
     29784 MEMB     223      POPC     C3       CTL2     0.800000E-01   12.0110           0
     29785 MEMB     223      POPC     HX       HAL2     0.900000E-01   1.00800           0
     29786 MEMB     223      POPC     HY       HAL2     0.900000E-01   1.00800           0
     29787 MEMB     223      POPC     O31      OSL     -0.490000       15.9994           0
     29788 MEMB     223      POPC     C31      CL       0.900000       12.0110           0
     29789 MEMB     223      POPC     O32      OBL     -0.630000       15.9994           0
     29790 MEMB     223      POPC     C32      CTL2    -0.220000       12.0110           0
     29791 MEMB     223      POPC     H2X      HAL2     0.900000E-01   1.00800           0
     29792 MEMB     223      POPC     H2Y      HAL2     0.900000E-01   1.00800           0
     29793 MEMB     223      POPC     C23      CTL2    -0.180000       12.0110           0
     29794 MEMB     223      POPC     H3R      HAL2     0.900000E-01   1.00800           0
     29795 MEMB     223      POPC     H3S      HAL2     0.900000E-01   1.00800           0
     29796 MEMB     223      POPC     C24      CTL2    -0.180000       12.0110           0
     29797 MEMB     223      POPC     H4R      HAL2     0.900000E-01   1.00800           0
     29798 MEMB     223      POPC     H4S      HAL2     0.900000E-01   1.00800           0
     29799 MEMB     223      POPC     C25      CTL2    -0.180000       12.0110           0
     29800 MEMB     223      POPC     H5R      HAL2     0.900000E-01   1.00800           0
     29801 MEMB     223      POPC     H5S      HAL2     0.900000E-01   1.00800           0
     29802 MEMB     223      POPC     C26      CTL2    -0.180000       12.0110           0
     29803 MEMB     223      POPC     H6R      HAL2     0.900000E-01   1.00800           0
     29804 MEMB     223      POPC     H6S      HAL2     0.900000E-01   1.00800           0
     29805 MEMB     223      POPC     C27      CTL2    -0.180000       12.0110           0
     29806 MEMB     223      POPC     H7R      HAL2     0.900000E-01   1.00800           0
     29807 MEMB     223      POPC     H7S      HAL2     0.900000E-01   1.00800           0
     29808 MEMB     223      POPC     C28      CTL2    -0.180000       12.0110           0
     29809 MEMB     223      POPC     H8R      HAL2     0.900000E-01   1.00800           0
     29810 MEMB     223      POPC     H8S      HAL2     0.900000E-01   1.00800           0
     29811 MEMB     223      POPC     C29      CEL1    -0.150000       12.0110           0
     29812 MEMB     223      POPC     H91      HEL1     0.150000       1.00800           0
     29813 MEMB     223      POPC     C210     CEL1    -0.150000       12.0110           0
     29814 MEMB     223      POPC     H101     HEL1     0.150000       1.00800           0
     29815 MEMB     223      POPC     C211     CTL2    -0.180000       12.0110           0
     29816 MEMB     223      POPC     H11R     HAL2     0.900000E-01   1.00800           0
     29817 MEMB     223      POPC     H11S     HAL2     0.900000E-01   1.00800           0
     29818 MEMB     223      POPC     C212     CTL2    -0.180000       12.0110           0
     29819 MEMB     223      POPC     H12R     HAL2     0.900000E-01   1.00800           0
     29820 MEMB     223      POPC     H12S     HAL2     0.900000E-01   1.00800           0
     29821 MEMB     223      POPC     C213     CTL2    -0.180000       12.0110           0
     29822 MEMB     223      POPC     H13R     HAL2     0.900000E-01   1.00800           0
     29823 MEMB     223      POPC     H13S     HAL2     0.900000E-01   1.00800           0
     29824 MEMB     223      POPC     C214     CTL2    -0.180000       12.0110           0
     29825 MEMB     223      POPC     H14R     HAL2     0.900000E-01   1.00800           0
     29826 MEMB     223      POPC     H14S     HAL2     0.900000E-01   1.00800           0
     29827 MEMB     223      POPC     C215     CTL2    -0.180000       12.0110           0
     29828 MEMB     223      POPC     H15R     HAL2     0.900000E-01   1.00800           0
     29829 MEMB     223      POPC     H15S     HAL2     0.900000E-01   1.00800           0
     29830 MEMB     223      POPC     C216     CTL2    -0.180000       12.0110           0
     29831 MEMB     223      POPC     H16R     HAL2     0.900000E-01   1.00800           0
     29832 MEMB     223      POPC     H16S     HAL2     0.900000E-01   1.00800           0
     29833 MEMB     223      POPC     C217     CTL2    -0.180000       12.0110           0
     29834 MEMB     223      POPC     H17R     HAL2     0.900000E-01   1.00800           0
     29835 MEMB     223      POPC     H17S     HAL2     0.900000E-01   1.00800           0
     29836 MEMB     223      POPC     C218     CTL3    -0.270000       12.0110           0
     29837 MEMB     223      POPC     H18R     HAL3     0.900000E-01   1.00800           0
     29838 MEMB     223      POPC     H18S     HAL3     0.900000E-01   1.00800           0
     29839 MEMB     223      POPC     H18T     HAL3     0.900000E-01   1.00800           0
     29840 MEMB     223      POPC     C33      CTL2    -0.180000       12.0110           0
     29841 MEMB     223      POPC     H3X      HAL2     0.900000E-01   1.00800           0
     29842 MEMB     223      POPC     H3Y      HAL2     0.900000E-01   1.00800           0
     29843 MEMB     223      POPC     C34      CTL2    -0.180000       12.0110           0
     29844 MEMB     223      POPC     H4X      HAL2     0.900000E-01   1.00800           0
     29845 MEMB     223      POPC     H4Y      HAL2     0.900000E-01   1.00800           0
     29846 MEMB     223      POPC     C35      CTL2    -0.180000       12.0110           0
     29847 MEMB     223      POPC     H5X      HAL2     0.900000E-01   1.00800           0
     29848 MEMB     223      POPC     H5Y      HAL2     0.900000E-01   1.00800           0
     29849 MEMB     223      POPC     C36      CTL2    -0.180000       12.0110           0
     29850 MEMB     223      POPC     H6X      HAL2     0.900000E-01   1.00800           0
     29851 MEMB     223      POPC     H6Y      HAL2     0.900000E-01   1.00800           0
     29852 MEMB     223      POPC     C37      CTL2    -0.180000       12.0110           0
     29853 MEMB     223      POPC     H7X      HAL2     0.900000E-01   1.00800           0
     29854 MEMB     223      POPC     H7Y      HAL2     0.900000E-01   1.00800           0
     29855 MEMB     223      POPC     C38      CTL2    -0.180000       12.0110           0
     29856 MEMB     223      POPC     H8X      HAL2     0.900000E-01   1.00800           0
     29857 MEMB     223      POPC     H8Y      HAL2     0.900000E-01   1.00800           0
     29858 MEMB     223      POPC     C39      CTL2    -0.180000       12.0110           0
     29859 MEMB     223      POPC     H9X      HAL2     0.900000E-01   1.00800           0
     29860 MEMB     223      POPC     H9Y      HAL2     0.900000E-01   1.00800           0
     29861 MEMB     223      POPC     C310     CTL2    -0.180000       12.0110           0
     29862 MEMB     223      POPC     H10X     HAL2     0.900000E-01   1.00800           0
     29863 MEMB     223      POPC     H10Y     HAL2     0.900000E-01   1.00800           0
     29864 MEMB     223      POPC     C311     CTL2    -0.180000       12.0110           0
     29865 MEMB     223      POPC     H11X     HAL2     0.900000E-01   1.00800           0
     29866 MEMB     223      POPC     H11Y     HAL2     0.900000E-01   1.00800           0
     29867 MEMB     223      POPC     C312     CTL2    -0.180000       12.0110           0
     29868 MEMB     223      POPC     H12X     HAL2     0.900000E-01   1.00800           0
     29869 MEMB     223      POPC     H12Y     HAL2     0.900000E-01   1.00800           0
     29870 MEMB     223      POPC     C313     CTL2    -0.180000       12.0110           0
     29871 MEMB     223      POPC     H13X     HAL2     0.900000E-01   1.00800           0
     29872 MEMB     223      POPC     H13Y     HAL2     0.900000E-01   1.00800           0
     29873 MEMB     223      POPC     C314     CTL2    -0.180000       12.0110           0
     29874 MEMB     223      POPC     H14X     HAL2     0.900000E-01   1.00800           0
     29875 MEMB     223      POPC     H14Y     HAL2     0.900000E-01   1.00800           0
     29876 MEMB     223      POPC     C315     CTL2    -0.180000       12.0110           0
     29877 MEMB     223      POPC     H15X     HAL2     0.900000E-01   1.00800           0
     29878 MEMB     223      POPC     H15Y     HAL2     0.900000E-01   1.00800           0
     29879 MEMB     223      POPC     C316     CTL3    -0.270000       12.0110           0
     29880 MEMB     223      POPC     H16X     HAL3     0.900000E-01   1.00800           0
     29881 MEMB     223      POPC     H16Y     HAL3     0.900000E-01   1.00800           0
     29882 MEMB     223      POPC     H16Z     HAL3     0.900000E-01   1.00800           0
     29883 MEMB     224      POPC     N        NTL     -0.600000       14.0070           0
     29884 MEMB     224      POPC     C12      CTL2    -0.100000       12.0110           0
     29885 MEMB     224      POPC     H12A     HL       0.250000       1.00800           0
     29886 MEMB     224      POPC     H12B     HL       0.250000       1.00800           0
     29887 MEMB     224      POPC     C13      CTL5    -0.350000       12.0110           0
     29888 MEMB     224      POPC     H13A     HL       0.250000       1.00800           0
     29889 MEMB     224      POPC     H13B     HL       0.250000       1.00800           0
     29890 MEMB     224      POPC     H13C     HL       0.250000       1.00800           0
     29891 MEMB     224      POPC     C14      CTL5    -0.350000       12.0110           0
     29892 MEMB     224      POPC     H14A     HL       0.250000       1.00800           0
     29893 MEMB     224      POPC     H14B     HL       0.250000       1.00800           0
     29894 MEMB     224      POPC     H14C     HL       0.250000       1.00800           0
     29895 MEMB     224      POPC     C15      CTL5    -0.350000       12.0110           0
     29896 MEMB     224      POPC     H15A     HL       0.250000       1.00800           0
     29897 MEMB     224      POPC     H15B     HL       0.250000       1.00800           0
     29898 MEMB     224      POPC     H15C     HL       0.250000       1.00800           0
     29899 MEMB     224      POPC     C11      CTL2    -0.800000E-01   12.0110           0
     29900 MEMB     224      POPC     H11A     HAL2     0.900000E-01   1.00800           0
     29901 MEMB     224      POPC     H11B     HAL2     0.900000E-01   1.00800           0
     29902 MEMB     224      POPC     P        PL       1.50000        30.9740           0
     29903 MEMB     224      POPC     O13      O2L     -0.780000       15.9994           0
     29904 MEMB     224      POPC     O14      O2L     -0.780000       15.9994           0
     29905 MEMB     224      POPC     O12      OSLP    -0.570000       15.9994           0
     29906 MEMB     224      POPC     O11      OSLP    -0.570000       15.9994           0
     29907 MEMB     224      POPC     C1       CTL2    -0.800000E-01   12.0110           0
     29908 MEMB     224      POPC     HA       HAL2     0.900000E-01   1.00800           0
     29909 MEMB     224      POPC     HB       HAL2     0.900000E-01   1.00800           0
     29910 MEMB     224      POPC     C2       CTL1     0.170000       12.0110           0
     29911 MEMB     224      POPC     HS       HAL1     0.900000E-01   1.00800           0
     29912 MEMB     224      POPC     O21      OSL     -0.490000       15.9994           0
     29913 MEMB     224      POPC     C21      CL       0.900000       12.0110           0
     29914 MEMB     224      POPC     O22      OBL     -0.630000       15.9994           0
     29915 MEMB     224      POPC     C22      CTL2    -0.220000       12.0110           0
     29916 MEMB     224      POPC     H2R      HAL2     0.900000E-01   1.00800           0
     29917 MEMB     224      POPC     H2S      HAL2     0.900000E-01   1.00800           0
     29918 MEMB     224      POPC     C3       CTL2     0.800000E-01   12.0110           0
     29919 MEMB     224      POPC     HX       HAL2     0.900000E-01   1.00800           0
     29920 MEMB     224      POPC     HY       HAL2     0.900000E-01   1.00800           0
     29921 MEMB     224      POPC     O31      OSL     -0.490000       15.9994           0
     29922 MEMB     224      POPC     C31      CL       0.900000       12.0110           0
     29923 MEMB     224      POPC     O32      OBL     -0.630000       15.9994           0
     29924 MEMB     224      POPC     C32      CTL2    -0.220000       12.0110           0
     29925 MEMB     224      POPC     H2X      HAL2     0.900000E-01   1.00800           0
     29926 MEMB     224      POPC     H2Y      HAL2     0.900000E-01   1.00800           0
     29927 MEMB     224      POPC     C23      CTL2    -0.180000       12.0110           0
     29928 MEMB     224      POPC     H3R      HAL2     0.900000E-01   1.00800           0
     29929 MEMB     224      POPC     H3S      HAL2     0.900000E-01   1.00800           0
     29930 MEMB     224      POPC     C24      CTL2    -0.180000       12.0110           0
     29931 MEMB     224      POPC     H4R      HAL2     0.900000E-01   1.00800           0
     29932 MEMB     224      POPC     H4S      HAL2     0.900000E-01   1.00800           0
     29933 MEMB     224      POPC     C25      CTL2    -0.180000       12.0110           0
     29934 MEMB     224      POPC     H5R      HAL2     0.900000E-01   1.00800           0
     29935 MEMB     224      POPC     H5S      HAL2     0.900000E-01   1.00800           0
     29936 MEMB     224      POPC     C26      CTL2    -0.180000       12.0110           0
     29937 MEMB     224      POPC     H6R      HAL2     0.900000E-01   1.00800           0
     29938 MEMB     224      POPC     H6S      HAL2     0.900000E-01   1.00800           0
     29939 MEMB     224      POPC     C27      CTL2    -0.180000       12.0110           0
     29940 MEMB     224      POPC     H7R      HAL2     0.900000E-01   1.00800           0
     29941 MEMB     224      POPC     H7S      HAL2     0.900000E-01   1.00800           0
     29942 MEMB     224      POPC     C28      CTL2    -0.180000       12.0110           0
     29943 MEMB     224      POPC     H8R      HAL2     0.900000E-01   1.00800           0
     29944 MEMB     224      POPC     H8S      HAL2     0.900000E-01   1.00800           0
     29945 MEMB     224      POPC     C29      CEL1    -0.150000       12.0110           0
     29946 MEMB     224      POPC     H91      HEL1     0.150000       1.00800           0
     29947 MEMB     224      POPC     C210     CEL1    -0.150000       12.0110           0
     29948 MEMB     224      POPC     H101     HEL1     0.150000       1.00800           0
     29949 MEMB     224      POPC     C211     CTL2    -0.180000       12.0110           0
     29950 MEMB     224      POPC     H11R     HAL2     0.900000E-01   1.00800           0
     29951 MEMB     224      POPC     H11S     HAL2     0.900000E-01   1.00800           0
     29952 MEMB     224      POPC     C212     CTL2    -0.180000       12.0110           0
     29953 MEMB     224      POPC     H12R     HAL2     0.900000E-01   1.00800           0
     29954 MEMB     224      POPC     H12S     HAL2     0.900000E-01   1.00800           0
     29955 MEMB     224      POPC     C213     CTL2    -0.180000       12.0110           0
     29956 MEMB     224      POPC     H13R     HAL2     0.900000E-01   1.00800           0
     29957 MEMB     224      POPC     H13S     HAL2     0.900000E-01   1.00800           0
     29958 MEMB     224      POPC     C214     CTL2    -0.180000       12.0110           0
     29959 MEMB     224      POPC     H14R     HAL2     0.900000E-01   1.00800           0
     29960 MEMB     224      POPC     H14S     HAL2     0.900000E-01   1.00800           0
     29961 MEMB     224      POPC     C215     CTL2    -0.180000       12.0110           0
     29962 MEMB     224      POPC     H15R     HAL2     0.900000E-01   1.00800           0
     29963 MEMB     224      POPC     H15S     HAL2     0.900000E-01   1.00800           0
     29964 MEMB     224      POPC     C216     CTL2    -0.180000       12.0110           0
     29965 MEMB     224      POPC     H16R     HAL2     0.900000E-01   1.00800           0
     29966 MEMB     224      POPC     H16S     HAL2     0.900000E-01   1.00800           0
     29967 MEMB     224      POPC     C217     CTL2    -0.180000       12.0110           0
     29968 MEMB     224      POPC     H17R     HAL2     0.900000E-01   1.00800           0
     29969 MEMB     224      POPC     H17S     HAL2     0.900000E-01   1.00800           0
     29970 MEMB     224      POPC     C218     CTL3    -0.270000       12.0110           0
     29971 MEMB     224      POPC     H18R     HAL3     0.900000E-01   1.00800           0
     29972 MEMB     224      POPC     H18S     HAL3     0.900000E-01   1.00800           0
     29973 MEMB     224      POPC     H18T     HAL3     0.900000E-01   1.00800           0
     29974 MEMB     224      POPC     C33      CTL2    -0.180000       12.0110           0
     29975 MEMB     224      POPC     H3X      HAL2     0.900000E-01   1.00800           0
     29976 MEMB     224      POPC     H3Y      HAL2     0.900000E-01   1.00800           0
     29977 MEMB     224      POPC     C34      CTL2    -0.180000       12.0110           0
     29978 MEMB     224      POPC     H4X      HAL2     0.900000E-01   1.00800           0
     29979 MEMB     224      POPC     H4Y      HAL2     0.900000E-01   1.00800           0
     29980 MEMB     224      POPC     C35      CTL2    -0.180000       12.0110           0
     29981 MEMB     224      POPC     H5X      HAL2     0.900000E-01   1.00800           0
     29982 MEMB     224      POPC     H5Y      HAL2     0.900000E-01   1.00800           0
     29983 MEMB     224      POPC     C36      CTL2    -0.180000       12.0110           0
     29984 MEMB     224      POPC     H6X      HAL2     0.900000E-01   1.00800           0
     29985 MEMB     224      POPC     H6Y      HAL2     0.900000E-01   1.00800           0
     29986 MEMB     224      POPC     C37      CTL2    -0.180000       12.0110           0
     29987 MEMB     224      POPC     H7X      HAL2     0.900000E-01   1.00800           0
     29988 MEMB     224      POPC     H7Y      HAL2     0.900000E-01   1.00800           0
     29989 MEMB     224      POPC     C38      CTL2    -0.180000       12.0110           0
     29990 MEMB     224      POPC     H8X      HAL2     0.900000E-01   1.00800           0
     29991 MEMB     224      POPC     H8Y      HAL2     0.900000E-01   1.00800           0
     29992 MEMB     224      POPC     C39      CTL2    -0.180000       12.0110           0
     29993 MEMB     224      POPC     H9X      HAL2     0.900000E-01   1.00800           0
     29994 MEMB     224      POPC     H9Y      HAL2     0.900000E-01   1.00800           0
     29995 MEMB     224      POPC     C310     CTL2    -0.180000       12.0110           0
     29996 MEMB     224      POPC     H10X     HAL2     0.900000E-01   1.00800           0
     29997 MEMB     224      POPC     H10Y     HAL2     0.900000E-01   1.00800           0
     29998 MEMB     224      POPC     C311     CTL2    -0.180000       12.0110           0
     29999 MEMB     224      POPC     H11X     HAL2     0.900000E-01   1.00800           0
     30000 MEMB     224      POPC     H11Y     HAL2     0.900000E-01   1.00800           0
     30001 MEMB     224      POPC     C312     CTL2    -0.180000       12.0110           0
     30002 MEMB     224      POPC     H12X     HAL2     0.900000E-01   1.00800           0
     30003 MEMB     224      POPC     H12Y     HAL2     0.900000E-01   1.00800           0
     30004 MEMB     224      POPC     C313     CTL2    -0.180000       12.0110           0
     30005 MEMB     224      POPC     H13X     HAL2     0.900000E-01   1.00800           0
     30006 MEMB     224      POPC     H13Y     HAL2     0.900000E-01   1.00800           0
     30007 MEMB     224      POPC     C314     CTL2    -0.180000       12.0110           0
     30008 MEMB     224      POPC     H14X     HAL2     0.900000E-01   1.00800           0
     30009 MEMB     224      POPC     H14Y     HAL2     0.900000E-01   1.00800           0
     30010 MEMB     224      POPC     C315     CTL2    -0.180000       12.0110           0
     30011 MEMB     224      POPC     H15X     HAL2     0.900000E-01   1.00800           0
     30012 MEMB     224      POPC     H15Y     HAL2     0.900000E-01   1.00800           0
     30013 MEMB     224      POPC     C316     CTL3    -0.270000       12.0110           0
     30014 MEMB     224      POPC     H16X     HAL3     0.900000E-01   1.00800           0
     30015 MEMB     224      POPC     H16Y     HAL3     0.900000E-01   1.00800           0
     30016 MEMB     224      POPC     H16Z     HAL3     0.900000E-01   1.00800           0
     30017 MEMB     225      POPC     N        NTL     -0.600000       14.0070           0
     30018 MEMB     225      POPC     C12      CTL2    -0.100000       12.0110           0
     30019 MEMB     225      POPC     H12A     HL       0.250000       1.00800           0
     30020 MEMB     225      POPC     H12B     HL       0.250000       1.00800           0
     30021 MEMB     225      POPC     C13      CTL5    -0.350000       12.0110           0
     30022 MEMB     225      POPC     H13A     HL       0.250000       1.00800           0
     30023 MEMB     225      POPC     H13B     HL       0.250000       1.00800           0
     30024 MEMB     225      POPC     H13C     HL       0.250000       1.00800           0
     30025 MEMB     225      POPC     C14      CTL5    -0.350000       12.0110           0
     30026 MEMB     225      POPC     H14A     HL       0.250000       1.00800           0
     30027 MEMB     225      POPC     H14B     HL       0.250000       1.00800           0
     30028 MEMB     225      POPC     H14C     HL       0.250000       1.00800           0
     30029 MEMB     225      POPC     C15      CTL5    -0.350000       12.0110           0
     30030 MEMB     225      POPC     H15A     HL       0.250000       1.00800           0
     30031 MEMB     225      POPC     H15B     HL       0.250000       1.00800           0
     30032 MEMB     225      POPC     H15C     HL       0.250000       1.00800           0
     30033 MEMB     225      POPC     C11      CTL2    -0.800000E-01   12.0110           0
     30034 MEMB     225      POPC     H11A     HAL2     0.900000E-01   1.00800           0
     30035 MEMB     225      POPC     H11B     HAL2     0.900000E-01   1.00800           0
     30036 MEMB     225      POPC     P        PL       1.50000        30.9740           0
     30037 MEMB     225      POPC     O13      O2L     -0.780000       15.9994           0
     30038 MEMB     225      POPC     O14      O2L     -0.780000       15.9994           0
     30039 MEMB     225      POPC     O12      OSLP    -0.570000       15.9994           0
     30040 MEMB     225      POPC     O11      OSLP    -0.570000       15.9994           0
     30041 MEMB     225      POPC     C1       CTL2    -0.800000E-01   12.0110           0
     30042 MEMB     225      POPC     HA       HAL2     0.900000E-01   1.00800           0
     30043 MEMB     225      POPC     HB       HAL2     0.900000E-01   1.00800           0
     30044 MEMB     225      POPC     C2       CTL1     0.170000       12.0110           0
     30045 MEMB     225      POPC     HS       HAL1     0.900000E-01   1.00800           0
     30046 MEMB     225      POPC     O21      OSL     -0.490000       15.9994           0
     30047 MEMB     225      POPC     C21      CL       0.900000       12.0110           0
     30048 MEMB     225      POPC     O22      OBL     -0.630000       15.9994           0
     30049 MEMB     225      POPC     C22      CTL2    -0.220000       12.0110           0
     30050 MEMB     225      POPC     H2R      HAL2     0.900000E-01   1.00800           0
     30051 MEMB     225      POPC     H2S      HAL2     0.900000E-01   1.00800           0
     30052 MEMB     225      POPC     C3       CTL2     0.800000E-01   12.0110           0
     30053 MEMB     225      POPC     HX       HAL2     0.900000E-01   1.00800           0
     30054 MEMB     225      POPC     HY       HAL2     0.900000E-01   1.00800           0
     30055 MEMB     225      POPC     O31      OSL     -0.490000       15.9994           0
     30056 MEMB     225      POPC     C31      CL       0.900000       12.0110           0
     30057 MEMB     225      POPC     O32      OBL     -0.630000       15.9994           0
     30058 MEMB     225      POPC     C32      CTL2    -0.220000       12.0110           0
     30059 MEMB     225      POPC     H2X      HAL2     0.900000E-01   1.00800           0
     30060 MEMB     225      POPC     H2Y      HAL2     0.900000E-01   1.00800           0
     30061 MEMB     225      POPC     C23      CTL2    -0.180000       12.0110           0
     30062 MEMB     225      POPC     H3R      HAL2     0.900000E-01   1.00800           0
     30063 MEMB     225      POPC     H3S      HAL2     0.900000E-01   1.00800           0
     30064 MEMB     225      POPC     C24      CTL2    -0.180000       12.0110           0
     30065 MEMB     225      POPC     H4R      HAL2     0.900000E-01   1.00800           0
     30066 MEMB     225      POPC     H4S      HAL2     0.900000E-01   1.00800           0
     30067 MEMB     225      POPC     C25      CTL2    -0.180000       12.0110           0
     30068 MEMB     225      POPC     H5R      HAL2     0.900000E-01   1.00800           0
     30069 MEMB     225      POPC     H5S      HAL2     0.900000E-01   1.00800           0
     30070 MEMB     225      POPC     C26      CTL2    -0.180000       12.0110           0
     30071 MEMB     225      POPC     H6R      HAL2     0.900000E-01   1.00800           0
     30072 MEMB     225      POPC     H6S      HAL2     0.900000E-01   1.00800           0
     30073 MEMB     225      POPC     C27      CTL2    -0.180000       12.0110           0
     30074 MEMB     225      POPC     H7R      HAL2     0.900000E-01   1.00800           0
     30075 MEMB     225      POPC     H7S      HAL2     0.900000E-01   1.00800           0
     30076 MEMB     225      POPC     C28      CTL2    -0.180000       12.0110           0
     30077 MEMB     225      POPC     H8R      HAL2     0.900000E-01   1.00800           0
     30078 MEMB     225      POPC     H8S      HAL2     0.900000E-01   1.00800           0
     30079 MEMB     225      POPC     C29      CEL1    -0.150000       12.0110           0
     30080 MEMB     225      POPC     H91      HEL1     0.150000       1.00800           0
     30081 MEMB     225      POPC     C210     CEL1    -0.150000       12.0110           0
     30082 MEMB     225      POPC     H101     HEL1     0.150000       1.00800           0
     30083 MEMB     225      POPC     C211     CTL2    -0.180000       12.0110           0
     30084 MEMB     225      POPC     H11R     HAL2     0.900000E-01   1.00800           0
     30085 MEMB     225      POPC     H11S     HAL2     0.900000E-01   1.00800           0
     30086 MEMB     225      POPC     C212     CTL2    -0.180000       12.0110           0
     30087 MEMB     225      POPC     H12R     HAL2     0.900000E-01   1.00800           0
     30088 MEMB     225      POPC     H12S     HAL2     0.900000E-01   1.00800           0
     30089 MEMB     225      POPC     C213     CTL2    -0.180000       12.0110           0
     30090 MEMB     225      POPC     H13R     HAL2     0.900000E-01   1.00800           0
     30091 MEMB     225      POPC     H13S     HAL2     0.900000E-01   1.00800           0
     30092 MEMB     225      POPC     C214     CTL2    -0.180000       12.0110           0
     30093 MEMB     225      POPC     H14R     HAL2     0.900000E-01   1.00800           0
     30094 MEMB     225      POPC     H14S     HAL2     0.900000E-01   1.00800           0
     30095 MEMB     225      POPC     C215     CTL2    -0.180000       12.0110           0
     30096 MEMB     225      POPC     H15R     HAL2     0.900000E-01   1.00800           0
     30097 MEMB     225      POPC     H15S     HAL2     0.900000E-01   1.00800           0
     30098 MEMB     225      POPC     C216     CTL2    -0.180000       12.0110           0
     30099 MEMB     225      POPC     H16R     HAL2     0.900000E-01   1.00800           0
     30100 MEMB     225      POPC     H16S     HAL2     0.900000E-01   1.00800           0
     30101 MEMB     225      POPC     C217     CTL2    -0.180000       12.0110           0
     30102 MEMB     225      POPC     H17R     HAL2     0.900000E-01   1.00800           0
     30103 MEMB     225      POPC     H17S     HAL2     0.900000E-01   1.00800           0
     30104 MEMB     225      POPC     C218     CTL3    -0.270000       12.0110           0
     30105 MEMB     225      POPC     H18R     HAL3     0.900000E-01   1.00800           0
     30106 MEMB     225      POPC     H18S     HAL3     0.900000E-01   1.00800           0
     30107 MEMB     225      POPC     H18T     HAL3     0.900000E-01   1.00800           0
     30108 MEMB     225      POPC     C33      CTL2    -0.180000       12.0110           0
     30109 MEMB     225      POPC     H3X      HAL2     0.900000E-01   1.00800           0
     30110 MEMB     225      POPC     H3Y      HAL2     0.900000E-01   1.00800           0
     30111 MEMB     225      POPC     C34      CTL2    -0.180000       12.0110           0
     30112 MEMB     225      POPC     H4X      HAL2     0.900000E-01   1.00800           0
     30113 MEMB     225      POPC     H4Y      HAL2     0.900000E-01   1.00800           0
     30114 MEMB     225      POPC     C35      CTL2    -0.180000       12.0110           0
     30115 MEMB     225      POPC     H5X      HAL2     0.900000E-01   1.00800           0
     30116 MEMB     225      POPC     H5Y      HAL2     0.900000E-01   1.00800           0
     30117 MEMB     225      POPC     C36      CTL2    -0.180000       12.0110           0
     30118 MEMB     225      POPC     H6X      HAL2     0.900000E-01   1.00800           0
     30119 MEMB     225      POPC     H6Y      HAL2     0.900000E-01   1.00800           0
     30120 MEMB     225      POPC     C37      CTL2    -0.180000       12.0110           0
     30121 MEMB     225      POPC     H7X      HAL2     0.900000E-01   1.00800           0
     30122 MEMB     225      POPC     H7Y      HAL2     0.900000E-01   1.00800           0
     30123 MEMB     225      POPC     C38      CTL2    -0.180000       12.0110           0
     30124 MEMB     225      POPC     H8X      HAL2     0.900000E-01   1.00800           0
     30125 MEMB     225      POPC     H8Y      HAL2     0.900000E-01   1.00800           0
     30126 MEMB     225      POPC     C39      CTL2    -0.180000       12.0110           0
     30127 MEMB     225      POPC     H9X      HAL2     0.900000E-01   1.00800           0
     30128 MEMB     225      POPC     H9Y      HAL2     0.900000E-01   1.00800           0
     30129 MEMB     225      POPC     C310     CTL2    -0.180000       12.0110           0
     30130 MEMB     225      POPC     H10X     HAL2     0.900000E-01   1.00800           0
     30131 MEMB     225      POPC     H10Y     HAL2     0.900000E-01   1.00800           0
     30132 MEMB     225      POPC     C311     CTL2    -0.180000       12.0110           0
     30133 MEMB     225      POPC     H11X     HAL2     0.900000E-01   1.00800           0
     30134 MEMB     225      POPC     H11Y     HAL2     0.900000E-01   1.00800           0
     30135 MEMB     225      POPC     C312     CTL2    -0.180000       12.0110           0
     30136 MEMB     225      POPC     H12X     HAL2     0.900000E-01   1.00800           0
     30137 MEMB     225      POPC     H12Y     HAL2     0.900000E-01   1.00800           0
     30138 MEMB     225      POPC     C313     CTL2    -0.180000       12.0110           0
     30139 MEMB     225      POPC     H13X     HAL2     0.900000E-01   1.00800           0
     30140 MEMB     225      POPC     H13Y     HAL2     0.900000E-01   1.00800           0
     30141 MEMB     225      POPC     C314     CTL2    -0.180000       12.0110           0
     30142 MEMB     225      POPC     H14X     HAL2     0.900000E-01   1.00800           0
     30143 MEMB     225      POPC     H14Y     HAL2     0.900000E-01   1.00800           0
     30144 MEMB     225      POPC     C315     CTL2    -0.180000       12.0110           0
     30145 MEMB     225      POPC     H15X     HAL2     0.900000E-01   1.00800           0
     30146 MEMB     225      POPC     H15Y     HAL2     0.900000E-01   1.00800           0
     30147 MEMB     225      POPC     C316     CTL3    -0.270000       12.0110           0
     30148 MEMB     225      POPC     H16X     HAL3     0.900000E-01   1.00800           0
     30149 MEMB     225      POPC     H16Y     HAL3     0.900000E-01   1.00800           0
     30150 MEMB     225      POPC     H16Z     HAL3     0.900000E-01   1.00800           0
     30151 MEMB     226      POPC     N        NTL     -0.600000       14.0070           0
     30152 MEMB     226      POPC     C12      CTL2    -0.100000       12.0110           0
     30153 MEMB     226      POPC     H12A     HL       0.250000       1.00800           0
     30154 MEMB     226      POPC     H12B     HL       0.250000       1.00800           0
     30155 MEMB     226      POPC     C13      CTL5    -0.350000       12.0110           0
     30156 MEMB     226      POPC     H13A     HL       0.250000       1.00800           0
     30157 MEMB     226      POPC     H13B     HL       0.250000       1.00800           0
     30158 MEMB     226      POPC     H13C     HL       0.250000       1.00800           0
     30159 MEMB     226      POPC     C14      CTL5    -0.350000       12.0110           0
     30160 MEMB     226      POPC     H14A     HL       0.250000       1.00800           0
     30161 MEMB     226      POPC     H14B     HL       0.250000       1.00800           0
     30162 MEMB     226      POPC     H14C     HL       0.250000       1.00800           0
     30163 MEMB     226      POPC     C15      CTL5    -0.350000       12.0110           0
     30164 MEMB     226      POPC     H15A     HL       0.250000       1.00800           0
     30165 MEMB     226      POPC     H15B     HL       0.250000       1.00800           0
     30166 MEMB     226      POPC     H15C     HL       0.250000       1.00800           0
     30167 MEMB     226      POPC     C11      CTL2    -0.800000E-01   12.0110           0
     30168 MEMB     226      POPC     H11A     HAL2     0.900000E-01   1.00800           0
     30169 MEMB     226      POPC     H11B     HAL2     0.900000E-01   1.00800           0
     30170 MEMB     226      POPC     P        PL       1.50000        30.9740           0
     30171 MEMB     226      POPC     O13      O2L     -0.780000       15.9994           0
     30172 MEMB     226      POPC     O14      O2L     -0.780000       15.9994           0
     30173 MEMB     226      POPC     O12      OSLP    -0.570000       15.9994           0
     30174 MEMB     226      POPC     O11      OSLP    -0.570000       15.9994           0
     30175 MEMB     226      POPC     C1       CTL2    -0.800000E-01   12.0110           0
     30176 MEMB     226      POPC     HA       HAL2     0.900000E-01   1.00800           0
     30177 MEMB     226      POPC     HB       HAL2     0.900000E-01   1.00800           0
     30178 MEMB     226      POPC     C2       CTL1     0.170000       12.0110           0
     30179 MEMB     226      POPC     HS       HAL1     0.900000E-01   1.00800           0
     30180 MEMB     226      POPC     O21      OSL     -0.490000       15.9994           0
     30181 MEMB     226      POPC     C21      CL       0.900000       12.0110           0
     30182 MEMB     226      POPC     O22      OBL     -0.630000       15.9994           0
     30183 MEMB     226      POPC     C22      CTL2    -0.220000       12.0110           0
     30184 MEMB     226      POPC     H2R      HAL2     0.900000E-01   1.00800           0
     30185 MEMB     226      POPC     H2S      HAL2     0.900000E-01   1.00800           0
     30186 MEMB     226      POPC     C3       CTL2     0.800000E-01   12.0110           0
     30187 MEMB     226      POPC     HX       HAL2     0.900000E-01   1.00800           0
     30188 MEMB     226      POPC     HY       HAL2     0.900000E-01   1.00800           0
     30189 MEMB     226      POPC     O31      OSL     -0.490000       15.9994           0
     30190 MEMB     226      POPC     C31      CL       0.900000       12.0110           0
     30191 MEMB     226      POPC     O32      OBL     -0.630000       15.9994           0
     30192 MEMB     226      POPC     C32      CTL2    -0.220000       12.0110           0
     30193 MEMB     226      POPC     H2X      HAL2     0.900000E-01   1.00800           0
     30194 MEMB     226      POPC     H2Y      HAL2     0.900000E-01   1.00800           0
     30195 MEMB     226      POPC     C23      CTL2    -0.180000       12.0110           0
     30196 MEMB     226      POPC     H3R      HAL2     0.900000E-01   1.00800           0
     30197 MEMB     226      POPC     H3S      HAL2     0.900000E-01   1.00800           0
     30198 MEMB     226      POPC     C24      CTL2    -0.180000       12.0110           0
     30199 MEMB     226      POPC     H4R      HAL2     0.900000E-01   1.00800           0
     30200 MEMB     226      POPC     H4S      HAL2     0.900000E-01   1.00800           0
     30201 MEMB     226      POPC     C25      CTL2    -0.180000       12.0110           0
     30202 MEMB     226      POPC     H5R      HAL2     0.900000E-01   1.00800           0
     30203 MEMB     226      POPC     H5S      HAL2     0.900000E-01   1.00800           0
     30204 MEMB     226      POPC     C26      CTL2    -0.180000       12.0110           0
     30205 MEMB     226      POPC     H6R      HAL2     0.900000E-01   1.00800           0
     30206 MEMB     226      POPC     H6S      HAL2     0.900000E-01   1.00800           0
     30207 MEMB     226      POPC     C27      CTL2    -0.180000       12.0110           0
     30208 MEMB     226      POPC     H7R      HAL2     0.900000E-01   1.00800           0
     30209 MEMB     226      POPC     H7S      HAL2     0.900000E-01   1.00800           0
     30210 MEMB     226      POPC     C28      CTL2    -0.180000       12.0110           0
     30211 MEMB     226      POPC     H8R      HAL2     0.900000E-01   1.00800           0
     30212 MEMB     226      POPC     H8S      HAL2     0.900000E-01   1.00800           0
     30213 MEMB     226      POPC     C29      CEL1    -0.150000       12.0110           0
     30214 MEMB     226      POPC     H91      HEL1     0.150000       1.00800           0
     30215 MEMB     226      POPC     C210     CEL1    -0.150000       12.0110           0
     30216 MEMB     226      POPC     H101     HEL1     0.150000       1.00800           0
     30217 MEMB     226      POPC     C211     CTL2    -0.180000       12.0110           0
     30218 MEMB     226      POPC     H11R     HAL2     0.900000E-01   1.00800           0
     30219 MEMB     226      POPC     H11S     HAL2     0.900000E-01   1.00800           0
     30220 MEMB     226      POPC     C212     CTL2    -0.180000       12.0110           0
     30221 MEMB     226      POPC     H12R     HAL2     0.900000E-01   1.00800           0
     30222 MEMB     226      POPC     H12S     HAL2     0.900000E-01   1.00800           0
     30223 MEMB     226      POPC     C213     CTL2    -0.180000       12.0110           0
     30224 MEMB     226      POPC     H13R     HAL2     0.900000E-01   1.00800           0
     30225 MEMB     226      POPC     H13S     HAL2     0.900000E-01   1.00800           0
     30226 MEMB     226      POPC     C214     CTL2    -0.180000       12.0110           0
     30227 MEMB     226      POPC     H14R     HAL2     0.900000E-01   1.00800           0
     30228 MEMB     226      POPC     H14S     HAL2     0.900000E-01   1.00800           0
     30229 MEMB     226      POPC     C215     CTL2    -0.180000       12.0110           0
     30230 MEMB     226      POPC     H15R     HAL2     0.900000E-01   1.00800           0
     30231 MEMB     226      POPC     H15S     HAL2     0.900000E-01   1.00800           0
     30232 MEMB     226      POPC     C216     CTL2    -0.180000       12.0110           0
     30233 MEMB     226      POPC     H16R     HAL2     0.900000E-01   1.00800           0
     30234 MEMB     226      POPC     H16S     HAL2     0.900000E-01   1.00800           0
     30235 MEMB     226      POPC     C217     CTL2    -0.180000       12.0110           0
     30236 MEMB     226      POPC     H17R     HAL2     0.900000E-01   1.00800           0
     30237 MEMB     226      POPC     H17S     HAL2     0.900000E-01   1.00800           0
     30238 MEMB     226      POPC     C218     CTL3    -0.270000       12.0110           0
     30239 MEMB     226      POPC     H18R     HAL3     0.900000E-01   1.00800           0
     30240 MEMB     226      POPC     H18S     HAL3     0.900000E-01   1.00800           0
     30241 MEMB     226      POPC     H18T     HAL3     0.900000E-01   1.00800           0
     30242 MEMB     226      POPC     C33      CTL2    -0.180000       12.0110           0
     30243 MEMB     226      POPC     H3X      HAL2     0.900000E-01   1.00800           0
     30244 MEMB     226      POPC     H3Y      HAL2     0.900000E-01   1.00800           0
     30245 MEMB     226      POPC     C34      CTL2    -0.180000       12.0110           0
     30246 MEMB     226      POPC     H4X      HAL2     0.900000E-01   1.00800           0
     30247 MEMB     226      POPC     H4Y      HAL2     0.900000E-01   1.00800           0
     30248 MEMB     226      POPC     C35      CTL2    -0.180000       12.0110           0
     30249 MEMB     226      POPC     H5X      HAL2     0.900000E-01   1.00800           0
     30250 MEMB     226      POPC     H5Y      HAL2     0.900000E-01   1.00800           0
     30251 MEMB     226      POPC     C36      CTL2    -0.180000       12.0110           0
     30252 MEMB     226      POPC     H6X      HAL2     0.900000E-01   1.00800           0
     30253 MEMB     226      POPC     H6Y      HAL2     0.900000E-01   1.00800           0
     30254 MEMB     226      POPC     C37      CTL2    -0.180000       12.0110           0
     30255 MEMB     226      POPC     H7X      HAL2     0.900000E-01   1.00800           0
     30256 MEMB     226      POPC     H7Y      HAL2     0.900000E-01   1.00800           0
     30257 MEMB     226      POPC     C38      CTL2    -0.180000       12.0110           0
     30258 MEMB     226      POPC     H8X      HAL2     0.900000E-01   1.00800           0
     30259 MEMB     226      POPC     H8Y      HAL2     0.900000E-01   1.00800           0
     30260 MEMB     226      POPC     C39      CTL2    -0.180000       12.0110           0
     30261 MEMB     226      POPC     H9X      HAL2     0.900000E-01   1.00800           0
     30262 MEMB     226      POPC     H9Y      HAL2     0.900000E-01   1.00800           0
     30263 MEMB     226      POPC     C310     CTL2    -0.180000       12.0110           0
     30264 MEMB     226      POPC     H10X     HAL2     0.900000E-01   1.00800           0
     30265 MEMB     226      POPC     H10Y     HAL2     0.900000E-01   1.00800           0
     30266 MEMB     226      POPC     C311     CTL2    -0.180000       12.0110           0
     30267 MEMB     226      POPC     H11X     HAL2     0.900000E-01   1.00800           0
     30268 MEMB     226      POPC     H11Y     HAL2     0.900000E-01   1.00800           0
     30269 MEMB     226      POPC     C312     CTL2    -0.180000       12.0110           0
     30270 MEMB     226      POPC     H12X     HAL2     0.900000E-01   1.00800           0
     30271 MEMB     226      POPC     H12Y     HAL2     0.900000E-01   1.00800           0
     30272 MEMB     226      POPC     C313     CTL2    -0.180000       12.0110           0
     30273 MEMB     226      POPC     H13X     HAL2     0.900000E-01   1.00800           0
     30274 MEMB     226      POPC     H13Y     HAL2     0.900000E-01   1.00800           0
     30275 MEMB     226      POPC     C314     CTL2    -0.180000       12.0110           0
     30276 MEMB     226      POPC     H14X     HAL2     0.900000E-01   1.00800           0
     30277 MEMB     226      POPC     H14Y     HAL2     0.900000E-01   1.00800           0
     30278 MEMB     226      POPC     C315     CTL2    -0.180000       12.0110           0
     30279 MEMB     226      POPC     H15X     HAL2     0.900000E-01   1.00800           0
     30280 MEMB     226      POPC     H15Y     HAL2     0.900000E-01   1.00800           0
     30281 MEMB     226      POPC     C316     CTL3    -0.270000       12.0110           0
     30282 MEMB     226      POPC     H16X     HAL3     0.900000E-01   1.00800           0
     30283 MEMB     226      POPC     H16Y     HAL3     0.900000E-01   1.00800           0
     30284 MEMB     226      POPC     H16Z     HAL3     0.900000E-01   1.00800           0
     30285 MEMB     227      POPC     N        NTL     -0.600000       14.0070           0
     30286 MEMB     227      POPC     C12      CTL2    -0.100000       12.0110           0
     30287 MEMB     227      POPC     H12A     HL       0.250000       1.00800           0
     30288 MEMB     227      POPC     H12B     HL       0.250000       1.00800           0
     30289 MEMB     227      POPC     C13      CTL5    -0.350000       12.0110           0
     30290 MEMB     227      POPC     H13A     HL       0.250000       1.00800           0
     30291 MEMB     227      POPC     H13B     HL       0.250000       1.00800           0
     30292 MEMB     227      POPC     H13C     HL       0.250000       1.00800           0
     30293 MEMB     227      POPC     C14      CTL5    -0.350000       12.0110           0
     30294 MEMB     227      POPC     H14A     HL       0.250000       1.00800           0
     30295 MEMB     227      POPC     H14B     HL       0.250000       1.00800           0
     30296 MEMB     227      POPC     H14C     HL       0.250000       1.00800           0
     30297 MEMB     227      POPC     C15      CTL5    -0.350000       12.0110           0
     30298 MEMB     227      POPC     H15A     HL       0.250000       1.00800           0
     30299 MEMB     227      POPC     H15B     HL       0.250000       1.00800           0
     30300 MEMB     227      POPC     H15C     HL       0.250000       1.00800           0
     30301 MEMB     227      POPC     C11      CTL2    -0.800000E-01   12.0110           0
     30302 MEMB     227      POPC     H11A     HAL2     0.900000E-01   1.00800           0
     30303 MEMB     227      POPC     H11B     HAL2     0.900000E-01   1.00800           0
     30304 MEMB     227      POPC     P        PL       1.50000        30.9740           0
     30305 MEMB     227      POPC     O13      O2L     -0.780000       15.9994           0
     30306 MEMB     227      POPC     O14      O2L     -0.780000       15.9994           0
     30307 MEMB     227      POPC     O12      OSLP    -0.570000       15.9994           0
     30308 MEMB     227      POPC     O11      OSLP    -0.570000       15.9994           0
     30309 MEMB     227      POPC     C1       CTL2    -0.800000E-01   12.0110           0
     30310 MEMB     227      POPC     HA       HAL2     0.900000E-01   1.00800           0
     30311 MEMB     227      POPC     HB       HAL2     0.900000E-01   1.00800           0
     30312 MEMB     227      POPC     C2       CTL1     0.170000       12.0110           0
     30313 MEMB     227      POPC     HS       HAL1     0.900000E-01   1.00800           0
     30314 MEMB     227      POPC     O21      OSL     -0.490000       15.9994           0
     30315 MEMB     227      POPC     C21      CL       0.900000       12.0110           0
     30316 MEMB     227      POPC     O22      OBL     -0.630000       15.9994           0
     30317 MEMB     227      POPC     C22      CTL2    -0.220000       12.0110           0
     30318 MEMB     227      POPC     H2R      HAL2     0.900000E-01   1.00800           0
     30319 MEMB     227      POPC     H2S      HAL2     0.900000E-01   1.00800           0
     30320 MEMB     227      POPC     C3       CTL2     0.800000E-01   12.0110           0
     30321 MEMB     227      POPC     HX       HAL2     0.900000E-01   1.00800           0
     30322 MEMB     227      POPC     HY       HAL2     0.900000E-01   1.00800           0
     30323 MEMB     227      POPC     O31      OSL     -0.490000       15.9994           0
     30324 MEMB     227      POPC     C31      CL       0.900000       12.0110           0
     30325 MEMB     227      POPC     O32      OBL     -0.630000       15.9994           0
     30326 MEMB     227      POPC     C32      CTL2    -0.220000       12.0110           0
     30327 MEMB     227      POPC     H2X      HAL2     0.900000E-01   1.00800           0
     30328 MEMB     227      POPC     H2Y      HAL2     0.900000E-01   1.00800           0
     30329 MEMB     227      POPC     C23      CTL2    -0.180000       12.0110           0
     30330 MEMB     227      POPC     H3R      HAL2     0.900000E-01   1.00800           0
     30331 MEMB     227      POPC     H3S      HAL2     0.900000E-01   1.00800           0
     30332 MEMB     227      POPC     C24      CTL2    -0.180000       12.0110           0
     30333 MEMB     227      POPC     H4R      HAL2     0.900000E-01   1.00800           0
     30334 MEMB     227      POPC     H4S      HAL2     0.900000E-01   1.00800           0
     30335 MEMB     227      POPC     C25      CTL2    -0.180000       12.0110           0
     30336 MEMB     227      POPC     H5R      HAL2     0.900000E-01   1.00800           0
     30337 MEMB     227      POPC     H5S      HAL2     0.900000E-01   1.00800           0
     30338 MEMB     227      POPC     C26      CTL2    -0.180000       12.0110           0
     30339 MEMB     227      POPC     H6R      HAL2     0.900000E-01   1.00800           0
     30340 MEMB     227      POPC     H6S      HAL2     0.900000E-01   1.00800           0
     30341 MEMB     227      POPC     C27      CTL2    -0.180000       12.0110           0
     30342 MEMB     227      POPC     H7R      HAL2     0.900000E-01   1.00800           0
     30343 MEMB     227      POPC     H7S      HAL2     0.900000E-01   1.00800           0
     30344 MEMB     227      POPC     C28      CTL2    -0.180000       12.0110           0
     30345 MEMB     227      POPC     H8R      HAL2     0.900000E-01   1.00800           0
     30346 MEMB     227      POPC     H8S      HAL2     0.900000E-01   1.00800           0
     30347 MEMB     227      POPC     C29      CEL1    -0.150000       12.0110           0
     30348 MEMB     227      POPC     H91      HEL1     0.150000       1.00800           0
     30349 MEMB     227      POPC     C210     CEL1    -0.150000       12.0110           0
     30350 MEMB     227      POPC     H101     HEL1     0.150000       1.00800           0
     30351 MEMB     227      POPC     C211     CTL2    -0.180000       12.0110           0
     30352 MEMB     227      POPC     H11R     HAL2     0.900000E-01   1.00800           0
     30353 MEMB     227      POPC     H11S     HAL2     0.900000E-01   1.00800           0
     30354 MEMB     227      POPC     C212     CTL2    -0.180000       12.0110           0
     30355 MEMB     227      POPC     H12R     HAL2     0.900000E-01   1.00800           0
     30356 MEMB     227      POPC     H12S     HAL2     0.900000E-01   1.00800           0
     30357 MEMB     227      POPC     C213     CTL2    -0.180000       12.0110           0
     30358 MEMB     227      POPC     H13R     HAL2     0.900000E-01   1.00800           0
     30359 MEMB     227      POPC     H13S     HAL2     0.900000E-01   1.00800           0
     30360 MEMB     227      POPC     C214     CTL2    -0.180000       12.0110           0
     30361 MEMB     227      POPC     H14R     HAL2     0.900000E-01   1.00800           0
     30362 MEMB     227      POPC     H14S     HAL2     0.900000E-01   1.00800           0
     30363 MEMB     227      POPC     C215     CTL2    -0.180000       12.0110           0
     30364 MEMB     227      POPC     H15R     HAL2     0.900000E-01   1.00800           0
     30365 MEMB     227      POPC     H15S     HAL2     0.900000E-01   1.00800           0
     30366 MEMB     227      POPC     C216     CTL2    -0.180000       12.0110           0
     30367 MEMB     227      POPC     H16R     HAL2     0.900000E-01   1.00800           0
     30368 MEMB     227      POPC     H16S     HAL2     0.900000E-01   1.00800           0
     30369 MEMB     227      POPC     C217     CTL2    -0.180000       12.0110           0
     30370 MEMB     227      POPC     H17R     HAL2     0.900000E-01   1.00800           0
     30371 MEMB     227      POPC     H17S     HAL2     0.900000E-01   1.00800           0
     30372 MEMB     227      POPC     C218     CTL3    -0.270000       12.0110           0
     30373 MEMB     227      POPC     H18R     HAL3     0.900000E-01   1.00800           0
     30374 MEMB     227      POPC     H18S     HAL3     0.900000E-01   1.00800           0
     30375 MEMB     227      POPC     H18T     HAL3     0.900000E-01   1.00800           0
     30376 MEMB     227      POPC     C33      CTL2    -0.180000       12.0110           0
     30377 MEMB     227      POPC     H3X      HAL2     0.900000E-01   1.00800           0
     30378 MEMB     227      POPC     H3Y      HAL2     0.900000E-01   1.00800           0
     30379 MEMB     227      POPC     C34      CTL2    -0.180000       12.0110           0
     30380 MEMB     227      POPC     H4X      HAL2     0.900000E-01   1.00800           0
     30381 MEMB     227      POPC     H4Y      HAL2     0.900000E-01   1.00800           0
     30382 MEMB     227      POPC     C35      CTL2    -0.180000       12.0110           0
     30383 MEMB     227      POPC     H5X      HAL2     0.900000E-01   1.00800           0
     30384 MEMB     227      POPC     H5Y      HAL2     0.900000E-01   1.00800           0
     30385 MEMB     227      POPC     C36      CTL2    -0.180000       12.0110           0
     30386 MEMB     227      POPC     H6X      HAL2     0.900000E-01   1.00800           0
     30387 MEMB     227      POPC     H6Y      HAL2     0.900000E-01   1.00800           0
     30388 MEMB     227      POPC     C37      CTL2    -0.180000       12.0110           0
     30389 MEMB     227      POPC     H7X      HAL2     0.900000E-01   1.00800           0
     30390 MEMB     227      POPC     H7Y      HAL2     0.900000E-01   1.00800           0
     30391 MEMB     227      POPC     C38      CTL2    -0.180000       12.0110           0
     30392 MEMB     227      POPC     H8X      HAL2     0.900000E-01   1.00800           0
     30393 MEMB     227      POPC     H8Y      HAL2     0.900000E-01   1.00800           0
     30394 MEMB     227      POPC     C39      CTL2    -0.180000       12.0110           0
     30395 MEMB     227      POPC     H9X      HAL2     0.900000E-01   1.00800           0
     30396 MEMB     227      POPC     H9Y      HAL2     0.900000E-01   1.00800           0
     30397 MEMB     227      POPC     C310     CTL2    -0.180000       12.0110           0
     30398 MEMB     227      POPC     H10X     HAL2     0.900000E-01   1.00800           0
     30399 MEMB     227      POPC     H10Y     HAL2     0.900000E-01   1.00800           0
     30400 MEMB     227      POPC     C311     CTL2    -0.180000       12.0110           0
     30401 MEMB     227      POPC     H11X     HAL2     0.900000E-01   1.00800           0
     30402 MEMB     227      POPC     H11Y     HAL2     0.900000E-01   1.00800           0
     30403 MEMB     227      POPC     C312     CTL2    -0.180000       12.0110           0
     30404 MEMB     227      POPC     H12X     HAL2     0.900000E-01   1.00800           0
     30405 MEMB     227      POPC     H12Y     HAL2     0.900000E-01   1.00800           0
     30406 MEMB     227      POPC     C313     CTL2    -0.180000       12.0110           0
     30407 MEMB     227      POPC     H13X     HAL2     0.900000E-01   1.00800           0
     30408 MEMB     227      POPC     H13Y     HAL2     0.900000E-01   1.00800           0
     30409 MEMB     227      POPC     C314     CTL2    -0.180000       12.0110           0
     30410 MEMB     227      POPC     H14X     HAL2     0.900000E-01   1.00800           0
     30411 MEMB     227      POPC     H14Y     HAL2     0.900000E-01   1.00800           0
     30412 MEMB     227      POPC     C315     CTL2    -0.180000       12.0110           0
     30413 MEMB     227      POPC     H15X     HAL2     0.900000E-01   1.00800           0
     30414 MEMB     227      POPC     H15Y     HAL2     0.900000E-01   1.00800           0
     30415 MEMB     227      POPC     C316     CTL3    -0.270000       12.0110           0
     30416 MEMB     227      POPC     H16X     HAL3     0.900000E-01   1.00800           0
     30417 MEMB     227      POPC     H16Y     HAL3     0.900000E-01   1.00800           0
     30418 MEMB     227      POPC     H16Z     HAL3     0.900000E-01   1.00800           0
     30419 MEMB     228      POPC     N        NTL     -0.600000       14.0070           0
     30420 MEMB     228      POPC     C12      CTL2    -0.100000       12.0110           0
     30421 MEMB     228      POPC     H12A     HL       0.250000       1.00800           0
     30422 MEMB     228      POPC     H12B     HL       0.250000       1.00800           0
     30423 MEMB     228      POPC     C13      CTL5    -0.350000       12.0110           0
     30424 MEMB     228      POPC     H13A     HL       0.250000       1.00800           0
     30425 MEMB     228      POPC     H13B     HL       0.250000       1.00800           0
     30426 MEMB     228      POPC     H13C     HL       0.250000       1.00800           0
     30427 MEMB     228      POPC     C14      CTL5    -0.350000       12.0110           0
     30428 MEMB     228      POPC     H14A     HL       0.250000       1.00800           0
     30429 MEMB     228      POPC     H14B     HL       0.250000       1.00800           0
     30430 MEMB     228      POPC     H14C     HL       0.250000       1.00800           0
     30431 MEMB     228      POPC     C15      CTL5    -0.350000       12.0110           0
     30432 MEMB     228      POPC     H15A     HL       0.250000       1.00800           0
     30433 MEMB     228      POPC     H15B     HL       0.250000       1.00800           0
     30434 MEMB     228      POPC     H15C     HL       0.250000       1.00800           0
     30435 MEMB     228      POPC     C11      CTL2    -0.800000E-01   12.0110           0
     30436 MEMB     228      POPC     H11A     HAL2     0.900000E-01   1.00800           0
     30437 MEMB     228      POPC     H11B     HAL2     0.900000E-01   1.00800           0
     30438 MEMB     228      POPC     P        PL       1.50000        30.9740           0
     30439 MEMB     228      POPC     O13      O2L     -0.780000       15.9994           0
     30440 MEMB     228      POPC     O14      O2L     -0.780000       15.9994           0
     30441 MEMB     228      POPC     O12      OSLP    -0.570000       15.9994           0
     30442 MEMB     228      POPC     O11      OSLP    -0.570000       15.9994           0
     30443 MEMB     228      POPC     C1       CTL2    -0.800000E-01   12.0110           0
     30444 MEMB     228      POPC     HA       HAL2     0.900000E-01   1.00800           0
     30445 MEMB     228      POPC     HB       HAL2     0.900000E-01   1.00800           0
     30446 MEMB     228      POPC     C2       CTL1     0.170000       12.0110           0
     30447 MEMB     228      POPC     HS       HAL1     0.900000E-01   1.00800           0
     30448 MEMB     228      POPC     O21      OSL     -0.490000       15.9994           0
     30449 MEMB     228      POPC     C21      CL       0.900000       12.0110           0
     30450 MEMB     228      POPC     O22      OBL     -0.630000       15.9994           0
     30451 MEMB     228      POPC     C22      CTL2    -0.220000       12.0110           0
     30452 MEMB     228      POPC     H2R      HAL2     0.900000E-01   1.00800           0
     30453 MEMB     228      POPC     H2S      HAL2     0.900000E-01   1.00800           0
     30454 MEMB     228      POPC     C3       CTL2     0.800000E-01   12.0110           0
     30455 MEMB     228      POPC     HX       HAL2     0.900000E-01   1.00800           0
     30456 MEMB     228      POPC     HY       HAL2     0.900000E-01   1.00800           0
     30457 MEMB     228      POPC     O31      OSL     -0.490000       15.9994           0
     30458 MEMB     228      POPC     C31      CL       0.900000       12.0110           0
     30459 MEMB     228      POPC     O32      OBL     -0.630000       15.9994           0
     30460 MEMB     228      POPC     C32      CTL2    -0.220000       12.0110           0
     30461 MEMB     228      POPC     H2X      HAL2     0.900000E-01   1.00800           0
     30462 MEMB     228      POPC     H2Y      HAL2     0.900000E-01   1.00800           0
     30463 MEMB     228      POPC     C23      CTL2    -0.180000       12.0110           0
     30464 MEMB     228      POPC     H3R      HAL2     0.900000E-01   1.00800           0
     30465 MEMB     228      POPC     H3S      HAL2     0.900000E-01   1.00800           0
     30466 MEMB     228      POPC     C24      CTL2    -0.180000       12.0110           0
     30467 MEMB     228      POPC     H4R      HAL2     0.900000E-01   1.00800           0
     30468 MEMB     228      POPC     H4S      HAL2     0.900000E-01   1.00800           0
     30469 MEMB     228      POPC     C25      CTL2    -0.180000       12.0110           0
     30470 MEMB     228      POPC     H5R      HAL2     0.900000E-01   1.00800           0
     30471 MEMB     228      POPC     H5S      HAL2     0.900000E-01   1.00800           0
     30472 MEMB     228      POPC     C26      CTL2    -0.180000       12.0110           0
     30473 MEMB     228      POPC     H6R      HAL2     0.900000E-01   1.00800           0
     30474 MEMB     228      POPC     H6S      HAL2     0.900000E-01   1.00800           0
     30475 MEMB     228      POPC     C27      CTL2    -0.180000       12.0110           0
     30476 MEMB     228      POPC     H7R      HAL2     0.900000E-01   1.00800           0
     30477 MEMB     228      POPC     H7S      HAL2     0.900000E-01   1.00800           0
     30478 MEMB     228      POPC     C28      CTL2    -0.180000       12.0110           0
     30479 MEMB     228      POPC     H8R      HAL2     0.900000E-01   1.00800           0
     30480 MEMB     228      POPC     H8S      HAL2     0.900000E-01   1.00800           0
     30481 MEMB     228      POPC     C29      CEL1    -0.150000       12.0110           0
     30482 MEMB     228      POPC     H91      HEL1     0.150000       1.00800           0
     30483 MEMB     228      POPC     C210     CEL1    -0.150000       12.0110           0
     30484 MEMB     228      POPC     H101     HEL1     0.150000       1.00800           0
     30485 MEMB     228      POPC     C211     CTL2    -0.180000       12.0110           0
     30486 MEMB     228      POPC     H11R     HAL2     0.900000E-01   1.00800           0
     30487 MEMB     228      POPC     H11S     HAL2     0.900000E-01   1.00800           0
     30488 MEMB     228      POPC     C212     CTL2    -0.180000       12.0110           0
     30489 MEMB     228      POPC     H12R     HAL2     0.900000E-01   1.00800           0
     30490 MEMB     228      POPC     H12S     HAL2     0.900000E-01   1.00800           0
     30491 MEMB     228      POPC     C213     CTL2    -0.180000       12.0110           0
     30492 MEMB     228      POPC     H13R     HAL2     0.900000E-01   1.00800           0
     30493 MEMB     228      POPC     H13S     HAL2     0.900000E-01   1.00800           0
     30494 MEMB     228      POPC     C214     CTL2    -0.180000       12.0110           0
     30495 MEMB     228      POPC     H14R     HAL2     0.900000E-01   1.00800           0
     30496 MEMB     228      POPC     H14S     HAL2     0.900000E-01   1.00800           0
     30497 MEMB     228      POPC     C215     CTL2    -0.180000       12.0110           0
     30498 MEMB     228      POPC     H15R     HAL2     0.900000E-01   1.00800           0
     30499 MEMB     228      POPC     H15S     HAL2     0.900000E-01   1.00800           0
     30500 MEMB     228      POPC     C216     CTL2    -0.180000       12.0110           0
     30501 MEMB     228      POPC     H16R     HAL2     0.900000E-01   1.00800           0
     30502 MEMB     228      POPC     H16S     HAL2     0.900000E-01   1.00800           0
     30503 MEMB     228      POPC     C217     CTL2    -0.180000       12.0110           0
     30504 MEMB     228      POPC     H17R     HAL2     0.900000E-01   1.00800           0
     30505 MEMB     228      POPC     H17S     HAL2     0.900000E-01   1.00800           0
     30506 MEMB     228      POPC     C218     CTL3    -0.270000       12.0110           0
     30507 MEMB     228      POPC     H18R     HAL3     0.900000E-01   1.00800           0
     30508 MEMB     228      POPC     H18S     HAL3     0.900000E-01   1.00800           0
     30509 MEMB     228      POPC     H18T     HAL3     0.900000E-01   1.00800           0
     30510 MEMB     228      POPC     C33      CTL2    -0.180000       12.0110           0
     30511 MEMB     228      POPC     H3X      HAL2     0.900000E-01   1.00800           0
     30512 MEMB     228      POPC     H3Y      HAL2     0.900000E-01   1.00800           0
     30513 MEMB     228      POPC     C34      CTL2    -0.180000       12.0110           0
     30514 MEMB     228      POPC     H4X      HAL2     0.900000E-01   1.00800           0
     30515 MEMB     228      POPC     H4Y      HAL2     0.900000E-01   1.00800           0
     30516 MEMB     228      POPC     C35      CTL2    -0.180000       12.0110           0
     30517 MEMB     228      POPC     H5X      HAL2     0.900000E-01   1.00800           0
     30518 MEMB     228      POPC     H5Y      HAL2     0.900000E-01   1.00800           0
     30519 MEMB     228      POPC     C36      CTL2    -0.180000       12.0110           0
     30520 MEMB     228      POPC     H6X      HAL2     0.900000E-01   1.00800           0
     30521 MEMB     228      POPC     H6Y      HAL2     0.900000E-01   1.00800           0
     30522 MEMB     228      POPC     C37      CTL2    -0.180000       12.0110           0
     30523 MEMB     228      POPC     H7X      HAL2     0.900000E-01   1.00800           0
     30524 MEMB     228      POPC     H7Y      HAL2     0.900000E-01   1.00800           0
     30525 MEMB     228      POPC     C38      CTL2    -0.180000       12.0110           0
     30526 MEMB     228      POPC     H8X      HAL2     0.900000E-01   1.00800           0
     30527 MEMB     228      POPC     H8Y      HAL2     0.900000E-01   1.00800           0
     30528 MEMB     228      POPC     C39      CTL2    -0.180000       12.0110           0
     30529 MEMB     228      POPC     H9X      HAL2     0.900000E-01   1.00800           0
     30530 MEMB     228      POPC     H9Y      HAL2     0.900000E-01   1.00800           0
     30531 MEMB     228      POPC     C310     CTL2    -0.180000       12.0110           0
     30532 MEMB     228      POPC     H10X     HAL2     0.900000E-01   1.00800           0
     30533 MEMB     228      POPC     H10Y     HAL2     0.900000E-01   1.00800           0
     30534 MEMB     228      POPC     C311     CTL2    -0.180000       12.0110           0
     30535 MEMB     228      POPC     H11X     HAL2     0.900000E-01   1.00800           0
     30536 MEMB     228      POPC     H11Y     HAL2     0.900000E-01   1.00800           0
     30537 MEMB     228      POPC     C312     CTL2    -0.180000       12.0110           0
     30538 MEMB     228      POPC     H12X     HAL2     0.900000E-01   1.00800           0
     30539 MEMB     228      POPC     H12Y     HAL2     0.900000E-01   1.00800           0
     30540 MEMB     228      POPC     C313     CTL2    -0.180000       12.0110           0
     30541 MEMB     228      POPC     H13X     HAL2     0.900000E-01   1.00800           0
     30542 MEMB     228      POPC     H13Y     HAL2     0.900000E-01   1.00800           0
     30543 MEMB     228      POPC     C314     CTL2    -0.180000       12.0110           0
     30544 MEMB     228      POPC     H14X     HAL2     0.900000E-01   1.00800           0
     30545 MEMB     228      POPC     H14Y     HAL2     0.900000E-01   1.00800           0
     30546 MEMB     228      POPC     C315     CTL2    -0.180000       12.0110           0
     30547 MEMB     228      POPC     H15X     HAL2     0.900000E-01   1.00800           0
     30548 MEMB     228      POPC     H15Y     HAL2     0.900000E-01   1.00800           0
     30549 MEMB     228      POPC     C316     CTL3    -0.270000       12.0110           0
     30550 MEMB     228      POPC     H16X     HAL3     0.900000E-01   1.00800           0
     30551 MEMB     228      POPC     H16Y     HAL3     0.900000E-01   1.00800           0
     30552 MEMB     228      POPC     H16Z     HAL3     0.900000E-01   1.00800           0
     30553 MEMB     229      POPC     N        NTL     -0.600000       14.0070           0
     30554 MEMB     229      POPC     C12      CTL2    -0.100000       12.0110           0
     30555 MEMB     229      POPC     H12A     HL       0.250000       1.00800           0
     30556 MEMB     229      POPC     H12B     HL       0.250000       1.00800           0
     30557 MEMB     229      POPC     C13      CTL5    -0.350000       12.0110           0
     30558 MEMB     229      POPC     H13A     HL       0.250000       1.00800           0
     30559 MEMB     229      POPC     H13B     HL       0.250000       1.00800           0
     30560 MEMB     229      POPC     H13C     HL       0.250000       1.00800           0
     30561 MEMB     229      POPC     C14      CTL5    -0.350000       12.0110           0
     30562 MEMB     229      POPC     H14A     HL       0.250000       1.00800           0
     30563 MEMB     229      POPC     H14B     HL       0.250000       1.00800           0
     30564 MEMB     229      POPC     H14C     HL       0.250000       1.00800           0
     30565 MEMB     229      POPC     C15      CTL5    -0.350000       12.0110           0
     30566 MEMB     229      POPC     H15A     HL       0.250000       1.00800           0
     30567 MEMB     229      POPC     H15B     HL       0.250000       1.00800           0
     30568 MEMB     229      POPC     H15C     HL       0.250000       1.00800           0
     30569 MEMB     229      POPC     C11      CTL2    -0.800000E-01   12.0110           0
     30570 MEMB     229      POPC     H11A     HAL2     0.900000E-01   1.00800           0
     30571 MEMB     229      POPC     H11B     HAL2     0.900000E-01   1.00800           0
     30572 MEMB     229      POPC     P        PL       1.50000        30.9740           0
     30573 MEMB     229      POPC     O13      O2L     -0.780000       15.9994           0
     30574 MEMB     229      POPC     O14      O2L     -0.780000       15.9994           0
     30575 MEMB     229      POPC     O12      OSLP    -0.570000       15.9994           0
     30576 MEMB     229      POPC     O11      OSLP    -0.570000       15.9994           0
     30577 MEMB     229      POPC     C1       CTL2    -0.800000E-01   12.0110           0
     30578 MEMB     229      POPC     HA       HAL2     0.900000E-01   1.00800           0
     30579 MEMB     229      POPC     HB       HAL2     0.900000E-01   1.00800           0
     30580 MEMB     229      POPC     C2       CTL1     0.170000       12.0110           0
     30581 MEMB     229      POPC     HS       HAL1     0.900000E-01   1.00800           0
     30582 MEMB     229      POPC     O21      OSL     -0.490000       15.9994           0
     30583 MEMB     229      POPC     C21      CL       0.900000       12.0110           0
     30584 MEMB     229      POPC     O22      OBL     -0.630000       15.9994           0
     30585 MEMB     229      POPC     C22      CTL2    -0.220000       12.0110           0
     30586 MEMB     229      POPC     H2R      HAL2     0.900000E-01   1.00800           0
     30587 MEMB     229      POPC     H2S      HAL2     0.900000E-01   1.00800           0
     30588 MEMB     229      POPC     C3       CTL2     0.800000E-01   12.0110           0
     30589 MEMB     229      POPC     HX       HAL2     0.900000E-01   1.00800           0
     30590 MEMB     229      POPC     HY       HAL2     0.900000E-01   1.00800           0
     30591 MEMB     229      POPC     O31      OSL     -0.490000       15.9994           0
     30592 MEMB     229      POPC     C31      CL       0.900000       12.0110           0
     30593 MEMB     229      POPC     O32      OBL     -0.630000       15.9994           0
     30594 MEMB     229      POPC     C32      CTL2    -0.220000       12.0110           0
     30595 MEMB     229      POPC     H2X      HAL2     0.900000E-01   1.00800           0
     30596 MEMB     229      POPC     H2Y      HAL2     0.900000E-01   1.00800           0
     30597 MEMB     229      POPC     C23      CTL2    -0.180000       12.0110           0
     30598 MEMB     229      POPC     H3R      HAL2     0.900000E-01   1.00800           0
     30599 MEMB     229      POPC     H3S      HAL2     0.900000E-01   1.00800           0
     30600 MEMB     229      POPC     C24      CTL2    -0.180000       12.0110           0
     30601 MEMB     229      POPC     H4R      HAL2     0.900000E-01   1.00800           0
     30602 MEMB     229      POPC     H4S      HAL2     0.900000E-01   1.00800           0
     30603 MEMB     229      POPC     C25      CTL2    -0.180000       12.0110           0
     30604 MEMB     229      POPC     H5R      HAL2     0.900000E-01   1.00800           0
     30605 MEMB     229      POPC     H5S      HAL2     0.900000E-01   1.00800           0
     30606 MEMB     229      POPC     C26      CTL2    -0.180000       12.0110           0
     30607 MEMB     229      POPC     H6R      HAL2     0.900000E-01   1.00800           0
     30608 MEMB     229      POPC     H6S      HAL2     0.900000E-01   1.00800           0
     30609 MEMB     229      POPC     C27      CTL2    -0.180000       12.0110           0
     30610 MEMB     229      POPC     H7R      HAL2     0.900000E-01   1.00800           0
     30611 MEMB     229      POPC     H7S      HAL2     0.900000E-01   1.00800           0
     30612 MEMB     229      POPC     C28      CTL2    -0.180000       12.0110           0
     30613 MEMB     229      POPC     H8R      HAL2     0.900000E-01   1.00800           0
     30614 MEMB     229      POPC     H8S      HAL2     0.900000E-01   1.00800           0
     30615 MEMB     229      POPC     C29      CEL1    -0.150000       12.0110           0
     30616 MEMB     229      POPC     H91      HEL1     0.150000       1.00800           0
     30617 MEMB     229      POPC     C210     CEL1    -0.150000       12.0110           0
     30618 MEMB     229      POPC     H101     HEL1     0.150000       1.00800           0
     30619 MEMB     229      POPC     C211     CTL2    -0.180000       12.0110           0
     30620 MEMB     229      POPC     H11R     HAL2     0.900000E-01   1.00800           0
     30621 MEMB     229      POPC     H11S     HAL2     0.900000E-01   1.00800           0
     30622 MEMB     229      POPC     C212     CTL2    -0.180000       12.0110           0
     30623 MEMB     229      POPC     H12R     HAL2     0.900000E-01   1.00800           0
     30624 MEMB     229      POPC     H12S     HAL2     0.900000E-01   1.00800           0
     30625 MEMB     229      POPC     C213     CTL2    -0.180000       12.0110           0
     30626 MEMB     229      POPC     H13R     HAL2     0.900000E-01   1.00800           0
     30627 MEMB     229      POPC     H13S     HAL2     0.900000E-01   1.00800           0
     30628 MEMB     229      POPC     C214     CTL2    -0.180000       12.0110           0
     30629 MEMB     229      POPC     H14R     HAL2     0.900000E-01   1.00800           0
     30630 MEMB     229      POPC     H14S     HAL2     0.900000E-01   1.00800           0
     30631 MEMB     229      POPC     C215     CTL2    -0.180000       12.0110           0
     30632 MEMB     229      POPC     H15R     HAL2     0.900000E-01   1.00800           0
     30633 MEMB     229      POPC     H15S     HAL2     0.900000E-01   1.00800           0
     30634 MEMB     229      POPC     C216     CTL2    -0.180000       12.0110           0
     30635 MEMB     229      POPC     H16R     HAL2     0.900000E-01   1.00800           0
     30636 MEMB     229      POPC     H16S     HAL2     0.900000E-01   1.00800           0
     30637 MEMB     229      POPC     C217     CTL2    -0.180000       12.0110           0
     30638 MEMB     229      POPC     H17R     HAL2     0.900000E-01   1.00800           0
     30639 MEMB     229      POPC     H17S     HAL2     0.900000E-01   1.00800           0
     30640 MEMB     229      POPC     C218     CTL3    -0.270000       12.0110           0
     30641 MEMB     229      POPC     H18R     HAL3     0.900000E-01   1.00800           0
     30642 MEMB     229      POPC     H18S     HAL3     0.900000E-01   1.00800           0
     30643 MEMB     229      POPC     H18T     HAL3     0.900000E-01   1.00800           0
     30644 MEMB     229      POPC     C33      CTL2    -0.180000       12.0110           0
     30645 MEMB     229      POPC     H3X      HAL2     0.900000E-01   1.00800           0
     30646 MEMB     229      POPC     H3Y      HAL2     0.900000E-01   1.00800           0
     30647 MEMB     229      POPC     C34      CTL2    -0.180000       12.0110           0
     30648 MEMB     229      POPC     H4X      HAL2     0.900000E-01   1.00800           0
     30649 MEMB     229      POPC     H4Y      HAL2     0.900000E-01   1.00800           0
     30650 MEMB     229      POPC     C35      CTL2    -0.180000       12.0110           0
     30651 MEMB     229      POPC     H5X      HAL2     0.900000E-01   1.00800           0
     30652 MEMB     229      POPC     H5Y      HAL2     0.900000E-01   1.00800           0
     30653 MEMB     229      POPC     C36      CTL2    -0.180000       12.0110           0
     30654 MEMB     229      POPC     H6X      HAL2     0.900000E-01   1.00800           0
     30655 MEMB     229      POPC     H6Y      HAL2     0.900000E-01   1.00800           0
     30656 MEMB     229      POPC     C37      CTL2    -0.180000       12.0110           0
     30657 MEMB     229      POPC     H7X      HAL2     0.900000E-01   1.00800           0
     30658 MEMB     229      POPC     H7Y      HAL2     0.900000E-01   1.00800           0
     30659 MEMB     229      POPC     C38      CTL2    -0.180000       12.0110           0
     30660 MEMB     229      POPC     H8X      HAL2     0.900000E-01   1.00800           0
     30661 MEMB     229      POPC     H8Y      HAL2     0.900000E-01   1.00800           0
     30662 MEMB     229      POPC     C39      CTL2    -0.180000       12.0110           0
     30663 MEMB     229      POPC     H9X      HAL2     0.900000E-01   1.00800           0
     30664 MEMB     229      POPC     H9Y      HAL2     0.900000E-01   1.00800           0
     30665 MEMB     229      POPC     C310     CTL2    -0.180000       12.0110           0
     30666 MEMB     229      POPC     H10X     HAL2     0.900000E-01   1.00800           0
     30667 MEMB     229      POPC     H10Y     HAL2     0.900000E-01   1.00800           0
     30668 MEMB     229      POPC     C311     CTL2    -0.180000       12.0110           0
     30669 MEMB     229      POPC     H11X     HAL2     0.900000E-01   1.00800           0
     30670 MEMB     229      POPC     H11Y     HAL2     0.900000E-01   1.00800           0
     30671 MEMB     229      POPC     C312     CTL2    -0.180000       12.0110           0
     30672 MEMB     229      POPC     H12X     HAL2     0.900000E-01   1.00800           0
     30673 MEMB     229      POPC     H12Y     HAL2     0.900000E-01   1.00800           0
     30674 MEMB     229      POPC     C313     CTL2    -0.180000       12.0110           0
     30675 MEMB     229      POPC     H13X     HAL2     0.900000E-01   1.00800           0
     30676 MEMB     229      POPC     H13Y     HAL2     0.900000E-01   1.00800           0
     30677 MEMB     229      POPC     C314     CTL2    -0.180000       12.0110           0
     30678 MEMB     229      POPC     H14X     HAL2     0.900000E-01   1.00800           0
     30679 MEMB     229      POPC     H14Y     HAL2     0.900000E-01   1.00800           0
     30680 MEMB     229      POPC     C315     CTL2    -0.180000       12.0110           0
     30681 MEMB     229      POPC     H15X     HAL2     0.900000E-01   1.00800           0
     30682 MEMB     229      POPC     H15Y     HAL2     0.900000E-01   1.00800           0
     30683 MEMB     229      POPC     C316     CTL3    -0.270000       12.0110           0
     30684 MEMB     229      POPC     H16X     HAL3     0.900000E-01   1.00800           0
     30685 MEMB     229      POPC     H16Y     HAL3     0.900000E-01   1.00800           0
     30686 MEMB     229      POPC     H16Z     HAL3     0.900000E-01   1.00800           0
     30687 MEMB     230      POPC     N        NTL     -0.600000       14.0070           0
     30688 MEMB     230      POPC     C12      CTL2    -0.100000       12.0110           0
     30689 MEMB     230      POPC     H12A     HL       0.250000       1.00800           0
     30690 MEMB     230      POPC     H12B     HL       0.250000       1.00800           0
     30691 MEMB     230      POPC     C13      CTL5    -0.350000       12.0110           0
     30692 MEMB     230      POPC     H13A     HL       0.250000       1.00800           0
     30693 MEMB     230      POPC     H13B     HL       0.250000       1.00800           0
     30694 MEMB     230      POPC     H13C     HL       0.250000       1.00800           0
     30695 MEMB     230      POPC     C14      CTL5    -0.350000       12.0110           0
     30696 MEMB     230      POPC     H14A     HL       0.250000       1.00800           0
     30697 MEMB     230      POPC     H14B     HL       0.250000       1.00800           0
     30698 MEMB     230      POPC     H14C     HL       0.250000       1.00800           0
     30699 MEMB     230      POPC     C15      CTL5    -0.350000       12.0110           0
     30700 MEMB     230      POPC     H15A     HL       0.250000       1.00800           0
     30701 MEMB     230      POPC     H15B     HL       0.250000       1.00800           0
     30702 MEMB     230      POPC     H15C     HL       0.250000       1.00800           0
     30703 MEMB     230      POPC     C11      CTL2    -0.800000E-01   12.0110           0
     30704 MEMB     230      POPC     H11A     HAL2     0.900000E-01   1.00800           0
     30705 MEMB     230      POPC     H11B     HAL2     0.900000E-01   1.00800           0
     30706 MEMB     230      POPC     P        PL       1.50000        30.9740           0
     30707 MEMB     230      POPC     O13      O2L     -0.780000       15.9994           0
     30708 MEMB     230      POPC     O14      O2L     -0.780000       15.9994           0
     30709 MEMB     230      POPC     O12      OSLP    -0.570000       15.9994           0
     30710 MEMB     230      POPC     O11      OSLP    -0.570000       15.9994           0
     30711 MEMB     230      POPC     C1       CTL2    -0.800000E-01   12.0110           0
     30712 MEMB     230      POPC     HA       HAL2     0.900000E-01   1.00800           0
     30713 MEMB     230      POPC     HB       HAL2     0.900000E-01   1.00800           0
     30714 MEMB     230      POPC     C2       CTL1     0.170000       12.0110           0
     30715 MEMB     230      POPC     HS       HAL1     0.900000E-01   1.00800           0
     30716 MEMB     230      POPC     O21      OSL     -0.490000       15.9994           0
     30717 MEMB     230      POPC     C21      CL       0.900000       12.0110           0
     30718 MEMB     230      POPC     O22      OBL     -0.630000       15.9994           0
     30719 MEMB     230      POPC     C22      CTL2    -0.220000       12.0110           0
     30720 MEMB     230      POPC     H2R      HAL2     0.900000E-01   1.00800           0
     30721 MEMB     230      POPC     H2S      HAL2     0.900000E-01   1.00800           0
     30722 MEMB     230      POPC     C3       CTL2     0.800000E-01   12.0110           0
     30723 MEMB     230      POPC     HX       HAL2     0.900000E-01   1.00800           0
     30724 MEMB     230      POPC     HY       HAL2     0.900000E-01   1.00800           0
     30725 MEMB     230      POPC     O31      OSL     -0.490000       15.9994           0
     30726 MEMB     230      POPC     C31      CL       0.900000       12.0110           0
     30727 MEMB     230      POPC     O32      OBL     -0.630000       15.9994           0
     30728 MEMB     230      POPC     C32      CTL2    -0.220000       12.0110           0
     30729 MEMB     230      POPC     H2X      HAL2     0.900000E-01   1.00800           0
     30730 MEMB     230      POPC     H2Y      HAL2     0.900000E-01   1.00800           0
     30731 MEMB     230      POPC     C23      CTL2    -0.180000       12.0110           0
     30732 MEMB     230      POPC     H3R      HAL2     0.900000E-01   1.00800           0
     30733 MEMB     230      POPC     H3S      HAL2     0.900000E-01   1.00800           0
     30734 MEMB     230      POPC     C24      CTL2    -0.180000       12.0110           0
     30735 MEMB     230      POPC     H4R      HAL2     0.900000E-01   1.00800           0
     30736 MEMB     230      POPC     H4S      HAL2     0.900000E-01   1.00800           0
     30737 MEMB     230      POPC     C25      CTL2    -0.180000       12.0110           0
     30738 MEMB     230      POPC     H5R      HAL2     0.900000E-01   1.00800           0
     30739 MEMB     230      POPC     H5S      HAL2     0.900000E-01   1.00800           0
     30740 MEMB     230      POPC     C26      CTL2    -0.180000       12.0110           0
     30741 MEMB     230      POPC     H6R      HAL2     0.900000E-01   1.00800           0
     30742 MEMB     230      POPC     H6S      HAL2     0.900000E-01   1.00800           0
     30743 MEMB     230      POPC     C27      CTL2    -0.180000       12.0110           0
     30744 MEMB     230      POPC     H7R      HAL2     0.900000E-01   1.00800           0
     30745 MEMB     230      POPC     H7S      HAL2     0.900000E-01   1.00800           0
     30746 MEMB     230      POPC     C28      CTL2    -0.180000       12.0110           0
     30747 MEMB     230      POPC     H8R      HAL2     0.900000E-01   1.00800           0
     30748 MEMB     230      POPC     H8S      HAL2     0.900000E-01   1.00800           0
     30749 MEMB     230      POPC     C29      CEL1    -0.150000       12.0110           0
     30750 MEMB     230      POPC     H91      HEL1     0.150000       1.00800           0
     30751 MEMB     230      POPC     C210     CEL1    -0.150000       12.0110           0
     30752 MEMB     230      POPC     H101     HEL1     0.150000       1.00800           0
     30753 MEMB     230      POPC     C211     CTL2    -0.180000       12.0110           0
     30754 MEMB     230      POPC     H11R     HAL2     0.900000E-01   1.00800           0
     30755 MEMB     230      POPC     H11S     HAL2     0.900000E-01   1.00800           0
     30756 MEMB     230      POPC     C212     CTL2    -0.180000       12.0110           0
     30757 MEMB     230      POPC     H12R     HAL2     0.900000E-01   1.00800           0
     30758 MEMB     230      POPC     H12S     HAL2     0.900000E-01   1.00800           0
     30759 MEMB     230      POPC     C213     CTL2    -0.180000       12.0110           0
     30760 MEMB     230      POPC     H13R     HAL2     0.900000E-01   1.00800           0
     30761 MEMB     230      POPC     H13S     HAL2     0.900000E-01   1.00800           0
     30762 MEMB     230      POPC     C214     CTL2    -0.180000       12.0110           0
     30763 MEMB     230      POPC     H14R     HAL2     0.900000E-01   1.00800           0
     30764 MEMB     230      POPC     H14S     HAL2     0.900000E-01   1.00800           0
     30765 MEMB     230      POPC     C215     CTL2    -0.180000       12.0110           0
     30766 MEMB     230      POPC     H15R     HAL2     0.900000E-01   1.00800           0
     30767 MEMB     230      POPC     H15S     HAL2     0.900000E-01   1.00800           0
     30768 MEMB     230      POPC     C216     CTL2    -0.180000       12.0110           0
     30769 MEMB     230      POPC     H16R     HAL2     0.900000E-01   1.00800           0
     30770 MEMB     230      POPC     H16S     HAL2     0.900000E-01   1.00800           0
     30771 MEMB     230      POPC     C217     CTL2    -0.180000       12.0110           0
     30772 MEMB     230      POPC     H17R     HAL2     0.900000E-01   1.00800           0
     30773 MEMB     230      POPC     H17S     HAL2     0.900000E-01   1.00800           0
     30774 MEMB     230      POPC     C218     CTL3    -0.270000       12.0110           0
     30775 MEMB     230      POPC     H18R     HAL3     0.900000E-01   1.00800           0
     30776 MEMB     230      POPC     H18S     HAL3     0.900000E-01   1.00800           0
     30777 MEMB     230      POPC     H18T     HAL3     0.900000E-01   1.00800           0
     30778 MEMB     230      POPC     C33      CTL2    -0.180000       12.0110           0
     30779 MEMB     230      POPC     H3X      HAL2     0.900000E-01   1.00800           0
     30780 MEMB     230      POPC     H3Y      HAL2     0.900000E-01   1.00800           0
     30781 MEMB     230      POPC     C34      CTL2    -0.180000       12.0110           0
     30782 MEMB     230      POPC     H4X      HAL2     0.900000E-01   1.00800           0
     30783 MEMB     230      POPC     H4Y      HAL2     0.900000E-01   1.00800           0
     30784 MEMB     230      POPC     C35      CTL2    -0.180000       12.0110           0
     30785 MEMB     230      POPC     H5X      HAL2     0.900000E-01   1.00800           0
     30786 MEMB     230      POPC     H5Y      HAL2     0.900000E-01   1.00800           0
     30787 MEMB     230      POPC     C36      CTL2    -0.180000       12.0110           0
     30788 MEMB     230      POPC     H6X      HAL2     0.900000E-01   1.00800           0
     30789 MEMB     230      POPC     H6Y      HAL2     0.900000E-01   1.00800           0
     30790 MEMB     230      POPC     C37      CTL2    -0.180000       12.0110           0
     30791 MEMB     230      POPC     H7X      HAL2     0.900000E-01   1.00800           0
     30792 MEMB     230      POPC     H7Y      HAL2     0.900000E-01   1.00800           0
     30793 MEMB     230      POPC     C38      CTL2    -0.180000       12.0110           0
     30794 MEMB     230      POPC     H8X      HAL2     0.900000E-01   1.00800           0
     30795 MEMB     230      POPC     H8Y      HAL2     0.900000E-01   1.00800           0
     30796 MEMB     230      POPC     C39      CTL2    -0.180000       12.0110           0
     30797 MEMB     230      POPC     H9X      HAL2     0.900000E-01   1.00800           0
     30798 MEMB     230      POPC     H9Y      HAL2     0.900000E-01   1.00800           0
     30799 MEMB     230      POPC     C310     CTL2    -0.180000       12.0110           0
     30800 MEMB     230      POPC     H10X     HAL2     0.900000E-01   1.00800           0
     30801 MEMB     230      POPC     H10Y     HAL2     0.900000E-01   1.00800           0
     30802 MEMB     230      POPC     C311     CTL2    -0.180000       12.0110           0
     30803 MEMB     230      POPC     H11X     HAL2     0.900000E-01   1.00800           0
     30804 MEMB     230      POPC     H11Y     HAL2     0.900000E-01   1.00800           0
     30805 MEMB     230      POPC     C312     CTL2    -0.180000       12.0110           0
     30806 MEMB     230      POPC     H12X     HAL2     0.900000E-01   1.00800           0
     30807 MEMB     230      POPC     H12Y     HAL2     0.900000E-01   1.00800           0
     30808 MEMB     230      POPC     C313     CTL2    -0.180000       12.0110           0
     30809 MEMB     230      POPC     H13X     HAL2     0.900000E-01   1.00800           0
     30810 MEMB     230      POPC     H13Y     HAL2     0.900000E-01   1.00800           0
     30811 MEMB     230      POPC     C314     CTL2    -0.180000       12.0110           0
     30812 MEMB     230      POPC     H14X     HAL2     0.900000E-01   1.00800           0
     30813 MEMB     230      POPC     H14Y     HAL2     0.900000E-01   1.00800           0
     30814 MEMB     230      POPC     C315     CTL2    -0.180000       12.0110           0
     30815 MEMB     230      POPC     H15X     HAL2     0.900000E-01   1.00800           0
     30816 MEMB     230      POPC     H15Y     HAL2     0.900000E-01   1.00800           0
     30817 MEMB     230      POPC     C316     CTL3    -0.270000       12.0110           0
     30818 MEMB     230      POPC     H16X     HAL3     0.900000E-01   1.00800           0
     30819 MEMB     230      POPC     H16Y     HAL3     0.900000E-01   1.00800           0
     30820 MEMB     230      POPC     H16Z     HAL3     0.900000E-01   1.00800           0
     30821 MEMB     231      POPC     N        NTL     -0.600000       14.0070           0
     30822 MEMB     231      POPC     C12      CTL2    -0.100000       12.0110           0
     30823 MEMB     231      POPC     H12A     HL       0.250000       1.00800           0
     30824 MEMB     231      POPC     H12B     HL       0.250000       1.00800           0
     30825 MEMB     231      POPC     C13      CTL5    -0.350000       12.0110           0
     30826 MEMB     231      POPC     H13A     HL       0.250000       1.00800           0
     30827 MEMB     231      POPC     H13B     HL       0.250000       1.00800           0
     30828 MEMB     231      POPC     H13C     HL       0.250000       1.00800           0
     30829 MEMB     231      POPC     C14      CTL5    -0.350000       12.0110           0
     30830 MEMB     231      POPC     H14A     HL       0.250000       1.00800           0
     30831 MEMB     231      POPC     H14B     HL       0.250000       1.00800           0
     30832 MEMB     231      POPC     H14C     HL       0.250000       1.00800           0
     30833 MEMB     231      POPC     C15      CTL5    -0.350000       12.0110           0
     30834 MEMB     231      POPC     H15A     HL       0.250000       1.00800           0
     30835 MEMB     231      POPC     H15B     HL       0.250000       1.00800           0
     30836 MEMB     231      POPC     H15C     HL       0.250000       1.00800           0
     30837 MEMB     231      POPC     C11      CTL2    -0.800000E-01   12.0110           0
     30838 MEMB     231      POPC     H11A     HAL2     0.900000E-01   1.00800           0
     30839 MEMB     231      POPC     H11B     HAL2     0.900000E-01   1.00800           0
     30840 MEMB     231      POPC     P        PL       1.50000        30.9740           0
     30841 MEMB     231      POPC     O13      O2L     -0.780000       15.9994           0
     30842 MEMB     231      POPC     O14      O2L     -0.780000       15.9994           0
     30843 MEMB     231      POPC     O12      OSLP    -0.570000       15.9994           0
     30844 MEMB     231      POPC     O11      OSLP    -0.570000       15.9994           0
     30845 MEMB     231      POPC     C1       CTL2    -0.800000E-01   12.0110           0
     30846 MEMB     231      POPC     HA       HAL2     0.900000E-01   1.00800           0
     30847 MEMB     231      POPC     HB       HAL2     0.900000E-01   1.00800           0
     30848 MEMB     231      POPC     C2       CTL1     0.170000       12.0110           0
     30849 MEMB     231      POPC     HS       HAL1     0.900000E-01   1.00800           0
     30850 MEMB     231      POPC     O21      OSL     -0.490000       15.9994           0
     30851 MEMB     231      POPC     C21      CL       0.900000       12.0110           0
     30852 MEMB     231      POPC     O22      OBL     -0.630000       15.9994           0
     30853 MEMB     231      POPC     C22      CTL2    -0.220000       12.0110           0
     30854 MEMB     231      POPC     H2R      HAL2     0.900000E-01   1.00800           0
     30855 MEMB     231      POPC     H2S      HAL2     0.900000E-01   1.00800           0
     30856 MEMB     231      POPC     C3       CTL2     0.800000E-01   12.0110           0
     30857 MEMB     231      POPC     HX       HAL2     0.900000E-01   1.00800           0
     30858 MEMB     231      POPC     HY       HAL2     0.900000E-01   1.00800           0
     30859 MEMB     231      POPC     O31      OSL     -0.490000       15.9994           0
     30860 MEMB     231      POPC     C31      CL       0.900000       12.0110           0
     30861 MEMB     231      POPC     O32      OBL     -0.630000       15.9994           0
     30862 MEMB     231      POPC     C32      CTL2    -0.220000       12.0110           0
     30863 MEMB     231      POPC     H2X      HAL2     0.900000E-01   1.00800           0
     30864 MEMB     231      POPC     H2Y      HAL2     0.900000E-01   1.00800           0
     30865 MEMB     231      POPC     C23      CTL2    -0.180000       12.0110           0
     30866 MEMB     231      POPC     H3R      HAL2     0.900000E-01   1.00800           0
     30867 MEMB     231      POPC     H3S      HAL2     0.900000E-01   1.00800           0
     30868 MEMB     231      POPC     C24      CTL2    -0.180000       12.0110           0
     30869 MEMB     231      POPC     H4R      HAL2     0.900000E-01   1.00800           0
     30870 MEMB     231      POPC     H4S      HAL2     0.900000E-01   1.00800           0
     30871 MEMB     231      POPC     C25      CTL2    -0.180000       12.0110           0
     30872 MEMB     231      POPC     H5R      HAL2     0.900000E-01   1.00800           0
     30873 MEMB     231      POPC     H5S      HAL2     0.900000E-01   1.00800           0
     30874 MEMB     231      POPC     C26      CTL2    -0.180000       12.0110           0
     30875 MEMB     231      POPC     H6R      HAL2     0.900000E-01   1.00800           0
     30876 MEMB     231      POPC     H6S      HAL2     0.900000E-01   1.00800           0
     30877 MEMB     231      POPC     C27      CTL2    -0.180000       12.0110           0
     30878 MEMB     231      POPC     H7R      HAL2     0.900000E-01   1.00800           0
     30879 MEMB     231      POPC     H7S      HAL2     0.900000E-01   1.00800           0
     30880 MEMB     231      POPC     C28      CTL2    -0.180000       12.0110           0
     30881 MEMB     231      POPC     H8R      HAL2     0.900000E-01   1.00800           0
     30882 MEMB     231      POPC     H8S      HAL2     0.900000E-01   1.00800           0
     30883 MEMB     231      POPC     C29      CEL1    -0.150000       12.0110           0
     30884 MEMB     231      POPC     H91      HEL1     0.150000       1.00800           0
     30885 MEMB     231      POPC     C210     CEL1    -0.150000       12.0110           0
     30886 MEMB     231      POPC     H101     HEL1     0.150000       1.00800           0
     30887 MEMB     231      POPC     C211     CTL2    -0.180000       12.0110           0
     30888 MEMB     231      POPC     H11R     HAL2     0.900000E-01   1.00800           0
     30889 MEMB     231      POPC     H11S     HAL2     0.900000E-01   1.00800           0
     30890 MEMB     231      POPC     C212     CTL2    -0.180000       12.0110           0
     30891 MEMB     231      POPC     H12R     HAL2     0.900000E-01   1.00800           0
     30892 MEMB     231      POPC     H12S     HAL2     0.900000E-01   1.00800           0
     30893 MEMB     231      POPC     C213     CTL2    -0.180000       12.0110           0
     30894 MEMB     231      POPC     H13R     HAL2     0.900000E-01   1.00800           0
     30895 MEMB     231      POPC     H13S     HAL2     0.900000E-01   1.00800           0
     30896 MEMB     231      POPC     C214     CTL2    -0.180000       12.0110           0
     30897 MEMB     231      POPC     H14R     HAL2     0.900000E-01   1.00800           0
     30898 MEMB     231      POPC     H14S     HAL2     0.900000E-01   1.00800           0
     30899 MEMB     231      POPC     C215     CTL2    -0.180000       12.0110           0
     30900 MEMB     231      POPC     H15R     HAL2     0.900000E-01   1.00800           0
     30901 MEMB     231      POPC     H15S     HAL2     0.900000E-01   1.00800           0
     30902 MEMB     231      POPC     C216     CTL2    -0.180000       12.0110           0
     30903 MEMB     231      POPC     H16R     HAL2     0.900000E-01   1.00800           0
     30904 MEMB     231      POPC     H16S     HAL2     0.900000E-01   1.00800           0
     30905 MEMB     231      POPC     C217     CTL2    -0.180000       12.0110           0
     30906 MEMB     231      POPC     H17R     HAL2     0.900000E-01   1.00800           0
     30907 MEMB     231      POPC     H17S     HAL2     0.900000E-01   1.00800           0
     30908 MEMB     231      POPC     C218     CTL3    -0.270000       12.0110           0
     30909 MEMB     231      POPC     H18R     HAL3     0.900000E-01   1.00800           0
     30910 MEMB     231      POPC     H18S     HAL3     0.900000E-01   1.00800           0
     30911 MEMB     231      POPC     H18T     HAL3     0.900000E-01   1.00800           0
     30912 MEMB     231      POPC     C33      CTL2    -0.180000       12.0110           0
     30913 MEMB     231      POPC     H3X      HAL2     0.900000E-01   1.00800           0
     30914 MEMB     231      POPC     H3Y      HAL2     0.900000E-01   1.00800           0
     30915 MEMB     231      POPC     C34      CTL2    -0.180000       12.0110           0
     30916 MEMB     231      POPC     H4X      HAL2     0.900000E-01   1.00800           0
     30917 MEMB     231      POPC     H4Y      HAL2     0.900000E-01   1.00800           0
     30918 MEMB     231      POPC     C35      CTL2    -0.180000       12.0110           0
     30919 MEMB     231      POPC     H5X      HAL2     0.900000E-01   1.00800           0
     30920 MEMB     231      POPC     H5Y      HAL2     0.900000E-01   1.00800           0
     30921 MEMB     231      POPC     C36      CTL2    -0.180000       12.0110           0
     30922 MEMB     231      POPC     H6X      HAL2     0.900000E-01   1.00800           0
     30923 MEMB     231      POPC     H6Y      HAL2     0.900000E-01   1.00800           0
     30924 MEMB     231      POPC     C37      CTL2    -0.180000       12.0110           0
     30925 MEMB     231      POPC     H7X      HAL2     0.900000E-01   1.00800           0
     30926 MEMB     231      POPC     H7Y      HAL2     0.900000E-01   1.00800           0
     30927 MEMB     231      POPC     C38      CTL2    -0.180000       12.0110           0
     30928 MEMB     231      POPC     H8X      HAL2     0.900000E-01   1.00800           0
     30929 MEMB     231      POPC     H8Y      HAL2     0.900000E-01   1.00800           0
     30930 MEMB     231      POPC     C39      CTL2    -0.180000       12.0110           0
     30931 MEMB     231      POPC     H9X      HAL2     0.900000E-01   1.00800           0
     30932 MEMB     231      POPC     H9Y      HAL2     0.900000E-01   1.00800           0
     30933 MEMB     231      POPC     C310     CTL2    -0.180000       12.0110           0
     30934 MEMB     231      POPC     H10X     HAL2     0.900000E-01   1.00800           0
     30935 MEMB     231      POPC     H10Y     HAL2     0.900000E-01   1.00800           0
     30936 MEMB     231      POPC     C311     CTL2    -0.180000       12.0110           0
     30937 MEMB     231      POPC     H11X     HAL2     0.900000E-01   1.00800           0
     30938 MEMB     231      POPC     H11Y     HAL2     0.900000E-01   1.00800           0
     30939 MEMB     231      POPC     C312     CTL2    -0.180000       12.0110           0
     30940 MEMB     231      POPC     H12X     HAL2     0.900000E-01   1.00800           0
     30941 MEMB     231      POPC     H12Y     HAL2     0.900000E-01   1.00800           0
     30942 MEMB     231      POPC     C313     CTL2    -0.180000       12.0110           0
     30943 MEMB     231      POPC     H13X     HAL2     0.900000E-01   1.00800           0
     30944 MEMB     231      POPC     H13Y     HAL2     0.900000E-01   1.00800           0
     30945 MEMB     231      POPC     C314     CTL2    -0.180000       12.0110           0
     30946 MEMB     231      POPC     H14X     HAL2     0.900000E-01   1.00800           0
     30947 MEMB     231      POPC     H14Y     HAL2     0.900000E-01   1.00800           0
     30948 MEMB     231      POPC     C315     CTL2    -0.180000       12.0110           0
     30949 MEMB     231      POPC     H15X     HAL2     0.900000E-01   1.00800           0
     30950 MEMB     231      POPC     H15Y     HAL2     0.900000E-01   1.00800           0
     30951 MEMB     231      POPC     C316     CTL3    -0.270000       12.0110           0
     30952 MEMB     231      POPC     H16X     HAL3     0.900000E-01   1.00800           0
     30953 MEMB     231      POPC     H16Y     HAL3     0.900000E-01   1.00800           0
     30954 MEMB     231      POPC     H16Z     HAL3     0.900000E-01   1.00800           0
     30955 MEMB     232      POPC     N        NTL     -0.600000       14.0070           0
     30956 MEMB     232      POPC     C12      CTL2    -0.100000       12.0110           0
     30957 MEMB     232      POPC     H12A     HL       0.250000       1.00800           0
     30958 MEMB     232      POPC     H12B     HL       0.250000       1.00800           0
     30959 MEMB     232      POPC     C13      CTL5    -0.350000       12.0110           0
     30960 MEMB     232      POPC     H13A     HL       0.250000       1.00800           0
     30961 MEMB     232      POPC     H13B     HL       0.250000       1.00800           0
     30962 MEMB     232      POPC     H13C     HL       0.250000       1.00800           0
     30963 MEMB     232      POPC     C14      CTL5    -0.350000       12.0110           0
     30964 MEMB     232      POPC     H14A     HL       0.250000       1.00800           0
     30965 MEMB     232      POPC     H14B     HL       0.250000       1.00800           0
     30966 MEMB     232      POPC     H14C     HL       0.250000       1.00800           0
     30967 MEMB     232      POPC     C15      CTL5    -0.350000       12.0110           0
     30968 MEMB     232      POPC     H15A     HL       0.250000       1.00800           0
     30969 MEMB     232      POPC     H15B     HL       0.250000       1.00800           0
     30970 MEMB     232      POPC     H15C     HL       0.250000       1.00800           0
     30971 MEMB     232      POPC     C11      CTL2    -0.800000E-01   12.0110           0
     30972 MEMB     232      POPC     H11A     HAL2     0.900000E-01   1.00800           0
     30973 MEMB     232      POPC     H11B     HAL2     0.900000E-01   1.00800           0
     30974 MEMB     232      POPC     P        PL       1.50000        30.9740           0
     30975 MEMB     232      POPC     O13      O2L     -0.780000       15.9994           0
     30976 MEMB     232      POPC     O14      O2L     -0.780000       15.9994           0
     30977 MEMB     232      POPC     O12      OSLP    -0.570000       15.9994           0
     30978 MEMB     232      POPC     O11      OSLP    -0.570000       15.9994           0
     30979 MEMB     232      POPC     C1       CTL2    -0.800000E-01   12.0110           0
     30980 MEMB     232      POPC     HA       HAL2     0.900000E-01   1.00800           0
     30981 MEMB     232      POPC     HB       HAL2     0.900000E-01   1.00800           0
     30982 MEMB     232      POPC     C2       CTL1     0.170000       12.0110           0
     30983 MEMB     232      POPC     HS       HAL1     0.900000E-01   1.00800           0
     30984 MEMB     232      POPC     O21      OSL     -0.490000       15.9994           0
     30985 MEMB     232      POPC     C21      CL       0.900000       12.0110           0
     30986 MEMB     232      POPC     O22      OBL     -0.630000       15.9994           0
     30987 MEMB     232      POPC     C22      CTL2    -0.220000       12.0110           0
     30988 MEMB     232      POPC     H2R      HAL2     0.900000E-01   1.00800           0
     30989 MEMB     232      POPC     H2S      HAL2     0.900000E-01   1.00800           0
     30990 MEMB     232      POPC     C3       CTL2     0.800000E-01   12.0110           0
     30991 MEMB     232      POPC     HX       HAL2     0.900000E-01   1.00800           0
     30992 MEMB     232      POPC     HY       HAL2     0.900000E-01   1.00800           0
     30993 MEMB     232      POPC     O31      OSL     -0.490000       15.9994           0
     30994 MEMB     232      POPC     C31      CL       0.900000       12.0110           0
     30995 MEMB     232      POPC     O32      OBL     -0.630000       15.9994           0
     30996 MEMB     232      POPC     C32      CTL2    -0.220000       12.0110           0
     30997 MEMB     232      POPC     H2X      HAL2     0.900000E-01   1.00800           0
     30998 MEMB     232      POPC     H2Y      HAL2     0.900000E-01   1.00800           0
     30999 MEMB     232      POPC     C23      CTL2    -0.180000       12.0110           0
     31000 MEMB     232      POPC     H3R      HAL2     0.900000E-01   1.00800           0
     31001 MEMB     232      POPC     H3S      HAL2     0.900000E-01   1.00800           0
     31002 MEMB     232      POPC     C24      CTL2    -0.180000       12.0110           0
     31003 MEMB     232      POPC     H4R      HAL2     0.900000E-01   1.00800           0
     31004 MEMB     232      POPC     H4S      HAL2     0.900000E-01   1.00800           0
     31005 MEMB     232      POPC     C25      CTL2    -0.180000       12.0110           0
     31006 MEMB     232      POPC     H5R      HAL2     0.900000E-01   1.00800           0
     31007 MEMB     232      POPC     H5S      HAL2     0.900000E-01   1.00800           0
     31008 MEMB     232      POPC     C26      CTL2    -0.180000       12.0110           0
     31009 MEMB     232      POPC     H6R      HAL2     0.900000E-01   1.00800           0
     31010 MEMB     232      POPC     H6S      HAL2     0.900000E-01   1.00800           0
     31011 MEMB     232      POPC     C27      CTL2    -0.180000       12.0110           0
     31012 MEMB     232      POPC     H7R      HAL2     0.900000E-01   1.00800           0
     31013 MEMB     232      POPC     H7S      HAL2     0.900000E-01   1.00800           0
     31014 MEMB     232      POPC     C28      CTL2    -0.180000       12.0110           0
     31015 MEMB     232      POPC     H8R      HAL2     0.900000E-01   1.00800           0
     31016 MEMB     232      POPC     H8S      HAL2     0.900000E-01   1.00800           0
     31017 MEMB     232      POPC     C29      CEL1    -0.150000       12.0110           0
     31018 MEMB     232      POPC     H91      HEL1     0.150000       1.00800           0
     31019 MEMB     232      POPC     C210     CEL1    -0.150000       12.0110           0
     31020 MEMB     232      POPC     H101     HEL1     0.150000       1.00800           0
     31021 MEMB     232      POPC     C211     CTL2    -0.180000       12.0110           0
     31022 MEMB     232      POPC     H11R     HAL2     0.900000E-01   1.00800           0
     31023 MEMB     232      POPC     H11S     HAL2     0.900000E-01   1.00800           0
     31024 MEMB     232      POPC     C212     CTL2    -0.180000       12.0110           0
     31025 MEMB     232      POPC     H12R     HAL2     0.900000E-01   1.00800           0
     31026 MEMB     232      POPC     H12S     HAL2     0.900000E-01   1.00800           0
     31027 MEMB     232      POPC     C213     CTL2    -0.180000       12.0110           0
     31028 MEMB     232      POPC     H13R     HAL2     0.900000E-01   1.00800           0
     31029 MEMB     232      POPC     H13S     HAL2     0.900000E-01   1.00800           0
     31030 MEMB     232      POPC     C214     CTL2    -0.180000       12.0110           0
     31031 MEMB     232      POPC     H14R     HAL2     0.900000E-01   1.00800           0
     31032 MEMB     232      POPC     H14S     HAL2     0.900000E-01   1.00800           0
     31033 MEMB     232      POPC     C215     CTL2    -0.180000       12.0110           0
     31034 MEMB     232      POPC     H15R     HAL2     0.900000E-01   1.00800           0
     31035 MEMB     232      POPC     H15S     HAL2     0.900000E-01   1.00800           0
     31036 MEMB     232      POPC     C216     CTL2    -0.180000       12.0110           0
     31037 MEMB     232      POPC     H16R     HAL2     0.900000E-01   1.00800           0
     31038 MEMB     232      POPC     H16S     HAL2     0.900000E-01   1.00800           0
     31039 MEMB     232      POPC     C217     CTL2    -0.180000       12.0110           0
     31040 MEMB     232      POPC     H17R     HAL2     0.900000E-01   1.00800           0
     31041 MEMB     232      POPC     H17S     HAL2     0.900000E-01   1.00800           0
     31042 MEMB     232      POPC     C218     CTL3    -0.270000       12.0110           0
     31043 MEMB     232      POPC     H18R     HAL3     0.900000E-01   1.00800           0
     31044 MEMB     232      POPC     H18S     HAL3     0.900000E-01   1.00800           0
     31045 MEMB     232      POPC     H18T     HAL3     0.900000E-01   1.00800           0
     31046 MEMB     232      POPC     C33      CTL2    -0.180000       12.0110           0
     31047 MEMB     232      POPC     H3X      HAL2     0.900000E-01   1.00800           0
     31048 MEMB     232      POPC     H3Y      HAL2     0.900000E-01   1.00800           0
     31049 MEMB     232      POPC     C34      CTL2    -0.180000       12.0110           0
     31050 MEMB     232      POPC     H4X      HAL2     0.900000E-01   1.00800           0
     31051 MEMB     232      POPC     H4Y      HAL2     0.900000E-01   1.00800           0
     31052 MEMB     232      POPC     C35      CTL2    -0.180000       12.0110           0
     31053 MEMB     232      POPC     H5X      HAL2     0.900000E-01   1.00800           0
     31054 MEMB     232      POPC     H5Y      HAL2     0.900000E-01   1.00800           0
     31055 MEMB     232      POPC     C36      CTL2    -0.180000       12.0110           0
     31056 MEMB     232      POPC     H6X      HAL2     0.900000E-01   1.00800           0
     31057 MEMB     232      POPC     H6Y      HAL2     0.900000E-01   1.00800           0
     31058 MEMB     232      POPC     C37      CTL2    -0.180000       12.0110           0
     31059 MEMB     232      POPC     H7X      HAL2     0.900000E-01   1.00800           0
     31060 MEMB     232      POPC     H7Y      HAL2     0.900000E-01   1.00800           0
     31061 MEMB     232      POPC     C38      CTL2    -0.180000       12.0110           0
     31062 MEMB     232      POPC     H8X      HAL2     0.900000E-01   1.00800           0
     31063 MEMB     232      POPC     H8Y      HAL2     0.900000E-01   1.00800           0
     31064 MEMB     232      POPC     C39      CTL2    -0.180000       12.0110           0
     31065 MEMB     232      POPC     H9X      HAL2     0.900000E-01   1.00800           0
     31066 MEMB     232      POPC     H9Y      HAL2     0.900000E-01   1.00800           0
     31067 MEMB     232      POPC     C310     CTL2    -0.180000       12.0110           0
     31068 MEMB     232      POPC     H10X     HAL2     0.900000E-01   1.00800           0
     31069 MEMB     232      POPC     H10Y     HAL2     0.900000E-01   1.00800           0
     31070 MEMB     232      POPC     C311     CTL2    -0.180000       12.0110           0
     31071 MEMB     232      POPC     H11X     HAL2     0.900000E-01   1.00800           0
     31072 MEMB     232      POPC     H11Y     HAL2     0.900000E-01   1.00800           0
     31073 MEMB     232      POPC     C312     CTL2    -0.180000       12.0110           0
     31074 MEMB     232      POPC     H12X     HAL2     0.900000E-01   1.00800           0
     31075 MEMB     232      POPC     H12Y     HAL2     0.900000E-01   1.00800           0
     31076 MEMB     232      POPC     C313     CTL2    -0.180000       12.0110           0
     31077 MEMB     232      POPC     H13X     HAL2     0.900000E-01   1.00800           0
     31078 MEMB     232      POPC     H13Y     HAL2     0.900000E-01   1.00800           0
     31079 MEMB     232      POPC     C314     CTL2    -0.180000       12.0110           0
     31080 MEMB     232      POPC     H14X     HAL2     0.900000E-01   1.00800           0
     31081 MEMB     232      POPC     H14Y     HAL2     0.900000E-01   1.00800           0
     31082 MEMB     232      POPC     C315     CTL2    -0.180000       12.0110           0
     31083 MEMB     232      POPC     H15X     HAL2     0.900000E-01   1.00800           0
     31084 MEMB     232      POPC     H15Y     HAL2     0.900000E-01   1.00800           0
     31085 MEMB     232      POPC     C316     CTL3    -0.270000       12.0110           0
     31086 MEMB     232      POPC     H16X     HAL3     0.900000E-01   1.00800           0
     31087 MEMB     232      POPC     H16Y     HAL3     0.900000E-01   1.00800           0
     31088 MEMB     232      POPC     H16Z     HAL3     0.900000E-01   1.00800           0
     31089 MEMB     233      POPC     N        NTL     -0.600000       14.0070           0
     31090 MEMB     233      POPC     C12      CTL2    -0.100000       12.0110           0
     31091 MEMB     233      POPC     H12A     HL       0.250000       1.00800           0
     31092 MEMB     233      POPC     H12B     HL       0.250000       1.00800           0
     31093 MEMB     233      POPC     C13      CTL5    -0.350000       12.0110           0
     31094 MEMB     233      POPC     H13A     HL       0.250000       1.00800           0
     31095 MEMB     233      POPC     H13B     HL       0.250000       1.00800           0
     31096 MEMB     233      POPC     H13C     HL       0.250000       1.00800           0
     31097 MEMB     233      POPC     C14      CTL5    -0.350000       12.0110           0
     31098 MEMB     233      POPC     H14A     HL       0.250000       1.00800           0
     31099 MEMB     233      POPC     H14B     HL       0.250000       1.00800           0
     31100 MEMB     233      POPC     H14C     HL       0.250000       1.00800           0
     31101 MEMB     233      POPC     C15      CTL5    -0.350000       12.0110           0
     31102 MEMB     233      POPC     H15A     HL       0.250000       1.00800           0
     31103 MEMB     233      POPC     H15B     HL       0.250000       1.00800           0
     31104 MEMB     233      POPC     H15C     HL       0.250000       1.00800           0
     31105 MEMB     233      POPC     C11      CTL2    -0.800000E-01   12.0110           0
     31106 MEMB     233      POPC     H11A     HAL2     0.900000E-01   1.00800           0
     31107 MEMB     233      POPC     H11B     HAL2     0.900000E-01   1.00800           0
     31108 MEMB     233      POPC     P        PL       1.50000        30.9740           0
     31109 MEMB     233      POPC     O13      O2L     -0.780000       15.9994           0
     31110 MEMB     233      POPC     O14      O2L     -0.780000       15.9994           0
     31111 MEMB     233      POPC     O12      OSLP    -0.570000       15.9994           0
     31112 MEMB     233      POPC     O11      OSLP    -0.570000       15.9994           0
     31113 MEMB     233      POPC     C1       CTL2    -0.800000E-01   12.0110           0
     31114 MEMB     233      POPC     HA       HAL2     0.900000E-01   1.00800           0
     31115 MEMB     233      POPC     HB       HAL2     0.900000E-01   1.00800           0
     31116 MEMB     233      POPC     C2       CTL1     0.170000       12.0110           0
     31117 MEMB     233      POPC     HS       HAL1     0.900000E-01   1.00800           0
     31118 MEMB     233      POPC     O21      OSL     -0.490000       15.9994           0
     31119 MEMB     233      POPC     C21      CL       0.900000       12.0110           0
     31120 MEMB     233      POPC     O22      OBL     -0.630000       15.9994           0
     31121 MEMB     233      POPC     C22      CTL2    -0.220000       12.0110           0
     31122 MEMB     233      POPC     H2R      HAL2     0.900000E-01   1.00800           0
     31123 MEMB     233      POPC     H2S      HAL2     0.900000E-01   1.00800           0
     31124 MEMB     233      POPC     C3       CTL2     0.800000E-01   12.0110           0
     31125 MEMB     233      POPC     HX       HAL2     0.900000E-01   1.00800           0
     31126 MEMB     233      POPC     HY       HAL2     0.900000E-01   1.00800           0
     31127 MEMB     233      POPC     O31      OSL     -0.490000       15.9994           0
     31128 MEMB     233      POPC     C31      CL       0.900000       12.0110           0
     31129 MEMB     233      POPC     O32      OBL     -0.630000       15.9994           0
     31130 MEMB     233      POPC     C32      CTL2    -0.220000       12.0110           0
     31131 MEMB     233      POPC     H2X      HAL2     0.900000E-01   1.00800           0
     31132 MEMB     233      POPC     H2Y      HAL2     0.900000E-01   1.00800           0
     31133 MEMB     233      POPC     C23      CTL2    -0.180000       12.0110           0
     31134 MEMB     233      POPC     H3R      HAL2     0.900000E-01   1.00800           0
     31135 MEMB     233      POPC     H3S      HAL2     0.900000E-01   1.00800           0
     31136 MEMB     233      POPC     C24      CTL2    -0.180000       12.0110           0
     31137 MEMB     233      POPC     H4R      HAL2     0.900000E-01   1.00800           0
     31138 MEMB     233      POPC     H4S      HAL2     0.900000E-01   1.00800           0
     31139 MEMB     233      POPC     C25      CTL2    -0.180000       12.0110           0
     31140 MEMB     233      POPC     H5R      HAL2     0.900000E-01   1.00800           0
     31141 MEMB     233      POPC     H5S      HAL2     0.900000E-01   1.00800           0
     31142 MEMB     233      POPC     C26      CTL2    -0.180000       12.0110           0
     31143 MEMB     233      POPC     H6R      HAL2     0.900000E-01   1.00800           0
     31144 MEMB     233      POPC     H6S      HAL2     0.900000E-01   1.00800           0
     31145 MEMB     233      POPC     C27      CTL2    -0.180000       12.0110           0
     31146 MEMB     233      POPC     H7R      HAL2     0.900000E-01   1.00800           0
     31147 MEMB     233      POPC     H7S      HAL2     0.900000E-01   1.00800           0
     31148 MEMB     233      POPC     C28      CTL2    -0.180000       12.0110           0
     31149 MEMB     233      POPC     H8R      HAL2     0.900000E-01   1.00800           0
     31150 MEMB     233      POPC     H8S      HAL2     0.900000E-01   1.00800           0
     31151 MEMB     233      POPC     C29      CEL1    -0.150000       12.0110           0
     31152 MEMB     233      POPC     H91      HEL1     0.150000       1.00800           0
     31153 MEMB     233      POPC     C210     CEL1    -0.150000       12.0110           0
     31154 MEMB     233      POPC     H101     HEL1     0.150000       1.00800           0
     31155 MEMB     233      POPC     C211     CTL2    -0.180000       12.0110           0
     31156 MEMB     233      POPC     H11R     HAL2     0.900000E-01   1.00800           0
     31157 MEMB     233      POPC     H11S     HAL2     0.900000E-01   1.00800           0
     31158 MEMB     233      POPC     C212     CTL2    -0.180000       12.0110           0
     31159 MEMB     233      POPC     H12R     HAL2     0.900000E-01   1.00800           0
     31160 MEMB     233      POPC     H12S     HAL2     0.900000E-01   1.00800           0
     31161 MEMB     233      POPC     C213     CTL2    -0.180000       12.0110           0
     31162 MEMB     233      POPC     H13R     HAL2     0.900000E-01   1.00800           0
     31163 MEMB     233      POPC     H13S     HAL2     0.900000E-01   1.00800           0
     31164 MEMB     233      POPC     C214     CTL2    -0.180000       12.0110           0
     31165 MEMB     233      POPC     H14R     HAL2     0.900000E-01   1.00800           0
     31166 MEMB     233      POPC     H14S     HAL2     0.900000E-01   1.00800           0
     31167 MEMB     233      POPC     C215     CTL2    -0.180000       12.0110           0
     31168 MEMB     233      POPC     H15R     HAL2     0.900000E-01   1.00800           0
     31169 MEMB     233      POPC     H15S     HAL2     0.900000E-01   1.00800           0
     31170 MEMB     233      POPC     C216     CTL2    -0.180000       12.0110           0
     31171 MEMB     233      POPC     H16R     HAL2     0.900000E-01   1.00800           0
     31172 MEMB     233      POPC     H16S     HAL2     0.900000E-01   1.00800           0
     31173 MEMB     233      POPC     C217     CTL2    -0.180000       12.0110           0
     31174 MEMB     233      POPC     H17R     HAL2     0.900000E-01   1.00800           0
     31175 MEMB     233      POPC     H17S     HAL2     0.900000E-01   1.00800           0
     31176 MEMB     233      POPC     C218     CTL3    -0.270000       12.0110           0
     31177 MEMB     233      POPC     H18R     HAL3     0.900000E-01   1.00800           0
     31178 MEMB     233      POPC     H18S     HAL3     0.900000E-01   1.00800           0
     31179 MEMB     233      POPC     H18T     HAL3     0.900000E-01   1.00800           0
     31180 MEMB     233      POPC     C33      CTL2    -0.180000       12.0110           0
     31181 MEMB     233      POPC     H3X      HAL2     0.900000E-01   1.00800           0
     31182 MEMB     233      POPC     H3Y      HAL2     0.900000E-01   1.00800           0
     31183 MEMB     233      POPC     C34      CTL2    -0.180000       12.0110           0
     31184 MEMB     233      POPC     H4X      HAL2     0.900000E-01   1.00800           0
     31185 MEMB     233      POPC     H4Y      HAL2     0.900000E-01   1.00800           0
     31186 MEMB     233      POPC     C35      CTL2    -0.180000       12.0110           0
     31187 MEMB     233      POPC     H5X      HAL2     0.900000E-01   1.00800           0
     31188 MEMB     233      POPC     H5Y      HAL2     0.900000E-01   1.00800           0
     31189 MEMB     233      POPC     C36      CTL2    -0.180000       12.0110           0
     31190 MEMB     233      POPC     H6X      HAL2     0.900000E-01   1.00800           0
     31191 MEMB     233      POPC     H6Y      HAL2     0.900000E-01   1.00800           0
     31192 MEMB     233      POPC     C37      CTL2    -0.180000       12.0110           0
     31193 MEMB     233      POPC     H7X      HAL2     0.900000E-01   1.00800           0
     31194 MEMB     233      POPC     H7Y      HAL2     0.900000E-01   1.00800           0
     31195 MEMB     233      POPC     C38      CTL2    -0.180000       12.0110           0
     31196 MEMB     233      POPC     H8X      HAL2     0.900000E-01   1.00800           0
     31197 MEMB     233      POPC     H8Y      HAL2     0.900000E-01   1.00800           0
     31198 MEMB     233      POPC     C39      CTL2    -0.180000       12.0110           0
     31199 MEMB     233      POPC     H9X      HAL2     0.900000E-01   1.00800           0
     31200 MEMB     233      POPC     H9Y      HAL2     0.900000E-01   1.00800           0
     31201 MEMB     233      POPC     C310     CTL2    -0.180000       12.0110           0
     31202 MEMB     233      POPC     H10X     HAL2     0.900000E-01   1.00800           0
     31203 MEMB     233      POPC     H10Y     HAL2     0.900000E-01   1.00800           0
     31204 MEMB     233      POPC     C311     CTL2    -0.180000       12.0110           0
     31205 MEMB     233      POPC     H11X     HAL2     0.900000E-01   1.00800           0
     31206 MEMB     233      POPC     H11Y     HAL2     0.900000E-01   1.00800           0
     31207 MEMB     233      POPC     C312     CTL2    -0.180000       12.0110           0
     31208 MEMB     233      POPC     H12X     HAL2     0.900000E-01   1.00800           0
     31209 MEMB     233      POPC     H12Y     HAL2     0.900000E-01   1.00800           0
     31210 MEMB     233      POPC     C313     CTL2    -0.180000       12.0110           0
     31211 MEMB     233      POPC     H13X     HAL2     0.900000E-01   1.00800           0
     31212 MEMB     233      POPC     H13Y     HAL2     0.900000E-01   1.00800           0
     31213 MEMB     233      POPC     C314     CTL2    -0.180000       12.0110           0
     31214 MEMB     233      POPC     H14X     HAL2     0.900000E-01   1.00800           0
     31215 MEMB     233      POPC     H14Y     HAL2     0.900000E-01   1.00800           0
     31216 MEMB     233      POPC     C315     CTL2    -0.180000       12.0110           0
     31217 MEMB     233      POPC     H15X     HAL2     0.900000E-01   1.00800           0
     31218 MEMB     233      POPC     H15Y     HAL2     0.900000E-01   1.00800           0
     31219 MEMB     233      POPC     C316     CTL3    -0.270000       12.0110           0
     31220 MEMB     233      POPC     H16X     HAL3     0.900000E-01   1.00800           0
     31221 MEMB     233      POPC     H16Y     HAL3     0.900000E-01   1.00800           0
     31222 MEMB     233      POPC     H16Z     HAL3     0.900000E-01   1.00800           0
     31223 MEMB     234      POPC     N        NTL     -0.600000       14.0070           0
     31224 MEMB     234      POPC     C12      CTL2    -0.100000       12.0110           0
     31225 MEMB     234      POPC     H12A     HL       0.250000       1.00800           0
     31226 MEMB     234      POPC     H12B     HL       0.250000       1.00800           0
     31227 MEMB     234      POPC     C13      CTL5    -0.350000       12.0110           0
     31228 MEMB     234      POPC     H13A     HL       0.250000       1.00800           0
     31229 MEMB     234      POPC     H13B     HL       0.250000       1.00800           0
     31230 MEMB     234      POPC     H13C     HL       0.250000       1.00800           0
     31231 MEMB     234      POPC     C14      CTL5    -0.350000       12.0110           0
     31232 MEMB     234      POPC     H14A     HL       0.250000       1.00800           0
     31233 MEMB     234      POPC     H14B     HL       0.250000       1.00800           0
     31234 MEMB     234      POPC     H14C     HL       0.250000       1.00800           0
     31235 MEMB     234      POPC     C15      CTL5    -0.350000       12.0110           0
     31236 MEMB     234      POPC     H15A     HL       0.250000       1.00800           0
     31237 MEMB     234      POPC     H15B     HL       0.250000       1.00800           0
     31238 MEMB     234      POPC     H15C     HL       0.250000       1.00800           0
     31239 MEMB     234      POPC     C11      CTL2    -0.800000E-01   12.0110           0
     31240 MEMB     234      POPC     H11A     HAL2     0.900000E-01   1.00800           0
     31241 MEMB     234      POPC     H11B     HAL2     0.900000E-01   1.00800           0
     31242 MEMB     234      POPC     P        PL       1.50000        30.9740           0
     31243 MEMB     234      POPC     O13      O2L     -0.780000       15.9994           0
     31244 MEMB     234      POPC     O14      O2L     -0.780000       15.9994           0
     31245 MEMB     234      POPC     O12      OSLP    -0.570000       15.9994           0
     31246 MEMB     234      POPC     O11      OSLP    -0.570000       15.9994           0
     31247 MEMB     234      POPC     C1       CTL2    -0.800000E-01   12.0110           0
     31248 MEMB     234      POPC     HA       HAL2     0.900000E-01   1.00800           0
     31249 MEMB     234      POPC     HB       HAL2     0.900000E-01   1.00800           0
     31250 MEMB     234      POPC     C2       CTL1     0.170000       12.0110           0
     31251 MEMB     234      POPC     HS       HAL1     0.900000E-01   1.00800           0
     31252 MEMB     234      POPC     O21      OSL     -0.490000       15.9994           0
     31253 MEMB     234      POPC     C21      CL       0.900000       12.0110           0
     31254 MEMB     234      POPC     O22      OBL     -0.630000       15.9994           0
     31255 MEMB     234      POPC     C22      CTL2    -0.220000       12.0110           0
     31256 MEMB     234      POPC     H2R      HAL2     0.900000E-01   1.00800           0
     31257 MEMB     234      POPC     H2S      HAL2     0.900000E-01   1.00800           0
     31258 MEMB     234      POPC     C3       CTL2     0.800000E-01   12.0110           0
     31259 MEMB     234      POPC     HX       HAL2     0.900000E-01   1.00800           0
     31260 MEMB     234      POPC     HY       HAL2     0.900000E-01   1.00800           0
     31261 MEMB     234      POPC     O31      OSL     -0.490000       15.9994           0
     31262 MEMB     234      POPC     C31      CL       0.900000       12.0110           0
     31263 MEMB     234      POPC     O32      OBL     -0.630000       15.9994           0
     31264 MEMB     234      POPC     C32      CTL2    -0.220000       12.0110           0
     31265 MEMB     234      POPC     H2X      HAL2     0.900000E-01   1.00800           0
     31266 MEMB     234      POPC     H2Y      HAL2     0.900000E-01   1.00800           0
     31267 MEMB     234      POPC     C23      CTL2    -0.180000       12.0110           0
     31268 MEMB     234      POPC     H3R      HAL2     0.900000E-01   1.00800           0
     31269 MEMB     234      POPC     H3S      HAL2     0.900000E-01   1.00800           0
     31270 MEMB     234      POPC     C24      CTL2    -0.180000       12.0110           0
     31271 MEMB     234      POPC     H4R      HAL2     0.900000E-01   1.00800           0
     31272 MEMB     234      POPC     H4S      HAL2     0.900000E-01   1.00800           0
     31273 MEMB     234      POPC     C25      CTL2    -0.180000       12.0110           0
     31274 MEMB     234      POPC     H5R      HAL2     0.900000E-01   1.00800           0
     31275 MEMB     234      POPC     H5S      HAL2     0.900000E-01   1.00800           0
     31276 MEMB     234      POPC     C26      CTL2    -0.180000       12.0110           0
     31277 MEMB     234      POPC     H6R      HAL2     0.900000E-01   1.00800           0
     31278 MEMB     234      POPC     H6S      HAL2     0.900000E-01   1.00800           0
     31279 MEMB     234      POPC     C27      CTL2    -0.180000       12.0110           0
     31280 MEMB     234      POPC     H7R      HAL2     0.900000E-01   1.00800           0
     31281 MEMB     234      POPC     H7S      HAL2     0.900000E-01   1.00800           0
     31282 MEMB     234      POPC     C28      CTL2    -0.180000       12.0110           0
     31283 MEMB     234      POPC     H8R      HAL2     0.900000E-01   1.00800           0
     31284 MEMB     234      POPC     H8S      HAL2     0.900000E-01   1.00800           0
     31285 MEMB     234      POPC     C29      CEL1    -0.150000       12.0110           0
     31286 MEMB     234      POPC     H91      HEL1     0.150000       1.00800           0
     31287 MEMB     234      POPC     C210     CEL1    -0.150000       12.0110           0
     31288 MEMB     234      POPC     H101     HEL1     0.150000       1.00800           0
     31289 MEMB     234      POPC     C211     CTL2    -0.180000       12.0110           0
     31290 MEMB     234      POPC     H11R     HAL2     0.900000E-01   1.00800           0
     31291 MEMB     234      POPC     H11S     HAL2     0.900000E-01   1.00800           0
     31292 MEMB     234      POPC     C212     CTL2    -0.180000       12.0110           0
     31293 MEMB     234      POPC     H12R     HAL2     0.900000E-01   1.00800           0
     31294 MEMB     234      POPC     H12S     HAL2     0.900000E-01   1.00800           0
     31295 MEMB     234      POPC     C213     CTL2    -0.180000       12.0110           0
     31296 MEMB     234      POPC     H13R     HAL2     0.900000E-01   1.00800           0
     31297 MEMB     234      POPC     H13S     HAL2     0.900000E-01   1.00800           0
     31298 MEMB     234      POPC     C214     CTL2    -0.180000       12.0110           0
     31299 MEMB     234      POPC     H14R     HAL2     0.900000E-01   1.00800           0
     31300 MEMB     234      POPC     H14S     HAL2     0.900000E-01   1.00800           0
     31301 MEMB     234      POPC     C215     CTL2    -0.180000       12.0110           0
     31302 MEMB     234      POPC     H15R     HAL2     0.900000E-01   1.00800           0
     31303 MEMB     234      POPC     H15S     HAL2     0.900000E-01   1.00800           0
     31304 MEMB     234      POPC     C216     CTL2    -0.180000       12.0110           0
     31305 MEMB     234      POPC     H16R     HAL2     0.900000E-01   1.00800           0
     31306 MEMB     234      POPC     H16S     HAL2     0.900000E-01   1.00800           0
     31307 MEMB     234      POPC     C217     CTL2    -0.180000       12.0110           0
     31308 MEMB     234      POPC     H17R     HAL2     0.900000E-01   1.00800           0
     31309 MEMB     234      POPC     H17S     HAL2     0.900000E-01   1.00800           0
     31310 MEMB     234      POPC     C218     CTL3    -0.270000       12.0110           0
     31311 MEMB     234      POPC     H18R     HAL3     0.900000E-01   1.00800           0
     31312 MEMB     234      POPC     H18S     HAL3     0.900000E-01   1.00800           0
     31313 MEMB     234      POPC     H18T     HAL3     0.900000E-01   1.00800           0
     31314 MEMB     234      POPC     C33      CTL2    -0.180000       12.0110           0
     31315 MEMB     234      POPC     H3X      HAL2     0.900000E-01   1.00800           0
     31316 MEMB     234      POPC     H3Y      HAL2     0.900000E-01   1.00800           0
     31317 MEMB     234      POPC     C34      CTL2    -0.180000       12.0110           0
     31318 MEMB     234      POPC     H4X      HAL2     0.900000E-01   1.00800           0
     31319 MEMB     234      POPC     H4Y      HAL2     0.900000E-01   1.00800           0
     31320 MEMB     234      POPC     C35      CTL2    -0.180000       12.0110           0
     31321 MEMB     234      POPC     H5X      HAL2     0.900000E-01   1.00800           0
     31322 MEMB     234      POPC     H5Y      HAL2     0.900000E-01   1.00800           0
     31323 MEMB     234      POPC     C36      CTL2    -0.180000       12.0110           0
     31324 MEMB     234      POPC     H6X      HAL2     0.900000E-01   1.00800           0
     31325 MEMB     234      POPC     H6Y      HAL2     0.900000E-01   1.00800           0
     31326 MEMB     234      POPC     C37      CTL2    -0.180000       12.0110           0
     31327 MEMB     234      POPC     H7X      HAL2     0.900000E-01   1.00800           0
     31328 MEMB     234      POPC     H7Y      HAL2     0.900000E-01   1.00800           0
     31329 MEMB     234      POPC     C38      CTL2    -0.180000       12.0110           0
     31330 MEMB     234      POPC     H8X      HAL2     0.900000E-01   1.00800           0
     31331 MEMB     234      POPC     H8Y      HAL2     0.900000E-01   1.00800           0
     31332 MEMB     234      POPC     C39      CTL2    -0.180000       12.0110           0
     31333 MEMB     234      POPC     H9X      HAL2     0.900000E-01   1.00800           0
     31334 MEMB     234      POPC     H9Y      HAL2     0.900000E-01   1.00800           0
     31335 MEMB     234      POPC     C310     CTL2    -0.180000       12.0110           0
     31336 MEMB     234      POPC     H10X     HAL2     0.900000E-01   1.00800           0
     31337 MEMB     234      POPC     H10Y     HAL2     0.900000E-01   1.00800           0
     31338 MEMB     234      POPC     C311     CTL2    -0.180000       12.0110           0
     31339 MEMB     234      POPC     H11X     HAL2     0.900000E-01   1.00800           0
     31340 MEMB     234      POPC     H11Y     HAL2     0.900000E-01   1.00800           0
     31341 MEMB     234      POPC     C312     CTL2    -0.180000       12.0110           0
     31342 MEMB     234      POPC     H12X     HAL2     0.900000E-01   1.00800           0
     31343 MEMB     234      POPC     H12Y     HAL2     0.900000E-01   1.00800           0
     31344 MEMB     234      POPC     C313     CTL2    -0.180000       12.0110           0
     31345 MEMB     234      POPC     H13X     HAL2     0.900000E-01   1.00800           0
     31346 MEMB     234      POPC     H13Y     HAL2     0.900000E-01   1.00800           0
     31347 MEMB     234      POPC     C314     CTL2    -0.180000       12.0110           0
     31348 MEMB     234      POPC     H14X     HAL2     0.900000E-01   1.00800           0
     31349 MEMB     234      POPC     H14Y     HAL2     0.900000E-01   1.00800           0
     31350 MEMB     234      POPC     C315     CTL2    -0.180000       12.0110           0
     31351 MEMB     234      POPC     H15X     HAL2     0.900000E-01   1.00800           0
     31352 MEMB     234      POPC     H15Y     HAL2     0.900000E-01   1.00800           0
     31353 MEMB     234      POPC     C316     CTL3    -0.270000       12.0110           0
     31354 MEMB     234      POPC     H16X     HAL3     0.900000E-01   1.00800           0
     31355 MEMB     234      POPC     H16Y     HAL3     0.900000E-01   1.00800           0
     31356 MEMB     234      POPC     H16Z     HAL3     0.900000E-01   1.00800           0
     31357 MEMB     235      POPC     N        NTL     -0.600000       14.0070           0
     31358 MEMB     235      POPC     C12      CTL2    -0.100000       12.0110           0
     31359 MEMB     235      POPC     H12A     HL       0.250000       1.00800           0
     31360 MEMB     235      POPC     H12B     HL       0.250000       1.00800           0
     31361 MEMB     235      POPC     C13      CTL5    -0.350000       12.0110           0
     31362 MEMB     235      POPC     H13A     HL       0.250000       1.00800           0
     31363 MEMB     235      POPC     H13B     HL       0.250000       1.00800           0
     31364 MEMB     235      POPC     H13C     HL       0.250000       1.00800           0
     31365 MEMB     235      POPC     C14      CTL5    -0.350000       12.0110           0
     31366 MEMB     235      POPC     H14A     HL       0.250000       1.00800           0
     31367 MEMB     235      POPC     H14B     HL       0.250000       1.00800           0
     31368 MEMB     235      POPC     H14C     HL       0.250000       1.00800           0
     31369 MEMB     235      POPC     C15      CTL5    -0.350000       12.0110           0
     31370 MEMB     235      POPC     H15A     HL       0.250000       1.00800           0
     31371 MEMB     235      POPC     H15B     HL       0.250000       1.00800           0
     31372 MEMB     235      POPC     H15C     HL       0.250000       1.00800           0
     31373 MEMB     235      POPC     C11      CTL2    -0.800000E-01   12.0110           0
     31374 MEMB     235      POPC     H11A     HAL2     0.900000E-01   1.00800           0
     31375 MEMB     235      POPC     H11B     HAL2     0.900000E-01   1.00800           0
     31376 MEMB     235      POPC     P        PL       1.50000        30.9740           0
     31377 MEMB     235      POPC     O13      O2L     -0.780000       15.9994           0
     31378 MEMB     235      POPC     O14      O2L     -0.780000       15.9994           0
     31379 MEMB     235      POPC     O12      OSLP    -0.570000       15.9994           0
     31380 MEMB     235      POPC     O11      OSLP    -0.570000       15.9994           0
     31381 MEMB     235      POPC     C1       CTL2    -0.800000E-01   12.0110           0
     31382 MEMB     235      POPC     HA       HAL2     0.900000E-01   1.00800           0
     31383 MEMB     235      POPC     HB       HAL2     0.900000E-01   1.00800           0
     31384 MEMB     235      POPC     C2       CTL1     0.170000       12.0110           0
     31385 MEMB     235      POPC     HS       HAL1     0.900000E-01   1.00800           0
     31386 MEMB     235      POPC     O21      OSL     -0.490000       15.9994           0
     31387 MEMB     235      POPC     C21      CL       0.900000       12.0110           0
     31388 MEMB     235      POPC     O22      OBL     -0.630000       15.9994           0
     31389 MEMB     235      POPC     C22      CTL2    -0.220000       12.0110           0
     31390 MEMB     235      POPC     H2R      HAL2     0.900000E-01   1.00800           0
     31391 MEMB     235      POPC     H2S      HAL2     0.900000E-01   1.00800           0
     31392 MEMB     235      POPC     C3       CTL2     0.800000E-01   12.0110           0
     31393 MEMB     235      POPC     HX       HAL2     0.900000E-01   1.00800           0
     31394 MEMB     235      POPC     HY       HAL2     0.900000E-01   1.00800           0
     31395 MEMB     235      POPC     O31      OSL     -0.490000       15.9994           0
     31396 MEMB     235      POPC     C31      CL       0.900000       12.0110           0
     31397 MEMB     235      POPC     O32      OBL     -0.630000       15.9994           0
     31398 MEMB     235      POPC     C32      CTL2    -0.220000       12.0110           0
     31399 MEMB     235      POPC     H2X      HAL2     0.900000E-01   1.00800           0
     31400 MEMB     235      POPC     H2Y      HAL2     0.900000E-01   1.00800           0
     31401 MEMB     235      POPC     C23      CTL2    -0.180000       12.0110           0
     31402 MEMB     235      POPC     H3R      HAL2     0.900000E-01   1.00800           0
     31403 MEMB     235      POPC     H3S      HAL2     0.900000E-01   1.00800           0
     31404 MEMB     235      POPC     C24      CTL2    -0.180000       12.0110           0
     31405 MEMB     235      POPC     H4R      HAL2     0.900000E-01   1.00800           0
     31406 MEMB     235      POPC     H4S      HAL2     0.900000E-01   1.00800           0
     31407 MEMB     235      POPC     C25      CTL2    -0.180000       12.0110           0
     31408 MEMB     235      POPC     H5R      HAL2     0.900000E-01   1.00800           0
     31409 MEMB     235      POPC     H5S      HAL2     0.900000E-01   1.00800           0
     31410 MEMB     235      POPC     C26      CTL2    -0.180000       12.0110           0
     31411 MEMB     235      POPC     H6R      HAL2     0.900000E-01   1.00800           0
     31412 MEMB     235      POPC     H6S      HAL2     0.900000E-01   1.00800           0
     31413 MEMB     235      POPC     C27      CTL2    -0.180000       12.0110           0
     31414 MEMB     235      POPC     H7R      HAL2     0.900000E-01   1.00800           0
     31415 MEMB     235      POPC     H7S      HAL2     0.900000E-01   1.00800           0
     31416 MEMB     235      POPC     C28      CTL2    -0.180000       12.0110           0
     31417 MEMB     235      POPC     H8R      HAL2     0.900000E-01   1.00800           0
     31418 MEMB     235      POPC     H8S      HAL2     0.900000E-01   1.00800           0
     31419 MEMB     235      POPC     C29      CEL1    -0.150000       12.0110           0
     31420 MEMB     235      POPC     H91      HEL1     0.150000       1.00800           0
     31421 MEMB     235      POPC     C210     CEL1    -0.150000       12.0110           0
     31422 MEMB     235      POPC     H101     HEL1     0.150000       1.00800           0
     31423 MEMB     235      POPC     C211     CTL2    -0.180000       12.0110           0
     31424 MEMB     235      POPC     H11R     HAL2     0.900000E-01   1.00800           0
     31425 MEMB     235      POPC     H11S     HAL2     0.900000E-01   1.00800           0
     31426 MEMB     235      POPC     C212     CTL2    -0.180000       12.0110           0
     31427 MEMB     235      POPC     H12R     HAL2     0.900000E-01   1.00800           0
     31428 MEMB     235      POPC     H12S     HAL2     0.900000E-01   1.00800           0
     31429 MEMB     235      POPC     C213     CTL2    -0.180000       12.0110           0
     31430 MEMB     235      POPC     H13R     HAL2     0.900000E-01   1.00800           0
     31431 MEMB     235      POPC     H13S     HAL2     0.900000E-01   1.00800           0
     31432 MEMB     235      POPC     C214     CTL2    -0.180000       12.0110           0
     31433 MEMB     235      POPC     H14R     HAL2     0.900000E-01   1.00800           0
     31434 MEMB     235      POPC     H14S     HAL2     0.900000E-01   1.00800           0
     31435 MEMB     235      POPC     C215     CTL2    -0.180000       12.0110           0
     31436 MEMB     235      POPC     H15R     HAL2     0.900000E-01   1.00800           0
     31437 MEMB     235      POPC     H15S     HAL2     0.900000E-01   1.00800           0
     31438 MEMB     235      POPC     C216     CTL2    -0.180000       12.0110           0
     31439 MEMB     235      POPC     H16R     HAL2     0.900000E-01   1.00800           0
     31440 MEMB     235      POPC     H16S     HAL2     0.900000E-01   1.00800           0
     31441 MEMB     235      POPC     C217     CTL2    -0.180000       12.0110           0
     31442 MEMB     235      POPC     H17R     HAL2     0.900000E-01   1.00800           0
     31443 MEMB     235      POPC     H17S     HAL2     0.900000E-01   1.00800           0
     31444 MEMB     235      POPC     C218     CTL3    -0.270000       12.0110           0
     31445 MEMB     235      POPC     H18R     HAL3     0.900000E-01   1.00800           0
     31446 MEMB     235      POPC     H18S     HAL3     0.900000E-01   1.00800           0
     31447 MEMB     235      POPC     H18T     HAL3     0.900000E-01   1.00800           0
     31448 MEMB     235      POPC     C33      CTL2    -0.180000       12.0110           0
     31449 MEMB     235      POPC     H3X      HAL2     0.900000E-01   1.00800           0
     31450 MEMB     235      POPC     H3Y      HAL2     0.900000E-01   1.00800           0
     31451 MEMB     235      POPC     C34      CTL2    -0.180000       12.0110           0
     31452 MEMB     235      POPC     H4X      HAL2     0.900000E-01   1.00800           0
     31453 MEMB     235      POPC     H4Y      HAL2     0.900000E-01   1.00800           0
     31454 MEMB     235      POPC     C35      CTL2    -0.180000       12.0110           0
     31455 MEMB     235      POPC     H5X      HAL2     0.900000E-01   1.00800           0
     31456 MEMB     235      POPC     H5Y      HAL2     0.900000E-01   1.00800           0
     31457 MEMB     235      POPC     C36      CTL2    -0.180000       12.0110           0
     31458 MEMB     235      POPC     H6X      HAL2     0.900000E-01   1.00800           0
     31459 MEMB     235      POPC     H6Y      HAL2     0.900000E-01   1.00800           0
     31460 MEMB     235      POPC     C37      CTL2    -0.180000       12.0110           0
     31461 MEMB     235      POPC     H7X      HAL2     0.900000E-01   1.00800           0
     31462 MEMB     235      POPC     H7Y      HAL2     0.900000E-01   1.00800           0
     31463 MEMB     235      POPC     C38      CTL2    -0.180000       12.0110           0
     31464 MEMB     235      POPC     H8X      HAL2     0.900000E-01   1.00800           0
     31465 MEMB     235      POPC     H8Y      HAL2     0.900000E-01   1.00800           0
     31466 MEMB     235      POPC     C39      CTL2    -0.180000       12.0110           0
     31467 MEMB     235      POPC     H9X      HAL2     0.900000E-01   1.00800           0
     31468 MEMB     235      POPC     H9Y      HAL2     0.900000E-01   1.00800           0
     31469 MEMB     235      POPC     C310     CTL2    -0.180000       12.0110           0
     31470 MEMB     235      POPC     H10X     HAL2     0.900000E-01   1.00800           0
     31471 MEMB     235      POPC     H10Y     HAL2     0.900000E-01   1.00800           0
     31472 MEMB     235      POPC     C311     CTL2    -0.180000       12.0110           0
     31473 MEMB     235      POPC     H11X     HAL2     0.900000E-01   1.00800           0
     31474 MEMB     235      POPC     H11Y     HAL2     0.900000E-01   1.00800           0
     31475 MEMB     235      POPC     C312     CTL2    -0.180000       12.0110           0
     31476 MEMB     235      POPC     H12X     HAL2     0.900000E-01   1.00800           0
     31477 MEMB     235      POPC     H12Y     HAL2     0.900000E-01   1.00800           0
     31478 MEMB     235      POPC     C313     CTL2    -0.180000       12.0110           0
     31479 MEMB     235      POPC     H13X     HAL2     0.900000E-01   1.00800           0
     31480 MEMB     235      POPC     H13Y     HAL2     0.900000E-01   1.00800           0
     31481 MEMB     235      POPC     C314     CTL2    -0.180000       12.0110           0
     31482 MEMB     235      POPC     H14X     HAL2     0.900000E-01   1.00800           0
     31483 MEMB     235      POPC     H14Y     HAL2     0.900000E-01   1.00800           0
     31484 MEMB     235      POPC     C315     CTL2    -0.180000       12.0110           0
     31485 MEMB     235      POPC     H15X     HAL2     0.900000E-01   1.00800           0
     31486 MEMB     235      POPC     H15Y     HAL2     0.900000E-01   1.00800           0
     31487 MEMB     235      POPC     C316     CTL3    -0.270000       12.0110           0
     31488 MEMB     235      POPC     H16X     HAL3     0.900000E-01   1.00800           0
     31489 MEMB     235      POPC     H16Y     HAL3     0.900000E-01   1.00800           0
     31490 MEMB     235      POPC     H16Z     HAL3     0.900000E-01   1.00800           0
     31491 MEMB     236      POPC     N        NTL     -0.600000       14.0070           0
     31492 MEMB     236      POPC     C12      CTL2    -0.100000       12.0110           0
     31493 MEMB     236      POPC     H12A     HL       0.250000       1.00800           0
     31494 MEMB     236      POPC     H12B     HL       0.250000       1.00800           0
     31495 MEMB     236      POPC     C13      CTL5    -0.350000       12.0110           0
     31496 MEMB     236      POPC     H13A     HL       0.250000       1.00800           0
     31497 MEMB     236      POPC     H13B     HL       0.250000       1.00800           0
     31498 MEMB     236      POPC     H13C     HL       0.250000       1.00800           0
     31499 MEMB     236      POPC     C14      CTL5    -0.350000       12.0110           0
     31500 MEMB     236      POPC     H14A     HL       0.250000       1.00800           0
     31501 MEMB     236      POPC     H14B     HL       0.250000       1.00800           0
     31502 MEMB     236      POPC     H14C     HL       0.250000       1.00800           0
     31503 MEMB     236      POPC     C15      CTL5    -0.350000       12.0110           0
     31504 MEMB     236      POPC     H15A     HL       0.250000       1.00800           0
     31505 MEMB     236      POPC     H15B     HL       0.250000       1.00800           0
     31506 MEMB     236      POPC     H15C     HL       0.250000       1.00800           0
     31507 MEMB     236      POPC     C11      CTL2    -0.800000E-01   12.0110           0
     31508 MEMB     236      POPC     H11A     HAL2     0.900000E-01   1.00800           0
     31509 MEMB     236      POPC     H11B     HAL2     0.900000E-01   1.00800           0
     31510 MEMB     236      POPC     P        PL       1.50000        30.9740           0
     31511 MEMB     236      POPC     O13      O2L     -0.780000       15.9994           0
     31512 MEMB     236      POPC     O14      O2L     -0.780000       15.9994           0
     31513 MEMB     236      POPC     O12      OSLP    -0.570000       15.9994           0
     31514 MEMB     236      POPC     O11      OSLP    -0.570000       15.9994           0
     31515 MEMB     236      POPC     C1       CTL2    -0.800000E-01   12.0110           0
     31516 MEMB     236      POPC     HA       HAL2     0.900000E-01   1.00800           0
     31517 MEMB     236      POPC     HB       HAL2     0.900000E-01   1.00800           0
     31518 MEMB     236      POPC     C2       CTL1     0.170000       12.0110           0
     31519 MEMB     236      POPC     HS       HAL1     0.900000E-01   1.00800           0
     31520 MEMB     236      POPC     O21      OSL     -0.490000       15.9994           0
     31521 MEMB     236      POPC     C21      CL       0.900000       12.0110           0
     31522 MEMB     236      POPC     O22      OBL     -0.630000       15.9994           0
     31523 MEMB     236      POPC     C22      CTL2    -0.220000       12.0110           0
     31524 MEMB     236      POPC     H2R      HAL2     0.900000E-01   1.00800           0
     31525 MEMB     236      POPC     H2S      HAL2     0.900000E-01   1.00800           0
     31526 MEMB     236      POPC     C3       CTL2     0.800000E-01   12.0110           0
     31527 MEMB     236      POPC     HX       HAL2     0.900000E-01   1.00800           0
     31528 MEMB     236      POPC     HY       HAL2     0.900000E-01   1.00800           0
     31529 MEMB     236      POPC     O31      OSL     -0.490000       15.9994           0
     31530 MEMB     236      POPC     C31      CL       0.900000       12.0110           0
     31531 MEMB     236      POPC     O32      OBL     -0.630000       15.9994           0
     31532 MEMB     236      POPC     C32      CTL2    -0.220000       12.0110           0
     31533 MEMB     236      POPC     H2X      HAL2     0.900000E-01   1.00800           0
     31534 MEMB     236      POPC     H2Y      HAL2     0.900000E-01   1.00800           0
     31535 MEMB     236      POPC     C23      CTL2    -0.180000       12.0110           0
     31536 MEMB     236      POPC     H3R      HAL2     0.900000E-01   1.00800           0
     31537 MEMB     236      POPC     H3S      HAL2     0.900000E-01   1.00800           0
     31538 MEMB     236      POPC     C24      CTL2    -0.180000       12.0110           0
     31539 MEMB     236      POPC     H4R      HAL2     0.900000E-01   1.00800           0
     31540 MEMB     236      POPC     H4S      HAL2     0.900000E-01   1.00800           0
     31541 MEMB     236      POPC     C25      CTL2    -0.180000       12.0110           0
     31542 MEMB     236      POPC     H5R      HAL2     0.900000E-01   1.00800           0
     31543 MEMB     236      POPC     H5S      HAL2     0.900000E-01   1.00800           0
     31544 MEMB     236      POPC     C26      CTL2    -0.180000       12.0110           0
     31545 MEMB     236      POPC     H6R      HAL2     0.900000E-01   1.00800           0
     31546 MEMB     236      POPC     H6S      HAL2     0.900000E-01   1.00800           0
     31547 MEMB     236      POPC     C27      CTL2    -0.180000       12.0110           0
     31548 MEMB     236      POPC     H7R      HAL2     0.900000E-01   1.00800           0
     31549 MEMB     236      POPC     H7S      HAL2     0.900000E-01   1.00800           0
     31550 MEMB     236      POPC     C28      CTL2    -0.180000       12.0110           0
     31551 MEMB     236      POPC     H8R      HAL2     0.900000E-01   1.00800           0
     31552 MEMB     236      POPC     H8S      HAL2     0.900000E-01   1.00800           0
     31553 MEMB     236      POPC     C29      CEL1    -0.150000       12.0110           0
     31554 MEMB     236      POPC     H91      HEL1     0.150000       1.00800           0
     31555 MEMB     236      POPC     C210     CEL1    -0.150000       12.0110           0
     31556 MEMB     236      POPC     H101     HEL1     0.150000       1.00800           0
     31557 MEMB     236      POPC     C211     CTL2    -0.180000       12.0110           0
     31558 MEMB     236      POPC     H11R     HAL2     0.900000E-01   1.00800           0
     31559 MEMB     236      POPC     H11S     HAL2     0.900000E-01   1.00800           0
     31560 MEMB     236      POPC     C212     CTL2    -0.180000       12.0110           0
     31561 MEMB     236      POPC     H12R     HAL2     0.900000E-01   1.00800           0
     31562 MEMB     236      POPC     H12S     HAL2     0.900000E-01   1.00800           0
     31563 MEMB     236      POPC     C213     CTL2    -0.180000       12.0110           0
     31564 MEMB     236      POPC     H13R     HAL2     0.900000E-01   1.00800           0
     31565 MEMB     236      POPC     H13S     HAL2     0.900000E-01   1.00800           0
     31566 MEMB     236      POPC     C214     CTL2    -0.180000       12.0110           0
     31567 MEMB     236      POPC     H14R     HAL2     0.900000E-01   1.00800           0
     31568 MEMB     236      POPC     H14S     HAL2     0.900000E-01   1.00800           0
     31569 MEMB     236      POPC     C215     CTL2    -0.180000       12.0110           0
     31570 MEMB     236      POPC     H15R     HAL2     0.900000E-01   1.00800           0
     31571 MEMB     236      POPC     H15S     HAL2     0.900000E-01   1.00800           0
     31572 MEMB     236      POPC     C216     CTL2    -0.180000       12.0110           0
     31573 MEMB     236      POPC     H16R     HAL2     0.900000E-01   1.00800           0
     31574 MEMB     236      POPC     H16S     HAL2     0.900000E-01   1.00800           0
     31575 MEMB     236      POPC     C217     CTL2    -0.180000       12.0110           0
     31576 MEMB     236      POPC     H17R     HAL2     0.900000E-01   1.00800           0
     31577 MEMB     236      POPC     H17S     HAL2     0.900000E-01   1.00800           0
     31578 MEMB     236      POPC     C218     CTL3    -0.270000       12.0110           0
     31579 MEMB     236      POPC     H18R     HAL3     0.900000E-01   1.00800           0
     31580 MEMB     236      POPC     H18S     HAL3     0.900000E-01   1.00800           0
     31581 MEMB     236      POPC     H18T     HAL3     0.900000E-01   1.00800           0
     31582 MEMB     236      POPC     C33      CTL2    -0.180000       12.0110           0
     31583 MEMB     236      POPC     H3X      HAL2     0.900000E-01   1.00800           0
     31584 MEMB     236      POPC     H3Y      HAL2     0.900000E-01   1.00800           0
     31585 MEMB     236      POPC     C34      CTL2    -0.180000       12.0110           0
     31586 MEMB     236      POPC     H4X      HAL2     0.900000E-01   1.00800           0
     31587 MEMB     236      POPC     H4Y      HAL2     0.900000E-01   1.00800           0
     31588 MEMB     236      POPC     C35      CTL2    -0.180000       12.0110           0
     31589 MEMB     236      POPC     H5X      HAL2     0.900000E-01   1.00800           0
     31590 MEMB     236      POPC     H5Y      HAL2     0.900000E-01   1.00800           0
     31591 MEMB     236      POPC     C36      CTL2    -0.180000       12.0110           0
     31592 MEMB     236      POPC     H6X      HAL2     0.900000E-01   1.00800           0
     31593 MEMB     236      POPC     H6Y      HAL2     0.900000E-01   1.00800           0
     31594 MEMB     236      POPC     C37      CTL2    -0.180000       12.0110           0
     31595 MEMB     236      POPC     H7X      HAL2     0.900000E-01   1.00800           0
     31596 MEMB     236      POPC     H7Y      HAL2     0.900000E-01   1.00800           0
     31597 MEMB     236      POPC     C38      CTL2    -0.180000       12.0110           0
     31598 MEMB     236      POPC     H8X      HAL2     0.900000E-01   1.00800           0
     31599 MEMB     236      POPC     H8Y      HAL2     0.900000E-01   1.00800           0
     31600 MEMB     236      POPC     C39      CTL2    -0.180000       12.0110           0
     31601 MEMB     236      POPC     H9X      HAL2     0.900000E-01   1.00800           0
     31602 MEMB     236      POPC     H9Y      HAL2     0.900000E-01   1.00800           0
     31603 MEMB     236      POPC     C310     CTL2    -0.180000       12.0110           0
     31604 MEMB     236      POPC     H10X     HAL2     0.900000E-01   1.00800           0
     31605 MEMB     236      POPC     H10Y     HAL2     0.900000E-01   1.00800           0
     31606 MEMB     236      POPC     C311     CTL2    -0.180000       12.0110           0
     31607 MEMB     236      POPC     H11X     HAL2     0.900000E-01   1.00800           0
     31608 MEMB     236      POPC     H11Y     HAL2     0.900000E-01   1.00800           0
     31609 MEMB     236      POPC     C312     CTL2    -0.180000       12.0110           0
     31610 MEMB     236      POPC     H12X     HAL2     0.900000E-01   1.00800           0
     31611 MEMB     236      POPC     H12Y     HAL2     0.900000E-01   1.00800           0
     31612 MEMB     236      POPC     C313     CTL2    -0.180000       12.0110           0
     31613 MEMB     236      POPC     H13X     HAL2     0.900000E-01   1.00800           0
     31614 MEMB     236      POPC     H13Y     HAL2     0.900000E-01   1.00800           0
     31615 MEMB     236      POPC     C314     CTL2    -0.180000       12.0110           0
     31616 MEMB     236      POPC     H14X     HAL2     0.900000E-01   1.00800           0
     31617 MEMB     236      POPC     H14Y     HAL2     0.900000E-01   1.00800           0
     31618 MEMB     236      POPC     C315     CTL2    -0.180000       12.0110           0
     31619 MEMB     236      POPC     H15X     HAL2     0.900000E-01   1.00800           0
     31620 MEMB     236      POPC     H15Y     HAL2     0.900000E-01   1.00800           0
     31621 MEMB     236      POPC     C316     CTL3    -0.270000       12.0110           0
     31622 MEMB     236      POPC     H16X     HAL3     0.900000E-01   1.00800           0
     31623 MEMB     236      POPC     H16Y     HAL3     0.900000E-01   1.00800           0
     31624 MEMB     236      POPC     H16Z     HAL3     0.900000E-01   1.00800           0
     31625 MEMB     237      POPC     N        NTL     -0.600000       14.0070           0
     31626 MEMB     237      POPC     C12      CTL2    -0.100000       12.0110           0
     31627 MEMB     237      POPC     H12A     HL       0.250000       1.00800           0
     31628 MEMB     237      POPC     H12B     HL       0.250000       1.00800           0
     31629 MEMB     237      POPC     C13      CTL5    -0.350000       12.0110           0
     31630 MEMB     237      POPC     H13A     HL       0.250000       1.00800           0
     31631 MEMB     237      POPC     H13B     HL       0.250000       1.00800           0
     31632 MEMB     237      POPC     H13C     HL       0.250000       1.00800           0
     31633 MEMB     237      POPC     C14      CTL5    -0.350000       12.0110           0
     31634 MEMB     237      POPC     H14A     HL       0.250000       1.00800           0
     31635 MEMB     237      POPC     H14B     HL       0.250000       1.00800           0
     31636 MEMB     237      POPC     H14C     HL       0.250000       1.00800           0
     31637 MEMB     237      POPC     C15      CTL5    -0.350000       12.0110           0
     31638 MEMB     237      POPC     H15A     HL       0.250000       1.00800           0
     31639 MEMB     237      POPC     H15B     HL       0.250000       1.00800           0
     31640 MEMB     237      POPC     H15C     HL       0.250000       1.00800           0
     31641 MEMB     237      POPC     C11      CTL2    -0.800000E-01   12.0110           0
     31642 MEMB     237      POPC     H11A     HAL2     0.900000E-01   1.00800           0
     31643 MEMB     237      POPC     H11B     HAL2     0.900000E-01   1.00800           0
     31644 MEMB     237      POPC     P        PL       1.50000        30.9740           0
     31645 MEMB     237      POPC     O13      O2L     -0.780000       15.9994           0
     31646 MEMB     237      POPC     O14      O2L     -0.780000       15.9994           0
     31647 MEMB     237      POPC     O12      OSLP    -0.570000       15.9994           0
     31648 MEMB     237      POPC     O11      OSLP    -0.570000       15.9994           0
     31649 MEMB     237      POPC     C1       CTL2    -0.800000E-01   12.0110           0
     31650 MEMB     237      POPC     HA       HAL2     0.900000E-01   1.00800           0
     31651 MEMB     237      POPC     HB       HAL2     0.900000E-01   1.00800           0
     31652 MEMB     237      POPC     C2       CTL1     0.170000       12.0110           0
     31653 MEMB     237      POPC     HS       HAL1     0.900000E-01   1.00800           0
     31654 MEMB     237      POPC     O21      OSL     -0.490000       15.9994           0
     31655 MEMB     237      POPC     C21      CL       0.900000       12.0110           0
     31656 MEMB     237      POPC     O22      OBL     -0.630000       15.9994           0
     31657 MEMB     237      POPC     C22      CTL2    -0.220000       12.0110           0
     31658 MEMB     237      POPC     H2R      HAL2     0.900000E-01   1.00800           0
     31659 MEMB     237      POPC     H2S      HAL2     0.900000E-01   1.00800           0
     31660 MEMB     237      POPC     C3       CTL2     0.800000E-01   12.0110           0
     31661 MEMB     237      POPC     HX       HAL2     0.900000E-01   1.00800           0
     31662 MEMB     237      POPC     HY       HAL2     0.900000E-01   1.00800           0
     31663 MEMB     237      POPC     O31      OSL     -0.490000       15.9994           0
     31664 MEMB     237      POPC     C31      CL       0.900000       12.0110           0
     31665 MEMB     237      POPC     O32      OBL     -0.630000       15.9994           0
     31666 MEMB     237      POPC     C32      CTL2    -0.220000       12.0110           0
     31667 MEMB     237      POPC     H2X      HAL2     0.900000E-01   1.00800           0
     31668 MEMB     237      POPC     H2Y      HAL2     0.900000E-01   1.00800           0
     31669 MEMB     237      POPC     C23      CTL2    -0.180000       12.0110           0
     31670 MEMB     237      POPC     H3R      HAL2     0.900000E-01   1.00800           0
     31671 MEMB     237      POPC     H3S      HAL2     0.900000E-01   1.00800           0
     31672 MEMB     237      POPC     C24      CTL2    -0.180000       12.0110           0
     31673 MEMB     237      POPC     H4R      HAL2     0.900000E-01   1.00800           0
     31674 MEMB     237      POPC     H4S      HAL2     0.900000E-01   1.00800           0
     31675 MEMB     237      POPC     C25      CTL2    -0.180000       12.0110           0
     31676 MEMB     237      POPC     H5R      HAL2     0.900000E-01   1.00800           0
     31677 MEMB     237      POPC     H5S      HAL2     0.900000E-01   1.00800           0
     31678 MEMB     237      POPC     C26      CTL2    -0.180000       12.0110           0
     31679 MEMB     237      POPC     H6R      HAL2     0.900000E-01   1.00800           0
     31680 MEMB     237      POPC     H6S      HAL2     0.900000E-01   1.00800           0
     31681 MEMB     237      POPC     C27      CTL2    -0.180000       12.0110           0
     31682 MEMB     237      POPC     H7R      HAL2     0.900000E-01   1.00800           0
     31683 MEMB     237      POPC     H7S      HAL2     0.900000E-01   1.00800           0
     31684 MEMB     237      POPC     C28      CTL2    -0.180000       12.0110           0
     31685 MEMB     237      POPC     H8R      HAL2     0.900000E-01   1.00800           0
     31686 MEMB     237      POPC     H8S      HAL2     0.900000E-01   1.00800           0
     31687 MEMB     237      POPC     C29      CEL1    -0.150000       12.0110           0
     31688 MEMB     237      POPC     H91      HEL1     0.150000       1.00800           0
     31689 MEMB     237      POPC     C210     CEL1    -0.150000       12.0110           0
     31690 MEMB     237      POPC     H101     HEL1     0.150000       1.00800           0
     31691 MEMB     237      POPC     C211     CTL2    -0.180000       12.0110           0
     31692 MEMB     237      POPC     H11R     HAL2     0.900000E-01   1.00800           0
     31693 MEMB     237      POPC     H11S     HAL2     0.900000E-01   1.00800           0
     31694 MEMB     237      POPC     C212     CTL2    -0.180000       12.0110           0
     31695 MEMB     237      POPC     H12R     HAL2     0.900000E-01   1.00800           0
     31696 MEMB     237      POPC     H12S     HAL2     0.900000E-01   1.00800           0
     31697 MEMB     237      POPC     C213     CTL2    -0.180000       12.0110           0
     31698 MEMB     237      POPC     H13R     HAL2     0.900000E-01   1.00800           0
     31699 MEMB     237      POPC     H13S     HAL2     0.900000E-01   1.00800           0
     31700 MEMB     237      POPC     C214     CTL2    -0.180000       12.0110           0
     31701 MEMB     237      POPC     H14R     HAL2     0.900000E-01   1.00800           0
     31702 MEMB     237      POPC     H14S     HAL2     0.900000E-01   1.00800           0
     31703 MEMB     237      POPC     C215     CTL2    -0.180000       12.0110           0
     31704 MEMB     237      POPC     H15R     HAL2     0.900000E-01   1.00800           0
     31705 MEMB     237      POPC     H15S     HAL2     0.900000E-01   1.00800           0
     31706 MEMB     237      POPC     C216     CTL2    -0.180000       12.0110           0
     31707 MEMB     237      POPC     H16R     HAL2     0.900000E-01   1.00800           0
     31708 MEMB     237      POPC     H16S     HAL2     0.900000E-01   1.00800           0
     31709 MEMB     237      POPC     C217     CTL2    -0.180000       12.0110           0
     31710 MEMB     237      POPC     H17R     HAL2     0.900000E-01   1.00800           0
     31711 MEMB     237      POPC     H17S     HAL2     0.900000E-01   1.00800           0
     31712 MEMB     237      POPC     C218     CTL3    -0.270000       12.0110           0
     31713 MEMB     237      POPC     H18R     HAL3     0.900000E-01   1.00800           0
     31714 MEMB     237      POPC     H18S     HAL3     0.900000E-01   1.00800           0
     31715 MEMB     237      POPC     H18T     HAL3     0.900000E-01   1.00800           0
     31716 MEMB     237      POPC     C33      CTL2    -0.180000       12.0110           0
     31717 MEMB     237      POPC     H3X      HAL2     0.900000E-01   1.00800           0
     31718 MEMB     237      POPC     H3Y      HAL2     0.900000E-01   1.00800           0
     31719 MEMB     237      POPC     C34      CTL2    -0.180000       12.0110           0
     31720 MEMB     237      POPC     H4X      HAL2     0.900000E-01   1.00800           0
     31721 MEMB     237      POPC     H4Y      HAL2     0.900000E-01   1.00800           0
     31722 MEMB     237      POPC     C35      CTL2    -0.180000       12.0110           0
     31723 MEMB     237      POPC     H5X      HAL2     0.900000E-01   1.00800           0
     31724 MEMB     237      POPC     H5Y      HAL2     0.900000E-01   1.00800           0
     31725 MEMB     237      POPC     C36      CTL2    -0.180000       12.0110           0
     31726 MEMB     237      POPC     H6X      HAL2     0.900000E-01   1.00800           0
     31727 MEMB     237      POPC     H6Y      HAL2     0.900000E-01   1.00800           0
     31728 MEMB     237      POPC     C37      CTL2    -0.180000       12.0110           0
     31729 MEMB     237      POPC     H7X      HAL2     0.900000E-01   1.00800           0
     31730 MEMB     237      POPC     H7Y      HAL2     0.900000E-01   1.00800           0
     31731 MEMB     237      POPC     C38      CTL2    -0.180000       12.0110           0
     31732 MEMB     237      POPC     H8X      HAL2     0.900000E-01   1.00800           0
     31733 MEMB     237      POPC     H8Y      HAL2     0.900000E-01   1.00800           0
     31734 MEMB     237      POPC     C39      CTL2    -0.180000       12.0110           0
     31735 MEMB     237      POPC     H9X      HAL2     0.900000E-01   1.00800           0
     31736 MEMB     237      POPC     H9Y      HAL2     0.900000E-01   1.00800           0
     31737 MEMB     237      POPC     C310     CTL2    -0.180000       12.0110           0
     31738 MEMB     237      POPC     H10X     HAL2     0.900000E-01   1.00800           0
     31739 MEMB     237      POPC     H10Y     HAL2     0.900000E-01   1.00800           0
     31740 MEMB     237      POPC     C311     CTL2    -0.180000       12.0110           0
     31741 MEMB     237      POPC     H11X     HAL2     0.900000E-01   1.00800           0
     31742 MEMB     237      POPC     H11Y     HAL2     0.900000E-01   1.00800           0
     31743 MEMB     237      POPC     C312     CTL2    -0.180000       12.0110           0
     31744 MEMB     237      POPC     H12X     HAL2     0.900000E-01   1.00800           0
     31745 MEMB     237      POPC     H12Y     HAL2     0.900000E-01   1.00800           0
     31746 MEMB     237      POPC     C313     CTL2    -0.180000       12.0110           0
     31747 MEMB     237      POPC     H13X     HAL2     0.900000E-01   1.00800           0
     31748 MEMB     237      POPC     H13Y     HAL2     0.900000E-01   1.00800           0
     31749 MEMB     237      POPC     C314     CTL2    -0.180000       12.0110           0
     31750 MEMB     237      POPC     H14X     HAL2     0.900000E-01   1.00800           0
     31751 MEMB     237      POPC     H14Y     HAL2     0.900000E-01   1.00800           0
     31752 MEMB     237      POPC     C315     CTL2    -0.180000       12.0110           0
     31753 MEMB     237      POPC     H15X     HAL2     0.900000E-01   1.00800           0
     31754 MEMB     237      POPC     H15Y     HAL2     0.900000E-01   1.00800           0
     31755 MEMB     237      POPC     C316     CTL3    -0.270000       12.0110           0
     31756 MEMB     237      POPC     H16X     HAL3     0.900000E-01   1.00800           0
     31757 MEMB     237      POPC     H16Y     HAL3     0.900000E-01   1.00800           0
     31758 MEMB     237      POPC     H16Z     HAL3     0.900000E-01   1.00800           0
     31759 MEMB     238      POPC     N        NTL     -0.600000       14.0070           0
     31760 MEMB     238      POPC     C12      CTL2    -0.100000       12.0110           0
     31761 MEMB     238      POPC     H12A     HL       0.250000       1.00800           0
     31762 MEMB     238      POPC     H12B     HL       0.250000       1.00800           0
     31763 MEMB     238      POPC     C13      CTL5    -0.350000       12.0110           0
     31764 MEMB     238      POPC     H13A     HL       0.250000       1.00800           0
     31765 MEMB     238      POPC     H13B     HL       0.250000       1.00800           0
     31766 MEMB     238      POPC     H13C     HL       0.250000       1.00800           0
     31767 MEMB     238      POPC     C14      CTL5    -0.350000       12.0110           0
     31768 MEMB     238      POPC     H14A     HL       0.250000       1.00800           0
     31769 MEMB     238      POPC     H14B     HL       0.250000       1.00800           0
     31770 MEMB     238      POPC     H14C     HL       0.250000       1.00800           0
     31771 MEMB     238      POPC     C15      CTL5    -0.350000       12.0110           0
     31772 MEMB     238      POPC     H15A     HL       0.250000       1.00800           0
     31773 MEMB     238      POPC     H15B     HL       0.250000       1.00800           0
     31774 MEMB     238      POPC     H15C     HL       0.250000       1.00800           0
     31775 MEMB     238      POPC     C11      CTL2    -0.800000E-01   12.0110           0
     31776 MEMB     238      POPC     H11A     HAL2     0.900000E-01   1.00800           0
     31777 MEMB     238      POPC     H11B     HAL2     0.900000E-01   1.00800           0
     31778 MEMB     238      POPC     P        PL       1.50000        30.9740           0
     31779 MEMB     238      POPC     O13      O2L     -0.780000       15.9994           0
     31780 MEMB     238      POPC     O14      O2L     -0.780000       15.9994           0
     31781 MEMB     238      POPC     O12      OSLP    -0.570000       15.9994           0
     31782 MEMB     238      POPC     O11      OSLP    -0.570000       15.9994           0
     31783 MEMB     238      POPC     C1       CTL2    -0.800000E-01   12.0110           0
     31784 MEMB     238      POPC     HA       HAL2     0.900000E-01   1.00800           0
     31785 MEMB     238      POPC     HB       HAL2     0.900000E-01   1.00800           0
     31786 MEMB     238      POPC     C2       CTL1     0.170000       12.0110           0
     31787 MEMB     238      POPC     HS       HAL1     0.900000E-01   1.00800           0
     31788 MEMB     238      POPC     O21      OSL     -0.490000       15.9994           0
     31789 MEMB     238      POPC     C21      CL       0.900000       12.0110           0
     31790 MEMB     238      POPC     O22      OBL     -0.630000       15.9994           0
     31791 MEMB     238      POPC     C22      CTL2    -0.220000       12.0110           0
     31792 MEMB     238      POPC     H2R      HAL2     0.900000E-01   1.00800           0
     31793 MEMB     238      POPC     H2S      HAL2     0.900000E-01   1.00800           0
     31794 MEMB     238      POPC     C3       CTL2     0.800000E-01   12.0110           0
     31795 MEMB     238      POPC     HX       HAL2     0.900000E-01   1.00800           0
     31796 MEMB     238      POPC     HY       HAL2     0.900000E-01   1.00800           0
     31797 MEMB     238      POPC     O31      OSL     -0.490000       15.9994           0
     31798 MEMB     238      POPC     C31      CL       0.900000       12.0110           0
     31799 MEMB     238      POPC     O32      OBL     -0.630000       15.9994           0
     31800 MEMB     238      POPC     C32      CTL2    -0.220000       12.0110           0
     31801 MEMB     238      POPC     H2X      HAL2     0.900000E-01   1.00800           0
     31802 MEMB     238      POPC     H2Y      HAL2     0.900000E-01   1.00800           0
     31803 MEMB     238      POPC     C23      CTL2    -0.180000       12.0110           0
     31804 MEMB     238      POPC     H3R      HAL2     0.900000E-01   1.00800           0
     31805 MEMB     238      POPC     H3S      HAL2     0.900000E-01   1.00800           0
     31806 MEMB     238      POPC     C24      CTL2    -0.180000       12.0110           0
     31807 MEMB     238      POPC     H4R      HAL2     0.900000E-01   1.00800           0
     31808 MEMB     238      POPC     H4S      HAL2     0.900000E-01   1.00800           0
     31809 MEMB     238      POPC     C25      CTL2    -0.180000       12.0110           0
     31810 MEMB     238      POPC     H5R      HAL2     0.900000E-01   1.00800           0
     31811 MEMB     238      POPC     H5S      HAL2     0.900000E-01   1.00800           0
     31812 MEMB     238      POPC     C26      CTL2    -0.180000       12.0110           0
     31813 MEMB     238      POPC     H6R      HAL2     0.900000E-01   1.00800           0
     31814 MEMB     238      POPC     H6S      HAL2     0.900000E-01   1.00800           0
     31815 MEMB     238      POPC     C27      CTL2    -0.180000       12.0110           0
     31816 MEMB     238      POPC     H7R      HAL2     0.900000E-01   1.00800           0
     31817 MEMB     238      POPC     H7S      HAL2     0.900000E-01   1.00800           0
     31818 MEMB     238      POPC     C28      CTL2    -0.180000       12.0110           0
     31819 MEMB     238      POPC     H8R      HAL2     0.900000E-01   1.00800           0
     31820 MEMB     238      POPC     H8S      HAL2     0.900000E-01   1.00800           0
     31821 MEMB     238      POPC     C29      CEL1    -0.150000       12.0110           0
     31822 MEMB     238      POPC     H91      HEL1     0.150000       1.00800           0
     31823 MEMB     238      POPC     C210     CEL1    -0.150000       12.0110           0
     31824 MEMB     238      POPC     H101     HEL1     0.150000       1.00800           0
     31825 MEMB     238      POPC     C211     CTL2    -0.180000       12.0110           0
     31826 MEMB     238      POPC     H11R     HAL2     0.900000E-01   1.00800           0
     31827 MEMB     238      POPC     H11S     HAL2     0.900000E-01   1.00800           0
     31828 MEMB     238      POPC     C212     CTL2    -0.180000       12.0110           0
     31829 MEMB     238      POPC     H12R     HAL2     0.900000E-01   1.00800           0
     31830 MEMB     238      POPC     H12S     HAL2     0.900000E-01   1.00800           0
     31831 MEMB     238      POPC     C213     CTL2    -0.180000       12.0110           0
     31832 MEMB     238      POPC     H13R     HAL2     0.900000E-01   1.00800           0
     31833 MEMB     238      POPC     H13S     HAL2     0.900000E-01   1.00800           0
     31834 MEMB     238      POPC     C214     CTL2    -0.180000       12.0110           0
     31835 MEMB     238      POPC     H14R     HAL2     0.900000E-01   1.00800           0
     31836 MEMB     238      POPC     H14S     HAL2     0.900000E-01   1.00800           0
     31837 MEMB     238      POPC     C215     CTL2    -0.180000       12.0110           0
     31838 MEMB     238      POPC     H15R     HAL2     0.900000E-01   1.00800           0
     31839 MEMB     238      POPC     H15S     HAL2     0.900000E-01   1.00800           0
     31840 MEMB     238      POPC     C216     CTL2    -0.180000       12.0110           0
     31841 MEMB     238      POPC     H16R     HAL2     0.900000E-01   1.00800           0
     31842 MEMB     238      POPC     H16S     HAL2     0.900000E-01   1.00800           0
     31843 MEMB     238      POPC     C217     CTL2    -0.180000       12.0110           0
     31844 MEMB     238      POPC     H17R     HAL2     0.900000E-01   1.00800           0
     31845 MEMB     238      POPC     H17S     HAL2     0.900000E-01   1.00800           0
     31846 MEMB     238      POPC     C218     CTL3    -0.270000       12.0110           0
     31847 MEMB     238      POPC     H18R     HAL3     0.900000E-01   1.00800           0
     31848 MEMB     238      POPC     H18S     HAL3     0.900000E-01   1.00800           0
     31849 MEMB     238      POPC     H18T     HAL3     0.900000E-01   1.00800           0
     31850 MEMB     238      POPC     C33      CTL2    -0.180000       12.0110           0
     31851 MEMB     238      POPC     H3X      HAL2     0.900000E-01   1.00800           0
     31852 MEMB     238      POPC     H3Y      HAL2     0.900000E-01   1.00800           0
     31853 MEMB     238      POPC     C34      CTL2    -0.180000       12.0110           0
     31854 MEMB     238      POPC     H4X      HAL2     0.900000E-01   1.00800           0
     31855 MEMB     238      POPC     H4Y      HAL2     0.900000E-01   1.00800           0
     31856 MEMB     238      POPC     C35      CTL2    -0.180000       12.0110           0
     31857 MEMB     238      POPC     H5X      HAL2     0.900000E-01   1.00800           0
     31858 MEMB     238      POPC     H5Y      HAL2     0.900000E-01   1.00800           0
     31859 MEMB     238      POPC     C36      CTL2    -0.180000       12.0110           0
     31860 MEMB     238      POPC     H6X      HAL2     0.900000E-01   1.00800           0
     31861 MEMB     238      POPC     H6Y      HAL2     0.900000E-01   1.00800           0
     31862 MEMB     238      POPC     C37      CTL2    -0.180000       12.0110           0
     31863 MEMB     238      POPC     H7X      HAL2     0.900000E-01   1.00800           0
     31864 MEMB     238      POPC     H7Y      HAL2     0.900000E-01   1.00800           0
     31865 MEMB     238      POPC     C38      CTL2    -0.180000       12.0110           0
     31866 MEMB     238      POPC     H8X      HAL2     0.900000E-01   1.00800           0
     31867 MEMB     238      POPC     H8Y      HAL2     0.900000E-01   1.00800           0
     31868 MEMB     238      POPC     C39      CTL2    -0.180000       12.0110           0
     31869 MEMB     238      POPC     H9X      HAL2     0.900000E-01   1.00800           0
     31870 MEMB     238      POPC     H9Y      HAL2     0.900000E-01   1.00800           0
     31871 MEMB     238      POPC     C310     CTL2    -0.180000       12.0110           0
     31872 MEMB     238      POPC     H10X     HAL2     0.900000E-01   1.00800           0
     31873 MEMB     238      POPC     H10Y     HAL2     0.900000E-01   1.00800           0
     31874 MEMB     238      POPC     C311     CTL2    -0.180000       12.0110           0
     31875 MEMB     238      POPC     H11X     HAL2     0.900000E-01   1.00800           0
     31876 MEMB     238      POPC     H11Y     HAL2     0.900000E-01   1.00800           0
     31877 MEMB     238      POPC     C312     CTL2    -0.180000       12.0110           0
     31878 MEMB     238      POPC     H12X     HAL2     0.900000E-01   1.00800           0
     31879 MEMB     238      POPC     H12Y     HAL2     0.900000E-01   1.00800           0
     31880 MEMB     238      POPC     C313     CTL2    -0.180000       12.0110           0
     31881 MEMB     238      POPC     H13X     HAL2     0.900000E-01   1.00800           0
     31882 MEMB     238      POPC     H13Y     HAL2     0.900000E-01   1.00800           0
     31883 MEMB     238      POPC     C314     CTL2    -0.180000       12.0110           0
     31884 MEMB     238      POPC     H14X     HAL2     0.900000E-01   1.00800           0
     31885 MEMB     238      POPC     H14Y     HAL2     0.900000E-01   1.00800           0
     31886 MEMB     238      POPC     C315     CTL2    -0.180000       12.0110           0
     31887 MEMB     238      POPC     H15X     HAL2     0.900000E-01   1.00800           0
     31888 MEMB     238      POPC     H15Y     HAL2     0.900000E-01   1.00800           0
     31889 MEMB     238      POPC     C316     CTL3    -0.270000       12.0110           0
     31890 MEMB     238      POPC     H16X     HAL3     0.900000E-01   1.00800           0
     31891 MEMB     238      POPC     H16Y     HAL3     0.900000E-01   1.00800           0
     31892 MEMB     238      POPC     H16Z     HAL3     0.900000E-01   1.00800           0
     31893 MEMB     239      POPC     N        NTL     -0.600000       14.0070           0
     31894 MEMB     239      POPC     C12      CTL2    -0.100000       12.0110           0
     31895 MEMB     239      POPC     H12A     HL       0.250000       1.00800           0
     31896 MEMB     239      POPC     H12B     HL       0.250000       1.00800           0
     31897 MEMB     239      POPC     C13      CTL5    -0.350000       12.0110           0
     31898 MEMB     239      POPC     H13A     HL       0.250000       1.00800           0
     31899 MEMB     239      POPC     H13B     HL       0.250000       1.00800           0
     31900 MEMB     239      POPC     H13C     HL       0.250000       1.00800           0
     31901 MEMB     239      POPC     C14      CTL5    -0.350000       12.0110           0
     31902 MEMB     239      POPC     H14A     HL       0.250000       1.00800           0
     31903 MEMB     239      POPC     H14B     HL       0.250000       1.00800           0
     31904 MEMB     239      POPC     H14C     HL       0.250000       1.00800           0
     31905 MEMB     239      POPC     C15      CTL5    -0.350000       12.0110           0
     31906 MEMB     239      POPC     H15A     HL       0.250000       1.00800           0
     31907 MEMB     239      POPC     H15B     HL       0.250000       1.00800           0
     31908 MEMB     239      POPC     H15C     HL       0.250000       1.00800           0
     31909 MEMB     239      POPC     C11      CTL2    -0.800000E-01   12.0110           0
     31910 MEMB     239      POPC     H11A     HAL2     0.900000E-01   1.00800           0
     31911 MEMB     239      POPC     H11B     HAL2     0.900000E-01   1.00800           0
     31912 MEMB     239      POPC     P        PL       1.50000        30.9740           0
     31913 MEMB     239      POPC     O13      O2L     -0.780000       15.9994           0
     31914 MEMB     239      POPC     O14      O2L     -0.780000       15.9994           0
     31915 MEMB     239      POPC     O12      OSLP    -0.570000       15.9994           0
     31916 MEMB     239      POPC     O11      OSLP    -0.570000       15.9994           0
     31917 MEMB     239      POPC     C1       CTL2    -0.800000E-01   12.0110           0
     31918 MEMB     239      POPC     HA       HAL2     0.900000E-01   1.00800           0
     31919 MEMB     239      POPC     HB       HAL2     0.900000E-01   1.00800           0
     31920 MEMB     239      POPC     C2       CTL1     0.170000       12.0110           0
     31921 MEMB     239      POPC     HS       HAL1     0.900000E-01   1.00800           0
     31922 MEMB     239      POPC     O21      OSL     -0.490000       15.9994           0
     31923 MEMB     239      POPC     C21      CL       0.900000       12.0110           0
     31924 MEMB     239      POPC     O22      OBL     -0.630000       15.9994           0
     31925 MEMB     239      POPC     C22      CTL2    -0.220000       12.0110           0
     31926 MEMB     239      POPC     H2R      HAL2     0.900000E-01   1.00800           0
     31927 MEMB     239      POPC     H2S      HAL2     0.900000E-01   1.00800           0
     31928 MEMB     239      POPC     C3       CTL2     0.800000E-01   12.0110           0
     31929 MEMB     239      POPC     HX       HAL2     0.900000E-01   1.00800           0
     31930 MEMB     239      POPC     HY       HAL2     0.900000E-01   1.00800           0
     31931 MEMB     239      POPC     O31      OSL     -0.490000       15.9994           0
     31932 MEMB     239      POPC     C31      CL       0.900000       12.0110           0
     31933 MEMB     239      POPC     O32      OBL     -0.630000       15.9994           0
     31934 MEMB     239      POPC     C32      CTL2    -0.220000       12.0110           0
     31935 MEMB     239      POPC     H2X      HAL2     0.900000E-01   1.00800           0
     31936 MEMB     239      POPC     H2Y      HAL2     0.900000E-01   1.00800           0
     31937 MEMB     239      POPC     C23      CTL2    -0.180000       12.0110           0
     31938 MEMB     239      POPC     H3R      HAL2     0.900000E-01   1.00800           0
     31939 MEMB     239      POPC     H3S      HAL2     0.900000E-01   1.00800           0
     31940 MEMB     239      POPC     C24      CTL2    -0.180000       12.0110           0
     31941 MEMB     239      POPC     H4R      HAL2     0.900000E-01   1.00800           0
     31942 MEMB     239      POPC     H4S      HAL2     0.900000E-01   1.00800           0
     31943 MEMB     239      POPC     C25      CTL2    -0.180000       12.0110           0
     31944 MEMB     239      POPC     H5R      HAL2     0.900000E-01   1.00800           0
     31945 MEMB     239      POPC     H5S      HAL2     0.900000E-01   1.00800           0
     31946 MEMB     239      POPC     C26      CTL2    -0.180000       12.0110           0
     31947 MEMB     239      POPC     H6R      HAL2     0.900000E-01   1.00800           0
     31948 MEMB     239      POPC     H6S      HAL2     0.900000E-01   1.00800           0
     31949 MEMB     239      POPC     C27      CTL2    -0.180000       12.0110           0
     31950 MEMB     239      POPC     H7R      HAL2     0.900000E-01   1.00800           0
     31951 MEMB     239      POPC     H7S      HAL2     0.900000E-01   1.00800           0
     31952 MEMB     239      POPC     C28      CTL2    -0.180000       12.0110           0
     31953 MEMB     239      POPC     H8R      HAL2     0.900000E-01   1.00800           0
     31954 MEMB     239      POPC     H8S      HAL2     0.900000E-01   1.00800           0
     31955 MEMB     239      POPC     C29      CEL1    -0.150000       12.0110           0
     31956 MEMB     239      POPC     H91      HEL1     0.150000       1.00800           0
     31957 MEMB     239      POPC     C210     CEL1    -0.150000       12.0110           0
     31958 MEMB     239      POPC     H101     HEL1     0.150000       1.00800           0
     31959 MEMB     239      POPC     C211     CTL2    -0.180000       12.0110           0
     31960 MEMB     239      POPC     H11R     HAL2     0.900000E-01   1.00800           0
     31961 MEMB     239      POPC     H11S     HAL2     0.900000E-01   1.00800           0
     31962 MEMB     239      POPC     C212     CTL2    -0.180000       12.0110           0
     31963 MEMB     239      POPC     H12R     HAL2     0.900000E-01   1.00800           0
     31964 MEMB     239      POPC     H12S     HAL2     0.900000E-01   1.00800           0
     31965 MEMB     239      POPC     C213     CTL2    -0.180000       12.0110           0
     31966 MEMB     239      POPC     H13R     HAL2     0.900000E-01   1.00800           0
     31967 MEMB     239      POPC     H13S     HAL2     0.900000E-01   1.00800           0
     31968 MEMB     239      POPC     C214     CTL2    -0.180000       12.0110           0
     31969 MEMB     239      POPC     H14R     HAL2     0.900000E-01   1.00800           0
     31970 MEMB     239      POPC     H14S     HAL2     0.900000E-01   1.00800           0
     31971 MEMB     239      POPC     C215     CTL2    -0.180000       12.0110           0
     31972 MEMB     239      POPC     H15R     HAL2     0.900000E-01   1.00800           0
     31973 MEMB     239      POPC     H15S     HAL2     0.900000E-01   1.00800           0
     31974 MEMB     239      POPC     C216     CTL2    -0.180000       12.0110           0
     31975 MEMB     239      POPC     H16R     HAL2     0.900000E-01   1.00800           0
     31976 MEMB     239      POPC     H16S     HAL2     0.900000E-01   1.00800           0
     31977 MEMB     239      POPC     C217     CTL2    -0.180000       12.0110           0
     31978 MEMB     239      POPC     H17R     HAL2     0.900000E-01   1.00800           0
     31979 MEMB     239      POPC     H17S     HAL2     0.900000E-01   1.00800           0
     31980 MEMB     239      POPC     C218     CTL3    -0.270000       12.0110           0
     31981 MEMB     239      POPC     H18R     HAL3     0.900000E-01   1.00800           0
     31982 MEMB     239      POPC     H18S     HAL3     0.900000E-01   1.00800           0
     31983 MEMB     239      POPC     H18T     HAL3     0.900000E-01   1.00800           0
     31984 MEMB     239      POPC     C33      CTL2    -0.180000       12.0110           0
     31985 MEMB     239      POPC     H3X      HAL2     0.900000E-01   1.00800           0
     31986 MEMB     239      POPC     H3Y      HAL2     0.900000E-01   1.00800           0
     31987 MEMB     239      POPC     C34      CTL2    -0.180000       12.0110           0
     31988 MEMB     239      POPC     H4X      HAL2     0.900000E-01   1.00800           0
     31989 MEMB     239      POPC     H4Y      HAL2     0.900000E-01   1.00800           0
     31990 MEMB     239      POPC     C35      CTL2    -0.180000       12.0110           0
     31991 MEMB     239      POPC     H5X      HAL2     0.900000E-01   1.00800           0
     31992 MEMB     239      POPC     H5Y      HAL2     0.900000E-01   1.00800           0
     31993 MEMB     239      POPC     C36      CTL2    -0.180000       12.0110           0
     31994 MEMB     239      POPC     H6X      HAL2     0.900000E-01   1.00800           0
     31995 MEMB     239      POPC     H6Y      HAL2     0.900000E-01   1.00800           0
     31996 MEMB     239      POPC     C37      CTL2    -0.180000       12.0110           0
     31997 MEMB     239      POPC     H7X      HAL2     0.900000E-01   1.00800           0
     31998 MEMB     239      POPC     H7Y      HAL2     0.900000E-01   1.00800           0
     31999 MEMB     239      POPC     C38      CTL2    -0.180000       12.0110           0
     32000 MEMB     239      POPC     H8X      HAL2     0.900000E-01   1.00800           0
     32001 MEMB     239      POPC     H8Y      HAL2     0.900000E-01   1.00800           0
     32002 MEMB     239      POPC     C39      CTL2    -0.180000       12.0110           0
     32003 MEMB     239      POPC     H9X      HAL2     0.900000E-01   1.00800           0
     32004 MEMB     239      POPC     H9Y      HAL2     0.900000E-01   1.00800           0
     32005 MEMB     239      POPC     C310     CTL2    -0.180000       12.0110           0
     32006 MEMB     239      POPC     H10X     HAL2     0.900000E-01   1.00800           0
     32007 MEMB     239      POPC     H10Y     HAL2     0.900000E-01   1.00800           0
     32008 MEMB     239      POPC     C311     CTL2    -0.180000       12.0110           0
     32009 MEMB     239      POPC     H11X     HAL2     0.900000E-01   1.00800           0
     32010 MEMB     239      POPC     H11Y     HAL2     0.900000E-01   1.00800           0
     32011 MEMB     239      POPC     C312     CTL2    -0.180000       12.0110           0
     32012 MEMB     239      POPC     H12X     HAL2     0.900000E-01   1.00800           0
     32013 MEMB     239      POPC     H12Y     HAL2     0.900000E-01   1.00800           0
     32014 MEMB     239      POPC     C313     CTL2    -0.180000       12.0110           0
     32015 MEMB     239      POPC     H13X     HAL2     0.900000E-01   1.00800           0
     32016 MEMB     239      POPC     H13Y     HAL2     0.900000E-01   1.00800           0
     32017 MEMB     239      POPC     C314     CTL2    -0.180000       12.0110           0
     32018 MEMB     239      POPC     H14X     HAL2     0.900000E-01   1.00800           0
     32019 MEMB     239      POPC     H14Y     HAL2     0.900000E-01   1.00800           0
     32020 MEMB     239      POPC     C315     CTL2    -0.180000       12.0110           0
     32021 MEMB     239      POPC     H15X     HAL2     0.900000E-01   1.00800           0
     32022 MEMB     239      POPC     H15Y     HAL2     0.900000E-01   1.00800           0
     32023 MEMB     239      POPC     C316     CTL3    -0.270000       12.0110           0
     32024 MEMB     239      POPC     H16X     HAL3     0.900000E-01   1.00800           0
     32025 MEMB     239      POPC     H16Y     HAL3     0.900000E-01   1.00800           0
     32026 MEMB     239      POPC     H16Z     HAL3     0.900000E-01   1.00800           0
     32027 MEMB     240      POPC     N        NTL     -0.600000       14.0070           0
     32028 MEMB     240      POPC     C12      CTL2    -0.100000       12.0110           0
     32029 MEMB     240      POPC     H12A     HL       0.250000       1.00800           0
     32030 MEMB     240      POPC     H12B     HL       0.250000       1.00800           0
     32031 MEMB     240      POPC     C13      CTL5    -0.350000       12.0110           0
     32032 MEMB     240      POPC     H13A     HL       0.250000       1.00800           0
     32033 MEMB     240      POPC     H13B     HL       0.250000       1.00800           0
     32034 MEMB     240      POPC     H13C     HL       0.250000       1.00800           0
     32035 MEMB     240      POPC     C14      CTL5    -0.350000       12.0110           0
     32036 MEMB     240      POPC     H14A     HL       0.250000       1.00800           0
     32037 MEMB     240      POPC     H14B     HL       0.250000       1.00800           0
     32038 MEMB     240      POPC     H14C     HL       0.250000       1.00800           0
     32039 MEMB     240      POPC     C15      CTL5    -0.350000       12.0110           0
     32040 MEMB     240      POPC     H15A     HL       0.250000       1.00800           0
     32041 MEMB     240      POPC     H15B     HL       0.250000       1.00800           0
     32042 MEMB     240      POPC     H15C     HL       0.250000       1.00800           0
     32043 MEMB     240      POPC     C11      CTL2    -0.800000E-01   12.0110           0
     32044 MEMB     240      POPC     H11A     HAL2     0.900000E-01   1.00800           0
     32045 MEMB     240      POPC     H11B     HAL2     0.900000E-01   1.00800           0
     32046 MEMB     240      POPC     P        PL       1.50000        30.9740           0
     32047 MEMB     240      POPC     O13      O2L     -0.780000       15.9994           0
     32048 MEMB     240      POPC     O14      O2L     -0.780000       15.9994           0
     32049 MEMB     240      POPC     O12      OSLP    -0.570000       15.9994           0
     32050 MEMB     240      POPC     O11      OSLP    -0.570000       15.9994           0
     32051 MEMB     240      POPC     C1       CTL2    -0.800000E-01   12.0110           0
     32052 MEMB     240      POPC     HA       HAL2     0.900000E-01   1.00800           0
     32053 MEMB     240      POPC     HB       HAL2     0.900000E-01   1.00800           0
     32054 MEMB     240      POPC     C2       CTL1     0.170000       12.0110           0
     32055 MEMB     240      POPC     HS       HAL1     0.900000E-01   1.00800           0
     32056 MEMB     240      POPC     O21      OSL     -0.490000       15.9994           0
     32057 MEMB     240      POPC     C21      CL       0.900000       12.0110           0
     32058 MEMB     240      POPC     O22      OBL     -0.630000       15.9994           0
     32059 MEMB     240      POPC     C22      CTL2    -0.220000       12.0110           0
     32060 MEMB     240      POPC     H2R      HAL2     0.900000E-01   1.00800           0
     32061 MEMB     240      POPC     H2S      HAL2     0.900000E-01   1.00800           0
     32062 MEMB     240      POPC     C3       CTL2     0.800000E-01   12.0110           0
     32063 MEMB     240      POPC     HX       HAL2     0.900000E-01   1.00800           0
     32064 MEMB     240      POPC     HY       HAL2     0.900000E-01   1.00800           0
     32065 MEMB     240      POPC     O31      OSL     -0.490000       15.9994           0
     32066 MEMB     240      POPC     C31      CL       0.900000       12.0110           0
     32067 MEMB     240      POPC     O32      OBL     -0.630000       15.9994           0
     32068 MEMB     240      POPC     C32      CTL2    -0.220000       12.0110           0
     32069 MEMB     240      POPC     H2X      HAL2     0.900000E-01   1.00800           0
     32070 MEMB     240      POPC     H2Y      HAL2     0.900000E-01   1.00800           0
     32071 MEMB     240      POPC     C23      CTL2    -0.180000       12.0110           0
     32072 MEMB     240      POPC     H3R      HAL2     0.900000E-01   1.00800           0
     32073 MEMB     240      POPC     H3S      HAL2     0.900000E-01   1.00800           0
     32074 MEMB     240      POPC     C24      CTL2    -0.180000       12.0110           0
     32075 MEMB     240      POPC     H4R      HAL2     0.900000E-01   1.00800           0
     32076 MEMB     240      POPC     H4S      HAL2     0.900000E-01   1.00800           0
     32077 MEMB     240      POPC     C25      CTL2    -0.180000       12.0110           0
     32078 MEMB     240      POPC     H5R      HAL2     0.900000E-01   1.00800           0
     32079 MEMB     240      POPC     H5S      HAL2     0.900000E-01   1.00800           0
     32080 MEMB     240      POPC     C26      CTL2    -0.180000       12.0110           0
     32081 MEMB     240      POPC     H6R      HAL2     0.900000E-01   1.00800           0
     32082 MEMB     240      POPC     H6S      HAL2     0.900000E-01   1.00800           0
     32083 MEMB     240      POPC     C27      CTL2    -0.180000       12.0110           0
     32084 MEMB     240      POPC     H7R      HAL2     0.900000E-01   1.00800           0
     32085 MEMB     240      POPC     H7S      HAL2     0.900000E-01   1.00800           0
     32086 MEMB     240      POPC     C28      CTL2    -0.180000       12.0110           0
     32087 MEMB     240      POPC     H8R      HAL2     0.900000E-01   1.00800           0
     32088 MEMB     240      POPC     H8S      HAL2     0.900000E-01   1.00800           0
     32089 MEMB     240      POPC     C29      CEL1    -0.150000       12.0110           0
     32090 MEMB     240      POPC     H91      HEL1     0.150000       1.00800           0
     32091 MEMB     240      POPC     C210     CEL1    -0.150000       12.0110           0
     32092 MEMB     240      POPC     H101     HEL1     0.150000       1.00800           0
     32093 MEMB     240      POPC     C211     CTL2    -0.180000       12.0110           0
     32094 MEMB     240      POPC     H11R     HAL2     0.900000E-01   1.00800           0
     32095 MEMB     240      POPC     H11S     HAL2     0.900000E-01   1.00800           0
     32096 MEMB     240      POPC     C212     CTL2    -0.180000       12.0110           0
     32097 MEMB     240      POPC     H12R     HAL2     0.900000E-01   1.00800           0
     32098 MEMB     240      POPC     H12S     HAL2     0.900000E-01   1.00800           0
     32099 MEMB     240      POPC     C213     CTL2    -0.180000       12.0110           0
     32100 MEMB     240      POPC     H13R     HAL2     0.900000E-01   1.00800           0
     32101 MEMB     240      POPC     H13S     HAL2     0.900000E-01   1.00800           0
     32102 MEMB     240      POPC     C214     CTL2    -0.180000       12.0110           0
     32103 MEMB     240      POPC     H14R     HAL2     0.900000E-01   1.00800           0
     32104 MEMB     240      POPC     H14S     HAL2     0.900000E-01   1.00800           0
     32105 MEMB     240      POPC     C215     CTL2    -0.180000       12.0110           0
     32106 MEMB     240      POPC     H15R     HAL2     0.900000E-01   1.00800           0
     32107 MEMB     240      POPC     H15S     HAL2     0.900000E-01   1.00800           0
     32108 MEMB     240      POPC     C216     CTL2    -0.180000       12.0110           0
     32109 MEMB     240      POPC     H16R     HAL2     0.900000E-01   1.00800           0
     32110 MEMB     240      POPC     H16S     HAL2     0.900000E-01   1.00800           0
     32111 MEMB     240      POPC     C217     CTL2    -0.180000       12.0110           0
     32112 MEMB     240      POPC     H17R     HAL2     0.900000E-01   1.00800           0
     32113 MEMB     240      POPC     H17S     HAL2     0.900000E-01   1.00800           0
     32114 MEMB     240      POPC     C218     CTL3    -0.270000       12.0110           0
     32115 MEMB     240      POPC     H18R     HAL3     0.900000E-01   1.00800           0
     32116 MEMB     240      POPC     H18S     HAL3     0.900000E-01   1.00800           0
     32117 MEMB     240      POPC     H18T     HAL3     0.900000E-01   1.00800           0
     32118 MEMB     240      POPC     C33      CTL2    -0.180000       12.0110           0
     32119 MEMB     240      POPC     H3X      HAL2     0.900000E-01   1.00800           0
     32120 MEMB     240      POPC     H3Y      HAL2     0.900000E-01   1.00800           0
     32121 MEMB     240      POPC     C34      CTL2    -0.180000       12.0110           0
     32122 MEMB     240      POPC     H4X      HAL2     0.900000E-01   1.00800           0
     32123 MEMB     240      POPC     H4Y      HAL2     0.900000E-01   1.00800           0
     32124 MEMB     240      POPC     C35      CTL2    -0.180000       12.0110           0
     32125 MEMB     240      POPC     H5X      HAL2     0.900000E-01   1.00800           0
     32126 MEMB     240      POPC     H5Y      HAL2     0.900000E-01   1.00800           0
     32127 MEMB     240      POPC     C36      CTL2    -0.180000       12.0110           0
     32128 MEMB     240      POPC     H6X      HAL2     0.900000E-01   1.00800           0
     32129 MEMB     240      POPC     H6Y      HAL2     0.900000E-01   1.00800           0
     32130 MEMB     240      POPC     C37      CTL2    -0.180000       12.0110           0
     32131 MEMB     240      POPC     H7X      HAL2     0.900000E-01   1.00800           0
     32132 MEMB     240      POPC     H7Y      HAL2     0.900000E-01   1.00800           0
     32133 MEMB     240      POPC     C38      CTL2    -0.180000       12.0110           0
     32134 MEMB     240      POPC     H8X      HAL2     0.900000E-01   1.00800           0
     32135 MEMB     240      POPC     H8Y      HAL2     0.900000E-01   1.00800           0
     32136 MEMB     240      POPC     C39      CTL2    -0.180000       12.0110           0
     32137 MEMB     240      POPC     H9X      HAL2     0.900000E-01   1.00800           0
     32138 MEMB     240      POPC     H9Y      HAL2     0.900000E-01   1.00800           0
     32139 MEMB     240      POPC     C310     CTL2    -0.180000       12.0110           0
     32140 MEMB     240      POPC     H10X     HAL2     0.900000E-01   1.00800           0
     32141 MEMB     240      POPC     H10Y     HAL2     0.900000E-01   1.00800           0
     32142 MEMB     240      POPC     C311     CTL2    -0.180000       12.0110           0
     32143 MEMB     240      POPC     H11X     HAL2     0.900000E-01   1.00800           0
     32144 MEMB     240      POPC     H11Y     HAL2     0.900000E-01   1.00800           0
     32145 MEMB     240      POPC     C312     CTL2    -0.180000       12.0110           0
     32146 MEMB     240      POPC     H12X     HAL2     0.900000E-01   1.00800           0
     32147 MEMB     240      POPC     H12Y     HAL2     0.900000E-01   1.00800           0
     32148 MEMB     240      POPC     C313     CTL2    -0.180000       12.0110           0
     32149 MEMB     240      POPC     H13X     HAL2     0.900000E-01   1.00800           0
     32150 MEMB     240      POPC     H13Y     HAL2     0.900000E-01   1.00800           0
     32151 MEMB     240      POPC     C314     CTL2    -0.180000       12.0110           0
     32152 MEMB     240      POPC     H14X     HAL2     0.900000E-01   1.00800           0
     32153 MEMB     240      POPC     H14Y     HAL2     0.900000E-01   1.00800           0
     32154 MEMB     240      POPC     C315     CTL2    -0.180000       12.0110           0
     32155 MEMB     240      POPC     H15X     HAL2     0.900000E-01   1.00800           0
     32156 MEMB     240      POPC     H15Y     HAL2     0.900000E-01   1.00800           0
     32157 MEMB     240      POPC     C316     CTL3    -0.270000       12.0110           0
     32158 MEMB     240      POPC     H16X     HAL3     0.900000E-01   1.00800           0
     32159 MEMB     240      POPC     H16Y     HAL3     0.900000E-01   1.00800           0
     32160 MEMB     240      POPC     H16Z     HAL3     0.900000E-01   1.00800           0
     32161 MEMB     241      POPC     N        NTL     -0.600000       14.0070           0
     32162 MEMB     241      POPC     C12      CTL2    -0.100000       12.0110           0
     32163 MEMB     241      POPC     H12A     HL       0.250000       1.00800           0
     32164 MEMB     241      POPC     H12B     HL       0.250000       1.00800           0
     32165 MEMB     241      POPC     C13      CTL5    -0.350000       12.0110           0
     32166 MEMB     241      POPC     H13A     HL       0.250000       1.00800           0
     32167 MEMB     241      POPC     H13B     HL       0.250000       1.00800           0
     32168 MEMB     241      POPC     H13C     HL       0.250000       1.00800           0
     32169 MEMB     241      POPC     C14      CTL5    -0.350000       12.0110           0
     32170 MEMB     241      POPC     H14A     HL       0.250000       1.00800           0
     32171 MEMB     241      POPC     H14B     HL       0.250000       1.00800           0
     32172 MEMB     241      POPC     H14C     HL       0.250000       1.00800           0
     32173 MEMB     241      POPC     C15      CTL5    -0.350000       12.0110           0
     32174 MEMB     241      POPC     H15A     HL       0.250000       1.00800           0
     32175 MEMB     241      POPC     H15B     HL       0.250000       1.00800           0
     32176 MEMB     241      POPC     H15C     HL       0.250000       1.00800           0
     32177 MEMB     241      POPC     C11      CTL2    -0.800000E-01   12.0110           0
     32178 MEMB     241      POPC     H11A     HAL2     0.900000E-01   1.00800           0
     32179 MEMB     241      POPC     H11B     HAL2     0.900000E-01   1.00800           0
     32180 MEMB     241      POPC     P        PL       1.50000        30.9740           0
     32181 MEMB     241      POPC     O13      O2L     -0.780000       15.9994           0
     32182 MEMB     241      POPC     O14      O2L     -0.780000       15.9994           0
     32183 MEMB     241      POPC     O12      OSLP    -0.570000       15.9994           0
     32184 MEMB     241      POPC     O11      OSLP    -0.570000       15.9994           0
     32185 MEMB     241      POPC     C1       CTL2    -0.800000E-01   12.0110           0
     32186 MEMB     241      POPC     HA       HAL2     0.900000E-01   1.00800           0
     32187 MEMB     241      POPC     HB       HAL2     0.900000E-01   1.00800           0
     32188 MEMB     241      POPC     C2       CTL1     0.170000       12.0110           0
     32189 MEMB     241      POPC     HS       HAL1     0.900000E-01   1.00800           0
     32190 MEMB     241      POPC     O21      OSL     -0.490000       15.9994           0
     32191 MEMB     241      POPC     C21      CL       0.900000       12.0110           0
     32192 MEMB     241      POPC     O22      OBL     -0.630000       15.9994           0
     32193 MEMB     241      POPC     C22      CTL2    -0.220000       12.0110           0
     32194 MEMB     241      POPC     H2R      HAL2     0.900000E-01   1.00800           0
     32195 MEMB     241      POPC     H2S      HAL2     0.900000E-01   1.00800           0
     32196 MEMB     241      POPC     C3       CTL2     0.800000E-01   12.0110           0
     32197 MEMB     241      POPC     HX       HAL2     0.900000E-01   1.00800           0
     32198 MEMB     241      POPC     HY       HAL2     0.900000E-01   1.00800           0
     32199 MEMB     241      POPC     O31      OSL     -0.490000       15.9994           0
     32200 MEMB     241      POPC     C31      CL       0.900000       12.0110           0
     32201 MEMB     241      POPC     O32      OBL     -0.630000       15.9994           0
     32202 MEMB     241      POPC     C32      CTL2    -0.220000       12.0110           0
     32203 MEMB     241      POPC     H2X      HAL2     0.900000E-01   1.00800           0
     32204 MEMB     241      POPC     H2Y      HAL2     0.900000E-01   1.00800           0
     32205 MEMB     241      POPC     C23      CTL2    -0.180000       12.0110           0
     32206 MEMB     241      POPC     H3R      HAL2     0.900000E-01   1.00800           0
     32207 MEMB     241      POPC     H3S      HAL2     0.900000E-01   1.00800           0
     32208 MEMB     241      POPC     C24      CTL2    -0.180000       12.0110           0
     32209 MEMB     241      POPC     H4R      HAL2     0.900000E-01   1.00800           0
     32210 MEMB     241      POPC     H4S      HAL2     0.900000E-01   1.00800           0
     32211 MEMB     241      POPC     C25      CTL2    -0.180000       12.0110           0
     32212 MEMB     241      POPC     H5R      HAL2     0.900000E-01   1.00800           0
     32213 MEMB     241      POPC     H5S      HAL2     0.900000E-01   1.00800           0
     32214 MEMB     241      POPC     C26      CTL2    -0.180000       12.0110           0
     32215 MEMB     241      POPC     H6R      HAL2     0.900000E-01   1.00800           0
     32216 MEMB     241      POPC     H6S      HAL2     0.900000E-01   1.00800           0
     32217 MEMB     241      POPC     C27      CTL2    -0.180000       12.0110           0
     32218 MEMB     241      POPC     H7R      HAL2     0.900000E-01   1.00800           0
     32219 MEMB     241      POPC     H7S      HAL2     0.900000E-01   1.00800           0
     32220 MEMB     241      POPC     C28      CTL2    -0.180000       12.0110           0
     32221 MEMB     241      POPC     H8R      HAL2     0.900000E-01   1.00800           0
     32222 MEMB     241      POPC     H8S      HAL2     0.900000E-01   1.00800           0
     32223 MEMB     241      POPC     C29      CEL1    -0.150000       12.0110           0
     32224 MEMB     241      POPC     H91      HEL1     0.150000       1.00800           0
     32225 MEMB     241      POPC     C210     CEL1    -0.150000       12.0110           0
     32226 MEMB     241      POPC     H101     HEL1     0.150000       1.00800           0
     32227 MEMB     241      POPC     C211     CTL2    -0.180000       12.0110           0
     32228 MEMB     241      POPC     H11R     HAL2     0.900000E-01   1.00800           0
     32229 MEMB     241      POPC     H11S     HAL2     0.900000E-01   1.00800           0
     32230 MEMB     241      POPC     C212     CTL2    -0.180000       12.0110           0
     32231 MEMB     241      POPC     H12R     HAL2     0.900000E-01   1.00800           0
     32232 MEMB     241      POPC     H12S     HAL2     0.900000E-01   1.00800           0
     32233 MEMB     241      POPC     C213     CTL2    -0.180000       12.0110           0
     32234 MEMB     241      POPC     H13R     HAL2     0.900000E-01   1.00800           0
     32235 MEMB     241      POPC     H13S     HAL2     0.900000E-01   1.00800           0
     32236 MEMB     241      POPC     C214     CTL2    -0.180000       12.0110           0
     32237 MEMB     241      POPC     H14R     HAL2     0.900000E-01   1.00800           0
     32238 MEMB     241      POPC     H14S     HAL2     0.900000E-01   1.00800           0
     32239 MEMB     241      POPC     C215     CTL2    -0.180000       12.0110           0
     32240 MEMB     241      POPC     H15R     HAL2     0.900000E-01   1.00800           0
     32241 MEMB     241      POPC     H15S     HAL2     0.900000E-01   1.00800           0
     32242 MEMB     241      POPC     C216     CTL2    -0.180000       12.0110           0
     32243 MEMB     241      POPC     H16R     HAL2     0.900000E-01   1.00800           0
     32244 MEMB     241      POPC     H16S     HAL2     0.900000E-01   1.00800           0
     32245 MEMB     241      POPC     C217     CTL2    -0.180000       12.0110           0
     32246 MEMB     241      POPC     H17R     HAL2     0.900000E-01   1.00800           0
     32247 MEMB     241      POPC     H17S     HAL2     0.900000E-01   1.00800           0
     32248 MEMB     241      POPC     C218     CTL3    -0.270000       12.0110           0
     32249 MEMB     241      POPC     H18R     HAL3     0.900000E-01   1.00800           0
     32250 MEMB     241      POPC     H18S     HAL3     0.900000E-01   1.00800           0
     32251 MEMB     241      POPC     H18T     HAL3     0.900000E-01   1.00800           0
     32252 MEMB     241      POPC     C33      CTL2    -0.180000       12.0110           0
     32253 MEMB     241      POPC     H3X      HAL2     0.900000E-01   1.00800           0
     32254 MEMB     241      POPC     H3Y      HAL2     0.900000E-01   1.00800           0
     32255 MEMB     241      POPC     C34      CTL2    -0.180000       12.0110           0
     32256 MEMB     241      POPC     H4X      HAL2     0.900000E-01   1.00800           0
     32257 MEMB     241      POPC     H4Y      HAL2     0.900000E-01   1.00800           0
     32258 MEMB     241      POPC     C35      CTL2    -0.180000       12.0110           0
     32259 MEMB     241      POPC     H5X      HAL2     0.900000E-01   1.00800           0
     32260 MEMB     241      POPC     H5Y      HAL2     0.900000E-01   1.00800           0
     32261 MEMB     241      POPC     C36      CTL2    -0.180000       12.0110           0
     32262 MEMB     241      POPC     H6X      HAL2     0.900000E-01   1.00800           0
     32263 MEMB     241      POPC     H6Y      HAL2     0.900000E-01   1.00800           0
     32264 MEMB     241      POPC     C37      CTL2    -0.180000       12.0110           0
     32265 MEMB     241      POPC     H7X      HAL2     0.900000E-01   1.00800           0
     32266 MEMB     241      POPC     H7Y      HAL2     0.900000E-01   1.00800           0
     32267 MEMB     241      POPC     C38      CTL2    -0.180000       12.0110           0
     32268 MEMB     241      POPC     H8X      HAL2     0.900000E-01   1.00800           0
     32269 MEMB     241      POPC     H8Y      HAL2     0.900000E-01   1.00800           0
     32270 MEMB     241      POPC     C39      CTL2    -0.180000       12.0110           0
     32271 MEMB     241      POPC     H9X      HAL2     0.900000E-01   1.00800           0
     32272 MEMB     241      POPC     H9Y      HAL2     0.900000E-01   1.00800           0
     32273 MEMB     241      POPC     C310     CTL2    -0.180000       12.0110           0
     32274 MEMB     241      POPC     H10X     HAL2     0.900000E-01   1.00800           0
     32275 MEMB     241      POPC     H10Y     HAL2     0.900000E-01   1.00800           0
     32276 MEMB     241      POPC     C311     CTL2    -0.180000       12.0110           0
     32277 MEMB     241      POPC     H11X     HAL2     0.900000E-01   1.00800           0
     32278 MEMB     241      POPC     H11Y     HAL2     0.900000E-01   1.00800           0
     32279 MEMB     241      POPC     C312     CTL2    -0.180000       12.0110           0
     32280 MEMB     241      POPC     H12X     HAL2     0.900000E-01   1.00800           0
     32281 MEMB     241      POPC     H12Y     HAL2     0.900000E-01   1.00800           0
     32282 MEMB     241      POPC     C313     CTL2    -0.180000       12.0110           0
     32283 MEMB     241      POPC     H13X     HAL2     0.900000E-01   1.00800           0
     32284 MEMB     241      POPC     H13Y     HAL2     0.900000E-01   1.00800           0
     32285 MEMB     241      POPC     C314     CTL2    -0.180000       12.0110           0
     32286 MEMB     241      POPC     H14X     HAL2     0.900000E-01   1.00800           0
     32287 MEMB     241      POPC     H14Y     HAL2     0.900000E-01   1.00800           0
     32288 MEMB     241      POPC     C315     CTL2    -0.180000       12.0110           0
     32289 MEMB     241      POPC     H15X     HAL2     0.900000E-01   1.00800           0
     32290 MEMB     241      POPC     H15Y     HAL2     0.900000E-01   1.00800           0
     32291 MEMB     241      POPC     C316     CTL3    -0.270000       12.0110           0
     32292 MEMB     241      POPC     H16X     HAL3     0.900000E-01   1.00800           0
     32293 MEMB     241      POPC     H16Y     HAL3     0.900000E-01   1.00800           0
     32294 MEMB     241      POPC     H16Z     HAL3     0.900000E-01   1.00800           0
     32295 MEMB     242      POPC     N        NTL     -0.600000       14.0070           0
     32296 MEMB     242      POPC     C12      CTL2    -0.100000       12.0110           0
     32297 MEMB     242      POPC     H12A     HL       0.250000       1.00800           0
     32298 MEMB     242      POPC     H12B     HL       0.250000       1.00800           0
     32299 MEMB     242      POPC     C13      CTL5    -0.350000       12.0110           0
     32300 MEMB     242      POPC     H13A     HL       0.250000       1.00800           0
     32301 MEMB     242      POPC     H13B     HL       0.250000       1.00800           0
     32302 MEMB     242      POPC     H13C     HL       0.250000       1.00800           0
     32303 MEMB     242      POPC     C14      CTL5    -0.350000       12.0110           0
     32304 MEMB     242      POPC     H14A     HL       0.250000       1.00800           0
     32305 MEMB     242      POPC     H14B     HL       0.250000       1.00800           0
     32306 MEMB     242      POPC     H14C     HL       0.250000       1.00800           0
     32307 MEMB     242      POPC     C15      CTL5    -0.350000       12.0110           0
     32308 MEMB     242      POPC     H15A     HL       0.250000       1.00800           0
     32309 MEMB     242      POPC     H15B     HL       0.250000       1.00800           0
     32310 MEMB     242      POPC     H15C     HL       0.250000       1.00800           0
     32311 MEMB     242      POPC     C11      CTL2    -0.800000E-01   12.0110           0
     32312 MEMB     242      POPC     H11A     HAL2     0.900000E-01   1.00800           0
     32313 MEMB     242      POPC     H11B     HAL2     0.900000E-01   1.00800           0
     32314 MEMB     242      POPC     P        PL       1.50000        30.9740           0
     32315 MEMB     242      POPC     O13      O2L     -0.780000       15.9994           0
     32316 MEMB     242      POPC     O14      O2L     -0.780000       15.9994           0
     32317 MEMB     242      POPC     O12      OSLP    -0.570000       15.9994           0
     32318 MEMB     242      POPC     O11      OSLP    -0.570000       15.9994           0
     32319 MEMB     242      POPC     C1       CTL2    -0.800000E-01   12.0110           0
     32320 MEMB     242      POPC     HA       HAL2     0.900000E-01   1.00800           0
     32321 MEMB     242      POPC     HB       HAL2     0.900000E-01   1.00800           0
     32322 MEMB     242      POPC     C2       CTL1     0.170000       12.0110           0
     32323 MEMB     242      POPC     HS       HAL1     0.900000E-01   1.00800           0
     32324 MEMB     242      POPC     O21      OSL     -0.490000       15.9994           0
     32325 MEMB     242      POPC     C21      CL       0.900000       12.0110           0
     32326 MEMB     242      POPC     O22      OBL     -0.630000       15.9994           0
     32327 MEMB     242      POPC     C22      CTL2    -0.220000       12.0110           0
     32328 MEMB     242      POPC     H2R      HAL2     0.900000E-01   1.00800           0
     32329 MEMB     242      POPC     H2S      HAL2     0.900000E-01   1.00800           0
     32330 MEMB     242      POPC     C3       CTL2     0.800000E-01   12.0110           0
     32331 MEMB     242      POPC     HX       HAL2     0.900000E-01   1.00800           0
     32332 MEMB     242      POPC     HY       HAL2     0.900000E-01   1.00800           0
     32333 MEMB     242      POPC     O31      OSL     -0.490000       15.9994           0
     32334 MEMB     242      POPC     C31      CL       0.900000       12.0110           0
     32335 MEMB     242      POPC     O32      OBL     -0.630000       15.9994           0
     32336 MEMB     242      POPC     C32      CTL2    -0.220000       12.0110           0
     32337 MEMB     242      POPC     H2X      HAL2     0.900000E-01   1.00800           0
     32338 MEMB     242      POPC     H2Y      HAL2     0.900000E-01   1.00800           0
     32339 MEMB     242      POPC     C23      CTL2    -0.180000       12.0110           0
     32340 MEMB     242      POPC     H3R      HAL2     0.900000E-01   1.00800           0
     32341 MEMB     242      POPC     H3S      HAL2     0.900000E-01   1.00800           0
     32342 MEMB     242      POPC     C24      CTL2    -0.180000       12.0110           0
     32343 MEMB     242      POPC     H4R      HAL2     0.900000E-01   1.00800           0
     32344 MEMB     242      POPC     H4S      HAL2     0.900000E-01   1.00800           0
     32345 MEMB     242      POPC     C25      CTL2    -0.180000       12.0110           0
     32346 MEMB     242      POPC     H5R      HAL2     0.900000E-01   1.00800           0
     32347 MEMB     242      POPC     H5S      HAL2     0.900000E-01   1.00800           0
     32348 MEMB     242      POPC     C26      CTL2    -0.180000       12.0110           0
     32349 MEMB     242      POPC     H6R      HAL2     0.900000E-01   1.00800           0
     32350 MEMB     242      POPC     H6S      HAL2     0.900000E-01   1.00800           0
     32351 MEMB     242      POPC     C27      CTL2    -0.180000       12.0110           0
     32352 MEMB     242      POPC     H7R      HAL2     0.900000E-01   1.00800           0
     32353 MEMB     242      POPC     H7S      HAL2     0.900000E-01   1.00800           0
     32354 MEMB     242      POPC     C28      CTL2    -0.180000       12.0110           0
     32355 MEMB     242      POPC     H8R      HAL2     0.900000E-01   1.00800           0
     32356 MEMB     242      POPC     H8S      HAL2     0.900000E-01   1.00800           0
     32357 MEMB     242      POPC     C29      CEL1    -0.150000       12.0110           0
     32358 MEMB     242      POPC     H91      HEL1     0.150000       1.00800           0
     32359 MEMB     242      POPC     C210     CEL1    -0.150000       12.0110           0
     32360 MEMB     242      POPC     H101     HEL1     0.150000       1.00800           0
     32361 MEMB     242      POPC     C211     CTL2    -0.180000       12.0110           0
     32362 MEMB     242      POPC     H11R     HAL2     0.900000E-01   1.00800           0
     32363 MEMB     242      POPC     H11S     HAL2     0.900000E-01   1.00800           0
     32364 MEMB     242      POPC     C212     CTL2    -0.180000       12.0110           0
     32365 MEMB     242      POPC     H12R     HAL2     0.900000E-01   1.00800           0
     32366 MEMB     242      POPC     H12S     HAL2     0.900000E-01   1.00800           0
     32367 MEMB     242      POPC     C213     CTL2    -0.180000       12.0110           0
     32368 MEMB     242      POPC     H13R     HAL2     0.900000E-01   1.00800           0
     32369 MEMB     242      POPC     H13S     HAL2     0.900000E-01   1.00800           0
     32370 MEMB     242      POPC     C214     CTL2    -0.180000       12.0110           0
     32371 MEMB     242      POPC     H14R     HAL2     0.900000E-01   1.00800           0
     32372 MEMB     242      POPC     H14S     HAL2     0.900000E-01   1.00800           0
     32373 MEMB     242      POPC     C215     CTL2    -0.180000       12.0110           0
     32374 MEMB     242      POPC     H15R     HAL2     0.900000E-01   1.00800           0
     32375 MEMB     242      POPC     H15S     HAL2     0.900000E-01   1.00800           0
     32376 MEMB     242      POPC     C216     CTL2    -0.180000       12.0110           0
     32377 MEMB     242      POPC     H16R     HAL2     0.900000E-01   1.00800           0
     32378 MEMB     242      POPC     H16S     HAL2     0.900000E-01   1.00800           0
     32379 MEMB     242      POPC     C217     CTL2    -0.180000       12.0110           0
     32380 MEMB     242      POPC     H17R     HAL2     0.900000E-01   1.00800           0
     32381 MEMB     242      POPC     H17S     HAL2     0.900000E-01   1.00800           0
     32382 MEMB     242      POPC     C218     CTL3    -0.270000       12.0110           0
     32383 MEMB     242      POPC     H18R     HAL3     0.900000E-01   1.00800           0
     32384 MEMB     242      POPC     H18S     HAL3     0.900000E-01   1.00800           0
     32385 MEMB     242      POPC     H18T     HAL3     0.900000E-01   1.00800           0
     32386 MEMB     242      POPC     C33      CTL2    -0.180000       12.0110           0
     32387 MEMB     242      POPC     H3X      HAL2     0.900000E-01   1.00800           0
     32388 MEMB     242      POPC     H3Y      HAL2     0.900000E-01   1.00800           0
     32389 MEMB     242      POPC     C34      CTL2    -0.180000       12.0110           0
     32390 MEMB     242      POPC     H4X      HAL2     0.900000E-01   1.00800           0
     32391 MEMB     242      POPC     H4Y      HAL2     0.900000E-01   1.00800           0
     32392 MEMB     242      POPC     C35      CTL2    -0.180000       12.0110           0
     32393 MEMB     242      POPC     H5X      HAL2     0.900000E-01   1.00800           0
     32394 MEMB     242      POPC     H5Y      HAL2     0.900000E-01   1.00800           0
     32395 MEMB     242      POPC     C36      CTL2    -0.180000       12.0110           0
     32396 MEMB     242      POPC     H6X      HAL2     0.900000E-01   1.00800           0
     32397 MEMB     242      POPC     H6Y      HAL2     0.900000E-01   1.00800           0
     32398 MEMB     242      POPC     C37      CTL2    -0.180000       12.0110           0
     32399 MEMB     242      POPC     H7X      HAL2     0.900000E-01   1.00800           0
     32400 MEMB     242      POPC     H7Y      HAL2     0.900000E-01   1.00800           0
     32401 MEMB     242      POPC     C38      CTL2    -0.180000       12.0110           0
     32402 MEMB     242      POPC     H8X      HAL2     0.900000E-01   1.00800           0
     32403 MEMB     242      POPC     H8Y      HAL2     0.900000E-01   1.00800           0
     32404 MEMB     242      POPC     C39      CTL2    -0.180000       12.0110           0
     32405 MEMB     242      POPC     H9X      HAL2     0.900000E-01   1.00800           0
     32406 MEMB     242      POPC     H9Y      HAL2     0.900000E-01   1.00800           0
     32407 MEMB     242      POPC     C310     CTL2    -0.180000       12.0110           0
     32408 MEMB     242      POPC     H10X     HAL2     0.900000E-01   1.00800           0
     32409 MEMB     242      POPC     H10Y     HAL2     0.900000E-01   1.00800           0
     32410 MEMB     242      POPC     C311     CTL2    -0.180000       12.0110           0
     32411 MEMB     242      POPC     H11X     HAL2     0.900000E-01   1.00800           0
     32412 MEMB     242      POPC     H11Y     HAL2     0.900000E-01   1.00800           0
     32413 MEMB     242      POPC     C312     CTL2    -0.180000       12.0110           0
     32414 MEMB     242      POPC     H12X     HAL2     0.900000E-01   1.00800           0
     32415 MEMB     242      POPC     H12Y     HAL2     0.900000E-01   1.00800           0
     32416 MEMB     242      POPC     C313     CTL2    -0.180000       12.0110           0
     32417 MEMB     242      POPC     H13X     HAL2     0.900000E-01   1.00800           0
     32418 MEMB     242      POPC     H13Y     HAL2     0.900000E-01   1.00800           0
     32419 MEMB     242      POPC     C314     CTL2    -0.180000       12.0110           0
     32420 MEMB     242      POPC     H14X     HAL2     0.900000E-01   1.00800           0
     32421 MEMB     242      POPC     H14Y     HAL2     0.900000E-01   1.00800           0
     32422 MEMB     242      POPC     C315     CTL2    -0.180000       12.0110           0
     32423 MEMB     242      POPC     H15X     HAL2     0.900000E-01   1.00800           0
     32424 MEMB     242      POPC     H15Y     HAL2     0.900000E-01   1.00800           0
     32425 MEMB     242      POPC     C316     CTL3    -0.270000       12.0110           0
     32426 MEMB     242      POPC     H16X     HAL3     0.900000E-01   1.00800           0
     32427 MEMB     242      POPC     H16Y     HAL3     0.900000E-01   1.00800           0
     32428 MEMB     242      POPC     H16Z     HAL3     0.900000E-01   1.00800           0
     32429 MEMB     243      POPC     N        NTL     -0.600000       14.0070           0
     32430 MEMB     243      POPC     C12      CTL2    -0.100000       12.0110           0
     32431 MEMB     243      POPC     H12A     HL       0.250000       1.00800           0
     32432 MEMB     243      POPC     H12B     HL       0.250000       1.00800           0
     32433 MEMB     243      POPC     C13      CTL5    -0.350000       12.0110           0
     32434 MEMB     243      POPC     H13A     HL       0.250000       1.00800           0
     32435 MEMB     243      POPC     H13B     HL       0.250000       1.00800           0
     32436 MEMB     243      POPC     H13C     HL       0.250000       1.00800           0
     32437 MEMB     243      POPC     C14      CTL5    -0.350000       12.0110           0
     32438 MEMB     243      POPC     H14A     HL       0.250000       1.00800           0
     32439 MEMB     243      POPC     H14B     HL       0.250000       1.00800           0
     32440 MEMB     243      POPC     H14C     HL       0.250000       1.00800           0
     32441 MEMB     243      POPC     C15      CTL5    -0.350000       12.0110           0
     32442 MEMB     243      POPC     H15A     HL       0.250000       1.00800           0
     32443 MEMB     243      POPC     H15B     HL       0.250000       1.00800           0
     32444 MEMB     243      POPC     H15C     HL       0.250000       1.00800           0
     32445 MEMB     243      POPC     C11      CTL2    -0.800000E-01   12.0110           0
     32446 MEMB     243      POPC     H11A     HAL2     0.900000E-01   1.00800           0
     32447 MEMB     243      POPC     H11B     HAL2     0.900000E-01   1.00800           0
     32448 MEMB     243      POPC     P        PL       1.50000        30.9740           0
     32449 MEMB     243      POPC     O13      O2L     -0.780000       15.9994           0
     32450 MEMB     243      POPC     O14      O2L     -0.780000       15.9994           0
     32451 MEMB     243      POPC     O12      OSLP    -0.570000       15.9994           0
     32452 MEMB     243      POPC     O11      OSLP    -0.570000       15.9994           0
     32453 MEMB     243      POPC     C1       CTL2    -0.800000E-01   12.0110           0
     32454 MEMB     243      POPC     HA       HAL2     0.900000E-01   1.00800           0
     32455 MEMB     243      POPC     HB       HAL2     0.900000E-01   1.00800           0
     32456 MEMB     243      POPC     C2       CTL1     0.170000       12.0110           0
     32457 MEMB     243      POPC     HS       HAL1     0.900000E-01   1.00800           0
     32458 MEMB     243      POPC     O21      OSL     -0.490000       15.9994           0
     32459 MEMB     243      POPC     C21      CL       0.900000       12.0110           0
     32460 MEMB     243      POPC     O22      OBL     -0.630000       15.9994           0
     32461 MEMB     243      POPC     C22      CTL2    -0.220000       12.0110           0
     32462 MEMB     243      POPC     H2R      HAL2     0.900000E-01   1.00800           0
     32463 MEMB     243      POPC     H2S      HAL2     0.900000E-01   1.00800           0
     32464 MEMB     243      POPC     C3       CTL2     0.800000E-01   12.0110           0
     32465 MEMB     243      POPC     HX       HAL2     0.900000E-01   1.00800           0
     32466 MEMB     243      POPC     HY       HAL2     0.900000E-01   1.00800           0
     32467 MEMB     243      POPC     O31      OSL     -0.490000       15.9994           0
     32468 MEMB     243      POPC     C31      CL       0.900000       12.0110           0
     32469 MEMB     243      POPC     O32      OBL     -0.630000       15.9994           0
     32470 MEMB     243      POPC     C32      CTL2    -0.220000       12.0110           0
     32471 MEMB     243      POPC     H2X      HAL2     0.900000E-01   1.00800           0
     32472 MEMB     243      POPC     H2Y      HAL2     0.900000E-01   1.00800           0
     32473 MEMB     243      POPC     C23      CTL2    -0.180000       12.0110           0
     32474 MEMB     243      POPC     H3R      HAL2     0.900000E-01   1.00800           0
     32475 MEMB     243      POPC     H3S      HAL2     0.900000E-01   1.00800           0
     32476 MEMB     243      POPC     C24      CTL2    -0.180000       12.0110           0
     32477 MEMB     243      POPC     H4R      HAL2     0.900000E-01   1.00800           0
     32478 MEMB     243      POPC     H4S      HAL2     0.900000E-01   1.00800           0
     32479 MEMB     243      POPC     C25      CTL2    -0.180000       12.0110           0
     32480 MEMB     243      POPC     H5R      HAL2     0.900000E-01   1.00800           0
     32481 MEMB     243      POPC     H5S      HAL2     0.900000E-01   1.00800           0
     32482 MEMB     243      POPC     C26      CTL2    -0.180000       12.0110           0
     32483 MEMB     243      POPC     H6R      HAL2     0.900000E-01   1.00800           0
     32484 MEMB     243      POPC     H6S      HAL2     0.900000E-01   1.00800           0
     32485 MEMB     243      POPC     C27      CTL2    -0.180000       12.0110           0
     32486 MEMB     243      POPC     H7R      HAL2     0.900000E-01   1.00800           0
     32487 MEMB     243      POPC     H7S      HAL2     0.900000E-01   1.00800           0
     32488 MEMB     243      POPC     C28      CTL2    -0.180000       12.0110           0
     32489 MEMB     243      POPC     H8R      HAL2     0.900000E-01   1.00800           0
     32490 MEMB     243      POPC     H8S      HAL2     0.900000E-01   1.00800           0
     32491 MEMB     243      POPC     C29      CEL1    -0.150000       12.0110           0
     32492 MEMB     243      POPC     H91      HEL1     0.150000       1.00800           0
     32493 MEMB     243      POPC     C210     CEL1    -0.150000       12.0110           0
     32494 MEMB     243      POPC     H101     HEL1     0.150000       1.00800           0
     32495 MEMB     243      POPC     C211     CTL2    -0.180000       12.0110           0
     32496 MEMB     243      POPC     H11R     HAL2     0.900000E-01   1.00800           0
     32497 MEMB     243      POPC     H11S     HAL2     0.900000E-01   1.00800           0
     32498 MEMB     243      POPC     C212     CTL2    -0.180000       12.0110           0
     32499 MEMB     243      POPC     H12R     HAL2     0.900000E-01   1.00800           0
     32500 MEMB     243      POPC     H12S     HAL2     0.900000E-01   1.00800           0
     32501 MEMB     243      POPC     C213     CTL2    -0.180000       12.0110           0
     32502 MEMB     243      POPC     H13R     HAL2     0.900000E-01   1.00800           0
     32503 MEMB     243      POPC     H13S     HAL2     0.900000E-01   1.00800           0
     32504 MEMB     243      POPC     C214     CTL2    -0.180000       12.0110           0
     32505 MEMB     243      POPC     H14R     HAL2     0.900000E-01   1.00800           0
     32506 MEMB     243      POPC     H14S     HAL2     0.900000E-01   1.00800           0
     32507 MEMB     243      POPC     C215     CTL2    -0.180000       12.0110           0
     32508 MEMB     243      POPC     H15R     HAL2     0.900000E-01   1.00800           0
     32509 MEMB     243      POPC     H15S     HAL2     0.900000E-01   1.00800           0
     32510 MEMB     243      POPC     C216     CTL2    -0.180000       12.0110           0
     32511 MEMB     243      POPC     H16R     HAL2     0.900000E-01   1.00800           0
     32512 MEMB     243      POPC     H16S     HAL2     0.900000E-01   1.00800           0
     32513 MEMB     243      POPC     C217     CTL2    -0.180000       12.0110           0
     32514 MEMB     243      POPC     H17R     HAL2     0.900000E-01   1.00800           0
     32515 MEMB     243      POPC     H17S     HAL2     0.900000E-01   1.00800           0
     32516 MEMB     243      POPC     C218     CTL3    -0.270000       12.0110           0
     32517 MEMB     243      POPC     H18R     HAL3     0.900000E-01   1.00800           0
     32518 MEMB     243      POPC     H18S     HAL3     0.900000E-01   1.00800           0
     32519 MEMB     243      POPC     H18T     HAL3     0.900000E-01   1.00800           0
     32520 MEMB     243      POPC     C33      CTL2    -0.180000       12.0110           0
     32521 MEMB     243      POPC     H3X      HAL2     0.900000E-01   1.00800           0
     32522 MEMB     243      POPC     H3Y      HAL2     0.900000E-01   1.00800           0
     32523 MEMB     243      POPC     C34      CTL2    -0.180000       12.0110           0
     32524 MEMB     243      POPC     H4X      HAL2     0.900000E-01   1.00800           0
     32525 MEMB     243      POPC     H4Y      HAL2     0.900000E-01   1.00800           0
     32526 MEMB     243      POPC     C35      CTL2    -0.180000       12.0110           0
     32527 MEMB     243      POPC     H5X      HAL2     0.900000E-01   1.00800           0
     32528 MEMB     243      POPC     H5Y      HAL2     0.900000E-01   1.00800           0
     32529 MEMB     243      POPC     C36      CTL2    -0.180000       12.0110           0
     32530 MEMB     243      POPC     H6X      HAL2     0.900000E-01   1.00800           0
     32531 MEMB     243      POPC     H6Y      HAL2     0.900000E-01   1.00800           0
     32532 MEMB     243      POPC     C37      CTL2    -0.180000       12.0110           0
     32533 MEMB     243      POPC     H7X      HAL2     0.900000E-01   1.00800           0
     32534 MEMB     243      POPC     H7Y      HAL2     0.900000E-01   1.00800           0
     32535 MEMB     243      POPC     C38      CTL2    -0.180000       12.0110           0
     32536 MEMB     243      POPC     H8X      HAL2     0.900000E-01   1.00800           0
     32537 MEMB     243      POPC     H8Y      HAL2     0.900000E-01   1.00800           0
     32538 MEMB     243      POPC     C39      CTL2    -0.180000       12.0110           0
     32539 MEMB     243      POPC     H9X      HAL2     0.900000E-01   1.00800           0
     32540 MEMB     243      POPC     H9Y      HAL2     0.900000E-01   1.00800           0
     32541 MEMB     243      POPC     C310     CTL2    -0.180000       12.0110           0
     32542 MEMB     243      POPC     H10X     HAL2     0.900000E-01   1.00800           0
     32543 MEMB     243      POPC     H10Y     HAL2     0.900000E-01   1.00800           0
     32544 MEMB     243      POPC     C311     CTL2    -0.180000       12.0110           0
     32545 MEMB     243      POPC     H11X     HAL2     0.900000E-01   1.00800           0
     32546 MEMB     243      POPC     H11Y     HAL2     0.900000E-01   1.00800           0
     32547 MEMB     243      POPC     C312     CTL2    -0.180000       12.0110           0
     32548 MEMB     243      POPC     H12X     HAL2     0.900000E-01   1.00800           0
     32549 MEMB     243      POPC     H12Y     HAL2     0.900000E-01   1.00800           0
     32550 MEMB     243      POPC     C313     CTL2    -0.180000       12.0110           0
     32551 MEMB     243      POPC     H13X     HAL2     0.900000E-01   1.00800           0
     32552 MEMB     243      POPC     H13Y     HAL2     0.900000E-01   1.00800           0
     32553 MEMB     243      POPC     C314     CTL2    -0.180000       12.0110           0
     32554 MEMB     243      POPC     H14X     HAL2     0.900000E-01   1.00800           0
     32555 MEMB     243      POPC     H14Y     HAL2     0.900000E-01   1.00800           0
     32556 MEMB     243      POPC     C315     CTL2    -0.180000       12.0110           0
     32557 MEMB     243      POPC     H15X     HAL2     0.900000E-01   1.00800           0
     32558 MEMB     243      POPC     H15Y     HAL2     0.900000E-01   1.00800           0
     32559 MEMB     243      POPC     C316     CTL3    -0.270000       12.0110           0
     32560 MEMB     243      POPC     H16X     HAL3     0.900000E-01   1.00800           0
     32561 MEMB     243      POPC     H16Y     HAL3     0.900000E-01   1.00800           0
     32562 MEMB     243      POPC     H16Z     HAL3     0.900000E-01   1.00800           0
     32563 MEMB     244      POPC     N        NTL     -0.600000       14.0070           0
     32564 MEMB     244      POPC     C12      CTL2    -0.100000       12.0110           0
     32565 MEMB     244      POPC     H12A     HL       0.250000       1.00800           0
     32566 MEMB     244      POPC     H12B     HL       0.250000       1.00800           0
     32567 MEMB     244      POPC     C13      CTL5    -0.350000       12.0110           0
     32568 MEMB     244      POPC     H13A     HL       0.250000       1.00800           0
     32569 MEMB     244      POPC     H13B     HL       0.250000       1.00800           0
     32570 MEMB     244      POPC     H13C     HL       0.250000       1.00800           0
     32571 MEMB     244      POPC     C14      CTL5    -0.350000       12.0110           0
     32572 MEMB     244      POPC     H14A     HL       0.250000       1.00800           0
     32573 MEMB     244      POPC     H14B     HL       0.250000       1.00800           0
     32574 MEMB     244      POPC     H14C     HL       0.250000       1.00800           0
     32575 MEMB     244      POPC     C15      CTL5    -0.350000       12.0110           0
     32576 MEMB     244      POPC     H15A     HL       0.250000       1.00800           0
     32577 MEMB     244      POPC     H15B     HL       0.250000       1.00800           0
     32578 MEMB     244      POPC     H15C     HL       0.250000       1.00800           0
     32579 MEMB     244      POPC     C11      CTL2    -0.800000E-01   12.0110           0
     32580 MEMB     244      POPC     H11A     HAL2     0.900000E-01   1.00800           0
     32581 MEMB     244      POPC     H11B     HAL2     0.900000E-01   1.00800           0
     32582 MEMB     244      POPC     P        PL       1.50000        30.9740           0
     32583 MEMB     244      POPC     O13      O2L     -0.780000       15.9994           0
     32584 MEMB     244      POPC     O14      O2L     -0.780000       15.9994           0
     32585 MEMB     244      POPC     O12      OSLP    -0.570000       15.9994           0
     32586 MEMB     244      POPC     O11      OSLP    -0.570000       15.9994           0
     32587 MEMB     244      POPC     C1       CTL2    -0.800000E-01   12.0110           0
     32588 MEMB     244      POPC     HA       HAL2     0.900000E-01   1.00800           0
     32589 MEMB     244      POPC     HB       HAL2     0.900000E-01   1.00800           0
     32590 MEMB     244      POPC     C2       CTL1     0.170000       12.0110           0
     32591 MEMB     244      POPC     HS       HAL1     0.900000E-01   1.00800           0
     32592 MEMB     244      POPC     O21      OSL     -0.490000       15.9994           0
     32593 MEMB     244      POPC     C21      CL       0.900000       12.0110           0
     32594 MEMB     244      POPC     O22      OBL     -0.630000       15.9994           0
     32595 MEMB     244      POPC     C22      CTL2    -0.220000       12.0110           0
     32596 MEMB     244      POPC     H2R      HAL2     0.900000E-01   1.00800           0
     32597 MEMB     244      POPC     H2S      HAL2     0.900000E-01   1.00800           0
     32598 MEMB     244      POPC     C3       CTL2     0.800000E-01   12.0110           0
     32599 MEMB     244      POPC     HX       HAL2     0.900000E-01   1.00800           0
     32600 MEMB     244      POPC     HY       HAL2     0.900000E-01   1.00800           0
     32601 MEMB     244      POPC     O31      OSL     -0.490000       15.9994           0
     32602 MEMB     244      POPC     C31      CL       0.900000       12.0110           0
     32603 MEMB     244      POPC     O32      OBL     -0.630000       15.9994           0
     32604 MEMB     244      POPC     C32      CTL2    -0.220000       12.0110           0
     32605 MEMB     244      POPC     H2X      HAL2     0.900000E-01   1.00800           0
     32606 MEMB     244      POPC     H2Y      HAL2     0.900000E-01   1.00800           0
     32607 MEMB     244      POPC     C23      CTL2    -0.180000       12.0110           0
     32608 MEMB     244      POPC     H3R      HAL2     0.900000E-01   1.00800           0
     32609 MEMB     244      POPC     H3S      HAL2     0.900000E-01   1.00800           0
     32610 MEMB     244      POPC     C24      CTL2    -0.180000       12.0110           0
     32611 MEMB     244      POPC     H4R      HAL2     0.900000E-01   1.00800           0
     32612 MEMB     244      POPC     H4S      HAL2     0.900000E-01   1.00800           0
     32613 MEMB     244      POPC     C25      CTL2    -0.180000       12.0110           0
     32614 MEMB     244      POPC     H5R      HAL2     0.900000E-01   1.00800           0
     32615 MEMB     244      POPC     H5S      HAL2     0.900000E-01   1.00800           0
     32616 MEMB     244      POPC     C26      CTL2    -0.180000       12.0110           0
     32617 MEMB     244      POPC     H6R      HAL2     0.900000E-01   1.00800           0
     32618 MEMB     244      POPC     H6S      HAL2     0.900000E-01   1.00800           0
     32619 MEMB     244      POPC     C27      CTL2    -0.180000       12.0110           0
     32620 MEMB     244      POPC     H7R      HAL2     0.900000E-01   1.00800           0
     32621 MEMB     244      POPC     H7S      HAL2     0.900000E-01   1.00800           0
     32622 MEMB     244      POPC     C28      CTL2    -0.180000       12.0110           0
     32623 MEMB     244      POPC     H8R      HAL2     0.900000E-01   1.00800           0
     32624 MEMB     244      POPC     H8S      HAL2     0.900000E-01   1.00800           0
     32625 MEMB     244      POPC     C29      CEL1    -0.150000       12.0110           0
     32626 MEMB     244      POPC     H91      HEL1     0.150000       1.00800           0
     32627 MEMB     244      POPC     C210     CEL1    -0.150000       12.0110           0
     32628 MEMB     244      POPC     H101     HEL1     0.150000       1.00800           0
     32629 MEMB     244      POPC     C211     CTL2    -0.180000       12.0110           0
     32630 MEMB     244      POPC     H11R     HAL2     0.900000E-01   1.00800           0
     32631 MEMB     244      POPC     H11S     HAL2     0.900000E-01   1.00800           0
     32632 MEMB     244      POPC     C212     CTL2    -0.180000       12.0110           0
     32633 MEMB     244      POPC     H12R     HAL2     0.900000E-01   1.00800           0
     32634 MEMB     244      POPC     H12S     HAL2     0.900000E-01   1.00800           0
     32635 MEMB     244      POPC     C213     CTL2    -0.180000       12.0110           0
     32636 MEMB     244      POPC     H13R     HAL2     0.900000E-01   1.00800           0
     32637 MEMB     244      POPC     H13S     HAL2     0.900000E-01   1.00800           0
     32638 MEMB     244      POPC     C214     CTL2    -0.180000       12.0110           0
     32639 MEMB     244      POPC     H14R     HAL2     0.900000E-01   1.00800           0
     32640 MEMB     244      POPC     H14S     HAL2     0.900000E-01   1.00800           0
     32641 MEMB     244      POPC     C215     CTL2    -0.180000       12.0110           0
     32642 MEMB     244      POPC     H15R     HAL2     0.900000E-01   1.00800           0
     32643 MEMB     244      POPC     H15S     HAL2     0.900000E-01   1.00800           0
     32644 MEMB     244      POPC     C216     CTL2    -0.180000       12.0110           0
     32645 MEMB     244      POPC     H16R     HAL2     0.900000E-01   1.00800           0
     32646 MEMB     244      POPC     H16S     HAL2     0.900000E-01   1.00800           0
     32647 MEMB     244      POPC     C217     CTL2    -0.180000       12.0110           0
     32648 MEMB     244      POPC     H17R     HAL2     0.900000E-01   1.00800           0
     32649 MEMB     244      POPC     H17S     HAL2     0.900000E-01   1.00800           0
     32650 MEMB     244      POPC     C218     CTL3    -0.270000       12.0110           0
     32651 MEMB     244      POPC     H18R     HAL3     0.900000E-01   1.00800           0
     32652 MEMB     244      POPC     H18S     HAL3     0.900000E-01   1.00800           0
     32653 MEMB     244      POPC     H18T     HAL3     0.900000E-01   1.00800           0
     32654 MEMB     244      POPC     C33      CTL2    -0.180000       12.0110           0
     32655 MEMB     244      POPC     H3X      HAL2     0.900000E-01   1.00800           0
     32656 MEMB     244      POPC     H3Y      HAL2     0.900000E-01   1.00800           0
     32657 MEMB     244      POPC     C34      CTL2    -0.180000       12.0110           0
     32658 MEMB     244      POPC     H4X      HAL2     0.900000E-01   1.00800           0
     32659 MEMB     244      POPC     H4Y      HAL2     0.900000E-01   1.00800           0
     32660 MEMB     244      POPC     C35      CTL2    -0.180000       12.0110           0
     32661 MEMB     244      POPC     H5X      HAL2     0.900000E-01   1.00800           0
     32662 MEMB     244      POPC     H5Y      HAL2     0.900000E-01   1.00800           0
     32663 MEMB     244      POPC     C36      CTL2    -0.180000       12.0110           0
     32664 MEMB     244      POPC     H6X      HAL2     0.900000E-01   1.00800           0
     32665 MEMB     244      POPC     H6Y      HAL2     0.900000E-01   1.00800           0
     32666 MEMB     244      POPC     C37      CTL2    -0.180000       12.0110           0
     32667 MEMB     244      POPC     H7X      HAL2     0.900000E-01   1.00800           0
     32668 MEMB     244      POPC     H7Y      HAL2     0.900000E-01   1.00800           0
     32669 MEMB     244      POPC     C38      CTL2    -0.180000       12.0110           0
     32670 MEMB     244      POPC     H8X      HAL2     0.900000E-01   1.00800           0
     32671 MEMB     244      POPC     H8Y      HAL2     0.900000E-01   1.00800           0
     32672 MEMB     244      POPC     C39      CTL2    -0.180000       12.0110           0
     32673 MEMB     244      POPC     H9X      HAL2     0.900000E-01   1.00800           0
     32674 MEMB     244      POPC     H9Y      HAL2     0.900000E-01   1.00800           0
     32675 MEMB     244      POPC     C310     CTL2    -0.180000       12.0110           0
     32676 MEMB     244      POPC     H10X     HAL2     0.900000E-01   1.00800           0
     32677 MEMB     244      POPC     H10Y     HAL2     0.900000E-01   1.00800           0
     32678 MEMB     244      POPC     C311     CTL2    -0.180000       12.0110           0
     32679 MEMB     244      POPC     H11X     HAL2     0.900000E-01   1.00800           0
     32680 MEMB     244      POPC     H11Y     HAL2     0.900000E-01   1.00800           0
     32681 MEMB     244      POPC     C312     CTL2    -0.180000       12.0110           0
     32682 MEMB     244      POPC     H12X     HAL2     0.900000E-01   1.00800           0
     32683 MEMB     244      POPC     H12Y     HAL2     0.900000E-01   1.00800           0
     32684 MEMB     244      POPC     C313     CTL2    -0.180000       12.0110           0
     32685 MEMB     244      POPC     H13X     HAL2     0.900000E-01   1.00800           0
     32686 MEMB     244      POPC     H13Y     HAL2     0.900000E-01   1.00800           0
     32687 MEMB     244      POPC     C314     CTL2    -0.180000       12.0110           0
     32688 MEMB     244      POPC     H14X     HAL2     0.900000E-01   1.00800           0
     32689 MEMB     244      POPC     H14Y     HAL2     0.900000E-01   1.00800           0
     32690 MEMB     244      POPC     C315     CTL2    -0.180000       12.0110           0
     32691 MEMB     244      POPC     H15X     HAL2     0.900000E-01   1.00800           0
     32692 MEMB     244      POPC     H15Y     HAL2     0.900000E-01   1.00800           0
     32693 MEMB     244      POPC     C316     CTL3    -0.270000       12.0110           0
     32694 MEMB     244      POPC     H16X     HAL3     0.900000E-01   1.00800           0
     32695 MEMB     244      POPC     H16Y     HAL3     0.900000E-01   1.00800           0
     32696 MEMB     244      POPC     H16Z     HAL3     0.900000E-01   1.00800           0
     32697 MEMB     245      POPC     N        NTL     -0.600000       14.0070           0
     32698 MEMB     245      POPC     C12      CTL2    -0.100000       12.0110           0
     32699 MEMB     245      POPC     H12A     HL       0.250000       1.00800           0
     32700 MEMB     245      POPC     H12B     HL       0.250000       1.00800           0
     32701 MEMB     245      POPC     C13      CTL5    -0.350000       12.0110           0
     32702 MEMB     245      POPC     H13A     HL       0.250000       1.00800           0
     32703 MEMB     245      POPC     H13B     HL       0.250000       1.00800           0
     32704 MEMB     245      POPC     H13C     HL       0.250000       1.00800           0
     32705 MEMB     245      POPC     C14      CTL5    -0.350000       12.0110           0
     32706 MEMB     245      POPC     H14A     HL       0.250000       1.00800           0
     32707 MEMB     245      POPC     H14B     HL       0.250000       1.00800           0
     32708 MEMB     245      POPC     H14C     HL       0.250000       1.00800           0
     32709 MEMB     245      POPC     C15      CTL5    -0.350000       12.0110           0
     32710 MEMB     245      POPC     H15A     HL       0.250000       1.00800           0
     32711 MEMB     245      POPC     H15B     HL       0.250000       1.00800           0
     32712 MEMB     245      POPC     H15C     HL       0.250000       1.00800           0
     32713 MEMB     245      POPC     C11      CTL2    -0.800000E-01   12.0110           0
     32714 MEMB     245      POPC     H11A     HAL2     0.900000E-01   1.00800           0
     32715 MEMB     245      POPC     H11B     HAL2     0.900000E-01   1.00800           0
     32716 MEMB     245      POPC     P        PL       1.50000        30.9740           0
     32717 MEMB     245      POPC     O13      O2L     -0.780000       15.9994           0
     32718 MEMB     245      POPC     O14      O2L     -0.780000       15.9994           0
     32719 MEMB     245      POPC     O12      OSLP    -0.570000       15.9994           0
     32720 MEMB     245      POPC     O11      OSLP    -0.570000       15.9994           0
     32721 MEMB     245      POPC     C1       CTL2    -0.800000E-01   12.0110           0
     32722 MEMB     245      POPC     HA       HAL2     0.900000E-01   1.00800           0
     32723 MEMB     245      POPC     HB       HAL2     0.900000E-01   1.00800           0
     32724 MEMB     245      POPC     C2       CTL1     0.170000       12.0110           0
     32725 MEMB     245      POPC     HS       HAL1     0.900000E-01   1.00800           0
     32726 MEMB     245      POPC     O21      OSL     -0.490000       15.9994           0
     32727 MEMB     245      POPC     C21      CL       0.900000       12.0110           0
     32728 MEMB     245      POPC     O22      OBL     -0.630000       15.9994           0
     32729 MEMB     245      POPC     C22      CTL2    -0.220000       12.0110           0
     32730 MEMB     245      POPC     H2R      HAL2     0.900000E-01   1.00800           0
     32731 MEMB     245      POPC     H2S      HAL2     0.900000E-01   1.00800           0
     32732 MEMB     245      POPC     C3       CTL2     0.800000E-01   12.0110           0
     32733 MEMB     245      POPC     HX       HAL2     0.900000E-01   1.00800           0
     32734 MEMB     245      POPC     HY       HAL2     0.900000E-01   1.00800           0
     32735 MEMB     245      POPC     O31      OSL     -0.490000       15.9994           0
     32736 MEMB     245      POPC     C31      CL       0.900000       12.0110           0
     32737 MEMB     245      POPC     O32      OBL     -0.630000       15.9994           0
     32738 MEMB     245      POPC     C32      CTL2    -0.220000       12.0110           0
     32739 MEMB     245      POPC     H2X      HAL2     0.900000E-01   1.00800           0
     32740 MEMB     245      POPC     H2Y      HAL2     0.900000E-01   1.00800           0
     32741 MEMB     245      POPC     C23      CTL2    -0.180000       12.0110           0
     32742 MEMB     245      POPC     H3R      HAL2     0.900000E-01   1.00800           0
     32743 MEMB     245      POPC     H3S      HAL2     0.900000E-01   1.00800           0
     32744 MEMB     245      POPC     C24      CTL2    -0.180000       12.0110           0
     32745 MEMB     245      POPC     H4R      HAL2     0.900000E-01   1.00800           0
     32746 MEMB     245      POPC     H4S      HAL2     0.900000E-01   1.00800           0
     32747 MEMB     245      POPC     C25      CTL2    -0.180000       12.0110           0
     32748 MEMB     245      POPC     H5R      HAL2     0.900000E-01   1.00800           0
     32749 MEMB     245      POPC     H5S      HAL2     0.900000E-01   1.00800           0
     32750 MEMB     245      POPC     C26      CTL2    -0.180000       12.0110           0
     32751 MEMB     245      POPC     H6R      HAL2     0.900000E-01   1.00800           0
     32752 MEMB     245      POPC     H6S      HAL2     0.900000E-01   1.00800           0
     32753 MEMB     245      POPC     C27      CTL2    -0.180000       12.0110           0
     32754 MEMB     245      POPC     H7R      HAL2     0.900000E-01   1.00800           0
     32755 MEMB     245      POPC     H7S      HAL2     0.900000E-01   1.00800           0
     32756 MEMB     245      POPC     C28      CTL2    -0.180000       12.0110           0
     32757 MEMB     245      POPC     H8R      HAL2     0.900000E-01   1.00800           0
     32758 MEMB     245      POPC     H8S      HAL2     0.900000E-01   1.00800           0
     32759 MEMB     245      POPC     C29      CEL1    -0.150000       12.0110           0
     32760 MEMB     245      POPC     H91      HEL1     0.150000       1.00800           0
     32761 MEMB     245      POPC     C210     CEL1    -0.150000       12.0110           0
     32762 MEMB     245      POPC     H101     HEL1     0.150000       1.00800           0
     32763 MEMB     245      POPC     C211     CTL2    -0.180000       12.0110           0
     32764 MEMB     245      POPC     H11R     HAL2     0.900000E-01   1.00800           0
     32765 MEMB     245      POPC     H11S     HAL2     0.900000E-01   1.00800           0
     32766 MEMB     245      POPC     C212     CTL2    -0.180000       12.0110           0
     32767 MEMB     245      POPC     H12R     HAL2     0.900000E-01   1.00800           0
     32768 MEMB     245      POPC     H12S     HAL2     0.900000E-01   1.00800           0
     32769 MEMB     245      POPC     C213     CTL2    -0.180000       12.0110           0
     32770 MEMB     245      POPC     H13R     HAL2     0.900000E-01   1.00800           0
     32771 MEMB     245      POPC     H13S     HAL2     0.900000E-01   1.00800           0
     32772 MEMB     245      POPC     C214     CTL2    -0.180000       12.0110           0
     32773 MEMB     245      POPC     H14R     HAL2     0.900000E-01   1.00800           0
     32774 MEMB     245      POPC     H14S     HAL2     0.900000E-01   1.00800           0
     32775 MEMB     245      POPC     C215     CTL2    -0.180000       12.0110           0
     32776 MEMB     245      POPC     H15R     HAL2     0.900000E-01   1.00800           0
     32777 MEMB     245      POPC     H15S     HAL2     0.900000E-01   1.00800           0
     32778 MEMB     245      POPC     C216     CTL2    -0.180000       12.0110           0
     32779 MEMB     245      POPC     H16R     HAL2     0.900000E-01   1.00800           0
     32780 MEMB     245      POPC     H16S     HAL2     0.900000E-01   1.00800           0
     32781 MEMB     245      POPC     C217     CTL2    -0.180000       12.0110           0
     32782 MEMB     245      POPC     H17R     HAL2     0.900000E-01   1.00800           0
     32783 MEMB     245      POPC     H17S     HAL2     0.900000E-01   1.00800           0
     32784 MEMB     245      POPC     C218     CTL3    -0.270000       12.0110           0
     32785 MEMB     245      POPC     H18R     HAL3     0.900000E-01   1.00800           0
     32786 MEMB     245      POPC     H18S     HAL3     0.900000E-01   1.00800           0
     32787 MEMB     245      POPC     H18T     HAL3     0.900000E-01   1.00800           0
     32788 MEMB     245      POPC     C33      CTL2    -0.180000       12.0110           0
     32789 MEMB     245      POPC     H3X      HAL2     0.900000E-01   1.00800           0
     32790 MEMB     245      POPC     H3Y      HAL2     0.900000E-01   1.00800           0
     32791 MEMB     245      POPC     C34      CTL2    -0.180000       12.0110           0
     32792 MEMB     245      POPC     H4X      HAL2     0.900000E-01   1.00800           0
     32793 MEMB     245      POPC     H4Y      HAL2     0.900000E-01   1.00800           0
     32794 MEMB     245      POPC     C35      CTL2    -0.180000       12.0110           0
     32795 MEMB     245      POPC     H5X      HAL2     0.900000E-01   1.00800           0
     32796 MEMB     245      POPC     H5Y      HAL2     0.900000E-01   1.00800           0
     32797 MEMB     245      POPC     C36      CTL2    -0.180000       12.0110           0
     32798 MEMB     245      POPC     H6X      HAL2     0.900000E-01   1.00800           0
     32799 MEMB     245      POPC     H6Y      HAL2     0.900000E-01   1.00800           0
     32800 MEMB     245      POPC     C37      CTL2    -0.180000       12.0110           0
     32801 MEMB     245      POPC     H7X      HAL2     0.900000E-01   1.00800           0
     32802 MEMB     245      POPC     H7Y      HAL2     0.900000E-01   1.00800           0
     32803 MEMB     245      POPC     C38      CTL2    -0.180000       12.0110           0
     32804 MEMB     245      POPC     H8X      HAL2     0.900000E-01   1.00800           0
     32805 MEMB     245      POPC     H8Y      HAL2     0.900000E-01   1.00800           0
     32806 MEMB     245      POPC     C39      CTL2    -0.180000       12.0110           0
     32807 MEMB     245      POPC     H9X      HAL2     0.900000E-01   1.00800           0
     32808 MEMB     245      POPC     H9Y      HAL2     0.900000E-01   1.00800           0
     32809 MEMB     245      POPC     C310     CTL2    -0.180000       12.0110           0
     32810 MEMB     245      POPC     H10X     HAL2     0.900000E-01   1.00800           0
     32811 MEMB     245      POPC     H10Y     HAL2     0.900000E-01   1.00800           0
     32812 MEMB     245      POPC     C311     CTL2    -0.180000       12.0110           0
     32813 MEMB     245      POPC     H11X     HAL2     0.900000E-01   1.00800           0
     32814 MEMB     245      POPC     H11Y     HAL2     0.900000E-01   1.00800           0
     32815 MEMB     245      POPC     C312     CTL2    -0.180000       12.0110           0
     32816 MEMB     245      POPC     H12X     HAL2     0.900000E-01   1.00800           0
     32817 MEMB     245      POPC     H12Y     HAL2     0.900000E-01   1.00800           0
     32818 MEMB     245      POPC     C313     CTL2    -0.180000       12.0110           0
     32819 MEMB     245      POPC     H13X     HAL2     0.900000E-01   1.00800           0
     32820 MEMB     245      POPC     H13Y     HAL2     0.900000E-01   1.00800           0
     32821 MEMB     245      POPC     C314     CTL2    -0.180000       12.0110           0
     32822 MEMB     245      POPC     H14X     HAL2     0.900000E-01   1.00800           0
     32823 MEMB     245      POPC     H14Y     HAL2     0.900000E-01   1.00800           0
     32824 MEMB     245      POPC     C315     CTL2    -0.180000       12.0110           0
     32825 MEMB     245      POPC     H15X     HAL2     0.900000E-01   1.00800           0
     32826 MEMB     245      POPC     H15Y     HAL2     0.900000E-01   1.00800           0
     32827 MEMB     245      POPC     C316     CTL3    -0.270000       12.0110           0
     32828 MEMB     245      POPC     H16X     HAL3     0.900000E-01   1.00800           0
     32829 MEMB     245      POPC     H16Y     HAL3     0.900000E-01   1.00800           0
     32830 MEMB     245      POPC     H16Z     HAL3     0.900000E-01   1.00800           0
     32831 MEMB     246      POPC     N        NTL     -0.600000       14.0070           0
     32832 MEMB     246      POPC     C12      CTL2    -0.100000       12.0110           0
     32833 MEMB     246      POPC     H12A     HL       0.250000       1.00800           0
     32834 MEMB     246      POPC     H12B     HL       0.250000       1.00800           0
     32835 MEMB     246      POPC     C13      CTL5    -0.350000       12.0110           0
     32836 MEMB     246      POPC     H13A     HL       0.250000       1.00800           0
     32837 MEMB     246      POPC     H13B     HL       0.250000       1.00800           0
     32838 MEMB     246      POPC     H13C     HL       0.250000       1.00800           0
     32839 MEMB     246      POPC     C14      CTL5    -0.350000       12.0110           0
     32840 MEMB     246      POPC     H14A     HL       0.250000       1.00800           0
     32841 MEMB     246      POPC     H14B     HL       0.250000       1.00800           0
     32842 MEMB     246      POPC     H14C     HL       0.250000       1.00800           0
     32843 MEMB     246      POPC     C15      CTL5    -0.350000       12.0110           0
     32844 MEMB     246      POPC     H15A     HL       0.250000       1.00800           0
     32845 MEMB     246      POPC     H15B     HL       0.250000       1.00800           0
     32846 MEMB     246      POPC     H15C     HL       0.250000       1.00800           0
     32847 MEMB     246      POPC     C11      CTL2    -0.800000E-01   12.0110           0
     32848 MEMB     246      POPC     H11A     HAL2     0.900000E-01   1.00800           0
     32849 MEMB     246      POPC     H11B     HAL2     0.900000E-01   1.00800           0
     32850 MEMB     246      POPC     P        PL       1.50000        30.9740           0
     32851 MEMB     246      POPC     O13      O2L     -0.780000       15.9994           0
     32852 MEMB     246      POPC     O14      O2L     -0.780000       15.9994           0
     32853 MEMB     246      POPC     O12      OSLP    -0.570000       15.9994           0
     32854 MEMB     246      POPC     O11      OSLP    -0.570000       15.9994           0
     32855 MEMB     246      POPC     C1       CTL2    -0.800000E-01   12.0110           0
     32856 MEMB     246      POPC     HA       HAL2     0.900000E-01   1.00800           0
     32857 MEMB     246      POPC     HB       HAL2     0.900000E-01   1.00800           0
     32858 MEMB     246      POPC     C2       CTL1     0.170000       12.0110           0
     32859 MEMB     246      POPC     HS       HAL1     0.900000E-01   1.00800           0
     32860 MEMB     246      POPC     O21      OSL     -0.490000       15.9994           0
     32861 MEMB     246      POPC     C21      CL       0.900000       12.0110           0
     32862 MEMB     246      POPC     O22      OBL     -0.630000       15.9994           0
     32863 MEMB     246      POPC     C22      CTL2    -0.220000       12.0110           0
     32864 MEMB     246      POPC     H2R      HAL2     0.900000E-01   1.00800           0
     32865 MEMB     246      POPC     H2S      HAL2     0.900000E-01   1.00800           0
     32866 MEMB     246      POPC     C3       CTL2     0.800000E-01   12.0110           0
     32867 MEMB     246      POPC     HX       HAL2     0.900000E-01   1.00800           0
     32868 MEMB     246      POPC     HY       HAL2     0.900000E-01   1.00800           0
     32869 MEMB     246      POPC     O31      OSL     -0.490000       15.9994           0
     32870 MEMB     246      POPC     C31      CL       0.900000       12.0110           0
     32871 MEMB     246      POPC     O32      OBL     -0.630000       15.9994           0
     32872 MEMB     246      POPC     C32      CTL2    -0.220000       12.0110           0
     32873 MEMB     246      POPC     H2X      HAL2     0.900000E-01   1.00800           0
     32874 MEMB     246      POPC     H2Y      HAL2     0.900000E-01   1.00800           0
     32875 MEMB     246      POPC     C23      CTL2    -0.180000       12.0110           0
     32876 MEMB     246      POPC     H3R      HAL2     0.900000E-01   1.00800           0
     32877 MEMB     246      POPC     H3S      HAL2     0.900000E-01   1.00800           0
     32878 MEMB     246      POPC     C24      CTL2    -0.180000       12.0110           0
     32879 MEMB     246      POPC     H4R      HAL2     0.900000E-01   1.00800           0
     32880 MEMB     246      POPC     H4S      HAL2     0.900000E-01   1.00800           0
     32881 MEMB     246      POPC     C25      CTL2    -0.180000       12.0110           0
     32882 MEMB     246      POPC     H5R      HAL2     0.900000E-01   1.00800           0
     32883 MEMB     246      POPC     H5S      HAL2     0.900000E-01   1.00800           0
     32884 MEMB     246      POPC     C26      CTL2    -0.180000       12.0110           0
     32885 MEMB     246      POPC     H6R      HAL2     0.900000E-01   1.00800           0
     32886 MEMB     246      POPC     H6S      HAL2     0.900000E-01   1.00800           0
     32887 MEMB     246      POPC     C27      CTL2    -0.180000       12.0110           0
     32888 MEMB     246      POPC     H7R      HAL2     0.900000E-01   1.00800           0
     32889 MEMB     246      POPC     H7S      HAL2     0.900000E-01   1.00800           0
     32890 MEMB     246      POPC     C28      CTL2    -0.180000       12.0110           0
     32891 MEMB     246      POPC     H8R      HAL2     0.900000E-01   1.00800           0
     32892 MEMB     246      POPC     H8S      HAL2     0.900000E-01   1.00800           0
     32893 MEMB     246      POPC     C29      CEL1    -0.150000       12.0110           0
     32894 MEMB     246      POPC     H91      HEL1     0.150000       1.00800           0
     32895 MEMB     246      POPC     C210     CEL1    -0.150000       12.0110           0
     32896 MEMB     246      POPC     H101     HEL1     0.150000       1.00800           0
     32897 MEMB     246      POPC     C211     CTL2    -0.180000       12.0110           0
     32898 MEMB     246      POPC     H11R     HAL2     0.900000E-01   1.00800           0
     32899 MEMB     246      POPC     H11S     HAL2     0.900000E-01   1.00800           0
     32900 MEMB     246      POPC     C212     CTL2    -0.180000       12.0110           0
     32901 MEMB     246      POPC     H12R     HAL2     0.900000E-01   1.00800           0
     32902 MEMB     246      POPC     H12S     HAL2     0.900000E-01   1.00800           0
     32903 MEMB     246      POPC     C213     CTL2    -0.180000       12.0110           0
     32904 MEMB     246      POPC     H13R     HAL2     0.900000E-01   1.00800           0
     32905 MEMB     246      POPC     H13S     HAL2     0.900000E-01   1.00800           0
     32906 MEMB     246      POPC     C214     CTL2    -0.180000       12.0110           0
     32907 MEMB     246      POPC     H14R     HAL2     0.900000E-01   1.00800           0
     32908 MEMB     246      POPC     H14S     HAL2     0.900000E-01   1.00800           0
     32909 MEMB     246      POPC     C215     CTL2    -0.180000       12.0110           0
     32910 MEMB     246      POPC     H15R     HAL2     0.900000E-01   1.00800           0
     32911 MEMB     246      POPC     H15S     HAL2     0.900000E-01   1.00800           0
     32912 MEMB     246      POPC     C216     CTL2    -0.180000       12.0110           0
     32913 MEMB     246      POPC     H16R     HAL2     0.900000E-01   1.00800           0
     32914 MEMB     246      POPC     H16S     HAL2     0.900000E-01   1.00800           0
     32915 MEMB     246      POPC     C217     CTL2    -0.180000       12.0110           0
     32916 MEMB     246      POPC     H17R     HAL2     0.900000E-01   1.00800           0
     32917 MEMB     246      POPC     H17S     HAL2     0.900000E-01   1.00800           0
     32918 MEMB     246      POPC     C218     CTL3    -0.270000       12.0110           0
     32919 MEMB     246      POPC     H18R     HAL3     0.900000E-01   1.00800           0
     32920 MEMB     246      POPC     H18S     HAL3     0.900000E-01   1.00800           0
     32921 MEMB     246      POPC     H18T     HAL3     0.900000E-01   1.00800           0
     32922 MEMB     246      POPC     C33      CTL2    -0.180000       12.0110           0
     32923 MEMB     246      POPC     H3X      HAL2     0.900000E-01   1.00800           0
     32924 MEMB     246      POPC     H3Y      HAL2     0.900000E-01   1.00800           0
     32925 MEMB     246      POPC     C34      CTL2    -0.180000       12.0110           0
     32926 MEMB     246      POPC     H4X      HAL2     0.900000E-01   1.00800           0
     32927 MEMB     246      POPC     H4Y      HAL2     0.900000E-01   1.00800           0
     32928 MEMB     246      POPC     C35      CTL2    -0.180000       12.0110           0
     32929 MEMB     246      POPC     H5X      HAL2     0.900000E-01   1.00800           0
     32930 MEMB     246      POPC     H5Y      HAL2     0.900000E-01   1.00800           0
     32931 MEMB     246      POPC     C36      CTL2    -0.180000       12.0110           0
     32932 MEMB     246      POPC     H6X      HAL2     0.900000E-01   1.00800           0
     32933 MEMB     246      POPC     H6Y      HAL2     0.900000E-01   1.00800           0
     32934 MEMB     246      POPC     C37      CTL2    -0.180000       12.0110           0
     32935 MEMB     246      POPC     H7X      HAL2     0.900000E-01   1.00800           0
     32936 MEMB     246      POPC     H7Y      HAL2     0.900000E-01   1.00800           0
     32937 MEMB     246      POPC     C38      CTL2    -0.180000       12.0110           0
     32938 MEMB     246      POPC     H8X      HAL2     0.900000E-01   1.00800           0
     32939 MEMB     246      POPC     H8Y      HAL2     0.900000E-01   1.00800           0
     32940 MEMB     246      POPC     C39      CTL2    -0.180000       12.0110           0
     32941 MEMB     246      POPC     H9X      HAL2     0.900000E-01   1.00800           0
     32942 MEMB     246      POPC     H9Y      HAL2     0.900000E-01   1.00800           0
     32943 MEMB     246      POPC     C310     CTL2    -0.180000       12.0110           0
     32944 MEMB     246      POPC     H10X     HAL2     0.900000E-01   1.00800           0
     32945 MEMB     246      POPC     H10Y     HAL2     0.900000E-01   1.00800           0
     32946 MEMB     246      POPC     C311     CTL2    -0.180000       12.0110           0
     32947 MEMB     246      POPC     H11X     HAL2     0.900000E-01   1.00800           0
     32948 MEMB     246      POPC     H11Y     HAL2     0.900000E-01   1.00800           0
     32949 MEMB     246      POPC     C312     CTL2    -0.180000       12.0110           0
     32950 MEMB     246      POPC     H12X     HAL2     0.900000E-01   1.00800           0
     32951 MEMB     246      POPC     H12Y     HAL2     0.900000E-01   1.00800           0
     32952 MEMB     246      POPC     C313     CTL2    -0.180000       12.0110           0
     32953 MEMB     246      POPC     H13X     HAL2     0.900000E-01   1.00800           0
     32954 MEMB     246      POPC     H13Y     HAL2     0.900000E-01   1.00800           0
     32955 MEMB     246      POPC     C314     CTL2    -0.180000       12.0110           0
     32956 MEMB     246      POPC     H14X     HAL2     0.900000E-01   1.00800           0
     32957 MEMB     246      POPC     H14Y     HAL2     0.900000E-01   1.00800           0
     32958 MEMB     246      POPC     C315     CTL2    -0.180000       12.0110           0
     32959 MEMB     246      POPC     H15X     HAL2     0.900000E-01   1.00800           0
     32960 MEMB     246      POPC     H15Y     HAL2     0.900000E-01   1.00800           0
     32961 MEMB     246      POPC     C316     CTL3    -0.270000       12.0110           0
     32962 MEMB     246      POPC     H16X     HAL3     0.900000E-01   1.00800           0
     32963 MEMB     246      POPC     H16Y     HAL3     0.900000E-01   1.00800           0
     32964 MEMB     246      POPC     H16Z     HAL3     0.900000E-01   1.00800           0
     32965 MEMB     247      POPC     N        NTL     -0.600000       14.0070           0
     32966 MEMB     247      POPC     C12      CTL2    -0.100000       12.0110           0
     32967 MEMB     247      POPC     H12A     HL       0.250000       1.00800           0
     32968 MEMB     247      POPC     H12B     HL       0.250000       1.00800           0
     32969 MEMB     247      POPC     C13      CTL5    -0.350000       12.0110           0
     32970 MEMB     247      POPC     H13A     HL       0.250000       1.00800           0
     32971 MEMB     247      POPC     H13B     HL       0.250000       1.00800           0
     32972 MEMB     247      POPC     H13C     HL       0.250000       1.00800           0
     32973 MEMB     247      POPC     C14      CTL5    -0.350000       12.0110           0
     32974 MEMB     247      POPC     H14A     HL       0.250000       1.00800           0
     32975 MEMB     247      POPC     H14B     HL       0.250000       1.00800           0
     32976 MEMB     247      POPC     H14C     HL       0.250000       1.00800           0
     32977 MEMB     247      POPC     C15      CTL5    -0.350000       12.0110           0
     32978 MEMB     247      POPC     H15A     HL       0.250000       1.00800           0
     32979 MEMB     247      POPC     H15B     HL       0.250000       1.00800           0
     32980 MEMB     247      POPC     H15C     HL       0.250000       1.00800           0
     32981 MEMB     247      POPC     C11      CTL2    -0.800000E-01   12.0110           0
     32982 MEMB     247      POPC     H11A     HAL2     0.900000E-01   1.00800           0
     32983 MEMB     247      POPC     H11B     HAL2     0.900000E-01   1.00800           0
     32984 MEMB     247      POPC     P        PL       1.50000        30.9740           0
     32985 MEMB     247      POPC     O13      O2L     -0.780000       15.9994           0
     32986 MEMB     247      POPC     O14      O2L     -0.780000       15.9994           0
     32987 MEMB     247      POPC     O12      OSLP    -0.570000       15.9994           0
     32988 MEMB     247      POPC     O11      OSLP    -0.570000       15.9994           0
     32989 MEMB     247      POPC     C1       CTL2    -0.800000E-01   12.0110           0
     32990 MEMB     247      POPC     HA       HAL2     0.900000E-01   1.00800           0
     32991 MEMB     247      POPC     HB       HAL2     0.900000E-01   1.00800           0
     32992 MEMB     247      POPC     C2       CTL1     0.170000       12.0110           0
     32993 MEMB     247      POPC     HS       HAL1     0.900000E-01   1.00800           0
     32994 MEMB     247      POPC     O21      OSL     -0.490000       15.9994           0
     32995 MEMB     247      POPC     C21      CL       0.900000       12.0110           0
     32996 MEMB     247      POPC     O22      OBL     -0.630000       15.9994           0
     32997 MEMB     247      POPC     C22      CTL2    -0.220000       12.0110           0
     32998 MEMB     247      POPC     H2R      HAL2     0.900000E-01   1.00800           0
     32999 MEMB     247      POPC     H2S      HAL2     0.900000E-01   1.00800           0
     33000 MEMB     247      POPC     C3       CTL2     0.800000E-01   12.0110           0
     33001 MEMB     247      POPC     HX       HAL2     0.900000E-01   1.00800           0
     33002 MEMB     247      POPC     HY       HAL2     0.900000E-01   1.00800           0
     33003 MEMB     247      POPC     O31      OSL     -0.490000       15.9994           0
     33004 MEMB     247      POPC     C31      CL       0.900000       12.0110           0
     33005 MEMB     247      POPC     O32      OBL     -0.630000       15.9994           0
     33006 MEMB     247      POPC     C32      CTL2    -0.220000       12.0110           0
     33007 MEMB     247      POPC     H2X      HAL2     0.900000E-01   1.00800           0
     33008 MEMB     247      POPC     H2Y      HAL2     0.900000E-01   1.00800           0
     33009 MEMB     247      POPC     C23      CTL2    -0.180000       12.0110           0
     33010 MEMB     247      POPC     H3R      HAL2     0.900000E-01   1.00800           0
     33011 MEMB     247      POPC     H3S      HAL2     0.900000E-01   1.00800           0
     33012 MEMB     247      POPC     C24      CTL2    -0.180000       12.0110           0
     33013 MEMB     247      POPC     H4R      HAL2     0.900000E-01   1.00800           0
     33014 MEMB     247      POPC     H4S      HAL2     0.900000E-01   1.00800           0
     33015 MEMB     247      POPC     C25      CTL2    -0.180000       12.0110           0
     33016 MEMB     247      POPC     H5R      HAL2     0.900000E-01   1.00800           0
     33017 MEMB     247      POPC     H5S      HAL2     0.900000E-01   1.00800           0
     33018 MEMB     247      POPC     C26      CTL2    -0.180000       12.0110           0
     33019 MEMB     247      POPC     H6R      HAL2     0.900000E-01   1.00800           0
     33020 MEMB     247      POPC     H6S      HAL2     0.900000E-01   1.00800           0
     33021 MEMB     247      POPC     C27      CTL2    -0.180000       12.0110           0
     33022 MEMB     247      POPC     H7R      HAL2     0.900000E-01   1.00800           0
     33023 MEMB     247      POPC     H7S      HAL2     0.900000E-01   1.00800           0
     33024 MEMB     247      POPC     C28      CTL2    -0.180000       12.0110           0
     33025 MEMB     247      POPC     H8R      HAL2     0.900000E-01   1.00800           0
     33026 MEMB     247      POPC     H8S      HAL2     0.900000E-01   1.00800           0
     33027 MEMB     247      POPC     C29      CEL1    -0.150000       12.0110           0
     33028 MEMB     247      POPC     H91      HEL1     0.150000       1.00800           0
     33029 MEMB     247      POPC     C210     CEL1    -0.150000       12.0110           0
     33030 MEMB     247      POPC     H101     HEL1     0.150000       1.00800           0
     33031 MEMB     247      POPC     C211     CTL2    -0.180000       12.0110           0
     33032 MEMB     247      POPC     H11R     HAL2     0.900000E-01   1.00800           0
     33033 MEMB     247      POPC     H11S     HAL2     0.900000E-01   1.00800           0
     33034 MEMB     247      POPC     C212     CTL2    -0.180000       12.0110           0
     33035 MEMB     247      POPC     H12R     HAL2     0.900000E-01   1.00800           0
     33036 MEMB     247      POPC     H12S     HAL2     0.900000E-01   1.00800           0
     33037 MEMB     247      POPC     C213     CTL2    -0.180000       12.0110           0
     33038 MEMB     247      POPC     H13R     HAL2     0.900000E-01   1.00800           0
     33039 MEMB     247      POPC     H13S     HAL2     0.900000E-01   1.00800           0
     33040 MEMB     247      POPC     C214     CTL2    -0.180000       12.0110           0
     33041 MEMB     247      POPC     H14R     HAL2     0.900000E-01   1.00800           0
     33042 MEMB     247      POPC     H14S     HAL2     0.900000E-01   1.00800           0
     33043 MEMB     247      POPC     C215     CTL2    -0.180000       12.0110           0
     33044 MEMB     247      POPC     H15R     HAL2     0.900000E-01   1.00800           0
     33045 MEMB     247      POPC     H15S     HAL2     0.900000E-01   1.00800           0
     33046 MEMB     247      POPC     C216     CTL2    -0.180000       12.0110           0
     33047 MEMB     247      POPC     H16R     HAL2     0.900000E-01   1.00800           0
     33048 MEMB     247      POPC     H16S     HAL2     0.900000E-01   1.00800           0
     33049 MEMB     247      POPC     C217     CTL2    -0.180000       12.0110           0
     33050 MEMB     247      POPC     H17R     HAL2     0.900000E-01   1.00800           0
     33051 MEMB     247      POPC     H17S     HAL2     0.900000E-01   1.00800           0
     33052 MEMB     247      POPC     C218     CTL3    -0.270000       12.0110           0
     33053 MEMB     247      POPC     H18R     HAL3     0.900000E-01   1.00800           0
     33054 MEMB     247      POPC     H18S     HAL3     0.900000E-01   1.00800           0
     33055 MEMB     247      POPC     H18T     HAL3     0.900000E-01   1.00800           0
     33056 MEMB     247      POPC     C33      CTL2    -0.180000       12.0110           0
     33057 MEMB     247      POPC     H3X      HAL2     0.900000E-01   1.00800           0
     33058 MEMB     247      POPC     H3Y      HAL2     0.900000E-01   1.00800           0
     33059 MEMB     247      POPC     C34      CTL2    -0.180000       12.0110           0
     33060 MEMB     247      POPC     H4X      HAL2     0.900000E-01   1.00800           0
     33061 MEMB     247      POPC     H4Y      HAL2     0.900000E-01   1.00800           0
     33062 MEMB     247      POPC     C35      CTL2    -0.180000       12.0110           0
     33063 MEMB     247      POPC     H5X      HAL2     0.900000E-01   1.00800           0
     33064 MEMB     247      POPC     H5Y      HAL2     0.900000E-01   1.00800           0
     33065 MEMB     247      POPC     C36      CTL2    -0.180000       12.0110           0
     33066 MEMB     247      POPC     H6X      HAL2     0.900000E-01   1.00800           0
     33067 MEMB     247      POPC     H6Y      HAL2     0.900000E-01   1.00800           0
     33068 MEMB     247      POPC     C37      CTL2    -0.180000       12.0110           0
     33069 MEMB     247      POPC     H7X      HAL2     0.900000E-01   1.00800           0
     33070 MEMB     247      POPC     H7Y      HAL2     0.900000E-01   1.00800           0
     33071 MEMB     247      POPC     C38      CTL2    -0.180000       12.0110           0
     33072 MEMB     247      POPC     H8X      HAL2     0.900000E-01   1.00800           0
     33073 MEMB     247      POPC     H8Y      HAL2     0.900000E-01   1.00800           0
     33074 MEMB     247      POPC     C39      CTL2    -0.180000       12.0110           0
     33075 MEMB     247      POPC     H9X      HAL2     0.900000E-01   1.00800           0
     33076 MEMB     247      POPC     H9Y      HAL2     0.900000E-01   1.00800           0
     33077 MEMB     247      POPC     C310     CTL2    -0.180000       12.0110           0
     33078 MEMB     247      POPC     H10X     HAL2     0.900000E-01   1.00800           0
     33079 MEMB     247      POPC     H10Y     HAL2     0.900000E-01   1.00800           0
     33080 MEMB     247      POPC     C311     CTL2    -0.180000       12.0110           0
     33081 MEMB     247      POPC     H11X     HAL2     0.900000E-01   1.00800           0
     33082 MEMB     247      POPC     H11Y     HAL2     0.900000E-01   1.00800           0
     33083 MEMB     247      POPC     C312     CTL2    -0.180000       12.0110           0
     33084 MEMB     247      POPC     H12X     HAL2     0.900000E-01   1.00800           0
     33085 MEMB     247      POPC     H12Y     HAL2     0.900000E-01   1.00800           0
     33086 MEMB     247      POPC     C313     CTL2    -0.180000       12.0110           0
     33087 MEMB     247      POPC     H13X     HAL2     0.900000E-01   1.00800           0
     33088 MEMB     247      POPC     H13Y     HAL2     0.900000E-01   1.00800           0
     33089 MEMB     247      POPC     C314     CTL2    -0.180000       12.0110           0
     33090 MEMB     247      POPC     H14X     HAL2     0.900000E-01   1.00800           0
     33091 MEMB     247      POPC     H14Y     HAL2     0.900000E-01   1.00800           0
     33092 MEMB     247      POPC     C315     CTL2    -0.180000       12.0110           0
     33093 MEMB     247      POPC     H15X     HAL2     0.900000E-01   1.00800           0
     33094 MEMB     247      POPC     H15Y     HAL2     0.900000E-01   1.00800           0
     33095 MEMB     247      POPC     C316     CTL3    -0.270000       12.0110           0
     33096 MEMB     247      POPC     H16X     HAL3     0.900000E-01   1.00800           0
     33097 MEMB     247      POPC     H16Y     HAL3     0.900000E-01   1.00800           0
     33098 MEMB     247      POPC     H16Z     HAL3     0.900000E-01   1.00800           0
     33099 MEMB     248      POPC     N        NTL     -0.600000       14.0070           0
     33100 MEMB     248      POPC     C12      CTL2    -0.100000       12.0110           0
     33101 MEMB     248      POPC     H12A     HL       0.250000       1.00800           0
     33102 MEMB     248      POPC     H12B     HL       0.250000       1.00800           0
     33103 MEMB     248      POPC     C13      CTL5    -0.350000       12.0110           0
     33104 MEMB     248      POPC     H13A     HL       0.250000       1.00800           0
     33105 MEMB     248      POPC     H13B     HL       0.250000       1.00800           0
     33106 MEMB     248      POPC     H13C     HL       0.250000       1.00800           0
     33107 MEMB     248      POPC     C14      CTL5    -0.350000       12.0110           0
     33108 MEMB     248      POPC     H14A     HL       0.250000       1.00800           0
     33109 MEMB     248      POPC     H14B     HL       0.250000       1.00800           0
     33110 MEMB     248      POPC     H14C     HL       0.250000       1.00800           0
     33111 MEMB     248      POPC     C15      CTL5    -0.350000       12.0110           0
     33112 MEMB     248      POPC     H15A     HL       0.250000       1.00800           0
     33113 MEMB     248      POPC     H15B     HL       0.250000       1.00800           0
     33114 MEMB     248      POPC     H15C     HL       0.250000       1.00800           0
     33115 MEMB     248      POPC     C11      CTL2    -0.800000E-01   12.0110           0
     33116 MEMB     248      POPC     H11A     HAL2     0.900000E-01   1.00800           0
     33117 MEMB     248      POPC     H11B     HAL2     0.900000E-01   1.00800           0
     33118 MEMB     248      POPC     P        PL       1.50000        30.9740           0
     33119 MEMB     248      POPC     O13      O2L     -0.780000       15.9994           0
     33120 MEMB     248      POPC     O14      O2L     -0.780000       15.9994           0
     33121 MEMB     248      POPC     O12      OSLP    -0.570000       15.9994           0
     33122 MEMB     248      POPC     O11      OSLP    -0.570000       15.9994           0
     33123 MEMB     248      POPC     C1       CTL2    -0.800000E-01   12.0110           0
     33124 MEMB     248      POPC     HA       HAL2     0.900000E-01   1.00800           0
     33125 MEMB     248      POPC     HB       HAL2     0.900000E-01   1.00800           0
     33126 MEMB     248      POPC     C2       CTL1     0.170000       12.0110           0
     33127 MEMB     248      POPC     HS       HAL1     0.900000E-01   1.00800           0
     33128 MEMB     248      POPC     O21      OSL     -0.490000       15.9994           0
     33129 MEMB     248      POPC     C21      CL       0.900000       12.0110           0
     33130 MEMB     248      POPC     O22      OBL     -0.630000       15.9994           0
     33131 MEMB     248      POPC     C22      CTL2    -0.220000       12.0110           0
     33132 MEMB     248      POPC     H2R      HAL2     0.900000E-01   1.00800           0
     33133 MEMB     248      POPC     H2S      HAL2     0.900000E-01   1.00800           0
     33134 MEMB     248      POPC     C3       CTL2     0.800000E-01   12.0110           0
     33135 MEMB     248      POPC     HX       HAL2     0.900000E-01   1.00800           0
     33136 MEMB     248      POPC     HY       HAL2     0.900000E-01   1.00800           0
     33137 MEMB     248      POPC     O31      OSL     -0.490000       15.9994           0
     33138 MEMB     248      POPC     C31      CL       0.900000       12.0110           0
     33139 MEMB     248      POPC     O32      OBL     -0.630000       15.9994           0
     33140 MEMB     248      POPC     C32      CTL2    -0.220000       12.0110           0
     33141 MEMB     248      POPC     H2X      HAL2     0.900000E-01   1.00800           0
     33142 MEMB     248      POPC     H2Y      HAL2     0.900000E-01   1.00800           0
     33143 MEMB     248      POPC     C23      CTL2    -0.180000       12.0110           0
     33144 MEMB     248      POPC     H3R      HAL2     0.900000E-01   1.00800           0
     33145 MEMB     248      POPC     H3S      HAL2     0.900000E-01   1.00800           0
     33146 MEMB     248      POPC     C24      CTL2    -0.180000       12.0110           0
     33147 MEMB     248      POPC     H4R      HAL2     0.900000E-01   1.00800           0
     33148 MEMB     248      POPC     H4S      HAL2     0.900000E-01   1.00800           0
     33149 MEMB     248      POPC     C25      CTL2    -0.180000       12.0110           0
     33150 MEMB     248      POPC     H5R      HAL2     0.900000E-01   1.00800           0
     33151 MEMB     248      POPC     H5S      HAL2     0.900000E-01   1.00800           0
     33152 MEMB     248      POPC     C26      CTL2    -0.180000       12.0110           0
     33153 MEMB     248      POPC     H6R      HAL2     0.900000E-01   1.00800           0
     33154 MEMB     248      POPC     H6S      HAL2     0.900000E-01   1.00800           0
     33155 MEMB     248      POPC     C27      CTL2    -0.180000       12.0110           0
     33156 MEMB     248      POPC     H7R      HAL2     0.900000E-01   1.00800           0
     33157 MEMB     248      POPC     H7S      HAL2     0.900000E-01   1.00800           0
     33158 MEMB     248      POPC     C28      CTL2    -0.180000       12.0110           0
     33159 MEMB     248      POPC     H8R      HAL2     0.900000E-01   1.00800           0
     33160 MEMB     248      POPC     H8S      HAL2     0.900000E-01   1.00800           0
     33161 MEMB     248      POPC     C29      CEL1    -0.150000       12.0110           0
     33162 MEMB     248      POPC     H91      HEL1     0.150000       1.00800           0
     33163 MEMB     248      POPC     C210     CEL1    -0.150000       12.0110           0
     33164 MEMB     248      POPC     H101     HEL1     0.150000       1.00800           0
     33165 MEMB     248      POPC     C211     CTL2    -0.180000       12.0110           0
     33166 MEMB     248      POPC     H11R     HAL2     0.900000E-01   1.00800           0
     33167 MEMB     248      POPC     H11S     HAL2     0.900000E-01   1.00800           0
     33168 MEMB     248      POPC     C212     CTL2    -0.180000       12.0110           0
     33169 MEMB     248      POPC     H12R     HAL2     0.900000E-01   1.00800           0
     33170 MEMB     248      POPC     H12S     HAL2     0.900000E-01   1.00800           0
     33171 MEMB     248      POPC     C213     CTL2    -0.180000       12.0110           0
     33172 MEMB     248      POPC     H13R     HAL2     0.900000E-01   1.00800           0
     33173 MEMB     248      POPC     H13S     HAL2     0.900000E-01   1.00800           0
     33174 MEMB     248      POPC     C214     CTL2    -0.180000       12.0110           0
     33175 MEMB     248      POPC     H14R     HAL2     0.900000E-01   1.00800           0
     33176 MEMB     248      POPC     H14S     HAL2     0.900000E-01   1.00800           0
     33177 MEMB     248      POPC     C215     CTL2    -0.180000       12.0110           0
     33178 MEMB     248      POPC     H15R     HAL2     0.900000E-01   1.00800           0
     33179 MEMB     248      POPC     H15S     HAL2     0.900000E-01   1.00800           0
     33180 MEMB     248      POPC     C216     CTL2    -0.180000       12.0110           0
     33181 MEMB     248      POPC     H16R     HAL2     0.900000E-01   1.00800           0
     33182 MEMB     248      POPC     H16S     HAL2     0.900000E-01   1.00800           0
     33183 MEMB     248      POPC     C217     CTL2    -0.180000       12.0110           0
     33184 MEMB     248      POPC     H17R     HAL2     0.900000E-01   1.00800           0
     33185 MEMB     248      POPC     H17S     HAL2     0.900000E-01   1.00800           0
     33186 MEMB     248      POPC     C218     CTL3    -0.270000       12.0110           0
     33187 MEMB     248      POPC     H18R     HAL3     0.900000E-01   1.00800           0
     33188 MEMB     248      POPC     H18S     HAL3     0.900000E-01   1.00800           0
     33189 MEMB     248      POPC     H18T     HAL3     0.900000E-01   1.00800           0
     33190 MEMB     248      POPC     C33      CTL2    -0.180000       12.0110           0
     33191 MEMB     248      POPC     H3X      HAL2     0.900000E-01   1.00800           0
     33192 MEMB     248      POPC     H3Y      HAL2     0.900000E-01   1.00800           0
     33193 MEMB     248      POPC     C34      CTL2    -0.180000       12.0110           0
     33194 MEMB     248      POPC     H4X      HAL2     0.900000E-01   1.00800           0
     33195 MEMB     248      POPC     H4Y      HAL2     0.900000E-01   1.00800           0
     33196 MEMB     248      POPC     C35      CTL2    -0.180000       12.0110           0
     33197 MEMB     248      POPC     H5X      HAL2     0.900000E-01   1.00800           0
     33198 MEMB     248      POPC     H5Y      HAL2     0.900000E-01   1.00800           0
     33199 MEMB     248      POPC     C36      CTL2    -0.180000       12.0110           0
     33200 MEMB     248      POPC     H6X      HAL2     0.900000E-01   1.00800           0
     33201 MEMB     248      POPC     H6Y      HAL2     0.900000E-01   1.00800           0
     33202 MEMB     248      POPC     C37      CTL2    -0.180000       12.0110           0
     33203 MEMB     248      POPC     H7X      HAL2     0.900000E-01   1.00800           0
     33204 MEMB     248      POPC     H7Y      HAL2     0.900000E-01   1.00800           0
     33205 MEMB     248      POPC     C38      CTL2    -0.180000       12.0110           0
     33206 MEMB     248      POPC     H8X      HAL2     0.900000E-01   1.00800           0
     33207 MEMB     248      POPC     H8Y      HAL2     0.900000E-01   1.00800           0
     33208 MEMB     248      POPC     C39      CTL2    -0.180000       12.0110           0
     33209 MEMB     248      POPC     H9X      HAL2     0.900000E-01   1.00800           0
     33210 MEMB     248      POPC     H9Y      HAL2     0.900000E-01   1.00800           0
     33211 MEMB     248      POPC     C310     CTL2    -0.180000       12.0110           0
     33212 MEMB     248      POPC     H10X     HAL2     0.900000E-01   1.00800           0
     33213 MEMB     248      POPC     H10Y     HAL2     0.900000E-01   1.00800           0
     33214 MEMB     248      POPC     C311     CTL2    -0.180000       12.0110           0
     33215 MEMB     248      POPC     H11X     HAL2     0.900000E-01   1.00800           0
     33216 MEMB     248      POPC     H11Y     HAL2     0.900000E-01   1.00800           0
     33217 MEMB     248      POPC     C312     CTL2    -0.180000       12.0110           0
     33218 MEMB     248      POPC     H12X     HAL2     0.900000E-01   1.00800           0
     33219 MEMB     248      POPC     H12Y     HAL2     0.900000E-01   1.00800           0
     33220 MEMB     248      POPC     C313     CTL2    -0.180000       12.0110           0
     33221 MEMB     248      POPC     H13X     HAL2     0.900000E-01   1.00800           0
     33222 MEMB     248      POPC     H13Y     HAL2     0.900000E-01   1.00800           0
     33223 MEMB     248      POPC     C314     CTL2    -0.180000       12.0110           0
     33224 MEMB     248      POPC     H14X     HAL2     0.900000E-01   1.00800           0
     33225 MEMB     248      POPC     H14Y     HAL2     0.900000E-01   1.00800           0
     33226 MEMB     248      POPC     C315     CTL2    -0.180000       12.0110           0
     33227 MEMB     248      POPC     H15X     HAL2     0.900000E-01   1.00800           0
     33228 MEMB     248      POPC     H15Y     HAL2     0.900000E-01   1.00800           0
     33229 MEMB     248      POPC     C316     CTL3    -0.270000       12.0110           0
     33230 MEMB     248      POPC     H16X     HAL3     0.900000E-01   1.00800           0
     33231 MEMB     248      POPC     H16Y     HAL3     0.900000E-01   1.00800           0
     33232 MEMB     248      POPC     H16Z     HAL3     0.900000E-01   1.00800           0
     33233 MEMB     249      POPC     N        NTL     -0.600000       14.0070           0
     33234 MEMB     249      POPC     C12      CTL2    -0.100000       12.0110           0
     33235 MEMB     249      POPC     H12A     HL       0.250000       1.00800           0
     33236 MEMB     249      POPC     H12B     HL       0.250000       1.00800           0
     33237 MEMB     249      POPC     C13      CTL5    -0.350000       12.0110           0
     33238 MEMB     249      POPC     H13A     HL       0.250000       1.00800           0
     33239 MEMB     249      POPC     H13B     HL       0.250000       1.00800           0
     33240 MEMB     249      POPC     H13C     HL       0.250000       1.00800           0
     33241 MEMB     249      POPC     C14      CTL5    -0.350000       12.0110           0
     33242 MEMB     249      POPC     H14A     HL       0.250000       1.00800           0
     33243 MEMB     249      POPC     H14B     HL       0.250000       1.00800           0
     33244 MEMB     249      POPC     H14C     HL       0.250000       1.00800           0
     33245 MEMB     249      POPC     C15      CTL5    -0.350000       12.0110           0
     33246 MEMB     249      POPC     H15A     HL       0.250000       1.00800           0
     33247 MEMB     249      POPC     H15B     HL       0.250000       1.00800           0
     33248 MEMB     249      POPC     H15C     HL       0.250000       1.00800           0
     33249 MEMB     249      POPC     C11      CTL2    -0.800000E-01   12.0110           0
     33250 MEMB     249      POPC     H11A     HAL2     0.900000E-01   1.00800           0
     33251 MEMB     249      POPC     H11B     HAL2     0.900000E-01   1.00800           0
     33252 MEMB     249      POPC     P        PL       1.50000        30.9740           0
     33253 MEMB     249      POPC     O13      O2L     -0.780000       15.9994           0
     33254 MEMB     249      POPC     O14      O2L     -0.780000       15.9994           0
     33255 MEMB     249      POPC     O12      OSLP    -0.570000       15.9994           0
     33256 MEMB     249      POPC     O11      OSLP    -0.570000       15.9994           0
     33257 MEMB     249      POPC     C1       CTL2    -0.800000E-01   12.0110           0
     33258 MEMB     249      POPC     HA       HAL2     0.900000E-01   1.00800           0
     33259 MEMB     249      POPC     HB       HAL2     0.900000E-01   1.00800           0
     33260 MEMB     249      POPC     C2       CTL1     0.170000       12.0110           0
     33261 MEMB     249      POPC     HS       HAL1     0.900000E-01   1.00800           0
     33262 MEMB     249      POPC     O21      OSL     -0.490000       15.9994           0
     33263 MEMB     249      POPC     C21      CL       0.900000       12.0110           0
     33264 MEMB     249      POPC     O22      OBL     -0.630000       15.9994           0
     33265 MEMB     249      POPC     C22      CTL2    -0.220000       12.0110           0
     33266 MEMB     249      POPC     H2R      HAL2     0.900000E-01   1.00800           0
     33267 MEMB     249      POPC     H2S      HAL2     0.900000E-01   1.00800           0
     33268 MEMB     249      POPC     C3       CTL2     0.800000E-01   12.0110           0
     33269 MEMB     249      POPC     HX       HAL2     0.900000E-01   1.00800           0
     33270 MEMB     249      POPC     HY       HAL2     0.900000E-01   1.00800           0
     33271 MEMB     249      POPC     O31      OSL     -0.490000       15.9994           0
     33272 MEMB     249      POPC     C31      CL       0.900000       12.0110           0
     33273 MEMB     249      POPC     O32      OBL     -0.630000       15.9994           0
     33274 MEMB     249      POPC     C32      CTL2    -0.220000       12.0110           0
     33275 MEMB     249      POPC     H2X      HAL2     0.900000E-01   1.00800           0
     33276 MEMB     249      POPC     H2Y      HAL2     0.900000E-01   1.00800           0
     33277 MEMB     249      POPC     C23      CTL2    -0.180000       12.0110           0
     33278 MEMB     249      POPC     H3R      HAL2     0.900000E-01   1.00800           0
     33279 MEMB     249      POPC     H3S      HAL2     0.900000E-01   1.00800           0
     33280 MEMB     249      POPC     C24      CTL2    -0.180000       12.0110           0
     33281 MEMB     249      POPC     H4R      HAL2     0.900000E-01   1.00800           0
     33282 MEMB     249      POPC     H4S      HAL2     0.900000E-01   1.00800           0
     33283 MEMB     249      POPC     C25      CTL2    -0.180000       12.0110           0
     33284 MEMB     249      POPC     H5R      HAL2     0.900000E-01   1.00800           0
     33285 MEMB     249      POPC     H5S      HAL2     0.900000E-01   1.00800           0
     33286 MEMB     249      POPC     C26      CTL2    -0.180000       12.0110           0
     33287 MEMB     249      POPC     H6R      HAL2     0.900000E-01   1.00800           0
     33288 MEMB     249      POPC     H6S      HAL2     0.900000E-01   1.00800           0
     33289 MEMB     249      POPC     C27      CTL2    -0.180000       12.0110           0
     33290 MEMB     249      POPC     H7R      HAL2     0.900000E-01   1.00800           0
     33291 MEMB     249      POPC     H7S      HAL2     0.900000E-01   1.00800           0
     33292 MEMB     249      POPC     C28      CTL2    -0.180000       12.0110           0
     33293 MEMB     249      POPC     H8R      HAL2     0.900000E-01   1.00800           0
     33294 MEMB     249      POPC     H8S      HAL2     0.900000E-01   1.00800           0
     33295 MEMB     249      POPC     C29      CEL1    -0.150000       12.0110           0
     33296 MEMB     249      POPC     H91      HEL1     0.150000       1.00800           0
     33297 MEMB     249      POPC     C210     CEL1    -0.150000       12.0110           0
     33298 MEMB     249      POPC     H101     HEL1     0.150000       1.00800           0
     33299 MEMB     249      POPC     C211     CTL2    -0.180000       12.0110           0
     33300 MEMB     249      POPC     H11R     HAL2     0.900000E-01   1.00800           0
     33301 MEMB     249      POPC     H11S     HAL2     0.900000E-01   1.00800           0
     33302 MEMB     249      POPC     C212     CTL2    -0.180000       12.0110           0
     33303 MEMB     249      POPC     H12R     HAL2     0.900000E-01   1.00800           0
     33304 MEMB     249      POPC     H12S     HAL2     0.900000E-01   1.00800           0
     33305 MEMB     249      POPC     C213     CTL2    -0.180000       12.0110           0
     33306 MEMB     249      POPC     H13R     HAL2     0.900000E-01   1.00800           0
     33307 MEMB     249      POPC     H13S     HAL2     0.900000E-01   1.00800           0
     33308 MEMB     249      POPC     C214     CTL2    -0.180000       12.0110           0
     33309 MEMB     249      POPC     H14R     HAL2     0.900000E-01   1.00800           0
     33310 MEMB     249      POPC     H14S     HAL2     0.900000E-01   1.00800           0
     33311 MEMB     249      POPC     C215     CTL2    -0.180000       12.0110           0
     33312 MEMB     249      POPC     H15R     HAL2     0.900000E-01   1.00800           0
     33313 MEMB     249      POPC     H15S     HAL2     0.900000E-01   1.00800           0
     33314 MEMB     249      POPC     C216     CTL2    -0.180000       12.0110           0
     33315 MEMB     249      POPC     H16R     HAL2     0.900000E-01   1.00800           0
     33316 MEMB     249      POPC     H16S     HAL2     0.900000E-01   1.00800           0
     33317 MEMB     249      POPC     C217     CTL2    -0.180000       12.0110           0
     33318 MEMB     249      POPC     H17R     HAL2     0.900000E-01   1.00800           0
     33319 MEMB     249      POPC     H17S     HAL2     0.900000E-01   1.00800           0
     33320 MEMB     249      POPC     C218     CTL3    -0.270000       12.0110           0
     33321 MEMB     249      POPC     H18R     HAL3     0.900000E-01   1.00800           0
     33322 MEMB     249      POPC     H18S     HAL3     0.900000E-01   1.00800           0
     33323 MEMB     249      POPC     H18T     HAL3     0.900000E-01   1.00800           0
     33324 MEMB     249      POPC     C33      CTL2    -0.180000       12.0110           0
     33325 MEMB     249      POPC     H3X      HAL2     0.900000E-01   1.00800           0
     33326 MEMB     249      POPC     H3Y      HAL2     0.900000E-01   1.00800           0
     33327 MEMB     249      POPC     C34      CTL2    -0.180000       12.0110           0
     33328 MEMB     249      POPC     H4X      HAL2     0.900000E-01   1.00800           0
     33329 MEMB     249      POPC     H4Y      HAL2     0.900000E-01   1.00800           0
     33330 MEMB     249      POPC     C35      CTL2    -0.180000       12.0110           0
     33331 MEMB     249      POPC     H5X      HAL2     0.900000E-01   1.00800           0
     33332 MEMB     249      POPC     H5Y      HAL2     0.900000E-01   1.00800           0
     33333 MEMB     249      POPC     C36      CTL2    -0.180000       12.0110           0
     33334 MEMB     249      POPC     H6X      HAL2     0.900000E-01   1.00800           0
     33335 MEMB     249      POPC     H6Y      HAL2     0.900000E-01   1.00800           0
     33336 MEMB     249      POPC     C37      CTL2    -0.180000       12.0110           0
     33337 MEMB     249      POPC     H7X      HAL2     0.900000E-01   1.00800           0
     33338 MEMB     249      POPC     H7Y      HAL2     0.900000E-01   1.00800           0
     33339 MEMB     249      POPC     C38      CTL2    -0.180000       12.0110           0
     33340 MEMB     249      POPC     H8X      HAL2     0.900000E-01   1.00800           0
     33341 MEMB     249      POPC     H8Y      HAL2     0.900000E-01   1.00800           0
     33342 MEMB     249      POPC     C39      CTL2    -0.180000       12.0110           0
     33343 MEMB     249      POPC     H9X      HAL2     0.900000E-01   1.00800           0
     33344 MEMB     249      POPC     H9Y      HAL2     0.900000E-01   1.00800           0
     33345 MEMB     249      POPC     C310     CTL2    -0.180000       12.0110           0
     33346 MEMB     249      POPC     H10X     HAL2     0.900000E-01   1.00800           0
     33347 MEMB     249      POPC     H10Y     HAL2     0.900000E-01   1.00800           0
     33348 MEMB     249      POPC     C311     CTL2    -0.180000       12.0110           0
     33349 MEMB     249      POPC     H11X     HAL2     0.900000E-01   1.00800           0
     33350 MEMB     249      POPC     H11Y     HAL2     0.900000E-01   1.00800           0
     33351 MEMB     249      POPC     C312     CTL2    -0.180000       12.0110           0
     33352 MEMB     249      POPC     H12X     HAL2     0.900000E-01   1.00800           0
     33353 MEMB     249      POPC     H12Y     HAL2     0.900000E-01   1.00800           0
     33354 MEMB     249      POPC     C313     CTL2    -0.180000       12.0110           0
     33355 MEMB     249      POPC     H13X     HAL2     0.900000E-01   1.00800           0
     33356 MEMB     249      POPC     H13Y     HAL2     0.900000E-01   1.00800           0
     33357 MEMB     249      POPC     C314     CTL2    -0.180000       12.0110           0
     33358 MEMB     249      POPC     H14X     HAL2     0.900000E-01   1.00800           0
     33359 MEMB     249      POPC     H14Y     HAL2     0.900000E-01   1.00800           0
     33360 MEMB     249      POPC     C315     CTL2    -0.180000       12.0110           0
     33361 MEMB     249      POPC     H15X     HAL2     0.900000E-01   1.00800           0
     33362 MEMB     249      POPC     H15Y     HAL2     0.900000E-01   1.00800           0
     33363 MEMB     249      POPC     C316     CTL3    -0.270000       12.0110           0
     33364 MEMB     249      POPC     H16X     HAL3     0.900000E-01   1.00800           0
     33365 MEMB     249      POPC     H16Y     HAL3     0.900000E-01   1.00800           0
     33366 MEMB     249      POPC     H16Z     HAL3     0.900000E-01   1.00800           0
     33367 MEMB     250      POPC     N        NTL     -0.600000       14.0070           0
     33368 MEMB     250      POPC     C12      CTL2    -0.100000       12.0110           0
     33369 MEMB     250      POPC     H12A     HL       0.250000       1.00800           0
     33370 MEMB     250      POPC     H12B     HL       0.250000       1.00800           0
     33371 MEMB     250      POPC     C13      CTL5    -0.350000       12.0110           0
     33372 MEMB     250      POPC     H13A     HL       0.250000       1.00800           0
     33373 MEMB     250      POPC     H13B     HL       0.250000       1.00800           0
     33374 MEMB     250      POPC     H13C     HL       0.250000       1.00800           0
     33375 MEMB     250      POPC     C14      CTL5    -0.350000       12.0110           0
     33376 MEMB     250      POPC     H14A     HL       0.250000       1.00800           0
     33377 MEMB     250      POPC     H14B     HL       0.250000       1.00800           0
     33378 MEMB     250      POPC     H14C     HL       0.250000       1.00800           0
     33379 MEMB     250      POPC     C15      CTL5    -0.350000       12.0110           0
     33380 MEMB     250      POPC     H15A     HL       0.250000       1.00800           0
     33381 MEMB     250      POPC     H15B     HL       0.250000       1.00800           0
     33382 MEMB     250      POPC     H15C     HL       0.250000       1.00800           0
     33383 MEMB     250      POPC     C11      CTL2    -0.800000E-01   12.0110           0
     33384 MEMB     250      POPC     H11A     HAL2     0.900000E-01   1.00800           0
     33385 MEMB     250      POPC     H11B     HAL2     0.900000E-01   1.00800           0
     33386 MEMB     250      POPC     P        PL       1.50000        30.9740           0
     33387 MEMB     250      POPC     O13      O2L     -0.780000       15.9994           0
     33388 MEMB     250      POPC     O14      O2L     -0.780000       15.9994           0
     33389 MEMB     250      POPC     O12      OSLP    -0.570000       15.9994           0
     33390 MEMB     250      POPC     O11      OSLP    -0.570000       15.9994           0
     33391 MEMB     250      POPC     C1       CTL2    -0.800000E-01   12.0110           0
     33392 MEMB     250      POPC     HA       HAL2     0.900000E-01   1.00800           0
     33393 MEMB     250      POPC     HB       HAL2     0.900000E-01   1.00800           0
     33394 MEMB     250      POPC     C2       CTL1     0.170000       12.0110           0
     33395 MEMB     250      POPC     HS       HAL1     0.900000E-01   1.00800           0
     33396 MEMB     250      POPC     O21      OSL     -0.490000       15.9994           0
     33397 MEMB     250      POPC     C21      CL       0.900000       12.0110           0
     33398 MEMB     250      POPC     O22      OBL     -0.630000       15.9994           0
     33399 MEMB     250      POPC     C22      CTL2    -0.220000       12.0110           0
     33400 MEMB     250      POPC     H2R      HAL2     0.900000E-01   1.00800           0
     33401 MEMB     250      POPC     H2S      HAL2     0.900000E-01   1.00800           0
     33402 MEMB     250      POPC     C3       CTL2     0.800000E-01   12.0110           0
     33403 MEMB     250      POPC     HX       HAL2     0.900000E-01   1.00800           0
     33404 MEMB     250      POPC     HY       HAL2     0.900000E-01   1.00800           0
     33405 MEMB     250      POPC     O31      OSL     -0.490000       15.9994           0
     33406 MEMB     250      POPC     C31      CL       0.900000       12.0110           0
     33407 MEMB     250      POPC     O32      OBL     -0.630000       15.9994           0
     33408 MEMB     250      POPC     C32      CTL2    -0.220000       12.0110           0
     33409 MEMB     250      POPC     H2X      HAL2     0.900000E-01   1.00800           0
     33410 MEMB     250      POPC     H2Y      HAL2     0.900000E-01   1.00800           0
     33411 MEMB     250      POPC     C23      CTL2    -0.180000       12.0110           0
     33412 MEMB     250      POPC     H3R      HAL2     0.900000E-01   1.00800           0
     33413 MEMB     250      POPC     H3S      HAL2     0.900000E-01   1.00800           0
     33414 MEMB     250      POPC     C24      CTL2    -0.180000       12.0110           0
     33415 MEMB     250      POPC     H4R      HAL2     0.900000E-01   1.00800           0
     33416 MEMB     250      POPC     H4S      HAL2     0.900000E-01   1.00800           0
     33417 MEMB     250      POPC     C25      CTL2    -0.180000       12.0110           0
     33418 MEMB     250      POPC     H5R      HAL2     0.900000E-01   1.00800           0
     33419 MEMB     250      POPC     H5S      HAL2     0.900000E-01   1.00800           0
     33420 MEMB     250      POPC     C26      CTL2    -0.180000       12.0110           0
     33421 MEMB     250      POPC     H6R      HAL2     0.900000E-01   1.00800           0
     33422 MEMB     250      POPC     H6S      HAL2     0.900000E-01   1.00800           0
     33423 MEMB     250      POPC     C27      CTL2    -0.180000       12.0110           0
     33424 MEMB     250      POPC     H7R      HAL2     0.900000E-01   1.00800           0
     33425 MEMB     250      POPC     H7S      HAL2     0.900000E-01   1.00800           0
     33426 MEMB     250      POPC     C28      CTL2    -0.180000       12.0110           0
     33427 MEMB     250      POPC     H8R      HAL2     0.900000E-01   1.00800           0
     33428 MEMB     250      POPC     H8S      HAL2     0.900000E-01   1.00800           0
     33429 MEMB     250      POPC     C29      CEL1    -0.150000       12.0110           0
     33430 MEMB     250      POPC     H91      HEL1     0.150000       1.00800           0
     33431 MEMB     250      POPC     C210     CEL1    -0.150000       12.0110           0
     33432 MEMB     250      POPC     H101     HEL1     0.150000       1.00800           0
     33433 MEMB     250      POPC     C211     CTL2    -0.180000       12.0110           0
     33434 MEMB     250      POPC     H11R     HAL2     0.900000E-01   1.00800           0
     33435 MEMB     250      POPC     H11S     HAL2     0.900000E-01   1.00800           0
     33436 MEMB     250      POPC     C212     CTL2    -0.180000       12.0110           0
     33437 MEMB     250      POPC     H12R     HAL2     0.900000E-01   1.00800           0
     33438 MEMB     250      POPC     H12S     HAL2     0.900000E-01   1.00800           0
     33439 MEMB     250      POPC     C213     CTL2    -0.180000       12.0110           0
     33440 MEMB     250      POPC     H13R     HAL2     0.900000E-01   1.00800           0
     33441 MEMB     250      POPC     H13S     HAL2     0.900000E-01   1.00800           0
     33442 MEMB     250      POPC     C214     CTL2    -0.180000       12.0110           0
     33443 MEMB     250      POPC     H14R     HAL2     0.900000E-01   1.00800           0
     33444 MEMB     250      POPC     H14S     HAL2     0.900000E-01   1.00800           0
     33445 MEMB     250      POPC     C215     CTL2    -0.180000       12.0110           0
     33446 MEMB     250      POPC     H15R     HAL2     0.900000E-01   1.00800           0
     33447 MEMB     250      POPC     H15S     HAL2     0.900000E-01   1.00800           0
     33448 MEMB     250      POPC     C216     CTL2    -0.180000       12.0110           0
     33449 MEMB     250      POPC     H16R     HAL2     0.900000E-01   1.00800           0
     33450 MEMB     250      POPC     H16S     HAL2     0.900000E-01   1.00800           0
     33451 MEMB     250      POPC     C217     CTL2    -0.180000       12.0110           0
     33452 MEMB     250      POPC     H17R     HAL2     0.900000E-01   1.00800           0
     33453 MEMB     250      POPC     H17S     HAL2     0.900000E-01   1.00800           0
     33454 MEMB     250      POPC     C218     CTL3    -0.270000       12.0110           0
     33455 MEMB     250      POPC     H18R     HAL3     0.900000E-01   1.00800           0
     33456 MEMB     250      POPC     H18S     HAL3     0.900000E-01   1.00800           0
     33457 MEMB     250      POPC     H18T     HAL3     0.900000E-01   1.00800           0
     33458 MEMB     250      POPC     C33      CTL2    -0.180000       12.0110           0
     33459 MEMB     250      POPC     H3X      HAL2     0.900000E-01   1.00800           0
     33460 MEMB     250      POPC     H3Y      HAL2     0.900000E-01   1.00800           0
     33461 MEMB     250      POPC     C34      CTL2    -0.180000       12.0110           0
     33462 MEMB     250      POPC     H4X      HAL2     0.900000E-01   1.00800           0
     33463 MEMB     250      POPC     H4Y      HAL2     0.900000E-01   1.00800           0
     33464 MEMB     250      POPC     C35      CTL2    -0.180000       12.0110           0
     33465 MEMB     250      POPC     H5X      HAL2     0.900000E-01   1.00800           0
     33466 MEMB     250      POPC     H5Y      HAL2     0.900000E-01   1.00800           0
     33467 MEMB     250      POPC     C36      CTL2    -0.180000       12.0110           0
     33468 MEMB     250      POPC     H6X      HAL2     0.900000E-01   1.00800           0
     33469 MEMB     250      POPC     H6Y      HAL2     0.900000E-01   1.00800           0
     33470 MEMB     250      POPC     C37      CTL2    -0.180000       12.0110           0
     33471 MEMB     250      POPC     H7X      HAL2     0.900000E-01   1.00800           0
     33472 MEMB     250      POPC     H7Y      HAL2     0.900000E-01   1.00800           0
     33473 MEMB     250      POPC     C38      CTL2    -0.180000       12.0110           0
     33474 MEMB     250      POPC     H8X      HAL2     0.900000E-01   1.00800           0
     33475 MEMB     250      POPC     H8Y      HAL2     0.900000E-01   1.00800           0
     33476 MEMB     250      POPC     C39      CTL2    -0.180000       12.0110           0
     33477 MEMB     250      POPC     H9X      HAL2     0.900000E-01   1.00800           0
     33478 MEMB     250      POPC     H9Y      HAL2     0.900000E-01   1.00800           0
     33479 MEMB     250      POPC     C310     CTL2    -0.180000       12.0110           0
     33480 MEMB     250      POPC     H10X     HAL2     0.900000E-01   1.00800           0
     33481 MEMB     250      POPC     H10Y     HAL2     0.900000E-01   1.00800           0
     33482 MEMB     250      POPC     C311     CTL2    -0.180000       12.0110           0
     33483 MEMB     250      POPC     H11X     HAL2     0.900000E-01   1.00800           0
     33484 MEMB     250      POPC     H11Y     HAL2     0.900000E-01   1.00800           0
     33485 MEMB     250      POPC     C312     CTL2    -0.180000       12.0110           0
     33486 MEMB     250      POPC     H12X     HAL2     0.900000E-01   1.00800           0
     33487 MEMB     250      POPC     H12Y     HAL2     0.900000E-01   1.00800           0
     33488 MEMB     250      POPC     C313     CTL2    -0.180000       12.0110           0
     33489 MEMB     250      POPC     H13X     HAL2     0.900000E-01   1.00800           0
     33490 MEMB     250      POPC     H13Y     HAL2     0.900000E-01   1.00800           0
     33491 MEMB     250      POPC     C314     CTL2    -0.180000       12.0110           0
     33492 MEMB     250      POPC     H14X     HAL2     0.900000E-01   1.00800           0
     33493 MEMB     250      POPC     H14Y     HAL2     0.900000E-01   1.00800           0
     33494 MEMB     250      POPC     C315     CTL2    -0.180000       12.0110           0
     33495 MEMB     250      POPC     H15X     HAL2     0.900000E-01   1.00800           0
     33496 MEMB     250      POPC     H15Y     HAL2     0.900000E-01   1.00800           0
     33497 MEMB     250      POPC     C316     CTL3    -0.270000       12.0110           0
     33498 MEMB     250      POPC     H16X     HAL3     0.900000E-01   1.00800           0
     33499 MEMB     250      POPC     H16Y     HAL3     0.900000E-01   1.00800           0
     33500 MEMB     250      POPC     H16Z     HAL3     0.900000E-01   1.00800           0
     33501 MEMB     251      POPC     N        NTL     -0.600000       14.0070           0
     33502 MEMB     251      POPC     C12      CTL2    -0.100000       12.0110           0
     33503 MEMB     251      POPC     H12A     HL       0.250000       1.00800           0
     33504 MEMB     251      POPC     H12B     HL       0.250000       1.00800           0
     33505 MEMB     251      POPC     C13      CTL5    -0.350000       12.0110           0
     33506 MEMB     251      POPC     H13A     HL       0.250000       1.00800           0
     33507 MEMB     251      POPC     H13B     HL       0.250000       1.00800           0
     33508 MEMB     251      POPC     H13C     HL       0.250000       1.00800           0
     33509 MEMB     251      POPC     C14      CTL5    -0.350000       12.0110           0
     33510 MEMB     251      POPC     H14A     HL       0.250000       1.00800           0
     33511 MEMB     251      POPC     H14B     HL       0.250000       1.00800           0
     33512 MEMB     251      POPC     H14C     HL       0.250000       1.00800           0
     33513 MEMB     251      POPC     C15      CTL5    -0.350000       12.0110           0
     33514 MEMB     251      POPC     H15A     HL       0.250000       1.00800           0
     33515 MEMB     251      POPC     H15B     HL       0.250000       1.00800           0
     33516 MEMB     251      POPC     H15C     HL       0.250000       1.00800           0
     33517 MEMB     251      POPC     C11      CTL2    -0.800000E-01   12.0110           0
     33518 MEMB     251      POPC     H11A     HAL2     0.900000E-01   1.00800           0
     33519 MEMB     251      POPC     H11B     HAL2     0.900000E-01   1.00800           0
     33520 MEMB     251      POPC     P        PL       1.50000        30.9740           0
     33521 MEMB     251      POPC     O13      O2L     -0.780000       15.9994           0
     33522 MEMB     251      POPC     O14      O2L     -0.780000       15.9994           0
     33523 MEMB     251      POPC     O12      OSLP    -0.570000       15.9994           0
     33524 MEMB     251      POPC     O11      OSLP    -0.570000       15.9994           0
     33525 MEMB     251      POPC     C1       CTL2    -0.800000E-01   12.0110           0
     33526 MEMB     251      POPC     HA       HAL2     0.900000E-01   1.00800           0
     33527 MEMB     251      POPC     HB       HAL2     0.900000E-01   1.00800           0
     33528 MEMB     251      POPC     C2       CTL1     0.170000       12.0110           0
     33529 MEMB     251      POPC     HS       HAL1     0.900000E-01   1.00800           0
     33530 MEMB     251      POPC     O21      OSL     -0.490000       15.9994           0
     33531 MEMB     251      POPC     C21      CL       0.900000       12.0110           0
     33532 MEMB     251      POPC     O22      OBL     -0.630000       15.9994           0
     33533 MEMB     251      POPC     C22      CTL2    -0.220000       12.0110           0
     33534 MEMB     251      POPC     H2R      HAL2     0.900000E-01   1.00800           0
     33535 MEMB     251      POPC     H2S      HAL2     0.900000E-01   1.00800           0
     33536 MEMB     251      POPC     C3       CTL2     0.800000E-01   12.0110           0
     33537 MEMB     251      POPC     HX       HAL2     0.900000E-01   1.00800           0
     33538 MEMB     251      POPC     HY       HAL2     0.900000E-01   1.00800           0
     33539 MEMB     251      POPC     O31      OSL     -0.490000       15.9994           0
     33540 MEMB     251      POPC     C31      CL       0.900000       12.0110           0
     33541 MEMB     251      POPC     O32      OBL     -0.630000       15.9994           0
     33542 MEMB     251      POPC     C32      CTL2    -0.220000       12.0110           0
     33543 MEMB     251      POPC     H2X      HAL2     0.900000E-01   1.00800           0
     33544 MEMB     251      POPC     H2Y      HAL2     0.900000E-01   1.00800           0
     33545 MEMB     251      POPC     C23      CTL2    -0.180000       12.0110           0
     33546 MEMB     251      POPC     H3R      HAL2     0.900000E-01   1.00800           0
     33547 MEMB     251      POPC     H3S      HAL2     0.900000E-01   1.00800           0
     33548 MEMB     251      POPC     C24      CTL2    -0.180000       12.0110           0
     33549 MEMB     251      POPC     H4R      HAL2     0.900000E-01   1.00800           0
     33550 MEMB     251      POPC     H4S      HAL2     0.900000E-01   1.00800           0
     33551 MEMB     251      POPC     C25      CTL2    -0.180000       12.0110           0
     33552 MEMB     251      POPC     H5R      HAL2     0.900000E-01   1.00800           0
     33553 MEMB     251      POPC     H5S      HAL2     0.900000E-01   1.00800           0
     33554 MEMB     251      POPC     C26      CTL2    -0.180000       12.0110           0
     33555 MEMB     251      POPC     H6R      HAL2     0.900000E-01   1.00800           0
     33556 MEMB     251      POPC     H6S      HAL2     0.900000E-01   1.00800           0
     33557 MEMB     251      POPC     C27      CTL2    -0.180000       12.0110           0
     33558 MEMB     251      POPC     H7R      HAL2     0.900000E-01   1.00800           0
     33559 MEMB     251      POPC     H7S      HAL2     0.900000E-01   1.00800           0
     33560 MEMB     251      POPC     C28      CTL2    -0.180000       12.0110           0
     33561 MEMB     251      POPC     H8R      HAL2     0.900000E-01   1.00800           0
     33562 MEMB     251      POPC     H8S      HAL2     0.900000E-01   1.00800           0
     33563 MEMB     251      POPC     C29      CEL1    -0.150000       12.0110           0
     33564 MEMB     251      POPC     H91      HEL1     0.150000       1.00800           0
     33565 MEMB     251      POPC     C210     CEL1    -0.150000       12.0110           0
     33566 MEMB     251      POPC     H101     HEL1     0.150000       1.00800           0
     33567 MEMB     251      POPC     C211     CTL2    -0.180000       12.0110           0
     33568 MEMB     251      POPC     H11R     HAL2     0.900000E-01   1.00800           0
     33569 MEMB     251      POPC     H11S     HAL2     0.900000E-01   1.00800           0
     33570 MEMB     251      POPC     C212     CTL2    -0.180000       12.0110           0
     33571 MEMB     251      POPC     H12R     HAL2     0.900000E-01   1.00800           0
     33572 MEMB     251      POPC     H12S     HAL2     0.900000E-01   1.00800           0
     33573 MEMB     251      POPC     C213     CTL2    -0.180000       12.0110           0
     33574 MEMB     251      POPC     H13R     HAL2     0.900000E-01   1.00800           0
     33575 MEMB     251      POPC     H13S     HAL2     0.900000E-01   1.00800           0
     33576 MEMB     251      POPC     C214     CTL2    -0.180000       12.0110           0
     33577 MEMB     251      POPC     H14R     HAL2     0.900000E-01   1.00800           0
     33578 MEMB     251      POPC     H14S     HAL2     0.900000E-01   1.00800           0
     33579 MEMB     251      POPC     C215     CTL2    -0.180000       12.0110           0
     33580 MEMB     251      POPC     H15R     HAL2     0.900000E-01   1.00800           0
     33581 MEMB     251      POPC     H15S     HAL2     0.900000E-01   1.00800           0
     33582 MEMB     251      POPC     C216     CTL2    -0.180000       12.0110           0
     33583 MEMB     251      POPC     H16R     HAL2     0.900000E-01   1.00800           0
     33584 MEMB     251      POPC     H16S     HAL2     0.900000E-01   1.00800           0
     33585 MEMB     251      POPC     C217     CTL2    -0.180000       12.0110           0
     33586 MEMB     251      POPC     H17R     HAL2     0.900000E-01   1.00800           0
     33587 MEMB     251      POPC     H17S     HAL2     0.900000E-01   1.00800           0
     33588 MEMB     251      POPC     C218     CTL3    -0.270000       12.0110           0
     33589 MEMB     251      POPC     H18R     HAL3     0.900000E-01   1.00800           0
     33590 MEMB     251      POPC     H18S     HAL3     0.900000E-01   1.00800           0
     33591 MEMB     251      POPC     H18T     HAL3     0.900000E-01   1.00800           0
     33592 MEMB     251      POPC     C33      CTL2    -0.180000       12.0110           0
     33593 MEMB     251      POPC     H3X      HAL2     0.900000E-01   1.00800           0
     33594 MEMB     251      POPC     H3Y      HAL2     0.900000E-01   1.00800           0
     33595 MEMB     251      POPC     C34      CTL2    -0.180000       12.0110           0
     33596 MEMB     251      POPC     H4X      HAL2     0.900000E-01   1.00800           0
     33597 MEMB     251      POPC     H4Y      HAL2     0.900000E-01   1.00800           0
     33598 MEMB     251      POPC     C35      CTL2    -0.180000       12.0110           0
     33599 MEMB     251      POPC     H5X      HAL2     0.900000E-01   1.00800           0
     33600 MEMB     251      POPC     H5Y      HAL2     0.900000E-01   1.00800           0
     33601 MEMB     251      POPC     C36      CTL2    -0.180000       12.0110           0
     33602 MEMB     251      POPC     H6X      HAL2     0.900000E-01   1.00800           0
     33603 MEMB     251      POPC     H6Y      HAL2     0.900000E-01   1.00800           0
     33604 MEMB     251      POPC     C37      CTL2    -0.180000       12.0110           0
     33605 MEMB     251      POPC     H7X      HAL2     0.900000E-01   1.00800           0
     33606 MEMB     251      POPC     H7Y      HAL2     0.900000E-01   1.00800           0
     33607 MEMB     251      POPC     C38      CTL2    -0.180000       12.0110           0
     33608 MEMB     251      POPC     H8X      HAL2     0.900000E-01   1.00800           0
     33609 MEMB     251      POPC     H8Y      HAL2     0.900000E-01   1.00800           0
     33610 MEMB     251      POPC     C39      CTL2    -0.180000       12.0110           0
     33611 MEMB     251      POPC     H9X      HAL2     0.900000E-01   1.00800           0
     33612 MEMB     251      POPC     H9Y      HAL2     0.900000E-01   1.00800           0
     33613 MEMB     251      POPC     C310     CTL2    -0.180000       12.0110           0
     33614 MEMB     251      POPC     H10X     HAL2     0.900000E-01   1.00800           0
     33615 MEMB     251      POPC     H10Y     HAL2     0.900000E-01   1.00800           0
     33616 MEMB     251      POPC     C311     CTL2    -0.180000       12.0110           0
     33617 MEMB     251      POPC     H11X     HAL2     0.900000E-01   1.00800           0
     33618 MEMB     251      POPC     H11Y     HAL2     0.900000E-01   1.00800           0
     33619 MEMB     251      POPC     C312     CTL2    -0.180000       12.0110           0
     33620 MEMB     251      POPC     H12X     HAL2     0.900000E-01   1.00800           0
     33621 MEMB     251      POPC     H12Y     HAL2     0.900000E-01   1.00800           0
     33622 MEMB     251      POPC     C313     CTL2    -0.180000       12.0110           0
     33623 MEMB     251      POPC     H13X     HAL2     0.900000E-01   1.00800           0
     33624 MEMB     251      POPC     H13Y     HAL2     0.900000E-01   1.00800           0
     33625 MEMB     251      POPC     C314     CTL2    -0.180000       12.0110           0
     33626 MEMB     251      POPC     H14X     HAL2     0.900000E-01   1.00800           0
     33627 MEMB     251      POPC     H14Y     HAL2     0.900000E-01   1.00800           0
     33628 MEMB     251      POPC     C315     CTL2    -0.180000       12.0110           0
     33629 MEMB     251      POPC     H15X     HAL2     0.900000E-01   1.00800           0
     33630 MEMB     251      POPC     H15Y     HAL2     0.900000E-01   1.00800           0
     33631 MEMB     251      POPC     C316     CTL3    -0.270000       12.0110           0
     33632 MEMB     251      POPC     H16X     HAL3     0.900000E-01   1.00800           0
     33633 MEMB     251      POPC     H16Y     HAL3     0.900000E-01   1.00800           0
     33634 MEMB     251      POPC     H16Z     HAL3     0.900000E-01   1.00800           0
     33635 MEMB     252      POPC     N        NTL     -0.600000       14.0070           0
     33636 MEMB     252      POPC     C12      CTL2    -0.100000       12.0110           0
     33637 MEMB     252      POPC     H12A     HL       0.250000       1.00800           0
     33638 MEMB     252      POPC     H12B     HL       0.250000       1.00800           0
     33639 MEMB     252      POPC     C13      CTL5    -0.350000       12.0110           0
     33640 MEMB     252      POPC     H13A     HL       0.250000       1.00800           0
     33641 MEMB     252      POPC     H13B     HL       0.250000       1.00800           0
     33642 MEMB     252      POPC     H13C     HL       0.250000       1.00800           0
     33643 MEMB     252      POPC     C14      CTL5    -0.350000       12.0110           0
     33644 MEMB     252      POPC     H14A     HL       0.250000       1.00800           0
     33645 MEMB     252      POPC     H14B     HL       0.250000       1.00800           0
     33646 MEMB     252      POPC     H14C     HL       0.250000       1.00800           0
     33647 MEMB     252      POPC     C15      CTL5    -0.350000       12.0110           0
     33648 MEMB     252      POPC     H15A     HL       0.250000       1.00800           0
     33649 MEMB     252      POPC     H15B     HL       0.250000       1.00800           0
     33650 MEMB     252      POPC     H15C     HL       0.250000       1.00800           0
     33651 MEMB     252      POPC     C11      CTL2    -0.800000E-01   12.0110           0
     33652 MEMB     252      POPC     H11A     HAL2     0.900000E-01   1.00800           0
     33653 MEMB     252      POPC     H11B     HAL2     0.900000E-01   1.00800           0
     33654 MEMB     252      POPC     P        PL       1.50000        30.9740           0
     33655 MEMB     252      POPC     O13      O2L     -0.780000       15.9994           0
     33656 MEMB     252      POPC     O14      O2L     -0.780000       15.9994           0
     33657 MEMB     252      POPC     O12      OSLP    -0.570000       15.9994           0
     33658 MEMB     252      POPC     O11      OSLP    -0.570000       15.9994           0
     33659 MEMB     252      POPC     C1       CTL2    -0.800000E-01   12.0110           0
     33660 MEMB     252      POPC     HA       HAL2     0.900000E-01   1.00800           0
     33661 MEMB     252      POPC     HB       HAL2     0.900000E-01   1.00800           0
     33662 MEMB     252      POPC     C2       CTL1     0.170000       12.0110           0
     33663 MEMB     252      POPC     HS       HAL1     0.900000E-01   1.00800           0
     33664 MEMB     252      POPC     O21      OSL     -0.490000       15.9994           0
     33665 MEMB     252      POPC     C21      CL       0.900000       12.0110           0
     33666 MEMB     252      POPC     O22      OBL     -0.630000       15.9994           0
     33667 MEMB     252      POPC     C22      CTL2    -0.220000       12.0110           0
     33668 MEMB     252      POPC     H2R      HAL2     0.900000E-01   1.00800           0
     33669 MEMB     252      POPC     H2S      HAL2     0.900000E-01   1.00800           0
     33670 MEMB     252      POPC     C3       CTL2     0.800000E-01   12.0110           0
     33671 MEMB     252      POPC     HX       HAL2     0.900000E-01   1.00800           0
     33672 MEMB     252      POPC     HY       HAL2     0.900000E-01   1.00800           0
     33673 MEMB     252      POPC     O31      OSL     -0.490000       15.9994           0
     33674 MEMB     252      POPC     C31      CL       0.900000       12.0110           0
     33675 MEMB     252      POPC     O32      OBL     -0.630000       15.9994           0
     33676 MEMB     252      POPC     C32      CTL2    -0.220000       12.0110           0
     33677 MEMB     252      POPC     H2X      HAL2     0.900000E-01   1.00800           0
     33678 MEMB     252      POPC     H2Y      HAL2     0.900000E-01   1.00800           0
     33679 MEMB     252      POPC     C23      CTL2    -0.180000       12.0110           0
     33680 MEMB     252      POPC     H3R      HAL2     0.900000E-01   1.00800           0
     33681 MEMB     252      POPC     H3S      HAL2     0.900000E-01   1.00800           0
     33682 MEMB     252      POPC     C24      CTL2    -0.180000       12.0110           0
     33683 MEMB     252      POPC     H4R      HAL2     0.900000E-01   1.00800           0
     33684 MEMB     252      POPC     H4S      HAL2     0.900000E-01   1.00800           0
     33685 MEMB     252      POPC     C25      CTL2    -0.180000       12.0110           0
     33686 MEMB     252      POPC     H5R      HAL2     0.900000E-01   1.00800           0
     33687 MEMB     252      POPC     H5S      HAL2     0.900000E-01   1.00800           0
     33688 MEMB     252      POPC     C26      CTL2    -0.180000       12.0110           0
     33689 MEMB     252      POPC     H6R      HAL2     0.900000E-01   1.00800           0
     33690 MEMB     252      POPC     H6S      HAL2     0.900000E-01   1.00800           0
     33691 MEMB     252      POPC     C27      CTL2    -0.180000       12.0110           0
     33692 MEMB     252      POPC     H7R      HAL2     0.900000E-01   1.00800           0
     33693 MEMB     252      POPC     H7S      HAL2     0.900000E-01   1.00800           0
     33694 MEMB     252      POPC     C28      CTL2    -0.180000       12.0110           0
     33695 MEMB     252      POPC     H8R      HAL2     0.900000E-01   1.00800           0
     33696 MEMB     252      POPC     H8S      HAL2     0.900000E-01   1.00800           0
     33697 MEMB     252      POPC     C29      CEL1    -0.150000       12.0110           0
     33698 MEMB     252      POPC     H91      HEL1     0.150000       1.00800           0
     33699 MEMB     252      POPC     C210     CEL1    -0.150000       12.0110           0
     33700 MEMB     252      POPC     H101     HEL1     0.150000       1.00800           0
     33701 MEMB     252      POPC     C211     CTL2    -0.180000       12.0110           0
     33702 MEMB     252      POPC     H11R     HAL2     0.900000E-01   1.00800           0
     33703 MEMB     252      POPC     H11S     HAL2     0.900000E-01   1.00800           0
     33704 MEMB     252      POPC     C212     CTL2    -0.180000       12.0110           0
     33705 MEMB     252      POPC     H12R     HAL2     0.900000E-01   1.00800           0
     33706 MEMB     252      POPC     H12S     HAL2     0.900000E-01   1.00800           0
     33707 MEMB     252      POPC     C213     CTL2    -0.180000       12.0110           0
     33708 MEMB     252      POPC     H13R     HAL2     0.900000E-01   1.00800           0
     33709 MEMB     252      POPC     H13S     HAL2     0.900000E-01   1.00800           0
     33710 MEMB     252      POPC     C214     CTL2    -0.180000       12.0110           0
     33711 MEMB     252      POPC     H14R     HAL2     0.900000E-01   1.00800           0
     33712 MEMB     252      POPC     H14S     HAL2     0.900000E-01   1.00800           0
     33713 MEMB     252      POPC     C215     CTL2    -0.180000       12.0110           0
     33714 MEMB     252      POPC     H15R     HAL2     0.900000E-01   1.00800           0
     33715 MEMB     252      POPC     H15S     HAL2     0.900000E-01   1.00800           0
     33716 MEMB     252      POPC     C216     CTL2    -0.180000       12.0110           0
     33717 MEMB     252      POPC     H16R     HAL2     0.900000E-01   1.00800           0
     33718 MEMB     252      POPC     H16S     HAL2     0.900000E-01   1.00800           0
     33719 MEMB     252      POPC     C217     CTL2    -0.180000       12.0110           0
     33720 MEMB     252      POPC     H17R     HAL2     0.900000E-01   1.00800           0
     33721 MEMB     252      POPC     H17S     HAL2     0.900000E-01   1.00800           0
     33722 MEMB     252      POPC     C218     CTL3    -0.270000       12.0110           0
     33723 MEMB     252      POPC     H18R     HAL3     0.900000E-01   1.00800           0
     33724 MEMB     252      POPC     H18S     HAL3     0.900000E-01   1.00800           0
     33725 MEMB     252      POPC     H18T     HAL3     0.900000E-01   1.00800           0
     33726 MEMB     252      POPC     C33      CTL2    -0.180000       12.0110           0
     33727 MEMB     252      POPC     H3X      HAL2     0.900000E-01   1.00800           0
     33728 MEMB     252      POPC     H3Y      HAL2     0.900000E-01   1.00800           0
     33729 MEMB     252      POPC     C34      CTL2    -0.180000       12.0110           0
     33730 MEMB     252      POPC     H4X      HAL2     0.900000E-01   1.00800           0
     33731 MEMB     252      POPC     H4Y      HAL2     0.900000E-01   1.00800           0
     33732 MEMB     252      POPC     C35      CTL2    -0.180000       12.0110           0
     33733 MEMB     252      POPC     H5X      HAL2     0.900000E-01   1.00800           0
     33734 MEMB     252      POPC     H5Y      HAL2     0.900000E-01   1.00800           0
     33735 MEMB     252      POPC     C36      CTL2    -0.180000       12.0110           0
     33736 MEMB     252      POPC     H6X      HAL2     0.900000E-01   1.00800           0
     33737 MEMB     252      POPC     H6Y      HAL2     0.900000E-01   1.00800           0
     33738 MEMB     252      POPC     C37      CTL2    -0.180000       12.0110           0
     33739 MEMB     252      POPC     H7X      HAL2     0.900000E-01   1.00800           0
     33740 MEMB     252      POPC     H7Y      HAL2     0.900000E-01   1.00800           0
     33741 MEMB     252      POPC     C38      CTL2    -0.180000       12.0110           0
     33742 MEMB     252      POPC     H8X      HAL2     0.900000E-01   1.00800           0
     33743 MEMB     252      POPC     H8Y      HAL2     0.900000E-01   1.00800           0
     33744 MEMB     252      POPC     C39      CTL2    -0.180000       12.0110           0
     33745 MEMB     252      POPC     H9X      HAL2     0.900000E-01   1.00800           0
     33746 MEMB     252      POPC     H9Y      HAL2     0.900000E-01   1.00800           0
     33747 MEMB     252      POPC     C310     CTL2    -0.180000       12.0110           0
     33748 MEMB     252      POPC     H10X     HAL2     0.900000E-01   1.00800           0
     33749 MEMB     252      POPC     H10Y     HAL2     0.900000E-01   1.00800           0
     33750 MEMB     252      POPC     C311     CTL2    -0.180000       12.0110           0
     33751 MEMB     252      POPC     H11X     HAL2     0.900000E-01   1.00800           0
     33752 MEMB     252      POPC     H11Y     HAL2     0.900000E-01   1.00800           0
     33753 MEMB     252      POPC     C312     CTL2    -0.180000       12.0110           0
     33754 MEMB     252      POPC     H12X     HAL2     0.900000E-01   1.00800           0
     33755 MEMB     252      POPC     H12Y     HAL2     0.900000E-01   1.00800           0
     33756 MEMB     252      POPC     C313     CTL2    -0.180000       12.0110           0
     33757 MEMB     252      POPC     H13X     HAL2     0.900000E-01   1.00800           0
     33758 MEMB     252      POPC     H13Y     HAL2     0.900000E-01   1.00800           0
     33759 MEMB     252      POPC     C314     CTL2    -0.180000       12.0110           0
     33760 MEMB     252      POPC     H14X     HAL2     0.900000E-01   1.00800           0
     33761 MEMB     252      POPC     H14Y     HAL2     0.900000E-01   1.00800           0
     33762 MEMB     252      POPC     C315     CTL2    -0.180000       12.0110           0
     33763 MEMB     252      POPC     H15X     HAL2     0.900000E-01   1.00800           0
     33764 MEMB     252      POPC     H15Y     HAL2     0.900000E-01   1.00800           0
     33765 MEMB     252      POPC     C316     CTL3    -0.270000       12.0110           0
     33766 MEMB     252      POPC     H16X     HAL3     0.900000E-01   1.00800           0
     33767 MEMB     252      POPC     H16Y     HAL3     0.900000E-01   1.00800           0
     33768 MEMB     252      POPC     H16Z     HAL3     0.900000E-01   1.00800           0
     33769 MEMB     253      POPC     N        NTL     -0.600000       14.0070           0
     33770 MEMB     253      POPC     C12      CTL2    -0.100000       12.0110           0
     33771 MEMB     253      POPC     H12A     HL       0.250000       1.00800           0
     33772 MEMB     253      POPC     H12B     HL       0.250000       1.00800           0
     33773 MEMB     253      POPC     C13      CTL5    -0.350000       12.0110           0
     33774 MEMB     253      POPC     H13A     HL       0.250000       1.00800           0
     33775 MEMB     253      POPC     H13B     HL       0.250000       1.00800           0
     33776 MEMB     253      POPC     H13C     HL       0.250000       1.00800           0
     33777 MEMB     253      POPC     C14      CTL5    -0.350000       12.0110           0
     33778 MEMB     253      POPC     H14A     HL       0.250000       1.00800           0
     33779 MEMB     253      POPC     H14B     HL       0.250000       1.00800           0
     33780 MEMB     253      POPC     H14C     HL       0.250000       1.00800           0
     33781 MEMB     253      POPC     C15      CTL5    -0.350000       12.0110           0
     33782 MEMB     253      POPC     H15A     HL       0.250000       1.00800           0
     33783 MEMB     253      POPC     H15B     HL       0.250000       1.00800           0
     33784 MEMB     253      POPC     H15C     HL       0.250000       1.00800           0
     33785 MEMB     253      POPC     C11      CTL2    -0.800000E-01   12.0110           0
     33786 MEMB     253      POPC     H11A     HAL2     0.900000E-01   1.00800           0
     33787 MEMB     253      POPC     H11B     HAL2     0.900000E-01   1.00800           0
     33788 MEMB     253      POPC     P        PL       1.50000        30.9740           0
     33789 MEMB     253      POPC     O13      O2L     -0.780000       15.9994           0
     33790 MEMB     253      POPC     O14      O2L     -0.780000       15.9994           0
     33791 MEMB     253      POPC     O12      OSLP    -0.570000       15.9994           0
     33792 MEMB     253      POPC     O11      OSLP    -0.570000       15.9994           0
     33793 MEMB     253      POPC     C1       CTL2    -0.800000E-01   12.0110           0
     33794 MEMB     253      POPC     HA       HAL2     0.900000E-01   1.00800           0
     33795 MEMB     253      POPC     HB       HAL2     0.900000E-01   1.00800           0
     33796 MEMB     253      POPC     C2       CTL1     0.170000       12.0110           0
     33797 MEMB     253      POPC     HS       HAL1     0.900000E-01   1.00800           0
     33798 MEMB     253      POPC     O21      OSL     -0.490000       15.9994           0
     33799 MEMB     253      POPC     C21      CL       0.900000       12.0110           0
     33800 MEMB     253      POPC     O22      OBL     -0.630000       15.9994           0
     33801 MEMB     253      POPC     C22      CTL2    -0.220000       12.0110           0
     33802 MEMB     253      POPC     H2R      HAL2     0.900000E-01   1.00800           0
     33803 MEMB     253      POPC     H2S      HAL2     0.900000E-01   1.00800           0
     33804 MEMB     253      POPC     C3       CTL2     0.800000E-01   12.0110           0
     33805 MEMB     253      POPC     HX       HAL2     0.900000E-01   1.00800           0
     33806 MEMB     253      POPC     HY       HAL2     0.900000E-01   1.00800           0
     33807 MEMB     253      POPC     O31      OSL     -0.490000       15.9994           0
     33808 MEMB     253      POPC     C31      CL       0.900000       12.0110           0
     33809 MEMB     253      POPC     O32      OBL     -0.630000       15.9994           0
     33810 MEMB     253      POPC     C32      CTL2    -0.220000       12.0110           0
     33811 MEMB     253      POPC     H2X      HAL2     0.900000E-01   1.00800           0
     33812 MEMB     253      POPC     H2Y      HAL2     0.900000E-01   1.00800           0
     33813 MEMB     253      POPC     C23      CTL2    -0.180000       12.0110           0
     33814 MEMB     253      POPC     H3R      HAL2     0.900000E-01   1.00800           0
     33815 MEMB     253      POPC     H3S      HAL2     0.900000E-01   1.00800           0
     33816 MEMB     253      POPC     C24      CTL2    -0.180000       12.0110           0
     33817 MEMB     253      POPC     H4R      HAL2     0.900000E-01   1.00800           0
     33818 MEMB     253      POPC     H4S      HAL2     0.900000E-01   1.00800           0
     33819 MEMB     253      POPC     C25      CTL2    -0.180000       12.0110           0
     33820 MEMB     253      POPC     H5R      HAL2     0.900000E-01   1.00800           0
     33821 MEMB     253      POPC     H5S      HAL2     0.900000E-01   1.00800           0
     33822 MEMB     253      POPC     C26      CTL2    -0.180000       12.0110           0
     33823 MEMB     253      POPC     H6R      HAL2     0.900000E-01   1.00800           0
     33824 MEMB     253      POPC     H6S      HAL2     0.900000E-01   1.00800           0
     33825 MEMB     253      POPC     C27      CTL2    -0.180000       12.0110           0
     33826 MEMB     253      POPC     H7R      HAL2     0.900000E-01   1.00800           0
     33827 MEMB     253      POPC     H7S      HAL2     0.900000E-01   1.00800           0
     33828 MEMB     253      POPC     C28      CTL2    -0.180000       12.0110           0
     33829 MEMB     253      POPC     H8R      HAL2     0.900000E-01   1.00800           0
     33830 MEMB     253      POPC     H8S      HAL2     0.900000E-01   1.00800           0
     33831 MEMB     253      POPC     C29      CEL1    -0.150000       12.0110           0
     33832 MEMB     253      POPC     H91      HEL1     0.150000       1.00800           0
     33833 MEMB     253      POPC     C210     CEL1    -0.150000       12.0110           0
     33834 MEMB     253      POPC     H101     HEL1     0.150000       1.00800           0
     33835 MEMB     253      POPC     C211     CTL2    -0.180000       12.0110           0
     33836 MEMB     253      POPC     H11R     HAL2     0.900000E-01   1.00800           0
     33837 MEMB     253      POPC     H11S     HAL2     0.900000E-01   1.00800           0
     33838 MEMB     253      POPC     C212     CTL2    -0.180000       12.0110           0
     33839 MEMB     253      POPC     H12R     HAL2     0.900000E-01   1.00800           0
     33840 MEMB     253      POPC     H12S     HAL2     0.900000E-01   1.00800           0
     33841 MEMB     253      POPC     C213     CTL2    -0.180000       12.0110           0
     33842 MEMB     253      POPC     H13R     HAL2     0.900000E-01   1.00800           0
     33843 MEMB     253      POPC     H13S     HAL2     0.900000E-01   1.00800           0
     33844 MEMB     253      POPC     C214     CTL2    -0.180000       12.0110           0
     33845 MEMB     253      POPC     H14R     HAL2     0.900000E-01   1.00800           0
     33846 MEMB     253      POPC     H14S     HAL2     0.900000E-01   1.00800           0
     33847 MEMB     253      POPC     C215     CTL2    -0.180000       12.0110           0
     33848 MEMB     253      POPC     H15R     HAL2     0.900000E-01   1.00800           0
     33849 MEMB     253      POPC     H15S     HAL2     0.900000E-01   1.00800           0
     33850 MEMB     253      POPC     C216     CTL2    -0.180000       12.0110           0
     33851 MEMB     253      POPC     H16R     HAL2     0.900000E-01   1.00800           0
     33852 MEMB     253      POPC     H16S     HAL2     0.900000E-01   1.00800           0
     33853 MEMB     253      POPC     C217     CTL2    -0.180000       12.0110           0
     33854 MEMB     253      POPC     H17R     HAL2     0.900000E-01   1.00800           0
     33855 MEMB     253      POPC     H17S     HAL2     0.900000E-01   1.00800           0
     33856 MEMB     253      POPC     C218     CTL3    -0.270000       12.0110           0
     33857 MEMB     253      POPC     H18R     HAL3     0.900000E-01   1.00800           0
     33858 MEMB     253      POPC     H18S     HAL3     0.900000E-01   1.00800           0
     33859 MEMB     253      POPC     H18T     HAL3     0.900000E-01   1.00800           0
     33860 MEMB     253      POPC     C33      CTL2    -0.180000       12.0110           0
     33861 MEMB     253      POPC     H3X      HAL2     0.900000E-01   1.00800           0
     33862 MEMB     253      POPC     H3Y      HAL2     0.900000E-01   1.00800           0
     33863 MEMB     253      POPC     C34      CTL2    -0.180000       12.0110           0
     33864 MEMB     253      POPC     H4X      HAL2     0.900000E-01   1.00800           0
     33865 MEMB     253      POPC     H4Y      HAL2     0.900000E-01   1.00800           0
     33866 MEMB     253      POPC     C35      CTL2    -0.180000       12.0110           0
     33867 MEMB     253      POPC     H5X      HAL2     0.900000E-01   1.00800           0
     33868 MEMB     253      POPC     H5Y      HAL2     0.900000E-01   1.00800           0
     33869 MEMB     253      POPC     C36      CTL2    -0.180000       12.0110           0
     33870 MEMB     253      POPC     H6X      HAL2     0.900000E-01   1.00800           0
     33871 MEMB     253      POPC     H6Y      HAL2     0.900000E-01   1.00800           0
     33872 MEMB     253      POPC     C37      CTL2    -0.180000       12.0110           0
     33873 MEMB     253      POPC     H7X      HAL2     0.900000E-01   1.00800           0
     33874 MEMB     253      POPC     H7Y      HAL2     0.900000E-01   1.00800           0
     33875 MEMB     253      POPC     C38      CTL2    -0.180000       12.0110           0
     33876 MEMB     253      POPC     H8X      HAL2     0.900000E-01   1.00800           0
     33877 MEMB     253      POPC     H8Y      HAL2     0.900000E-01   1.00800           0
     33878 MEMB     253      POPC     C39      CTL2    -0.180000       12.0110           0
     33879 MEMB     253      POPC     H9X      HAL2     0.900000E-01   1.00800           0
     33880 MEMB     253      POPC     H9Y      HAL2     0.900000E-01   1.00800           0
     33881 MEMB     253      POPC     C310     CTL2    -0.180000       12.0110           0
     33882 MEMB     253      POPC     H10X     HAL2     0.900000E-01   1.00800           0
     33883 MEMB     253      POPC     H10Y     HAL2     0.900000E-01   1.00800           0
     33884 MEMB     253      POPC     C311     CTL2    -0.180000       12.0110           0
     33885 MEMB     253      POPC     H11X     HAL2     0.900000E-01   1.00800           0
     33886 MEMB     253      POPC     H11Y     HAL2     0.900000E-01   1.00800           0
     33887 MEMB     253      POPC     C312     CTL2    -0.180000       12.0110           0
     33888 MEMB     253      POPC     H12X     HAL2     0.900000E-01   1.00800           0
     33889 MEMB     253      POPC     H12Y     HAL2     0.900000E-01   1.00800           0
     33890 MEMB     253      POPC     C313     CTL2    -0.180000       12.0110           0
     33891 MEMB     253      POPC     H13X     HAL2     0.900000E-01   1.00800           0
     33892 MEMB     253      POPC     H13Y     HAL2     0.900000E-01   1.00800           0
     33893 MEMB     253      POPC     C314     CTL2    -0.180000       12.0110           0
     33894 MEMB     253      POPC     H14X     HAL2     0.900000E-01   1.00800           0
     33895 MEMB     253      POPC     H14Y     HAL2     0.900000E-01   1.00800           0
     33896 MEMB     253      POPC     C315     CTL2    -0.180000       12.0110           0
     33897 MEMB     253      POPC     H15X     HAL2     0.900000E-01   1.00800           0
     33898 MEMB     253      POPC     H15Y     HAL2     0.900000E-01   1.00800           0
     33899 MEMB     253      POPC     C316     CTL3    -0.270000       12.0110           0
     33900 MEMB     253      POPC     H16X     HAL3     0.900000E-01   1.00800           0
     33901 MEMB     253      POPC     H16Y     HAL3     0.900000E-01   1.00800           0
     33902 MEMB     253      POPC     H16Z     HAL3     0.900000E-01   1.00800           0
     33903 MEMB     254      POPC     N        NTL     -0.600000       14.0070           0
     33904 MEMB     254      POPC     C12      CTL2    -0.100000       12.0110           0
     33905 MEMB     254      POPC     H12A     HL       0.250000       1.00800           0
     33906 MEMB     254      POPC     H12B     HL       0.250000       1.00800           0
     33907 MEMB     254      POPC     C13      CTL5    -0.350000       12.0110           0
     33908 MEMB     254      POPC     H13A     HL       0.250000       1.00800           0
     33909 MEMB     254      POPC     H13B     HL       0.250000       1.00800           0
     33910 MEMB     254      POPC     H13C     HL       0.250000       1.00800           0
     33911 MEMB     254      POPC     C14      CTL5    -0.350000       12.0110           0
     33912 MEMB     254      POPC     H14A     HL       0.250000       1.00800           0
     33913 MEMB     254      POPC     H14B     HL       0.250000       1.00800           0
     33914 MEMB     254      POPC     H14C     HL       0.250000       1.00800           0
     33915 MEMB     254      POPC     C15      CTL5    -0.350000       12.0110           0
     33916 MEMB     254      POPC     H15A     HL       0.250000       1.00800           0
     33917 MEMB     254      POPC     H15B     HL       0.250000       1.00800           0
     33918 MEMB     254      POPC     H15C     HL       0.250000       1.00800           0
     33919 MEMB     254      POPC     C11      CTL2    -0.800000E-01   12.0110           0
     33920 MEMB     254      POPC     H11A     HAL2     0.900000E-01   1.00800           0
     33921 MEMB     254      POPC     H11B     HAL2     0.900000E-01   1.00800           0
     33922 MEMB     254      POPC     P        PL       1.50000        30.9740           0
     33923 MEMB     254      POPC     O13      O2L     -0.780000       15.9994           0
     33924 MEMB     254      POPC     O14      O2L     -0.780000       15.9994           0
     33925 MEMB     254      POPC     O12      OSLP    -0.570000       15.9994           0
     33926 MEMB     254      POPC     O11      OSLP    -0.570000       15.9994           0
     33927 MEMB     254      POPC     C1       CTL2    -0.800000E-01   12.0110           0
     33928 MEMB     254      POPC     HA       HAL2     0.900000E-01   1.00800           0
     33929 MEMB     254      POPC     HB       HAL2     0.900000E-01   1.00800           0
     33930 MEMB     254      POPC     C2       CTL1     0.170000       12.0110           0
     33931 MEMB     254      POPC     HS       HAL1     0.900000E-01   1.00800           0
     33932 MEMB     254      POPC     O21      OSL     -0.490000       15.9994           0
     33933 MEMB     254      POPC     C21      CL       0.900000       12.0110           0
     33934 MEMB     254      POPC     O22      OBL     -0.630000       15.9994           0
     33935 MEMB     254      POPC     C22      CTL2    -0.220000       12.0110           0
     33936 MEMB     254      POPC     H2R      HAL2     0.900000E-01   1.00800           0
     33937 MEMB     254      POPC     H2S      HAL2     0.900000E-01   1.00800           0
     33938 MEMB     254      POPC     C3       CTL2     0.800000E-01   12.0110           0
     33939 MEMB     254      POPC     HX       HAL2     0.900000E-01   1.00800           0
     33940 MEMB     254      POPC     HY       HAL2     0.900000E-01   1.00800           0
     33941 MEMB     254      POPC     O31      OSL     -0.490000       15.9994           0
     33942 MEMB     254      POPC     C31      CL       0.900000       12.0110           0
     33943 MEMB     254      POPC     O32      OBL     -0.630000       15.9994           0
     33944 MEMB     254      POPC     C32      CTL2    -0.220000       12.0110           0
     33945 MEMB     254      POPC     H2X      HAL2     0.900000E-01   1.00800           0
     33946 MEMB     254      POPC     H2Y      HAL2     0.900000E-01   1.00800           0
     33947 MEMB     254      POPC     C23      CTL2    -0.180000       12.0110           0
     33948 MEMB     254      POPC     H3R      HAL2     0.900000E-01   1.00800           0
     33949 MEMB     254      POPC     H3S      HAL2     0.900000E-01   1.00800           0
     33950 MEMB     254      POPC     C24      CTL2    -0.180000       12.0110           0
     33951 MEMB     254      POPC     H4R      HAL2     0.900000E-01   1.00800           0
     33952 MEMB     254      POPC     H4S      HAL2     0.900000E-01   1.00800           0
     33953 MEMB     254      POPC     C25      CTL2    -0.180000       12.0110           0
     33954 MEMB     254      POPC     H5R      HAL2     0.900000E-01   1.00800           0
     33955 MEMB     254      POPC     H5S      HAL2     0.900000E-01   1.00800           0
     33956 MEMB     254      POPC     C26      CTL2    -0.180000       12.0110           0
     33957 MEMB     254      POPC     H6R      HAL2     0.900000E-01   1.00800           0
     33958 MEMB     254      POPC     H6S      HAL2     0.900000E-01   1.00800           0
     33959 MEMB     254      POPC     C27      CTL2    -0.180000       12.0110           0
     33960 MEMB     254      POPC     H7R      HAL2     0.900000E-01   1.00800           0
     33961 MEMB     254      POPC     H7S      HAL2     0.900000E-01   1.00800           0
     33962 MEMB     254      POPC     C28      CTL2    -0.180000       12.0110           0
     33963 MEMB     254      POPC     H8R      HAL2     0.900000E-01   1.00800           0
     33964 MEMB     254      POPC     H8S      HAL2     0.900000E-01   1.00800           0
     33965 MEMB     254      POPC     C29      CEL1    -0.150000       12.0110           0
     33966 MEMB     254      POPC     H91      HEL1     0.150000       1.00800           0
     33967 MEMB     254      POPC     C210     CEL1    -0.150000       12.0110           0
     33968 MEMB     254      POPC     H101     HEL1     0.150000       1.00800           0
     33969 MEMB     254      POPC     C211     CTL2    -0.180000       12.0110           0
     33970 MEMB     254      POPC     H11R     HAL2     0.900000E-01   1.00800           0
     33971 MEMB     254      POPC     H11S     HAL2     0.900000E-01   1.00800           0
     33972 MEMB     254      POPC     C212     CTL2    -0.180000       12.0110           0
     33973 MEMB     254      POPC     H12R     HAL2     0.900000E-01   1.00800           0
     33974 MEMB     254      POPC     H12S     HAL2     0.900000E-01   1.00800           0
     33975 MEMB     254      POPC     C213     CTL2    -0.180000       12.0110           0
     33976 MEMB     254      POPC     H13R     HAL2     0.900000E-01   1.00800           0
     33977 MEMB     254      POPC     H13S     HAL2     0.900000E-01   1.00800           0
     33978 MEMB     254      POPC     C214     CTL2    -0.180000       12.0110           0
     33979 MEMB     254      POPC     H14R     HAL2     0.900000E-01   1.00800           0
     33980 MEMB     254      POPC     H14S     HAL2     0.900000E-01   1.00800           0
     33981 MEMB     254      POPC     C215     CTL2    -0.180000       12.0110           0
     33982 MEMB     254      POPC     H15R     HAL2     0.900000E-01   1.00800           0
     33983 MEMB     254      POPC     H15S     HAL2     0.900000E-01   1.00800           0
     33984 MEMB     254      POPC     C216     CTL2    -0.180000       12.0110           0
     33985 MEMB     254      POPC     H16R     HAL2     0.900000E-01   1.00800           0
     33986 MEMB     254      POPC     H16S     HAL2     0.900000E-01   1.00800           0
     33987 MEMB     254      POPC     C217     CTL2    -0.180000       12.0110           0
     33988 MEMB     254      POPC     H17R     HAL2     0.900000E-01   1.00800           0
     33989 MEMB     254      POPC     H17S     HAL2     0.900000E-01   1.00800           0
     33990 MEMB     254      POPC     C218     CTL3    -0.270000       12.0110           0
     33991 MEMB     254      POPC     H18R     HAL3     0.900000E-01   1.00800           0
     33992 MEMB     254      POPC     H18S     HAL3     0.900000E-01   1.00800           0
     33993 MEMB     254      POPC     H18T     HAL3     0.900000E-01   1.00800           0
     33994 MEMB     254      POPC     C33      CTL2    -0.180000       12.0110           0
     33995 MEMB     254      POPC     H3X      HAL2     0.900000E-01   1.00800           0
     33996 MEMB     254      POPC     H3Y      HAL2     0.900000E-01   1.00800           0
     33997 MEMB     254      POPC     C34      CTL2    -0.180000       12.0110           0
     33998 MEMB     254      POPC     H4X      HAL2     0.900000E-01   1.00800           0
     33999 MEMB     254      POPC     H4Y      HAL2     0.900000E-01   1.00800           0
     34000 MEMB     254      POPC     C35      CTL2    -0.180000       12.0110           0
     34001 MEMB     254      POPC     H5X      HAL2     0.900000E-01   1.00800           0
     34002 MEMB     254      POPC     H5Y      HAL2     0.900000E-01   1.00800           0
     34003 MEMB     254      POPC     C36      CTL2    -0.180000       12.0110           0
     34004 MEMB     254      POPC     H6X      HAL2     0.900000E-01   1.00800           0
     34005 MEMB     254      POPC     H6Y      HAL2     0.900000E-01   1.00800           0
     34006 MEMB     254      POPC     C37      CTL2    -0.180000       12.0110           0
     34007 MEMB     254      POPC     H7X      HAL2     0.900000E-01   1.00800           0
     34008 MEMB     254      POPC     H7Y      HAL2     0.900000E-01   1.00800           0
     34009 MEMB     254      POPC     C38      CTL2    -0.180000       12.0110           0
     34010 MEMB     254      POPC     H8X      HAL2     0.900000E-01   1.00800           0
     34011 MEMB     254      POPC     H8Y      HAL2     0.900000E-01   1.00800           0
     34012 MEMB     254      POPC     C39      CTL2    -0.180000       12.0110           0
     34013 MEMB     254      POPC     H9X      HAL2     0.900000E-01   1.00800           0
     34014 MEMB     254      POPC     H9Y      HAL2     0.900000E-01   1.00800           0
     34015 MEMB     254      POPC     C310     CTL2    -0.180000       12.0110           0
     34016 MEMB     254      POPC     H10X     HAL2     0.900000E-01   1.00800           0
     34017 MEMB     254      POPC     H10Y     HAL2     0.900000E-01   1.00800           0
     34018 MEMB     254      POPC     C311     CTL2    -0.180000       12.0110           0
     34019 MEMB     254      POPC     H11X     HAL2     0.900000E-01   1.00800           0
     34020 MEMB     254      POPC     H11Y     HAL2     0.900000E-01   1.00800           0
     34021 MEMB     254      POPC     C312     CTL2    -0.180000       12.0110           0
     34022 MEMB     254      POPC     H12X     HAL2     0.900000E-01   1.00800           0
     34023 MEMB     254      POPC     H12Y     HAL2     0.900000E-01   1.00800           0
     34024 MEMB     254      POPC     C313     CTL2    -0.180000       12.0110           0
     34025 MEMB     254      POPC     H13X     HAL2     0.900000E-01   1.00800           0
     34026 MEMB     254      POPC     H13Y     HAL2     0.900000E-01   1.00800           0
     34027 MEMB     254      POPC     C314     CTL2    -0.180000       12.0110           0
     34028 MEMB     254      POPC     H14X     HAL2     0.900000E-01   1.00800           0
     34029 MEMB     254      POPC     H14Y     HAL2     0.900000E-01   1.00800           0
     34030 MEMB     254      POPC     C315     CTL2    -0.180000       12.0110           0
     34031 MEMB     254      POPC     H15X     HAL2     0.900000E-01   1.00800           0
     34032 MEMB     254      POPC     H15Y     HAL2     0.900000E-01   1.00800           0
     34033 MEMB     254      POPC     C316     CTL3    -0.270000       12.0110           0
     34034 MEMB     254      POPC     H16X     HAL3     0.900000E-01   1.00800           0
     34035 MEMB     254      POPC     H16Y     HAL3     0.900000E-01   1.00800           0
     34036 MEMB     254      POPC     H16Z     HAL3     0.900000E-01   1.00800           0
     34037 MEMB     255      POPC     N        NTL     -0.600000       14.0070           0
     34038 MEMB     255      POPC     C12      CTL2    -0.100000       12.0110           0
     34039 MEMB     255      POPC     H12A     HL       0.250000       1.00800           0
     34040 MEMB     255      POPC     H12B     HL       0.250000       1.00800           0
     34041 MEMB     255      POPC     C13      CTL5    -0.350000       12.0110           0
     34042 MEMB     255      POPC     H13A     HL       0.250000       1.00800           0
     34043 MEMB     255      POPC     H13B     HL       0.250000       1.00800           0
     34044 MEMB     255      POPC     H13C     HL       0.250000       1.00800           0
     34045 MEMB     255      POPC     C14      CTL5    -0.350000       12.0110           0
     34046 MEMB     255      POPC     H14A     HL       0.250000       1.00800           0
     34047 MEMB     255      POPC     H14B     HL       0.250000       1.00800           0
     34048 MEMB     255      POPC     H14C     HL       0.250000       1.00800           0
     34049 MEMB     255      POPC     C15      CTL5    -0.350000       12.0110           0
     34050 MEMB     255      POPC     H15A     HL       0.250000       1.00800           0
     34051 MEMB     255      POPC     H15B     HL       0.250000       1.00800           0
     34052 MEMB     255      POPC     H15C     HL       0.250000       1.00800           0
     34053 MEMB     255      POPC     C11      CTL2    -0.800000E-01   12.0110           0
     34054 MEMB     255      POPC     H11A     HAL2     0.900000E-01   1.00800           0
     34055 MEMB     255      POPC     H11B     HAL2     0.900000E-01   1.00800           0
     34056 MEMB     255      POPC     P        PL       1.50000        30.9740           0
     34057 MEMB     255      POPC     O13      O2L     -0.780000       15.9994           0
     34058 MEMB     255      POPC     O14      O2L     -0.780000       15.9994           0
     34059 MEMB     255      POPC     O12      OSLP    -0.570000       15.9994           0
     34060 MEMB     255      POPC     O11      OSLP    -0.570000       15.9994           0
     34061 MEMB     255      POPC     C1       CTL2    -0.800000E-01   12.0110           0
     34062 MEMB     255      POPC     HA       HAL2     0.900000E-01   1.00800           0
     34063 MEMB     255      POPC     HB       HAL2     0.900000E-01   1.00800           0
     34064 MEMB     255      POPC     C2       CTL1     0.170000       12.0110           0
     34065 MEMB     255      POPC     HS       HAL1     0.900000E-01   1.00800           0
     34066 MEMB     255      POPC     O21      OSL     -0.490000       15.9994           0
     34067 MEMB     255      POPC     C21      CL       0.900000       12.0110           0
     34068 MEMB     255      POPC     O22      OBL     -0.630000       15.9994           0
     34069 MEMB     255      POPC     C22      CTL2    -0.220000       12.0110           0
     34070 MEMB     255      POPC     H2R      HAL2     0.900000E-01   1.00800           0
     34071 MEMB     255      POPC     H2S      HAL2     0.900000E-01   1.00800           0
     34072 MEMB     255      POPC     C3       CTL2     0.800000E-01   12.0110           0
     34073 MEMB     255      POPC     HX       HAL2     0.900000E-01   1.00800           0
     34074 MEMB     255      POPC     HY       HAL2     0.900000E-01   1.00800           0
     34075 MEMB     255      POPC     O31      OSL     -0.490000       15.9994           0
     34076 MEMB     255      POPC     C31      CL       0.900000       12.0110           0
     34077 MEMB     255      POPC     O32      OBL     -0.630000       15.9994           0
     34078 MEMB     255      POPC     C32      CTL2    -0.220000       12.0110           0
     34079 MEMB     255      POPC     H2X      HAL2     0.900000E-01   1.00800           0
     34080 MEMB     255      POPC     H2Y      HAL2     0.900000E-01   1.00800           0
     34081 MEMB     255      POPC     C23      CTL2    -0.180000       12.0110           0
     34082 MEMB     255      POPC     H3R      HAL2     0.900000E-01   1.00800           0
     34083 MEMB     255      POPC     H3S      HAL2     0.900000E-01   1.00800           0
     34084 MEMB     255      POPC     C24      CTL2    -0.180000       12.0110           0
     34085 MEMB     255      POPC     H4R      HAL2     0.900000E-01   1.00800           0
     34086 MEMB     255      POPC     H4S      HAL2     0.900000E-01   1.00800           0
     34087 MEMB     255      POPC     C25      CTL2    -0.180000       12.0110           0
     34088 MEMB     255      POPC     H5R      HAL2     0.900000E-01   1.00800           0
     34089 MEMB     255      POPC     H5S      HAL2     0.900000E-01   1.00800           0
     34090 MEMB     255      POPC     C26      CTL2    -0.180000       12.0110           0
     34091 MEMB     255      POPC     H6R      HAL2     0.900000E-01   1.00800           0
     34092 MEMB     255      POPC     H6S      HAL2     0.900000E-01   1.00800           0
     34093 MEMB     255      POPC     C27      CTL2    -0.180000       12.0110           0
     34094 MEMB     255      POPC     H7R      HAL2     0.900000E-01   1.00800           0
     34095 MEMB     255      POPC     H7S      HAL2     0.900000E-01   1.00800           0
     34096 MEMB     255      POPC     C28      CTL2    -0.180000       12.0110           0
     34097 MEMB     255      POPC     H8R      HAL2     0.900000E-01   1.00800           0
     34098 MEMB     255      POPC     H8S      HAL2     0.900000E-01   1.00800           0
     34099 MEMB     255      POPC     C29      CEL1    -0.150000       12.0110           0
     34100 MEMB     255      POPC     H91      HEL1     0.150000       1.00800           0
     34101 MEMB     255      POPC     C210     CEL1    -0.150000       12.0110           0
     34102 MEMB     255      POPC     H101     HEL1     0.150000       1.00800           0
     34103 MEMB     255      POPC     C211     CTL2    -0.180000       12.0110           0
     34104 MEMB     255      POPC     H11R     HAL2     0.900000E-01   1.00800           0
     34105 MEMB     255      POPC     H11S     HAL2     0.900000E-01   1.00800           0
     34106 MEMB     255      POPC     C212     CTL2    -0.180000       12.0110           0
     34107 MEMB     255      POPC     H12R     HAL2     0.900000E-01   1.00800           0
     34108 MEMB     255      POPC     H12S     HAL2     0.900000E-01   1.00800           0
     34109 MEMB     255      POPC     C213     CTL2    -0.180000       12.0110           0
     34110 MEMB     255      POPC     H13R     HAL2     0.900000E-01   1.00800           0
     34111 MEMB     255      POPC     H13S     HAL2     0.900000E-01   1.00800           0
     34112 MEMB     255      POPC     C214     CTL2    -0.180000       12.0110           0
     34113 MEMB     255      POPC     H14R     HAL2     0.900000E-01   1.00800           0
     34114 MEMB     255      POPC     H14S     HAL2     0.900000E-01   1.00800           0
     34115 MEMB     255      POPC     C215     CTL2    -0.180000       12.0110           0
     34116 MEMB     255      POPC     H15R     HAL2     0.900000E-01   1.00800           0
     34117 MEMB     255      POPC     H15S     HAL2     0.900000E-01   1.00800           0
     34118 MEMB     255      POPC     C216     CTL2    -0.180000       12.0110           0
     34119 MEMB     255      POPC     H16R     HAL2     0.900000E-01   1.00800           0
     34120 MEMB     255      POPC     H16S     HAL2     0.900000E-01   1.00800           0
     34121 MEMB     255      POPC     C217     CTL2    -0.180000       12.0110           0
     34122 MEMB     255      POPC     H17R     HAL2     0.900000E-01   1.00800           0
     34123 MEMB     255      POPC     H17S     HAL2     0.900000E-01   1.00800           0
     34124 MEMB     255      POPC     C218     CTL3    -0.270000       12.0110           0
     34125 MEMB     255      POPC     H18R     HAL3     0.900000E-01   1.00800           0
     34126 MEMB     255      POPC     H18S     HAL3     0.900000E-01   1.00800           0
     34127 MEMB     255      POPC     H18T     HAL3     0.900000E-01   1.00800           0
     34128 MEMB     255      POPC     C33      CTL2    -0.180000       12.0110           0
     34129 MEMB     255      POPC     H3X      HAL2     0.900000E-01   1.00800           0
     34130 MEMB     255      POPC     H3Y      HAL2     0.900000E-01   1.00800           0
     34131 MEMB     255      POPC     C34      CTL2    -0.180000       12.0110           0
     34132 MEMB     255      POPC     H4X      HAL2     0.900000E-01   1.00800           0
     34133 MEMB     255      POPC     H4Y      HAL2     0.900000E-01   1.00800           0
     34134 MEMB     255      POPC     C35      CTL2    -0.180000       12.0110           0
     34135 MEMB     255      POPC     H5X      HAL2     0.900000E-01   1.00800           0
     34136 MEMB     255      POPC     H5Y      HAL2     0.900000E-01   1.00800           0
     34137 MEMB     255      POPC     C36      CTL2    -0.180000       12.0110           0
     34138 MEMB     255      POPC     H6X      HAL2     0.900000E-01   1.00800           0
     34139 MEMB     255      POPC     H6Y      HAL2     0.900000E-01   1.00800           0
     34140 MEMB     255      POPC     C37      CTL2    -0.180000       12.0110           0
     34141 MEMB     255      POPC     H7X      HAL2     0.900000E-01   1.00800           0
     34142 MEMB     255      POPC     H7Y      HAL2     0.900000E-01   1.00800           0
     34143 MEMB     255      POPC     C38      CTL2    -0.180000       12.0110           0
     34144 MEMB     255      POPC     H8X      HAL2     0.900000E-01   1.00800           0
     34145 MEMB     255      POPC     H8Y      HAL2     0.900000E-01   1.00800           0
     34146 MEMB     255      POPC     C39      CTL2    -0.180000       12.0110           0
     34147 MEMB     255      POPC     H9X      HAL2     0.900000E-01   1.00800           0
     34148 MEMB     255      POPC     H9Y      HAL2     0.900000E-01   1.00800           0
     34149 MEMB     255      POPC     C310     CTL2    -0.180000       12.0110           0
     34150 MEMB     255      POPC     H10X     HAL2     0.900000E-01   1.00800           0
     34151 MEMB     255      POPC     H10Y     HAL2     0.900000E-01   1.00800           0
     34152 MEMB     255      POPC     C311     CTL2    -0.180000       12.0110           0
     34153 MEMB     255      POPC     H11X     HAL2     0.900000E-01   1.00800           0
     34154 MEMB     255      POPC     H11Y     HAL2     0.900000E-01   1.00800           0
     34155 MEMB     255      POPC     C312     CTL2    -0.180000       12.0110           0
     34156 MEMB     255      POPC     H12X     HAL2     0.900000E-01   1.00800           0
     34157 MEMB     255      POPC     H12Y     HAL2     0.900000E-01   1.00800           0
     34158 MEMB     255      POPC     C313     CTL2    -0.180000       12.0110           0
     34159 MEMB     255      POPC     H13X     HAL2     0.900000E-01   1.00800           0
     34160 MEMB     255      POPC     H13Y     HAL2     0.900000E-01   1.00800           0
     34161 MEMB     255      POPC     C314     CTL2    -0.180000       12.0110           0
     34162 MEMB     255      POPC     H14X     HAL2     0.900000E-01   1.00800           0
     34163 MEMB     255      POPC     H14Y     HAL2     0.900000E-01   1.00800           0
     34164 MEMB     255      POPC     C315     CTL2    -0.180000       12.0110           0
     34165 MEMB     255      POPC     H15X     HAL2     0.900000E-01   1.00800           0
     34166 MEMB     255      POPC     H15Y     HAL2     0.900000E-01   1.00800           0
     34167 MEMB     255      POPC     C316     CTL3    -0.270000       12.0110           0
     34168 MEMB     255      POPC     H16X     HAL3     0.900000E-01   1.00800           0
     34169 MEMB     255      POPC     H16Y     HAL3     0.900000E-01   1.00800           0
     34170 MEMB     255      POPC     H16Z     HAL3     0.900000E-01   1.00800           0
     34171 MEMB     256      POPC     N        NTL     -0.600000       14.0070           0
     34172 MEMB     256      POPC     C12      CTL2    -0.100000       12.0110           0
     34173 MEMB     256      POPC     H12A     HL       0.250000       1.00800           0
     34174 MEMB     256      POPC     H12B     HL       0.250000       1.00800           0
     34175 MEMB     256      POPC     C13      CTL5    -0.350000       12.0110           0
     34176 MEMB     256      POPC     H13A     HL       0.250000       1.00800           0
     34177 MEMB     256      POPC     H13B     HL       0.250000       1.00800           0
     34178 MEMB     256      POPC     H13C     HL       0.250000       1.00800           0
     34179 MEMB     256      POPC     C14      CTL5    -0.350000       12.0110           0
     34180 MEMB     256      POPC     H14A     HL       0.250000       1.00800           0
     34181 MEMB     256      POPC     H14B     HL       0.250000       1.00800           0
     34182 MEMB     256      POPC     H14C     HL       0.250000       1.00800           0
     34183 MEMB     256      POPC     C15      CTL5    -0.350000       12.0110           0
     34184 MEMB     256      POPC     H15A     HL       0.250000       1.00800           0
     34185 MEMB     256      POPC     H15B     HL       0.250000       1.00800           0
     34186 MEMB     256      POPC     H15C     HL       0.250000       1.00800           0
     34187 MEMB     256      POPC     C11      CTL2    -0.800000E-01   12.0110           0
     34188 MEMB     256      POPC     H11A     HAL2     0.900000E-01   1.00800           0
     34189 MEMB     256      POPC     H11B     HAL2     0.900000E-01   1.00800           0
     34190 MEMB     256      POPC     P        PL       1.50000        30.9740           0
     34191 MEMB     256      POPC     O13      O2L     -0.780000       15.9994           0
     34192 MEMB     256      POPC     O14      O2L     -0.780000       15.9994           0
     34193 MEMB     256      POPC     O12      OSLP    -0.570000       15.9994           0
     34194 MEMB     256      POPC     O11      OSLP    -0.570000       15.9994           0
     34195 MEMB     256      POPC     C1       CTL2    -0.800000E-01   12.0110           0
     34196 MEMB     256      POPC     HA       HAL2     0.900000E-01   1.00800           0
     34197 MEMB     256      POPC     HB       HAL2     0.900000E-01   1.00800           0
     34198 MEMB     256      POPC     C2       CTL1     0.170000       12.0110           0
     34199 MEMB     256      POPC     HS       HAL1     0.900000E-01   1.00800           0
     34200 MEMB     256      POPC     O21      OSL     -0.490000       15.9994           0
     34201 MEMB     256      POPC     C21      CL       0.900000       12.0110           0
     34202 MEMB     256      POPC     O22      OBL     -0.630000       15.9994           0
     34203 MEMB     256      POPC     C22      CTL2    -0.220000       12.0110           0
     34204 MEMB     256      POPC     H2R      HAL2     0.900000E-01   1.00800           0
     34205 MEMB     256      POPC     H2S      HAL2     0.900000E-01   1.00800           0
     34206 MEMB     256      POPC     C3       CTL2     0.800000E-01   12.0110           0
     34207 MEMB     256      POPC     HX       HAL2     0.900000E-01   1.00800           0
     34208 MEMB     256      POPC     HY       HAL2     0.900000E-01   1.00800           0
     34209 MEMB     256      POPC     O31      OSL     -0.490000       15.9994           0
     34210 MEMB     256      POPC     C31      CL       0.900000       12.0110           0
     34211 MEMB     256      POPC     O32      OBL     -0.630000       15.9994           0
     34212 MEMB     256      POPC     C32      CTL2    -0.220000       12.0110           0
     34213 MEMB     256      POPC     H2X      HAL2     0.900000E-01   1.00800           0
     34214 MEMB     256      POPC     H2Y      HAL2     0.900000E-01   1.00800           0
     34215 MEMB     256      POPC     C23      CTL2    -0.180000       12.0110           0
     34216 MEMB     256      POPC     H3R      HAL2     0.900000E-01   1.00800           0
     34217 MEMB     256      POPC     H3S      HAL2     0.900000E-01   1.00800           0
     34218 MEMB     256      POPC     C24      CTL2    -0.180000       12.0110           0
     34219 MEMB     256      POPC     H4R      HAL2     0.900000E-01   1.00800           0
     34220 MEMB     256      POPC     H4S      HAL2     0.900000E-01   1.00800           0
     34221 MEMB     256      POPC     C25      CTL2    -0.180000       12.0110           0
     34222 MEMB     256      POPC     H5R      HAL2     0.900000E-01   1.00800           0
     34223 MEMB     256      POPC     H5S      HAL2     0.900000E-01   1.00800           0
     34224 MEMB     256      POPC     C26      CTL2    -0.180000       12.0110           0
     34225 MEMB     256      POPC     H6R      HAL2     0.900000E-01   1.00800           0
     34226 MEMB     256      POPC     H6S      HAL2     0.900000E-01   1.00800           0
     34227 MEMB     256      POPC     C27      CTL2    -0.180000       12.0110           0
     34228 MEMB     256      POPC     H7R      HAL2     0.900000E-01   1.00800           0
     34229 MEMB     256      POPC     H7S      HAL2     0.900000E-01   1.00800           0
     34230 MEMB     256      POPC     C28      CTL2    -0.180000       12.0110           0
     34231 MEMB     256      POPC     H8R      HAL2     0.900000E-01   1.00800           0
     34232 MEMB     256      POPC     H8S      HAL2     0.900000E-01   1.00800           0
     34233 MEMB     256      POPC     C29      CEL1    -0.150000       12.0110           0
     34234 MEMB     256      POPC     H91      HEL1     0.150000       1.00800           0
     34235 MEMB     256      POPC     C210     CEL1    -0.150000       12.0110           0
     34236 MEMB     256      POPC     H101     HEL1     0.150000       1.00800           0
     34237 MEMB     256      POPC     C211     CTL2    -0.180000       12.0110           0
     34238 MEMB     256      POPC     H11R     HAL2     0.900000E-01   1.00800           0
     34239 MEMB     256      POPC     H11S     HAL2     0.900000E-01   1.00800           0
     34240 MEMB     256      POPC     C212     CTL2    -0.180000       12.0110           0
     34241 MEMB     256      POPC     H12R     HAL2     0.900000E-01   1.00800           0
     34242 MEMB     256      POPC     H12S     HAL2     0.900000E-01   1.00800           0
     34243 MEMB     256      POPC     C213     CTL2    -0.180000       12.0110           0
     34244 MEMB     256      POPC     H13R     HAL2     0.900000E-01   1.00800           0
     34245 MEMB     256      POPC     H13S     HAL2     0.900000E-01   1.00800           0
     34246 MEMB     256      POPC     C214     CTL2    -0.180000       12.0110           0
     34247 MEMB     256      POPC     H14R     HAL2     0.900000E-01   1.00800           0
     34248 MEMB     256      POPC     H14S     HAL2     0.900000E-01   1.00800           0
     34249 MEMB     256      POPC     C215     CTL2    -0.180000       12.0110           0
     34250 MEMB     256      POPC     H15R     HAL2     0.900000E-01   1.00800           0
     34251 MEMB     256      POPC     H15S     HAL2     0.900000E-01   1.00800           0
     34252 MEMB     256      POPC     C216     CTL2    -0.180000       12.0110           0
     34253 MEMB     256      POPC     H16R     HAL2     0.900000E-01   1.00800           0
     34254 MEMB     256      POPC     H16S     HAL2     0.900000E-01   1.00800           0
     34255 MEMB     256      POPC     C217     CTL2    -0.180000       12.0110           0
     34256 MEMB     256      POPC     H17R     HAL2     0.900000E-01   1.00800           0
     34257 MEMB     256      POPC     H17S     HAL2     0.900000E-01   1.00800           0
     34258 MEMB     256      POPC     C218     CTL3    -0.270000       12.0110           0
     34259 MEMB     256      POPC     H18R     HAL3     0.900000E-01   1.00800           0
     34260 MEMB     256      POPC     H18S     HAL3     0.900000E-01   1.00800           0
     34261 MEMB     256      POPC     H18T     HAL3     0.900000E-01   1.00800           0
     34262 MEMB     256      POPC     C33      CTL2    -0.180000       12.0110           0
     34263 MEMB     256      POPC     H3X      HAL2     0.900000E-01   1.00800           0
     34264 MEMB     256      POPC     H3Y      HAL2     0.900000E-01   1.00800           0
     34265 MEMB     256      POPC     C34      CTL2    -0.180000       12.0110           0
     34266 MEMB     256      POPC     H4X      HAL2     0.900000E-01   1.00800           0
     34267 MEMB     256      POPC     H4Y      HAL2     0.900000E-01   1.00800           0
     34268 MEMB     256      POPC     C35      CTL2    -0.180000       12.0110           0
     34269 MEMB     256      POPC     H5X      HAL2     0.900000E-01   1.00800           0
     34270 MEMB     256      POPC     H5Y      HAL2     0.900000E-01   1.00800           0
     34271 MEMB     256      POPC     C36      CTL2    -0.180000       12.0110           0
     34272 MEMB     256      POPC     H6X      HAL2     0.900000E-01   1.00800           0
     34273 MEMB     256      POPC     H6Y      HAL2     0.900000E-01   1.00800           0
     34274 MEMB     256      POPC     C37      CTL2    -0.180000       12.0110           0
     34275 MEMB     256      POPC     H7X      HAL2     0.900000E-01   1.00800           0
     34276 MEMB     256      POPC     H7Y      HAL2     0.900000E-01   1.00800           0
     34277 MEMB     256      POPC     C38      CTL2    -0.180000       12.0110           0
     34278 MEMB     256      POPC     H8X      HAL2     0.900000E-01   1.00800           0
     34279 MEMB     256      POPC     H8Y      HAL2     0.900000E-01   1.00800           0
     34280 MEMB     256      POPC     C39      CTL2    -0.180000       12.0110           0
     34281 MEMB     256      POPC     H9X      HAL2     0.900000E-01   1.00800           0
     34282 MEMB     256      POPC     H9Y      HAL2     0.900000E-01   1.00800           0
     34283 MEMB     256      POPC     C310     CTL2    -0.180000       12.0110           0
     34284 MEMB     256      POPC     H10X     HAL2     0.900000E-01   1.00800           0
     34285 MEMB     256      POPC     H10Y     HAL2     0.900000E-01   1.00800           0
     34286 MEMB     256      POPC     C311     CTL2    -0.180000       12.0110           0
     34287 MEMB     256      POPC     H11X     HAL2     0.900000E-01   1.00800           0
     34288 MEMB     256      POPC     H11Y     HAL2     0.900000E-01   1.00800           0
     34289 MEMB     256      POPC     C312     CTL2    -0.180000       12.0110           0
     34290 MEMB     256      POPC     H12X     HAL2     0.900000E-01   1.00800           0
     34291 MEMB     256      POPC     H12Y     HAL2     0.900000E-01   1.00800           0
     34292 MEMB     256      POPC     C313     CTL2    -0.180000       12.0110           0
     34293 MEMB     256      POPC     H13X     HAL2     0.900000E-01   1.00800           0
     34294 MEMB     256      POPC     H13Y     HAL2     0.900000E-01   1.00800           0
     34295 MEMB     256      POPC     C314     CTL2    -0.180000       12.0110           0
     34296 MEMB     256      POPC     H14X     HAL2     0.900000E-01   1.00800           0
     34297 MEMB     256      POPC     H14Y     HAL2     0.900000E-01   1.00800           0
     34298 MEMB     256      POPC     C315     CTL2    -0.180000       12.0110           0
     34299 MEMB     256      POPC     H15X     HAL2     0.900000E-01   1.00800           0
     34300 MEMB     256      POPC     H15Y     HAL2     0.900000E-01   1.00800           0
     34301 MEMB     256      POPC     C316     CTL3    -0.270000       12.0110           0
     34302 MEMB     256      POPC     H16X     HAL3     0.900000E-01   1.00800           0
     34303 MEMB     256      POPC     H16Y     HAL3     0.900000E-01   1.00800           0
     34304 MEMB     256      POPC     H16Z     HAL3     0.900000E-01   1.00800           0
     34305 MEMB     257      POPC     N        NTL     -0.600000       14.0070           0
     34306 MEMB     257      POPC     C12      CTL2    -0.100000       12.0110           0
     34307 MEMB     257      POPC     H12A     HL       0.250000       1.00800           0
     34308 MEMB     257      POPC     H12B     HL       0.250000       1.00800           0
     34309 MEMB     257      POPC     C13      CTL5    -0.350000       12.0110           0
     34310 MEMB     257      POPC     H13A     HL       0.250000       1.00800           0
     34311 MEMB     257      POPC     H13B     HL       0.250000       1.00800           0
     34312 MEMB     257      POPC     H13C     HL       0.250000       1.00800           0
     34313 MEMB     257      POPC     C14      CTL5    -0.350000       12.0110           0
     34314 MEMB     257      POPC     H14A     HL       0.250000       1.00800           0
     34315 MEMB     257      POPC     H14B     HL       0.250000       1.00800           0
     34316 MEMB     257      POPC     H14C     HL       0.250000       1.00800           0
     34317 MEMB     257      POPC     C15      CTL5    -0.350000       12.0110           0
     34318 MEMB     257      POPC     H15A     HL       0.250000       1.00800           0
     34319 MEMB     257      POPC     H15B     HL       0.250000       1.00800           0
     34320 MEMB     257      POPC     H15C     HL       0.250000       1.00800           0
     34321 MEMB     257      POPC     C11      CTL2    -0.800000E-01   12.0110           0
     34322 MEMB     257      POPC     H11A     HAL2     0.900000E-01   1.00800           0
     34323 MEMB     257      POPC     H11B     HAL2     0.900000E-01   1.00800           0
     34324 MEMB     257      POPC     P        PL       1.50000        30.9740           0
     34325 MEMB     257      POPC     O13      O2L     -0.780000       15.9994           0
     34326 MEMB     257      POPC     O14      O2L     -0.780000       15.9994           0
     34327 MEMB     257      POPC     O12      OSLP    -0.570000       15.9994           0
     34328 MEMB     257      POPC     O11      OSLP    -0.570000       15.9994           0
     34329 MEMB     257      POPC     C1       CTL2    -0.800000E-01   12.0110           0
     34330 MEMB     257      POPC     HA       HAL2     0.900000E-01   1.00800           0
     34331 MEMB     257      POPC     HB       HAL2     0.900000E-01   1.00800           0
     34332 MEMB     257      POPC     C2       CTL1     0.170000       12.0110           0
     34333 MEMB     257      POPC     HS       HAL1     0.900000E-01   1.00800           0
     34334 MEMB     257      POPC     O21      OSL     -0.490000       15.9994           0
     34335 MEMB     257      POPC     C21      CL       0.900000       12.0110           0
     34336 MEMB     257      POPC     O22      OBL     -0.630000       15.9994           0
     34337 MEMB     257      POPC     C22      CTL2    -0.220000       12.0110           0
     34338 MEMB     257      POPC     H2R      HAL2     0.900000E-01   1.00800           0
     34339 MEMB     257      POPC     H2S      HAL2     0.900000E-01   1.00800           0
     34340 MEMB     257      POPC     C3       CTL2     0.800000E-01   12.0110           0
     34341 MEMB     257      POPC     HX       HAL2     0.900000E-01   1.00800           0
     34342 MEMB     257      POPC     HY       HAL2     0.900000E-01   1.00800           0
     34343 MEMB     257      POPC     O31      OSL     -0.490000       15.9994           0
     34344 MEMB     257      POPC     C31      CL       0.900000       12.0110           0
     34345 MEMB     257      POPC     O32      OBL     -0.630000       15.9994           0
     34346 MEMB     257      POPC     C32      CTL2    -0.220000       12.0110           0
     34347 MEMB     257      POPC     H2X      HAL2     0.900000E-01   1.00800           0
     34348 MEMB     257      POPC     H2Y      HAL2     0.900000E-01   1.00800           0
     34349 MEMB     257      POPC     C23      CTL2    -0.180000       12.0110           0
     34350 MEMB     257      POPC     H3R      HAL2     0.900000E-01   1.00800           0
     34351 MEMB     257      POPC     H3S      HAL2     0.900000E-01   1.00800           0
     34352 MEMB     257      POPC     C24      CTL2    -0.180000       12.0110           0
     34353 MEMB     257      POPC     H4R      HAL2     0.900000E-01   1.00800           0
     34354 MEMB     257      POPC     H4S      HAL2     0.900000E-01   1.00800           0
     34355 MEMB     257      POPC     C25      CTL2    -0.180000       12.0110           0
     34356 MEMB     257      POPC     H5R      HAL2     0.900000E-01   1.00800           0
     34357 MEMB     257      POPC     H5S      HAL2     0.900000E-01   1.00800           0
     34358 MEMB     257      POPC     C26      CTL2    -0.180000       12.0110           0
     34359 MEMB     257      POPC     H6R      HAL2     0.900000E-01   1.00800           0
     34360 MEMB     257      POPC     H6S      HAL2     0.900000E-01   1.00800           0
     34361 MEMB     257      POPC     C27      CTL2    -0.180000       12.0110           0
     34362 MEMB     257      POPC     H7R      HAL2     0.900000E-01   1.00800           0
     34363 MEMB     257      POPC     H7S      HAL2     0.900000E-01   1.00800           0
     34364 MEMB     257      POPC     C28      CTL2    -0.180000       12.0110           0
     34365 MEMB     257      POPC     H8R      HAL2     0.900000E-01   1.00800           0
     34366 MEMB     257      POPC     H8S      HAL2     0.900000E-01   1.00800           0
     34367 MEMB     257      POPC     C29      CEL1    -0.150000       12.0110           0
     34368 MEMB     257      POPC     H91      HEL1     0.150000       1.00800           0
     34369 MEMB     257      POPC     C210     CEL1    -0.150000       12.0110           0
     34370 MEMB     257      POPC     H101     HEL1     0.150000       1.00800           0
     34371 MEMB     257      POPC     C211     CTL2    -0.180000       12.0110           0
     34372 MEMB     257      POPC     H11R     HAL2     0.900000E-01   1.00800           0
     34373 MEMB     257      POPC     H11S     HAL2     0.900000E-01   1.00800           0
     34374 MEMB     257      POPC     C212     CTL2    -0.180000       12.0110           0
     34375 MEMB     257      POPC     H12R     HAL2     0.900000E-01   1.00800           0
     34376 MEMB     257      POPC     H12S     HAL2     0.900000E-01   1.00800           0
     34377 MEMB     257      POPC     C213     CTL2    -0.180000       12.0110           0
     34378 MEMB     257      POPC     H13R     HAL2     0.900000E-01   1.00800           0
     34379 MEMB     257      POPC     H13S     HAL2     0.900000E-01   1.00800           0
     34380 MEMB     257      POPC     C214     CTL2    -0.180000       12.0110           0
     34381 MEMB     257      POPC     H14R     HAL2     0.900000E-01   1.00800           0
     34382 MEMB     257      POPC     H14S     HAL2     0.900000E-01   1.00800           0
     34383 MEMB     257      POPC     C215     CTL2    -0.180000       12.0110           0
     34384 MEMB     257      POPC     H15R     HAL2     0.900000E-01   1.00800           0
     34385 MEMB     257      POPC     H15S     HAL2     0.900000E-01   1.00800           0
     34386 MEMB     257      POPC     C216     CTL2    -0.180000       12.0110           0
     34387 MEMB     257      POPC     H16R     HAL2     0.900000E-01   1.00800           0
     34388 MEMB     257      POPC     H16S     HAL2     0.900000E-01   1.00800           0
     34389 MEMB     257      POPC     C217     CTL2    -0.180000       12.0110           0
     34390 MEMB     257      POPC     H17R     HAL2     0.900000E-01   1.00800           0
     34391 MEMB     257      POPC     H17S     HAL2     0.900000E-01   1.00800           0
     34392 MEMB     257      POPC     C218     CTL3    -0.270000       12.0110           0
     34393 MEMB     257      POPC     H18R     HAL3     0.900000E-01   1.00800           0
     34394 MEMB     257      POPC     H18S     HAL3     0.900000E-01   1.00800           0
     34395 MEMB     257      POPC     H18T     HAL3     0.900000E-01   1.00800           0
     34396 MEMB     257      POPC     C33      CTL2    -0.180000       12.0110           0
     34397 MEMB     257      POPC     H3X      HAL2     0.900000E-01   1.00800           0
     34398 MEMB     257      POPC     H3Y      HAL2     0.900000E-01   1.00800           0
     34399 MEMB     257      POPC     C34      CTL2    -0.180000       12.0110           0
     34400 MEMB     257      POPC     H4X      HAL2     0.900000E-01   1.00800           0
     34401 MEMB     257      POPC     H4Y      HAL2     0.900000E-01   1.00800           0
     34402 MEMB     257      POPC     C35      CTL2    -0.180000       12.0110           0
     34403 MEMB     257      POPC     H5X      HAL2     0.900000E-01   1.00800           0
     34404 MEMB     257      POPC     H5Y      HAL2     0.900000E-01   1.00800           0
     34405 MEMB     257      POPC     C36      CTL2    -0.180000       12.0110           0
     34406 MEMB     257      POPC     H6X      HAL2     0.900000E-01   1.00800           0
     34407 MEMB     257      POPC     H6Y      HAL2     0.900000E-01   1.00800           0
     34408 MEMB     257      POPC     C37      CTL2    -0.180000       12.0110           0
     34409 MEMB     257      POPC     H7X      HAL2     0.900000E-01   1.00800           0
     34410 MEMB     257      POPC     H7Y      HAL2     0.900000E-01   1.00800           0
     34411 MEMB     257      POPC     C38      CTL2    -0.180000       12.0110           0
     34412 MEMB     257      POPC     H8X      HAL2     0.900000E-01   1.00800           0
     34413 MEMB     257      POPC     H8Y      HAL2     0.900000E-01   1.00800           0
     34414 MEMB     257      POPC     C39      CTL2    -0.180000       12.0110           0
     34415 MEMB     257      POPC     H9X      HAL2     0.900000E-01   1.00800           0
     34416 MEMB     257      POPC     H9Y      HAL2     0.900000E-01   1.00800           0
     34417 MEMB     257      POPC     C310     CTL2    -0.180000       12.0110           0
     34418 MEMB     257      POPC     H10X     HAL2     0.900000E-01   1.00800           0
     34419 MEMB     257      POPC     H10Y     HAL2     0.900000E-01   1.00800           0
     34420 MEMB     257      POPC     C311     CTL2    -0.180000       12.0110           0
     34421 MEMB     257      POPC     H11X     HAL2     0.900000E-01   1.00800           0
     34422 MEMB     257      POPC     H11Y     HAL2     0.900000E-01   1.00800           0
     34423 MEMB     257      POPC     C312     CTL2    -0.180000       12.0110           0
     34424 MEMB     257      POPC     H12X     HAL2     0.900000E-01   1.00800           0
     34425 MEMB     257      POPC     H12Y     HAL2     0.900000E-01   1.00800           0
     34426 MEMB     257      POPC     C313     CTL2    -0.180000       12.0110           0
     34427 MEMB     257      POPC     H13X     HAL2     0.900000E-01   1.00800           0
     34428 MEMB     257      POPC     H13Y     HAL2     0.900000E-01   1.00800           0
     34429 MEMB     257      POPC     C314     CTL2    -0.180000       12.0110           0
     34430 MEMB     257      POPC     H14X     HAL2     0.900000E-01   1.00800           0
     34431 MEMB     257      POPC     H14Y     HAL2     0.900000E-01   1.00800           0
     34432 MEMB     257      POPC     C315     CTL2    -0.180000       12.0110           0
     34433 MEMB     257      POPC     H15X     HAL2     0.900000E-01   1.00800           0
     34434 MEMB     257      POPC     H15Y     HAL2     0.900000E-01   1.00800           0
     34435 MEMB     257      POPC     C316     CTL3    -0.270000       12.0110           0
     34436 MEMB     257      POPC     H16X     HAL3     0.900000E-01   1.00800           0
     34437 MEMB     257      POPC     H16Y     HAL3     0.900000E-01   1.00800           0
     34438 MEMB     257      POPC     H16Z     HAL3     0.900000E-01   1.00800           0
     34439 MEMB     258      POPC     N        NTL     -0.600000       14.0070           0
     34440 MEMB     258      POPC     C12      CTL2    -0.100000       12.0110           0
     34441 MEMB     258      POPC     H12A     HL       0.250000       1.00800           0
     34442 MEMB     258      POPC     H12B     HL       0.250000       1.00800           0
     34443 MEMB     258      POPC     C13      CTL5    -0.350000       12.0110           0
     34444 MEMB     258      POPC     H13A     HL       0.250000       1.00800           0
     34445 MEMB     258      POPC     H13B     HL       0.250000       1.00800           0
     34446 MEMB     258      POPC     H13C     HL       0.250000       1.00800           0
     34447 MEMB     258      POPC     C14      CTL5    -0.350000       12.0110           0
     34448 MEMB     258      POPC     H14A     HL       0.250000       1.00800           0
     34449 MEMB     258      POPC     H14B     HL       0.250000       1.00800           0
     34450 MEMB     258      POPC     H14C     HL       0.250000       1.00800           0
     34451 MEMB     258      POPC     C15      CTL5    -0.350000       12.0110           0
     34452 MEMB     258      POPC     H15A     HL       0.250000       1.00800           0
     34453 MEMB     258      POPC     H15B     HL       0.250000       1.00800           0
     34454 MEMB     258      POPC     H15C     HL       0.250000       1.00800           0
     34455 MEMB     258      POPC     C11      CTL2    -0.800000E-01   12.0110           0
     34456 MEMB     258      POPC     H11A     HAL2     0.900000E-01   1.00800           0
     34457 MEMB     258      POPC     H11B     HAL2     0.900000E-01   1.00800           0
     34458 MEMB     258      POPC     P        PL       1.50000        30.9740           0
     34459 MEMB     258      POPC     O13      O2L     -0.780000       15.9994           0
     34460 MEMB     258      POPC     O14      O2L     -0.780000       15.9994           0
     34461 MEMB     258      POPC     O12      OSLP    -0.570000       15.9994           0
     34462 MEMB     258      POPC     O11      OSLP    -0.570000       15.9994           0
     34463 MEMB     258      POPC     C1       CTL2    -0.800000E-01   12.0110           0
     34464 MEMB     258      POPC     HA       HAL2     0.900000E-01   1.00800           0
     34465 MEMB     258      POPC     HB       HAL2     0.900000E-01   1.00800           0
     34466 MEMB     258      POPC     C2       CTL1     0.170000       12.0110           0
     34467 MEMB     258      POPC     HS       HAL1     0.900000E-01   1.00800           0
     34468 MEMB     258      POPC     O21      OSL     -0.490000       15.9994           0
     34469 MEMB     258      POPC     C21      CL       0.900000       12.0110           0
     34470 MEMB     258      POPC     O22      OBL     -0.630000       15.9994           0
     34471 MEMB     258      POPC     C22      CTL2    -0.220000       12.0110           0
     34472 MEMB     258      POPC     H2R      HAL2     0.900000E-01   1.00800           0
     34473 MEMB     258      POPC     H2S      HAL2     0.900000E-01   1.00800           0
     34474 MEMB     258      POPC     C3       CTL2     0.800000E-01   12.0110           0
     34475 MEMB     258      POPC     HX       HAL2     0.900000E-01   1.00800           0
     34476 MEMB     258      POPC     HY       HAL2     0.900000E-01   1.00800           0
     34477 MEMB     258      POPC     O31      OSL     -0.490000       15.9994           0
     34478 MEMB     258      POPC     C31      CL       0.900000       12.0110           0
     34479 MEMB     258      POPC     O32      OBL     -0.630000       15.9994           0
     34480 MEMB     258      POPC     C32      CTL2    -0.220000       12.0110           0
     34481 MEMB     258      POPC     H2X      HAL2     0.900000E-01   1.00800           0
     34482 MEMB     258      POPC     H2Y      HAL2     0.900000E-01   1.00800           0
     34483 MEMB     258      POPC     C23      CTL2    -0.180000       12.0110           0
     34484 MEMB     258      POPC     H3R      HAL2     0.900000E-01   1.00800           0
     34485 MEMB     258      POPC     H3S      HAL2     0.900000E-01   1.00800           0
     34486 MEMB     258      POPC     C24      CTL2    -0.180000       12.0110           0
     34487 MEMB     258      POPC     H4R      HAL2     0.900000E-01   1.00800           0
     34488 MEMB     258      POPC     H4S      HAL2     0.900000E-01   1.00800           0
     34489 MEMB     258      POPC     C25      CTL2    -0.180000       12.0110           0
     34490 MEMB     258      POPC     H5R      HAL2     0.900000E-01   1.00800           0
     34491 MEMB     258      POPC     H5S      HAL2     0.900000E-01   1.00800           0
     34492 MEMB     258      POPC     C26      CTL2    -0.180000       12.0110           0
     34493 MEMB     258      POPC     H6R      HAL2     0.900000E-01   1.00800           0
     34494 MEMB     258      POPC     H6S      HAL2     0.900000E-01   1.00800           0
     34495 MEMB     258      POPC     C27      CTL2    -0.180000       12.0110           0
     34496 MEMB     258      POPC     H7R      HAL2     0.900000E-01   1.00800           0
     34497 MEMB     258      POPC     H7S      HAL2     0.900000E-01   1.00800           0
     34498 MEMB     258      POPC     C28      CTL2    -0.180000       12.0110           0
     34499 MEMB     258      POPC     H8R      HAL2     0.900000E-01   1.00800           0
     34500 MEMB     258      POPC     H8S      HAL2     0.900000E-01   1.00800           0
     34501 MEMB     258      POPC     C29      CEL1    -0.150000       12.0110           0
     34502 MEMB     258      POPC     H91      HEL1     0.150000       1.00800           0
     34503 MEMB     258      POPC     C210     CEL1    -0.150000       12.0110           0
     34504 MEMB     258      POPC     H101     HEL1     0.150000       1.00800           0
     34505 MEMB     258      POPC     C211     CTL2    -0.180000       12.0110           0
     34506 MEMB     258      POPC     H11R     HAL2     0.900000E-01   1.00800           0
     34507 MEMB     258      POPC     H11S     HAL2     0.900000E-01   1.00800           0
     34508 MEMB     258      POPC     C212     CTL2    -0.180000       12.0110           0
     34509 MEMB     258      POPC     H12R     HAL2     0.900000E-01   1.00800           0
     34510 MEMB     258      POPC     H12S     HAL2     0.900000E-01   1.00800           0
     34511 MEMB     258      POPC     C213     CTL2    -0.180000       12.0110           0
     34512 MEMB     258      POPC     H13R     HAL2     0.900000E-01   1.00800           0
     34513 MEMB     258      POPC     H13S     HAL2     0.900000E-01   1.00800           0
     34514 MEMB     258      POPC     C214     CTL2    -0.180000       12.0110           0
     34515 MEMB     258      POPC     H14R     HAL2     0.900000E-01   1.00800           0
     34516 MEMB     258      POPC     H14S     HAL2     0.900000E-01   1.00800           0
     34517 MEMB     258      POPC     C215     CTL2    -0.180000       12.0110           0
     34518 MEMB     258      POPC     H15R     HAL2     0.900000E-01   1.00800           0
     34519 MEMB     258      POPC     H15S     HAL2     0.900000E-01   1.00800           0
     34520 MEMB     258      POPC     C216     CTL2    -0.180000       12.0110           0
     34521 MEMB     258      POPC     H16R     HAL2     0.900000E-01   1.00800           0
     34522 MEMB     258      POPC     H16S     HAL2     0.900000E-01   1.00800           0
     34523 MEMB     258      POPC     C217     CTL2    -0.180000       12.0110           0
     34524 MEMB     258      POPC     H17R     HAL2     0.900000E-01   1.00800           0
     34525 MEMB     258      POPC     H17S     HAL2     0.900000E-01   1.00800           0
     34526 MEMB     258      POPC     C218     CTL3    -0.270000       12.0110           0
     34527 MEMB     258      POPC     H18R     HAL3     0.900000E-01   1.00800           0
     34528 MEMB     258      POPC     H18S     HAL3     0.900000E-01   1.00800           0
     34529 MEMB     258      POPC     H18T     HAL3     0.900000E-01   1.00800           0
     34530 MEMB     258      POPC     C33      CTL2    -0.180000       12.0110           0
     34531 MEMB     258      POPC     H3X      HAL2     0.900000E-01   1.00800           0
     34532 MEMB     258      POPC     H3Y      HAL2     0.900000E-01   1.00800           0
     34533 MEMB     258      POPC     C34      CTL2    -0.180000       12.0110           0
     34534 MEMB     258      POPC     H4X      HAL2     0.900000E-01   1.00800           0
     34535 MEMB     258      POPC     H4Y      HAL2     0.900000E-01   1.00800           0
     34536 MEMB     258      POPC     C35      CTL2    -0.180000       12.0110           0
     34537 MEMB     258      POPC     H5X      HAL2     0.900000E-01   1.00800           0
     34538 MEMB     258      POPC     H5Y      HAL2     0.900000E-01   1.00800           0
     34539 MEMB     258      POPC     C36      CTL2    -0.180000       12.0110           0
     34540 MEMB     258      POPC     H6X      HAL2     0.900000E-01   1.00800           0
     34541 MEMB     258      POPC     H6Y      HAL2     0.900000E-01   1.00800           0
     34542 MEMB     258      POPC     C37      CTL2    -0.180000       12.0110           0
     34543 MEMB     258      POPC     H7X      HAL2     0.900000E-01   1.00800           0
     34544 MEMB     258      POPC     H7Y      HAL2     0.900000E-01   1.00800           0
     34545 MEMB     258      POPC     C38      CTL2    -0.180000       12.0110           0
     34546 MEMB     258      POPC     H8X      HAL2     0.900000E-01   1.00800           0
     34547 MEMB     258      POPC     H8Y      HAL2     0.900000E-01   1.00800           0
     34548 MEMB     258      POPC     C39      CTL2    -0.180000       12.0110           0
     34549 MEMB     258      POPC     H9X      HAL2     0.900000E-01   1.00800           0
     34550 MEMB     258      POPC     H9Y      HAL2     0.900000E-01   1.00800           0
     34551 MEMB     258      POPC     C310     CTL2    -0.180000       12.0110           0
     34552 MEMB     258      POPC     H10X     HAL2     0.900000E-01   1.00800           0
     34553 MEMB     258      POPC     H10Y     HAL2     0.900000E-01   1.00800           0
     34554 MEMB     258      POPC     C311     CTL2    -0.180000       12.0110           0
     34555 MEMB     258      POPC     H11X     HAL2     0.900000E-01   1.00800           0
     34556 MEMB     258      POPC     H11Y     HAL2     0.900000E-01   1.00800           0
     34557 MEMB     258      POPC     C312     CTL2    -0.180000       12.0110           0
     34558 MEMB     258      POPC     H12X     HAL2     0.900000E-01   1.00800           0
     34559 MEMB     258      POPC     H12Y     HAL2     0.900000E-01   1.00800           0
     34560 MEMB     258      POPC     C313     CTL2    -0.180000       12.0110           0
     34561 MEMB     258      POPC     H13X     HAL2     0.900000E-01   1.00800           0
     34562 MEMB     258      POPC     H13Y     HAL2     0.900000E-01   1.00800           0
     34563 MEMB     258      POPC     C314     CTL2    -0.180000       12.0110           0
     34564 MEMB     258      POPC     H14X     HAL2     0.900000E-01   1.00800           0
     34565 MEMB     258      POPC     H14Y     HAL2     0.900000E-01   1.00800           0
     34566 MEMB     258      POPC     C315     CTL2    -0.180000       12.0110           0
     34567 MEMB     258      POPC     H15X     HAL2     0.900000E-01   1.00800           0
     34568 MEMB     258      POPC     H15Y     HAL2     0.900000E-01   1.00800           0
     34569 MEMB     258      POPC     C316     CTL3    -0.270000       12.0110           0
     34570 MEMB     258      POPC     H16X     HAL3     0.900000E-01   1.00800           0
     34571 MEMB     258      POPC     H16Y     HAL3     0.900000E-01   1.00800           0
     34572 MEMB     258      POPC     H16Z     HAL3     0.900000E-01   1.00800           0
     34573 MEMB     259      POPC     N        NTL     -0.600000       14.0070           0
     34574 MEMB     259      POPC     C12      CTL2    -0.100000       12.0110           0
     34575 MEMB     259      POPC     H12A     HL       0.250000       1.00800           0
     34576 MEMB     259      POPC     H12B     HL       0.250000       1.00800           0
     34577 MEMB     259      POPC     C13      CTL5    -0.350000       12.0110           0
     34578 MEMB     259      POPC     H13A     HL       0.250000       1.00800           0
     34579 MEMB     259      POPC     H13B     HL       0.250000       1.00800           0
     34580 MEMB     259      POPC     H13C     HL       0.250000       1.00800           0
     34581 MEMB     259      POPC     C14      CTL5    -0.350000       12.0110           0
     34582 MEMB     259      POPC     H14A     HL       0.250000       1.00800           0
     34583 MEMB     259      POPC     H14B     HL       0.250000       1.00800           0
     34584 MEMB     259      POPC     H14C     HL       0.250000       1.00800           0
     34585 MEMB     259      POPC     C15      CTL5    -0.350000       12.0110           0
     34586 MEMB     259      POPC     H15A     HL       0.250000       1.00800           0
     34587 MEMB     259      POPC     H15B     HL       0.250000       1.00800           0
     34588 MEMB     259      POPC     H15C     HL       0.250000       1.00800           0
     34589 MEMB     259      POPC     C11      CTL2    -0.800000E-01   12.0110           0
     34590 MEMB     259      POPC     H11A     HAL2     0.900000E-01   1.00800           0
     34591 MEMB     259      POPC     H11B     HAL2     0.900000E-01   1.00800           0
     34592 MEMB     259      POPC     P        PL       1.50000        30.9740           0
     34593 MEMB     259      POPC     O13      O2L     -0.780000       15.9994           0
     34594 MEMB     259      POPC     O14      O2L     -0.780000       15.9994           0
     34595 MEMB     259      POPC     O12      OSLP    -0.570000       15.9994           0
     34596 MEMB     259      POPC     O11      OSLP    -0.570000       15.9994           0
     34597 MEMB     259      POPC     C1       CTL2    -0.800000E-01   12.0110           0
     34598 MEMB     259      POPC     HA       HAL2     0.900000E-01   1.00800           0
     34599 MEMB     259      POPC     HB       HAL2     0.900000E-01   1.00800           0
     34600 MEMB     259      POPC     C2       CTL1     0.170000       12.0110           0
     34601 MEMB     259      POPC     HS       HAL1     0.900000E-01   1.00800           0
     34602 MEMB     259      POPC     O21      OSL     -0.490000       15.9994           0
     34603 MEMB     259      POPC     C21      CL       0.900000       12.0110           0
     34604 MEMB     259      POPC     O22      OBL     -0.630000       15.9994           0
     34605 MEMB     259      POPC     C22      CTL2    -0.220000       12.0110           0
     34606 MEMB     259      POPC     H2R      HAL2     0.900000E-01   1.00800           0
     34607 MEMB     259      POPC     H2S      HAL2     0.900000E-01   1.00800           0
     34608 MEMB     259      POPC     C3       CTL2     0.800000E-01   12.0110           0
     34609 MEMB     259      POPC     HX       HAL2     0.900000E-01   1.00800           0
     34610 MEMB     259      POPC     HY       HAL2     0.900000E-01   1.00800           0
     34611 MEMB     259      POPC     O31      OSL     -0.490000       15.9994           0
     34612 MEMB     259      POPC     C31      CL       0.900000       12.0110           0
     34613 MEMB     259      POPC     O32      OBL     -0.630000       15.9994           0
     34614 MEMB     259      POPC     C32      CTL2    -0.220000       12.0110           0
     34615 MEMB     259      POPC     H2X      HAL2     0.900000E-01   1.00800           0
     34616 MEMB     259      POPC     H2Y      HAL2     0.900000E-01   1.00800           0
     34617 MEMB     259      POPC     C23      CTL2    -0.180000       12.0110           0
     34618 MEMB     259      POPC     H3R      HAL2     0.900000E-01   1.00800           0
     34619 MEMB     259      POPC     H3S      HAL2     0.900000E-01   1.00800           0
     34620 MEMB     259      POPC     C24      CTL2    -0.180000       12.0110           0
     34621 MEMB     259      POPC     H4R      HAL2     0.900000E-01   1.00800           0
     34622 MEMB     259      POPC     H4S      HAL2     0.900000E-01   1.00800           0
     34623 MEMB     259      POPC     C25      CTL2    -0.180000       12.0110           0
     34624 MEMB     259      POPC     H5R      HAL2     0.900000E-01   1.00800           0
     34625 MEMB     259      POPC     H5S      HAL2     0.900000E-01   1.00800           0
     34626 MEMB     259      POPC     C26      CTL2    -0.180000       12.0110           0
     34627 MEMB     259      POPC     H6R      HAL2     0.900000E-01   1.00800           0
     34628 MEMB     259      POPC     H6S      HAL2     0.900000E-01   1.00800           0
     34629 MEMB     259      POPC     C27      CTL2    -0.180000       12.0110           0
     34630 MEMB     259      POPC     H7R      HAL2     0.900000E-01   1.00800           0
     34631 MEMB     259      POPC     H7S      HAL2     0.900000E-01   1.00800           0
     34632 MEMB     259      POPC     C28      CTL2    -0.180000       12.0110           0
     34633 MEMB     259      POPC     H8R      HAL2     0.900000E-01   1.00800           0
     34634 MEMB     259      POPC     H8S      HAL2     0.900000E-01   1.00800           0
     34635 MEMB     259      POPC     C29      CEL1    -0.150000       12.0110           0
     34636 MEMB     259      POPC     H91      HEL1     0.150000       1.00800           0
     34637 MEMB     259      POPC     C210     CEL1    -0.150000       12.0110           0
     34638 MEMB     259      POPC     H101     HEL1     0.150000       1.00800           0
     34639 MEMB     259      POPC     C211     CTL2    -0.180000       12.0110           0
     34640 MEMB     259      POPC     H11R     HAL2     0.900000E-01   1.00800           0
     34641 MEMB     259      POPC     H11S     HAL2     0.900000E-01   1.00800           0
     34642 MEMB     259      POPC     C212     CTL2    -0.180000       12.0110           0
     34643 MEMB     259      POPC     H12R     HAL2     0.900000E-01   1.00800           0
     34644 MEMB     259      POPC     H12S     HAL2     0.900000E-01   1.00800           0
     34645 MEMB     259      POPC     C213     CTL2    -0.180000       12.0110           0
     34646 MEMB     259      POPC     H13R     HAL2     0.900000E-01   1.00800           0
     34647 MEMB     259      POPC     H13S     HAL2     0.900000E-01   1.00800           0
     34648 MEMB     259      POPC     C214     CTL2    -0.180000       12.0110           0
     34649 MEMB     259      POPC     H14R     HAL2     0.900000E-01   1.00800           0
     34650 MEMB     259      POPC     H14S     HAL2     0.900000E-01   1.00800           0
     34651 MEMB     259      POPC     C215     CTL2    -0.180000       12.0110           0
     34652 MEMB     259      POPC     H15R     HAL2     0.900000E-01   1.00800           0
     34653 MEMB     259      POPC     H15S     HAL2     0.900000E-01   1.00800           0
     34654 MEMB     259      POPC     C216     CTL2    -0.180000       12.0110           0
     34655 MEMB     259      POPC     H16R     HAL2     0.900000E-01   1.00800           0
     34656 MEMB     259      POPC     H16S     HAL2     0.900000E-01   1.00800           0
     34657 MEMB     259      POPC     C217     CTL2    -0.180000       12.0110           0
     34658 MEMB     259      POPC     H17R     HAL2     0.900000E-01   1.00800           0
     34659 MEMB     259      POPC     H17S     HAL2     0.900000E-01   1.00800           0
     34660 MEMB     259      POPC     C218     CTL3    -0.270000       12.0110           0
     34661 MEMB     259      POPC     H18R     HAL3     0.900000E-01   1.00800           0
     34662 MEMB     259      POPC     H18S     HAL3     0.900000E-01   1.00800           0
     34663 MEMB     259      POPC     H18T     HAL3     0.900000E-01   1.00800           0
     34664 MEMB     259      POPC     C33      CTL2    -0.180000       12.0110           0
     34665 MEMB     259      POPC     H3X      HAL2     0.900000E-01   1.00800           0
     34666 MEMB     259      POPC     H3Y      HAL2     0.900000E-01   1.00800           0
     34667 MEMB     259      POPC     C34      CTL2    -0.180000       12.0110           0
     34668 MEMB     259      POPC     H4X      HAL2     0.900000E-01   1.00800           0
     34669 MEMB     259      POPC     H4Y      HAL2     0.900000E-01   1.00800           0
     34670 MEMB     259      POPC     C35      CTL2    -0.180000       12.0110           0
     34671 MEMB     259      POPC     H5X      HAL2     0.900000E-01   1.00800           0
     34672 MEMB     259      POPC     H5Y      HAL2     0.900000E-01   1.00800           0
     34673 MEMB     259      POPC     C36      CTL2    -0.180000       12.0110           0
     34674 MEMB     259      POPC     H6X      HAL2     0.900000E-01   1.00800           0
     34675 MEMB     259      POPC     H6Y      HAL2     0.900000E-01   1.00800           0
     34676 MEMB     259      POPC     C37      CTL2    -0.180000       12.0110           0
     34677 MEMB     259      POPC     H7X      HAL2     0.900000E-01   1.00800           0
     34678 MEMB     259      POPC     H7Y      HAL2     0.900000E-01   1.00800           0
     34679 MEMB     259      POPC     C38      CTL2    -0.180000       12.0110           0
     34680 MEMB     259      POPC     H8X      HAL2     0.900000E-01   1.00800           0
     34681 MEMB     259      POPC     H8Y      HAL2     0.900000E-01   1.00800           0
     34682 MEMB     259      POPC     C39      CTL2    -0.180000       12.0110           0
     34683 MEMB     259      POPC     H9X      HAL2     0.900000E-01   1.00800           0
     34684 MEMB     259      POPC     H9Y      HAL2     0.900000E-01   1.00800           0
     34685 MEMB     259      POPC     C310     CTL2    -0.180000       12.0110           0
     34686 MEMB     259      POPC     H10X     HAL2     0.900000E-01   1.00800           0
     34687 MEMB     259      POPC     H10Y     HAL2     0.900000E-01   1.00800           0
     34688 MEMB     259      POPC     C311     CTL2    -0.180000       12.0110           0
     34689 MEMB     259      POPC     H11X     HAL2     0.900000E-01   1.00800           0
     34690 MEMB     259      POPC     H11Y     HAL2     0.900000E-01   1.00800           0
     34691 MEMB     259      POPC     C312     CTL2    -0.180000       12.0110           0
     34692 MEMB     259      POPC     H12X     HAL2     0.900000E-01   1.00800           0
     34693 MEMB     259      POPC     H12Y     HAL2     0.900000E-01   1.00800           0
     34694 MEMB     259      POPC     C313     CTL2    -0.180000       12.0110           0
     34695 MEMB     259      POPC     H13X     HAL2     0.900000E-01   1.00800           0
     34696 MEMB     259      POPC     H13Y     HAL2     0.900000E-01   1.00800           0
     34697 MEMB     259      POPC     C314     CTL2    -0.180000       12.0110           0
     34698 MEMB     259      POPC     H14X     HAL2     0.900000E-01   1.00800           0
     34699 MEMB     259      POPC     H14Y     HAL2     0.900000E-01   1.00800           0
     34700 MEMB     259      POPC     C315     CTL2    -0.180000       12.0110           0
     34701 MEMB     259      POPC     H15X     HAL2     0.900000E-01   1.00800           0
     34702 MEMB     259      POPC     H15Y     HAL2     0.900000E-01   1.00800           0
     34703 MEMB     259      POPC     C316     CTL3    -0.270000       12.0110           0
     34704 MEMB     259      POPC     H16X     HAL3     0.900000E-01   1.00800           0
     34705 MEMB     259      POPC     H16Y     HAL3     0.900000E-01   1.00800           0
     34706 MEMB     259      POPC     H16Z     HAL3     0.900000E-01   1.00800           0
     34707 MEMB     260      POPC     N        NTL     -0.600000       14.0070           0
     34708 MEMB     260      POPC     C12      CTL2    -0.100000       12.0110           0
     34709 MEMB     260      POPC     H12A     HL       0.250000       1.00800           0
     34710 MEMB     260      POPC     H12B     HL       0.250000       1.00800           0
     34711 MEMB     260      POPC     C13      CTL5    -0.350000       12.0110           0
     34712 MEMB     260      POPC     H13A     HL       0.250000       1.00800           0
     34713 MEMB     260      POPC     H13B     HL       0.250000       1.00800           0
     34714 MEMB     260      POPC     H13C     HL       0.250000       1.00800           0
     34715 MEMB     260      POPC     C14      CTL5    -0.350000       12.0110           0
     34716 MEMB     260      POPC     H14A     HL       0.250000       1.00800           0
     34717 MEMB     260      POPC     H14B     HL       0.250000       1.00800           0
     34718 MEMB     260      POPC     H14C     HL       0.250000       1.00800           0
     34719 MEMB     260      POPC     C15      CTL5    -0.350000       12.0110           0
     34720 MEMB     260      POPC     H15A     HL       0.250000       1.00800           0
     34721 MEMB     260      POPC     H15B     HL       0.250000       1.00800           0
     34722 MEMB     260      POPC     H15C     HL       0.250000       1.00800           0
     34723 MEMB     260      POPC     C11      CTL2    -0.800000E-01   12.0110           0
     34724 MEMB     260      POPC     H11A     HAL2     0.900000E-01   1.00800           0
     34725 MEMB     260      POPC     H11B     HAL2     0.900000E-01   1.00800           0
     34726 MEMB     260      POPC     P        PL       1.50000        30.9740           0
     34727 MEMB     260      POPC     O13      O2L     -0.780000       15.9994           0
     34728 MEMB     260      POPC     O14      O2L     -0.780000       15.9994           0
     34729 MEMB     260      POPC     O12      OSLP    -0.570000       15.9994           0
     34730 MEMB     260      POPC     O11      OSLP    -0.570000       15.9994           0
     34731 MEMB     260      POPC     C1       CTL2    -0.800000E-01   12.0110           0
     34732 MEMB     260      POPC     HA       HAL2     0.900000E-01   1.00800           0
     34733 MEMB     260      POPC     HB       HAL2     0.900000E-01   1.00800           0
     34734 MEMB     260      POPC     C2       CTL1     0.170000       12.0110           0
     34735 MEMB     260      POPC     HS       HAL1     0.900000E-01   1.00800           0
     34736 MEMB     260      POPC     O21      OSL     -0.490000       15.9994           0
     34737 MEMB     260      POPC     C21      CL       0.900000       12.0110           0
     34738 MEMB     260      POPC     O22      OBL     -0.630000       15.9994           0
     34739 MEMB     260      POPC     C22      CTL2    -0.220000       12.0110           0
     34740 MEMB     260      POPC     H2R      HAL2     0.900000E-01   1.00800           0
     34741 MEMB     260      POPC     H2S      HAL2     0.900000E-01   1.00800           0
     34742 MEMB     260      POPC     C3       CTL2     0.800000E-01   12.0110           0
     34743 MEMB     260      POPC     HX       HAL2     0.900000E-01   1.00800           0
     34744 MEMB     260      POPC     HY       HAL2     0.900000E-01   1.00800           0
     34745 MEMB     260      POPC     O31      OSL     -0.490000       15.9994           0
     34746 MEMB     260      POPC     C31      CL       0.900000       12.0110           0
     34747 MEMB     260      POPC     O32      OBL     -0.630000       15.9994           0
     34748 MEMB     260      POPC     C32      CTL2    -0.220000       12.0110           0
     34749 MEMB     260      POPC     H2X      HAL2     0.900000E-01   1.00800           0
     34750 MEMB     260      POPC     H2Y      HAL2     0.900000E-01   1.00800           0
     34751 MEMB     260      POPC     C23      CTL2    -0.180000       12.0110           0
     34752 MEMB     260      POPC     H3R      HAL2     0.900000E-01   1.00800           0
     34753 MEMB     260      POPC     H3S      HAL2     0.900000E-01   1.00800           0
     34754 MEMB     260      POPC     C24      CTL2    -0.180000       12.0110           0
     34755 MEMB     260      POPC     H4R      HAL2     0.900000E-01   1.00800           0
     34756 MEMB     260      POPC     H4S      HAL2     0.900000E-01   1.00800           0
     34757 MEMB     260      POPC     C25      CTL2    -0.180000       12.0110           0
     34758 MEMB     260      POPC     H5R      HAL2     0.900000E-01   1.00800           0
     34759 MEMB     260      POPC     H5S      HAL2     0.900000E-01   1.00800           0
     34760 MEMB     260      POPC     C26      CTL2    -0.180000       12.0110           0
     34761 MEMB     260      POPC     H6R      HAL2     0.900000E-01   1.00800           0
     34762 MEMB     260      POPC     H6S      HAL2     0.900000E-01   1.00800           0
     34763 MEMB     260      POPC     C27      CTL2    -0.180000       12.0110           0
     34764 MEMB     260      POPC     H7R      HAL2     0.900000E-01   1.00800           0
     34765 MEMB     260      POPC     H7S      HAL2     0.900000E-01   1.00800           0
     34766 MEMB     260      POPC     C28      CTL2    -0.180000       12.0110           0
     34767 MEMB     260      POPC     H8R      HAL2     0.900000E-01   1.00800           0
     34768 MEMB     260      POPC     H8S      HAL2     0.900000E-01   1.00800           0
     34769 MEMB     260      POPC     C29      CEL1    -0.150000       12.0110           0
     34770 MEMB     260      POPC     H91      HEL1     0.150000       1.00800           0
     34771 MEMB     260      POPC     C210     CEL1    -0.150000       12.0110           0
     34772 MEMB     260      POPC     H101     HEL1     0.150000       1.00800           0
     34773 MEMB     260      POPC     C211     CTL2    -0.180000       12.0110           0
     34774 MEMB     260      POPC     H11R     HAL2     0.900000E-01   1.00800           0
     34775 MEMB     260      POPC     H11S     HAL2     0.900000E-01   1.00800           0
     34776 MEMB     260      POPC     C212     CTL2    -0.180000       12.0110           0
     34777 MEMB     260      POPC     H12R     HAL2     0.900000E-01   1.00800           0
     34778 MEMB     260      POPC     H12S     HAL2     0.900000E-01   1.00800           0
     34779 MEMB     260      POPC     C213     CTL2    -0.180000       12.0110           0
     34780 MEMB     260      POPC     H13R     HAL2     0.900000E-01   1.00800           0
     34781 MEMB     260      POPC     H13S     HAL2     0.900000E-01   1.00800           0
     34782 MEMB     260      POPC     C214     CTL2    -0.180000       12.0110           0
     34783 MEMB     260      POPC     H14R     HAL2     0.900000E-01   1.00800           0
     34784 MEMB     260      POPC     H14S     HAL2     0.900000E-01   1.00800           0
     34785 MEMB     260      POPC     C215     CTL2    -0.180000       12.0110           0
     34786 MEMB     260      POPC     H15R     HAL2     0.900000E-01   1.00800           0
     34787 MEMB     260      POPC     H15S     HAL2     0.900000E-01   1.00800           0
     34788 MEMB     260      POPC     C216     CTL2    -0.180000       12.0110           0
     34789 MEMB     260      POPC     H16R     HAL2     0.900000E-01   1.00800           0
     34790 MEMB     260      POPC     H16S     HAL2     0.900000E-01   1.00800           0
     34791 MEMB     260      POPC     C217     CTL2    -0.180000       12.0110           0
     34792 MEMB     260      POPC     H17R     HAL2     0.900000E-01   1.00800           0
     34793 MEMB     260      POPC     H17S     HAL2     0.900000E-01   1.00800           0
     34794 MEMB     260      POPC     C218     CTL3    -0.270000       12.0110           0
     34795 MEMB     260      POPC     H18R     HAL3     0.900000E-01   1.00800           0
     34796 MEMB     260      POPC     H18S     HAL3     0.900000E-01   1.00800           0
     34797 MEMB     260      POPC     H18T     HAL3     0.900000E-01   1.00800           0
     34798 MEMB     260      POPC     C33      CTL2    -0.180000       12.0110           0
     34799 MEMB     260      POPC     H3X      HAL2     0.900000E-01   1.00800           0
     34800 MEMB     260      POPC     H3Y      HAL2     0.900000E-01   1.00800           0
     34801 MEMB     260      POPC     C34      CTL2    -0.180000       12.0110           0
     34802 MEMB     260      POPC     H4X      HAL2     0.900000E-01   1.00800           0
     34803 MEMB     260      POPC     H4Y      HAL2     0.900000E-01   1.00800           0
     34804 MEMB     260      POPC     C35      CTL2    -0.180000       12.0110           0
     34805 MEMB     260      POPC     H5X      HAL2     0.900000E-01   1.00800           0
     34806 MEMB     260      POPC     H5Y      HAL2     0.900000E-01   1.00800           0
     34807 MEMB     260      POPC     C36      CTL2    -0.180000       12.0110           0
     34808 MEMB     260      POPC     H6X      HAL2     0.900000E-01   1.00800           0
     34809 MEMB     260      POPC     H6Y      HAL2     0.900000E-01   1.00800           0
     34810 MEMB     260      POPC     C37      CTL2    -0.180000       12.0110           0
     34811 MEMB     260      POPC     H7X      HAL2     0.900000E-01   1.00800           0
     34812 MEMB     260      POPC     H7Y      HAL2     0.900000E-01   1.00800           0
     34813 MEMB     260      POPC     C38      CTL2    -0.180000       12.0110           0
     34814 MEMB     260      POPC     H8X      HAL2     0.900000E-01   1.00800           0
     34815 MEMB     260      POPC     H8Y      HAL2     0.900000E-01   1.00800           0
     34816 MEMB     260      POPC     C39      CTL2    -0.180000       12.0110           0
     34817 MEMB     260      POPC     H9X      HAL2     0.900000E-01   1.00800           0
     34818 MEMB     260      POPC     H9Y      HAL2     0.900000E-01   1.00800           0
     34819 MEMB     260      POPC     C310     CTL2    -0.180000       12.0110           0
     34820 MEMB     260      POPC     H10X     HAL2     0.900000E-01   1.00800           0
     34821 MEMB     260      POPC     H10Y     HAL2     0.900000E-01   1.00800           0
     34822 MEMB     260      POPC     C311     CTL2    -0.180000       12.0110           0
     34823 MEMB     260      POPC     H11X     HAL2     0.900000E-01   1.00800           0
     34824 MEMB     260      POPC     H11Y     HAL2     0.900000E-01   1.00800           0
     34825 MEMB     260      POPC     C312     CTL2    -0.180000       12.0110           0
     34826 MEMB     260      POPC     H12X     HAL2     0.900000E-01   1.00800           0
     34827 MEMB     260      POPC     H12Y     HAL2     0.900000E-01   1.00800           0
     34828 MEMB     260      POPC     C313     CTL2    -0.180000       12.0110           0
     34829 MEMB     260      POPC     H13X     HAL2     0.900000E-01   1.00800           0
     34830 MEMB     260      POPC     H13Y     HAL2     0.900000E-01   1.00800           0
     34831 MEMB     260      POPC     C314     CTL2    -0.180000       12.0110           0
     34832 MEMB     260      POPC     H14X     HAL2     0.900000E-01   1.00800           0
     34833 MEMB     260      POPC     H14Y     HAL2     0.900000E-01   1.00800           0
     34834 MEMB     260      POPC     C315     CTL2    -0.180000       12.0110           0
     34835 MEMB     260      POPC     H15X     HAL2     0.900000E-01   1.00800           0
     34836 MEMB     260      POPC     H15Y     HAL2     0.900000E-01   1.00800           0
     34837 MEMB     260      POPC     C316     CTL3    -0.270000       12.0110           0
     34838 MEMB     260      POPC     H16X     HAL3     0.900000E-01   1.00800           0
     34839 MEMB     260      POPC     H16Y     HAL3     0.900000E-01   1.00800           0
     34840 MEMB     260      POPC     H16Z     HAL3     0.900000E-01   1.00800           0
     34841 MEMB     261      POPC     N        NTL     -0.600000       14.0070           0
     34842 MEMB     261      POPC     C12      CTL2    -0.100000       12.0110           0
     34843 MEMB     261      POPC     H12A     HL       0.250000       1.00800           0
     34844 MEMB     261      POPC     H12B     HL       0.250000       1.00800           0
     34845 MEMB     261      POPC     C13      CTL5    -0.350000       12.0110           0
     34846 MEMB     261      POPC     H13A     HL       0.250000       1.00800           0
     34847 MEMB     261      POPC     H13B     HL       0.250000       1.00800           0
     34848 MEMB     261      POPC     H13C     HL       0.250000       1.00800           0
     34849 MEMB     261      POPC     C14      CTL5    -0.350000       12.0110           0
     34850 MEMB     261      POPC     H14A     HL       0.250000       1.00800           0
     34851 MEMB     261      POPC     H14B     HL       0.250000       1.00800           0
     34852 MEMB     261      POPC     H14C     HL       0.250000       1.00800           0
     34853 MEMB     261      POPC     C15      CTL5    -0.350000       12.0110           0
     34854 MEMB     261      POPC     H15A     HL       0.250000       1.00800           0
     34855 MEMB     261      POPC     H15B     HL       0.250000       1.00800           0
     34856 MEMB     261      POPC     H15C     HL       0.250000       1.00800           0
     34857 MEMB     261      POPC     C11      CTL2    -0.800000E-01   12.0110           0
     34858 MEMB     261      POPC     H11A     HAL2     0.900000E-01   1.00800           0
     34859 MEMB     261      POPC     H11B     HAL2     0.900000E-01   1.00800           0
     34860 MEMB     261      POPC     P        PL       1.50000        30.9740           0
     34861 MEMB     261      POPC     O13      O2L     -0.780000       15.9994           0
     34862 MEMB     261      POPC     O14      O2L     -0.780000       15.9994           0
     34863 MEMB     261      POPC     O12      OSLP    -0.570000       15.9994           0
     34864 MEMB     261      POPC     O11      OSLP    -0.570000       15.9994           0
     34865 MEMB     261      POPC     C1       CTL2    -0.800000E-01   12.0110           0
     34866 MEMB     261      POPC     HA       HAL2     0.900000E-01   1.00800           0
     34867 MEMB     261      POPC     HB       HAL2     0.900000E-01   1.00800           0
     34868 MEMB     261      POPC     C2       CTL1     0.170000       12.0110           0
     34869 MEMB     261      POPC     HS       HAL1     0.900000E-01   1.00800           0
     34870 MEMB     261      POPC     O21      OSL     -0.490000       15.9994           0
     34871 MEMB     261      POPC     C21      CL       0.900000       12.0110           0
     34872 MEMB     261      POPC     O22      OBL     -0.630000       15.9994           0
     34873 MEMB     261      POPC     C22      CTL2    -0.220000       12.0110           0
     34874 MEMB     261      POPC     H2R      HAL2     0.900000E-01   1.00800           0
     34875 MEMB     261      POPC     H2S      HAL2     0.900000E-01   1.00800           0
     34876 MEMB     261      POPC     C3       CTL2     0.800000E-01   12.0110           0
     34877 MEMB     261      POPC     HX       HAL2     0.900000E-01   1.00800           0
     34878 MEMB     261      POPC     HY       HAL2     0.900000E-01   1.00800           0
     34879 MEMB     261      POPC     O31      OSL     -0.490000       15.9994           0
     34880 MEMB     261      POPC     C31      CL       0.900000       12.0110           0
     34881 MEMB     261      POPC     O32      OBL     -0.630000       15.9994           0
     34882 MEMB     261      POPC     C32      CTL2    -0.220000       12.0110           0
     34883 MEMB     261      POPC     H2X      HAL2     0.900000E-01   1.00800           0
     34884 MEMB     261      POPC     H2Y      HAL2     0.900000E-01   1.00800           0
     34885 MEMB     261      POPC     C23      CTL2    -0.180000       12.0110           0
     34886 MEMB     261      POPC     H3R      HAL2     0.900000E-01   1.00800           0
     34887 MEMB     261      POPC     H3S      HAL2     0.900000E-01   1.00800           0
     34888 MEMB     261      POPC     C24      CTL2    -0.180000       12.0110           0
     34889 MEMB     261      POPC     H4R      HAL2     0.900000E-01   1.00800           0
     34890 MEMB     261      POPC     H4S      HAL2     0.900000E-01   1.00800           0
     34891 MEMB     261      POPC     C25      CTL2    -0.180000       12.0110           0
     34892 MEMB     261      POPC     H5R      HAL2     0.900000E-01   1.00800           0
     34893 MEMB     261      POPC     H5S      HAL2     0.900000E-01   1.00800           0
     34894 MEMB     261      POPC     C26      CTL2    -0.180000       12.0110           0
     34895 MEMB     261      POPC     H6R      HAL2     0.900000E-01   1.00800           0
     34896 MEMB     261      POPC     H6S      HAL2     0.900000E-01   1.00800           0
     34897 MEMB     261      POPC     C27      CTL2    -0.180000       12.0110           0
     34898 MEMB     261      POPC     H7R      HAL2     0.900000E-01   1.00800           0
     34899 MEMB     261      POPC     H7S      HAL2     0.900000E-01   1.00800           0
     34900 MEMB     261      POPC     C28      CTL2    -0.180000       12.0110           0
     34901 MEMB     261      POPC     H8R      HAL2     0.900000E-01   1.00800           0
     34902 MEMB     261      POPC     H8S      HAL2     0.900000E-01   1.00800           0
     34903 MEMB     261      POPC     C29      CEL1    -0.150000       12.0110           0
     34904 MEMB     261      POPC     H91      HEL1     0.150000       1.00800           0
     34905 MEMB     261      POPC     C210     CEL1    -0.150000       12.0110           0
     34906 MEMB     261      POPC     H101     HEL1     0.150000       1.00800           0
     34907 MEMB     261      POPC     C211     CTL2    -0.180000       12.0110           0
     34908 MEMB     261      POPC     H11R     HAL2     0.900000E-01   1.00800           0
     34909 MEMB     261      POPC     H11S     HAL2     0.900000E-01   1.00800           0
     34910 MEMB     261      POPC     C212     CTL2    -0.180000       12.0110           0
     34911 MEMB     261      POPC     H12R     HAL2     0.900000E-01   1.00800           0
     34912 MEMB     261      POPC     H12S     HAL2     0.900000E-01   1.00800           0
     34913 MEMB     261      POPC     C213     CTL2    -0.180000       12.0110           0
     34914 MEMB     261      POPC     H13R     HAL2     0.900000E-01   1.00800           0
     34915 MEMB     261      POPC     H13S     HAL2     0.900000E-01   1.00800           0
     34916 MEMB     261      POPC     C214     CTL2    -0.180000       12.0110           0
     34917 MEMB     261      POPC     H14R     HAL2     0.900000E-01   1.00800           0
     34918 MEMB     261      POPC     H14S     HAL2     0.900000E-01   1.00800           0
     34919 MEMB     261      POPC     C215     CTL2    -0.180000       12.0110           0
     34920 MEMB     261      POPC     H15R     HAL2     0.900000E-01   1.00800           0
     34921 MEMB     261      POPC     H15S     HAL2     0.900000E-01   1.00800           0
     34922 MEMB     261      POPC     C216     CTL2    -0.180000       12.0110           0
     34923 MEMB     261      POPC     H16R     HAL2     0.900000E-01   1.00800           0
     34924 MEMB     261      POPC     H16S     HAL2     0.900000E-01   1.00800           0
     34925 MEMB     261      POPC     C217     CTL2    -0.180000       12.0110           0
     34926 MEMB     261      POPC     H17R     HAL2     0.900000E-01   1.00800           0
     34927 MEMB     261      POPC     H17S     HAL2     0.900000E-01   1.00800           0
     34928 MEMB     261      POPC     C218     CTL3    -0.270000       12.0110           0
     34929 MEMB     261      POPC     H18R     HAL3     0.900000E-01   1.00800           0
     34930 MEMB     261      POPC     H18S     HAL3     0.900000E-01   1.00800           0
     34931 MEMB     261      POPC     H18T     HAL3     0.900000E-01   1.00800           0
     34932 MEMB     261      POPC     C33      CTL2    -0.180000       12.0110           0
     34933 MEMB     261      POPC     H3X      HAL2     0.900000E-01   1.00800           0
     34934 MEMB     261      POPC     H3Y      HAL2     0.900000E-01   1.00800           0
     34935 MEMB     261      POPC     C34      CTL2    -0.180000       12.0110           0
     34936 MEMB     261      POPC     H4X      HAL2     0.900000E-01   1.00800           0
     34937 MEMB     261      POPC     H4Y      HAL2     0.900000E-01   1.00800           0
     34938 MEMB     261      POPC     C35      CTL2    -0.180000       12.0110           0
     34939 MEMB     261      POPC     H5X      HAL2     0.900000E-01   1.00800           0
     34940 MEMB     261      POPC     H5Y      HAL2     0.900000E-01   1.00800           0
     34941 MEMB     261      POPC     C36      CTL2    -0.180000       12.0110           0
     34942 MEMB     261      POPC     H6X      HAL2     0.900000E-01   1.00800           0
     34943 MEMB     261      POPC     H6Y      HAL2     0.900000E-01   1.00800           0
     34944 MEMB     261      POPC     C37      CTL2    -0.180000       12.0110           0
     34945 MEMB     261      POPC     H7X      HAL2     0.900000E-01   1.00800           0
     34946 MEMB     261      POPC     H7Y      HAL2     0.900000E-01   1.00800           0
     34947 MEMB     261      POPC     C38      CTL2    -0.180000       12.0110           0
     34948 MEMB     261      POPC     H8X      HAL2     0.900000E-01   1.00800           0
     34949 MEMB     261      POPC     H8Y      HAL2     0.900000E-01   1.00800           0
     34950 MEMB     261      POPC     C39      CTL2    -0.180000       12.0110           0
     34951 MEMB     261      POPC     H9X      HAL2     0.900000E-01   1.00800           0
     34952 MEMB     261      POPC     H9Y      HAL2     0.900000E-01   1.00800           0
     34953 MEMB     261      POPC     C310     CTL2    -0.180000       12.0110           0
     34954 MEMB     261      POPC     H10X     HAL2     0.900000E-01   1.00800           0
     34955 MEMB     261      POPC     H10Y     HAL2     0.900000E-01   1.00800           0
     34956 MEMB     261      POPC     C311     CTL2    -0.180000       12.0110           0
     34957 MEMB     261      POPC     H11X     HAL2     0.900000E-01   1.00800           0
     34958 MEMB     261      POPC     H11Y     HAL2     0.900000E-01   1.00800           0
     34959 MEMB     261      POPC     C312     CTL2    -0.180000       12.0110           0
     34960 MEMB     261      POPC     H12X     HAL2     0.900000E-01   1.00800           0
     34961 MEMB     261      POPC     H12Y     HAL2     0.900000E-01   1.00800           0
     34962 MEMB     261      POPC     C313     CTL2    -0.180000       12.0110           0
     34963 MEMB     261      POPC     H13X     HAL2     0.900000E-01   1.00800           0
     34964 MEMB     261      POPC     H13Y     HAL2     0.900000E-01   1.00800           0
     34965 MEMB     261      POPC     C314     CTL2    -0.180000       12.0110           0
     34966 MEMB     261      POPC     H14X     HAL2     0.900000E-01   1.00800           0
     34967 MEMB     261      POPC     H14Y     HAL2     0.900000E-01   1.00800           0
     34968 MEMB     261      POPC     C315     CTL2    -0.180000       12.0110           0
     34969 MEMB     261      POPC     H15X     HAL2     0.900000E-01   1.00800           0
     34970 MEMB     261      POPC     H15Y     HAL2     0.900000E-01   1.00800           0
     34971 MEMB     261      POPC     C316     CTL3    -0.270000       12.0110           0
     34972 MEMB     261      POPC     H16X     HAL3     0.900000E-01   1.00800           0
     34973 MEMB     261      POPC     H16Y     HAL3     0.900000E-01   1.00800           0
     34974 MEMB     261      POPC     H16Z     HAL3     0.900000E-01   1.00800           0
     34975 MEMB     262      POPC     N        NTL     -0.600000       14.0070           0
     34976 MEMB     262      POPC     C12      CTL2    -0.100000       12.0110           0
     34977 MEMB     262      POPC     H12A     HL       0.250000       1.00800           0
     34978 MEMB     262      POPC     H12B     HL       0.250000       1.00800           0
     34979 MEMB     262      POPC     C13      CTL5    -0.350000       12.0110           0
     34980 MEMB     262      POPC     H13A     HL       0.250000       1.00800           0
     34981 MEMB     262      POPC     H13B     HL       0.250000       1.00800           0
     34982 MEMB     262      POPC     H13C     HL       0.250000       1.00800           0
     34983 MEMB     262      POPC     C14      CTL5    -0.350000       12.0110           0
     34984 MEMB     262      POPC     H14A     HL       0.250000       1.00800           0
     34985 MEMB     262      POPC     H14B     HL       0.250000       1.00800           0
     34986 MEMB     262      POPC     H14C     HL       0.250000       1.00800           0
     34987 MEMB     262      POPC     C15      CTL5    -0.350000       12.0110           0
     34988 MEMB     262      POPC     H15A     HL       0.250000       1.00800           0
     34989 MEMB     262      POPC     H15B     HL       0.250000       1.00800           0
     34990 MEMB     262      POPC     H15C     HL       0.250000       1.00800           0
     34991 MEMB     262      POPC     C11      CTL2    -0.800000E-01   12.0110           0
     34992 MEMB     262      POPC     H11A     HAL2     0.900000E-01   1.00800           0
     34993 MEMB     262      POPC     H11B     HAL2     0.900000E-01   1.00800           0
     34994 MEMB     262      POPC     P        PL       1.50000        30.9740           0
     34995 MEMB     262      POPC     O13      O2L     -0.780000       15.9994           0
     34996 MEMB     262      POPC     O14      O2L     -0.780000       15.9994           0
     34997 MEMB     262      POPC     O12      OSLP    -0.570000       15.9994           0
     34998 MEMB     262      POPC     O11      OSLP    -0.570000       15.9994           0
     34999 MEMB     262      POPC     C1       CTL2    -0.800000E-01   12.0110           0
     35000 MEMB     262      POPC     HA       HAL2     0.900000E-01   1.00800           0
     35001 MEMB     262      POPC     HB       HAL2     0.900000E-01   1.00800           0
     35002 MEMB     262      POPC     C2       CTL1     0.170000       12.0110           0
     35003 MEMB     262      POPC     HS       HAL1     0.900000E-01   1.00800           0
     35004 MEMB     262      POPC     O21      OSL     -0.490000       15.9994           0
     35005 MEMB     262      POPC     C21      CL       0.900000       12.0110           0
     35006 MEMB     262      POPC     O22      OBL     -0.630000       15.9994           0
     35007 MEMB     262      POPC     C22      CTL2    -0.220000       12.0110           0
     35008 MEMB     262      POPC     H2R      HAL2     0.900000E-01   1.00800           0
     35009 MEMB     262      POPC     H2S      HAL2     0.900000E-01   1.00800           0
     35010 MEMB     262      POPC     C3       CTL2     0.800000E-01   12.0110           0
     35011 MEMB     262      POPC     HX       HAL2     0.900000E-01   1.00800           0
     35012 MEMB     262      POPC     HY       HAL2     0.900000E-01   1.00800           0
     35013 MEMB     262      POPC     O31      OSL     -0.490000       15.9994           0
     35014 MEMB     262      POPC     C31      CL       0.900000       12.0110           0
     35015 MEMB     262      POPC     O32      OBL     -0.630000       15.9994           0
     35016 MEMB     262      POPC     C32      CTL2    -0.220000       12.0110           0
     35017 MEMB     262      POPC     H2X      HAL2     0.900000E-01   1.00800           0
     35018 MEMB     262      POPC     H2Y      HAL2     0.900000E-01   1.00800           0
     35019 MEMB     262      POPC     C23      CTL2    -0.180000       12.0110           0
     35020 MEMB     262      POPC     H3R      HAL2     0.900000E-01   1.00800           0
     35021 MEMB     262      POPC     H3S      HAL2     0.900000E-01   1.00800           0
     35022 MEMB     262      POPC     C24      CTL2    -0.180000       12.0110           0
     35023 MEMB     262      POPC     H4R      HAL2     0.900000E-01   1.00800           0
     35024 MEMB     262      POPC     H4S      HAL2     0.900000E-01   1.00800           0
     35025 MEMB     262      POPC     C25      CTL2    -0.180000       12.0110           0
     35026 MEMB     262      POPC     H5R      HAL2     0.900000E-01   1.00800           0
     35027 MEMB     262      POPC     H5S      HAL2     0.900000E-01   1.00800           0
     35028 MEMB     262      POPC     C26      CTL2    -0.180000       12.0110           0
     35029 MEMB     262      POPC     H6R      HAL2     0.900000E-01   1.00800           0
     35030 MEMB     262      POPC     H6S      HAL2     0.900000E-01   1.00800           0
     35031 MEMB     262      POPC     C27      CTL2    -0.180000       12.0110           0
     35032 MEMB     262      POPC     H7R      HAL2     0.900000E-01   1.00800           0
     35033 MEMB     262      POPC     H7S      HAL2     0.900000E-01   1.00800           0
     35034 MEMB     262      POPC     C28      CTL2    -0.180000       12.0110           0
     35035 MEMB     262      POPC     H8R      HAL2     0.900000E-01   1.00800           0
     35036 MEMB     262      POPC     H8S      HAL2     0.900000E-01   1.00800           0
     35037 MEMB     262      POPC     C29      CEL1    -0.150000       12.0110           0
     35038 MEMB     262      POPC     H91      HEL1     0.150000       1.00800           0
     35039 MEMB     262      POPC     C210     CEL1    -0.150000       12.0110           0
     35040 MEMB     262      POPC     H101     HEL1     0.150000       1.00800           0
     35041 MEMB     262      POPC     C211     CTL2    -0.180000       12.0110           0
     35042 MEMB     262      POPC     H11R     HAL2     0.900000E-01   1.00800           0
     35043 MEMB     262      POPC     H11S     HAL2     0.900000E-01   1.00800           0
     35044 MEMB     262      POPC     C212     CTL2    -0.180000       12.0110           0
     35045 MEMB     262      POPC     H12R     HAL2     0.900000E-01   1.00800           0
     35046 MEMB     262      POPC     H12S     HAL2     0.900000E-01   1.00800           0
     35047 MEMB     262      POPC     C213     CTL2    -0.180000       12.0110           0
     35048 MEMB     262      POPC     H13R     HAL2     0.900000E-01   1.00800           0
     35049 MEMB     262      POPC     H13S     HAL2     0.900000E-01   1.00800           0
     35050 MEMB     262      POPC     C214     CTL2    -0.180000       12.0110           0
     35051 MEMB     262      POPC     H14R     HAL2     0.900000E-01   1.00800           0
     35052 MEMB     262      POPC     H14S     HAL2     0.900000E-01   1.00800           0
     35053 MEMB     262      POPC     C215     CTL2    -0.180000       12.0110           0
     35054 MEMB     262      POPC     H15R     HAL2     0.900000E-01   1.00800           0
     35055 MEMB     262      POPC     H15S     HAL2     0.900000E-01   1.00800           0
     35056 MEMB     262      POPC     C216     CTL2    -0.180000       12.0110           0
     35057 MEMB     262      POPC     H16R     HAL2     0.900000E-01   1.00800           0
     35058 MEMB     262      POPC     H16S     HAL2     0.900000E-01   1.00800           0
     35059 MEMB     262      POPC     C217     CTL2    -0.180000       12.0110           0
     35060 MEMB     262      POPC     H17R     HAL2     0.900000E-01   1.00800           0
     35061 MEMB     262      POPC     H17S     HAL2     0.900000E-01   1.00800           0
     35062 MEMB     262      POPC     C218     CTL3    -0.270000       12.0110           0
     35063 MEMB     262      POPC     H18R     HAL3     0.900000E-01   1.00800           0
     35064 MEMB     262      POPC     H18S     HAL3     0.900000E-01   1.00800           0
     35065 MEMB     262      POPC     H18T     HAL3     0.900000E-01   1.00800           0
     35066 MEMB     262      POPC     C33      CTL2    -0.180000       12.0110           0
     35067 MEMB     262      POPC     H3X      HAL2     0.900000E-01   1.00800           0
     35068 MEMB     262      POPC     H3Y      HAL2     0.900000E-01   1.00800           0
     35069 MEMB     262      POPC     C34      CTL2    -0.180000       12.0110           0
     35070 MEMB     262      POPC     H4X      HAL2     0.900000E-01   1.00800           0
     35071 MEMB     262      POPC     H4Y      HAL2     0.900000E-01   1.00800           0
     35072 MEMB     262      POPC     C35      CTL2    -0.180000       12.0110           0
     35073 MEMB     262      POPC     H5X      HAL2     0.900000E-01   1.00800           0
     35074 MEMB     262      POPC     H5Y      HAL2     0.900000E-01   1.00800           0
     35075 MEMB     262      POPC     C36      CTL2    -0.180000       12.0110           0
     35076 MEMB     262      POPC     H6X      HAL2     0.900000E-01   1.00800           0
     35077 MEMB     262      POPC     H6Y      HAL2     0.900000E-01   1.00800           0
     35078 MEMB     262      POPC     C37      CTL2    -0.180000       12.0110           0
     35079 MEMB     262      POPC     H7X      HAL2     0.900000E-01   1.00800           0
     35080 MEMB     262      POPC     H7Y      HAL2     0.900000E-01   1.00800           0
     35081 MEMB     262      POPC     C38      CTL2    -0.180000       12.0110           0
     35082 MEMB     262      POPC     H8X      HAL2     0.900000E-01   1.00800           0
     35083 MEMB     262      POPC     H8Y      HAL2     0.900000E-01   1.00800           0
     35084 MEMB     262      POPC     C39      CTL2    -0.180000       12.0110           0
     35085 MEMB     262      POPC     H9X      HAL2     0.900000E-01   1.00800           0
     35086 MEMB     262      POPC     H9Y      HAL2     0.900000E-01   1.00800           0
     35087 MEMB     262      POPC     C310     CTL2    -0.180000       12.0110           0
     35088 MEMB     262      POPC     H10X     HAL2     0.900000E-01   1.00800           0
     35089 MEMB     262      POPC     H10Y     HAL2     0.900000E-01   1.00800           0
     35090 MEMB     262      POPC     C311     CTL2    -0.180000       12.0110           0
     35091 MEMB     262      POPC     H11X     HAL2     0.900000E-01   1.00800           0
     35092 MEMB     262      POPC     H11Y     HAL2     0.900000E-01   1.00800           0
     35093 MEMB     262      POPC     C312     CTL2    -0.180000       12.0110           0
     35094 MEMB     262      POPC     H12X     HAL2     0.900000E-01   1.00800           0
     35095 MEMB     262      POPC     H12Y     HAL2     0.900000E-01   1.00800           0
     35096 MEMB     262      POPC     C313     CTL2    -0.180000       12.0110           0
     35097 MEMB     262      POPC     H13X     HAL2     0.900000E-01   1.00800           0
     35098 MEMB     262      POPC     H13Y     HAL2     0.900000E-01   1.00800           0
     35099 MEMB     262      POPC     C314     CTL2    -0.180000       12.0110           0
     35100 MEMB     262      POPC     H14X     HAL2     0.900000E-01   1.00800           0
     35101 MEMB     262      POPC     H14Y     HAL2     0.900000E-01   1.00800           0
     35102 MEMB     262      POPC     C315     CTL2    -0.180000       12.0110           0
     35103 MEMB     262      POPC     H15X     HAL2     0.900000E-01   1.00800           0
     35104 MEMB     262      POPC     H15Y     HAL2     0.900000E-01   1.00800           0
     35105 MEMB     262      POPC     C316     CTL3    -0.270000       12.0110           0
     35106 MEMB     262      POPC     H16X     HAL3     0.900000E-01   1.00800           0
     35107 MEMB     262      POPC     H16Y     HAL3     0.900000E-01   1.00800           0
     35108 MEMB     262      POPC     H16Z     HAL3     0.900000E-01   1.00800           0
     35109 MEMB     263      POPC     N        NTL     -0.600000       14.0070           0
     35110 MEMB     263      POPC     C12      CTL2    -0.100000       12.0110           0
     35111 MEMB     263      POPC     H12A     HL       0.250000       1.00800           0
     35112 MEMB     263      POPC     H12B     HL       0.250000       1.00800           0
     35113 MEMB     263      POPC     C13      CTL5    -0.350000       12.0110           0
     35114 MEMB     263      POPC     H13A     HL       0.250000       1.00800           0
     35115 MEMB     263      POPC     H13B     HL       0.250000       1.00800           0
     35116 MEMB     263      POPC     H13C     HL       0.250000       1.00800           0
     35117 MEMB     263      POPC     C14      CTL5    -0.350000       12.0110           0
     35118 MEMB     263      POPC     H14A     HL       0.250000       1.00800           0
     35119 MEMB     263      POPC     H14B     HL       0.250000       1.00800           0
     35120 MEMB     263      POPC     H14C     HL       0.250000       1.00800           0
     35121 MEMB     263      POPC     C15      CTL5    -0.350000       12.0110           0
     35122 MEMB     263      POPC     H15A     HL       0.250000       1.00800           0
     35123 MEMB     263      POPC     H15B     HL       0.250000       1.00800           0
     35124 MEMB     263      POPC     H15C     HL       0.250000       1.00800           0
     35125 MEMB     263      POPC     C11      CTL2    -0.800000E-01   12.0110           0
     35126 MEMB     263      POPC     H11A     HAL2     0.900000E-01   1.00800           0
     35127 MEMB     263      POPC     H11B     HAL2     0.900000E-01   1.00800           0
     35128 MEMB     263      POPC     P        PL       1.50000        30.9740           0
     35129 MEMB     263      POPC     O13      O2L     -0.780000       15.9994           0
     35130 MEMB     263      POPC     O14      O2L     -0.780000       15.9994           0
     35131 MEMB     263      POPC     O12      OSLP    -0.570000       15.9994           0
     35132 MEMB     263      POPC     O11      OSLP    -0.570000       15.9994           0
     35133 MEMB     263      POPC     C1       CTL2    -0.800000E-01   12.0110           0
     35134 MEMB     263      POPC     HA       HAL2     0.900000E-01   1.00800           0
     35135 MEMB     263      POPC     HB       HAL2     0.900000E-01   1.00800           0
     35136 MEMB     263      POPC     C2       CTL1     0.170000       12.0110           0
     35137 MEMB     263      POPC     HS       HAL1     0.900000E-01   1.00800           0
     35138 MEMB     263      POPC     O21      OSL     -0.490000       15.9994           0
     35139 MEMB     263      POPC     C21      CL       0.900000       12.0110           0
     35140 MEMB     263      POPC     O22      OBL     -0.630000       15.9994           0
     35141 MEMB     263      POPC     C22      CTL2    -0.220000       12.0110           0
     35142 MEMB     263      POPC     H2R      HAL2     0.900000E-01   1.00800           0
     35143 MEMB     263      POPC     H2S      HAL2     0.900000E-01   1.00800           0
     35144 MEMB     263      POPC     C3       CTL2     0.800000E-01   12.0110           0
     35145 MEMB     263      POPC     HX       HAL2     0.900000E-01   1.00800           0
     35146 MEMB     263      POPC     HY       HAL2     0.900000E-01   1.00800           0
     35147 MEMB     263      POPC     O31      OSL     -0.490000       15.9994           0
     35148 MEMB     263      POPC     C31      CL       0.900000       12.0110           0
     35149 MEMB     263      POPC     O32      OBL     -0.630000       15.9994           0
     35150 MEMB     263      POPC     C32      CTL2    -0.220000       12.0110           0
     35151 MEMB     263      POPC     H2X      HAL2     0.900000E-01   1.00800           0
     35152 MEMB     263      POPC     H2Y      HAL2     0.900000E-01   1.00800           0
     35153 MEMB     263      POPC     C23      CTL2    -0.180000       12.0110           0
     35154 MEMB     263      POPC     H3R      HAL2     0.900000E-01   1.00800           0
     35155 MEMB     263      POPC     H3S      HAL2     0.900000E-01   1.00800           0
     35156 MEMB     263      POPC     C24      CTL2    -0.180000       12.0110           0
     35157 MEMB     263      POPC     H4R      HAL2     0.900000E-01   1.00800           0
     35158 MEMB     263      POPC     H4S      HAL2     0.900000E-01   1.00800           0
     35159 MEMB     263      POPC     C25      CTL2    -0.180000       12.0110           0
     35160 MEMB     263      POPC     H5R      HAL2     0.900000E-01   1.00800           0
     35161 MEMB     263      POPC     H5S      HAL2     0.900000E-01   1.00800           0
     35162 MEMB     263      POPC     C26      CTL2    -0.180000       12.0110           0
     35163 MEMB     263      POPC     H6R      HAL2     0.900000E-01   1.00800           0
     35164 MEMB     263      POPC     H6S      HAL2     0.900000E-01   1.00800           0
     35165 MEMB     263      POPC     C27      CTL2    -0.180000       12.0110           0
     35166 MEMB     263      POPC     H7R      HAL2     0.900000E-01   1.00800           0
     35167 MEMB     263      POPC     H7S      HAL2     0.900000E-01   1.00800           0
     35168 MEMB     263      POPC     C28      CTL2    -0.180000       12.0110           0
     35169 MEMB     263      POPC     H8R      HAL2     0.900000E-01   1.00800           0
     35170 MEMB     263      POPC     H8S      HAL2     0.900000E-01   1.00800           0
     35171 MEMB     263      POPC     C29      CEL1    -0.150000       12.0110           0
     35172 MEMB     263      POPC     H91      HEL1     0.150000       1.00800           0
     35173 MEMB     263      POPC     C210     CEL1    -0.150000       12.0110           0
     35174 MEMB     263      POPC     H101     HEL1     0.150000       1.00800           0
     35175 MEMB     263      POPC     C211     CTL2    -0.180000       12.0110           0
     35176 MEMB     263      POPC     H11R     HAL2     0.900000E-01   1.00800           0
     35177 MEMB     263      POPC     H11S     HAL2     0.900000E-01   1.00800           0
     35178 MEMB     263      POPC     C212     CTL2    -0.180000       12.0110           0
     35179 MEMB     263      POPC     H12R     HAL2     0.900000E-01   1.00800           0
     35180 MEMB     263      POPC     H12S     HAL2     0.900000E-01   1.00800           0
     35181 MEMB     263      POPC     C213     CTL2    -0.180000       12.0110           0
     35182 MEMB     263      POPC     H13R     HAL2     0.900000E-01   1.00800           0
     35183 MEMB     263      POPC     H13S     HAL2     0.900000E-01   1.00800           0
     35184 MEMB     263      POPC     C214     CTL2    -0.180000       12.0110           0
     35185 MEMB     263      POPC     H14R     HAL2     0.900000E-01   1.00800           0
     35186 MEMB     263      POPC     H14S     HAL2     0.900000E-01   1.00800           0
     35187 MEMB     263      POPC     C215     CTL2    -0.180000       12.0110           0
     35188 MEMB     263      POPC     H15R     HAL2     0.900000E-01   1.00800           0
     35189 MEMB     263      POPC     H15S     HAL2     0.900000E-01   1.00800           0
     35190 MEMB     263      POPC     C216     CTL2    -0.180000       12.0110           0
     35191 MEMB     263      POPC     H16R     HAL2     0.900000E-01   1.00800           0
     35192 MEMB     263      POPC     H16S     HAL2     0.900000E-01   1.00800           0
     35193 MEMB     263      POPC     C217     CTL2    -0.180000       12.0110           0
     35194 MEMB     263      POPC     H17R     HAL2     0.900000E-01   1.00800           0
     35195 MEMB     263      POPC     H17S     HAL2     0.900000E-01   1.00800           0
     35196 MEMB     263      POPC     C218     CTL3    -0.270000       12.0110           0
     35197 MEMB     263      POPC     H18R     HAL3     0.900000E-01   1.00800           0
     35198 MEMB     263      POPC     H18S     HAL3     0.900000E-01   1.00800           0
     35199 MEMB     263      POPC     H18T     HAL3     0.900000E-01   1.00800           0
     35200 MEMB     263      POPC     C33      CTL2    -0.180000       12.0110           0
     35201 MEMB     263      POPC     H3X      HAL2     0.900000E-01   1.00800           0
     35202 MEMB     263      POPC     H3Y      HAL2     0.900000E-01   1.00800           0
     35203 MEMB     263      POPC     C34      CTL2    -0.180000       12.0110           0
     35204 MEMB     263      POPC     H4X      HAL2     0.900000E-01   1.00800           0
     35205 MEMB     263      POPC     H4Y      HAL2     0.900000E-01   1.00800           0
     35206 MEMB     263      POPC     C35      CTL2    -0.180000       12.0110           0
     35207 MEMB     263      POPC     H5X      HAL2     0.900000E-01   1.00800           0
     35208 MEMB     263      POPC     H5Y      HAL2     0.900000E-01   1.00800           0
     35209 MEMB     263      POPC     C36      CTL2    -0.180000       12.0110           0
     35210 MEMB     263      POPC     H6X      HAL2     0.900000E-01   1.00800           0
     35211 MEMB     263      POPC     H6Y      HAL2     0.900000E-01   1.00800           0
     35212 MEMB     263      POPC     C37      CTL2    -0.180000       12.0110           0
     35213 MEMB     263      POPC     H7X      HAL2     0.900000E-01   1.00800           0
     35214 MEMB     263      POPC     H7Y      HAL2     0.900000E-01   1.00800           0
     35215 MEMB     263      POPC     C38      CTL2    -0.180000       12.0110           0
     35216 MEMB     263      POPC     H8X      HAL2     0.900000E-01   1.00800           0
     35217 MEMB     263      POPC     H8Y      HAL2     0.900000E-01   1.00800           0
     35218 MEMB     263      POPC     C39      CTL2    -0.180000       12.0110           0
     35219 MEMB     263      POPC     H9X      HAL2     0.900000E-01   1.00800           0
     35220 MEMB     263      POPC     H9Y      HAL2     0.900000E-01   1.00800           0
     35221 MEMB     263      POPC     C310     CTL2    -0.180000       12.0110           0
     35222 MEMB     263      POPC     H10X     HAL2     0.900000E-01   1.00800           0
     35223 MEMB     263      POPC     H10Y     HAL2     0.900000E-01   1.00800           0
     35224 MEMB     263      POPC     C311     CTL2    -0.180000       12.0110           0
     35225 MEMB     263      POPC     H11X     HAL2     0.900000E-01   1.00800           0
     35226 MEMB     263      POPC     H11Y     HAL2     0.900000E-01   1.00800           0
     35227 MEMB     263      POPC     C312     CTL2    -0.180000       12.0110           0
     35228 MEMB     263      POPC     H12X     HAL2     0.900000E-01   1.00800           0
     35229 MEMB     263      POPC     H12Y     HAL2     0.900000E-01   1.00800           0
     35230 MEMB     263      POPC     C313     CTL2    -0.180000       12.0110           0
     35231 MEMB     263      POPC     H13X     HAL2     0.900000E-01   1.00800           0
     35232 MEMB     263      POPC     H13Y     HAL2     0.900000E-01   1.00800           0
     35233 MEMB     263      POPC     C314     CTL2    -0.180000       12.0110           0
     35234 MEMB     263      POPC     H14X     HAL2     0.900000E-01   1.00800           0
     35235 MEMB     263      POPC     H14Y     HAL2     0.900000E-01   1.00800           0
     35236 MEMB     263      POPC     C315     CTL2    -0.180000       12.0110           0
     35237 MEMB     263      POPC     H15X     HAL2     0.900000E-01   1.00800           0
     35238 MEMB     263      POPC     H15Y     HAL2     0.900000E-01   1.00800           0
     35239 MEMB     263      POPC     C316     CTL3    -0.270000       12.0110           0
     35240 MEMB     263      POPC     H16X     HAL3     0.900000E-01   1.00800           0
     35241 MEMB     263      POPC     H16Y     HAL3     0.900000E-01   1.00800           0
     35242 MEMB     263      POPC     H16Z     HAL3     0.900000E-01   1.00800           0
     35243 MEMB     264      POPC     N        NTL     -0.600000       14.0070           0
     35244 MEMB     264      POPC     C12      CTL2    -0.100000       12.0110           0
     35245 MEMB     264      POPC     H12A     HL       0.250000       1.00800           0
     35246 MEMB     264      POPC     H12B     HL       0.250000       1.00800           0
     35247 MEMB     264      POPC     C13      CTL5    -0.350000       12.0110           0
     35248 MEMB     264      POPC     H13A     HL       0.250000       1.00800           0
     35249 MEMB     264      POPC     H13B     HL       0.250000       1.00800           0
     35250 MEMB     264      POPC     H13C     HL       0.250000       1.00800           0
     35251 MEMB     264      POPC     C14      CTL5    -0.350000       12.0110           0
     35252 MEMB     264      POPC     H14A     HL       0.250000       1.00800           0
     35253 MEMB     264      POPC     H14B     HL       0.250000       1.00800           0
     35254 MEMB     264      POPC     H14C     HL       0.250000       1.00800           0
     35255 MEMB     264      POPC     C15      CTL5    -0.350000       12.0110           0
     35256 MEMB     264      POPC     H15A     HL       0.250000       1.00800           0
     35257 MEMB     264      POPC     H15B     HL       0.250000       1.00800           0
     35258 MEMB     264      POPC     H15C     HL       0.250000       1.00800           0
     35259 MEMB     264      POPC     C11      CTL2    -0.800000E-01   12.0110           0
     35260 MEMB     264      POPC     H11A     HAL2     0.900000E-01   1.00800           0
     35261 MEMB     264      POPC     H11B     HAL2     0.900000E-01   1.00800           0
     35262 MEMB     264      POPC     P        PL       1.50000        30.9740           0
     35263 MEMB     264      POPC     O13      O2L     -0.780000       15.9994           0
     35264 MEMB     264      POPC     O14      O2L     -0.780000       15.9994           0
     35265 MEMB     264      POPC     O12      OSLP    -0.570000       15.9994           0
     35266 MEMB     264      POPC     O11      OSLP    -0.570000       15.9994           0
     35267 MEMB     264      POPC     C1       CTL2    -0.800000E-01   12.0110           0
     35268 MEMB     264      POPC     HA       HAL2     0.900000E-01   1.00800           0
     35269 MEMB     264      POPC     HB       HAL2     0.900000E-01   1.00800           0
     35270 MEMB     264      POPC     C2       CTL1     0.170000       12.0110           0
     35271 MEMB     264      POPC     HS       HAL1     0.900000E-01   1.00800           0
     35272 MEMB     264      POPC     O21      OSL     -0.490000       15.9994           0
     35273 MEMB     264      POPC     C21      CL       0.900000       12.0110           0
     35274 MEMB     264      POPC     O22      OBL     -0.630000       15.9994           0
     35275 MEMB     264      POPC     C22      CTL2    -0.220000       12.0110           0
     35276 MEMB     264      POPC     H2R      HAL2     0.900000E-01   1.00800           0
     35277 MEMB     264      POPC     H2S      HAL2     0.900000E-01   1.00800           0
     35278 MEMB     264      POPC     C3       CTL2     0.800000E-01   12.0110           0
     35279 MEMB     264      POPC     HX       HAL2     0.900000E-01   1.00800           0
     35280 MEMB     264      POPC     HY       HAL2     0.900000E-01   1.00800           0
     35281 MEMB     264      POPC     O31      OSL     -0.490000       15.9994           0
     35282 MEMB     264      POPC     C31      CL       0.900000       12.0110           0
     35283 MEMB     264      POPC     O32      OBL     -0.630000       15.9994           0
     35284 MEMB     264      POPC     C32      CTL2    -0.220000       12.0110           0
     35285 MEMB     264      POPC     H2X      HAL2     0.900000E-01   1.00800           0
     35286 MEMB     264      POPC     H2Y      HAL2     0.900000E-01   1.00800           0
     35287 MEMB     264      POPC     C23      CTL2    -0.180000       12.0110           0
     35288 MEMB     264      POPC     H3R      HAL2     0.900000E-01   1.00800           0
     35289 MEMB     264      POPC     H3S      HAL2     0.900000E-01   1.00800           0
     35290 MEMB     264      POPC     C24      CTL2    -0.180000       12.0110           0
     35291 MEMB     264      POPC     H4R      HAL2     0.900000E-01   1.00800           0
     35292 MEMB     264      POPC     H4S      HAL2     0.900000E-01   1.00800           0
     35293 MEMB     264      POPC     C25      CTL2    -0.180000       12.0110           0
     35294 MEMB     264      POPC     H5R      HAL2     0.900000E-01   1.00800           0
     35295 MEMB     264      POPC     H5S      HAL2     0.900000E-01   1.00800           0
     35296 MEMB     264      POPC     C26      CTL2    -0.180000       12.0110           0
     35297 MEMB     264      POPC     H6R      HAL2     0.900000E-01   1.00800           0
     35298 MEMB     264      POPC     H6S      HAL2     0.900000E-01   1.00800           0
     35299 MEMB     264      POPC     C27      CTL2    -0.180000       12.0110           0
     35300 MEMB     264      POPC     H7R      HAL2     0.900000E-01   1.00800           0
     35301 MEMB     264      POPC     H7S      HAL2     0.900000E-01   1.00800           0
     35302 MEMB     264      POPC     C28      CTL2    -0.180000       12.0110           0
     35303 MEMB     264      POPC     H8R      HAL2     0.900000E-01   1.00800           0
     35304 MEMB     264      POPC     H8S      HAL2     0.900000E-01   1.00800           0
     35305 MEMB     264      POPC     C29      CEL1    -0.150000       12.0110           0
     35306 MEMB     264      POPC     H91      HEL1     0.150000       1.00800           0
     35307 MEMB     264      POPC     C210     CEL1    -0.150000       12.0110           0
     35308 MEMB     264      POPC     H101     HEL1     0.150000       1.00800           0
     35309 MEMB     264      POPC     C211     CTL2    -0.180000       12.0110           0
     35310 MEMB     264      POPC     H11R     HAL2     0.900000E-01   1.00800           0
     35311 MEMB     264      POPC     H11S     HAL2     0.900000E-01   1.00800           0
     35312 MEMB     264      POPC     C212     CTL2    -0.180000       12.0110           0
     35313 MEMB     264      POPC     H12R     HAL2     0.900000E-01   1.00800           0
     35314 MEMB     264      POPC     H12S     HAL2     0.900000E-01   1.00800           0
     35315 MEMB     264      POPC     C213     CTL2    -0.180000       12.0110           0
     35316 MEMB     264      POPC     H13R     HAL2     0.900000E-01   1.00800           0
     35317 MEMB     264      POPC     H13S     HAL2     0.900000E-01   1.00800           0
     35318 MEMB     264      POPC     C214     CTL2    -0.180000       12.0110           0
     35319 MEMB     264      POPC     H14R     HAL2     0.900000E-01   1.00800           0
     35320 MEMB     264      POPC     H14S     HAL2     0.900000E-01   1.00800           0
     35321 MEMB     264      POPC     C215     CTL2    -0.180000       12.0110           0
     35322 MEMB     264      POPC     H15R     HAL2     0.900000E-01   1.00800           0
     35323 MEMB     264      POPC     H15S     HAL2     0.900000E-01   1.00800           0
     35324 MEMB     264      POPC     C216     CTL2    -0.180000       12.0110           0
     35325 MEMB     264      POPC     H16R     HAL2     0.900000E-01   1.00800           0
     35326 MEMB     264      POPC     H16S     HAL2     0.900000E-01   1.00800           0
     35327 MEMB     264      POPC     C217     CTL2    -0.180000       12.0110           0
     35328 MEMB     264      POPC     H17R     HAL2     0.900000E-01   1.00800           0
     35329 MEMB     264      POPC     H17S     HAL2     0.900000E-01   1.00800           0
     35330 MEMB     264      POPC     C218     CTL3    -0.270000       12.0110           0
     35331 MEMB     264      POPC     H18R     HAL3     0.900000E-01   1.00800           0
     35332 MEMB     264      POPC     H18S     HAL3     0.900000E-01   1.00800           0
     35333 MEMB     264      POPC     H18T     HAL3     0.900000E-01   1.00800           0
     35334 MEMB     264      POPC     C33      CTL2    -0.180000       12.0110           0
     35335 MEMB     264      POPC     H3X      HAL2     0.900000E-01   1.00800           0
     35336 MEMB     264      POPC     H3Y      HAL2     0.900000E-01   1.00800           0
     35337 MEMB     264      POPC     C34      CTL2    -0.180000       12.0110           0
     35338 MEMB     264      POPC     H4X      HAL2     0.900000E-01   1.00800           0
     35339 MEMB     264      POPC     H4Y      HAL2     0.900000E-01   1.00800           0
     35340 MEMB     264      POPC     C35      CTL2    -0.180000       12.0110           0
     35341 MEMB     264      POPC     H5X      HAL2     0.900000E-01   1.00800           0
     35342 MEMB     264      POPC     H5Y      HAL2     0.900000E-01   1.00800           0
     35343 MEMB     264      POPC     C36      CTL2    -0.180000       12.0110           0
     35344 MEMB     264      POPC     H6X      HAL2     0.900000E-01   1.00800           0
     35345 MEMB     264      POPC     H6Y      HAL2     0.900000E-01   1.00800           0
     35346 MEMB     264      POPC     C37      CTL2    -0.180000       12.0110           0
     35347 MEMB     264      POPC     H7X      HAL2     0.900000E-01   1.00800           0
     35348 MEMB     264      POPC     H7Y      HAL2     0.900000E-01   1.00800           0
     35349 MEMB     264      POPC     C38      CTL2    -0.180000       12.0110           0
     35350 MEMB     264      POPC     H8X      HAL2     0.900000E-01   1.00800           0
     35351 MEMB     264      POPC     H8Y      HAL2     0.900000E-01   1.00800           0
     35352 MEMB     264      POPC     C39      CTL2    -0.180000       12.0110           0
     35353 MEMB     264      POPC     H9X      HAL2     0.900000E-01   1.00800           0
     35354 MEMB     264      POPC     H9Y      HAL2     0.900000E-01   1.00800           0
     35355 MEMB     264      POPC     C310     CTL2    -0.180000       12.0110           0
     35356 MEMB     264      POPC     H10X     HAL2     0.900000E-01   1.00800           0
     35357 MEMB     264      POPC     H10Y     HAL2     0.900000E-01   1.00800           0
     35358 MEMB     264      POPC     C311     CTL2    -0.180000       12.0110           0
     35359 MEMB     264      POPC     H11X     HAL2     0.900000E-01   1.00800           0
     35360 MEMB     264      POPC     H11Y     HAL2     0.900000E-01   1.00800           0
     35361 MEMB     264      POPC     C312     CTL2    -0.180000       12.0110           0
     35362 MEMB     264      POPC     H12X     HAL2     0.900000E-01   1.00800           0
     35363 MEMB     264      POPC     H12Y     HAL2     0.900000E-01   1.00800           0
     35364 MEMB     264      POPC     C313     CTL2    -0.180000       12.0110           0
     35365 MEMB     264      POPC     H13X     HAL2     0.900000E-01   1.00800           0
     35366 MEMB     264      POPC     H13Y     HAL2     0.900000E-01   1.00800           0
     35367 MEMB     264      POPC     C314     CTL2    -0.180000       12.0110           0
     35368 MEMB     264      POPC     H14X     HAL2     0.900000E-01   1.00800           0
     35369 MEMB     264      POPC     H14Y     HAL2     0.900000E-01   1.00800           0
     35370 MEMB     264      POPC     C315     CTL2    -0.180000       12.0110           0
     35371 MEMB     264      POPC     H15X     HAL2     0.900000E-01   1.00800           0
     35372 MEMB     264      POPC     H15Y     HAL2     0.900000E-01   1.00800           0
     35373 MEMB     264      POPC     C316     CTL3    -0.270000       12.0110           0
     35374 MEMB     264      POPC     H16X     HAL3     0.900000E-01   1.00800           0
     35375 MEMB     264      POPC     H16Y     HAL3     0.900000E-01   1.00800           0
     35376 MEMB     264      POPC     H16Z     HAL3     0.900000E-01   1.00800           0
     35377 MEMB     265      POPC     N        NTL     -0.600000       14.0070           0
     35378 MEMB     265      POPC     C12      CTL2    -0.100000       12.0110           0
     35379 MEMB     265      POPC     H12A     HL       0.250000       1.00800           0
     35380 MEMB     265      POPC     H12B     HL       0.250000       1.00800           0
     35381 MEMB     265      POPC     C13      CTL5    -0.350000       12.0110           0
     35382 MEMB     265      POPC     H13A     HL       0.250000       1.00800           0
     35383 MEMB     265      POPC     H13B     HL       0.250000       1.00800           0
     35384 MEMB     265      POPC     H13C     HL       0.250000       1.00800           0
     35385 MEMB     265      POPC     C14      CTL5    -0.350000       12.0110           0
     35386 MEMB     265      POPC     H14A     HL       0.250000       1.00800           0
     35387 MEMB     265      POPC     H14B     HL       0.250000       1.00800           0
     35388 MEMB     265      POPC     H14C     HL       0.250000       1.00800           0
     35389 MEMB     265      POPC     C15      CTL5    -0.350000       12.0110           0
     35390 MEMB     265      POPC     H15A     HL       0.250000       1.00800           0
     35391 MEMB     265      POPC     H15B     HL       0.250000       1.00800           0
     35392 MEMB     265      POPC     H15C     HL       0.250000       1.00800           0
     35393 MEMB     265      POPC     C11      CTL2    -0.800000E-01   12.0110           0
     35394 MEMB     265      POPC     H11A     HAL2     0.900000E-01   1.00800           0
     35395 MEMB     265      POPC     H11B     HAL2     0.900000E-01   1.00800           0
     35396 MEMB     265      POPC     P        PL       1.50000        30.9740           0
     35397 MEMB     265      POPC     O13      O2L     -0.780000       15.9994           0
     35398 MEMB     265      POPC     O14      O2L     -0.780000       15.9994           0
     35399 MEMB     265      POPC     O12      OSLP    -0.570000       15.9994           0
     35400 MEMB     265      POPC     O11      OSLP    -0.570000       15.9994           0
     35401 MEMB     265      POPC     C1       CTL2    -0.800000E-01   12.0110           0
     35402 MEMB     265      POPC     HA       HAL2     0.900000E-01   1.00800           0
     35403 MEMB     265      POPC     HB       HAL2     0.900000E-01   1.00800           0
     35404 MEMB     265      POPC     C2       CTL1     0.170000       12.0110           0
     35405 MEMB     265      POPC     HS       HAL1     0.900000E-01   1.00800           0
     35406 MEMB     265      POPC     O21      OSL     -0.490000       15.9994           0
     35407 MEMB     265      POPC     C21      CL       0.900000       12.0110           0
     35408 MEMB     265      POPC     O22      OBL     -0.630000       15.9994           0
     35409 MEMB     265      POPC     C22      CTL2    -0.220000       12.0110           0
     35410 MEMB     265      POPC     H2R      HAL2     0.900000E-01   1.00800           0
     35411 MEMB     265      POPC     H2S      HAL2     0.900000E-01   1.00800           0
     35412 MEMB     265      POPC     C3       CTL2     0.800000E-01   12.0110           0
     35413 MEMB     265      POPC     HX       HAL2     0.900000E-01   1.00800           0
     35414 MEMB     265      POPC     HY       HAL2     0.900000E-01   1.00800           0
     35415 MEMB     265      POPC     O31      OSL     -0.490000       15.9994           0
     35416 MEMB     265      POPC     C31      CL       0.900000       12.0110           0
     35417 MEMB     265      POPC     O32      OBL     -0.630000       15.9994           0
     35418 MEMB     265      POPC     C32      CTL2    -0.220000       12.0110           0
     35419 MEMB     265      POPC     H2X      HAL2     0.900000E-01   1.00800           0
     35420 MEMB     265      POPC     H2Y      HAL2     0.900000E-01   1.00800           0
     35421 MEMB     265      POPC     C23      CTL2    -0.180000       12.0110           0
     35422 MEMB     265      POPC     H3R      HAL2     0.900000E-01   1.00800           0
     35423 MEMB     265      POPC     H3S      HAL2     0.900000E-01   1.00800           0
     35424 MEMB     265      POPC     C24      CTL2    -0.180000       12.0110           0
     35425 MEMB     265      POPC     H4R      HAL2     0.900000E-01   1.00800           0
     35426 MEMB     265      POPC     H4S      HAL2     0.900000E-01   1.00800           0
     35427 MEMB     265      POPC     C25      CTL2    -0.180000       12.0110           0
     35428 MEMB     265      POPC     H5R      HAL2     0.900000E-01   1.00800           0
     35429 MEMB     265      POPC     H5S      HAL2     0.900000E-01   1.00800           0
     35430 MEMB     265      POPC     C26      CTL2    -0.180000       12.0110           0
     35431 MEMB     265      POPC     H6R      HAL2     0.900000E-01   1.00800           0
     35432 MEMB     265      POPC     H6S      HAL2     0.900000E-01   1.00800           0
     35433 MEMB     265      POPC     C27      CTL2    -0.180000       12.0110           0
     35434 MEMB     265      POPC     H7R      HAL2     0.900000E-01   1.00800           0
     35435 MEMB     265      POPC     H7S      HAL2     0.900000E-01   1.00800           0
     35436 MEMB     265      POPC     C28      CTL2    -0.180000       12.0110           0
     35437 MEMB     265      POPC     H8R      HAL2     0.900000E-01   1.00800           0
     35438 MEMB     265      POPC     H8S      HAL2     0.900000E-01   1.00800           0
     35439 MEMB     265      POPC     C29      CEL1    -0.150000       12.0110           0
     35440 MEMB     265      POPC     H91      HEL1     0.150000       1.00800           0
     35441 MEMB     265      POPC     C210     CEL1    -0.150000       12.0110           0
     35442 MEMB     265      POPC     H101     HEL1     0.150000       1.00800           0
     35443 MEMB     265      POPC     C211     CTL2    -0.180000       12.0110           0
     35444 MEMB     265      POPC     H11R     HAL2     0.900000E-01   1.00800           0
     35445 MEMB     265      POPC     H11S     HAL2     0.900000E-01   1.00800           0
     35446 MEMB     265      POPC     C212     CTL2    -0.180000       12.0110           0
     35447 MEMB     265      POPC     H12R     HAL2     0.900000E-01   1.00800           0
     35448 MEMB     265      POPC     H12S     HAL2     0.900000E-01   1.00800           0
     35449 MEMB     265      POPC     C213     CTL2    -0.180000       12.0110           0
     35450 MEMB     265      POPC     H13R     HAL2     0.900000E-01   1.00800           0
     35451 MEMB     265      POPC     H13S     HAL2     0.900000E-01   1.00800           0
     35452 MEMB     265      POPC     C214     CTL2    -0.180000       12.0110           0
     35453 MEMB     265      POPC     H14R     HAL2     0.900000E-01   1.00800           0
     35454 MEMB     265      POPC     H14S     HAL2     0.900000E-01   1.00800           0
     35455 MEMB     265      POPC     C215     CTL2    -0.180000       12.0110           0
     35456 MEMB     265      POPC     H15R     HAL2     0.900000E-01   1.00800           0
     35457 MEMB     265      POPC     H15S     HAL2     0.900000E-01   1.00800           0
     35458 MEMB     265      POPC     C216     CTL2    -0.180000       12.0110           0
     35459 MEMB     265      POPC     H16R     HAL2     0.900000E-01   1.00800           0
     35460 MEMB     265      POPC     H16S     HAL2     0.900000E-01   1.00800           0
     35461 MEMB     265      POPC     C217     CTL2    -0.180000       12.0110           0
     35462 MEMB     265      POPC     H17R     HAL2     0.900000E-01   1.00800           0
     35463 MEMB     265      POPC     H17S     HAL2     0.900000E-01   1.00800           0
     35464 MEMB     265      POPC     C218     CTL3    -0.270000       12.0110           0
     35465 MEMB     265      POPC     H18R     HAL3     0.900000E-01   1.00800           0
     35466 MEMB     265      POPC     H18S     HAL3     0.900000E-01   1.00800           0
     35467 MEMB     265      POPC     H18T     HAL3     0.900000E-01   1.00800           0
     35468 MEMB     265      POPC     C33      CTL2    -0.180000       12.0110           0
     35469 MEMB     265      POPC     H3X      HAL2     0.900000E-01   1.00800           0
     35470 MEMB     265      POPC     H3Y      HAL2     0.900000E-01   1.00800           0
     35471 MEMB     265      POPC     C34      CTL2    -0.180000       12.0110           0
     35472 MEMB     265      POPC     H4X      HAL2     0.900000E-01   1.00800           0
     35473 MEMB     265      POPC     H4Y      HAL2     0.900000E-01   1.00800           0
     35474 MEMB     265      POPC     C35      CTL2    -0.180000       12.0110           0
     35475 MEMB     265      POPC     H5X      HAL2     0.900000E-01   1.00800           0
     35476 MEMB     265      POPC     H5Y      HAL2     0.900000E-01   1.00800           0
     35477 MEMB     265      POPC     C36      CTL2    -0.180000       12.0110           0
     35478 MEMB     265      POPC     H6X      HAL2     0.900000E-01   1.00800           0
     35479 MEMB     265      POPC     H6Y      HAL2     0.900000E-01   1.00800           0
     35480 MEMB     265      POPC     C37      CTL2    -0.180000       12.0110           0
     35481 MEMB     265      POPC     H7X      HAL2     0.900000E-01   1.00800           0
     35482 MEMB     265      POPC     H7Y      HAL2     0.900000E-01   1.00800           0
     35483 MEMB     265      POPC     C38      CTL2    -0.180000       12.0110           0
     35484 MEMB     265      POPC     H8X      HAL2     0.900000E-01   1.00800           0
     35485 MEMB     265      POPC     H8Y      HAL2     0.900000E-01   1.00800           0
     35486 MEMB     265      POPC     C39      CTL2    -0.180000       12.0110           0
     35487 MEMB     265      POPC     H9X      HAL2     0.900000E-01   1.00800           0
     35488 MEMB     265      POPC     H9Y      HAL2     0.900000E-01   1.00800           0
     35489 MEMB     265      POPC     C310     CTL2    -0.180000       12.0110           0
     35490 MEMB     265      POPC     H10X     HAL2     0.900000E-01   1.00800           0
     35491 MEMB     265      POPC     H10Y     HAL2     0.900000E-01   1.00800           0
     35492 MEMB     265      POPC     C311     CTL2    -0.180000       12.0110           0
     35493 MEMB     265      POPC     H11X     HAL2     0.900000E-01   1.00800           0
     35494 MEMB     265      POPC     H11Y     HAL2     0.900000E-01   1.00800           0
     35495 MEMB     265      POPC     C312     CTL2    -0.180000       12.0110           0
     35496 MEMB     265      POPC     H12X     HAL2     0.900000E-01   1.00800           0
     35497 MEMB     265      POPC     H12Y     HAL2     0.900000E-01   1.00800           0
     35498 MEMB     265      POPC     C313     CTL2    -0.180000       12.0110           0
     35499 MEMB     265      POPC     H13X     HAL2     0.900000E-01   1.00800           0
     35500 MEMB     265      POPC     H13Y     HAL2     0.900000E-01   1.00800           0
     35501 MEMB     265      POPC     C314     CTL2    -0.180000       12.0110           0
     35502 MEMB     265      POPC     H14X     HAL2     0.900000E-01   1.00800           0
     35503 MEMB     265      POPC     H14Y     HAL2     0.900000E-01   1.00800           0
     35504 MEMB     265      POPC     C315     CTL2    -0.180000       12.0110           0
     35505 MEMB     265      POPC     H15X     HAL2     0.900000E-01   1.00800           0
     35506 MEMB     265      POPC     H15Y     HAL2     0.900000E-01   1.00800           0
     35507 MEMB     265      POPC     C316     CTL3    -0.270000       12.0110           0
     35508 MEMB     265      POPC     H16X     HAL3     0.900000E-01   1.00800           0
     35509 MEMB     265      POPC     H16Y     HAL3     0.900000E-01   1.00800           0
     35510 MEMB     265      POPC     H16Z     HAL3     0.900000E-01   1.00800           0
     35511 MEMB     266      POPC     N        NTL     -0.600000       14.0070           0
     35512 MEMB     266      POPC     C12      CTL2    -0.100000       12.0110           0
     35513 MEMB     266      POPC     H12A     HL       0.250000       1.00800           0
     35514 MEMB     266      POPC     H12B     HL       0.250000       1.00800           0
     35515 MEMB     266      POPC     C13      CTL5    -0.350000       12.0110           0
     35516 MEMB     266      POPC     H13A     HL       0.250000       1.00800           0
     35517 MEMB     266      POPC     H13B     HL       0.250000       1.00800           0
     35518 MEMB     266      POPC     H13C     HL       0.250000       1.00800           0
     35519 MEMB     266      POPC     C14      CTL5    -0.350000       12.0110           0
     35520 MEMB     266      POPC     H14A     HL       0.250000       1.00800           0
     35521 MEMB     266      POPC     H14B     HL       0.250000       1.00800           0
     35522 MEMB     266      POPC     H14C     HL       0.250000       1.00800           0
     35523 MEMB     266      POPC     C15      CTL5    -0.350000       12.0110           0
     35524 MEMB     266      POPC     H15A     HL       0.250000       1.00800           0
     35525 MEMB     266      POPC     H15B     HL       0.250000       1.00800           0
     35526 MEMB     266      POPC     H15C     HL       0.250000       1.00800           0
     35527 MEMB     266      POPC     C11      CTL2    -0.800000E-01   12.0110           0
     35528 MEMB     266      POPC     H11A     HAL2     0.900000E-01   1.00800           0
     35529 MEMB     266      POPC     H11B     HAL2     0.900000E-01   1.00800           0
     35530 MEMB     266      POPC     P        PL       1.50000        30.9740           0
     35531 MEMB     266      POPC     O13      O2L     -0.780000       15.9994           0
     35532 MEMB     266      POPC     O14      O2L     -0.780000       15.9994           0
     35533 MEMB     266      POPC     O12      OSLP    -0.570000       15.9994           0
     35534 MEMB     266      POPC     O11      OSLP    -0.570000       15.9994           0
     35535 MEMB     266      POPC     C1       CTL2    -0.800000E-01   12.0110           0
     35536 MEMB     266      POPC     HA       HAL2     0.900000E-01   1.00800           0
     35537 MEMB     266      POPC     HB       HAL2     0.900000E-01   1.00800           0
     35538 MEMB     266      POPC     C2       CTL1     0.170000       12.0110           0
     35539 MEMB     266      POPC     HS       HAL1     0.900000E-01   1.00800           0
     35540 MEMB     266      POPC     O21      OSL     -0.490000       15.9994           0
     35541 MEMB     266      POPC     C21      CL       0.900000       12.0110           0
     35542 MEMB     266      POPC     O22      OBL     -0.630000       15.9994           0
     35543 MEMB     266      POPC     C22      CTL2    -0.220000       12.0110           0
     35544 MEMB     266      POPC     H2R      HAL2     0.900000E-01   1.00800           0
     35545 MEMB     266      POPC     H2S      HAL2     0.900000E-01   1.00800           0
     35546 MEMB     266      POPC     C3       CTL2     0.800000E-01   12.0110           0
     35547 MEMB     266      POPC     HX       HAL2     0.900000E-01   1.00800           0
     35548 MEMB     266      POPC     HY       HAL2     0.900000E-01   1.00800           0
     35549 MEMB     266      POPC     O31      OSL     -0.490000       15.9994           0
     35550 MEMB     266      POPC     C31      CL       0.900000       12.0110           0
     35551 MEMB     266      POPC     O32      OBL     -0.630000       15.9994           0
     35552 MEMB     266      POPC     C32      CTL2    -0.220000       12.0110           0
     35553 MEMB     266      POPC     H2X      HAL2     0.900000E-01   1.00800           0
     35554 MEMB     266      POPC     H2Y      HAL2     0.900000E-01   1.00800           0
     35555 MEMB     266      POPC     C23      CTL2    -0.180000       12.0110           0
     35556 MEMB     266      POPC     H3R      HAL2     0.900000E-01   1.00800           0
     35557 MEMB     266      POPC     H3S      HAL2     0.900000E-01   1.00800           0
     35558 MEMB     266      POPC     C24      CTL2    -0.180000       12.0110           0
     35559 MEMB     266      POPC     H4R      HAL2     0.900000E-01   1.00800           0
     35560 MEMB     266      POPC     H4S      HAL2     0.900000E-01   1.00800           0
     35561 MEMB     266      POPC     C25      CTL2    -0.180000       12.0110           0
     35562 MEMB     266      POPC     H5R      HAL2     0.900000E-01   1.00800           0
     35563 MEMB     266      POPC     H5S      HAL2     0.900000E-01   1.00800           0
     35564 MEMB     266      POPC     C26      CTL2    -0.180000       12.0110           0
     35565 MEMB     266      POPC     H6R      HAL2     0.900000E-01   1.00800           0
     35566 MEMB     266      POPC     H6S      HAL2     0.900000E-01   1.00800           0
     35567 MEMB     266      POPC     C27      CTL2    -0.180000       12.0110           0
     35568 MEMB     266      POPC     H7R      HAL2     0.900000E-01   1.00800           0
     35569 MEMB     266      POPC     H7S      HAL2     0.900000E-01   1.00800           0
     35570 MEMB     266      POPC     C28      CTL2    -0.180000       12.0110           0
     35571 MEMB     266      POPC     H8R      HAL2     0.900000E-01   1.00800           0
     35572 MEMB     266      POPC     H8S      HAL2     0.900000E-01   1.00800           0
     35573 MEMB     266      POPC     C29      CEL1    -0.150000       12.0110           0
     35574 MEMB     266      POPC     H91      HEL1     0.150000       1.00800           0
     35575 MEMB     266      POPC     C210     CEL1    -0.150000       12.0110           0
     35576 MEMB     266      POPC     H101     HEL1     0.150000       1.00800           0
     35577 MEMB     266      POPC     C211     CTL2    -0.180000       12.0110           0
     35578 MEMB     266      POPC     H11R     HAL2     0.900000E-01   1.00800           0
     35579 MEMB     266      POPC     H11S     HAL2     0.900000E-01   1.00800           0
     35580 MEMB     266      POPC     C212     CTL2    -0.180000       12.0110           0
     35581 MEMB     266      POPC     H12R     HAL2     0.900000E-01   1.00800           0
     35582 MEMB     266      POPC     H12S     HAL2     0.900000E-01   1.00800           0
     35583 MEMB     266      POPC     C213     CTL2    -0.180000       12.0110           0
     35584 MEMB     266      POPC     H13R     HAL2     0.900000E-01   1.00800           0
     35585 MEMB     266      POPC     H13S     HAL2     0.900000E-01   1.00800           0
     35586 MEMB     266      POPC     C214     CTL2    -0.180000       12.0110           0
     35587 MEMB     266      POPC     H14R     HAL2     0.900000E-01   1.00800           0
     35588 MEMB     266      POPC     H14S     HAL2     0.900000E-01   1.00800           0
     35589 MEMB     266      POPC     C215     CTL2    -0.180000       12.0110           0
     35590 MEMB     266      POPC     H15R     HAL2     0.900000E-01   1.00800           0
     35591 MEMB     266      POPC     H15S     HAL2     0.900000E-01   1.00800           0
     35592 MEMB     266      POPC     C216     CTL2    -0.180000       12.0110           0
     35593 MEMB     266      POPC     H16R     HAL2     0.900000E-01   1.00800           0
     35594 MEMB     266      POPC     H16S     HAL2     0.900000E-01   1.00800           0
     35595 MEMB     266      POPC     C217     CTL2    -0.180000       12.0110           0
     35596 MEMB     266      POPC     H17R     HAL2     0.900000E-01   1.00800           0
     35597 MEMB     266      POPC     H17S     HAL2     0.900000E-01   1.00800           0
     35598 MEMB     266      POPC     C218     CTL3    -0.270000       12.0110           0
     35599 MEMB     266      POPC     H18R     HAL3     0.900000E-01   1.00800           0
     35600 MEMB     266      POPC     H18S     HAL3     0.900000E-01   1.00800           0
     35601 MEMB     266      POPC     H18T     HAL3     0.900000E-01   1.00800           0
     35602 MEMB     266      POPC     C33      CTL2    -0.180000       12.0110           0
     35603 MEMB     266      POPC     H3X      HAL2     0.900000E-01   1.00800           0
     35604 MEMB     266      POPC     H3Y      HAL2     0.900000E-01   1.00800           0
     35605 MEMB     266      POPC     C34      CTL2    -0.180000       12.0110           0
     35606 MEMB     266      POPC     H4X      HAL2     0.900000E-01   1.00800           0
     35607 MEMB     266      POPC     H4Y      HAL2     0.900000E-01   1.00800           0
     35608 MEMB     266      POPC     C35      CTL2    -0.180000       12.0110           0
     35609 MEMB     266      POPC     H5X      HAL2     0.900000E-01   1.00800           0
     35610 MEMB     266      POPC     H5Y      HAL2     0.900000E-01   1.00800           0
     35611 MEMB     266      POPC     C36      CTL2    -0.180000       12.0110           0
     35612 MEMB     266      POPC     H6X      HAL2     0.900000E-01   1.00800           0
     35613 MEMB     266      POPC     H6Y      HAL2     0.900000E-01   1.00800           0
     35614 MEMB     266      POPC     C37      CTL2    -0.180000       12.0110           0
     35615 MEMB     266      POPC     H7X      HAL2     0.900000E-01   1.00800           0
     35616 MEMB     266      POPC     H7Y      HAL2     0.900000E-01   1.00800           0
     35617 MEMB     266      POPC     C38      CTL2    -0.180000       12.0110           0
     35618 MEMB     266      POPC     H8X      HAL2     0.900000E-01   1.00800           0
     35619 MEMB     266      POPC     H8Y      HAL2     0.900000E-01   1.00800           0
     35620 MEMB     266      POPC     C39      CTL2    -0.180000       12.0110           0
     35621 MEMB     266      POPC     H9X      HAL2     0.900000E-01   1.00800           0
     35622 MEMB     266      POPC     H9Y      HAL2     0.900000E-01   1.00800           0
     35623 MEMB     266      POPC     C310     CTL2    -0.180000       12.0110           0
     35624 MEMB     266      POPC     H10X     HAL2     0.900000E-01   1.00800           0
     35625 MEMB     266      POPC     H10Y     HAL2     0.900000E-01   1.00800           0
     35626 MEMB     266      POPC     C311     CTL2    -0.180000       12.0110           0
     35627 MEMB     266      POPC     H11X     HAL2     0.900000E-01   1.00800           0
     35628 MEMB     266      POPC     H11Y     HAL2     0.900000E-01   1.00800           0
     35629 MEMB     266      POPC     C312     CTL2    -0.180000       12.0110           0
     35630 MEMB     266      POPC     H12X     HAL2     0.900000E-01   1.00800           0
     35631 MEMB     266      POPC     H12Y     HAL2     0.900000E-01   1.00800           0
     35632 MEMB     266      POPC     C313     CTL2    -0.180000       12.0110           0
     35633 MEMB     266      POPC     H13X     HAL2     0.900000E-01   1.00800           0
     35634 MEMB     266      POPC     H13Y     HAL2     0.900000E-01   1.00800           0
     35635 MEMB     266      POPC     C314     CTL2    -0.180000       12.0110           0
     35636 MEMB     266      POPC     H14X     HAL2     0.900000E-01   1.00800           0
     35637 MEMB     266      POPC     H14Y     HAL2     0.900000E-01   1.00800           0
     35638 MEMB     266      POPC     C315     CTL2    -0.180000       12.0110           0
     35639 MEMB     266      POPC     H15X     HAL2     0.900000E-01   1.00800           0
     35640 MEMB     266      POPC     H15Y     HAL2     0.900000E-01   1.00800           0
     35641 MEMB     266      POPC     C316     CTL3    -0.270000       12.0110           0
     35642 MEMB     266      POPC     H16X     HAL3     0.900000E-01   1.00800           0
     35643 MEMB     266      POPC     H16Y     HAL3     0.900000E-01   1.00800           0
     35644 MEMB     266      POPC     H16Z     HAL3     0.900000E-01   1.00800           0
     35645 MEMB     267      POPC     N        NTL     -0.600000       14.0070           0
     35646 MEMB     267      POPC     C12      CTL2    -0.100000       12.0110           0
     35647 MEMB     267      POPC     H12A     HL       0.250000       1.00800           0
     35648 MEMB     267      POPC     H12B     HL       0.250000       1.00800           0
     35649 MEMB     267      POPC     C13      CTL5    -0.350000       12.0110           0
     35650 MEMB     267      POPC     H13A     HL       0.250000       1.00800           0
     35651 MEMB     267      POPC     H13B     HL       0.250000       1.00800           0
     35652 MEMB     267      POPC     H13C     HL       0.250000       1.00800           0
     35653 MEMB     267      POPC     C14      CTL5    -0.350000       12.0110           0
     35654 MEMB     267      POPC     H14A     HL       0.250000       1.00800           0
     35655 MEMB     267      POPC     H14B     HL       0.250000       1.00800           0
     35656 MEMB     267      POPC     H14C     HL       0.250000       1.00800           0
     35657 MEMB     267      POPC     C15      CTL5    -0.350000       12.0110           0
     35658 MEMB     267      POPC     H15A     HL       0.250000       1.00800           0
     35659 MEMB     267      POPC     H15B     HL       0.250000       1.00800           0
     35660 MEMB     267      POPC     H15C     HL       0.250000       1.00800           0
     35661 MEMB     267      POPC     C11      CTL2    -0.800000E-01   12.0110           0
     35662 MEMB     267      POPC     H11A     HAL2     0.900000E-01   1.00800           0
     35663 MEMB     267      POPC     H11B     HAL2     0.900000E-01   1.00800           0
     35664 MEMB     267      POPC     P        PL       1.50000        30.9740           0
     35665 MEMB     267      POPC     O13      O2L     -0.780000       15.9994           0
     35666 MEMB     267      POPC     O14      O2L     -0.780000       15.9994           0
     35667 MEMB     267      POPC     O12      OSLP    -0.570000       15.9994           0
     35668 MEMB     267      POPC     O11      OSLP    -0.570000       15.9994           0
     35669 MEMB     267      POPC     C1       CTL2    -0.800000E-01   12.0110           0
     35670 MEMB     267      POPC     HA       HAL2     0.900000E-01   1.00800           0
     35671 MEMB     267      POPC     HB       HAL2     0.900000E-01   1.00800           0
     35672 MEMB     267      POPC     C2       CTL1     0.170000       12.0110           0
     35673 MEMB     267      POPC     HS       HAL1     0.900000E-01   1.00800           0
     35674 MEMB     267      POPC     O21      OSL     -0.490000       15.9994           0
     35675 MEMB     267      POPC     C21      CL       0.900000       12.0110           0
     35676 MEMB     267      POPC     O22      OBL     -0.630000       15.9994           0
     35677 MEMB     267      POPC     C22      CTL2    -0.220000       12.0110           0
     35678 MEMB     267      POPC     H2R      HAL2     0.900000E-01   1.00800           0
     35679 MEMB     267      POPC     H2S      HAL2     0.900000E-01   1.00800           0
     35680 MEMB     267      POPC     C3       CTL2     0.800000E-01   12.0110           0
     35681 MEMB     267      POPC     HX       HAL2     0.900000E-01   1.00800           0
     35682 MEMB     267      POPC     HY       HAL2     0.900000E-01   1.00800           0
     35683 MEMB     267      POPC     O31      OSL     -0.490000       15.9994           0
     35684 MEMB     267      POPC     C31      CL       0.900000       12.0110           0
     35685 MEMB     267      POPC     O32      OBL     -0.630000       15.9994           0
     35686 MEMB     267      POPC     C32      CTL2    -0.220000       12.0110           0
     35687 MEMB     267      POPC     H2X      HAL2     0.900000E-01   1.00800           0
     35688 MEMB     267      POPC     H2Y      HAL2     0.900000E-01   1.00800           0
     35689 MEMB     267      POPC     C23      CTL2    -0.180000       12.0110           0
     35690 MEMB     267      POPC     H3R      HAL2     0.900000E-01   1.00800           0
     35691 MEMB     267      POPC     H3S      HAL2     0.900000E-01   1.00800           0
     35692 MEMB     267      POPC     C24      CTL2    -0.180000       12.0110           0
     35693 MEMB     267      POPC     H4R      HAL2     0.900000E-01   1.00800           0
     35694 MEMB     267      POPC     H4S      HAL2     0.900000E-01   1.00800           0
     35695 MEMB     267      POPC     C25      CTL2    -0.180000       12.0110           0
     35696 MEMB     267      POPC     H5R      HAL2     0.900000E-01   1.00800           0
     35697 MEMB     267      POPC     H5S      HAL2     0.900000E-01   1.00800           0
     35698 MEMB     267      POPC     C26      CTL2    -0.180000       12.0110           0
     35699 MEMB     267      POPC     H6R      HAL2     0.900000E-01   1.00800           0
     35700 MEMB     267      POPC     H6S      HAL2     0.900000E-01   1.00800           0
     35701 MEMB     267      POPC     C27      CTL2    -0.180000       12.0110           0
     35702 MEMB     267      POPC     H7R      HAL2     0.900000E-01   1.00800           0
     35703 MEMB     267      POPC     H7S      HAL2     0.900000E-01   1.00800           0
     35704 MEMB     267      POPC     C28      CTL2    -0.180000       12.0110           0
     35705 MEMB     267      POPC     H8R      HAL2     0.900000E-01   1.00800           0
     35706 MEMB     267      POPC     H8S      HAL2     0.900000E-01   1.00800           0
     35707 MEMB     267      POPC     C29      CEL1    -0.150000       12.0110           0
     35708 MEMB     267      POPC     H91      HEL1     0.150000       1.00800           0
     35709 MEMB     267      POPC     C210     CEL1    -0.150000       12.0110           0
     35710 MEMB     267      POPC     H101     HEL1     0.150000       1.00800           0
     35711 MEMB     267      POPC     C211     CTL2    -0.180000       12.0110           0
     35712 MEMB     267      POPC     H11R     HAL2     0.900000E-01   1.00800           0
     35713 MEMB     267      POPC     H11S     HAL2     0.900000E-01   1.00800           0
     35714 MEMB     267      POPC     C212     CTL2    -0.180000       12.0110           0
     35715 MEMB     267      POPC     H12R     HAL2     0.900000E-01   1.00800           0
     35716 MEMB     267      POPC     H12S     HAL2     0.900000E-01   1.00800           0
     35717 MEMB     267      POPC     C213     CTL2    -0.180000       12.0110           0
     35718 MEMB     267      POPC     H13R     HAL2     0.900000E-01   1.00800           0
     35719 MEMB     267      POPC     H13S     HAL2     0.900000E-01   1.00800           0
     35720 MEMB     267      POPC     C214     CTL2    -0.180000       12.0110           0
     35721 MEMB     267      POPC     H14R     HAL2     0.900000E-01   1.00800           0
     35722 MEMB     267      POPC     H14S     HAL2     0.900000E-01   1.00800           0
     35723 MEMB     267      POPC     C215     CTL2    -0.180000       12.0110           0
     35724 MEMB     267      POPC     H15R     HAL2     0.900000E-01   1.00800           0
     35725 MEMB     267      POPC     H15S     HAL2     0.900000E-01   1.00800           0
     35726 MEMB     267      POPC     C216     CTL2    -0.180000       12.0110           0
     35727 MEMB     267      POPC     H16R     HAL2     0.900000E-01   1.00800           0
     35728 MEMB     267      POPC     H16S     HAL2     0.900000E-01   1.00800           0
     35729 MEMB     267      POPC     C217     CTL2    -0.180000       12.0110           0
     35730 MEMB     267      POPC     H17R     HAL2     0.900000E-01   1.00800           0
     35731 MEMB     267      POPC     H17S     HAL2     0.900000E-01   1.00800           0
     35732 MEMB     267      POPC     C218     CTL3    -0.270000       12.0110           0
     35733 MEMB     267      POPC     H18R     HAL3     0.900000E-01   1.00800           0
     35734 MEMB     267      POPC     H18S     HAL3     0.900000E-01   1.00800           0
     35735 MEMB     267      POPC     H18T     HAL3     0.900000E-01   1.00800           0
     35736 MEMB     267      POPC     C33      CTL2    -0.180000       12.0110           0
     35737 MEMB     267      POPC     H3X      HAL2     0.900000E-01   1.00800           0
     35738 MEMB     267      POPC     H3Y      HAL2     0.900000E-01   1.00800           0
     35739 MEMB     267      POPC     C34      CTL2    -0.180000       12.0110           0
     35740 MEMB     267      POPC     H4X      HAL2     0.900000E-01   1.00800           0
     35741 MEMB     267      POPC     H4Y      HAL2     0.900000E-01   1.00800           0
     35742 MEMB     267      POPC     C35      CTL2    -0.180000       12.0110           0
     35743 MEMB     267      POPC     H5X      HAL2     0.900000E-01   1.00800           0
     35744 MEMB     267      POPC     H5Y      HAL2     0.900000E-01   1.00800           0
     35745 MEMB     267      POPC     C36      CTL2    -0.180000       12.0110           0
     35746 MEMB     267      POPC     H6X      HAL2     0.900000E-01   1.00800           0
     35747 MEMB     267      POPC     H6Y      HAL2     0.900000E-01   1.00800           0
     35748 MEMB     267      POPC     C37      CTL2    -0.180000       12.0110           0
     35749 MEMB     267      POPC     H7X      HAL2     0.900000E-01   1.00800           0
     35750 MEMB     267      POPC     H7Y      HAL2     0.900000E-01   1.00800           0
     35751 MEMB     267      POPC     C38      CTL2    -0.180000       12.0110           0
     35752 MEMB     267      POPC     H8X      HAL2     0.900000E-01   1.00800           0
     35753 MEMB     267      POPC     H8Y      HAL2     0.900000E-01   1.00800           0
     35754 MEMB     267      POPC     C39      CTL2    -0.180000       12.0110           0
     35755 MEMB     267      POPC     H9X      HAL2     0.900000E-01   1.00800           0
     35756 MEMB     267      POPC     H9Y      HAL2     0.900000E-01   1.00800           0
     35757 MEMB     267      POPC     C310     CTL2    -0.180000       12.0110           0
     35758 MEMB     267      POPC     H10X     HAL2     0.900000E-01   1.00800           0
     35759 MEMB     267      POPC     H10Y     HAL2     0.900000E-01   1.00800           0
     35760 MEMB     267      POPC     C311     CTL2    -0.180000       12.0110           0
     35761 MEMB     267      POPC     H11X     HAL2     0.900000E-01   1.00800           0
     35762 MEMB     267      POPC     H11Y     HAL2     0.900000E-01   1.00800           0
     35763 MEMB     267      POPC     C312     CTL2    -0.180000       12.0110           0
     35764 MEMB     267      POPC     H12X     HAL2     0.900000E-01   1.00800           0
     35765 MEMB     267      POPC     H12Y     HAL2     0.900000E-01   1.00800           0
     35766 MEMB     267      POPC     C313     CTL2    -0.180000       12.0110           0
     35767 MEMB     267      POPC     H13X     HAL2     0.900000E-01   1.00800           0
     35768 MEMB     267      POPC     H13Y     HAL2     0.900000E-01   1.00800           0
     35769 MEMB     267      POPC     C314     CTL2    -0.180000       12.0110           0
     35770 MEMB     267      POPC     H14X     HAL2     0.900000E-01   1.00800           0
     35771 MEMB     267      POPC     H14Y     HAL2     0.900000E-01   1.00800           0
     35772 MEMB     267      POPC     C315     CTL2    -0.180000       12.0110           0
     35773 MEMB     267      POPC     H15X     HAL2     0.900000E-01   1.00800           0
     35774 MEMB     267      POPC     H15Y     HAL2     0.900000E-01   1.00800           0
     35775 MEMB     267      POPC     C316     CTL3    -0.270000       12.0110           0
     35776 MEMB     267      POPC     H16X     HAL3     0.900000E-01   1.00800           0
     35777 MEMB     267      POPC     H16Y     HAL3     0.900000E-01   1.00800           0
     35778 MEMB     267      POPC     H16Z     HAL3     0.900000E-01   1.00800           0
     35779 MEMB     268      POPC     N        NTL     -0.600000       14.0070           0
     35780 MEMB     268      POPC     C12      CTL2    -0.100000       12.0110           0
     35781 MEMB     268      POPC     H12A     HL       0.250000       1.00800           0
     35782 MEMB     268      POPC     H12B     HL       0.250000       1.00800           0
     35783 MEMB     268      POPC     C13      CTL5    -0.350000       12.0110           0
     35784 MEMB     268      POPC     H13A     HL       0.250000       1.00800           0
     35785 MEMB     268      POPC     H13B     HL       0.250000       1.00800           0
     35786 MEMB     268      POPC     H13C     HL       0.250000       1.00800           0
     35787 MEMB     268      POPC     C14      CTL5    -0.350000       12.0110           0
     35788 MEMB     268      POPC     H14A     HL       0.250000       1.00800           0
     35789 MEMB     268      POPC     H14B     HL       0.250000       1.00800           0
     35790 MEMB     268      POPC     H14C     HL       0.250000       1.00800           0
     35791 MEMB     268      POPC     C15      CTL5    -0.350000       12.0110           0
     35792 MEMB     268      POPC     H15A     HL       0.250000       1.00800           0
     35793 MEMB     268      POPC     H15B     HL       0.250000       1.00800           0
     35794 MEMB     268      POPC     H15C     HL       0.250000       1.00800           0
     35795 MEMB     268      POPC     C11      CTL2    -0.800000E-01   12.0110           0
     35796 MEMB     268      POPC     H11A     HAL2     0.900000E-01   1.00800           0
     35797 MEMB     268      POPC     H11B     HAL2     0.900000E-01   1.00800           0
     35798 MEMB     268      POPC     P        PL       1.50000        30.9740           0
     35799 MEMB     268      POPC     O13      O2L     -0.780000       15.9994           0
     35800 MEMB     268      POPC     O14      O2L     -0.780000       15.9994           0
     35801 MEMB     268      POPC     O12      OSLP    -0.570000       15.9994           0
     35802 MEMB     268      POPC     O11      OSLP    -0.570000       15.9994           0
     35803 MEMB     268      POPC     C1       CTL2    -0.800000E-01   12.0110           0
     35804 MEMB     268      POPC     HA       HAL2     0.900000E-01   1.00800           0
     35805 MEMB     268      POPC     HB       HAL2     0.900000E-01   1.00800           0
     35806 MEMB     268      POPC     C2       CTL1     0.170000       12.0110           0
     35807 MEMB     268      POPC     HS       HAL1     0.900000E-01   1.00800           0
     35808 MEMB     268      POPC     O21      OSL     -0.490000       15.9994           0
     35809 MEMB     268      POPC     C21      CL       0.900000       12.0110           0
     35810 MEMB     268      POPC     O22      OBL     -0.630000       15.9994           0
     35811 MEMB     268      POPC     C22      CTL2    -0.220000       12.0110           0
     35812 MEMB     268      POPC     H2R      HAL2     0.900000E-01   1.00800           0
     35813 MEMB     268      POPC     H2S      HAL2     0.900000E-01   1.00800           0
     35814 MEMB     268      POPC     C3       CTL2     0.800000E-01   12.0110           0
     35815 MEMB     268      POPC     HX       HAL2     0.900000E-01   1.00800           0
     35816 MEMB     268      POPC     HY       HAL2     0.900000E-01   1.00800           0
     35817 MEMB     268      POPC     O31      OSL     -0.490000       15.9994           0
     35818 MEMB     268      POPC     C31      CL       0.900000       12.0110           0
     35819 MEMB     268      POPC     O32      OBL     -0.630000       15.9994           0
     35820 MEMB     268      POPC     C32      CTL2    -0.220000       12.0110           0
     35821 MEMB     268      POPC     H2X      HAL2     0.900000E-01   1.00800           0
     35822 MEMB     268      POPC     H2Y      HAL2     0.900000E-01   1.00800           0
     35823 MEMB     268      POPC     C23      CTL2    -0.180000       12.0110           0
     35824 MEMB     268      POPC     H3R      HAL2     0.900000E-01   1.00800           0
     35825 MEMB     268      POPC     H3S      HAL2     0.900000E-01   1.00800           0
     35826 MEMB     268      POPC     C24      CTL2    -0.180000       12.0110           0
     35827 MEMB     268      POPC     H4R      HAL2     0.900000E-01   1.00800           0
     35828 MEMB     268      POPC     H4S      HAL2     0.900000E-01   1.00800           0
     35829 MEMB     268      POPC     C25      CTL2    -0.180000       12.0110           0
     35830 MEMB     268      POPC     H5R      HAL2     0.900000E-01   1.00800           0
     35831 MEMB     268      POPC     H5S      HAL2     0.900000E-01   1.00800           0
     35832 MEMB     268      POPC     C26      CTL2    -0.180000       12.0110           0
     35833 MEMB     268      POPC     H6R      HAL2     0.900000E-01   1.00800           0
     35834 MEMB     268      POPC     H6S      HAL2     0.900000E-01   1.00800           0
     35835 MEMB     268      POPC     C27      CTL2    -0.180000       12.0110           0
     35836 MEMB     268      POPC     H7R      HAL2     0.900000E-01   1.00800           0
     35837 MEMB     268      POPC     H7S      HAL2     0.900000E-01   1.00800           0
     35838 MEMB     268      POPC     C28      CTL2    -0.180000       12.0110           0
     35839 MEMB     268      POPC     H8R      HAL2     0.900000E-01   1.00800           0
     35840 MEMB     268      POPC     H8S      HAL2     0.900000E-01   1.00800           0
     35841 MEMB     268      POPC     C29      CEL1    -0.150000       12.0110           0
     35842 MEMB     268      POPC     H91      HEL1     0.150000       1.00800           0
     35843 MEMB     268      POPC     C210     CEL1    -0.150000       12.0110           0
     35844 MEMB     268      POPC     H101     HEL1     0.150000       1.00800           0
     35845 MEMB     268      POPC     C211     CTL2    -0.180000       12.0110           0
     35846 MEMB     268      POPC     H11R     HAL2     0.900000E-01   1.00800           0
     35847 MEMB     268      POPC     H11S     HAL2     0.900000E-01   1.00800           0
     35848 MEMB     268      POPC     C212     CTL2    -0.180000       12.0110           0
     35849 MEMB     268      POPC     H12R     HAL2     0.900000E-01   1.00800           0
     35850 MEMB     268      POPC     H12S     HAL2     0.900000E-01   1.00800           0
     35851 MEMB     268      POPC     C213     CTL2    -0.180000       12.0110           0
     35852 MEMB     268      POPC     H13R     HAL2     0.900000E-01   1.00800           0
     35853 MEMB     268      POPC     H13S     HAL2     0.900000E-01   1.00800           0
     35854 MEMB     268      POPC     C214     CTL2    -0.180000       12.0110           0
     35855 MEMB     268      POPC     H14R     HAL2     0.900000E-01   1.00800           0
     35856 MEMB     268      POPC     H14S     HAL2     0.900000E-01   1.00800           0
     35857 MEMB     268      POPC     C215     CTL2    -0.180000       12.0110           0
     35858 MEMB     268      POPC     H15R     HAL2     0.900000E-01   1.00800           0
     35859 MEMB     268      POPC     H15S     HAL2     0.900000E-01   1.00800           0
     35860 MEMB     268      POPC     C216     CTL2    -0.180000       12.0110           0
     35861 MEMB     268      POPC     H16R     HAL2     0.900000E-01   1.00800           0
     35862 MEMB     268      POPC     H16S     HAL2     0.900000E-01   1.00800           0
     35863 MEMB     268      POPC     C217     CTL2    -0.180000       12.0110           0
     35864 MEMB     268      POPC     H17R     HAL2     0.900000E-01   1.00800           0
     35865 MEMB     268      POPC     H17S     HAL2     0.900000E-01   1.00800           0
     35866 MEMB     268      POPC     C218     CTL3    -0.270000       12.0110           0
     35867 MEMB     268      POPC     H18R     HAL3     0.900000E-01   1.00800           0
     35868 MEMB     268      POPC     H18S     HAL3     0.900000E-01   1.00800           0
     35869 MEMB     268      POPC     H18T     HAL3     0.900000E-01   1.00800           0
     35870 MEMB     268      POPC     C33      CTL2    -0.180000       12.0110           0
     35871 MEMB     268      POPC     H3X      HAL2     0.900000E-01   1.00800           0
     35872 MEMB     268      POPC     H3Y      HAL2     0.900000E-01   1.00800           0
     35873 MEMB     268      POPC     C34      CTL2    -0.180000       12.0110           0
     35874 MEMB     268      POPC     H4X      HAL2     0.900000E-01   1.00800           0
     35875 MEMB     268      POPC     H4Y      HAL2     0.900000E-01   1.00800           0
     35876 MEMB     268      POPC     C35      CTL2    -0.180000       12.0110           0
     35877 MEMB     268      POPC     H5X      HAL2     0.900000E-01   1.00800           0
     35878 MEMB     268      POPC     H5Y      HAL2     0.900000E-01   1.00800           0
     35879 MEMB     268      POPC     C36      CTL2    -0.180000       12.0110           0
     35880 MEMB     268      POPC     H6X      HAL2     0.900000E-01   1.00800           0
     35881 MEMB     268      POPC     H6Y      HAL2     0.900000E-01   1.00800           0
     35882 MEMB     268      POPC     C37      CTL2    -0.180000       12.0110           0
     35883 MEMB     268      POPC     H7X      HAL2     0.900000E-01   1.00800           0
     35884 MEMB     268      POPC     H7Y      HAL2     0.900000E-01   1.00800           0
     35885 MEMB     268      POPC     C38      CTL2    -0.180000       12.0110           0
     35886 MEMB     268      POPC     H8X      HAL2     0.900000E-01   1.00800           0
     35887 MEMB     268      POPC     H8Y      HAL2     0.900000E-01   1.00800           0
     35888 MEMB     268      POPC     C39      CTL2    -0.180000       12.0110           0
     35889 MEMB     268      POPC     H9X      HAL2     0.900000E-01   1.00800           0
     35890 MEMB     268      POPC     H9Y      HAL2     0.900000E-01   1.00800           0
     35891 MEMB     268      POPC     C310     CTL2    -0.180000       12.0110           0
     35892 MEMB     268      POPC     H10X     HAL2     0.900000E-01   1.00800           0
     35893 MEMB     268      POPC     H10Y     HAL2     0.900000E-01   1.00800           0
     35894 MEMB     268      POPC     C311     CTL2    -0.180000       12.0110           0
     35895 MEMB     268      POPC     H11X     HAL2     0.900000E-01   1.00800           0
     35896 MEMB     268      POPC     H11Y     HAL2     0.900000E-01   1.00800           0
     35897 MEMB     268      POPC     C312     CTL2    -0.180000       12.0110           0
     35898 MEMB     268      POPC     H12X     HAL2     0.900000E-01   1.00800           0
     35899 MEMB     268      POPC     H12Y     HAL2     0.900000E-01   1.00800           0
     35900 MEMB     268      POPC     C313     CTL2    -0.180000       12.0110           0
     35901 MEMB     268      POPC     H13X     HAL2     0.900000E-01   1.00800           0
     35902 MEMB     268      POPC     H13Y     HAL2     0.900000E-01   1.00800           0
     35903 MEMB     268      POPC     C314     CTL2    -0.180000       12.0110           0
     35904 MEMB     268      POPC     H14X     HAL2     0.900000E-01   1.00800           0
     35905 MEMB     268      POPC     H14Y     HAL2     0.900000E-01   1.00800           0
     35906 MEMB     268      POPC     C315     CTL2    -0.180000       12.0110           0
     35907 MEMB     268      POPC     H15X     HAL2     0.900000E-01   1.00800           0
     35908 MEMB     268      POPC     H15Y     HAL2     0.900000E-01   1.00800           0
     35909 MEMB     268      POPC     C316     CTL3    -0.270000       12.0110           0
     35910 MEMB     268      POPC     H16X     HAL3     0.900000E-01   1.00800           0
     35911 MEMB     268      POPC     H16Y     HAL3     0.900000E-01   1.00800           0
     35912 MEMB     268      POPC     H16Z     HAL3     0.900000E-01   1.00800           0
     35913 MEMB     269      POPC     N        NTL     -0.600000       14.0070           0
     35914 MEMB     269      POPC     C12      CTL2    -0.100000       12.0110           0
     35915 MEMB     269      POPC     H12A     HL       0.250000       1.00800           0
     35916 MEMB     269      POPC     H12B     HL       0.250000       1.00800           0
     35917 MEMB     269      POPC     C13      CTL5    -0.350000       12.0110           0
     35918 MEMB     269      POPC     H13A     HL       0.250000       1.00800           0
     35919 MEMB     269      POPC     H13B     HL       0.250000       1.00800           0
     35920 MEMB     269      POPC     H13C     HL       0.250000       1.00800           0
     35921 MEMB     269      POPC     C14      CTL5    -0.350000       12.0110           0
     35922 MEMB     269      POPC     H14A     HL       0.250000       1.00800           0
     35923 MEMB     269      POPC     H14B     HL       0.250000       1.00800           0
     35924 MEMB     269      POPC     H14C     HL       0.250000       1.00800           0
     35925 MEMB     269      POPC     C15      CTL5    -0.350000       12.0110           0
     35926 MEMB     269      POPC     H15A     HL       0.250000       1.00800           0
     35927 MEMB     269      POPC     H15B     HL       0.250000       1.00800           0
     35928 MEMB     269      POPC     H15C     HL       0.250000       1.00800           0
     35929 MEMB     269      POPC     C11      CTL2    -0.800000E-01   12.0110           0
     35930 MEMB     269      POPC     H11A     HAL2     0.900000E-01   1.00800           0
     35931 MEMB     269      POPC     H11B     HAL2     0.900000E-01   1.00800           0
     35932 MEMB     269      POPC     P        PL       1.50000        30.9740           0
     35933 MEMB     269      POPC     O13      O2L     -0.780000       15.9994           0
     35934 MEMB     269      POPC     O14      O2L     -0.780000       15.9994           0
     35935 MEMB     269      POPC     O12      OSLP    -0.570000       15.9994           0
     35936 MEMB     269      POPC     O11      OSLP    -0.570000       15.9994           0
     35937 MEMB     269      POPC     C1       CTL2    -0.800000E-01   12.0110           0
     35938 MEMB     269      POPC     HA       HAL2     0.900000E-01   1.00800           0
     35939 MEMB     269      POPC     HB       HAL2     0.900000E-01   1.00800           0
     35940 MEMB     269      POPC     C2       CTL1     0.170000       12.0110           0
     35941 MEMB     269      POPC     HS       HAL1     0.900000E-01   1.00800           0
     35942 MEMB     269      POPC     O21      OSL     -0.490000       15.9994           0
     35943 MEMB     269      POPC     C21      CL       0.900000       12.0110           0
     35944 MEMB     269      POPC     O22      OBL     -0.630000       15.9994           0
     35945 MEMB     269      POPC     C22      CTL2    -0.220000       12.0110           0
     35946 MEMB     269      POPC     H2R      HAL2     0.900000E-01   1.00800           0
     35947 MEMB     269      POPC     H2S      HAL2     0.900000E-01   1.00800           0
     35948 MEMB     269      POPC     C3       CTL2     0.800000E-01   12.0110           0
     35949 MEMB     269      POPC     HX       HAL2     0.900000E-01   1.00800           0
     35950 MEMB     269      POPC     HY       HAL2     0.900000E-01   1.00800           0
     35951 MEMB     269      POPC     O31      OSL     -0.490000       15.9994           0
     35952 MEMB     269      POPC     C31      CL       0.900000       12.0110           0
     35953 MEMB     269      POPC     O32      OBL     -0.630000       15.9994           0
     35954 MEMB     269      POPC     C32      CTL2    -0.220000       12.0110           0
     35955 MEMB     269      POPC     H2X      HAL2     0.900000E-01   1.00800           0
     35956 MEMB     269      POPC     H2Y      HAL2     0.900000E-01   1.00800           0
     35957 MEMB     269      POPC     C23      CTL2    -0.180000       12.0110           0
     35958 MEMB     269      POPC     H3R      HAL2     0.900000E-01   1.00800           0
     35959 MEMB     269      POPC     H3S      HAL2     0.900000E-01   1.00800           0
     35960 MEMB     269      POPC     C24      CTL2    -0.180000       12.0110           0
     35961 MEMB     269      POPC     H4R      HAL2     0.900000E-01   1.00800           0
     35962 MEMB     269      POPC     H4S      HAL2     0.900000E-01   1.00800           0
     35963 MEMB     269      POPC     C25      CTL2    -0.180000       12.0110           0
     35964 MEMB     269      POPC     H5R      HAL2     0.900000E-01   1.00800           0
     35965 MEMB     269      POPC     H5S      HAL2     0.900000E-01   1.00800           0
     35966 MEMB     269      POPC     C26      CTL2    -0.180000       12.0110           0
     35967 MEMB     269      POPC     H6R      HAL2     0.900000E-01   1.00800           0
     35968 MEMB     269      POPC     H6S      HAL2     0.900000E-01   1.00800           0
     35969 MEMB     269      POPC     C27      CTL2    -0.180000       12.0110           0
     35970 MEMB     269      POPC     H7R      HAL2     0.900000E-01   1.00800           0
     35971 MEMB     269      POPC     H7S      HAL2     0.900000E-01   1.00800           0
     35972 MEMB     269      POPC     C28      CTL2    -0.180000       12.0110           0
     35973 MEMB     269      POPC     H8R      HAL2     0.900000E-01   1.00800           0
     35974 MEMB     269      POPC     H8S      HAL2     0.900000E-01   1.00800           0
     35975 MEMB     269      POPC     C29      CEL1    -0.150000       12.0110           0
     35976 MEMB     269      POPC     H91      HEL1     0.150000       1.00800           0
     35977 MEMB     269      POPC     C210     CEL1    -0.150000       12.0110           0
     35978 MEMB     269      POPC     H101     HEL1     0.150000       1.00800           0
     35979 MEMB     269      POPC     C211     CTL2    -0.180000       12.0110           0
     35980 MEMB     269      POPC     H11R     HAL2     0.900000E-01   1.00800           0
     35981 MEMB     269      POPC     H11S     HAL2     0.900000E-01   1.00800           0
     35982 MEMB     269      POPC     C212     CTL2    -0.180000       12.0110           0
     35983 MEMB     269      POPC     H12R     HAL2     0.900000E-01   1.00800           0
     35984 MEMB     269      POPC     H12S     HAL2     0.900000E-01   1.00800           0
     35985 MEMB     269      POPC     C213     CTL2    -0.180000       12.0110           0
     35986 MEMB     269      POPC     H13R     HAL2     0.900000E-01   1.00800           0
     35987 MEMB     269      POPC     H13S     HAL2     0.900000E-01   1.00800           0
     35988 MEMB     269      POPC     C214     CTL2    -0.180000       12.0110           0
     35989 MEMB     269      POPC     H14R     HAL2     0.900000E-01   1.00800           0
     35990 MEMB     269      POPC     H14S     HAL2     0.900000E-01   1.00800           0
     35991 MEMB     269      POPC     C215     CTL2    -0.180000       12.0110           0
     35992 MEMB     269      POPC     H15R     HAL2     0.900000E-01   1.00800           0
     35993 MEMB     269      POPC     H15S     HAL2     0.900000E-01   1.00800           0
     35994 MEMB     269      POPC     C216     CTL2    -0.180000       12.0110           0
     35995 MEMB     269      POPC     H16R     HAL2     0.900000E-01   1.00800           0
     35996 MEMB     269      POPC     H16S     HAL2     0.900000E-01   1.00800           0
     35997 MEMB     269      POPC     C217     CTL2    -0.180000       12.0110           0
     35998 MEMB     269      POPC     H17R     HAL2     0.900000E-01   1.00800           0
     35999 MEMB     269      POPC     H17S     HAL2     0.900000E-01   1.00800           0
     36000 MEMB     269      POPC     C218     CTL3    -0.270000       12.0110           0
     36001 MEMB     269      POPC     H18R     HAL3     0.900000E-01   1.00800           0
     36002 MEMB     269      POPC     H18S     HAL3     0.900000E-01   1.00800           0
     36003 MEMB     269      POPC     H18T     HAL3     0.900000E-01   1.00800           0
     36004 MEMB     269      POPC     C33      CTL2    -0.180000       12.0110           0
     36005 MEMB     269      POPC     H3X      HAL2     0.900000E-01   1.00800           0
     36006 MEMB     269      POPC     H3Y      HAL2     0.900000E-01   1.00800           0
     36007 MEMB     269      POPC     C34      CTL2    -0.180000       12.0110           0
     36008 MEMB     269      POPC     H4X      HAL2     0.900000E-01   1.00800           0
     36009 MEMB     269      POPC     H4Y      HAL2     0.900000E-01   1.00800           0
     36010 MEMB     269      POPC     C35      CTL2    -0.180000       12.0110           0
     36011 MEMB     269      POPC     H5X      HAL2     0.900000E-01   1.00800           0
     36012 MEMB     269      POPC     H5Y      HAL2     0.900000E-01   1.00800           0
     36013 MEMB     269      POPC     C36      CTL2    -0.180000       12.0110           0
     36014 MEMB     269      POPC     H6X      HAL2     0.900000E-01   1.00800           0
     36015 MEMB     269      POPC     H6Y      HAL2     0.900000E-01   1.00800           0
     36016 MEMB     269      POPC     C37      CTL2    -0.180000       12.0110           0
     36017 MEMB     269      POPC     H7X      HAL2     0.900000E-01   1.00800           0
     36018 MEMB     269      POPC     H7Y      HAL2     0.900000E-01   1.00800           0
     36019 MEMB     269      POPC     C38      CTL2    -0.180000       12.0110           0
     36020 MEMB     269      POPC     H8X      HAL2     0.900000E-01   1.00800           0
     36021 MEMB     269      POPC     H8Y      HAL2     0.900000E-01   1.00800           0
     36022 MEMB     269      POPC     C39      CTL2    -0.180000       12.0110           0
     36023 MEMB     269      POPC     H9X      HAL2     0.900000E-01   1.00800           0
     36024 MEMB     269      POPC     H9Y      HAL2     0.900000E-01   1.00800           0
     36025 MEMB     269      POPC     C310     CTL2    -0.180000       12.0110           0
     36026 MEMB     269      POPC     H10X     HAL2     0.900000E-01   1.00800           0
     36027 MEMB     269      POPC     H10Y     HAL2     0.900000E-01   1.00800           0
     36028 MEMB     269      POPC     C311     CTL2    -0.180000       12.0110           0
     36029 MEMB     269      POPC     H11X     HAL2     0.900000E-01   1.00800           0
     36030 MEMB     269      POPC     H11Y     HAL2     0.900000E-01   1.00800           0
     36031 MEMB     269      POPC     C312     CTL2    -0.180000       12.0110           0
     36032 MEMB     269      POPC     H12X     HAL2     0.900000E-01   1.00800           0
     36033 MEMB     269      POPC     H12Y     HAL2     0.900000E-01   1.00800           0
     36034 MEMB     269      POPC     C313     CTL2    -0.180000       12.0110           0
     36035 MEMB     269      POPC     H13X     HAL2     0.900000E-01   1.00800           0
     36036 MEMB     269      POPC     H13Y     HAL2     0.900000E-01   1.00800           0
     36037 MEMB     269      POPC     C314     CTL2    -0.180000       12.0110           0
     36038 MEMB     269      POPC     H14X     HAL2     0.900000E-01   1.00800           0
     36039 MEMB     269      POPC     H14Y     HAL2     0.900000E-01   1.00800           0
     36040 MEMB     269      POPC     C315     CTL2    -0.180000       12.0110           0
     36041 MEMB     269      POPC     H15X     HAL2     0.900000E-01   1.00800           0
     36042 MEMB     269      POPC     H15Y     HAL2     0.900000E-01   1.00800           0
     36043 MEMB     269      POPC     C316     CTL3    -0.270000       12.0110           0
     36044 MEMB     269      POPC     H16X     HAL3     0.900000E-01   1.00800           0
     36045 MEMB     269      POPC     H16Y     HAL3     0.900000E-01   1.00800           0
     36046 MEMB     269      POPC     H16Z     HAL3     0.900000E-01   1.00800           0
     36047 MEMB     270      POPC     N        NTL     -0.600000       14.0070           0
     36048 MEMB     270      POPC     C12      CTL2    -0.100000       12.0110           0
     36049 MEMB     270      POPC     H12A     HL       0.250000       1.00800           0
     36050 MEMB     270      POPC     H12B     HL       0.250000       1.00800           0
     36051 MEMB     270      POPC     C13      CTL5    -0.350000       12.0110           0
     36052 MEMB     270      POPC     H13A     HL       0.250000       1.00800           0
     36053 MEMB     270      POPC     H13B     HL       0.250000       1.00800           0
     36054 MEMB     270      POPC     H13C     HL       0.250000       1.00800           0
     36055 MEMB     270      POPC     C14      CTL5    -0.350000       12.0110           0
     36056 MEMB     270      POPC     H14A     HL       0.250000       1.00800           0
     36057 MEMB     270      POPC     H14B     HL       0.250000       1.00800           0
     36058 MEMB     270      POPC     H14C     HL       0.250000       1.00800           0
     36059 MEMB     270      POPC     C15      CTL5    -0.350000       12.0110           0
     36060 MEMB     270      POPC     H15A     HL       0.250000       1.00800           0
     36061 MEMB     270      POPC     H15B     HL       0.250000       1.00800           0
     36062 MEMB     270      POPC     H15C     HL       0.250000       1.00800           0
     36063 MEMB     270      POPC     C11      CTL2    -0.800000E-01   12.0110           0
     36064 MEMB     270      POPC     H11A     HAL2     0.900000E-01   1.00800           0
     36065 MEMB     270      POPC     H11B     HAL2     0.900000E-01   1.00800           0
     36066 MEMB     270      POPC     P        PL       1.50000        30.9740           0
     36067 MEMB     270      POPC     O13      O2L     -0.780000       15.9994           0
     36068 MEMB     270      POPC     O14      O2L     -0.780000       15.9994           0
     36069 MEMB     270      POPC     O12      OSLP    -0.570000       15.9994           0
     36070 MEMB     270      POPC     O11      OSLP    -0.570000       15.9994           0
     36071 MEMB     270      POPC     C1       CTL2    -0.800000E-01   12.0110           0
     36072 MEMB     270      POPC     HA       HAL2     0.900000E-01   1.00800           0
     36073 MEMB     270      POPC     HB       HAL2     0.900000E-01   1.00800           0
     36074 MEMB     270      POPC     C2       CTL1     0.170000       12.0110           0
     36075 MEMB     270      POPC     HS       HAL1     0.900000E-01   1.00800           0
     36076 MEMB     270      POPC     O21      OSL     -0.490000       15.9994           0
     36077 MEMB     270      POPC     C21      CL       0.900000       12.0110           0
     36078 MEMB     270      POPC     O22      OBL     -0.630000       15.9994           0
     36079 MEMB     270      POPC     C22      CTL2    -0.220000       12.0110           0
     36080 MEMB     270      POPC     H2R      HAL2     0.900000E-01   1.00800           0
     36081 MEMB     270      POPC     H2S      HAL2     0.900000E-01   1.00800           0
     36082 MEMB     270      POPC     C3       CTL2     0.800000E-01   12.0110           0
     36083 MEMB     270      POPC     HX       HAL2     0.900000E-01   1.00800           0
     36084 MEMB     270      POPC     HY       HAL2     0.900000E-01   1.00800           0
     36085 MEMB     270      POPC     O31      OSL     -0.490000       15.9994           0
     36086 MEMB     270      POPC     C31      CL       0.900000       12.0110           0
     36087 MEMB     270      POPC     O32      OBL     -0.630000       15.9994           0
     36088 MEMB     270      POPC     C32      CTL2    -0.220000       12.0110           0
     36089 MEMB     270      POPC     H2X      HAL2     0.900000E-01   1.00800           0
     36090 MEMB     270      POPC     H2Y      HAL2     0.900000E-01   1.00800           0
     36091 MEMB     270      POPC     C23      CTL2    -0.180000       12.0110           0
     36092 MEMB     270      POPC     H3R      HAL2     0.900000E-01   1.00800           0
     36093 MEMB     270      POPC     H3S      HAL2     0.900000E-01   1.00800           0
     36094 MEMB     270      POPC     C24      CTL2    -0.180000       12.0110           0
     36095 MEMB     270      POPC     H4R      HAL2     0.900000E-01   1.00800           0
     36096 MEMB     270      POPC     H4S      HAL2     0.900000E-01   1.00800           0
     36097 MEMB     270      POPC     C25      CTL2    -0.180000       12.0110           0
     36098 MEMB     270      POPC     H5R      HAL2     0.900000E-01   1.00800           0
     36099 MEMB     270      POPC     H5S      HAL2     0.900000E-01   1.00800           0
     36100 MEMB     270      POPC     C26      CTL2    -0.180000       12.0110           0
     36101 MEMB     270      POPC     H6R      HAL2     0.900000E-01   1.00800           0
     36102 MEMB     270      POPC     H6S      HAL2     0.900000E-01   1.00800           0
     36103 MEMB     270      POPC     C27      CTL2    -0.180000       12.0110           0
     36104 MEMB     270      POPC     H7R      HAL2     0.900000E-01   1.00800           0
     36105 MEMB     270      POPC     H7S      HAL2     0.900000E-01   1.00800           0
     36106 MEMB     270      POPC     C28      CTL2    -0.180000       12.0110           0
     36107 MEMB     270      POPC     H8R      HAL2     0.900000E-01   1.00800           0
     36108 MEMB     270      POPC     H8S      HAL2     0.900000E-01   1.00800           0
     36109 MEMB     270      POPC     C29      CEL1    -0.150000       12.0110           0
     36110 MEMB     270      POPC     H91      HEL1     0.150000       1.00800           0
     36111 MEMB     270      POPC     C210     CEL1    -0.150000       12.0110           0
     36112 MEMB     270      POPC     H101     HEL1     0.150000       1.00800           0
     36113 MEMB     270      POPC     C211     CTL2    -0.180000       12.0110           0
     36114 MEMB     270      POPC     H11R     HAL2     0.900000E-01   1.00800           0
     36115 MEMB     270      POPC     H11S     HAL2     0.900000E-01   1.00800           0
     36116 MEMB     270      POPC     C212     CTL2    -0.180000       12.0110           0
     36117 MEMB     270      POPC     H12R     HAL2     0.900000E-01   1.00800           0
     36118 MEMB     270      POPC     H12S     HAL2     0.900000E-01   1.00800           0
     36119 MEMB     270      POPC     C213     CTL2    -0.180000       12.0110           0
     36120 MEMB     270      POPC     H13R     HAL2     0.900000E-01   1.00800           0
     36121 MEMB     270      POPC     H13S     HAL2     0.900000E-01   1.00800           0
     36122 MEMB     270      POPC     C214     CTL2    -0.180000       12.0110           0
     36123 MEMB     270      POPC     H14R     HAL2     0.900000E-01   1.00800           0
     36124 MEMB     270      POPC     H14S     HAL2     0.900000E-01   1.00800           0
     36125 MEMB     270      POPC     C215     CTL2    -0.180000       12.0110           0
     36126 MEMB     270      POPC     H15R     HAL2     0.900000E-01   1.00800           0
     36127 MEMB     270      POPC     H15S     HAL2     0.900000E-01   1.00800           0
     36128 MEMB     270      POPC     C216     CTL2    -0.180000       12.0110           0
     36129 MEMB     270      POPC     H16R     HAL2     0.900000E-01   1.00800           0
     36130 MEMB     270      POPC     H16S     HAL2     0.900000E-01   1.00800           0
     36131 MEMB     270      POPC     C217     CTL2    -0.180000       12.0110           0
     36132 MEMB     270      POPC     H17R     HAL2     0.900000E-01   1.00800           0
     36133 MEMB     270      POPC     H17S     HAL2     0.900000E-01   1.00800           0
     36134 MEMB     270      POPC     C218     CTL3    -0.270000       12.0110           0
     36135 MEMB     270      POPC     H18R     HAL3     0.900000E-01   1.00800           0
     36136 MEMB     270      POPC     H18S     HAL3     0.900000E-01   1.00800           0
     36137 MEMB     270      POPC     H18T     HAL3     0.900000E-01   1.00800           0
     36138 MEMB     270      POPC     C33      CTL2    -0.180000       12.0110           0
     36139 MEMB     270      POPC     H3X      HAL2     0.900000E-01   1.00800           0
     36140 MEMB     270      POPC     H3Y      HAL2     0.900000E-01   1.00800           0
     36141 MEMB     270      POPC     C34      CTL2    -0.180000       12.0110           0
     36142 MEMB     270      POPC     H4X      HAL2     0.900000E-01   1.00800           0
     36143 MEMB     270      POPC     H4Y      HAL2     0.900000E-01   1.00800           0
     36144 MEMB     270      POPC     C35      CTL2    -0.180000       12.0110           0
     36145 MEMB     270      POPC     H5X      HAL2     0.900000E-01   1.00800           0
     36146 MEMB     270      POPC     H5Y      HAL2     0.900000E-01   1.00800           0
     36147 MEMB     270      POPC     C36      CTL2    -0.180000       12.0110           0
     36148 MEMB     270      POPC     H6X      HAL2     0.900000E-01   1.00800           0
     36149 MEMB     270      POPC     H6Y      HAL2     0.900000E-01   1.00800           0
     36150 MEMB     270      POPC     C37      CTL2    -0.180000       12.0110           0
     36151 MEMB     270      POPC     H7X      HAL2     0.900000E-01   1.00800           0
     36152 MEMB     270      POPC     H7Y      HAL2     0.900000E-01   1.00800           0
     36153 MEMB     270      POPC     C38      CTL2    -0.180000       12.0110           0
     36154 MEMB     270      POPC     H8X      HAL2     0.900000E-01   1.00800           0
     36155 MEMB     270      POPC     H8Y      HAL2     0.900000E-01   1.00800           0
     36156 MEMB     270      POPC     C39      CTL2    -0.180000       12.0110           0
     36157 MEMB     270      POPC     H9X      HAL2     0.900000E-01   1.00800           0
     36158 MEMB     270      POPC     H9Y      HAL2     0.900000E-01   1.00800           0
     36159 MEMB     270      POPC     C310     CTL2    -0.180000       12.0110           0
     36160 MEMB     270      POPC     H10X     HAL2     0.900000E-01   1.00800           0
     36161 MEMB     270      POPC     H10Y     HAL2     0.900000E-01   1.00800           0
     36162 MEMB     270      POPC     C311     CTL2    -0.180000       12.0110           0
     36163 MEMB     270      POPC     H11X     HAL2     0.900000E-01   1.00800           0
     36164 MEMB     270      POPC     H11Y     HAL2     0.900000E-01   1.00800           0
     36165 MEMB     270      POPC     C312     CTL2    -0.180000       12.0110           0
     36166 MEMB     270      POPC     H12X     HAL2     0.900000E-01   1.00800           0
     36167 MEMB     270      POPC     H12Y     HAL2     0.900000E-01   1.00800           0
     36168 MEMB     270      POPC     C313     CTL2    -0.180000       12.0110           0
     36169 MEMB     270      POPC     H13X     HAL2     0.900000E-01   1.00800           0
     36170 MEMB     270      POPC     H13Y     HAL2     0.900000E-01   1.00800           0
     36171 MEMB     270      POPC     C314     CTL2    -0.180000       12.0110           0
     36172 MEMB     270      POPC     H14X     HAL2     0.900000E-01   1.00800           0
     36173 MEMB     270      POPC     H14Y     HAL2     0.900000E-01   1.00800           0
     36174 MEMB     270      POPC     C315     CTL2    -0.180000       12.0110           0
     36175 MEMB     270      POPC     H15X     HAL2     0.900000E-01   1.00800           0
     36176 MEMB     270      POPC     H15Y     HAL2     0.900000E-01   1.00800           0
     36177 MEMB     270      POPC     C316     CTL3    -0.270000       12.0110           0
     36178 MEMB     270      POPC     H16X     HAL3     0.900000E-01   1.00800           0
     36179 MEMB     270      POPC     H16Y     HAL3     0.900000E-01   1.00800           0
     36180 MEMB     270      POPC     H16Z     HAL3     0.900000E-01   1.00800           0
     36181 MEMB     271      POPC     N        NTL     -0.600000       14.0070           0
     36182 MEMB     271      POPC     C12      CTL2    -0.100000       12.0110           0
     36183 MEMB     271      POPC     H12A     HL       0.250000       1.00800           0
     36184 MEMB     271      POPC     H12B     HL       0.250000       1.00800           0
     36185 MEMB     271      POPC     C13      CTL5    -0.350000       12.0110           0
     36186 MEMB     271      POPC     H13A     HL       0.250000       1.00800           0
     36187 MEMB     271      POPC     H13B     HL       0.250000       1.00800           0
     36188 MEMB     271      POPC     H13C     HL       0.250000       1.00800           0
     36189 MEMB     271      POPC     C14      CTL5    -0.350000       12.0110           0
     36190 MEMB     271      POPC     H14A     HL       0.250000       1.00800           0
     36191 MEMB     271      POPC     H14B     HL       0.250000       1.00800           0
     36192 MEMB     271      POPC     H14C     HL       0.250000       1.00800           0
     36193 MEMB     271      POPC     C15      CTL5    -0.350000       12.0110           0
     36194 MEMB     271      POPC     H15A     HL       0.250000       1.00800           0
     36195 MEMB     271      POPC     H15B     HL       0.250000       1.00800           0
     36196 MEMB     271      POPC     H15C     HL       0.250000       1.00800           0
     36197 MEMB     271      POPC     C11      CTL2    -0.800000E-01   12.0110           0
     36198 MEMB     271      POPC     H11A     HAL2     0.900000E-01   1.00800           0
     36199 MEMB     271      POPC     H11B     HAL2     0.900000E-01   1.00800           0
     36200 MEMB     271      POPC     P        PL       1.50000        30.9740           0
     36201 MEMB     271      POPC     O13      O2L     -0.780000       15.9994           0
     36202 MEMB     271      POPC     O14      O2L     -0.780000       15.9994           0
     36203 MEMB     271      POPC     O12      OSLP    -0.570000       15.9994           0
     36204 MEMB     271      POPC     O11      OSLP    -0.570000       15.9994           0
     36205 MEMB     271      POPC     C1       CTL2    -0.800000E-01   12.0110           0
     36206 MEMB     271      POPC     HA       HAL2     0.900000E-01   1.00800           0
     36207 MEMB     271      POPC     HB       HAL2     0.900000E-01   1.00800           0
     36208 MEMB     271      POPC     C2       CTL1     0.170000       12.0110           0
     36209 MEMB     271      POPC     HS       HAL1     0.900000E-01   1.00800           0
     36210 MEMB     271      POPC     O21      OSL     -0.490000       15.9994           0
     36211 MEMB     271      POPC     C21      CL       0.900000       12.0110           0
     36212 MEMB     271      POPC     O22      OBL     -0.630000       15.9994           0
     36213 MEMB     271      POPC     C22      CTL2    -0.220000       12.0110           0
     36214 MEMB     271      POPC     H2R      HAL2     0.900000E-01   1.00800           0
     36215 MEMB     271      POPC     H2S      HAL2     0.900000E-01   1.00800           0
     36216 MEMB     271      POPC     C3       CTL2     0.800000E-01   12.0110           0
     36217 MEMB     271      POPC     HX       HAL2     0.900000E-01   1.00800           0
     36218 MEMB     271      POPC     HY       HAL2     0.900000E-01   1.00800           0
     36219 MEMB     271      POPC     O31      OSL     -0.490000       15.9994           0
     36220 MEMB     271      POPC     C31      CL       0.900000       12.0110           0
     36221 MEMB     271      POPC     O32      OBL     -0.630000       15.9994           0
     36222 MEMB     271      POPC     C32      CTL2    -0.220000       12.0110           0
     36223 MEMB     271      POPC     H2X      HAL2     0.900000E-01   1.00800           0
     36224 MEMB     271      POPC     H2Y      HAL2     0.900000E-01   1.00800           0
     36225 MEMB     271      POPC     C23      CTL2    -0.180000       12.0110           0
     36226 MEMB     271      POPC     H3R      HAL2     0.900000E-01   1.00800           0
     36227 MEMB     271      POPC     H3S      HAL2     0.900000E-01   1.00800           0
     36228 MEMB     271      POPC     C24      CTL2    -0.180000       12.0110           0
     36229 MEMB     271      POPC     H4R      HAL2     0.900000E-01   1.00800           0
     36230 MEMB     271      POPC     H4S      HAL2     0.900000E-01   1.00800           0
     36231 MEMB     271      POPC     C25      CTL2    -0.180000       12.0110           0
     36232 MEMB     271      POPC     H5R      HAL2     0.900000E-01   1.00800           0
     36233 MEMB     271      POPC     H5S      HAL2     0.900000E-01   1.00800           0
     36234 MEMB     271      POPC     C26      CTL2    -0.180000       12.0110           0
     36235 MEMB     271      POPC     H6R      HAL2     0.900000E-01   1.00800           0
     36236 MEMB     271      POPC     H6S      HAL2     0.900000E-01   1.00800           0
     36237 MEMB     271      POPC     C27      CTL2    -0.180000       12.0110           0
     36238 MEMB     271      POPC     H7R      HAL2     0.900000E-01   1.00800           0
     36239 MEMB     271      POPC     H7S      HAL2     0.900000E-01   1.00800           0
     36240 MEMB     271      POPC     C28      CTL2    -0.180000       12.0110           0
     36241 MEMB     271      POPC     H8R      HAL2     0.900000E-01   1.00800           0
     36242 MEMB     271      POPC     H8S      HAL2     0.900000E-01   1.00800           0
     36243 MEMB     271      POPC     C29      CEL1    -0.150000       12.0110           0
     36244 MEMB     271      POPC     H91      HEL1     0.150000       1.00800           0
     36245 MEMB     271      POPC     C210     CEL1    -0.150000       12.0110           0
     36246 MEMB     271      POPC     H101     HEL1     0.150000       1.00800           0
     36247 MEMB     271      POPC     C211     CTL2    -0.180000       12.0110           0
     36248 MEMB     271      POPC     H11R     HAL2     0.900000E-01   1.00800           0
     36249 MEMB     271      POPC     H11S     HAL2     0.900000E-01   1.00800           0
     36250 MEMB     271      POPC     C212     CTL2    -0.180000       12.0110           0
     36251 MEMB     271      POPC     H12R     HAL2     0.900000E-01   1.00800           0
     36252 MEMB     271      POPC     H12S     HAL2     0.900000E-01   1.00800           0
     36253 MEMB     271      POPC     C213     CTL2    -0.180000       12.0110           0
     36254 MEMB     271      POPC     H13R     HAL2     0.900000E-01   1.00800           0
     36255 MEMB     271      POPC     H13S     HAL2     0.900000E-01   1.00800           0
     36256 MEMB     271      POPC     C214     CTL2    -0.180000       12.0110           0
     36257 MEMB     271      POPC     H14R     HAL2     0.900000E-01   1.00800           0
     36258 MEMB     271      POPC     H14S     HAL2     0.900000E-01   1.00800           0
     36259 MEMB     271      POPC     C215     CTL2    -0.180000       12.0110           0
     36260 MEMB     271      POPC     H15R     HAL2     0.900000E-01   1.00800           0
     36261 MEMB     271      POPC     H15S     HAL2     0.900000E-01   1.00800           0
     36262 MEMB     271      POPC     C216     CTL2    -0.180000       12.0110           0
     36263 MEMB     271      POPC     H16R     HAL2     0.900000E-01   1.00800           0
     36264 MEMB     271      POPC     H16S     HAL2     0.900000E-01   1.00800           0
     36265 MEMB     271      POPC     C217     CTL2    -0.180000       12.0110           0
     36266 MEMB     271      POPC     H17R     HAL2     0.900000E-01   1.00800           0
     36267 MEMB     271      POPC     H17S     HAL2     0.900000E-01   1.00800           0
     36268 MEMB     271      POPC     C218     CTL3    -0.270000       12.0110           0
     36269 MEMB     271      POPC     H18R     HAL3     0.900000E-01   1.00800           0
     36270 MEMB     271      POPC     H18S     HAL3     0.900000E-01   1.00800           0
     36271 MEMB     271      POPC     H18T     HAL3     0.900000E-01   1.00800           0
     36272 MEMB     271      POPC     C33      CTL2    -0.180000       12.0110           0
     36273 MEMB     271      POPC     H3X      HAL2     0.900000E-01   1.00800           0
     36274 MEMB     271      POPC     H3Y      HAL2     0.900000E-01   1.00800           0
     36275 MEMB     271      POPC     C34      CTL2    -0.180000       12.0110           0
     36276 MEMB     271      POPC     H4X      HAL2     0.900000E-01   1.00800           0
     36277 MEMB     271      POPC     H4Y      HAL2     0.900000E-01   1.00800           0
     36278 MEMB     271      POPC     C35      CTL2    -0.180000       12.0110           0
     36279 MEMB     271      POPC     H5X      HAL2     0.900000E-01   1.00800           0
     36280 MEMB     271      POPC     H5Y      HAL2     0.900000E-01   1.00800           0
     36281 MEMB     271      POPC     C36      CTL2    -0.180000       12.0110           0
     36282 MEMB     271      POPC     H6X      HAL2     0.900000E-01   1.00800           0
     36283 MEMB     271      POPC     H6Y      HAL2     0.900000E-01   1.00800           0
     36284 MEMB     271      POPC     C37      CTL2    -0.180000       12.0110           0
     36285 MEMB     271      POPC     H7X      HAL2     0.900000E-01   1.00800           0
     36286 MEMB     271      POPC     H7Y      HAL2     0.900000E-01   1.00800           0
     36287 MEMB     271      POPC     C38      CTL2    -0.180000       12.0110           0
     36288 MEMB     271      POPC     H8X      HAL2     0.900000E-01   1.00800           0
     36289 MEMB     271      POPC     H8Y      HAL2     0.900000E-01   1.00800           0
     36290 MEMB     271      POPC     C39      CTL2    -0.180000       12.0110           0
     36291 MEMB     271      POPC     H9X      HAL2     0.900000E-01   1.00800           0
     36292 MEMB     271      POPC     H9Y      HAL2     0.900000E-01   1.00800           0
     36293 MEMB     271      POPC     C310     CTL2    -0.180000       12.0110           0
     36294 MEMB     271      POPC     H10X     HAL2     0.900000E-01   1.00800           0
     36295 MEMB     271      POPC     H10Y     HAL2     0.900000E-01   1.00800           0
     36296 MEMB     271      POPC     C311     CTL2    -0.180000       12.0110           0
     36297 MEMB     271      POPC     H11X     HAL2     0.900000E-01   1.00800           0
     36298 MEMB     271      POPC     H11Y     HAL2     0.900000E-01   1.00800           0
     36299 MEMB     271      POPC     C312     CTL2    -0.180000       12.0110           0
     36300 MEMB     271      POPC     H12X     HAL2     0.900000E-01   1.00800           0
     36301 MEMB     271      POPC     H12Y     HAL2     0.900000E-01   1.00800           0
     36302 MEMB     271      POPC     C313     CTL2    -0.180000       12.0110           0
     36303 MEMB     271      POPC     H13X     HAL2     0.900000E-01   1.00800           0
     36304 MEMB     271      POPC     H13Y     HAL2     0.900000E-01   1.00800           0
     36305 MEMB     271      POPC     C314     CTL2    -0.180000       12.0110           0
     36306 MEMB     271      POPC     H14X     HAL2     0.900000E-01   1.00800           0
     36307 MEMB     271      POPC     H14Y     HAL2     0.900000E-01   1.00800           0
     36308 MEMB     271      POPC     C315     CTL2    -0.180000       12.0110           0
     36309 MEMB     271      POPC     H15X     HAL2     0.900000E-01   1.00800           0
     36310 MEMB     271      POPC     H15Y     HAL2     0.900000E-01   1.00800           0
     36311 MEMB     271      POPC     C316     CTL3    -0.270000       12.0110           0
     36312 MEMB     271      POPC     H16X     HAL3     0.900000E-01   1.00800           0
     36313 MEMB     271      POPC     H16Y     HAL3     0.900000E-01   1.00800           0
     36314 MEMB     271      POPC     H16Z     HAL3     0.900000E-01   1.00800           0
     36315 MEMB     272      POPC     N        NTL     -0.600000       14.0070           0
     36316 MEMB     272      POPC     C12      CTL2    -0.100000       12.0110           0
     36317 MEMB     272      POPC     H12A     HL       0.250000       1.00800           0
     36318 MEMB     272      POPC     H12B     HL       0.250000       1.00800           0
     36319 MEMB     272      POPC     C13      CTL5    -0.350000       12.0110           0
     36320 MEMB     272      POPC     H13A     HL       0.250000       1.00800           0
     36321 MEMB     272      POPC     H13B     HL       0.250000       1.00800           0
     36322 MEMB     272      POPC     H13C     HL       0.250000       1.00800           0
     36323 MEMB     272      POPC     C14      CTL5    -0.350000       12.0110           0
     36324 MEMB     272      POPC     H14A     HL       0.250000       1.00800           0
     36325 MEMB     272      POPC     H14B     HL       0.250000       1.00800           0
     36326 MEMB     272      POPC     H14C     HL       0.250000       1.00800           0
     36327 MEMB     272      POPC     C15      CTL5    -0.350000       12.0110           0
     36328 MEMB     272      POPC     H15A     HL       0.250000       1.00800           0
     36329 MEMB     272      POPC     H15B     HL       0.250000       1.00800           0
     36330 MEMB     272      POPC     H15C     HL       0.250000       1.00800           0
     36331 MEMB     272      POPC     C11      CTL2    -0.800000E-01   12.0110           0
     36332 MEMB     272      POPC     H11A     HAL2     0.900000E-01   1.00800           0
     36333 MEMB     272      POPC     H11B     HAL2     0.900000E-01   1.00800           0
     36334 MEMB     272      POPC     P        PL       1.50000        30.9740           0
     36335 MEMB     272      POPC     O13      O2L     -0.780000       15.9994           0
     36336 MEMB     272      POPC     O14      O2L     -0.780000       15.9994           0
     36337 MEMB     272      POPC     O12      OSLP    -0.570000       15.9994           0
     36338 MEMB     272      POPC     O11      OSLP    -0.570000       15.9994           0
     36339 MEMB     272      POPC     C1       CTL2    -0.800000E-01   12.0110           0
     36340 MEMB     272      POPC     HA       HAL2     0.900000E-01   1.00800           0
     36341 MEMB     272      POPC     HB       HAL2     0.900000E-01   1.00800           0
     36342 MEMB     272      POPC     C2       CTL1     0.170000       12.0110           0
     36343 MEMB     272      POPC     HS       HAL1     0.900000E-01   1.00800           0
     36344 MEMB     272      POPC     O21      OSL     -0.490000       15.9994           0
     36345 MEMB     272      POPC     C21      CL       0.900000       12.0110           0
     36346 MEMB     272      POPC     O22      OBL     -0.630000       15.9994           0
     36347 MEMB     272      POPC     C22      CTL2    -0.220000       12.0110           0
     36348 MEMB     272      POPC     H2R      HAL2     0.900000E-01   1.00800           0
     36349 MEMB     272      POPC     H2S      HAL2     0.900000E-01   1.00800           0
     36350 MEMB     272      POPC     C3       CTL2     0.800000E-01   12.0110           0
     36351 MEMB     272      POPC     HX       HAL2     0.900000E-01   1.00800           0
     36352 MEMB     272      POPC     HY       HAL2     0.900000E-01   1.00800           0
     36353 MEMB     272      POPC     O31      OSL     -0.490000       15.9994           0
     36354 MEMB     272      POPC     C31      CL       0.900000       12.0110           0
     36355 MEMB     272      POPC     O32      OBL     -0.630000       15.9994           0
     36356 MEMB     272      POPC     C32      CTL2    -0.220000       12.0110           0
     36357 MEMB     272      POPC     H2X      HAL2     0.900000E-01   1.00800           0
     36358 MEMB     272      POPC     H2Y      HAL2     0.900000E-01   1.00800           0
     36359 MEMB     272      POPC     C23      CTL2    -0.180000       12.0110           0
     36360 MEMB     272      POPC     H3R      HAL2     0.900000E-01   1.00800           0
     36361 MEMB     272      POPC     H3S      HAL2     0.900000E-01   1.00800           0
     36362 MEMB     272      POPC     C24      CTL2    -0.180000       12.0110           0
     36363 MEMB     272      POPC     H4R      HAL2     0.900000E-01   1.00800           0
     36364 MEMB     272      POPC     H4S      HAL2     0.900000E-01   1.00800           0
     36365 MEMB     272      POPC     C25      CTL2    -0.180000       12.0110           0
     36366 MEMB     272      POPC     H5R      HAL2     0.900000E-01   1.00800           0
     36367 MEMB     272      POPC     H5S      HAL2     0.900000E-01   1.00800           0
     36368 MEMB     272      POPC     C26      CTL2    -0.180000       12.0110           0
     36369 MEMB     272      POPC     H6R      HAL2     0.900000E-01   1.00800           0
     36370 MEMB     272      POPC     H6S      HAL2     0.900000E-01   1.00800           0
     36371 MEMB     272      POPC     C27      CTL2    -0.180000       12.0110           0
     36372 MEMB     272      POPC     H7R      HAL2     0.900000E-01   1.00800           0
     36373 MEMB     272      POPC     H7S      HAL2     0.900000E-01   1.00800           0
     36374 MEMB     272      POPC     C28      CTL2    -0.180000       12.0110           0
     36375 MEMB     272      POPC     H8R      HAL2     0.900000E-01   1.00800           0
     36376 MEMB     272      POPC     H8S      HAL2     0.900000E-01   1.00800           0
     36377 MEMB     272      POPC     C29      CEL1    -0.150000       12.0110           0
     36378 MEMB     272      POPC     H91      HEL1     0.150000       1.00800           0
     36379 MEMB     272      POPC     C210     CEL1    -0.150000       12.0110           0
     36380 MEMB     272      POPC     H101     HEL1     0.150000       1.00800           0
     36381 MEMB     272      POPC     C211     CTL2    -0.180000       12.0110           0
     36382 MEMB     272      POPC     H11R     HAL2     0.900000E-01   1.00800           0
     36383 MEMB     272      POPC     H11S     HAL2     0.900000E-01   1.00800           0
     36384 MEMB     272      POPC     C212     CTL2    -0.180000       12.0110           0
     36385 MEMB     272      POPC     H12R     HAL2     0.900000E-01   1.00800           0
     36386 MEMB     272      POPC     H12S     HAL2     0.900000E-01   1.00800           0
     36387 MEMB     272      POPC     C213     CTL2    -0.180000       12.0110           0
     36388 MEMB     272      POPC     H13R     HAL2     0.900000E-01   1.00800           0
     36389 MEMB     272      POPC     H13S     HAL2     0.900000E-01   1.00800           0
     36390 MEMB     272      POPC     C214     CTL2    -0.180000       12.0110           0
     36391 MEMB     272      POPC     H14R     HAL2     0.900000E-01   1.00800           0
     36392 MEMB     272      POPC     H14S     HAL2     0.900000E-01   1.00800           0
     36393 MEMB     272      POPC     C215     CTL2    -0.180000       12.0110           0
     36394 MEMB     272      POPC     H15R     HAL2     0.900000E-01   1.00800           0
     36395 MEMB     272      POPC     H15S     HAL2     0.900000E-01   1.00800           0
     36396 MEMB     272      POPC     C216     CTL2    -0.180000       12.0110           0
     36397 MEMB     272      POPC     H16R     HAL2     0.900000E-01   1.00800           0
     36398 MEMB     272      POPC     H16S     HAL2     0.900000E-01   1.00800           0
     36399 MEMB     272      POPC     C217     CTL2    -0.180000       12.0110           0
     36400 MEMB     272      POPC     H17R     HAL2     0.900000E-01   1.00800           0
     36401 MEMB     272      POPC     H17S     HAL2     0.900000E-01   1.00800           0
     36402 MEMB     272      POPC     C218     CTL3    -0.270000       12.0110           0
     36403 MEMB     272      POPC     H18R     HAL3     0.900000E-01   1.00800           0
     36404 MEMB     272      POPC     H18S     HAL3     0.900000E-01   1.00800           0
     36405 MEMB     272      POPC     H18T     HAL3     0.900000E-01   1.00800           0
     36406 MEMB     272      POPC     C33      CTL2    -0.180000       12.0110           0
     36407 MEMB     272      POPC     H3X      HAL2     0.900000E-01   1.00800           0
     36408 MEMB     272      POPC     H3Y      HAL2     0.900000E-01   1.00800           0
     36409 MEMB     272      POPC     C34      CTL2    -0.180000       12.0110           0
     36410 MEMB     272      POPC     H4X      HAL2     0.900000E-01   1.00800           0
     36411 MEMB     272      POPC     H4Y      HAL2     0.900000E-01   1.00800           0
     36412 MEMB     272      POPC     C35      CTL2    -0.180000       12.0110           0
     36413 MEMB     272      POPC     H5X      HAL2     0.900000E-01   1.00800           0
     36414 MEMB     272      POPC     H5Y      HAL2     0.900000E-01   1.00800           0
     36415 MEMB     272      POPC     C36      CTL2    -0.180000       12.0110           0
     36416 MEMB     272      POPC     H6X      HAL2     0.900000E-01   1.00800           0
     36417 MEMB     272      POPC     H6Y      HAL2     0.900000E-01   1.00800           0
     36418 MEMB     272      POPC     C37      CTL2    -0.180000       12.0110           0
     36419 MEMB     272      POPC     H7X      HAL2     0.900000E-01   1.00800           0
     36420 MEMB     272      POPC     H7Y      HAL2     0.900000E-01   1.00800           0
     36421 MEMB     272      POPC     C38      CTL2    -0.180000       12.0110           0
     36422 MEMB     272      POPC     H8X      HAL2     0.900000E-01   1.00800           0
     36423 MEMB     272      POPC     H8Y      HAL2     0.900000E-01   1.00800           0
     36424 MEMB     272      POPC     C39      CTL2    -0.180000       12.0110           0
     36425 MEMB     272      POPC     H9X      HAL2     0.900000E-01   1.00800           0
     36426 MEMB     272      POPC     H9Y      HAL2     0.900000E-01   1.00800           0
     36427 MEMB     272      POPC     C310     CTL2    -0.180000       12.0110           0
     36428 MEMB     272      POPC     H10X     HAL2     0.900000E-01   1.00800           0
     36429 MEMB     272      POPC     H10Y     HAL2     0.900000E-01   1.00800           0
     36430 MEMB     272      POPC     C311     CTL2    -0.180000       12.0110           0
     36431 MEMB     272      POPC     H11X     HAL2     0.900000E-01   1.00800           0
     36432 MEMB     272      POPC     H11Y     HAL2     0.900000E-01   1.00800           0
     36433 MEMB     272      POPC     C312     CTL2    -0.180000       12.0110           0
     36434 MEMB     272      POPC     H12X     HAL2     0.900000E-01   1.00800           0
     36435 MEMB     272      POPC     H12Y     HAL2     0.900000E-01   1.00800           0
     36436 MEMB     272      POPC     C313     CTL2    -0.180000       12.0110           0
     36437 MEMB     272      POPC     H13X     HAL2     0.900000E-01   1.00800           0
     36438 MEMB     272      POPC     H13Y     HAL2     0.900000E-01   1.00800           0
     36439 MEMB     272      POPC     C314     CTL2    -0.180000       12.0110           0
     36440 MEMB     272      POPC     H14X     HAL2     0.900000E-01   1.00800           0
     36441 MEMB     272      POPC     H14Y     HAL2     0.900000E-01   1.00800           0
     36442 MEMB     272      POPC     C315     CTL2    -0.180000       12.0110           0
     36443 MEMB     272      POPC     H15X     HAL2     0.900000E-01   1.00800           0
     36444 MEMB     272      POPC     H15Y     HAL2     0.900000E-01   1.00800           0
     36445 MEMB     272      POPC     C316     CTL3    -0.270000       12.0110           0
     36446 MEMB     272      POPC     H16X     HAL3     0.900000E-01   1.00800           0
     36447 MEMB     272      POPC     H16Y     HAL3     0.900000E-01   1.00800           0
     36448 MEMB     272      POPC     H16Z     HAL3     0.900000E-01   1.00800           0
     36449 MEMB     273      POPC     N        NTL     -0.600000       14.0070           0
     36450 MEMB     273      POPC     C12      CTL2    -0.100000       12.0110           0
     36451 MEMB     273      POPC     H12A     HL       0.250000       1.00800           0
     36452 MEMB     273      POPC     H12B     HL       0.250000       1.00800           0
     36453 MEMB     273      POPC     C13      CTL5    -0.350000       12.0110           0
     36454 MEMB     273      POPC     H13A     HL       0.250000       1.00800           0
     36455 MEMB     273      POPC     H13B     HL       0.250000       1.00800           0
     36456 MEMB     273      POPC     H13C     HL       0.250000       1.00800           0
     36457 MEMB     273      POPC     C14      CTL5    -0.350000       12.0110           0
     36458 MEMB     273      POPC     H14A     HL       0.250000       1.00800           0
     36459 MEMB     273      POPC     H14B     HL       0.250000       1.00800           0
     36460 MEMB     273      POPC     H14C     HL       0.250000       1.00800           0
     36461 MEMB     273      POPC     C15      CTL5    -0.350000       12.0110           0
     36462 MEMB     273      POPC     H15A     HL       0.250000       1.00800           0
     36463 MEMB     273      POPC     H15B     HL       0.250000       1.00800           0
     36464 MEMB     273      POPC     H15C     HL       0.250000       1.00800           0
     36465 MEMB     273      POPC     C11      CTL2    -0.800000E-01   12.0110           0
     36466 MEMB     273      POPC     H11A     HAL2     0.900000E-01   1.00800           0
     36467 MEMB     273      POPC     H11B     HAL2     0.900000E-01   1.00800           0
     36468 MEMB     273      POPC     P        PL       1.50000        30.9740           0
     36469 MEMB     273      POPC     O13      O2L     -0.780000       15.9994           0
     36470 MEMB     273      POPC     O14      O2L     -0.780000       15.9994           0
     36471 MEMB     273      POPC     O12      OSLP    -0.570000       15.9994           0
     36472 MEMB     273      POPC     O11      OSLP    -0.570000       15.9994           0
     36473 MEMB     273      POPC     C1       CTL2    -0.800000E-01   12.0110           0
     36474 MEMB     273      POPC     HA       HAL2     0.900000E-01   1.00800           0
     36475 MEMB     273      POPC     HB       HAL2     0.900000E-01   1.00800           0
     36476 MEMB     273      POPC     C2       CTL1     0.170000       12.0110           0
     36477 MEMB     273      POPC     HS       HAL1     0.900000E-01   1.00800           0
     36478 MEMB     273      POPC     O21      OSL     -0.490000       15.9994           0
     36479 MEMB     273      POPC     C21      CL       0.900000       12.0110           0
     36480 MEMB     273      POPC     O22      OBL     -0.630000       15.9994           0
     36481 MEMB     273      POPC     C22      CTL2    -0.220000       12.0110           0
     36482 MEMB     273      POPC     H2R      HAL2     0.900000E-01   1.00800           0
     36483 MEMB     273      POPC     H2S      HAL2     0.900000E-01   1.00800           0
     36484 MEMB     273      POPC     C3       CTL2     0.800000E-01   12.0110           0
     36485 MEMB     273      POPC     HX       HAL2     0.900000E-01   1.00800           0
     36486 MEMB     273      POPC     HY       HAL2     0.900000E-01   1.00800           0
     36487 MEMB     273      POPC     O31      OSL     -0.490000       15.9994           0
     36488 MEMB     273      POPC     C31      CL       0.900000       12.0110           0
     36489 MEMB     273      POPC     O32      OBL     -0.630000       15.9994           0
     36490 MEMB     273      POPC     C32      CTL2    -0.220000       12.0110           0
     36491 MEMB     273      POPC     H2X      HAL2     0.900000E-01   1.00800           0
     36492 MEMB     273      POPC     H2Y      HAL2     0.900000E-01   1.00800           0
     36493 MEMB     273      POPC     C23      CTL2    -0.180000       12.0110           0
     36494 MEMB     273      POPC     H3R      HAL2     0.900000E-01   1.00800           0
     36495 MEMB     273      POPC     H3S      HAL2     0.900000E-01   1.00800           0
     36496 MEMB     273      POPC     C24      CTL2    -0.180000       12.0110           0
     36497 MEMB     273      POPC     H4R      HAL2     0.900000E-01   1.00800           0
     36498 MEMB     273      POPC     H4S      HAL2     0.900000E-01   1.00800           0
     36499 MEMB     273      POPC     C25      CTL2    -0.180000       12.0110           0
     36500 MEMB     273      POPC     H5R      HAL2     0.900000E-01   1.00800           0
     36501 MEMB     273      POPC     H5S      HAL2     0.900000E-01   1.00800           0
     36502 MEMB     273      POPC     C26      CTL2    -0.180000       12.0110           0
     36503 MEMB     273      POPC     H6R      HAL2     0.900000E-01   1.00800           0
     36504 MEMB     273      POPC     H6S      HAL2     0.900000E-01   1.00800           0
     36505 MEMB     273      POPC     C27      CTL2    -0.180000       12.0110           0
     36506 MEMB     273      POPC     H7R      HAL2     0.900000E-01   1.00800           0
     36507 MEMB     273      POPC     H7S      HAL2     0.900000E-01   1.00800           0
     36508 MEMB     273      POPC     C28      CTL2    -0.180000       12.0110           0
     36509 MEMB     273      POPC     H8R      HAL2     0.900000E-01   1.00800           0
     36510 MEMB     273      POPC     H8S      HAL2     0.900000E-01   1.00800           0
     36511 MEMB     273      POPC     C29      CEL1    -0.150000       12.0110           0
     36512 MEMB     273      POPC     H91      HEL1     0.150000       1.00800           0
     36513 MEMB     273      POPC     C210     CEL1    -0.150000       12.0110           0
     36514 MEMB     273      POPC     H101     HEL1     0.150000       1.00800           0
     36515 MEMB     273      POPC     C211     CTL2    -0.180000       12.0110           0
     36516 MEMB     273      POPC     H11R     HAL2     0.900000E-01   1.00800           0
     36517 MEMB     273      POPC     H11S     HAL2     0.900000E-01   1.00800           0
     36518 MEMB     273      POPC     C212     CTL2    -0.180000       12.0110           0
     36519 MEMB     273      POPC     H12R     HAL2     0.900000E-01   1.00800           0
     36520 MEMB     273      POPC     H12S     HAL2     0.900000E-01   1.00800           0
     36521 MEMB     273      POPC     C213     CTL2    -0.180000       12.0110           0
     36522 MEMB     273      POPC     H13R     HAL2     0.900000E-01   1.00800           0
     36523 MEMB     273      POPC     H13S     HAL2     0.900000E-01   1.00800           0
     36524 MEMB     273      POPC     C214     CTL2    -0.180000       12.0110           0
     36525 MEMB     273      POPC     H14R     HAL2     0.900000E-01   1.00800           0
     36526 MEMB     273      POPC     H14S     HAL2     0.900000E-01   1.00800           0
     36527 MEMB     273      POPC     C215     CTL2    -0.180000       12.0110           0
     36528 MEMB     273      POPC     H15R     HAL2     0.900000E-01   1.00800           0
     36529 MEMB     273      POPC     H15S     HAL2     0.900000E-01   1.00800           0
     36530 MEMB     273      POPC     C216     CTL2    -0.180000       12.0110           0
     36531 MEMB     273      POPC     H16R     HAL2     0.900000E-01   1.00800           0
     36532 MEMB     273      POPC     H16S     HAL2     0.900000E-01   1.00800           0
     36533 MEMB     273      POPC     C217     CTL2    -0.180000       12.0110           0
     36534 MEMB     273      POPC     H17R     HAL2     0.900000E-01   1.00800           0
     36535 MEMB     273      POPC     H17S     HAL2     0.900000E-01   1.00800           0
     36536 MEMB     273      POPC     C218     CTL3    -0.270000       12.0110           0
     36537 MEMB     273      POPC     H18R     HAL3     0.900000E-01   1.00800           0
     36538 MEMB     273      POPC     H18S     HAL3     0.900000E-01   1.00800           0
     36539 MEMB     273      POPC     H18T     HAL3     0.900000E-01   1.00800           0
     36540 MEMB     273      POPC     C33      CTL2    -0.180000       12.0110           0
     36541 MEMB     273      POPC     H3X      HAL2     0.900000E-01   1.00800           0
     36542 MEMB     273      POPC     H3Y      HAL2     0.900000E-01   1.00800           0
     36543 MEMB     273      POPC     C34      CTL2    -0.180000       12.0110           0
     36544 MEMB     273      POPC     H4X      HAL2     0.900000E-01   1.00800           0
     36545 MEMB     273      POPC     H4Y      HAL2     0.900000E-01   1.00800           0
     36546 MEMB     273      POPC     C35      CTL2    -0.180000       12.0110           0
     36547 MEMB     273      POPC     H5X      HAL2     0.900000E-01   1.00800           0
     36548 MEMB     273      POPC     H5Y      HAL2     0.900000E-01   1.00800           0
     36549 MEMB     273      POPC     C36      CTL2    -0.180000       12.0110           0
     36550 MEMB     273      POPC     H6X      HAL2     0.900000E-01   1.00800           0
     36551 MEMB     273      POPC     H6Y      HAL2     0.900000E-01   1.00800           0
     36552 MEMB     273      POPC     C37      CTL2    -0.180000       12.0110           0
     36553 MEMB     273      POPC     H7X      HAL2     0.900000E-01   1.00800           0
     36554 MEMB     273      POPC     H7Y      HAL2     0.900000E-01   1.00800           0
     36555 MEMB     273      POPC     C38      CTL2    -0.180000       12.0110           0
     36556 MEMB     273      POPC     H8X      HAL2     0.900000E-01   1.00800           0
     36557 MEMB     273      POPC     H8Y      HAL2     0.900000E-01   1.00800           0
     36558 MEMB     273      POPC     C39      CTL2    -0.180000       12.0110           0
     36559 MEMB     273      POPC     H9X      HAL2     0.900000E-01   1.00800           0
     36560 MEMB     273      POPC     H9Y      HAL2     0.900000E-01   1.00800           0
     36561 MEMB     273      POPC     C310     CTL2    -0.180000       12.0110           0
     36562 MEMB     273      POPC     H10X     HAL2     0.900000E-01   1.00800           0
     36563 MEMB     273      POPC     H10Y     HAL2     0.900000E-01   1.00800           0
     36564 MEMB     273      POPC     C311     CTL2    -0.180000       12.0110           0
     36565 MEMB     273      POPC     H11X     HAL2     0.900000E-01   1.00800           0
     36566 MEMB     273      POPC     H11Y     HAL2     0.900000E-01   1.00800           0
     36567 MEMB     273      POPC     C312     CTL2    -0.180000       12.0110           0
     36568 MEMB     273      POPC     H12X     HAL2     0.900000E-01   1.00800           0
     36569 MEMB     273      POPC     H12Y     HAL2     0.900000E-01   1.00800           0
     36570 MEMB     273      POPC     C313     CTL2    -0.180000       12.0110           0
     36571 MEMB     273      POPC     H13X     HAL2     0.900000E-01   1.00800           0
     36572 MEMB     273      POPC     H13Y     HAL2     0.900000E-01   1.00800           0
     36573 MEMB     273      POPC     C314     CTL2    -0.180000       12.0110           0
     36574 MEMB     273      POPC     H14X     HAL2     0.900000E-01   1.00800           0
     36575 MEMB     273      POPC     H14Y     HAL2     0.900000E-01   1.00800           0
     36576 MEMB     273      POPC     C315     CTL2    -0.180000       12.0110           0
     36577 MEMB     273      POPC     H15X     HAL2     0.900000E-01   1.00800           0
     36578 MEMB     273      POPC     H15Y     HAL2     0.900000E-01   1.00800           0
     36579 MEMB     273      POPC     C316     CTL3    -0.270000       12.0110           0
     36580 MEMB     273      POPC     H16X     HAL3     0.900000E-01   1.00800           0
     36581 MEMB     273      POPC     H16Y     HAL3     0.900000E-01   1.00800           0
     36582 MEMB     273      POPC     H16Z     HAL3     0.900000E-01   1.00800           0
     36583 MEMB     274      POPC     N        NTL     -0.600000       14.0070           0
     36584 MEMB     274      POPC     C12      CTL2    -0.100000       12.0110           0
     36585 MEMB     274      POPC     H12A     HL       0.250000       1.00800           0
     36586 MEMB     274      POPC     H12B     HL       0.250000       1.00800           0
     36587 MEMB     274      POPC     C13      CTL5    -0.350000       12.0110           0
     36588 MEMB     274      POPC     H13A     HL       0.250000       1.00800           0
     36589 MEMB     274      POPC     H13B     HL       0.250000       1.00800           0
     36590 MEMB     274      POPC     H13C     HL       0.250000       1.00800           0
     36591 MEMB     274      POPC     C14      CTL5    -0.350000       12.0110           0
     36592 MEMB     274      POPC     H14A     HL       0.250000       1.00800           0
     36593 MEMB     274      POPC     H14B     HL       0.250000       1.00800           0
     36594 MEMB     274      POPC     H14C     HL       0.250000       1.00800           0
     36595 MEMB     274      POPC     C15      CTL5    -0.350000       12.0110           0
     36596 MEMB     274      POPC     H15A     HL       0.250000       1.00800           0
     36597 MEMB     274      POPC     H15B     HL       0.250000       1.00800           0
     36598 MEMB     274      POPC     H15C     HL       0.250000       1.00800           0
     36599 MEMB     274      POPC     C11      CTL2    -0.800000E-01   12.0110           0
     36600 MEMB     274      POPC     H11A     HAL2     0.900000E-01   1.00800           0
     36601 MEMB     274      POPC     H11B     HAL2     0.900000E-01   1.00800           0
     36602 MEMB     274      POPC     P        PL       1.50000        30.9740           0
     36603 MEMB     274      POPC     O13      O2L     -0.780000       15.9994           0
     36604 MEMB     274      POPC     O14      O2L     -0.780000       15.9994           0
     36605 MEMB     274      POPC     O12      OSLP    -0.570000       15.9994           0
     36606 MEMB     274      POPC     O11      OSLP    -0.570000       15.9994           0
     36607 MEMB     274      POPC     C1       CTL2    -0.800000E-01   12.0110           0
     36608 MEMB     274      POPC     HA       HAL2     0.900000E-01   1.00800           0
     36609 MEMB     274      POPC     HB       HAL2     0.900000E-01   1.00800           0
     36610 MEMB     274      POPC     C2       CTL1     0.170000       12.0110           0
     36611 MEMB     274      POPC     HS       HAL1     0.900000E-01   1.00800           0
     36612 MEMB     274      POPC     O21      OSL     -0.490000       15.9994           0
     36613 MEMB     274      POPC     C21      CL       0.900000       12.0110           0
     36614 MEMB     274      POPC     O22      OBL     -0.630000       15.9994           0
     36615 MEMB     274      POPC     C22      CTL2    -0.220000       12.0110           0
     36616 MEMB     274      POPC     H2R      HAL2     0.900000E-01   1.00800           0
     36617 MEMB     274      POPC     H2S      HAL2     0.900000E-01   1.00800           0
     36618 MEMB     274      POPC     C3       CTL2     0.800000E-01   12.0110           0
     36619 MEMB     274      POPC     HX       HAL2     0.900000E-01   1.00800           0
     36620 MEMB     274      POPC     HY       HAL2     0.900000E-01   1.00800           0
     36621 MEMB     274      POPC     O31      OSL     -0.490000       15.9994           0
     36622 MEMB     274      POPC     C31      CL       0.900000       12.0110           0
     36623 MEMB     274      POPC     O32      OBL     -0.630000       15.9994           0
     36624 MEMB     274      POPC     C32      CTL2    -0.220000       12.0110           0
     36625 MEMB     274      POPC     H2X      HAL2     0.900000E-01   1.00800           0
     36626 MEMB     274      POPC     H2Y      HAL2     0.900000E-01   1.00800           0
     36627 MEMB     274      POPC     C23      CTL2    -0.180000       12.0110           0
     36628 MEMB     274      POPC     H3R      HAL2     0.900000E-01   1.00800           0
     36629 MEMB     274      POPC     H3S      HAL2     0.900000E-01   1.00800           0
     36630 MEMB     274      POPC     C24      CTL2    -0.180000       12.0110           0
     36631 MEMB     274      POPC     H4R      HAL2     0.900000E-01   1.00800           0
     36632 MEMB     274      POPC     H4S      HAL2     0.900000E-01   1.00800           0
     36633 MEMB     274      POPC     C25      CTL2    -0.180000       12.0110           0
     36634 MEMB     274      POPC     H5R      HAL2     0.900000E-01   1.00800           0
     36635 MEMB     274      POPC     H5S      HAL2     0.900000E-01   1.00800           0
     36636 MEMB     274      POPC     C26      CTL2    -0.180000       12.0110           0
     36637 MEMB     274      POPC     H6R      HAL2     0.900000E-01   1.00800           0
     36638 MEMB     274      POPC     H6S      HAL2     0.900000E-01   1.00800           0
     36639 MEMB     274      POPC     C27      CTL2    -0.180000       12.0110           0
     36640 MEMB     274      POPC     H7R      HAL2     0.900000E-01   1.00800           0
     36641 MEMB     274      POPC     H7S      HAL2     0.900000E-01   1.00800           0
     36642 MEMB     274      POPC     C28      CTL2    -0.180000       12.0110           0
     36643 MEMB     274      POPC     H8R      HAL2     0.900000E-01   1.00800           0
     36644 MEMB     274      POPC     H8S      HAL2     0.900000E-01   1.00800           0
     36645 MEMB     274      POPC     C29      CEL1    -0.150000       12.0110           0
     36646 MEMB     274      POPC     H91      HEL1     0.150000       1.00800           0
     36647 MEMB     274      POPC     C210     CEL1    -0.150000       12.0110           0
     36648 MEMB     274      POPC     H101     HEL1     0.150000       1.00800           0
     36649 MEMB     274      POPC     C211     CTL2    -0.180000       12.0110           0
     36650 MEMB     274      POPC     H11R     HAL2     0.900000E-01   1.00800           0
     36651 MEMB     274      POPC     H11S     HAL2     0.900000E-01   1.00800           0
     36652 MEMB     274      POPC     C212     CTL2    -0.180000       12.0110           0
     36653 MEMB     274      POPC     H12R     HAL2     0.900000E-01   1.00800           0
     36654 MEMB     274      POPC     H12S     HAL2     0.900000E-01   1.00800           0
     36655 MEMB     274      POPC     C213     CTL2    -0.180000       12.0110           0
     36656 MEMB     274      POPC     H13R     HAL2     0.900000E-01   1.00800           0
     36657 MEMB     274      POPC     H13S     HAL2     0.900000E-01   1.00800           0
     36658 MEMB     274      POPC     C214     CTL2    -0.180000       12.0110           0
     36659 MEMB     274      POPC     H14R     HAL2     0.900000E-01   1.00800           0
     36660 MEMB     274      POPC     H14S     HAL2     0.900000E-01   1.00800           0
     36661 MEMB     274      POPC     C215     CTL2    -0.180000       12.0110           0
     36662 MEMB     274      POPC     H15R     HAL2     0.900000E-01   1.00800           0
     36663 MEMB     274      POPC     H15S     HAL2     0.900000E-01   1.00800           0
     36664 MEMB     274      POPC     C216     CTL2    -0.180000       12.0110           0
     36665 MEMB     274      POPC     H16R     HAL2     0.900000E-01   1.00800           0
     36666 MEMB     274      POPC     H16S     HAL2     0.900000E-01   1.00800           0
     36667 MEMB     274      POPC     C217     CTL2    -0.180000       12.0110           0
     36668 MEMB     274      POPC     H17R     HAL2     0.900000E-01   1.00800           0
     36669 MEMB     274      POPC     H17S     HAL2     0.900000E-01   1.00800           0
     36670 MEMB     274      POPC     C218     CTL3    -0.270000       12.0110           0
     36671 MEMB     274      POPC     H18R     HAL3     0.900000E-01   1.00800           0
     36672 MEMB     274      POPC     H18S     HAL3     0.900000E-01   1.00800           0
     36673 MEMB     274      POPC     H18T     HAL3     0.900000E-01   1.00800           0
     36674 MEMB     274      POPC     C33      CTL2    -0.180000       12.0110           0
     36675 MEMB     274      POPC     H3X      HAL2     0.900000E-01   1.00800           0
     36676 MEMB     274      POPC     H3Y      HAL2     0.900000E-01   1.00800           0
     36677 MEMB     274      POPC     C34      CTL2    -0.180000       12.0110           0
     36678 MEMB     274      POPC     H4X      HAL2     0.900000E-01   1.00800           0
     36679 MEMB     274      POPC     H4Y      HAL2     0.900000E-01   1.00800           0
     36680 MEMB     274      POPC     C35      CTL2    -0.180000       12.0110           0
     36681 MEMB     274      POPC     H5X      HAL2     0.900000E-01   1.00800           0
     36682 MEMB     274      POPC     H5Y      HAL2     0.900000E-01   1.00800           0
     36683 MEMB     274      POPC     C36      CTL2    -0.180000       12.0110           0
     36684 MEMB     274      POPC     H6X      HAL2     0.900000E-01   1.00800           0
     36685 MEMB     274      POPC     H6Y      HAL2     0.900000E-01   1.00800           0
     36686 MEMB     274      POPC     C37      CTL2    -0.180000       12.0110           0
     36687 MEMB     274      POPC     H7X      HAL2     0.900000E-01   1.00800           0
     36688 MEMB     274      POPC     H7Y      HAL2     0.900000E-01   1.00800           0
     36689 MEMB     274      POPC     C38      CTL2    -0.180000       12.0110           0
     36690 MEMB     274      POPC     H8X      HAL2     0.900000E-01   1.00800           0
     36691 MEMB     274      POPC     H8Y      HAL2     0.900000E-01   1.00800           0
     36692 MEMB     274      POPC     C39      CTL2    -0.180000       12.0110           0
     36693 MEMB     274      POPC     H9X      HAL2     0.900000E-01   1.00800           0
     36694 MEMB     274      POPC     H9Y      HAL2     0.900000E-01   1.00800           0
     36695 MEMB     274      POPC     C310     CTL2    -0.180000       12.0110           0
     36696 MEMB     274      POPC     H10X     HAL2     0.900000E-01   1.00800           0
     36697 MEMB     274      POPC     H10Y     HAL2     0.900000E-01   1.00800           0
     36698 MEMB     274      POPC     C311     CTL2    -0.180000       12.0110           0
     36699 MEMB     274      POPC     H11X     HAL2     0.900000E-01   1.00800           0
     36700 MEMB     274      POPC     H11Y     HAL2     0.900000E-01   1.00800           0
     36701 MEMB     274      POPC     C312     CTL2    -0.180000       12.0110           0
     36702 MEMB     274      POPC     H12X     HAL2     0.900000E-01   1.00800           0
     36703 MEMB     274      POPC     H12Y     HAL2     0.900000E-01   1.00800           0
     36704 MEMB     274      POPC     C313     CTL2    -0.180000       12.0110           0
     36705 MEMB     274      POPC     H13X     HAL2     0.900000E-01   1.00800           0
     36706 MEMB     274      POPC     H13Y     HAL2     0.900000E-01   1.00800           0
     36707 MEMB     274      POPC     C314     CTL2    -0.180000       12.0110           0
     36708 MEMB     274      POPC     H14X     HAL2     0.900000E-01   1.00800           0
     36709 MEMB     274      POPC     H14Y     HAL2     0.900000E-01   1.00800           0
     36710 MEMB     274      POPC     C315     CTL2    -0.180000       12.0110           0
     36711 MEMB     274      POPC     H15X     HAL2     0.900000E-01   1.00800           0
     36712 MEMB     274      POPC     H15Y     HAL2     0.900000E-01   1.00800           0
     36713 MEMB     274      POPC     C316     CTL3    -0.270000       12.0110           0
     36714 MEMB     274      POPC     H16X     HAL3     0.900000E-01   1.00800           0
     36715 MEMB     274      POPC     H16Y     HAL3     0.900000E-01   1.00800           0
     36716 MEMB     274      POPC     H16Z     HAL3     0.900000E-01   1.00800           0
     36717 MEMB     275      POPC     N        NTL     -0.600000       14.0070           0
     36718 MEMB     275      POPC     C12      CTL2    -0.100000       12.0110           0
     36719 MEMB     275      POPC     H12A     HL       0.250000       1.00800           0
     36720 MEMB     275      POPC     H12B     HL       0.250000       1.00800           0
     36721 MEMB     275      POPC     C13      CTL5    -0.350000       12.0110           0
     36722 MEMB     275      POPC     H13A     HL       0.250000       1.00800           0
     36723 MEMB     275      POPC     H13B     HL       0.250000       1.00800           0
     36724 MEMB     275      POPC     H13C     HL       0.250000       1.00800           0
     36725 MEMB     275      POPC     C14      CTL5    -0.350000       12.0110           0
     36726 MEMB     275      POPC     H14A     HL       0.250000       1.00800           0
     36727 MEMB     275      POPC     H14B     HL       0.250000       1.00800           0
     36728 MEMB     275      POPC     H14C     HL       0.250000       1.00800           0
     36729 MEMB     275      POPC     C15      CTL5    -0.350000       12.0110           0
     36730 MEMB     275      POPC     H15A     HL       0.250000       1.00800           0
     36731 MEMB     275      POPC     H15B     HL       0.250000       1.00800           0
     36732 MEMB     275      POPC     H15C     HL       0.250000       1.00800           0
     36733 MEMB     275      POPC     C11      CTL2    -0.800000E-01   12.0110           0
     36734 MEMB     275      POPC     H11A     HAL2     0.900000E-01   1.00800           0
     36735 MEMB     275      POPC     H11B     HAL2     0.900000E-01   1.00800           0
     36736 MEMB     275      POPC     P        PL       1.50000        30.9740           0
     36737 MEMB     275      POPC     O13      O2L     -0.780000       15.9994           0
     36738 MEMB     275      POPC     O14      O2L     -0.780000       15.9994           0
     36739 MEMB     275      POPC     O12      OSLP    -0.570000       15.9994           0
     36740 MEMB     275      POPC     O11      OSLP    -0.570000       15.9994           0
     36741 MEMB     275      POPC     C1       CTL2    -0.800000E-01   12.0110           0
     36742 MEMB     275      POPC     HA       HAL2     0.900000E-01   1.00800           0
     36743 MEMB     275      POPC     HB       HAL2     0.900000E-01   1.00800           0
     36744 MEMB     275      POPC     C2       CTL1     0.170000       12.0110           0
     36745 MEMB     275      POPC     HS       HAL1     0.900000E-01   1.00800           0
     36746 MEMB     275      POPC     O21      OSL     -0.490000       15.9994           0
     36747 MEMB     275      POPC     C21      CL       0.900000       12.0110           0
     36748 MEMB     275      POPC     O22      OBL     -0.630000       15.9994           0
     36749 MEMB     275      POPC     C22      CTL2    -0.220000       12.0110           0
     36750 MEMB     275      POPC     H2R      HAL2     0.900000E-01   1.00800           0
     36751 MEMB     275      POPC     H2S      HAL2     0.900000E-01   1.00800           0
     36752 MEMB     275      POPC     C3       CTL2     0.800000E-01   12.0110           0
     36753 MEMB     275      POPC     HX       HAL2     0.900000E-01   1.00800           0
     36754 MEMB     275      POPC     HY       HAL2     0.900000E-01   1.00800           0
     36755 MEMB     275      POPC     O31      OSL     -0.490000       15.9994           0
     36756 MEMB     275      POPC     C31      CL       0.900000       12.0110           0
     36757 MEMB     275      POPC     O32      OBL     -0.630000       15.9994           0
     36758 MEMB     275      POPC     C32      CTL2    -0.220000       12.0110           0
     36759 MEMB     275      POPC     H2X      HAL2     0.900000E-01   1.00800           0
     36760 MEMB     275      POPC     H2Y      HAL2     0.900000E-01   1.00800           0
     36761 MEMB     275      POPC     C23      CTL2    -0.180000       12.0110           0
     36762 MEMB     275      POPC     H3R      HAL2     0.900000E-01   1.00800           0
     36763 MEMB     275      POPC     H3S      HAL2     0.900000E-01   1.00800           0
     36764 MEMB     275      POPC     C24      CTL2    -0.180000       12.0110           0
     36765 MEMB     275      POPC     H4R      HAL2     0.900000E-01   1.00800           0
     36766 MEMB     275      POPC     H4S      HAL2     0.900000E-01   1.00800           0
     36767 MEMB     275      POPC     C25      CTL2    -0.180000       12.0110           0
     36768 MEMB     275      POPC     H5R      HAL2     0.900000E-01   1.00800           0
     36769 MEMB     275      POPC     H5S      HAL2     0.900000E-01   1.00800           0
     36770 MEMB     275      POPC     C26      CTL2    -0.180000       12.0110           0
     36771 MEMB     275      POPC     H6R      HAL2     0.900000E-01   1.00800           0
     36772 MEMB     275      POPC     H6S      HAL2     0.900000E-01   1.00800           0
     36773 MEMB     275      POPC     C27      CTL2    -0.180000       12.0110           0
     36774 MEMB     275      POPC     H7R      HAL2     0.900000E-01   1.00800           0
     36775 MEMB     275      POPC     H7S      HAL2     0.900000E-01   1.00800           0
     36776 MEMB     275      POPC     C28      CTL2    -0.180000       12.0110           0
     36777 MEMB     275      POPC     H8R      HAL2     0.900000E-01   1.00800           0
     36778 MEMB     275      POPC     H8S      HAL2     0.900000E-01   1.00800           0
     36779 MEMB     275      POPC     C29      CEL1    -0.150000       12.0110           0
     36780 MEMB     275      POPC     H91      HEL1     0.150000       1.00800           0
     36781 MEMB     275      POPC     C210     CEL1    -0.150000       12.0110           0
     36782 MEMB     275      POPC     H101     HEL1     0.150000       1.00800           0
     36783 MEMB     275      POPC     C211     CTL2    -0.180000       12.0110           0
     36784 MEMB     275      POPC     H11R     HAL2     0.900000E-01   1.00800           0
     36785 MEMB     275      POPC     H11S     HAL2     0.900000E-01   1.00800           0
     36786 MEMB     275      POPC     C212     CTL2    -0.180000       12.0110           0
     36787 MEMB     275      POPC     H12R     HAL2     0.900000E-01   1.00800           0
     36788 MEMB     275      POPC     H12S     HAL2     0.900000E-01   1.00800           0
     36789 MEMB     275      POPC     C213     CTL2    -0.180000       12.0110           0
     36790 MEMB     275      POPC     H13R     HAL2     0.900000E-01   1.00800           0
     36791 MEMB     275      POPC     H13S     HAL2     0.900000E-01   1.00800           0
     36792 MEMB     275      POPC     C214     CTL2    -0.180000       12.0110           0
     36793 MEMB     275      POPC     H14R     HAL2     0.900000E-01   1.00800           0
     36794 MEMB     275      POPC     H14S     HAL2     0.900000E-01   1.00800           0
     36795 MEMB     275      POPC     C215     CTL2    -0.180000       12.0110           0
     36796 MEMB     275      POPC     H15R     HAL2     0.900000E-01   1.00800           0
     36797 MEMB     275      POPC     H15S     HAL2     0.900000E-01   1.00800           0
     36798 MEMB     275      POPC     C216     CTL2    -0.180000       12.0110           0
     36799 MEMB     275      POPC     H16R     HAL2     0.900000E-01   1.00800           0
     36800 MEMB     275      POPC     H16S     HAL2     0.900000E-01   1.00800           0
     36801 MEMB     275      POPC     C217     CTL2    -0.180000       12.0110           0
     36802 MEMB     275      POPC     H17R     HAL2     0.900000E-01   1.00800           0
     36803 MEMB     275      POPC     H17S     HAL2     0.900000E-01   1.00800           0
     36804 MEMB     275      POPC     C218     CTL3    -0.270000       12.0110           0
     36805 MEMB     275      POPC     H18R     HAL3     0.900000E-01   1.00800           0
     36806 MEMB     275      POPC     H18S     HAL3     0.900000E-01   1.00800           0
     36807 MEMB     275      POPC     H18T     HAL3     0.900000E-01   1.00800           0
     36808 MEMB     275      POPC     C33      CTL2    -0.180000       12.0110           0
     36809 MEMB     275      POPC     H3X      HAL2     0.900000E-01   1.00800           0
     36810 MEMB     275      POPC     H3Y      HAL2     0.900000E-01   1.00800           0
     36811 MEMB     275      POPC     C34      CTL2    -0.180000       12.0110           0
     36812 MEMB     275      POPC     H4X      HAL2     0.900000E-01   1.00800           0
     36813 MEMB     275      POPC     H4Y      HAL2     0.900000E-01   1.00800           0
     36814 MEMB     275      POPC     C35      CTL2    -0.180000       12.0110           0
     36815 MEMB     275      POPC     H5X      HAL2     0.900000E-01   1.00800           0
     36816 MEMB     275      POPC     H5Y      HAL2     0.900000E-01   1.00800           0
     36817 MEMB     275      POPC     C36      CTL2    -0.180000       12.0110           0
     36818 MEMB     275      POPC     H6X      HAL2     0.900000E-01   1.00800           0
     36819 MEMB     275      POPC     H6Y      HAL2     0.900000E-01   1.00800           0
     36820 MEMB     275      POPC     C37      CTL2    -0.180000       12.0110           0
     36821 MEMB     275      POPC     H7X      HAL2     0.900000E-01   1.00800           0
     36822 MEMB     275      POPC     H7Y      HAL2     0.900000E-01   1.00800           0
     36823 MEMB     275      POPC     C38      CTL2    -0.180000       12.0110           0
     36824 MEMB     275      POPC     H8X      HAL2     0.900000E-01   1.00800           0
     36825 MEMB     275      POPC     H8Y      HAL2     0.900000E-01   1.00800           0
     36826 MEMB     275      POPC     C39      CTL2    -0.180000       12.0110           0
     36827 MEMB     275      POPC     H9X      HAL2     0.900000E-01   1.00800           0
     36828 MEMB     275      POPC     H9Y      HAL2     0.900000E-01   1.00800           0
     36829 MEMB     275      POPC     C310     CTL2    -0.180000       12.0110           0
     36830 MEMB     275      POPC     H10X     HAL2     0.900000E-01   1.00800           0
     36831 MEMB     275      POPC     H10Y     HAL2     0.900000E-01   1.00800           0
     36832 MEMB     275      POPC     C311     CTL2    -0.180000       12.0110           0
     36833 MEMB     275      POPC     H11X     HAL2     0.900000E-01   1.00800           0
     36834 MEMB     275      POPC     H11Y     HAL2     0.900000E-01   1.00800           0
     36835 MEMB     275      POPC     C312     CTL2    -0.180000       12.0110           0
     36836 MEMB     275      POPC     H12X     HAL2     0.900000E-01   1.00800           0
     36837 MEMB     275      POPC     H12Y     HAL2     0.900000E-01   1.00800           0
     36838 MEMB     275      POPC     C313     CTL2    -0.180000       12.0110           0
     36839 MEMB     275      POPC     H13X     HAL2     0.900000E-01   1.00800           0
     36840 MEMB     275      POPC     H13Y     HAL2     0.900000E-01   1.00800           0
     36841 MEMB     275      POPC     C314     CTL2    -0.180000       12.0110           0
     36842 MEMB     275      POPC     H14X     HAL2     0.900000E-01   1.00800           0
     36843 MEMB     275      POPC     H14Y     HAL2     0.900000E-01   1.00800           0
     36844 MEMB     275      POPC     C315     CTL2    -0.180000       12.0110           0
     36845 MEMB     275      POPC     H15X     HAL2     0.900000E-01   1.00800           0
     36846 MEMB     275      POPC     H15Y     HAL2     0.900000E-01   1.00800           0
     36847 MEMB     275      POPC     C316     CTL3    -0.270000       12.0110           0
     36848 MEMB     275      POPC     H16X     HAL3     0.900000E-01   1.00800           0
     36849 MEMB     275      POPC     H16Y     HAL3     0.900000E-01   1.00800           0
     36850 MEMB     275      POPC     H16Z     HAL3     0.900000E-01   1.00800           0
     36851 MEMB     276      POPC     N        NTL     -0.600000       14.0070           0
     36852 MEMB     276      POPC     C12      CTL2    -0.100000       12.0110           0
     36853 MEMB     276      POPC     H12A     HL       0.250000       1.00800           0
     36854 MEMB     276      POPC     H12B     HL       0.250000       1.00800           0
     36855 MEMB     276      POPC     C13      CTL5    -0.350000       12.0110           0
     36856 MEMB     276      POPC     H13A     HL       0.250000       1.00800           0
     36857 MEMB     276      POPC     H13B     HL       0.250000       1.00800           0
     36858 MEMB     276      POPC     H13C     HL       0.250000       1.00800           0
     36859 MEMB     276      POPC     C14      CTL5    -0.350000       12.0110           0
     36860 MEMB     276      POPC     H14A     HL       0.250000       1.00800           0
     36861 MEMB     276      POPC     H14B     HL       0.250000       1.00800           0
     36862 MEMB     276      POPC     H14C     HL       0.250000       1.00800           0
     36863 MEMB     276      POPC     C15      CTL5    -0.350000       12.0110           0
     36864 MEMB     276      POPC     H15A     HL       0.250000       1.00800           0
     36865 MEMB     276      POPC     H15B     HL       0.250000       1.00800           0
     36866 MEMB     276      POPC     H15C     HL       0.250000       1.00800           0
     36867 MEMB     276      POPC     C11      CTL2    -0.800000E-01   12.0110           0
     36868 MEMB     276      POPC     H11A     HAL2     0.900000E-01   1.00800           0
     36869 MEMB     276      POPC     H11B     HAL2     0.900000E-01   1.00800           0
     36870 MEMB     276      POPC     P        PL       1.50000        30.9740           0
     36871 MEMB     276      POPC     O13      O2L     -0.780000       15.9994           0
     36872 MEMB     276      POPC     O14      O2L     -0.780000       15.9994           0
     36873 MEMB     276      POPC     O12      OSLP    -0.570000       15.9994           0
     36874 MEMB     276      POPC     O11      OSLP    -0.570000       15.9994           0
     36875 MEMB     276      POPC     C1       CTL2    -0.800000E-01   12.0110           0
     36876 MEMB     276      POPC     HA       HAL2     0.900000E-01   1.00800           0
     36877 MEMB     276      POPC     HB       HAL2     0.900000E-01   1.00800           0
     36878 MEMB     276      POPC     C2       CTL1     0.170000       12.0110           0
     36879 MEMB     276      POPC     HS       HAL1     0.900000E-01   1.00800           0
     36880 MEMB     276      POPC     O21      OSL     -0.490000       15.9994           0
     36881 MEMB     276      POPC     C21      CL       0.900000       12.0110           0
     36882 MEMB     276      POPC     O22      OBL     -0.630000       15.9994           0
     36883 MEMB     276      POPC     C22      CTL2    -0.220000       12.0110           0
     36884 MEMB     276      POPC     H2R      HAL2     0.900000E-01   1.00800           0
     36885 MEMB     276      POPC     H2S      HAL2     0.900000E-01   1.00800           0
     36886 MEMB     276      POPC     C3       CTL2     0.800000E-01   12.0110           0
     36887 MEMB     276      POPC     HX       HAL2     0.900000E-01   1.00800           0
     36888 MEMB     276      POPC     HY       HAL2     0.900000E-01   1.00800           0
     36889 MEMB     276      POPC     O31      OSL     -0.490000       15.9994           0
     36890 MEMB     276      POPC     C31      CL       0.900000       12.0110           0
     36891 MEMB     276      POPC     O32      OBL     -0.630000       15.9994           0
     36892 MEMB     276      POPC     C32      CTL2    -0.220000       12.0110           0
     36893 MEMB     276      POPC     H2X      HAL2     0.900000E-01   1.00800           0
     36894 MEMB     276      POPC     H2Y      HAL2     0.900000E-01   1.00800           0
     36895 MEMB     276      POPC     C23      CTL2    -0.180000       12.0110           0
     36896 MEMB     276      POPC     H3R      HAL2     0.900000E-01   1.00800           0
     36897 MEMB     276      POPC     H3S      HAL2     0.900000E-01   1.00800           0
     36898 MEMB     276      POPC     C24      CTL2    -0.180000       12.0110           0
     36899 MEMB     276      POPC     H4R      HAL2     0.900000E-01   1.00800           0
     36900 MEMB     276      POPC     H4S      HAL2     0.900000E-01   1.00800           0
     36901 MEMB     276      POPC     C25      CTL2    -0.180000       12.0110           0
     36902 MEMB     276      POPC     H5R      HAL2     0.900000E-01   1.00800           0
     36903 MEMB     276      POPC     H5S      HAL2     0.900000E-01   1.00800           0
     36904 MEMB     276      POPC     C26      CTL2    -0.180000       12.0110           0
     36905 MEMB     276      POPC     H6R      HAL2     0.900000E-01   1.00800           0
     36906 MEMB     276      POPC     H6S      HAL2     0.900000E-01   1.00800           0
     36907 MEMB     276      POPC     C27      CTL2    -0.180000       12.0110           0
     36908 MEMB     276      POPC     H7R      HAL2     0.900000E-01   1.00800           0
     36909 MEMB     276      POPC     H7S      HAL2     0.900000E-01   1.00800           0
     36910 MEMB     276      POPC     C28      CTL2    -0.180000       12.0110           0
     36911 MEMB     276      POPC     H8R      HAL2     0.900000E-01   1.00800           0
     36912 MEMB     276      POPC     H8S      HAL2     0.900000E-01   1.00800           0
     36913 MEMB     276      POPC     C29      CEL1    -0.150000       12.0110           0
     36914 MEMB     276      POPC     H91      HEL1     0.150000       1.00800           0
     36915 MEMB     276      POPC     C210     CEL1    -0.150000       12.0110           0
     36916 MEMB     276      POPC     H101     HEL1     0.150000       1.00800           0
     36917 MEMB     276      POPC     C211     CTL2    -0.180000       12.0110           0
     36918 MEMB     276      POPC     H11R     HAL2     0.900000E-01   1.00800           0
     36919 MEMB     276      POPC     H11S     HAL2     0.900000E-01   1.00800           0
     36920 MEMB     276      POPC     C212     CTL2    -0.180000       12.0110           0
     36921 MEMB     276      POPC     H12R     HAL2     0.900000E-01   1.00800           0
     36922 MEMB     276      POPC     H12S     HAL2     0.900000E-01   1.00800           0
     36923 MEMB     276      POPC     C213     CTL2    -0.180000       12.0110           0
     36924 MEMB     276      POPC     H13R     HAL2     0.900000E-01   1.00800           0
     36925 MEMB     276      POPC     H13S     HAL2     0.900000E-01   1.00800           0
     36926 MEMB     276      POPC     C214     CTL2    -0.180000       12.0110           0
     36927 MEMB     276      POPC     H14R     HAL2     0.900000E-01   1.00800           0
     36928 MEMB     276      POPC     H14S     HAL2     0.900000E-01   1.00800           0
     36929 MEMB     276      POPC     C215     CTL2    -0.180000       12.0110           0
     36930 MEMB     276      POPC     H15R     HAL2     0.900000E-01   1.00800           0
     36931 MEMB     276      POPC     H15S     HAL2     0.900000E-01   1.00800           0
     36932 MEMB     276      POPC     C216     CTL2    -0.180000       12.0110           0
     36933 MEMB     276      POPC     H16R     HAL2     0.900000E-01   1.00800           0
     36934 MEMB     276      POPC     H16S     HAL2     0.900000E-01   1.00800           0
     36935 MEMB     276      POPC     C217     CTL2    -0.180000       12.0110           0
     36936 MEMB     276      POPC     H17R     HAL2     0.900000E-01   1.00800           0
     36937 MEMB     276      POPC     H17S     HAL2     0.900000E-01   1.00800           0
     36938 MEMB     276      POPC     C218     CTL3    -0.270000       12.0110           0
     36939 MEMB     276      POPC     H18R     HAL3     0.900000E-01   1.00800           0
     36940 MEMB     276      POPC     H18S     HAL3     0.900000E-01   1.00800           0
     36941 MEMB     276      POPC     H18T     HAL3     0.900000E-01   1.00800           0
     36942 MEMB     276      POPC     C33      CTL2    -0.180000       12.0110           0
     36943 MEMB     276      POPC     H3X      HAL2     0.900000E-01   1.00800           0
     36944 MEMB     276      POPC     H3Y      HAL2     0.900000E-01   1.00800           0
     36945 MEMB     276      POPC     C34      CTL2    -0.180000       12.0110           0
     36946 MEMB     276      POPC     H4X      HAL2     0.900000E-01   1.00800           0
     36947 MEMB     276      POPC     H4Y      HAL2     0.900000E-01   1.00800           0
     36948 MEMB     276      POPC     C35      CTL2    -0.180000       12.0110           0
     36949 MEMB     276      POPC     H5X      HAL2     0.900000E-01   1.00800           0
     36950 MEMB     276      POPC     H5Y      HAL2     0.900000E-01   1.00800           0
     36951 MEMB     276      POPC     C36      CTL2    -0.180000       12.0110           0
     36952 MEMB     276      POPC     H6X      HAL2     0.900000E-01   1.00800           0
     36953 MEMB     276      POPC     H6Y      HAL2     0.900000E-01   1.00800           0
     36954 MEMB     276      POPC     C37      CTL2    -0.180000       12.0110           0
     36955 MEMB     276      POPC     H7X      HAL2     0.900000E-01   1.00800           0
     36956 MEMB     276      POPC     H7Y      HAL2     0.900000E-01   1.00800           0
     36957 MEMB     276      POPC     C38      CTL2    -0.180000       12.0110           0
     36958 MEMB     276      POPC     H8X      HAL2     0.900000E-01   1.00800           0
     36959 MEMB     276      POPC     H8Y      HAL2     0.900000E-01   1.00800           0
     36960 MEMB     276      POPC     C39      CTL2    -0.180000       12.0110           0
     36961 MEMB     276      POPC     H9X      HAL2     0.900000E-01   1.00800           0
     36962 MEMB     276      POPC     H9Y      HAL2     0.900000E-01   1.00800           0
     36963 MEMB     276      POPC     C310     CTL2    -0.180000       12.0110           0
     36964 MEMB     276      POPC     H10X     HAL2     0.900000E-01   1.00800           0
     36965 MEMB     276      POPC     H10Y     HAL2     0.900000E-01   1.00800           0
     36966 MEMB     276      POPC     C311     CTL2    -0.180000       12.0110           0
     36967 MEMB     276      POPC     H11X     HAL2     0.900000E-01   1.00800           0
     36968 MEMB     276      POPC     H11Y     HAL2     0.900000E-01   1.00800           0
     36969 MEMB     276      POPC     C312     CTL2    -0.180000       12.0110           0
     36970 MEMB     276      POPC     H12X     HAL2     0.900000E-01   1.00800           0
     36971 MEMB     276      POPC     H12Y     HAL2     0.900000E-01   1.00800           0
     36972 MEMB     276      POPC     C313     CTL2    -0.180000       12.0110           0
     36973 MEMB     276      POPC     H13X     HAL2     0.900000E-01   1.00800           0
     36974 MEMB     276      POPC     H13Y     HAL2     0.900000E-01   1.00800           0
     36975 MEMB     276      POPC     C314     CTL2    -0.180000       12.0110           0
     36976 MEMB     276      POPC     H14X     HAL2     0.900000E-01   1.00800           0
     36977 MEMB     276      POPC     H14Y     HAL2     0.900000E-01   1.00800           0
     36978 MEMB     276      POPC     C315     CTL2    -0.180000       12.0110           0
     36979 MEMB     276      POPC     H15X     HAL2     0.900000E-01   1.00800           0
     36980 MEMB     276      POPC     H15Y     HAL2     0.900000E-01   1.00800           0
     36981 MEMB     276      POPC     C316     CTL3    -0.270000       12.0110           0
     36982 MEMB     276      POPC     H16X     HAL3     0.900000E-01   1.00800           0
     36983 MEMB     276      POPC     H16Y     HAL3     0.900000E-01   1.00800           0
     36984 MEMB     276      POPC     H16Z     HAL3     0.900000E-01   1.00800           0
     36985 MEMB     277      POPC     N        NTL     -0.600000       14.0070           0
     36986 MEMB     277      POPC     C12      CTL2    -0.100000       12.0110           0
     36987 MEMB     277      POPC     H12A     HL       0.250000       1.00800           0
     36988 MEMB     277      POPC     H12B     HL       0.250000       1.00800           0
     36989 MEMB     277      POPC     C13      CTL5    -0.350000       12.0110           0
     36990 MEMB     277      POPC     H13A     HL       0.250000       1.00800           0
     36991 MEMB     277      POPC     H13B     HL       0.250000       1.00800           0
     36992 MEMB     277      POPC     H13C     HL       0.250000       1.00800           0
     36993 MEMB     277      POPC     C14      CTL5    -0.350000       12.0110           0
     36994 MEMB     277      POPC     H14A     HL       0.250000       1.00800           0
     36995 MEMB     277      POPC     H14B     HL       0.250000       1.00800           0
     36996 MEMB     277      POPC     H14C     HL       0.250000       1.00800           0
     36997 MEMB     277      POPC     C15      CTL5    -0.350000       12.0110           0
     36998 MEMB     277      POPC     H15A     HL       0.250000       1.00800           0
     36999 MEMB     277      POPC     H15B     HL       0.250000       1.00800           0
     37000 MEMB     277      POPC     H15C     HL       0.250000       1.00800           0
     37001 MEMB     277      POPC     C11      CTL2    -0.800000E-01   12.0110           0
     37002 MEMB     277      POPC     H11A     HAL2     0.900000E-01   1.00800           0
     37003 MEMB     277      POPC     H11B     HAL2     0.900000E-01   1.00800           0
     37004 MEMB     277      POPC     P        PL       1.50000        30.9740           0
     37005 MEMB     277      POPC     O13      O2L     -0.780000       15.9994           0
     37006 MEMB     277      POPC     O14      O2L     -0.780000       15.9994           0
     37007 MEMB     277      POPC     O12      OSLP    -0.570000       15.9994           0
     37008 MEMB     277      POPC     O11      OSLP    -0.570000       15.9994           0
     37009 MEMB     277      POPC     C1       CTL2    -0.800000E-01   12.0110           0
     37010 MEMB     277      POPC     HA       HAL2     0.900000E-01   1.00800           0
     37011 MEMB     277      POPC     HB       HAL2     0.900000E-01   1.00800           0
     37012 MEMB     277      POPC     C2       CTL1     0.170000       12.0110           0
     37013 MEMB     277      POPC     HS       HAL1     0.900000E-01   1.00800           0
     37014 MEMB     277      POPC     O21      OSL     -0.490000       15.9994           0
     37015 MEMB     277      POPC     C21      CL       0.900000       12.0110           0
     37016 MEMB     277      POPC     O22      OBL     -0.630000       15.9994           0
     37017 MEMB     277      POPC     C22      CTL2    -0.220000       12.0110           0
     37018 MEMB     277      POPC     H2R      HAL2     0.900000E-01   1.00800           0
     37019 MEMB     277      POPC     H2S      HAL2     0.900000E-01   1.00800           0
     37020 MEMB     277      POPC     C3       CTL2     0.800000E-01   12.0110           0
     37021 MEMB     277      POPC     HX       HAL2     0.900000E-01   1.00800           0
     37022 MEMB     277      POPC     HY       HAL2     0.900000E-01   1.00800           0
     37023 MEMB     277      POPC     O31      OSL     -0.490000       15.9994           0
     37024 MEMB     277      POPC     C31      CL       0.900000       12.0110           0
     37025 MEMB     277      POPC     O32      OBL     -0.630000       15.9994           0
     37026 MEMB     277      POPC     C32      CTL2    -0.220000       12.0110           0
     37027 MEMB     277      POPC     H2X      HAL2     0.900000E-01   1.00800           0
     37028 MEMB     277      POPC     H2Y      HAL2     0.900000E-01   1.00800           0
     37029 MEMB     277      POPC     C23      CTL2    -0.180000       12.0110           0
     37030 MEMB     277      POPC     H3R      HAL2     0.900000E-01   1.00800           0
     37031 MEMB     277      POPC     H3S      HAL2     0.900000E-01   1.00800           0
     37032 MEMB     277      POPC     C24      CTL2    -0.180000       12.0110           0
     37033 MEMB     277      POPC     H4R      HAL2     0.900000E-01   1.00800           0
     37034 MEMB     277      POPC     H4S      HAL2     0.900000E-01   1.00800           0
     37035 MEMB     277      POPC     C25      CTL2    -0.180000       12.0110           0
     37036 MEMB     277      POPC     H5R      HAL2     0.900000E-01   1.00800           0
     37037 MEMB     277      POPC     H5S      HAL2     0.900000E-01   1.00800           0
     37038 MEMB     277      POPC     C26      CTL2    -0.180000       12.0110           0
     37039 MEMB     277      POPC     H6R      HAL2     0.900000E-01   1.00800           0
     37040 MEMB     277      POPC     H6S      HAL2     0.900000E-01   1.00800           0
     37041 MEMB     277      POPC     C27      CTL2    -0.180000       12.0110           0
     37042 MEMB     277      POPC     H7R      HAL2     0.900000E-01   1.00800           0
     37043 MEMB     277      POPC     H7S      HAL2     0.900000E-01   1.00800           0
     37044 MEMB     277      POPC     C28      CTL2    -0.180000       12.0110           0
     37045 MEMB     277      POPC     H8R      HAL2     0.900000E-01   1.00800           0
     37046 MEMB     277      POPC     H8S      HAL2     0.900000E-01   1.00800           0
     37047 MEMB     277      POPC     C29      CEL1    -0.150000       12.0110           0
     37048 MEMB     277      POPC     H91      HEL1     0.150000       1.00800           0
     37049 MEMB     277      POPC     C210     CEL1    -0.150000       12.0110           0
     37050 MEMB     277      POPC     H101     HEL1     0.150000       1.00800           0
     37051 MEMB     277      POPC     C211     CTL2    -0.180000       12.0110           0
     37052 MEMB     277      POPC     H11R     HAL2     0.900000E-01   1.00800           0
     37053 MEMB     277      POPC     H11S     HAL2     0.900000E-01   1.00800           0
     37054 MEMB     277      POPC     C212     CTL2    -0.180000       12.0110           0
     37055 MEMB     277      POPC     H12R     HAL2     0.900000E-01   1.00800           0
     37056 MEMB     277      POPC     H12S     HAL2     0.900000E-01   1.00800           0
     37057 MEMB     277      POPC     C213     CTL2    -0.180000       12.0110           0
     37058 MEMB     277      POPC     H13R     HAL2     0.900000E-01   1.00800           0
     37059 MEMB     277      POPC     H13S     HAL2     0.900000E-01   1.00800           0
     37060 MEMB     277      POPC     C214     CTL2    -0.180000       12.0110           0
     37061 MEMB     277      POPC     H14R     HAL2     0.900000E-01   1.00800           0
     37062 MEMB     277      POPC     H14S     HAL2     0.900000E-01   1.00800           0
     37063 MEMB     277      POPC     C215     CTL2    -0.180000       12.0110           0
     37064 MEMB     277      POPC     H15R     HAL2     0.900000E-01   1.00800           0
     37065 MEMB     277      POPC     H15S     HAL2     0.900000E-01   1.00800           0
     37066 MEMB     277      POPC     C216     CTL2    -0.180000       12.0110           0
     37067 MEMB     277      POPC     H16R     HAL2     0.900000E-01   1.00800           0
     37068 MEMB     277      POPC     H16S     HAL2     0.900000E-01   1.00800           0
     37069 MEMB     277      POPC     C217     CTL2    -0.180000       12.0110           0
     37070 MEMB     277      POPC     H17R     HAL2     0.900000E-01   1.00800           0
     37071 MEMB     277      POPC     H17S     HAL2     0.900000E-01   1.00800           0
     37072 MEMB     277      POPC     C218     CTL3    -0.270000       12.0110           0
     37073 MEMB     277      POPC     H18R     HAL3     0.900000E-01   1.00800           0
     37074 MEMB     277      POPC     H18S     HAL3     0.900000E-01   1.00800           0
     37075 MEMB     277      POPC     H18T     HAL3     0.900000E-01   1.00800           0
     37076 MEMB     277      POPC     C33      CTL2    -0.180000       12.0110           0
     37077 MEMB     277      POPC     H3X      HAL2     0.900000E-01   1.00800           0
     37078 MEMB     277      POPC     H3Y      HAL2     0.900000E-01   1.00800           0
     37079 MEMB     277      POPC     C34      CTL2    -0.180000       12.0110           0
     37080 MEMB     277      POPC     H4X      HAL2     0.900000E-01   1.00800           0
     37081 MEMB     277      POPC     H4Y      HAL2     0.900000E-01   1.00800           0
     37082 MEMB     277      POPC     C35      CTL2    -0.180000       12.0110           0
     37083 MEMB     277      POPC     H5X      HAL2     0.900000E-01   1.00800           0
     37084 MEMB     277      POPC     H5Y      HAL2     0.900000E-01   1.00800           0
     37085 MEMB     277      POPC     C36      CTL2    -0.180000       12.0110           0
     37086 MEMB     277      POPC     H6X      HAL2     0.900000E-01   1.00800           0
     37087 MEMB     277      POPC     H6Y      HAL2     0.900000E-01   1.00800           0
     37088 MEMB     277      POPC     C37      CTL2    -0.180000       12.0110           0
     37089 MEMB     277      POPC     H7X      HAL2     0.900000E-01   1.00800           0
     37090 MEMB     277      POPC     H7Y      HAL2     0.900000E-01   1.00800           0
     37091 MEMB     277      POPC     C38      CTL2    -0.180000       12.0110           0
     37092 MEMB     277      POPC     H8X      HAL2     0.900000E-01   1.00800           0
     37093 MEMB     277      POPC     H8Y      HAL2     0.900000E-01   1.00800           0
     37094 MEMB     277      POPC     C39      CTL2    -0.180000       12.0110           0
     37095 MEMB     277      POPC     H9X      HAL2     0.900000E-01   1.00800           0
     37096 MEMB     277      POPC     H9Y      HAL2     0.900000E-01   1.00800           0
     37097 MEMB     277      POPC     C310     CTL2    -0.180000       12.0110           0
     37098 MEMB     277      POPC     H10X     HAL2     0.900000E-01   1.00800           0
     37099 MEMB     277      POPC     H10Y     HAL2     0.900000E-01   1.00800           0
     37100 MEMB     277      POPC     C311     CTL2    -0.180000       12.0110           0
     37101 MEMB     277      POPC     H11X     HAL2     0.900000E-01   1.00800           0
     37102 MEMB     277      POPC     H11Y     HAL2     0.900000E-01   1.00800           0
     37103 MEMB     277      POPC     C312     CTL2    -0.180000       12.0110           0
     37104 MEMB     277      POPC     H12X     HAL2     0.900000E-01   1.00800           0
     37105 MEMB     277      POPC     H12Y     HAL2     0.900000E-01   1.00800           0
     37106 MEMB     277      POPC     C313     CTL2    -0.180000       12.0110           0
     37107 MEMB     277      POPC     H13X     HAL2     0.900000E-01   1.00800           0
     37108 MEMB     277      POPC     H13Y     HAL2     0.900000E-01   1.00800           0
     37109 MEMB     277      POPC     C314     CTL2    -0.180000       12.0110           0
     37110 MEMB     277      POPC     H14X     HAL2     0.900000E-01   1.00800           0
     37111 MEMB     277      POPC     H14Y     HAL2     0.900000E-01   1.00800           0
     37112 MEMB     277      POPC     C315     CTL2    -0.180000       12.0110           0
     37113 MEMB     277      POPC     H15X     HAL2     0.900000E-01   1.00800           0
     37114 MEMB     277      POPC     H15Y     HAL2     0.900000E-01   1.00800           0
     37115 MEMB     277      POPC     C316     CTL3    -0.270000       12.0110           0
     37116 MEMB     277      POPC     H16X     HAL3     0.900000E-01   1.00800           0
     37117 MEMB     277      POPC     H16Y     HAL3     0.900000E-01   1.00800           0
     37118 MEMB     277      POPC     H16Z     HAL3     0.900000E-01   1.00800           0
     37119 MEMB     278      POPC     N        NTL     -0.600000       14.0070           0
     37120 MEMB     278      POPC     C12      CTL2    -0.100000       12.0110           0
     37121 MEMB     278      POPC     H12A     HL       0.250000       1.00800           0
     37122 MEMB     278      POPC     H12B     HL       0.250000       1.00800           0
     37123 MEMB     278      POPC     C13      CTL5    -0.350000       12.0110           0
     37124 MEMB     278      POPC     H13A     HL       0.250000       1.00800           0
     37125 MEMB     278      POPC     H13B     HL       0.250000       1.00800           0
     37126 MEMB     278      POPC     H13C     HL       0.250000       1.00800           0
     37127 MEMB     278      POPC     C14      CTL5    -0.350000       12.0110           0
     37128 MEMB     278      POPC     H14A     HL       0.250000       1.00800           0
     37129 MEMB     278      POPC     H14B     HL       0.250000       1.00800           0
     37130 MEMB     278      POPC     H14C     HL       0.250000       1.00800           0
     37131 MEMB     278      POPC     C15      CTL5    -0.350000       12.0110           0
     37132 MEMB     278      POPC     H15A     HL       0.250000       1.00800           0
     37133 MEMB     278      POPC     H15B     HL       0.250000       1.00800           0
     37134 MEMB     278      POPC     H15C     HL       0.250000       1.00800           0
     37135 MEMB     278      POPC     C11      CTL2    -0.800000E-01   12.0110           0
     37136 MEMB     278      POPC     H11A     HAL2     0.900000E-01   1.00800           0
     37137 MEMB     278      POPC     H11B     HAL2     0.900000E-01   1.00800           0
     37138 MEMB     278      POPC     P        PL       1.50000        30.9740           0
     37139 MEMB     278      POPC     O13      O2L     -0.780000       15.9994           0
     37140 MEMB     278      POPC     O14      O2L     -0.780000       15.9994           0
     37141 MEMB     278      POPC     O12      OSLP    -0.570000       15.9994           0
     37142 MEMB     278      POPC     O11      OSLP    -0.570000       15.9994           0
     37143 MEMB     278      POPC     C1       CTL2    -0.800000E-01   12.0110           0
     37144 MEMB     278      POPC     HA       HAL2     0.900000E-01   1.00800           0
     37145 MEMB     278      POPC     HB       HAL2     0.900000E-01   1.00800           0
     37146 MEMB     278      POPC     C2       CTL1     0.170000       12.0110           0
     37147 MEMB     278      POPC     HS       HAL1     0.900000E-01   1.00800           0
     37148 MEMB     278      POPC     O21      OSL     -0.490000       15.9994           0
     37149 MEMB     278      POPC     C21      CL       0.900000       12.0110           0
     37150 MEMB     278      POPC     O22      OBL     -0.630000       15.9994           0
     37151 MEMB     278      POPC     C22      CTL2    -0.220000       12.0110           0
     37152 MEMB     278      POPC     H2R      HAL2     0.900000E-01   1.00800           0
     37153 MEMB     278      POPC     H2S      HAL2     0.900000E-01   1.00800           0
     37154 MEMB     278      POPC     C3       CTL2     0.800000E-01   12.0110           0
     37155 MEMB     278      POPC     HX       HAL2     0.900000E-01   1.00800           0
     37156 MEMB     278      POPC     HY       HAL2     0.900000E-01   1.00800           0
     37157 MEMB     278      POPC     O31      OSL     -0.490000       15.9994           0
     37158 MEMB     278      POPC     C31      CL       0.900000       12.0110           0
     37159 MEMB     278      POPC     O32      OBL     -0.630000       15.9994           0
     37160 MEMB     278      POPC     C32      CTL2    -0.220000       12.0110           0
     37161 MEMB     278      POPC     H2X      HAL2     0.900000E-01   1.00800           0
     37162 MEMB     278      POPC     H2Y      HAL2     0.900000E-01   1.00800           0
     37163 MEMB     278      POPC     C23      CTL2    -0.180000       12.0110           0
     37164 MEMB     278      POPC     H3R      HAL2     0.900000E-01   1.00800           0
     37165 MEMB     278      POPC     H3S      HAL2     0.900000E-01   1.00800           0
     37166 MEMB     278      POPC     C24      CTL2    -0.180000       12.0110           0
     37167 MEMB     278      POPC     H4R      HAL2     0.900000E-01   1.00800           0
     37168 MEMB     278      POPC     H4S      HAL2     0.900000E-01   1.00800           0
     37169 MEMB     278      POPC     C25      CTL2    -0.180000       12.0110           0
     37170 MEMB     278      POPC     H5R      HAL2     0.900000E-01   1.00800           0
     37171 MEMB     278      POPC     H5S      HAL2     0.900000E-01   1.00800           0
     37172 MEMB     278      POPC     C26      CTL2    -0.180000       12.0110           0
     37173 MEMB     278      POPC     H6R      HAL2     0.900000E-01   1.00800           0
     37174 MEMB     278      POPC     H6S      HAL2     0.900000E-01   1.00800           0
     37175 MEMB     278      POPC     C27      CTL2    -0.180000       12.0110           0
     37176 MEMB     278      POPC     H7R      HAL2     0.900000E-01   1.00800           0
     37177 MEMB     278      POPC     H7S      HAL2     0.900000E-01   1.00800           0
     37178 MEMB     278      POPC     C28      CTL2    -0.180000       12.0110           0
     37179 MEMB     278      POPC     H8R      HAL2     0.900000E-01   1.00800           0
     37180 MEMB     278      POPC     H8S      HAL2     0.900000E-01   1.00800           0
     37181 MEMB     278      POPC     C29      CEL1    -0.150000       12.0110           0
     37182 MEMB     278      POPC     H91      HEL1     0.150000       1.00800           0
     37183 MEMB     278      POPC     C210     CEL1    -0.150000       12.0110           0
     37184 MEMB     278      POPC     H101     HEL1     0.150000       1.00800           0
     37185 MEMB     278      POPC     C211     CTL2    -0.180000       12.0110           0
     37186 MEMB     278      POPC     H11R     HAL2     0.900000E-01   1.00800           0
     37187 MEMB     278      POPC     H11S     HAL2     0.900000E-01   1.00800           0
     37188 MEMB     278      POPC     C212     CTL2    -0.180000       12.0110           0
     37189 MEMB     278      POPC     H12R     HAL2     0.900000E-01   1.00800           0
     37190 MEMB     278      POPC     H12S     HAL2     0.900000E-01   1.00800           0
     37191 MEMB     278      POPC     C213     CTL2    -0.180000       12.0110           0
     37192 MEMB     278      POPC     H13R     HAL2     0.900000E-01   1.00800           0
     37193 MEMB     278      POPC     H13S     HAL2     0.900000E-01   1.00800           0
     37194 MEMB     278      POPC     C214     CTL2    -0.180000       12.0110           0
     37195 MEMB     278      POPC     H14R     HAL2     0.900000E-01   1.00800           0
     37196 MEMB     278      POPC     H14S     HAL2     0.900000E-01   1.00800           0
     37197 MEMB     278      POPC     C215     CTL2    -0.180000       12.0110           0
     37198 MEMB     278      POPC     H15R     HAL2     0.900000E-01   1.00800           0
     37199 MEMB     278      POPC     H15S     HAL2     0.900000E-01   1.00800           0
     37200 MEMB     278      POPC     C216     CTL2    -0.180000       12.0110           0
     37201 MEMB     278      POPC     H16R     HAL2     0.900000E-01   1.00800           0
     37202 MEMB     278      POPC     H16S     HAL2     0.900000E-01   1.00800           0
     37203 MEMB     278      POPC     C217     CTL2    -0.180000       12.0110           0
     37204 MEMB     278      POPC     H17R     HAL2     0.900000E-01   1.00800           0
     37205 MEMB     278      POPC     H17S     HAL2     0.900000E-01   1.00800           0
     37206 MEMB     278      POPC     C218     CTL3    -0.270000       12.0110           0
     37207 MEMB     278      POPC     H18R     HAL3     0.900000E-01   1.00800           0
     37208 MEMB     278      POPC     H18S     HAL3     0.900000E-01   1.00800           0
     37209 MEMB     278      POPC     H18T     HAL3     0.900000E-01   1.00800           0
     37210 MEMB     278      POPC     C33      CTL2    -0.180000       12.0110           0
     37211 MEMB     278      POPC     H3X      HAL2     0.900000E-01   1.00800           0
     37212 MEMB     278      POPC     H3Y      HAL2     0.900000E-01   1.00800           0
     37213 MEMB     278      POPC     C34      CTL2    -0.180000       12.0110           0
     37214 MEMB     278      POPC     H4X      HAL2     0.900000E-01   1.00800           0
     37215 MEMB     278      POPC     H4Y      HAL2     0.900000E-01   1.00800           0
     37216 MEMB     278      POPC     C35      CTL2    -0.180000       12.0110           0
     37217 MEMB     278      POPC     H5X      HAL2     0.900000E-01   1.00800           0
     37218 MEMB     278      POPC     H5Y      HAL2     0.900000E-01   1.00800           0
     37219 MEMB     278      POPC     C36      CTL2    -0.180000       12.0110           0
     37220 MEMB     278      POPC     H6X      HAL2     0.900000E-01   1.00800           0
     37221 MEMB     278      POPC     H6Y      HAL2     0.900000E-01   1.00800           0
     37222 MEMB     278      POPC     C37      CTL2    -0.180000       12.0110           0
     37223 MEMB     278      POPC     H7X      HAL2     0.900000E-01   1.00800           0
     37224 MEMB     278      POPC     H7Y      HAL2     0.900000E-01   1.00800           0
     37225 MEMB     278      POPC     C38      CTL2    -0.180000       12.0110           0
     37226 MEMB     278      POPC     H8X      HAL2     0.900000E-01   1.00800           0
     37227 MEMB     278      POPC     H8Y      HAL2     0.900000E-01   1.00800           0
     37228 MEMB     278      POPC     C39      CTL2    -0.180000       12.0110           0
     37229 MEMB     278      POPC     H9X      HAL2     0.900000E-01   1.00800           0
     37230 MEMB     278      POPC     H9Y      HAL2     0.900000E-01   1.00800           0
     37231 MEMB     278      POPC     C310     CTL2    -0.180000       12.0110           0
     37232 MEMB     278      POPC     H10X     HAL2     0.900000E-01   1.00800           0
     37233 MEMB     278      POPC     H10Y     HAL2     0.900000E-01   1.00800           0
     37234 MEMB     278      POPC     C311     CTL2    -0.180000       12.0110           0
     37235 MEMB     278      POPC     H11X     HAL2     0.900000E-01   1.00800           0
     37236 MEMB     278      POPC     H11Y     HAL2     0.900000E-01   1.00800           0
     37237 MEMB     278      POPC     C312     CTL2    -0.180000       12.0110           0
     37238 MEMB     278      POPC     H12X     HAL2     0.900000E-01   1.00800           0
     37239 MEMB     278      POPC     H12Y     HAL2     0.900000E-01   1.00800           0
     37240 MEMB     278      POPC     C313     CTL2    -0.180000       12.0110           0
     37241 MEMB     278      POPC     H13X     HAL2     0.900000E-01   1.00800           0
     37242 MEMB     278      POPC     H13Y     HAL2     0.900000E-01   1.00800           0
     37243 MEMB     278      POPC     C314     CTL2    -0.180000       12.0110           0
     37244 MEMB     278      POPC     H14X     HAL2     0.900000E-01   1.00800           0
     37245 MEMB     278      POPC     H14Y     HAL2     0.900000E-01   1.00800           0
     37246 MEMB     278      POPC     C315     CTL2    -0.180000       12.0110           0
     37247 MEMB     278      POPC     H15X     HAL2     0.900000E-01   1.00800           0
     37248 MEMB     278      POPC     H15Y     HAL2     0.900000E-01   1.00800           0
     37249 MEMB     278      POPC     C316     CTL3    -0.270000       12.0110           0
     37250 MEMB     278      POPC     H16X     HAL3     0.900000E-01   1.00800           0
     37251 MEMB     278      POPC     H16Y     HAL3     0.900000E-01   1.00800           0
     37252 MEMB     278      POPC     H16Z     HAL3     0.900000E-01   1.00800           0
     37253 MEMB     279      POPC     N        NTL     -0.600000       14.0070           0
     37254 MEMB     279      POPC     C12      CTL2    -0.100000       12.0110           0
     37255 MEMB     279      POPC     H12A     HL       0.250000       1.00800           0
     37256 MEMB     279      POPC     H12B     HL       0.250000       1.00800           0
     37257 MEMB     279      POPC     C13      CTL5    -0.350000       12.0110           0
     37258 MEMB     279      POPC     H13A     HL       0.250000       1.00800           0
     37259 MEMB     279      POPC     H13B     HL       0.250000       1.00800           0
     37260 MEMB     279      POPC     H13C     HL       0.250000       1.00800           0
     37261 MEMB     279      POPC     C14      CTL5    -0.350000       12.0110           0
     37262 MEMB     279      POPC     H14A     HL       0.250000       1.00800           0
     37263 MEMB     279      POPC     H14B     HL       0.250000       1.00800           0
     37264 MEMB     279      POPC     H14C     HL       0.250000       1.00800           0
     37265 MEMB     279      POPC     C15      CTL5    -0.350000       12.0110           0
     37266 MEMB     279      POPC     H15A     HL       0.250000       1.00800           0
     37267 MEMB     279      POPC     H15B     HL       0.250000       1.00800           0
     37268 MEMB     279      POPC     H15C     HL       0.250000       1.00800           0
     37269 MEMB     279      POPC     C11      CTL2    -0.800000E-01   12.0110           0
     37270 MEMB     279      POPC     H11A     HAL2     0.900000E-01   1.00800           0
     37271 MEMB     279      POPC     H11B     HAL2     0.900000E-01   1.00800           0
     37272 MEMB     279      POPC     P        PL       1.50000        30.9740           0
     37273 MEMB     279      POPC     O13      O2L     -0.780000       15.9994           0
     37274 MEMB     279      POPC     O14      O2L     -0.780000       15.9994           0
     37275 MEMB     279      POPC     O12      OSLP    -0.570000       15.9994           0
     37276 MEMB     279      POPC     O11      OSLP    -0.570000       15.9994           0
     37277 MEMB     279      POPC     C1       CTL2    -0.800000E-01   12.0110           0
     37278 MEMB     279      POPC     HA       HAL2     0.900000E-01   1.00800           0
     37279 MEMB     279      POPC     HB       HAL2     0.900000E-01   1.00800           0
     37280 MEMB     279      POPC     C2       CTL1     0.170000       12.0110           0
     37281 MEMB     279      POPC     HS       HAL1     0.900000E-01   1.00800           0
     37282 MEMB     279      POPC     O21      OSL     -0.490000       15.9994           0
     37283 MEMB     279      POPC     C21      CL       0.900000       12.0110           0
     37284 MEMB     279      POPC     O22      OBL     -0.630000       15.9994           0
     37285 MEMB     279      POPC     C22      CTL2    -0.220000       12.0110           0
     37286 MEMB     279      POPC     H2R      HAL2     0.900000E-01   1.00800           0
     37287 MEMB     279      POPC     H2S      HAL2     0.900000E-01   1.00800           0
     37288 MEMB     279      POPC     C3       CTL2     0.800000E-01   12.0110           0
     37289 MEMB     279      POPC     HX       HAL2     0.900000E-01   1.00800           0
     37290 MEMB     279      POPC     HY       HAL2     0.900000E-01   1.00800           0
     37291 MEMB     279      POPC     O31      OSL     -0.490000       15.9994           0
     37292 MEMB     279      POPC     C31      CL       0.900000       12.0110           0
     37293 MEMB     279      POPC     O32      OBL     -0.630000       15.9994           0
     37294 MEMB     279      POPC     C32      CTL2    -0.220000       12.0110           0
     37295 MEMB     279      POPC     H2X      HAL2     0.900000E-01   1.00800           0
     37296 MEMB     279      POPC     H2Y      HAL2     0.900000E-01   1.00800           0
     37297 MEMB     279      POPC     C23      CTL2    -0.180000       12.0110           0
     37298 MEMB     279      POPC     H3R      HAL2     0.900000E-01   1.00800           0
     37299 MEMB     279      POPC     H3S      HAL2     0.900000E-01   1.00800           0
     37300 MEMB     279      POPC     C24      CTL2    -0.180000       12.0110           0
     37301 MEMB     279      POPC     H4R      HAL2     0.900000E-01   1.00800           0
     37302 MEMB     279      POPC     H4S      HAL2     0.900000E-01   1.00800           0
     37303 MEMB     279      POPC     C25      CTL2    -0.180000       12.0110           0
     37304 MEMB     279      POPC     H5R      HAL2     0.900000E-01   1.00800           0
     37305 MEMB     279      POPC     H5S      HAL2     0.900000E-01   1.00800           0
     37306 MEMB     279      POPC     C26      CTL2    -0.180000       12.0110           0
     37307 MEMB     279      POPC     H6R      HAL2     0.900000E-01   1.00800           0
     37308 MEMB     279      POPC     H6S      HAL2     0.900000E-01   1.00800           0
     37309 MEMB     279      POPC     C27      CTL2    -0.180000       12.0110           0
     37310 MEMB     279      POPC     H7R      HAL2     0.900000E-01   1.00800           0
     37311 MEMB     279      POPC     H7S      HAL2     0.900000E-01   1.00800           0
     37312 MEMB     279      POPC     C28      CTL2    -0.180000       12.0110           0
     37313 MEMB     279      POPC     H8R      HAL2     0.900000E-01   1.00800           0
     37314 MEMB     279      POPC     H8S      HAL2     0.900000E-01   1.00800           0
     37315 MEMB     279      POPC     C29      CEL1    -0.150000       12.0110           0
     37316 MEMB     279      POPC     H91      HEL1     0.150000       1.00800           0
     37317 MEMB     279      POPC     C210     CEL1    -0.150000       12.0110           0
     37318 MEMB     279      POPC     H101     HEL1     0.150000       1.00800           0
     37319 MEMB     279      POPC     C211     CTL2    -0.180000       12.0110           0
     37320 MEMB     279      POPC     H11R     HAL2     0.900000E-01   1.00800           0
     37321 MEMB     279      POPC     H11S     HAL2     0.900000E-01   1.00800           0
     37322 MEMB     279      POPC     C212     CTL2    -0.180000       12.0110           0
     37323 MEMB     279      POPC     H12R     HAL2     0.900000E-01   1.00800           0
     37324 MEMB     279      POPC     H12S     HAL2     0.900000E-01   1.00800           0
     37325 MEMB     279      POPC     C213     CTL2    -0.180000       12.0110           0
     37326 MEMB     279      POPC     H13R     HAL2     0.900000E-01   1.00800           0
     37327 MEMB     279      POPC     H13S     HAL2     0.900000E-01   1.00800           0
     37328 MEMB     279      POPC     C214     CTL2    -0.180000       12.0110           0
     37329 MEMB     279      POPC     H14R     HAL2     0.900000E-01   1.00800           0
     37330 MEMB     279      POPC     H14S     HAL2     0.900000E-01   1.00800           0
     37331 MEMB     279      POPC     C215     CTL2    -0.180000       12.0110           0
     37332 MEMB     279      POPC     H15R     HAL2     0.900000E-01   1.00800           0
     37333 MEMB     279      POPC     H15S     HAL2     0.900000E-01   1.00800           0
     37334 MEMB     279      POPC     C216     CTL2    -0.180000       12.0110           0
     37335 MEMB     279      POPC     H16R     HAL2     0.900000E-01   1.00800           0
     37336 MEMB     279      POPC     H16S     HAL2     0.900000E-01   1.00800           0
     37337 MEMB     279      POPC     C217     CTL2    -0.180000       12.0110           0
     37338 MEMB     279      POPC     H17R     HAL2     0.900000E-01   1.00800           0
     37339 MEMB     279      POPC     H17S     HAL2     0.900000E-01   1.00800           0
     37340 MEMB     279      POPC     C218     CTL3    -0.270000       12.0110           0
     37341 MEMB     279      POPC     H18R     HAL3     0.900000E-01   1.00800           0
     37342 MEMB     279      POPC     H18S     HAL3     0.900000E-01   1.00800           0
     37343 MEMB     279      POPC     H18T     HAL3     0.900000E-01   1.00800           0
     37344 MEMB     279      POPC     C33      CTL2    -0.180000       12.0110           0
     37345 MEMB     279      POPC     H3X      HAL2     0.900000E-01   1.00800           0
     37346 MEMB     279      POPC     H3Y      HAL2     0.900000E-01   1.00800           0
     37347 MEMB     279      POPC     C34      CTL2    -0.180000       12.0110           0
     37348 MEMB     279      POPC     H4X      HAL2     0.900000E-01   1.00800           0
     37349 MEMB     279      POPC     H4Y      HAL2     0.900000E-01   1.00800           0
     37350 MEMB     279      POPC     C35      CTL2    -0.180000       12.0110           0
     37351 MEMB     279      POPC     H5X      HAL2     0.900000E-01   1.00800           0
     37352 MEMB     279      POPC     H5Y      HAL2     0.900000E-01   1.00800           0
     37353 MEMB     279      POPC     C36      CTL2    -0.180000       12.0110           0
     37354 MEMB     279      POPC     H6X      HAL2     0.900000E-01   1.00800           0
     37355 MEMB     279      POPC     H6Y      HAL2     0.900000E-01   1.00800           0
     37356 MEMB     279      POPC     C37      CTL2    -0.180000       12.0110           0
     37357 MEMB     279      POPC     H7X      HAL2     0.900000E-01   1.00800           0
     37358 MEMB     279      POPC     H7Y      HAL2     0.900000E-01   1.00800           0
     37359 MEMB     279      POPC     C38      CTL2    -0.180000       12.0110           0
     37360 MEMB     279      POPC     H8X      HAL2     0.900000E-01   1.00800           0
     37361 MEMB     279      POPC     H8Y      HAL2     0.900000E-01   1.00800           0
     37362 MEMB     279      POPC     C39      CTL2    -0.180000       12.0110           0
     37363 MEMB     279      POPC     H9X      HAL2     0.900000E-01   1.00800           0
     37364 MEMB     279      POPC     H9Y      HAL2     0.900000E-01   1.00800           0
     37365 MEMB     279      POPC     C310     CTL2    -0.180000       12.0110           0
     37366 MEMB     279      POPC     H10X     HAL2     0.900000E-01   1.00800           0
     37367 MEMB     279      POPC     H10Y     HAL2     0.900000E-01   1.00800           0
     37368 MEMB     279      POPC     C311     CTL2    -0.180000       12.0110           0
     37369 MEMB     279      POPC     H11X     HAL2     0.900000E-01   1.00800           0
     37370 MEMB     279      POPC     H11Y     HAL2     0.900000E-01   1.00800           0
     37371 MEMB     279      POPC     C312     CTL2    -0.180000       12.0110           0
     37372 MEMB     279      POPC     H12X     HAL2     0.900000E-01   1.00800           0
     37373 MEMB     279      POPC     H12Y     HAL2     0.900000E-01   1.00800           0
     37374 MEMB     279      POPC     C313     CTL2    -0.180000       12.0110           0
     37375 MEMB     279      POPC     H13X     HAL2     0.900000E-01   1.00800           0
     37376 MEMB     279      POPC     H13Y     HAL2     0.900000E-01   1.00800           0
     37377 MEMB     279      POPC     C314     CTL2    -0.180000       12.0110           0
     37378 MEMB     279      POPC     H14X     HAL2     0.900000E-01   1.00800           0
     37379 MEMB     279      POPC     H14Y     HAL2     0.900000E-01   1.00800           0
     37380 MEMB     279      POPC     C315     CTL2    -0.180000       12.0110           0
     37381 MEMB     279      POPC     H15X     HAL2     0.900000E-01   1.00800           0
     37382 MEMB     279      POPC     H15Y     HAL2     0.900000E-01   1.00800           0
     37383 MEMB     279      POPC     C316     CTL3    -0.270000       12.0110           0
     37384 MEMB     279      POPC     H16X     HAL3     0.900000E-01   1.00800           0
     37385 MEMB     279      POPC     H16Y     HAL3     0.900000E-01   1.00800           0
     37386 MEMB     279      POPC     H16Z     HAL3     0.900000E-01   1.00800           0
     37387 MEMB     280      POPC     N        NTL     -0.600000       14.0070           0
     37388 MEMB     280      POPC     C12      CTL2    -0.100000       12.0110           0
     37389 MEMB     280      POPC     H12A     HL       0.250000       1.00800           0
     37390 MEMB     280      POPC     H12B     HL       0.250000       1.00800           0
     37391 MEMB     280      POPC     C13      CTL5    -0.350000       12.0110           0
     37392 MEMB     280      POPC     H13A     HL       0.250000       1.00800           0
     37393 MEMB     280      POPC     H13B     HL       0.250000       1.00800           0
     37394 MEMB     280      POPC     H13C     HL       0.250000       1.00800           0
     37395 MEMB     280      POPC     C14      CTL5    -0.350000       12.0110           0
     37396 MEMB     280      POPC     H14A     HL       0.250000       1.00800           0
     37397 MEMB     280      POPC     H14B     HL       0.250000       1.00800           0
     37398 MEMB     280      POPC     H14C     HL       0.250000       1.00800           0
     37399 MEMB     280      POPC     C15      CTL5    -0.350000       12.0110           0
     37400 MEMB     280      POPC     H15A     HL       0.250000       1.00800           0
     37401 MEMB     280      POPC     H15B     HL       0.250000       1.00800           0
     37402 MEMB     280      POPC     H15C     HL       0.250000       1.00800           0
     37403 MEMB     280      POPC     C11      CTL2    -0.800000E-01   12.0110           0
     37404 MEMB     280      POPC     H11A     HAL2     0.900000E-01   1.00800           0
     37405 MEMB     280      POPC     H11B     HAL2     0.900000E-01   1.00800           0
     37406 MEMB     280      POPC     P        PL       1.50000        30.9740           0
     37407 MEMB     280      POPC     O13      O2L     -0.780000       15.9994           0
     37408 MEMB     280      POPC     O14      O2L     -0.780000       15.9994           0
     37409 MEMB     280      POPC     O12      OSLP    -0.570000       15.9994           0
     37410 MEMB     280      POPC     O11      OSLP    -0.570000       15.9994           0
     37411 MEMB     280      POPC     C1       CTL2    -0.800000E-01   12.0110           0
     37412 MEMB     280      POPC     HA       HAL2     0.900000E-01   1.00800           0
     37413 MEMB     280      POPC     HB       HAL2     0.900000E-01   1.00800           0
     37414 MEMB     280      POPC     C2       CTL1     0.170000       12.0110           0
     37415 MEMB     280      POPC     HS       HAL1     0.900000E-01   1.00800           0
     37416 MEMB     280      POPC     O21      OSL     -0.490000       15.9994           0
     37417 MEMB     280      POPC     C21      CL       0.900000       12.0110           0
     37418 MEMB     280      POPC     O22      OBL     -0.630000       15.9994           0
     37419 MEMB     280      POPC     C22      CTL2    -0.220000       12.0110           0
     37420 MEMB     280      POPC     H2R      HAL2     0.900000E-01   1.00800           0
     37421 MEMB     280      POPC     H2S      HAL2     0.900000E-01   1.00800           0
     37422 MEMB     280      POPC     C3       CTL2     0.800000E-01   12.0110           0
     37423 MEMB     280      POPC     HX       HAL2     0.900000E-01   1.00800           0
     37424 MEMB     280      POPC     HY       HAL2     0.900000E-01   1.00800           0
     37425 MEMB     280      POPC     O31      OSL     -0.490000       15.9994           0
     37426 MEMB     280      POPC     C31      CL       0.900000       12.0110           0
     37427 MEMB     280      POPC     O32      OBL     -0.630000       15.9994           0
     37428 MEMB     280      POPC     C32      CTL2    -0.220000       12.0110           0
     37429 MEMB     280      POPC     H2X      HAL2     0.900000E-01   1.00800           0
     37430 MEMB     280      POPC     H2Y      HAL2     0.900000E-01   1.00800           0
     37431 MEMB     280      POPC     C23      CTL2    -0.180000       12.0110           0
     37432 MEMB     280      POPC     H3R      HAL2     0.900000E-01   1.00800           0
     37433 MEMB     280      POPC     H3S      HAL2     0.900000E-01   1.00800           0
     37434 MEMB     280      POPC     C24      CTL2    -0.180000       12.0110           0
     37435 MEMB     280      POPC     H4R      HAL2     0.900000E-01   1.00800           0
     37436 MEMB     280      POPC     H4S      HAL2     0.900000E-01   1.00800           0
     37437 MEMB     280      POPC     C25      CTL2    -0.180000       12.0110           0
     37438 MEMB     280      POPC     H5R      HAL2     0.900000E-01   1.00800           0
     37439 MEMB     280      POPC     H5S      HAL2     0.900000E-01   1.00800           0
     37440 MEMB     280      POPC     C26      CTL2    -0.180000       12.0110           0
     37441 MEMB     280      POPC     H6R      HAL2     0.900000E-01   1.00800           0
     37442 MEMB     280      POPC     H6S      HAL2     0.900000E-01   1.00800           0
     37443 MEMB     280      POPC     C27      CTL2    -0.180000       12.0110           0
     37444 MEMB     280      POPC     H7R      HAL2     0.900000E-01   1.00800           0
     37445 MEMB     280      POPC     H7S      HAL2     0.900000E-01   1.00800           0
     37446 MEMB     280      POPC     C28      CTL2    -0.180000       12.0110           0
     37447 MEMB     280      POPC     H8R      HAL2     0.900000E-01   1.00800           0
     37448 MEMB     280      POPC     H8S      HAL2     0.900000E-01   1.00800           0
     37449 MEMB     280      POPC     C29      CEL1    -0.150000       12.0110           0
     37450 MEMB     280      POPC     H91      HEL1     0.150000       1.00800           0
     37451 MEMB     280      POPC     C210     CEL1    -0.150000       12.0110           0
     37452 MEMB     280      POPC     H101     HEL1     0.150000       1.00800           0
     37453 MEMB     280      POPC     C211     CTL2    -0.180000       12.0110           0
     37454 MEMB     280      POPC     H11R     HAL2     0.900000E-01   1.00800           0
     37455 MEMB     280      POPC     H11S     HAL2     0.900000E-01   1.00800           0
     37456 MEMB     280      POPC     C212     CTL2    -0.180000       12.0110           0
     37457 MEMB     280      POPC     H12R     HAL2     0.900000E-01   1.00800           0
     37458 MEMB     280      POPC     H12S     HAL2     0.900000E-01   1.00800           0
     37459 MEMB     280      POPC     C213     CTL2    -0.180000       12.0110           0
     37460 MEMB     280      POPC     H13R     HAL2     0.900000E-01   1.00800           0
     37461 MEMB     280      POPC     H13S     HAL2     0.900000E-01   1.00800           0
     37462 MEMB     280      POPC     C214     CTL2    -0.180000       12.0110           0
     37463 MEMB     280      POPC     H14R     HAL2     0.900000E-01   1.00800           0
     37464 MEMB     280      POPC     H14S     HAL2     0.900000E-01   1.00800           0
     37465 MEMB     280      POPC     C215     CTL2    -0.180000       12.0110           0
     37466 MEMB     280      POPC     H15R     HAL2     0.900000E-01   1.00800           0
     37467 MEMB     280      POPC     H15S     HAL2     0.900000E-01   1.00800           0
     37468 MEMB     280      POPC     C216     CTL2    -0.180000       12.0110           0
     37469 MEMB     280      POPC     H16R     HAL2     0.900000E-01   1.00800           0
     37470 MEMB     280      POPC     H16S     HAL2     0.900000E-01   1.00800           0
     37471 MEMB     280      POPC     C217     CTL2    -0.180000       12.0110           0
     37472 MEMB     280      POPC     H17R     HAL2     0.900000E-01   1.00800           0
     37473 MEMB     280      POPC     H17S     HAL2     0.900000E-01   1.00800           0
     37474 MEMB     280      POPC     C218     CTL3    -0.270000       12.0110           0
     37475 MEMB     280      POPC     H18R     HAL3     0.900000E-01   1.00800           0
     37476 MEMB     280      POPC     H18S     HAL3     0.900000E-01   1.00800           0
     37477 MEMB     280      POPC     H18T     HAL3     0.900000E-01   1.00800           0
     37478 MEMB     280      POPC     C33      CTL2    -0.180000       12.0110           0
     37479 MEMB     280      POPC     H3X      HAL2     0.900000E-01   1.00800           0
     37480 MEMB     280      POPC     H3Y      HAL2     0.900000E-01   1.00800           0
     37481 MEMB     280      POPC     C34      CTL2    -0.180000       12.0110           0
     37482 MEMB     280      POPC     H4X      HAL2     0.900000E-01   1.00800           0
     37483 MEMB     280      POPC     H4Y      HAL2     0.900000E-01   1.00800           0
     37484 MEMB     280      POPC     C35      CTL2    -0.180000       12.0110           0
     37485 MEMB     280      POPC     H5X      HAL2     0.900000E-01   1.00800           0
     37486 MEMB     280      POPC     H5Y      HAL2     0.900000E-01   1.00800           0
     37487 MEMB     280      POPC     C36      CTL2    -0.180000       12.0110           0
     37488 MEMB     280      POPC     H6X      HAL2     0.900000E-01   1.00800           0
     37489 MEMB     280      POPC     H6Y      HAL2     0.900000E-01   1.00800           0
     37490 MEMB     280      POPC     C37      CTL2    -0.180000       12.0110           0
     37491 MEMB     280      POPC     H7X      HAL2     0.900000E-01   1.00800           0
     37492 MEMB     280      POPC     H7Y      HAL2     0.900000E-01   1.00800           0
     37493 MEMB     280      POPC     C38      CTL2    -0.180000       12.0110           0
     37494 MEMB     280      POPC     H8X      HAL2     0.900000E-01   1.00800           0
     37495 MEMB     280      POPC     H8Y      HAL2     0.900000E-01   1.00800           0
     37496 MEMB     280      POPC     C39      CTL2    -0.180000       12.0110           0
     37497 MEMB     280      POPC     H9X      HAL2     0.900000E-01   1.00800           0
     37498 MEMB     280      POPC     H9Y      HAL2     0.900000E-01   1.00800           0
     37499 MEMB     280      POPC     C310     CTL2    -0.180000       12.0110           0
     37500 MEMB     280      POPC     H10X     HAL2     0.900000E-01   1.00800           0
     37501 MEMB     280      POPC     H10Y     HAL2     0.900000E-01   1.00800           0
     37502 MEMB     280      POPC     C311     CTL2    -0.180000       12.0110           0
     37503 MEMB     280      POPC     H11X     HAL2     0.900000E-01   1.00800           0
     37504 MEMB     280      POPC     H11Y     HAL2     0.900000E-01   1.00800           0
     37505 MEMB     280      POPC     C312     CTL2    -0.180000       12.0110           0
     37506 MEMB     280      POPC     H12X     HAL2     0.900000E-01   1.00800           0
     37507 MEMB     280      POPC     H12Y     HAL2     0.900000E-01   1.00800           0
     37508 MEMB     280      POPC     C313     CTL2    -0.180000       12.0110           0
     37509 MEMB     280      POPC     H13X     HAL2     0.900000E-01   1.00800           0
     37510 MEMB     280      POPC     H13Y     HAL2     0.900000E-01   1.00800           0
     37511 MEMB     280      POPC     C314     CTL2    -0.180000       12.0110           0
     37512 MEMB     280      POPC     H14X     HAL2     0.900000E-01   1.00800           0
     37513 MEMB     280      POPC     H14Y     HAL2     0.900000E-01   1.00800           0
     37514 MEMB     280      POPC     C315     CTL2    -0.180000       12.0110           0
     37515 MEMB     280      POPC     H15X     HAL2     0.900000E-01   1.00800           0
     37516 MEMB     280      POPC     H15Y     HAL2     0.900000E-01   1.00800           0
     37517 MEMB     280      POPC     C316     CTL3    -0.270000       12.0110           0
     37518 MEMB     280      POPC     H16X     HAL3     0.900000E-01   1.00800           0
     37519 MEMB     280      POPC     H16Y     HAL3     0.900000E-01   1.00800           0
     37520 MEMB     280      POPC     H16Z     HAL3     0.900000E-01   1.00800           0
     37521 MEMB     281      POPC     N        NTL     -0.600000       14.0070           0
     37522 MEMB     281      POPC     C12      CTL2    -0.100000       12.0110           0
     37523 MEMB     281      POPC     H12A     HL       0.250000       1.00800           0
     37524 MEMB     281      POPC     H12B     HL       0.250000       1.00800           0
     37525 MEMB     281      POPC     C13      CTL5    -0.350000       12.0110           0
     37526 MEMB     281      POPC     H13A     HL       0.250000       1.00800           0
     37527 MEMB     281      POPC     H13B     HL       0.250000       1.00800           0
     37528 MEMB     281      POPC     H13C     HL       0.250000       1.00800           0
     37529 MEMB     281      POPC     C14      CTL5    -0.350000       12.0110           0
     37530 MEMB     281      POPC     H14A     HL       0.250000       1.00800           0
     37531 MEMB     281      POPC     H14B     HL       0.250000       1.00800           0
     37532 MEMB     281      POPC     H14C     HL       0.250000       1.00800           0
     37533 MEMB     281      POPC     C15      CTL5    -0.350000       12.0110           0
     37534 MEMB     281      POPC     H15A     HL       0.250000       1.00800           0
     37535 MEMB     281      POPC     H15B     HL       0.250000       1.00800           0
     37536 MEMB     281      POPC     H15C     HL       0.250000       1.00800           0
     37537 MEMB     281      POPC     C11      CTL2    -0.800000E-01   12.0110           0
     37538 MEMB     281      POPC     H11A     HAL2     0.900000E-01   1.00800           0
     37539 MEMB     281      POPC     H11B     HAL2     0.900000E-01   1.00800           0
     37540 MEMB     281      POPC     P        PL       1.50000        30.9740           0
     37541 MEMB     281      POPC     O13      O2L     -0.780000       15.9994           0
     37542 MEMB     281      POPC     O14      O2L     -0.780000       15.9994           0
     37543 MEMB     281      POPC     O12      OSLP    -0.570000       15.9994           0
     37544 MEMB     281      POPC     O11      OSLP    -0.570000       15.9994           0
     37545 MEMB     281      POPC     C1       CTL2    -0.800000E-01   12.0110           0
     37546 MEMB     281      POPC     HA       HAL2     0.900000E-01   1.00800           0
     37547 MEMB     281      POPC     HB       HAL2     0.900000E-01   1.00800           0
     37548 MEMB     281      POPC     C2       CTL1     0.170000       12.0110           0
     37549 MEMB     281      POPC     HS       HAL1     0.900000E-01   1.00800           0
     37550 MEMB     281      POPC     O21      OSL     -0.490000       15.9994           0
     37551 MEMB     281      POPC     C21      CL       0.900000       12.0110           0
     37552 MEMB     281      POPC     O22      OBL     -0.630000       15.9994           0
     37553 MEMB     281      POPC     C22      CTL2    -0.220000       12.0110           0
     37554 MEMB     281      POPC     H2R      HAL2     0.900000E-01   1.00800           0
     37555 MEMB     281      POPC     H2S      HAL2     0.900000E-01   1.00800           0
     37556 MEMB     281      POPC     C3       CTL2     0.800000E-01   12.0110           0
     37557 MEMB     281      POPC     HX       HAL2     0.900000E-01   1.00800           0
     37558 MEMB     281      POPC     HY       HAL2     0.900000E-01   1.00800           0
     37559 MEMB     281      POPC     O31      OSL     -0.490000       15.9994           0
     37560 MEMB     281      POPC     C31      CL       0.900000       12.0110           0
     37561 MEMB     281      POPC     O32      OBL     -0.630000       15.9994           0
     37562 MEMB     281      POPC     C32      CTL2    -0.220000       12.0110           0
     37563 MEMB     281      POPC     H2X      HAL2     0.900000E-01   1.00800           0
     37564 MEMB     281      POPC     H2Y      HAL2     0.900000E-01   1.00800           0
     37565 MEMB     281      POPC     C23      CTL2    -0.180000       12.0110           0
     37566 MEMB     281      POPC     H3R      HAL2     0.900000E-01   1.00800           0
     37567 MEMB     281      POPC     H3S      HAL2     0.900000E-01   1.00800           0
     37568 MEMB     281      POPC     C24      CTL2    -0.180000       12.0110           0
     37569 MEMB     281      POPC     H4R      HAL2     0.900000E-01   1.00800           0
     37570 MEMB     281      POPC     H4S      HAL2     0.900000E-01   1.00800           0
     37571 MEMB     281      POPC     C25      CTL2    -0.180000       12.0110           0
     37572 MEMB     281      POPC     H5R      HAL2     0.900000E-01   1.00800           0
     37573 MEMB     281      POPC     H5S      HAL2     0.900000E-01   1.00800           0
     37574 MEMB     281      POPC     C26      CTL2    -0.180000       12.0110           0
     37575 MEMB     281      POPC     H6R      HAL2     0.900000E-01   1.00800           0
     37576 MEMB     281      POPC     H6S      HAL2     0.900000E-01   1.00800           0
     37577 MEMB     281      POPC     C27      CTL2    -0.180000       12.0110           0
     37578 MEMB     281      POPC     H7R      HAL2     0.900000E-01   1.00800           0
     37579 MEMB     281      POPC     H7S      HAL2     0.900000E-01   1.00800           0
     37580 MEMB     281      POPC     C28      CTL2    -0.180000       12.0110           0
     37581 MEMB     281      POPC     H8R      HAL2     0.900000E-01   1.00800           0
     37582 MEMB     281      POPC     H8S      HAL2     0.900000E-01   1.00800           0
     37583 MEMB     281      POPC     C29      CEL1    -0.150000       12.0110           0
     37584 MEMB     281      POPC     H91      HEL1     0.150000       1.00800           0
     37585 MEMB     281      POPC     C210     CEL1    -0.150000       12.0110           0
     37586 MEMB     281      POPC     H101     HEL1     0.150000       1.00800           0
     37587 MEMB     281      POPC     C211     CTL2    -0.180000       12.0110           0
     37588 MEMB     281      POPC     H11R     HAL2     0.900000E-01   1.00800           0
     37589 MEMB     281      POPC     H11S     HAL2     0.900000E-01   1.00800           0
     37590 MEMB     281      POPC     C212     CTL2    -0.180000       12.0110           0
     37591 MEMB     281      POPC     H12R     HAL2     0.900000E-01   1.00800           0
     37592 MEMB     281      POPC     H12S     HAL2     0.900000E-01   1.00800           0
     37593 MEMB     281      POPC     C213     CTL2    -0.180000       12.0110           0
     37594 MEMB     281      POPC     H13R     HAL2     0.900000E-01   1.00800           0
     37595 MEMB     281      POPC     H13S     HAL2     0.900000E-01   1.00800           0
     37596 MEMB     281      POPC     C214     CTL2    -0.180000       12.0110           0
     37597 MEMB     281      POPC     H14R     HAL2     0.900000E-01   1.00800           0
     37598 MEMB     281      POPC     H14S     HAL2     0.900000E-01   1.00800           0
     37599 MEMB     281      POPC     C215     CTL2    -0.180000       12.0110           0
     37600 MEMB     281      POPC     H15R     HAL2     0.900000E-01   1.00800           0
     37601 MEMB     281      POPC     H15S     HAL2     0.900000E-01   1.00800           0
     37602 MEMB     281      POPC     C216     CTL2    -0.180000       12.0110           0
     37603 MEMB     281      POPC     H16R     HAL2     0.900000E-01   1.00800           0
     37604 MEMB     281      POPC     H16S     HAL2     0.900000E-01   1.00800           0
     37605 MEMB     281      POPC     C217     CTL2    -0.180000       12.0110           0
     37606 MEMB     281      POPC     H17R     HAL2     0.900000E-01   1.00800           0
     37607 MEMB     281      POPC     H17S     HAL2     0.900000E-01   1.00800           0
     37608 MEMB     281      POPC     C218     CTL3    -0.270000       12.0110           0
     37609 MEMB     281      POPC     H18R     HAL3     0.900000E-01   1.00800           0
     37610 MEMB     281      POPC     H18S     HAL3     0.900000E-01   1.00800           0
     37611 MEMB     281      POPC     H18T     HAL3     0.900000E-01   1.00800           0
     37612 MEMB     281      POPC     C33      CTL2    -0.180000       12.0110           0
     37613 MEMB     281      POPC     H3X      HAL2     0.900000E-01   1.00800           0
     37614 MEMB     281      POPC     H3Y      HAL2     0.900000E-01   1.00800           0
     37615 MEMB     281      POPC     C34      CTL2    -0.180000       12.0110           0
     37616 MEMB     281      POPC     H4X      HAL2     0.900000E-01   1.00800           0
     37617 MEMB     281      POPC     H4Y      HAL2     0.900000E-01   1.00800           0
     37618 MEMB     281      POPC     C35      CTL2    -0.180000       12.0110           0
     37619 MEMB     281      POPC     H5X      HAL2     0.900000E-01   1.00800           0
     37620 MEMB     281      POPC     H5Y      HAL2     0.900000E-01   1.00800           0
     37621 MEMB     281      POPC     C36      CTL2    -0.180000       12.0110           0
     37622 MEMB     281      POPC     H6X      HAL2     0.900000E-01   1.00800           0
     37623 MEMB     281      POPC     H6Y      HAL2     0.900000E-01   1.00800           0
     37624 MEMB     281      POPC     C37      CTL2    -0.180000       12.0110           0
     37625 MEMB     281      POPC     H7X      HAL2     0.900000E-01   1.00800           0
     37626 MEMB     281      POPC     H7Y      HAL2     0.900000E-01   1.00800           0
     37627 MEMB     281      POPC     C38      CTL2    -0.180000       12.0110           0
     37628 MEMB     281      POPC     H8X      HAL2     0.900000E-01   1.00800           0
     37629 MEMB     281      POPC     H8Y      HAL2     0.900000E-01   1.00800           0
     37630 MEMB     281      POPC     C39      CTL2    -0.180000       12.0110           0
     37631 MEMB     281      POPC     H9X      HAL2     0.900000E-01   1.00800           0
     37632 MEMB     281      POPC     H9Y      HAL2     0.900000E-01   1.00800           0
     37633 MEMB     281      POPC     C310     CTL2    -0.180000       12.0110           0
     37634 MEMB     281      POPC     H10X     HAL2     0.900000E-01   1.00800           0
     37635 MEMB     281      POPC     H10Y     HAL2     0.900000E-01   1.00800           0
     37636 MEMB     281      POPC     C311     CTL2    -0.180000       12.0110           0
     37637 MEMB     281      POPC     H11X     HAL2     0.900000E-01   1.00800           0
     37638 MEMB     281      POPC     H11Y     HAL2     0.900000E-01   1.00800           0
     37639 MEMB     281      POPC     C312     CTL2    -0.180000       12.0110           0
     37640 MEMB     281      POPC     H12X     HAL2     0.900000E-01   1.00800           0
     37641 MEMB     281      POPC     H12Y     HAL2     0.900000E-01   1.00800           0
     37642 MEMB     281      POPC     C313     CTL2    -0.180000       12.0110           0
     37643 MEMB     281      POPC     H13X     HAL2     0.900000E-01   1.00800           0
     37644 MEMB     281      POPC     H13Y     HAL2     0.900000E-01   1.00800           0
     37645 MEMB     281      POPC     C314     CTL2    -0.180000       12.0110           0
     37646 MEMB     281      POPC     H14X     HAL2     0.900000E-01   1.00800           0
     37647 MEMB     281      POPC     H14Y     HAL2     0.900000E-01   1.00800           0
     37648 MEMB     281      POPC     C315     CTL2    -0.180000       12.0110           0
     37649 MEMB     281      POPC     H15X     HAL2     0.900000E-01   1.00800           0
     37650 MEMB     281      POPC     H15Y     HAL2     0.900000E-01   1.00800           0
     37651 MEMB     281      POPC     C316     CTL3    -0.270000       12.0110           0
     37652 MEMB     281      POPC     H16X     HAL3     0.900000E-01   1.00800           0
     37653 MEMB     281      POPC     H16Y     HAL3     0.900000E-01   1.00800           0
     37654 MEMB     281      POPC     H16Z     HAL3     0.900000E-01   1.00800           0
     37655 MEMB     282      POPC     N        NTL     -0.600000       14.0070           0
     37656 MEMB     282      POPC     C12      CTL2    -0.100000       12.0110           0
     37657 MEMB     282      POPC     H12A     HL       0.250000       1.00800           0
     37658 MEMB     282      POPC     H12B     HL       0.250000       1.00800           0
     37659 MEMB     282      POPC     C13      CTL5    -0.350000       12.0110           0
     37660 MEMB     282      POPC     H13A     HL       0.250000       1.00800           0
     37661 MEMB     282      POPC     H13B     HL       0.250000       1.00800           0
     37662 MEMB     282      POPC     H13C     HL       0.250000       1.00800           0
     37663 MEMB     282      POPC     C14      CTL5    -0.350000       12.0110           0
     37664 MEMB     282      POPC     H14A     HL       0.250000       1.00800           0
     37665 MEMB     282      POPC     H14B     HL       0.250000       1.00800           0
     37666 MEMB     282      POPC     H14C     HL       0.250000       1.00800           0
     37667 MEMB     282      POPC     C15      CTL5    -0.350000       12.0110           0
     37668 MEMB     282      POPC     H15A     HL       0.250000       1.00800           0
     37669 MEMB     282      POPC     H15B     HL       0.250000       1.00800           0
     37670 MEMB     282      POPC     H15C     HL       0.250000       1.00800           0
     37671 MEMB     282      POPC     C11      CTL2    -0.800000E-01   12.0110           0
     37672 MEMB     282      POPC     H11A     HAL2     0.900000E-01   1.00800           0
     37673 MEMB     282      POPC     H11B     HAL2     0.900000E-01   1.00800           0
     37674 MEMB     282      POPC     P        PL       1.50000        30.9740           0
     37675 MEMB     282      POPC     O13      O2L     -0.780000       15.9994           0
     37676 MEMB     282      POPC     O14      O2L     -0.780000       15.9994           0
     37677 MEMB     282      POPC     O12      OSLP    -0.570000       15.9994           0
     37678 MEMB     282      POPC     O11      OSLP    -0.570000       15.9994           0
     37679 MEMB     282      POPC     C1       CTL2    -0.800000E-01   12.0110           0
     37680 MEMB     282      POPC     HA       HAL2     0.900000E-01   1.00800           0
     37681 MEMB     282      POPC     HB       HAL2     0.900000E-01   1.00800           0
     37682 MEMB     282      POPC     C2       CTL1     0.170000       12.0110           0
     37683 MEMB     282      POPC     HS       HAL1     0.900000E-01   1.00800           0
     37684 MEMB     282      POPC     O21      OSL     -0.490000       15.9994           0
     37685 MEMB     282      POPC     C21      CL       0.900000       12.0110           0
     37686 MEMB     282      POPC     O22      OBL     -0.630000       15.9994           0
     37687 MEMB     282      POPC     C22      CTL2    -0.220000       12.0110           0
     37688 MEMB     282      POPC     H2R      HAL2     0.900000E-01   1.00800           0
     37689 MEMB     282      POPC     H2S      HAL2     0.900000E-01   1.00800           0
     37690 MEMB     282      POPC     C3       CTL2     0.800000E-01   12.0110           0
     37691 MEMB     282      POPC     HX       HAL2     0.900000E-01   1.00800           0
     37692 MEMB     282      POPC     HY       HAL2     0.900000E-01   1.00800           0
     37693 MEMB     282      POPC     O31      OSL     -0.490000       15.9994           0
     37694 MEMB     282      POPC     C31      CL       0.900000       12.0110           0
     37695 MEMB     282      POPC     O32      OBL     -0.630000       15.9994           0
     37696 MEMB     282      POPC     C32      CTL2    -0.220000       12.0110           0
     37697 MEMB     282      POPC     H2X      HAL2     0.900000E-01   1.00800           0
     37698 MEMB     282      POPC     H2Y      HAL2     0.900000E-01   1.00800           0
     37699 MEMB     282      POPC     C23      CTL2    -0.180000       12.0110           0
     37700 MEMB     282      POPC     H3R      HAL2     0.900000E-01   1.00800           0
     37701 MEMB     282      POPC     H3S      HAL2     0.900000E-01   1.00800           0
     37702 MEMB     282      POPC     C24      CTL2    -0.180000       12.0110           0
     37703 MEMB     282      POPC     H4R      HAL2     0.900000E-01   1.00800           0
     37704 MEMB     282      POPC     H4S      HAL2     0.900000E-01   1.00800           0
     37705 MEMB     282      POPC     C25      CTL2    -0.180000       12.0110           0
     37706 MEMB     282      POPC     H5R      HAL2     0.900000E-01   1.00800           0
     37707 MEMB     282      POPC     H5S      HAL2     0.900000E-01   1.00800           0
     37708 MEMB     282      POPC     C26      CTL2    -0.180000       12.0110           0
     37709 MEMB     282      POPC     H6R      HAL2     0.900000E-01   1.00800           0
     37710 MEMB     282      POPC     H6S      HAL2     0.900000E-01   1.00800           0
     37711 MEMB     282      POPC     C27      CTL2    -0.180000       12.0110           0
     37712 MEMB     282      POPC     H7R      HAL2     0.900000E-01   1.00800           0
     37713 MEMB     282      POPC     H7S      HAL2     0.900000E-01   1.00800           0
     37714 MEMB     282      POPC     C28      CTL2    -0.180000       12.0110           0
     37715 MEMB     282      POPC     H8R      HAL2     0.900000E-01   1.00800           0
     37716 MEMB     282      POPC     H8S      HAL2     0.900000E-01   1.00800           0
     37717 MEMB     282      POPC     C29      CEL1    -0.150000       12.0110           0
     37718 MEMB     282      POPC     H91      HEL1     0.150000       1.00800           0
     37719 MEMB     282      POPC     C210     CEL1    -0.150000       12.0110           0
     37720 MEMB     282      POPC     H101     HEL1     0.150000       1.00800           0
     37721 MEMB     282      POPC     C211     CTL2    -0.180000       12.0110           0
     37722 MEMB     282      POPC     H11R     HAL2     0.900000E-01   1.00800           0
     37723 MEMB     282      POPC     H11S     HAL2     0.900000E-01   1.00800           0
     37724 MEMB     282      POPC     C212     CTL2    -0.180000       12.0110           0
     37725 MEMB     282      POPC     H12R     HAL2     0.900000E-01   1.00800           0
     37726 MEMB     282      POPC     H12S     HAL2     0.900000E-01   1.00800           0
     37727 MEMB     282      POPC     C213     CTL2    -0.180000       12.0110           0
     37728 MEMB     282      POPC     H13R     HAL2     0.900000E-01   1.00800           0
     37729 MEMB     282      POPC     H13S     HAL2     0.900000E-01   1.00800           0
     37730 MEMB     282      POPC     C214     CTL2    -0.180000       12.0110           0
     37731 MEMB     282      POPC     H14R     HAL2     0.900000E-01   1.00800           0
     37732 MEMB     282      POPC     H14S     HAL2     0.900000E-01   1.00800           0
     37733 MEMB     282      POPC     C215     CTL2    -0.180000       12.0110           0
     37734 MEMB     282      POPC     H15R     HAL2     0.900000E-01   1.00800           0
     37735 MEMB     282      POPC     H15S     HAL2     0.900000E-01   1.00800           0
     37736 MEMB     282      POPC     C216     CTL2    -0.180000       12.0110           0
     37737 MEMB     282      POPC     H16R     HAL2     0.900000E-01   1.00800           0
     37738 MEMB     282      POPC     H16S     HAL2     0.900000E-01   1.00800           0
     37739 MEMB     282      POPC     C217     CTL2    -0.180000       12.0110           0
     37740 MEMB     282      POPC     H17R     HAL2     0.900000E-01   1.00800           0
     37741 MEMB     282      POPC     H17S     HAL2     0.900000E-01   1.00800           0
     37742 MEMB     282      POPC     C218     CTL3    -0.270000       12.0110           0
     37743 MEMB     282      POPC     H18R     HAL3     0.900000E-01   1.00800           0
     37744 MEMB     282      POPC     H18S     HAL3     0.900000E-01   1.00800           0
     37745 MEMB     282      POPC     H18T     HAL3     0.900000E-01   1.00800           0
     37746 MEMB     282      POPC     C33      CTL2    -0.180000       12.0110           0
     37747 MEMB     282      POPC     H3X      HAL2     0.900000E-01   1.00800           0
     37748 MEMB     282      POPC     H3Y      HAL2     0.900000E-01   1.00800           0
     37749 MEMB     282      POPC     C34      CTL2    -0.180000       12.0110           0
     37750 MEMB     282      POPC     H4X      HAL2     0.900000E-01   1.00800           0
     37751 MEMB     282      POPC     H4Y      HAL2     0.900000E-01   1.00800           0
     37752 MEMB     282      POPC     C35      CTL2    -0.180000       12.0110           0
     37753 MEMB     282      POPC     H5X      HAL2     0.900000E-01   1.00800           0
     37754 MEMB     282      POPC     H5Y      HAL2     0.900000E-01   1.00800           0
     37755 MEMB     282      POPC     C36      CTL2    -0.180000       12.0110           0
     37756 MEMB     282      POPC     H6X      HAL2     0.900000E-01   1.00800           0
     37757 MEMB     282      POPC     H6Y      HAL2     0.900000E-01   1.00800           0
     37758 MEMB     282      POPC     C37      CTL2    -0.180000       12.0110           0
     37759 MEMB     282      POPC     H7X      HAL2     0.900000E-01   1.00800           0
     37760 MEMB     282      POPC     H7Y      HAL2     0.900000E-01   1.00800           0
     37761 MEMB     282      POPC     C38      CTL2    -0.180000       12.0110           0
     37762 MEMB     282      POPC     H8X      HAL2     0.900000E-01   1.00800           0
     37763 MEMB     282      POPC     H8Y      HAL2     0.900000E-01   1.00800           0
     37764 MEMB     282      POPC     C39      CTL2    -0.180000       12.0110           0
     37765 MEMB     282      POPC     H9X      HAL2     0.900000E-01   1.00800           0
     37766 MEMB     282      POPC     H9Y      HAL2     0.900000E-01   1.00800           0
     37767 MEMB     282      POPC     C310     CTL2    -0.180000       12.0110           0
     37768 MEMB     282      POPC     H10X     HAL2     0.900000E-01   1.00800           0
     37769 MEMB     282      POPC     H10Y     HAL2     0.900000E-01   1.00800           0
     37770 MEMB     282      POPC     C311     CTL2    -0.180000       12.0110           0
     37771 MEMB     282      POPC     H11X     HAL2     0.900000E-01   1.00800           0
     37772 MEMB     282      POPC     H11Y     HAL2     0.900000E-01   1.00800           0
     37773 MEMB     282      POPC     C312     CTL2    -0.180000       12.0110           0
     37774 MEMB     282      POPC     H12X     HAL2     0.900000E-01   1.00800           0
     37775 MEMB     282      POPC     H12Y     HAL2     0.900000E-01   1.00800           0
     37776 MEMB     282      POPC     C313     CTL2    -0.180000       12.0110           0
     37777 MEMB     282      POPC     H13X     HAL2     0.900000E-01   1.00800           0
     37778 MEMB     282      POPC     H13Y     HAL2     0.900000E-01   1.00800           0
     37779 MEMB     282      POPC     C314     CTL2    -0.180000       12.0110           0
     37780 MEMB     282      POPC     H14X     HAL2     0.900000E-01   1.00800           0
     37781 MEMB     282      POPC     H14Y     HAL2     0.900000E-01   1.00800           0
     37782 MEMB     282      POPC     C315     CTL2    -0.180000       12.0110           0
     37783 MEMB     282      POPC     H15X     HAL2     0.900000E-01   1.00800           0
     37784 MEMB     282      POPC     H15Y     HAL2     0.900000E-01   1.00800           0
     37785 MEMB     282      POPC     C316     CTL3    -0.270000       12.0110           0
     37786 MEMB     282      POPC     H16X     HAL3     0.900000E-01   1.00800           0
     37787 MEMB     282      POPC     H16Y     HAL3     0.900000E-01   1.00800           0
     37788 MEMB     282      POPC     H16Z     HAL3     0.900000E-01   1.00800           0
     37789 MEMB     283      POPC     N        NTL     -0.600000       14.0070           0
     37790 MEMB     283      POPC     C12      CTL2    -0.100000       12.0110           0
     37791 MEMB     283      POPC     H12A     HL       0.250000       1.00800           0
     37792 MEMB     283      POPC     H12B     HL       0.250000       1.00800           0
     37793 MEMB     283      POPC     C13      CTL5    -0.350000       12.0110           0
     37794 MEMB     283      POPC     H13A     HL       0.250000       1.00800           0
     37795 MEMB     283      POPC     H13B     HL       0.250000       1.00800           0
     37796 MEMB     283      POPC     H13C     HL       0.250000       1.00800           0
     37797 MEMB     283      POPC     C14      CTL5    -0.350000       12.0110           0
     37798 MEMB     283      POPC     H14A     HL       0.250000       1.00800           0
     37799 MEMB     283      POPC     H14B     HL       0.250000       1.00800           0
     37800 MEMB     283      POPC     H14C     HL       0.250000       1.00800           0
     37801 MEMB     283      POPC     C15      CTL5    -0.350000       12.0110           0
     37802 MEMB     283      POPC     H15A     HL       0.250000       1.00800           0
     37803 MEMB     283      POPC     H15B     HL       0.250000       1.00800           0
     37804 MEMB     283      POPC     H15C     HL       0.250000       1.00800           0
     37805 MEMB     283      POPC     C11      CTL2    -0.800000E-01   12.0110           0
     37806 MEMB     283      POPC     H11A     HAL2     0.900000E-01   1.00800           0
     37807 MEMB     283      POPC     H11B     HAL2     0.900000E-01   1.00800           0
     37808 MEMB     283      POPC     P        PL       1.50000        30.9740           0
     37809 MEMB     283      POPC     O13      O2L     -0.780000       15.9994           0
     37810 MEMB     283      POPC     O14      O2L     -0.780000       15.9994           0
     37811 MEMB     283      POPC     O12      OSLP    -0.570000       15.9994           0
     37812 MEMB     283      POPC     O11      OSLP    -0.570000       15.9994           0
     37813 MEMB     283      POPC     C1       CTL2    -0.800000E-01   12.0110           0
     37814 MEMB     283      POPC     HA       HAL2     0.900000E-01   1.00800           0
     37815 MEMB     283      POPC     HB       HAL2     0.900000E-01   1.00800           0
     37816 MEMB     283      POPC     C2       CTL1     0.170000       12.0110           0
     37817 MEMB     283      POPC     HS       HAL1     0.900000E-01   1.00800           0
     37818 MEMB     283      POPC     O21      OSL     -0.490000       15.9994           0
     37819 MEMB     283      POPC     C21      CL       0.900000       12.0110           0
     37820 MEMB     283      POPC     O22      OBL     -0.630000       15.9994           0
     37821 MEMB     283      POPC     C22      CTL2    -0.220000       12.0110           0
     37822 MEMB     283      POPC     H2R      HAL2     0.900000E-01   1.00800           0
     37823 MEMB     283      POPC     H2S      HAL2     0.900000E-01   1.00800           0
     37824 MEMB     283      POPC     C3       CTL2     0.800000E-01   12.0110           0
     37825 MEMB     283      POPC     HX       HAL2     0.900000E-01   1.00800           0
     37826 MEMB     283      POPC     HY       HAL2     0.900000E-01   1.00800           0
     37827 MEMB     283      POPC     O31      OSL     -0.490000       15.9994           0
     37828 MEMB     283      POPC     C31      CL       0.900000       12.0110           0
     37829 MEMB     283      POPC     O32      OBL     -0.630000       15.9994           0
     37830 MEMB     283      POPC     C32      CTL2    -0.220000       12.0110           0
     37831 MEMB     283      POPC     H2X      HAL2     0.900000E-01   1.00800           0
     37832 MEMB     283      POPC     H2Y      HAL2     0.900000E-01   1.00800           0
     37833 MEMB     283      POPC     C23      CTL2    -0.180000       12.0110           0
     37834 MEMB     283      POPC     H3R      HAL2     0.900000E-01   1.00800           0
     37835 MEMB     283      POPC     H3S      HAL2     0.900000E-01   1.00800           0
     37836 MEMB     283      POPC     C24      CTL2    -0.180000       12.0110           0
     37837 MEMB     283      POPC     H4R      HAL2     0.900000E-01   1.00800           0
     37838 MEMB     283      POPC     H4S      HAL2     0.900000E-01   1.00800           0
     37839 MEMB     283      POPC     C25      CTL2    -0.180000       12.0110           0
     37840 MEMB     283      POPC     H5R      HAL2     0.900000E-01   1.00800           0
     37841 MEMB     283      POPC     H5S      HAL2     0.900000E-01   1.00800           0
     37842 MEMB     283      POPC     C26      CTL2    -0.180000       12.0110           0
     37843 MEMB     283      POPC     H6R      HAL2     0.900000E-01   1.00800           0
     37844 MEMB     283      POPC     H6S      HAL2     0.900000E-01   1.00800           0
     37845 MEMB     283      POPC     C27      CTL2    -0.180000       12.0110           0
     37846 MEMB     283      POPC     H7R      HAL2     0.900000E-01   1.00800           0
     37847 MEMB     283      POPC     H7S      HAL2     0.900000E-01   1.00800           0
     37848 MEMB     283      POPC     C28      CTL2    -0.180000       12.0110           0
     37849 MEMB     283      POPC     H8R      HAL2     0.900000E-01   1.00800           0
     37850 MEMB     283      POPC     H8S      HAL2     0.900000E-01   1.00800           0
     37851 MEMB     283      POPC     C29      CEL1    -0.150000       12.0110           0
     37852 MEMB     283      POPC     H91      HEL1     0.150000       1.00800           0
     37853 MEMB     283      POPC     C210     CEL1    -0.150000       12.0110           0
     37854 MEMB     283      POPC     H101     HEL1     0.150000       1.00800           0
     37855 MEMB     283      POPC     C211     CTL2    -0.180000       12.0110           0
     37856 MEMB     283      POPC     H11R     HAL2     0.900000E-01   1.00800           0
     37857 MEMB     283      POPC     H11S     HAL2     0.900000E-01   1.00800           0
     37858 MEMB     283      POPC     C212     CTL2    -0.180000       12.0110           0
     37859 MEMB     283      POPC     H12R     HAL2     0.900000E-01   1.00800           0
     37860 MEMB     283      POPC     H12S     HAL2     0.900000E-01   1.00800           0
     37861 MEMB     283      POPC     C213     CTL2    -0.180000       12.0110           0
     37862 MEMB     283      POPC     H13R     HAL2     0.900000E-01   1.00800           0
     37863 MEMB     283      POPC     H13S     HAL2     0.900000E-01   1.00800           0
     37864 MEMB     283      POPC     C214     CTL2    -0.180000       12.0110           0
     37865 MEMB     283      POPC     H14R     HAL2     0.900000E-01   1.00800           0
     37866 MEMB     283      POPC     H14S     HAL2     0.900000E-01   1.00800           0
     37867 MEMB     283      POPC     C215     CTL2    -0.180000       12.0110           0
     37868 MEMB     283      POPC     H15R     HAL2     0.900000E-01   1.00800           0
     37869 MEMB     283      POPC     H15S     HAL2     0.900000E-01   1.00800           0
     37870 MEMB     283      POPC     C216     CTL2    -0.180000       12.0110           0
     37871 MEMB     283      POPC     H16R     HAL2     0.900000E-01   1.00800           0
     37872 MEMB     283      POPC     H16S     HAL2     0.900000E-01   1.00800           0
     37873 MEMB     283      POPC     C217     CTL2    -0.180000       12.0110           0
     37874 MEMB     283      POPC     H17R     HAL2     0.900000E-01   1.00800           0
     37875 MEMB     283      POPC     H17S     HAL2     0.900000E-01   1.00800           0
     37876 MEMB     283      POPC     C218     CTL3    -0.270000       12.0110           0
     37877 MEMB     283      POPC     H18R     HAL3     0.900000E-01   1.00800           0
     37878 MEMB     283      POPC     H18S     HAL3     0.900000E-01   1.00800           0
     37879 MEMB     283      POPC     H18T     HAL3     0.900000E-01   1.00800           0
     37880 MEMB     283      POPC     C33      CTL2    -0.180000       12.0110           0
     37881 MEMB     283      POPC     H3X      HAL2     0.900000E-01   1.00800           0
     37882 MEMB     283      POPC     H3Y      HAL2     0.900000E-01   1.00800           0
     37883 MEMB     283      POPC     C34      CTL2    -0.180000       12.0110           0
     37884 MEMB     283      POPC     H4X      HAL2     0.900000E-01   1.00800           0
     37885 MEMB     283      POPC     H4Y      HAL2     0.900000E-01   1.00800           0
     37886 MEMB     283      POPC     C35      CTL2    -0.180000       12.0110           0
     37887 MEMB     283      POPC     H5X      HAL2     0.900000E-01   1.00800           0
     37888 MEMB     283      POPC     H5Y      HAL2     0.900000E-01   1.00800           0
     37889 MEMB     283      POPC     C36      CTL2    -0.180000       12.0110           0
     37890 MEMB     283      POPC     H6X      HAL2     0.900000E-01   1.00800           0
     37891 MEMB     283      POPC     H6Y      HAL2     0.900000E-01   1.00800           0
     37892 MEMB     283      POPC     C37      CTL2    -0.180000       12.0110           0
     37893 MEMB     283      POPC     H7X      HAL2     0.900000E-01   1.00800           0
     37894 MEMB     283      POPC     H7Y      HAL2     0.900000E-01   1.00800           0
     37895 MEMB     283      POPC     C38      CTL2    -0.180000       12.0110           0
     37896 MEMB     283      POPC     H8X      HAL2     0.900000E-01   1.00800           0
     37897 MEMB     283      POPC     H8Y      HAL2     0.900000E-01   1.00800           0
     37898 MEMB     283      POPC     C39      CTL2    -0.180000       12.0110           0
     37899 MEMB     283      POPC     H9X      HAL2     0.900000E-01   1.00800           0
     37900 MEMB     283      POPC     H9Y      HAL2     0.900000E-01   1.00800           0
     37901 MEMB     283      POPC     C310     CTL2    -0.180000       12.0110           0
     37902 MEMB     283      POPC     H10X     HAL2     0.900000E-01   1.00800           0
     37903 MEMB     283      POPC     H10Y     HAL2     0.900000E-01   1.00800           0
     37904 MEMB     283      POPC     C311     CTL2    -0.180000       12.0110           0
     37905 MEMB     283      POPC     H11X     HAL2     0.900000E-01   1.00800           0
     37906 MEMB     283      POPC     H11Y     HAL2     0.900000E-01   1.00800           0
     37907 MEMB     283      POPC     C312     CTL2    -0.180000       12.0110           0
     37908 MEMB     283      POPC     H12X     HAL2     0.900000E-01   1.00800           0
     37909 MEMB     283      POPC     H12Y     HAL2     0.900000E-01   1.00800           0
     37910 MEMB     283      POPC     C313     CTL2    -0.180000       12.0110           0
     37911 MEMB     283      POPC     H13X     HAL2     0.900000E-01   1.00800           0
     37912 MEMB     283      POPC     H13Y     HAL2     0.900000E-01   1.00800           0
     37913 MEMB     283      POPC     C314     CTL2    -0.180000       12.0110           0
     37914 MEMB     283      POPC     H14X     HAL2     0.900000E-01   1.00800           0
     37915 MEMB     283      POPC     H14Y     HAL2     0.900000E-01   1.00800           0
     37916 MEMB     283      POPC     C315     CTL2    -0.180000       12.0110           0
     37917 MEMB     283      POPC     H15X     HAL2     0.900000E-01   1.00800           0
     37918 MEMB     283      POPC     H15Y     HAL2     0.900000E-01   1.00800           0
     37919 MEMB     283      POPC     C316     CTL3    -0.270000       12.0110           0
     37920 MEMB     283      POPC     H16X     HAL3     0.900000E-01   1.00800           0
     37921 MEMB     283      POPC     H16Y     HAL3     0.900000E-01   1.00800           0
     37922 MEMB     283      POPC     H16Z     HAL3     0.900000E-01   1.00800           0
     37923 MEMB     284      POPC     N        NTL     -0.600000       14.0070           0
     37924 MEMB     284      POPC     C12      CTL2    -0.100000       12.0110           0
     37925 MEMB     284      POPC     H12A     HL       0.250000       1.00800           0
     37926 MEMB     284      POPC     H12B     HL       0.250000       1.00800           0
     37927 MEMB     284      POPC     C13      CTL5    -0.350000       12.0110           0
     37928 MEMB     284      POPC     H13A     HL       0.250000       1.00800           0
     37929 MEMB     284      POPC     H13B     HL       0.250000       1.00800           0
     37930 MEMB     284      POPC     H13C     HL       0.250000       1.00800           0
     37931 MEMB     284      POPC     C14      CTL5    -0.350000       12.0110           0
     37932 MEMB     284      POPC     H14A     HL       0.250000       1.00800           0
     37933 MEMB     284      POPC     H14B     HL       0.250000       1.00800           0
     37934 MEMB     284      POPC     H14C     HL       0.250000       1.00800           0
     37935 MEMB     284      POPC     C15      CTL5    -0.350000       12.0110           0
     37936 MEMB     284      POPC     H15A     HL       0.250000       1.00800           0
     37937 MEMB     284      POPC     H15B     HL       0.250000       1.00800           0
     37938 MEMB     284      POPC     H15C     HL       0.250000       1.00800           0
     37939 MEMB     284      POPC     C11      CTL2    -0.800000E-01   12.0110           0
     37940 MEMB     284      POPC     H11A     HAL2     0.900000E-01   1.00800           0
     37941 MEMB     284      POPC     H11B     HAL2     0.900000E-01   1.00800           0
     37942 MEMB     284      POPC     P        PL       1.50000        30.9740           0
     37943 MEMB     284      POPC     O13      O2L     -0.780000       15.9994           0
     37944 MEMB     284      POPC     O14      O2L     -0.780000       15.9994           0
     37945 MEMB     284      POPC     O12      OSLP    -0.570000       15.9994           0
     37946 MEMB     284      POPC     O11      OSLP    -0.570000       15.9994           0
     37947 MEMB     284      POPC     C1       CTL2    -0.800000E-01   12.0110           0
     37948 MEMB     284      POPC     HA       HAL2     0.900000E-01   1.00800           0
     37949 MEMB     284      POPC     HB       HAL2     0.900000E-01   1.00800           0
     37950 MEMB     284      POPC     C2       CTL1     0.170000       12.0110           0
     37951 MEMB     284      POPC     HS       HAL1     0.900000E-01   1.00800           0
     37952 MEMB     284      POPC     O21      OSL     -0.490000       15.9994           0
     37953 MEMB     284      POPC     C21      CL       0.900000       12.0110           0
     37954 MEMB     284      POPC     O22      OBL     -0.630000       15.9994           0
     37955 MEMB     284      POPC     C22      CTL2    -0.220000       12.0110           0
     37956 MEMB     284      POPC     H2R      HAL2     0.900000E-01   1.00800           0
     37957 MEMB     284      POPC     H2S      HAL2     0.900000E-01   1.00800           0
     37958 MEMB     284      POPC     C3       CTL2     0.800000E-01   12.0110           0
     37959 MEMB     284      POPC     HX       HAL2     0.900000E-01   1.00800           0
     37960 MEMB     284      POPC     HY       HAL2     0.900000E-01   1.00800           0
     37961 MEMB     284      POPC     O31      OSL     -0.490000       15.9994           0
     37962 MEMB     284      POPC     C31      CL       0.900000       12.0110           0
     37963 MEMB     284      POPC     O32      OBL     -0.630000       15.9994           0
     37964 MEMB     284      POPC     C32      CTL2    -0.220000       12.0110           0
     37965 MEMB     284      POPC     H2X      HAL2     0.900000E-01   1.00800           0
     37966 MEMB     284      POPC     H2Y      HAL2     0.900000E-01   1.00800           0
     37967 MEMB     284      POPC     C23      CTL2    -0.180000       12.0110           0
     37968 MEMB     284      POPC     H3R      HAL2     0.900000E-01   1.00800           0
     37969 MEMB     284      POPC     H3S      HAL2     0.900000E-01   1.00800           0
     37970 MEMB     284      POPC     C24      CTL2    -0.180000       12.0110           0
     37971 MEMB     284      POPC     H4R      HAL2     0.900000E-01   1.00800           0
     37972 MEMB     284      POPC     H4S      HAL2     0.900000E-01   1.00800           0
     37973 MEMB     284      POPC     C25      CTL2    -0.180000       12.0110           0
     37974 MEMB     284      POPC     H5R      HAL2     0.900000E-01   1.00800           0
     37975 MEMB     284      POPC     H5S      HAL2     0.900000E-01   1.00800           0
     37976 MEMB     284      POPC     C26      CTL2    -0.180000       12.0110           0
     37977 MEMB     284      POPC     H6R      HAL2     0.900000E-01   1.00800           0
     37978 MEMB     284      POPC     H6S      HAL2     0.900000E-01   1.00800           0
     37979 MEMB     284      POPC     C27      CTL2    -0.180000       12.0110           0
     37980 MEMB     284      POPC     H7R      HAL2     0.900000E-01   1.00800           0
     37981 MEMB     284      POPC     H7S      HAL2     0.900000E-01   1.00800           0
     37982 MEMB     284      POPC     C28      CTL2    -0.180000       12.0110           0
     37983 MEMB     284      POPC     H8R      HAL2     0.900000E-01   1.00800           0
     37984 MEMB     284      POPC     H8S      HAL2     0.900000E-01   1.00800           0
     37985 MEMB     284      POPC     C29      CEL1    -0.150000       12.0110           0
     37986 MEMB     284      POPC     H91      HEL1     0.150000       1.00800           0
     37987 MEMB     284      POPC     C210     CEL1    -0.150000       12.0110           0
     37988 MEMB     284      POPC     H101     HEL1     0.150000       1.00800           0
     37989 MEMB     284      POPC     C211     CTL2    -0.180000       12.0110           0
     37990 MEMB     284      POPC     H11R     HAL2     0.900000E-01   1.00800           0
     37991 MEMB     284      POPC     H11S     HAL2     0.900000E-01   1.00800           0
     37992 MEMB     284      POPC     C212     CTL2    -0.180000       12.0110           0
     37993 MEMB     284      POPC     H12R     HAL2     0.900000E-01   1.00800           0
     37994 MEMB     284      POPC     H12S     HAL2     0.900000E-01   1.00800           0
     37995 MEMB     284      POPC     C213     CTL2    -0.180000       12.0110           0
     37996 MEMB     284      POPC     H13R     HAL2     0.900000E-01   1.00800           0
     37997 MEMB     284      POPC     H13S     HAL2     0.900000E-01   1.00800           0
     37998 MEMB     284      POPC     C214     CTL2    -0.180000       12.0110           0
     37999 MEMB     284      POPC     H14R     HAL2     0.900000E-01   1.00800           0
     38000 MEMB     284      POPC     H14S     HAL2     0.900000E-01   1.00800           0
     38001 MEMB     284      POPC     C215     CTL2    -0.180000       12.0110           0
     38002 MEMB     284      POPC     H15R     HAL2     0.900000E-01   1.00800           0
     38003 MEMB     284      POPC     H15S     HAL2     0.900000E-01   1.00800           0
     38004 MEMB     284      POPC     C216     CTL2    -0.180000       12.0110           0
     38005 MEMB     284      POPC     H16R     HAL2     0.900000E-01   1.00800           0
     38006 MEMB     284      POPC     H16S     HAL2     0.900000E-01   1.00800           0
     38007 MEMB     284      POPC     C217     CTL2    -0.180000       12.0110           0
     38008 MEMB     284      POPC     H17R     HAL2     0.900000E-01   1.00800           0
     38009 MEMB     284      POPC     H17S     HAL2     0.900000E-01   1.00800           0
     38010 MEMB     284      POPC     C218     CTL3    -0.270000       12.0110           0
     38011 MEMB     284      POPC     H18R     HAL3     0.900000E-01   1.00800           0
     38012 MEMB     284      POPC     H18S     HAL3     0.900000E-01   1.00800           0
     38013 MEMB     284      POPC     H18T     HAL3     0.900000E-01   1.00800           0
     38014 MEMB     284      POPC     C33      CTL2    -0.180000       12.0110           0
     38015 MEMB     284      POPC     H3X      HAL2     0.900000E-01   1.00800           0
     38016 MEMB     284      POPC     H3Y      HAL2     0.900000E-01   1.00800           0
     38017 MEMB     284      POPC     C34      CTL2    -0.180000       12.0110           0
     38018 MEMB     284      POPC     H4X      HAL2     0.900000E-01   1.00800           0
     38019 MEMB     284      POPC     H4Y      HAL2     0.900000E-01   1.00800           0
     38020 MEMB     284      POPC     C35      CTL2    -0.180000       12.0110           0
     38021 MEMB     284      POPC     H5X      HAL2     0.900000E-01   1.00800           0
     38022 MEMB     284      POPC     H5Y      HAL2     0.900000E-01   1.00800           0
     38023 MEMB     284      POPC     C36      CTL2    -0.180000       12.0110           0
     38024 MEMB     284      POPC     H6X      HAL2     0.900000E-01   1.00800           0
     38025 MEMB     284      POPC     H6Y      HAL2     0.900000E-01   1.00800           0
     38026 MEMB     284      POPC     C37      CTL2    -0.180000       12.0110           0
     38027 MEMB     284      POPC     H7X      HAL2     0.900000E-01   1.00800           0
     38028 MEMB     284      POPC     H7Y      HAL2     0.900000E-01   1.00800           0
     38029 MEMB     284      POPC     C38      CTL2    -0.180000       12.0110           0
     38030 MEMB     284      POPC     H8X      HAL2     0.900000E-01   1.00800           0
     38031 MEMB     284      POPC     H8Y      HAL2     0.900000E-01   1.00800           0
     38032 MEMB     284      POPC     C39      CTL2    -0.180000       12.0110           0
     38033 MEMB     284      POPC     H9X      HAL2     0.900000E-01   1.00800           0
     38034 MEMB     284      POPC     H9Y      HAL2     0.900000E-01   1.00800           0
     38035 MEMB     284      POPC     C310     CTL2    -0.180000       12.0110           0
     38036 MEMB     284      POPC     H10X     HAL2     0.900000E-01   1.00800           0
     38037 MEMB     284      POPC     H10Y     HAL2     0.900000E-01   1.00800           0
     38038 MEMB     284      POPC     C311     CTL2    -0.180000       12.0110           0
     38039 MEMB     284      POPC     H11X     HAL2     0.900000E-01   1.00800           0
     38040 MEMB     284      POPC     H11Y     HAL2     0.900000E-01   1.00800           0
     38041 MEMB     284      POPC     C312     CTL2    -0.180000       12.0110           0
     38042 MEMB     284      POPC     H12X     HAL2     0.900000E-01   1.00800           0
     38043 MEMB     284      POPC     H12Y     HAL2     0.900000E-01   1.00800           0
     38044 MEMB     284      POPC     C313     CTL2    -0.180000       12.0110           0
     38045 MEMB     284      POPC     H13X     HAL2     0.900000E-01   1.00800           0
     38046 MEMB     284      POPC     H13Y     HAL2     0.900000E-01   1.00800           0
     38047 MEMB     284      POPC     C314     CTL2    -0.180000       12.0110           0
     38048 MEMB     284      POPC     H14X     HAL2     0.900000E-01   1.00800           0
     38049 MEMB     284      POPC     H14Y     HAL2     0.900000E-01   1.00800           0
     38050 MEMB     284      POPC     C315     CTL2    -0.180000       12.0110           0
     38051 MEMB     284      POPC     H15X     HAL2     0.900000E-01   1.00800           0
     38052 MEMB     284      POPC     H15Y     HAL2     0.900000E-01   1.00800           0
     38053 MEMB     284      POPC     C316     CTL3    -0.270000       12.0110           0
     38054 MEMB     284      POPC     H16X     HAL3     0.900000E-01   1.00800           0
     38055 MEMB     284      POPC     H16Y     HAL3     0.900000E-01   1.00800           0
     38056 MEMB     284      POPC     H16Z     HAL3     0.900000E-01   1.00800           0
     38057 MEMB     285      POPC     N        NTL     -0.600000       14.0070           0
     38058 MEMB     285      POPC     C12      CTL2    -0.100000       12.0110           0
     38059 MEMB     285      POPC     H12A     HL       0.250000       1.00800           0
     38060 MEMB     285      POPC     H12B     HL       0.250000       1.00800           0
     38061 MEMB     285      POPC     C13      CTL5    -0.350000       12.0110           0
     38062 MEMB     285      POPC     H13A     HL       0.250000       1.00800           0
     38063 MEMB     285      POPC     H13B     HL       0.250000       1.00800           0
     38064 MEMB     285      POPC     H13C     HL       0.250000       1.00800           0
     38065 MEMB     285      POPC     C14      CTL5    -0.350000       12.0110           0
     38066 MEMB     285      POPC     H14A     HL       0.250000       1.00800           0
     38067 MEMB     285      POPC     H14B     HL       0.250000       1.00800           0
     38068 MEMB     285      POPC     H14C     HL       0.250000       1.00800           0
     38069 MEMB     285      POPC     C15      CTL5    -0.350000       12.0110           0
     38070 MEMB     285      POPC     H15A     HL       0.250000       1.00800           0
     38071 MEMB     285      POPC     H15B     HL       0.250000       1.00800           0
     38072 MEMB     285      POPC     H15C     HL       0.250000       1.00800           0
     38073 MEMB     285      POPC     C11      CTL2    -0.800000E-01   12.0110           0
     38074 MEMB     285      POPC     H11A     HAL2     0.900000E-01   1.00800           0
     38075 MEMB     285      POPC     H11B     HAL2     0.900000E-01   1.00800           0
     38076 MEMB     285      POPC     P        PL       1.50000        30.9740           0
     38077 MEMB     285      POPC     O13      O2L     -0.780000       15.9994           0
     38078 MEMB     285      POPC     O14      O2L     -0.780000       15.9994           0
     38079 MEMB     285      POPC     O12      OSLP    -0.570000       15.9994           0
     38080 MEMB     285      POPC     O11      OSLP    -0.570000       15.9994           0
     38081 MEMB     285      POPC     C1       CTL2    -0.800000E-01   12.0110           0
     38082 MEMB     285      POPC     HA       HAL2     0.900000E-01   1.00800           0
     38083 MEMB     285      POPC     HB       HAL2     0.900000E-01   1.00800           0
     38084 MEMB     285      POPC     C2       CTL1     0.170000       12.0110           0
     38085 MEMB     285      POPC     HS       HAL1     0.900000E-01   1.00800           0
     38086 MEMB     285      POPC     O21      OSL     -0.490000       15.9994           0
     38087 MEMB     285      POPC     C21      CL       0.900000       12.0110           0
     38088 MEMB     285      POPC     O22      OBL     -0.630000       15.9994           0
     38089 MEMB     285      POPC     C22      CTL2    -0.220000       12.0110           0
     38090 MEMB     285      POPC     H2R      HAL2     0.900000E-01   1.00800           0
     38091 MEMB     285      POPC     H2S      HAL2     0.900000E-01   1.00800           0
     38092 MEMB     285      POPC     C3       CTL2     0.800000E-01   12.0110           0
     38093 MEMB     285      POPC     HX       HAL2     0.900000E-01   1.00800           0
     38094 MEMB     285      POPC     HY       HAL2     0.900000E-01   1.00800           0
     38095 MEMB     285      POPC     O31      OSL     -0.490000       15.9994           0
     38096 MEMB     285      POPC     C31      CL       0.900000       12.0110           0
     38097 MEMB     285      POPC     O32      OBL     -0.630000       15.9994           0
     38098 MEMB     285      POPC     C32      CTL2    -0.220000       12.0110           0
     38099 MEMB     285      POPC     H2X      HAL2     0.900000E-01   1.00800           0
     38100 MEMB     285      POPC     H2Y      HAL2     0.900000E-01   1.00800           0
     38101 MEMB     285      POPC     C23      CTL2    -0.180000       12.0110           0
     38102 MEMB     285      POPC     H3R      HAL2     0.900000E-01   1.00800           0
     38103 MEMB     285      POPC     H3S      HAL2     0.900000E-01   1.00800           0
     38104 MEMB     285      POPC     C24      CTL2    -0.180000       12.0110           0
     38105 MEMB     285      POPC     H4R      HAL2     0.900000E-01   1.00800           0
     38106 MEMB     285      POPC     H4S      HAL2     0.900000E-01   1.00800           0
     38107 MEMB     285      POPC     C25      CTL2    -0.180000       12.0110           0
     38108 MEMB     285      POPC     H5R      HAL2     0.900000E-01   1.00800           0
     38109 MEMB     285      POPC     H5S      HAL2     0.900000E-01   1.00800           0
     38110 MEMB     285      POPC     C26      CTL2    -0.180000       12.0110           0
     38111 MEMB     285      POPC     H6R      HAL2     0.900000E-01   1.00800           0
     38112 MEMB     285      POPC     H6S      HAL2     0.900000E-01   1.00800           0
     38113 MEMB     285      POPC     C27      CTL2    -0.180000       12.0110           0
     38114 MEMB     285      POPC     H7R      HAL2     0.900000E-01   1.00800           0
     38115 MEMB     285      POPC     H7S      HAL2     0.900000E-01   1.00800           0
     38116 MEMB     285      POPC     C28      CTL2    -0.180000       12.0110           0
     38117 MEMB     285      POPC     H8R      HAL2     0.900000E-01   1.00800           0
     38118 MEMB     285      POPC     H8S      HAL2     0.900000E-01   1.00800           0
     38119 MEMB     285      POPC     C29      CEL1    -0.150000       12.0110           0
     38120 MEMB     285      POPC     H91      HEL1     0.150000       1.00800           0
     38121 MEMB     285      POPC     C210     CEL1    -0.150000       12.0110           0
     38122 MEMB     285      POPC     H101     HEL1     0.150000       1.00800           0
     38123 MEMB     285      POPC     C211     CTL2    -0.180000       12.0110           0
     38124 MEMB     285      POPC     H11R     HAL2     0.900000E-01   1.00800           0
     38125 MEMB     285      POPC     H11S     HAL2     0.900000E-01   1.00800           0
     38126 MEMB     285      POPC     C212     CTL2    -0.180000       12.0110           0
     38127 MEMB     285      POPC     H12R     HAL2     0.900000E-01   1.00800           0
     38128 MEMB     285      POPC     H12S     HAL2     0.900000E-01   1.00800           0
     38129 MEMB     285      POPC     C213     CTL2    -0.180000       12.0110           0
     38130 MEMB     285      POPC     H13R     HAL2     0.900000E-01   1.00800           0
     38131 MEMB     285      POPC     H13S     HAL2     0.900000E-01   1.00800           0
     38132 MEMB     285      POPC     C214     CTL2    -0.180000       12.0110           0
     38133 MEMB     285      POPC     H14R     HAL2     0.900000E-01   1.00800           0
     38134 MEMB     285      POPC     H14S     HAL2     0.900000E-01   1.00800           0
     38135 MEMB     285      POPC     C215     CTL2    -0.180000       12.0110           0
     38136 MEMB     285      POPC     H15R     HAL2     0.900000E-01   1.00800           0
     38137 MEMB     285      POPC     H15S     HAL2     0.900000E-01   1.00800           0
     38138 MEMB     285      POPC     C216     CTL2    -0.180000       12.0110           0
     38139 MEMB     285      POPC     H16R     HAL2     0.900000E-01   1.00800           0
     38140 MEMB     285      POPC     H16S     HAL2     0.900000E-01   1.00800           0
     38141 MEMB     285      POPC     C217     CTL2    -0.180000       12.0110           0
     38142 MEMB     285      POPC     H17R     HAL2     0.900000E-01   1.00800           0
     38143 MEMB     285      POPC     H17S     HAL2     0.900000E-01   1.00800           0
     38144 MEMB     285      POPC     C218     CTL3    -0.270000       12.0110           0
     38145 MEMB     285      POPC     H18R     HAL3     0.900000E-01   1.00800           0
     38146 MEMB     285      POPC     H18S     HAL3     0.900000E-01   1.00800           0
     38147 MEMB     285      POPC     H18T     HAL3     0.900000E-01   1.00800           0
     38148 MEMB     285      POPC     C33      CTL2    -0.180000       12.0110           0
     38149 MEMB     285      POPC     H3X      HAL2     0.900000E-01   1.00800           0
     38150 MEMB     285      POPC     H3Y      HAL2     0.900000E-01   1.00800           0
     38151 MEMB     285      POPC     C34      CTL2    -0.180000       12.0110           0
     38152 MEMB     285      POPC     H4X      HAL2     0.900000E-01   1.00800           0
     38153 MEMB     285      POPC     H4Y      HAL2     0.900000E-01   1.00800           0
     38154 MEMB     285      POPC     C35      CTL2    -0.180000       12.0110           0
     38155 MEMB     285      POPC     H5X      HAL2     0.900000E-01   1.00800           0
     38156 MEMB     285      POPC     H5Y      HAL2     0.900000E-01   1.00800           0
     38157 MEMB     285      POPC     C36      CTL2    -0.180000       12.0110           0
     38158 MEMB     285      POPC     H6X      HAL2     0.900000E-01   1.00800           0
     38159 MEMB     285      POPC     H6Y      HAL2     0.900000E-01   1.00800           0
     38160 MEMB     285      POPC     C37      CTL2    -0.180000       12.0110           0
     38161 MEMB     285      POPC     H7X      HAL2     0.900000E-01   1.00800           0
     38162 MEMB     285      POPC     H7Y      HAL2     0.900000E-01   1.00800           0
     38163 MEMB     285      POPC     C38      CTL2    -0.180000       12.0110           0
     38164 MEMB     285      POPC     H8X      HAL2     0.900000E-01   1.00800           0
     38165 MEMB     285      POPC     H8Y      HAL2     0.900000E-01   1.00800           0
     38166 MEMB     285      POPC     C39      CTL2    -0.180000       12.0110           0
     38167 MEMB     285      POPC     H9X      HAL2     0.900000E-01   1.00800           0
     38168 MEMB     285      POPC     H9Y      HAL2     0.900000E-01   1.00800           0
     38169 MEMB     285      POPC     C310     CTL2    -0.180000       12.0110           0
     38170 MEMB     285      POPC     H10X     HAL2     0.900000E-01   1.00800           0
     38171 MEMB     285      POPC     H10Y     HAL2     0.900000E-01   1.00800           0
     38172 MEMB     285      POPC     C311     CTL2    -0.180000       12.0110           0
     38173 MEMB     285      POPC     H11X     HAL2     0.900000E-01   1.00800           0
     38174 MEMB     285      POPC     H11Y     HAL2     0.900000E-01   1.00800           0
     38175 MEMB     285      POPC     C312     CTL2    -0.180000       12.0110           0
     38176 MEMB     285      POPC     H12X     HAL2     0.900000E-01   1.00800           0
     38177 MEMB     285      POPC     H12Y     HAL2     0.900000E-01   1.00800           0
     38178 MEMB     285      POPC     C313     CTL2    -0.180000       12.0110           0
     38179 MEMB     285      POPC     H13X     HAL2     0.900000E-01   1.00800           0
     38180 MEMB     285      POPC     H13Y     HAL2     0.900000E-01   1.00800           0
     38181 MEMB     285      POPC     C314     CTL2    -0.180000       12.0110           0
     38182 MEMB     285      POPC     H14X     HAL2     0.900000E-01   1.00800           0
     38183 MEMB     285      POPC     H14Y     HAL2     0.900000E-01   1.00800           0
     38184 MEMB     285      POPC     C315     CTL2    -0.180000       12.0110           0
     38185 MEMB     285      POPC     H15X     HAL2     0.900000E-01   1.00800           0
     38186 MEMB     285      POPC     H15Y     HAL2     0.900000E-01   1.00800           0
     38187 MEMB     285      POPC     C316     CTL3    -0.270000       12.0110           0
     38188 MEMB     285      POPC     H16X     HAL3     0.900000E-01   1.00800           0
     38189 MEMB     285      POPC     H16Y     HAL3     0.900000E-01   1.00800           0
     38190 MEMB     285      POPC     H16Z     HAL3     0.900000E-01   1.00800           0
     38191 MEMB     286      POPC     N        NTL     -0.600000       14.0070           0
     38192 MEMB     286      POPC     C12      CTL2    -0.100000       12.0110           0
     38193 MEMB     286      POPC     H12A     HL       0.250000       1.00800           0
     38194 MEMB     286      POPC     H12B     HL       0.250000       1.00800           0
     38195 MEMB     286      POPC     C13      CTL5    -0.350000       12.0110           0
     38196 MEMB     286      POPC     H13A     HL       0.250000       1.00800           0
     38197 MEMB     286      POPC     H13B     HL       0.250000       1.00800           0
     38198 MEMB     286      POPC     H13C     HL       0.250000       1.00800           0
     38199 MEMB     286      POPC     C14      CTL5    -0.350000       12.0110           0
     38200 MEMB     286      POPC     H14A     HL       0.250000       1.00800           0
     38201 MEMB     286      POPC     H14B     HL       0.250000       1.00800           0
     38202 MEMB     286      POPC     H14C     HL       0.250000       1.00800           0
     38203 MEMB     286      POPC     C15      CTL5    -0.350000       12.0110           0
     38204 MEMB     286      POPC     H15A     HL       0.250000       1.00800           0
     38205 MEMB     286      POPC     H15B     HL       0.250000       1.00800           0
     38206 MEMB     286      POPC     H15C     HL       0.250000       1.00800           0
     38207 MEMB     286      POPC     C11      CTL2    -0.800000E-01   12.0110           0
     38208 MEMB     286      POPC     H11A     HAL2     0.900000E-01   1.00800           0
     38209 MEMB     286      POPC     H11B     HAL2     0.900000E-01   1.00800           0
     38210 MEMB     286      POPC     P        PL       1.50000        30.9740           0
     38211 MEMB     286      POPC     O13      O2L     -0.780000       15.9994           0
     38212 MEMB     286      POPC     O14      O2L     -0.780000       15.9994           0
     38213 MEMB     286      POPC     O12      OSLP    -0.570000       15.9994           0
     38214 MEMB     286      POPC     O11      OSLP    -0.570000       15.9994           0
     38215 MEMB     286      POPC     C1       CTL2    -0.800000E-01   12.0110           0
     38216 MEMB     286      POPC     HA       HAL2     0.900000E-01   1.00800           0
     38217 MEMB     286      POPC     HB       HAL2     0.900000E-01   1.00800           0
     38218 MEMB     286      POPC     C2       CTL1     0.170000       12.0110           0
     38219 MEMB     286      POPC     HS       HAL1     0.900000E-01   1.00800           0
     38220 MEMB     286      POPC     O21      OSL     -0.490000       15.9994           0
     38221 MEMB     286      POPC     C21      CL       0.900000       12.0110           0
     38222 MEMB     286      POPC     O22      OBL     -0.630000       15.9994           0
     38223 MEMB     286      POPC     C22      CTL2    -0.220000       12.0110           0
     38224 MEMB     286      POPC     H2R      HAL2     0.900000E-01   1.00800           0
     38225 MEMB     286      POPC     H2S      HAL2     0.900000E-01   1.00800           0
     38226 MEMB     286      POPC     C3       CTL2     0.800000E-01   12.0110           0
     38227 MEMB     286      POPC     HX       HAL2     0.900000E-01   1.00800           0
     38228 MEMB     286      POPC     HY       HAL2     0.900000E-01   1.00800           0
     38229 MEMB     286      POPC     O31      OSL     -0.490000       15.9994           0
     38230 MEMB     286      POPC     C31      CL       0.900000       12.0110           0
     38231 MEMB     286      POPC     O32      OBL     -0.630000       15.9994           0
     38232 MEMB     286      POPC     C32      CTL2    -0.220000       12.0110           0
     38233 MEMB     286      POPC     H2X      HAL2     0.900000E-01   1.00800           0
     38234 MEMB     286      POPC     H2Y      HAL2     0.900000E-01   1.00800           0
     38235 MEMB     286      POPC     C23      CTL2    -0.180000       12.0110           0
     38236 MEMB     286      POPC     H3R      HAL2     0.900000E-01   1.00800           0
     38237 MEMB     286      POPC     H3S      HAL2     0.900000E-01   1.00800           0
     38238 MEMB     286      POPC     C24      CTL2    -0.180000       12.0110           0
     38239 MEMB     286      POPC     H4R      HAL2     0.900000E-01   1.00800           0
     38240 MEMB     286      POPC     H4S      HAL2     0.900000E-01   1.00800           0
     38241 MEMB     286      POPC     C25      CTL2    -0.180000       12.0110           0
     38242 MEMB     286      POPC     H5R      HAL2     0.900000E-01   1.00800           0
     38243 MEMB     286      POPC     H5S      HAL2     0.900000E-01   1.00800           0
     38244 MEMB     286      POPC     C26      CTL2    -0.180000       12.0110           0
     38245 MEMB     286      POPC     H6R      HAL2     0.900000E-01   1.00800           0
     38246 MEMB     286      POPC     H6S      HAL2     0.900000E-01   1.00800           0
     38247 MEMB     286      POPC     C27      CTL2    -0.180000       12.0110           0
     38248 MEMB     286      POPC     H7R      HAL2     0.900000E-01   1.00800           0
     38249 MEMB     286      POPC     H7S      HAL2     0.900000E-01   1.00800           0
     38250 MEMB     286      POPC     C28      CTL2    -0.180000       12.0110           0
     38251 MEMB     286      POPC     H8R      HAL2     0.900000E-01   1.00800           0
     38252 MEMB     286      POPC     H8S      HAL2     0.900000E-01   1.00800           0
     38253 MEMB     286      POPC     C29      CEL1    -0.150000       12.0110           0
     38254 MEMB     286      POPC     H91      HEL1     0.150000       1.00800           0
     38255 MEMB     286      POPC     C210     CEL1    -0.150000       12.0110           0
     38256 MEMB     286      POPC     H101     HEL1     0.150000       1.00800           0
     38257 MEMB     286      POPC     C211     CTL2    -0.180000       12.0110           0
     38258 MEMB     286      POPC     H11R     HAL2     0.900000E-01   1.00800           0
     38259 MEMB     286      POPC     H11S     HAL2     0.900000E-01   1.00800           0
     38260 MEMB     286      POPC     C212     CTL2    -0.180000       12.0110           0
     38261 MEMB     286      POPC     H12R     HAL2     0.900000E-01   1.00800           0
     38262 MEMB     286      POPC     H12S     HAL2     0.900000E-01   1.00800           0
     38263 MEMB     286      POPC     C213     CTL2    -0.180000       12.0110           0
     38264 MEMB     286      POPC     H13R     HAL2     0.900000E-01   1.00800           0
     38265 MEMB     286      POPC     H13S     HAL2     0.900000E-01   1.00800           0
     38266 MEMB     286      POPC     C214     CTL2    -0.180000       12.0110           0
     38267 MEMB     286      POPC     H14R     HAL2     0.900000E-01   1.00800           0
     38268 MEMB     286      POPC     H14S     HAL2     0.900000E-01   1.00800           0
     38269 MEMB     286      POPC     C215     CTL2    -0.180000       12.0110           0
     38270 MEMB     286      POPC     H15R     HAL2     0.900000E-01   1.00800           0
     38271 MEMB     286      POPC     H15S     HAL2     0.900000E-01   1.00800           0
     38272 MEMB     286      POPC     C216     CTL2    -0.180000       12.0110           0
     38273 MEMB     286      POPC     H16R     HAL2     0.900000E-01   1.00800           0
     38274 MEMB     286      POPC     H16S     HAL2     0.900000E-01   1.00800           0
     38275 MEMB     286      POPC     C217     CTL2    -0.180000       12.0110           0
     38276 MEMB     286      POPC     H17R     HAL2     0.900000E-01   1.00800           0
     38277 MEMB     286      POPC     H17S     HAL2     0.900000E-01   1.00800           0
     38278 MEMB     286      POPC     C218     CTL3    -0.270000       12.0110           0
     38279 MEMB     286      POPC     H18R     HAL3     0.900000E-01   1.00800           0
     38280 MEMB     286      POPC     H18S     HAL3     0.900000E-01   1.00800           0
     38281 MEMB     286      POPC     H18T     HAL3     0.900000E-01   1.00800           0
     38282 MEMB     286      POPC     C33      CTL2    -0.180000       12.0110           0
     38283 MEMB     286      POPC     H3X      HAL2     0.900000E-01   1.00800           0
     38284 MEMB     286      POPC     H3Y      HAL2     0.900000E-01   1.00800           0
     38285 MEMB     286      POPC     C34      CTL2    -0.180000       12.0110           0
     38286 MEMB     286      POPC     H4X      HAL2     0.900000E-01   1.00800           0
     38287 MEMB     286      POPC     H4Y      HAL2     0.900000E-01   1.00800           0
     38288 MEMB     286      POPC     C35      CTL2    -0.180000       12.0110           0
     38289 MEMB     286      POPC     H5X      HAL2     0.900000E-01   1.00800           0
     38290 MEMB     286      POPC     H5Y      HAL2     0.900000E-01   1.00800           0
     38291 MEMB     286      POPC     C36      CTL2    -0.180000       12.0110           0
     38292 MEMB     286      POPC     H6X      HAL2     0.900000E-01   1.00800           0
     38293 MEMB     286      POPC     H6Y      HAL2     0.900000E-01   1.00800           0
     38294 MEMB     286      POPC     C37      CTL2    -0.180000       12.0110           0
     38295 MEMB     286      POPC     H7X      HAL2     0.900000E-01   1.00800           0
     38296 MEMB     286      POPC     H7Y      HAL2     0.900000E-01   1.00800           0
     38297 MEMB     286      POPC     C38      CTL2    -0.180000       12.0110           0
     38298 MEMB     286      POPC     H8X      HAL2     0.900000E-01   1.00800           0
     38299 MEMB     286      POPC     H8Y      HAL2     0.900000E-01   1.00800           0
     38300 MEMB     286      POPC     C39      CTL2    -0.180000       12.0110           0
     38301 MEMB     286      POPC     H9X      HAL2     0.900000E-01   1.00800           0
     38302 MEMB     286      POPC     H9Y      HAL2     0.900000E-01   1.00800           0
     38303 MEMB     286      POPC     C310     CTL2    -0.180000       12.0110           0
     38304 MEMB     286      POPC     H10X     HAL2     0.900000E-01   1.00800           0
     38305 MEMB     286      POPC     H10Y     HAL2     0.900000E-01   1.00800           0
     38306 MEMB     286      POPC     C311     CTL2    -0.180000       12.0110           0
     38307 MEMB     286      POPC     H11X     HAL2     0.900000E-01   1.00800           0
     38308 MEMB     286      POPC     H11Y     HAL2     0.900000E-01   1.00800           0
     38309 MEMB     286      POPC     C312     CTL2    -0.180000       12.0110           0
     38310 MEMB     286      POPC     H12X     HAL2     0.900000E-01   1.00800           0
     38311 MEMB     286      POPC     H12Y     HAL2     0.900000E-01   1.00800           0
     38312 MEMB     286      POPC     C313     CTL2    -0.180000       12.0110           0
     38313 MEMB     286      POPC     H13X     HAL2     0.900000E-01   1.00800           0
     38314 MEMB     286      POPC     H13Y     HAL2     0.900000E-01   1.00800           0
     38315 MEMB     286      POPC     C314     CTL2    -0.180000       12.0110           0
     38316 MEMB     286      POPC     H14X     HAL2     0.900000E-01   1.00800           0
     38317 MEMB     286      POPC     H14Y     HAL2     0.900000E-01   1.00800           0
     38318 MEMB     286      POPC     C315     CTL2    -0.180000       12.0110           0
     38319 MEMB     286      POPC     H15X     HAL2     0.900000E-01   1.00800           0
     38320 MEMB     286      POPC     H15Y     HAL2     0.900000E-01   1.00800           0
     38321 MEMB     286      POPC     C316     CTL3    -0.270000       12.0110           0
     38322 MEMB     286      POPC     H16X     HAL3     0.900000E-01   1.00800           0
     38323 MEMB     286      POPC     H16Y     HAL3     0.900000E-01   1.00800           0
     38324 MEMB     286      POPC     H16Z     HAL3     0.900000E-01   1.00800           0
     38325 MEMB     287      POPC     N        NTL     -0.600000       14.0070           0
     38326 MEMB     287      POPC     C12      CTL2    -0.100000       12.0110           0
     38327 MEMB     287      POPC     H12A     HL       0.250000       1.00800           0
     38328 MEMB     287      POPC     H12B     HL       0.250000       1.00800           0
     38329 MEMB     287      POPC     C13      CTL5    -0.350000       12.0110           0
     38330 MEMB     287      POPC     H13A     HL       0.250000       1.00800           0
     38331 MEMB     287      POPC     H13B     HL       0.250000       1.00800           0
     38332 MEMB     287      POPC     H13C     HL       0.250000       1.00800           0
     38333 MEMB     287      POPC     C14      CTL5    -0.350000       12.0110           0
     38334 MEMB     287      POPC     H14A     HL       0.250000       1.00800           0
     38335 MEMB     287      POPC     H14B     HL       0.250000       1.00800           0
     38336 MEMB     287      POPC     H14C     HL       0.250000       1.00800           0
     38337 MEMB     287      POPC     C15      CTL5    -0.350000       12.0110           0
     38338 MEMB     287      POPC     H15A     HL       0.250000       1.00800           0
     38339 MEMB     287      POPC     H15B     HL       0.250000       1.00800           0
     38340 MEMB     287      POPC     H15C     HL       0.250000       1.00800           0
     38341 MEMB     287      POPC     C11      CTL2    -0.800000E-01   12.0110           0
     38342 MEMB     287      POPC     H11A     HAL2     0.900000E-01   1.00800           0
     38343 MEMB     287      POPC     H11B     HAL2     0.900000E-01   1.00800           0
     38344 MEMB     287      POPC     P        PL       1.50000        30.9740           0
     38345 MEMB     287      POPC     O13      O2L     -0.780000       15.9994           0
     38346 MEMB     287      POPC     O14      O2L     -0.780000       15.9994           0
     38347 MEMB     287      POPC     O12      OSLP    -0.570000       15.9994           0
     38348 MEMB     287      POPC     O11      OSLP    -0.570000       15.9994           0
     38349 MEMB     287      POPC     C1       CTL2    -0.800000E-01   12.0110           0
     38350 MEMB     287      POPC     HA       HAL2     0.900000E-01   1.00800           0
     38351 MEMB     287      POPC     HB       HAL2     0.900000E-01   1.00800           0
     38352 MEMB     287      POPC     C2       CTL1     0.170000       12.0110           0
     38353 MEMB     287      POPC     HS       HAL1     0.900000E-01   1.00800           0
     38354 MEMB     287      POPC     O21      OSL     -0.490000       15.9994           0
     38355 MEMB     287      POPC     C21      CL       0.900000       12.0110           0
     38356 MEMB     287      POPC     O22      OBL     -0.630000       15.9994           0
     38357 MEMB     287      POPC     C22      CTL2    -0.220000       12.0110           0
     38358 MEMB     287      POPC     H2R      HAL2     0.900000E-01   1.00800           0
     38359 MEMB     287      POPC     H2S      HAL2     0.900000E-01   1.00800           0
     38360 MEMB     287      POPC     C3       CTL2     0.800000E-01   12.0110           0
     38361 MEMB     287      POPC     HX       HAL2     0.900000E-01   1.00800           0
     38362 MEMB     287      POPC     HY       HAL2     0.900000E-01   1.00800           0
     38363 MEMB     287      POPC     O31      OSL     -0.490000       15.9994           0
     38364 MEMB     287      POPC     C31      CL       0.900000       12.0110           0
     38365 MEMB     287      POPC     O32      OBL     -0.630000       15.9994           0
     38366 MEMB     287      POPC     C32      CTL2    -0.220000       12.0110           0
     38367 MEMB     287      POPC     H2X      HAL2     0.900000E-01   1.00800           0
     38368 MEMB     287      POPC     H2Y      HAL2     0.900000E-01   1.00800           0
     38369 MEMB     287      POPC     C23      CTL2    -0.180000       12.0110           0
     38370 MEMB     287      POPC     H3R      HAL2     0.900000E-01   1.00800           0
     38371 MEMB     287      POPC     H3S      HAL2     0.900000E-01   1.00800           0
     38372 MEMB     287      POPC     C24      CTL2    -0.180000       12.0110           0
     38373 MEMB     287      POPC     H4R      HAL2     0.900000E-01   1.00800           0
     38374 MEMB     287      POPC     H4S      HAL2     0.900000E-01   1.00800           0
     38375 MEMB     287      POPC     C25      CTL2    -0.180000       12.0110           0
     38376 MEMB     287      POPC     H5R      HAL2     0.900000E-01   1.00800           0
     38377 MEMB     287      POPC     H5S      HAL2     0.900000E-01   1.00800           0
     38378 MEMB     287      POPC     C26      CTL2    -0.180000       12.0110           0
     38379 MEMB     287      POPC     H6R      HAL2     0.900000E-01   1.00800           0
     38380 MEMB     287      POPC     H6S      HAL2     0.900000E-01   1.00800           0
     38381 MEMB     287      POPC     C27      CTL2    -0.180000       12.0110           0
     38382 MEMB     287      POPC     H7R      HAL2     0.900000E-01   1.00800           0
     38383 MEMB     287      POPC     H7S      HAL2     0.900000E-01   1.00800           0
     38384 MEMB     287      POPC     C28      CTL2    -0.180000       12.0110           0
     38385 MEMB     287      POPC     H8R      HAL2     0.900000E-01   1.00800           0
     38386 MEMB     287      POPC     H8S      HAL2     0.900000E-01   1.00800           0
     38387 MEMB     287      POPC     C29      CEL1    -0.150000       12.0110           0
     38388 MEMB     287      POPC     H91      HEL1     0.150000       1.00800           0
     38389 MEMB     287      POPC     C210     CEL1    -0.150000       12.0110           0
     38390 MEMB     287      POPC     H101     HEL1     0.150000       1.00800           0
     38391 MEMB     287      POPC     C211     CTL2    -0.180000       12.0110           0
     38392 MEMB     287      POPC     H11R     HAL2     0.900000E-01   1.00800           0
     38393 MEMB     287      POPC     H11S     HAL2     0.900000E-01   1.00800           0
     38394 MEMB     287      POPC     C212     CTL2    -0.180000       12.0110           0
     38395 MEMB     287      POPC     H12R     HAL2     0.900000E-01   1.00800           0
     38396 MEMB     287      POPC     H12S     HAL2     0.900000E-01   1.00800           0
     38397 MEMB     287      POPC     C213     CTL2    -0.180000       12.0110           0
     38398 MEMB     287      POPC     H13R     HAL2     0.900000E-01   1.00800           0
     38399 MEMB     287      POPC     H13S     HAL2     0.900000E-01   1.00800           0
     38400 MEMB     287      POPC     C214     CTL2    -0.180000       12.0110           0
     38401 MEMB     287      POPC     H14R     HAL2     0.900000E-01   1.00800           0
     38402 MEMB     287      POPC     H14S     HAL2     0.900000E-01   1.00800           0
     38403 MEMB     287      POPC     C215     CTL2    -0.180000       12.0110           0
     38404 MEMB     287      POPC     H15R     HAL2     0.900000E-01   1.00800           0
     38405 MEMB     287      POPC     H15S     HAL2     0.900000E-01   1.00800           0
     38406 MEMB     287      POPC     C216     CTL2    -0.180000       12.0110           0
     38407 MEMB     287      POPC     H16R     HAL2     0.900000E-01   1.00800           0
     38408 MEMB     287      POPC     H16S     HAL2     0.900000E-01   1.00800           0
     38409 MEMB     287      POPC     C217     CTL2    -0.180000       12.0110           0
     38410 MEMB     287      POPC     H17R     HAL2     0.900000E-01   1.00800           0
     38411 MEMB     287      POPC     H17S     HAL2     0.900000E-01   1.00800           0
     38412 MEMB     287      POPC     C218     CTL3    -0.270000       12.0110           0
     38413 MEMB     287      POPC     H18R     HAL3     0.900000E-01   1.00800           0
     38414 MEMB     287      POPC     H18S     HAL3     0.900000E-01   1.00800           0
     38415 MEMB     287      POPC     H18T     HAL3     0.900000E-01   1.00800           0
     38416 MEMB     287      POPC     C33      CTL2    -0.180000       12.0110           0
     38417 MEMB     287      POPC     H3X      HAL2     0.900000E-01   1.00800           0
     38418 MEMB     287      POPC     H3Y      HAL2     0.900000E-01   1.00800           0
     38419 MEMB     287      POPC     C34      CTL2    -0.180000       12.0110           0
     38420 MEMB     287      POPC     H4X      HAL2     0.900000E-01   1.00800           0
     38421 MEMB     287      POPC     H4Y      HAL2     0.900000E-01   1.00800           0
     38422 MEMB     287      POPC     C35      CTL2    -0.180000       12.0110           0
     38423 MEMB     287      POPC     H5X      HAL2     0.900000E-01   1.00800           0
     38424 MEMB     287      POPC     H5Y      HAL2     0.900000E-01   1.00800           0
     38425 MEMB     287      POPC     C36      CTL2    -0.180000       12.0110           0
     38426 MEMB     287      POPC     H6X      HAL2     0.900000E-01   1.00800           0
     38427 MEMB     287      POPC     H6Y      HAL2     0.900000E-01   1.00800           0
     38428 MEMB     287      POPC     C37      CTL2    -0.180000       12.0110           0
     38429 MEMB     287      POPC     H7X      HAL2     0.900000E-01   1.00800           0
     38430 MEMB     287      POPC     H7Y      HAL2     0.900000E-01   1.00800           0
     38431 MEMB     287      POPC     C38      CTL2    -0.180000       12.0110           0
     38432 MEMB     287      POPC     H8X      HAL2     0.900000E-01   1.00800           0
     38433 MEMB     287      POPC     H8Y      HAL2     0.900000E-01   1.00800           0
     38434 MEMB     287      POPC     C39      CTL2    -0.180000       12.0110           0
     38435 MEMB     287      POPC     H9X      HAL2     0.900000E-01   1.00800           0
     38436 MEMB     287      POPC     H9Y      HAL2     0.900000E-01   1.00800           0
     38437 MEMB     287      POPC     C310     CTL2    -0.180000       12.0110           0
     38438 MEMB     287      POPC     H10X     HAL2     0.900000E-01   1.00800           0
     38439 MEMB     287      POPC     H10Y     HAL2     0.900000E-01   1.00800           0
     38440 MEMB     287      POPC     C311     CTL2    -0.180000       12.0110           0
     38441 MEMB     287      POPC     H11X     HAL2     0.900000E-01   1.00800           0
     38442 MEMB     287      POPC     H11Y     HAL2     0.900000E-01   1.00800           0
     38443 MEMB     287      POPC     C312     CTL2    -0.180000       12.0110           0
     38444 MEMB     287      POPC     H12X     HAL2     0.900000E-01   1.00800           0
     38445 MEMB     287      POPC     H12Y     HAL2     0.900000E-01   1.00800           0
     38446 MEMB     287      POPC     C313     CTL2    -0.180000       12.0110           0
     38447 MEMB     287      POPC     H13X     HAL2     0.900000E-01   1.00800           0
     38448 MEMB     287      POPC     H13Y     HAL2     0.900000E-01   1.00800           0
     38449 MEMB     287      POPC     C314     CTL2    -0.180000       12.0110           0
     38450 MEMB     287      POPC     H14X     HAL2     0.900000E-01   1.00800           0
     38451 MEMB     287      POPC     H14Y     HAL2     0.900000E-01   1.00800           0
     38452 MEMB     287      POPC     C315     CTL2    -0.180000       12.0110           0
     38453 MEMB     287      POPC     H15X     HAL2     0.900000E-01   1.00800           0
     38454 MEMB     287      POPC     H15Y     HAL2     0.900000E-01   1.00800           0
     38455 MEMB     287      POPC     C316     CTL3    -0.270000       12.0110           0
     38456 MEMB     287      POPC     H16X     HAL3     0.900000E-01   1.00800           0
     38457 MEMB     287      POPC     H16Y     HAL3     0.900000E-01   1.00800           0
     38458 MEMB     287      POPC     H16Z     HAL3     0.900000E-01   1.00800           0
     38459 MEMB     288      POPC     N        NTL     -0.600000       14.0070           0
     38460 MEMB     288      POPC     C12      CTL2    -0.100000       12.0110           0
     38461 MEMB     288      POPC     H12A     HL       0.250000       1.00800           0
     38462 MEMB     288      POPC     H12B     HL       0.250000       1.00800           0
     38463 MEMB     288      POPC     C13      CTL5    -0.350000       12.0110           0
     38464 MEMB     288      POPC     H13A     HL       0.250000       1.00800           0
     38465 MEMB     288      POPC     H13B     HL       0.250000       1.00800           0
     38466 MEMB     288      POPC     H13C     HL       0.250000       1.00800           0
     38467 MEMB     288      POPC     C14      CTL5    -0.350000       12.0110           0
     38468 MEMB     288      POPC     H14A     HL       0.250000       1.00800           0
     38469 MEMB     288      POPC     H14B     HL       0.250000       1.00800           0
     38470 MEMB     288      POPC     H14C     HL       0.250000       1.00800           0
     38471 MEMB     288      POPC     C15      CTL5    -0.350000       12.0110           0
     38472 MEMB     288      POPC     H15A     HL       0.250000       1.00800           0
     38473 MEMB     288      POPC     H15B     HL       0.250000       1.00800           0
     38474 MEMB     288      POPC     H15C     HL       0.250000       1.00800           0
     38475 MEMB     288      POPC     C11      CTL2    -0.800000E-01   12.0110           0
     38476 MEMB     288      POPC     H11A     HAL2     0.900000E-01   1.00800           0
     38477 MEMB     288      POPC     H11B     HAL2     0.900000E-01   1.00800           0
     38478 MEMB     288      POPC     P        PL       1.50000        30.9740           0
     38479 MEMB     288      POPC     O13      O2L     -0.780000       15.9994           0
     38480 MEMB     288      POPC     O14      O2L     -0.780000       15.9994           0
     38481 MEMB     288      POPC     O12      OSLP    -0.570000       15.9994           0
     38482 MEMB     288      POPC     O11      OSLP    -0.570000       15.9994           0
     38483 MEMB     288      POPC     C1       CTL2    -0.800000E-01   12.0110           0
     38484 MEMB     288      POPC     HA       HAL2     0.900000E-01   1.00800           0
     38485 MEMB     288      POPC     HB       HAL2     0.900000E-01   1.00800           0
     38486 MEMB     288      POPC     C2       CTL1     0.170000       12.0110           0
     38487 MEMB     288      POPC     HS       HAL1     0.900000E-01   1.00800           0
     38488 MEMB     288      POPC     O21      OSL     -0.490000       15.9994           0
     38489 MEMB     288      POPC     C21      CL       0.900000       12.0110           0
     38490 MEMB     288      POPC     O22      OBL     -0.630000       15.9994           0
     38491 MEMB     288      POPC     C22      CTL2    -0.220000       12.0110           0
     38492 MEMB     288      POPC     H2R      HAL2     0.900000E-01   1.00800           0
     38493 MEMB     288      POPC     H2S      HAL2     0.900000E-01   1.00800           0
     38494 MEMB     288      POPC     C3       CTL2     0.800000E-01   12.0110           0
     38495 MEMB     288      POPC     HX       HAL2     0.900000E-01   1.00800           0
     38496 MEMB     288      POPC     HY       HAL2     0.900000E-01   1.00800           0
     38497 MEMB     288      POPC     O31      OSL     -0.490000       15.9994           0
     38498 MEMB     288      POPC     C31      CL       0.900000       12.0110           0
     38499 MEMB     288      POPC     O32      OBL     -0.630000       15.9994           0
     38500 MEMB     288      POPC     C32      CTL2    -0.220000       12.0110           0
     38501 MEMB     288      POPC     H2X      HAL2     0.900000E-01   1.00800           0
     38502 MEMB     288      POPC     H2Y      HAL2     0.900000E-01   1.00800           0
     38503 MEMB     288      POPC     C23      CTL2    -0.180000       12.0110           0
     38504 MEMB     288      POPC     H3R      HAL2     0.900000E-01   1.00800           0
     38505 MEMB     288      POPC     H3S      HAL2     0.900000E-01   1.00800           0
     38506 MEMB     288      POPC     C24      CTL2    -0.180000       12.0110           0
     38507 MEMB     288      POPC     H4R      HAL2     0.900000E-01   1.00800           0
     38508 MEMB     288      POPC     H4S      HAL2     0.900000E-01   1.00800           0
     38509 MEMB     288      POPC     C25      CTL2    -0.180000       12.0110           0
     38510 MEMB     288      POPC     H5R      HAL2     0.900000E-01   1.00800           0
     38511 MEMB     288      POPC     H5S      HAL2     0.900000E-01   1.00800           0
     38512 MEMB     288      POPC     C26      CTL2    -0.180000       12.0110           0
     38513 MEMB     288      POPC     H6R      HAL2     0.900000E-01   1.00800           0
     38514 MEMB     288      POPC     H6S      HAL2     0.900000E-01   1.00800           0
     38515 MEMB     288      POPC     C27      CTL2    -0.180000       12.0110           0
     38516 MEMB     288      POPC     H7R      HAL2     0.900000E-01   1.00800           0
     38517 MEMB     288      POPC     H7S      HAL2     0.900000E-01   1.00800           0
     38518 MEMB     288      POPC     C28      CTL2    -0.180000       12.0110           0
     38519 MEMB     288      POPC     H8R      HAL2     0.900000E-01   1.00800           0
     38520 MEMB     288      POPC     H8S      HAL2     0.900000E-01   1.00800           0
     38521 MEMB     288      POPC     C29      CEL1    -0.150000       12.0110           0
     38522 MEMB     288      POPC     H91      HEL1     0.150000       1.00800           0
     38523 MEMB     288      POPC     C210     CEL1    -0.150000       12.0110           0
     38524 MEMB     288      POPC     H101     HEL1     0.150000       1.00800           0
     38525 MEMB     288      POPC     C211     CTL2    -0.180000       12.0110           0
     38526 MEMB     288      POPC     H11R     HAL2     0.900000E-01   1.00800           0
     38527 MEMB     288      POPC     H11S     HAL2     0.900000E-01   1.00800           0
     38528 MEMB     288      POPC     C212     CTL2    -0.180000       12.0110           0
     38529 MEMB     288      POPC     H12R     HAL2     0.900000E-01   1.00800           0
     38530 MEMB     288      POPC     H12S     HAL2     0.900000E-01   1.00800           0
     38531 MEMB     288      POPC     C213     CTL2    -0.180000       12.0110           0
     38532 MEMB     288      POPC     H13R     HAL2     0.900000E-01   1.00800           0
     38533 MEMB     288      POPC     H13S     HAL2     0.900000E-01   1.00800           0
     38534 MEMB     288      POPC     C214     CTL2    -0.180000       12.0110           0
     38535 MEMB     288      POPC     H14R     HAL2     0.900000E-01   1.00800           0
     38536 MEMB     288      POPC     H14S     HAL2     0.900000E-01   1.00800           0
     38537 MEMB     288      POPC     C215     CTL2    -0.180000       12.0110           0
     38538 MEMB     288      POPC     H15R     HAL2     0.900000E-01   1.00800           0
     38539 MEMB     288      POPC     H15S     HAL2     0.900000E-01   1.00800           0
     38540 MEMB     288      POPC     C216     CTL2    -0.180000       12.0110           0
     38541 MEMB     288      POPC     H16R     HAL2     0.900000E-01   1.00800           0
     38542 MEMB     288      POPC     H16S     HAL2     0.900000E-01   1.00800           0
     38543 MEMB     288      POPC     C217     CTL2    -0.180000       12.0110           0
     38544 MEMB     288      POPC     H17R     HAL2     0.900000E-01   1.00800           0
     38545 MEMB     288      POPC     H17S     HAL2     0.900000E-01   1.00800           0
     38546 MEMB     288      POPC     C218     CTL3    -0.270000       12.0110           0
     38547 MEMB     288      POPC     H18R     HAL3     0.900000E-01   1.00800           0
     38548 MEMB     288      POPC     H18S     HAL3     0.900000E-01   1.00800           0
     38549 MEMB     288      POPC     H18T     HAL3     0.900000E-01   1.00800           0
     38550 MEMB     288      POPC     C33      CTL2    -0.180000       12.0110           0
     38551 MEMB     288      POPC     H3X      HAL2     0.900000E-01   1.00800           0
     38552 MEMB     288      POPC     H3Y      HAL2     0.900000E-01   1.00800           0
     38553 MEMB     288      POPC     C34      CTL2    -0.180000       12.0110           0
     38554 MEMB     288      POPC     H4X      HAL2     0.900000E-01   1.00800           0
     38555 MEMB     288      POPC     H4Y      HAL2     0.900000E-01   1.00800           0
     38556 MEMB     288      POPC     C35      CTL2    -0.180000       12.0110           0
     38557 MEMB     288      POPC     H5X      HAL2     0.900000E-01   1.00800           0
     38558 MEMB     288      POPC     H5Y      HAL2     0.900000E-01   1.00800           0
     38559 MEMB     288      POPC     C36      CTL2    -0.180000       12.0110           0
     38560 MEMB     288      POPC     H6X      HAL2     0.900000E-01   1.00800           0
     38561 MEMB     288      POPC     H6Y      HAL2     0.900000E-01   1.00800           0
     38562 MEMB     288      POPC     C37      CTL2    -0.180000       12.0110           0
     38563 MEMB     288      POPC     H7X      HAL2     0.900000E-01   1.00800           0
     38564 MEMB     288      POPC     H7Y      HAL2     0.900000E-01   1.00800           0
     38565 MEMB     288      POPC     C38      CTL2    -0.180000       12.0110           0
     38566 MEMB     288      POPC     H8X      HAL2     0.900000E-01   1.00800           0
     38567 MEMB     288      POPC     H8Y      HAL2     0.900000E-01   1.00800           0
     38568 MEMB     288      POPC     C39      CTL2    -0.180000       12.0110           0
     38569 MEMB     288      POPC     H9X      HAL2     0.900000E-01   1.00800           0
     38570 MEMB     288      POPC     H9Y      HAL2     0.900000E-01   1.00800           0
     38571 MEMB     288      POPC     C310     CTL2    -0.180000       12.0110           0
     38572 MEMB     288      POPC     H10X     HAL2     0.900000E-01   1.00800           0
     38573 MEMB     288      POPC     H10Y     HAL2     0.900000E-01   1.00800           0
     38574 MEMB     288      POPC     C311     CTL2    -0.180000       12.0110           0
     38575 MEMB     288      POPC     H11X     HAL2     0.900000E-01   1.00800           0
     38576 MEMB     288      POPC     H11Y     HAL2     0.900000E-01   1.00800           0
     38577 MEMB     288      POPC     C312     CTL2    -0.180000       12.0110           0
     38578 MEMB     288      POPC     H12X     HAL2     0.900000E-01   1.00800           0
     38579 MEMB     288      POPC     H12Y     HAL2     0.900000E-01   1.00800           0
     38580 MEMB     288      POPC     C313     CTL2    -0.180000       12.0110           0
     38581 MEMB     288      POPC     H13X     HAL2     0.900000E-01   1.00800           0
     38582 MEMB     288      POPC     H13Y     HAL2     0.900000E-01   1.00800           0
     38583 MEMB     288      POPC     C314     CTL2    -0.180000       12.0110           0
     38584 MEMB     288      POPC     H14X     HAL2     0.900000E-01   1.00800           0
     38585 MEMB     288      POPC     H14Y     HAL2     0.900000E-01   1.00800           0
     38586 MEMB     288      POPC     C315     CTL2    -0.180000       12.0110           0
     38587 MEMB     288      POPC     H15X     HAL2     0.900000E-01   1.00800           0
     38588 MEMB     288      POPC     H15Y     HAL2     0.900000E-01   1.00800           0
     38589 MEMB     288      POPC     C316     CTL3    -0.270000       12.0110           0
     38590 MEMB     288      POPC     H16X     HAL3     0.900000E-01   1.00800           0
     38591 MEMB     288      POPC     H16Y     HAL3     0.900000E-01   1.00800           0
     38592 MEMB     288      POPC     H16Z     HAL3     0.900000E-01   1.00800           0
     38593 MEMB     289      POPC     N        NTL     -0.600000       14.0070           0
     38594 MEMB     289      POPC     C12      CTL2    -0.100000       12.0110           0
     38595 MEMB     289      POPC     H12A     HL       0.250000       1.00800           0
     38596 MEMB     289      POPC     H12B     HL       0.250000       1.00800           0
     38597 MEMB     289      POPC     C13      CTL5    -0.350000       12.0110           0
     38598 MEMB     289      POPC     H13A     HL       0.250000       1.00800           0
     38599 MEMB     289      POPC     H13B     HL       0.250000       1.00800           0
     38600 MEMB     289      POPC     H13C     HL       0.250000       1.00800           0
     38601 MEMB     289      POPC     C14      CTL5    -0.350000       12.0110           0
     38602 MEMB     289      POPC     H14A     HL       0.250000       1.00800           0
     38603 MEMB     289      POPC     H14B     HL       0.250000       1.00800           0
     38604 MEMB     289      POPC     H14C     HL       0.250000       1.00800           0
     38605 MEMB     289      POPC     C15      CTL5    -0.350000       12.0110           0
     38606 MEMB     289      POPC     H15A     HL       0.250000       1.00800           0
     38607 MEMB     289      POPC     H15B     HL       0.250000       1.00800           0
     38608 MEMB     289      POPC     H15C     HL       0.250000       1.00800           0
     38609 MEMB     289      POPC     C11      CTL2    -0.800000E-01   12.0110           0
     38610 MEMB     289      POPC     H11A     HAL2     0.900000E-01   1.00800           0
     38611 MEMB     289      POPC     H11B     HAL2     0.900000E-01   1.00800           0
     38612 MEMB     289      POPC     P        PL       1.50000        30.9740           0
     38613 MEMB     289      POPC     O13      O2L     -0.780000       15.9994           0
     38614 MEMB     289      POPC     O14      O2L     -0.780000       15.9994           0
     38615 MEMB     289      POPC     O12      OSLP    -0.570000       15.9994           0
     38616 MEMB     289      POPC     O11      OSLP    -0.570000       15.9994           0
     38617 MEMB     289      POPC     C1       CTL2    -0.800000E-01   12.0110           0
     38618 MEMB     289      POPC     HA       HAL2     0.900000E-01   1.00800           0
     38619 MEMB     289      POPC     HB       HAL2     0.900000E-01   1.00800           0
     38620 MEMB     289      POPC     C2       CTL1     0.170000       12.0110           0
     38621 MEMB     289      POPC     HS       HAL1     0.900000E-01   1.00800           0
     38622 MEMB     289      POPC     O21      OSL     -0.490000       15.9994           0
     38623 MEMB     289      POPC     C21      CL       0.900000       12.0110           0
     38624 MEMB     289      POPC     O22      OBL     -0.630000       15.9994           0
     38625 MEMB     289      POPC     C22      CTL2    -0.220000       12.0110           0
     38626 MEMB     289      POPC     H2R      HAL2     0.900000E-01   1.00800           0
     38627 MEMB     289      POPC     H2S      HAL2     0.900000E-01   1.00800           0
     38628 MEMB     289      POPC     C3       CTL2     0.800000E-01   12.0110           0
     38629 MEMB     289      POPC     HX       HAL2     0.900000E-01   1.00800           0
     38630 MEMB     289      POPC     HY       HAL2     0.900000E-01   1.00800           0
     38631 MEMB     289      POPC     O31      OSL     -0.490000       15.9994           0
     38632 MEMB     289      POPC     C31      CL       0.900000       12.0110           0
     38633 MEMB     289      POPC     O32      OBL     -0.630000       15.9994           0
     38634 MEMB     289      POPC     C32      CTL2    -0.220000       12.0110           0
     38635 MEMB     289      POPC     H2X      HAL2     0.900000E-01   1.00800           0
     38636 MEMB     289      POPC     H2Y      HAL2     0.900000E-01   1.00800           0
     38637 MEMB     289      POPC     C23      CTL2    -0.180000       12.0110           0
     38638 MEMB     289      POPC     H3R      HAL2     0.900000E-01   1.00800           0
     38639 MEMB     289      POPC     H3S      HAL2     0.900000E-01   1.00800           0
     38640 MEMB     289      POPC     C24      CTL2    -0.180000       12.0110           0
     38641 MEMB     289      POPC     H4R      HAL2     0.900000E-01   1.00800           0
     38642 MEMB     289      POPC     H4S      HAL2     0.900000E-01   1.00800           0
     38643 MEMB     289      POPC     C25      CTL2    -0.180000       12.0110           0
     38644 MEMB     289      POPC     H5R      HAL2     0.900000E-01   1.00800           0
     38645 MEMB     289      POPC     H5S      HAL2     0.900000E-01   1.00800           0
     38646 MEMB     289      POPC     C26      CTL2    -0.180000       12.0110           0
     38647 MEMB     289      POPC     H6R      HAL2     0.900000E-01   1.00800           0
     38648 MEMB     289      POPC     H6S      HAL2     0.900000E-01   1.00800           0
     38649 MEMB     289      POPC     C27      CTL2    -0.180000       12.0110           0
     38650 MEMB     289      POPC     H7R      HAL2     0.900000E-01   1.00800           0
     38651 MEMB     289      POPC     H7S      HAL2     0.900000E-01   1.00800           0
     38652 MEMB     289      POPC     C28      CTL2    -0.180000       12.0110           0
     38653 MEMB     289      POPC     H8R      HAL2     0.900000E-01   1.00800           0
     38654 MEMB     289      POPC     H8S      HAL2     0.900000E-01   1.00800           0
     38655 MEMB     289      POPC     C29      CEL1    -0.150000       12.0110           0
     38656 MEMB     289      POPC     H91      HEL1     0.150000       1.00800           0
     38657 MEMB     289      POPC     C210     CEL1    -0.150000       12.0110           0
     38658 MEMB     289      POPC     H101     HEL1     0.150000       1.00800           0
     38659 MEMB     289      POPC     C211     CTL2    -0.180000       12.0110           0
     38660 MEMB     289      POPC     H11R     HAL2     0.900000E-01   1.00800           0
     38661 MEMB     289      POPC     H11S     HAL2     0.900000E-01   1.00800           0
     38662 MEMB     289      POPC     C212     CTL2    -0.180000       12.0110           0
     38663 MEMB     289      POPC     H12R     HAL2     0.900000E-01   1.00800           0
     38664 MEMB     289      POPC     H12S     HAL2     0.900000E-01   1.00800           0
     38665 MEMB     289      POPC     C213     CTL2    -0.180000       12.0110           0
     38666 MEMB     289      POPC     H13R     HAL2     0.900000E-01   1.00800           0
     38667 MEMB     289      POPC     H13S     HAL2     0.900000E-01   1.00800           0
     38668 MEMB     289      POPC     C214     CTL2    -0.180000       12.0110           0
     38669 MEMB     289      POPC     H14R     HAL2     0.900000E-01   1.00800           0
     38670 MEMB     289      POPC     H14S     HAL2     0.900000E-01   1.00800           0
     38671 MEMB     289      POPC     C215     CTL2    -0.180000       12.0110           0
     38672 MEMB     289      POPC     H15R     HAL2     0.900000E-01   1.00800           0
     38673 MEMB     289      POPC     H15S     HAL2     0.900000E-01   1.00800           0
     38674 MEMB     289      POPC     C216     CTL2    -0.180000       12.0110           0
     38675 MEMB     289      POPC     H16R     HAL2     0.900000E-01   1.00800           0
     38676 MEMB     289      POPC     H16S     HAL2     0.900000E-01   1.00800           0
     38677 MEMB     289      POPC     C217     CTL2    -0.180000       12.0110           0
     38678 MEMB     289      POPC     H17R     HAL2     0.900000E-01   1.00800           0
     38679 MEMB     289      POPC     H17S     HAL2     0.900000E-01   1.00800           0
     38680 MEMB     289      POPC     C218     CTL3    -0.270000       12.0110           0
     38681 MEMB     289      POPC     H18R     HAL3     0.900000E-01   1.00800           0
     38682 MEMB     289      POPC     H18S     HAL3     0.900000E-01   1.00800           0
     38683 MEMB     289      POPC     H18T     HAL3     0.900000E-01   1.00800           0
     38684 MEMB     289      POPC     C33      CTL2    -0.180000       12.0110           0
     38685 MEMB     289      POPC     H3X      HAL2     0.900000E-01   1.00800           0
     38686 MEMB     289      POPC     H3Y      HAL2     0.900000E-01   1.00800           0
     38687 MEMB     289      POPC     C34      CTL2    -0.180000       12.0110           0
     38688 MEMB     289      POPC     H4X      HAL2     0.900000E-01   1.00800           0
     38689 MEMB     289      POPC     H4Y      HAL2     0.900000E-01   1.00800           0
     38690 MEMB     289      POPC     C35      CTL2    -0.180000       12.0110           0
     38691 MEMB     289      POPC     H5X      HAL2     0.900000E-01   1.00800           0
     38692 MEMB     289      POPC     H5Y      HAL2     0.900000E-01   1.00800           0
     38693 MEMB     289      POPC     C36      CTL2    -0.180000       12.0110           0
     38694 MEMB     289      POPC     H6X      HAL2     0.900000E-01   1.00800           0
     38695 MEMB     289      POPC     H6Y      HAL2     0.900000E-01   1.00800           0
     38696 MEMB     289      POPC     C37      CTL2    -0.180000       12.0110           0
     38697 MEMB     289      POPC     H7X      HAL2     0.900000E-01   1.00800           0
     38698 MEMB     289      POPC     H7Y      HAL2     0.900000E-01   1.00800           0
     38699 MEMB     289      POPC     C38      CTL2    -0.180000       12.0110           0
     38700 MEMB     289      POPC     H8X      HAL2     0.900000E-01   1.00800           0
     38701 MEMB     289      POPC     H8Y      HAL2     0.900000E-01   1.00800           0
     38702 MEMB     289      POPC     C39      CTL2    -0.180000       12.0110           0
     38703 MEMB     289      POPC     H9X      HAL2     0.900000E-01   1.00800           0
     38704 MEMB     289      POPC     H9Y      HAL2     0.900000E-01   1.00800           0
     38705 MEMB     289      POPC     C310     CTL2    -0.180000       12.0110           0
     38706 MEMB     289      POPC     H10X     HAL2     0.900000E-01   1.00800           0
     38707 MEMB     289      POPC     H10Y     HAL2     0.900000E-01   1.00800           0
     38708 MEMB     289      POPC     C311     CTL2    -0.180000       12.0110           0
     38709 MEMB     289      POPC     H11X     HAL2     0.900000E-01   1.00800           0
     38710 MEMB     289      POPC     H11Y     HAL2     0.900000E-01   1.00800           0
     38711 MEMB     289      POPC     C312     CTL2    -0.180000       12.0110           0
     38712 MEMB     289      POPC     H12X     HAL2     0.900000E-01   1.00800           0
     38713 MEMB     289      POPC     H12Y     HAL2     0.900000E-01   1.00800           0
     38714 MEMB     289      POPC     C313     CTL2    -0.180000       12.0110           0
     38715 MEMB     289      POPC     H13X     HAL2     0.900000E-01   1.00800           0
     38716 MEMB     289      POPC     H13Y     HAL2     0.900000E-01   1.00800           0
     38717 MEMB     289      POPC     C314     CTL2    -0.180000       12.0110           0
     38718 MEMB     289      POPC     H14X     HAL2     0.900000E-01   1.00800           0
     38719 MEMB     289      POPC     H14Y     HAL2     0.900000E-01   1.00800           0
     38720 MEMB     289      POPC     C315     CTL2    -0.180000       12.0110           0
     38721 MEMB     289      POPC     H15X     HAL2     0.900000E-01   1.00800           0
     38722 MEMB     289      POPC     H15Y     HAL2     0.900000E-01   1.00800           0
     38723 MEMB     289      POPC     C316     CTL3    -0.270000       12.0110           0
     38724 MEMB     289      POPC     H16X     HAL3     0.900000E-01   1.00800           0
     38725 MEMB     289      POPC     H16Y     HAL3     0.900000E-01   1.00800           0
     38726 MEMB     289      POPC     H16Z     HAL3     0.900000E-01   1.00800           0
     38727 MEMB     290      POPC     N        NTL     -0.600000       14.0070           0
     38728 MEMB     290      POPC     C12      CTL2    -0.100000       12.0110           0
     38729 MEMB     290      POPC     H12A     HL       0.250000       1.00800           0
     38730 MEMB     290      POPC     H12B     HL       0.250000       1.00800           0
     38731 MEMB     290      POPC     C13      CTL5    -0.350000       12.0110           0
     38732 MEMB     290      POPC     H13A     HL       0.250000       1.00800           0
     38733 MEMB     290      POPC     H13B     HL       0.250000       1.00800           0
     38734 MEMB     290      POPC     H13C     HL       0.250000       1.00800           0
     38735 MEMB     290      POPC     C14      CTL5    -0.350000       12.0110           0
     38736 MEMB     290      POPC     H14A     HL       0.250000       1.00800           0
     38737 MEMB     290      POPC     H14B     HL       0.250000       1.00800           0
     38738 MEMB     290      POPC     H14C     HL       0.250000       1.00800           0
     38739 MEMB     290      POPC     C15      CTL5    -0.350000       12.0110           0
     38740 MEMB     290      POPC     H15A     HL       0.250000       1.00800           0
     38741 MEMB     290      POPC     H15B     HL       0.250000       1.00800           0
     38742 MEMB     290      POPC     H15C     HL       0.250000       1.00800           0
     38743 MEMB     290      POPC     C11      CTL2    -0.800000E-01   12.0110           0
     38744 MEMB     290      POPC     H11A     HAL2     0.900000E-01   1.00800           0
     38745 MEMB     290      POPC     H11B     HAL2     0.900000E-01   1.00800           0
     38746 MEMB     290      POPC     P        PL       1.50000        30.9740           0
     38747 MEMB     290      POPC     O13      O2L     -0.780000       15.9994           0
     38748 MEMB     290      POPC     O14      O2L     -0.780000       15.9994           0
     38749 MEMB     290      POPC     O12      OSLP    -0.570000       15.9994           0
     38750 MEMB     290      POPC     O11      OSLP    -0.570000       15.9994           0
     38751 MEMB     290      POPC     C1       CTL2    -0.800000E-01   12.0110           0
     38752 MEMB     290      POPC     HA       HAL2     0.900000E-01   1.00800           0
     38753 MEMB     290      POPC     HB       HAL2     0.900000E-01   1.00800           0
     38754 MEMB     290      POPC     C2       CTL1     0.170000       12.0110           0
     38755 MEMB     290      POPC     HS       HAL1     0.900000E-01   1.00800           0
     38756 MEMB     290      POPC     O21      OSL     -0.490000       15.9994           0
     38757 MEMB     290      POPC     C21      CL       0.900000       12.0110           0
     38758 MEMB     290      POPC     O22      OBL     -0.630000       15.9994           0
     38759 MEMB     290      POPC     C22      CTL2    -0.220000       12.0110           0
     38760 MEMB     290      POPC     H2R      HAL2     0.900000E-01   1.00800           0
     38761 MEMB     290      POPC     H2S      HAL2     0.900000E-01   1.00800           0
     38762 MEMB     290      POPC     C3       CTL2     0.800000E-01   12.0110           0
     38763 MEMB     290      POPC     HX       HAL2     0.900000E-01   1.00800           0
     38764 MEMB     290      POPC     HY       HAL2     0.900000E-01   1.00800           0
     38765 MEMB     290      POPC     O31      OSL     -0.490000       15.9994           0
     38766 MEMB     290      POPC     C31      CL       0.900000       12.0110           0
     38767 MEMB     290      POPC     O32      OBL     -0.630000       15.9994           0
     38768 MEMB     290      POPC     C32      CTL2    -0.220000       12.0110           0
     38769 MEMB     290      POPC     H2X      HAL2     0.900000E-01   1.00800           0
     38770 MEMB     290      POPC     H2Y      HAL2     0.900000E-01   1.00800           0
     38771 MEMB     290      POPC     C23      CTL2    -0.180000       12.0110           0
     38772 MEMB     290      POPC     H3R      HAL2     0.900000E-01   1.00800           0
     38773 MEMB     290      POPC     H3S      HAL2     0.900000E-01   1.00800           0
     38774 MEMB     290      POPC     C24      CTL2    -0.180000       12.0110           0
     38775 MEMB     290      POPC     H4R      HAL2     0.900000E-01   1.00800           0
     38776 MEMB     290      POPC     H4S      HAL2     0.900000E-01   1.00800           0
     38777 MEMB     290      POPC     C25      CTL2    -0.180000       12.0110           0
     38778 MEMB     290      POPC     H5R      HAL2     0.900000E-01   1.00800           0
     38779 MEMB     290      POPC     H5S      HAL2     0.900000E-01   1.00800           0
     38780 MEMB     290      POPC     C26      CTL2    -0.180000       12.0110           0
     38781 MEMB     290      POPC     H6R      HAL2     0.900000E-01   1.00800           0
     38782 MEMB     290      POPC     H6S      HAL2     0.900000E-01   1.00800           0
     38783 MEMB     290      POPC     C27      CTL2    -0.180000       12.0110           0
     38784 MEMB     290      POPC     H7R      HAL2     0.900000E-01   1.00800           0
     38785 MEMB     290      POPC     H7S      HAL2     0.900000E-01   1.00800           0
     38786 MEMB     290      POPC     C28      CTL2    -0.180000       12.0110           0
     38787 MEMB     290      POPC     H8R      HAL2     0.900000E-01   1.00800           0
     38788 MEMB     290      POPC     H8S      HAL2     0.900000E-01   1.00800           0
     38789 MEMB     290      POPC     C29      CEL1    -0.150000       12.0110           0
     38790 MEMB     290      POPC     H91      HEL1     0.150000       1.00800           0
     38791 MEMB     290      POPC     C210     CEL1    -0.150000       12.0110           0
     38792 MEMB     290      POPC     H101     HEL1     0.150000       1.00800           0
     38793 MEMB     290      POPC     C211     CTL2    -0.180000       12.0110           0
     38794 MEMB     290      POPC     H11R     HAL2     0.900000E-01   1.00800           0
     38795 MEMB     290      POPC     H11S     HAL2     0.900000E-01   1.00800           0
     38796 MEMB     290      POPC     C212     CTL2    -0.180000       12.0110           0
     38797 MEMB     290      POPC     H12R     HAL2     0.900000E-01   1.00800           0
     38798 MEMB     290      POPC     H12S     HAL2     0.900000E-01   1.00800           0
     38799 MEMB     290      POPC     C213     CTL2    -0.180000       12.0110           0
     38800 MEMB     290      POPC     H13R     HAL2     0.900000E-01   1.00800           0
     38801 MEMB     290      POPC     H13S     HAL2     0.900000E-01   1.00800           0
     38802 MEMB     290      POPC     C214     CTL2    -0.180000       12.0110           0
     38803 MEMB     290      POPC     H14R     HAL2     0.900000E-01   1.00800           0
     38804 MEMB     290      POPC     H14S     HAL2     0.900000E-01   1.00800           0
     38805 MEMB     290      POPC     C215     CTL2    -0.180000       12.0110           0
     38806 MEMB     290      POPC     H15R     HAL2     0.900000E-01   1.00800           0
     38807 MEMB     290      POPC     H15S     HAL2     0.900000E-01   1.00800           0
     38808 MEMB     290      POPC     C216     CTL2    -0.180000       12.0110           0
     38809 MEMB     290      POPC     H16R     HAL2     0.900000E-01   1.00800           0
     38810 MEMB     290      POPC     H16S     HAL2     0.900000E-01   1.00800           0
     38811 MEMB     290      POPC     C217     CTL2    -0.180000       12.0110           0
     38812 MEMB     290      POPC     H17R     HAL2     0.900000E-01   1.00800           0
     38813 MEMB     290      POPC     H17S     HAL2     0.900000E-01   1.00800           0
     38814 MEMB     290      POPC     C218     CTL3    -0.270000       12.0110           0
     38815 MEMB     290      POPC     H18R     HAL3     0.900000E-01   1.00800           0
     38816 MEMB     290      POPC     H18S     HAL3     0.900000E-01   1.00800           0
     38817 MEMB     290      POPC     H18T     HAL3     0.900000E-01   1.00800           0
     38818 MEMB     290      POPC     C33      CTL2    -0.180000       12.0110           0
     38819 MEMB     290      POPC     H3X      HAL2     0.900000E-01   1.00800           0
     38820 MEMB     290      POPC     H3Y      HAL2     0.900000E-01   1.00800           0
     38821 MEMB     290      POPC     C34      CTL2    -0.180000       12.0110           0
     38822 MEMB     290      POPC     H4X      HAL2     0.900000E-01   1.00800           0
     38823 MEMB     290      POPC     H4Y      HAL2     0.900000E-01   1.00800           0
     38824 MEMB     290      POPC     C35      CTL2    -0.180000       12.0110           0
     38825 MEMB     290      POPC     H5X      HAL2     0.900000E-01   1.00800           0
     38826 MEMB     290      POPC     H5Y      HAL2     0.900000E-01   1.00800           0
     38827 MEMB     290      POPC     C36      CTL2    -0.180000       12.0110           0
     38828 MEMB     290      POPC     H6X      HAL2     0.900000E-01   1.00800           0
     38829 MEMB     290      POPC     H6Y      HAL2     0.900000E-01   1.00800           0
     38830 MEMB     290      POPC     C37      CTL2    -0.180000       12.0110           0
     38831 MEMB     290      POPC     H7X      HAL2     0.900000E-01   1.00800           0
     38832 MEMB     290      POPC     H7Y      HAL2     0.900000E-01   1.00800           0
     38833 MEMB     290      POPC     C38      CTL2    -0.180000       12.0110           0
     38834 MEMB     290      POPC     H8X      HAL2     0.900000E-01   1.00800           0
     38835 MEMB     290      POPC     H8Y      HAL2     0.900000E-01   1.00800           0
     38836 MEMB     290      POPC     C39      CTL2    -0.180000       12.0110           0
     38837 MEMB     290      POPC     H9X      HAL2     0.900000E-01   1.00800           0
     38838 MEMB     290      POPC     H9Y      HAL2     0.900000E-01   1.00800           0
     38839 MEMB     290      POPC     C310     CTL2    -0.180000       12.0110           0
     38840 MEMB     290      POPC     H10X     HAL2     0.900000E-01   1.00800           0
     38841 MEMB     290      POPC     H10Y     HAL2     0.900000E-01   1.00800           0
     38842 MEMB     290      POPC     C311     CTL2    -0.180000       12.0110           0
     38843 MEMB     290      POPC     H11X     HAL2     0.900000E-01   1.00800           0
     38844 MEMB     290      POPC     H11Y     HAL2     0.900000E-01   1.00800           0
     38845 MEMB     290      POPC     C312     CTL2    -0.180000       12.0110           0
     38846 MEMB     290      POPC     H12X     HAL2     0.900000E-01   1.00800           0
     38847 MEMB     290      POPC     H12Y     HAL2     0.900000E-01   1.00800           0
     38848 MEMB     290      POPC     C313     CTL2    -0.180000       12.0110           0
     38849 MEMB     290      POPC     H13X     HAL2     0.900000E-01   1.00800           0
     38850 MEMB     290      POPC     H13Y     HAL2     0.900000E-01   1.00800           0
     38851 MEMB     290      POPC     C314     CTL2    -0.180000       12.0110           0
     38852 MEMB     290      POPC     H14X     HAL2     0.900000E-01   1.00800           0
     38853 MEMB     290      POPC     H14Y     HAL2     0.900000E-01   1.00800           0
     38854 MEMB     290      POPC     C315     CTL2    -0.180000       12.0110           0
     38855 MEMB     290      POPC     H15X     HAL2     0.900000E-01   1.00800           0
     38856 MEMB     290      POPC     H15Y     HAL2     0.900000E-01   1.00800           0
     38857 MEMB     290      POPC     C316     CTL3    -0.270000       12.0110           0
     38858 MEMB     290      POPC     H16X     HAL3     0.900000E-01   1.00800           0
     38859 MEMB     290      POPC     H16Y     HAL3     0.900000E-01   1.00800           0
     38860 MEMB     290      POPC     H16Z     HAL3     0.900000E-01   1.00800           0
     38861 MEMB     291      POPC     N        NTL     -0.600000       14.0070           0
     38862 MEMB     291      POPC     C12      CTL2    -0.100000       12.0110           0
     38863 MEMB     291      POPC     H12A     HL       0.250000       1.00800           0
     38864 MEMB     291      POPC     H12B     HL       0.250000       1.00800           0
     38865 MEMB     291      POPC     C13      CTL5    -0.350000       12.0110           0
     38866 MEMB     291      POPC     H13A     HL       0.250000       1.00800           0
     38867 MEMB     291      POPC     H13B     HL       0.250000       1.00800           0
     38868 MEMB     291      POPC     H13C     HL       0.250000       1.00800           0
     38869 MEMB     291      POPC     C14      CTL5    -0.350000       12.0110           0
     38870 MEMB     291      POPC     H14A     HL       0.250000       1.00800           0
     38871 MEMB     291      POPC     H14B     HL       0.250000       1.00800           0
     38872 MEMB     291      POPC     H14C     HL       0.250000       1.00800           0
     38873 MEMB     291      POPC     C15      CTL5    -0.350000       12.0110           0
     38874 MEMB     291      POPC     H15A     HL       0.250000       1.00800           0
     38875 MEMB     291      POPC     H15B     HL       0.250000       1.00800           0
     38876 MEMB     291      POPC     H15C     HL       0.250000       1.00800           0
     38877 MEMB     291      POPC     C11      CTL2    -0.800000E-01   12.0110           0
     38878 MEMB     291      POPC     H11A     HAL2     0.900000E-01   1.00800           0
     38879 MEMB     291      POPC     H11B     HAL2     0.900000E-01   1.00800           0
     38880 MEMB     291      POPC     P        PL       1.50000        30.9740           0
     38881 MEMB     291      POPC     O13      O2L     -0.780000       15.9994           0
     38882 MEMB     291      POPC     O14      O2L     -0.780000       15.9994           0
     38883 MEMB     291      POPC     O12      OSLP    -0.570000       15.9994           0
     38884 MEMB     291      POPC     O11      OSLP    -0.570000       15.9994           0
     38885 MEMB     291      POPC     C1       CTL2    -0.800000E-01   12.0110           0
     38886 MEMB     291      POPC     HA       HAL2     0.900000E-01   1.00800           0
     38887 MEMB     291      POPC     HB       HAL2     0.900000E-01   1.00800           0
     38888 MEMB     291      POPC     C2       CTL1     0.170000       12.0110           0
     38889 MEMB     291      POPC     HS       HAL1     0.900000E-01   1.00800           0
     38890 MEMB     291      POPC     O21      OSL     -0.490000       15.9994           0
     38891 MEMB     291      POPC     C21      CL       0.900000       12.0110           0
     38892 MEMB     291      POPC     O22      OBL     -0.630000       15.9994           0
     38893 MEMB     291      POPC     C22      CTL2    -0.220000       12.0110           0
     38894 MEMB     291      POPC     H2R      HAL2     0.900000E-01   1.00800           0
     38895 MEMB     291      POPC     H2S      HAL2     0.900000E-01   1.00800           0
     38896 MEMB     291      POPC     C3       CTL2     0.800000E-01   12.0110           0
     38897 MEMB     291      POPC     HX       HAL2     0.900000E-01   1.00800           0
     38898 MEMB     291      POPC     HY       HAL2     0.900000E-01   1.00800           0
     38899 MEMB     291      POPC     O31      OSL     -0.490000       15.9994           0
     38900 MEMB     291      POPC     C31      CL       0.900000       12.0110           0
     38901 MEMB     291      POPC     O32      OBL     -0.630000       15.9994           0
     38902 MEMB     291      POPC     C32      CTL2    -0.220000       12.0110           0
     38903 MEMB     291      POPC     H2X      HAL2     0.900000E-01   1.00800           0
     38904 MEMB     291      POPC     H2Y      HAL2     0.900000E-01   1.00800           0
     38905 MEMB     291      POPC     C23      CTL2    -0.180000       12.0110           0
     38906 MEMB     291      POPC     H3R      HAL2     0.900000E-01   1.00800           0
     38907 MEMB     291      POPC     H3S      HAL2     0.900000E-01   1.00800           0
     38908 MEMB     291      POPC     C24      CTL2    -0.180000       12.0110           0
     38909 MEMB     291      POPC     H4R      HAL2     0.900000E-01   1.00800           0
     38910 MEMB     291      POPC     H4S      HAL2     0.900000E-01   1.00800           0
     38911 MEMB     291      POPC     C25      CTL2    -0.180000       12.0110           0
     38912 MEMB     291      POPC     H5R      HAL2     0.900000E-01   1.00800           0
     38913 MEMB     291      POPC     H5S      HAL2     0.900000E-01   1.00800           0
     38914 MEMB     291      POPC     C26      CTL2    -0.180000       12.0110           0
     38915 MEMB     291      POPC     H6R      HAL2     0.900000E-01   1.00800           0
     38916 MEMB     291      POPC     H6S      HAL2     0.900000E-01   1.00800           0
     38917 MEMB     291      POPC     C27      CTL2    -0.180000       12.0110           0
     38918 MEMB     291      POPC     H7R      HAL2     0.900000E-01   1.00800           0
     38919 MEMB     291      POPC     H7S      HAL2     0.900000E-01   1.00800           0
     38920 MEMB     291      POPC     C28      CTL2    -0.180000       12.0110           0
     38921 MEMB     291      POPC     H8R      HAL2     0.900000E-01   1.00800           0
     38922 MEMB     291      POPC     H8S      HAL2     0.900000E-01   1.00800           0
     38923 MEMB     291      POPC     C29      CEL1    -0.150000       12.0110           0
     38924 MEMB     291      POPC     H91      HEL1     0.150000       1.00800           0
     38925 MEMB     291      POPC     C210     CEL1    -0.150000       12.0110           0
     38926 MEMB     291      POPC     H101     HEL1     0.150000       1.00800           0
     38927 MEMB     291      POPC     C211     CTL2    -0.180000       12.0110           0
     38928 MEMB     291      POPC     H11R     HAL2     0.900000E-01   1.00800           0
     38929 MEMB     291      POPC     H11S     HAL2     0.900000E-01   1.00800           0
     38930 MEMB     291      POPC     C212     CTL2    -0.180000       12.0110           0
     38931 MEMB     291      POPC     H12R     HAL2     0.900000E-01   1.00800           0
     38932 MEMB     291      POPC     H12S     HAL2     0.900000E-01   1.00800           0
     38933 MEMB     291      POPC     C213     CTL2    -0.180000       12.0110           0
     38934 MEMB     291      POPC     H13R     HAL2     0.900000E-01   1.00800           0
     38935 MEMB     291      POPC     H13S     HAL2     0.900000E-01   1.00800           0
     38936 MEMB     291      POPC     C214     CTL2    -0.180000       12.0110           0
     38937 MEMB     291      POPC     H14R     HAL2     0.900000E-01   1.00800           0
     38938 MEMB     291      POPC     H14S     HAL2     0.900000E-01   1.00800           0
     38939 MEMB     291      POPC     C215     CTL2    -0.180000       12.0110           0
     38940 MEMB     291      POPC     H15R     HAL2     0.900000E-01   1.00800           0
     38941 MEMB     291      POPC     H15S     HAL2     0.900000E-01   1.00800           0
     38942 MEMB     291      POPC     C216     CTL2    -0.180000       12.0110           0
     38943 MEMB     291      POPC     H16R     HAL2     0.900000E-01   1.00800           0
     38944 MEMB     291      POPC     H16S     HAL2     0.900000E-01   1.00800           0
     38945 MEMB     291      POPC     C217     CTL2    -0.180000       12.0110           0
     38946 MEMB     291      POPC     H17R     HAL2     0.900000E-01   1.00800           0
     38947 MEMB     291      POPC     H17S     HAL2     0.900000E-01   1.00800           0
     38948 MEMB     291      POPC     C218     CTL3    -0.270000       12.0110           0
     38949 MEMB     291      POPC     H18R     HAL3     0.900000E-01   1.00800           0
     38950 MEMB     291      POPC     H18S     HAL3     0.900000E-01   1.00800           0
     38951 MEMB     291      POPC     H18T     HAL3     0.900000E-01   1.00800           0
     38952 MEMB     291      POPC     C33      CTL2    -0.180000       12.0110           0
     38953 MEMB     291      POPC     H3X      HAL2     0.900000E-01   1.00800           0
     38954 MEMB     291      POPC     H3Y      HAL2     0.900000E-01   1.00800           0
     38955 MEMB     291      POPC     C34      CTL2    -0.180000       12.0110           0
     38956 MEMB     291      POPC     H4X      HAL2     0.900000E-01   1.00800           0
     38957 MEMB     291      POPC     H4Y      HAL2     0.900000E-01   1.00800           0
     38958 MEMB     291      POPC     C35      CTL2    -0.180000       12.0110           0
     38959 MEMB     291      POPC     H5X      HAL2     0.900000E-01   1.00800           0
     38960 MEMB     291      POPC     H5Y      HAL2     0.900000E-01   1.00800           0
     38961 MEMB     291      POPC     C36      CTL2    -0.180000       12.0110           0
     38962 MEMB     291      POPC     H6X      HAL2     0.900000E-01   1.00800           0
     38963 MEMB     291      POPC     H6Y      HAL2     0.900000E-01   1.00800           0
     38964 MEMB     291      POPC     C37      CTL2    -0.180000       12.0110           0
     38965 MEMB     291      POPC     H7X      HAL2     0.900000E-01   1.00800           0
     38966 MEMB     291      POPC     H7Y      HAL2     0.900000E-01   1.00800           0
     38967 MEMB     291      POPC     C38      CTL2    -0.180000       12.0110           0
     38968 MEMB     291      POPC     H8X      HAL2     0.900000E-01   1.00800           0
     38969 MEMB     291      POPC     H8Y      HAL2     0.900000E-01   1.00800           0
     38970 MEMB     291      POPC     C39      CTL2    -0.180000       12.0110           0
     38971 MEMB     291      POPC     H9X      HAL2     0.900000E-01   1.00800           0
     38972 MEMB     291      POPC     H9Y      HAL2     0.900000E-01   1.00800           0
     38973 MEMB     291      POPC     C310     CTL2    -0.180000       12.0110           0
     38974 MEMB     291      POPC     H10X     HAL2     0.900000E-01   1.00800           0
     38975 MEMB     291      POPC     H10Y     HAL2     0.900000E-01   1.00800           0
     38976 MEMB     291      POPC     C311     CTL2    -0.180000       12.0110           0
     38977 MEMB     291      POPC     H11X     HAL2     0.900000E-01   1.00800           0
     38978 MEMB     291      POPC     H11Y     HAL2     0.900000E-01   1.00800           0
     38979 MEMB     291      POPC     C312     CTL2    -0.180000       12.0110           0
     38980 MEMB     291      POPC     H12X     HAL2     0.900000E-01   1.00800           0
     38981 MEMB     291      POPC     H12Y     HAL2     0.900000E-01   1.00800           0
     38982 MEMB     291      POPC     C313     CTL2    -0.180000       12.0110           0
     38983 MEMB     291      POPC     H13X     HAL2     0.900000E-01   1.00800           0
     38984 MEMB     291      POPC     H13Y     HAL2     0.900000E-01   1.00800           0
     38985 MEMB     291      POPC     C314     CTL2    -0.180000       12.0110           0
     38986 MEMB     291      POPC     H14X     HAL2     0.900000E-01   1.00800           0
     38987 MEMB     291      POPC     H14Y     HAL2     0.900000E-01   1.00800           0
     38988 MEMB     291      POPC     C315     CTL2    -0.180000       12.0110           0
     38989 MEMB     291      POPC     H15X     HAL2     0.900000E-01   1.00800           0
     38990 MEMB     291      POPC     H15Y     HAL2     0.900000E-01   1.00800           0
     38991 MEMB     291      POPC     C316     CTL3    -0.270000       12.0110           0
     38992 MEMB     291      POPC     H16X     HAL3     0.900000E-01   1.00800           0
     38993 MEMB     291      POPC     H16Y     HAL3     0.900000E-01   1.00800           0
     38994 MEMB     291      POPC     H16Z     HAL3     0.900000E-01   1.00800           0
     38995 MEMB     292      POPC     N        NTL     -0.600000       14.0070           0
     38996 MEMB     292      POPC     C12      CTL2    -0.100000       12.0110           0
     38997 MEMB     292      POPC     H12A     HL       0.250000       1.00800           0
     38998 MEMB     292      POPC     H12B     HL       0.250000       1.00800           0
     38999 MEMB     292      POPC     C13      CTL5    -0.350000       12.0110           0
     39000 MEMB     292      POPC     H13A     HL       0.250000       1.00800           0
     39001 MEMB     292      POPC     H13B     HL       0.250000       1.00800           0
     39002 MEMB     292      POPC     H13C     HL       0.250000       1.00800           0
     39003 MEMB     292      POPC     C14      CTL5    -0.350000       12.0110           0
     39004 MEMB     292      POPC     H14A     HL       0.250000       1.00800           0
     39005 MEMB     292      POPC     H14B     HL       0.250000       1.00800           0
     39006 MEMB     292      POPC     H14C     HL       0.250000       1.00800           0
     39007 MEMB     292      POPC     C15      CTL5    -0.350000       12.0110           0
     39008 MEMB     292      POPC     H15A     HL       0.250000       1.00800           0
     39009 MEMB     292      POPC     H15B     HL       0.250000       1.00800           0
     39010 MEMB     292      POPC     H15C     HL       0.250000       1.00800           0
     39011 MEMB     292      POPC     C11      CTL2    -0.800000E-01   12.0110           0
     39012 MEMB     292      POPC     H11A     HAL2     0.900000E-01   1.00800           0
     39013 MEMB     292      POPC     H11B     HAL2     0.900000E-01   1.00800           0
     39014 MEMB     292      POPC     P        PL       1.50000        30.9740           0
     39015 MEMB     292      POPC     O13      O2L     -0.780000       15.9994           0
     39016 MEMB     292      POPC     O14      O2L     -0.780000       15.9994           0
     39017 MEMB     292      POPC     O12      OSLP    -0.570000       15.9994           0
     39018 MEMB     292      POPC     O11      OSLP    -0.570000       15.9994           0
     39019 MEMB     292      POPC     C1       CTL2    -0.800000E-01   12.0110           0
     39020 MEMB     292      POPC     HA       HAL2     0.900000E-01   1.00800           0
     39021 MEMB     292      POPC     HB       HAL2     0.900000E-01   1.00800           0
     39022 MEMB     292      POPC     C2       CTL1     0.170000       12.0110           0
     39023 MEMB     292      POPC     HS       HAL1     0.900000E-01   1.00800           0
     39024 MEMB     292      POPC     O21      OSL     -0.490000       15.9994           0
     39025 MEMB     292      POPC     C21      CL       0.900000       12.0110           0
     39026 MEMB     292      POPC     O22      OBL     -0.630000       15.9994           0
     39027 MEMB     292      POPC     C22      CTL2    -0.220000       12.0110           0
     39028 MEMB     292      POPC     H2R      HAL2     0.900000E-01   1.00800           0
     39029 MEMB     292      POPC     H2S      HAL2     0.900000E-01   1.00800           0
     39030 MEMB     292      POPC     C3       CTL2     0.800000E-01   12.0110           0
     39031 MEMB     292      POPC     HX       HAL2     0.900000E-01   1.00800           0
     39032 MEMB     292      POPC     HY       HAL2     0.900000E-01   1.00800           0
     39033 MEMB     292      POPC     O31      OSL     -0.490000       15.9994           0
     39034 MEMB     292      POPC     C31      CL       0.900000       12.0110           0
     39035 MEMB     292      POPC     O32      OBL     -0.630000       15.9994           0
     39036 MEMB     292      POPC     C32      CTL2    -0.220000       12.0110           0
     39037 MEMB     292      POPC     H2X      HAL2     0.900000E-01   1.00800           0
     39038 MEMB     292      POPC     H2Y      HAL2     0.900000E-01   1.00800           0
     39039 MEMB     292      POPC     C23      CTL2    -0.180000       12.0110           0
     39040 MEMB     292      POPC     H3R      HAL2     0.900000E-01   1.00800           0
     39041 MEMB     292      POPC     H3S      HAL2     0.900000E-01   1.00800           0
     39042 MEMB     292      POPC     C24      CTL2    -0.180000       12.0110           0
     39043 MEMB     292      POPC     H4R      HAL2     0.900000E-01   1.00800           0
     39044 MEMB     292      POPC     H4S      HAL2     0.900000E-01   1.00800           0
     39045 MEMB     292      POPC     C25      CTL2    -0.180000       12.0110           0
     39046 MEMB     292      POPC     H5R      HAL2     0.900000E-01   1.00800           0
     39047 MEMB     292      POPC     H5S      HAL2     0.900000E-01   1.00800           0
     39048 MEMB     292      POPC     C26      CTL2    -0.180000       12.0110           0
     39049 MEMB     292      POPC     H6R      HAL2     0.900000E-01   1.00800           0
     39050 MEMB     292      POPC     H6S      HAL2     0.900000E-01   1.00800           0
     39051 MEMB     292      POPC     C27      CTL2    -0.180000       12.0110           0
     39052 MEMB     292      POPC     H7R      HAL2     0.900000E-01   1.00800           0
     39053 MEMB     292      POPC     H7S      HAL2     0.900000E-01   1.00800           0
     39054 MEMB     292      POPC     C28      CTL2    -0.180000       12.0110           0
     39055 MEMB     292      POPC     H8R      HAL2     0.900000E-01   1.00800           0
     39056 MEMB     292      POPC     H8S      HAL2     0.900000E-01   1.00800           0
     39057 MEMB     292      POPC     C29      CEL1    -0.150000       12.0110           0
     39058 MEMB     292      POPC     H91      HEL1     0.150000       1.00800           0
     39059 MEMB     292      POPC     C210     CEL1    -0.150000       12.0110           0
     39060 MEMB     292      POPC     H101     HEL1     0.150000       1.00800           0
     39061 MEMB     292      POPC     C211     CTL2    -0.180000       12.0110           0
     39062 MEMB     292      POPC     H11R     HAL2     0.900000E-01   1.00800           0
     39063 MEMB     292      POPC     H11S     HAL2     0.900000E-01   1.00800           0
     39064 MEMB     292      POPC     C212     CTL2    -0.180000       12.0110           0
     39065 MEMB     292      POPC     H12R     HAL2     0.900000E-01   1.00800           0
     39066 MEMB     292      POPC     H12S     HAL2     0.900000E-01   1.00800           0
     39067 MEMB     292      POPC     C213     CTL2    -0.180000       12.0110           0
     39068 MEMB     292      POPC     H13R     HAL2     0.900000E-01   1.00800           0
     39069 MEMB     292      POPC     H13S     HAL2     0.900000E-01   1.00800           0
     39070 MEMB     292      POPC     C214     CTL2    -0.180000       12.0110           0
     39071 MEMB     292      POPC     H14R     HAL2     0.900000E-01   1.00800           0
     39072 MEMB     292      POPC     H14S     HAL2     0.900000E-01   1.00800           0
     39073 MEMB     292      POPC     C215     CTL2    -0.180000       12.0110           0
     39074 MEMB     292      POPC     H15R     HAL2     0.900000E-01   1.00800           0
     39075 MEMB     292      POPC     H15S     HAL2     0.900000E-01   1.00800           0
     39076 MEMB     292      POPC     C216     CTL2    -0.180000       12.0110           0
     39077 MEMB     292      POPC     H16R     HAL2     0.900000E-01   1.00800           0
     39078 MEMB     292      POPC     H16S     HAL2     0.900000E-01   1.00800           0
     39079 MEMB     292      POPC     C217     CTL2    -0.180000       12.0110           0
     39080 MEMB     292      POPC     H17R     HAL2     0.900000E-01   1.00800           0
     39081 MEMB     292      POPC     H17S     HAL2     0.900000E-01   1.00800           0
     39082 MEMB     292      POPC     C218     CTL3    -0.270000       12.0110           0
     39083 MEMB     292      POPC     H18R     HAL3     0.900000E-01   1.00800           0
     39084 MEMB     292      POPC     H18S     HAL3     0.900000E-01   1.00800           0
     39085 MEMB     292      POPC     H18T     HAL3     0.900000E-01   1.00800           0
     39086 MEMB     292      POPC     C33      CTL2    -0.180000       12.0110           0
     39087 MEMB     292      POPC     H3X      HAL2     0.900000E-01   1.00800           0
     39088 MEMB     292      POPC     H3Y      HAL2     0.900000E-01   1.00800           0
     39089 MEMB     292      POPC     C34      CTL2    -0.180000       12.0110           0
     39090 MEMB     292      POPC     H4X      HAL2     0.900000E-01   1.00800           0
     39091 MEMB     292      POPC     H4Y      HAL2     0.900000E-01   1.00800           0
     39092 MEMB     292      POPC     C35      CTL2    -0.180000       12.0110           0
     39093 MEMB     292      POPC     H5X      HAL2     0.900000E-01   1.00800           0
     39094 MEMB     292      POPC     H5Y      HAL2     0.900000E-01   1.00800           0
     39095 MEMB     292      POPC     C36      CTL2    -0.180000       12.0110           0
     39096 MEMB     292      POPC     H6X      HAL2     0.900000E-01   1.00800           0
     39097 MEMB     292      POPC     H6Y      HAL2     0.900000E-01   1.00800           0
     39098 MEMB     292      POPC     C37      CTL2    -0.180000       12.0110           0
     39099 MEMB     292      POPC     H7X      HAL2     0.900000E-01   1.00800           0
     39100 MEMB     292      POPC     H7Y      HAL2     0.900000E-01   1.00800           0
     39101 MEMB     292      POPC     C38      CTL2    -0.180000       12.0110           0
     39102 MEMB     292      POPC     H8X      HAL2     0.900000E-01   1.00800           0
     39103 MEMB     292      POPC     H8Y      HAL2     0.900000E-01   1.00800           0
     39104 MEMB     292      POPC     C39      CTL2    -0.180000       12.0110           0
     39105 MEMB     292      POPC     H9X      HAL2     0.900000E-01   1.00800           0
     39106 MEMB     292      POPC     H9Y      HAL2     0.900000E-01   1.00800           0
     39107 MEMB     292      POPC     C310     CTL2    -0.180000       12.0110           0
     39108 MEMB     292      POPC     H10X     HAL2     0.900000E-01   1.00800           0
     39109 MEMB     292      POPC     H10Y     HAL2     0.900000E-01   1.00800           0
     39110 MEMB     292      POPC     C311     CTL2    -0.180000       12.0110           0
     39111 MEMB     292      POPC     H11X     HAL2     0.900000E-01   1.00800           0
     39112 MEMB     292      POPC     H11Y     HAL2     0.900000E-01   1.00800           0
     39113 MEMB     292      POPC     C312     CTL2    -0.180000       12.0110           0
     39114 MEMB     292      POPC     H12X     HAL2     0.900000E-01   1.00800           0
     39115 MEMB     292      POPC     H12Y     HAL2     0.900000E-01   1.00800           0
     39116 MEMB     292      POPC     C313     CTL2    -0.180000       12.0110           0
     39117 MEMB     292      POPC     H13X     HAL2     0.900000E-01   1.00800           0
     39118 MEMB     292      POPC     H13Y     HAL2     0.900000E-01   1.00800           0
     39119 MEMB     292      POPC     C314     CTL2    -0.180000       12.0110           0
     39120 MEMB     292      POPC     H14X     HAL2     0.900000E-01   1.00800           0
     39121 MEMB     292      POPC     H14Y     HAL2     0.900000E-01   1.00800           0
     39122 MEMB     292      POPC     C315     CTL2    -0.180000       12.0110           0
     39123 MEMB     292      POPC     H15X     HAL2     0.900000E-01   1.00800           0
     39124 MEMB     292      POPC     H15Y     HAL2     0.900000E-01   1.00800           0
     39125 MEMB     292      POPC     C316     CTL3    -0.270000       12.0110           0
     39126 MEMB     292      POPC     H16X     HAL3     0.900000E-01   1.00800           0
     39127 MEMB     292      POPC     H16Y     HAL3     0.900000E-01   1.00800           0
     39128 MEMB     292      POPC     H16Z     HAL3     0.900000E-01   1.00800           0
     39129 MEMB     293      POPC     N        NTL     -0.600000       14.0070           0
     39130 MEMB     293      POPC     C12      CTL2    -0.100000       12.0110           0
     39131 MEMB     293      POPC     H12A     HL       0.250000       1.00800           0
     39132 MEMB     293      POPC     H12B     HL       0.250000       1.00800           0
     39133 MEMB     293      POPC     C13      CTL5    -0.350000       12.0110           0
     39134 MEMB     293      POPC     H13A     HL       0.250000       1.00800           0
     39135 MEMB     293      POPC     H13B     HL       0.250000       1.00800           0
     39136 MEMB     293      POPC     H13C     HL       0.250000       1.00800           0
     39137 MEMB     293      POPC     C14      CTL5    -0.350000       12.0110           0
     39138 MEMB     293      POPC     H14A     HL       0.250000       1.00800           0
     39139 MEMB     293      POPC     H14B     HL       0.250000       1.00800           0
     39140 MEMB     293      POPC     H14C     HL       0.250000       1.00800           0
     39141 MEMB     293      POPC     C15      CTL5    -0.350000       12.0110           0
     39142 MEMB     293      POPC     H15A     HL       0.250000       1.00800           0
     39143 MEMB     293      POPC     H15B     HL       0.250000       1.00800           0
     39144 MEMB     293      POPC     H15C     HL       0.250000       1.00800           0
     39145 MEMB     293      POPC     C11      CTL2    -0.800000E-01   12.0110           0
     39146 MEMB     293      POPC     H11A     HAL2     0.900000E-01   1.00800           0
     39147 MEMB     293      POPC     H11B     HAL2     0.900000E-01   1.00800           0
     39148 MEMB     293      POPC     P        PL       1.50000        30.9740           0
     39149 MEMB     293      POPC     O13      O2L     -0.780000       15.9994           0
     39150 MEMB     293      POPC     O14      O2L     -0.780000       15.9994           0
     39151 MEMB     293      POPC     O12      OSLP    -0.570000       15.9994           0
     39152 MEMB     293      POPC     O11      OSLP    -0.570000       15.9994           0
     39153 MEMB     293      POPC     C1       CTL2    -0.800000E-01   12.0110           0
     39154 MEMB     293      POPC     HA       HAL2     0.900000E-01   1.00800           0
     39155 MEMB     293      POPC     HB       HAL2     0.900000E-01   1.00800           0
     39156 MEMB     293      POPC     C2       CTL1     0.170000       12.0110           0
     39157 MEMB     293      POPC     HS       HAL1     0.900000E-01   1.00800           0
     39158 MEMB     293      POPC     O21      OSL     -0.490000       15.9994           0
     39159 MEMB     293      POPC     C21      CL       0.900000       12.0110           0
     39160 MEMB     293      POPC     O22      OBL     -0.630000       15.9994           0
     39161 MEMB     293      POPC     C22      CTL2    -0.220000       12.0110           0
     39162 MEMB     293      POPC     H2R      HAL2     0.900000E-01   1.00800           0
     39163 MEMB     293      POPC     H2S      HAL2     0.900000E-01   1.00800           0
     39164 MEMB     293      POPC     C3       CTL2     0.800000E-01   12.0110           0
     39165 MEMB     293      POPC     HX       HAL2     0.900000E-01   1.00800           0
     39166 MEMB     293      POPC     HY       HAL2     0.900000E-01   1.00800           0
     39167 MEMB     293      POPC     O31      OSL     -0.490000       15.9994           0
     39168 MEMB     293      POPC     C31      CL       0.900000       12.0110           0
     39169 MEMB     293      POPC     O32      OBL     -0.630000       15.9994           0
     39170 MEMB     293      POPC     C32      CTL2    -0.220000       12.0110           0
     39171 MEMB     293      POPC     H2X      HAL2     0.900000E-01   1.00800           0
     39172 MEMB     293      POPC     H2Y      HAL2     0.900000E-01   1.00800           0
     39173 MEMB     293      POPC     C23      CTL2    -0.180000       12.0110           0
     39174 MEMB     293      POPC     H3R      HAL2     0.900000E-01   1.00800           0
     39175 MEMB     293      POPC     H3S      HAL2     0.900000E-01   1.00800           0
     39176 MEMB     293      POPC     C24      CTL2    -0.180000       12.0110           0
     39177 MEMB     293      POPC     H4R      HAL2     0.900000E-01   1.00800           0
     39178 MEMB     293      POPC     H4S      HAL2     0.900000E-01   1.00800           0
     39179 MEMB     293      POPC     C25      CTL2    -0.180000       12.0110           0
     39180 MEMB     293      POPC     H5R      HAL2     0.900000E-01   1.00800           0
     39181 MEMB     293      POPC     H5S      HAL2     0.900000E-01   1.00800           0
     39182 MEMB     293      POPC     C26      CTL2    -0.180000       12.0110           0
     39183 MEMB     293      POPC     H6R      HAL2     0.900000E-01   1.00800           0
     39184 MEMB     293      POPC     H6S      HAL2     0.900000E-01   1.00800           0
     39185 MEMB     293      POPC     C27      CTL2    -0.180000       12.0110           0
     39186 MEMB     293      POPC     H7R      HAL2     0.900000E-01   1.00800           0
     39187 MEMB     293      POPC     H7S      HAL2     0.900000E-01   1.00800           0
     39188 MEMB     293      POPC     C28      CTL2    -0.180000       12.0110           0
     39189 MEMB     293      POPC     H8R      HAL2     0.900000E-01   1.00800           0
     39190 MEMB     293      POPC     H8S      HAL2     0.900000E-01   1.00800           0
     39191 MEMB     293      POPC     C29      CEL1    -0.150000       12.0110           0
     39192 MEMB     293      POPC     H91      HEL1     0.150000       1.00800           0
     39193 MEMB     293      POPC     C210     CEL1    -0.150000       12.0110           0
     39194 MEMB     293      POPC     H101     HEL1     0.150000       1.00800           0
     39195 MEMB     293      POPC     C211     CTL2    -0.180000       12.0110           0
     39196 MEMB     293      POPC     H11R     HAL2     0.900000E-01   1.00800           0
     39197 MEMB     293      POPC     H11S     HAL2     0.900000E-01   1.00800           0
     39198 MEMB     293      POPC     C212     CTL2    -0.180000       12.0110           0
     39199 MEMB     293      POPC     H12R     HAL2     0.900000E-01   1.00800           0
     39200 MEMB     293      POPC     H12S     HAL2     0.900000E-01   1.00800           0
     39201 MEMB     293      POPC     C213     CTL2    -0.180000       12.0110           0
     39202 MEMB     293      POPC     H13R     HAL2     0.900000E-01   1.00800           0
     39203 MEMB     293      POPC     H13S     HAL2     0.900000E-01   1.00800           0
     39204 MEMB     293      POPC     C214     CTL2    -0.180000       12.0110           0
     39205 MEMB     293      POPC     H14R     HAL2     0.900000E-01   1.00800           0
     39206 MEMB     293      POPC     H14S     HAL2     0.900000E-01   1.00800           0
     39207 MEMB     293      POPC     C215     CTL2    -0.180000       12.0110           0
     39208 MEMB     293      POPC     H15R     HAL2     0.900000E-01   1.00800           0
     39209 MEMB     293      POPC     H15S     HAL2     0.900000E-01   1.00800           0
     39210 MEMB     293      POPC     C216     CTL2    -0.180000       12.0110           0
     39211 MEMB     293      POPC     H16R     HAL2     0.900000E-01   1.00800           0
     39212 MEMB     293      POPC     H16S     HAL2     0.900000E-01   1.00800           0
     39213 MEMB     293      POPC     C217     CTL2    -0.180000       12.0110           0
     39214 MEMB     293      POPC     H17R     HAL2     0.900000E-01   1.00800           0
     39215 MEMB     293      POPC     H17S     HAL2     0.900000E-01   1.00800           0
     39216 MEMB     293      POPC     C218     CTL3    -0.270000       12.0110           0
     39217 MEMB     293      POPC     H18R     HAL3     0.900000E-01   1.00800           0
     39218 MEMB     293      POPC     H18S     HAL3     0.900000E-01   1.00800           0
     39219 MEMB     293      POPC     H18T     HAL3     0.900000E-01   1.00800           0
     39220 MEMB     293      POPC     C33      CTL2    -0.180000       12.0110           0
     39221 MEMB     293      POPC     H3X      HAL2     0.900000E-01   1.00800           0
     39222 MEMB     293      POPC     H3Y      HAL2     0.900000E-01   1.00800           0
     39223 MEMB     293      POPC     C34      CTL2    -0.180000       12.0110           0
     39224 MEMB     293      POPC     H4X      HAL2     0.900000E-01   1.00800           0
     39225 MEMB     293      POPC     H4Y      HAL2     0.900000E-01   1.00800           0
     39226 MEMB     293      POPC     C35      CTL2    -0.180000       12.0110           0
     39227 MEMB     293      POPC     H5X      HAL2     0.900000E-01   1.00800           0
     39228 MEMB     293      POPC     H5Y      HAL2     0.900000E-01   1.00800           0
     39229 MEMB     293      POPC     C36      CTL2    -0.180000       12.0110           0
     39230 MEMB     293      POPC     H6X      HAL2     0.900000E-01   1.00800           0
     39231 MEMB     293      POPC     H6Y      HAL2     0.900000E-01   1.00800           0
     39232 MEMB     293      POPC     C37      CTL2    -0.180000       12.0110           0
     39233 MEMB     293      POPC     H7X      HAL2     0.900000E-01   1.00800           0
     39234 MEMB     293      POPC     H7Y      HAL2     0.900000E-01   1.00800           0
     39235 MEMB     293      POPC     C38      CTL2    -0.180000       12.0110           0
     39236 MEMB     293      POPC     H8X      HAL2     0.900000E-01   1.00800           0
     39237 MEMB     293      POPC     H8Y      HAL2     0.900000E-01   1.00800           0
     39238 MEMB     293      POPC     C39      CTL2    -0.180000       12.0110           0
     39239 MEMB     293      POPC     H9X      HAL2     0.900000E-01   1.00800           0
     39240 MEMB     293      POPC     H9Y      HAL2     0.900000E-01   1.00800           0
     39241 MEMB     293      POPC     C310     CTL2    -0.180000       12.0110           0
     39242 MEMB     293      POPC     H10X     HAL2     0.900000E-01   1.00800           0
     39243 MEMB     293      POPC     H10Y     HAL2     0.900000E-01   1.00800           0
     39244 MEMB     293      POPC     C311     CTL2    -0.180000       12.0110           0
     39245 MEMB     293      POPC     H11X     HAL2     0.900000E-01   1.00800           0
     39246 MEMB     293      POPC     H11Y     HAL2     0.900000E-01   1.00800           0
     39247 MEMB     293      POPC     C312     CTL2    -0.180000       12.0110           0
     39248 MEMB     293      POPC     H12X     HAL2     0.900000E-01   1.00800           0
     39249 MEMB     293      POPC     H12Y     HAL2     0.900000E-01   1.00800           0
     39250 MEMB     293      POPC     C313     CTL2    -0.180000       12.0110           0
     39251 MEMB     293      POPC     H13X     HAL2     0.900000E-01   1.00800           0
     39252 MEMB     293      POPC     H13Y     HAL2     0.900000E-01   1.00800           0
     39253 MEMB     293      POPC     C314     CTL2    -0.180000       12.0110           0
     39254 MEMB     293      POPC     H14X     HAL2     0.900000E-01   1.00800           0
     39255 MEMB     293      POPC     H14Y     HAL2     0.900000E-01   1.00800           0
     39256 MEMB     293      POPC     C315     CTL2    -0.180000       12.0110           0
     39257 MEMB     293      POPC     H15X     HAL2     0.900000E-01   1.00800           0
     39258 MEMB     293      POPC     H15Y     HAL2     0.900000E-01   1.00800           0
     39259 MEMB     293      POPC     C316     CTL3    -0.270000       12.0110           0
     39260 MEMB     293      POPC     H16X     HAL3     0.900000E-01   1.00800           0
     39261 MEMB     293      POPC     H16Y     HAL3     0.900000E-01   1.00800           0
     39262 MEMB     293      POPC     H16Z     HAL3     0.900000E-01   1.00800           0
     39263 MEMB     294      POPC     N        NTL     -0.600000       14.0070           0
     39264 MEMB     294      POPC     C12      CTL2    -0.100000       12.0110           0
     39265 MEMB     294      POPC     H12A     HL       0.250000       1.00800           0
     39266 MEMB     294      POPC     H12B     HL       0.250000       1.00800           0
     39267 MEMB     294      POPC     C13      CTL5    -0.350000       12.0110           0
     39268 MEMB     294      POPC     H13A     HL       0.250000       1.00800           0
     39269 MEMB     294      POPC     H13B     HL       0.250000       1.00800           0
     39270 MEMB     294      POPC     H13C     HL       0.250000       1.00800           0
     39271 MEMB     294      POPC     C14      CTL5    -0.350000       12.0110           0
     39272 MEMB     294      POPC     H14A     HL       0.250000       1.00800           0
     39273 MEMB     294      POPC     H14B     HL       0.250000       1.00800           0
     39274 MEMB     294      POPC     H14C     HL       0.250000       1.00800           0
     39275 MEMB     294      POPC     C15      CTL5    -0.350000       12.0110           0
     39276 MEMB     294      POPC     H15A     HL       0.250000       1.00800           0
     39277 MEMB     294      POPC     H15B     HL       0.250000       1.00800           0
     39278 MEMB     294      POPC     H15C     HL       0.250000       1.00800           0
     39279 MEMB     294      POPC     C11      CTL2    -0.800000E-01   12.0110           0
     39280 MEMB     294      POPC     H11A     HAL2     0.900000E-01   1.00800           0
     39281 MEMB     294      POPC     H11B     HAL2     0.900000E-01   1.00800           0
     39282 MEMB     294      POPC     P        PL       1.50000        30.9740           0
     39283 MEMB     294      POPC     O13      O2L     -0.780000       15.9994           0
     39284 MEMB     294      POPC     O14      O2L     -0.780000       15.9994           0
     39285 MEMB     294      POPC     O12      OSLP    -0.570000       15.9994           0
     39286 MEMB     294      POPC     O11      OSLP    -0.570000       15.9994           0
     39287 MEMB     294      POPC     C1       CTL2    -0.800000E-01   12.0110           0
     39288 MEMB     294      POPC     HA       HAL2     0.900000E-01   1.00800           0
     39289 MEMB     294      POPC     HB       HAL2     0.900000E-01   1.00800           0
     39290 MEMB     294      POPC     C2       CTL1     0.170000       12.0110           0
     39291 MEMB     294      POPC     HS       HAL1     0.900000E-01   1.00800           0
     39292 MEMB     294      POPC     O21      OSL     -0.490000       15.9994           0
     39293 MEMB     294      POPC     C21      CL       0.900000       12.0110           0
     39294 MEMB     294      POPC     O22      OBL     -0.630000       15.9994           0
     39295 MEMB     294      POPC     C22      CTL2    -0.220000       12.0110           0
     39296 MEMB     294      POPC     H2R      HAL2     0.900000E-01   1.00800           0
     39297 MEMB     294      POPC     H2S      HAL2     0.900000E-01   1.00800           0
     39298 MEMB     294      POPC     C3       CTL2     0.800000E-01   12.0110           0
     39299 MEMB     294      POPC     HX       HAL2     0.900000E-01   1.00800           0
     39300 MEMB     294      POPC     HY       HAL2     0.900000E-01   1.00800           0
     39301 MEMB     294      POPC     O31      OSL     -0.490000       15.9994           0
     39302 MEMB     294      POPC     C31      CL       0.900000       12.0110           0
     39303 MEMB     294      POPC     O32      OBL     -0.630000       15.9994           0
     39304 MEMB     294      POPC     C32      CTL2    -0.220000       12.0110           0
     39305 MEMB     294      POPC     H2X      HAL2     0.900000E-01   1.00800           0
     39306 MEMB     294      POPC     H2Y      HAL2     0.900000E-01   1.00800           0
     39307 MEMB     294      POPC     C23      CTL2    -0.180000       12.0110           0
     39308 MEMB     294      POPC     H3R      HAL2     0.900000E-01   1.00800           0
     39309 MEMB     294      POPC     H3S      HAL2     0.900000E-01   1.00800           0
     39310 MEMB     294      POPC     C24      CTL2    -0.180000       12.0110           0
     39311 MEMB     294      POPC     H4R      HAL2     0.900000E-01   1.00800           0
     39312 MEMB     294      POPC     H4S      HAL2     0.900000E-01   1.00800           0
     39313 MEMB     294      POPC     C25      CTL2    -0.180000       12.0110           0
     39314 MEMB     294      POPC     H5R      HAL2     0.900000E-01   1.00800           0
     39315 MEMB     294      POPC     H5S      HAL2     0.900000E-01   1.00800           0
     39316 MEMB     294      POPC     C26      CTL2    -0.180000       12.0110           0
     39317 MEMB     294      POPC     H6R      HAL2     0.900000E-01   1.00800           0
     39318 MEMB     294      POPC     H6S      HAL2     0.900000E-01   1.00800           0
     39319 MEMB     294      POPC     C27      CTL2    -0.180000       12.0110           0
     39320 MEMB     294      POPC     H7R      HAL2     0.900000E-01   1.00800           0
     39321 MEMB     294      POPC     H7S      HAL2     0.900000E-01   1.00800           0
     39322 MEMB     294      POPC     C28      CTL2    -0.180000       12.0110           0
     39323 MEMB     294      POPC     H8R      HAL2     0.900000E-01   1.00800           0
     39324 MEMB     294      POPC     H8S      HAL2     0.900000E-01   1.00800           0
     39325 MEMB     294      POPC     C29      CEL1    -0.150000       12.0110           0
     39326 MEMB     294      POPC     H91      HEL1     0.150000       1.00800           0
     39327 MEMB     294      POPC     C210     CEL1    -0.150000       12.0110           0
     39328 MEMB     294      POPC     H101     HEL1     0.150000       1.00800           0
     39329 MEMB     294      POPC     C211     CTL2    -0.180000       12.0110           0
     39330 MEMB     294      POPC     H11R     HAL2     0.900000E-01   1.00800           0
     39331 MEMB     294      POPC     H11S     HAL2     0.900000E-01   1.00800           0
     39332 MEMB     294      POPC     C212     CTL2    -0.180000       12.0110           0
     39333 MEMB     294      POPC     H12R     HAL2     0.900000E-01   1.00800           0
     39334 MEMB     294      POPC     H12S     HAL2     0.900000E-01   1.00800           0
     39335 MEMB     294      POPC     C213     CTL2    -0.180000       12.0110           0
     39336 MEMB     294      POPC     H13R     HAL2     0.900000E-01   1.00800           0
     39337 MEMB     294      POPC     H13S     HAL2     0.900000E-01   1.00800           0
     39338 MEMB     294      POPC     C214     CTL2    -0.180000       12.0110           0
     39339 MEMB     294      POPC     H14R     HAL2     0.900000E-01   1.00800           0
     39340 MEMB     294      POPC     H14S     HAL2     0.900000E-01   1.00800           0
     39341 MEMB     294      POPC     C215     CTL2    -0.180000       12.0110           0
     39342 MEMB     294      POPC     H15R     HAL2     0.900000E-01   1.00800           0
     39343 MEMB     294      POPC     H15S     HAL2     0.900000E-01   1.00800           0
     39344 MEMB     294      POPC     C216     CTL2    -0.180000       12.0110           0
     39345 MEMB     294      POPC     H16R     HAL2     0.900000E-01   1.00800           0
     39346 MEMB     294      POPC     H16S     HAL2     0.900000E-01   1.00800           0
     39347 MEMB     294      POPC     C217     CTL2    -0.180000       12.0110           0
     39348 MEMB     294      POPC     H17R     HAL2     0.900000E-01   1.00800           0
     39349 MEMB     294      POPC     H17S     HAL2     0.900000E-01   1.00800           0
     39350 MEMB     294      POPC     C218     CTL3    -0.270000       12.0110           0
     39351 MEMB     294      POPC     H18R     HAL3     0.900000E-01   1.00800           0
     39352 MEMB     294      POPC     H18S     HAL3     0.900000E-01   1.00800           0
     39353 MEMB     294      POPC     H18T     HAL3     0.900000E-01   1.00800           0
     39354 MEMB     294      POPC     C33      CTL2    -0.180000       12.0110           0
     39355 MEMB     294      POPC     H3X      HAL2     0.900000E-01   1.00800           0
     39356 MEMB     294      POPC     H3Y      HAL2     0.900000E-01   1.00800           0
     39357 MEMB     294      POPC     C34      CTL2    -0.180000       12.0110           0
     39358 MEMB     294      POPC     H4X      HAL2     0.900000E-01   1.00800           0
     39359 MEMB     294      POPC     H4Y      HAL2     0.900000E-01   1.00800           0
     39360 MEMB     294      POPC     C35      CTL2    -0.180000       12.0110           0
     39361 MEMB     294      POPC     H5X      HAL2     0.900000E-01   1.00800           0
     39362 MEMB     294      POPC     H5Y      HAL2     0.900000E-01   1.00800           0
     39363 MEMB     294      POPC     C36      CTL2    -0.180000       12.0110           0
     39364 MEMB     294      POPC     H6X      HAL2     0.900000E-01   1.00800           0
     39365 MEMB     294      POPC     H6Y      HAL2     0.900000E-01   1.00800           0
     39366 MEMB     294      POPC     C37      CTL2    -0.180000       12.0110           0
     39367 MEMB     294      POPC     H7X      HAL2     0.900000E-01   1.00800           0
     39368 MEMB     294      POPC     H7Y      HAL2     0.900000E-01   1.00800           0
     39369 MEMB     294      POPC     C38      CTL2    -0.180000       12.0110           0
     39370 MEMB     294      POPC     H8X      HAL2     0.900000E-01   1.00800           0
     39371 MEMB     294      POPC     H8Y      HAL2     0.900000E-01   1.00800           0
     39372 MEMB     294      POPC     C39      CTL2    -0.180000       12.0110           0
     39373 MEMB     294      POPC     H9X      HAL2     0.900000E-01   1.00800           0
     39374 MEMB     294      POPC     H9Y      HAL2     0.900000E-01   1.00800           0
     39375 MEMB     294      POPC     C310     CTL2    -0.180000       12.0110           0
     39376 MEMB     294      POPC     H10X     HAL2     0.900000E-01   1.00800           0
     39377 MEMB     294      POPC     H10Y     HAL2     0.900000E-01   1.00800           0
     39378 MEMB     294      POPC     C311     CTL2    -0.180000       12.0110           0
     39379 MEMB     294      POPC     H11X     HAL2     0.900000E-01   1.00800           0
     39380 MEMB     294      POPC     H11Y     HAL2     0.900000E-01   1.00800           0
     39381 MEMB     294      POPC     C312     CTL2    -0.180000       12.0110           0
     39382 MEMB     294      POPC     H12X     HAL2     0.900000E-01   1.00800           0
     39383 MEMB     294      POPC     H12Y     HAL2     0.900000E-01   1.00800           0
     39384 MEMB     294      POPC     C313     CTL2    -0.180000       12.0110           0
     39385 MEMB     294      POPC     H13X     HAL2     0.900000E-01   1.00800           0
     39386 MEMB     294      POPC     H13Y     HAL2     0.900000E-01   1.00800           0
     39387 MEMB     294      POPC     C314     CTL2    -0.180000       12.0110           0
     39388 MEMB     294      POPC     H14X     HAL2     0.900000E-01   1.00800           0
     39389 MEMB     294      POPC     H14Y     HAL2     0.900000E-01   1.00800           0
     39390 MEMB     294      POPC     C315     CTL2    -0.180000       12.0110           0
     39391 MEMB     294      POPC     H15X     HAL2     0.900000E-01   1.00800           0
     39392 MEMB     294      POPC     H15Y     HAL2     0.900000E-01   1.00800           0
     39393 MEMB     294      POPC     C316     CTL3    -0.270000       12.0110           0
     39394 MEMB     294      POPC     H16X     HAL3     0.900000E-01   1.00800           0
     39395 MEMB     294      POPC     H16Y     HAL3     0.900000E-01   1.00800           0
     39396 MEMB     294      POPC     H16Z     HAL3     0.900000E-01   1.00800           0
     39397 TIP3     1        TIP3     OH2      OT      -0.834000       15.9994           0
     39398 TIP3     1        TIP3     H1       HT       0.417000       1.00800           0
     39399 TIP3     1        TIP3     H2       HT       0.417000       1.00800           0
     39400 TIP3     2        TIP3     OH2      OT      -0.834000       15.9994           0
     39401 TIP3     2        TIP3     H1       HT       0.417000       1.00800           0
     39402 TIP3     2        TIP3     H2       HT       0.417000       1.00800           0
     39403 TIP3     3        TIP3     OH2      OT      -0.834000       15.9994           0
     39404 TIP3     3        TIP3     H1       HT       0.417000       1.00800           0
     39405 TIP3     3        TIP3     H2       HT       0.417000       1.00800           0
     39406 TIP3     4        TIP3     OH2      OT      -0.834000       15.9994           0
     39407 TIP3     4        TIP3     H1       HT       0.417000       1.00800           0
     39408 TIP3     4        TIP3     H2       HT       0.417000       1.00800           0
     39409 TIP3     5        TIP3     OH2      OT      -0.834000       15.9994           0
     39410 TIP3     5        TIP3     H1       HT       0.417000       1.00800           0
     39411 TIP3     5        TIP3     H2       HT       0.417000       1.00800           0
     39412 TIP3     6        TIP3     OH2      OT      -0.834000       15.9994           0
     39413 TIP3     6        TIP3     H1       HT       0.417000       1.00800           0
     39414 TIP3     6        TIP3     H2       HT       0.417000       1.00800           0
     39415 TIP3     7        TIP3     OH2      OT      -0.834000       15.9994           0
     39416 TIP3     7        TIP3     H1       HT       0.417000       1.00800           0
     39417 TIP3     7        TIP3     H2       HT       0.417000       1.00800           0
     39418 TIP3     8        TIP3     OH2      OT      -0.834000       15.9994           0
     39419 TIP3     8        TIP3     H1       HT       0.417000       1.00800           0
     39420 TIP3     8        TIP3     H2       HT       0.417000       1.00800           0
     39421 TIP3     9        TIP3     OH2      OT      -0.834000       15.9994           0
     39422 TIP3     9        TIP3     H1       HT       0.417000       1.00800           0
     39423 TIP3     9        TIP3     H2       HT       0.417000       1.00800           0
     39424 TIP3     10       TIP3     OH2      OT      -0.834000       15.9994           0
     39425 TIP3     10       TIP3     H1       HT       0.417000       1.00800           0
     39426 TIP3     10       TIP3     H2       HT       0.417000       1.00800           0
     39427 TIP3     11       TIP3     OH2      OT      -0.834000       15.9994           0
     39428 TIP3     11       TIP3     H1       HT       0.417000       1.00800           0
     39429 TIP3     11       TIP3     H2       HT       0.417000       1.00800           0
     39430 TIP3     12       TIP3     OH2      OT      -0.834000       15.9994           0
     39431 TIP3     12       TIP3     H1       HT       0.417000       1.00800           0
     39432 TIP3     12       TIP3     H2       HT       0.417000       1.00800           0
     39433 TIP3     13       TIP3     OH2      OT      -0.834000       15.9994           0
     39434 TIP3     13       TIP3     H1       HT       0.417000       1.00800           0
     39435 TIP3     13       TIP3     H2       HT       0.417000       1.00800           0
     39436 TIP3     14       TIP3     OH2      OT      -0.834000       15.9994           0
     39437 TIP3     14       TIP3     H1       HT       0.417000       1.00800           0
     39438 TIP3     14       TIP3     H2       HT       0.417000       1.00800           0
     39439 TIP3     15       TIP3     OH2      OT      -0.834000       15.9994           0
     39440 TIP3     15       TIP3     H1       HT       0.417000       1.00800           0
     39441 TIP3     15       TIP3     H2       HT       0.417000       1.00800           0
     39442 TIP3     16       TIP3     OH2      OT      -0.834000       15.9994           0
     39443 TIP3     16       TIP3     H1       HT       0.417000       1.00800           0
     39444 TIP3     16       TIP3     H2       HT       0.417000       1.00800           0
     39445 TIP3     17       TIP3     OH2      OT      -0.834000       15.9994           0
     39446 TIP3     17       TIP3     H1       HT       0.417000       1.00800           0
     39447 TIP3     17       TIP3     H2       HT       0.417000       1.00800           0
     39448 TIP3     18       TIP3     OH2      OT      -0.834000       15.9994           0
     39449 TIP3     18       TIP3     H1       HT       0.417000       1.00800           0
     39450 TIP3     18       TIP3     H2       HT       0.417000       1.00800           0
     39451 TIP3     19       TIP3     OH2      OT      -0.834000       15.9994           0
     39452 TIP3     19       TIP3     H1       HT       0.417000       1.00800           0
     39453 TIP3     19       TIP3     H2       HT       0.417000       1.00800           0
     39454 TIP3     20       TIP3     OH2      OT      -0.834000       15.9994           0
     39455 TIP3     20       TIP3     H1       HT       0.417000       1.00800           0
     39456 TIP3     20       TIP3     H2       HT       0.417000       1.00800           0
     39457 TIP3     21       TIP3     OH2      OT      -0.834000       15.9994           0
     39458 TIP3     21       TIP3     H1       HT       0.417000       1.00800           0
     39459 TIP3     21       TIP3     H2       HT       0.417000       1.00800           0
     39460 TIP3     22       TIP3     OH2      OT      -0.834000       15.9994           0
     39461 TIP3     22       TIP3     H1       HT       0.417000       1.00800           0
     39462 TIP3     22       TIP3     H2       HT       0.417000       1.00800           0
     39463 TIP3     23       TIP3     OH2      OT      -0.834000       15.9994           0
     39464 TIP3     23       TIP3     H1       HT       0.417000       1.00800           0
     39465 TIP3     23       TIP3     H2       HT       0.417000       1.00800           0
     39466 TIP3     24       TIP3     OH2      OT      -0.834000       15.9994           0
     39467 TIP3     24       TIP3     H1       HT       0.417000       1.00800           0
     39468 TIP3     24       TIP3     H2       HT       0.417000       1.00800           0
     39469 TIP3     25       TIP3     OH2      OT      -0.834000       15.9994           0
     39470 TIP3     25       TIP3     H1       HT       0.417000       1.00800           0
     39471 TIP3     25       TIP3     H2       HT       0.417000       1.00800           0
     39472 TIP3     26       TIP3     OH2      OT      -0.834000       15.9994           0
     39473 TIP3     26       TIP3     H1       HT       0.417000       1.00800           0
     39474 TIP3     26       TIP3     H2       HT       0.417000       1.00800           0
     39475 TIP3     27       TIP3     OH2      OT      -0.834000       15.9994           0
     39476 TIP3     27       TIP3     H1       HT       0.417000       1.00800           0
     39477 TIP3     27       TIP3     H2       HT       0.417000       1.00800           0
     39478 TIP3     28       TIP3     OH2      OT      -0.834000       15.9994           0
     39479 TIP3     28       TIP3     H1       HT       0.417000       1.00800           0
     39480 TIP3     28       TIP3     H2       HT       0.417000       1.00800           0
     39481 TIP3     29       TIP3     OH2      OT      -0.834000       15.9994           0
     39482 TIP3     29       TIP3     H1       HT       0.417000       1.00800           0
     39483 TIP3     29       TIP3     H2       HT       0.417000       1.00800           0
     39484 TIP3     30       TIP3     OH2      OT      -0.834000       15.9994           0
     39485 TIP3     30       TIP3     H1       HT       0.417000       1.00800           0
     39486 TIP3     30       TIP3     H2       HT       0.417000       1.00800           0
     39487 TIP3     31       TIP3     OH2      OT      -0.834000       15.9994           0
     39488 TIP3     31       TIP3     H1       HT       0.417000       1.00800           0
     39489 TIP3     31       TIP3     H2       HT       0.417000       1.00800           0
     39490 TIP3     32       TIP3     OH2      OT      -0.834000       15.9994           0
     39491 TIP3     32       TIP3     H1       HT       0.417000       1.00800           0
     39492 TIP3     32       TIP3     H2       HT       0.417000       1.00800           0
     39493 TIP3     33       TIP3     OH2      OT      -0.834000       15.9994           0
     39494 TIP3     33       TIP3     H1       HT       0.417000       1.00800           0
     39495 TIP3     33       TIP3     H2       HT       0.417000       1.00800           0
     39496 TIP3     34       TIP3     OH2      OT      -0.834000       15.9994           0
     39497 TIP3     34       TIP3     H1       HT       0.417000       1.00800           0
     39498 TIP3     34       TIP3     H2       HT       0.417000       1.00800           0
     39499 TIP3     35       TIP3     OH2      OT      -0.834000       15.9994           0
     39500 TIP3     35       TIP3     H1       HT       0.417000       1.00800           0
     39501 TIP3     35       TIP3     H2       HT       0.417000       1.00800           0
     39502 TIP3     36       TIP3     OH2      OT      -0.834000       15.9994           0
     39503 TIP3     36       TIP3     H1       HT       0.417000       1.00800           0
     39504 TIP3     36       TIP3     H2       HT       0.417000       1.00800           0
     39505 TIP3     37       TIP3     OH2      OT      -0.834000       15.9994           0
     39506 TIP3     37       TIP3     H1       HT       0.417000       1.00800           0
     39507 TIP3     37       TIP3     H2       HT       0.417000       1.00800           0
     39508 TIP3     38       TIP3     OH2      OT      -0.834000       15.9994           0
     39509 TIP3     38       TIP3     H1       HT       0.417000       1.00800           0
     39510 TIP3     38       TIP3     H2       HT       0.417000       1.00800           0
     39511 TIP3     39       TIP3     OH2      OT      -0.834000       15.9994           0
     39512 TIP3     39       TIP3     H1       HT       0.417000       1.00800           0
     39513 TIP3     39       TIP3     H2       HT       0.417000       1.00800           0
     39514 TIP3     40       TIP3     OH2      OT      -0.834000       15.9994           0
     39515 TIP3     40       TIP3     H1       HT       0.417000       1.00800           0
     39516 TIP3     40       TIP3     H2       HT       0.417000       1.00800           0
     39517 TIP3     41       TIP3     OH2      OT      -0.834000       15.9994           0
     39518 TIP3     41       TIP3     H1       HT       0.417000       1.00800           0
     39519 TIP3     41       TIP3     H2       HT       0.417000       1.00800           0
     39520 TIP3     42       TIP3     OH2      OT      -0.834000       15.9994           0
     39521 TIP3     42       TIP3     H1       HT       0.417000       1.00800           0
     39522 TIP3     42       TIP3     H2       HT       0.417000       1.00800           0
     39523 TIP3     43       TIP3     OH2      OT      -0.834000       15.9994           0
     39524 TIP3     43       TIP3     H1       HT       0.417000       1.00800           0
     39525 TIP3     43       TIP3     H2       HT       0.417000       1.00800           0
     39526 TIP3     44       TIP3     OH2      OT      -0.834000       15.9994           0
     39527 TIP3     44       TIP3     H1       HT       0.417000       1.00800           0
     39528 TIP3     44       TIP3     H2       HT       0.417000       1.00800           0
     39529 TIP3     45       TIP3     OH2      OT      -0.834000       15.9994           0
     39530 TIP3     45       TIP3     H1       HT       0.417000       1.00800           0
     39531 TIP3     45       TIP3     H2       HT       0.417000       1.00800           0
     39532 TIP3     46       TIP3     OH2      OT      -0.834000       15.9994           0
     39533 TIP3     46       TIP3     H1       HT       0.417000       1.00800           0
     39534 TIP3     46       TIP3     H2       HT       0.417000       1.00800           0
     39535 TIP3     47       TIP3     OH2      OT      -0.834000       15.9994           0
     39536 TIP3     47       TIP3     H1       HT       0.417000       1.00800           0
     39537 TIP3     47       TIP3     H2       HT       0.417000       1.00800           0
     39538 TIP3     48       TIP3     OH2      OT      -0.834000       15.9994           0
     39539 TIP3     48       TIP3     H1       HT       0.417000       1.00800           0
     39540 TIP3     48       TIP3     H2       HT       0.417000       1.00800           0
     39541 TIP3     49       TIP3     OH2      OT      -0.834000       15.9994           0
     39542 TIP3     49       TIP3     H1       HT       0.417000       1.00800           0
     39543 TIP3     49       TIP3     H2       HT       0.417000       1.00800           0
     39544 TIP3     50       TIP3     OH2      OT      -0.834000       15.9994           0
     39545 TIP3     50       TIP3     H1       HT       0.417000       1.00800           0
     39546 TIP3     50       TIP3     H2       HT       0.417000       1.00800           0
     39547 TIP3     51       TIP3     OH2      OT      -0.834000       15.9994           0
     39548 TIP3     51       TIP3     H1       HT       0.417000       1.00800           0
     39549 TIP3     51       TIP3     H2       HT       0.417000       1.00800           0
     39550 TIP3     52       TIP3     OH2      OT      -0.834000       15.9994           0
     39551 TIP3     52       TIP3     H1       HT       0.417000       1.00800           0
     39552 TIP3     52       TIP3     H2       HT       0.417000       1.00800           0
     39553 TIP3     53       TIP3     OH2      OT      -0.834000       15.9994           0
     39554 TIP3     53       TIP3     H1       HT       0.417000       1.00800           0
     39555 TIP3     53       TIP3     H2       HT       0.417000       1.00800           0
     39556 TIP3     54       TIP3     OH2      OT      -0.834000       15.9994           0
     39557 TIP3     54       TIP3     H1       HT       0.417000       1.00800           0
     39558 TIP3     54       TIP3     H2       HT       0.417000       1.00800           0
     39559 TIP3     55       TIP3     OH2      OT      -0.834000       15.9994           0
     39560 TIP3     55       TIP3     H1       HT       0.417000       1.00800           0
     39561 TIP3     55       TIP3     H2       HT       0.417000       1.00800           0
     39562 TIP3     56       TIP3     OH2      OT      -0.834000       15.9994           0
     39563 TIP3     56       TIP3     H1       HT       0.417000       1.00800           0
     39564 TIP3     56       TIP3     H2       HT       0.417000       1.00800           0
     39565 TIP3     57       TIP3     OH2      OT      -0.834000       15.9994           0
     39566 TIP3     57       TIP3     H1       HT       0.417000       1.00800           0
     39567 TIP3     57       TIP3     H2       HT       0.417000       1.00800           0
     39568 TIP3     58       TIP3     OH2      OT      -0.834000       15.9994           0
     39569 TIP3     58       TIP3     H1       HT       0.417000       1.00800           0
     39570 TIP3     58       TIP3     H2       HT       0.417000       1.00800           0
     39571 TIP3     59       TIP3     OH2      OT      -0.834000       15.9994           0
     39572 TIP3     59       TIP3     H1       HT       0.417000       1.00800           0
     39573 TIP3     59       TIP3     H2       HT       0.417000       1.00800           0
     39574 TIP3     60       TIP3     OH2      OT      -0.834000       15.9994           0
     39575 TIP3     60       TIP3     H1       HT       0.417000       1.00800           0
     39576 TIP3     60       TIP3     H2       HT       0.417000       1.00800           0
     39577 TIP3     61       TIP3     OH2      OT      -0.834000       15.9994           0
     39578 TIP3     61       TIP3     H1       HT       0.417000       1.00800           0
     39579 TIP3     61       TIP3     H2       HT       0.417000       1.00800           0
     39580 TIP3     62       TIP3     OH2      OT      -0.834000       15.9994           0
     39581 TIP3     62       TIP3     H1       HT       0.417000       1.00800           0
     39582 TIP3     62       TIP3     H2       HT       0.417000       1.00800           0
     39583 TIP3     63       TIP3     OH2      OT      -0.834000       15.9994           0
     39584 TIP3     63       TIP3     H1       HT       0.417000       1.00800           0
     39585 TIP3     63       TIP3     H2       HT       0.417000       1.00800           0
     39586 TIP3     64       TIP3     OH2      OT      -0.834000       15.9994           0
     39587 TIP3     64       TIP3     H1       HT       0.417000       1.00800           0
     39588 TIP3     64       TIP3     H2       HT       0.417000       1.00800           0
     39589 TIP3     65       TIP3     OH2      OT      -0.834000       15.9994           0
     39590 TIP3     65       TIP3     H1       HT       0.417000       1.00800           0
     39591 TIP3     65       TIP3     H2       HT       0.417000       1.00800           0
     39592 TIP3     66       TIP3     OH2      OT      -0.834000       15.9994           0
     39593 TIP3     66       TIP3     H1       HT       0.417000       1.00800           0
     39594 TIP3     66       TIP3     H2       HT       0.417000       1.00800           0
     39595 TIP3     67       TIP3     OH2      OT      -0.834000       15.9994           0
     39596 TIP3     67       TIP3     H1       HT       0.417000       1.00800           0
     39597 TIP3     67       TIP3     H2       HT       0.417000       1.00800           0
     39598 TIP3     68       TIP3     OH2      OT      -0.834000       15.9994           0
     39599 TIP3     68       TIP3     H1       HT       0.417000       1.00800           0
     39600 TIP3     68       TIP3     H2       HT       0.417000       1.00800           0
     39601 TIP3     69       TIP3     OH2      OT      -0.834000       15.9994           0
     39602 TIP3     69       TIP3     H1       HT       0.417000       1.00800           0
     39603 TIP3     69       TIP3     H2       HT       0.417000       1.00800           0
     39604 TIP3     70       TIP3     OH2      OT      -0.834000       15.9994           0
     39605 TIP3     70       TIP3     H1       HT       0.417000       1.00800           0
     39606 TIP3     70       TIP3     H2       HT       0.417000       1.00800           0
     39607 TIP3     71       TIP3     OH2      OT      -0.834000       15.9994           0
     39608 TIP3     71       TIP3     H1       HT       0.417000       1.00800           0
     39609 TIP3     71       TIP3     H2       HT       0.417000       1.00800           0
     39610 TIP3     72       TIP3     OH2      OT      -0.834000       15.9994           0
     39611 TIP3     72       TIP3     H1       HT       0.417000       1.00800           0
     39612 TIP3     72       TIP3     H2       HT       0.417000       1.00800           0
     39613 TIP3     73       TIP3     OH2      OT      -0.834000       15.9994           0
     39614 TIP3     73       TIP3     H1       HT       0.417000       1.00800           0
     39615 TIP3     73       TIP3     H2       HT       0.417000       1.00800           0
     39616 TIP3     74       TIP3     OH2      OT      -0.834000       15.9994           0
     39617 TIP3     74       TIP3     H1       HT       0.417000       1.00800           0
     39618 TIP3     74       TIP3     H2       HT       0.417000       1.00800           0
     39619 TIP3     75       TIP3     OH2      OT      -0.834000       15.9994           0
     39620 TIP3     75       TIP3     H1       HT       0.417000       1.00800           0
     39621 TIP3     75       TIP3     H2       HT       0.417000       1.00800           0
     39622 TIP3     76       TIP3     OH2      OT      -0.834000       15.9994           0
     39623 TIP3     76       TIP3     H1       HT       0.417000       1.00800           0
     39624 TIP3     76       TIP3     H2       HT       0.417000       1.00800           0
     39625 TIP3     77       TIP3     OH2      OT      -0.834000       15.9994           0
     39626 TIP3     77       TIP3     H1       HT       0.417000       1.00800           0
     39627 TIP3     77       TIP3     H2       HT       0.417000       1.00800           0
     39628 TIP3     78       TIP3     OH2      OT      -0.834000       15.9994           0
     39629 TIP3     78       TIP3     H1       HT       0.417000       1.00800           0
     39630 TIP3     78       TIP3     H2       HT       0.417000       1.00800           0
     39631 TIP3     79       TIP3     OH2      OT      -0.834000       15.9994           0
     39632 TIP3     79       TIP3     H1       HT       0.417000       1.00800           0
     39633 TIP3     79       TIP3     H2       HT       0.417000       1.00800           0
     39634 TIP3     80       TIP3     OH2      OT      -0.834000       15.9994           0
     39635 TIP3     80       TIP3     H1       HT       0.417000       1.00800           0
     39636 TIP3     80       TIP3     H2       HT       0.417000       1.00800           0
     39637 TIP3     81       TIP3     OH2      OT      -0.834000       15.9994           0
     39638 TIP3     81       TIP3     H1       HT       0.417000       1.00800           0
     39639 TIP3     81       TIP3     H2       HT       0.417000       1.00800           0
     39640 TIP3     82       TIP3     OH2      OT      -0.834000       15.9994           0
     39641 TIP3     82       TIP3     H1       HT       0.417000       1.00800           0
     39642 TIP3     82       TIP3     H2       HT       0.417000       1.00800           0
     39643 TIP3     83       TIP3     OH2      OT      -0.834000       15.9994           0
     39644 TIP3     83       TIP3     H1       HT       0.417000       1.00800           0
     39645 TIP3     83       TIP3     H2       HT       0.417000       1.00800           0
     39646 TIP3     84       TIP3     OH2      OT      -0.834000       15.9994           0
     39647 TIP3     84       TIP3     H1       HT       0.417000       1.00800           0
     39648 TIP3     84       TIP3     H2       HT       0.417000       1.00800           0
     39649 TIP3     85       TIP3     OH2      OT      -0.834000       15.9994           0
     39650 TIP3     85       TIP3     H1       HT       0.417000       1.00800           0
     39651 TIP3     85       TIP3     H2       HT       0.417000       1.00800           0
     39652 TIP3     86       TIP3     OH2      OT      -0.834000       15.9994           0
     39653 TIP3     86       TIP3     H1       HT       0.417000       1.00800           0
     39654 TIP3     86       TIP3     H2       HT       0.417000       1.00800           0
     39655 TIP3     87       TIP3     OH2      OT      -0.834000       15.9994           0
     39656 TIP3     87       TIP3     H1       HT       0.417000       1.00800           0
     39657 TIP3     87       TIP3     H2       HT       0.417000       1.00800           0
     39658 TIP3     88       TIP3     OH2      OT      -0.834000       15.9994           0
     39659 TIP3     88       TIP3     H1       HT       0.417000       1.00800           0
     39660 TIP3     88       TIP3     H2       HT       0.417000       1.00800           0
     39661 TIP3     89       TIP3     OH2      OT      -0.834000       15.9994           0
     39662 TIP3     89       TIP3     H1       HT       0.417000       1.00800           0
     39663 TIP3     89       TIP3     H2       HT       0.417000       1.00800           0
     39664 TIP3     90       TIP3     OH2      OT      -0.834000       15.9994           0
     39665 TIP3     90       TIP3     H1       HT       0.417000       1.00800           0
     39666 TIP3     90       TIP3     H2       HT       0.417000       1.00800           0
     39667 TIP3     91       TIP3     OH2      OT      -0.834000       15.9994           0
     39668 TIP3     91       TIP3     H1       HT       0.417000       1.00800           0
     39669 TIP3     91       TIP3     H2       HT       0.417000       1.00800           0
     39670 TIP3     92       TIP3     OH2      OT      -0.834000       15.9994           0
     39671 TIP3     92       TIP3     H1       HT       0.417000       1.00800           0
     39672 TIP3     92       TIP3     H2       HT       0.417000       1.00800           0
     39673 TIP3     93       TIP3     OH2      OT      -0.834000       15.9994           0
     39674 TIP3     93       TIP3     H1       HT       0.417000       1.00800           0
     39675 TIP3     93       TIP3     H2       HT       0.417000       1.00800           0
     39676 TIP3     94       TIP3     OH2      OT      -0.834000       15.9994           0
     39677 TIP3     94       TIP3     H1       HT       0.417000       1.00800           0
     39678 TIP3     94       TIP3     H2       HT       0.417000       1.00800           0
     39679 TIP3     95       TIP3     OH2      OT      -0.834000       15.9994           0
     39680 TIP3     95       TIP3     H1       HT       0.417000       1.00800           0
     39681 TIP3     95       TIP3     H2       HT       0.417000       1.00800           0
     39682 TIP3     96       TIP3     OH2      OT      -0.834000       15.9994           0
     39683 TIP3     96       TIP3     H1       HT       0.417000       1.00800           0
     39684 TIP3     96       TIP3     H2       HT       0.417000       1.00800           0
     39685 TIP3     97       TIP3     OH2      OT      -0.834000       15.9994           0
     39686 TIP3     97       TIP3     H1       HT       0.417000       1.00800           0
     39687 TIP3     97       TIP3     H2       HT       0.417000       1.00800           0
     39688 TIP3     98       TIP3     OH2      OT      -0.834000       15.9994           0
     39689 TIP3     98       TIP3     H1       HT       0.417000       1.00800           0
     39690 TIP3     98       TIP3     H2       HT       0.417000       1.00800           0
     39691 TIP3     99       TIP3     OH2      OT      -0.834000       15.9994           0
     39692 TIP3     99       TIP3     H1       HT       0.417000       1.00800           0
     39693 TIP3     99       TIP3     H2       HT       0.417000       1.00800           0
     39694 TIP3     100      TIP3     OH2      OT      -0.834000       15.9994           0
     39695 TIP3     100      TIP3     H1       HT       0.417000       1.00800           0
     39696 TIP3     100      TIP3     H2       HT       0.417000       1.00800           0
     39697 TIP3     101      TIP3     OH2      OT      -0.834000       15.9994           0
     39698 TIP3     101      TIP3     H1       HT       0.417000       1.00800           0
     39699 TIP3     101      TIP3     H2       HT       0.417000       1.00800           0
     39700 TIP3     102      TIP3     OH2      OT      -0.834000       15.9994           0
     39701 TIP3     102      TIP3     H1       HT       0.417000       1.00800           0
     39702 TIP3     102      TIP3     H2       HT       0.417000       1.00800           0
     39703 TIP3     103      TIP3     OH2      OT      -0.834000       15.9994           0
     39704 TIP3     103      TIP3     H1       HT       0.417000       1.00800           0
     39705 TIP3     103      TIP3     H2       HT       0.417000       1.00800           0
     39706 TIP3     104      TIP3     OH2      OT      -0.834000       15.9994           0
     39707 TIP3     104      TIP3     H1       HT       0.417000       1.00800           0
     39708 TIP3     104      TIP3     H2       HT       0.417000       1.00800           0
     39709 TIP3     105      TIP3     OH2      OT      -0.834000       15.9994           0
     39710 TIP3     105      TIP3     H1       HT       0.417000       1.00800           0
     39711 TIP3     105      TIP3     H2       HT       0.417000       1.00800           0
     39712 TIP3     106      TIP3     OH2      OT      -0.834000       15.9994           0
     39713 TIP3     106      TIP3     H1       HT       0.417000       1.00800           0
     39714 TIP3     106      TIP3     H2       HT       0.417000       1.00800           0
     39715 TIP3     107      TIP3     OH2      OT      -0.834000       15.9994           0
     39716 TIP3     107      TIP3     H1       HT       0.417000       1.00800           0
     39717 TIP3     107      TIP3     H2       HT       0.417000       1.00800           0
     39718 TIP3     108      TIP3     OH2      OT      -0.834000       15.9994           0
     39719 TIP3     108      TIP3     H1       HT       0.417000       1.00800           0
     39720 TIP3     108      TIP3     H2       HT       0.417000       1.00800           0
     39721 TIP3     109      TIP3     OH2      OT      -0.834000       15.9994           0
     39722 TIP3     109      TIP3     H1       HT       0.417000       1.00800           0
     39723 TIP3     109      TIP3     H2       HT       0.417000       1.00800           0
     39724 TIP3     110      TIP3     OH2      OT      -0.834000       15.9994           0
     39725 TIP3     110      TIP3     H1       HT       0.417000       1.00800           0
     39726 TIP3     110      TIP3     H2       HT       0.417000       1.00800           0
     39727 TIP3     111      TIP3     OH2      OT      -0.834000       15.9994           0
     39728 TIP3     111      TIP3     H1       HT       0.417000       1.00800           0
     39729 TIP3     111      TIP3     H2       HT       0.417000       1.00800           0
     39730 TIP3     112      TIP3     OH2      OT      -0.834000       15.9994           0
     39731 TIP3     112      TIP3     H1       HT       0.417000       1.00800           0
     39732 TIP3     112      TIP3     H2       HT       0.417000       1.00800           0
     39733 TIP3     113      TIP3     OH2      OT      -0.834000       15.9994           0
     39734 TIP3     113      TIP3     H1       HT       0.417000       1.00800           0
     39735 TIP3     113      TIP3     H2       HT       0.417000       1.00800           0
     39736 TIP3     114      TIP3     OH2      OT      -0.834000       15.9994           0
     39737 TIP3     114      TIP3     H1       HT       0.417000       1.00800           0
     39738 TIP3     114      TIP3     H2       HT       0.417000       1.00800           0
     39739 TIP3     115      TIP3     OH2      OT      -0.834000       15.9994           0
     39740 TIP3     115      TIP3     H1       HT       0.417000       1.00800           0
     39741 TIP3     115      TIP3     H2       HT       0.417000       1.00800           0
     39742 TIP3     116      TIP3     OH2      OT      -0.834000       15.9994           0
     39743 TIP3     116      TIP3     H1       HT       0.417000       1.00800           0
     39744 TIP3     116      TIP3     H2       HT       0.417000       1.00800           0
     39745 TIP3     117      TIP3     OH2      OT      -0.834000       15.9994           0
     39746 TIP3     117      TIP3     H1       HT       0.417000       1.00800           0
     39747 TIP3     117      TIP3     H2       HT       0.417000       1.00800           0
     39748 TIP3     118      TIP3     OH2      OT      -0.834000       15.9994           0
     39749 TIP3     118      TIP3     H1       HT       0.417000       1.00800           0
     39750 TIP3     118      TIP3     H2       HT       0.417000       1.00800           0
     39751 TIP3     119      TIP3     OH2      OT      -0.834000       15.9994           0
     39752 TIP3     119      TIP3     H1       HT       0.417000       1.00800           0
     39753 TIP3     119      TIP3     H2       HT       0.417000       1.00800           0
     39754 TIP3     120      TIP3     OH2      OT      -0.834000       15.9994           0
     39755 TIP3     120      TIP3     H1       HT       0.417000       1.00800           0
     39756 TIP3     120      TIP3     H2       HT       0.417000       1.00800           0
     39757 TIP3     121      TIP3     OH2      OT      -0.834000       15.9994           0
     39758 TIP3     121      TIP3     H1       HT       0.417000       1.00800           0
     39759 TIP3     121      TIP3     H2       HT       0.417000       1.00800           0
     39760 TIP3     122      TIP3     OH2      OT      -0.834000       15.9994           0
     39761 TIP3     122      TIP3     H1       HT       0.417000       1.00800           0
     39762 TIP3     122      TIP3     H2       HT       0.417000       1.00800           0
     39763 TIP3     123      TIP3     OH2      OT      -0.834000       15.9994           0
     39764 TIP3     123      TIP3     H1       HT       0.417000       1.00800           0
     39765 TIP3     123      TIP3     H2       HT       0.417000       1.00800           0
     39766 TIP3     124      TIP3     OH2      OT      -0.834000       15.9994           0
     39767 TIP3     124      TIP3     H1       HT       0.417000       1.00800           0
     39768 TIP3     124      TIP3     H2       HT       0.417000       1.00800           0
     39769 TIP3     125      TIP3     OH2      OT      -0.834000       15.9994           0
     39770 TIP3     125      TIP3     H1       HT       0.417000       1.00800           0
     39771 TIP3     125      TIP3     H2       HT       0.417000       1.00800           0
     39772 TIP3     126      TIP3     OH2      OT      -0.834000       15.9994           0
     39773 TIP3     126      TIP3     H1       HT       0.417000       1.00800           0
     39774 TIP3     126      TIP3     H2       HT       0.417000       1.00800           0
     39775 TIP3     127      TIP3     OH2      OT      -0.834000       15.9994           0
     39776 TIP3     127      TIP3     H1       HT       0.417000       1.00800           0
     39777 TIP3     127      TIP3     H2       HT       0.417000       1.00800           0
     39778 TIP3     128      TIP3     OH2      OT      -0.834000       15.9994           0
     39779 TIP3     128      TIP3     H1       HT       0.417000       1.00800           0
     39780 TIP3     128      TIP3     H2       HT       0.417000       1.00800           0
     39781 TIP3     129      TIP3     OH2      OT      -0.834000       15.9994           0
     39782 TIP3     129      TIP3     H1       HT       0.417000       1.00800           0
     39783 TIP3     129      TIP3     H2       HT       0.417000       1.00800           0
     39784 TIP3     130      TIP3     OH2      OT      -0.834000       15.9994           0
     39785 TIP3     130      TIP3     H1       HT       0.417000       1.00800           0
     39786 TIP3     130      TIP3     H2       HT       0.417000       1.00800           0
     39787 TIP3     131      TIP3     OH2      OT      -0.834000       15.9994           0
     39788 TIP3     131      TIP3     H1       HT       0.417000       1.00800           0
     39789 TIP3     131      TIP3     H2       HT       0.417000       1.00800           0
     39790 TIP3     132      TIP3     OH2      OT      -0.834000       15.9994           0
     39791 TIP3     132      TIP3     H1       HT       0.417000       1.00800           0
     39792 TIP3     132      TIP3     H2       HT       0.417000       1.00800           0
     39793 TIP3     133      TIP3     OH2      OT      -0.834000       15.9994           0
     39794 TIP3     133      TIP3     H1       HT       0.417000       1.00800           0
     39795 TIP3     133      TIP3     H2       HT       0.417000       1.00800           0
     39796 TIP3     134      TIP3     OH2      OT      -0.834000       15.9994           0
     39797 TIP3     134      TIP3     H1       HT       0.417000       1.00800           0
     39798 TIP3     134      TIP3     H2       HT       0.417000       1.00800           0
     39799 TIP3     135      TIP3     OH2      OT      -0.834000       15.9994           0
     39800 TIP3     135      TIP3     H1       HT       0.417000       1.00800           0
     39801 TIP3     135      TIP3     H2       HT       0.417000       1.00800           0
     39802 TIP3     136      TIP3     OH2      OT      -0.834000       15.9994           0
     39803 TIP3     136      TIP3     H1       HT       0.417000       1.00800           0
     39804 TIP3     136      TIP3     H2       HT       0.417000       1.00800           0
     39805 TIP3     137      TIP3     OH2      OT      -0.834000       15.9994           0
     39806 TIP3     137      TIP3     H1       HT       0.417000       1.00800           0
     39807 TIP3     137      TIP3     H2       HT       0.417000       1.00800           0
     39808 TIP3     138      TIP3     OH2      OT      -0.834000       15.9994           0
     39809 TIP3     138      TIP3     H1       HT       0.417000       1.00800           0
     39810 TIP3     138      TIP3     H2       HT       0.417000       1.00800           0
     39811 TIP3     139      TIP3     OH2      OT      -0.834000       15.9994           0
     39812 TIP3     139      TIP3     H1       HT       0.417000       1.00800           0
     39813 TIP3     139      TIP3     H2       HT       0.417000       1.00800           0
     39814 TIP3     140      TIP3     OH2      OT      -0.834000       15.9994           0
     39815 TIP3     140      TIP3     H1       HT       0.417000       1.00800           0
     39816 TIP3     140      TIP3     H2       HT       0.417000       1.00800           0
     39817 TIP3     141      TIP3     OH2      OT      -0.834000       15.9994           0
     39818 TIP3     141      TIP3     H1       HT       0.417000       1.00800           0
     39819 TIP3     141      TIP3     H2       HT       0.417000       1.00800           0
     39820 TIP3     142      TIP3     OH2      OT      -0.834000       15.9994           0
     39821 TIP3     142      TIP3     H1       HT       0.417000       1.00800           0
     39822 TIP3     142      TIP3     H2       HT       0.417000       1.00800           0
     39823 TIP3     143      TIP3     OH2      OT      -0.834000       15.9994           0
     39824 TIP3     143      TIP3     H1       HT       0.417000       1.00800           0
     39825 TIP3     143      TIP3     H2       HT       0.417000       1.00800           0
     39826 TIP3     144      TIP3     OH2      OT      -0.834000       15.9994           0
     39827 TIP3     144      TIP3     H1       HT       0.417000       1.00800           0
     39828 TIP3     144      TIP3     H2       HT       0.417000       1.00800           0
     39829 TIP3     145      TIP3     OH2      OT      -0.834000       15.9994           0
     39830 TIP3     145      TIP3     H1       HT       0.417000       1.00800           0
     39831 TIP3     145      TIP3     H2       HT       0.417000       1.00800           0
     39832 TIP3     146      TIP3     OH2      OT      -0.834000       15.9994           0
     39833 TIP3     146      TIP3     H1       HT       0.417000       1.00800           0
     39834 TIP3     146      TIP3     H2       HT       0.417000       1.00800           0
     39835 TIP3     147      TIP3     OH2      OT      -0.834000       15.9994           0
     39836 TIP3     147      TIP3     H1       HT       0.417000       1.00800           0
     39837 TIP3     147      TIP3     H2       HT       0.417000       1.00800           0
     39838 TIP3     148      TIP3     OH2      OT      -0.834000       15.9994           0
     39839 TIP3     148      TIP3     H1       HT       0.417000       1.00800           0
     39840 TIP3     148      TIP3     H2       HT       0.417000       1.00800           0
     39841 TIP3     149      TIP3     OH2      OT      -0.834000       15.9994           0
     39842 TIP3     149      TIP3     H1       HT       0.417000       1.00800           0
     39843 TIP3     149      TIP3     H2       HT       0.417000       1.00800           0
     39844 TIP3     150      TIP3     OH2      OT      -0.834000       15.9994           0
     39845 TIP3     150      TIP3     H1       HT       0.417000       1.00800           0
     39846 TIP3     150      TIP3     H2       HT       0.417000       1.00800           0
     39847 TIP3     151      TIP3     OH2      OT      -0.834000       15.9994           0
     39848 TIP3     151      TIP3     H1       HT       0.417000       1.00800           0
     39849 TIP3     151      TIP3     H2       HT       0.417000       1.00800           0
     39850 TIP3     152      TIP3     OH2      OT      -0.834000       15.9994           0
     39851 TIP3     152      TIP3     H1       HT       0.417000       1.00800           0
     39852 TIP3     152      TIP3     H2       HT       0.417000       1.00800           0
     39853 TIP3     153      TIP3     OH2      OT      -0.834000       15.9994           0
     39854 TIP3     153      TIP3     H1       HT       0.417000       1.00800           0
     39855 TIP3     153      TIP3     H2       HT       0.417000       1.00800           0
     39856 TIP3     154      TIP3     OH2      OT      -0.834000       15.9994           0
     39857 TIP3     154      TIP3     H1       HT       0.417000       1.00800           0
     39858 TIP3     154      TIP3     H2       HT       0.417000       1.00800           0
     39859 TIP3     155      TIP3     OH2      OT      -0.834000       15.9994           0
     39860 TIP3     155      TIP3     H1       HT       0.417000       1.00800           0
     39861 TIP3     155      TIP3     H2       HT       0.417000       1.00800           0
     39862 TIP3     156      TIP3     OH2      OT      -0.834000       15.9994           0
     39863 TIP3     156      TIP3     H1       HT       0.417000       1.00800           0
     39864 TIP3     156      TIP3     H2       HT       0.417000       1.00800           0
     39865 TIP3     157      TIP3     OH2      OT      -0.834000       15.9994           0
     39866 TIP3     157      TIP3     H1       HT       0.417000       1.00800           0
     39867 TIP3     157      TIP3     H2       HT       0.417000       1.00800           0
     39868 TIP3     158      TIP3     OH2      OT      -0.834000       15.9994           0
     39869 TIP3     158      TIP3     H1       HT       0.417000       1.00800           0
     39870 TIP3     158      TIP3     H2       HT       0.417000       1.00800           0
     39871 TIP3     159      TIP3     OH2      OT      -0.834000       15.9994           0
     39872 TIP3     159      TIP3     H1       HT       0.417000       1.00800           0
     39873 TIP3     159      TIP3     H2       HT       0.417000       1.00800           0
     39874 TIP3     160      TIP3     OH2      OT      -0.834000       15.9994           0
     39875 TIP3     160      TIP3     H1       HT       0.417000       1.00800           0
     39876 TIP3     160      TIP3     H2       HT       0.417000       1.00800           0
     39877 TIP3     161      TIP3     OH2      OT      -0.834000       15.9994           0
     39878 TIP3     161      TIP3     H1       HT       0.417000       1.00800           0
     39879 TIP3     161      TIP3     H2       HT       0.417000       1.00800           0
     39880 TIP3     162      TIP3     OH2      OT      -0.834000       15.9994           0
     39881 TIP3     162      TIP3     H1       HT       0.417000       1.00800           0
     39882 TIP3     162      TIP3     H2       HT       0.417000       1.00800           0
     39883 TIP3     163      TIP3     OH2      OT      -0.834000       15.9994           0
     39884 TIP3     163      TIP3     H1       HT       0.417000       1.00800           0
     39885 TIP3     163      TIP3     H2       HT       0.417000       1.00800           0
     39886 TIP3     164      TIP3     OH2      OT      -0.834000       15.9994           0
     39887 TIP3     164      TIP3     H1       HT       0.417000       1.00800           0
     39888 TIP3     164      TIP3     H2       HT       0.417000       1.00800           0
     39889 TIP3     165      TIP3     OH2      OT      -0.834000       15.9994           0
     39890 TIP3     165      TIP3     H1       HT       0.417000       1.00800           0
     39891 TIP3     165      TIP3     H2       HT       0.417000       1.00800           0
     39892 TIP3     166      TIP3     OH2      OT      -0.834000       15.9994           0
     39893 TIP3     166      TIP3     H1       HT       0.417000       1.00800           0
     39894 TIP3     166      TIP3     H2       HT       0.417000       1.00800           0
     39895 TIP3     167      TIP3     OH2      OT      -0.834000       15.9994           0
     39896 TIP3     167      TIP3     H1       HT       0.417000       1.00800           0
     39897 TIP3     167      TIP3     H2       HT       0.417000       1.00800           0
     39898 TIP3     168      TIP3     OH2      OT      -0.834000       15.9994           0
     39899 TIP3     168      TIP3     H1       HT       0.417000       1.00800           0
     39900 TIP3     168      TIP3     H2       HT       0.417000       1.00800           0
     39901 TIP3     169      TIP3     OH2      OT      -0.834000       15.9994           0
     39902 TIP3     169      TIP3     H1       HT       0.417000       1.00800           0
     39903 TIP3     169      TIP3     H2       HT       0.417000       1.00800           0
     39904 TIP3     170      TIP3     OH2      OT      -0.834000       15.9994           0
     39905 TIP3     170      TIP3     H1       HT       0.417000       1.00800           0
     39906 TIP3     170      TIP3     H2       HT       0.417000       1.00800           0
     39907 TIP3     171      TIP3     OH2      OT      -0.834000       15.9994           0
     39908 TIP3     171      TIP3     H1       HT       0.417000       1.00800           0
     39909 TIP3     171      TIP3     H2       HT       0.417000       1.00800           0
     39910 TIP3     172      TIP3     OH2      OT      -0.834000       15.9994           0
     39911 TIP3     172      TIP3     H1       HT       0.417000       1.00800           0
     39912 TIP3     172      TIP3     H2       HT       0.417000       1.00800           0
     39913 TIP3     173      TIP3     OH2      OT      -0.834000       15.9994           0
     39914 TIP3     173      TIP3     H1       HT       0.417000       1.00800           0
     39915 TIP3     173      TIP3     H2       HT       0.417000       1.00800           0
     39916 TIP3     174      TIP3     OH2      OT      -0.834000       15.9994           0
     39917 TIP3     174      TIP3     H1       HT       0.417000       1.00800           0
     39918 TIP3     174      TIP3     H2       HT       0.417000       1.00800           0
     39919 TIP3     175      TIP3     OH2      OT      -0.834000       15.9994           0
     39920 TIP3     175      TIP3     H1       HT       0.417000       1.00800           0
     39921 TIP3     175      TIP3     H2       HT       0.417000       1.00800           0
     39922 TIP3     176      TIP3     OH2      OT      -0.834000       15.9994           0
     39923 TIP3     176      TIP3     H1       HT       0.417000       1.00800           0
     39924 TIP3     176      TIP3     H2       HT       0.417000       1.00800           0
     39925 TIP3     177      TIP3     OH2      OT      -0.834000       15.9994           0
     39926 TIP3     177      TIP3     H1       HT       0.417000       1.00800           0
     39927 TIP3     177      TIP3     H2       HT       0.417000       1.00800           0
     39928 TIP3     178      TIP3     OH2      OT      -0.834000       15.9994           0
     39929 TIP3     178      TIP3     H1       HT       0.417000       1.00800           0
     39930 TIP3     178      TIP3     H2       HT       0.417000       1.00800           0
     39931 TIP3     179      TIP3     OH2      OT      -0.834000       15.9994           0
     39932 TIP3     179      TIP3     H1       HT       0.417000       1.00800           0
     39933 TIP3     179      TIP3     H2       HT       0.417000       1.00800           0
     39934 TIP3     180      TIP3     OH2      OT      -0.834000       15.9994           0
     39935 TIP3     180      TIP3     H1       HT       0.417000       1.00800           0
     39936 TIP3     180      TIP3     H2       HT       0.417000       1.00800           0
     39937 TIP3     181      TIP3     OH2      OT      -0.834000       15.9994           0
     39938 TIP3     181      TIP3     H1       HT       0.417000       1.00800           0
     39939 TIP3     181      TIP3     H2       HT       0.417000       1.00800           0
     39940 TIP3     182      TIP3     OH2      OT      -0.834000       15.9994           0
     39941 TIP3     182      TIP3     H1       HT       0.417000       1.00800           0
     39942 TIP3     182      TIP3     H2       HT       0.417000       1.00800           0
     39943 TIP3     183      TIP3     OH2      OT      -0.834000       15.9994           0
     39944 TIP3     183      TIP3     H1       HT       0.417000       1.00800           0
     39945 TIP3     183      TIP3     H2       HT       0.417000       1.00800           0
     39946 TIP3     184      TIP3     OH2      OT      -0.834000       15.9994           0
     39947 TIP3     184      TIP3     H1       HT       0.417000       1.00800           0
     39948 TIP3     184      TIP3     H2       HT       0.417000       1.00800           0
     39949 TIP3     185      TIP3     OH2      OT      -0.834000       15.9994           0
     39950 TIP3     185      TIP3     H1       HT       0.417000       1.00800           0
     39951 TIP3     185      TIP3     H2       HT       0.417000       1.00800           0
     39952 TIP3     186      TIP3     OH2      OT      -0.834000       15.9994           0
     39953 TIP3     186      TIP3     H1       HT       0.417000       1.00800           0
     39954 TIP3     186      TIP3     H2       HT       0.417000       1.00800           0
     39955 TIP3     187      TIP3     OH2      OT      -0.834000       15.9994           0
     39956 TIP3     187      TIP3     H1       HT       0.417000       1.00800           0
     39957 TIP3     187      TIP3     H2       HT       0.417000       1.00800           0
     39958 TIP3     188      TIP3     OH2      OT      -0.834000       15.9994           0
     39959 TIP3     188      TIP3     H1       HT       0.417000       1.00800           0
     39960 TIP3     188      TIP3     H2       HT       0.417000       1.00800           0
     39961 TIP3     189      TIP3     OH2      OT      -0.834000       15.9994           0
     39962 TIP3     189      TIP3     H1       HT       0.417000       1.00800           0
     39963 TIP3     189      TIP3     H2       HT       0.417000       1.00800           0
     39964 TIP3     190      TIP3     OH2      OT      -0.834000       15.9994           0
     39965 TIP3     190      TIP3     H1       HT       0.417000       1.00800           0
     39966 TIP3     190      TIP3     H2       HT       0.417000       1.00800           0
     39967 TIP3     191      TIP3     OH2      OT      -0.834000       15.9994           0
     39968 TIP3     191      TIP3     H1       HT       0.417000       1.00800           0
     39969 TIP3     191      TIP3     H2       HT       0.417000       1.00800           0
     39970 TIP3     192      TIP3     OH2      OT      -0.834000       15.9994           0
     39971 TIP3     192      TIP3     H1       HT       0.417000       1.00800           0
     39972 TIP3     192      TIP3     H2       HT       0.417000       1.00800           0
     39973 TIP3     193      TIP3     OH2      OT      -0.834000       15.9994           0
     39974 TIP3     193      TIP3     H1       HT       0.417000       1.00800           0
     39975 TIP3     193      TIP3     H2       HT       0.417000       1.00800           0
     39976 TIP3     194      TIP3     OH2      OT      -0.834000       15.9994           0
     39977 TIP3     194      TIP3     H1       HT       0.417000       1.00800           0
     39978 TIP3     194      TIP3     H2       HT       0.417000       1.00800           0
     39979 TIP3     195      TIP3     OH2      OT      -0.834000       15.9994           0
     39980 TIP3     195      TIP3     H1       HT       0.417000       1.00800           0
     39981 TIP3     195      TIP3     H2       HT       0.417000       1.00800           0
     39982 TIP3     196      TIP3     OH2      OT      -0.834000       15.9994           0
     39983 TIP3     196      TIP3     H1       HT       0.417000       1.00800           0
     39984 TIP3     196      TIP3     H2       HT       0.417000       1.00800           0
     39985 TIP3     197      TIP3     OH2      OT      -0.834000       15.9994           0
     39986 TIP3     197      TIP3     H1       HT       0.417000       1.00800           0
     39987 TIP3     197      TIP3     H2       HT       0.417000       1.00800           0
     39988 TIP3     198      TIP3     OH2      OT      -0.834000       15.9994           0
     39989 TIP3     198      TIP3     H1       HT       0.417000       1.00800           0
     39990 TIP3     198      TIP3     H2       HT       0.417000       1.00800           0
     39991 TIP3     199      TIP3     OH2      OT      -0.834000       15.9994           0
     39992 TIP3     199      TIP3     H1       HT       0.417000       1.00800           0
     39993 TIP3     199      TIP3     H2       HT       0.417000       1.00800           0
     39994 TIP3     200      TIP3     OH2      OT      -0.834000       15.9994           0
     39995 TIP3     200      TIP3     H1       HT       0.417000       1.00800           0
     39996 TIP3     200      TIP3     H2       HT       0.417000       1.00800           0
     39997 TIP3     201      TIP3     OH2      OT      -0.834000       15.9994           0
     39998 TIP3     201      TIP3     H1       HT       0.417000       1.00800           0
     39999 TIP3     201      TIP3     H2       HT       0.417000       1.00800           0
     40000 TIP3     202      TIP3     OH2      OT      -0.834000       15.9994           0
     40001 TIP3     202      TIP3     H1       HT       0.417000       1.00800           0
     40002 TIP3     202      TIP3     H2       HT       0.417000       1.00800           0
     40003 TIP3     203      TIP3     OH2      OT      -0.834000       15.9994           0
     40004 TIP3     203      TIP3     H1       HT       0.417000       1.00800           0
     40005 TIP3     203      TIP3     H2       HT       0.417000       1.00800           0
     40006 TIP3     204      TIP3     OH2      OT      -0.834000       15.9994           0
     40007 TIP3     204      TIP3     H1       HT       0.417000       1.00800           0
     40008 TIP3     204      TIP3     H2       HT       0.417000       1.00800           0
     40009 TIP3     205      TIP3     OH2      OT      -0.834000       15.9994           0
     40010 TIP3     205      TIP3     H1       HT       0.417000       1.00800           0
     40011 TIP3     205      TIP3     H2       HT       0.417000       1.00800           0
     40012 TIP3     206      TIP3     OH2      OT      -0.834000       15.9994           0
     40013 TIP3     206      TIP3     H1       HT       0.417000       1.00800           0
     40014 TIP3     206      TIP3     H2       HT       0.417000       1.00800           0
     40015 TIP3     207      TIP3     OH2      OT      -0.834000       15.9994           0
     40016 TIP3     207      TIP3     H1       HT       0.417000       1.00800           0
     40017 TIP3     207      TIP3     H2       HT       0.417000       1.00800           0
     40018 TIP3     208      TIP3     OH2      OT      -0.834000       15.9994           0
     40019 TIP3     208      TIP3     H1       HT       0.417000       1.00800           0
     40020 TIP3     208      TIP3     H2       HT       0.417000       1.00800           0
     40021 TIP3     209      TIP3     OH2      OT      -0.834000       15.9994           0
     40022 TIP3     209      TIP3     H1       HT       0.417000       1.00800           0
     40023 TIP3     209      TIP3     H2       HT       0.417000       1.00800           0
     40024 TIP3     210      TIP3     OH2      OT      -0.834000       15.9994           0
     40025 TIP3     210      TIP3     H1       HT       0.417000       1.00800           0
     40026 TIP3     210      TIP3     H2       HT       0.417000       1.00800           0
     40027 TIP3     211      TIP3     OH2      OT      -0.834000       15.9994           0
     40028 TIP3     211      TIP3     H1       HT       0.417000       1.00800           0
     40029 TIP3     211      TIP3     H2       HT       0.417000       1.00800           0
     40030 TIP3     212      TIP3     OH2      OT      -0.834000       15.9994           0
     40031 TIP3     212      TIP3     H1       HT       0.417000       1.00800           0
     40032 TIP3     212      TIP3     H2       HT       0.417000       1.00800           0
     40033 TIP3     213      TIP3     OH2      OT      -0.834000       15.9994           0
     40034 TIP3     213      TIP3     H1       HT       0.417000       1.00800           0
     40035 TIP3     213      TIP3     H2       HT       0.417000       1.00800           0
     40036 TIP3     214      TIP3     OH2      OT      -0.834000       15.9994           0
     40037 TIP3     214      TIP3     H1       HT       0.417000       1.00800           0
     40038 TIP3     214      TIP3     H2       HT       0.417000       1.00800           0
     40039 TIP3     215      TIP3     OH2      OT      -0.834000       15.9994           0
     40040 TIP3     215      TIP3     H1       HT       0.417000       1.00800           0
     40041 TIP3     215      TIP3     H2       HT       0.417000       1.00800           0
     40042 TIP3     216      TIP3     OH2      OT      -0.834000       15.9994           0
     40043 TIP3     216      TIP3     H1       HT       0.417000       1.00800           0
     40044 TIP3     216      TIP3     H2       HT       0.417000       1.00800           0
     40045 TIP3     217      TIP3     OH2      OT      -0.834000       15.9994           0
     40046 TIP3     217      TIP3     H1       HT       0.417000       1.00800           0
     40047 TIP3     217      TIP3     H2       HT       0.417000       1.00800           0
     40048 TIP3     218      TIP3     OH2      OT      -0.834000       15.9994           0
     40049 TIP3     218      TIP3     H1       HT       0.417000       1.00800           0
     40050 TIP3     218      TIP3     H2       HT       0.417000       1.00800           0
     40051 TIP3     219      TIP3     OH2      OT      -0.834000       15.9994           0
     40052 TIP3     219      TIP3     H1       HT       0.417000       1.00800           0
     40053 TIP3     219      TIP3     H2       HT       0.417000       1.00800           0
     40054 TIP3     220      TIP3     OH2      OT      -0.834000       15.9994           0
     40055 TIP3     220      TIP3     H1       HT       0.417000       1.00800           0
     40056 TIP3     220      TIP3     H2       HT       0.417000       1.00800           0
     40057 TIP3     221      TIP3     OH2      OT      -0.834000       15.9994           0
     40058 TIP3     221      TIP3     H1       HT       0.417000       1.00800           0
     40059 TIP3     221      TIP3     H2       HT       0.417000       1.00800           0
     40060 TIP3     222      TIP3     OH2      OT      -0.834000       15.9994           0
     40061 TIP3     222      TIP3     H1       HT       0.417000       1.00800           0
     40062 TIP3     222      TIP3     H2       HT       0.417000       1.00800           0
     40063 TIP3     223      TIP3     OH2      OT      -0.834000       15.9994           0
     40064 TIP3     223      TIP3     H1       HT       0.417000       1.00800           0
     40065 TIP3     223      TIP3     H2       HT       0.417000       1.00800           0
     40066 TIP3     224      TIP3     OH2      OT      -0.834000       15.9994           0
     40067 TIP3     224      TIP3     H1       HT       0.417000       1.00800           0
     40068 TIP3     224      TIP3     H2       HT       0.417000       1.00800           0
     40069 TIP3     225      TIP3     OH2      OT      -0.834000       15.9994           0
     40070 TIP3     225      TIP3     H1       HT       0.417000       1.00800           0
     40071 TIP3     225      TIP3     H2       HT       0.417000       1.00800           0
     40072 TIP3     226      TIP3     OH2      OT      -0.834000       15.9994           0
     40073 TIP3     226      TIP3     H1       HT       0.417000       1.00800           0
     40074 TIP3     226      TIP3     H2       HT       0.417000       1.00800           0
     40075 TIP3     227      TIP3     OH2      OT      -0.834000       15.9994           0
     40076 TIP3     227      TIP3     H1       HT       0.417000       1.00800           0
     40077 TIP3     227      TIP3     H2       HT       0.417000       1.00800           0
     40078 TIP3     228      TIP3     OH2      OT      -0.834000       15.9994           0
     40079 TIP3     228      TIP3     H1       HT       0.417000       1.00800           0
     40080 TIP3     228      TIP3     H2       HT       0.417000       1.00800           0
     40081 TIP3     229      TIP3     OH2      OT      -0.834000       15.9994           0
     40082 TIP3     229      TIP3     H1       HT       0.417000       1.00800           0
     40083 TIP3     229      TIP3     H2       HT       0.417000       1.00800           0
     40084 TIP3     230      TIP3     OH2      OT      -0.834000       15.9994           0
     40085 TIP3     230      TIP3     H1       HT       0.417000       1.00800           0
     40086 TIP3     230      TIP3     H2       HT       0.417000       1.00800           0
     40087 TIP3     231      TIP3     OH2      OT      -0.834000       15.9994           0
     40088 TIP3     231      TIP3     H1       HT       0.417000       1.00800           0
     40089 TIP3     231      TIP3     H2       HT       0.417000       1.00800           0
     40090 TIP3     232      TIP3     OH2      OT      -0.834000       15.9994           0
     40091 TIP3     232      TIP3     H1       HT       0.417000       1.00800           0
     40092 TIP3     232      TIP3     H2       HT       0.417000       1.00800           0
     40093 TIP3     233      TIP3     OH2      OT      -0.834000       15.9994           0
     40094 TIP3     233      TIP3     H1       HT       0.417000       1.00800           0
     40095 TIP3     233      TIP3     H2       HT       0.417000       1.00800           0
     40096 TIP3     234      TIP3     OH2      OT      -0.834000       15.9994           0
     40097 TIP3     234      TIP3     H1       HT       0.417000       1.00800           0
     40098 TIP3     234      TIP3     H2       HT       0.417000       1.00800           0
     40099 TIP3     235      TIP3     OH2      OT      -0.834000       15.9994           0
     40100 TIP3     235      TIP3     H1       HT       0.417000       1.00800           0
     40101 TIP3     235      TIP3     H2       HT       0.417000       1.00800           0
     40102 TIP3     236      TIP3     OH2      OT      -0.834000       15.9994           0
     40103 TIP3     236      TIP3     H1       HT       0.417000       1.00800           0
     40104 TIP3     236      TIP3     H2       HT       0.417000       1.00800           0
     40105 TIP3     237      TIP3     OH2      OT      -0.834000       15.9994           0
     40106 TIP3     237      TIP3     H1       HT       0.417000       1.00800           0
     40107 TIP3     237      TIP3     H2       HT       0.417000       1.00800           0
     40108 TIP3     238      TIP3     OH2      OT      -0.834000       15.9994           0
     40109 TIP3     238      TIP3     H1       HT       0.417000       1.00800           0
     40110 TIP3     238      TIP3     H2       HT       0.417000       1.00800           0
     40111 TIP3     239      TIP3     OH2      OT      -0.834000       15.9994           0
     40112 TIP3     239      TIP3     H1       HT       0.417000       1.00800           0
     40113 TIP3     239      TIP3     H2       HT       0.417000       1.00800           0
     40114 TIP3     240      TIP3     OH2      OT      -0.834000       15.9994           0
     40115 TIP3     240      TIP3     H1       HT       0.417000       1.00800           0
     40116 TIP3     240      TIP3     H2       HT       0.417000       1.00800           0
     40117 TIP3     241      TIP3     OH2      OT      -0.834000       15.9994           0
     40118 TIP3     241      TIP3     H1       HT       0.417000       1.00800           0
     40119 TIP3     241      TIP3     H2       HT       0.417000       1.00800           0
     40120 TIP3     242      TIP3     OH2      OT      -0.834000       15.9994           0
     40121 TIP3     242      TIP3     H1       HT       0.417000       1.00800           0
     40122 TIP3     242      TIP3     H2       HT       0.417000       1.00800           0
     40123 TIP3     243      TIP3     OH2      OT      -0.834000       15.9994           0
     40124 TIP3     243      TIP3     H1       HT       0.417000       1.00800           0
     40125 TIP3     243      TIP3     H2       HT       0.417000       1.00800           0
     40126 TIP3     244      TIP3     OH2      OT      -0.834000       15.9994           0
     40127 TIP3     244      TIP3     H1       HT       0.417000       1.00800           0
     40128 TIP3     244      TIP3     H2       HT       0.417000       1.00800           0
     40129 TIP3     245      TIP3     OH2      OT      -0.834000       15.9994           0
     40130 TIP3     245      TIP3     H1       HT       0.417000       1.00800           0
     40131 TIP3     245      TIP3     H2       HT       0.417000       1.00800           0
     40132 TIP3     246      TIP3     OH2      OT      -0.834000       15.9994           0
     40133 TIP3     246      TIP3     H1       HT       0.417000       1.00800           0
     40134 TIP3     246      TIP3     H2       HT       0.417000       1.00800           0
     40135 TIP3     247      TIP3     OH2      OT      -0.834000       15.9994           0
     40136 TIP3     247      TIP3     H1       HT       0.417000       1.00800           0
     40137 TIP3     247      TIP3     H2       HT       0.417000       1.00800           0
     40138 TIP3     248      TIP3     OH2      OT      -0.834000       15.9994           0
     40139 TIP3     248      TIP3     H1       HT       0.417000       1.00800           0
     40140 TIP3     248      TIP3     H2       HT       0.417000       1.00800           0
     40141 TIP3     249      TIP3     OH2      OT      -0.834000       15.9994           0
     40142 TIP3     249      TIP3     H1       HT       0.417000       1.00800           0
     40143 TIP3     249      TIP3     H2       HT       0.417000       1.00800           0
     40144 TIP3     250      TIP3     OH2      OT      -0.834000       15.9994           0
     40145 TIP3     250      TIP3     H1       HT       0.417000       1.00800           0
     40146 TIP3     250      TIP3     H2       HT       0.417000       1.00800           0
     40147 TIP3     251      TIP3     OH2      OT      -0.834000       15.9994           0
     40148 TIP3     251      TIP3     H1       HT       0.417000       1.00800           0
     40149 TIP3     251      TIP3     H2       HT       0.417000       1.00800           0
     40150 TIP3     252      TIP3     OH2      OT      -0.834000       15.9994           0
     40151 TIP3     252      TIP3     H1       HT       0.417000       1.00800           0
     40152 TIP3     252      TIP3     H2       HT       0.417000       1.00800           0
     40153 TIP3     253      TIP3     OH2      OT      -0.834000       15.9994           0
     40154 TIP3     253      TIP3     H1       HT       0.417000       1.00800           0
     40155 TIP3     253      TIP3     H2       HT       0.417000       1.00800           0
     40156 TIP3     254      TIP3     OH2      OT      -0.834000       15.9994           0
     40157 TIP3     254      TIP3     H1       HT       0.417000       1.00800           0
     40158 TIP3     254      TIP3     H2       HT       0.417000       1.00800           0
     40159 TIP3     255      TIP3     OH2      OT      -0.834000       15.9994           0
     40160 TIP3     255      TIP3     H1       HT       0.417000       1.00800           0
     40161 TIP3     255      TIP3     H2       HT       0.417000       1.00800           0
     40162 TIP3     256      TIP3     OH2      OT      -0.834000       15.9994           0
     40163 TIP3     256      TIP3     H1       HT       0.417000       1.00800           0
     40164 TIP3     256      TIP3     H2       HT       0.417000       1.00800           0
     40165 TIP3     257      TIP3     OH2      OT      -0.834000       15.9994           0
     40166 TIP3     257      TIP3     H1       HT       0.417000       1.00800           0
     40167 TIP3     257      TIP3     H2       HT       0.417000       1.00800           0
     40168 TIP3     258      TIP3     OH2      OT      -0.834000       15.9994           0
     40169 TIP3     258      TIP3     H1       HT       0.417000       1.00800           0
     40170 TIP3     258      TIP3     H2       HT       0.417000       1.00800           0
     40171 TIP3     259      TIP3     OH2      OT      -0.834000       15.9994           0
     40172 TIP3     259      TIP3     H1       HT       0.417000       1.00800           0
     40173 TIP3     259      TIP3     H2       HT       0.417000       1.00800           0
     40174 TIP3     260      TIP3     OH2      OT      -0.834000       15.9994           0
     40175 TIP3     260      TIP3     H1       HT       0.417000       1.00800           0
     40176 TIP3     260      TIP3     H2       HT       0.417000       1.00800           0
     40177 TIP3     261      TIP3     OH2      OT      -0.834000       15.9994           0
     40178 TIP3     261      TIP3     H1       HT       0.417000       1.00800           0
     40179 TIP3     261      TIP3     H2       HT       0.417000       1.00800           0
     40180 TIP3     262      TIP3     OH2      OT      -0.834000       15.9994           0
     40181 TIP3     262      TIP3     H1       HT       0.417000       1.00800           0
     40182 TIP3     262      TIP3     H2       HT       0.417000       1.00800           0
     40183 TIP3     263      TIP3     OH2      OT      -0.834000       15.9994           0
     40184 TIP3     263      TIP3     H1       HT       0.417000       1.00800           0
     40185 TIP3     263      TIP3     H2       HT       0.417000       1.00800           0
     40186 TIP3     264      TIP3     OH2      OT      -0.834000       15.9994           0
     40187 TIP3     264      TIP3     H1       HT       0.417000       1.00800           0
     40188 TIP3     264      TIP3     H2       HT       0.417000       1.00800           0
     40189 TIP3     265      TIP3     OH2      OT      -0.834000       15.9994           0
     40190 TIP3     265      TIP3     H1       HT       0.417000       1.00800           0
     40191 TIP3     265      TIP3     H2       HT       0.417000       1.00800           0
     40192 TIP3     266      TIP3     OH2      OT      -0.834000       15.9994           0
     40193 TIP3     266      TIP3     H1       HT       0.417000       1.00800           0
     40194 TIP3     266      TIP3     H2       HT       0.417000       1.00800           0
     40195 TIP3     267      TIP3     OH2      OT      -0.834000       15.9994           0
     40196 TIP3     267      TIP3     H1       HT       0.417000       1.00800           0
     40197 TIP3     267      TIP3     H2       HT       0.417000       1.00800           0
     40198 TIP3     268      TIP3     OH2      OT      -0.834000       15.9994           0
     40199 TIP3     268      TIP3     H1       HT       0.417000       1.00800           0
     40200 TIP3     268      TIP3     H2       HT       0.417000       1.00800           0
     40201 TIP3     269      TIP3     OH2      OT      -0.834000       15.9994           0
     40202 TIP3     269      TIP3     H1       HT       0.417000       1.00800           0
     40203 TIP3     269      TIP3     H2       HT       0.417000       1.00800           0
     40204 TIP3     270      TIP3     OH2      OT      -0.834000       15.9994           0
     40205 TIP3     270      TIP3     H1       HT       0.417000       1.00800           0
     40206 TIP3     270      TIP3     H2       HT       0.417000       1.00800           0
     40207 TIP3     271      TIP3     OH2      OT      -0.834000       15.9994           0
     40208 TIP3     271      TIP3     H1       HT       0.417000       1.00800           0
     40209 TIP3     271      TIP3     H2       HT       0.417000       1.00800           0
     40210 TIP3     272      TIP3     OH2      OT      -0.834000       15.9994           0
     40211 TIP3     272      TIP3     H1       HT       0.417000       1.00800           0
     40212 TIP3     272      TIP3     H2       HT       0.417000       1.00800           0
     40213 TIP3     273      TIP3     OH2      OT      -0.834000       15.9994           0
     40214 TIP3     273      TIP3     H1       HT       0.417000       1.00800           0
     40215 TIP3     273      TIP3     H2       HT       0.417000       1.00800           0
     40216 TIP3     274      TIP3     OH2      OT      -0.834000       15.9994           0
     40217 TIP3     274      TIP3     H1       HT       0.417000       1.00800           0
     40218 TIP3     274      TIP3     H2       HT       0.417000       1.00800           0
     40219 TIP3     275      TIP3     OH2      OT      -0.834000       15.9994           0
     40220 TIP3     275      TIP3     H1       HT       0.417000       1.00800           0
     40221 TIP3     275      TIP3     H2       HT       0.417000       1.00800           0
     40222 TIP3     276      TIP3     OH2      OT      -0.834000       15.9994           0
     40223 TIP3     276      TIP3     H1       HT       0.417000       1.00800           0
     40224 TIP3     276      TIP3     H2       HT       0.417000       1.00800           0
     40225 TIP3     277      TIP3     OH2      OT      -0.834000       15.9994           0
     40226 TIP3     277      TIP3     H1       HT       0.417000       1.00800           0
     40227 TIP3     277      TIP3     H2       HT       0.417000       1.00800           0
     40228 TIP3     278      TIP3     OH2      OT      -0.834000       15.9994           0
     40229 TIP3     278      TIP3     H1       HT       0.417000       1.00800           0
     40230 TIP3     278      TIP3     H2       HT       0.417000       1.00800           0
     40231 TIP3     279      TIP3     OH2      OT      -0.834000       15.9994           0
     40232 TIP3     279      TIP3     H1       HT       0.417000       1.00800           0
     40233 TIP3     279      TIP3     H2       HT       0.417000       1.00800           0
     40234 TIP3     280      TIP3     OH2      OT      -0.834000       15.9994           0
     40235 TIP3     280      TIP3     H1       HT       0.417000       1.00800           0
     40236 TIP3     280      TIP3     H2       HT       0.417000       1.00800           0
     40237 TIP3     281      TIP3     OH2      OT      -0.834000       15.9994           0
     40238 TIP3     281      TIP3     H1       HT       0.417000       1.00800           0
     40239 TIP3     281      TIP3     H2       HT       0.417000       1.00800           0
     40240 TIP3     282      TIP3     OH2      OT      -0.834000       15.9994           0
     40241 TIP3     282      TIP3     H1       HT       0.417000       1.00800           0
     40242 TIP3     282      TIP3     H2       HT       0.417000       1.00800           0
     40243 TIP3     283      TIP3     OH2      OT      -0.834000       15.9994           0
     40244 TIP3     283      TIP3     H1       HT       0.417000       1.00800           0
     40245 TIP3     283      TIP3     H2       HT       0.417000       1.00800           0
     40246 TIP3     284      TIP3     OH2      OT      -0.834000       15.9994           0
     40247 TIP3     284      TIP3     H1       HT       0.417000       1.00800           0
     40248 TIP3     284      TIP3     H2       HT       0.417000       1.00800           0
     40249 TIP3     285      TIP3     OH2      OT      -0.834000       15.9994           0
     40250 TIP3     285      TIP3     H1       HT       0.417000       1.00800           0
     40251 TIP3     285      TIP3     H2       HT       0.417000       1.00800           0
     40252 TIP3     286      TIP3     OH2      OT      -0.834000       15.9994           0
     40253 TIP3     286      TIP3     H1       HT       0.417000       1.00800           0
     40254 TIP3     286      TIP3     H2       HT       0.417000       1.00800           0
     40255 TIP3     287      TIP3     OH2      OT      -0.834000       15.9994           0
     40256 TIP3     287      TIP3     H1       HT       0.417000       1.00800           0
     40257 TIP3     287      TIP3     H2       HT       0.417000       1.00800           0
     40258 TIP3     288      TIP3     OH2      OT      -0.834000       15.9994           0
     40259 TIP3     288      TIP3     H1       HT       0.417000       1.00800           0
     40260 TIP3     288      TIP3     H2       HT       0.417000       1.00800           0
     40261 TIP3     289      TIP3     OH2      OT      -0.834000       15.9994           0
     40262 TIP3     289      TIP3     H1       HT       0.417000       1.00800           0
     40263 TIP3     289      TIP3     H2       HT       0.417000       1.00800           0
     40264 TIP3     290      TIP3     OH2      OT      -0.834000       15.9994           0
     40265 TIP3     290      TIP3     H1       HT       0.417000       1.00800           0
     40266 TIP3     290      TIP3     H2       HT       0.417000       1.00800           0
     40267 TIP3     291      TIP3     OH2      OT      -0.834000       15.9994           0
     40268 TIP3     291      TIP3     H1       HT       0.417000       1.00800           0
     40269 TIP3     291      TIP3     H2       HT       0.417000       1.00800           0
     40270 TIP3     292      TIP3     OH2      OT      -0.834000       15.9994           0
     40271 TIP3     292      TIP3     H1       HT       0.417000       1.00800           0
     40272 TIP3     292      TIP3     H2       HT       0.417000       1.00800           0
     40273 TIP3     293      TIP3     OH2      OT      -0.834000       15.9994           0
     40274 TIP3     293      TIP3     H1       HT       0.417000       1.00800           0
     40275 TIP3     293      TIP3     H2       HT       0.417000       1.00800           0
     40276 TIP3     294      TIP3     OH2      OT      -0.834000       15.9994           0
     40277 TIP3     294      TIP3     H1       HT       0.417000       1.00800           0
     40278 TIP3     294      TIP3     H2       HT       0.417000       1.00800           0
     40279 TIP3     295      TIP3     OH2      OT      -0.834000       15.9994           0
     40280 TIP3     295      TIP3     H1       HT       0.417000       1.00800           0
     40281 TIP3     295      TIP3     H2       HT       0.417000       1.00800           0
     40282 TIP3     296      TIP3     OH2      OT      -0.834000       15.9994           0
     40283 TIP3     296      TIP3     H1       HT       0.417000       1.00800           0
     40284 TIP3     296      TIP3     H2       HT       0.417000       1.00800           0
     40285 TIP3     297      TIP3     OH2      OT      -0.834000       15.9994           0
     40286 TIP3     297      TIP3     H1       HT       0.417000       1.00800           0
     40287 TIP3     297      TIP3     H2       HT       0.417000       1.00800           0
     40288 TIP3     298      TIP3     OH2      OT      -0.834000       15.9994           0
     40289 TIP3     298      TIP3     H1       HT       0.417000       1.00800           0
     40290 TIP3     298      TIP3     H2       HT       0.417000       1.00800           0
     40291 TIP3     299      TIP3     OH2      OT      -0.834000       15.9994           0
     40292 TIP3     299      TIP3     H1       HT       0.417000       1.00800           0
     40293 TIP3     299      TIP3     H2       HT       0.417000       1.00800           0
     40294 TIP3     300      TIP3     OH2      OT      -0.834000       15.9994           0
     40295 TIP3     300      TIP3     H1       HT       0.417000       1.00800           0
     40296 TIP3     300      TIP3     H2       HT       0.417000       1.00800           0
     40297 TIP3     301      TIP3     OH2      OT      -0.834000       15.9994           0
     40298 TIP3     301      TIP3     H1       HT       0.417000       1.00800           0
     40299 TIP3     301      TIP3     H2       HT       0.417000       1.00800           0
     40300 TIP3     302      TIP3     OH2      OT      -0.834000       15.9994           0
     40301 TIP3     302      TIP3     H1       HT       0.417000       1.00800           0
     40302 TIP3     302      TIP3     H2       HT       0.417000       1.00800           0
     40303 TIP3     303      TIP3     OH2      OT      -0.834000       15.9994           0
     40304 TIP3     303      TIP3     H1       HT       0.417000       1.00800           0
     40305 TIP3     303      TIP3     H2       HT       0.417000       1.00800           0
     40306 TIP3     304      TIP3     OH2      OT      -0.834000       15.9994           0
     40307 TIP3     304      TIP3     H1       HT       0.417000       1.00800           0
     40308 TIP3     304      TIP3     H2       HT       0.417000       1.00800           0
     40309 TIP3     305      TIP3     OH2      OT      -0.834000       15.9994           0
     40310 TIP3     305      TIP3     H1       HT       0.417000       1.00800           0
     40311 TIP3     305      TIP3     H2       HT       0.417000       1.00800           0
     40312 TIP3     306      TIP3     OH2      OT      -0.834000       15.9994           0
     40313 TIP3     306      TIP3     H1       HT       0.417000       1.00800           0
     40314 TIP3     306      TIP3     H2       HT       0.417000       1.00800           0
     40315 TIP3     307      TIP3     OH2      OT      -0.834000       15.9994           0
     40316 TIP3     307      TIP3     H1       HT       0.417000       1.00800           0
     40317 TIP3     307      TIP3     H2       HT       0.417000       1.00800           0
     40318 TIP3     308      TIP3     OH2      OT      -0.834000       15.9994           0
     40319 TIP3     308      TIP3     H1       HT       0.417000       1.00800           0
     40320 TIP3     308      TIP3     H2       HT       0.417000       1.00800           0
     40321 TIP3     309      TIP3     OH2      OT      -0.834000       15.9994           0
     40322 TIP3     309      TIP3     H1       HT       0.417000       1.00800           0
     40323 TIP3     309      TIP3     H2       HT       0.417000       1.00800           0
     40324 TIP3     310      TIP3     OH2      OT      -0.834000       15.9994           0
     40325 TIP3     310      TIP3     H1       HT       0.417000       1.00800           0
     40326 TIP3     310      TIP3     H2       HT       0.417000       1.00800           0
     40327 TIP3     311      TIP3     OH2      OT      -0.834000       15.9994           0
     40328 TIP3     311      TIP3     H1       HT       0.417000       1.00800           0
     40329 TIP3     311      TIP3     H2       HT       0.417000       1.00800           0
     40330 TIP3     312      TIP3     OH2      OT      -0.834000       15.9994           0
     40331 TIP3     312      TIP3     H1       HT       0.417000       1.00800           0
     40332 TIP3     312      TIP3     H2       HT       0.417000       1.00800           0
     40333 TIP3     313      TIP3     OH2      OT      -0.834000       15.9994           0
     40334 TIP3     313      TIP3     H1       HT       0.417000       1.00800           0
     40335 TIP3     313      TIP3     H2       HT       0.417000       1.00800           0
     40336 TIP3     314      TIP3     OH2      OT      -0.834000       15.9994           0
     40337 TIP3     314      TIP3     H1       HT       0.417000       1.00800           0
     40338 TIP3     314      TIP3     H2       HT       0.417000       1.00800           0
     40339 TIP3     315      TIP3     OH2      OT      -0.834000       15.9994           0
     40340 TIP3     315      TIP3     H1       HT       0.417000       1.00800           0
     40341 TIP3     315      TIP3     H2       HT       0.417000       1.00800           0
     40342 TIP3     316      TIP3     OH2      OT      -0.834000       15.9994           0
     40343 TIP3     316      TIP3     H1       HT       0.417000       1.00800           0
     40344 TIP3     316      TIP3     H2       HT       0.417000       1.00800           0
     40345 TIP3     317      TIP3     OH2      OT      -0.834000       15.9994           0
     40346 TIP3     317      TIP3     H1       HT       0.417000       1.00800           0
     40347 TIP3     317      TIP3     H2       HT       0.417000       1.00800           0
     40348 TIP3     318      TIP3     OH2      OT      -0.834000       15.9994           0
     40349 TIP3     318      TIP3     H1       HT       0.417000       1.00800           0
     40350 TIP3     318      TIP3     H2       HT       0.417000       1.00800           0
     40351 TIP3     319      TIP3     OH2      OT      -0.834000       15.9994           0
     40352 TIP3     319      TIP3     H1       HT       0.417000       1.00800           0
     40353 TIP3     319      TIP3     H2       HT       0.417000       1.00800           0
     40354 TIP3     320      TIP3     OH2      OT      -0.834000       15.9994           0
     40355 TIP3     320      TIP3     H1       HT       0.417000       1.00800           0
     40356 TIP3     320      TIP3     H2       HT       0.417000       1.00800           0
     40357 TIP3     321      TIP3     OH2      OT      -0.834000       15.9994           0
     40358 TIP3     321      TIP3     H1       HT       0.417000       1.00800           0
     40359 TIP3     321      TIP3     H2       HT       0.417000       1.00800           0
     40360 TIP3     322      TIP3     OH2      OT      -0.834000       15.9994           0
     40361 TIP3     322      TIP3     H1       HT       0.417000       1.00800           0
     40362 TIP3     322      TIP3     H2       HT       0.417000       1.00800           0
     40363 TIP3     323      TIP3     OH2      OT      -0.834000       15.9994           0
     40364 TIP3     323      TIP3     H1       HT       0.417000       1.00800           0
     40365 TIP3     323      TIP3     H2       HT       0.417000       1.00800           0
     40366 TIP3     324      TIP3     OH2      OT      -0.834000       15.9994           0
     40367 TIP3     324      TIP3     H1       HT       0.417000       1.00800           0
     40368 TIP3     324      TIP3     H2       HT       0.417000       1.00800           0
     40369 TIP3     325      TIP3     OH2      OT      -0.834000       15.9994           0
     40370 TIP3     325      TIP3     H1       HT       0.417000       1.00800           0
     40371 TIP3     325      TIP3     H2       HT       0.417000       1.00800           0
     40372 TIP3     326      TIP3     OH2      OT      -0.834000       15.9994           0
     40373 TIP3     326      TIP3     H1       HT       0.417000       1.00800           0
     40374 TIP3     326      TIP3     H2       HT       0.417000       1.00800           0
     40375 TIP3     327      TIP3     OH2      OT      -0.834000       15.9994           0
     40376 TIP3     327      TIP3     H1       HT       0.417000       1.00800           0
     40377 TIP3     327      TIP3     H2       HT       0.417000       1.00800           0
     40378 TIP3     328      TIP3     OH2      OT      -0.834000       15.9994           0
     40379 TIP3     328      TIP3     H1       HT       0.417000       1.00800           0
     40380 TIP3     328      TIP3     H2       HT       0.417000       1.00800           0
     40381 TIP3     329      TIP3     OH2      OT      -0.834000       15.9994           0
     40382 TIP3     329      TIP3     H1       HT       0.417000       1.00800           0
     40383 TIP3     329      TIP3     H2       HT       0.417000       1.00800           0
     40384 TIP3     330      TIP3     OH2      OT      -0.834000       15.9994           0
     40385 TIP3     330      TIP3     H1       HT       0.417000       1.00800           0
     40386 TIP3     330      TIP3     H2       HT       0.417000       1.00800           0
     40387 TIP3     331      TIP3     OH2      OT      -0.834000       15.9994           0
     40388 TIP3     331      TIP3     H1       HT       0.417000       1.00800           0
     40389 TIP3     331      TIP3     H2       HT       0.417000       1.00800           0
     40390 TIP3     332      TIP3     OH2      OT      -0.834000       15.9994           0
     40391 TIP3     332      TIP3     H1       HT       0.417000       1.00800           0
     40392 TIP3     332      TIP3     H2       HT       0.417000       1.00800           0
     40393 TIP3     333      TIP3     OH2      OT      -0.834000       15.9994           0
     40394 TIP3     333      TIP3     H1       HT       0.417000       1.00800           0
     40395 TIP3     333      TIP3     H2       HT       0.417000       1.00800           0
     40396 TIP3     334      TIP3     OH2      OT      -0.834000       15.9994           0
     40397 TIP3     334      TIP3     H1       HT       0.417000       1.00800           0
     40398 TIP3     334      TIP3     H2       HT       0.417000       1.00800           0
     40399 TIP3     335      TIP3     OH2      OT      -0.834000       15.9994           0
     40400 TIP3     335      TIP3     H1       HT       0.417000       1.00800           0
     40401 TIP3     335      TIP3     H2       HT       0.417000       1.00800           0
     40402 TIP3     336      TIP3     OH2      OT      -0.834000       15.9994           0
     40403 TIP3     336      TIP3     H1       HT       0.417000       1.00800           0
     40404 TIP3     336      TIP3     H2       HT       0.417000       1.00800           0
     40405 TIP3     337      TIP3     OH2      OT      -0.834000       15.9994           0
     40406 TIP3     337      TIP3     H1       HT       0.417000       1.00800           0
     40407 TIP3     337      TIP3     H2       HT       0.417000       1.00800           0
     40408 TIP3     338      TIP3     OH2      OT      -0.834000       15.9994           0
     40409 TIP3     338      TIP3     H1       HT       0.417000       1.00800           0
     40410 TIP3     338      TIP3     H2       HT       0.417000       1.00800           0
     40411 TIP3     339      TIP3     OH2      OT      -0.834000       15.9994           0
     40412 TIP3     339      TIP3     H1       HT       0.417000       1.00800           0
     40413 TIP3     339      TIP3     H2       HT       0.417000       1.00800           0
     40414 TIP3     340      TIP3     OH2      OT      -0.834000       15.9994           0
     40415 TIP3     340      TIP3     H1       HT       0.417000       1.00800           0
     40416 TIP3     340      TIP3     H2       HT       0.417000       1.00800           0
     40417 TIP3     341      TIP3     OH2      OT      -0.834000       15.9994           0
     40418 TIP3     341      TIP3     H1       HT       0.417000       1.00800           0
     40419 TIP3     341      TIP3     H2       HT       0.417000       1.00800           0
     40420 TIP3     342      TIP3     OH2      OT      -0.834000       15.9994           0
     40421 TIP3     342      TIP3     H1       HT       0.417000       1.00800           0
     40422 TIP3     342      TIP3     H2       HT       0.417000       1.00800           0
     40423 TIP3     343      TIP3     OH2      OT      -0.834000       15.9994           0
     40424 TIP3     343      TIP3     H1       HT       0.417000       1.00800           0
     40425 TIP3     343      TIP3     H2       HT       0.417000       1.00800           0
     40426 TIP3     344      TIP3     OH2      OT      -0.834000       15.9994           0
     40427 TIP3     344      TIP3     H1       HT       0.417000       1.00800           0
     40428 TIP3     344      TIP3     H2       HT       0.417000       1.00800           0
     40429 TIP3     345      TIP3     OH2      OT      -0.834000       15.9994           0
     40430 TIP3     345      TIP3     H1       HT       0.417000       1.00800           0
     40431 TIP3     345      TIP3     H2       HT       0.417000       1.00800           0
     40432 TIP3     346      TIP3     OH2      OT      -0.834000       15.9994           0
     40433 TIP3     346      TIP3     H1       HT       0.417000       1.00800           0
     40434 TIP3     346      TIP3     H2       HT       0.417000       1.00800           0
     40435 TIP3     347      TIP3     OH2      OT      -0.834000       15.9994           0
     40436 TIP3     347      TIP3     H1       HT       0.417000       1.00800           0
     40437 TIP3     347      TIP3     H2       HT       0.417000       1.00800           0
     40438 TIP3     348      TIP3     OH2      OT      -0.834000       15.9994           0
     40439 TIP3     348      TIP3     H1       HT       0.417000       1.00800           0
     40440 TIP3     348      TIP3     H2       HT       0.417000       1.00800           0
     40441 TIP3     349      TIP3     OH2      OT      -0.834000       15.9994           0
     40442 TIP3     349      TIP3     H1       HT       0.417000       1.00800           0
     40443 TIP3     349      TIP3     H2       HT       0.417000       1.00800           0
     40444 TIP3     350      TIP3     OH2      OT      -0.834000       15.9994           0
     40445 TIP3     350      TIP3     H1       HT       0.417000       1.00800           0
     40446 TIP3     350      TIP3     H2       HT       0.417000       1.00800           0
     40447 TIP3     351      TIP3     OH2      OT      -0.834000       15.9994           0
     40448 TIP3     351      TIP3     H1       HT       0.417000       1.00800           0
     40449 TIP3     351      TIP3     H2       HT       0.417000       1.00800           0
     40450 TIP3     352      TIP3     OH2      OT      -0.834000       15.9994           0
     40451 TIP3     352      TIP3     H1       HT       0.417000       1.00800           0
     40452 TIP3     352      TIP3     H2       HT       0.417000       1.00800           0
     40453 TIP3     353      TIP3     OH2      OT      -0.834000       15.9994           0
     40454 TIP3     353      TIP3     H1       HT       0.417000       1.00800           0
     40455 TIP3     353      TIP3     H2       HT       0.417000       1.00800           0
     40456 TIP3     354      TIP3     OH2      OT      -0.834000       15.9994           0
     40457 TIP3     354      TIP3     H1       HT       0.417000       1.00800           0
     40458 TIP3     354      TIP3     H2       HT       0.417000       1.00800           0
     40459 TIP3     355      TIP3     OH2      OT      -0.834000       15.9994           0
     40460 TIP3     355      TIP3     H1       HT       0.417000       1.00800           0
     40461 TIP3     355      TIP3     H2       HT       0.417000       1.00800           0
     40462 TIP3     356      TIP3     OH2      OT      -0.834000       15.9994           0
     40463 TIP3     356      TIP3     H1       HT       0.417000       1.00800           0
     40464 TIP3     356      TIP3     H2       HT       0.417000       1.00800           0
     40465 TIP3     357      TIP3     OH2      OT      -0.834000       15.9994           0
     40466 TIP3     357      TIP3     H1       HT       0.417000       1.00800           0
     40467 TIP3     357      TIP3     H2       HT       0.417000       1.00800           0
     40468 TIP3     358      TIP3     OH2      OT      -0.834000       15.9994           0
     40469 TIP3     358      TIP3     H1       HT       0.417000       1.00800           0
     40470 TIP3     358      TIP3     H2       HT       0.417000       1.00800           0
     40471 TIP3     359      TIP3     OH2      OT      -0.834000       15.9994           0
     40472 TIP3     359      TIP3     H1       HT       0.417000       1.00800           0
     40473 TIP3     359      TIP3     H2       HT       0.417000       1.00800           0
     40474 TIP3     360      TIP3     OH2      OT      -0.834000       15.9994           0
     40475 TIP3     360      TIP3     H1       HT       0.417000       1.00800           0
     40476 TIP3     360      TIP3     H2       HT       0.417000       1.00800           0
     40477 TIP3     361      TIP3     OH2      OT      -0.834000       15.9994           0
     40478 TIP3     361      TIP3     H1       HT       0.417000       1.00800           0
     40479 TIP3     361      TIP3     H2       HT       0.417000       1.00800           0
     40480 TIP3     362      TIP3     OH2      OT      -0.834000       15.9994           0
     40481 TIP3     362      TIP3     H1       HT       0.417000       1.00800           0
     40482 TIP3     362      TIP3     H2       HT       0.417000       1.00800           0
     40483 TIP3     363      TIP3     OH2      OT      -0.834000       15.9994           0
     40484 TIP3     363      TIP3     H1       HT       0.417000       1.00800           0
     40485 TIP3     363      TIP3     H2       HT       0.417000       1.00800           0
     40486 TIP3     364      TIP3     OH2      OT      -0.834000       15.9994           0
     40487 TIP3     364      TIP3     H1       HT       0.417000       1.00800           0
     40488 TIP3     364      TIP3     H2       HT       0.417000       1.00800           0
     40489 TIP3     365      TIP3     OH2      OT      -0.834000       15.9994           0
     40490 TIP3     365      TIP3     H1       HT       0.417000       1.00800           0
     40491 TIP3     365      TIP3     H2       HT       0.417000       1.00800           0
     40492 TIP3     366      TIP3     OH2      OT      -0.834000       15.9994           0
     40493 TIP3     366      TIP3     H1       HT       0.417000       1.00800           0
     40494 TIP3     366      TIP3     H2       HT       0.417000       1.00800           0
     40495 TIP3     367      TIP3     OH2      OT      -0.834000       15.9994           0
     40496 TIP3     367      TIP3     H1       HT       0.417000       1.00800           0
     40497 TIP3     367      TIP3     H2       HT       0.417000       1.00800           0
     40498 TIP3     368      TIP3     OH2      OT      -0.834000       15.9994           0
     40499 TIP3     368      TIP3     H1       HT       0.417000       1.00800           0
     40500 TIP3     368      TIP3     H2       HT       0.417000       1.00800           0
     40501 TIP3     369      TIP3     OH2      OT      -0.834000       15.9994           0
     40502 TIP3     369      TIP3     H1       HT       0.417000       1.00800           0
     40503 TIP3     369      TIP3     H2       HT       0.417000       1.00800           0
     40504 TIP3     370      TIP3     OH2      OT      -0.834000       15.9994           0
     40505 TIP3     370      TIP3     H1       HT       0.417000       1.00800           0
     40506 TIP3     370      TIP3     H2       HT       0.417000       1.00800           0
     40507 TIP3     371      TIP3     OH2      OT      -0.834000       15.9994           0
     40508 TIP3     371      TIP3     H1       HT       0.417000       1.00800           0
     40509 TIP3     371      TIP3     H2       HT       0.417000       1.00800           0
     40510 TIP3     372      TIP3     OH2      OT      -0.834000       15.9994           0
     40511 TIP3     372      TIP3     H1       HT       0.417000       1.00800           0
     40512 TIP3     372      TIP3     H2       HT       0.417000       1.00800           0
     40513 TIP3     373      TIP3     OH2      OT      -0.834000       15.9994           0
     40514 TIP3     373      TIP3     H1       HT       0.417000       1.00800           0
     40515 TIP3     373      TIP3     H2       HT       0.417000       1.00800           0
     40516 TIP3     374      TIP3     OH2      OT      -0.834000       15.9994           0
     40517 TIP3     374      TIP3     H1       HT       0.417000       1.00800           0
     40518 TIP3     374      TIP3     H2       HT       0.417000       1.00800           0
     40519 TIP3     375      TIP3     OH2      OT      -0.834000       15.9994           0
     40520 TIP3     375      TIP3     H1       HT       0.417000       1.00800           0
     40521 TIP3     375      TIP3     H2       HT       0.417000       1.00800           0
     40522 TIP3     376      TIP3     OH2      OT      -0.834000       15.9994           0
     40523 TIP3     376      TIP3     H1       HT       0.417000       1.00800           0
     40524 TIP3     376      TIP3     H2       HT       0.417000       1.00800           0
     40525 TIP3     377      TIP3     OH2      OT      -0.834000       15.9994           0
     40526 TIP3     377      TIP3     H1       HT       0.417000       1.00800           0
     40527 TIP3     377      TIP3     H2       HT       0.417000       1.00800           0
     40528 TIP3     378      TIP3     OH2      OT      -0.834000       15.9994           0
     40529 TIP3     378      TIP3     H1       HT       0.417000       1.00800           0
     40530 TIP3     378      TIP3     H2       HT       0.417000       1.00800           0
     40531 TIP3     379      TIP3     OH2      OT      -0.834000       15.9994           0
     40532 TIP3     379      TIP3     H1       HT       0.417000       1.00800           0
     40533 TIP3     379      TIP3     H2       HT       0.417000       1.00800           0
     40534 TIP3     380      TIP3     OH2      OT      -0.834000       15.9994           0
     40535 TIP3     380      TIP3     H1       HT       0.417000       1.00800           0
     40536 TIP3     380      TIP3     H2       HT       0.417000       1.00800           0
     40537 TIP3     381      TIP3     OH2      OT      -0.834000       15.9994           0
     40538 TIP3     381      TIP3     H1       HT       0.417000       1.00800           0
     40539 TIP3     381      TIP3     H2       HT       0.417000       1.00800           0
     40540 TIP3     382      TIP3     OH2      OT      -0.834000       15.9994           0
     40541 TIP3     382      TIP3     H1       HT       0.417000       1.00800           0
     40542 TIP3     382      TIP3     H2       HT       0.417000       1.00800           0
     40543 TIP3     383      TIP3     OH2      OT      -0.834000       15.9994           0
     40544 TIP3     383      TIP3     H1       HT       0.417000       1.00800           0
     40545 TIP3     383      TIP3     H2       HT       0.417000       1.00800           0
     40546 TIP3     384      TIP3     OH2      OT      -0.834000       15.9994           0
     40547 TIP3     384      TIP3     H1       HT       0.417000       1.00800           0
     40548 TIP3     384      TIP3     H2       HT       0.417000       1.00800           0
     40549 TIP3     385      TIP3     OH2      OT      -0.834000       15.9994           0
     40550 TIP3     385      TIP3     H1       HT       0.417000       1.00800           0
     40551 TIP3     385      TIP3     H2       HT       0.417000       1.00800           0
     40552 TIP3     386      TIP3     OH2      OT      -0.834000       15.9994           0
     40553 TIP3     386      TIP3     H1       HT       0.417000       1.00800           0
     40554 TIP3     386      TIP3     H2       HT       0.417000       1.00800           0
     40555 TIP3     387      TIP3     OH2      OT      -0.834000       15.9994           0
     40556 TIP3     387      TIP3     H1       HT       0.417000       1.00800           0
     40557 TIP3     387      TIP3     H2       HT       0.417000       1.00800           0
     40558 TIP3     388      TIP3     OH2      OT      -0.834000       15.9994           0
     40559 TIP3     388      TIP3     H1       HT       0.417000       1.00800           0
     40560 TIP3     388      TIP3     H2       HT       0.417000       1.00800           0
     40561 TIP3     389      TIP3     OH2      OT      -0.834000       15.9994           0
     40562 TIP3     389      TIP3     H1       HT       0.417000       1.00800           0
     40563 TIP3     389      TIP3     H2       HT       0.417000       1.00800           0
     40564 TIP3     390      TIP3     OH2      OT      -0.834000       15.9994           0
     40565 TIP3     390      TIP3     H1       HT       0.417000       1.00800           0
     40566 TIP3     390      TIP3     H2       HT       0.417000       1.00800           0
     40567 TIP3     391      TIP3     OH2      OT      -0.834000       15.9994           0
     40568 TIP3     391      TIP3     H1       HT       0.417000       1.00800           0
     40569 TIP3     391      TIP3     H2       HT       0.417000       1.00800           0
     40570 TIP3     392      TIP3     OH2      OT      -0.834000       15.9994           0
     40571 TIP3     392      TIP3     H1       HT       0.417000       1.00800           0
     40572 TIP3     392      TIP3     H2       HT       0.417000       1.00800           0
     40573 TIP3     393      TIP3     OH2      OT      -0.834000       15.9994           0
     40574 TIP3     393      TIP3     H1       HT       0.417000       1.00800           0
     40575 TIP3     393      TIP3     H2       HT       0.417000       1.00800           0
     40576 TIP3     394      TIP3     OH2      OT      -0.834000       15.9994           0
     40577 TIP3     394      TIP3     H1       HT       0.417000       1.00800           0
     40578 TIP3     394      TIP3     H2       HT       0.417000       1.00800           0
     40579 TIP3     395      TIP3     OH2      OT      -0.834000       15.9994           0
     40580 TIP3     395      TIP3     H1       HT       0.417000       1.00800           0
     40581 TIP3     395      TIP3     H2       HT       0.417000       1.00800           0
     40582 TIP3     396      TIP3     OH2      OT      -0.834000       15.9994           0
     40583 TIP3     396      TIP3     H1       HT       0.417000       1.00800           0
     40584 TIP3     396      TIP3     H2       HT       0.417000       1.00800           0
     40585 TIP3     397      TIP3     OH2      OT      -0.834000       15.9994           0
     40586 TIP3     397      TIP3     H1       HT       0.417000       1.00800           0
     40587 TIP3     397      TIP3     H2       HT       0.417000       1.00800           0
     40588 TIP3     398      TIP3     OH2      OT      -0.834000       15.9994           0
     40589 TIP3     398      TIP3     H1       HT       0.417000       1.00800           0
     40590 TIP3     398      TIP3     H2       HT       0.417000       1.00800           0
     40591 TIP3     399      TIP3     OH2      OT      -0.834000       15.9994           0
     40592 TIP3     399      TIP3     H1       HT       0.417000       1.00800           0
     40593 TIP3     399      TIP3     H2       HT       0.417000       1.00800           0
     40594 TIP3     400      TIP3     OH2      OT      -0.834000       15.9994           0
     40595 TIP3     400      TIP3     H1       HT       0.417000       1.00800           0
     40596 TIP3     400      TIP3     H2       HT       0.417000       1.00800           0
     40597 TIP3     401      TIP3     OH2      OT      -0.834000       15.9994           0
     40598 TIP3     401      TIP3     H1       HT       0.417000       1.00800           0
     40599 TIP3     401      TIP3     H2       HT       0.417000       1.00800           0
     40600 TIP3     402      TIP3     OH2      OT      -0.834000       15.9994           0
     40601 TIP3     402      TIP3     H1       HT       0.417000       1.00800           0
     40602 TIP3     402      TIP3     H2       HT       0.417000       1.00800           0
     40603 TIP3     403      TIP3     OH2      OT      -0.834000       15.9994           0
     40604 TIP3     403      TIP3     H1       HT       0.417000       1.00800           0
     40605 TIP3     403      TIP3     H2       HT       0.417000       1.00800           0
     40606 TIP3     404      TIP3     OH2      OT      -0.834000       15.9994           0
     40607 TIP3     404      TIP3     H1       HT       0.417000       1.00800           0
     40608 TIP3     404      TIP3     H2       HT       0.417000       1.00800           0
     40609 TIP3     405      TIP3     OH2      OT      -0.834000       15.9994           0
     40610 TIP3     405      TIP3     H1       HT       0.417000       1.00800           0
     40611 TIP3     405      TIP3     H2       HT       0.417000       1.00800           0
     40612 TIP3     406      TIP3     OH2      OT      -0.834000       15.9994           0
     40613 TIP3     406      TIP3     H1       HT       0.417000       1.00800           0
     40614 TIP3     406      TIP3     H2       HT       0.417000       1.00800           0
     40615 TIP3     407      TIP3     OH2      OT      -0.834000       15.9994           0
     40616 TIP3     407      TIP3     H1       HT       0.417000       1.00800           0
     40617 TIP3     407      TIP3     H2       HT       0.417000       1.00800           0
     40618 TIP3     408      TIP3     OH2      OT      -0.834000       15.9994           0
     40619 TIP3     408      TIP3     H1       HT       0.417000       1.00800           0
     40620 TIP3     408      TIP3     H2       HT       0.417000       1.00800           0
     40621 TIP3     409      TIP3     OH2      OT      -0.834000       15.9994           0
     40622 TIP3     409      TIP3     H1       HT       0.417000       1.00800           0
     40623 TIP3     409      TIP3     H2       HT       0.417000       1.00800           0
     40624 TIP3     410      TIP3     OH2      OT      -0.834000       15.9994           0
     40625 TIP3     410      TIP3     H1       HT       0.417000       1.00800           0
     40626 TIP3     410      TIP3     H2       HT       0.417000       1.00800           0
     40627 TIP3     411      TIP3     OH2      OT      -0.834000       15.9994           0
     40628 TIP3     411      TIP3     H1       HT       0.417000       1.00800           0
     40629 TIP3     411      TIP3     H2       HT       0.417000       1.00800           0
     40630 TIP3     412      TIP3     OH2      OT      -0.834000       15.9994           0
     40631 TIP3     412      TIP3     H1       HT       0.417000       1.00800           0
     40632 TIP3     412      TIP3     H2       HT       0.417000       1.00800           0
     40633 TIP3     413      TIP3     OH2      OT      -0.834000       15.9994           0
     40634 TIP3     413      TIP3     H1       HT       0.417000       1.00800           0
     40635 TIP3     413      TIP3     H2       HT       0.417000       1.00800           0
     40636 TIP3     414      TIP3     OH2      OT      -0.834000       15.9994           0
     40637 TIP3     414      TIP3     H1       HT       0.417000       1.00800           0
     40638 TIP3     414      TIP3     H2       HT       0.417000       1.00800           0
     40639 TIP3     415      TIP3     OH2      OT      -0.834000       15.9994           0
     40640 TIP3     415      TIP3     H1       HT       0.417000       1.00800           0
     40641 TIP3     415      TIP3     H2       HT       0.417000       1.00800           0
     40642 TIP3     416      TIP3     OH2      OT      -0.834000       15.9994           0
     40643 TIP3     416      TIP3     H1       HT       0.417000       1.00800           0
     40644 TIP3     416      TIP3     H2       HT       0.417000       1.00800           0
     40645 TIP3     417      TIP3     OH2      OT      -0.834000       15.9994           0
     40646 TIP3     417      TIP3     H1       HT       0.417000       1.00800           0
     40647 TIP3     417      TIP3     H2       HT       0.417000       1.00800           0
     40648 TIP3     418      TIP3     OH2      OT      -0.834000       15.9994           0
     40649 TIP3     418      TIP3     H1       HT       0.417000       1.00800           0
     40650 TIP3     418      TIP3     H2       HT       0.417000       1.00800           0
     40651 TIP3     419      TIP3     OH2      OT      -0.834000       15.9994           0
     40652 TIP3     419      TIP3     H1       HT       0.417000       1.00800           0
     40653 TIP3     419      TIP3     H2       HT       0.417000       1.00800           0
     40654 TIP3     420      TIP3     OH2      OT      -0.834000       15.9994           0
     40655 TIP3     420      TIP3     H1       HT       0.417000       1.00800           0
     40656 TIP3     420      TIP3     H2       HT       0.417000       1.00800           0
     40657 TIP3     421      TIP3     OH2      OT      -0.834000       15.9994           0
     40658 TIP3     421      TIP3     H1       HT       0.417000       1.00800           0
     40659 TIP3     421      TIP3     H2       HT       0.417000       1.00800           0
     40660 TIP3     422      TIP3     OH2      OT      -0.834000       15.9994           0
     40661 TIP3     422      TIP3     H1       HT       0.417000       1.00800           0
     40662 TIP3     422      TIP3     H2       HT       0.417000       1.00800           0
     40663 TIP3     423      TIP3     OH2      OT      -0.834000       15.9994           0
     40664 TIP3     423      TIP3     H1       HT       0.417000       1.00800           0
     40665 TIP3     423      TIP3     H2       HT       0.417000       1.00800           0
     40666 TIP3     424      TIP3     OH2      OT      -0.834000       15.9994           0
     40667 TIP3     424      TIP3     H1       HT       0.417000       1.00800           0
     40668 TIP3     424      TIP3     H2       HT       0.417000       1.00800           0
     40669 TIP3     425      TIP3     OH2      OT      -0.834000       15.9994           0
     40670 TIP3     425      TIP3     H1       HT       0.417000       1.00800           0
     40671 TIP3     425      TIP3     H2       HT       0.417000       1.00800           0
     40672 TIP3     426      TIP3     OH2      OT      -0.834000       15.9994           0
     40673 TIP3     426      TIP3     H1       HT       0.417000       1.00800           0
     40674 TIP3     426      TIP3     H2       HT       0.417000       1.00800           0
     40675 TIP3     427      TIP3     OH2      OT      -0.834000       15.9994           0
     40676 TIP3     427      TIP3     H1       HT       0.417000       1.00800           0
     40677 TIP3     427      TIP3     H2       HT       0.417000       1.00800           0
     40678 TIP3     428      TIP3     OH2      OT      -0.834000       15.9994           0
     40679 TIP3     428      TIP3     H1       HT       0.417000       1.00800           0
     40680 TIP3     428      TIP3     H2       HT       0.417000       1.00800           0
     40681 TIP3     429      TIP3     OH2      OT      -0.834000       15.9994           0
     40682 TIP3     429      TIP3     H1       HT       0.417000       1.00800           0
     40683 TIP3     429      TIP3     H2       HT       0.417000       1.00800           0
     40684 TIP3     430      TIP3     OH2      OT      -0.834000       15.9994           0
     40685 TIP3     430      TIP3     H1       HT       0.417000       1.00800           0
     40686 TIP3     430      TIP3     H2       HT       0.417000       1.00800           0
     40687 TIP3     431      TIP3     OH2      OT      -0.834000       15.9994           0
     40688 TIP3     431      TIP3     H1       HT       0.417000       1.00800           0
     40689 TIP3     431      TIP3     H2       HT       0.417000       1.00800           0
     40690 TIP3     432      TIP3     OH2      OT      -0.834000       15.9994           0
     40691 TIP3     432      TIP3     H1       HT       0.417000       1.00800           0
     40692 TIP3     432      TIP3     H2       HT       0.417000       1.00800           0
     40693 TIP3     433      TIP3     OH2      OT      -0.834000       15.9994           0
     40694 TIP3     433      TIP3     H1       HT       0.417000       1.00800           0
     40695 TIP3     433      TIP3     H2       HT       0.417000       1.00800           0
     40696 TIP3     434      TIP3     OH2      OT      -0.834000       15.9994           0
     40697 TIP3     434      TIP3     H1       HT       0.417000       1.00800           0
     40698 TIP3     434      TIP3     H2       HT       0.417000       1.00800           0
     40699 TIP3     435      TIP3     OH2      OT      -0.834000       15.9994           0
     40700 TIP3     435      TIP3     H1       HT       0.417000       1.00800           0
     40701 TIP3     435      TIP3     H2       HT       0.417000       1.00800           0
     40702 TIP3     436      TIP3     OH2      OT      -0.834000       15.9994           0
     40703 TIP3     436      TIP3     H1       HT       0.417000       1.00800           0
     40704 TIP3     436      TIP3     H2       HT       0.417000       1.00800           0
     40705 TIP3     437      TIP3     OH2      OT      -0.834000       15.9994           0
     40706 TIP3     437      TIP3     H1       HT       0.417000       1.00800           0
     40707 TIP3     437      TIP3     H2       HT       0.417000       1.00800           0
     40708 TIP3     438      TIP3     OH2      OT      -0.834000       15.9994           0
     40709 TIP3     438      TIP3     H1       HT       0.417000       1.00800           0
     40710 TIP3     438      TIP3     H2       HT       0.417000       1.00800           0
     40711 TIP3     439      TIP3     OH2      OT      -0.834000       15.9994           0
     40712 TIP3     439      TIP3     H1       HT       0.417000       1.00800           0
     40713 TIP3     439      TIP3     H2       HT       0.417000       1.00800           0
     40714 TIP3     440      TIP3     OH2      OT      -0.834000       15.9994           0
     40715 TIP3     440      TIP3     H1       HT       0.417000       1.00800           0
     40716 TIP3     440      TIP3     H2       HT       0.417000       1.00800           0
     40717 TIP3     441      TIP3     OH2      OT      -0.834000       15.9994           0
     40718 TIP3     441      TIP3     H1       HT       0.417000       1.00800           0
     40719 TIP3     441      TIP3     H2       HT       0.417000       1.00800           0
     40720 TIP3     442      TIP3     OH2      OT      -0.834000       15.9994           0
     40721 TIP3     442      TIP3     H1       HT       0.417000       1.00800           0
     40722 TIP3     442      TIP3     H2       HT       0.417000       1.00800           0
     40723 TIP3     443      TIP3     OH2      OT      -0.834000       15.9994           0
     40724 TIP3     443      TIP3     H1       HT       0.417000       1.00800           0
     40725 TIP3     443      TIP3     H2       HT       0.417000       1.00800           0
     40726 TIP3     444      TIP3     OH2      OT      -0.834000       15.9994           0
     40727 TIP3     444      TIP3     H1       HT       0.417000       1.00800           0
     40728 TIP3     444      TIP3     H2       HT       0.417000       1.00800           0
     40729 TIP3     445      TIP3     OH2      OT      -0.834000       15.9994           0
     40730 TIP3     445      TIP3     H1       HT       0.417000       1.00800           0
     40731 TIP3     445      TIP3     H2       HT       0.417000       1.00800           0
     40732 TIP3     446      TIP3     OH2      OT      -0.834000       15.9994           0
     40733 TIP3     446      TIP3     H1       HT       0.417000       1.00800           0
     40734 TIP3     446      TIP3     H2       HT       0.417000       1.00800           0
     40735 TIP3     447      TIP3     OH2      OT      -0.834000       15.9994           0
     40736 TIP3     447      TIP3     H1       HT       0.417000       1.00800           0
     40737 TIP3     447      TIP3     H2       HT       0.417000       1.00800           0
     40738 TIP3     448      TIP3     OH2      OT      -0.834000       15.9994           0
     40739 TIP3     448      TIP3     H1       HT       0.417000       1.00800           0
     40740 TIP3     448      TIP3     H2       HT       0.417000       1.00800           0
     40741 TIP3     449      TIP3     OH2      OT      -0.834000       15.9994           0
     40742 TIP3     449      TIP3     H1       HT       0.417000       1.00800           0
     40743 TIP3     449      TIP3     H2       HT       0.417000       1.00800           0
     40744 TIP3     450      TIP3     OH2      OT      -0.834000       15.9994           0
     40745 TIP3     450      TIP3     H1       HT       0.417000       1.00800           0
     40746 TIP3     450      TIP3     H2       HT       0.417000       1.00800           0
     40747 TIP3     451      TIP3     OH2      OT      -0.834000       15.9994           0
     40748 TIP3     451      TIP3     H1       HT       0.417000       1.00800           0
     40749 TIP3     451      TIP3     H2       HT       0.417000       1.00800           0
     40750 TIP3     452      TIP3     OH2      OT      -0.834000       15.9994           0
     40751 TIP3     452      TIP3     H1       HT       0.417000       1.00800           0
     40752 TIP3     452      TIP3     H2       HT       0.417000       1.00800           0
     40753 TIP3     453      TIP3     OH2      OT      -0.834000       15.9994           0
     40754 TIP3     453      TIP3     H1       HT       0.417000       1.00800           0
     40755 TIP3     453      TIP3     H2       HT       0.417000       1.00800           0
     40756 TIP3     454      TIP3     OH2      OT      -0.834000       15.9994           0
     40757 TIP3     454      TIP3     H1       HT       0.417000       1.00800           0
     40758 TIP3     454      TIP3     H2       HT       0.417000       1.00800           0
     40759 TIP3     455      TIP3     OH2      OT      -0.834000       15.9994           0
     40760 TIP3     455      TIP3     H1       HT       0.417000       1.00800           0
     40761 TIP3     455      TIP3     H2       HT       0.417000       1.00800           0
     40762 TIP3     456      TIP3     OH2      OT      -0.834000       15.9994           0
     40763 TIP3     456      TIP3     H1       HT       0.417000       1.00800           0
     40764 TIP3     456      TIP3     H2       HT       0.417000       1.00800           0
     40765 TIP3     457      TIP3     OH2      OT      -0.834000       15.9994           0
     40766 TIP3     457      TIP3     H1       HT       0.417000       1.00800           0
     40767 TIP3     457      TIP3     H2       HT       0.417000       1.00800           0
     40768 TIP3     458      TIP3     OH2      OT      -0.834000       15.9994           0
     40769 TIP3     458      TIP3     H1       HT       0.417000       1.00800           0
     40770 TIP3     458      TIP3     H2       HT       0.417000       1.00800           0
     40771 TIP3     459      TIP3     OH2      OT      -0.834000       15.9994           0
     40772 TIP3     459      TIP3     H1       HT       0.417000       1.00800           0
     40773 TIP3     459      TIP3     H2       HT       0.417000       1.00800           0
     40774 TIP3     460      TIP3     OH2      OT      -0.834000       15.9994           0
     40775 TIP3     460      TIP3     H1       HT       0.417000       1.00800           0
     40776 TIP3     460      TIP3     H2       HT       0.417000       1.00800           0
     40777 TIP3     461      TIP3     OH2      OT      -0.834000       15.9994           0
     40778 TIP3     461      TIP3     H1       HT       0.417000       1.00800           0
     40779 TIP3     461      TIP3     H2       HT       0.417000       1.00800           0
     40780 TIP3     462      TIP3     OH2      OT      -0.834000       15.9994           0
     40781 TIP3     462      TIP3     H1       HT       0.417000       1.00800           0
     40782 TIP3     462      TIP3     H2       HT       0.417000       1.00800           0
     40783 TIP3     463      TIP3     OH2      OT      -0.834000       15.9994           0
     40784 TIP3     463      TIP3     H1       HT       0.417000       1.00800           0
     40785 TIP3     463      TIP3     H2       HT       0.417000       1.00800           0
     40786 TIP3     464      TIP3     OH2      OT      -0.834000       15.9994           0
     40787 TIP3     464      TIP3     H1       HT       0.417000       1.00800           0
     40788 TIP3     464      TIP3     H2       HT       0.417000       1.00800           0
     40789 TIP3     465      TIP3     OH2      OT      -0.834000       15.9994           0
     40790 TIP3     465      TIP3     H1       HT       0.417000       1.00800           0
     40791 TIP3     465      TIP3     H2       HT       0.417000       1.00800           0
     40792 TIP3     466      TIP3     OH2      OT      -0.834000       15.9994           0
     40793 TIP3     466      TIP3     H1       HT       0.417000       1.00800           0
     40794 TIP3     466      TIP3     H2       HT       0.417000       1.00800           0
     40795 TIP3     467      TIP3     OH2      OT      -0.834000       15.9994           0
     40796 TIP3     467      TIP3     H1       HT       0.417000       1.00800           0
     40797 TIP3     467      TIP3     H2       HT       0.417000       1.00800           0
     40798 TIP3     468      TIP3     OH2      OT      -0.834000       15.9994           0
     40799 TIP3     468      TIP3     H1       HT       0.417000       1.00800           0
     40800 TIP3     468      TIP3     H2       HT       0.417000       1.00800           0
     40801 TIP3     469      TIP3     OH2      OT      -0.834000       15.9994           0
     40802 TIP3     469      TIP3     H1       HT       0.417000       1.00800           0
     40803 TIP3     469      TIP3     H2       HT       0.417000       1.00800           0
     40804 TIP3     470      TIP3     OH2      OT      -0.834000       15.9994           0
     40805 TIP3     470      TIP3     H1       HT       0.417000       1.00800           0
     40806 TIP3     470      TIP3     H2       HT       0.417000       1.00800           0
     40807 TIP3     471      TIP3     OH2      OT      -0.834000       15.9994           0
     40808 TIP3     471      TIP3     H1       HT       0.417000       1.00800           0
     40809 TIP3     471      TIP3     H2       HT       0.417000       1.00800           0
     40810 TIP3     472      TIP3     OH2      OT      -0.834000       15.9994           0
     40811 TIP3     472      TIP3     H1       HT       0.417000       1.00800           0
     40812 TIP3     472      TIP3     H2       HT       0.417000       1.00800           0
     40813 TIP3     473      TIP3     OH2      OT      -0.834000       15.9994           0
     40814 TIP3     473      TIP3     H1       HT       0.417000       1.00800           0
     40815 TIP3     473      TIP3     H2       HT       0.417000       1.00800           0
     40816 TIP3     474      TIP3     OH2      OT      -0.834000       15.9994           0
     40817 TIP3     474      TIP3     H1       HT       0.417000       1.00800           0
     40818 TIP3     474      TIP3     H2       HT       0.417000       1.00800           0
     40819 TIP3     475      TIP3     OH2      OT      -0.834000       15.9994           0
     40820 TIP3     475      TIP3     H1       HT       0.417000       1.00800           0
     40821 TIP3     475      TIP3     H2       HT       0.417000       1.00800           0
     40822 TIP3     476      TIP3     OH2      OT      -0.834000       15.9994           0
     40823 TIP3     476      TIP3     H1       HT       0.417000       1.00800           0
     40824 TIP3     476      TIP3     H2       HT       0.417000       1.00800           0
     40825 TIP3     477      TIP3     OH2      OT      -0.834000       15.9994           0
     40826 TIP3     477      TIP3     H1       HT       0.417000       1.00800           0
     40827 TIP3     477      TIP3     H2       HT       0.417000       1.00800           0
     40828 TIP3     478      TIP3     OH2      OT      -0.834000       15.9994           0
     40829 TIP3     478      TIP3     H1       HT       0.417000       1.00800           0
     40830 TIP3     478      TIP3     H2       HT       0.417000       1.00800           0
     40831 TIP3     479      TIP3     OH2      OT      -0.834000       15.9994           0
     40832 TIP3     479      TIP3     H1       HT       0.417000       1.00800           0
     40833 TIP3     479      TIP3     H2       HT       0.417000       1.00800           0
     40834 TIP3     480      TIP3     OH2      OT      -0.834000       15.9994           0
     40835 TIP3     480      TIP3     H1       HT       0.417000       1.00800           0
     40836 TIP3     480      TIP3     H2       HT       0.417000       1.00800           0
     40837 TIP3     481      TIP3     OH2      OT      -0.834000       15.9994           0
     40838 TIP3     481      TIP3     H1       HT       0.417000       1.00800           0
     40839 TIP3     481      TIP3     H2       HT       0.417000       1.00800           0
     40840 TIP3     482      TIP3     OH2      OT      -0.834000       15.9994           0
     40841 TIP3     482      TIP3     H1       HT       0.417000       1.00800           0
     40842 TIP3     482      TIP3     H2       HT       0.417000       1.00800           0
     40843 TIP3     483      TIP3     OH2      OT      -0.834000       15.9994           0
     40844 TIP3     483      TIP3     H1       HT       0.417000       1.00800           0
     40845 TIP3     483      TIP3     H2       HT       0.417000       1.00800           0
     40846 TIP3     484      TIP3     OH2      OT      -0.834000       15.9994           0
     40847 TIP3     484      TIP3     H1       HT       0.417000       1.00800           0
     40848 TIP3     484      TIP3     H2       HT       0.417000       1.00800           0
     40849 TIP3     485      TIP3     OH2      OT      -0.834000       15.9994           0
     40850 TIP3     485      TIP3     H1       HT       0.417000       1.00800           0
     40851 TIP3     485      TIP3     H2       HT       0.417000       1.00800           0
     40852 TIP3     486      TIP3     OH2      OT      -0.834000       15.9994           0
     40853 TIP3     486      TIP3     H1       HT       0.417000       1.00800           0
     40854 TIP3     486      TIP3     H2       HT       0.417000       1.00800           0
     40855 TIP3     487      TIP3     OH2      OT      -0.834000       15.9994           0
     40856 TIP3     487      TIP3     H1       HT       0.417000       1.00800           0
     40857 TIP3     487      TIP3     H2       HT       0.417000       1.00800           0
     40858 TIP3     488      TIP3     OH2      OT      -0.834000       15.9994           0
     40859 TIP3     488      TIP3     H1       HT       0.417000       1.00800           0
     40860 TIP3     488      TIP3     H2       HT       0.417000       1.00800           0
     40861 TIP3     489      TIP3     OH2      OT      -0.834000       15.9994           0
     40862 TIP3     489      TIP3     H1       HT       0.417000       1.00800           0
     40863 TIP3     489      TIP3     H2       HT       0.417000       1.00800           0
     40864 TIP3     490      TIP3     OH2      OT      -0.834000       15.9994           0
     40865 TIP3     490      TIP3     H1       HT       0.417000       1.00800           0
     40866 TIP3     490      TIP3     H2       HT       0.417000       1.00800           0
     40867 TIP3     491      TIP3     OH2      OT      -0.834000       15.9994           0
     40868 TIP3     491      TIP3     H1       HT       0.417000       1.00800           0
     40869 TIP3     491      TIP3     H2       HT       0.417000       1.00800           0
     40870 TIP3     492      TIP3     OH2      OT      -0.834000       15.9994           0
     40871 TIP3     492      TIP3     H1       HT       0.417000       1.00800           0
     40872 TIP3     492      TIP3     H2       HT       0.417000       1.00800           0
     40873 TIP3     493      TIP3     OH2      OT      -0.834000       15.9994           0
     40874 TIP3     493      TIP3     H1       HT       0.417000       1.00800           0
     40875 TIP3     493      TIP3     H2       HT       0.417000       1.00800           0
     40876 TIP3     494      TIP3     OH2      OT      -0.834000       15.9994           0
     40877 TIP3     494      TIP3     H1       HT       0.417000       1.00800           0
     40878 TIP3     494      TIP3     H2       HT       0.417000       1.00800           0
     40879 TIP3     495      TIP3     OH2      OT      -0.834000       15.9994           0
     40880 TIP3     495      TIP3     H1       HT       0.417000       1.00800           0
     40881 TIP3     495      TIP3     H2       HT       0.417000       1.00800           0
     40882 TIP3     496      TIP3     OH2      OT      -0.834000       15.9994           0
     40883 TIP3     496      TIP3     H1       HT       0.417000       1.00800           0
     40884 TIP3     496      TIP3     H2       HT       0.417000       1.00800           0
     40885 TIP3     497      TIP3     OH2      OT      -0.834000       15.9994           0
     40886 TIP3     497      TIP3     H1       HT       0.417000       1.00800           0
     40887 TIP3     497      TIP3     H2       HT       0.417000       1.00800           0
     40888 TIP3     498      TIP3     OH2      OT      -0.834000       15.9994           0
     40889 TIP3     498      TIP3     H1       HT       0.417000       1.00800           0
     40890 TIP3     498      TIP3     H2       HT       0.417000       1.00800           0
     40891 TIP3     499      TIP3     OH2      OT      -0.834000       15.9994           0
     40892 TIP3     499      TIP3     H1       HT       0.417000       1.00800           0
     40893 TIP3     499      TIP3     H2       HT       0.417000       1.00800           0
     40894 TIP3     500      TIP3     OH2      OT      -0.834000       15.9994           0
     40895 TIP3     500      TIP3     H1       HT       0.417000       1.00800           0
     40896 TIP3     500      TIP3     H2       HT       0.417000       1.00800           0
     40897 TIP3     501      TIP3     OH2      OT      -0.834000       15.9994           0
     40898 TIP3     501      TIP3     H1       HT       0.417000       1.00800           0
     40899 TIP3     501      TIP3     H2       HT       0.417000       1.00800           0
     40900 TIP3     502      TIP3     OH2      OT      -0.834000       15.9994           0
     40901 TIP3     502      TIP3     H1       HT       0.417000       1.00800           0
     40902 TIP3     502      TIP3     H2       HT       0.417000       1.00800           0
     40903 TIP3     503      TIP3     OH2      OT      -0.834000       15.9994           0
     40904 TIP3     503      TIP3     H1       HT       0.417000       1.00800           0
     40905 TIP3     503      TIP3     H2       HT       0.417000       1.00800           0
     40906 TIP3     504      TIP3     OH2      OT      -0.834000       15.9994           0
     40907 TIP3     504      TIP3     H1       HT       0.417000       1.00800           0
     40908 TIP3     504      TIP3     H2       HT       0.417000       1.00800           0
     40909 TIP3     505      TIP3     OH2      OT      -0.834000       15.9994           0
     40910 TIP3     505      TIP3     H1       HT       0.417000       1.00800           0
     40911 TIP3     505      TIP3     H2       HT       0.417000       1.00800           0
     40912 TIP3     506      TIP3     OH2      OT      -0.834000       15.9994           0
     40913 TIP3     506      TIP3     H1       HT       0.417000       1.00800           0
     40914 TIP3     506      TIP3     H2       HT       0.417000       1.00800           0
     40915 TIP3     507      TIP3     OH2      OT      -0.834000       15.9994           0
     40916 TIP3     507      TIP3     H1       HT       0.417000       1.00800           0
     40917 TIP3     507      TIP3     H2       HT       0.417000       1.00800           0
     40918 TIP3     508      TIP3     OH2      OT      -0.834000       15.9994           0
     40919 TIP3     508      TIP3     H1       HT       0.417000       1.00800           0
     40920 TIP3     508      TIP3     H2       HT       0.417000       1.00800           0
     40921 TIP3     509      TIP3     OH2      OT      -0.834000       15.9994           0
     40922 TIP3     509      TIP3     H1       HT       0.417000       1.00800           0
     40923 TIP3     509      TIP3     H2       HT       0.417000       1.00800           0
     40924 TIP3     510      TIP3     OH2      OT      -0.834000       15.9994           0
     40925 TIP3     510      TIP3     H1       HT       0.417000       1.00800           0
     40926 TIP3     510      TIP3     H2       HT       0.417000       1.00800           0
     40927 TIP3     511      TIP3     OH2      OT      -0.834000       15.9994           0
     40928 TIP3     511      TIP3     H1       HT       0.417000       1.00800           0
     40929 TIP3     511      TIP3     H2       HT       0.417000       1.00800           0
     40930 TIP3     512      TIP3     OH2      OT      -0.834000       15.9994           0
     40931 TIP3     512      TIP3     H1       HT       0.417000       1.00800           0
     40932 TIP3     512      TIP3     H2       HT       0.417000       1.00800           0
     40933 TIP3     513      TIP3     OH2      OT      -0.834000       15.9994           0
     40934 TIP3     513      TIP3     H1       HT       0.417000       1.00800           0
     40935 TIP3     513      TIP3     H2       HT       0.417000       1.00800           0
     40936 TIP3     514      TIP3     OH2      OT      -0.834000       15.9994           0
     40937 TIP3     514      TIP3     H1       HT       0.417000       1.00800           0
     40938 TIP3     514      TIP3     H2       HT       0.417000       1.00800           0
     40939 TIP3     515      TIP3     OH2      OT      -0.834000       15.9994           0
     40940 TIP3     515      TIP3     H1       HT       0.417000       1.00800           0
     40941 TIP3     515      TIP3     H2       HT       0.417000       1.00800           0
     40942 TIP3     516      TIP3     OH2      OT      -0.834000       15.9994           0
     40943 TIP3     516      TIP3     H1       HT       0.417000       1.00800           0
     40944 TIP3     516      TIP3     H2       HT       0.417000       1.00800           0
     40945 TIP3     517      TIP3     OH2      OT      -0.834000       15.9994           0
     40946 TIP3     517      TIP3     H1       HT       0.417000       1.00800           0
     40947 TIP3     517      TIP3     H2       HT       0.417000       1.00800           0
     40948 TIP3     518      TIP3     OH2      OT      -0.834000       15.9994           0
     40949 TIP3     518      TIP3     H1       HT       0.417000       1.00800           0
     40950 TIP3     518      TIP3     H2       HT       0.417000       1.00800           0
     40951 TIP3     519      TIP3     OH2      OT      -0.834000       15.9994           0
     40952 TIP3     519      TIP3     H1       HT       0.417000       1.00800           0
     40953 TIP3     519      TIP3     H2       HT       0.417000       1.00800           0
     40954 TIP3     520      TIP3     OH2      OT      -0.834000       15.9994           0
     40955 TIP3     520      TIP3     H1       HT       0.417000       1.00800           0
     40956 TIP3     520      TIP3     H2       HT       0.417000       1.00800           0
     40957 TIP3     521      TIP3     OH2      OT      -0.834000       15.9994           0
     40958 TIP3     521      TIP3     H1       HT       0.417000       1.00800           0
     40959 TIP3     521      TIP3     H2       HT       0.417000       1.00800           0
     40960 TIP3     522      TIP3     OH2      OT      -0.834000       15.9994           0
     40961 TIP3     522      TIP3     H1       HT       0.417000       1.00800           0
     40962 TIP3     522      TIP3     H2       HT       0.417000       1.00800           0
     40963 TIP3     523      TIP3     OH2      OT      -0.834000       15.9994           0
     40964 TIP3     523      TIP3     H1       HT       0.417000       1.00800           0
     40965 TIP3     523      TIP3     H2       HT       0.417000       1.00800           0
     40966 TIP3     524      TIP3     OH2      OT      -0.834000       15.9994           0
     40967 TIP3     524      TIP3     H1       HT       0.417000       1.00800           0
     40968 TIP3     524      TIP3     H2       HT       0.417000       1.00800           0
     40969 TIP3     525      TIP3     OH2      OT      -0.834000       15.9994           0
     40970 TIP3     525      TIP3     H1       HT       0.417000       1.00800           0
     40971 TIP3     525      TIP3     H2       HT       0.417000       1.00800           0
     40972 TIP3     526      TIP3     OH2      OT      -0.834000       15.9994           0
     40973 TIP3     526      TIP3     H1       HT       0.417000       1.00800           0
     40974 TIP3     526      TIP3     H2       HT       0.417000       1.00800           0
     40975 TIP3     527      TIP3     OH2      OT      -0.834000       15.9994           0
     40976 TIP3     527      TIP3     H1       HT       0.417000       1.00800           0
     40977 TIP3     527      TIP3     H2       HT       0.417000       1.00800           0
     40978 TIP3     528      TIP3     OH2      OT      -0.834000       15.9994           0
     40979 TIP3     528      TIP3     H1       HT       0.417000       1.00800           0
     40980 TIP3     528      TIP3     H2       HT       0.417000       1.00800           0
     40981 TIP3     529      TIP3     OH2      OT      -0.834000       15.9994           0
     40982 TIP3     529      TIP3     H1       HT       0.417000       1.00800           0
     40983 TIP3     529      TIP3     H2       HT       0.417000       1.00800           0
     40984 TIP3     530      TIP3     OH2      OT      -0.834000       15.9994           0
     40985 TIP3     530      TIP3     H1       HT       0.417000       1.00800           0
     40986 TIP3     530      TIP3     H2       HT       0.417000       1.00800           0
     40987 TIP3     531      TIP3     OH2      OT      -0.834000       15.9994           0
     40988 TIP3     531      TIP3     H1       HT       0.417000       1.00800           0
     40989 TIP3     531      TIP3     H2       HT       0.417000       1.00800           0
     40990 TIP3     532      TIP3     OH2      OT      -0.834000       15.9994           0
     40991 TIP3     532      TIP3     H1       HT       0.417000       1.00800           0
     40992 TIP3     532      TIP3     H2       HT       0.417000       1.00800           0
     40993 TIP3     533      TIP3     OH2      OT      -0.834000       15.9994           0
     40994 TIP3     533      TIP3     H1       HT       0.417000       1.00800           0
     40995 TIP3     533      TIP3     H2       HT       0.417000       1.00800           0
     40996 TIP3     534      TIP3     OH2      OT      -0.834000       15.9994           0
     40997 TIP3     534      TIP3     H1       HT       0.417000       1.00800           0
     40998 TIP3     534      TIP3     H2       HT       0.417000       1.00800           0
     40999 TIP3     535      TIP3     OH2      OT      -0.834000       15.9994           0
     41000 TIP3     535      TIP3     H1       HT       0.417000       1.00800           0
     41001 TIP3     535      TIP3     H2       HT       0.417000       1.00800           0
     41002 TIP3     536      TIP3     OH2      OT      -0.834000       15.9994           0
     41003 TIP3     536      TIP3     H1       HT       0.417000       1.00800           0
     41004 TIP3     536      TIP3     H2       HT       0.417000       1.00800           0
     41005 TIP3     537      TIP3     OH2      OT      -0.834000       15.9994           0
     41006 TIP3     537      TIP3     H1       HT       0.417000       1.00800           0
     41007 TIP3     537      TIP3     H2       HT       0.417000       1.00800           0
     41008 TIP3     538      TIP3     OH2      OT      -0.834000       15.9994           0
     41009 TIP3     538      TIP3     H1       HT       0.417000       1.00800           0
     41010 TIP3     538      TIP3     H2       HT       0.417000       1.00800           0
     41011 TIP3     539      TIP3     OH2      OT      -0.834000       15.9994           0
     41012 TIP3     539      TIP3     H1       HT       0.417000       1.00800           0
     41013 TIP3     539      TIP3     H2       HT       0.417000       1.00800           0
     41014 TIP3     540      TIP3     OH2      OT      -0.834000       15.9994           0
     41015 TIP3     540      TIP3     H1       HT       0.417000       1.00800           0
     41016 TIP3     540      TIP3     H2       HT       0.417000       1.00800           0
     41017 TIP3     541      TIP3     OH2      OT      -0.834000       15.9994           0
     41018 TIP3     541      TIP3     H1       HT       0.417000       1.00800           0
     41019 TIP3     541      TIP3     H2       HT       0.417000       1.00800           0
     41020 TIP3     542      TIP3     OH2      OT      -0.834000       15.9994           0
     41021 TIP3     542      TIP3     H1       HT       0.417000       1.00800           0
     41022 TIP3     542      TIP3     H2       HT       0.417000       1.00800           0
     41023 TIP3     543      TIP3     OH2      OT      -0.834000       15.9994           0
     41024 TIP3     543      TIP3     H1       HT       0.417000       1.00800           0
     41025 TIP3     543      TIP3     H2       HT       0.417000       1.00800           0
     41026 TIP3     544      TIP3     OH2      OT      -0.834000       15.9994           0
     41027 TIP3     544      TIP3     H1       HT       0.417000       1.00800           0
     41028 TIP3     544      TIP3     H2       HT       0.417000       1.00800           0
     41029 TIP3     545      TIP3     OH2      OT      -0.834000       15.9994           0
     41030 TIP3     545      TIP3     H1       HT       0.417000       1.00800           0
     41031 TIP3     545      TIP3     H2       HT       0.417000       1.00800           0
     41032 TIP3     546      TIP3     OH2      OT      -0.834000       15.9994           0
     41033 TIP3     546      TIP3     H1       HT       0.417000       1.00800           0
     41034 TIP3     546      TIP3     H2       HT       0.417000       1.00800           0
     41035 TIP3     547      TIP3     OH2      OT      -0.834000       15.9994           0
     41036 TIP3     547      TIP3     H1       HT       0.417000       1.00800           0
     41037 TIP3     547      TIP3     H2       HT       0.417000       1.00800           0
     41038 TIP3     548      TIP3     OH2      OT      -0.834000       15.9994           0
     41039 TIP3     548      TIP3     H1       HT       0.417000       1.00800           0
     41040 TIP3     548      TIP3     H2       HT       0.417000       1.00800           0
     41041 TIP3     549      TIP3     OH2      OT      -0.834000       15.9994           0
     41042 TIP3     549      TIP3     H1       HT       0.417000       1.00800           0
     41043 TIP3     549      TIP3     H2       HT       0.417000       1.00800           0
     41044 TIP3     550      TIP3     OH2      OT      -0.834000       15.9994           0
     41045 TIP3     550      TIP3     H1       HT       0.417000       1.00800           0
     41046 TIP3     550      TIP3     H2       HT       0.417000       1.00800           0
     41047 TIP3     551      TIP3     OH2      OT      -0.834000       15.9994           0
     41048 TIP3     551      TIP3     H1       HT       0.417000       1.00800           0
     41049 TIP3     551      TIP3     H2       HT       0.417000       1.00800           0
     41050 TIP3     552      TIP3     OH2      OT      -0.834000       15.9994           0
     41051 TIP3     552      TIP3     H1       HT       0.417000       1.00800           0
     41052 TIP3     552      TIP3     H2       HT       0.417000       1.00800           0
     41053 TIP3     553      TIP3     OH2      OT      -0.834000       15.9994           0
     41054 TIP3     553      TIP3     H1       HT       0.417000       1.00800           0
     41055 TIP3     553      TIP3     H2       HT       0.417000       1.00800           0
     41056 TIP3     554      TIP3     OH2      OT      -0.834000       15.9994           0
     41057 TIP3     554      TIP3     H1       HT       0.417000       1.00800           0
     41058 TIP3     554      TIP3     H2       HT       0.417000       1.00800           0
     41059 TIP3     555      TIP3     OH2      OT      -0.834000       15.9994           0
     41060 TIP3     555      TIP3     H1       HT       0.417000       1.00800           0
     41061 TIP3     555      TIP3     H2       HT       0.417000       1.00800           0
     41062 TIP3     556      TIP3     OH2      OT      -0.834000       15.9994           0
     41063 TIP3     556      TIP3     H1       HT       0.417000       1.00800           0
     41064 TIP3     556      TIP3     H2       HT       0.417000       1.00800           0
     41065 TIP3     557      TIP3     OH2      OT      -0.834000       15.9994           0
     41066 TIP3     557      TIP3     H1       HT       0.417000       1.00800           0
     41067 TIP3     557      TIP3     H2       HT       0.417000       1.00800           0
     41068 TIP3     558      TIP3     OH2      OT      -0.834000       15.9994           0
     41069 TIP3     558      TIP3     H1       HT       0.417000       1.00800           0
     41070 TIP3     558      TIP3     H2       HT       0.417000       1.00800           0
     41071 TIP3     559      TIP3     OH2      OT      -0.834000       15.9994           0
     41072 TIP3     559      TIP3     H1       HT       0.417000       1.00800           0
     41073 TIP3     559      TIP3     H2       HT       0.417000       1.00800           0
     41074 TIP3     560      TIP3     OH2      OT      -0.834000       15.9994           0
     41075 TIP3     560      TIP3     H1       HT       0.417000       1.00800           0
     41076 TIP3     560      TIP3     H2       HT       0.417000       1.00800           0
     41077 TIP3     561      TIP3     OH2      OT      -0.834000       15.9994           0
     41078 TIP3     561      TIP3     H1       HT       0.417000       1.00800           0
     41079 TIP3     561      TIP3     H2       HT       0.417000       1.00800           0
     41080 TIP3     562      TIP3     OH2      OT      -0.834000       15.9994           0
     41081 TIP3     562      TIP3     H1       HT       0.417000       1.00800           0
     41082 TIP3     562      TIP3     H2       HT       0.417000       1.00800           0
     41083 TIP3     563      TIP3     OH2      OT      -0.834000       15.9994           0
     41084 TIP3     563      TIP3     H1       HT       0.417000       1.00800           0
     41085 TIP3     563      TIP3     H2       HT       0.417000       1.00800           0
     41086 TIP3     564      TIP3     OH2      OT      -0.834000       15.9994           0
     41087 TIP3     564      TIP3     H1       HT       0.417000       1.00800           0
     41088 TIP3     564      TIP3     H2       HT       0.417000       1.00800           0
     41089 TIP3     565      TIP3     OH2      OT      -0.834000       15.9994           0
     41090 TIP3     565      TIP3     H1       HT       0.417000       1.00800           0
     41091 TIP3     565      TIP3     H2       HT       0.417000       1.00800           0
     41092 TIP3     566      TIP3     OH2      OT      -0.834000       15.9994           0
     41093 TIP3     566      TIP3     H1       HT       0.417000       1.00800           0
     41094 TIP3     566      TIP3     H2       HT       0.417000       1.00800           0
     41095 TIP3     567      TIP3     OH2      OT      -0.834000       15.9994           0
     41096 TIP3     567      TIP3     H1       HT       0.417000       1.00800           0
     41097 TIP3     567      TIP3     H2       HT       0.417000       1.00800           0
     41098 TIP3     568      TIP3     OH2      OT      -0.834000       15.9994           0
     41099 TIP3     568      TIP3     H1       HT       0.417000       1.00800           0
     41100 TIP3     568      TIP3     H2       HT       0.417000       1.00800           0
     41101 TIP3     569      TIP3     OH2      OT      -0.834000       15.9994           0
     41102 TIP3     569      TIP3     H1       HT       0.417000       1.00800           0
     41103 TIP3     569      TIP3     H2       HT       0.417000       1.00800           0
     41104 TIP3     570      TIP3     OH2      OT      -0.834000       15.9994           0
     41105 TIP3     570      TIP3     H1       HT       0.417000       1.00800           0
     41106 TIP3     570      TIP3     H2       HT       0.417000       1.00800           0
     41107 TIP3     571      TIP3     OH2      OT      -0.834000       15.9994           0
     41108 TIP3     571      TIP3     H1       HT       0.417000       1.00800           0
     41109 TIP3     571      TIP3     H2       HT       0.417000       1.00800           0
     41110 TIP3     572      TIP3     OH2      OT      -0.834000       15.9994           0
     41111 TIP3     572      TIP3     H1       HT       0.417000       1.00800           0
     41112 TIP3     572      TIP3     H2       HT       0.417000       1.00800           0
     41113 TIP3     573      TIP3     OH2      OT      -0.834000       15.9994           0
     41114 TIP3     573      TIP3     H1       HT       0.417000       1.00800           0
     41115 TIP3     573      TIP3     H2       HT       0.417000       1.00800           0
     41116 TIP3     574      TIP3     OH2      OT      -0.834000       15.9994           0
     41117 TIP3     574      TIP3     H1       HT       0.417000       1.00800           0
     41118 TIP3     574      TIP3     H2       HT       0.417000       1.00800           0
     41119 TIP3     575      TIP3     OH2      OT      -0.834000       15.9994           0
     41120 TIP3     575      TIP3     H1       HT       0.417000       1.00800           0
     41121 TIP3     575      TIP3     H2       HT       0.417000       1.00800           0
     41122 TIP3     576      TIP3     OH2      OT      -0.834000       15.9994           0
     41123 TIP3     576      TIP3     H1       HT       0.417000       1.00800           0
     41124 TIP3     576      TIP3     H2       HT       0.417000       1.00800           0
     41125 TIP3     577      TIP3     OH2      OT      -0.834000       15.9994           0
     41126 TIP3     577      TIP3     H1       HT       0.417000       1.00800           0
     41127 TIP3     577      TIP3     H2       HT       0.417000       1.00800           0
     41128 TIP3     578      TIP3     OH2      OT      -0.834000       15.9994           0
     41129 TIP3     578      TIP3     H1       HT       0.417000       1.00800           0
     41130 TIP3     578      TIP3     H2       HT       0.417000       1.00800           0
     41131 TIP3     579      TIP3     OH2      OT      -0.834000       15.9994           0
     41132 TIP3     579      TIP3     H1       HT       0.417000       1.00800           0
     41133 TIP3     579      TIP3     H2       HT       0.417000       1.00800           0
     41134 TIP3     580      TIP3     OH2      OT      -0.834000       15.9994           0
     41135 TIP3     580      TIP3     H1       HT       0.417000       1.00800           0
     41136 TIP3     580      TIP3     H2       HT       0.417000       1.00800           0
     41137 TIP3     581      TIP3     OH2      OT      -0.834000       15.9994           0
     41138 TIP3     581      TIP3     H1       HT       0.417000       1.00800           0
     41139 TIP3     581      TIP3     H2       HT       0.417000       1.00800           0
     41140 TIP3     582      TIP3     OH2      OT      -0.834000       15.9994           0
     41141 TIP3     582      TIP3     H1       HT       0.417000       1.00800           0
     41142 TIP3     582      TIP3     H2       HT       0.417000       1.00800           0
     41143 TIP3     583      TIP3     OH2      OT      -0.834000       15.9994           0
     41144 TIP3     583      TIP3     H1       HT       0.417000       1.00800           0
     41145 TIP3     583      TIP3     H2       HT       0.417000       1.00800           0
     41146 TIP3     584      TIP3     OH2      OT      -0.834000       15.9994           0
     41147 TIP3     584      TIP3     H1       HT       0.417000       1.00800           0
     41148 TIP3     584      TIP3     H2       HT       0.417000       1.00800           0
     41149 TIP3     585      TIP3     OH2      OT      -0.834000       15.9994           0
     41150 TIP3     585      TIP3     H1       HT       0.417000       1.00800           0
     41151 TIP3     585      TIP3     H2       HT       0.417000       1.00800           0
     41152 TIP3     586      TIP3     OH2      OT      -0.834000       15.9994           0
     41153 TIP3     586      TIP3     H1       HT       0.417000       1.00800           0
     41154 TIP3     586      TIP3     H2       HT       0.417000       1.00800           0
     41155 TIP3     587      TIP3     OH2      OT      -0.834000       15.9994           0
     41156 TIP3     587      TIP3     H1       HT       0.417000       1.00800           0
     41157 TIP3     587      TIP3     H2       HT       0.417000       1.00800           0
     41158 TIP3     588      TIP3     OH2      OT      -0.834000       15.9994           0
     41159 TIP3     588      TIP3     H1       HT       0.417000       1.00800           0
     41160 TIP3     588      TIP3     H2       HT       0.417000       1.00800           0
     41161 TIP3     589      TIP3     OH2      OT      -0.834000       15.9994           0
     41162 TIP3     589      TIP3     H1       HT       0.417000       1.00800           0
     41163 TIP3     589      TIP3     H2       HT       0.417000       1.00800           0
     41164 TIP3     590      TIP3     OH2      OT      -0.834000       15.9994           0
     41165 TIP3     590      TIP3     H1       HT       0.417000       1.00800           0
     41166 TIP3     590      TIP3     H2       HT       0.417000       1.00800           0
     41167 TIP3     591      TIP3     OH2      OT      -0.834000       15.9994           0
     41168 TIP3     591      TIP3     H1       HT       0.417000       1.00800           0
     41169 TIP3     591      TIP3     H2       HT       0.417000       1.00800           0
     41170 TIP3     592      TIP3     OH2      OT      -0.834000       15.9994           0
     41171 TIP3     592      TIP3     H1       HT       0.417000       1.00800           0
     41172 TIP3     592      TIP3     H2       HT       0.417000       1.00800           0
     41173 TIP3     593      TIP3     OH2      OT      -0.834000       15.9994           0
     41174 TIP3     593      TIP3     H1       HT       0.417000       1.00800           0
     41175 TIP3     593      TIP3     H2       HT       0.417000       1.00800           0
     41176 TIP3     594      TIP3     OH2      OT      -0.834000       15.9994           0
     41177 TIP3     594      TIP3     H1       HT       0.417000       1.00800           0
     41178 TIP3     594      TIP3     H2       HT       0.417000       1.00800           0
     41179 TIP3     595      TIP3     OH2      OT      -0.834000       15.9994           0
     41180 TIP3     595      TIP3     H1       HT       0.417000       1.00800           0
     41181 TIP3     595      TIP3     H2       HT       0.417000       1.00800           0
     41182 TIP3     596      TIP3     OH2      OT      -0.834000       15.9994           0
     41183 TIP3     596      TIP3     H1       HT       0.417000       1.00800           0
     41184 TIP3     596      TIP3     H2       HT       0.417000       1.00800           0
     41185 TIP3     597      TIP3     OH2      OT      -0.834000       15.9994           0
     41186 TIP3     597      TIP3     H1       HT       0.417000       1.00800           0
     41187 TIP3     597      TIP3     H2       HT       0.417000       1.00800           0
     41188 TIP3     598      TIP3     OH2      OT      -0.834000       15.9994           0
     41189 TIP3     598      TIP3     H1       HT       0.417000       1.00800           0
     41190 TIP3     598      TIP3     H2       HT       0.417000       1.00800           0
     41191 TIP3     599      TIP3     OH2      OT      -0.834000       15.9994           0
     41192 TIP3     599      TIP3     H1       HT       0.417000       1.00800           0
     41193 TIP3     599      TIP3     H2       HT       0.417000       1.00800           0
     41194 TIP3     600      TIP3     OH2      OT      -0.834000       15.9994           0
     41195 TIP3     600      TIP3     H1       HT       0.417000       1.00800           0
     41196 TIP3     600      TIP3     H2       HT       0.417000       1.00800           0
     41197 TIP3     601      TIP3     OH2      OT      -0.834000       15.9994           0
     41198 TIP3     601      TIP3     H1       HT       0.417000       1.00800           0
     41199 TIP3     601      TIP3     H2       HT       0.417000       1.00800           0
     41200 TIP3     602      TIP3     OH2      OT      -0.834000       15.9994           0
     41201 TIP3     602      TIP3     H1       HT       0.417000       1.00800           0
     41202 TIP3     602      TIP3     H2       HT       0.417000       1.00800           0
     41203 TIP3     603      TIP3     OH2      OT      -0.834000       15.9994           0
     41204 TIP3     603      TIP3     H1       HT       0.417000       1.00800           0
     41205 TIP3     603      TIP3     H2       HT       0.417000       1.00800           0
     41206 TIP3     604      TIP3     OH2      OT      -0.834000       15.9994           0
     41207 TIP3     604      TIP3     H1       HT       0.417000       1.00800           0
     41208 TIP3     604      TIP3     H2       HT       0.417000       1.00800           0
     41209 TIP3     605      TIP3     OH2      OT      -0.834000       15.9994           0
     41210 TIP3     605      TIP3     H1       HT       0.417000       1.00800           0
     41211 TIP3     605      TIP3     H2       HT       0.417000       1.00800           0
     41212 TIP3     606      TIP3     OH2      OT      -0.834000       15.9994           0
     41213 TIP3     606      TIP3     H1       HT       0.417000       1.00800           0
     41214 TIP3     606      TIP3     H2       HT       0.417000       1.00800           0
     41215 TIP3     607      TIP3     OH2      OT      -0.834000       15.9994           0
     41216 TIP3     607      TIP3     H1       HT       0.417000       1.00800           0
     41217 TIP3     607      TIP3     H2       HT       0.417000       1.00800           0
     41218 TIP3     608      TIP3     OH2      OT      -0.834000       15.9994           0
     41219 TIP3     608      TIP3     H1       HT       0.417000       1.00800           0
     41220 TIP3     608      TIP3     H2       HT       0.417000       1.00800           0
     41221 TIP3     609      TIP3     OH2      OT      -0.834000       15.9994           0
     41222 TIP3     609      TIP3     H1       HT       0.417000       1.00800           0
     41223 TIP3     609      TIP3     H2       HT       0.417000       1.00800           0
     41224 TIP3     610      TIP3     OH2      OT      -0.834000       15.9994           0
     41225 TIP3     610      TIP3     H1       HT       0.417000       1.00800           0
     41226 TIP3     610      TIP3     H2       HT       0.417000       1.00800           0
     41227 TIP3     611      TIP3     OH2      OT      -0.834000       15.9994           0
     41228 TIP3     611      TIP3     H1       HT       0.417000       1.00800           0
     41229 TIP3     611      TIP3     H2       HT       0.417000       1.00800           0
     41230 TIP3     612      TIP3     OH2      OT      -0.834000       15.9994           0
     41231 TIP3     612      TIP3     H1       HT       0.417000       1.00800           0
     41232 TIP3     612      TIP3     H2       HT       0.417000       1.00800           0
     41233 TIP3     613      TIP3     OH2      OT      -0.834000       15.9994           0
     41234 TIP3     613      TIP3     H1       HT       0.417000       1.00800           0
     41235 TIP3     613      TIP3     H2       HT       0.417000       1.00800           0
     41236 TIP3     614      TIP3     OH2      OT      -0.834000       15.9994           0
     41237 TIP3     614      TIP3     H1       HT       0.417000       1.00800           0
     41238 TIP3     614      TIP3     H2       HT       0.417000       1.00800           0
     41239 TIP3     615      TIP3     OH2      OT      -0.834000       15.9994           0
     41240 TIP3     615      TIP3     H1       HT       0.417000       1.00800           0
     41241 TIP3     615      TIP3     H2       HT       0.417000       1.00800           0
     41242 TIP3     616      TIP3     OH2      OT      -0.834000       15.9994           0
     41243 TIP3     616      TIP3     H1       HT       0.417000       1.00800           0
     41244 TIP3     616      TIP3     H2       HT       0.417000       1.00800           0
     41245 TIP3     617      TIP3     OH2      OT      -0.834000       15.9994           0
     41246 TIP3     617      TIP3     H1       HT       0.417000       1.00800           0
     41247 TIP3     617      TIP3     H2       HT       0.417000       1.00800           0
     41248 TIP3     618      TIP3     OH2      OT      -0.834000       15.9994           0
     41249 TIP3     618      TIP3     H1       HT       0.417000       1.00800           0
     41250 TIP3     618      TIP3     H2       HT       0.417000       1.00800           0
     41251 TIP3     619      TIP3     OH2      OT      -0.834000       15.9994           0
     41252 TIP3     619      TIP3     H1       HT       0.417000       1.00800           0
     41253 TIP3     619      TIP3     H2       HT       0.417000       1.00800           0
     41254 TIP3     620      TIP3     OH2      OT      -0.834000       15.9994           0
     41255 TIP3     620      TIP3     H1       HT       0.417000       1.00800           0
     41256 TIP3     620      TIP3     H2       HT       0.417000       1.00800           0
     41257 TIP3     621      TIP3     OH2      OT      -0.834000       15.9994           0
     41258 TIP3     621      TIP3     H1       HT       0.417000       1.00800           0
     41259 TIP3     621      TIP3     H2       HT       0.417000       1.00800           0
     41260 TIP3     622      TIP3     OH2      OT      -0.834000       15.9994           0
     41261 TIP3     622      TIP3     H1       HT       0.417000       1.00800           0
     41262 TIP3     622      TIP3     H2       HT       0.417000       1.00800           0
     41263 TIP3     623      TIP3     OH2      OT      -0.834000       15.9994           0
     41264 TIP3     623      TIP3     H1       HT       0.417000       1.00800           0
     41265 TIP3     623      TIP3     H2       HT       0.417000       1.00800           0
     41266 TIP3     624      TIP3     OH2      OT      -0.834000       15.9994           0
     41267 TIP3     624      TIP3     H1       HT       0.417000       1.00800           0
     41268 TIP3     624      TIP3     H2       HT       0.417000       1.00800           0
     41269 TIP3     625      TIP3     OH2      OT      -0.834000       15.9994           0
     41270 TIP3     625      TIP3     H1       HT       0.417000       1.00800           0
     41271 TIP3     625      TIP3     H2       HT       0.417000       1.00800           0
     41272 TIP3     626      TIP3     OH2      OT      -0.834000       15.9994           0
     41273 TIP3     626      TIP3     H1       HT       0.417000       1.00800           0
     41274 TIP3     626      TIP3     H2       HT       0.417000       1.00800           0
     41275 TIP3     627      TIP3     OH2      OT      -0.834000       15.9994           0
     41276 TIP3     627      TIP3     H1       HT       0.417000       1.00800           0
     41277 TIP3     627      TIP3     H2       HT       0.417000       1.00800           0
     41278 TIP3     628      TIP3     OH2      OT      -0.834000       15.9994           0
     41279 TIP3     628      TIP3     H1       HT       0.417000       1.00800           0
     41280 TIP3     628      TIP3     H2       HT       0.417000       1.00800           0
     41281 TIP3     629      TIP3     OH2      OT      -0.834000       15.9994           0
     41282 TIP3     629      TIP3     H1       HT       0.417000       1.00800           0
     41283 TIP3     629      TIP3     H2       HT       0.417000       1.00800           0
     41284 TIP3     630      TIP3     OH2      OT      -0.834000       15.9994           0
     41285 TIP3     630      TIP3     H1       HT       0.417000       1.00800           0
     41286 TIP3     630      TIP3     H2       HT       0.417000       1.00800           0
     41287 TIP3     631      TIP3     OH2      OT      -0.834000       15.9994           0
     41288 TIP3     631      TIP3     H1       HT       0.417000       1.00800           0
     41289 TIP3     631      TIP3     H2       HT       0.417000       1.00800           0
     41290 TIP3     632      TIP3     OH2      OT      -0.834000       15.9994           0
     41291 TIP3     632      TIP3     H1       HT       0.417000       1.00800           0
     41292 TIP3     632      TIP3     H2       HT       0.417000       1.00800           0
     41293 TIP3     633      TIP3     OH2      OT      -0.834000       15.9994           0
     41294 TIP3     633      TIP3     H1       HT       0.417000       1.00800           0
     41295 TIP3     633      TIP3     H2       HT       0.417000       1.00800           0
     41296 TIP3     634      TIP3     OH2      OT      -0.834000       15.9994           0
     41297 TIP3     634      TIP3     H1       HT       0.417000       1.00800           0
     41298 TIP3     634      TIP3     H2       HT       0.417000       1.00800           0
     41299 TIP3     635      TIP3     OH2      OT      -0.834000       15.9994           0
     41300 TIP3     635      TIP3     H1       HT       0.417000       1.00800           0
     41301 TIP3     635      TIP3     H2       HT       0.417000       1.00800           0
     41302 TIP3     636      TIP3     OH2      OT      -0.834000       15.9994           0
     41303 TIP3     636      TIP3     H1       HT       0.417000       1.00800           0
     41304 TIP3     636      TIP3     H2       HT       0.417000       1.00800           0
     41305 TIP3     637      TIP3     OH2      OT      -0.834000       15.9994           0
     41306 TIP3     637      TIP3     H1       HT       0.417000       1.00800           0
     41307 TIP3     637      TIP3     H2       HT       0.417000       1.00800           0
     41308 TIP3     638      TIP3     OH2      OT      -0.834000       15.9994           0
     41309 TIP3     638      TIP3     H1       HT       0.417000       1.00800           0
     41310 TIP3     638      TIP3     H2       HT       0.417000       1.00800           0
     41311 TIP3     639      TIP3     OH2      OT      -0.834000       15.9994           0
     41312 TIP3     639      TIP3     H1       HT       0.417000       1.00800           0
     41313 TIP3     639      TIP3     H2       HT       0.417000       1.00800           0
     41314 TIP3     640      TIP3     OH2      OT      -0.834000       15.9994           0
     41315 TIP3     640      TIP3     H1       HT       0.417000       1.00800           0
     41316 TIP3     640      TIP3     H2       HT       0.417000       1.00800           0
     41317 TIP3     641      TIP3     OH2      OT      -0.834000       15.9994           0
     41318 TIP3     641      TIP3     H1       HT       0.417000       1.00800           0
     41319 TIP3     641      TIP3     H2       HT       0.417000       1.00800           0
     41320 TIP3     642      TIP3     OH2      OT      -0.834000       15.9994           0
     41321 TIP3     642      TIP3     H1       HT       0.417000       1.00800           0
     41322 TIP3     642      TIP3     H2       HT       0.417000       1.00800           0
     41323 TIP3     643      TIP3     OH2      OT      -0.834000       15.9994           0
     41324 TIP3     643      TIP3     H1       HT       0.417000       1.00800           0
     41325 TIP3     643      TIP3     H2       HT       0.417000       1.00800           0
     41326 TIP3     644      TIP3     OH2      OT      -0.834000       15.9994           0
     41327 TIP3     644      TIP3     H1       HT       0.417000       1.00800           0
     41328 TIP3     644      TIP3     H2       HT       0.417000       1.00800           0
     41329 TIP3     645      TIP3     OH2      OT      -0.834000       15.9994           0
     41330 TIP3     645      TIP3     H1       HT       0.417000       1.00800           0
     41331 TIP3     645      TIP3     H2       HT       0.417000       1.00800           0
     41332 TIP3     646      TIP3     OH2      OT      -0.834000       15.9994           0
     41333 TIP3     646      TIP3     H1       HT       0.417000       1.00800           0
     41334 TIP3     646      TIP3     H2       HT       0.417000       1.00800           0
     41335 TIP3     647      TIP3     OH2      OT      -0.834000       15.9994           0
     41336 TIP3     647      TIP3     H1       HT       0.417000       1.00800           0
     41337 TIP3     647      TIP3     H2       HT       0.417000       1.00800           0
     41338 TIP3     648      TIP3     OH2      OT      -0.834000       15.9994           0
     41339 TIP3     648      TIP3     H1       HT       0.417000       1.00800           0
     41340 TIP3     648      TIP3     H2       HT       0.417000       1.00800           0
     41341 TIP3     649      TIP3     OH2      OT      -0.834000       15.9994           0
     41342 TIP3     649      TIP3     H1       HT       0.417000       1.00800           0
     41343 TIP3     649      TIP3     H2       HT       0.417000       1.00800           0
     41344 TIP3     650      TIP3     OH2      OT      -0.834000       15.9994           0
     41345 TIP3     650      TIP3     H1       HT       0.417000       1.00800           0
     41346 TIP3     650      TIP3     H2       HT       0.417000       1.00800           0
     41347 TIP3     651      TIP3     OH2      OT      -0.834000       15.9994           0
     41348 TIP3     651      TIP3     H1       HT       0.417000       1.00800           0
     41349 TIP3     651      TIP3     H2       HT       0.417000       1.00800           0
     41350 TIP3     652      TIP3     OH2      OT      -0.834000       15.9994           0
     41351 TIP3     652      TIP3     H1       HT       0.417000       1.00800           0
     41352 TIP3     652      TIP3     H2       HT       0.417000       1.00800           0
     41353 TIP3     653      TIP3     OH2      OT      -0.834000       15.9994           0
     41354 TIP3     653      TIP3     H1       HT       0.417000       1.00800           0
     41355 TIP3     653      TIP3     H2       HT       0.417000       1.00800           0
     41356 TIP3     654      TIP3     OH2      OT      -0.834000       15.9994           0
     41357 TIP3     654      TIP3     H1       HT       0.417000       1.00800           0
     41358 TIP3     654      TIP3     H2       HT       0.417000       1.00800           0
     41359 TIP3     655      TIP3     OH2      OT      -0.834000       15.9994           0
     41360 TIP3     655      TIP3     H1       HT       0.417000       1.00800           0
     41361 TIP3     655      TIP3     H2       HT       0.417000       1.00800           0
     41362 TIP3     656      TIP3     OH2      OT      -0.834000       15.9994           0
     41363 TIP3     656      TIP3     H1       HT       0.417000       1.00800           0
     41364 TIP3     656      TIP3     H2       HT       0.417000       1.00800           0
     41365 TIP3     657      TIP3     OH2      OT      -0.834000       15.9994           0
     41366 TIP3     657      TIP3     H1       HT       0.417000       1.00800           0
     41367 TIP3     657      TIP3     H2       HT       0.417000       1.00800           0
     41368 TIP3     658      TIP3     OH2      OT      -0.834000       15.9994           0
     41369 TIP3     658      TIP3     H1       HT       0.417000       1.00800           0
     41370 TIP3     658      TIP3     H2       HT       0.417000       1.00800           0
     41371 TIP3     659      TIP3     OH2      OT      -0.834000       15.9994           0
     41372 TIP3     659      TIP3     H1       HT       0.417000       1.00800           0
     41373 TIP3     659      TIP3     H2       HT       0.417000       1.00800           0
     41374 TIP3     660      TIP3     OH2      OT      -0.834000       15.9994           0
     41375 TIP3     660      TIP3     H1       HT       0.417000       1.00800           0
     41376 TIP3     660      TIP3     H2       HT       0.417000       1.00800           0
     41377 TIP3     661      TIP3     OH2      OT      -0.834000       15.9994           0
     41378 TIP3     661      TIP3     H1       HT       0.417000       1.00800           0
     41379 TIP3     661      TIP3     H2       HT       0.417000       1.00800           0
     41380 TIP3     662      TIP3     OH2      OT      -0.834000       15.9994           0
     41381 TIP3     662      TIP3     H1       HT       0.417000       1.00800           0
     41382 TIP3     662      TIP3     H2       HT       0.417000       1.00800           0
     41383 TIP3     663      TIP3     OH2      OT      -0.834000       15.9994           0
     41384 TIP3     663      TIP3     H1       HT       0.417000       1.00800           0
     41385 TIP3     663      TIP3     H2       HT       0.417000       1.00800           0
     41386 TIP3     664      TIP3     OH2      OT      -0.834000       15.9994           0
     41387 TIP3     664      TIP3     H1       HT       0.417000       1.00800           0
     41388 TIP3     664      TIP3     H2       HT       0.417000       1.00800           0
     41389 TIP3     665      TIP3     OH2      OT      -0.834000       15.9994           0
     41390 TIP3     665      TIP3     H1       HT       0.417000       1.00800           0
     41391 TIP3     665      TIP3     H2       HT       0.417000       1.00800           0
     41392 TIP3     666      TIP3     OH2      OT      -0.834000       15.9994           0
     41393 TIP3     666      TIP3     H1       HT       0.417000       1.00800           0
     41394 TIP3     666      TIP3     H2       HT       0.417000       1.00800           0
     41395 TIP3     667      TIP3     OH2      OT      -0.834000       15.9994           0
     41396 TIP3     667      TIP3     H1       HT       0.417000       1.00800           0
     41397 TIP3     667      TIP3     H2       HT       0.417000       1.00800           0
     41398 TIP3     668      TIP3     OH2      OT      -0.834000       15.9994           0
     41399 TIP3     668      TIP3     H1       HT       0.417000       1.00800           0
     41400 TIP3     668      TIP3     H2       HT       0.417000       1.00800           0
     41401 TIP3     669      TIP3     OH2      OT      -0.834000       15.9994           0
     41402 TIP3     669      TIP3     H1       HT       0.417000       1.00800           0
     41403 TIP3     669      TIP3     H2       HT       0.417000       1.00800           0
     41404 TIP3     670      TIP3     OH2      OT      -0.834000       15.9994           0
     41405 TIP3     670      TIP3     H1       HT       0.417000       1.00800           0
     41406 TIP3     670      TIP3     H2       HT       0.417000       1.00800           0
     41407 TIP3     671      TIP3     OH2      OT      -0.834000       15.9994           0
     41408 TIP3     671      TIP3     H1       HT       0.417000       1.00800           0
     41409 TIP3     671      TIP3     H2       HT       0.417000       1.00800           0
     41410 TIP3     672      TIP3     OH2      OT      -0.834000       15.9994           0
     41411 TIP3     672      TIP3     H1       HT       0.417000       1.00800           0
     41412 TIP3     672      TIP3     H2       HT       0.417000       1.00800           0
     41413 TIP3     673      TIP3     OH2      OT      -0.834000       15.9994           0
     41414 TIP3     673      TIP3     H1       HT       0.417000       1.00800           0
     41415 TIP3     673      TIP3     H2       HT       0.417000       1.00800           0
     41416 TIP3     674      TIP3     OH2      OT      -0.834000       15.9994           0
     41417 TIP3     674      TIP3     H1       HT       0.417000       1.00800           0
     41418 TIP3     674      TIP3     H2       HT       0.417000       1.00800           0
     41419 TIP3     675      TIP3     OH2      OT      -0.834000       15.9994           0
     41420 TIP3     675      TIP3     H1       HT       0.417000       1.00800           0
     41421 TIP3     675      TIP3     H2       HT       0.417000       1.00800           0
     41422 TIP3     676      TIP3     OH2      OT      -0.834000       15.9994           0
     41423 TIP3     676      TIP3     H1       HT       0.417000       1.00800           0
     41424 TIP3     676      TIP3     H2       HT       0.417000       1.00800           0
     41425 TIP3     677      TIP3     OH2      OT      -0.834000       15.9994           0
     41426 TIP3     677      TIP3     H1       HT       0.417000       1.00800           0
     41427 TIP3     677      TIP3     H2       HT       0.417000       1.00800           0
     41428 TIP3     678      TIP3     OH2      OT      -0.834000       15.9994           0
     41429 TIP3     678      TIP3     H1       HT       0.417000       1.00800           0
     41430 TIP3     678      TIP3     H2       HT       0.417000       1.00800           0
     41431 TIP3     679      TIP3     OH2      OT      -0.834000       15.9994           0
     41432 TIP3     679      TIP3     H1       HT       0.417000       1.00800           0
     41433 TIP3     679      TIP3     H2       HT       0.417000       1.00800           0
     41434 TIP3     680      TIP3     OH2      OT      -0.834000       15.9994           0
     41435 TIP3     680      TIP3     H1       HT       0.417000       1.00800           0
     41436 TIP3     680      TIP3     H2       HT       0.417000       1.00800           0
     41437 TIP3     681      TIP3     OH2      OT      -0.834000       15.9994           0
     41438 TIP3     681      TIP3     H1       HT       0.417000       1.00800           0
     41439 TIP3     681      TIP3     H2       HT       0.417000       1.00800           0
     41440 TIP3     682      TIP3     OH2      OT      -0.834000       15.9994           0
     41441 TIP3     682      TIP3     H1       HT       0.417000       1.00800           0
     41442 TIP3     682      TIP3     H2       HT       0.417000       1.00800           0
     41443 TIP3     683      TIP3     OH2      OT      -0.834000       15.9994           0
     41444 TIP3     683      TIP3     H1       HT       0.417000       1.00800           0
     41445 TIP3     683      TIP3     H2       HT       0.417000       1.00800           0
     41446 TIP3     684      TIP3     OH2      OT      -0.834000       15.9994           0
     41447 TIP3     684      TIP3     H1       HT       0.417000       1.00800           0
     41448 TIP3     684      TIP3     H2       HT       0.417000       1.00800           0
     41449 TIP3     685      TIP3     OH2      OT      -0.834000       15.9994           0
     41450 TIP3     685      TIP3     H1       HT       0.417000       1.00800           0
     41451 TIP3     685      TIP3     H2       HT       0.417000       1.00800           0
     41452 TIP3     686      TIP3     OH2      OT      -0.834000       15.9994           0
     41453 TIP3     686      TIP3     H1       HT       0.417000       1.00800           0
     41454 TIP3     686      TIP3     H2       HT       0.417000       1.00800           0
     41455 TIP3     687      TIP3     OH2      OT      -0.834000       15.9994           0
     41456 TIP3     687      TIP3     H1       HT       0.417000       1.00800           0
     41457 TIP3     687      TIP3     H2       HT       0.417000       1.00800           0
     41458 TIP3     688      TIP3     OH2      OT      -0.834000       15.9994           0
     41459 TIP3     688      TIP3     H1       HT       0.417000       1.00800           0
     41460 TIP3     688      TIP3     H2       HT       0.417000       1.00800           0
     41461 TIP3     689      TIP3     OH2      OT      -0.834000       15.9994           0
     41462 TIP3     689      TIP3     H1       HT       0.417000       1.00800           0
     41463 TIP3     689      TIP3     H2       HT       0.417000       1.00800           0
     41464 TIP3     690      TIP3     OH2      OT      -0.834000       15.9994           0
     41465 TIP3     690      TIP3     H1       HT       0.417000       1.00800           0
     41466 TIP3     690      TIP3     H2       HT       0.417000       1.00800           0
     41467 TIP3     691      TIP3     OH2      OT      -0.834000       15.9994           0
     41468 TIP3     691      TIP3     H1       HT       0.417000       1.00800           0
     41469 TIP3     691      TIP3     H2       HT       0.417000       1.00800           0
     41470 TIP3     692      TIP3     OH2      OT      -0.834000       15.9994           0
     41471 TIP3     692      TIP3     H1       HT       0.417000       1.00800           0
     41472 TIP3     692      TIP3     H2       HT       0.417000       1.00800           0
     41473 TIP3     693      TIP3     OH2      OT      -0.834000       15.9994           0
     41474 TIP3     693      TIP3     H1       HT       0.417000       1.00800           0
     41475 TIP3     693      TIP3     H2       HT       0.417000       1.00800           0
     41476 TIP3     694      TIP3     OH2      OT      -0.834000       15.9994           0
     41477 TIP3     694      TIP3     H1       HT       0.417000       1.00800           0
     41478 TIP3     694      TIP3     H2       HT       0.417000       1.00800           0
     41479 TIP3     695      TIP3     OH2      OT      -0.834000       15.9994           0
     41480 TIP3     695      TIP3     H1       HT       0.417000       1.00800           0
     41481 TIP3     695      TIP3     H2       HT       0.417000       1.00800           0
     41482 TIP3     696      TIP3     OH2      OT      -0.834000       15.9994           0
     41483 TIP3     696      TIP3     H1       HT       0.417000       1.00800           0
     41484 TIP3     696      TIP3     H2       HT       0.417000       1.00800           0
     41485 TIP3     697      TIP3     OH2      OT      -0.834000       15.9994           0
     41486 TIP3     697      TIP3     H1       HT       0.417000       1.00800           0
     41487 TIP3     697      TIP3     H2       HT       0.417000       1.00800           0
     41488 TIP3     698      TIP3     OH2      OT      -0.834000       15.9994           0
     41489 TIP3     698      TIP3     H1       HT       0.417000       1.00800           0
     41490 TIP3     698      TIP3     H2       HT       0.417000       1.00800           0
     41491 TIP3     699      TIP3     OH2      OT      -0.834000       15.9994           0
     41492 TIP3     699      TIP3     H1       HT       0.417000       1.00800           0
     41493 TIP3     699      TIP3     H2       HT       0.417000       1.00800           0
     41494 TIP3     700      TIP3     OH2      OT      -0.834000       15.9994           0
     41495 TIP3     700      TIP3     H1       HT       0.417000       1.00800           0
     41496 TIP3     700      TIP3     H2       HT       0.417000       1.00800           0
     41497 TIP3     701      TIP3     OH2      OT      -0.834000       15.9994           0
     41498 TIP3     701      TIP3     H1       HT       0.417000       1.00800           0
     41499 TIP3     701      TIP3     H2       HT       0.417000       1.00800           0
     41500 TIP3     702      TIP3     OH2      OT      -0.834000       15.9994           0
     41501 TIP3     702      TIP3     H1       HT       0.417000       1.00800           0
     41502 TIP3     702      TIP3     H2       HT       0.417000       1.00800           0
     41503 TIP3     703      TIP3     OH2      OT      -0.834000       15.9994           0
     41504 TIP3     703      TIP3     H1       HT       0.417000       1.00800           0
     41505 TIP3     703      TIP3     H2       HT       0.417000       1.00800           0
     41506 TIP3     704      TIP3     OH2      OT      -0.834000       15.9994           0
     41507 TIP3     704      TIP3     H1       HT       0.417000       1.00800           0
     41508 TIP3     704      TIP3     H2       HT       0.417000       1.00800           0
     41509 TIP3     705      TIP3     OH2      OT      -0.834000       15.9994           0
     41510 TIP3     705      TIP3     H1       HT       0.417000       1.00800           0
     41511 TIP3     705      TIP3     H2       HT       0.417000       1.00800           0
     41512 TIP3     706      TIP3     OH2      OT      -0.834000       15.9994           0
     41513 TIP3     706      TIP3     H1       HT       0.417000       1.00800           0
     41514 TIP3     706      TIP3     H2       HT       0.417000       1.00800           0
     41515 TIP3     707      TIP3     OH2      OT      -0.834000       15.9994           0
     41516 TIP3     707      TIP3     H1       HT       0.417000       1.00800           0
     41517 TIP3     707      TIP3     H2       HT       0.417000       1.00800           0
     41518 TIP3     708      TIP3     OH2      OT      -0.834000       15.9994           0
     41519 TIP3     708      TIP3     H1       HT       0.417000       1.00800           0
     41520 TIP3     708      TIP3     H2       HT       0.417000       1.00800           0
     41521 TIP3     709      TIP3     OH2      OT      -0.834000       15.9994           0
     41522 TIP3     709      TIP3     H1       HT       0.417000       1.00800           0
     41523 TIP3     709      TIP3     H2       HT       0.417000       1.00800           0
     41524 TIP3     710      TIP3     OH2      OT      -0.834000       15.9994           0
     41525 TIP3     710      TIP3     H1       HT       0.417000       1.00800           0
     41526 TIP3     710      TIP3     H2       HT       0.417000       1.00800           0
     41527 TIP3     711      TIP3     OH2      OT      -0.834000       15.9994           0
     41528 TIP3     711      TIP3     H1       HT       0.417000       1.00800           0
     41529 TIP3     711      TIP3     H2       HT       0.417000       1.00800           0
     41530 TIP3     712      TIP3     OH2      OT      -0.834000       15.9994           0
     41531 TIP3     712      TIP3     H1       HT       0.417000       1.00800           0
     41532 TIP3     712      TIP3     H2       HT       0.417000       1.00800           0
     41533 TIP3     713      TIP3     OH2      OT      -0.834000       15.9994           0
     41534 TIP3     713      TIP3     H1       HT       0.417000       1.00800           0
     41535 TIP3     713      TIP3     H2       HT       0.417000       1.00800           0
     41536 TIP3     714      TIP3     OH2      OT      -0.834000       15.9994           0
     41537 TIP3     714      TIP3     H1       HT       0.417000       1.00800           0
     41538 TIP3     714      TIP3     H2       HT       0.417000       1.00800           0
     41539 TIP3     715      TIP3     OH2      OT      -0.834000       15.9994           0
     41540 TIP3     715      TIP3     H1       HT       0.417000       1.00800           0
     41541 TIP3     715      TIP3     H2       HT       0.417000       1.00800           0
     41542 TIP3     716      TIP3     OH2      OT      -0.834000       15.9994           0
     41543 TIP3     716      TIP3     H1       HT       0.417000       1.00800           0
     41544 TIP3     716      TIP3     H2       HT       0.417000       1.00800           0
     41545 TIP3     717      TIP3     OH2      OT      -0.834000       15.9994           0
     41546 TIP3     717      TIP3     H1       HT       0.417000       1.00800           0
     41547 TIP3     717      TIP3     H2       HT       0.417000       1.00800           0
     41548 TIP3     718      TIP3     OH2      OT      -0.834000       15.9994           0
     41549 TIP3     718      TIP3     H1       HT       0.417000       1.00800           0
     41550 TIP3     718      TIP3     H2       HT       0.417000       1.00800           0
     41551 TIP3     719      TIP3     OH2      OT      -0.834000       15.9994           0
     41552 TIP3     719      TIP3     H1       HT       0.417000       1.00800           0
     41553 TIP3     719      TIP3     H2       HT       0.417000       1.00800           0
     41554 TIP3     720      TIP3     OH2      OT      -0.834000       15.9994           0
     41555 TIP3     720      TIP3     H1       HT       0.417000       1.00800           0
     41556 TIP3     720      TIP3     H2       HT       0.417000       1.00800           0
     41557 TIP3     721      TIP3     OH2      OT      -0.834000       15.9994           0
     41558 TIP3     721      TIP3     H1       HT       0.417000       1.00800           0
     41559 TIP3     721      TIP3     H2       HT       0.417000       1.00800           0
     41560 TIP3     722      TIP3     OH2      OT      -0.834000       15.9994           0
     41561 TIP3     722      TIP3     H1       HT       0.417000       1.00800           0
     41562 TIP3     722      TIP3     H2       HT       0.417000       1.00800           0
     41563 TIP3     723      TIP3     OH2      OT      -0.834000       15.9994           0
     41564 TIP3     723      TIP3     H1       HT       0.417000       1.00800           0
     41565 TIP3     723      TIP3     H2       HT       0.417000       1.00800           0
     41566 TIP3     724      TIP3     OH2      OT      -0.834000       15.9994           0
     41567 TIP3     724      TIP3     H1       HT       0.417000       1.00800           0
     41568 TIP3     724      TIP3     H2       HT       0.417000       1.00800           0
     41569 TIP3     725      TIP3     OH2      OT      -0.834000       15.9994           0
     41570 TIP3     725      TIP3     H1       HT       0.417000       1.00800           0
     41571 TIP3     725      TIP3     H2       HT       0.417000       1.00800           0
     41572 TIP3     726      TIP3     OH2      OT      -0.834000       15.9994           0
     41573 TIP3     726      TIP3     H1       HT       0.417000       1.00800           0
     41574 TIP3     726      TIP3     H2       HT       0.417000       1.00800           0
     41575 TIP3     727      TIP3     OH2      OT      -0.834000       15.9994           0
     41576 TIP3     727      TIP3     H1       HT       0.417000       1.00800           0
     41577 TIP3     727      TIP3     H2       HT       0.417000       1.00800           0
     41578 TIP3     728      TIP3     OH2      OT      -0.834000       15.9994           0
     41579 TIP3     728      TIP3     H1       HT       0.417000       1.00800           0
     41580 TIP3     728      TIP3     H2       HT       0.417000       1.00800           0
     41581 TIP3     729      TIP3     OH2      OT      -0.834000       15.9994           0
     41582 TIP3     729      TIP3     H1       HT       0.417000       1.00800           0
     41583 TIP3     729      TIP3     H2       HT       0.417000       1.00800           0
     41584 TIP3     730      TIP3     OH2      OT      -0.834000       15.9994           0
     41585 TIP3     730      TIP3     H1       HT       0.417000       1.00800           0
     41586 TIP3     730      TIP3     H2       HT       0.417000       1.00800           0
     41587 TIP3     731      TIP3     OH2      OT      -0.834000       15.9994           0
     41588 TIP3     731      TIP3     H1       HT       0.417000       1.00800           0
     41589 TIP3     731      TIP3     H2       HT       0.417000       1.00800           0
     41590 TIP3     732      TIP3     OH2      OT      -0.834000       15.9994           0
     41591 TIP3     732      TIP3     H1       HT       0.417000       1.00800           0
     41592 TIP3     732      TIP3     H2       HT       0.417000       1.00800           0
     41593 TIP3     733      TIP3     OH2      OT      -0.834000       15.9994           0
     41594 TIP3     733      TIP3     H1       HT       0.417000       1.00800           0
     41595 TIP3     733      TIP3     H2       HT       0.417000       1.00800           0
     41596 TIP3     734      TIP3     OH2      OT      -0.834000       15.9994           0
     41597 TIP3     734      TIP3     H1       HT       0.417000       1.00800           0
     41598 TIP3     734      TIP3     H2       HT       0.417000       1.00800           0
     41599 TIP3     735      TIP3     OH2      OT      -0.834000       15.9994           0
     41600 TIP3     735      TIP3     H1       HT       0.417000       1.00800           0
     41601 TIP3     735      TIP3     H2       HT       0.417000       1.00800           0
     41602 TIP3     736      TIP3     OH2      OT      -0.834000       15.9994           0
     41603 TIP3     736      TIP3     H1       HT       0.417000       1.00800           0
     41604 TIP3     736      TIP3     H2       HT       0.417000       1.00800           0
     41605 TIP3     737      TIP3     OH2      OT      -0.834000       15.9994           0
     41606 TIP3     737      TIP3     H1       HT       0.417000       1.00800           0
     41607 TIP3     737      TIP3     H2       HT       0.417000       1.00800           0
     41608 TIP3     738      TIP3     OH2      OT      -0.834000       15.9994           0
     41609 TIP3     738      TIP3     H1       HT       0.417000       1.00800           0
     41610 TIP3     738      TIP3     H2       HT       0.417000       1.00800           0
     41611 TIP3     739      TIP3     OH2      OT      -0.834000       15.9994           0
     41612 TIP3     739      TIP3     H1       HT       0.417000       1.00800           0
     41613 TIP3     739      TIP3     H2       HT       0.417000       1.00800           0
     41614 TIP3     740      TIP3     OH2      OT      -0.834000       15.9994           0
     41615 TIP3     740      TIP3     H1       HT       0.417000       1.00800           0
     41616 TIP3     740      TIP3     H2       HT       0.417000       1.00800           0
     41617 TIP3     741      TIP3     OH2      OT      -0.834000       15.9994           0
     41618 TIP3     741      TIP3     H1       HT       0.417000       1.00800           0
     41619 TIP3     741      TIP3     H2       HT       0.417000       1.00800           0
     41620 TIP3     742      TIP3     OH2      OT      -0.834000       15.9994           0
     41621 TIP3     742      TIP3     H1       HT       0.417000       1.00800           0
     41622 TIP3     742      TIP3     H2       HT       0.417000       1.00800           0
     41623 TIP3     743      TIP3     OH2      OT      -0.834000       15.9994           0
     41624 TIP3     743      TIP3     H1       HT       0.417000       1.00800           0
     41625 TIP3     743      TIP3     H2       HT       0.417000       1.00800           0
     41626 TIP3     744      TIP3     OH2      OT      -0.834000       15.9994           0
     41627 TIP3     744      TIP3     H1       HT       0.417000       1.00800           0
     41628 TIP3     744      TIP3     H2       HT       0.417000       1.00800           0
     41629 TIP3     745      TIP3     OH2      OT      -0.834000       15.9994           0
     41630 TIP3     745      TIP3     H1       HT       0.417000       1.00800           0
     41631 TIP3     745      TIP3     H2       HT       0.417000       1.00800           0
     41632 TIP3     746      TIP3     OH2      OT      -0.834000       15.9994           0
     41633 TIP3     746      TIP3     H1       HT       0.417000       1.00800           0
     41634 TIP3     746      TIP3     H2       HT       0.417000       1.00800           0
     41635 TIP3     747      TIP3     OH2      OT      -0.834000       15.9994           0
     41636 TIP3     747      TIP3     H1       HT       0.417000       1.00800           0
     41637 TIP3     747      TIP3     H2       HT       0.417000       1.00800           0
     41638 TIP3     748      TIP3     OH2      OT      -0.834000       15.9994           0
     41639 TIP3     748      TIP3     H1       HT       0.417000       1.00800           0
     41640 TIP3     748      TIP3     H2       HT       0.417000       1.00800           0
     41641 TIP3     749      TIP3     OH2      OT      -0.834000       15.9994           0
     41642 TIP3     749      TIP3     H1       HT       0.417000       1.00800           0
     41643 TIP3     749      TIP3     H2       HT       0.417000       1.00800           0
     41644 TIP3     750      TIP3     OH2      OT      -0.834000       15.9994           0
     41645 TIP3     750      TIP3     H1       HT       0.417000       1.00800           0
     41646 TIP3     750      TIP3     H2       HT       0.417000       1.00800           0
     41647 TIP3     751      TIP3     OH2      OT      -0.834000       15.9994           0
     41648 TIP3     751      TIP3     H1       HT       0.417000       1.00800           0
     41649 TIP3     751      TIP3     H2       HT       0.417000       1.00800           0
     41650 TIP3     752      TIP3     OH2      OT      -0.834000       15.9994           0
     41651 TIP3     752      TIP3     H1       HT       0.417000       1.00800           0
     41652 TIP3     752      TIP3     H2       HT       0.417000       1.00800           0
     41653 TIP3     753      TIP3     OH2      OT      -0.834000       15.9994           0
     41654 TIP3     753      TIP3     H1       HT       0.417000       1.00800           0
     41655 TIP3     753      TIP3     H2       HT       0.417000       1.00800           0
     41656 TIP3     754      TIP3     OH2      OT      -0.834000       15.9994           0
     41657 TIP3     754      TIP3     H1       HT       0.417000       1.00800           0
     41658 TIP3     754      TIP3     H2       HT       0.417000       1.00800           0
     41659 TIP3     755      TIP3     OH2      OT      -0.834000       15.9994           0
     41660 TIP3     755      TIP3     H1       HT       0.417000       1.00800           0
     41661 TIP3     755      TIP3     H2       HT       0.417000       1.00800           0
     41662 TIP3     756      TIP3     OH2      OT      -0.834000       15.9994           0
     41663 TIP3     756      TIP3     H1       HT       0.417000       1.00800           0
     41664 TIP3     756      TIP3     H2       HT       0.417000       1.00800           0
     41665 TIP3     757      TIP3     OH2      OT      -0.834000       15.9994           0
     41666 TIP3     757      TIP3     H1       HT       0.417000       1.00800           0
     41667 TIP3     757      TIP3     H2       HT       0.417000       1.00800           0
     41668 TIP3     758      TIP3     OH2      OT      -0.834000       15.9994           0
     41669 TIP3     758      TIP3     H1       HT       0.417000       1.00800           0
     41670 TIP3     758      TIP3     H2       HT       0.417000       1.00800           0
     41671 TIP3     759      TIP3     OH2      OT      -0.834000       15.9994           0
     41672 TIP3     759      TIP3     H1       HT       0.417000       1.00800           0
     41673 TIP3     759      TIP3     H2       HT       0.417000       1.00800           0
     41674 TIP3     760      TIP3     OH2      OT      -0.834000       15.9994           0
     41675 TIP3     760      TIP3     H1       HT       0.417000       1.00800           0
     41676 TIP3     760      TIP3     H2       HT       0.417000       1.00800           0
     41677 TIP3     761      TIP3     OH2      OT      -0.834000       15.9994           0
     41678 TIP3     761      TIP3     H1       HT       0.417000       1.00800           0
     41679 TIP3     761      TIP3     H2       HT       0.417000       1.00800           0
     41680 TIP3     762      TIP3     OH2      OT      -0.834000       15.9994           0
     41681 TIP3     762      TIP3     H1       HT       0.417000       1.00800           0
     41682 TIP3     762      TIP3     H2       HT       0.417000       1.00800           0
     41683 TIP3     763      TIP3     OH2      OT      -0.834000       15.9994           0
     41684 TIP3     763      TIP3     H1       HT       0.417000       1.00800           0
     41685 TIP3     763      TIP3     H2       HT       0.417000       1.00800           0
     41686 TIP3     764      TIP3     OH2      OT      -0.834000       15.9994           0
     41687 TIP3     764      TIP3     H1       HT       0.417000       1.00800           0
     41688 TIP3     764      TIP3     H2       HT       0.417000       1.00800           0
     41689 TIP3     765      TIP3     OH2      OT      -0.834000       15.9994           0
     41690 TIP3     765      TIP3     H1       HT       0.417000       1.00800           0
     41691 TIP3     765      TIP3     H2       HT       0.417000       1.00800           0
     41692 TIP3     766      TIP3     OH2      OT      -0.834000       15.9994           0
     41693 TIP3     766      TIP3     H1       HT       0.417000       1.00800           0
     41694 TIP3     766      TIP3     H2       HT       0.417000       1.00800           0
     41695 TIP3     767      TIP3     OH2      OT      -0.834000       15.9994           0
     41696 TIP3     767      TIP3     H1       HT       0.417000       1.00800           0
     41697 TIP3     767      TIP3     H2       HT       0.417000       1.00800           0
     41698 TIP3     768      TIP3     OH2      OT      -0.834000       15.9994           0
     41699 TIP3     768      TIP3     H1       HT       0.417000       1.00800           0
     41700 TIP3     768      TIP3     H2       HT       0.417000       1.00800           0
     41701 TIP3     769      TIP3     OH2      OT      -0.834000       15.9994           0
     41702 TIP3     769      TIP3     H1       HT       0.417000       1.00800           0
     41703 TIP3     769      TIP3     H2       HT       0.417000       1.00800           0
     41704 TIP3     770      TIP3     OH2      OT      -0.834000       15.9994           0
     41705 TIP3     770      TIP3     H1       HT       0.417000       1.00800           0
     41706 TIP3     770      TIP3     H2       HT       0.417000       1.00800           0
     41707 TIP3     771      TIP3     OH2      OT      -0.834000       15.9994           0
     41708 TIP3     771      TIP3     H1       HT       0.417000       1.00800           0
     41709 TIP3     771      TIP3     H2       HT       0.417000       1.00800           0
     41710 TIP3     772      TIP3     OH2      OT      -0.834000       15.9994           0
     41711 TIP3     772      TIP3     H1       HT       0.417000       1.00800           0
     41712 TIP3     772      TIP3     H2       HT       0.417000       1.00800           0
     41713 TIP3     773      TIP3     OH2      OT      -0.834000       15.9994           0
     41714 TIP3     773      TIP3     H1       HT       0.417000       1.00800           0
     41715 TIP3     773      TIP3     H2       HT       0.417000       1.00800           0
     41716 TIP3     774      TIP3     OH2      OT      -0.834000       15.9994           0
     41717 TIP3     774      TIP3     H1       HT       0.417000       1.00800           0
     41718 TIP3     774      TIP3     H2       HT       0.417000       1.00800           0
     41719 TIP3     775      TIP3     OH2      OT      -0.834000       15.9994           0
     41720 TIP3     775      TIP3     H1       HT       0.417000       1.00800           0
     41721 TIP3     775      TIP3     H2       HT       0.417000       1.00800           0
     41722 TIP3     776      TIP3     OH2      OT      -0.834000       15.9994           0
     41723 TIP3     776      TIP3     H1       HT       0.417000       1.00800           0
     41724 TIP3     776      TIP3     H2       HT       0.417000       1.00800           0
     41725 TIP3     777      TIP3     OH2      OT      -0.834000       15.9994           0
     41726 TIP3     777      TIP3     H1       HT       0.417000       1.00800           0
     41727 TIP3     777      TIP3     H2       HT       0.417000       1.00800           0
     41728 TIP3     778      TIP3     OH2      OT      -0.834000       15.9994           0
     41729 TIP3     778      TIP3     H1       HT       0.417000       1.00800           0
     41730 TIP3     778      TIP3     H2       HT       0.417000       1.00800           0
     41731 TIP3     779      TIP3     OH2      OT      -0.834000       15.9994           0
     41732 TIP3     779      TIP3     H1       HT       0.417000       1.00800           0
     41733 TIP3     779      TIP3     H2       HT       0.417000       1.00800           0
     41734 TIP3     780      TIP3     OH2      OT      -0.834000       15.9994           0
     41735 TIP3     780      TIP3     H1       HT       0.417000       1.00800           0
     41736 TIP3     780      TIP3     H2       HT       0.417000       1.00800           0
     41737 TIP3     781      TIP3     OH2      OT      -0.834000       15.9994           0
     41738 TIP3     781      TIP3     H1       HT       0.417000       1.00800           0
     41739 TIP3     781      TIP3     H2       HT       0.417000       1.00800           0
     41740 TIP3     782      TIP3     OH2      OT      -0.834000       15.9994           0
     41741 TIP3     782      TIP3     H1       HT       0.417000       1.00800           0
     41742 TIP3     782      TIP3     H2       HT       0.417000       1.00800           0
     41743 TIP3     783      TIP3     OH2      OT      -0.834000       15.9994           0
     41744 TIP3     783      TIP3     H1       HT       0.417000       1.00800           0
     41745 TIP3     783      TIP3     H2       HT       0.417000       1.00800           0
     41746 TIP3     784      TIP3     OH2      OT      -0.834000       15.9994           0
     41747 TIP3     784      TIP3     H1       HT       0.417000       1.00800           0
     41748 TIP3     784      TIP3     H2       HT       0.417000       1.00800           0
     41749 TIP3     785      TIP3     OH2      OT      -0.834000       15.9994           0
     41750 TIP3     785      TIP3     H1       HT       0.417000       1.00800           0
     41751 TIP3     785      TIP3     H2       HT       0.417000       1.00800           0
     41752 TIP3     786      TIP3     OH2      OT      -0.834000       15.9994           0
     41753 TIP3     786      TIP3     H1       HT       0.417000       1.00800           0
     41754 TIP3     786      TIP3     H2       HT       0.417000       1.00800           0
     41755 TIP3     787      TIP3     OH2      OT      -0.834000       15.9994           0
     41756 TIP3     787      TIP3     H1       HT       0.417000       1.00800           0
     41757 TIP3     787      TIP3     H2       HT       0.417000       1.00800           0
     41758 TIP3     788      TIP3     OH2      OT      -0.834000       15.9994           0
     41759 TIP3     788      TIP3     H1       HT       0.417000       1.00800           0
     41760 TIP3     788      TIP3     H2       HT       0.417000       1.00800           0
     41761 TIP3     789      TIP3     OH2      OT      -0.834000       15.9994           0
     41762 TIP3     789      TIP3     H1       HT       0.417000       1.00800           0
     41763 TIP3     789      TIP3     H2       HT       0.417000       1.00800           0
     41764 TIP3     790      TIP3     OH2      OT      -0.834000       15.9994           0
     41765 TIP3     790      TIP3     H1       HT       0.417000       1.00800           0
     41766 TIP3     790      TIP3     H2       HT       0.417000       1.00800           0
     41767 TIP3     791      TIP3     OH2      OT      -0.834000       15.9994           0
     41768 TIP3     791      TIP3     H1       HT       0.417000       1.00800           0
     41769 TIP3     791      TIP3     H2       HT       0.417000       1.00800           0
     41770 TIP3     792      TIP3     OH2      OT      -0.834000       15.9994           0
     41771 TIP3     792      TIP3     H1       HT       0.417000       1.00800           0
     41772 TIP3     792      TIP3     H2       HT       0.417000       1.00800           0
     41773 TIP3     793      TIP3     OH2      OT      -0.834000       15.9994           0
     41774 TIP3     793      TIP3     H1       HT       0.417000       1.00800           0
     41775 TIP3     793      TIP3     H2       HT       0.417000       1.00800           0
     41776 TIP3     794      TIP3     OH2      OT      -0.834000       15.9994           0
     41777 TIP3     794      TIP3     H1       HT       0.417000       1.00800           0
     41778 TIP3     794      TIP3     H2       HT       0.417000       1.00800           0
     41779 TIP3     795      TIP3     OH2      OT      -0.834000       15.9994           0
     41780 TIP3     795      TIP3     H1       HT       0.417000       1.00800           0
     41781 TIP3     795      TIP3     H2       HT       0.417000       1.00800           0
     41782 TIP3     796      TIP3     OH2      OT      -0.834000       15.9994           0
     41783 TIP3     796      TIP3     H1       HT       0.417000       1.00800           0
     41784 TIP3     796      TIP3     H2       HT       0.417000       1.00800           0
     41785 TIP3     797      TIP3     OH2      OT      -0.834000       15.9994           0
     41786 TIP3     797      TIP3     H1       HT       0.417000       1.00800           0
     41787 TIP3     797      TIP3     H2       HT       0.417000       1.00800           0
     41788 TIP3     798      TIP3     OH2      OT      -0.834000       15.9994           0
     41789 TIP3     798      TIP3     H1       HT       0.417000       1.00800           0
     41790 TIP3     798      TIP3     H2       HT       0.417000       1.00800           0
     41791 TIP3     799      TIP3     OH2      OT      -0.834000       15.9994           0
     41792 TIP3     799      TIP3     H1       HT       0.417000       1.00800           0
     41793 TIP3     799      TIP3     H2       HT       0.417000       1.00800           0
     41794 TIP3     800      TIP3     OH2      OT      -0.834000       15.9994           0
     41795 TIP3     800      TIP3     H1       HT       0.417000       1.00800           0
     41796 TIP3     800      TIP3     H2       HT       0.417000       1.00800           0
     41797 TIP3     801      TIP3     OH2      OT      -0.834000       15.9994           0
     41798 TIP3     801      TIP3     H1       HT       0.417000       1.00800           0
     41799 TIP3     801      TIP3     H2       HT       0.417000       1.00800           0
     41800 TIP3     802      TIP3     OH2      OT      -0.834000       15.9994           0
     41801 TIP3     802      TIP3     H1       HT       0.417000       1.00800           0
     41802 TIP3     802      TIP3     H2       HT       0.417000       1.00800           0
     41803 TIP3     803      TIP3     OH2      OT      -0.834000       15.9994           0
     41804 TIP3     803      TIP3     H1       HT       0.417000       1.00800           0
     41805 TIP3     803      TIP3     H2       HT       0.417000       1.00800           0
     41806 TIP3     804      TIP3     OH2      OT      -0.834000       15.9994           0
     41807 TIP3     804      TIP3     H1       HT       0.417000       1.00800           0
     41808 TIP3     804      TIP3     H2       HT       0.417000       1.00800           0
     41809 TIP3     805      TIP3     OH2      OT      -0.834000       15.9994           0
     41810 TIP3     805      TIP3     H1       HT       0.417000       1.00800           0
     41811 TIP3     805      TIP3     H2       HT       0.417000       1.00800           0
     41812 TIP3     806      TIP3     OH2      OT      -0.834000       15.9994           0
     41813 TIP3     806      TIP3     H1       HT       0.417000       1.00800           0
     41814 TIP3     806      TIP3     H2       HT       0.417000       1.00800           0
     41815 TIP3     807      TIP3     OH2      OT      -0.834000       15.9994           0
     41816 TIP3     807      TIP3     H1       HT       0.417000       1.00800           0
     41817 TIP3     807      TIP3     H2       HT       0.417000       1.00800           0
     41818 TIP3     808      TIP3     OH2      OT      -0.834000       15.9994           0
     41819 TIP3     808      TIP3     H1       HT       0.417000       1.00800           0
     41820 TIP3     808      TIP3     H2       HT       0.417000       1.00800           0
     41821 TIP3     809      TIP3     OH2      OT      -0.834000       15.9994           0
     41822 TIP3     809      TIP3     H1       HT       0.417000       1.00800           0
     41823 TIP3     809      TIP3     H2       HT       0.417000       1.00800           0
     41824 TIP3     810      TIP3     OH2      OT      -0.834000       15.9994           0
     41825 TIP3     810      TIP3     H1       HT       0.417000       1.00800           0
     41826 TIP3     810      TIP3     H2       HT       0.417000       1.00800           0
     41827 TIP3     811      TIP3     OH2      OT      -0.834000       15.9994           0
     41828 TIP3     811      TIP3     H1       HT       0.417000       1.00800           0
     41829 TIP3     811      TIP3     H2       HT       0.417000       1.00800           0
     41830 TIP3     812      TIP3     OH2      OT      -0.834000       15.9994           0
     41831 TIP3     812      TIP3     H1       HT       0.417000       1.00800           0
     41832 TIP3     812      TIP3     H2       HT       0.417000       1.00800           0
     41833 TIP3     813      TIP3     OH2      OT      -0.834000       15.9994           0
     41834 TIP3     813      TIP3     H1       HT       0.417000       1.00800           0
     41835 TIP3     813      TIP3     H2       HT       0.417000       1.00800           0
     41836 TIP3     814      TIP3     OH2      OT      -0.834000       15.9994           0
     41837 TIP3     814      TIP3     H1       HT       0.417000       1.00800           0
     41838 TIP3     814      TIP3     H2       HT       0.417000       1.00800           0
     41839 TIP3     815      TIP3     OH2      OT      -0.834000       15.9994           0
     41840 TIP3     815      TIP3     H1       HT       0.417000       1.00800           0
     41841 TIP3     815      TIP3     H2       HT       0.417000       1.00800           0
     41842 TIP3     816      TIP3     OH2      OT      -0.834000       15.9994           0
     41843 TIP3     816      TIP3     H1       HT       0.417000       1.00800           0
     41844 TIP3     816      TIP3     H2       HT       0.417000       1.00800           0
     41845 TIP3     817      TIP3     OH2      OT      -0.834000       15.9994           0
     41846 TIP3     817      TIP3     H1       HT       0.417000       1.00800           0
     41847 TIP3     817      TIP3     H2       HT       0.417000       1.00800           0
     41848 TIP3     818      TIP3     OH2      OT      -0.834000       15.9994           0
     41849 TIP3     818      TIP3     H1       HT       0.417000       1.00800           0
     41850 TIP3     818      TIP3     H2       HT       0.417000       1.00800           0
     41851 TIP3     819      TIP3     OH2      OT      -0.834000       15.9994           0
     41852 TIP3     819      TIP3     H1       HT       0.417000       1.00800           0
     41853 TIP3     819      TIP3     H2       HT       0.417000       1.00800           0
     41854 TIP3     820      TIP3     OH2      OT      -0.834000       15.9994           0
     41855 TIP3     820      TIP3     H1       HT       0.417000       1.00800           0
     41856 TIP3     820      TIP3     H2       HT       0.417000       1.00800           0
     41857 TIP3     821      TIP3     OH2      OT      -0.834000       15.9994           0
     41858 TIP3     821      TIP3     H1       HT       0.417000       1.00800           0
     41859 TIP3     821      TIP3     H2       HT       0.417000       1.00800           0
     41860 TIP3     822      TIP3     OH2      OT      -0.834000       15.9994           0
     41861 TIP3     822      TIP3     H1       HT       0.417000       1.00800           0
     41862 TIP3     822      TIP3     H2       HT       0.417000       1.00800           0
     41863 TIP3     823      TIP3     OH2      OT      -0.834000       15.9994           0
     41864 TIP3     823      TIP3     H1       HT       0.417000       1.00800           0
     41865 TIP3     823      TIP3     H2       HT       0.417000       1.00800           0
     41866 TIP3     824      TIP3     OH2      OT      -0.834000       15.9994           0
     41867 TIP3     824      TIP3     H1       HT       0.417000       1.00800           0
     41868 TIP3     824      TIP3     H2       HT       0.417000       1.00800           0
     41869 TIP3     825      TIP3     OH2      OT      -0.834000       15.9994           0
     41870 TIP3     825      TIP3     H1       HT       0.417000       1.00800           0
     41871 TIP3     825      TIP3     H2       HT       0.417000       1.00800           0
     41872 TIP3     826      TIP3     OH2      OT      -0.834000       15.9994           0
     41873 TIP3     826      TIP3     H1       HT       0.417000       1.00800           0
     41874 TIP3     826      TIP3     H2       HT       0.417000       1.00800           0
     41875 TIP3     827      TIP3     OH2      OT      -0.834000       15.9994           0
     41876 TIP3     827      TIP3     H1       HT       0.417000       1.00800           0
     41877 TIP3     827      TIP3     H2       HT       0.417000       1.00800           0
     41878 TIP3     828      TIP3     OH2      OT      -0.834000       15.9994           0
     41879 TIP3     828      TIP3     H1       HT       0.417000       1.00800           0
     41880 TIP3     828      TIP3     H2       HT       0.417000       1.00800           0
     41881 TIP3     829      TIP3     OH2      OT      -0.834000       15.9994           0
     41882 TIP3     829      TIP3     H1       HT       0.417000       1.00800           0
     41883 TIP3     829      TIP3     H2       HT       0.417000       1.00800           0
     41884 TIP3     830      TIP3     OH2      OT      -0.834000       15.9994           0
     41885 TIP3     830      TIP3     H1       HT       0.417000       1.00800           0
     41886 TIP3     830      TIP3     H2       HT       0.417000       1.00800           0
     41887 TIP3     831      TIP3     OH2      OT      -0.834000       15.9994           0
     41888 TIP3     831      TIP3     H1       HT       0.417000       1.00800           0
     41889 TIP3     831      TIP3     H2       HT       0.417000       1.00800           0
     41890 TIP3     832      TIP3     OH2      OT      -0.834000       15.9994           0
     41891 TIP3     832      TIP3     H1       HT       0.417000       1.00800           0
     41892 TIP3     832      TIP3     H2       HT       0.417000       1.00800           0
     41893 TIP3     833      TIP3     OH2      OT      -0.834000       15.9994           0
     41894 TIP3     833      TIP3     H1       HT       0.417000       1.00800           0
     41895 TIP3     833      TIP3     H2       HT       0.417000       1.00800           0
     41896 TIP3     834      TIP3     OH2      OT      -0.834000       15.9994           0
     41897 TIP3     834      TIP3     H1       HT       0.417000       1.00800           0
     41898 TIP3     834      TIP3     H2       HT       0.417000       1.00800           0
     41899 TIP3     835      TIP3     OH2      OT      -0.834000       15.9994           0
     41900 TIP3     835      TIP3     H1       HT       0.417000       1.00800           0
     41901 TIP3     835      TIP3     H2       HT       0.417000       1.00800           0
     41902 TIP3     836      TIP3     OH2      OT      -0.834000       15.9994           0
     41903 TIP3     836      TIP3     H1       HT       0.417000       1.00800           0
     41904 TIP3     836      TIP3     H2       HT       0.417000       1.00800           0
     41905 TIP3     837      TIP3     OH2      OT      -0.834000       15.9994           0
     41906 TIP3     837      TIP3     H1       HT       0.417000       1.00800           0
     41907 TIP3     837      TIP3     H2       HT       0.417000       1.00800           0
     41908 TIP3     838      TIP3     OH2      OT      -0.834000       15.9994           0
     41909 TIP3     838      TIP3     H1       HT       0.417000       1.00800           0
     41910 TIP3     838      TIP3     H2       HT       0.417000       1.00800           0
     41911 TIP3     839      TIP3     OH2      OT      -0.834000       15.9994           0
     41912 TIP3     839      TIP3     H1       HT       0.417000       1.00800           0
     41913 TIP3     839      TIP3     H2       HT       0.417000       1.00800           0
     41914 TIP3     840      TIP3     OH2      OT      -0.834000       15.9994           0
     41915 TIP3     840      TIP3     H1       HT       0.417000       1.00800           0
     41916 TIP3     840      TIP3     H2       HT       0.417000       1.00800           0
     41917 TIP3     841      TIP3     OH2      OT      -0.834000       15.9994           0
     41918 TIP3     841      TIP3     H1       HT       0.417000       1.00800           0
     41919 TIP3     841      TIP3     H2       HT       0.417000       1.00800           0
     41920 TIP3     842      TIP3     OH2      OT      -0.834000       15.9994           0
     41921 TIP3     842      TIP3     H1       HT       0.417000       1.00800           0
     41922 TIP3     842      TIP3     H2       HT       0.417000       1.00800           0
     41923 TIP3     843      TIP3     OH2      OT      -0.834000       15.9994           0
     41924 TIP3     843      TIP3     H1       HT       0.417000       1.00800           0
     41925 TIP3     843      TIP3     H2       HT       0.417000       1.00800           0
     41926 TIP3     844      TIP3     OH2      OT      -0.834000       15.9994           0
     41927 TIP3     844      TIP3     H1       HT       0.417000       1.00800           0
     41928 TIP3     844      TIP3     H2       HT       0.417000       1.00800           0
     41929 TIP3     845      TIP3     OH2      OT      -0.834000       15.9994           0
     41930 TIP3     845      TIP3     H1       HT       0.417000       1.00800           0
     41931 TIP3     845      TIP3     H2       HT       0.417000       1.00800           0
     41932 TIP3     846      TIP3     OH2      OT      -0.834000       15.9994           0
     41933 TIP3     846      TIP3     H1       HT       0.417000       1.00800           0
     41934 TIP3     846      TIP3     H2       HT       0.417000       1.00800           0
     41935 TIP3     847      TIP3     OH2      OT      -0.834000       15.9994           0
     41936 TIP3     847      TIP3     H1       HT       0.417000       1.00800           0
     41937 TIP3     847      TIP3     H2       HT       0.417000       1.00800           0
     41938 TIP3     848      TIP3     OH2      OT      -0.834000       15.9994           0
     41939 TIP3     848      TIP3     H1       HT       0.417000       1.00800           0
     41940 TIP3     848      TIP3     H2       HT       0.417000       1.00800           0
     41941 TIP3     849      TIP3     OH2      OT      -0.834000       15.9994           0
     41942 TIP3     849      TIP3     H1       HT       0.417000       1.00800           0
     41943 TIP3     849      TIP3     H2       HT       0.417000       1.00800           0
     41944 TIP3     850      TIP3     OH2      OT      -0.834000       15.9994           0
     41945 TIP3     850      TIP3     H1       HT       0.417000       1.00800           0
     41946 TIP3     850      TIP3     H2       HT       0.417000       1.00800           0
     41947 TIP3     851      TIP3     OH2      OT      -0.834000       15.9994           0
     41948 TIP3     851      TIP3     H1       HT       0.417000       1.00800           0
     41949 TIP3     851      TIP3     H2       HT       0.417000       1.00800           0
     41950 TIP3     852      TIP3     OH2      OT      -0.834000       15.9994           0
     41951 TIP3     852      TIP3     H1       HT       0.417000       1.00800           0
     41952 TIP3     852      TIP3     H2       HT       0.417000       1.00800           0
     41953 TIP3     853      TIP3     OH2      OT      -0.834000       15.9994           0
     41954 TIP3     853      TIP3     H1       HT       0.417000       1.00800           0
     41955 TIP3     853      TIP3     H2       HT       0.417000       1.00800           0
     41956 TIP3     854      TIP3     OH2      OT      -0.834000       15.9994           0
     41957 TIP3     854      TIP3     H1       HT       0.417000       1.00800           0
     41958 TIP3     854      TIP3     H2       HT       0.417000       1.00800           0
     41959 TIP3     855      TIP3     OH2      OT      -0.834000       15.9994           0
     41960 TIP3     855      TIP3     H1       HT       0.417000       1.00800           0
     41961 TIP3     855      TIP3     H2       HT       0.417000       1.00800           0
     41962 TIP3     856      TIP3     OH2      OT      -0.834000       15.9994           0
     41963 TIP3     856      TIP3     H1       HT       0.417000       1.00800           0
     41964 TIP3     856      TIP3     H2       HT       0.417000       1.00800           0
     41965 TIP3     857      TIP3     OH2      OT      -0.834000       15.9994           0
     41966 TIP3     857      TIP3     H1       HT       0.417000       1.00800           0
     41967 TIP3     857      TIP3     H2       HT       0.417000       1.00800           0
     41968 TIP3     858      TIP3     OH2      OT      -0.834000       15.9994           0
     41969 TIP3     858      TIP3     H1       HT       0.417000       1.00800           0
     41970 TIP3     858      TIP3     H2       HT       0.417000       1.00800           0
     41971 TIP3     859      TIP3     OH2      OT      -0.834000       15.9994           0
     41972 TIP3     859      TIP3     H1       HT       0.417000       1.00800           0
     41973 TIP3     859      TIP3     H2       HT       0.417000       1.00800           0
     41974 TIP3     860      TIP3     OH2      OT      -0.834000       15.9994           0
     41975 TIP3     860      TIP3     H1       HT       0.417000       1.00800           0
     41976 TIP3     860      TIP3     H2       HT       0.417000       1.00800           0
     41977 TIP3     861      TIP3     OH2      OT      -0.834000       15.9994           0
     41978 TIP3     861      TIP3     H1       HT       0.417000       1.00800           0
     41979 TIP3     861      TIP3     H2       HT       0.417000       1.00800           0
     41980 TIP3     862      TIP3     OH2      OT      -0.834000       15.9994           0
     41981 TIP3     862      TIP3     H1       HT       0.417000       1.00800           0
     41982 TIP3     862      TIP3     H2       HT       0.417000       1.00800           0
     41983 TIP3     863      TIP3     OH2      OT      -0.834000       15.9994           0
     41984 TIP3     863      TIP3     H1       HT       0.417000       1.00800           0
     41985 TIP3     863      TIP3     H2       HT       0.417000       1.00800           0
     41986 TIP3     864      TIP3     OH2      OT      -0.834000       15.9994           0
     41987 TIP3     864      TIP3     H1       HT       0.417000       1.00800           0
     41988 TIP3     864      TIP3     H2       HT       0.417000       1.00800           0
     41989 TIP3     865      TIP3     OH2      OT      -0.834000       15.9994           0
     41990 TIP3     865      TIP3     H1       HT       0.417000       1.00800           0
     41991 TIP3     865      TIP3     H2       HT       0.417000       1.00800           0
     41992 TIP3     866      TIP3     OH2      OT      -0.834000       15.9994           0
     41993 TIP3     866      TIP3     H1       HT       0.417000       1.00800           0
     41994 TIP3     866      TIP3     H2       HT       0.417000       1.00800           0
     41995 TIP3     867      TIP3     OH2      OT      -0.834000       15.9994           0
     41996 TIP3     867      TIP3     H1       HT       0.417000       1.00800           0
     41997 TIP3     867      TIP3     H2       HT       0.417000       1.00800           0
     41998 TIP3     868      TIP3     OH2      OT      -0.834000       15.9994           0
     41999 TIP3     868      TIP3     H1       HT       0.417000       1.00800           0
     42000 TIP3     868      TIP3     H2       HT       0.417000       1.00800           0
     42001 TIP3     869      TIP3     OH2      OT      -0.834000       15.9994           0
     42002 TIP3     869      TIP3     H1       HT       0.417000       1.00800           0
     42003 TIP3     869      TIP3     H2       HT       0.417000       1.00800           0
     42004 TIP3     870      TIP3     OH2      OT      -0.834000       15.9994           0
     42005 TIP3     870      TIP3     H1       HT       0.417000       1.00800           0
     42006 TIP3     870      TIP3     H2       HT       0.417000       1.00800           0
     42007 TIP3     871      TIP3     OH2      OT      -0.834000       15.9994           0
     42008 TIP3     871      TIP3     H1       HT       0.417000       1.00800           0
     42009 TIP3     871      TIP3     H2       HT       0.417000       1.00800           0
     42010 TIP3     872      TIP3     OH2      OT      -0.834000       15.9994           0
     42011 TIP3     872      TIP3     H1       HT       0.417000       1.00800           0
     42012 TIP3     872      TIP3     H2       HT       0.417000       1.00800           0
     42013 TIP3     873      TIP3     OH2      OT      -0.834000       15.9994           0
     42014 TIP3     873      TIP3     H1       HT       0.417000       1.00800           0
     42015 TIP3     873      TIP3     H2       HT       0.417000       1.00800           0
     42016 TIP3     874      TIP3     OH2      OT      -0.834000       15.9994           0
     42017 TIP3     874      TIP3     H1       HT       0.417000       1.00800           0
     42018 TIP3     874      TIP3     H2       HT       0.417000       1.00800           0
     42019 TIP3     875      TIP3     OH2      OT      -0.834000       15.9994           0
     42020 TIP3     875      TIP3     H1       HT       0.417000       1.00800           0
     42021 TIP3     875      TIP3     H2       HT       0.417000       1.00800           0
     42022 TIP3     876      TIP3     OH2      OT      -0.834000       15.9994           0
     42023 TIP3     876      TIP3     H1       HT       0.417000       1.00800           0
     42024 TIP3     876      TIP3     H2       HT       0.417000       1.00800           0
     42025 TIP3     877      TIP3     OH2      OT      -0.834000       15.9994           0
     42026 TIP3     877      TIP3     H1       HT       0.417000       1.00800           0
     42027 TIP3     877      TIP3     H2       HT       0.417000       1.00800           0
     42028 TIP3     878      TIP3     OH2      OT      -0.834000       15.9994           0
     42029 TIP3     878      TIP3     H1       HT       0.417000       1.00800           0
     42030 TIP3     878      TIP3     H2       HT       0.417000       1.00800           0
     42031 TIP3     879      TIP3     OH2      OT      -0.834000       15.9994           0
     42032 TIP3     879      TIP3     H1       HT       0.417000       1.00800           0
     42033 TIP3     879      TIP3     H2       HT       0.417000       1.00800           0
     42034 TIP3     880      TIP3     OH2      OT      -0.834000       15.9994           0
     42035 TIP3     880      TIP3     H1       HT       0.417000       1.00800           0
     42036 TIP3     880      TIP3     H2       HT       0.417000       1.00800           0
     42037 TIP3     881      TIP3     OH2      OT      -0.834000       15.9994           0
     42038 TIP3     881      TIP3     H1       HT       0.417000       1.00800           0
     42039 TIP3     881      TIP3     H2       HT       0.417000       1.00800           0
     42040 TIP3     882      TIP3     OH2      OT      -0.834000       15.9994           0
     42041 TIP3     882      TIP3     H1       HT       0.417000       1.00800           0
     42042 TIP3     882      TIP3     H2       HT       0.417000       1.00800           0
     42043 TIP3     883      TIP3     OH2      OT      -0.834000       15.9994           0
     42044 TIP3     883      TIP3     H1       HT       0.417000       1.00800           0
     42045 TIP3     883      TIP3     H2       HT       0.417000       1.00800           0
     42046 TIP3     884      TIP3     OH2      OT      -0.834000       15.9994           0
     42047 TIP3     884      TIP3     H1       HT       0.417000       1.00800           0
     42048 TIP3     884      TIP3     H2       HT       0.417000       1.00800           0
     42049 TIP3     885      TIP3     OH2      OT      -0.834000       15.9994           0
     42050 TIP3     885      TIP3     H1       HT       0.417000       1.00800           0
     42051 TIP3     885      TIP3     H2       HT       0.417000       1.00800           0
     42052 TIP3     886      TIP3     OH2      OT      -0.834000       15.9994           0
     42053 TIP3     886      TIP3     H1       HT       0.417000       1.00800           0
     42054 TIP3     886      TIP3     H2       HT       0.417000       1.00800           0
     42055 TIP3     887      TIP3     OH2      OT      -0.834000       15.9994           0
     42056 TIP3     887      TIP3     H1       HT       0.417000       1.00800           0
     42057 TIP3     887      TIP3     H2       HT       0.417000       1.00800           0
     42058 TIP3     888      TIP3     OH2      OT      -0.834000       15.9994           0
     42059 TIP3     888      TIP3     H1       HT       0.417000       1.00800           0
     42060 TIP3     888      TIP3     H2       HT       0.417000       1.00800           0
     42061 TIP3     889      TIP3     OH2      OT      -0.834000       15.9994           0
     42062 TIP3     889      TIP3     H1       HT       0.417000       1.00800           0
     42063 TIP3     889      TIP3     H2       HT       0.417000       1.00800           0
     42064 TIP3     890      TIP3     OH2      OT      -0.834000       15.9994           0
     42065 TIP3     890      TIP3     H1       HT       0.417000       1.00800           0
     42066 TIP3     890      TIP3     H2       HT       0.417000       1.00800           0
     42067 TIP3     891      TIP3     OH2      OT      -0.834000       15.9994           0
     42068 TIP3     891      TIP3     H1       HT       0.417000       1.00800           0
     42069 TIP3     891      TIP3     H2       HT       0.417000       1.00800           0
     42070 TIP3     892      TIP3     OH2      OT      -0.834000       15.9994           0
     42071 TIP3     892      TIP3     H1       HT       0.417000       1.00800           0
     42072 TIP3     892      TIP3     H2       HT       0.417000       1.00800           0
     42073 TIP3     893      TIP3     OH2      OT      -0.834000       15.9994           0
     42074 TIP3     893      TIP3     H1       HT       0.417000       1.00800           0
     42075 TIP3     893      TIP3     H2       HT       0.417000       1.00800           0
     42076 TIP3     894      TIP3     OH2      OT      -0.834000       15.9994           0
     42077 TIP3     894      TIP3     H1       HT       0.417000       1.00800           0
     42078 TIP3     894      TIP3     H2       HT       0.417000       1.00800           0
     42079 TIP3     895      TIP3     OH2      OT      -0.834000       15.9994           0
     42080 TIP3     895      TIP3     H1       HT       0.417000       1.00800           0
     42081 TIP3     895      TIP3     H2       HT       0.417000       1.00800           0
     42082 TIP3     896      TIP3     OH2      OT      -0.834000       15.9994           0
     42083 TIP3     896      TIP3     H1       HT       0.417000       1.00800           0
     42084 TIP3     896      TIP3     H2       HT       0.417000       1.00800           0
     42085 TIP3     897      TIP3     OH2      OT      -0.834000       15.9994           0
     42086 TIP3     897      TIP3     H1       HT       0.417000       1.00800           0
     42087 TIP3     897      TIP3     H2       HT       0.417000       1.00800           0
     42088 TIP3     898      TIP3     OH2      OT      -0.834000       15.9994           0
     42089 TIP3     898      TIP3     H1       HT       0.417000       1.00800           0
     42090 TIP3     898      TIP3     H2       HT       0.417000       1.00800           0
     42091 TIP3     899      TIP3     OH2      OT      -0.834000       15.9994           0
     42092 TIP3     899      TIP3     H1       HT       0.417000       1.00800           0
     42093 TIP3     899      TIP3     H2       HT       0.417000       1.00800           0
     42094 TIP3     900      TIP3     OH2      OT      -0.834000       15.9994           0
     42095 TIP3     900      TIP3     H1       HT       0.417000       1.00800           0
     42096 TIP3     900      TIP3     H2       HT       0.417000       1.00800           0
     42097 TIP3     901      TIP3     OH2      OT      -0.834000       15.9994           0
     42098 TIP3     901      TIP3     H1       HT       0.417000       1.00800           0
     42099 TIP3     901      TIP3     H2       HT       0.417000       1.00800           0
     42100 TIP3     902      TIP3     OH2      OT      -0.834000       15.9994           0
     42101 TIP3     902      TIP3     H1       HT       0.417000       1.00800           0
     42102 TIP3     902      TIP3     H2       HT       0.417000       1.00800           0
     42103 TIP3     903      TIP3     OH2      OT      -0.834000       15.9994           0
     42104 TIP3     903      TIP3     H1       HT       0.417000       1.00800           0
     42105 TIP3     903      TIP3     H2       HT       0.417000       1.00800           0
     42106 TIP3     904      TIP3     OH2      OT      -0.834000       15.9994           0
     42107 TIP3     904      TIP3     H1       HT       0.417000       1.00800           0
     42108 TIP3     904      TIP3     H2       HT       0.417000       1.00800           0
     42109 TIP3     905      TIP3     OH2      OT      -0.834000       15.9994           0
     42110 TIP3     905      TIP3     H1       HT       0.417000       1.00800           0
     42111 TIP3     905      TIP3     H2       HT       0.417000       1.00800           0
     42112 TIP3     906      TIP3     OH2      OT      -0.834000       15.9994           0
     42113 TIP3     906      TIP3     H1       HT       0.417000       1.00800           0
     42114 TIP3     906      TIP3     H2       HT       0.417000       1.00800           0
     42115 TIP3     907      TIP3     OH2      OT      -0.834000       15.9994           0
     42116 TIP3     907      TIP3     H1       HT       0.417000       1.00800           0
     42117 TIP3     907      TIP3     H2       HT       0.417000       1.00800           0
     42118 TIP3     908      TIP3     OH2      OT      -0.834000       15.9994           0
     42119 TIP3     908      TIP3     H1       HT       0.417000       1.00800           0
     42120 TIP3     908      TIP3     H2       HT       0.417000       1.00800           0
     42121 TIP3     909      TIP3     OH2      OT      -0.834000       15.9994           0
     42122 TIP3     909      TIP3     H1       HT       0.417000       1.00800           0
     42123 TIP3     909      TIP3     H2       HT       0.417000       1.00800           0
     42124 TIP3     910      TIP3     OH2      OT      -0.834000       15.9994           0
     42125 TIP3     910      TIP3     H1       HT       0.417000       1.00800           0
     42126 TIP3     910      TIP3     H2       HT       0.417000       1.00800           0
     42127 TIP3     911      TIP3     OH2      OT      -0.834000       15.9994           0
     42128 TIP3     911      TIP3     H1       HT       0.417000       1.00800           0
     42129 TIP3     911      TIP3     H2       HT       0.417000       1.00800           0
     42130 TIP3     912      TIP3     OH2      OT      -0.834000       15.9994           0
     42131 TIP3     912      TIP3     H1       HT       0.417000       1.00800           0
     42132 TIP3     912      TIP3     H2       HT       0.417000       1.00800           0
     42133 TIP3     913      TIP3     OH2      OT      -0.834000       15.9994           0
     42134 TIP3     913      TIP3     H1       HT       0.417000       1.00800           0
     42135 TIP3     913      TIP3     H2       HT       0.417000       1.00800           0
     42136 TIP3     914      TIP3     OH2      OT      -0.834000       15.9994           0
     42137 TIP3     914      TIP3     H1       HT       0.417000       1.00800           0
     42138 TIP3     914      TIP3     H2       HT       0.417000       1.00800           0
     42139 TIP3     915      TIP3     OH2      OT      -0.834000       15.9994           0
     42140 TIP3     915      TIP3     H1       HT       0.417000       1.00800           0
     42141 TIP3     915      TIP3     H2       HT       0.417000       1.00800           0
     42142 TIP3     916      TIP3     OH2      OT      -0.834000       15.9994           0
     42143 TIP3     916      TIP3     H1       HT       0.417000       1.00800           0
     42144 TIP3     916      TIP3     H2       HT       0.417000       1.00800           0
     42145 TIP3     917      TIP3     OH2      OT      -0.834000       15.9994           0
     42146 TIP3     917      TIP3     H1       HT       0.417000       1.00800           0
     42147 TIP3     917      TIP3     H2       HT       0.417000       1.00800           0
     42148 TIP3     918      TIP3     OH2      OT      -0.834000       15.9994           0
     42149 TIP3     918      TIP3     H1       HT       0.417000       1.00800           0
     42150 TIP3     918      TIP3     H2       HT       0.417000       1.00800           0
     42151 TIP3     919      TIP3     OH2      OT      -0.834000       15.9994           0
     42152 TIP3     919      TIP3     H1       HT       0.417000       1.00800           0
     42153 TIP3     919      TIP3     H2       HT       0.417000       1.00800           0
     42154 TIP3     920      TIP3     OH2      OT      -0.834000       15.9994           0
     42155 TIP3     920      TIP3     H1       HT       0.417000       1.00800           0
     42156 TIP3     920      TIP3     H2       HT       0.417000       1.00800           0
     42157 TIP3     921      TIP3     OH2      OT      -0.834000       15.9994           0
     42158 TIP3     921      TIP3     H1       HT       0.417000       1.00800           0
     42159 TIP3     921      TIP3     H2       HT       0.417000       1.00800           0
     42160 TIP3     922      TIP3     OH2      OT      -0.834000       15.9994           0
     42161 TIP3     922      TIP3     H1       HT       0.417000       1.00800           0
     42162 TIP3     922      TIP3     H2       HT       0.417000       1.00800           0
     42163 TIP3     923      TIP3     OH2      OT      -0.834000       15.9994           0
     42164 TIP3     923      TIP3     H1       HT       0.417000       1.00800           0
     42165 TIP3     923      TIP3     H2       HT       0.417000       1.00800           0
     42166 TIP3     924      TIP3     OH2      OT      -0.834000       15.9994           0
     42167 TIP3     924      TIP3     H1       HT       0.417000       1.00800           0
     42168 TIP3     924      TIP3     H2       HT       0.417000       1.00800           0
     42169 TIP3     925      TIP3     OH2      OT      -0.834000       15.9994           0
     42170 TIP3     925      TIP3     H1       HT       0.417000       1.00800           0
     42171 TIP3     925      TIP3     H2       HT       0.417000       1.00800           0
     42172 TIP3     926      TIP3     OH2      OT      -0.834000       15.9994           0
     42173 TIP3     926      TIP3     H1       HT       0.417000       1.00800           0
     42174 TIP3     926      TIP3     H2       HT       0.417000       1.00800           0
     42175 TIP3     927      TIP3     OH2      OT      -0.834000       15.9994           0
     42176 TIP3     927      TIP3     H1       HT       0.417000       1.00800           0
     42177 TIP3     927      TIP3     H2       HT       0.417000       1.00800           0
     42178 TIP3     928      TIP3     OH2      OT      -0.834000       15.9994           0
     42179 TIP3     928      TIP3     H1       HT       0.417000       1.00800           0
     42180 TIP3     928      TIP3     H2       HT       0.417000       1.00800           0
     42181 TIP3     929      TIP3     OH2      OT      -0.834000       15.9994           0
     42182 TIP3     929      TIP3     H1       HT       0.417000       1.00800           0
     42183 TIP3     929      TIP3     H2       HT       0.417000       1.00800           0
     42184 TIP3     930      TIP3     OH2      OT      -0.834000       15.9994           0
     42185 TIP3     930      TIP3     H1       HT       0.417000       1.00800           0
     42186 TIP3     930      TIP3     H2       HT       0.417000       1.00800           0
     42187 TIP3     931      TIP3     OH2      OT      -0.834000       15.9994           0
     42188 TIP3     931      TIP3     H1       HT       0.417000       1.00800           0
     42189 TIP3     931      TIP3     H2       HT       0.417000       1.00800           0
     42190 TIP3     932      TIP3     OH2      OT      -0.834000       15.9994           0
     42191 TIP3     932      TIP3     H1       HT       0.417000       1.00800           0
     42192 TIP3     932      TIP3     H2       HT       0.417000       1.00800           0
     42193 TIP3     933      TIP3     OH2      OT      -0.834000       15.9994           0
     42194 TIP3     933      TIP3     H1       HT       0.417000       1.00800           0
     42195 TIP3     933      TIP3     H2       HT       0.417000       1.00800           0
     42196 TIP3     934      TIP3     OH2      OT      -0.834000       15.9994           0
     42197 TIP3     934      TIP3     H1       HT       0.417000       1.00800           0
     42198 TIP3     934      TIP3     H2       HT       0.417000       1.00800           0
     42199 TIP3     935      TIP3     OH2      OT      -0.834000       15.9994           0
     42200 TIP3     935      TIP3     H1       HT       0.417000       1.00800           0
     42201 TIP3     935      TIP3     H2       HT       0.417000       1.00800           0
     42202 TIP3     936      TIP3     OH2      OT      -0.834000       15.9994           0
     42203 TIP3     936      TIP3     H1       HT       0.417000       1.00800           0
     42204 TIP3     936      TIP3     H2       HT       0.417000       1.00800           0
     42205 TIP3     937      TIP3     OH2      OT      -0.834000       15.9994           0
     42206 TIP3     937      TIP3     H1       HT       0.417000       1.00800           0
     42207 TIP3     937      TIP3     H2       HT       0.417000       1.00800           0
     42208 TIP3     938      TIP3     OH2      OT      -0.834000       15.9994           0
     42209 TIP3     938      TIP3     H1       HT       0.417000       1.00800           0
     42210 TIP3     938      TIP3     H2       HT       0.417000       1.00800           0
     42211 TIP3     939      TIP3     OH2      OT      -0.834000       15.9994           0
     42212 TIP3     939      TIP3     H1       HT       0.417000       1.00800           0
     42213 TIP3     939      TIP3     H2       HT       0.417000       1.00800           0
     42214 TIP3     940      TIP3     OH2      OT      -0.834000       15.9994           0
     42215 TIP3     940      TIP3     H1       HT       0.417000       1.00800           0
     42216 TIP3     940      TIP3     H2       HT       0.417000       1.00800           0
     42217 TIP3     941      TIP3     OH2      OT      -0.834000       15.9994           0
     42218 TIP3     941      TIP3     H1       HT       0.417000       1.00800           0
     42219 TIP3     941      TIP3     H2       HT       0.417000       1.00800           0
     42220 TIP3     942      TIP3     OH2      OT      -0.834000       15.9994           0
     42221 TIP3     942      TIP3     H1       HT       0.417000       1.00800           0
     42222 TIP3     942      TIP3     H2       HT       0.417000       1.00800           0
     42223 TIP3     943      TIP3     OH2      OT      -0.834000       15.9994           0
     42224 TIP3     943      TIP3     H1       HT       0.417000       1.00800           0
     42225 TIP3     943      TIP3     H2       HT       0.417000       1.00800           0
     42226 TIP3     944      TIP3     OH2      OT      -0.834000       15.9994           0
     42227 TIP3     944      TIP3     H1       HT       0.417000       1.00800           0
     42228 TIP3     944      TIP3     H2       HT       0.417000       1.00800           0
     42229 TIP3     945      TIP3     OH2      OT      -0.834000       15.9994           0
     42230 TIP3     945      TIP3     H1       HT       0.417000       1.00800           0
     42231 TIP3     945      TIP3     H2       HT       0.417000       1.00800           0
     42232 TIP3     946      TIP3     OH2      OT      -0.834000       15.9994           0
     42233 TIP3     946      TIP3     H1       HT       0.417000       1.00800           0
     42234 TIP3     946      TIP3     H2       HT       0.417000       1.00800           0
     42235 TIP3     947      TIP3     OH2      OT      -0.834000       15.9994           0
     42236 TIP3     947      TIP3     H1       HT       0.417000       1.00800           0
     42237 TIP3     947      TIP3     H2       HT       0.417000       1.00800           0
     42238 TIP3     948      TIP3     OH2      OT      -0.834000       15.9994           0
     42239 TIP3     948      TIP3     H1       HT       0.417000       1.00800           0
     42240 TIP3     948      TIP3     H2       HT       0.417000       1.00800           0
     42241 TIP3     949      TIP3     OH2      OT      -0.834000       15.9994           0
     42242 TIP3     949      TIP3     H1       HT       0.417000       1.00800           0
     42243 TIP3     949      TIP3     H2       HT       0.417000       1.00800           0
     42244 TIP3     950      TIP3     OH2      OT      -0.834000       15.9994           0
     42245 TIP3     950      TIP3     H1       HT       0.417000       1.00800           0
     42246 TIP3     950      TIP3     H2       HT       0.417000       1.00800           0
     42247 TIP3     951      TIP3     OH2      OT      -0.834000       15.9994           0
     42248 TIP3     951      TIP3     H1       HT       0.417000       1.00800           0
     42249 TIP3     951      TIP3     H2       HT       0.417000       1.00800           0
     42250 TIP3     952      TIP3     OH2      OT      -0.834000       15.9994           0
     42251 TIP3     952      TIP3     H1       HT       0.417000       1.00800           0
     42252 TIP3     952      TIP3     H2       HT       0.417000       1.00800           0
     42253 TIP3     953      TIP3     OH2      OT      -0.834000       15.9994           0
     42254 TIP3     953      TIP3     H1       HT       0.417000       1.00800           0
     42255 TIP3     953      TIP3     H2       HT       0.417000       1.00800           0
     42256 TIP3     954      TIP3     OH2      OT      -0.834000       15.9994           0
     42257 TIP3     954      TIP3     H1       HT       0.417000       1.00800           0
     42258 TIP3     954      TIP3     H2       HT       0.417000       1.00800           0
     42259 TIP3     955      TIP3     OH2      OT      -0.834000       15.9994           0
     42260 TIP3     955      TIP3     H1       HT       0.417000       1.00800           0
     42261 TIP3     955      TIP3     H2       HT       0.417000       1.00800           0
     42262 TIP3     956      TIP3     OH2      OT      -0.834000       15.9994           0
     42263 TIP3     956      TIP3     H1       HT       0.417000       1.00800           0
     42264 TIP3     956      TIP3     H2       HT       0.417000       1.00800           0
     42265 TIP3     957      TIP3     OH2      OT      -0.834000       15.9994           0
     42266 TIP3     957      TIP3     H1       HT       0.417000       1.00800           0
     42267 TIP3     957      TIP3     H2       HT       0.417000       1.00800           0
     42268 TIP3     958      TIP3     OH2      OT      -0.834000       15.9994           0
     42269 TIP3     958      TIP3     H1       HT       0.417000       1.00800           0
     42270 TIP3     958      TIP3     H2       HT       0.417000       1.00800           0
     42271 TIP3     959      TIP3     OH2      OT      -0.834000       15.9994           0
     42272 TIP3     959      TIP3     H1       HT       0.417000       1.00800           0
     42273 TIP3     959      TIP3     H2       HT       0.417000       1.00800           0
     42274 TIP3     960      TIP3     OH2      OT      -0.834000       15.9994           0
     42275 TIP3     960      TIP3     H1       HT       0.417000       1.00800           0
     42276 TIP3     960      TIP3     H2       HT       0.417000       1.00800           0
     42277 TIP3     961      TIP3     OH2      OT      -0.834000       15.9994           0
     42278 TIP3     961      TIP3     H1       HT       0.417000       1.00800           0
     42279 TIP3     961      TIP3     H2       HT       0.417000       1.00800           0
     42280 TIP3     962      TIP3     OH2      OT      -0.834000       15.9994           0
     42281 TIP3     962      TIP3     H1       HT       0.417000       1.00800           0
     42282 TIP3     962      TIP3     H2       HT       0.417000       1.00800           0
     42283 TIP3     963      TIP3     OH2      OT      -0.834000       15.9994           0
     42284 TIP3     963      TIP3     H1       HT       0.417000       1.00800           0
     42285 TIP3     963      TIP3     H2       HT       0.417000       1.00800           0
     42286 TIP3     964      TIP3     OH2      OT      -0.834000       15.9994           0
     42287 TIP3     964      TIP3     H1       HT       0.417000       1.00800           0
     42288 TIP3     964      TIP3     H2       HT       0.417000       1.00800           0
     42289 TIP3     965      TIP3     OH2      OT      -0.834000       15.9994           0
     42290 TIP3     965      TIP3     H1       HT       0.417000       1.00800           0
     42291 TIP3     965      TIP3     H2       HT       0.417000       1.00800           0
     42292 TIP3     966      TIP3     OH2      OT      -0.834000       15.9994           0
     42293 TIP3     966      TIP3     H1       HT       0.417000       1.00800           0
     42294 TIP3     966      TIP3     H2       HT       0.417000       1.00800           0
     42295 TIP3     967      TIP3     OH2      OT      -0.834000       15.9994           0
     42296 TIP3     967      TIP3     H1       HT       0.417000       1.00800           0
     42297 TIP3     967      TIP3     H2       HT       0.417000       1.00800           0
     42298 TIP3     968      TIP3     OH2      OT      -0.834000       15.9994           0
     42299 TIP3     968      TIP3     H1       HT       0.417000       1.00800           0
     42300 TIP3     968      TIP3     H2       HT       0.417000       1.00800           0
     42301 TIP3     969      TIP3     OH2      OT      -0.834000       15.9994           0
     42302 TIP3     969      TIP3     H1       HT       0.417000       1.00800           0
     42303 TIP3     969      TIP3     H2       HT       0.417000       1.00800           0
     42304 TIP3     970      TIP3     OH2      OT      -0.834000       15.9994           0
     42305 TIP3     970      TIP3     H1       HT       0.417000       1.00800           0
     42306 TIP3     970      TIP3     H2       HT       0.417000       1.00800           0
     42307 TIP3     971      TIP3     OH2      OT      -0.834000       15.9994           0
     42308 TIP3     971      TIP3     H1       HT       0.417000       1.00800           0
     42309 TIP3     971      TIP3     H2       HT       0.417000       1.00800           0
     42310 TIP3     972      TIP3     OH2      OT      -0.834000       15.9994           0
     42311 TIP3     972      TIP3     H1       HT       0.417000       1.00800           0
     42312 TIP3     972      TIP3     H2       HT       0.417000       1.00800           0
     42313 TIP3     973      TIP3     OH2      OT      -0.834000       15.9994           0
     42314 TIP3     973      TIP3     H1       HT       0.417000       1.00800           0
     42315 TIP3     973      TIP3     H2       HT       0.417000       1.00800           0
     42316 TIP3     974      TIP3     OH2      OT      -0.834000       15.9994           0
     42317 TIP3     974      TIP3     H1       HT       0.417000       1.00800           0
     42318 TIP3     974      TIP3     H2       HT       0.417000       1.00800           0
     42319 TIP3     975      TIP3     OH2      OT      -0.834000       15.9994           0
     42320 TIP3     975      TIP3     H1       HT       0.417000       1.00800           0
     42321 TIP3     975      TIP3     H2       HT       0.417000       1.00800           0
     42322 TIP3     976      TIP3     OH2      OT      -0.834000       15.9994           0
     42323 TIP3     976      TIP3     H1       HT       0.417000       1.00800           0
     42324 TIP3     976      TIP3     H2       HT       0.417000       1.00800           0
     42325 TIP3     977      TIP3     OH2      OT      -0.834000       15.9994           0
     42326 TIP3     977      TIP3     H1       HT       0.417000       1.00800           0
     42327 TIP3     977      TIP3     H2       HT       0.417000       1.00800           0
     42328 TIP3     978      TIP3     OH2      OT      -0.834000       15.9994           0
     42329 TIP3     978      TIP3     H1       HT       0.417000       1.00800           0
     42330 TIP3     978      TIP3     H2       HT       0.417000       1.00800           0
     42331 TIP3     979      TIP3     OH2      OT      -0.834000       15.9994           0
     42332 TIP3     979      TIP3     H1       HT       0.417000       1.00800           0
     42333 TIP3     979      TIP3     H2       HT       0.417000       1.00800           0
     42334 TIP3     980      TIP3     OH2      OT      -0.834000       15.9994           0
     42335 TIP3     980      TIP3     H1       HT       0.417000       1.00800           0
     42336 TIP3     980      TIP3     H2       HT       0.417000       1.00800           0
     42337 TIP3     981      TIP3     OH2      OT      -0.834000       15.9994           0
     42338 TIP3     981      TIP3     H1       HT       0.417000       1.00800           0
     42339 TIP3     981      TIP3     H2       HT       0.417000       1.00800           0
     42340 TIP3     982      TIP3     OH2      OT      -0.834000       15.9994           0
     42341 TIP3     982      TIP3     H1       HT       0.417000       1.00800           0
     42342 TIP3     982      TIP3     H2       HT       0.417000       1.00800           0
     42343 TIP3     983      TIP3     OH2      OT      -0.834000       15.9994           0
     42344 TIP3     983      TIP3     H1       HT       0.417000       1.00800           0
     42345 TIP3     983      TIP3     H2       HT       0.417000       1.00800           0
     42346 TIP3     984      TIP3     OH2      OT      -0.834000       15.9994           0
     42347 TIP3     984      TIP3     H1       HT       0.417000       1.00800           0
     42348 TIP3     984      TIP3     H2       HT       0.417000       1.00800           0
     42349 TIP3     985      TIP3     OH2      OT      -0.834000       15.9994           0
     42350 TIP3     985      TIP3     H1       HT       0.417000       1.00800           0
     42351 TIP3     985      TIP3     H2       HT       0.417000       1.00800           0
     42352 TIP3     986      TIP3     OH2      OT      -0.834000       15.9994           0
     42353 TIP3     986      TIP3     H1       HT       0.417000       1.00800           0
     42354 TIP3     986      TIP3     H2       HT       0.417000       1.00800           0
     42355 TIP3     987      TIP3     OH2      OT      -0.834000       15.9994           0
     42356 TIP3     987      TIP3     H1       HT       0.417000       1.00800           0
     42357 TIP3     987      TIP3     H2       HT       0.417000       1.00800           0
     42358 TIP3     988      TIP3     OH2      OT      -0.834000       15.9994           0
     42359 TIP3     988      TIP3     H1       HT       0.417000       1.00800           0
     42360 TIP3     988      TIP3     H2       HT       0.417000       1.00800           0
     42361 TIP3     989      TIP3     OH2      OT      -0.834000       15.9994           0
     42362 TIP3     989      TIP3     H1       HT       0.417000       1.00800           0
     42363 TIP3     989      TIP3     H2       HT       0.417000       1.00800           0
     42364 TIP3     990      TIP3     OH2      OT      -0.834000       15.9994           0
     42365 TIP3     990      TIP3     H1       HT       0.417000       1.00800           0
     42366 TIP3     990      TIP3     H2       HT       0.417000       1.00800           0
     42367 TIP3     991      TIP3     OH2      OT      -0.834000       15.9994           0
     42368 TIP3     991      TIP3     H1       HT       0.417000       1.00800           0
     42369 TIP3     991      TIP3     H2       HT       0.417000       1.00800           0
     42370 TIP3     992      TIP3     OH2      OT      -0.834000       15.9994           0
     42371 TIP3     992      TIP3     H1       HT       0.417000       1.00800           0
     42372 TIP3     992      TIP3     H2       HT       0.417000       1.00800           0
     42373 TIP3     993      TIP3     OH2      OT      -0.834000       15.9994           0
     42374 TIP3     993      TIP3     H1       HT       0.417000       1.00800           0
     42375 TIP3     993      TIP3     H2       HT       0.417000       1.00800           0
     42376 TIP3     994      TIP3     OH2      OT      -0.834000       15.9994           0
     42377 TIP3     994      TIP3     H1       HT       0.417000       1.00800           0
     42378 TIP3     994      TIP3     H2       HT       0.417000       1.00800           0
     42379 TIP3     995      TIP3     OH2      OT      -0.834000       15.9994           0
     42380 TIP3     995      TIP3     H1       HT       0.417000       1.00800           0
     42381 TIP3     995      TIP3     H2       HT       0.417000       1.00800           0
     42382 TIP3     996      TIP3     OH2      OT      -0.834000       15.9994           0
     42383 TIP3     996      TIP3     H1       HT       0.417000       1.00800           0
     42384 TIP3     996      TIP3     H2       HT       0.417000       1.00800           0
     42385 TIP3     997      TIP3     OH2      OT      -0.834000       15.9994           0
     42386 TIP3     997      TIP3     H1       HT       0.417000       1.00800           0
     42387 TIP3     997      TIP3     H2       HT       0.417000       1.00800           0
     42388 TIP3     998      TIP3     OH2      OT      -0.834000       15.9994           0
     42389 TIP3     998      TIP3     H1       HT       0.417000       1.00800           0
     42390 TIP3     998      TIP3     H2       HT       0.417000       1.00800           0
     42391 TIP3     999      TIP3     OH2      OT      -0.834000       15.9994           0
     42392 TIP3     999      TIP3     H1       HT       0.417000       1.00800           0
     42393 TIP3     999      TIP3     H2       HT       0.417000       1.00800           0
     42394 TIP3     1000     TIP3     OH2      OT      -0.834000       15.9994           0
     42395 TIP3     1000     TIP3     H1       HT       0.417000       1.00800           0
     42396 TIP3     1000     TIP3     H2       HT       0.417000       1.00800           0
     42397 TIP3     1001     TIP3     OH2      OT      -0.834000       15.9994           0
     42398 TIP3     1001     TIP3     H1       HT       0.417000       1.00800           0
     42399 TIP3     1001     TIP3     H2       HT       0.417000       1.00800           0
     42400 TIP3     1002     TIP3     OH2      OT      -0.834000       15.9994           0
     42401 TIP3     1002     TIP3     H1       HT       0.417000       1.00800           0
     42402 TIP3     1002     TIP3     H2       HT       0.417000       1.00800           0
     42403 TIP3     1003     TIP3     OH2      OT      -0.834000       15.9994           0
     42404 TIP3     1003     TIP3     H1       HT       0.417000       1.00800           0
     42405 TIP3     1003     TIP3     H2       HT       0.417000       1.00800           0
     42406 TIP3     1004     TIP3     OH2      OT      -0.834000       15.9994           0
     42407 TIP3     1004     TIP3     H1       HT       0.417000       1.00800           0
     42408 TIP3     1004     TIP3     H2       HT       0.417000       1.00800           0
     42409 TIP3     1005     TIP3     OH2      OT      -0.834000       15.9994           0
     42410 TIP3     1005     TIP3     H1       HT       0.417000       1.00800           0
     42411 TIP3     1005     TIP3     H2       HT       0.417000       1.00800           0
     42412 TIP3     1006     TIP3     OH2      OT      -0.834000       15.9994           0
     42413 TIP3     1006     TIP3     H1       HT       0.417000       1.00800           0
     42414 TIP3     1006     TIP3     H2       HT       0.417000       1.00800           0
     42415 TIP3     1007     TIP3     OH2      OT      -0.834000       15.9994           0
     42416 TIP3     1007     TIP3     H1       HT       0.417000       1.00800           0
     42417 TIP3     1007     TIP3     H2       HT       0.417000       1.00800           0
     42418 TIP3     1008     TIP3     OH2      OT      -0.834000       15.9994           0
     42419 TIP3     1008     TIP3     H1       HT       0.417000       1.00800           0
     42420 TIP3     1008     TIP3     H2       HT       0.417000       1.00800           0
     42421 TIP3     1009     TIP3     OH2      OT      -0.834000       15.9994           0
     42422 TIP3     1009     TIP3     H1       HT       0.417000       1.00800           0
     42423 TIP3     1009     TIP3     H2       HT       0.417000       1.00800           0
     42424 TIP3     1010     TIP3     OH2      OT      -0.834000       15.9994           0
     42425 TIP3     1010     TIP3     H1       HT       0.417000       1.00800           0
     42426 TIP3     1010     TIP3     H2       HT       0.417000       1.00800           0
     42427 TIP3     1011     TIP3     OH2      OT      -0.834000       15.9994           0
     42428 TIP3     1011     TIP3     H1       HT       0.417000       1.00800           0
     42429 TIP3     1011     TIP3     H2       HT       0.417000       1.00800           0
     42430 TIP3     1012     TIP3     OH2      OT      -0.834000       15.9994           0
     42431 TIP3     1012     TIP3     H1       HT       0.417000       1.00800           0
     42432 TIP3     1012     TIP3     H2       HT       0.417000       1.00800           0
     42433 TIP3     1013     TIP3     OH2      OT      -0.834000       15.9994           0
     42434 TIP3     1013     TIP3     H1       HT       0.417000       1.00800           0
     42435 TIP3     1013     TIP3     H2       HT       0.417000       1.00800           0
     42436 TIP3     1014     TIP3     OH2      OT      -0.834000       15.9994           0
     42437 TIP3     1014     TIP3     H1       HT       0.417000       1.00800           0
     42438 TIP3     1014     TIP3     H2       HT       0.417000       1.00800           0
     42439 TIP3     1015     TIP3     OH2      OT      -0.834000       15.9994           0
     42440 TIP3     1015     TIP3     H1       HT       0.417000       1.00800           0
     42441 TIP3     1015     TIP3     H2       HT       0.417000       1.00800           0
     42442 TIP3     1016     TIP3     OH2      OT      -0.834000       15.9994           0
     42443 TIP3     1016     TIP3     H1       HT       0.417000       1.00800           0
     42444 TIP3     1016     TIP3     H2       HT       0.417000       1.00800           0
     42445 TIP3     1017     TIP3     OH2      OT      -0.834000       15.9994           0
     42446 TIP3     1017     TIP3     H1       HT       0.417000       1.00800           0
     42447 TIP3     1017     TIP3     H2       HT       0.417000       1.00800           0
     42448 TIP3     1018     TIP3     OH2      OT      -0.834000       15.9994           0
     42449 TIP3     1018     TIP3     H1       HT       0.417000       1.00800           0
     42450 TIP3     1018     TIP3     H2       HT       0.417000       1.00800           0
     42451 TIP3     1019     TIP3     OH2      OT      -0.834000       15.9994           0
     42452 TIP3     1019     TIP3     H1       HT       0.417000       1.00800           0
     42453 TIP3     1019     TIP3     H2       HT       0.417000       1.00800           0
     42454 TIP3     1020     TIP3     OH2      OT      -0.834000       15.9994           0
     42455 TIP3     1020     TIP3     H1       HT       0.417000       1.00800           0
     42456 TIP3     1020     TIP3     H2       HT       0.417000       1.00800           0
     42457 TIP3     1021     TIP3     OH2      OT      -0.834000       15.9994           0
     42458 TIP3     1021     TIP3     H1       HT       0.417000       1.00800           0
     42459 TIP3     1021     TIP3     H2       HT       0.417000       1.00800           0
     42460 TIP3     1022     TIP3     OH2      OT      -0.834000       15.9994           0
     42461 TIP3     1022     TIP3     H1       HT       0.417000       1.00800           0
     42462 TIP3     1022     TIP3     H2       HT       0.417000       1.00800           0
     42463 TIP3     1023     TIP3     OH2      OT      -0.834000       15.9994           0
     42464 TIP3     1023     TIP3     H1       HT       0.417000       1.00800           0
     42465 TIP3     1023     TIP3     H2       HT       0.417000       1.00800           0
     42466 TIP3     1024     TIP3     OH2      OT      -0.834000       15.9994           0
     42467 TIP3     1024     TIP3     H1       HT       0.417000       1.00800           0
     42468 TIP3     1024     TIP3     H2       HT       0.417000       1.00800           0
     42469 TIP3     1025     TIP3     OH2      OT      -0.834000       15.9994           0
     42470 TIP3     1025     TIP3     H1       HT       0.417000       1.00800           0
     42471 TIP3     1025     TIP3     H2       HT       0.417000       1.00800           0
     42472 TIP3     1026     TIP3     OH2      OT      -0.834000       15.9994           0
     42473 TIP3     1026     TIP3     H1       HT       0.417000       1.00800           0
     42474 TIP3     1026     TIP3     H2       HT       0.417000       1.00800           0
     42475 TIP3     1027     TIP3     OH2      OT      -0.834000       15.9994           0
     42476 TIP3     1027     TIP3     H1       HT       0.417000       1.00800           0
     42477 TIP3     1027     TIP3     H2       HT       0.417000       1.00800           0
     42478 TIP3     1028     TIP3     OH2      OT      -0.834000       15.9994           0
     42479 TIP3     1028     TIP3     H1       HT       0.417000       1.00800           0
     42480 TIP3     1028     TIP3     H2       HT       0.417000       1.00800           0
     42481 TIP3     1029     TIP3     OH2      OT      -0.834000       15.9994           0
     42482 TIP3     1029     TIP3     H1       HT       0.417000       1.00800           0
     42483 TIP3     1029     TIP3     H2       HT       0.417000       1.00800           0
     42484 TIP3     1030     TIP3     OH2      OT      -0.834000       15.9994           0
     42485 TIP3     1030     TIP3     H1       HT       0.417000       1.00800           0
     42486 TIP3     1030     TIP3     H2       HT       0.417000       1.00800           0
     42487 TIP3     1031     TIP3     OH2      OT      -0.834000       15.9994           0
     42488 TIP3     1031     TIP3     H1       HT       0.417000       1.00800           0
     42489 TIP3     1031     TIP3     H2       HT       0.417000       1.00800           0
     42490 TIP3     1032     TIP3     OH2      OT      -0.834000       15.9994           0
     42491 TIP3     1032     TIP3     H1       HT       0.417000       1.00800           0
     42492 TIP3     1032     TIP3     H2       HT       0.417000       1.00800           0
     42493 TIP3     1033     TIP3     OH2      OT      -0.834000       15.9994           0
     42494 TIP3     1033     TIP3     H1       HT       0.417000       1.00800           0
     42495 TIP3     1033     TIP3     H2       HT       0.417000       1.00800           0
     42496 TIP3     1034     TIP3     OH2      OT      -0.834000       15.9994           0
     42497 TIP3     1034     TIP3     H1       HT       0.417000       1.00800           0
     42498 TIP3     1034     TIP3     H2       HT       0.417000       1.00800           0
     42499 TIP3     1035     TIP3     OH2      OT      -0.834000       15.9994           0
     42500 TIP3     1035     TIP3     H1       HT       0.417000       1.00800           0
     42501 TIP3     1035     TIP3     H2       HT       0.417000       1.00800           0
     42502 TIP3     1036     TIP3     OH2      OT      -0.834000       15.9994           0
     42503 TIP3     1036     TIP3     H1       HT       0.417000       1.00800           0
     42504 TIP3     1036     TIP3     H2       HT       0.417000       1.00800           0
     42505 TIP3     1037     TIP3     OH2      OT      -0.834000       15.9994           0
     42506 TIP3     1037     TIP3     H1       HT       0.417000       1.00800           0
     42507 TIP3     1037     TIP3     H2       HT       0.417000       1.00800           0
     42508 TIP3     1038     TIP3     OH2      OT      -0.834000       15.9994           0
     42509 TIP3     1038     TIP3     H1       HT       0.417000       1.00800           0
     42510 TIP3     1038     TIP3     H2       HT       0.417000       1.00800           0
     42511 TIP3     1039     TIP3     OH2      OT      -0.834000       15.9994           0
     42512 TIP3     1039     TIP3     H1       HT       0.417000       1.00800           0
     42513 TIP3     1039     TIP3     H2       HT       0.417000       1.00800           0
     42514 TIP3     1040     TIP3     OH2      OT      -0.834000       15.9994           0
     42515 TIP3     1040     TIP3     H1       HT       0.417000       1.00800           0
     42516 TIP3     1040     TIP3     H2       HT       0.417000       1.00800           0
     42517 TIP3     1041     TIP3     OH2      OT      -0.834000       15.9994           0
     42518 TIP3     1041     TIP3     H1       HT       0.417000       1.00800           0
     42519 TIP3     1041     TIP3     H2       HT       0.417000       1.00800           0
     42520 TIP3     1042     TIP3     OH2      OT      -0.834000       15.9994           0
     42521 TIP3     1042     TIP3     H1       HT       0.417000       1.00800           0
     42522 TIP3     1042     TIP3     H2       HT       0.417000       1.00800           0
     42523 TIP3     1043     TIP3     OH2      OT      -0.834000       15.9994           0
     42524 TIP3     1043     TIP3     H1       HT       0.417000       1.00800           0
     42525 TIP3     1043     TIP3     H2       HT       0.417000       1.00800           0
     42526 TIP3     1044     TIP3     OH2      OT      -0.834000       15.9994           0
     42527 TIP3     1044     TIP3     H1       HT       0.417000       1.00800           0
     42528 TIP3     1044     TIP3     H2       HT       0.417000       1.00800           0
     42529 TIP3     1045     TIP3     OH2      OT      -0.834000       15.9994           0
     42530 TIP3     1045     TIP3     H1       HT       0.417000       1.00800           0
     42531 TIP3     1045     TIP3     H2       HT       0.417000       1.00800           0
     42532 TIP3     1046     TIP3     OH2      OT      -0.834000       15.9994           0
     42533 TIP3     1046     TIP3     H1       HT       0.417000       1.00800           0
     42534 TIP3     1046     TIP3     H2       HT       0.417000       1.00800           0
     42535 TIP3     1047     TIP3     OH2      OT      -0.834000       15.9994           0
     42536 TIP3     1047     TIP3     H1       HT       0.417000       1.00800           0
     42537 TIP3     1047     TIP3     H2       HT       0.417000       1.00800           0
     42538 TIP3     1048     TIP3     OH2      OT      -0.834000       15.9994           0
     42539 TIP3     1048     TIP3     H1       HT       0.417000       1.00800           0
     42540 TIP3     1048     TIP3     H2       HT       0.417000       1.00800           0
     42541 TIP3     1049     TIP3     OH2      OT      -0.834000       15.9994           0
     42542 TIP3     1049     TIP3     H1       HT       0.417000       1.00800           0
     42543 TIP3     1049     TIP3     H2       HT       0.417000       1.00800           0
     42544 TIP3     1050     TIP3     OH2      OT      -0.834000       15.9994           0
     42545 TIP3     1050     TIP3     H1       HT       0.417000       1.00800           0
     42546 TIP3     1050     TIP3     H2       HT       0.417000       1.00800           0
     42547 TIP3     1051     TIP3     OH2      OT      -0.834000       15.9994           0
     42548 TIP3     1051     TIP3     H1       HT       0.417000       1.00800           0
     42549 TIP3     1051     TIP3     H2       HT       0.417000       1.00800           0
     42550 TIP3     1052     TIP3     OH2      OT      -0.834000       15.9994           0
     42551 TIP3     1052     TIP3     H1       HT       0.417000       1.00800           0
     42552 TIP3     1052     TIP3     H2       HT       0.417000       1.00800           0
     42553 TIP3     1053     TIP3     OH2      OT      -0.834000       15.9994           0
     42554 TIP3     1053     TIP3     H1       HT       0.417000       1.00800           0
     42555 TIP3     1053     TIP3     H2       HT       0.417000       1.00800           0
     42556 TIP3     1054     TIP3     OH2      OT      -0.834000       15.9994           0
     42557 TIP3     1054     TIP3     H1       HT       0.417000       1.00800           0
     42558 TIP3     1054     TIP3     H2       HT       0.417000       1.00800           0
     42559 TIP3     1055     TIP3     OH2      OT      -0.834000       15.9994           0
     42560 TIP3     1055     TIP3     H1       HT       0.417000       1.00800           0
     42561 TIP3     1055     TIP3     H2       HT       0.417000       1.00800           0
     42562 TIP3     1056     TIP3     OH2      OT      -0.834000       15.9994           0
     42563 TIP3     1056     TIP3     H1       HT       0.417000       1.00800           0
     42564 TIP3     1056     TIP3     H2       HT       0.417000       1.00800           0
     42565 TIP3     1057     TIP3     OH2      OT      -0.834000       15.9994           0
     42566 TIP3     1057     TIP3     H1       HT       0.417000       1.00800           0
     42567 TIP3     1057     TIP3     H2       HT       0.417000       1.00800           0
     42568 TIP3     1058     TIP3     OH2      OT      -0.834000       15.9994           0
     42569 TIP3     1058     TIP3     H1       HT       0.417000       1.00800           0
     42570 TIP3     1058     TIP3     H2       HT       0.417000       1.00800           0
     42571 TIP3     1059     TIP3     OH2      OT      -0.834000       15.9994           0
     42572 TIP3     1059     TIP3     H1       HT       0.417000       1.00800           0
     42573 TIP3     1059     TIP3     H2       HT       0.417000       1.00800           0
     42574 TIP3     1060     TIP3     OH2      OT      -0.834000       15.9994           0
     42575 TIP3     1060     TIP3     H1       HT       0.417000       1.00800           0
     42576 TIP3     1060     TIP3     H2       HT       0.417000       1.00800           0
     42577 TIP3     1061     TIP3     OH2      OT      -0.834000       15.9994           0
     42578 TIP3     1061     TIP3     H1       HT       0.417000       1.00800           0
     42579 TIP3     1061     TIP3     H2       HT       0.417000       1.00800           0
     42580 TIP3     1062     TIP3     OH2      OT      -0.834000       15.9994           0
     42581 TIP3     1062     TIP3     H1       HT       0.417000       1.00800           0
     42582 TIP3     1062     TIP3     H2       HT       0.417000       1.00800           0
     42583 TIP3     1063     TIP3     OH2      OT      -0.834000       15.9994           0
     42584 TIP3     1063     TIP3     H1       HT       0.417000       1.00800           0
     42585 TIP3     1063     TIP3     H2       HT       0.417000       1.00800           0
     42586 TIP3     1064     TIP3     OH2      OT      -0.834000       15.9994           0
     42587 TIP3     1064     TIP3     H1       HT       0.417000       1.00800           0
     42588 TIP3     1064     TIP3     H2       HT       0.417000       1.00800           0
     42589 TIP3     1065     TIP3     OH2      OT      -0.834000       15.9994           0
     42590 TIP3     1065     TIP3     H1       HT       0.417000       1.00800           0
     42591 TIP3     1065     TIP3     H2       HT       0.417000       1.00800           0
     42592 TIP3     1066     TIP3     OH2      OT      -0.834000       15.9994           0
     42593 TIP3     1066     TIP3     H1       HT       0.417000       1.00800           0
     42594 TIP3     1066     TIP3     H2       HT       0.417000       1.00800           0
     42595 TIP3     1067     TIP3     OH2      OT      -0.834000       15.9994           0
     42596 TIP3     1067     TIP3     H1       HT       0.417000       1.00800           0
     42597 TIP3     1067     TIP3     H2       HT       0.417000       1.00800           0
     42598 TIP3     1068     TIP3     OH2      OT      -0.834000       15.9994           0
     42599 TIP3     1068     TIP3     H1       HT       0.417000       1.00800           0
     42600 TIP3     1068     TIP3     H2       HT       0.417000       1.00800           0
     42601 TIP3     1069     TIP3     OH2      OT      -0.834000       15.9994           0
     42602 TIP3     1069     TIP3     H1       HT       0.417000       1.00800           0
     42603 TIP3     1069     TIP3     H2       HT       0.417000       1.00800           0
     42604 TIP3     1070     TIP3     OH2      OT      -0.834000       15.9994           0
     42605 TIP3     1070     TIP3     H1       HT       0.417000       1.00800           0
     42606 TIP3     1070     TIP3     H2       HT       0.417000       1.00800           0
     42607 TIP3     1071     TIP3     OH2      OT      -0.834000       15.9994           0
     42608 TIP3     1071     TIP3     H1       HT       0.417000       1.00800           0
     42609 TIP3     1071     TIP3     H2       HT       0.417000       1.00800           0
     42610 TIP3     1072     TIP3     OH2      OT      -0.834000       15.9994           0
     42611 TIP3     1072     TIP3     H1       HT       0.417000       1.00800           0
     42612 TIP3     1072     TIP3     H2       HT       0.417000       1.00800           0
     42613 TIP3     1073     TIP3     OH2      OT      -0.834000       15.9994           0
     42614 TIP3     1073     TIP3     H1       HT       0.417000       1.00800           0
     42615 TIP3     1073     TIP3     H2       HT       0.417000       1.00800           0
     42616 TIP3     1074     TIP3     OH2      OT      -0.834000       15.9994           0
     42617 TIP3     1074     TIP3     H1       HT       0.417000       1.00800           0
     42618 TIP3     1074     TIP3     H2       HT       0.417000       1.00800           0
     42619 TIP3     1075     TIP3     OH2      OT      -0.834000       15.9994           0
     42620 TIP3     1075     TIP3     H1       HT       0.417000       1.00800           0
     42621 TIP3     1075     TIP3     H2       HT       0.417000       1.00800           0
     42622 TIP3     1076     TIP3     OH2      OT      -0.834000       15.9994           0
     42623 TIP3     1076     TIP3     H1       HT       0.417000       1.00800           0
     42624 TIP3     1076     TIP3     H2       HT       0.417000       1.00800           0
     42625 TIP3     1077     TIP3     OH2      OT      -0.834000       15.9994           0
     42626 TIP3     1077     TIP3     H1       HT       0.417000       1.00800           0
     42627 TIP3     1077     TIP3     H2       HT       0.417000       1.00800           0
     42628 TIP3     1078     TIP3     OH2      OT      -0.834000       15.9994           0
     42629 TIP3     1078     TIP3     H1       HT       0.417000       1.00800           0
     42630 TIP3     1078     TIP3     H2       HT       0.417000       1.00800           0
     42631 TIP3     1079     TIP3     OH2      OT      -0.834000       15.9994           0
     42632 TIP3     1079     TIP3     H1       HT       0.417000       1.00800           0
     42633 TIP3     1079     TIP3     H2       HT       0.417000       1.00800           0
     42634 TIP3     1080     TIP3     OH2      OT      -0.834000       15.9994           0
     42635 TIP3     1080     TIP3     H1       HT       0.417000       1.00800           0
     42636 TIP3     1080     TIP3     H2       HT       0.417000       1.00800           0
     42637 TIP3     1081     TIP3     OH2      OT      -0.834000       15.9994           0
     42638 TIP3     1081     TIP3     H1       HT       0.417000       1.00800           0
     42639 TIP3     1081     TIP3     H2       HT       0.417000       1.00800           0
     42640 TIP3     1082     TIP3     OH2      OT      -0.834000       15.9994           0
     42641 TIP3     1082     TIP3     H1       HT       0.417000       1.00800           0
     42642 TIP3     1082     TIP3     H2       HT       0.417000       1.00800           0
     42643 TIP3     1083     TIP3     OH2      OT      -0.834000       15.9994           0
     42644 TIP3     1083     TIP3     H1       HT       0.417000       1.00800           0
     42645 TIP3     1083     TIP3     H2       HT       0.417000       1.00800           0
     42646 TIP3     1084     TIP3     OH2      OT      -0.834000       15.9994           0
     42647 TIP3     1084     TIP3     H1       HT       0.417000       1.00800           0
     42648 TIP3     1084     TIP3     H2       HT       0.417000       1.00800           0
     42649 TIP3     1085     TIP3     OH2      OT      -0.834000       15.9994           0
     42650 TIP3     1085     TIP3     H1       HT       0.417000       1.00800           0
     42651 TIP3     1085     TIP3     H2       HT       0.417000       1.00800           0
     42652 TIP3     1086     TIP3     OH2      OT      -0.834000       15.9994           0
     42653 TIP3     1086     TIP3     H1       HT       0.417000       1.00800           0
     42654 TIP3     1086     TIP3     H2       HT       0.417000       1.00800           0
     42655 TIP3     1087     TIP3     OH2      OT      -0.834000       15.9994           0
     42656 TIP3     1087     TIP3     H1       HT       0.417000       1.00800           0
     42657 TIP3     1087     TIP3     H2       HT       0.417000       1.00800           0
     42658 TIP3     1088     TIP3     OH2      OT      -0.834000       15.9994           0
     42659 TIP3     1088     TIP3     H1       HT       0.417000       1.00800           0
     42660 TIP3     1088     TIP3     H2       HT       0.417000       1.00800           0
     42661 TIP3     1089     TIP3     OH2      OT      -0.834000       15.9994           0
     42662 TIP3     1089     TIP3     H1       HT       0.417000       1.00800           0
     42663 TIP3     1089     TIP3     H2       HT       0.417000       1.00800           0
     42664 TIP3     1090     TIP3     OH2      OT      -0.834000       15.9994           0
     42665 TIP3     1090     TIP3     H1       HT       0.417000       1.00800           0
     42666 TIP3     1090     TIP3     H2       HT       0.417000       1.00800           0
     42667 TIP3     1091     TIP3     OH2      OT      -0.834000       15.9994           0
     42668 TIP3     1091     TIP3     H1       HT       0.417000       1.00800           0
     42669 TIP3     1091     TIP3     H2       HT       0.417000       1.00800           0
     42670 TIP3     1092     TIP3     OH2      OT      -0.834000       15.9994           0
     42671 TIP3     1092     TIP3     H1       HT       0.417000       1.00800           0
     42672 TIP3     1092     TIP3     H2       HT       0.417000       1.00800           0
     42673 TIP3     1093     TIP3     OH2      OT      -0.834000       15.9994           0
     42674 TIP3     1093     TIP3     H1       HT       0.417000       1.00800           0
     42675 TIP3     1093     TIP3     H2       HT       0.417000       1.00800           0
     42676 TIP3     1094     TIP3     OH2      OT      -0.834000       15.9994           0
     42677 TIP3     1094     TIP3     H1       HT       0.417000       1.00800           0
     42678 TIP3     1094     TIP3     H2       HT       0.417000       1.00800           0
     42679 TIP3     1095     TIP3     OH2      OT      -0.834000       15.9994           0
     42680 TIP3     1095     TIP3     H1       HT       0.417000       1.00800           0
     42681 TIP3     1095     TIP3     H2       HT       0.417000       1.00800           0
     42682 TIP3     1096     TIP3     OH2      OT      -0.834000       15.9994           0
     42683 TIP3     1096     TIP3     H1       HT       0.417000       1.00800           0
     42684 TIP3     1096     TIP3     H2       HT       0.417000       1.00800           0
     42685 TIP3     1097     TIP3     OH2      OT      -0.834000       15.9994           0
     42686 TIP3     1097     TIP3     H1       HT       0.417000       1.00800           0
     42687 TIP3     1097     TIP3     H2       HT       0.417000       1.00800           0
     42688 TIP3     1098     TIP3     OH2      OT      -0.834000       15.9994           0
     42689 TIP3     1098     TIP3     H1       HT       0.417000       1.00800           0
     42690 TIP3     1098     TIP3     H2       HT       0.417000       1.00800           0
     42691 TIP3     1099     TIP3     OH2      OT      -0.834000       15.9994           0
     42692 TIP3     1099     TIP3     H1       HT       0.417000       1.00800           0
     42693 TIP3     1099     TIP3     H2       HT       0.417000       1.00800           0
     42694 TIP3     1100     TIP3     OH2      OT      -0.834000       15.9994           0
     42695 TIP3     1100     TIP3     H1       HT       0.417000       1.00800           0
     42696 TIP3     1100     TIP3     H2       HT       0.417000       1.00800           0
     42697 TIP3     1101     TIP3     OH2      OT      -0.834000       15.9994           0
     42698 TIP3     1101     TIP3     H1       HT       0.417000       1.00800           0
     42699 TIP3     1101     TIP3     H2       HT       0.417000       1.00800           0
     42700 TIP3     1102     TIP3     OH2      OT      -0.834000       15.9994           0
     42701 TIP3     1102     TIP3     H1       HT       0.417000       1.00800           0
     42702 TIP3     1102     TIP3     H2       HT       0.417000       1.00800           0
     42703 TIP3     1103     TIP3     OH2      OT      -0.834000       15.9994           0
     42704 TIP3     1103     TIP3     H1       HT       0.417000       1.00800           0
     42705 TIP3     1103     TIP3     H2       HT       0.417000       1.00800           0
     42706 TIP3     1104     TIP3     OH2      OT      -0.834000       15.9994           0
     42707 TIP3     1104     TIP3     H1       HT       0.417000       1.00800           0
     42708 TIP3     1104     TIP3     H2       HT       0.417000       1.00800           0
     42709 TIP3     1105     TIP3     OH2      OT      -0.834000       15.9994           0
     42710 TIP3     1105     TIP3     H1       HT       0.417000       1.00800           0
     42711 TIP3     1105     TIP3     H2       HT       0.417000       1.00800           0
     42712 TIP3     1106     TIP3     OH2      OT      -0.834000       15.9994           0
     42713 TIP3     1106     TIP3     H1       HT       0.417000       1.00800           0
     42714 TIP3     1106     TIP3     H2       HT       0.417000       1.00800           0
     42715 TIP3     1107     TIP3     OH2      OT      -0.834000       15.9994           0
     42716 TIP3     1107     TIP3     H1       HT       0.417000       1.00800           0
     42717 TIP3     1107     TIP3     H2       HT       0.417000       1.00800           0
     42718 TIP3     1108     TIP3     OH2      OT      -0.834000       15.9994           0
     42719 TIP3     1108     TIP3     H1       HT       0.417000       1.00800           0
     42720 TIP3     1108     TIP3     H2       HT       0.417000       1.00800           0
     42721 TIP3     1109     TIP3     OH2      OT      -0.834000       15.9994           0
     42722 TIP3     1109     TIP3     H1       HT       0.417000       1.00800           0
     42723 TIP3     1109     TIP3     H2       HT       0.417000       1.00800           0
     42724 TIP3     1110     TIP3     OH2      OT      -0.834000       15.9994           0
     42725 TIP3     1110     TIP3     H1       HT       0.417000       1.00800           0
     42726 TIP3     1110     TIP3     H2       HT       0.417000       1.00800           0
     42727 TIP3     1111     TIP3     OH2      OT      -0.834000       15.9994           0
     42728 TIP3     1111     TIP3     H1       HT       0.417000       1.00800           0
     42729 TIP3     1111     TIP3     H2       HT       0.417000       1.00800           0
     42730 TIP3     1112     TIP3     OH2      OT      -0.834000       15.9994           0
     42731 TIP3     1112     TIP3     H1       HT       0.417000       1.00800           0
     42732 TIP3     1112     TIP3     H2       HT       0.417000       1.00800           0
     42733 TIP3     1113     TIP3     OH2      OT      -0.834000       15.9994           0
     42734 TIP3     1113     TIP3     H1       HT       0.417000       1.00800           0
     42735 TIP3     1113     TIP3     H2       HT       0.417000       1.00800           0
     42736 TIP3     1114     TIP3     OH2      OT      -0.834000       15.9994           0
     42737 TIP3     1114     TIP3     H1       HT       0.417000       1.00800           0
     42738 TIP3     1114     TIP3     H2       HT       0.417000       1.00800           0
     42739 TIP3     1115     TIP3     OH2      OT      -0.834000       15.9994           0
     42740 TIP3     1115     TIP3     H1       HT       0.417000       1.00800           0
     42741 TIP3     1115     TIP3     H2       HT       0.417000       1.00800           0
     42742 TIP3     1116     TIP3     OH2      OT      -0.834000       15.9994           0
     42743 TIP3     1116     TIP3     H1       HT       0.417000       1.00800           0
     42744 TIP3     1116     TIP3     H2       HT       0.417000       1.00800           0
     42745 TIP3     1117     TIP3     OH2      OT      -0.834000       15.9994           0
     42746 TIP3     1117     TIP3     H1       HT       0.417000       1.00800           0
     42747 TIP3     1117     TIP3     H2       HT       0.417000       1.00800           0
     42748 TIP3     1118     TIP3     OH2      OT      -0.834000       15.9994           0
     42749 TIP3     1118     TIP3     H1       HT       0.417000       1.00800           0
     42750 TIP3     1118     TIP3     H2       HT       0.417000       1.00800           0
     42751 TIP3     1119     TIP3     OH2      OT      -0.834000       15.9994           0
     42752 TIP3     1119     TIP3     H1       HT       0.417000       1.00800           0
     42753 TIP3     1119     TIP3     H2       HT       0.417000       1.00800           0
     42754 TIP3     1120     TIP3     OH2      OT      -0.834000       15.9994           0
     42755 TIP3     1120     TIP3     H1       HT       0.417000       1.00800           0
     42756 TIP3     1120     TIP3     H2       HT       0.417000       1.00800           0
     42757 TIP3     1121     TIP3     OH2      OT      -0.834000       15.9994           0
     42758 TIP3     1121     TIP3     H1       HT       0.417000       1.00800           0
     42759 TIP3     1121     TIP3     H2       HT       0.417000       1.00800           0
     42760 TIP3     1122     TIP3     OH2      OT      -0.834000       15.9994           0
     42761 TIP3     1122     TIP3     H1       HT       0.417000       1.00800           0
     42762 TIP3     1122     TIP3     H2       HT       0.417000       1.00800           0
     42763 TIP3     1123     TIP3     OH2      OT      -0.834000       15.9994           0
     42764 TIP3     1123     TIP3     H1       HT       0.417000       1.00800           0
     42765 TIP3     1123     TIP3     H2       HT       0.417000       1.00800           0
     42766 TIP3     1124     TIP3     OH2      OT      -0.834000       15.9994           0
     42767 TIP3     1124     TIP3     H1       HT       0.417000       1.00800           0
     42768 TIP3     1124     TIP3     H2       HT       0.417000       1.00800           0
     42769 TIP3     1125     TIP3     OH2      OT      -0.834000       15.9994           0
     42770 TIP3     1125     TIP3     H1       HT       0.417000       1.00800           0
     42771 TIP3     1125     TIP3     H2       HT       0.417000       1.00800           0
     42772 TIP3     1126     TIP3     OH2      OT      -0.834000       15.9994           0
     42773 TIP3     1126     TIP3     H1       HT       0.417000       1.00800           0
     42774 TIP3     1126     TIP3     H2       HT       0.417000       1.00800           0
     42775 TIP3     1127     TIP3     OH2      OT      -0.834000       15.9994           0
     42776 TIP3     1127     TIP3     H1       HT       0.417000       1.00800           0
     42777 TIP3     1127     TIP3     H2       HT       0.417000       1.00800           0
     42778 TIP3     1128     TIP3     OH2      OT      -0.834000       15.9994           0
     42779 TIP3     1128     TIP3     H1       HT       0.417000       1.00800           0
     42780 TIP3     1128     TIP3     H2       HT       0.417000       1.00800           0
     42781 TIP3     1129     TIP3     OH2      OT      -0.834000       15.9994           0
     42782 TIP3     1129     TIP3     H1       HT       0.417000       1.00800           0
     42783 TIP3     1129     TIP3     H2       HT       0.417000       1.00800           0
     42784 TIP3     1130     TIP3     OH2      OT      -0.834000       15.9994           0
     42785 TIP3     1130     TIP3     H1       HT       0.417000       1.00800           0
     42786 TIP3     1130     TIP3     H2       HT       0.417000       1.00800           0
     42787 TIP3     1131     TIP3     OH2      OT      -0.834000       15.9994           0
     42788 TIP3     1131     TIP3     H1       HT       0.417000       1.00800           0
     42789 TIP3     1131     TIP3     H2       HT       0.417000       1.00800           0
     42790 TIP3     1132     TIP3     OH2      OT      -0.834000       15.9994           0
     42791 TIP3     1132     TIP3     H1       HT       0.417000       1.00800           0
     42792 TIP3     1132     TIP3     H2       HT       0.417000       1.00800           0
     42793 TIP3     1133     TIP3     OH2      OT      -0.834000       15.9994           0
     42794 TIP3     1133     TIP3     H1       HT       0.417000       1.00800           0
     42795 TIP3     1133     TIP3     H2       HT       0.417000       1.00800           0
     42796 TIP3     1134     TIP3     OH2      OT      -0.834000       15.9994           0
     42797 TIP3     1134     TIP3     H1       HT       0.417000       1.00800           0
     42798 TIP3     1134     TIP3     H2       HT       0.417000       1.00800           0
     42799 TIP3     1135     TIP3     OH2      OT      -0.834000       15.9994           0
     42800 TIP3     1135     TIP3     H1       HT       0.417000       1.00800           0
     42801 TIP3     1135     TIP3     H2       HT       0.417000       1.00800           0
     42802 TIP3     1136     TIP3     OH2      OT      -0.834000       15.9994           0
     42803 TIP3     1136     TIP3     H1       HT       0.417000       1.00800           0
     42804 TIP3     1136     TIP3     H2       HT       0.417000       1.00800           0
     42805 TIP3     1137     TIP3     OH2      OT      -0.834000       15.9994           0
     42806 TIP3     1137     TIP3     H1       HT       0.417000       1.00800           0
     42807 TIP3     1137     TIP3     H2       HT       0.417000       1.00800           0
     42808 TIP3     1138     TIP3     OH2      OT      -0.834000       15.9994           0
     42809 TIP3     1138     TIP3     H1       HT       0.417000       1.00800           0
     42810 TIP3     1138     TIP3     H2       HT       0.417000       1.00800           0
     42811 TIP3     1139     TIP3     OH2      OT      -0.834000       15.9994           0
     42812 TIP3     1139     TIP3     H1       HT       0.417000       1.00800           0
     42813 TIP3     1139     TIP3     H2       HT       0.417000       1.00800           0
     42814 TIP3     1140     TIP3     OH2      OT      -0.834000       15.9994           0
     42815 TIP3     1140     TIP3     H1       HT       0.417000       1.00800           0
     42816 TIP3     1140     TIP3     H2       HT       0.417000       1.00800           0
     42817 TIP3     1141     TIP3     OH2      OT      -0.834000       15.9994           0
     42818 TIP3     1141     TIP3     H1       HT       0.417000       1.00800           0
     42819 TIP3     1141     TIP3     H2       HT       0.417000       1.00800           0
     42820 TIP3     1142     TIP3     OH2      OT      -0.834000       15.9994           0
     42821 TIP3     1142     TIP3     H1       HT       0.417000       1.00800           0
     42822 TIP3     1142     TIP3     H2       HT       0.417000       1.00800           0
     42823 TIP3     1143     TIP3     OH2      OT      -0.834000       15.9994           0
     42824 TIP3     1143     TIP3     H1       HT       0.417000       1.00800           0
     42825 TIP3     1143     TIP3     H2       HT       0.417000       1.00800           0
     42826 TIP3     1144     TIP3     OH2      OT      -0.834000       15.9994           0
     42827 TIP3     1144     TIP3     H1       HT       0.417000       1.00800           0
     42828 TIP3     1144     TIP3     H2       HT       0.417000       1.00800           0
     42829 TIP3     1145     TIP3     OH2      OT      -0.834000       15.9994           0
     42830 TIP3     1145     TIP3     H1       HT       0.417000       1.00800           0
     42831 TIP3     1145     TIP3     H2       HT       0.417000       1.00800           0
     42832 TIP3     1146     TIP3     OH2      OT      -0.834000       15.9994           0
     42833 TIP3     1146     TIP3     H1       HT       0.417000       1.00800           0
     42834 TIP3     1146     TIP3     H2       HT       0.417000       1.00800           0
     42835 TIP3     1147     TIP3     OH2      OT      -0.834000       15.9994           0
     42836 TIP3     1147     TIP3     H1       HT       0.417000       1.00800           0
     42837 TIP3     1147     TIP3     H2       HT       0.417000       1.00800           0
     42838 TIP3     1148     TIP3     OH2      OT      -0.834000       15.9994           0
     42839 TIP3     1148     TIP3     H1       HT       0.417000       1.00800           0
     42840 TIP3     1148     TIP3     H2       HT       0.417000       1.00800           0
     42841 TIP3     1149     TIP3     OH2      OT      -0.834000       15.9994           0
     42842 TIP3     1149     TIP3     H1       HT       0.417000       1.00800           0
     42843 TIP3     1149     TIP3     H2       HT       0.417000       1.00800           0
     42844 TIP3     1150     TIP3     OH2      OT      -0.834000       15.9994           0
     42845 TIP3     1150     TIP3     H1       HT       0.417000       1.00800           0
     42846 TIP3     1150     TIP3     H2       HT       0.417000       1.00800           0
     42847 TIP3     1151     TIP3     OH2      OT      -0.834000       15.9994           0
     42848 TIP3     1151     TIP3     H1       HT       0.417000       1.00800           0
     42849 TIP3     1151     TIP3     H2       HT       0.417000       1.00800           0
     42850 TIP3     1152     TIP3     OH2      OT      -0.834000       15.9994           0
     42851 TIP3     1152     TIP3     H1       HT       0.417000       1.00800           0
     42852 TIP3     1152     TIP3     H2       HT       0.417000       1.00800           0
     42853 TIP3     1153     TIP3     OH2      OT      -0.834000       15.9994           0
     42854 TIP3     1153     TIP3     H1       HT       0.417000       1.00800           0
     42855 TIP3     1153     TIP3     H2       HT       0.417000       1.00800           0
     42856 TIP3     1154     TIP3     OH2      OT      -0.834000       15.9994           0
     42857 TIP3     1154     TIP3     H1       HT       0.417000       1.00800           0
     42858 TIP3     1154     TIP3     H2       HT       0.417000       1.00800           0
     42859 TIP3     1155     TIP3     OH2      OT      -0.834000       15.9994           0
     42860 TIP3     1155     TIP3     H1       HT       0.417000       1.00800           0
     42861 TIP3     1155     TIP3     H2       HT       0.417000       1.00800           0
     42862 TIP3     1156     TIP3     OH2      OT      -0.834000       15.9994           0
     42863 TIP3     1156     TIP3     H1       HT       0.417000       1.00800           0
     42864 TIP3     1156     TIP3     H2       HT       0.417000       1.00800           0
     42865 TIP3     1157     TIP3     OH2      OT      -0.834000       15.9994           0
     42866 TIP3     1157     TIP3     H1       HT       0.417000       1.00800           0
     42867 TIP3     1157     TIP3     H2       HT       0.417000       1.00800           0
     42868 TIP3     1158     TIP3     OH2      OT      -0.834000       15.9994           0
     42869 TIP3     1158     TIP3     H1       HT       0.417000       1.00800           0
     42870 TIP3     1158     TIP3     H2       HT       0.417000       1.00800           0
     42871 TIP3     1159     TIP3     OH2      OT      -0.834000       15.9994           0
     42872 TIP3     1159     TIP3     H1       HT       0.417000       1.00800           0
     42873 TIP3     1159     TIP3     H2       HT       0.417000       1.00800           0
     42874 TIP3     1160     TIP3     OH2      OT      -0.834000       15.9994           0
     42875 TIP3     1160     TIP3     H1       HT       0.417000       1.00800           0
     42876 TIP3     1160     TIP3     H2       HT       0.417000       1.00800           0
     42877 TIP3     1161     TIP3     OH2      OT      -0.834000       15.9994           0
     42878 TIP3     1161     TIP3     H1       HT       0.417000       1.00800           0
     42879 TIP3     1161     TIP3     H2       HT       0.417000       1.00800           0
     42880 TIP3     1162     TIP3     OH2      OT      -0.834000       15.9994           0
     42881 TIP3     1162     TIP3     H1       HT       0.417000       1.00800           0
     42882 TIP3     1162     TIP3     H2       HT       0.417000       1.00800           0
     42883 TIP3     1163     TIP3     OH2      OT      -0.834000       15.9994           0
     42884 TIP3     1163     TIP3     H1       HT       0.417000       1.00800           0
     42885 TIP3     1163     TIP3     H2       HT       0.417000       1.00800           0
     42886 TIP3     1164     TIP3     OH2      OT      -0.834000       15.9994           0
     42887 TIP3     1164     TIP3     H1       HT       0.417000       1.00800           0
     42888 TIP3     1164     TIP3     H2       HT       0.417000       1.00800           0
     42889 TIP3     1165     TIP3     OH2      OT      -0.834000       15.9994           0
     42890 TIP3     1165     TIP3     H1       HT       0.417000       1.00800           0
     42891 TIP3     1165     TIP3     H2       HT       0.417000       1.00800           0
     42892 TIP3     1166     TIP3     OH2      OT      -0.834000       15.9994           0
     42893 TIP3     1166     TIP3     H1       HT       0.417000       1.00800           0
     42894 TIP3     1166     TIP3     H2       HT       0.417000       1.00800           0
     42895 TIP3     1167     TIP3     OH2      OT      -0.834000       15.9994           0
     42896 TIP3     1167     TIP3     H1       HT       0.417000       1.00800           0
     42897 TIP3     1167     TIP3     H2       HT       0.417000       1.00800           0
     42898 TIP3     1168     TIP3     OH2      OT      -0.834000       15.9994           0
     42899 TIP3     1168     TIP3     H1       HT       0.417000       1.00800           0
     42900 TIP3     1168     TIP3     H2       HT       0.417000       1.00800           0
     42901 TIP3     1169     TIP3     OH2      OT      -0.834000       15.9994           0
     42902 TIP3     1169     TIP3     H1       HT       0.417000       1.00800           0
     42903 TIP3     1169     TIP3     H2       HT       0.417000       1.00800           0
     42904 TIP3     1170     TIP3     OH2      OT      -0.834000       15.9994           0
     42905 TIP3     1170     TIP3     H1       HT       0.417000       1.00800           0
     42906 TIP3     1170     TIP3     H2       HT       0.417000       1.00800           0
     42907 TIP3     1171     TIP3     OH2      OT      -0.834000       15.9994           0
     42908 TIP3     1171     TIP3     H1       HT       0.417000       1.00800           0
     42909 TIP3     1171     TIP3     H2       HT       0.417000       1.00800           0
     42910 TIP3     1172     TIP3     OH2      OT      -0.834000       15.9994           0
     42911 TIP3     1172     TIP3     H1       HT       0.417000       1.00800           0
     42912 TIP3     1172     TIP3     H2       HT       0.417000       1.00800           0
     42913 TIP3     1173     TIP3     OH2      OT      -0.834000       15.9994           0
     42914 TIP3     1173     TIP3     H1       HT       0.417000       1.00800           0
     42915 TIP3     1173     TIP3     H2       HT       0.417000       1.00800           0
     42916 TIP3     1174     TIP3     OH2      OT      -0.834000       15.9994           0
     42917 TIP3     1174     TIP3     H1       HT       0.417000       1.00800           0
     42918 TIP3     1174     TIP3     H2       HT       0.417000       1.00800           0
     42919 TIP3     1175     TIP3     OH2      OT      -0.834000       15.9994           0
     42920 TIP3     1175     TIP3     H1       HT       0.417000       1.00800           0
     42921 TIP3     1175     TIP3     H2       HT       0.417000       1.00800           0
     42922 TIP3     1176     TIP3     OH2      OT      -0.834000       15.9994           0
     42923 TIP3     1176     TIP3     H1       HT       0.417000       1.00800           0
     42924 TIP3     1176     TIP3     H2       HT       0.417000       1.00800           0
     42925 TIP3     1177     TIP3     OH2      OT      -0.834000       15.9994           0
     42926 TIP3     1177     TIP3     H1       HT       0.417000       1.00800           0
     42927 TIP3     1177     TIP3     H2       HT       0.417000       1.00800           0
     42928 TIP3     1178     TIP3     OH2      OT      -0.834000       15.9994           0
     42929 TIP3     1178     TIP3     H1       HT       0.417000       1.00800           0
     42930 TIP3     1178     TIP3     H2       HT       0.417000       1.00800           0
     42931 TIP3     1179     TIP3     OH2      OT      -0.834000       15.9994           0
     42932 TIP3     1179     TIP3     H1       HT       0.417000       1.00800           0
     42933 TIP3     1179     TIP3     H2       HT       0.417000       1.00800           0
     42934 TIP3     1180     TIP3     OH2      OT      -0.834000       15.9994           0
     42935 TIP3     1180     TIP3     H1       HT       0.417000       1.00800           0
     42936 TIP3     1180     TIP3     H2       HT       0.417000       1.00800           0
     42937 TIP3     1181     TIP3     OH2      OT      -0.834000       15.9994           0
     42938 TIP3     1181     TIP3     H1       HT       0.417000       1.00800           0
     42939 TIP3     1181     TIP3     H2       HT       0.417000       1.00800           0
     42940 TIP3     1182     TIP3     OH2      OT      -0.834000       15.9994           0
     42941 TIP3     1182     TIP3     H1       HT       0.417000       1.00800           0
     42942 TIP3     1182     TIP3     H2       HT       0.417000       1.00800           0
     42943 TIP3     1183     TIP3     OH2      OT      -0.834000       15.9994           0
     42944 TIP3     1183     TIP3     H1       HT       0.417000       1.00800           0
     42945 TIP3     1183     TIP3     H2       HT       0.417000       1.00800           0
     42946 TIP3     1184     TIP3     OH2      OT      -0.834000       15.9994           0
     42947 TIP3     1184     TIP3     H1       HT       0.417000       1.00800           0
     42948 TIP3     1184     TIP3     H2       HT       0.417000       1.00800           0
     42949 TIP3     1185     TIP3     OH2      OT      -0.834000       15.9994           0
     42950 TIP3     1185     TIP3     H1       HT       0.417000       1.00800           0
     42951 TIP3     1185     TIP3     H2       HT       0.417000       1.00800           0
     42952 TIP3     1186     TIP3     OH2      OT      -0.834000       15.9994           0
     42953 TIP3     1186     TIP3     H1       HT       0.417000       1.00800           0
     42954 TIP3     1186     TIP3     H2       HT       0.417000       1.00800           0
     42955 TIP3     1187     TIP3     OH2      OT      -0.834000       15.9994           0
     42956 TIP3     1187     TIP3     H1       HT       0.417000       1.00800           0
     42957 TIP3     1187     TIP3     H2       HT       0.417000       1.00800           0
     42958 TIP3     1188     TIP3     OH2      OT      -0.834000       15.9994           0
     42959 TIP3     1188     TIP3     H1       HT       0.417000       1.00800           0
     42960 TIP3     1188     TIP3     H2       HT       0.417000       1.00800           0
     42961 TIP3     1189     TIP3     OH2      OT      -0.834000       15.9994           0
     42962 TIP3     1189     TIP3     H1       HT       0.417000       1.00800           0
     42963 TIP3     1189     TIP3     H2       HT       0.417000       1.00800           0
     42964 TIP3     1190     TIP3     OH2      OT      -0.834000       15.9994           0
     42965 TIP3     1190     TIP3     H1       HT       0.417000       1.00800           0
     42966 TIP3     1190     TIP3     H2       HT       0.417000       1.00800           0
     42967 TIP3     1191     TIP3     OH2      OT      -0.834000       15.9994           0
     42968 TIP3     1191     TIP3     H1       HT       0.417000       1.00800           0
     42969 TIP3     1191     TIP3     H2       HT       0.417000       1.00800           0
     42970 TIP3     1192     TIP3     OH2      OT      -0.834000       15.9994           0
     42971 TIP3     1192     TIP3     H1       HT       0.417000       1.00800           0
     42972 TIP3     1192     TIP3     H2       HT       0.417000       1.00800           0
     42973 TIP3     1193     TIP3     OH2      OT      -0.834000       15.9994           0
     42974 TIP3     1193     TIP3     H1       HT       0.417000       1.00800           0
     42975 TIP3     1193     TIP3     H2       HT       0.417000       1.00800           0
     42976 TIP3     1194     TIP3     OH2      OT      -0.834000       15.9994           0
     42977 TIP3     1194     TIP3     H1       HT       0.417000       1.00800           0
     42978 TIP3     1194     TIP3     H2       HT       0.417000       1.00800           0
     42979 TIP3     1195     TIP3     OH2      OT      -0.834000       15.9994           0
     42980 TIP3     1195     TIP3     H1       HT       0.417000       1.00800           0
     42981 TIP3     1195     TIP3     H2       HT       0.417000       1.00800           0
     42982 TIP3     1196     TIP3     OH2      OT      -0.834000       15.9994           0
     42983 TIP3     1196     TIP3     H1       HT       0.417000       1.00800           0
     42984 TIP3     1196     TIP3     H2       HT       0.417000       1.00800           0
     42985 TIP3     1197     TIP3     OH2      OT      -0.834000       15.9994           0
     42986 TIP3     1197     TIP3     H1       HT       0.417000       1.00800           0
     42987 TIP3     1197     TIP3     H2       HT       0.417000       1.00800           0
     42988 TIP3     1198     TIP3     OH2      OT      -0.834000       15.9994           0
     42989 TIP3     1198     TIP3     H1       HT       0.417000       1.00800           0
     42990 TIP3     1198     TIP3     H2       HT       0.417000       1.00800           0
     42991 TIP3     1199     TIP3     OH2      OT      -0.834000       15.9994           0
     42992 TIP3     1199     TIP3     H1       HT       0.417000       1.00800           0
     42993 TIP3     1199     TIP3     H2       HT       0.417000       1.00800           0
     42994 TIP3     1200     TIP3     OH2      OT      -0.834000       15.9994           0
     42995 TIP3     1200     TIP3     H1       HT       0.417000       1.00800           0
     42996 TIP3     1200     TIP3     H2       HT       0.417000       1.00800           0
     42997 TIP3     1201     TIP3     OH2      OT      -0.834000       15.9994           0
     42998 TIP3     1201     TIP3     H1       HT       0.417000       1.00800           0
     42999 TIP3     1201     TIP3     H2       HT       0.417000       1.00800           0
     43000 TIP3     1202     TIP3     OH2      OT      -0.834000       15.9994           0
     43001 TIP3     1202     TIP3     H1       HT       0.417000       1.00800           0
     43002 TIP3     1202     TIP3     H2       HT       0.417000       1.00800           0
     43003 TIP3     1203     TIP3     OH2      OT      -0.834000       15.9994           0
     43004 TIP3     1203     TIP3     H1       HT       0.417000       1.00800           0
     43005 TIP3     1203     TIP3     H2       HT       0.417000       1.00800           0
     43006 TIP3     1204     TIP3     OH2      OT      -0.834000       15.9994           0
     43007 TIP3     1204     TIP3     H1       HT       0.417000       1.00800           0
     43008 TIP3     1204     TIP3     H2       HT       0.417000       1.00800           0
     43009 TIP3     1205     TIP3     OH2      OT      -0.834000       15.9994           0
     43010 TIP3     1205     TIP3     H1       HT       0.417000       1.00800           0
     43011 TIP3     1205     TIP3     H2       HT       0.417000       1.00800           0
     43012 TIP3     1206     TIP3     OH2      OT      -0.834000       15.9994           0
     43013 TIP3     1206     TIP3     H1       HT       0.417000       1.00800           0
     43014 TIP3     1206     TIP3     H2       HT       0.417000       1.00800           0
     43015 TIP3     1207     TIP3     OH2      OT      -0.834000       15.9994           0
     43016 TIP3     1207     TIP3     H1       HT       0.417000       1.00800           0
     43017 TIP3     1207     TIP3     H2       HT       0.417000       1.00800           0
     43018 TIP3     1208     TIP3     OH2      OT      -0.834000       15.9994           0
     43019 TIP3     1208     TIP3     H1       HT       0.417000       1.00800           0
     43020 TIP3     1208     TIP3     H2       HT       0.417000       1.00800           0
     43021 TIP3     1209     TIP3     OH2      OT      -0.834000       15.9994           0
     43022 TIP3     1209     TIP3     H1       HT       0.417000       1.00800           0
     43023 TIP3     1209     TIP3     H2       HT       0.417000       1.00800           0
     43024 TIP3     1210     TIP3     OH2      OT      -0.834000       15.9994           0
     43025 TIP3     1210     TIP3     H1       HT       0.417000       1.00800           0
     43026 TIP3     1210     TIP3     H2       HT       0.417000       1.00800           0
     43027 TIP3     1211     TIP3     OH2      OT      -0.834000       15.9994           0
     43028 TIP3     1211     TIP3     H1       HT       0.417000       1.00800           0
     43029 TIP3     1211     TIP3     H2       HT       0.417000       1.00800           0
     43030 TIP3     1212     TIP3     OH2      OT      -0.834000       15.9994           0
     43031 TIP3     1212     TIP3     H1       HT       0.417000       1.00800           0
     43032 TIP3     1212     TIP3     H2       HT       0.417000       1.00800           0
     43033 TIP3     1213     TIP3     OH2      OT      -0.834000       15.9994           0
     43034 TIP3     1213     TIP3     H1       HT       0.417000       1.00800           0
     43035 TIP3     1213     TIP3     H2       HT       0.417000       1.00800           0
     43036 TIP3     1214     TIP3     OH2      OT      -0.834000       15.9994           0
     43037 TIP3     1214     TIP3     H1       HT       0.417000       1.00800           0
     43038 TIP3     1214     TIP3     H2       HT       0.417000       1.00800           0
     43039 TIP3     1215     TIP3     OH2      OT      -0.834000       15.9994           0
     43040 TIP3     1215     TIP3     H1       HT       0.417000       1.00800           0
     43041 TIP3     1215     TIP3     H2       HT       0.417000       1.00800           0
     43042 TIP3     1216     TIP3     OH2      OT      -0.834000       15.9994           0
     43043 TIP3     1216     TIP3     H1       HT       0.417000       1.00800           0
     43044 TIP3     1216     TIP3     H2       HT       0.417000       1.00800           0
     43045 TIP3     1217     TIP3     OH2      OT      -0.834000       15.9994           0
     43046 TIP3     1217     TIP3     H1       HT       0.417000       1.00800           0
     43047 TIP3     1217     TIP3     H2       HT       0.417000       1.00800           0
     43048 TIP3     1218     TIP3     OH2      OT      -0.834000       15.9994           0
     43049 TIP3     1218     TIP3     H1       HT       0.417000       1.00800           0
     43050 TIP3     1218     TIP3     H2       HT       0.417000       1.00800           0
     43051 TIP3     1219     TIP3     OH2      OT      -0.834000       15.9994           0
     43052 TIP3     1219     TIP3     H1       HT       0.417000       1.00800           0
     43053 TIP3     1219     TIP3     H2       HT       0.417000       1.00800           0
     43054 TIP3     1220     TIP3     OH2      OT      -0.834000       15.9994           0
     43055 TIP3     1220     TIP3     H1       HT       0.417000       1.00800           0
     43056 TIP3     1220     TIP3     H2       HT       0.417000       1.00800           0
     43057 TIP3     1221     TIP3     OH2      OT      -0.834000       15.9994           0
     43058 TIP3     1221     TIP3     H1       HT       0.417000       1.00800           0
     43059 TIP3     1221     TIP3     H2       HT       0.417000       1.00800           0
     43060 TIP3     1222     TIP3     OH2      OT      -0.834000       15.9994           0
     43061 TIP3     1222     TIP3     H1       HT       0.417000       1.00800           0
     43062 TIP3     1222     TIP3     H2       HT       0.417000       1.00800           0
     43063 TIP3     1223     TIP3     OH2      OT      -0.834000       15.9994           0
     43064 TIP3     1223     TIP3     H1       HT       0.417000       1.00800           0
     43065 TIP3     1223     TIP3     H2       HT       0.417000       1.00800           0
     43066 TIP3     1224     TIP3     OH2      OT      -0.834000       15.9994           0
     43067 TIP3     1224     TIP3     H1       HT       0.417000       1.00800           0
     43068 TIP3     1224     TIP3     H2       HT       0.417000       1.00800           0
     43069 TIP3     1225     TIP3     OH2      OT      -0.834000       15.9994           0
     43070 TIP3     1225     TIP3     H1       HT       0.417000       1.00800           0
     43071 TIP3     1225     TIP3     H2       HT       0.417000       1.00800           0
     43072 TIP3     1226     TIP3     OH2      OT      -0.834000       15.9994           0
     43073 TIP3     1226     TIP3     H1       HT       0.417000       1.00800           0
     43074 TIP3     1226     TIP3     H2       HT       0.417000       1.00800           0
     43075 TIP3     1227     TIP3     OH2      OT      -0.834000       15.9994           0
     43076 TIP3     1227     TIP3     H1       HT       0.417000       1.00800           0
     43077 TIP3     1227     TIP3     H2       HT       0.417000       1.00800           0
     43078 TIP3     1228     TIP3     OH2      OT      -0.834000       15.9994           0
     43079 TIP3     1228     TIP3     H1       HT       0.417000       1.00800           0
     43080 TIP3     1228     TIP3     H2       HT       0.417000       1.00800           0
     43081 TIP3     1229     TIP3     OH2      OT      -0.834000       15.9994           0
     43082 TIP3     1229     TIP3     H1       HT       0.417000       1.00800           0
     43083 TIP3     1229     TIP3     H2       HT       0.417000       1.00800           0
     43084 TIP3     1230     TIP3     OH2      OT      -0.834000       15.9994           0
     43085 TIP3     1230     TIP3     H1       HT       0.417000       1.00800           0
     43086 TIP3     1230     TIP3     H2       HT       0.417000       1.00800           0
     43087 TIP3     1231     TIP3     OH2      OT      -0.834000       15.9994           0
     43088 TIP3     1231     TIP3     H1       HT       0.417000       1.00800           0
     43089 TIP3     1231     TIP3     H2       HT       0.417000       1.00800           0
     43090 TIP3     1232     TIP3     OH2      OT      -0.834000       15.9994           0
     43091 TIP3     1232     TIP3     H1       HT       0.417000       1.00800           0
     43092 TIP3     1232     TIP3     H2       HT       0.417000       1.00800           0
     43093 TIP3     1233     TIP3     OH2      OT      -0.834000       15.9994           0
     43094 TIP3     1233     TIP3     H1       HT       0.417000       1.00800           0
     43095 TIP3     1233     TIP3     H2       HT       0.417000       1.00800           0
     43096 TIP3     1234     TIP3     OH2      OT      -0.834000       15.9994           0
     43097 TIP3     1234     TIP3     H1       HT       0.417000       1.00800           0
     43098 TIP3     1234     TIP3     H2       HT       0.417000       1.00800           0
     43099 TIP3     1235     TIP3     OH2      OT      -0.834000       15.9994           0
     43100 TIP3     1235     TIP3     H1       HT       0.417000       1.00800           0
     43101 TIP3     1235     TIP3     H2       HT       0.417000       1.00800           0
     43102 TIP3     1236     TIP3     OH2      OT      -0.834000       15.9994           0
     43103 TIP3     1236     TIP3     H1       HT       0.417000       1.00800           0
     43104 TIP3     1236     TIP3     H2       HT       0.417000       1.00800           0
     43105 TIP3     1237     TIP3     OH2      OT      -0.834000       15.9994           0
     43106 TIP3     1237     TIP3     H1       HT       0.417000       1.00800           0
     43107 TIP3     1237     TIP3     H2       HT       0.417000       1.00800           0
     43108 TIP3     1238     TIP3     OH2      OT      -0.834000       15.9994           0
     43109 TIP3     1238     TIP3     H1       HT       0.417000       1.00800           0
     43110 TIP3     1238     TIP3     H2       HT       0.417000       1.00800           0
     43111 TIP3     1239     TIP3     OH2      OT      -0.834000       15.9994           0
     43112 TIP3     1239     TIP3     H1       HT       0.417000       1.00800           0
     43113 TIP3     1239     TIP3     H2       HT       0.417000       1.00800           0
     43114 TIP3     1240     TIP3     OH2      OT      -0.834000       15.9994           0
     43115 TIP3     1240     TIP3     H1       HT       0.417000       1.00800           0
     43116 TIP3     1240     TIP3     H2       HT       0.417000       1.00800           0
     43117 TIP3     1241     TIP3     OH2      OT      -0.834000       15.9994           0
     43118 TIP3     1241     TIP3     H1       HT       0.417000       1.00800           0
     43119 TIP3     1241     TIP3     H2       HT       0.417000       1.00800           0
     43120 TIP3     1242     TIP3     OH2      OT      -0.834000       15.9994           0
     43121 TIP3     1242     TIP3     H1       HT       0.417000       1.00800           0
     43122 TIP3     1242     TIP3     H2       HT       0.417000       1.00800           0
     43123 TIP3     1243     TIP3     OH2      OT      -0.834000       15.9994           0
     43124 TIP3     1243     TIP3     H1       HT       0.417000       1.00800           0
     43125 TIP3     1243     TIP3     H2       HT       0.417000       1.00800           0
     43126 TIP3     1244     TIP3     OH2      OT      -0.834000       15.9994           0
     43127 TIP3     1244     TIP3     H1       HT       0.417000       1.00800           0
     43128 TIP3     1244     TIP3     H2       HT       0.417000       1.00800           0
     43129 TIP3     1245     TIP3     OH2      OT      -0.834000       15.9994           0
     43130 TIP3     1245     TIP3     H1       HT       0.417000       1.00800           0
     43131 TIP3     1245     TIP3     H2       HT       0.417000       1.00800           0
     43132 TIP3     1246     TIP3     OH2      OT      -0.834000       15.9994           0
     43133 TIP3     1246     TIP3     H1       HT       0.417000       1.00800           0
     43134 TIP3     1246     TIP3     H2       HT       0.417000       1.00800           0
     43135 TIP3     1247     TIP3     OH2      OT      -0.834000       15.9994           0
     43136 TIP3     1247     TIP3     H1       HT       0.417000       1.00800           0
     43137 TIP3     1247     TIP3     H2       HT       0.417000       1.00800           0
     43138 TIP3     1248     TIP3     OH2      OT      -0.834000       15.9994           0
     43139 TIP3     1248     TIP3     H1       HT       0.417000       1.00800           0
     43140 TIP3     1248     TIP3     H2       HT       0.417000       1.00800           0
     43141 TIP3     1249     TIP3     OH2      OT      -0.834000       15.9994           0
     43142 TIP3     1249     TIP3     H1       HT       0.417000       1.00800           0
     43143 TIP3     1249     TIP3     H2       HT       0.417000       1.00800           0
     43144 TIP3     1250     TIP3     OH2      OT      -0.834000       15.9994           0
     43145 TIP3     1250     TIP3     H1       HT       0.417000       1.00800           0
     43146 TIP3     1250     TIP3     H2       HT       0.417000       1.00800           0
     43147 TIP3     1251     TIP3     OH2      OT      -0.834000       15.9994           0
     43148 TIP3     1251     TIP3     H1       HT       0.417000       1.00800           0
     43149 TIP3     1251     TIP3     H2       HT       0.417000       1.00800           0
     43150 TIP3     1252     TIP3     OH2      OT      -0.834000       15.9994           0
     43151 TIP3     1252     TIP3     H1       HT       0.417000       1.00800           0
     43152 TIP3     1252     TIP3     H2       HT       0.417000       1.00800           0
     43153 TIP3     1253     TIP3     OH2      OT      -0.834000       15.9994           0
     43154 TIP3     1253     TIP3     H1       HT       0.417000       1.00800           0
     43155 TIP3     1253     TIP3     H2       HT       0.417000       1.00800           0
     43156 TIP3     1254     TIP3     OH2      OT      -0.834000       15.9994           0
     43157 TIP3     1254     TIP3     H1       HT       0.417000       1.00800           0
     43158 TIP3     1254     TIP3     H2       HT       0.417000       1.00800           0
     43159 TIP3     1255     TIP3     OH2      OT      -0.834000       15.9994           0
     43160 TIP3     1255     TIP3     H1       HT       0.417000       1.00800           0
     43161 TIP3     1255     TIP3     H2       HT       0.417000       1.00800           0
     43162 TIP3     1256     TIP3     OH2      OT      -0.834000       15.9994           0
     43163 TIP3     1256     TIP3     H1       HT       0.417000       1.00800           0
     43164 TIP3     1256     TIP3     H2       HT       0.417000       1.00800           0
     43165 TIP3     1257     TIP3     OH2      OT      -0.834000       15.9994           0
     43166 TIP3     1257     TIP3     H1       HT       0.417000       1.00800           0
     43167 TIP3     1257     TIP3     H2       HT       0.417000       1.00800           0
     43168 TIP3     1258     TIP3     OH2      OT      -0.834000       15.9994           0
     43169 TIP3     1258     TIP3     H1       HT       0.417000       1.00800           0
     43170 TIP3     1258     TIP3     H2       HT       0.417000       1.00800           0
     43171 TIP3     1259     TIP3     OH2      OT      -0.834000       15.9994           0
     43172 TIP3     1259     TIP3     H1       HT       0.417000       1.00800           0
     43173 TIP3     1259     TIP3     H2       HT       0.417000       1.00800           0
     43174 TIP3     1260     TIP3     OH2      OT      -0.834000       15.9994           0
     43175 TIP3     1260     TIP3     H1       HT       0.417000       1.00800           0
     43176 TIP3     1260     TIP3     H2       HT       0.417000       1.00800           0
     43177 TIP3     1261     TIP3     OH2      OT      -0.834000       15.9994           0
     43178 TIP3     1261     TIP3     H1       HT       0.417000       1.00800           0
     43179 TIP3     1261     TIP3     H2       HT       0.417000       1.00800           0
     43180 TIP3     1262     TIP3     OH2      OT      -0.834000       15.9994           0
     43181 TIP3     1262     TIP3     H1       HT       0.417000       1.00800           0
     43182 TIP3     1262     TIP3     H2       HT       0.417000       1.00800           0
     43183 TIP3     1263     TIP3     OH2      OT      -0.834000       15.9994           0
     43184 TIP3     1263     TIP3     H1       HT       0.417000       1.00800           0
     43185 TIP3     1263     TIP3     H2       HT       0.417000       1.00800           0
     43186 TIP3     1264     TIP3     OH2      OT      -0.834000       15.9994           0
     43187 TIP3     1264     TIP3     H1       HT       0.417000       1.00800           0
     43188 TIP3     1264     TIP3     H2       HT       0.417000       1.00800           0
     43189 TIP3     1265     TIP3     OH2      OT      -0.834000       15.9994           0
     43190 TIP3     1265     TIP3     H1       HT       0.417000       1.00800           0
     43191 TIP3     1265     TIP3     H2       HT       0.417000       1.00800           0
     43192 TIP3     1266     TIP3     OH2      OT      -0.834000       15.9994           0
     43193 TIP3     1266     TIP3     H1       HT       0.417000       1.00800           0
     43194 TIP3     1266     TIP3     H2       HT       0.417000       1.00800           0
     43195 TIP3     1267     TIP3     OH2      OT      -0.834000       15.9994           0
     43196 TIP3     1267     TIP3     H1       HT       0.417000       1.00800           0
     43197 TIP3     1267     TIP3     H2       HT       0.417000       1.00800           0
     43198 TIP3     1268     TIP3     OH2      OT      -0.834000       15.9994           0
     43199 TIP3     1268     TIP3     H1       HT       0.417000       1.00800           0
     43200 TIP3     1268     TIP3     H2       HT       0.417000       1.00800           0
     43201 TIP3     1269     TIP3     OH2      OT      -0.834000       15.9994           0
     43202 TIP3     1269     TIP3     H1       HT       0.417000       1.00800           0
     43203 TIP3     1269     TIP3     H2       HT       0.417000       1.00800           0
     43204 TIP3     1270     TIP3     OH2      OT      -0.834000       15.9994           0
     43205 TIP3     1270     TIP3     H1       HT       0.417000       1.00800           0
     43206 TIP3     1270     TIP3     H2       HT       0.417000       1.00800           0
     43207 TIP3     1271     TIP3     OH2      OT      -0.834000       15.9994           0
     43208 TIP3     1271     TIP3     H1       HT       0.417000       1.00800           0
     43209 TIP3     1271     TIP3     H2       HT       0.417000       1.00800           0
     43210 TIP3     1272     TIP3     OH2      OT      -0.834000       15.9994           0
     43211 TIP3     1272     TIP3     H1       HT       0.417000       1.00800           0
     43212 TIP3     1272     TIP3     H2       HT       0.417000       1.00800           0
     43213 TIP3     1273     TIP3     OH2      OT      -0.834000       15.9994           0
     43214 TIP3     1273     TIP3     H1       HT       0.417000       1.00800           0
     43215 TIP3     1273     TIP3     H2       HT       0.417000       1.00800           0
     43216 TIP3     1274     TIP3     OH2      OT      -0.834000       15.9994           0
     43217 TIP3     1274     TIP3     H1       HT       0.417000       1.00800           0
     43218 TIP3     1274     TIP3     H2       HT       0.417000       1.00800           0
     43219 TIP3     1275     TIP3     OH2      OT      -0.834000       15.9994           0
     43220 TIP3     1275     TIP3     H1       HT       0.417000       1.00800           0
     43221 TIP3     1275     TIP3     H2       HT       0.417000       1.00800           0
     43222 TIP3     1276     TIP3     OH2      OT      -0.834000       15.9994           0
     43223 TIP3     1276     TIP3     H1       HT       0.417000       1.00800           0
     43224 TIP3     1276     TIP3     H2       HT       0.417000       1.00800           0
     43225 TIP3     1277     TIP3     OH2      OT      -0.834000       15.9994           0
     43226 TIP3     1277     TIP3     H1       HT       0.417000       1.00800           0
     43227 TIP3     1277     TIP3     H2       HT       0.417000       1.00800           0
     43228 TIP3     1278     TIP3     OH2      OT      -0.834000       15.9994           0
     43229 TIP3     1278     TIP3     H1       HT       0.417000       1.00800           0
     43230 TIP3     1278     TIP3     H2       HT       0.417000       1.00800           0
     43231 TIP3     1279     TIP3     OH2      OT      -0.834000       15.9994           0
     43232 TIP3     1279     TIP3     H1       HT       0.417000       1.00800           0
     43233 TIP3     1279     TIP3     H2       HT       0.417000       1.00800           0
     43234 TIP3     1280     TIP3     OH2      OT      -0.834000       15.9994           0
     43235 TIP3     1280     TIP3     H1       HT       0.417000       1.00800           0
     43236 TIP3     1280     TIP3     H2       HT       0.417000       1.00800           0
     43237 TIP3     1281     TIP3     OH2      OT      -0.834000       15.9994           0
     43238 TIP3     1281     TIP3     H1       HT       0.417000       1.00800           0
     43239 TIP3     1281     TIP3     H2       HT       0.417000       1.00800           0
     43240 TIP3     1282     TIP3     OH2      OT      -0.834000       15.9994           0
     43241 TIP3     1282     TIP3     H1       HT       0.417000       1.00800           0
     43242 TIP3     1282     TIP3     H2       HT       0.417000       1.00800           0
     43243 TIP3     1283     TIP3     OH2      OT      -0.834000       15.9994           0
     43244 TIP3     1283     TIP3     H1       HT       0.417000       1.00800           0
     43245 TIP3     1283     TIP3     H2       HT       0.417000       1.00800           0
     43246 TIP3     1284     TIP3     OH2      OT      -0.834000       15.9994           0
     43247 TIP3     1284     TIP3     H1       HT       0.417000       1.00800           0
     43248 TIP3     1284     TIP3     H2       HT       0.417000       1.00800           0
     43249 TIP3     1285     TIP3     OH2      OT      -0.834000       15.9994           0
     43250 TIP3     1285     TIP3     H1       HT       0.417000       1.00800           0
     43251 TIP3     1285     TIP3     H2       HT       0.417000       1.00800           0
     43252 TIP3     1286     TIP3     OH2      OT      -0.834000       15.9994           0
     43253 TIP3     1286     TIP3     H1       HT       0.417000       1.00800           0
     43254 TIP3     1286     TIP3     H2       HT       0.417000       1.00800           0
     43255 TIP3     1287     TIP3     OH2      OT      -0.834000       15.9994           0
     43256 TIP3     1287     TIP3     H1       HT       0.417000       1.00800           0
     43257 TIP3     1287     TIP3     H2       HT       0.417000       1.00800           0
     43258 TIP3     1288     TIP3     OH2      OT      -0.834000       15.9994           0
     43259 TIP3     1288     TIP3     H1       HT       0.417000       1.00800           0
     43260 TIP3     1288     TIP3     H2       HT       0.417000       1.00800           0
     43261 TIP3     1289     TIP3     OH2      OT      -0.834000       15.9994           0
     43262 TIP3     1289     TIP3     H1       HT       0.417000       1.00800           0
     43263 TIP3     1289     TIP3     H2       HT       0.417000       1.00800           0
     43264 TIP3     1290     TIP3     OH2      OT      -0.834000       15.9994           0
     43265 TIP3     1290     TIP3     H1       HT       0.417000       1.00800           0
     43266 TIP3     1290     TIP3     H2       HT       0.417000       1.00800           0
     43267 TIP3     1291     TIP3     OH2      OT      -0.834000       15.9994           0
     43268 TIP3     1291     TIP3     H1       HT       0.417000       1.00800           0
     43269 TIP3     1291     TIP3     H2       HT       0.417000       1.00800           0
     43270 TIP3     1292     TIP3     OH2      OT      -0.834000       15.9994           0
     43271 TIP3     1292     TIP3     H1       HT       0.417000       1.00800           0
     43272 TIP3     1292     TIP3     H2       HT       0.417000       1.00800           0
     43273 TIP3     1293     TIP3     OH2      OT      -0.834000       15.9994           0
     43274 TIP3     1293     TIP3     H1       HT       0.417000       1.00800           0
     43275 TIP3     1293     TIP3     H2       HT       0.417000       1.00800           0
     43276 TIP3     1294     TIP3     OH2      OT      -0.834000       15.9994           0
     43277 TIP3     1294     TIP3     H1       HT       0.417000       1.00800           0
     43278 TIP3     1294     TIP3     H2       HT       0.417000       1.00800           0
     43279 TIP3     1295     TIP3     OH2      OT      -0.834000       15.9994           0
     43280 TIP3     1295     TIP3     H1       HT       0.417000       1.00800           0
     43281 TIP3     1295     TIP3     H2       HT       0.417000       1.00800           0
     43282 TIP3     1296     TIP3     OH2      OT      -0.834000       15.9994           0
     43283 TIP3     1296     TIP3     H1       HT       0.417000       1.00800           0
     43284 TIP3     1296     TIP3     H2       HT       0.417000       1.00800           0
     43285 TIP3     1297     TIP3     OH2      OT      -0.834000       15.9994           0
     43286 TIP3     1297     TIP3     H1       HT       0.417000       1.00800           0
     43287 TIP3     1297     TIP3     H2       HT       0.417000       1.00800           0
     43288 TIP3     1298     TIP3     OH2      OT      -0.834000       15.9994           0
     43289 TIP3     1298     TIP3     H1       HT       0.417000       1.00800           0
     43290 TIP3     1298     TIP3     H2       HT       0.417000       1.00800           0
     43291 TIP3     1299     TIP3     OH2      OT      -0.834000       15.9994           0
     43292 TIP3     1299     TIP3     H1       HT       0.417000       1.00800           0
     43293 TIP3     1299     TIP3     H2       HT       0.417000       1.00800           0
     43294 TIP3     1300     TIP3     OH2      OT      -0.834000       15.9994           0
     43295 TIP3     1300     TIP3     H1       HT       0.417000       1.00800           0
     43296 TIP3     1300     TIP3     H2       HT       0.417000       1.00800           0
     43297 TIP3     1301     TIP3     OH2      OT      -0.834000       15.9994           0
     43298 TIP3     1301     TIP3     H1       HT       0.417000       1.00800           0
     43299 TIP3     1301     TIP3     H2       HT       0.417000       1.00800           0
     43300 TIP3     1302     TIP3     OH2      OT      -0.834000       15.9994           0
     43301 TIP3     1302     TIP3     H1       HT       0.417000       1.00800           0
     43302 TIP3     1302     TIP3     H2       HT       0.417000       1.00800           0
     43303 TIP3     1303     TIP3     OH2      OT      -0.834000       15.9994           0
     43304 TIP3     1303     TIP3     H1       HT       0.417000       1.00800           0
     43305 TIP3     1303     TIP3     H2       HT       0.417000       1.00800           0
     43306 TIP3     1304     TIP3     OH2      OT      -0.834000       15.9994           0
     43307 TIP3     1304     TIP3     H1       HT       0.417000       1.00800           0
     43308 TIP3     1304     TIP3     H2       HT       0.417000       1.00800           0
     43309 TIP3     1305     TIP3     OH2      OT      -0.834000       15.9994           0
     43310 TIP3     1305     TIP3     H1       HT       0.417000       1.00800           0
     43311 TIP3     1305     TIP3     H2       HT       0.417000       1.00800           0
     43312 TIP3     1306     TIP3     OH2      OT      -0.834000       15.9994           0
     43313 TIP3     1306     TIP3     H1       HT       0.417000       1.00800           0
     43314 TIP3     1306     TIP3     H2       HT       0.417000       1.00800           0
     43315 TIP3     1307     TIP3     OH2      OT      -0.834000       15.9994           0
     43316 TIP3     1307     TIP3     H1       HT       0.417000       1.00800           0
     43317 TIP3     1307     TIP3     H2       HT       0.417000       1.00800           0
     43318 TIP3     1308     TIP3     OH2      OT      -0.834000       15.9994           0
     43319 TIP3     1308     TIP3     H1       HT       0.417000       1.00800           0
     43320 TIP3     1308     TIP3     H2       HT       0.417000       1.00800           0
     43321 TIP3     1309     TIP3     OH2      OT      -0.834000       15.9994           0
     43322 TIP3     1309     TIP3     H1       HT       0.417000       1.00800           0
     43323 TIP3     1309     TIP3     H2       HT       0.417000       1.00800           0
     43324 TIP3     1310     TIP3     OH2      OT      -0.834000       15.9994           0
     43325 TIP3     1310     TIP3     H1       HT       0.417000       1.00800           0
     43326 TIP3     1310     TIP3     H2       HT       0.417000       1.00800           0
     43327 TIP3     1311     TIP3     OH2      OT      -0.834000       15.9994           0
     43328 TIP3     1311     TIP3     H1       HT       0.417000       1.00800           0
     43329 TIP3     1311     TIP3     H2       HT       0.417000       1.00800           0
     43330 TIP3     1312     TIP3     OH2      OT      -0.834000       15.9994           0
     43331 TIP3     1312     TIP3     H1       HT       0.417000       1.00800           0
     43332 TIP3     1312     TIP3     H2       HT       0.417000       1.00800           0
     43333 TIP3     1313     TIP3     OH2      OT      -0.834000       15.9994           0
     43334 TIP3     1313     TIP3     H1       HT       0.417000       1.00800           0
     43335 TIP3     1313     TIP3     H2       HT       0.417000       1.00800           0
     43336 TIP3     1314     TIP3     OH2      OT      -0.834000       15.9994           0
     43337 TIP3     1314     TIP3     H1       HT       0.417000       1.00800           0
     43338 TIP3     1314     TIP3     H2       HT       0.417000       1.00800           0
     43339 TIP3     1315     TIP3     OH2      OT      -0.834000       15.9994           0
     43340 TIP3     1315     TIP3     H1       HT       0.417000       1.00800           0
     43341 TIP3     1315     TIP3     H2       HT       0.417000       1.00800           0
     43342 TIP3     1316     TIP3     OH2      OT      -0.834000       15.9994           0
     43343 TIP3     1316     TIP3     H1       HT       0.417000       1.00800           0
     43344 TIP3     1316     TIP3     H2       HT       0.417000       1.00800           0
     43345 TIP3     1317     TIP3     OH2      OT      -0.834000       15.9994           0
     43346 TIP3     1317     TIP3     H1       HT       0.417000       1.00800           0
     43347 TIP3     1317     TIP3     H2       HT       0.417000       1.00800           0
     43348 TIP3     1318     TIP3     OH2      OT      -0.834000       15.9994           0
     43349 TIP3     1318     TIP3     H1       HT       0.417000       1.00800           0
     43350 TIP3     1318     TIP3     H2       HT       0.417000       1.00800           0
     43351 TIP3     1319     TIP3     OH2      OT      -0.834000       15.9994           0
     43352 TIP3     1319     TIP3     H1       HT       0.417000       1.00800           0
     43353 TIP3     1319     TIP3     H2       HT       0.417000       1.00800           0
     43354 TIP3     1320     TIP3     OH2      OT      -0.834000       15.9994           0
     43355 TIP3     1320     TIP3     H1       HT       0.417000       1.00800           0
     43356 TIP3     1320     TIP3     H2       HT       0.417000       1.00800           0
     43357 TIP3     1321     TIP3     OH2      OT      -0.834000       15.9994           0
     43358 TIP3     1321     TIP3     H1       HT       0.417000       1.00800           0
     43359 TIP3     1321     TIP3     H2       HT       0.417000       1.00800           0
     43360 TIP3     1322     TIP3     OH2      OT      -0.834000       15.9994           0
     43361 TIP3     1322     TIP3     H1       HT       0.417000       1.00800           0
     43362 TIP3     1322     TIP3     H2       HT       0.417000       1.00800           0
     43363 TIP3     1323     TIP3     OH2      OT      -0.834000       15.9994           0
     43364 TIP3     1323     TIP3     H1       HT       0.417000       1.00800           0
     43365 TIP3     1323     TIP3     H2       HT       0.417000       1.00800           0
     43366 TIP3     1324     TIP3     OH2      OT      -0.834000       15.9994           0
     43367 TIP3     1324     TIP3     H1       HT       0.417000       1.00800           0
     43368 TIP3     1324     TIP3     H2       HT       0.417000       1.00800           0
     43369 TIP3     1325     TIP3     OH2      OT      -0.834000       15.9994           0
     43370 TIP3     1325     TIP3     H1       HT       0.417000       1.00800           0
     43371 TIP3     1325     TIP3     H2       HT       0.417000       1.00800           0
     43372 TIP3     1326     TIP3     OH2      OT      -0.834000       15.9994           0
     43373 TIP3     1326     TIP3     H1       HT       0.417000       1.00800           0
     43374 TIP3     1326     TIP3     H2       HT       0.417000       1.00800           0
     43375 TIP3     1327     TIP3     OH2      OT      -0.834000       15.9994           0
     43376 TIP3     1327     TIP3     H1       HT       0.417000       1.00800           0
     43377 TIP3     1327     TIP3     H2       HT       0.417000       1.00800           0
     43378 TIP3     1328     TIP3     OH2      OT      -0.834000       15.9994           0
     43379 TIP3     1328     TIP3     H1       HT       0.417000       1.00800           0
     43380 TIP3     1328     TIP3     H2       HT       0.417000       1.00800           0
     43381 TIP3     1329     TIP3     OH2      OT      -0.834000       15.9994           0
     43382 TIP3     1329     TIP3     H1       HT       0.417000       1.00800           0
     43383 TIP3     1329     TIP3     H2       HT       0.417000       1.00800           0
     43384 TIP3     1330     TIP3     OH2      OT      -0.834000       15.9994           0
     43385 TIP3     1330     TIP3     H1       HT       0.417000       1.00800           0
     43386 TIP3     1330     TIP3     H2       HT       0.417000       1.00800           0
     43387 TIP3     1331     TIP3     OH2      OT      -0.834000       15.9994           0
     43388 TIP3     1331     TIP3     H1       HT       0.417000       1.00800           0
     43389 TIP3     1331     TIP3     H2       HT       0.417000       1.00800           0
     43390 TIP3     1332     TIP3     OH2      OT      -0.834000       15.9994           0
     43391 TIP3     1332     TIP3     H1       HT       0.417000       1.00800           0
     43392 TIP3     1332     TIP3     H2       HT       0.417000       1.00800           0
     43393 TIP3     1333     TIP3     OH2      OT      -0.834000       15.9994           0
     43394 TIP3     1333     TIP3     H1       HT       0.417000       1.00800           0
     43395 TIP3     1333     TIP3     H2       HT       0.417000       1.00800           0
     43396 TIP3     1334     TIP3     OH2      OT      -0.834000       15.9994           0
     43397 TIP3     1334     TIP3     H1       HT       0.417000       1.00800           0
     43398 TIP3     1334     TIP3     H2       HT       0.417000       1.00800           0
     43399 TIP3     1335     TIP3     OH2      OT      -0.834000       15.9994           0
     43400 TIP3     1335     TIP3     H1       HT       0.417000       1.00800           0
     43401 TIP3     1335     TIP3     H2       HT       0.417000       1.00800           0
     43402 TIP3     1336     TIP3     OH2      OT      -0.834000       15.9994           0
     43403 TIP3     1336     TIP3     H1       HT       0.417000       1.00800           0
     43404 TIP3     1336     TIP3     H2       HT       0.417000       1.00800           0
     43405 TIP3     1337     TIP3     OH2      OT      -0.834000       15.9994           0
     43406 TIP3     1337     TIP3     H1       HT       0.417000       1.00800           0
     43407 TIP3     1337     TIP3     H2       HT       0.417000       1.00800           0
     43408 TIP3     1338     TIP3     OH2      OT      -0.834000       15.9994           0
     43409 TIP3     1338     TIP3     H1       HT       0.417000       1.00800           0
     43410 TIP3     1338     TIP3     H2       HT       0.417000       1.00800           0
     43411 TIP3     1339     TIP3     OH2      OT      -0.834000       15.9994           0
     43412 TIP3     1339     TIP3     H1       HT       0.417000       1.00800           0
     43413 TIP3     1339     TIP3     H2       HT       0.417000       1.00800           0
     43414 TIP3     1340     TIP3     OH2      OT      -0.834000       15.9994           0
     43415 TIP3     1340     TIP3     H1       HT       0.417000       1.00800           0
     43416 TIP3     1340     TIP3     H2       HT       0.417000       1.00800           0
     43417 TIP3     1341     TIP3     OH2      OT      -0.834000       15.9994           0
     43418 TIP3     1341     TIP3     H1       HT       0.417000       1.00800           0
     43419 TIP3     1341     TIP3     H2       HT       0.417000       1.00800           0
     43420 TIP3     1342     TIP3     OH2      OT      -0.834000       15.9994           0
     43421 TIP3     1342     TIP3     H1       HT       0.417000       1.00800           0
     43422 TIP3     1342     TIP3     H2       HT       0.417000       1.00800           0
     43423 TIP3     1343     TIP3     OH2      OT      -0.834000       15.9994           0
     43424 TIP3     1343     TIP3     H1       HT       0.417000       1.00800           0
     43425 TIP3     1343     TIP3     H2       HT       0.417000       1.00800           0
     43426 TIP3     1344     TIP3     OH2      OT      -0.834000       15.9994           0
     43427 TIP3     1344     TIP3     H1       HT       0.417000       1.00800           0
     43428 TIP3     1344     TIP3     H2       HT       0.417000       1.00800           0
     43429 TIP3     1345     TIP3     OH2      OT      -0.834000       15.9994           0
     43430 TIP3     1345     TIP3     H1       HT       0.417000       1.00800           0
     43431 TIP3     1345     TIP3     H2       HT       0.417000       1.00800           0
     43432 TIP3     1346     TIP3     OH2      OT      -0.834000       15.9994           0
     43433 TIP3     1346     TIP3     H1       HT       0.417000       1.00800           0
     43434 TIP3     1346     TIP3     H2       HT       0.417000       1.00800           0
     43435 TIP3     1347     TIP3     OH2      OT      -0.834000       15.9994           0
     43436 TIP3     1347     TIP3     H1       HT       0.417000       1.00800           0
     43437 TIP3     1347     TIP3     H2       HT       0.417000       1.00800           0
     43438 TIP3     1348     TIP3     OH2      OT      -0.834000       15.9994           0
     43439 TIP3     1348     TIP3     H1       HT       0.417000       1.00800           0
     43440 TIP3     1348     TIP3     H2       HT       0.417000       1.00800           0
     43441 TIP3     1349     TIP3     OH2      OT      -0.834000       15.9994           0
     43442 TIP3     1349     TIP3     H1       HT       0.417000       1.00800           0
     43443 TIP3     1349     TIP3     H2       HT       0.417000       1.00800           0
     43444 TIP3     1350     TIP3     OH2      OT      -0.834000       15.9994           0
     43445 TIP3     1350     TIP3     H1       HT       0.417000       1.00800           0
     43446 TIP3     1350     TIP3     H2       HT       0.417000       1.00800           0
     43447 TIP3     1351     TIP3     OH2      OT      -0.834000       15.9994           0
     43448 TIP3     1351     TIP3     H1       HT       0.417000       1.00800           0
     43449 TIP3     1351     TIP3     H2       HT       0.417000       1.00800           0
     43450 TIP3     1352     TIP3     OH2      OT      -0.834000       15.9994           0
     43451 TIP3     1352     TIP3     H1       HT       0.417000       1.00800           0
     43452 TIP3     1352     TIP3     H2       HT       0.417000       1.00800           0
     43453 TIP3     1353     TIP3     OH2      OT      -0.834000       15.9994           0
     43454 TIP3     1353     TIP3     H1       HT       0.417000       1.00800           0
     43455 TIP3     1353     TIP3     H2       HT       0.417000       1.00800           0
     43456 TIP3     1354     TIP3     OH2      OT      -0.834000       15.9994           0
     43457 TIP3     1354     TIP3     H1       HT       0.417000       1.00800           0
     43458 TIP3     1354     TIP3     H2       HT       0.417000       1.00800           0
     43459 TIP3     1355     TIP3     OH2      OT      -0.834000       15.9994           0
     43460 TIP3     1355     TIP3     H1       HT       0.417000       1.00800           0
     43461 TIP3     1355     TIP3     H2       HT       0.417000       1.00800           0
     43462 TIP3     1356     TIP3     OH2      OT      -0.834000       15.9994           0
     43463 TIP3     1356     TIP3     H1       HT       0.417000       1.00800           0
     43464 TIP3     1356     TIP3     H2       HT       0.417000       1.00800           0
     43465 TIP3     1357     TIP3     OH2      OT      -0.834000       15.9994           0
     43466 TIP3     1357     TIP3     H1       HT       0.417000       1.00800           0
     43467 TIP3     1357     TIP3     H2       HT       0.417000       1.00800           0
     43468 TIP3     1358     TIP3     OH2      OT      -0.834000       15.9994           0
     43469 TIP3     1358     TIP3     H1       HT       0.417000       1.00800           0
     43470 TIP3     1358     TIP3     H2       HT       0.417000       1.00800           0
     43471 TIP3     1359     TIP3     OH2      OT      -0.834000       15.9994           0
     43472 TIP3     1359     TIP3     H1       HT       0.417000       1.00800           0
     43473 TIP3     1359     TIP3     H2       HT       0.417000       1.00800           0
     43474 TIP3     1360     TIP3     OH2      OT      -0.834000       15.9994           0
     43475 TIP3     1360     TIP3     H1       HT       0.417000       1.00800           0
     43476 TIP3     1360     TIP3     H2       HT       0.417000       1.00800           0
     43477 TIP3     1361     TIP3     OH2      OT      -0.834000       15.9994           0
     43478 TIP3     1361     TIP3     H1       HT       0.417000       1.00800           0
     43479 TIP3     1361     TIP3     H2       HT       0.417000       1.00800           0
     43480 TIP3     1362     TIP3     OH2      OT      -0.834000       15.9994           0
     43481 TIP3     1362     TIP3     H1       HT       0.417000       1.00800           0
     43482 TIP3     1362     TIP3     H2       HT       0.417000       1.00800           0
     43483 TIP3     1363     TIP3     OH2      OT      -0.834000       15.9994           0
     43484 TIP3     1363     TIP3     H1       HT       0.417000       1.00800           0
     43485 TIP3     1363     TIP3     H2       HT       0.417000       1.00800           0
     43486 TIP3     1364     TIP3     OH2      OT      -0.834000       15.9994           0
     43487 TIP3     1364     TIP3     H1       HT       0.417000       1.00800           0
     43488 TIP3     1364     TIP3     H2       HT       0.417000       1.00800           0
     43489 TIP3     1365     TIP3     OH2      OT      -0.834000       15.9994           0
     43490 TIP3     1365     TIP3     H1       HT       0.417000       1.00800           0
     43491 TIP3     1365     TIP3     H2       HT       0.417000       1.00800           0
     43492 TIP3     1366     TIP3     OH2      OT      -0.834000       15.9994           0
     43493 TIP3     1366     TIP3     H1       HT       0.417000       1.00800           0
     43494 TIP3     1366     TIP3     H2       HT       0.417000       1.00800           0
     43495 TIP3     1367     TIP3     OH2      OT      -0.834000       15.9994           0
     43496 TIP3     1367     TIP3     H1       HT       0.417000       1.00800           0
     43497 TIP3     1367     TIP3     H2       HT       0.417000       1.00800           0
     43498 TIP3     1368     TIP3     OH2      OT      -0.834000       15.9994           0
     43499 TIP3     1368     TIP3     H1       HT       0.417000       1.00800           0
     43500 TIP3     1368     TIP3     H2       HT       0.417000       1.00800           0
     43501 TIP3     1369     TIP3     OH2      OT      -0.834000       15.9994           0
     43502 TIP3     1369     TIP3     H1       HT       0.417000       1.00800           0
     43503 TIP3     1369     TIP3     H2       HT       0.417000       1.00800           0
     43504 TIP3     1370     TIP3     OH2      OT      -0.834000       15.9994           0
     43505 TIP3     1370     TIP3     H1       HT       0.417000       1.00800           0
     43506 TIP3     1370     TIP3     H2       HT       0.417000       1.00800           0
     43507 TIP3     1371     TIP3     OH2      OT      -0.834000       15.9994           0
     43508 TIP3     1371     TIP3     H1       HT       0.417000       1.00800           0
     43509 TIP3     1371     TIP3     H2       HT       0.417000       1.00800           0
     43510 TIP3     1372     TIP3     OH2      OT      -0.834000       15.9994           0
     43511 TIP3     1372     TIP3     H1       HT       0.417000       1.00800           0
     43512 TIP3     1372     TIP3     H2       HT       0.417000       1.00800           0
     43513 TIP3     1373     TIP3     OH2      OT      -0.834000       15.9994           0
     43514 TIP3     1373     TIP3     H1       HT       0.417000       1.00800           0
     43515 TIP3     1373     TIP3     H2       HT       0.417000       1.00800           0
     43516 TIP3     1374     TIP3     OH2      OT      -0.834000       15.9994           0
     43517 TIP3     1374     TIP3     H1       HT       0.417000       1.00800           0
     43518 TIP3     1374     TIP3     H2       HT       0.417000       1.00800           0
     43519 TIP3     1375     TIP3     OH2      OT      -0.834000       15.9994           0
     43520 TIP3     1375     TIP3     H1       HT       0.417000       1.00800           0
     43521 TIP3     1375     TIP3     H2       HT       0.417000       1.00800           0
     43522 TIP3     1376     TIP3     OH2      OT      -0.834000       15.9994           0
     43523 TIP3     1376     TIP3     H1       HT       0.417000       1.00800           0
     43524 TIP3     1376     TIP3     H2       HT       0.417000       1.00800           0
     43525 TIP3     1377     TIP3     OH2      OT      -0.834000       15.9994           0
     43526 TIP3     1377     TIP3     H1       HT       0.417000       1.00800           0
     43527 TIP3     1377     TIP3     H2       HT       0.417000       1.00800           0
     43528 TIP3     1378     TIP3     OH2      OT      -0.834000       15.9994           0
     43529 TIP3     1378     TIP3     H1       HT       0.417000       1.00800           0
     43530 TIP3     1378     TIP3     H2       HT       0.417000       1.00800           0
     43531 TIP3     1379     TIP3     OH2      OT      -0.834000       15.9994           0
     43532 TIP3     1379     TIP3     H1       HT       0.417000       1.00800           0
     43533 TIP3     1379     TIP3     H2       HT       0.417000       1.00800           0
     43534 TIP3     1380     TIP3     OH2      OT      -0.834000       15.9994           0
     43535 TIP3     1380     TIP3     H1       HT       0.417000       1.00800           0
     43536 TIP3     1380     TIP3     H2       HT       0.417000       1.00800           0
     43537 TIP3     1381     TIP3     OH2      OT      -0.834000       15.9994           0
     43538 TIP3     1381     TIP3     H1       HT       0.417000       1.00800           0
     43539 TIP3     1381     TIP3     H2       HT       0.417000       1.00800           0
     43540 TIP3     1382     TIP3     OH2      OT      -0.834000       15.9994           0
     43541 TIP3     1382     TIP3     H1       HT       0.417000       1.00800           0
     43542 TIP3     1382     TIP3     H2       HT       0.417000       1.00800           0
     43543 TIP3     1383     TIP3     OH2      OT      -0.834000       15.9994           0
     43544 TIP3     1383     TIP3     H1       HT       0.417000       1.00800           0
     43545 TIP3     1383     TIP3     H2       HT       0.417000       1.00800           0
     43546 TIP3     1384     TIP3     OH2      OT      -0.834000       15.9994           0
     43547 TIP3     1384     TIP3     H1       HT       0.417000       1.00800           0
     43548 TIP3     1384     TIP3     H2       HT       0.417000       1.00800           0
     43549 TIP3     1385     TIP3     OH2      OT      -0.834000       15.9994           0
     43550 TIP3     1385     TIP3     H1       HT       0.417000       1.00800           0
     43551 TIP3     1385     TIP3     H2       HT       0.417000       1.00800           0
     43552 TIP3     1386     TIP3     OH2      OT      -0.834000       15.9994           0
     43553 TIP3     1386     TIP3     H1       HT       0.417000       1.00800           0
     43554 TIP3     1386     TIP3     H2       HT       0.417000       1.00800           0
     43555 TIP3     1387     TIP3     OH2      OT      -0.834000       15.9994           0
     43556 TIP3     1387     TIP3     H1       HT       0.417000       1.00800           0
     43557 TIP3     1387     TIP3     H2       HT       0.417000       1.00800           0
     43558 TIP3     1388     TIP3     OH2      OT      -0.834000       15.9994           0
     43559 TIP3     1388     TIP3     H1       HT       0.417000       1.00800           0
     43560 TIP3     1388     TIP3     H2       HT       0.417000       1.00800           0
     43561 TIP3     1389     TIP3     OH2      OT      -0.834000       15.9994           0
     43562 TIP3     1389     TIP3     H1       HT       0.417000       1.00800           0
     43563 TIP3     1389     TIP3     H2       HT       0.417000       1.00800           0
     43564 TIP3     1390     TIP3     OH2      OT      -0.834000       15.9994           0
     43565 TIP3     1390     TIP3     H1       HT       0.417000       1.00800           0
     43566 TIP3     1390     TIP3     H2       HT       0.417000       1.00800           0
     43567 TIP3     1391     TIP3     OH2      OT      -0.834000       15.9994           0
     43568 TIP3     1391     TIP3     H1       HT       0.417000       1.00800           0
     43569 TIP3     1391     TIP3     H2       HT       0.417000       1.00800           0
     43570 TIP3     1392     TIP3     OH2      OT      -0.834000       15.9994           0
     43571 TIP3     1392     TIP3     H1       HT       0.417000       1.00800           0
     43572 TIP3     1392     TIP3     H2       HT       0.417000       1.00800           0
     43573 TIP3     1393     TIP3     OH2      OT      -0.834000       15.9994           0
     43574 TIP3     1393     TIP3     H1       HT       0.417000       1.00800           0
     43575 TIP3     1393     TIP3     H2       HT       0.417000       1.00800           0
     43576 TIP3     1394     TIP3     OH2      OT      -0.834000       15.9994           0
     43577 TIP3     1394     TIP3     H1       HT       0.417000       1.00800           0
     43578 TIP3     1394     TIP3     H2       HT       0.417000       1.00800           0
     43579 TIP3     1395     TIP3     OH2      OT      -0.834000       15.9994           0
     43580 TIP3     1395     TIP3     H1       HT       0.417000       1.00800           0
     43581 TIP3     1395     TIP3     H2       HT       0.417000       1.00800           0
     43582 TIP3     1396     TIP3     OH2      OT      -0.834000       15.9994           0
     43583 TIP3     1396     TIP3     H1       HT       0.417000       1.00800           0
     43584 TIP3     1396     TIP3     H2       HT       0.417000       1.00800           0
     43585 TIP3     1397     TIP3     OH2      OT      -0.834000       15.9994           0
     43586 TIP3     1397     TIP3     H1       HT       0.417000       1.00800           0
     43587 TIP3     1397     TIP3     H2       HT       0.417000       1.00800           0
     43588 TIP3     1398     TIP3     OH2      OT      -0.834000       15.9994           0
     43589 TIP3     1398     TIP3     H1       HT       0.417000       1.00800           0
     43590 TIP3     1398     TIP3     H2       HT       0.417000       1.00800           0
     43591 TIP3     1399     TIP3     OH2      OT      -0.834000       15.9994           0
     43592 TIP3     1399     TIP3     H1       HT       0.417000       1.00800           0
     43593 TIP3     1399     TIP3     H2       HT       0.417000       1.00800           0
     43594 TIP3     1400     TIP3     OH2      OT      -0.834000       15.9994           0
     43595 TIP3     1400     TIP3     H1       HT       0.417000       1.00800           0
     43596 TIP3     1400     TIP3     H2       HT       0.417000       1.00800           0
     43597 TIP3     1401     TIP3     OH2      OT      -0.834000       15.9994           0
     43598 TIP3     1401     TIP3     H1       HT       0.417000       1.00800           0
     43599 TIP3     1401     TIP3     H2       HT       0.417000       1.00800           0
     43600 TIP3     1402     TIP3     OH2      OT      -0.834000       15.9994           0
     43601 TIP3     1402     TIP3     H1       HT       0.417000       1.00800           0
     43602 TIP3     1402     TIP3     H2       HT       0.417000       1.00800           0
     43603 TIP3     1403     TIP3     OH2      OT      -0.834000       15.9994           0
     43604 TIP3     1403     TIP3     H1       HT       0.417000       1.00800           0
     43605 TIP3     1403     TIP3     H2       HT       0.417000       1.00800           0
     43606 TIP3     1404     TIP3     OH2      OT      -0.834000       15.9994           0
     43607 TIP3     1404     TIP3     H1       HT       0.417000       1.00800           0
     43608 TIP3     1404     TIP3     H2       HT       0.417000       1.00800           0
     43609 TIP3     1405     TIP3     OH2      OT      -0.834000       15.9994           0
     43610 TIP3     1405     TIP3     H1       HT       0.417000       1.00800           0
     43611 TIP3     1405     TIP3     H2       HT       0.417000       1.00800           0
     43612 TIP3     1406     TIP3     OH2      OT      -0.834000       15.9994           0
     43613 TIP3     1406     TIP3     H1       HT       0.417000       1.00800           0
     43614 TIP3     1406     TIP3     H2       HT       0.417000       1.00800           0
     43615 TIP3     1407     TIP3     OH2      OT      -0.834000       15.9994           0
     43616 TIP3     1407     TIP3     H1       HT       0.417000       1.00800           0
     43617 TIP3     1407     TIP3     H2       HT       0.417000       1.00800           0
     43618 TIP3     1408     TIP3     OH2      OT      -0.834000       15.9994           0
     43619 TIP3     1408     TIP3     H1       HT       0.417000       1.00800           0
     43620 TIP3     1408     TIP3     H2       HT       0.417000       1.00800           0
     43621 TIP3     1409     TIP3     OH2      OT      -0.834000       15.9994           0
     43622 TIP3     1409     TIP3     H1       HT       0.417000       1.00800           0
     43623 TIP3     1409     TIP3     H2       HT       0.417000       1.00800           0
     43624 TIP3     1410     TIP3     OH2      OT      -0.834000       15.9994           0
     43625 TIP3     1410     TIP3     H1       HT       0.417000       1.00800           0
     43626 TIP3     1410     TIP3     H2       HT       0.417000       1.00800           0
     43627 TIP3     1411     TIP3     OH2      OT      -0.834000       15.9994           0
     43628 TIP3     1411     TIP3     H1       HT       0.417000       1.00800           0
     43629 TIP3     1411     TIP3     H2       HT       0.417000       1.00800           0
     43630 TIP3     1412     TIP3     OH2      OT      -0.834000       15.9994           0
     43631 TIP3     1412     TIP3     H1       HT       0.417000       1.00800           0
     43632 TIP3     1412     TIP3     H2       HT       0.417000       1.00800           0
     43633 TIP3     1413     TIP3     OH2      OT      -0.834000       15.9994           0
     43634 TIP3     1413     TIP3     H1       HT       0.417000       1.00800           0
     43635 TIP3     1413     TIP3     H2       HT       0.417000       1.00800           0
     43636 TIP3     1414     TIP3     OH2      OT      -0.834000       15.9994           0
     43637 TIP3     1414     TIP3     H1       HT       0.417000       1.00800           0
     43638 TIP3     1414     TIP3     H2       HT       0.417000       1.00800           0
     43639 TIP3     1415     TIP3     OH2      OT      -0.834000       15.9994           0
     43640 TIP3     1415     TIP3     H1       HT       0.417000       1.00800           0
     43641 TIP3     1415     TIP3     H2       HT       0.417000       1.00800           0
     43642 TIP3     1416     TIP3     OH2      OT      -0.834000       15.9994           0
     43643 TIP3     1416     TIP3     H1       HT       0.417000       1.00800           0
     43644 TIP3     1416     TIP3     H2       HT       0.417000       1.00800           0
     43645 TIP3     1417     TIP3     OH2      OT      -0.834000       15.9994           0
     43646 TIP3     1417     TIP3     H1       HT       0.417000       1.00800           0
     43647 TIP3     1417     TIP3     H2       HT       0.417000       1.00800           0
     43648 TIP3     1418     TIP3     OH2      OT      -0.834000       15.9994           0
     43649 TIP3     1418     TIP3     H1       HT       0.417000       1.00800           0
     43650 TIP3     1418     TIP3     H2       HT       0.417000       1.00800           0
     43651 TIP3     1419     TIP3     OH2      OT      -0.834000       15.9994           0
     43652 TIP3     1419     TIP3     H1       HT       0.417000       1.00800           0
     43653 TIP3     1419     TIP3     H2       HT       0.417000       1.00800           0
     43654 TIP3     1420     TIP3     OH2      OT      -0.834000       15.9994           0
     43655 TIP3     1420     TIP3     H1       HT       0.417000       1.00800           0
     43656 TIP3     1420     TIP3     H2       HT       0.417000       1.00800           0
     43657 TIP3     1421     TIP3     OH2      OT      -0.834000       15.9994           0
     43658 TIP3     1421     TIP3     H1       HT       0.417000       1.00800           0
     43659 TIP3     1421     TIP3     H2       HT       0.417000       1.00800           0
     43660 TIP3     1422     TIP3     OH2      OT      -0.834000       15.9994           0
     43661 TIP3     1422     TIP3     H1       HT       0.417000       1.00800           0
     43662 TIP3     1422     TIP3     H2       HT       0.417000       1.00800           0
     43663 TIP3     1423     TIP3     OH2      OT      -0.834000       15.9994           0
     43664 TIP3     1423     TIP3     H1       HT       0.417000       1.00800           0
     43665 TIP3     1423     TIP3     H2       HT       0.417000       1.00800           0
     43666 TIP3     1424     TIP3     OH2      OT      -0.834000       15.9994           0
     43667 TIP3     1424     TIP3     H1       HT       0.417000       1.00800           0
     43668 TIP3     1424     TIP3     H2       HT       0.417000       1.00800           0
     43669 TIP3     1425     TIP3     OH2      OT      -0.834000       15.9994           0
     43670 TIP3     1425     TIP3     H1       HT       0.417000       1.00800           0
     43671 TIP3     1425     TIP3     H2       HT       0.417000       1.00800           0
     43672 TIP3     1426     TIP3     OH2      OT      -0.834000       15.9994           0
     43673 TIP3     1426     TIP3     H1       HT       0.417000       1.00800           0
     43674 TIP3     1426     TIP3     H2       HT       0.417000       1.00800           0
     43675 TIP3     1427     TIP3     OH2      OT      -0.834000       15.9994           0
     43676 TIP3     1427     TIP3     H1       HT       0.417000       1.00800           0
     43677 TIP3     1427     TIP3     H2       HT       0.417000       1.00800           0
     43678 TIP3     1428     TIP3     OH2      OT      -0.834000       15.9994           0
     43679 TIP3     1428     TIP3     H1       HT       0.417000       1.00800           0
     43680 TIP3     1428     TIP3     H2       HT       0.417000       1.00800           0
     43681 TIP3     1429     TIP3     OH2      OT      -0.834000       15.9994           0
     43682 TIP3     1429     TIP3     H1       HT       0.417000       1.00800           0
     43683 TIP3     1429     TIP3     H2       HT       0.417000       1.00800           0
     43684 TIP3     1430     TIP3     OH2      OT      -0.834000       15.9994           0
     43685 TIP3     1430     TIP3     H1       HT       0.417000       1.00800           0
     43686 TIP3     1430     TIP3     H2       HT       0.417000       1.00800           0
     43687 TIP3     1431     TIP3     OH2      OT      -0.834000       15.9994           0
     43688 TIP3     1431     TIP3     H1       HT       0.417000       1.00800           0
     43689 TIP3     1431     TIP3     H2       HT       0.417000       1.00800           0
     43690 TIP3     1432     TIP3     OH2      OT      -0.834000       15.9994           0
     43691 TIP3     1432     TIP3     H1       HT       0.417000       1.00800           0
     43692 TIP3     1432     TIP3     H2       HT       0.417000       1.00800           0
     43693 TIP3     1433     TIP3     OH2      OT      -0.834000       15.9994           0
     43694 TIP3     1433     TIP3     H1       HT       0.417000       1.00800           0
     43695 TIP3     1433     TIP3     H2       HT       0.417000       1.00800           0
     43696 TIP3     1434     TIP3     OH2      OT      -0.834000       15.9994           0
     43697 TIP3     1434     TIP3     H1       HT       0.417000       1.00800           0
     43698 TIP3     1434     TIP3     H2       HT       0.417000       1.00800           0
     43699 TIP3     1435     TIP3     OH2      OT      -0.834000       15.9994           0
     43700 TIP3     1435     TIP3     H1       HT       0.417000       1.00800           0
     43701 TIP3     1435     TIP3     H2       HT       0.417000       1.00800           0
     43702 TIP3     1436     TIP3     OH2      OT      -0.834000       15.9994           0
     43703 TIP3     1436     TIP3     H1       HT       0.417000       1.00800           0
     43704 TIP3     1436     TIP3     H2       HT       0.417000       1.00800           0
     43705 TIP3     1437     TIP3     OH2      OT      -0.834000       15.9994           0
     43706 TIP3     1437     TIP3     H1       HT       0.417000       1.00800           0
     43707 TIP3     1437     TIP3     H2       HT       0.417000       1.00800           0
     43708 TIP3     1438     TIP3     OH2      OT      -0.834000       15.9994           0
     43709 TIP3     1438     TIP3     H1       HT       0.417000       1.00800           0
     43710 TIP3     1438     TIP3     H2       HT       0.417000       1.00800           0
     43711 TIP3     1439     TIP3     OH2      OT      -0.834000       15.9994           0
     43712 TIP3     1439     TIP3     H1       HT       0.417000       1.00800           0
     43713 TIP3     1439     TIP3     H2       HT       0.417000       1.00800           0
     43714 TIP3     1440     TIP3     OH2      OT      -0.834000       15.9994           0
     43715 TIP3     1440     TIP3     H1       HT       0.417000       1.00800           0
     43716 TIP3     1440     TIP3     H2       HT       0.417000       1.00800           0
     43717 TIP3     1441     TIP3     OH2      OT      -0.834000       15.9994           0
     43718 TIP3     1441     TIP3     H1       HT       0.417000       1.00800           0
     43719 TIP3     1441     TIP3     H2       HT       0.417000       1.00800           0
     43720 TIP3     1442     TIP3     OH2      OT      -0.834000       15.9994           0
     43721 TIP3     1442     TIP3     H1       HT       0.417000       1.00800           0
     43722 TIP3     1442     TIP3     H2       HT       0.417000       1.00800           0
     43723 TIP3     1443     TIP3     OH2      OT      -0.834000       15.9994           0
     43724 TIP3     1443     TIP3     H1       HT       0.417000       1.00800           0
     43725 TIP3     1443     TIP3     H2       HT       0.417000       1.00800           0
     43726 TIP3     1444     TIP3     OH2      OT      -0.834000       15.9994           0
     43727 TIP3     1444     TIP3     H1       HT       0.417000       1.00800           0
     43728 TIP3     1444     TIP3     H2       HT       0.417000       1.00800           0
     43729 TIP3     1445     TIP3     OH2      OT      -0.834000       15.9994           0
     43730 TIP3     1445     TIP3     H1       HT       0.417000       1.00800           0
     43731 TIP3     1445     TIP3     H2       HT       0.417000       1.00800           0
     43732 TIP3     1446     TIP3     OH2      OT      -0.834000       15.9994           0
     43733 TIP3     1446     TIP3     H1       HT       0.417000       1.00800           0
     43734 TIP3     1446     TIP3     H2       HT       0.417000       1.00800           0
     43735 TIP3     1447     TIP3     OH2      OT      -0.834000       15.9994           0
     43736 TIP3     1447     TIP3     H1       HT       0.417000       1.00800           0
     43737 TIP3     1447     TIP3     H2       HT       0.417000       1.00800           0
     43738 TIP3     1448     TIP3     OH2      OT      -0.834000       15.9994           0
     43739 TIP3     1448     TIP3     H1       HT       0.417000       1.00800           0
     43740 TIP3     1448     TIP3     H2       HT       0.417000       1.00800           0
     43741 TIP3     1449     TIP3     OH2      OT      -0.834000       15.9994           0
     43742 TIP3     1449     TIP3     H1       HT       0.417000       1.00800           0
     43743 TIP3     1449     TIP3     H2       HT       0.417000       1.00800           0
     43744 TIP3     1450     TIP3     OH2      OT      -0.834000       15.9994           0
     43745 TIP3     1450     TIP3     H1       HT       0.417000       1.00800           0
     43746 TIP3     1450     TIP3     H2       HT       0.417000       1.00800           0
     43747 TIP3     1451     TIP3     OH2      OT      -0.834000       15.9994           0
     43748 TIP3     1451     TIP3     H1       HT       0.417000       1.00800           0
     43749 TIP3     1451     TIP3     H2       HT       0.417000       1.00800           0
     43750 TIP3     1452     TIP3     OH2      OT      -0.834000       15.9994           0
     43751 TIP3     1452     TIP3     H1       HT       0.417000       1.00800           0
     43752 TIP3     1452     TIP3     H2       HT       0.417000       1.00800           0
     43753 TIP3     1453     TIP3     OH2      OT      -0.834000       15.9994           0
     43754 TIP3     1453     TIP3     H1       HT       0.417000       1.00800           0
     43755 TIP3     1453     TIP3     H2       HT       0.417000       1.00800           0
     43756 TIP3     1454     TIP3     OH2      OT      -0.834000       15.9994           0
     43757 TIP3     1454     TIP3     H1       HT       0.417000       1.00800           0
     43758 TIP3     1454     TIP3     H2       HT       0.417000       1.00800           0
     43759 TIP3     1455     TIP3     OH2      OT      -0.834000       15.9994           0
     43760 TIP3     1455     TIP3     H1       HT       0.417000       1.00800           0
     43761 TIP3     1455     TIP3     H2       HT       0.417000       1.00800           0
     43762 TIP3     1456     TIP3     OH2      OT      -0.834000       15.9994           0
     43763 TIP3     1456     TIP3     H1       HT       0.417000       1.00800           0
     43764 TIP3     1456     TIP3     H2       HT       0.417000       1.00800           0
     43765 TIP3     1457     TIP3     OH2      OT      -0.834000       15.9994           0
     43766 TIP3     1457     TIP3     H1       HT       0.417000       1.00800           0
     43767 TIP3     1457     TIP3     H2       HT       0.417000       1.00800           0
     43768 TIP3     1458     TIP3     OH2      OT      -0.834000       15.9994           0
     43769 TIP3     1458     TIP3     H1       HT       0.417000       1.00800           0
     43770 TIP3     1458     TIP3     H2       HT       0.417000       1.00800           0
     43771 TIP3     1459     TIP3     OH2      OT      -0.834000       15.9994           0
     43772 TIP3     1459     TIP3     H1       HT       0.417000       1.00800           0
     43773 TIP3     1459     TIP3     H2       HT       0.417000       1.00800           0
     43774 TIP3     1460     TIP3     OH2      OT      -0.834000       15.9994           0
     43775 TIP3     1460     TIP3     H1       HT       0.417000       1.00800           0
     43776 TIP3     1460     TIP3     H2       HT       0.417000       1.00800           0
     43777 TIP3     1461     TIP3     OH2      OT      -0.834000       15.9994           0
     43778 TIP3     1461     TIP3     H1       HT       0.417000       1.00800           0
     43779 TIP3     1461     TIP3     H2       HT       0.417000       1.00800           0
     43780 TIP3     1462     TIP3     OH2      OT      -0.834000       15.9994           0
     43781 TIP3     1462     TIP3     H1       HT       0.417000       1.00800           0
     43782 TIP3     1462     TIP3     H2       HT       0.417000       1.00800           0
     43783 TIP3     1463     TIP3     OH2      OT      -0.834000       15.9994           0
     43784 TIP3     1463     TIP3     H1       HT       0.417000       1.00800           0
     43785 TIP3     1463     TIP3     H2       HT       0.417000       1.00800           0
     43786 TIP3     1464     TIP3     OH2      OT      -0.834000       15.9994           0
     43787 TIP3     1464     TIP3     H1       HT       0.417000       1.00800           0
     43788 TIP3     1464     TIP3     H2       HT       0.417000       1.00800           0
     43789 TIP3     1465     TIP3     OH2      OT      -0.834000       15.9994           0
     43790 TIP3     1465     TIP3     H1       HT       0.417000       1.00800           0
     43791 TIP3     1465     TIP3     H2       HT       0.417000       1.00800           0
     43792 TIP3     1466     TIP3     OH2      OT      -0.834000       15.9994           0
     43793 TIP3     1466     TIP3     H1       HT       0.417000       1.00800           0
     43794 TIP3     1466     TIP3     H2       HT       0.417000       1.00800           0
     43795 TIP3     1467     TIP3     OH2      OT      -0.834000       15.9994           0
     43796 TIP3     1467     TIP3     H1       HT       0.417000       1.00800           0
     43797 TIP3     1467     TIP3     H2       HT       0.417000       1.00800           0
     43798 TIP3     1468     TIP3     OH2      OT      -0.834000       15.9994           0
     43799 TIP3     1468     TIP3     H1       HT       0.417000       1.00800           0
     43800 TIP3     1468     TIP3     H2       HT       0.417000       1.00800           0
     43801 TIP3     1469     TIP3     OH2      OT      -0.834000       15.9994           0
     43802 TIP3     1469     TIP3     H1       HT       0.417000       1.00800           0
     43803 TIP3     1469     TIP3     H2       HT       0.417000       1.00800           0
     43804 TIP3     1470     TIP3     OH2      OT      -0.834000       15.9994           0
     43805 TIP3     1470     TIP3     H1       HT       0.417000       1.00800           0
     43806 TIP3     1470     TIP3     H2       HT       0.417000       1.00800           0
     43807 TIP3     1471     TIP3     OH2      OT      -0.834000       15.9994           0
     43808 TIP3     1471     TIP3     H1       HT       0.417000       1.00800           0
     43809 TIP3     1471     TIP3     H2       HT       0.417000       1.00800           0
     43810 TIP3     1472     TIP3     OH2      OT      -0.834000       15.9994           0
     43811 TIP3     1472     TIP3     H1       HT       0.417000       1.00800           0
     43812 TIP3     1472     TIP3     H2       HT       0.417000       1.00800           0
     43813 TIP3     1473     TIP3     OH2      OT      -0.834000       15.9994           0
     43814 TIP3     1473     TIP3     H1       HT       0.417000       1.00800           0
     43815 TIP3     1473     TIP3     H2       HT       0.417000       1.00800           0
     43816 TIP3     1474     TIP3     OH2      OT      -0.834000       15.9994           0
     43817 TIP3     1474     TIP3     H1       HT       0.417000       1.00800           0
     43818 TIP3     1474     TIP3     H2       HT       0.417000       1.00800           0
     43819 TIP3     1475     TIP3     OH2      OT      -0.834000       15.9994           0
     43820 TIP3     1475     TIP3     H1       HT       0.417000       1.00800           0
     43821 TIP3     1475     TIP3     H2       HT       0.417000       1.00800           0
     43822 TIP3     1476     TIP3     OH2      OT      -0.834000       15.9994           0
     43823 TIP3     1476     TIP3     H1       HT       0.417000       1.00800           0
     43824 TIP3     1476     TIP3     H2       HT       0.417000       1.00800           0
     43825 TIP3     1477     TIP3     OH2      OT      -0.834000       15.9994           0
     43826 TIP3     1477     TIP3     H1       HT       0.417000       1.00800           0
     43827 TIP3     1477     TIP3     H2       HT       0.417000       1.00800           0
     43828 TIP3     1478     TIP3     OH2      OT      -0.834000       15.9994           0
     43829 TIP3     1478     TIP3     H1       HT       0.417000       1.00800           0
     43830 TIP3     1478     TIP3     H2       HT       0.417000       1.00800           0
     43831 TIP3     1479     TIP3     OH2      OT      -0.834000       15.9994           0
     43832 TIP3     1479     TIP3     H1       HT       0.417000       1.00800           0
     43833 TIP3     1479     TIP3     H2       HT       0.417000       1.00800           0
     43834 TIP3     1480     TIP3     OH2      OT      -0.834000       15.9994           0
     43835 TIP3     1480     TIP3     H1       HT       0.417000       1.00800           0
     43836 TIP3     1480     TIP3     H2       HT       0.417000       1.00800           0
     43837 TIP3     1481     TIP3     OH2      OT      -0.834000       15.9994           0
     43838 TIP3     1481     TIP3     H1       HT       0.417000       1.00800           0
     43839 TIP3     1481     TIP3     H2       HT       0.417000       1.00800           0
     43840 TIP3     1482     TIP3     OH2      OT      -0.834000       15.9994           0
     43841 TIP3     1482     TIP3     H1       HT       0.417000       1.00800           0
     43842 TIP3     1482     TIP3     H2       HT       0.417000       1.00800           0
     43843 TIP3     1483     TIP3     OH2      OT      -0.834000       15.9994           0
     43844 TIP3     1483     TIP3     H1       HT       0.417000       1.00800           0
     43845 TIP3     1483     TIP3     H2       HT       0.417000       1.00800           0
     43846 TIP3     1484     TIP3     OH2      OT      -0.834000       15.9994           0
     43847 TIP3     1484     TIP3     H1       HT       0.417000       1.00800           0
     43848 TIP3     1484     TIP3     H2       HT       0.417000       1.00800           0
     43849 TIP3     1485     TIP3     OH2      OT      -0.834000       15.9994           0
     43850 TIP3     1485     TIP3     H1       HT       0.417000       1.00800           0
     43851 TIP3     1485     TIP3     H2       HT       0.417000       1.00800           0
     43852 TIP3     1486     TIP3     OH2      OT      -0.834000       15.9994           0
     43853 TIP3     1486     TIP3     H1       HT       0.417000       1.00800           0
     43854 TIP3     1486     TIP3     H2       HT       0.417000       1.00800           0
     43855 TIP3     1487     TIP3     OH2      OT      -0.834000       15.9994           0
     43856 TIP3     1487     TIP3     H1       HT       0.417000       1.00800           0
     43857 TIP3     1487     TIP3     H2       HT       0.417000       1.00800           0
     43858 TIP3     1488     TIP3     OH2      OT      -0.834000       15.9994           0
     43859 TIP3     1488     TIP3     H1       HT       0.417000       1.00800           0
     43860 TIP3     1488     TIP3     H2       HT       0.417000       1.00800           0
     43861 TIP3     1489     TIP3     OH2      OT      -0.834000       15.9994           0
     43862 TIP3     1489     TIP3     H1       HT       0.417000       1.00800           0
     43863 TIP3     1489     TIP3     H2       HT       0.417000       1.00800           0
     43864 TIP3     1490     TIP3     OH2      OT      -0.834000       15.9994           0
     43865 TIP3     1490     TIP3     H1       HT       0.417000       1.00800           0
     43866 TIP3     1490     TIP3     H2       HT       0.417000       1.00800           0
     43867 TIP3     1491     TIP3     OH2      OT      -0.834000       15.9994           0
     43868 TIP3     1491     TIP3     H1       HT       0.417000       1.00800           0
     43869 TIP3     1491     TIP3     H2       HT       0.417000       1.00800           0
     43870 TIP3     1492     TIP3     OH2      OT      -0.834000       15.9994           0
     43871 TIP3     1492     TIP3     H1       HT       0.417000       1.00800           0
     43872 TIP3     1492     TIP3     H2       HT       0.417000       1.00800           0
     43873 TIP3     1493     TIP3     OH2      OT      -0.834000       15.9994           0
     43874 TIP3     1493     TIP3     H1       HT       0.417000       1.00800           0
     43875 TIP3     1493     TIP3     H2       HT       0.417000       1.00800           0
     43876 TIP3     1494     TIP3     OH2      OT      -0.834000       15.9994           0
     43877 TIP3     1494     TIP3     H1       HT       0.417000       1.00800           0
     43878 TIP3     1494     TIP3     H2       HT       0.417000       1.00800           0
     43879 TIP3     1495     TIP3     OH2      OT      -0.834000       15.9994           0
     43880 TIP3     1495     TIP3     H1       HT       0.417000       1.00800           0
     43881 TIP3     1495     TIP3     H2       HT       0.417000       1.00800           0
     43882 TIP3     1496     TIP3     OH2      OT      -0.834000       15.9994           0
     43883 TIP3     1496     TIP3     H1       HT       0.417000       1.00800           0
     43884 TIP3     1496     TIP3     H2       HT       0.417000       1.00800           0
     43885 TIP3     1497     TIP3     OH2      OT      -0.834000       15.9994           0
     43886 TIP3     1497     TIP3     H1       HT       0.417000       1.00800           0
     43887 TIP3     1497     TIP3     H2       HT       0.417000       1.00800           0
     43888 TIP3     1498     TIP3     OH2      OT      -0.834000       15.9994           0
     43889 TIP3     1498     TIP3     H1       HT       0.417000       1.00800           0
     43890 TIP3     1498     TIP3     H2       HT       0.417000       1.00800           0
     43891 TIP3     1499     TIP3     OH2      OT      -0.834000       15.9994           0
     43892 TIP3     1499     TIP3     H1       HT       0.417000       1.00800           0
     43893 TIP3     1499     TIP3     H2       HT       0.417000       1.00800           0
     43894 TIP3     1500     TIP3     OH2      OT      -0.834000       15.9994           0
     43895 TIP3     1500     TIP3     H1       HT       0.417000       1.00800           0
     43896 TIP3     1500     TIP3     H2       HT       0.417000       1.00800           0
     43897 TIP3     1501     TIP3     OH2      OT      -0.834000       15.9994           0
     43898 TIP3     1501     TIP3     H1       HT       0.417000       1.00800           0
     43899 TIP3     1501     TIP3     H2       HT       0.417000       1.00800           0
     43900 TIP3     1502     TIP3     OH2      OT      -0.834000       15.9994           0
     43901 TIP3     1502     TIP3     H1       HT       0.417000       1.00800           0
     43902 TIP3     1502     TIP3     H2       HT       0.417000       1.00800           0
     43903 TIP3     1503     TIP3     OH2      OT      -0.834000       15.9994           0
     43904 TIP3     1503     TIP3     H1       HT       0.417000       1.00800           0
     43905 TIP3     1503     TIP3     H2       HT       0.417000       1.00800           0
     43906 TIP3     1504     TIP3     OH2      OT      -0.834000       15.9994           0
     43907 TIP3     1504     TIP3     H1       HT       0.417000       1.00800           0
     43908 TIP3     1504     TIP3     H2       HT       0.417000       1.00800           0
     43909 TIP3     1505     TIP3     OH2      OT      -0.834000       15.9994           0
     43910 TIP3     1505     TIP3     H1       HT       0.417000       1.00800           0
     43911 TIP3     1505     TIP3     H2       HT       0.417000       1.00800           0
     43912 TIP3     1506     TIP3     OH2      OT      -0.834000       15.9994           0
     43913 TIP3     1506     TIP3     H1       HT       0.417000       1.00800           0
     43914 TIP3     1506     TIP3     H2       HT       0.417000       1.00800           0
     43915 TIP3     1507     TIP3     OH2      OT      -0.834000       15.9994           0
     43916 TIP3     1507     TIP3     H1       HT       0.417000       1.00800           0
     43917 TIP3     1507     TIP3     H2       HT       0.417000       1.00800           0
     43918 TIP3     1508     TIP3     OH2      OT      -0.834000       15.9994           0
     43919 TIP3     1508     TIP3     H1       HT       0.417000       1.00800           0
     43920 TIP3     1508     TIP3     H2       HT       0.417000       1.00800           0
     43921 TIP3     1509     TIP3     OH2      OT      -0.834000       15.9994           0
     43922 TIP3     1509     TIP3     H1       HT       0.417000       1.00800           0
     43923 TIP3     1509     TIP3     H2       HT       0.417000       1.00800           0
     43924 TIP3     1510     TIP3     OH2      OT      -0.834000       15.9994           0
     43925 TIP3     1510     TIP3     H1       HT       0.417000       1.00800           0
     43926 TIP3     1510     TIP3     H2       HT       0.417000       1.00800           0
     43927 TIP3     1511     TIP3     OH2      OT      -0.834000       15.9994           0
     43928 TIP3     1511     TIP3     H1       HT       0.417000       1.00800           0
     43929 TIP3     1511     TIP3     H2       HT       0.417000       1.00800           0
     43930 TIP3     1512     TIP3     OH2      OT      -0.834000       15.9994           0
     43931 TIP3     1512     TIP3     H1       HT       0.417000       1.00800           0
     43932 TIP3     1512     TIP3     H2       HT       0.417000       1.00800           0
     43933 TIP3     1513     TIP3     OH2      OT      -0.834000       15.9994           0
     43934 TIP3     1513     TIP3     H1       HT       0.417000       1.00800           0
     43935 TIP3     1513     TIP3     H2       HT       0.417000       1.00800           0
     43936 TIP3     1514     TIP3     OH2      OT      -0.834000       15.9994           0
     43937 TIP3     1514     TIP3     H1       HT       0.417000       1.00800           0
     43938 TIP3     1514     TIP3     H2       HT       0.417000       1.00800           0
     43939 TIP3     1515     TIP3     OH2      OT      -0.834000       15.9994           0
     43940 TIP3     1515     TIP3     H1       HT       0.417000       1.00800           0
     43941 TIP3     1515     TIP3     H2       HT       0.417000       1.00800           0
     43942 TIP3     1516     TIP3     OH2      OT      -0.834000       15.9994           0
     43943 TIP3     1516     TIP3     H1       HT       0.417000       1.00800           0
     43944 TIP3     1516     TIP3     H2       HT       0.417000       1.00800           0
     43945 TIP3     1517     TIP3     OH2      OT      -0.834000       15.9994           0
     43946 TIP3     1517     TIP3     H1       HT       0.417000       1.00800           0
     43947 TIP3     1517     TIP3     H2       HT       0.417000       1.00800           0
     43948 TIP3     1518     TIP3     OH2      OT      -0.834000       15.9994           0
     43949 TIP3     1518     TIP3     H1       HT       0.417000       1.00800           0
     43950 TIP3     1518     TIP3     H2       HT       0.417000       1.00800           0
     43951 TIP3     1519     TIP3     OH2      OT      -0.834000       15.9994           0
     43952 TIP3     1519     TIP3     H1       HT       0.417000       1.00800           0
     43953 TIP3     1519     TIP3     H2       HT       0.417000       1.00800           0
     43954 TIP3     1520     TIP3     OH2      OT      -0.834000       15.9994           0
     43955 TIP3     1520     TIP3     H1       HT       0.417000       1.00800           0
     43956 TIP3     1520     TIP3     H2       HT       0.417000       1.00800           0
     43957 TIP3     1521     TIP3     OH2      OT      -0.834000       15.9994           0
     43958 TIP3     1521     TIP3     H1       HT       0.417000       1.00800           0
     43959 TIP3     1521     TIP3     H2       HT       0.417000       1.00800           0
     43960 TIP3     1522     TIP3     OH2      OT      -0.834000       15.9994           0
     43961 TIP3     1522     TIP3     H1       HT       0.417000       1.00800           0
     43962 TIP3     1522     TIP3     H2       HT       0.417000       1.00800           0
     43963 TIP3     1523     TIP3     OH2      OT      -0.834000       15.9994           0
     43964 TIP3     1523     TIP3     H1       HT       0.417000       1.00800           0
     43965 TIP3     1523     TIP3     H2       HT       0.417000       1.00800           0
     43966 TIP3     1524     TIP3     OH2      OT      -0.834000       15.9994           0
     43967 TIP3     1524     TIP3     H1       HT       0.417000       1.00800           0
     43968 TIP3     1524     TIP3     H2       HT       0.417000       1.00800           0
     43969 TIP3     1525     TIP3     OH2      OT      -0.834000       15.9994           0
     43970 TIP3     1525     TIP3     H1       HT       0.417000       1.00800           0
     43971 TIP3     1525     TIP3     H2       HT       0.417000       1.00800           0
     43972 TIP3     1526     TIP3     OH2      OT      -0.834000       15.9994           0
     43973 TIP3     1526     TIP3     H1       HT       0.417000       1.00800           0
     43974 TIP3     1526     TIP3     H2       HT       0.417000       1.00800           0
     43975 TIP3     1527     TIP3     OH2      OT      -0.834000       15.9994           0
     43976 TIP3     1527     TIP3     H1       HT       0.417000       1.00800           0
     43977 TIP3     1527     TIP3     H2       HT       0.417000       1.00800           0
     43978 TIP3     1528     TIP3     OH2      OT      -0.834000       15.9994           0
     43979 TIP3     1528     TIP3     H1       HT       0.417000       1.00800           0
     43980 TIP3     1528     TIP3     H2       HT       0.417000       1.00800           0
     43981 TIP3     1529     TIP3     OH2      OT      -0.834000       15.9994           0
     43982 TIP3     1529     TIP3     H1       HT       0.417000       1.00800           0
     43983 TIP3     1529     TIP3     H2       HT       0.417000       1.00800           0
     43984 TIP3     1530     TIP3     OH2      OT      -0.834000       15.9994           0
     43985 TIP3     1530     TIP3     H1       HT       0.417000       1.00800           0
     43986 TIP3     1530     TIP3     H2       HT       0.417000       1.00800           0
     43987 TIP3     1531     TIP3     OH2      OT      -0.834000       15.9994           0
     43988 TIP3     1531     TIP3     H1       HT       0.417000       1.00800           0
     43989 TIP3     1531     TIP3     H2       HT       0.417000       1.00800           0
     43990 TIP3     1532     TIP3     OH2      OT      -0.834000       15.9994           0
     43991 TIP3     1532     TIP3     H1       HT       0.417000       1.00800           0
     43992 TIP3     1532     TIP3     H2       HT       0.417000       1.00800           0
     43993 TIP3     1533     TIP3     OH2      OT      -0.834000       15.9994           0
     43994 TIP3     1533     TIP3     H1       HT       0.417000       1.00800           0
     43995 TIP3     1533     TIP3     H2       HT       0.417000       1.00800           0
     43996 TIP3     1534     TIP3     OH2      OT      -0.834000       15.9994           0
     43997 TIP3     1534     TIP3     H1       HT       0.417000       1.00800           0
     43998 TIP3     1534     TIP3     H2       HT       0.417000       1.00800           0
     43999 TIP3     1535     TIP3     OH2      OT      -0.834000       15.9994           0
     44000 TIP3     1535     TIP3     H1       HT       0.417000       1.00800           0
     44001 TIP3     1535     TIP3     H2       HT       0.417000       1.00800           0
     44002 TIP3     1536     TIP3     OH2      OT      -0.834000       15.9994           0
     44003 TIP3     1536     TIP3     H1       HT       0.417000       1.00800           0
     44004 TIP3     1536     TIP3     H2       HT       0.417000       1.00800           0
     44005 TIP3     1537     TIP3     OH2      OT      -0.834000       15.9994           0
     44006 TIP3     1537     TIP3     H1       HT       0.417000       1.00800           0
     44007 TIP3     1537     TIP3     H2       HT       0.417000       1.00800           0
     44008 TIP3     1538     TIP3     OH2      OT      -0.834000       15.9994           0
     44009 TIP3     1538     TIP3     H1       HT       0.417000       1.00800           0
     44010 TIP3     1538     TIP3     H2       HT       0.417000       1.00800           0
     44011 TIP3     1539     TIP3     OH2      OT      -0.834000       15.9994           0
     44012 TIP3     1539     TIP3     H1       HT       0.417000       1.00800           0
     44013 TIP3     1539     TIP3     H2       HT       0.417000       1.00800           0
     44014 TIP3     1540     TIP3     OH2      OT      -0.834000       15.9994           0
     44015 TIP3     1540     TIP3     H1       HT       0.417000       1.00800           0
     44016 TIP3     1540     TIP3     H2       HT       0.417000       1.00800           0
     44017 TIP3     1541     TIP3     OH2      OT      -0.834000       15.9994           0
     44018 TIP3     1541     TIP3     H1       HT       0.417000       1.00800           0
     44019 TIP3     1541     TIP3     H2       HT       0.417000       1.00800           0
     44020 TIP3     1542     TIP3     OH2      OT      -0.834000       15.9994           0
     44021 TIP3     1542     TIP3     H1       HT       0.417000       1.00800           0
     44022 TIP3     1542     TIP3     H2       HT       0.417000       1.00800           0
     44023 TIP3     1543     TIP3     OH2      OT      -0.834000       15.9994           0
     44024 TIP3     1543     TIP3     H1       HT       0.417000       1.00800           0
     44025 TIP3     1543     TIP3     H2       HT       0.417000       1.00800           0
     44026 TIP3     1544     TIP3     OH2      OT      -0.834000       15.9994           0
     44027 TIP3     1544     TIP3     H1       HT       0.417000       1.00800           0
     44028 TIP3     1544     TIP3     H2       HT       0.417000       1.00800           0
     44029 TIP3     1545     TIP3     OH2      OT      -0.834000       15.9994           0
     44030 TIP3     1545     TIP3     H1       HT       0.417000       1.00800           0
     44031 TIP3     1545     TIP3     H2       HT       0.417000       1.00800           0
     44032 TIP3     1546     TIP3     OH2      OT      -0.834000       15.9994           0
     44033 TIP3     1546     TIP3     H1       HT       0.417000       1.00800           0
     44034 TIP3     1546     TIP3     H2       HT       0.417000       1.00800           0
     44035 TIP3     1547     TIP3     OH2      OT      -0.834000       15.9994           0
     44036 TIP3     1547     TIP3     H1       HT       0.417000       1.00800           0
     44037 TIP3     1547     TIP3     H2       HT       0.417000       1.00800           0
     44038 TIP3     1548     TIP3     OH2      OT      -0.834000       15.9994           0
     44039 TIP3     1548     TIP3     H1       HT       0.417000       1.00800           0
     44040 TIP3     1548     TIP3     H2       HT       0.417000       1.00800           0
     44041 TIP3     1549     TIP3     OH2      OT      -0.834000       15.9994           0
     44042 TIP3     1549     TIP3     H1       HT       0.417000       1.00800           0
     44043 TIP3     1549     TIP3     H2       HT       0.417000       1.00800           0
     44044 TIP3     1550     TIP3     OH2      OT      -0.834000       15.9994           0
     44045 TIP3     1550     TIP3     H1       HT       0.417000       1.00800           0
     44046 TIP3     1550     TIP3     H2       HT       0.417000       1.00800           0
     44047 TIP3     1551     TIP3     OH2      OT      -0.834000       15.9994           0
     44048 TIP3     1551     TIP3     H1       HT       0.417000       1.00800           0
     44049 TIP3     1551     TIP3     H2       HT       0.417000       1.00800           0
     44050 TIP3     1552     TIP3     OH2      OT      -0.834000       15.9994           0
     44051 TIP3     1552     TIP3     H1       HT       0.417000       1.00800           0
     44052 TIP3     1552     TIP3     H2       HT       0.417000       1.00800           0
     44053 TIP3     1553     TIP3     OH2      OT      -0.834000       15.9994           0
     44054 TIP3     1553     TIP3     H1       HT       0.417000       1.00800           0
     44055 TIP3     1553     TIP3     H2       HT       0.417000       1.00800           0
     44056 TIP3     1554     TIP3     OH2      OT      -0.834000       15.9994           0
     44057 TIP3     1554     TIP3     H1       HT       0.417000       1.00800           0
     44058 TIP3     1554     TIP3     H2       HT       0.417000       1.00800           0
     44059 TIP3     1555     TIP3     OH2      OT      -0.834000       15.9994           0
     44060 TIP3     1555     TIP3     H1       HT       0.417000       1.00800           0
     44061 TIP3     1555     TIP3     H2       HT       0.417000       1.00800           0
     44062 TIP3     1556     TIP3     OH2      OT      -0.834000       15.9994           0
     44063 TIP3     1556     TIP3     H1       HT       0.417000       1.00800           0
     44064 TIP3     1556     TIP3     H2       HT       0.417000       1.00800           0
     44065 TIP3     1557     TIP3     OH2      OT      -0.834000       15.9994           0
     44066 TIP3     1557     TIP3     H1       HT       0.417000       1.00800           0
     44067 TIP3     1557     TIP3     H2       HT       0.417000       1.00800           0
     44068 TIP3     1558     TIP3     OH2      OT      -0.834000       15.9994           0
     44069 TIP3     1558     TIP3     H1       HT       0.417000       1.00800           0
     44070 TIP3     1558     TIP3     H2       HT       0.417000       1.00800           0
     44071 TIP3     1559     TIP3     OH2      OT      -0.834000       15.9994           0
     44072 TIP3     1559     TIP3     H1       HT       0.417000       1.00800           0
     44073 TIP3     1559     TIP3     H2       HT       0.417000       1.00800           0
     44074 TIP3     1560     TIP3     OH2      OT      -0.834000       15.9994           0
     44075 TIP3     1560     TIP3     H1       HT       0.417000       1.00800           0
     44076 TIP3     1560     TIP3     H2       HT       0.417000       1.00800           0
     44077 TIP3     1561     TIP3     OH2      OT      -0.834000       15.9994           0
     44078 TIP3     1561     TIP3     H1       HT       0.417000       1.00800           0
     44079 TIP3     1561     TIP3     H2       HT       0.417000       1.00800           0
     44080 TIP3     1562     TIP3     OH2      OT      -0.834000       15.9994           0
     44081 TIP3     1562     TIP3     H1       HT       0.417000       1.00800           0
     44082 TIP3     1562     TIP3     H2       HT       0.417000       1.00800           0
     44083 TIP3     1563     TIP3     OH2      OT      -0.834000       15.9994           0
     44084 TIP3     1563     TIP3     H1       HT       0.417000       1.00800           0
     44085 TIP3     1563     TIP3     H2       HT       0.417000       1.00800           0
     44086 TIP3     1564     TIP3     OH2      OT      -0.834000       15.9994           0
     44087 TIP3     1564     TIP3     H1       HT       0.417000       1.00800           0
     44088 TIP3     1564     TIP3     H2       HT       0.417000       1.00800           0
     44089 TIP3     1565     TIP3     OH2      OT      -0.834000       15.9994           0
     44090 TIP3     1565     TIP3     H1       HT       0.417000       1.00800           0
     44091 TIP3     1565     TIP3     H2       HT       0.417000       1.00800           0
     44092 TIP3     1566     TIP3     OH2      OT      -0.834000       15.9994           0
     44093 TIP3     1566     TIP3     H1       HT       0.417000       1.00800           0
     44094 TIP3     1566     TIP3     H2       HT       0.417000       1.00800           0
     44095 TIP3     1567     TIP3     OH2      OT      -0.834000       15.9994           0
     44096 TIP3     1567     TIP3     H1       HT       0.417000       1.00800           0
     44097 TIP3     1567     TIP3     H2       HT       0.417000       1.00800           0
     44098 TIP3     1568     TIP3     OH2      OT      -0.834000       15.9994           0
     44099 TIP3     1568     TIP3     H1       HT       0.417000       1.00800           0
     44100 TIP3     1568     TIP3     H2       HT       0.417000       1.00800           0
     44101 TIP3     1569     TIP3     OH2      OT      -0.834000       15.9994           0
     44102 TIP3     1569     TIP3     H1       HT       0.417000       1.00800           0
     44103 TIP3     1569     TIP3     H2       HT       0.417000       1.00800           0
     44104 TIP3     1570     TIP3     OH2      OT      -0.834000       15.9994           0
     44105 TIP3     1570     TIP3     H1       HT       0.417000       1.00800           0
     44106 TIP3     1570     TIP3     H2       HT       0.417000       1.00800           0
     44107 TIP3     1571     TIP3     OH2      OT      -0.834000       15.9994           0
     44108 TIP3     1571     TIP3     H1       HT       0.417000       1.00800           0
     44109 TIP3     1571     TIP3     H2       HT       0.417000       1.00800           0
     44110 TIP3     1572     TIP3     OH2      OT      -0.834000       15.9994           0
     44111 TIP3     1572     TIP3     H1       HT       0.417000       1.00800           0
     44112 TIP3     1572     TIP3     H2       HT       0.417000       1.00800           0
     44113 TIP3     1573     TIP3     OH2      OT      -0.834000       15.9994           0
     44114 TIP3     1573     TIP3     H1       HT       0.417000       1.00800           0
     44115 TIP3     1573     TIP3     H2       HT       0.417000       1.00800           0
     44116 TIP3     1574     TIP3     OH2      OT      -0.834000       15.9994           0
     44117 TIP3     1574     TIP3     H1       HT       0.417000       1.00800           0
     44118 TIP3     1574     TIP3     H2       HT       0.417000       1.00800           0
     44119 TIP3     1575     TIP3     OH2      OT      -0.834000       15.9994           0
     44120 TIP3     1575     TIP3     H1       HT       0.417000       1.00800           0
     44121 TIP3     1575     TIP3     H2       HT       0.417000       1.00800           0
     44122 TIP3     1576     TIP3     OH2      OT      -0.834000       15.9994           0
     44123 TIP3     1576     TIP3     H1       HT       0.417000       1.00800           0
     44124 TIP3     1576     TIP3     H2       HT       0.417000       1.00800           0
     44125 TIP3     1577     TIP3     OH2      OT      -0.834000       15.9994           0
     44126 TIP3     1577     TIP3     H1       HT       0.417000       1.00800           0
     44127 TIP3     1577     TIP3     H2       HT       0.417000       1.00800           0
     44128 TIP3     1578     TIP3     OH2      OT      -0.834000       15.9994           0
     44129 TIP3     1578     TIP3     H1       HT       0.417000       1.00800           0
     44130 TIP3     1578     TIP3     H2       HT       0.417000       1.00800           0
     44131 TIP3     1579     TIP3     OH2      OT      -0.834000       15.9994           0
     44132 TIP3     1579     TIP3     H1       HT       0.417000       1.00800           0
     44133 TIP3     1579     TIP3     H2       HT       0.417000       1.00800           0
     44134 TIP3     1580     TIP3     OH2      OT      -0.834000       15.9994           0
     44135 TIP3     1580     TIP3     H1       HT       0.417000       1.00800           0
     44136 TIP3     1580     TIP3     H2       HT       0.417000       1.00800           0
     44137 TIP3     1581     TIP3     OH2      OT      -0.834000       15.9994           0
     44138 TIP3     1581     TIP3     H1       HT       0.417000       1.00800           0
     44139 TIP3     1581     TIP3     H2       HT       0.417000       1.00800           0
     44140 TIP3     1582     TIP3     OH2      OT      -0.834000       15.9994           0
     44141 TIP3     1582     TIP3     H1       HT       0.417000       1.00800           0
     44142 TIP3     1582     TIP3     H2       HT       0.417000       1.00800           0
     44143 TIP3     1583     TIP3     OH2      OT      -0.834000       15.9994           0
     44144 TIP3     1583     TIP3     H1       HT       0.417000       1.00800           0
     44145 TIP3     1583     TIP3     H2       HT       0.417000       1.00800           0
     44146 TIP3     1584     TIP3     OH2      OT      -0.834000       15.9994           0
     44147 TIP3     1584     TIP3     H1       HT       0.417000       1.00800           0
     44148 TIP3     1584     TIP3     H2       HT       0.417000       1.00800           0
     44149 TIP3     1585     TIP3     OH2      OT      -0.834000       15.9994           0
     44150 TIP3     1585     TIP3     H1       HT       0.417000       1.00800           0
     44151 TIP3     1585     TIP3     H2       HT       0.417000       1.00800           0
     44152 TIP3     1586     TIP3     OH2      OT      -0.834000       15.9994           0
     44153 TIP3     1586     TIP3     H1       HT       0.417000       1.00800           0
     44154 TIP3     1586     TIP3     H2       HT       0.417000       1.00800           0
     44155 TIP3     1587     TIP3     OH2      OT      -0.834000       15.9994           0
     44156 TIP3     1587     TIP3     H1       HT       0.417000       1.00800           0
     44157 TIP3     1587     TIP3     H2       HT       0.417000       1.00800           0
     44158 TIP3     1588     TIP3     OH2      OT      -0.834000       15.9994           0
     44159 TIP3     1588     TIP3     H1       HT       0.417000       1.00800           0
     44160 TIP3     1588     TIP3     H2       HT       0.417000       1.00800           0
     44161 TIP3     1589     TIP3     OH2      OT      -0.834000       15.9994           0
     44162 TIP3     1589     TIP3     H1       HT       0.417000       1.00800           0
     44163 TIP3     1589     TIP3     H2       HT       0.417000       1.00800           0
     44164 TIP3     1590     TIP3     OH2      OT      -0.834000       15.9994           0
     44165 TIP3     1590     TIP3     H1       HT       0.417000       1.00800           0
     44166 TIP3     1590     TIP3     H2       HT       0.417000       1.00800           0
     44167 TIP3     1591     TIP3     OH2      OT      -0.834000       15.9994           0
     44168 TIP3     1591     TIP3     H1       HT       0.417000       1.00800           0
     44169 TIP3     1591     TIP3     H2       HT       0.417000       1.00800           0
     44170 TIP3     1592     TIP3     OH2      OT      -0.834000       15.9994           0
     44171 TIP3     1592     TIP3     H1       HT       0.417000       1.00800           0
     44172 TIP3     1592     TIP3     H2       HT       0.417000       1.00800           0
     44173 TIP3     1593     TIP3     OH2      OT      -0.834000       15.9994           0
     44174 TIP3     1593     TIP3     H1       HT       0.417000       1.00800           0
     44175 TIP3     1593     TIP3     H2       HT       0.417000       1.00800           0
     44176 TIP3     1594     TIP3     OH2      OT      -0.834000       15.9994           0
     44177 TIP3     1594     TIP3     H1       HT       0.417000       1.00800           0
     44178 TIP3     1594     TIP3     H2       HT       0.417000       1.00800           0
     44179 TIP3     1595     TIP3     OH2      OT      -0.834000       15.9994           0
     44180 TIP3     1595     TIP3     H1       HT       0.417000       1.00800           0
     44181 TIP3     1595     TIP3     H2       HT       0.417000       1.00800           0
     44182 TIP3     1596     TIP3     OH2      OT      -0.834000       15.9994           0
     44183 TIP3     1596     TIP3     H1       HT       0.417000       1.00800           0
     44184 TIP3     1596     TIP3     H2       HT       0.417000       1.00800           0
     44185 TIP3     1597     TIP3     OH2      OT      -0.834000       15.9994           0
     44186 TIP3     1597     TIP3     H1       HT       0.417000       1.00800           0
     44187 TIP3     1597     TIP3     H2       HT       0.417000       1.00800           0
     44188 TIP3     1598     TIP3     OH2      OT      -0.834000       15.9994           0
     44189 TIP3     1598     TIP3     H1       HT       0.417000       1.00800           0
     44190 TIP3     1598     TIP3     H2       HT       0.417000       1.00800           0
     44191 TIP3     1599     TIP3     OH2      OT      -0.834000       15.9994           0
     44192 TIP3     1599     TIP3     H1       HT       0.417000       1.00800           0
     44193 TIP3     1599     TIP3     H2       HT       0.417000       1.00800           0
     44194 TIP3     1600     TIP3     OH2      OT      -0.834000       15.9994           0
     44195 TIP3     1600     TIP3     H1       HT       0.417000       1.00800           0
     44196 TIP3     1600     TIP3     H2       HT       0.417000       1.00800           0
     44197 TIP3     1601     TIP3     OH2      OT      -0.834000       15.9994           0
     44198 TIP3     1601     TIP3     H1       HT       0.417000       1.00800           0
     44199 TIP3     1601     TIP3     H2       HT       0.417000       1.00800           0
     44200 TIP3     1602     TIP3     OH2      OT      -0.834000       15.9994           0
     44201 TIP3     1602     TIP3     H1       HT       0.417000       1.00800           0
     44202 TIP3     1602     TIP3     H2       HT       0.417000       1.00800           0
     44203 TIP3     1603     TIP3     OH2      OT      -0.834000       15.9994           0
     44204 TIP3     1603     TIP3     H1       HT       0.417000       1.00800           0
     44205 TIP3     1603     TIP3     H2       HT       0.417000       1.00800           0
     44206 TIP3     1604     TIP3     OH2      OT      -0.834000       15.9994           0
     44207 TIP3     1604     TIP3     H1       HT       0.417000       1.00800           0
     44208 TIP3     1604     TIP3     H2       HT       0.417000       1.00800           0
     44209 TIP3     1605     TIP3     OH2      OT      -0.834000       15.9994           0
     44210 TIP3     1605     TIP3     H1       HT       0.417000       1.00800           0
     44211 TIP3     1605     TIP3     H2       HT       0.417000       1.00800           0
     44212 TIP3     1606     TIP3     OH2      OT      -0.834000       15.9994           0
     44213 TIP3     1606     TIP3     H1       HT       0.417000       1.00800           0
     44214 TIP3     1606     TIP3     H2       HT       0.417000       1.00800           0
     44215 TIP3     1607     TIP3     OH2      OT      -0.834000       15.9994           0
     44216 TIP3     1607     TIP3     H1       HT       0.417000       1.00800           0
     44217 TIP3     1607     TIP3     H2       HT       0.417000       1.00800           0
     44218 TIP3     1608     TIP3     OH2      OT      -0.834000       15.9994           0
     44219 TIP3     1608     TIP3     H1       HT       0.417000       1.00800           0
     44220 TIP3     1608     TIP3     H2       HT       0.417000       1.00800           0
     44221 TIP3     1609     TIP3     OH2      OT      -0.834000       15.9994           0
     44222 TIP3     1609     TIP3     H1       HT       0.417000       1.00800           0
     44223 TIP3     1609     TIP3     H2       HT       0.417000       1.00800           0
     44224 TIP3     1610     TIP3     OH2      OT      -0.834000       15.9994           0
     44225 TIP3     1610     TIP3     H1       HT       0.417000       1.00800           0
     44226 TIP3     1610     TIP3     H2       HT       0.417000       1.00800           0
     44227 TIP3     1611     TIP3     OH2      OT      -0.834000       15.9994           0
     44228 TIP3     1611     TIP3     H1       HT       0.417000       1.00800           0
     44229 TIP3     1611     TIP3     H2       HT       0.417000       1.00800           0
     44230 TIP3     1612     TIP3     OH2      OT      -0.834000       15.9994           0
     44231 TIP3     1612     TIP3     H1       HT       0.417000       1.00800           0
     44232 TIP3     1612     TIP3     H2       HT       0.417000       1.00800           0
     44233 TIP3     1613     TIP3     OH2      OT      -0.834000       15.9994           0
     44234 TIP3     1613     TIP3     H1       HT       0.417000       1.00800           0
     44235 TIP3     1613     TIP3     H2       HT       0.417000       1.00800           0
     44236 TIP3     1614     TIP3     OH2      OT      -0.834000       15.9994           0
     44237 TIP3     1614     TIP3     H1       HT       0.417000       1.00800           0
     44238 TIP3     1614     TIP3     H2       HT       0.417000       1.00800           0
     44239 TIP3     1615     TIP3     OH2      OT      -0.834000       15.9994           0
     44240 TIP3     1615     TIP3     H1       HT       0.417000       1.00800           0
     44241 TIP3     1615     TIP3     H2       HT       0.417000       1.00800           0
     44242 TIP3     1616     TIP3     OH2      OT      -0.834000       15.9994           0
     44243 TIP3     1616     TIP3     H1       HT       0.417000       1.00800           0
     44244 TIP3     1616     TIP3     H2       HT       0.417000       1.00800           0
     44245 TIP3     1617     TIP3     OH2      OT      -0.834000       15.9994           0
     44246 TIP3     1617     TIP3     H1       HT       0.417000       1.00800           0
     44247 TIP3     1617     TIP3     H2       HT       0.417000       1.00800           0
     44248 TIP3     1618     TIP3     OH2      OT      -0.834000       15.9994           0
     44249 TIP3     1618     TIP3     H1       HT       0.417000       1.00800           0
     44250 TIP3     1618     TIP3     H2       HT       0.417000       1.00800           0
     44251 TIP3     1619     TIP3     OH2      OT      -0.834000       15.9994           0
     44252 TIP3     1619     TIP3     H1       HT       0.417000       1.00800           0
     44253 TIP3     1619     TIP3     H2       HT       0.417000       1.00800           0
     44254 TIP3     1620     TIP3     OH2      OT      -0.834000       15.9994           0
     44255 TIP3     1620     TIP3     H1       HT       0.417000       1.00800           0
     44256 TIP3     1620     TIP3     H2       HT       0.417000       1.00800           0
     44257 TIP3     1621     TIP3     OH2      OT      -0.834000       15.9994           0
     44258 TIP3     1621     TIP3     H1       HT       0.417000       1.00800           0
     44259 TIP3     1621     TIP3     H2       HT       0.417000       1.00800           0
     44260 TIP3     1622     TIP3     OH2      OT      -0.834000       15.9994           0
     44261 TIP3     1622     TIP3     H1       HT       0.417000       1.00800           0
     44262 TIP3     1622     TIP3     H2       HT       0.417000       1.00800           0
     44263 TIP3     1623     TIP3     OH2      OT      -0.834000       15.9994           0
     44264 TIP3     1623     TIP3     H1       HT       0.417000       1.00800           0
     44265 TIP3     1623     TIP3     H2       HT       0.417000       1.00800           0
     44266 TIP3     1624     TIP3     OH2      OT      -0.834000       15.9994           0
     44267 TIP3     1624     TIP3     H1       HT       0.417000       1.00800           0
     44268 TIP3     1624     TIP3     H2       HT       0.417000       1.00800           0
     44269 TIP3     1625     TIP3     OH2      OT      -0.834000       15.9994           0
     44270 TIP3     1625     TIP3     H1       HT       0.417000       1.00800           0
     44271 TIP3     1625     TIP3     H2       HT       0.417000       1.00800           0
     44272 TIP3     1626     TIP3     OH2      OT      -0.834000       15.9994           0
     44273 TIP3     1626     TIP3     H1       HT       0.417000       1.00800           0
     44274 TIP3     1626     TIP3     H2       HT       0.417000       1.00800           0
     44275 TIP3     1627     TIP3     OH2      OT      -0.834000       15.9994           0
     44276 TIP3     1627     TIP3     H1       HT       0.417000       1.00800           0
     44277 TIP3     1627     TIP3     H2       HT       0.417000       1.00800           0
     44278 TIP3     1628     TIP3     OH2      OT      -0.834000       15.9994           0
     44279 TIP3     1628     TIP3     H1       HT       0.417000       1.00800           0
     44280 TIP3     1628     TIP3     H2       HT       0.417000       1.00800           0
     44281 TIP3     1629     TIP3     OH2      OT      -0.834000       15.9994           0
     44282 TIP3     1629     TIP3     H1       HT       0.417000       1.00800           0
     44283 TIP3     1629     TIP3     H2       HT       0.417000       1.00800           0
     44284 TIP3     1630     TIP3     OH2      OT      -0.834000       15.9994           0
     44285 TIP3     1630     TIP3     H1       HT       0.417000       1.00800           0
     44286 TIP3     1630     TIP3     H2       HT       0.417000       1.00800           0
     44287 TIP3     1631     TIP3     OH2      OT      -0.834000       15.9994           0
     44288 TIP3     1631     TIP3     H1       HT       0.417000       1.00800           0
     44289 TIP3     1631     TIP3     H2       HT       0.417000       1.00800           0
     44290 TIP3     1632     TIP3     OH2      OT      -0.834000       15.9994           0
     44291 TIP3     1632     TIP3     H1       HT       0.417000       1.00800           0
     44292 TIP3     1632     TIP3     H2       HT       0.417000       1.00800           0
     44293 TIP3     1633     TIP3     OH2      OT      -0.834000       15.9994           0
     44294 TIP3     1633     TIP3     H1       HT       0.417000       1.00800           0
     44295 TIP3     1633     TIP3     H2       HT       0.417000       1.00800           0
     44296 TIP3     1634     TIP3     OH2      OT      -0.834000       15.9994           0
     44297 TIP3     1634     TIP3     H1       HT       0.417000       1.00800           0
     44298 TIP3     1634     TIP3     H2       HT       0.417000       1.00800           0
     44299 TIP3     1635     TIP3     OH2      OT      -0.834000       15.9994           0
     44300 TIP3     1635     TIP3     H1       HT       0.417000       1.00800           0
     44301 TIP3     1635     TIP3     H2       HT       0.417000       1.00800           0
     44302 TIP3     1636     TIP3     OH2      OT      -0.834000       15.9994           0
     44303 TIP3     1636     TIP3     H1       HT       0.417000       1.00800           0
     44304 TIP3     1636     TIP3     H2       HT       0.417000       1.00800           0
     44305 TIP3     1637     TIP3     OH2      OT      -0.834000       15.9994           0
     44306 TIP3     1637     TIP3     H1       HT       0.417000       1.00800           0
     44307 TIP3     1637     TIP3     H2       HT       0.417000       1.00800           0
     44308 TIP3     1638     TIP3     OH2      OT      -0.834000       15.9994           0
     44309 TIP3     1638     TIP3     H1       HT       0.417000       1.00800           0
     44310 TIP3     1638     TIP3     H2       HT       0.417000       1.00800           0
     44311 TIP3     1639     TIP3     OH2      OT      -0.834000       15.9994           0
     44312 TIP3     1639     TIP3     H1       HT       0.417000       1.00800           0
     44313 TIP3     1639     TIP3     H2       HT       0.417000       1.00800           0
     44314 TIP3     1640     TIP3     OH2      OT      -0.834000       15.9994           0
     44315 TIP3     1640     TIP3     H1       HT       0.417000       1.00800           0
     44316 TIP3     1640     TIP3     H2       HT       0.417000       1.00800           0
     44317 TIP3     1641     TIP3     OH2      OT      -0.834000       15.9994           0
     44318 TIP3     1641     TIP3     H1       HT       0.417000       1.00800           0
     44319 TIP3     1641     TIP3     H2       HT       0.417000       1.00800           0
     44320 TIP3     1642     TIP3     OH2      OT      -0.834000       15.9994           0
     44321 TIP3     1642     TIP3     H1       HT       0.417000       1.00800           0
     44322 TIP3     1642     TIP3     H2       HT       0.417000       1.00800           0
     44323 TIP3     1643     TIP3     OH2      OT      -0.834000       15.9994           0
     44324 TIP3     1643     TIP3     H1       HT       0.417000       1.00800           0
     44325 TIP3     1643     TIP3     H2       HT       0.417000       1.00800           0
     44326 TIP3     1644     TIP3     OH2      OT      -0.834000       15.9994           0
     44327 TIP3     1644     TIP3     H1       HT       0.417000       1.00800           0
     44328 TIP3     1644     TIP3     H2       HT       0.417000       1.00800           0
     44329 TIP3     1645     TIP3     OH2      OT      -0.834000       15.9994           0
     44330 TIP3     1645     TIP3     H1       HT       0.417000       1.00800           0
     44331 TIP3     1645     TIP3     H2       HT       0.417000       1.00800           0
     44332 TIP3     1646     TIP3     OH2      OT      -0.834000       15.9994           0
     44333 TIP3     1646     TIP3     H1       HT       0.417000       1.00800           0
     44334 TIP3     1646     TIP3     H2       HT       0.417000       1.00800           0
     44335 TIP3     1647     TIP3     OH2      OT      -0.834000       15.9994           0
     44336 TIP3     1647     TIP3     H1       HT       0.417000       1.00800           0
     44337 TIP3     1647     TIP3     H2       HT       0.417000       1.00800           0
     44338 TIP3     1648     TIP3     OH2      OT      -0.834000       15.9994           0
     44339 TIP3     1648     TIP3     H1       HT       0.417000       1.00800           0
     44340 TIP3     1648     TIP3     H2       HT       0.417000       1.00800           0
     44341 TIP3     1649     TIP3     OH2      OT      -0.834000       15.9994           0
     44342 TIP3     1649     TIP3     H1       HT       0.417000       1.00800           0
     44343 TIP3     1649     TIP3     H2       HT       0.417000       1.00800           0
     44344 TIP3     1650     TIP3     OH2      OT      -0.834000       15.9994           0
     44345 TIP3     1650     TIP3     H1       HT       0.417000       1.00800           0
     44346 TIP3     1650     TIP3     H2       HT       0.417000       1.00800           0
     44347 TIP3     1651     TIP3     OH2      OT      -0.834000       15.9994           0
     44348 TIP3     1651     TIP3     H1       HT       0.417000       1.00800           0
     44349 TIP3     1651     TIP3     H2       HT       0.417000       1.00800           0
     44350 TIP3     1652     TIP3     OH2      OT      -0.834000       15.9994           0
     44351 TIP3     1652     TIP3     H1       HT       0.417000       1.00800           0
     44352 TIP3     1652     TIP3     H2       HT       0.417000       1.00800           0
     44353 TIP3     1653     TIP3     OH2      OT      -0.834000       15.9994           0
     44354 TIP3     1653     TIP3     H1       HT       0.417000       1.00800           0
     44355 TIP3     1653     TIP3     H2       HT       0.417000       1.00800           0
     44356 TIP3     1654     TIP3     OH2      OT      -0.834000       15.9994           0
     44357 TIP3     1654     TIP3     H1       HT       0.417000       1.00800           0
     44358 TIP3     1654     TIP3     H2       HT       0.417000       1.00800           0
     44359 TIP3     1655     TIP3     OH2      OT      -0.834000       15.9994           0
     44360 TIP3     1655     TIP3     H1       HT       0.417000       1.00800           0
     44361 TIP3     1655     TIP3     H2       HT       0.417000       1.00800           0
     44362 TIP3     1656     TIP3     OH2      OT      -0.834000       15.9994           0
     44363 TIP3     1656     TIP3     H1       HT       0.417000       1.00800           0
     44364 TIP3     1656     TIP3     H2       HT       0.417000       1.00800           0
     44365 TIP3     1657     TIP3     OH2      OT      -0.834000       15.9994           0
     44366 TIP3     1657     TIP3     H1       HT       0.417000       1.00800           0
     44367 TIP3     1657     TIP3     H2       HT       0.417000       1.00800           0
     44368 TIP3     1658     TIP3     OH2      OT      -0.834000       15.9994           0
     44369 TIP3     1658     TIP3     H1       HT       0.417000       1.00800           0
     44370 TIP3     1658     TIP3     H2       HT       0.417000       1.00800           0
     44371 TIP3     1659     TIP3     OH2      OT      -0.834000       15.9994           0
     44372 TIP3     1659     TIP3     H1       HT       0.417000       1.00800           0
     44373 TIP3     1659     TIP3     H2       HT       0.417000       1.00800           0
     44374 TIP3     1660     TIP3     OH2      OT      -0.834000       15.9994           0
     44375 TIP3     1660     TIP3     H1       HT       0.417000       1.00800           0
     44376 TIP3     1660     TIP3     H2       HT       0.417000       1.00800           0
     44377 TIP3     1661     TIP3     OH2      OT      -0.834000       15.9994           0
     44378 TIP3     1661     TIP3     H1       HT       0.417000       1.00800           0
     44379 TIP3     1661     TIP3     H2       HT       0.417000       1.00800           0
     44380 TIP3     1662     TIP3     OH2      OT      -0.834000       15.9994           0
     44381 TIP3     1662     TIP3     H1       HT       0.417000       1.00800           0
     44382 TIP3     1662     TIP3     H2       HT       0.417000       1.00800           0
     44383 TIP3     1663     TIP3     OH2      OT      -0.834000       15.9994           0
     44384 TIP3     1663     TIP3     H1       HT       0.417000       1.00800           0
     44385 TIP3     1663     TIP3     H2       HT       0.417000       1.00800           0
     44386 TIP3     1664     TIP3     OH2      OT      -0.834000       15.9994           0
     44387 TIP3     1664     TIP3     H1       HT       0.417000       1.00800           0
     44388 TIP3     1664     TIP3     H2       HT       0.417000       1.00800           0
     44389 TIP3     1665     TIP3     OH2      OT      -0.834000       15.9994           0
     44390 TIP3     1665     TIP3     H1       HT       0.417000       1.00800           0
     44391 TIP3     1665     TIP3     H2       HT       0.417000       1.00800           0
     44392 TIP3     1666     TIP3     OH2      OT      -0.834000       15.9994           0
     44393 TIP3     1666     TIP3     H1       HT       0.417000       1.00800           0
     44394 TIP3     1666     TIP3     H2       HT       0.417000       1.00800           0
     44395 TIP3     1667     TIP3     OH2      OT      -0.834000       15.9994           0
     44396 TIP3     1667     TIP3     H1       HT       0.417000       1.00800           0
     44397 TIP3     1667     TIP3     H2       HT       0.417000       1.00800           0
     44398 TIP3     1668     TIP3     OH2      OT      -0.834000       15.9994           0
     44399 TIP3     1668     TIP3     H1       HT       0.417000       1.00800           0
     44400 TIP3     1668     TIP3     H2       HT       0.417000       1.00800           0
     44401 TIP3     1669     TIP3     OH2      OT      -0.834000       15.9994           0
     44402 TIP3     1669     TIP3     H1       HT       0.417000       1.00800           0
     44403 TIP3     1669     TIP3     H2       HT       0.417000       1.00800           0
     44404 TIP3     1670     TIP3     OH2      OT      -0.834000       15.9994           0
     44405 TIP3     1670     TIP3     H1       HT       0.417000       1.00800           0
     44406 TIP3     1670     TIP3     H2       HT       0.417000       1.00800           0
     44407 TIP3     1671     TIP3     OH2      OT      -0.834000       15.9994           0
     44408 TIP3     1671     TIP3     H1       HT       0.417000       1.00800           0
     44409 TIP3     1671     TIP3     H2       HT       0.417000       1.00800           0
     44410 TIP3     1672     TIP3     OH2      OT      -0.834000       15.9994           0
     44411 TIP3     1672     TIP3     H1       HT       0.417000       1.00800           0
     44412 TIP3     1672     TIP3     H2       HT       0.417000       1.00800           0
     44413 TIP3     1673     TIP3     OH2      OT      -0.834000       15.9994           0
     44414 TIP3     1673     TIP3     H1       HT       0.417000       1.00800           0
     44415 TIP3     1673     TIP3     H2       HT       0.417000       1.00800           0
     44416 TIP3     1674     TIP3     OH2      OT      -0.834000       15.9994           0
     44417 TIP3     1674     TIP3     H1       HT       0.417000       1.00800           0
     44418 TIP3     1674     TIP3     H2       HT       0.417000       1.00800           0
     44419 TIP3     1675     TIP3     OH2      OT      -0.834000       15.9994           0
     44420 TIP3     1675     TIP3     H1       HT       0.417000       1.00800           0
     44421 TIP3     1675     TIP3     H2       HT       0.417000       1.00800           0
     44422 TIP3     1676     TIP3     OH2      OT      -0.834000       15.9994           0
     44423 TIP3     1676     TIP3     H1       HT       0.417000       1.00800           0
     44424 TIP3     1676     TIP3     H2       HT       0.417000       1.00800           0
     44425 TIP3     1677     TIP3     OH2      OT      -0.834000       15.9994           0
     44426 TIP3     1677     TIP3     H1       HT       0.417000       1.00800           0
     44427 TIP3     1677     TIP3     H2       HT       0.417000       1.00800           0
     44428 TIP3     1678     TIP3     OH2      OT      -0.834000       15.9994           0
     44429 TIP3     1678     TIP3     H1       HT       0.417000       1.00800           0
     44430 TIP3     1678     TIP3     H2       HT       0.417000       1.00800           0
     44431 TIP3     1679     TIP3     OH2      OT      -0.834000       15.9994           0
     44432 TIP3     1679     TIP3     H1       HT       0.417000       1.00800           0
     44433 TIP3     1679     TIP3     H2       HT       0.417000       1.00800           0
     44434 TIP3     1680     TIP3     OH2      OT      -0.834000       15.9994           0
     44435 TIP3     1680     TIP3     H1       HT       0.417000       1.00800           0
     44436 TIP3     1680     TIP3     H2       HT       0.417000       1.00800           0
     44437 TIP3     1681     TIP3     OH2      OT      -0.834000       15.9994           0
     44438 TIP3     1681     TIP3     H1       HT       0.417000       1.00800           0
     44439 TIP3     1681     TIP3     H2       HT       0.417000       1.00800           0
     44440 TIP3     1682     TIP3     OH2      OT      -0.834000       15.9994           0
     44441 TIP3     1682     TIP3     H1       HT       0.417000       1.00800           0
     44442 TIP3     1682     TIP3     H2       HT       0.417000       1.00800           0
     44443 TIP3     1683     TIP3     OH2      OT      -0.834000       15.9994           0
     44444 TIP3     1683     TIP3     H1       HT       0.417000       1.00800           0
     44445 TIP3     1683     TIP3     H2       HT       0.417000       1.00800           0
     44446 TIP3     1684     TIP3     OH2      OT      -0.834000       15.9994           0
     44447 TIP3     1684     TIP3     H1       HT       0.417000       1.00800           0
     44448 TIP3     1684     TIP3     H2       HT       0.417000       1.00800           0
     44449 TIP3     1685     TIP3     OH2      OT      -0.834000       15.9994           0
     44450 TIP3     1685     TIP3     H1       HT       0.417000       1.00800           0
     44451 TIP3     1685     TIP3     H2       HT       0.417000       1.00800           0
     44452 TIP3     1686     TIP3     OH2      OT      -0.834000       15.9994           0
     44453 TIP3     1686     TIP3     H1       HT       0.417000       1.00800           0
     44454 TIP3     1686     TIP3     H2       HT       0.417000       1.00800           0
     44455 TIP3     1687     TIP3     OH2      OT      -0.834000       15.9994           0
     44456 TIP3     1687     TIP3     H1       HT       0.417000       1.00800           0
     44457 TIP3     1687     TIP3     H2       HT       0.417000       1.00800           0
     44458 TIP3     1688     TIP3     OH2      OT      -0.834000       15.9994           0
     44459 TIP3     1688     TIP3     H1       HT       0.417000       1.00800           0
     44460 TIP3     1688     TIP3     H2       HT       0.417000       1.00800           0
     44461 TIP3     1689     TIP3     OH2      OT      -0.834000       15.9994           0
     44462 TIP3     1689     TIP3     H1       HT       0.417000       1.00800           0
     44463 TIP3     1689     TIP3     H2       HT       0.417000       1.00800           0
     44464 TIP3     1690     TIP3     OH2      OT      -0.834000       15.9994           0
     44465 TIP3     1690     TIP3     H1       HT       0.417000       1.00800           0
     44466 TIP3     1690     TIP3     H2       HT       0.417000       1.00800           0
     44467 TIP3     1691     TIP3     OH2      OT      -0.834000       15.9994           0
     44468 TIP3     1691     TIP3     H1       HT       0.417000       1.00800           0
     44469 TIP3     1691     TIP3     H2       HT       0.417000       1.00800           0
     44470 TIP3     1692     TIP3     OH2      OT      -0.834000       15.9994           0
     44471 TIP3     1692     TIP3     H1       HT       0.417000       1.00800           0
     44472 TIP3     1692     TIP3     H2       HT       0.417000       1.00800           0
     44473 TIP3     1693     TIP3     OH2      OT      -0.834000       15.9994           0
     44474 TIP3     1693     TIP3     H1       HT       0.417000       1.00800           0
     44475 TIP3     1693     TIP3     H2       HT       0.417000       1.00800           0
     44476 TIP3     1694     TIP3     OH2      OT      -0.834000       15.9994           0
     44477 TIP3     1694     TIP3     H1       HT       0.417000       1.00800           0
     44478 TIP3     1694     TIP3     H2       HT       0.417000       1.00800           0
     44479 TIP3     1695     TIP3     OH2      OT      -0.834000       15.9994           0
     44480 TIP3     1695     TIP3     H1       HT       0.417000       1.00800           0
     44481 TIP3     1695     TIP3     H2       HT       0.417000       1.00800           0
     44482 TIP3     1696     TIP3     OH2      OT      -0.834000       15.9994           0
     44483 TIP3     1696     TIP3     H1       HT       0.417000       1.00800           0
     44484 TIP3     1696     TIP3     H2       HT       0.417000       1.00800           0
     44485 TIP3     1697     TIP3     OH2      OT      -0.834000       15.9994           0
     44486 TIP3     1697     TIP3     H1       HT       0.417000       1.00800           0
     44487 TIP3     1697     TIP3     H2       HT       0.417000       1.00800           0
     44488 TIP3     1698     TIP3     OH2      OT      -0.834000       15.9994           0
     44489 TIP3     1698     TIP3     H1       HT       0.417000       1.00800           0
     44490 TIP3     1698     TIP3     H2       HT       0.417000       1.00800           0
     44491 TIP3     1699     TIP3     OH2      OT      -0.834000       15.9994           0
     44492 TIP3     1699     TIP3     H1       HT       0.417000       1.00800           0
     44493 TIP3     1699     TIP3     H2       HT       0.417000       1.00800           0
     44494 TIP3     1700     TIP3     OH2      OT      -0.834000       15.9994           0
     44495 TIP3     1700     TIP3     H1       HT       0.417000       1.00800           0
     44496 TIP3     1700     TIP3     H2       HT       0.417000       1.00800           0
     44497 TIP3     1701     TIP3     OH2      OT      -0.834000       15.9994           0
     44498 TIP3     1701     TIP3     H1       HT       0.417000       1.00800           0
     44499 TIP3     1701     TIP3     H2       HT       0.417000       1.00800           0
     44500 TIP3     1702     TIP3     OH2      OT      -0.834000       15.9994           0
     44501 TIP3     1702     TIP3     H1       HT       0.417000       1.00800           0
     44502 TIP3     1702     TIP3     H2       HT       0.417000       1.00800           0
     44503 TIP3     1703     TIP3     OH2      OT      -0.834000       15.9994           0
     44504 TIP3     1703     TIP3     H1       HT       0.417000       1.00800           0
     44505 TIP3     1703     TIP3     H2       HT       0.417000       1.00800           0
     44506 TIP3     1704     TIP3     OH2      OT      -0.834000       15.9994           0
     44507 TIP3     1704     TIP3     H1       HT       0.417000       1.00800           0
     44508 TIP3     1704     TIP3     H2       HT       0.417000       1.00800           0
     44509 TIP3     1705     TIP3     OH2      OT      -0.834000       15.9994           0
     44510 TIP3     1705     TIP3     H1       HT       0.417000       1.00800           0
     44511 TIP3     1705     TIP3     H2       HT       0.417000       1.00800           0
     44512 TIP3     1706     TIP3     OH2      OT      -0.834000       15.9994           0
     44513 TIP3     1706     TIP3     H1       HT       0.417000       1.00800           0
     44514 TIP3     1706     TIP3     H2       HT       0.417000       1.00800           0
     44515 TIP3     1707     TIP3     OH2      OT      -0.834000       15.9994           0
     44516 TIP3     1707     TIP3     H1       HT       0.417000       1.00800           0
     44517 TIP3     1707     TIP3     H2       HT       0.417000       1.00800           0
     44518 TIP3     1708     TIP3     OH2      OT      -0.834000       15.9994           0
     44519 TIP3     1708     TIP3     H1       HT       0.417000       1.00800           0
     44520 TIP3     1708     TIP3     H2       HT       0.417000       1.00800           0
     44521 TIP3     1709     TIP3     OH2      OT      -0.834000       15.9994           0
     44522 TIP3     1709     TIP3     H1       HT       0.417000       1.00800           0
     44523 TIP3     1709     TIP3     H2       HT       0.417000       1.00800           0
     44524 TIP3     1710     TIP3     OH2      OT      -0.834000       15.9994           0
     44525 TIP3     1710     TIP3     H1       HT       0.417000       1.00800           0
     44526 TIP3     1710     TIP3     H2       HT       0.417000       1.00800           0
     44527 TIP3     1711     TIP3     OH2      OT      -0.834000       15.9994           0
     44528 TIP3     1711     TIP3     H1       HT       0.417000       1.00800           0
     44529 TIP3     1711     TIP3     H2       HT       0.417000       1.00800           0
     44530 TIP3     1712     TIP3     OH2      OT      -0.834000       15.9994           0
     44531 TIP3     1712     TIP3     H1       HT       0.417000       1.00800           0
     44532 TIP3     1712     TIP3     H2       HT       0.417000       1.00800           0
     44533 TIP3     1713     TIP3     OH2      OT      -0.834000       15.9994           0
     44534 TIP3     1713     TIP3     H1       HT       0.417000       1.00800           0
     44535 TIP3     1713     TIP3     H2       HT       0.417000       1.00800           0
     44536 TIP3     1714     TIP3     OH2      OT      -0.834000       15.9994           0
     44537 TIP3     1714     TIP3     H1       HT       0.417000       1.00800           0
     44538 TIP3     1714     TIP3     H2       HT       0.417000       1.00800           0
     44539 TIP3     1715     TIP3     OH2      OT      -0.834000       15.9994           0
     44540 TIP3     1715     TIP3     H1       HT       0.417000       1.00800           0
     44541 TIP3     1715     TIP3     H2       HT       0.417000       1.00800           0
     44542 TIP3     1716     TIP3     OH2      OT      -0.834000       15.9994           0
     44543 TIP3     1716     TIP3     H1       HT       0.417000       1.00800           0
     44544 TIP3     1716     TIP3     H2       HT       0.417000       1.00800           0
     44545 TIP3     1717     TIP3     OH2      OT      -0.834000       15.9994           0
     44546 TIP3     1717     TIP3     H1       HT       0.417000       1.00800           0
     44547 TIP3     1717     TIP3     H2       HT       0.417000       1.00800           0
     44548 TIP3     1718     TIP3     OH2      OT      -0.834000       15.9994           0
     44549 TIP3     1718     TIP3     H1       HT       0.417000       1.00800           0
     44550 TIP3     1718     TIP3     H2       HT       0.417000       1.00800           0
     44551 TIP3     1719     TIP3     OH2      OT      -0.834000       15.9994           0
     44552 TIP3     1719     TIP3     H1       HT       0.417000       1.00800           0
     44553 TIP3     1719     TIP3     H2       HT       0.417000       1.00800           0
     44554 TIP3     1720     TIP3     OH2      OT      -0.834000       15.9994           0
     44555 TIP3     1720     TIP3     H1       HT       0.417000       1.00800           0
     44556 TIP3     1720     TIP3     H2       HT       0.417000       1.00800           0
     44557 TIP3     1721     TIP3     OH2      OT      -0.834000       15.9994           0
     44558 TIP3     1721     TIP3     H1       HT       0.417000       1.00800           0
     44559 TIP3     1721     TIP3     H2       HT       0.417000       1.00800           0
     44560 TIP3     1722     TIP3     OH2      OT      -0.834000       15.9994           0
     44561 TIP3     1722     TIP3     H1       HT       0.417000       1.00800           0
     44562 TIP3     1722     TIP3     H2       HT       0.417000       1.00800           0
     44563 TIP3     1723     TIP3     OH2      OT      -0.834000       15.9994           0
     44564 TIP3     1723     TIP3     H1       HT       0.417000       1.00800           0
     44565 TIP3     1723     TIP3     H2       HT       0.417000       1.00800           0
     44566 TIP3     1724     TIP3     OH2      OT      -0.834000       15.9994           0
     44567 TIP3     1724     TIP3     H1       HT       0.417000       1.00800           0
     44568 TIP3     1724     TIP3     H2       HT       0.417000       1.00800           0
     44569 TIP3     1725     TIP3     OH2      OT      -0.834000       15.9994           0
     44570 TIP3     1725     TIP3     H1       HT       0.417000       1.00800           0
     44571 TIP3     1725     TIP3     H2       HT       0.417000       1.00800           0
     44572 TIP3     1726     TIP3     OH2      OT      -0.834000       15.9994           0
     44573 TIP3     1726     TIP3     H1       HT       0.417000       1.00800           0
     44574 TIP3     1726     TIP3     H2       HT       0.417000       1.00800           0
     44575 TIP3     1727     TIP3     OH2      OT      -0.834000       15.9994           0
     44576 TIP3     1727     TIP3     H1       HT       0.417000       1.00800           0
     44577 TIP3     1727     TIP3     H2       HT       0.417000       1.00800           0
     44578 TIP3     1728     TIP3     OH2      OT      -0.834000       15.9994           0
     44579 TIP3     1728     TIP3     H1       HT       0.417000       1.00800           0
     44580 TIP3     1728     TIP3     H2       HT       0.417000       1.00800           0
     44581 TIP3     1729     TIP3     OH2      OT      -0.834000       15.9994           0
     44582 TIP3     1729     TIP3     H1       HT       0.417000       1.00800           0
     44583 TIP3     1729     TIP3     H2       HT       0.417000       1.00800           0
     44584 TIP3     1730     TIP3     OH2      OT      -0.834000       15.9994           0
     44585 TIP3     1730     TIP3     H1       HT       0.417000       1.00800           0
     44586 TIP3     1730     TIP3     H2       HT       0.417000       1.00800           0
     44587 TIP3     1731     TIP3     OH2      OT      -0.834000       15.9994           0
     44588 TIP3     1731     TIP3     H1       HT       0.417000       1.00800           0
     44589 TIP3     1731     TIP3     H2       HT       0.417000       1.00800           0
     44590 TIP3     1732     TIP3     OH2      OT      -0.834000       15.9994           0
     44591 TIP3     1732     TIP3     H1       HT       0.417000       1.00800           0
     44592 TIP3     1732     TIP3     H2       HT       0.417000       1.00800           0
     44593 TIP3     1733     TIP3     OH2      OT      -0.834000       15.9994           0
     44594 TIP3     1733     TIP3     H1       HT       0.417000       1.00800           0
     44595 TIP3     1733     TIP3     H2       HT       0.417000       1.00800           0
     44596 TIP3     1734     TIP3     OH2      OT      -0.834000       15.9994           0
     44597 TIP3     1734     TIP3     H1       HT       0.417000       1.00800           0
     44598 TIP3     1734     TIP3     H2       HT       0.417000       1.00800           0
     44599 TIP3     1735     TIP3     OH2      OT      -0.834000       15.9994           0
     44600 TIP3     1735     TIP3     H1       HT       0.417000       1.00800           0
     44601 TIP3     1735     TIP3     H2       HT       0.417000       1.00800           0
     44602 TIP3     1736     TIP3     OH2      OT      -0.834000       15.9994           0
     44603 TIP3     1736     TIP3     H1       HT       0.417000       1.00800           0
     44604 TIP3     1736     TIP3     H2       HT       0.417000       1.00800           0
     44605 TIP3     1737     TIP3     OH2      OT      -0.834000       15.9994           0
     44606 TIP3     1737     TIP3     H1       HT       0.417000       1.00800           0
     44607 TIP3     1737     TIP3     H2       HT       0.417000       1.00800           0
     44608 TIP3     1738     TIP3     OH2      OT      -0.834000       15.9994           0
     44609 TIP3     1738     TIP3     H1       HT       0.417000       1.00800           0
     44610 TIP3     1738     TIP3     H2       HT       0.417000       1.00800           0
     44611 TIP3     1739     TIP3     OH2      OT      -0.834000       15.9994           0
     44612 TIP3     1739     TIP3     H1       HT       0.417000       1.00800           0
     44613 TIP3     1739     TIP3     H2       HT       0.417000       1.00800           0
     44614 TIP3     1740     TIP3     OH2      OT      -0.834000       15.9994           0
     44615 TIP3     1740     TIP3     H1       HT       0.417000       1.00800           0
     44616 TIP3     1740     TIP3     H2       HT       0.417000       1.00800           0
     44617 TIP3     1741     TIP3     OH2      OT      -0.834000       15.9994           0
     44618 TIP3     1741     TIP3     H1       HT       0.417000       1.00800           0
     44619 TIP3     1741     TIP3     H2       HT       0.417000       1.00800           0
     44620 TIP3     1742     TIP3     OH2      OT      -0.834000       15.9994           0
     44621 TIP3     1742     TIP3     H1       HT       0.417000       1.00800           0
     44622 TIP3     1742     TIP3     H2       HT       0.417000       1.00800           0
     44623 TIP3     1743     TIP3     OH2      OT      -0.834000       15.9994           0
     44624 TIP3     1743     TIP3     H1       HT       0.417000       1.00800           0
     44625 TIP3     1743     TIP3     H2       HT       0.417000       1.00800           0
     44626 TIP3     1744     TIP3     OH2      OT      -0.834000       15.9994           0
     44627 TIP3     1744     TIP3     H1       HT       0.417000       1.00800           0
     44628 TIP3     1744     TIP3     H2       HT       0.417000       1.00800           0
     44629 TIP3     1745     TIP3     OH2      OT      -0.834000       15.9994           0
     44630 TIP3     1745     TIP3     H1       HT       0.417000       1.00800           0
     44631 TIP3     1745     TIP3     H2       HT       0.417000       1.00800           0
     44632 TIP3     1746     TIP3     OH2      OT      -0.834000       15.9994           0
     44633 TIP3     1746     TIP3     H1       HT       0.417000       1.00800           0
     44634 TIP3     1746     TIP3     H2       HT       0.417000       1.00800           0
     44635 TIP3     1747     TIP3     OH2      OT      -0.834000       15.9994           0
     44636 TIP3     1747     TIP3     H1       HT       0.417000       1.00800           0
     44637 TIP3     1747     TIP3     H2       HT       0.417000       1.00800           0
     44638 TIP3     1748     TIP3     OH2      OT      -0.834000       15.9994           0
     44639 TIP3     1748     TIP3     H1       HT       0.417000       1.00800           0
     44640 TIP3     1748     TIP3     H2       HT       0.417000       1.00800           0
     44641 TIP3     1749     TIP3     OH2      OT      -0.834000       15.9994           0
     44642 TIP3     1749     TIP3     H1       HT       0.417000       1.00800           0
     44643 TIP3     1749     TIP3     H2       HT       0.417000       1.00800           0
     44644 TIP3     1750     TIP3     OH2      OT      -0.834000       15.9994           0
     44645 TIP3     1750     TIP3     H1       HT       0.417000       1.00800           0
     44646 TIP3     1750     TIP3     H2       HT       0.417000       1.00800           0
     44647 TIP3     1751     TIP3     OH2      OT      -0.834000       15.9994           0
     44648 TIP3     1751     TIP3     H1       HT       0.417000       1.00800           0
     44649 TIP3     1751     TIP3     H2       HT       0.417000       1.00800           0
     44650 TIP3     1752     TIP3     OH2      OT      -0.834000       15.9994           0
     44651 TIP3     1752     TIP3     H1       HT       0.417000       1.00800           0
     44652 TIP3     1752     TIP3     H2       HT       0.417000       1.00800           0
     44653 TIP3     1753     TIP3     OH2      OT      -0.834000       15.9994           0
     44654 TIP3     1753     TIP3     H1       HT       0.417000       1.00800           0
     44655 TIP3     1753     TIP3     H2       HT       0.417000       1.00800           0
     44656 TIP3     1754     TIP3     OH2      OT      -0.834000       15.9994           0
     44657 TIP3     1754     TIP3     H1       HT       0.417000       1.00800           0
     44658 TIP3     1754     TIP3     H2       HT       0.417000       1.00800           0
     44659 TIP3     1755     TIP3     OH2      OT      -0.834000       15.9994           0
     44660 TIP3     1755     TIP3     H1       HT       0.417000       1.00800           0
     44661 TIP3     1755     TIP3     H2       HT       0.417000       1.00800           0
     44662 TIP3     1756     TIP3     OH2      OT      -0.834000       15.9994           0
     44663 TIP3     1756     TIP3     H1       HT       0.417000       1.00800           0
     44664 TIP3     1756     TIP3     H2       HT       0.417000       1.00800           0
     44665 TIP3     1757     TIP3     OH2      OT      -0.834000       15.9994           0
     44666 TIP3     1757     TIP3     H1       HT       0.417000       1.00800           0
     44667 TIP3     1757     TIP3     H2       HT       0.417000       1.00800           0
     44668 TIP3     1758     TIP3     OH2      OT      -0.834000       15.9994           0
     44669 TIP3     1758     TIP3     H1       HT       0.417000       1.00800           0
     44670 TIP3     1758     TIP3     H2       HT       0.417000       1.00800           0
     44671 TIP3     1759     TIP3     OH2      OT      -0.834000       15.9994           0
     44672 TIP3     1759     TIP3     H1       HT       0.417000       1.00800           0
     44673 TIP3     1759     TIP3     H2       HT       0.417000       1.00800           0
     44674 TIP3     1760     TIP3     OH2      OT      -0.834000       15.9994           0
     44675 TIP3     1760     TIP3     H1       HT       0.417000       1.00800           0
     44676 TIP3     1760     TIP3     H2       HT       0.417000       1.00800           0
     44677 TIP3     1761     TIP3     OH2      OT      -0.834000       15.9994           0
     44678 TIP3     1761     TIP3     H1       HT       0.417000       1.00800           0
     44679 TIP3     1761     TIP3     H2       HT       0.417000       1.00800           0
     44680 TIP3     1762     TIP3     OH2      OT      -0.834000       15.9994           0
     44681 TIP3     1762     TIP3     H1       HT       0.417000       1.00800           0
     44682 TIP3     1762     TIP3     H2       HT       0.417000       1.00800           0
     44683 TIP3     1763     TIP3     OH2      OT      -0.834000       15.9994           0
     44684 TIP3     1763     TIP3     H1       HT       0.417000       1.00800           0
     44685 TIP3     1763     TIP3     H2       HT       0.417000       1.00800           0
     44686 TIP3     1764     TIP3     OH2      OT      -0.834000       15.9994           0
     44687 TIP3     1764     TIP3     H1       HT       0.417000       1.00800           0
     44688 TIP3     1764     TIP3     H2       HT       0.417000       1.00800           0
     44689 TIP3     1765     TIP3     OH2      OT      -0.834000       15.9994           0
     44690 TIP3     1765     TIP3     H1       HT       0.417000       1.00800           0
     44691 TIP3     1765     TIP3     H2       HT       0.417000       1.00800           0
     44692 TIP3     1766     TIP3     OH2      OT      -0.834000       15.9994           0
     44693 TIP3     1766     TIP3     H1       HT       0.417000       1.00800           0
     44694 TIP3     1766     TIP3     H2       HT       0.417000       1.00800           0
     44695 TIP3     1767     TIP3     OH2      OT      -0.834000       15.9994           0
     44696 TIP3     1767     TIP3     H1       HT       0.417000       1.00800           0
     44697 TIP3     1767     TIP3     H2       HT       0.417000       1.00800           0
     44698 TIP3     1768     TIP3     OH2      OT      -0.834000       15.9994           0
     44699 TIP3     1768     TIP3     H1       HT       0.417000       1.00800           0
     44700 TIP3     1768     TIP3     H2       HT       0.417000       1.00800           0
     44701 TIP3     1769     TIP3     OH2      OT      -0.834000       15.9994           0
     44702 TIP3     1769     TIP3     H1       HT       0.417000       1.00800           0
     44703 TIP3     1769     TIP3     H2       HT       0.417000       1.00800           0
     44704 TIP3     1770     TIP3     OH2      OT      -0.834000       15.9994           0
     44705 TIP3     1770     TIP3     H1       HT       0.417000       1.00800           0
     44706 TIP3     1770     TIP3     H2       HT       0.417000       1.00800           0
     44707 TIP3     1771     TIP3     OH2      OT      -0.834000       15.9994           0
     44708 TIP3     1771     TIP3     H1       HT       0.417000       1.00800           0
     44709 TIP3     1771     TIP3     H2       HT       0.417000       1.00800           0
     44710 TIP3     1772     TIP3     OH2      OT      -0.834000       15.9994           0
     44711 TIP3     1772     TIP3     H1       HT       0.417000       1.00800           0
     44712 TIP3     1772     TIP3     H2       HT       0.417000       1.00800           0
     44713 TIP3     1773     TIP3     OH2      OT      -0.834000       15.9994           0
     44714 TIP3     1773     TIP3     H1       HT       0.417000       1.00800           0
     44715 TIP3     1773     TIP3     H2       HT       0.417000       1.00800           0
     44716 TIP3     1774     TIP3     OH2      OT      -0.834000       15.9994           0
     44717 TIP3     1774     TIP3     H1       HT       0.417000       1.00800           0
     44718 TIP3     1774     TIP3     H2       HT       0.417000       1.00800           0
     44719 TIP3     1775     TIP3     OH2      OT      -0.834000       15.9994           0
     44720 TIP3     1775     TIP3     H1       HT       0.417000       1.00800           0
     44721 TIP3     1775     TIP3     H2       HT       0.417000       1.00800           0
     44722 TIP3     1776     TIP3     OH2      OT      -0.834000       15.9994           0
     44723 TIP3     1776     TIP3     H1       HT       0.417000       1.00800           0
     44724 TIP3     1776     TIP3     H2       HT       0.417000       1.00800           0
     44725 TIP3     1777     TIP3     OH2      OT      -0.834000       15.9994           0
     44726 TIP3     1777     TIP3     H1       HT       0.417000       1.00800           0
     44727 TIP3     1777     TIP3     H2       HT       0.417000       1.00800           0
     44728 TIP3     1778     TIP3     OH2      OT      -0.834000       15.9994           0
     44729 TIP3     1778     TIP3     H1       HT       0.417000       1.00800           0
     44730 TIP3     1778     TIP3     H2       HT       0.417000       1.00800           0
     44731 TIP3     1779     TIP3     OH2      OT      -0.834000       15.9994           0
     44732 TIP3     1779     TIP3     H1       HT       0.417000       1.00800           0
     44733 TIP3     1779     TIP3     H2       HT       0.417000       1.00800           0
     44734 TIP3     1780     TIP3     OH2      OT      -0.834000       15.9994           0
     44735 TIP3     1780     TIP3     H1       HT       0.417000       1.00800           0
     44736 TIP3     1780     TIP3     H2       HT       0.417000       1.00800           0
     44737 TIP3     1781     TIP3     OH2      OT      -0.834000       15.9994           0
     44738 TIP3     1781     TIP3     H1       HT       0.417000       1.00800           0
     44739 TIP3     1781     TIP3     H2       HT       0.417000       1.00800           0
     44740 TIP3     1782     TIP3     OH2      OT      -0.834000       15.9994           0
     44741 TIP3     1782     TIP3     H1       HT       0.417000       1.00800           0
     44742 TIP3     1782     TIP3     H2       HT       0.417000       1.00800           0
     44743 TIP3     1783     TIP3     OH2      OT      -0.834000       15.9994           0
     44744 TIP3     1783     TIP3     H1       HT       0.417000       1.00800           0
     44745 TIP3     1783     TIP3     H2       HT       0.417000       1.00800           0
     44746 TIP3     1784     TIP3     OH2      OT      -0.834000       15.9994           0
     44747 TIP3     1784     TIP3     H1       HT       0.417000       1.00800           0
     44748 TIP3     1784     TIP3     H2       HT       0.417000       1.00800           0
     44749 TIP3     1785     TIP3     OH2      OT      -0.834000       15.9994           0
     44750 TIP3     1785     TIP3     H1       HT       0.417000       1.00800           0
     44751 TIP3     1785     TIP3     H2       HT       0.417000       1.00800           0
     44752 TIP3     1786     TIP3     OH2      OT      -0.834000       15.9994           0
     44753 TIP3     1786     TIP3     H1       HT       0.417000       1.00800           0
     44754 TIP3     1786     TIP3     H2       HT       0.417000       1.00800           0
     44755 TIP3     1787     TIP3     OH2      OT      -0.834000       15.9994           0
     44756 TIP3     1787     TIP3     H1       HT       0.417000       1.00800           0
     44757 TIP3     1787     TIP3     H2       HT       0.417000       1.00800           0
     44758 TIP3     1788     TIP3     OH2      OT      -0.834000       15.9994           0
     44759 TIP3     1788     TIP3     H1       HT       0.417000       1.00800           0
     44760 TIP3     1788     TIP3     H2       HT       0.417000       1.00800           0
     44761 TIP3     1789     TIP3     OH2      OT      -0.834000       15.9994           0
     44762 TIP3     1789     TIP3     H1       HT       0.417000       1.00800           0
     44763 TIP3     1789     TIP3     H2       HT       0.417000       1.00800           0
     44764 TIP3     1790     TIP3     OH2      OT      -0.834000       15.9994           0
     44765 TIP3     1790     TIP3     H1       HT       0.417000       1.00800           0
     44766 TIP3     1790     TIP3     H2       HT       0.417000       1.00800           0
     44767 TIP3     1791     TIP3     OH2      OT      -0.834000       15.9994           0
     44768 TIP3     1791     TIP3     H1       HT       0.417000       1.00800           0
     44769 TIP3     1791     TIP3     H2       HT       0.417000       1.00800           0
     44770 TIP3     1792     TIP3     OH2      OT      -0.834000       15.9994           0
     44771 TIP3     1792     TIP3     H1       HT       0.417000       1.00800           0
     44772 TIP3     1792     TIP3     H2       HT       0.417000       1.00800           0
     44773 TIP3     1793     TIP3     OH2      OT      -0.834000       15.9994           0
     44774 TIP3     1793     TIP3     H1       HT       0.417000       1.00800           0
     44775 TIP3     1793     TIP3     H2       HT       0.417000       1.00800           0
     44776 TIP3     1794     TIP3     OH2      OT      -0.834000       15.9994           0
     44777 TIP3     1794     TIP3     H1       HT       0.417000       1.00800           0
     44778 TIP3     1794     TIP3     H2       HT       0.417000       1.00800           0
     44779 TIP3     1795     TIP3     OH2      OT      -0.834000       15.9994           0
     44780 TIP3     1795     TIP3     H1       HT       0.417000       1.00800           0
     44781 TIP3     1795     TIP3     H2       HT       0.417000       1.00800           0
     44782 TIP3     1796     TIP3     OH2      OT      -0.834000       15.9994           0
     44783 TIP3     1796     TIP3     H1       HT       0.417000       1.00800           0
     44784 TIP3     1796     TIP3     H2       HT       0.417000       1.00800           0
     44785 TIP3     1797     TIP3     OH2      OT      -0.834000       15.9994           0
     44786 TIP3     1797     TIP3     H1       HT       0.417000       1.00800           0
     44787 TIP3     1797     TIP3     H2       HT       0.417000       1.00800           0
     44788 TIP3     1798     TIP3     OH2      OT      -0.834000       15.9994           0
     44789 TIP3     1798     TIP3     H1       HT       0.417000       1.00800           0
     44790 TIP3     1798     TIP3     H2       HT       0.417000       1.00800           0
     44791 TIP3     1799     TIP3     OH2      OT      -0.834000       15.9994           0
     44792 TIP3     1799     TIP3     H1       HT       0.417000       1.00800           0
     44793 TIP3     1799     TIP3     H2       HT       0.417000       1.00800           0
     44794 TIP3     1800     TIP3     OH2      OT      -0.834000       15.9994           0
     44795 TIP3     1800     TIP3     H1       HT       0.417000       1.00800           0
     44796 TIP3     1800     TIP3     H2       HT       0.417000       1.00800           0
     44797 TIP3     1801     TIP3     OH2      OT      -0.834000       15.9994           0
     44798 TIP3     1801     TIP3     H1       HT       0.417000       1.00800           0
     44799 TIP3     1801     TIP3     H2       HT       0.417000       1.00800           0
     44800 TIP3     1802     TIP3     OH2      OT      -0.834000       15.9994           0
     44801 TIP3     1802     TIP3     H1       HT       0.417000       1.00800           0
     44802 TIP3     1802     TIP3     H2       HT       0.417000       1.00800           0
     44803 TIP3     1803     TIP3     OH2      OT      -0.834000       15.9994           0
     44804 TIP3     1803     TIP3     H1       HT       0.417000       1.00800           0
     44805 TIP3     1803     TIP3     H2       HT       0.417000       1.00800           0
     44806 TIP3     1804     TIP3     OH2      OT      -0.834000       15.9994           0
     44807 TIP3     1804     TIP3     H1       HT       0.417000       1.00800           0
     44808 TIP3     1804     TIP3     H2       HT       0.417000       1.00800           0
     44809 TIP3     1805     TIP3     OH2      OT      -0.834000       15.9994           0
     44810 TIP3     1805     TIP3     H1       HT       0.417000       1.00800           0
     44811 TIP3     1805     TIP3     H2       HT       0.417000       1.00800           0
     44812 TIP3     1806     TIP3     OH2      OT      -0.834000       15.9994           0
     44813 TIP3     1806     TIP3     H1       HT       0.417000       1.00800           0
     44814 TIP3     1806     TIP3     H2       HT       0.417000       1.00800           0
     44815 TIP3     1807     TIP3     OH2      OT      -0.834000       15.9994           0
     44816 TIP3     1807     TIP3     H1       HT       0.417000       1.00800           0
     44817 TIP3     1807     TIP3     H2       HT       0.417000       1.00800           0
     44818 TIP3     1808     TIP3     OH2      OT      -0.834000       15.9994           0
     44819 TIP3     1808     TIP3     H1       HT       0.417000       1.00800           0
     44820 TIP3     1808     TIP3     H2       HT       0.417000       1.00800           0
     44821 TIP3     1809     TIP3     OH2      OT      -0.834000       15.9994           0
     44822 TIP3     1809     TIP3     H1       HT       0.417000       1.00800           0
     44823 TIP3     1809     TIP3     H2       HT       0.417000       1.00800           0
     44824 TIP3     1810     TIP3     OH2      OT      -0.834000       15.9994           0
     44825 TIP3     1810     TIP3     H1       HT       0.417000       1.00800           0
     44826 TIP3     1810     TIP3     H2       HT       0.417000       1.00800           0
     44827 TIP3     1811     TIP3     OH2      OT      -0.834000       15.9994           0
     44828 TIP3     1811     TIP3     H1       HT       0.417000       1.00800           0
     44829 TIP3     1811     TIP3     H2       HT       0.417000       1.00800           0
     44830 TIP3     1812     TIP3     OH2      OT      -0.834000       15.9994           0
     44831 TIP3     1812     TIP3     H1       HT       0.417000       1.00800           0
     44832 TIP3     1812     TIP3     H2       HT       0.417000       1.00800           0
     44833 TIP3     1813     TIP3     OH2      OT      -0.834000       15.9994           0
     44834 TIP3     1813     TIP3     H1       HT       0.417000       1.00800           0
     44835 TIP3     1813     TIP3     H2       HT       0.417000       1.00800           0
     44836 TIP3     1814     TIP3     OH2      OT      -0.834000       15.9994           0
     44837 TIP3     1814     TIP3     H1       HT       0.417000       1.00800           0
     44838 TIP3     1814     TIP3     H2       HT       0.417000       1.00800           0
     44839 TIP3     1815     TIP3     OH2      OT      -0.834000       15.9994           0
     44840 TIP3     1815     TIP3     H1       HT       0.417000       1.00800           0
     44841 TIP3     1815     TIP3     H2       HT       0.417000       1.00800           0
     44842 TIP3     1816     TIP3     OH2      OT      -0.834000       15.9994           0
     44843 TIP3     1816     TIP3     H1       HT       0.417000       1.00800           0
     44844 TIP3     1816     TIP3     H2       HT       0.417000       1.00800           0
     44845 TIP3     1817     TIP3     OH2      OT      -0.834000       15.9994           0
     44846 TIP3     1817     TIP3     H1       HT       0.417000       1.00800           0
     44847 TIP3     1817     TIP3     H2       HT       0.417000       1.00800           0
     44848 TIP3     1818     TIP3     OH2      OT      -0.834000       15.9994           0
     44849 TIP3     1818     TIP3     H1       HT       0.417000       1.00800           0
     44850 TIP3     1818     TIP3     H2       HT       0.417000       1.00800           0
     44851 TIP3     1819     TIP3     OH2      OT      -0.834000       15.9994           0
     44852 TIP3     1819     TIP3     H1       HT       0.417000       1.00800           0
     44853 TIP3     1819     TIP3     H2       HT       0.417000       1.00800           0
     44854 TIP3     1820     TIP3     OH2      OT      -0.834000       15.9994           0
     44855 TIP3     1820     TIP3     H1       HT       0.417000       1.00800           0
     44856 TIP3     1820     TIP3     H2       HT       0.417000       1.00800           0
     44857 TIP3     1821     TIP3     OH2      OT      -0.834000       15.9994           0
     44858 TIP3     1821     TIP3     H1       HT       0.417000       1.00800           0
     44859 TIP3     1821     TIP3     H2       HT       0.417000       1.00800           0
     44860 TIP3     1822     TIP3     OH2      OT      -0.834000       15.9994           0
     44861 TIP3     1822     TIP3     H1       HT       0.417000       1.00800           0
     44862 TIP3     1822     TIP3     H2       HT       0.417000       1.00800           0
     44863 TIP3     1823     TIP3     OH2      OT      -0.834000       15.9994           0
     44864 TIP3     1823     TIP3     H1       HT       0.417000       1.00800           0
     44865 TIP3     1823     TIP3     H2       HT       0.417000       1.00800           0
     44866 TIP3     1824     TIP3     OH2      OT      -0.834000       15.9994           0
     44867 TIP3     1824     TIP3     H1       HT       0.417000       1.00800           0
     44868 TIP3     1824     TIP3     H2       HT       0.417000       1.00800           0
     44869 TIP3     1825     TIP3     OH2      OT      -0.834000       15.9994           0
     44870 TIP3     1825     TIP3     H1       HT       0.417000       1.00800           0
     44871 TIP3     1825     TIP3     H2       HT       0.417000       1.00800           0
     44872 TIP3     1826     TIP3     OH2      OT      -0.834000       15.9994           0
     44873 TIP3     1826     TIP3     H1       HT       0.417000       1.00800           0
     44874 TIP3     1826     TIP3     H2       HT       0.417000       1.00800           0
     44875 TIP3     1827     TIP3     OH2      OT      -0.834000       15.9994           0
     44876 TIP3     1827     TIP3     H1       HT       0.417000       1.00800           0
     44877 TIP3     1827     TIP3     H2       HT       0.417000       1.00800           0
     44878 TIP3     1828     TIP3     OH2      OT      -0.834000       15.9994           0
     44879 TIP3     1828     TIP3     H1       HT       0.417000       1.00800           0
     44880 TIP3     1828     TIP3     H2       HT       0.417000       1.00800           0
     44881 TIP3     1829     TIP3     OH2      OT      -0.834000       15.9994           0
     44882 TIP3     1829     TIP3     H1       HT       0.417000       1.00800           0
     44883 TIP3     1829     TIP3     H2       HT       0.417000       1.00800           0
     44884 TIP3     1830     TIP3     OH2      OT      -0.834000       15.9994           0
     44885 TIP3     1830     TIP3     H1       HT       0.417000       1.00800           0
     44886 TIP3     1830     TIP3     H2       HT       0.417000       1.00800           0
     44887 TIP3     1831     TIP3     OH2      OT      -0.834000       15.9994           0
     44888 TIP3     1831     TIP3     H1       HT       0.417000       1.00800           0
     44889 TIP3     1831     TIP3     H2       HT       0.417000       1.00800           0
     44890 TIP3     1832     TIP3     OH2      OT      -0.834000       15.9994           0
     44891 TIP3     1832     TIP3     H1       HT       0.417000       1.00800           0
     44892 TIP3     1832     TIP3     H2       HT       0.417000       1.00800           0
     44893 TIP3     1833     TIP3     OH2      OT      -0.834000       15.9994           0
     44894 TIP3     1833     TIP3     H1       HT       0.417000       1.00800           0
     44895 TIP3     1833     TIP3     H2       HT       0.417000       1.00800           0
     44896 TIP3     1834     TIP3     OH2      OT      -0.834000       15.9994           0
     44897 TIP3     1834     TIP3     H1       HT       0.417000       1.00800           0
     44898 TIP3     1834     TIP3     H2       HT       0.417000       1.00800           0
     44899 TIP3     1835     TIP3     OH2      OT      -0.834000       15.9994           0
     44900 TIP3     1835     TIP3     H1       HT       0.417000       1.00800           0
     44901 TIP3     1835     TIP3     H2       HT       0.417000       1.00800           0
     44902 TIP3     1836     TIP3     OH2      OT      -0.834000       15.9994           0
     44903 TIP3     1836     TIP3     H1       HT       0.417000       1.00800           0
     44904 TIP3     1836     TIP3     H2       HT       0.417000       1.00800           0
     44905 TIP3     1837     TIP3     OH2      OT      -0.834000       15.9994           0
     44906 TIP3     1837     TIP3     H1       HT       0.417000       1.00800           0
     44907 TIP3     1837     TIP3     H2       HT       0.417000       1.00800           0
     44908 TIP3     1838     TIP3     OH2      OT      -0.834000       15.9994           0
     44909 TIP3     1838     TIP3     H1       HT       0.417000       1.00800           0
     44910 TIP3     1838     TIP3     H2       HT       0.417000       1.00800           0
     44911 TIP3     1839     TIP3     OH2      OT      -0.834000       15.9994           0
     44912 TIP3     1839     TIP3     H1       HT       0.417000       1.00800           0
     44913 TIP3     1839     TIP3     H2       HT       0.417000       1.00800           0
     44914 TIP3     1840     TIP3     OH2      OT      -0.834000       15.9994           0
     44915 TIP3     1840     TIP3     H1       HT       0.417000       1.00800           0
     44916 TIP3     1840     TIP3     H2       HT       0.417000       1.00800           0
     44917 TIP3     1841     TIP3     OH2      OT      -0.834000       15.9994           0
     44918 TIP3     1841     TIP3     H1       HT       0.417000       1.00800           0
     44919 TIP3     1841     TIP3     H2       HT       0.417000       1.00800           0
     44920 TIP3     1842     TIP3     OH2      OT      -0.834000       15.9994           0
     44921 TIP3     1842     TIP3     H1       HT       0.417000       1.00800           0
     44922 TIP3     1842     TIP3     H2       HT       0.417000       1.00800           0
     44923 TIP3     1843     TIP3     OH2      OT      -0.834000       15.9994           0
     44924 TIP3     1843     TIP3     H1       HT       0.417000       1.00800           0
     44925 TIP3     1843     TIP3     H2       HT       0.417000       1.00800           0
     44926 TIP3     1844     TIP3     OH2      OT      -0.834000       15.9994           0
     44927 TIP3     1844     TIP3     H1       HT       0.417000       1.00800           0
     44928 TIP3     1844     TIP3     H2       HT       0.417000       1.00800           0
     44929 TIP3     1845     TIP3     OH2      OT      -0.834000       15.9994           0
     44930 TIP3     1845     TIP3     H1       HT       0.417000       1.00800           0
     44931 TIP3     1845     TIP3     H2       HT       0.417000       1.00800           0
     44932 TIP3     1846     TIP3     OH2      OT      -0.834000       15.9994           0
     44933 TIP3     1846     TIP3     H1       HT       0.417000       1.00800           0
     44934 TIP3     1846     TIP3     H2       HT       0.417000       1.00800           0
     44935 TIP3     1847     TIP3     OH2      OT      -0.834000       15.9994           0
     44936 TIP3     1847     TIP3     H1       HT       0.417000       1.00800           0
     44937 TIP3     1847     TIP3     H2       HT       0.417000       1.00800           0
     44938 TIP3     1848     TIP3     OH2      OT      -0.834000       15.9994           0
     44939 TIP3     1848     TIP3     H1       HT       0.417000       1.00800           0
     44940 TIP3     1848     TIP3     H2       HT       0.417000       1.00800           0
     44941 TIP3     1849     TIP3     OH2      OT      -0.834000       15.9994           0
     44942 TIP3     1849     TIP3     H1       HT       0.417000       1.00800           0
     44943 TIP3     1849     TIP3     H2       HT       0.417000       1.00800           0
     44944 TIP3     1850     TIP3     OH2      OT      -0.834000       15.9994           0
     44945 TIP3     1850     TIP3     H1       HT       0.417000       1.00800           0
     44946 TIP3     1850     TIP3     H2       HT       0.417000       1.00800           0
     44947 TIP3     1851     TIP3     OH2      OT      -0.834000       15.9994           0
     44948 TIP3     1851     TIP3     H1       HT       0.417000       1.00800           0
     44949 TIP3     1851     TIP3     H2       HT       0.417000       1.00800           0
     44950 TIP3     1852     TIP3     OH2      OT      -0.834000       15.9994           0
     44951 TIP3     1852     TIP3     H1       HT       0.417000       1.00800           0
     44952 TIP3     1852     TIP3     H2       HT       0.417000       1.00800           0
     44953 TIP3     1853     TIP3     OH2      OT      -0.834000       15.9994           0
     44954 TIP3     1853     TIP3     H1       HT       0.417000       1.00800           0
     44955 TIP3     1853     TIP3     H2       HT       0.417000       1.00800           0
     44956 TIP3     1854     TIP3     OH2      OT      -0.834000       15.9994           0
     44957 TIP3     1854     TIP3     H1       HT       0.417000       1.00800           0
     44958 TIP3     1854     TIP3     H2       HT       0.417000       1.00800           0
     44959 TIP3     1855     TIP3     OH2      OT      -0.834000       15.9994           0
     44960 TIP3     1855     TIP3     H1       HT       0.417000       1.00800           0
     44961 TIP3     1855     TIP3     H2       HT       0.417000       1.00800           0
     44962 TIP3     1856     TIP3     OH2      OT      -0.834000       15.9994           0
     44963 TIP3     1856     TIP3     H1       HT       0.417000       1.00800           0
     44964 TIP3     1856     TIP3     H2       HT       0.417000       1.00800           0
     44965 TIP3     1857     TIP3     OH2      OT      -0.834000       15.9994           0
     44966 TIP3     1857     TIP3     H1       HT       0.417000       1.00800           0
     44967 TIP3     1857     TIP3     H2       HT       0.417000       1.00800           0
     44968 TIP3     1858     TIP3     OH2      OT      -0.834000       15.9994           0
     44969 TIP3     1858     TIP3     H1       HT       0.417000       1.00800           0
     44970 TIP3     1858     TIP3     H2       HT       0.417000       1.00800           0
     44971 TIP3     1859     TIP3     OH2      OT      -0.834000       15.9994           0
     44972 TIP3     1859     TIP3     H1       HT       0.417000       1.00800           0
     44973 TIP3     1859     TIP3     H2       HT       0.417000       1.00800           0
     44974 TIP3     1860     TIP3     OH2      OT      -0.834000       15.9994           0
     44975 TIP3     1860     TIP3     H1       HT       0.417000       1.00800           0
     44976 TIP3     1860     TIP3     H2       HT       0.417000       1.00800           0
     44977 TIP3     1861     TIP3     OH2      OT      -0.834000       15.9994           0
     44978 TIP3     1861     TIP3     H1       HT       0.417000       1.00800           0
     44979 TIP3     1861     TIP3     H2       HT       0.417000       1.00800           0
     44980 TIP3     1862     TIP3     OH2      OT      -0.834000       15.9994           0
     44981 TIP3     1862     TIP3     H1       HT       0.417000       1.00800           0
     44982 TIP3     1862     TIP3     H2       HT       0.417000       1.00800           0
     44983 TIP3     1863     TIP3     OH2      OT      -0.834000       15.9994           0
     44984 TIP3     1863     TIP3     H1       HT       0.417000       1.00800           0
     44985 TIP3     1863     TIP3     H2       HT       0.417000       1.00800           0
     44986 TIP3     1864     TIP3     OH2      OT      -0.834000       15.9994           0
     44987 TIP3     1864     TIP3     H1       HT       0.417000       1.00800           0
     44988 TIP3     1864     TIP3     H2       HT       0.417000       1.00800           0
     44989 TIP3     1865     TIP3     OH2      OT      -0.834000       15.9994           0
     44990 TIP3     1865     TIP3     H1       HT       0.417000       1.00800           0
     44991 TIP3     1865     TIP3     H2       HT       0.417000       1.00800           0
     44992 TIP3     1866     TIP3     OH2      OT      -0.834000       15.9994           0
     44993 TIP3     1866     TIP3     H1       HT       0.417000       1.00800           0
     44994 TIP3     1866     TIP3     H2       HT       0.417000       1.00800           0
     44995 TIP3     1867     TIP3     OH2      OT      -0.834000       15.9994           0
     44996 TIP3     1867     TIP3     H1       HT       0.417000       1.00800           0
     44997 TIP3     1867     TIP3     H2       HT       0.417000       1.00800           0
     44998 TIP3     1868     TIP3     OH2      OT      -0.834000       15.9994           0
     44999 TIP3     1868     TIP3     H1       HT       0.417000       1.00800           0
     45000 TIP3     1868     TIP3     H2       HT       0.417000       1.00800           0
     45001 TIP3     1869     TIP3     OH2      OT      -0.834000       15.9994           0
     45002 TIP3     1869     TIP3     H1       HT       0.417000       1.00800           0
     45003 TIP3     1869     TIP3     H2       HT       0.417000       1.00800           0
     45004 TIP3     1870     TIP3     OH2      OT      -0.834000       15.9994           0
     45005 TIP3     1870     TIP3     H1       HT       0.417000       1.00800           0
     45006 TIP3     1870     TIP3     H2       HT       0.417000       1.00800           0
     45007 TIP3     1871     TIP3     OH2      OT      -0.834000       15.9994           0
     45008 TIP3     1871     TIP3     H1       HT       0.417000       1.00800           0
     45009 TIP3     1871     TIP3     H2       HT       0.417000       1.00800           0
     45010 TIP3     1872     TIP3     OH2      OT      -0.834000       15.9994           0
     45011 TIP3     1872     TIP3     H1       HT       0.417000       1.00800           0
     45012 TIP3     1872     TIP3     H2       HT       0.417000       1.00800           0
     45013 TIP3     1873     TIP3     OH2      OT      -0.834000       15.9994           0
     45014 TIP3     1873     TIP3     H1       HT       0.417000       1.00800           0
     45015 TIP3     1873     TIP3     H2       HT       0.417000       1.00800           0
     45016 TIP3     1874     TIP3     OH2      OT      -0.834000       15.9994           0
     45017 TIP3     1874     TIP3     H1       HT       0.417000       1.00800           0
     45018 TIP3     1874     TIP3     H2       HT       0.417000       1.00800           0
     45019 TIP3     1875     TIP3     OH2      OT      -0.834000       15.9994           0
     45020 TIP3     1875     TIP3     H1       HT       0.417000       1.00800           0
     45021 TIP3     1875     TIP3     H2       HT       0.417000       1.00800           0
     45022 TIP3     1876     TIP3     OH2      OT      -0.834000       15.9994           0
     45023 TIP3     1876     TIP3     H1       HT       0.417000       1.00800           0
     45024 TIP3     1876     TIP3     H2       HT       0.417000       1.00800           0
     45025 TIP3     1877     TIP3     OH2      OT      -0.834000       15.9994           0
     45026 TIP3     1877     TIP3     H1       HT       0.417000       1.00800           0
     45027 TIP3     1877     TIP3     H2       HT       0.417000       1.00800           0
     45028 TIP3     1878     TIP3     OH2      OT      -0.834000       15.9994           0
     45029 TIP3     1878     TIP3     H1       HT       0.417000       1.00800           0
     45030 TIP3     1878     TIP3     H2       HT       0.417000       1.00800           0
     45031 TIP3     1879     TIP3     OH2      OT      -0.834000       15.9994           0
     45032 TIP3     1879     TIP3     H1       HT       0.417000       1.00800           0
     45033 TIP3     1879     TIP3     H2       HT       0.417000       1.00800           0
     45034 TIP3     1880     TIP3     OH2      OT      -0.834000       15.9994           0
     45035 TIP3     1880     TIP3     H1       HT       0.417000       1.00800           0
     45036 TIP3     1880     TIP3     H2       HT       0.417000       1.00800           0
     45037 TIP3     1881     TIP3     OH2      OT      -0.834000       15.9994           0
     45038 TIP3     1881     TIP3     H1       HT       0.417000       1.00800           0
     45039 TIP3     1881     TIP3     H2       HT       0.417000       1.00800           0
     45040 TIP3     1882     TIP3     OH2      OT      -0.834000       15.9994           0
     45041 TIP3     1882     TIP3     H1       HT       0.417000       1.00800           0
     45042 TIP3     1882     TIP3     H2       HT       0.417000       1.00800           0
     45043 TIP3     1883     TIP3     OH2      OT      -0.834000       15.9994           0
     45044 TIP3     1883     TIP3     H1       HT       0.417000       1.00800           0
     45045 TIP3     1883     TIP3     H2       HT       0.417000       1.00800           0
     45046 TIP3     1884     TIP3     OH2      OT      -0.834000       15.9994           0
     45047 TIP3     1884     TIP3     H1       HT       0.417000       1.00800           0
     45048 TIP3     1884     TIP3     H2       HT       0.417000       1.00800           0
     45049 TIP3     1885     TIP3     OH2      OT      -0.834000       15.9994           0
     45050 TIP3     1885     TIP3     H1       HT       0.417000       1.00800           0
     45051 TIP3     1885     TIP3     H2       HT       0.417000       1.00800           0
     45052 TIP3     1886     TIP3     OH2      OT      -0.834000       15.9994           0
     45053 TIP3     1886     TIP3     H1       HT       0.417000       1.00800           0
     45054 TIP3     1886     TIP3     H2       HT       0.417000       1.00800           0
     45055 TIP3     1887     TIP3     OH2      OT      -0.834000       15.9994           0
     45056 TIP3     1887     TIP3     H1       HT       0.417000       1.00800           0
     45057 TIP3     1887     TIP3     H2       HT       0.417000       1.00800           0
     45058 TIP3     1888     TIP3     OH2      OT      -0.834000       15.9994           0
     45059 TIP3     1888     TIP3     H1       HT       0.417000       1.00800           0
     45060 TIP3     1888     TIP3     H2       HT       0.417000       1.00800           0
     45061 TIP3     1889     TIP3     OH2      OT      -0.834000       15.9994           0
     45062 TIP3     1889     TIP3     H1       HT       0.417000       1.00800           0
     45063 TIP3     1889     TIP3     H2       HT       0.417000       1.00800           0
     45064 TIP3     1890     TIP3     OH2      OT      -0.834000       15.9994           0
     45065 TIP3     1890     TIP3     H1       HT       0.417000       1.00800           0
     45066 TIP3     1890     TIP3     H2       HT       0.417000       1.00800           0
     45067 TIP3     1891     TIP3     OH2      OT      -0.834000       15.9994           0
     45068 TIP3     1891     TIP3     H1       HT       0.417000       1.00800           0
     45069 TIP3     1891     TIP3     H2       HT       0.417000       1.00800           0
     45070 TIP3     1892     TIP3     OH2      OT      -0.834000       15.9994           0
     45071 TIP3     1892     TIP3     H1       HT       0.417000       1.00800           0
     45072 TIP3     1892     TIP3     H2       HT       0.417000       1.00800           0
     45073 TIP3     1893     TIP3     OH2      OT      -0.834000       15.9994           0
     45074 TIP3     1893     TIP3     H1       HT       0.417000       1.00800           0
     45075 TIP3     1893     TIP3     H2       HT       0.417000       1.00800           0
     45076 TIP3     1894     TIP3     OH2      OT      -0.834000       15.9994           0
     45077 TIP3     1894     TIP3     H1       HT       0.417000       1.00800           0
     45078 TIP3     1894     TIP3     H2       HT       0.417000       1.00800           0
     45079 TIP3     1895     TIP3     OH2      OT      -0.834000       15.9994           0
     45080 TIP3     1895     TIP3     H1       HT       0.417000       1.00800           0
     45081 TIP3     1895     TIP3     H2       HT       0.417000       1.00800           0
     45082 TIP3     1896     TIP3     OH2      OT      -0.834000       15.9994           0
     45083 TIP3     1896     TIP3     H1       HT       0.417000       1.00800           0
     45084 TIP3     1896     TIP3     H2       HT       0.417000       1.00800           0
     45085 TIP3     1897     TIP3     OH2      OT      -0.834000       15.9994           0
     45086 TIP3     1897     TIP3     H1       HT       0.417000       1.00800           0
     45087 TIP3     1897     TIP3     H2       HT       0.417000       1.00800           0
     45088 TIP3     1898     TIP3     OH2      OT      -0.834000       15.9994           0
     45089 TIP3     1898     TIP3     H1       HT       0.417000       1.00800           0
     45090 TIP3     1898     TIP3     H2       HT       0.417000       1.00800           0
     45091 TIP3     1899     TIP3     OH2      OT      -0.834000       15.9994           0
     45092 TIP3     1899     TIP3     H1       HT       0.417000       1.00800           0
     45093 TIP3     1899     TIP3     H2       HT       0.417000       1.00800           0
     45094 TIP3     1900     TIP3     OH2      OT      -0.834000       15.9994           0
     45095 TIP3     1900     TIP3     H1       HT       0.417000       1.00800           0
     45096 TIP3     1900     TIP3     H2       HT       0.417000       1.00800           0
     45097 TIP3     1901     TIP3     OH2      OT      -0.834000       15.9994           0
     45098 TIP3     1901     TIP3     H1       HT       0.417000       1.00800           0
     45099 TIP3     1901     TIP3     H2       HT       0.417000       1.00800           0
     45100 TIP3     1902     TIP3     OH2      OT      -0.834000       15.9994           0
     45101 TIP3     1902     TIP3     H1       HT       0.417000       1.00800           0
     45102 TIP3     1902     TIP3     H2       HT       0.417000       1.00800           0
     45103 TIP3     1903     TIP3     OH2      OT      -0.834000       15.9994           0
     45104 TIP3     1903     TIP3     H1       HT       0.417000       1.00800           0
     45105 TIP3     1903     TIP3     H2       HT       0.417000       1.00800           0
     45106 TIP3     1904     TIP3     OH2      OT      -0.834000       15.9994           0
     45107 TIP3     1904     TIP3     H1       HT       0.417000       1.00800           0
     45108 TIP3     1904     TIP3     H2       HT       0.417000       1.00800           0
     45109 TIP3     1905     TIP3     OH2      OT      -0.834000       15.9994           0
     45110 TIP3     1905     TIP3     H1       HT       0.417000       1.00800           0
     45111 TIP3     1905     TIP3     H2       HT       0.417000       1.00800           0
     45112 TIP3     1906     TIP3     OH2      OT      -0.834000       15.9994           0
     45113 TIP3     1906     TIP3     H1       HT       0.417000       1.00800           0
     45114 TIP3     1906     TIP3     H2       HT       0.417000       1.00800           0
     45115 TIP3     1907     TIP3     OH2      OT      -0.834000       15.9994           0
     45116 TIP3     1907     TIP3     H1       HT       0.417000       1.00800           0
     45117 TIP3     1907     TIP3     H2       HT       0.417000       1.00800           0
     45118 TIP3     1908     TIP3     OH2      OT      -0.834000       15.9994           0
     45119 TIP3     1908     TIP3     H1       HT       0.417000       1.00800           0
     45120 TIP3     1908     TIP3     H2       HT       0.417000       1.00800           0
     45121 TIP3     1909     TIP3     OH2      OT      -0.834000       15.9994           0
     45122 TIP3     1909     TIP3     H1       HT       0.417000       1.00800           0
     45123 TIP3     1909     TIP3     H2       HT       0.417000       1.00800           0
     45124 TIP3     1910     TIP3     OH2      OT      -0.834000       15.9994           0
     45125 TIP3     1910     TIP3     H1       HT       0.417000       1.00800           0
     45126 TIP3     1910     TIP3     H2       HT       0.417000       1.00800           0
     45127 TIP3     1911     TIP3     OH2      OT      -0.834000       15.9994           0
     45128 TIP3     1911     TIP3     H1       HT       0.417000       1.00800           0
     45129 TIP3     1911     TIP3     H2       HT       0.417000       1.00800           0
     45130 TIP3     1912     TIP3     OH2      OT      -0.834000       15.9994           0
     45131 TIP3     1912     TIP3     H1       HT       0.417000       1.00800           0
     45132 TIP3     1912     TIP3     H2       HT       0.417000       1.00800           0
     45133 TIP3     1913     TIP3     OH2      OT      -0.834000       15.9994           0
     45134 TIP3     1913     TIP3     H1       HT       0.417000       1.00800           0
     45135 TIP3     1913     TIP3     H2       HT       0.417000       1.00800           0
     45136 TIP3     1914     TIP3     OH2      OT      -0.834000       15.9994           0
     45137 TIP3     1914     TIP3     H1       HT       0.417000       1.00800           0
     45138 TIP3     1914     TIP3     H2       HT       0.417000       1.00800           0
     45139 TIP3     1915     TIP3     OH2      OT      -0.834000       15.9994           0
     45140 TIP3     1915     TIP3     H1       HT       0.417000       1.00800           0
     45141 TIP3     1915     TIP3     H2       HT       0.417000       1.00800           0
     45142 TIP3     1916     TIP3     OH2      OT      -0.834000       15.9994           0
     45143 TIP3     1916     TIP3     H1       HT       0.417000       1.00800           0
     45144 TIP3     1916     TIP3     H2       HT       0.417000       1.00800           0
     45145 TIP3     1917     TIP3     OH2      OT      -0.834000       15.9994           0
     45146 TIP3     1917     TIP3     H1       HT       0.417000       1.00800           0
     45147 TIP3     1917     TIP3     H2       HT       0.417000       1.00800           0
     45148 TIP3     1918     TIP3     OH2      OT      -0.834000       15.9994           0
     45149 TIP3     1918     TIP3     H1       HT       0.417000       1.00800           0
     45150 TIP3     1918     TIP3     H2       HT       0.417000       1.00800           0
     45151 TIP3     1919     TIP3     OH2      OT      -0.834000       15.9994           0
     45152 TIP3     1919     TIP3     H1       HT       0.417000       1.00800           0
     45153 TIP3     1919     TIP3     H2       HT       0.417000       1.00800           0
     45154 TIP3     1920     TIP3     OH2      OT      -0.834000       15.9994           0
     45155 TIP3     1920     TIP3     H1       HT       0.417000       1.00800           0
     45156 TIP3     1920     TIP3     H2       HT       0.417000       1.00800           0
     45157 TIP3     1921     TIP3     OH2      OT      -0.834000       15.9994           0
     45158 TIP3     1921     TIP3     H1       HT       0.417000       1.00800           0
     45159 TIP3     1921     TIP3     H2       HT       0.417000       1.00800           0
     45160 TIP3     1922     TIP3     OH2      OT      -0.834000       15.9994           0
     45161 TIP3     1922     TIP3     H1       HT       0.417000       1.00800           0
     45162 TIP3     1922     TIP3     H2       HT       0.417000       1.00800           0
     45163 TIP3     1923     TIP3     OH2      OT      -0.834000       15.9994           0
     45164 TIP3     1923     TIP3     H1       HT       0.417000       1.00800           0
     45165 TIP3     1923     TIP3     H2       HT       0.417000       1.00800           0
     45166 TIP3     1924     TIP3     OH2      OT      -0.834000       15.9994           0
     45167 TIP3     1924     TIP3     H1       HT       0.417000       1.00800           0
     45168 TIP3     1924     TIP3     H2       HT       0.417000       1.00800           0
     45169 TIP3     1925     TIP3     OH2      OT      -0.834000       15.9994           0
     45170 TIP3     1925     TIP3     H1       HT       0.417000       1.00800           0
     45171 TIP3     1925     TIP3     H2       HT       0.417000       1.00800           0
     45172 TIP3     1926     TIP3     OH2      OT      -0.834000       15.9994           0
     45173 TIP3     1926     TIP3     H1       HT       0.417000       1.00800           0
     45174 TIP3     1926     TIP3     H2       HT       0.417000       1.00800           0
     45175 TIP3     1927     TIP3     OH2      OT      -0.834000       15.9994           0
     45176 TIP3     1927     TIP3     H1       HT       0.417000       1.00800           0
     45177 TIP3     1927     TIP3     H2       HT       0.417000       1.00800           0
     45178 TIP3     1928     TIP3     OH2      OT      -0.834000       15.9994           0
     45179 TIP3     1928     TIP3     H1       HT       0.417000       1.00800           0
     45180 TIP3     1928     TIP3     H2       HT       0.417000       1.00800           0
     45181 TIP3     1929     TIP3     OH2      OT      -0.834000       15.9994           0
     45182 TIP3     1929     TIP3     H1       HT       0.417000       1.00800           0
     45183 TIP3     1929     TIP3     H2       HT       0.417000       1.00800           0
     45184 TIP3     1930     TIP3     OH2      OT      -0.834000       15.9994           0
     45185 TIP3     1930     TIP3     H1       HT       0.417000       1.00800           0
     45186 TIP3     1930     TIP3     H2       HT       0.417000       1.00800           0
     45187 TIP3     1931     TIP3     OH2      OT      -0.834000       15.9994           0
     45188 TIP3     1931     TIP3     H1       HT       0.417000       1.00800           0
     45189 TIP3     1931     TIP3     H2       HT       0.417000       1.00800           0
     45190 TIP3     1932     TIP3     OH2      OT      -0.834000       15.9994           0
     45191 TIP3     1932     TIP3     H1       HT       0.417000       1.00800           0
     45192 TIP3     1932     TIP3     H2       HT       0.417000       1.00800           0
     45193 TIP3     1933     TIP3     OH2      OT      -0.834000       15.9994           0
     45194 TIP3     1933     TIP3     H1       HT       0.417000       1.00800           0
     45195 TIP3     1933     TIP3     H2       HT       0.417000       1.00800           0
     45196 TIP3     1934     TIP3     OH2      OT      -0.834000       15.9994           0
     45197 TIP3     1934     TIP3     H1       HT       0.417000       1.00800           0
     45198 TIP3     1934     TIP3     H2       HT       0.417000       1.00800           0
     45199 TIP3     1935     TIP3     OH2      OT      -0.834000       15.9994           0
     45200 TIP3     1935     TIP3     H1       HT       0.417000       1.00800           0
     45201 TIP3     1935     TIP3     H2       HT       0.417000       1.00800           0
     45202 TIP3     1936     TIP3     OH2      OT      -0.834000       15.9994           0
     45203 TIP3     1936     TIP3     H1       HT       0.417000       1.00800           0
     45204 TIP3     1936     TIP3     H2       HT       0.417000       1.00800           0
     45205 TIP3     1937     TIP3     OH2      OT      -0.834000       15.9994           0
     45206 TIP3     1937     TIP3     H1       HT       0.417000       1.00800           0
     45207 TIP3     1937     TIP3     H2       HT       0.417000       1.00800           0
     45208 TIP3     1938     TIP3     OH2      OT      -0.834000       15.9994           0
     45209 TIP3     1938     TIP3     H1       HT       0.417000       1.00800           0
     45210 TIP3     1938     TIP3     H2       HT       0.417000       1.00800           0
     45211 TIP3     1939     TIP3     OH2      OT      -0.834000       15.9994           0
     45212 TIP3     1939     TIP3     H1       HT       0.417000       1.00800           0
     45213 TIP3     1939     TIP3     H2       HT       0.417000       1.00800           0
     45214 TIP3     1940     TIP3     OH2      OT      -0.834000       15.9994           0
     45215 TIP3     1940     TIP3     H1       HT       0.417000       1.00800           0
     45216 TIP3     1940     TIP3     H2       HT       0.417000       1.00800           0
     45217 TIP3     1941     TIP3     OH2      OT      -0.834000       15.9994           0
     45218 TIP3     1941     TIP3     H1       HT       0.417000       1.00800           0
     45219 TIP3     1941     TIP3     H2       HT       0.417000       1.00800           0
     45220 TIP3     1942     TIP3     OH2      OT      -0.834000       15.9994           0
     45221 TIP3     1942     TIP3     H1       HT       0.417000       1.00800           0
     45222 TIP3     1942     TIP3     H2       HT       0.417000       1.00800           0
     45223 TIP3     1943     TIP3     OH2      OT      -0.834000       15.9994           0
     45224 TIP3     1943     TIP3     H1       HT       0.417000       1.00800           0
     45225 TIP3     1943     TIP3     H2       HT       0.417000       1.00800           0
     45226 TIP3     1944     TIP3     OH2      OT      -0.834000       15.9994           0
     45227 TIP3     1944     TIP3     H1       HT       0.417000       1.00800           0
     45228 TIP3     1944     TIP3     H2       HT       0.417000       1.00800           0
     45229 TIP3     1945     TIP3     OH2      OT      -0.834000       15.9994           0
     45230 TIP3     1945     TIP3     H1       HT       0.417000       1.00800           0
     45231 TIP3     1945     TIP3     H2       HT       0.417000       1.00800           0
     45232 TIP3     1946     TIP3     OH2      OT      -0.834000       15.9994           0
     45233 TIP3     1946     TIP3     H1       HT       0.417000       1.00800           0
     45234 TIP3     1946     TIP3     H2       HT       0.417000       1.00800           0
     45235 TIP3     1947     TIP3     OH2      OT      -0.834000       15.9994           0
     45236 TIP3     1947     TIP3     H1       HT       0.417000       1.00800           0
     45237 TIP3     1947     TIP3     H2       HT       0.417000       1.00800           0
     45238 TIP3     1948     TIP3     OH2      OT      -0.834000       15.9994           0
     45239 TIP3     1948     TIP3     H1       HT       0.417000       1.00800           0
     45240 TIP3     1948     TIP3     H2       HT       0.417000       1.00800           0
     45241 TIP3     1949     TIP3     OH2      OT      -0.834000       15.9994           0
     45242 TIP3     1949     TIP3     H1       HT       0.417000       1.00800           0
     45243 TIP3     1949     TIP3     H2       HT       0.417000       1.00800           0
     45244 TIP3     1950     TIP3     OH2      OT      -0.834000       15.9994           0
     45245 TIP3     1950     TIP3     H1       HT       0.417000       1.00800           0
     45246 TIP3     1950     TIP3     H2       HT       0.417000       1.00800           0
     45247 TIP3     1951     TIP3     OH2      OT      -0.834000       15.9994           0
     45248 TIP3     1951     TIP3     H1       HT       0.417000       1.00800           0
     45249 TIP3     1951     TIP3     H2       HT       0.417000       1.00800           0
     45250 TIP3     1952     TIP3     OH2      OT      -0.834000       15.9994           0
     45251 TIP3     1952     TIP3     H1       HT       0.417000       1.00800           0
     45252 TIP3     1952     TIP3     H2       HT       0.417000       1.00800           0
     45253 TIP3     1953     TIP3     OH2      OT      -0.834000       15.9994           0
     45254 TIP3     1953     TIP3     H1       HT       0.417000       1.00800           0
     45255 TIP3     1953     TIP3     H2       HT       0.417000       1.00800           0
     45256 TIP3     1954     TIP3     OH2      OT      -0.834000       15.9994           0
     45257 TIP3     1954     TIP3     H1       HT       0.417000       1.00800           0
     45258 TIP3     1954     TIP3     H2       HT       0.417000       1.00800           0
     45259 TIP3     1955     TIP3     OH2      OT      -0.834000       15.9994           0
     45260 TIP3     1955     TIP3     H1       HT       0.417000       1.00800           0
     45261 TIP3     1955     TIP3     H2       HT       0.417000       1.00800           0
     45262 TIP3     1956     TIP3     OH2      OT      -0.834000       15.9994           0
     45263 TIP3     1956     TIP3     H1       HT       0.417000       1.00800           0
     45264 TIP3     1956     TIP3     H2       HT       0.417000       1.00800           0
     45265 TIP3     1957     TIP3     OH2      OT      -0.834000       15.9994           0
     45266 TIP3     1957     TIP3     H1       HT       0.417000       1.00800           0
     45267 TIP3     1957     TIP3     H2       HT       0.417000       1.00800           0
     45268 TIP3     1958     TIP3     OH2      OT      -0.834000       15.9994           0
     45269 TIP3     1958     TIP3     H1       HT       0.417000       1.00800           0
     45270 TIP3     1958     TIP3     H2       HT       0.417000       1.00800           0
     45271 TIP3     1959     TIP3     OH2      OT      -0.834000       15.9994           0
     45272 TIP3     1959     TIP3     H1       HT       0.417000       1.00800           0
     45273 TIP3     1959     TIP3     H2       HT       0.417000       1.00800           0
     45274 TIP3     1960     TIP3     OH2      OT      -0.834000       15.9994           0
     45275 TIP3     1960     TIP3     H1       HT       0.417000       1.00800           0
     45276 TIP3     1960     TIP3     H2       HT       0.417000       1.00800           0
     45277 TIP3     1961     TIP3     OH2      OT      -0.834000       15.9994           0
     45278 TIP3     1961     TIP3     H1       HT       0.417000       1.00800           0
     45279 TIP3     1961     TIP3     H2       HT       0.417000       1.00800           0
     45280 TIP3     1962     TIP3     OH2      OT      -0.834000       15.9994           0
     45281 TIP3     1962     TIP3     H1       HT       0.417000       1.00800           0
     45282 TIP3     1962     TIP3     H2       HT       0.417000       1.00800           0
     45283 TIP3     1963     TIP3     OH2      OT      -0.834000       15.9994           0
     45284 TIP3     1963     TIP3     H1       HT       0.417000       1.00800           0
     45285 TIP3     1963     TIP3     H2       HT       0.417000       1.00800           0
     45286 TIP3     1964     TIP3     OH2      OT      -0.834000       15.9994           0
     45287 TIP3     1964     TIP3     H1       HT       0.417000       1.00800           0
     45288 TIP3     1964     TIP3     H2       HT       0.417000       1.00800           0
     45289 TIP3     1965     TIP3     OH2      OT      -0.834000       15.9994           0
     45290 TIP3     1965     TIP3     H1       HT       0.417000       1.00800           0
     45291 TIP3     1965     TIP3     H2       HT       0.417000       1.00800           0
     45292 TIP3     1966     TIP3     OH2      OT      -0.834000       15.9994           0
     45293 TIP3     1966     TIP3     H1       HT       0.417000       1.00800           0
     45294 TIP3     1966     TIP3     H2       HT       0.417000       1.00800           0
     45295 TIP3     1967     TIP3     OH2      OT      -0.834000       15.9994           0
     45296 TIP3     1967     TIP3     H1       HT       0.417000       1.00800           0
     45297 TIP3     1967     TIP3     H2       HT       0.417000       1.00800           0
     45298 TIP3     1968     TIP3     OH2      OT      -0.834000       15.9994           0
     45299 TIP3     1968     TIP3     H1       HT       0.417000       1.00800           0
     45300 TIP3     1968     TIP3     H2       HT       0.417000       1.00800           0
     45301 TIP3     1969     TIP3     OH2      OT      -0.834000       15.9994           0
     45302 TIP3     1969     TIP3     H1       HT       0.417000       1.00800           0
     45303 TIP3     1969     TIP3     H2       HT       0.417000       1.00800           0
     45304 TIP3     1970     TIP3     OH2      OT      -0.834000       15.9994           0
     45305 TIP3     1970     TIP3     H1       HT       0.417000       1.00800           0
     45306 TIP3     1970     TIP3     H2       HT       0.417000       1.00800           0
     45307 TIP3     1971     TIP3     OH2      OT      -0.834000       15.9994           0
     45308 TIP3     1971     TIP3     H1       HT       0.417000       1.00800           0
     45309 TIP3     1971     TIP3     H2       HT       0.417000       1.00800           0
     45310 TIP3     1972     TIP3     OH2      OT      -0.834000       15.9994           0
     45311 TIP3     1972     TIP3     H1       HT       0.417000       1.00800           0
     45312 TIP3     1972     TIP3     H2       HT       0.417000       1.00800           0
     45313 TIP3     1973     TIP3     OH2      OT      -0.834000       15.9994           0
     45314 TIP3     1973     TIP3     H1       HT       0.417000       1.00800           0
     45315 TIP3     1973     TIP3     H2       HT       0.417000       1.00800           0
     45316 TIP3     1974     TIP3     OH2      OT      -0.834000       15.9994           0
     45317 TIP3     1974     TIP3     H1       HT       0.417000       1.00800           0
     45318 TIP3     1974     TIP3     H2       HT       0.417000       1.00800           0
     45319 TIP3     1975     TIP3     OH2      OT      -0.834000       15.9994           0
     45320 TIP3     1975     TIP3     H1       HT       0.417000       1.00800           0
     45321 TIP3     1975     TIP3     H2       HT       0.417000       1.00800           0
     45322 TIP3     1976     TIP3     OH2      OT      -0.834000       15.9994           0
     45323 TIP3     1976     TIP3     H1       HT       0.417000       1.00800           0
     45324 TIP3     1976     TIP3     H2       HT       0.417000       1.00800           0
     45325 TIP3     1977     TIP3     OH2      OT      -0.834000       15.9994           0
     45326 TIP3     1977     TIP3     H1       HT       0.417000       1.00800           0
     45327 TIP3     1977     TIP3     H2       HT       0.417000       1.00800           0
     45328 TIP3     1978     TIP3     OH2      OT      -0.834000       15.9994           0
     45329 TIP3     1978     TIP3     H1       HT       0.417000       1.00800           0
     45330 TIP3     1978     TIP3     H2       HT       0.417000       1.00800           0
     45331 TIP3     1979     TIP3     OH2      OT      -0.834000       15.9994           0
     45332 TIP3     1979     TIP3     H1       HT       0.417000       1.00800           0
     45333 TIP3     1979     TIP3     H2       HT       0.417000       1.00800           0
     45334 TIP3     1980     TIP3     OH2      OT      -0.834000       15.9994           0
     45335 TIP3     1980     TIP3     H1       HT       0.417000       1.00800           0
     45336 TIP3     1980     TIP3     H2       HT       0.417000       1.00800           0
     45337 TIP3     1981     TIP3     OH2      OT      -0.834000       15.9994           0
     45338 TIP3     1981     TIP3     H1       HT       0.417000       1.00800           0
     45339 TIP3     1981     TIP3     H2       HT       0.417000       1.00800           0
     45340 TIP3     1982     TIP3     OH2      OT      -0.834000       15.9994           0
     45341 TIP3     1982     TIP3     H1       HT       0.417000       1.00800           0
     45342 TIP3     1982     TIP3     H2       HT       0.417000       1.00800           0
     45343 TIP3     1983     TIP3     OH2      OT      -0.834000       15.9994           0
     45344 TIP3     1983     TIP3     H1       HT       0.417000       1.00800           0
     45345 TIP3     1983     TIP3     H2       HT       0.417000       1.00800           0
     45346 TIP3     1984     TIP3     OH2      OT      -0.834000       15.9994           0
     45347 TIP3     1984     TIP3     H1       HT       0.417000       1.00800           0
     45348 TIP3     1984     TIP3     H2       HT       0.417000       1.00800           0
     45349 TIP3     1985     TIP3     OH2      OT      -0.834000       15.9994           0
     45350 TIP3     1985     TIP3     H1       HT       0.417000       1.00800           0
     45351 TIP3     1985     TIP3     H2       HT       0.417000       1.00800           0
     45352 TIP3     1986     TIP3     OH2      OT      -0.834000       15.9994           0
     45353 TIP3     1986     TIP3     H1       HT       0.417000       1.00800           0
     45354 TIP3     1986     TIP3     H2       HT       0.417000       1.00800           0
     45355 TIP3     1987     TIP3     OH2      OT      -0.834000       15.9994           0
     45356 TIP3     1987     TIP3     H1       HT       0.417000       1.00800           0
     45357 TIP3     1987     TIP3     H2       HT       0.417000       1.00800           0
     45358 TIP3     1988     TIP3     OH2      OT      -0.834000       15.9994           0
     45359 TIP3     1988     TIP3     H1       HT       0.417000       1.00800           0
     45360 TIP3     1988     TIP3     H2       HT       0.417000       1.00800           0
     45361 TIP3     1989     TIP3     OH2      OT      -0.834000       15.9994           0
     45362 TIP3     1989     TIP3     H1       HT       0.417000       1.00800           0
     45363 TIP3     1989     TIP3     H2       HT       0.417000       1.00800           0
     45364 TIP3     1990     TIP3     OH2      OT      -0.834000       15.9994           0
     45365 TIP3     1990     TIP3     H1       HT       0.417000       1.00800           0
     45366 TIP3     1990     TIP3     H2       HT       0.417000       1.00800           0
     45367 TIP3     1991     TIP3     OH2      OT      -0.834000       15.9994           0
     45368 TIP3     1991     TIP3     H1       HT       0.417000       1.00800           0
     45369 TIP3     1991     TIP3     H2       HT       0.417000       1.00800           0
     45370 TIP3     1992     TIP3     OH2      OT      -0.834000       15.9994           0
     45371 TIP3     1992     TIP3     H1       HT       0.417000       1.00800           0
     45372 TIP3     1992     TIP3     H2       HT       0.417000       1.00800           0
     45373 TIP3     1993     TIP3     OH2      OT      -0.834000       15.9994           0
     45374 TIP3     1993     TIP3     H1       HT       0.417000       1.00800           0
     45375 TIP3     1993     TIP3     H2       HT       0.417000       1.00800           0
     45376 TIP3     1994     TIP3     OH2      OT      -0.834000       15.9994           0
     45377 TIP3     1994     TIP3     H1       HT       0.417000       1.00800           0
     45378 TIP3     1994     TIP3     H2       HT       0.417000       1.00800           0
     45379 TIP3     1995     TIP3     OH2      OT      -0.834000       15.9994           0
     45380 TIP3     1995     TIP3     H1       HT       0.417000       1.00800           0
     45381 TIP3     1995     TIP3     H2       HT       0.417000       1.00800           0
     45382 TIP3     1996     TIP3     OH2      OT      -0.834000       15.9994           0
     45383 TIP3     1996     TIP3     H1       HT       0.417000       1.00800           0
     45384 TIP3     1996     TIP3     H2       HT       0.417000       1.00800           0
     45385 TIP3     1997     TIP3     OH2      OT      -0.834000       15.9994           0
     45386 TIP3     1997     TIP3     H1       HT       0.417000       1.00800           0
     45387 TIP3     1997     TIP3     H2       HT       0.417000       1.00800           0
     45388 TIP3     1998     TIP3     OH2      OT      -0.834000       15.9994           0
     45389 TIP3     1998     TIP3     H1       HT       0.417000       1.00800           0
     45390 TIP3     1998     TIP3     H2       HT       0.417000       1.00800           0
     45391 TIP3     1999     TIP3     OH2      OT      -0.834000       15.9994           0
     45392 TIP3     1999     TIP3     H1       HT       0.417000       1.00800           0
     45393 TIP3     1999     TIP3     H2       HT       0.417000       1.00800           0
     45394 TIP3     2000     TIP3     OH2      OT      -0.834000       15.9994           0
     45395 TIP3     2000     TIP3     H1       HT       0.417000       1.00800           0
     45396 TIP3     2000     TIP3     H2       HT       0.417000       1.00800           0
     45397 TIP3     2001     TIP3     OH2      OT      -0.834000       15.9994           0
     45398 TIP3     2001     TIP3     H1       HT       0.417000       1.00800           0
     45399 TIP3     2001     TIP3     H2       HT       0.417000       1.00800           0
     45400 TIP3     2002     TIP3     OH2      OT      -0.834000       15.9994           0
     45401 TIP3     2002     TIP3     H1       HT       0.417000       1.00800           0
     45402 TIP3     2002     TIP3     H2       HT       0.417000       1.00800           0
     45403 TIP3     2003     TIP3     OH2      OT      -0.834000       15.9994           0
     45404 TIP3     2003     TIP3     H1       HT       0.417000       1.00800           0
     45405 TIP3     2003     TIP3     H2       HT       0.417000       1.00800           0
     45406 TIP3     2004     TIP3     OH2      OT      -0.834000       15.9994           0
     45407 TIP3     2004     TIP3     H1       HT       0.417000       1.00800           0
     45408 TIP3     2004     TIP3     H2       HT       0.417000       1.00800           0
     45409 TIP3     2005     TIP3     OH2      OT      -0.834000       15.9994           0
     45410 TIP3     2005     TIP3     H1       HT       0.417000       1.00800           0
     45411 TIP3     2005     TIP3     H2       HT       0.417000       1.00800           0
     45412 TIP3     2006     TIP3     OH2      OT      -0.834000       15.9994           0
     45413 TIP3     2006     TIP3     H1       HT       0.417000       1.00800           0
     45414 TIP3     2006     TIP3     H2       HT       0.417000       1.00800           0
     45415 TIP3     2007     TIP3     OH2      OT      -0.834000       15.9994           0
     45416 TIP3     2007     TIP3     H1       HT       0.417000       1.00800           0
     45417 TIP3     2007     TIP3     H2       HT       0.417000       1.00800           0
     45418 TIP3     2008     TIP3     OH2      OT      -0.834000       15.9994           0
     45419 TIP3     2008     TIP3     H1       HT       0.417000       1.00800           0
     45420 TIP3     2008     TIP3     H2       HT       0.417000       1.00800           0
     45421 TIP3     2009     TIP3     OH2      OT      -0.834000       15.9994           0
     45422 TIP3     2009     TIP3     H1       HT       0.417000       1.00800           0
     45423 TIP3     2009     TIP3     H2       HT       0.417000       1.00800           0
     45424 TIP3     2010     TIP3     OH2      OT      -0.834000       15.9994           0
     45425 TIP3     2010     TIP3     H1       HT       0.417000       1.00800           0
     45426 TIP3     2010     TIP3     H2       HT       0.417000       1.00800           0
     45427 TIP3     2011     TIP3     OH2      OT      -0.834000       15.9994           0
     45428 TIP3     2011     TIP3     H1       HT       0.417000       1.00800           0
     45429 TIP3     2011     TIP3     H2       HT       0.417000       1.00800           0
     45430 TIP3     2012     TIP3     OH2      OT      -0.834000       15.9994           0
     45431 TIP3     2012     TIP3     H1       HT       0.417000       1.00800           0
     45432 TIP3     2012     TIP3     H2       HT       0.417000       1.00800           0
     45433 TIP3     2013     TIP3     OH2      OT      -0.834000       15.9994           0
     45434 TIP3     2013     TIP3     H1       HT       0.417000       1.00800           0
     45435 TIP3     2013     TIP3     H2       HT       0.417000       1.00800           0
     45436 TIP3     2014     TIP3     OH2      OT      -0.834000       15.9994           0
     45437 TIP3     2014     TIP3     H1       HT       0.417000       1.00800           0
     45438 TIP3     2014     TIP3     H2       HT       0.417000       1.00800           0
     45439 TIP3     2015     TIP3     OH2      OT      -0.834000       15.9994           0
     45440 TIP3     2015     TIP3     H1       HT       0.417000       1.00800           0
     45441 TIP3     2015     TIP3     H2       HT       0.417000       1.00800           0
     45442 TIP3     2016     TIP3     OH2      OT      -0.834000       15.9994           0
     45443 TIP3     2016     TIP3     H1       HT       0.417000       1.00800           0
     45444 TIP3     2016     TIP3     H2       HT       0.417000       1.00800           0
     45445 TIP3     2017     TIP3     OH2      OT      -0.834000       15.9994           0
     45446 TIP3     2017     TIP3     H1       HT       0.417000       1.00800           0
     45447 TIP3     2017     TIP3     H2       HT       0.417000       1.00800           0
     45448 TIP3     2018     TIP3     OH2      OT      -0.834000       15.9994           0
     45449 TIP3     2018     TIP3     H1       HT       0.417000       1.00800           0
     45450 TIP3     2018     TIP3     H2       HT       0.417000       1.00800           0
     45451 TIP3     2019     TIP3     OH2      OT      -0.834000       15.9994           0
     45452 TIP3     2019     TIP3     H1       HT       0.417000       1.00800           0
     45453 TIP3     2019     TIP3     H2       HT       0.417000       1.00800           0
     45454 TIP3     2020     TIP3     OH2      OT      -0.834000       15.9994           0
     45455 TIP3     2020     TIP3     H1       HT       0.417000       1.00800           0
     45456 TIP3     2020     TIP3     H2       HT       0.417000       1.00800           0
     45457 TIP3     2021     TIP3     OH2      OT      -0.834000       15.9994           0
     45458 TIP3     2021     TIP3     H1       HT       0.417000       1.00800           0
     45459 TIP3     2021     TIP3     H2       HT       0.417000       1.00800           0
     45460 TIP3     2022     TIP3     OH2      OT      -0.834000       15.9994           0
     45461 TIP3     2022     TIP3     H1       HT       0.417000       1.00800           0
     45462 TIP3     2022     TIP3     H2       HT       0.417000       1.00800           0
     45463 TIP3     2023     TIP3     OH2      OT      -0.834000       15.9994           0
     45464 TIP3     2023     TIP3     H1       HT       0.417000       1.00800           0
     45465 TIP3     2023     TIP3     H2       HT       0.417000       1.00800           0
     45466 TIP3     2024     TIP3     OH2      OT      -0.834000       15.9994           0
     45467 TIP3     2024     TIP3     H1       HT       0.417000       1.00800           0
     45468 TIP3     2024     TIP3     H2       HT       0.417000       1.00800           0
     45469 TIP3     2025     TIP3     OH2      OT      -0.834000       15.9994           0
     45470 TIP3     2025     TIP3     H1       HT       0.417000       1.00800           0
     45471 TIP3     2025     TIP3     H2       HT       0.417000       1.00800           0
     45472 TIP3     2026     TIP3     OH2      OT      -0.834000       15.9994           0
     45473 TIP3     2026     TIP3     H1       HT       0.417000       1.00800           0
     45474 TIP3     2026     TIP3     H2       HT       0.417000       1.00800           0
     45475 TIP3     2027     TIP3     OH2      OT      -0.834000       15.9994           0
     45476 TIP3     2027     TIP3     H1       HT       0.417000       1.00800           0
     45477 TIP3     2027     TIP3     H2       HT       0.417000       1.00800           0
     45478 TIP3     2028     TIP3     OH2      OT      -0.834000       15.9994           0
     45479 TIP3     2028     TIP3     H1       HT       0.417000       1.00800           0
     45480 TIP3     2028     TIP3     H2       HT       0.417000       1.00800           0
     45481 TIP3     2029     TIP3     OH2      OT      -0.834000       15.9994           0
     45482 TIP3     2029     TIP3     H1       HT       0.417000       1.00800           0
     45483 TIP3     2029     TIP3     H2       HT       0.417000       1.00800           0
     45484 TIP3     2030     TIP3     OH2      OT      -0.834000       15.9994           0
     45485 TIP3     2030     TIP3     H1       HT       0.417000       1.00800           0
     45486 TIP3     2030     TIP3     H2       HT       0.417000       1.00800           0
     45487 TIP3     2031     TIP3     OH2      OT      -0.834000       15.9994           0
     45488 TIP3     2031     TIP3     H1       HT       0.417000       1.00800           0
     45489 TIP3     2031     TIP3     H2       HT       0.417000       1.00800           0
     45490 TIP3     2032     TIP3     OH2      OT      -0.834000       15.9994           0
     45491 TIP3     2032     TIP3     H1       HT       0.417000       1.00800           0
     45492 TIP3     2032     TIP3     H2       HT       0.417000       1.00800           0
     45493 TIP3     2033     TIP3     OH2      OT      -0.834000       15.9994           0
     45494 TIP3     2033     TIP3     H1       HT       0.417000       1.00800           0
     45495 TIP3     2033     TIP3     H2       HT       0.417000       1.00800           0
     45496 TIP3     2034     TIP3     OH2      OT      -0.834000       15.9994           0
     45497 TIP3     2034     TIP3     H1       HT       0.417000       1.00800           0
     45498 TIP3     2034     TIP3     H2       HT       0.417000       1.00800           0
     45499 TIP3     2035     TIP3     OH2      OT      -0.834000       15.9994           0
     45500 TIP3     2035     TIP3     H1       HT       0.417000       1.00800           0
     45501 TIP3     2035     TIP3     H2       HT       0.417000       1.00800           0
     45502 TIP3     2036     TIP3     OH2      OT      -0.834000       15.9994           0
     45503 TIP3     2036     TIP3     H1       HT       0.417000       1.00800           0
     45504 TIP3     2036     TIP3     H2       HT       0.417000       1.00800           0
     45505 TIP3     2037     TIP3     OH2      OT      -0.834000       15.9994           0
     45506 TIP3     2037     TIP3     H1       HT       0.417000       1.00800           0
     45507 TIP3     2037     TIP3     H2       HT       0.417000       1.00800           0
     45508 TIP3     2038     TIP3     OH2      OT      -0.834000       15.9994           0
     45509 TIP3     2038     TIP3     H1       HT       0.417000       1.00800           0
     45510 TIP3     2038     TIP3     H2       HT       0.417000       1.00800           0
     45511 TIP3     2039     TIP3     OH2      OT      -0.834000       15.9994           0
     45512 TIP3     2039     TIP3     H1       HT       0.417000       1.00800           0
     45513 TIP3     2039     TIP3     H2       HT       0.417000       1.00800           0
     45514 TIP3     2040     TIP3     OH2      OT      -0.834000       15.9994           0
     45515 TIP3     2040     TIP3     H1       HT       0.417000       1.00800           0
     45516 TIP3     2040     TIP3     H2       HT       0.417000       1.00800           0
     45517 TIP3     2041     TIP3     OH2      OT      -0.834000       15.9994           0
     45518 TIP3     2041     TIP3     H1       HT       0.417000       1.00800           0
     45519 TIP3     2041     TIP3     H2       HT       0.417000       1.00800           0
     45520 TIP3     2042     TIP3     OH2      OT      -0.834000       15.9994           0
     45521 TIP3     2042     TIP3     H1       HT       0.417000       1.00800           0
     45522 TIP3     2042     TIP3     H2       HT       0.417000       1.00800           0
     45523 TIP3     2043     TIP3     OH2      OT      -0.834000       15.9994           0
     45524 TIP3     2043     TIP3     H1       HT       0.417000       1.00800           0
     45525 TIP3     2043     TIP3     H2       HT       0.417000       1.00800           0
     45526 TIP3     2044     TIP3     OH2      OT      -0.834000       15.9994           0
     45527 TIP3     2044     TIP3     H1       HT       0.417000       1.00800           0
     45528 TIP3     2044     TIP3     H2       HT       0.417000       1.00800           0
     45529 TIP3     2045     TIP3     OH2      OT      -0.834000       15.9994           0
     45530 TIP3     2045     TIP3     H1       HT       0.417000       1.00800           0
     45531 TIP3     2045     TIP3     H2       HT       0.417000       1.00800           0
     45532 TIP3     2046     TIP3     OH2      OT      -0.834000       15.9994           0
     45533 TIP3     2046     TIP3     H1       HT       0.417000       1.00800           0
     45534 TIP3     2046     TIP3     H2       HT       0.417000       1.00800           0
     45535 TIP3     2047     TIP3     OH2      OT      -0.834000       15.9994           0
     45536 TIP3     2047     TIP3     H1       HT       0.417000       1.00800           0
     45537 TIP3     2047     TIP3     H2       HT       0.417000       1.00800           0
     45538 TIP3     2048     TIP3     OH2      OT      -0.834000       15.9994           0
     45539 TIP3     2048     TIP3     H1       HT       0.417000       1.00800           0
     45540 TIP3     2048     TIP3     H2       HT       0.417000       1.00800           0
     45541 TIP3     2049     TIP3     OH2      OT      -0.834000       15.9994           0
     45542 TIP3     2049     TIP3     H1       HT       0.417000       1.00800           0
     45543 TIP3     2049     TIP3     H2       HT       0.417000       1.00800           0
     45544 TIP3     2050     TIP3     OH2      OT      -0.834000       15.9994           0
     45545 TIP3     2050     TIP3     H1       HT       0.417000       1.00800           0
     45546 TIP3     2050     TIP3     H2       HT       0.417000       1.00800           0
     45547 TIP3     2051     TIP3     OH2      OT      -0.834000       15.9994           0
     45548 TIP3     2051     TIP3     H1       HT       0.417000       1.00800           0
     45549 TIP3     2051     TIP3     H2       HT       0.417000       1.00800           0
     45550 TIP3     2052     TIP3     OH2      OT      -0.834000       15.9994           0
     45551 TIP3     2052     TIP3     H1       HT       0.417000       1.00800           0
     45552 TIP3     2052     TIP3     H2       HT       0.417000       1.00800           0
     45553 TIP3     2053     TIP3     OH2      OT      -0.834000       15.9994           0
     45554 TIP3     2053     TIP3     H1       HT       0.417000       1.00800           0
     45555 TIP3     2053     TIP3     H2       HT       0.417000       1.00800           0
     45556 TIP3     2054     TIP3     OH2      OT      -0.834000       15.9994           0
     45557 TIP3     2054     TIP3     H1       HT       0.417000       1.00800           0
     45558 TIP3     2054     TIP3     H2       HT       0.417000       1.00800           0
     45559 TIP3     2055     TIP3     OH2      OT      -0.834000       15.9994           0
     45560 TIP3     2055     TIP3     H1       HT       0.417000       1.00800           0
     45561 TIP3     2055     TIP3     H2       HT       0.417000       1.00800           0
     45562 TIP3     2056     TIP3     OH2      OT      -0.834000       15.9994           0
     45563 TIP3     2056     TIP3     H1       HT       0.417000       1.00800           0
     45564 TIP3     2056     TIP3     H2       HT       0.417000       1.00800           0
     45565 TIP3     2057     TIP3     OH2      OT      -0.834000       15.9994           0
     45566 TIP3     2057     TIP3     H1       HT       0.417000       1.00800           0
     45567 TIP3     2057     TIP3     H2       HT       0.417000       1.00800           0
     45568 TIP3     2058     TIP3     OH2      OT      -0.834000       15.9994           0
     45569 TIP3     2058     TIP3     H1       HT       0.417000       1.00800           0
     45570 TIP3     2058     TIP3     H2       HT       0.417000       1.00800           0
     45571 TIP3     2059     TIP3     OH2      OT      -0.834000       15.9994           0
     45572 TIP3     2059     TIP3     H1       HT       0.417000       1.00800           0
     45573 TIP3     2059     TIP3     H2       HT       0.417000       1.00800           0
     45574 TIP3     2060     TIP3     OH2      OT      -0.834000       15.9994           0
     45575 TIP3     2060     TIP3     H1       HT       0.417000       1.00800           0
     45576 TIP3     2060     TIP3     H2       HT       0.417000       1.00800           0
     45577 TIP3     2061     TIP3     OH2      OT      -0.834000       15.9994           0
     45578 TIP3     2061     TIP3     H1       HT       0.417000       1.00800           0
     45579 TIP3     2061     TIP3     H2       HT       0.417000       1.00800           0
     45580 TIP3     2062     TIP3     OH2      OT      -0.834000       15.9994           0
     45581 TIP3     2062     TIP3     H1       HT       0.417000       1.00800           0
     45582 TIP3     2062     TIP3     H2       HT       0.417000       1.00800           0
     45583 TIP3     2063     TIP3     OH2      OT      -0.834000       15.9994           0
     45584 TIP3     2063     TIP3     H1       HT       0.417000       1.00800           0
     45585 TIP3     2063     TIP3     H2       HT       0.417000       1.00800           0
     45586 TIP3     2064     TIP3     OH2      OT      -0.834000       15.9994           0
     45587 TIP3     2064     TIP3     H1       HT       0.417000       1.00800           0
     45588 TIP3     2064     TIP3     H2       HT       0.417000       1.00800           0
     45589 TIP3     2065     TIP3     OH2      OT      -0.834000       15.9994           0
     45590 TIP3     2065     TIP3     H1       HT       0.417000       1.00800           0
     45591 TIP3     2065     TIP3     H2       HT       0.417000       1.00800           0
     45592 TIP3     2066     TIP3     OH2      OT      -0.834000       15.9994           0
     45593 TIP3     2066     TIP3     H1       HT       0.417000       1.00800           0
     45594 TIP3     2066     TIP3     H2       HT       0.417000       1.00800           0
     45595 TIP3     2067     TIP3     OH2      OT      -0.834000       15.9994           0
     45596 TIP3     2067     TIP3     H1       HT       0.417000       1.00800           0
     45597 TIP3     2067     TIP3     H2       HT       0.417000       1.00800           0
     45598 TIP3     2068     TIP3     OH2      OT      -0.834000       15.9994           0
     45599 TIP3     2068     TIP3     H1       HT       0.417000       1.00800           0
     45600 TIP3     2068     TIP3     H2       HT       0.417000       1.00800           0
     45601 TIP3     2069     TIP3     OH2      OT      -0.834000       15.9994           0
     45602 TIP3     2069     TIP3     H1       HT       0.417000       1.00800           0
     45603 TIP3     2069     TIP3     H2       HT       0.417000       1.00800           0
     45604 TIP3     2070     TIP3     OH2      OT      -0.834000       15.9994           0
     45605 TIP3     2070     TIP3     H1       HT       0.417000       1.00800           0
     45606 TIP3     2070     TIP3     H2       HT       0.417000       1.00800           0
     45607 TIP3     2071     TIP3     OH2      OT      -0.834000       15.9994           0
     45608 TIP3     2071     TIP3     H1       HT       0.417000       1.00800           0
     45609 TIP3     2071     TIP3     H2       HT       0.417000       1.00800           0
     45610 TIP3     2072     TIP3     OH2      OT      -0.834000       15.9994           0
     45611 TIP3     2072     TIP3     H1       HT       0.417000       1.00800           0
     45612 TIP3     2072     TIP3     H2       HT       0.417000       1.00800           0
     45613 TIP3     2073     TIP3     OH2      OT      -0.834000       15.9994           0
     45614 TIP3     2073     TIP3     H1       HT       0.417000       1.00800           0
     45615 TIP3     2073     TIP3     H2       HT       0.417000       1.00800           0
     45616 TIP3     2074     TIP3     OH2      OT      -0.834000       15.9994           0
     45617 TIP3     2074     TIP3     H1       HT       0.417000       1.00800           0
     45618 TIP3     2074     TIP3     H2       HT       0.417000       1.00800           0
     45619 TIP3     2075     TIP3     OH2      OT      -0.834000       15.9994           0
     45620 TIP3     2075     TIP3     H1       HT       0.417000       1.00800           0
     45621 TIP3     2075     TIP3     H2       HT       0.417000       1.00800           0
     45622 TIP3     2076     TIP3     OH2      OT      -0.834000       15.9994           0
     45623 TIP3     2076     TIP3     H1       HT       0.417000       1.00800           0
     45624 TIP3     2076     TIP3     H2       HT       0.417000       1.00800           0
     45625 TIP3     2077     TIP3     OH2      OT      -0.834000       15.9994           0
     45626 TIP3     2077     TIP3     H1       HT       0.417000       1.00800           0
     45627 TIP3     2077     TIP3     H2       HT       0.417000       1.00800           0
     45628 TIP3     2078     TIP3     OH2      OT      -0.834000       15.9994           0
     45629 TIP3     2078     TIP3     H1       HT       0.417000       1.00800           0
     45630 TIP3     2078     TIP3     H2       HT       0.417000       1.00800           0
     45631 TIP3     2079     TIP3     OH2      OT      -0.834000       15.9994           0
     45632 TIP3     2079     TIP3     H1       HT       0.417000       1.00800           0
     45633 TIP3     2079     TIP3     H2       HT       0.417000       1.00800           0
     45634 TIP3     2080     TIP3     OH2      OT      -0.834000       15.9994           0
     45635 TIP3     2080     TIP3     H1       HT       0.417000       1.00800           0
     45636 TIP3     2080     TIP3     H2       HT       0.417000       1.00800           0
     45637 TIP3     2081     TIP3     OH2      OT      -0.834000       15.9994           0
     45638 TIP3     2081     TIP3     H1       HT       0.417000       1.00800           0
     45639 TIP3     2081     TIP3     H2       HT       0.417000       1.00800           0
     45640 TIP3     2082     TIP3     OH2      OT      -0.834000       15.9994           0
     45641 TIP3     2082     TIP3     H1       HT       0.417000       1.00800           0
     45642 TIP3     2082     TIP3     H2       HT       0.417000       1.00800           0
     45643 TIP3     2083     TIP3     OH2      OT      -0.834000       15.9994           0
     45644 TIP3     2083     TIP3     H1       HT       0.417000       1.00800           0
     45645 TIP3     2083     TIP3     H2       HT       0.417000       1.00800           0
     45646 TIP3     2084     TIP3     OH2      OT      -0.834000       15.9994           0
     45647 TIP3     2084     TIP3     H1       HT       0.417000       1.00800           0
     45648 TIP3     2084     TIP3     H2       HT       0.417000       1.00800           0
     45649 TIP3     2085     TIP3     OH2      OT      -0.834000       15.9994           0
     45650 TIP3     2085     TIP3     H1       HT       0.417000       1.00800           0
     45651 TIP3     2085     TIP3     H2       HT       0.417000       1.00800           0
     45652 TIP3     2086     TIP3     OH2      OT      -0.834000       15.9994           0
     45653 TIP3     2086     TIP3     H1       HT       0.417000       1.00800           0
     45654 TIP3     2086     TIP3     H2       HT       0.417000       1.00800           0
     45655 TIP3     2087     TIP3     OH2      OT      -0.834000       15.9994           0
     45656 TIP3     2087     TIP3     H1       HT       0.417000       1.00800           0
     45657 TIP3     2087     TIP3     H2       HT       0.417000       1.00800           0
     45658 TIP3     2088     TIP3     OH2      OT      -0.834000       15.9994           0
     45659 TIP3     2088     TIP3     H1       HT       0.417000       1.00800           0
     45660 TIP3     2088     TIP3     H2       HT       0.417000       1.00800           0
     45661 TIP3     2089     TIP3     OH2      OT      -0.834000       15.9994           0
     45662 TIP3     2089     TIP3     H1       HT       0.417000       1.00800           0
     45663 TIP3     2089     TIP3     H2       HT       0.417000       1.00800           0
     45664 TIP3     2090     TIP3     OH2      OT      -0.834000       15.9994           0
     45665 TIP3     2090     TIP3     H1       HT       0.417000       1.00800           0
     45666 TIP3     2090     TIP3     H2       HT       0.417000       1.00800           0
     45667 TIP3     2091     TIP3     OH2      OT      -0.834000       15.9994           0
     45668 TIP3     2091     TIP3     H1       HT       0.417000       1.00800           0
     45669 TIP3     2091     TIP3     H2       HT       0.417000       1.00800           0
     45670 TIP3     2092     TIP3     OH2      OT      -0.834000       15.9994           0
     45671 TIP3     2092     TIP3     H1       HT       0.417000       1.00800           0
     45672 TIP3     2092     TIP3     H2       HT       0.417000       1.00800           0
     45673 TIP3     2093     TIP3     OH2      OT      -0.834000       15.9994           0
     45674 TIP3     2093     TIP3     H1       HT       0.417000       1.00800           0
     45675 TIP3     2093     TIP3     H2       HT       0.417000       1.00800           0
     45676 TIP3     2094     TIP3     OH2      OT      -0.834000       15.9994           0
     45677 TIP3     2094     TIP3     H1       HT       0.417000       1.00800           0
     45678 TIP3     2094     TIP3     H2       HT       0.417000       1.00800           0
     45679 TIP3     2095     TIP3     OH2      OT      -0.834000       15.9994           0
     45680 TIP3     2095     TIP3     H1       HT       0.417000       1.00800           0
     45681 TIP3     2095     TIP3     H2       HT       0.417000       1.00800           0
     45682 TIP3     2096     TIP3     OH2      OT      -0.834000       15.9994           0
     45683 TIP3     2096     TIP3     H1       HT       0.417000       1.00800           0
     45684 TIP3     2096     TIP3     H2       HT       0.417000       1.00800           0
     45685 TIP3     2097     TIP3     OH2      OT      -0.834000       15.9994           0
     45686 TIP3     2097     TIP3     H1       HT       0.417000       1.00800           0
     45687 TIP3     2097     TIP3     H2       HT       0.417000       1.00800           0
     45688 TIP3     2098     TIP3     OH2      OT      -0.834000       15.9994           0
     45689 TIP3     2098     TIP3     H1       HT       0.417000       1.00800           0
     45690 TIP3     2098     TIP3     H2       HT       0.417000       1.00800           0
     45691 TIP3     2099     TIP3     OH2      OT      -0.834000       15.9994           0
     45692 TIP3     2099     TIP3     H1       HT       0.417000       1.00800           0
     45693 TIP3     2099     TIP3     H2       HT       0.417000       1.00800           0
     45694 TIP3     2100     TIP3     OH2      OT      -0.834000       15.9994           0
     45695 TIP3     2100     TIP3     H1       HT       0.417000       1.00800           0
     45696 TIP3     2100     TIP3     H2       HT       0.417000       1.00800           0
     45697 TIP3     2101     TIP3     OH2      OT      -0.834000       15.9994           0
     45698 TIP3     2101     TIP3     H1       HT       0.417000       1.00800           0
     45699 TIP3     2101     TIP3     H2       HT       0.417000       1.00800           0
     45700 TIP3     2102     TIP3     OH2      OT      -0.834000       15.9994           0
     45701 TIP3     2102     TIP3     H1       HT       0.417000       1.00800           0
     45702 TIP3     2102     TIP3     H2       HT       0.417000       1.00800           0
     45703 TIP3     2103     TIP3     OH2      OT      -0.834000       15.9994           0
     45704 TIP3     2103     TIP3     H1       HT       0.417000       1.00800           0
     45705 TIP3     2103     TIP3     H2       HT       0.417000       1.00800           0
     45706 TIP3     2104     TIP3     OH2      OT      -0.834000       15.9994           0
     45707 TIP3     2104     TIP3     H1       HT       0.417000       1.00800           0
     45708 TIP3     2104     TIP3     H2       HT       0.417000       1.00800           0
     45709 TIP3     2105     TIP3     OH2      OT      -0.834000       15.9994           0
     45710 TIP3     2105     TIP3     H1       HT       0.417000       1.00800           0
     45711 TIP3     2105     TIP3     H2       HT       0.417000       1.00800           0
     45712 TIP3     2106     TIP3     OH2      OT      -0.834000       15.9994           0
     45713 TIP3     2106     TIP3     H1       HT       0.417000       1.00800           0
     45714 TIP3     2106     TIP3     H2       HT       0.417000       1.00800           0
     45715 TIP3     2107     TIP3     OH2      OT      -0.834000       15.9994           0
     45716 TIP3     2107     TIP3     H1       HT       0.417000       1.00800           0
     45717 TIP3     2107     TIP3     H2       HT       0.417000       1.00800           0
     45718 TIP3     2108     TIP3     OH2      OT      -0.834000       15.9994           0
     45719 TIP3     2108     TIP3     H1       HT       0.417000       1.00800           0
     45720 TIP3     2108     TIP3     H2       HT       0.417000       1.00800           0
     45721 TIP3     2109     TIP3     OH2      OT      -0.834000       15.9994           0
     45722 TIP3     2109     TIP3     H1       HT       0.417000       1.00800           0
     45723 TIP3     2109     TIP3     H2       HT       0.417000       1.00800           0
     45724 TIP3     2110     TIP3     OH2      OT      -0.834000       15.9994           0
     45725 TIP3     2110     TIP3     H1       HT       0.417000       1.00800           0
     45726 TIP3     2110     TIP3     H2       HT       0.417000       1.00800           0
     45727 TIP3     2111     TIP3     OH2      OT      -0.834000       15.9994           0
     45728 TIP3     2111     TIP3     H1       HT       0.417000       1.00800           0
     45729 TIP3     2111     TIP3     H2       HT       0.417000       1.00800           0
     45730 TIP3     2112     TIP3     OH2      OT      -0.834000       15.9994           0
     45731 TIP3     2112     TIP3     H1       HT       0.417000       1.00800           0
     45732 TIP3     2112     TIP3     H2       HT       0.417000       1.00800           0
     45733 TIP3     2113     TIP3     OH2      OT      -0.834000       15.9994           0
     45734 TIP3     2113     TIP3     H1       HT       0.417000       1.00800           0
     45735 TIP3     2113     TIP3     H2       HT       0.417000       1.00800           0
     45736 TIP3     2114     TIP3     OH2      OT      -0.834000       15.9994           0
     45737 TIP3     2114     TIP3     H1       HT       0.417000       1.00800           0
     45738 TIP3     2114     TIP3     H2       HT       0.417000       1.00800           0
     45739 TIP3     2115     TIP3     OH2      OT      -0.834000       15.9994           0
     45740 TIP3     2115     TIP3     H1       HT       0.417000       1.00800           0
     45741 TIP3     2115     TIP3     H2       HT       0.417000       1.00800           0
     45742 TIP3     2116     TIP3     OH2      OT      -0.834000       15.9994           0
     45743 TIP3     2116     TIP3     H1       HT       0.417000       1.00800           0
     45744 TIP3     2116     TIP3     H2       HT       0.417000       1.00800           0
     45745 TIP3     2117     TIP3     OH2      OT      -0.834000       15.9994           0
     45746 TIP3     2117     TIP3     H1       HT       0.417000       1.00800           0
     45747 TIP3     2117     TIP3     H2       HT       0.417000       1.00800           0
     45748 TIP3     2118     TIP3     OH2      OT      -0.834000       15.9994           0
     45749 TIP3     2118     TIP3     H1       HT       0.417000       1.00800           0
     45750 TIP3     2118     TIP3     H2       HT       0.417000       1.00800           0
     45751 TIP3     2119     TIP3     OH2      OT      -0.834000       15.9994           0
     45752 TIP3     2119     TIP3     H1       HT       0.417000       1.00800           0
     45753 TIP3     2119     TIP3     H2       HT       0.417000       1.00800           0
     45754 TIP3     2120     TIP3     OH2      OT      -0.834000       15.9994           0
     45755 TIP3     2120     TIP3     H1       HT       0.417000       1.00800           0
     45756 TIP3     2120     TIP3     H2       HT       0.417000       1.00800           0
     45757 TIP3     2121     TIP3     OH2      OT      -0.834000       15.9994           0
     45758 TIP3     2121     TIP3     H1       HT       0.417000       1.00800           0
     45759 TIP3     2121     TIP3     H2       HT       0.417000       1.00800           0
     45760 TIP3     2122     TIP3     OH2      OT      -0.834000       15.9994           0
     45761 TIP3     2122     TIP3     H1       HT       0.417000       1.00800           0
     45762 TIP3     2122     TIP3     H2       HT       0.417000       1.00800           0
     45763 TIP3     2123     TIP3     OH2      OT      -0.834000       15.9994           0
     45764 TIP3     2123     TIP3     H1       HT       0.417000       1.00800           0
     45765 TIP3     2123     TIP3     H2       HT       0.417000       1.00800           0
     45766 TIP3     2124     TIP3     OH2      OT      -0.834000       15.9994           0
     45767 TIP3     2124     TIP3     H1       HT       0.417000       1.00800           0
     45768 TIP3     2124     TIP3     H2       HT       0.417000       1.00800           0
     45769 TIP3     2125     TIP3     OH2      OT      -0.834000       15.9994           0
     45770 TIP3     2125     TIP3     H1       HT       0.417000       1.00800           0
     45771 TIP3     2125     TIP3     H2       HT       0.417000       1.00800           0
     45772 TIP3     2126     TIP3     OH2      OT      -0.834000       15.9994           0
     45773 TIP3     2126     TIP3     H1       HT       0.417000       1.00800           0
     45774 TIP3     2126     TIP3     H2       HT       0.417000       1.00800           0
     45775 TIP3     2127     TIP3     OH2      OT      -0.834000       15.9994           0
     45776 TIP3     2127     TIP3     H1       HT       0.417000       1.00800           0
     45777 TIP3     2127     TIP3     H2       HT       0.417000       1.00800           0
     45778 TIP3     2128     TIP3     OH2      OT      -0.834000       15.9994           0
     45779 TIP3     2128     TIP3     H1       HT       0.417000       1.00800           0
     45780 TIP3     2128     TIP3     H2       HT       0.417000       1.00800           0
     45781 TIP3     2129     TIP3     OH2      OT      -0.834000       15.9994           0
     45782 TIP3     2129     TIP3     H1       HT       0.417000       1.00800           0
     45783 TIP3     2129     TIP3     H2       HT       0.417000       1.00800           0
     45784 TIP3     2130     TIP3     OH2      OT      -0.834000       15.9994           0
     45785 TIP3     2130     TIP3     H1       HT       0.417000       1.00800           0
     45786 TIP3     2130     TIP3     H2       HT       0.417000       1.00800           0
     45787 TIP3     2131     TIP3     OH2      OT      -0.834000       15.9994           0
     45788 TIP3     2131     TIP3     H1       HT       0.417000       1.00800           0
     45789 TIP3     2131     TIP3     H2       HT       0.417000       1.00800           0
     45790 TIP3     2132     TIP3     OH2      OT      -0.834000       15.9994           0
     45791 TIP3     2132     TIP3     H1       HT       0.417000       1.00800           0
     45792 TIP3     2132     TIP3     H2       HT       0.417000       1.00800           0
     45793 TIP3     2133     TIP3     OH2      OT      -0.834000       15.9994           0
     45794 TIP3     2133     TIP3     H1       HT       0.417000       1.00800           0
     45795 TIP3     2133     TIP3     H2       HT       0.417000       1.00800           0
     45796 TIP3     2134     TIP3     OH2      OT      -0.834000       15.9994           0
     45797 TIP3     2134     TIP3     H1       HT       0.417000       1.00800           0
     45798 TIP3     2134     TIP3     H2       HT       0.417000       1.00800           0
     45799 TIP3     2135     TIP3     OH2      OT      -0.834000       15.9994           0
     45800 TIP3     2135     TIP3     H1       HT       0.417000       1.00800           0
     45801 TIP3     2135     TIP3     H2       HT       0.417000       1.00800           0
     45802 TIP3     2136     TIP3     OH2      OT      -0.834000       15.9994           0
     45803 TIP3     2136     TIP3     H1       HT       0.417000       1.00800           0
     45804 TIP3     2136     TIP3     H2       HT       0.417000       1.00800           0
     45805 TIP3     2137     TIP3     OH2      OT      -0.834000       15.9994           0
     45806 TIP3     2137     TIP3     H1       HT       0.417000       1.00800           0
     45807 TIP3     2137     TIP3     H2       HT       0.417000       1.00800           0
     45808 TIP3     2138     TIP3     OH2      OT      -0.834000       15.9994           0
     45809 TIP3     2138     TIP3     H1       HT       0.417000       1.00800           0
     45810 TIP3     2138     TIP3     H2       HT       0.417000       1.00800           0
     45811 TIP3     2139     TIP3     OH2      OT      -0.834000       15.9994           0
     45812 TIP3     2139     TIP3     H1       HT       0.417000       1.00800           0
     45813 TIP3     2139     TIP3     H2       HT       0.417000       1.00800           0
     45814 TIP3     2140     TIP3     OH2      OT      -0.834000       15.9994           0
     45815 TIP3     2140     TIP3     H1       HT       0.417000       1.00800           0
     45816 TIP3     2140     TIP3     H2       HT       0.417000       1.00800           0
     45817 TIP3     2141     TIP3     OH2      OT      -0.834000       15.9994           0
     45818 TIP3     2141     TIP3     H1       HT       0.417000       1.00800           0
     45819 TIP3     2141     TIP3     H2       HT       0.417000       1.00800           0
     45820 TIP3     2142     TIP3     OH2      OT      -0.834000       15.9994           0
     45821 TIP3     2142     TIP3     H1       HT       0.417000       1.00800           0
     45822 TIP3     2142     TIP3     H2       HT       0.417000       1.00800           0
     45823 TIP3     2143     TIP3     OH2      OT      -0.834000       15.9994           0
     45824 TIP3     2143     TIP3     H1       HT       0.417000       1.00800           0
     45825 TIP3     2143     TIP3     H2       HT       0.417000       1.00800           0
     45826 TIP3     2144     TIP3     OH2      OT      -0.834000       15.9994           0
     45827 TIP3     2144     TIP3     H1       HT       0.417000       1.00800           0
     45828 TIP3     2144     TIP3     H2       HT       0.417000       1.00800           0
     45829 TIP3     2145     TIP3     OH2      OT      -0.834000       15.9994           0
     45830 TIP3     2145     TIP3     H1       HT       0.417000       1.00800           0
     45831 TIP3     2145     TIP3     H2       HT       0.417000       1.00800           0
     45832 TIP3     2146     TIP3     OH2      OT      -0.834000       15.9994           0
     45833 TIP3     2146     TIP3     H1       HT       0.417000       1.00800           0
     45834 TIP3     2146     TIP3     H2       HT       0.417000       1.00800           0
     45835 TIP3     2147     TIP3     OH2      OT      -0.834000       15.9994           0
     45836 TIP3     2147     TIP3     H1       HT       0.417000       1.00800           0
     45837 TIP3     2147     TIP3     H2       HT       0.417000       1.00800           0
     45838 TIP3     2148     TIP3     OH2      OT      -0.834000       15.9994           0
     45839 TIP3     2148     TIP3     H1       HT       0.417000       1.00800           0
     45840 TIP3     2148     TIP3     H2       HT       0.417000       1.00800           0
     45841 TIP3     2149     TIP3     OH2      OT      -0.834000       15.9994           0
     45842 TIP3     2149     TIP3     H1       HT       0.417000       1.00800           0
     45843 TIP3     2149     TIP3     H2       HT       0.417000       1.00800           0
     45844 TIP3     2150     TIP3     OH2      OT      -0.834000       15.9994           0
     45845 TIP3     2150     TIP3     H1       HT       0.417000       1.00800           0
     45846 TIP3     2150     TIP3     H2       HT       0.417000       1.00800           0
     45847 TIP3     2151     TIP3     OH2      OT      -0.834000       15.9994           0
     45848 TIP3     2151     TIP3     H1       HT       0.417000       1.00800           0
     45849 TIP3     2151     TIP3     H2       HT       0.417000       1.00800           0
     45850 TIP3     2152     TIP3     OH2      OT      -0.834000       15.9994           0
     45851 TIP3     2152     TIP3     H1       HT       0.417000       1.00800           0
     45852 TIP3     2152     TIP3     H2       HT       0.417000       1.00800           0
     45853 TIP3     2153     TIP3     OH2      OT      -0.834000       15.9994           0
     45854 TIP3     2153     TIP3     H1       HT       0.417000       1.00800           0
     45855 TIP3     2153     TIP3     H2       HT       0.417000       1.00800           0
     45856 TIP3     2154     TIP3     OH2      OT      -0.834000       15.9994           0
     45857 TIP3     2154     TIP3     H1       HT       0.417000       1.00800           0
     45858 TIP3     2154     TIP3     H2       HT       0.417000       1.00800           0
     45859 TIP3     2155     TIP3     OH2      OT      -0.834000       15.9994           0
     45860 TIP3     2155     TIP3     H1       HT       0.417000       1.00800           0
     45861 TIP3     2155     TIP3     H2       HT       0.417000       1.00800           0
     45862 TIP3     2156     TIP3     OH2      OT      -0.834000       15.9994           0
     45863 TIP3     2156     TIP3     H1       HT       0.417000       1.00800           0
     45864 TIP3     2156     TIP3     H2       HT       0.417000       1.00800           0
     45865 TIP3     2157     TIP3     OH2      OT      -0.834000       15.9994           0
     45866 TIP3     2157     TIP3     H1       HT       0.417000       1.00800           0
     45867 TIP3     2157     TIP3     H2       HT       0.417000       1.00800           0
     45868 TIP3     2158     TIP3     OH2      OT      -0.834000       15.9994           0
     45869 TIP3     2158     TIP3     H1       HT       0.417000       1.00800           0
     45870 TIP3     2158     TIP3     H2       HT       0.417000       1.00800           0
     45871 TIP3     2159     TIP3     OH2      OT      -0.834000       15.9994           0
     45872 TIP3     2159     TIP3     H1       HT       0.417000       1.00800           0
     45873 TIP3     2159     TIP3     H2       HT       0.417000       1.00800           0
     45874 TIP3     2160     TIP3     OH2      OT      -0.834000       15.9994           0
     45875 TIP3     2160     TIP3     H1       HT       0.417000       1.00800           0
     45876 TIP3     2160     TIP3     H2       HT       0.417000       1.00800           0
     45877 TIP3     2161     TIP3     OH2      OT      -0.834000       15.9994           0
     45878 TIP3     2161     TIP3     H1       HT       0.417000       1.00800           0
     45879 TIP3     2161     TIP3     H2       HT       0.417000       1.00800           0
     45880 TIP3     2162     TIP3     OH2      OT      -0.834000       15.9994           0
     45881 TIP3     2162     TIP3     H1       HT       0.417000       1.00800           0
     45882 TIP3     2162     TIP3     H2       HT       0.417000       1.00800           0
     45883 TIP3     2163     TIP3     OH2      OT      -0.834000       15.9994           0
     45884 TIP3     2163     TIP3     H1       HT       0.417000       1.00800           0
     45885 TIP3     2163     TIP3     H2       HT       0.417000       1.00800           0
     45886 TIP3     2164     TIP3     OH2      OT      -0.834000       15.9994           0
     45887 TIP3     2164     TIP3     H1       HT       0.417000       1.00800           0
     45888 TIP3     2164     TIP3     H2       HT       0.417000       1.00800           0
     45889 TIP3     2165     TIP3     OH2      OT      -0.834000       15.9994           0
     45890 TIP3     2165     TIP3     H1       HT       0.417000       1.00800           0
     45891 TIP3     2165     TIP3     H2       HT       0.417000       1.00800           0
     45892 TIP3     2166     TIP3     OH2      OT      -0.834000       15.9994           0
     45893 TIP3     2166     TIP3     H1       HT       0.417000       1.00800           0
     45894 TIP3     2166     TIP3     H2       HT       0.417000       1.00800           0
     45895 TIP3     2167     TIP3     OH2      OT      -0.834000       15.9994           0
     45896 TIP3     2167     TIP3     H1       HT       0.417000       1.00800           0
     45897 TIP3     2167     TIP3     H2       HT       0.417000       1.00800           0
     45898 TIP3     2168     TIP3     OH2      OT      -0.834000       15.9994           0
     45899 TIP3     2168     TIP3     H1       HT       0.417000       1.00800           0
     45900 TIP3     2168     TIP3     H2       HT       0.417000       1.00800           0
     45901 TIP3     2169     TIP3     OH2      OT      -0.834000       15.9994           0
     45902 TIP3     2169     TIP3     H1       HT       0.417000       1.00800           0
     45903 TIP3     2169     TIP3     H2       HT       0.417000       1.00800           0
     45904 TIP3     2170     TIP3     OH2      OT      -0.834000       15.9994           0
     45905 TIP3     2170     TIP3     H1       HT       0.417000       1.00800           0
     45906 TIP3     2170     TIP3     H2       HT       0.417000       1.00800           0
     45907 TIP3     2171     TIP3     OH2      OT      -0.834000       15.9994           0
     45908 TIP3     2171     TIP3     H1       HT       0.417000       1.00800           0
     45909 TIP3     2171     TIP3     H2       HT       0.417000       1.00800           0
     45910 TIP3     2172     TIP3     OH2      OT      -0.834000       15.9994           0
     45911 TIP3     2172     TIP3     H1       HT       0.417000       1.00800           0
     45912 TIP3     2172     TIP3     H2       HT       0.417000       1.00800           0
     45913 TIP3     2173     TIP3     OH2      OT      -0.834000       15.9994           0
     45914 TIP3     2173     TIP3     H1       HT       0.417000       1.00800           0
     45915 TIP3     2173     TIP3     H2       HT       0.417000       1.00800           0
     45916 TIP3     2174     TIP3     OH2      OT      -0.834000       15.9994           0
     45917 TIP3     2174     TIP3     H1       HT       0.417000       1.00800           0
     45918 TIP3     2174     TIP3     H2       HT       0.417000       1.00800           0
     45919 TIP3     2175     TIP3     OH2      OT      -0.834000       15.9994           0
     45920 TIP3     2175     TIP3     H1       HT       0.417000       1.00800           0
     45921 TIP3     2175     TIP3     H2       HT       0.417000       1.00800           0
     45922 TIP3     2176     TIP3     OH2      OT      -0.834000       15.9994           0
     45923 TIP3     2176     TIP3     H1       HT       0.417000       1.00800           0
     45924 TIP3     2176     TIP3     H2       HT       0.417000       1.00800           0
     45925 TIP3     2177     TIP3     OH2      OT      -0.834000       15.9994           0
     45926 TIP3     2177     TIP3     H1       HT       0.417000       1.00800           0
     45927 TIP3     2177     TIP3     H2       HT       0.417000       1.00800           0
     45928 TIP3     2178     TIP3     OH2      OT      -0.834000       15.9994           0
     45929 TIP3     2178     TIP3     H1       HT       0.417000       1.00800           0
     45930 TIP3     2178     TIP3     H2       HT       0.417000       1.00800           0
     45931 TIP3     2179     TIP3     OH2      OT      -0.834000       15.9994           0
     45932 TIP3     2179     TIP3     H1       HT       0.417000       1.00800           0
     45933 TIP3     2179     TIP3     H2       HT       0.417000       1.00800           0
     45934 TIP3     2180     TIP3     OH2      OT      -0.834000       15.9994           0
     45935 TIP3     2180     TIP3     H1       HT       0.417000       1.00800           0
     45936 TIP3     2180     TIP3     H2       HT       0.417000       1.00800           0
     45937 TIP3     2181     TIP3     OH2      OT      -0.834000       15.9994           0
     45938 TIP3     2181     TIP3     H1       HT       0.417000       1.00800           0
     45939 TIP3     2181     TIP3     H2       HT       0.417000       1.00800           0
     45940 TIP3     2182     TIP3     OH2      OT      -0.834000       15.9994           0
     45941 TIP3     2182     TIP3     H1       HT       0.417000       1.00800           0
     45942 TIP3     2182     TIP3     H2       HT       0.417000       1.00800           0
     45943 TIP3     2183     TIP3     OH2      OT      -0.834000       15.9994           0
     45944 TIP3     2183     TIP3     H1       HT       0.417000       1.00800           0
     45945 TIP3     2183     TIP3     H2       HT       0.417000       1.00800           0
     45946 TIP3     2184     TIP3     OH2      OT      -0.834000       15.9994           0
     45947 TIP3     2184     TIP3     H1       HT       0.417000       1.00800           0
     45948 TIP3     2184     TIP3     H2       HT       0.417000       1.00800           0
     45949 TIP3     2185     TIP3     OH2      OT      -0.834000       15.9994           0
     45950 TIP3     2185     TIP3     H1       HT       0.417000       1.00800           0
     45951 TIP3     2185     TIP3     H2       HT       0.417000       1.00800           0
     45952 TIP3     2186     TIP3     OH2      OT      -0.834000       15.9994           0
     45953 TIP3     2186     TIP3     H1       HT       0.417000       1.00800           0
     45954 TIP3     2186     TIP3     H2       HT       0.417000       1.00800           0
     45955 TIP3     2187     TIP3     OH2      OT      -0.834000       15.9994           0
     45956 TIP3     2187     TIP3     H1       HT       0.417000       1.00800           0
     45957 TIP3     2187     TIP3     H2       HT       0.417000       1.00800           0
     45958 TIP3     2188     TIP3     OH2      OT      -0.834000       15.9994           0
     45959 TIP3     2188     TIP3     H1       HT       0.417000       1.00800           0
     45960 TIP3     2188     TIP3     H2       HT       0.417000       1.00800           0
     45961 TIP3     2189     TIP3     OH2      OT      -0.834000       15.9994           0
     45962 TIP3     2189     TIP3     H1       HT       0.417000       1.00800           0
     45963 TIP3     2189     TIP3     H2       HT       0.417000       1.00800           0
     45964 TIP3     2190     TIP3     OH2      OT      -0.834000       15.9994           0
     45965 TIP3     2190     TIP3     H1       HT       0.417000       1.00800           0
     45966 TIP3     2190     TIP3     H2       HT       0.417000       1.00800           0
     45967 TIP3     2191     TIP3     OH2      OT      -0.834000       15.9994           0
     45968 TIP3     2191     TIP3     H1       HT       0.417000       1.00800           0
     45969 TIP3     2191     TIP3     H2       HT       0.417000       1.00800           0
     45970 TIP3     2192     TIP3     OH2      OT      -0.834000       15.9994           0
     45971 TIP3     2192     TIP3     H1       HT       0.417000       1.00800           0
     45972 TIP3     2192     TIP3     H2       HT       0.417000       1.00800           0
     45973 TIP3     2193     TIP3     OH2      OT      -0.834000       15.9994           0
     45974 TIP3     2193     TIP3     H1       HT       0.417000       1.00800           0
     45975 TIP3     2193     TIP3     H2       HT       0.417000       1.00800           0
     45976 TIP3     2194     TIP3     OH2      OT      -0.834000       15.9994           0
     45977 TIP3     2194     TIP3     H1       HT       0.417000       1.00800           0
     45978 TIP3     2194     TIP3     H2       HT       0.417000       1.00800           0
     45979 TIP3     2195     TIP3     OH2      OT      -0.834000       15.9994           0
     45980 TIP3     2195     TIP3     H1       HT       0.417000       1.00800           0
     45981 TIP3     2195     TIP3     H2       HT       0.417000       1.00800           0
     45982 TIP3     2196     TIP3     OH2      OT      -0.834000       15.9994           0
     45983 TIP3     2196     TIP3     H1       HT       0.417000       1.00800           0
     45984 TIP3     2196     TIP3     H2       HT       0.417000       1.00800           0
     45985 TIP3     2197     TIP3     OH2      OT      -0.834000       15.9994           0
     45986 TIP3     2197     TIP3     H1       HT       0.417000       1.00800           0
     45987 TIP3     2197     TIP3     H2       HT       0.417000       1.00800           0
     45988 TIP3     2198     TIP3     OH2      OT      -0.834000       15.9994           0
     45989 TIP3     2198     TIP3     H1       HT       0.417000       1.00800           0
     45990 TIP3     2198     TIP3     H2       HT       0.417000       1.00800           0
     45991 TIP3     2199     TIP3     OH2      OT      -0.834000       15.9994           0
     45992 TIP3     2199     TIP3     H1       HT       0.417000       1.00800           0
     45993 TIP3     2199     TIP3     H2       HT       0.417000       1.00800           0
     45994 TIP3     2200     TIP3     OH2      OT      -0.834000       15.9994           0
     45995 TIP3     2200     TIP3     H1       HT       0.417000       1.00800           0
     45996 TIP3     2200     TIP3     H2       HT       0.417000       1.00800           0
     45997 TIP3     2201     TIP3     OH2      OT      -0.834000       15.9994           0
     45998 TIP3     2201     TIP3     H1       HT       0.417000       1.00800           0
     45999 TIP3     2201     TIP3     H2       HT       0.417000       1.00800           0
     46000 TIP3     2202     TIP3     OH2      OT      -0.834000       15.9994           0
     46001 TIP3     2202     TIP3     H1       HT       0.417000       1.00800           0
     46002 TIP3     2202     TIP3     H2       HT       0.417000       1.00800           0
     46003 TIP3     2203     TIP3     OH2      OT      -0.834000       15.9994           0
     46004 TIP3     2203     TIP3     H1       HT       0.417000       1.00800           0
     46005 TIP3     2203     TIP3     H2       HT       0.417000       1.00800           0
     46006 TIP3     2204     TIP3     OH2      OT      -0.834000       15.9994           0
     46007 TIP3     2204     TIP3     H1       HT       0.417000       1.00800           0
     46008 TIP3     2204     TIP3     H2       HT       0.417000       1.00800           0
     46009 TIP3     2205     TIP3     OH2      OT      -0.834000       15.9994           0
     46010 TIP3     2205     TIP3     H1       HT       0.417000       1.00800           0
     46011 TIP3     2205     TIP3     H2       HT       0.417000       1.00800           0
     46012 TIP3     2206     TIP3     OH2      OT      -0.834000       15.9994           0
     46013 TIP3     2206     TIP3     H1       HT       0.417000       1.00800           0
     46014 TIP3     2206     TIP3     H2       HT       0.417000       1.00800           0
     46015 TIP3     2207     TIP3     OH2      OT      -0.834000       15.9994           0
     46016 TIP3     2207     TIP3     H1       HT       0.417000       1.00800           0
     46017 TIP3     2207     TIP3     H2       HT       0.417000       1.00800           0
     46018 TIP3     2208     TIP3     OH2      OT      -0.834000       15.9994           0
     46019 TIP3     2208     TIP3     H1       HT       0.417000       1.00800           0
     46020 TIP3     2208     TIP3     H2       HT       0.417000       1.00800           0
     46021 TIP3     2209     TIP3     OH2      OT      -0.834000       15.9994           0
     46022 TIP3     2209     TIP3     H1       HT       0.417000       1.00800           0
     46023 TIP3     2209     TIP3     H2       HT       0.417000       1.00800           0
     46024 TIP3     2210     TIP3     OH2      OT      -0.834000       15.9994           0
     46025 TIP3     2210     TIP3     H1       HT       0.417000       1.00800           0
     46026 TIP3     2210     TIP3     H2       HT       0.417000       1.00800           0
     46027 TIP3     2211     TIP3     OH2      OT      -0.834000       15.9994           0
     46028 TIP3     2211     TIP3     H1       HT       0.417000       1.00800           0
     46029 TIP3     2211     TIP3     H2       HT       0.417000       1.00800           0
     46030 TIP3     2212     TIP3     OH2      OT      -0.834000       15.9994           0
     46031 TIP3     2212     TIP3     H1       HT       0.417000       1.00800           0
     46032 TIP3     2212     TIP3     H2       HT       0.417000       1.00800           0
     46033 TIP3     2213     TIP3     OH2      OT      -0.834000       15.9994           0
     46034 TIP3     2213     TIP3     H1       HT       0.417000       1.00800           0
     46035 TIP3     2213     TIP3     H2       HT       0.417000       1.00800           0
     46036 TIP3     2214     TIP3     OH2      OT      -0.834000       15.9994           0
     46037 TIP3     2214     TIP3     H1       HT       0.417000       1.00800           0
     46038 TIP3     2214     TIP3     H2       HT       0.417000       1.00800           0
     46039 TIP3     2215     TIP3     OH2      OT      -0.834000       15.9994           0
     46040 TIP3     2215     TIP3     H1       HT       0.417000       1.00800           0
     46041 TIP3     2215     TIP3     H2       HT       0.417000       1.00800           0
     46042 TIP3     2216     TIP3     OH2      OT      -0.834000       15.9994           0
     46043 TIP3     2216     TIP3     H1       HT       0.417000       1.00800           0
     46044 TIP3     2216     TIP3     H2       HT       0.417000       1.00800           0
     46045 TIP3     2217     TIP3     OH2      OT      -0.834000       15.9994           0
     46046 TIP3     2217     TIP3     H1       HT       0.417000       1.00800           0
     46047 TIP3     2217     TIP3     H2       HT       0.417000       1.00800           0
     46048 TIP3     2218     TIP3     OH2      OT      -0.834000       15.9994           0
     46049 TIP3     2218     TIP3     H1       HT       0.417000       1.00800           0
     46050 TIP3     2218     TIP3     H2       HT       0.417000       1.00800           0
     46051 TIP3     2219     TIP3     OH2      OT      -0.834000       15.9994           0
     46052 TIP3     2219     TIP3     H1       HT       0.417000       1.00800           0
     46053 TIP3     2219     TIP3     H2       HT       0.417000       1.00800           0
     46054 TIP3     2220     TIP3     OH2      OT      -0.834000       15.9994           0
     46055 TIP3     2220     TIP3     H1       HT       0.417000       1.00800           0
     46056 TIP3     2220     TIP3     H2       HT       0.417000       1.00800           0
     46057 TIP3     2221     TIP3     OH2      OT      -0.834000       15.9994           0
     46058 TIP3     2221     TIP3     H1       HT       0.417000       1.00800           0
     46059 TIP3     2221     TIP3     H2       HT       0.417000       1.00800           0
     46060 TIP3     2222     TIP3     OH2      OT      -0.834000       15.9994           0
     46061 TIP3     2222     TIP3     H1       HT       0.417000       1.00800           0
     46062 TIP3     2222     TIP3     H2       HT       0.417000       1.00800           0
     46063 TIP3     2223     TIP3     OH2      OT      -0.834000       15.9994           0
     46064 TIP3     2223     TIP3     H1       HT       0.417000       1.00800           0
     46065 TIP3     2223     TIP3     H2       HT       0.417000       1.00800           0
     46066 TIP3     2224     TIP3     OH2      OT      -0.834000       15.9994           0
     46067 TIP3     2224     TIP3     H1       HT       0.417000       1.00800           0
     46068 TIP3     2224     TIP3     H2       HT       0.417000       1.00800           0
     46069 TIP3     2225     TIP3     OH2      OT      -0.834000       15.9994           0
     46070 TIP3     2225     TIP3     H1       HT       0.417000       1.00800           0
     46071 TIP3     2225     TIP3     H2       HT       0.417000       1.00800           0
     46072 TIP3     2226     TIP3     OH2      OT      -0.834000       15.9994           0
     46073 TIP3     2226     TIP3     H1       HT       0.417000       1.00800           0
     46074 TIP3     2226     TIP3     H2       HT       0.417000       1.00800           0
     46075 TIP3     2227     TIP3     OH2      OT      -0.834000       15.9994           0
     46076 TIP3     2227     TIP3     H1       HT       0.417000       1.00800           0
     46077 TIP3     2227     TIP3     H2       HT       0.417000       1.00800           0
     46078 TIP3     2228     TIP3     OH2      OT      -0.834000       15.9994           0
     46079 TIP3     2228     TIP3     H1       HT       0.417000       1.00800           0
     46080 TIP3     2228     TIP3     H2       HT       0.417000       1.00800           0
     46081 TIP3     2229     TIP3     OH2      OT      -0.834000       15.9994           0
     46082 TIP3     2229     TIP3     H1       HT       0.417000       1.00800           0
     46083 TIP3     2229     TIP3     H2       HT       0.417000       1.00800           0
     46084 TIP3     2230     TIP3     OH2      OT      -0.834000       15.9994           0
     46085 TIP3     2230     TIP3     H1       HT       0.417000       1.00800           0
     46086 TIP3     2230     TIP3     H2       HT       0.417000       1.00800           0
     46087 TIP3     2231     TIP3     OH2      OT      -0.834000       15.9994           0
     46088 TIP3     2231     TIP3     H1       HT       0.417000       1.00800           0
     46089 TIP3     2231     TIP3     H2       HT       0.417000       1.00800           0
     46090 TIP3     2232     TIP3     OH2      OT      -0.834000       15.9994           0
     46091 TIP3     2232     TIP3     H1       HT       0.417000       1.00800           0
     46092 TIP3     2232     TIP3     H2       HT       0.417000       1.00800           0
     46093 TIP3     2233     TIP3     OH2      OT      -0.834000       15.9994           0
     46094 TIP3     2233     TIP3     H1       HT       0.417000       1.00800           0
     46095 TIP3     2233     TIP3     H2       HT       0.417000       1.00800           0
     46096 TIP3     2234     TIP3     OH2      OT      -0.834000       15.9994           0
     46097 TIP3     2234     TIP3     H1       HT       0.417000       1.00800           0
     46098 TIP3     2234     TIP3     H2       HT       0.417000       1.00800           0
     46099 TIP3     2235     TIP3     OH2      OT      -0.834000       15.9994           0
     46100 TIP3     2235     TIP3     H1       HT       0.417000       1.00800           0
     46101 TIP3     2235     TIP3     H2       HT       0.417000       1.00800           0
     46102 TIP3     2236     TIP3     OH2      OT      -0.834000       15.9994           0
     46103 TIP3     2236     TIP3     H1       HT       0.417000       1.00800           0
     46104 TIP3     2236     TIP3     H2       HT       0.417000       1.00800           0
     46105 TIP3     2237     TIP3     OH2      OT      -0.834000       15.9994           0
     46106 TIP3     2237     TIP3     H1       HT       0.417000       1.00800           0
     46107 TIP3     2237     TIP3     H2       HT       0.417000       1.00800           0
     46108 TIP3     2238     TIP3     OH2      OT      -0.834000       15.9994           0
     46109 TIP3     2238     TIP3     H1       HT       0.417000       1.00800           0
     46110 TIP3     2238     TIP3     H2       HT       0.417000       1.00800           0
     46111 TIP3     2239     TIP3     OH2      OT      -0.834000       15.9994           0
     46112 TIP3     2239     TIP3     H1       HT       0.417000       1.00800           0
     46113 TIP3     2239     TIP3     H2       HT       0.417000       1.00800           0
     46114 TIP3     2240     TIP3     OH2      OT      -0.834000       15.9994           0
     46115 TIP3     2240     TIP3     H1       HT       0.417000       1.00800           0
     46116 TIP3     2240     TIP3     H2       HT       0.417000       1.00800           0
     46117 TIP3     2241     TIP3     OH2      OT      -0.834000       15.9994           0
     46118 TIP3     2241     TIP3     H1       HT       0.417000       1.00800           0
     46119 TIP3     2241     TIP3     H2       HT       0.417000       1.00800           0
     46120 TIP3     2242     TIP3     OH2      OT      -0.834000       15.9994           0
     46121 TIP3     2242     TIP3     H1       HT       0.417000       1.00800           0
     46122 TIP3     2242     TIP3     H2       HT       0.417000       1.00800           0
     46123 TIP3     2243     TIP3     OH2      OT      -0.834000       15.9994           0
     46124 TIP3     2243     TIP3     H1       HT       0.417000       1.00800           0
     46125 TIP3     2243     TIP3     H2       HT       0.417000       1.00800           0
     46126 TIP3     2244     TIP3     OH2      OT      -0.834000       15.9994           0
     46127 TIP3     2244     TIP3     H1       HT       0.417000       1.00800           0
     46128 TIP3     2244     TIP3     H2       HT       0.417000       1.00800           0
     46129 TIP3     2245     TIP3     OH2      OT      -0.834000       15.9994           0
     46130 TIP3     2245     TIP3     H1       HT       0.417000       1.00800           0
     46131 TIP3     2245     TIP3     H2       HT       0.417000       1.00800           0
     46132 TIP3     2246     TIP3     OH2      OT      -0.834000       15.9994           0
     46133 TIP3     2246     TIP3     H1       HT       0.417000       1.00800           0
     46134 TIP3     2246     TIP3     H2       HT       0.417000       1.00800           0
     46135 TIP3     2247     TIP3     OH2      OT      -0.834000       15.9994           0
     46136 TIP3     2247     TIP3     H1       HT       0.417000       1.00800           0
     46137 TIP3     2247     TIP3     H2       HT       0.417000       1.00800           0
     46138 TIP3     2248     TIP3     OH2      OT      -0.834000       15.9994           0
     46139 TIP3     2248     TIP3     H1       HT       0.417000       1.00800           0
     46140 TIP3     2248     TIP3     H2       HT       0.417000       1.00800           0
     46141 TIP3     2249     TIP3     OH2      OT      -0.834000       15.9994           0
     46142 TIP3     2249     TIP3     H1       HT       0.417000       1.00800           0
     46143 TIP3     2249     TIP3     H2       HT       0.417000       1.00800           0
     46144 TIP3     2250     TIP3     OH2      OT      -0.834000       15.9994           0
     46145 TIP3     2250     TIP3     H1       HT       0.417000       1.00800           0
     46146 TIP3     2250     TIP3     H2       HT       0.417000       1.00800           0
     46147 TIP3     2251     TIP3     OH2      OT      -0.834000       15.9994           0
     46148 TIP3     2251     TIP3     H1       HT       0.417000       1.00800           0
     46149 TIP3     2251     TIP3     H2       HT       0.417000       1.00800           0
     46150 TIP3     2252     TIP3     OH2      OT      -0.834000       15.9994           0
     46151 TIP3     2252     TIP3     H1       HT       0.417000       1.00800           0
     46152 TIP3     2252     TIP3     H2       HT       0.417000       1.00800           0
     46153 TIP3     2253     TIP3     OH2      OT      -0.834000       15.9994           0
     46154 TIP3     2253     TIP3     H1       HT       0.417000       1.00800           0
     46155 TIP3     2253     TIP3     H2       HT       0.417000       1.00800           0
     46156 TIP3     2254     TIP3     OH2      OT      -0.834000       15.9994           0
     46157 TIP3     2254     TIP3     H1       HT       0.417000       1.00800           0
     46158 TIP3     2254     TIP3     H2       HT       0.417000       1.00800           0
     46159 TIP3     2255     TIP3     OH2      OT      -0.834000       15.9994           0
     46160 TIP3     2255     TIP3     H1       HT       0.417000       1.00800           0
     46161 TIP3     2255     TIP3     H2       HT       0.417000       1.00800           0
     46162 TIP3     2256     TIP3     OH2      OT      -0.834000       15.9994           0
     46163 TIP3     2256     TIP3     H1       HT       0.417000       1.00800           0
     46164 TIP3     2256     TIP3     H2       HT       0.417000       1.00800           0
     46165 TIP3     2257     TIP3     OH2      OT      -0.834000       15.9994           0
     46166 TIP3     2257     TIP3     H1       HT       0.417000       1.00800           0
     46167 TIP3     2257     TIP3     H2       HT       0.417000       1.00800           0
     46168 TIP3     2258     TIP3     OH2      OT      -0.834000       15.9994           0
     46169 TIP3     2258     TIP3     H1       HT       0.417000       1.00800           0
     46170 TIP3     2258     TIP3     H2       HT       0.417000       1.00800           0
     46171 TIP3     2259     TIP3     OH2      OT      -0.834000       15.9994           0
     46172 TIP3     2259     TIP3     H1       HT       0.417000       1.00800           0
     46173 TIP3     2259     TIP3     H2       HT       0.417000       1.00800           0
     46174 TIP3     2260     TIP3     OH2      OT      -0.834000       15.9994           0
     46175 TIP3     2260     TIP3     H1       HT       0.417000       1.00800           0
     46176 TIP3     2260     TIP3     H2       HT       0.417000       1.00800           0
     46177 TIP3     2261     TIP3     OH2      OT      -0.834000       15.9994           0
     46178 TIP3     2261     TIP3     H1       HT       0.417000       1.00800           0
     46179 TIP3     2261     TIP3     H2       HT       0.417000       1.00800           0
     46180 TIP3     2262     TIP3     OH2      OT      -0.834000       15.9994           0
     46181 TIP3     2262     TIP3     H1       HT       0.417000       1.00800           0
     46182 TIP3     2262     TIP3     H2       HT       0.417000       1.00800           0
     46183 TIP3     2263     TIP3     OH2      OT      -0.834000       15.9994           0
     46184 TIP3     2263     TIP3     H1       HT       0.417000       1.00800           0
     46185 TIP3     2263     TIP3     H2       HT       0.417000       1.00800           0
     46186 TIP3     2264     TIP3     OH2      OT      -0.834000       15.9994           0
     46187 TIP3     2264     TIP3     H1       HT       0.417000       1.00800           0
     46188 TIP3     2264     TIP3     H2       HT       0.417000       1.00800           0
     46189 TIP3     2265     TIP3     OH2      OT      -0.834000       15.9994           0
     46190 TIP3     2265     TIP3     H1       HT       0.417000       1.00800           0
     46191 TIP3     2265     TIP3     H2       HT       0.417000       1.00800           0
     46192 TIP3     2266     TIP3     OH2      OT      -0.834000       15.9994           0
     46193 TIP3     2266     TIP3     H1       HT       0.417000       1.00800           0
     46194 TIP3     2266     TIP3     H2       HT       0.417000       1.00800           0
     46195 TIP3     2267     TIP3     OH2      OT      -0.834000       15.9994           0
     46196 TIP3     2267     TIP3     H1       HT       0.417000       1.00800           0
     46197 TIP3     2267     TIP3     H2       HT       0.417000       1.00800           0
     46198 TIP3     2268     TIP3     OH2      OT      -0.834000       15.9994           0
     46199 TIP3     2268     TIP3     H1       HT       0.417000       1.00800           0
     46200 TIP3     2268     TIP3     H2       HT       0.417000       1.00800           0
     46201 TIP3     2269     TIP3     OH2      OT      -0.834000       15.9994           0
     46202 TIP3     2269     TIP3     H1       HT       0.417000       1.00800           0
     46203 TIP3     2269     TIP3     H2       HT       0.417000       1.00800           0
     46204 TIP3     2270     TIP3     OH2      OT      -0.834000       15.9994           0
     46205 TIP3     2270     TIP3     H1       HT       0.417000       1.00800           0
     46206 TIP3     2270     TIP3     H2       HT       0.417000       1.00800           0
     46207 TIP3     2271     TIP3     OH2      OT      -0.834000       15.9994           0
     46208 TIP3     2271     TIP3     H1       HT       0.417000       1.00800           0
     46209 TIP3     2271     TIP3     H2       HT       0.417000       1.00800           0
     46210 TIP3     2272     TIP3     OH2      OT      -0.834000       15.9994           0
     46211 TIP3     2272     TIP3     H1       HT       0.417000       1.00800           0
     46212 TIP3     2272     TIP3     H2       HT       0.417000       1.00800           0
     46213 TIP3     2273     TIP3     OH2      OT      -0.834000       15.9994           0
     46214 TIP3     2273     TIP3     H1       HT       0.417000       1.00800           0
     46215 TIP3     2273     TIP3     H2       HT       0.417000       1.00800           0
     46216 TIP3     2274     TIP3     OH2      OT      -0.834000       15.9994           0
     46217 TIP3     2274     TIP3     H1       HT       0.417000       1.00800           0
     46218 TIP3     2274     TIP3     H2       HT       0.417000       1.00800           0
     46219 TIP3     2275     TIP3     OH2      OT      -0.834000       15.9994           0
     46220 TIP3     2275     TIP3     H1       HT       0.417000       1.00800           0
     46221 TIP3     2275     TIP3     H2       HT       0.417000       1.00800           0
     46222 TIP3     2276     TIP3     OH2      OT      -0.834000       15.9994           0
     46223 TIP3     2276     TIP3     H1       HT       0.417000       1.00800           0
     46224 TIP3     2276     TIP3     H2       HT       0.417000       1.00800           0
     46225 TIP3     2277     TIP3     OH2      OT      -0.834000       15.9994           0
     46226 TIP3     2277     TIP3     H1       HT       0.417000       1.00800           0
     46227 TIP3     2277     TIP3     H2       HT       0.417000       1.00800           0
     46228 TIP3     2278     TIP3     OH2      OT      -0.834000       15.9994           0
     46229 TIP3     2278     TIP3     H1       HT       0.417000       1.00800           0
     46230 TIP3     2278     TIP3     H2       HT       0.417000       1.00800           0
     46231 TIP3     2279     TIP3     OH2      OT      -0.834000       15.9994           0
     46232 TIP3     2279     TIP3     H1       HT       0.417000       1.00800           0
     46233 TIP3     2279     TIP3     H2       HT       0.417000       1.00800           0
     46234 TIP3     2280     TIP3     OH2      OT      -0.834000       15.9994           0
     46235 TIP3     2280     TIP3     H1       HT       0.417000       1.00800           0
     46236 TIP3     2280     TIP3     H2       HT       0.417000       1.00800           0
     46237 TIP3     2281     TIP3     OH2      OT      -0.834000       15.9994           0
     46238 TIP3     2281     TIP3     H1       HT       0.417000       1.00800           0
     46239 TIP3     2281     TIP3     H2       HT       0.417000       1.00800           0
     46240 TIP3     2282     TIP3     OH2      OT      -0.834000       15.9994           0
     46241 TIP3     2282     TIP3     H1       HT       0.417000       1.00800           0
     46242 TIP3     2282     TIP3     H2       HT       0.417000       1.00800           0
     46243 TIP3     2283     TIP3     OH2      OT      -0.834000       15.9994           0
     46244 TIP3     2283     TIP3     H1       HT       0.417000       1.00800           0
     46245 TIP3     2283     TIP3     H2       HT       0.417000       1.00800           0
     46246 TIP3     2284     TIP3     OH2      OT      -0.834000       15.9994           0
     46247 TIP3     2284     TIP3     H1       HT       0.417000       1.00800           0
     46248 TIP3     2284     TIP3     H2       HT       0.417000       1.00800           0
     46249 TIP3     2285     TIP3     OH2      OT      -0.834000       15.9994           0
     46250 TIP3     2285     TIP3     H1       HT       0.417000       1.00800           0
     46251 TIP3     2285     TIP3     H2       HT       0.417000       1.00800           0
     46252 TIP3     2286     TIP3     OH2      OT      -0.834000       15.9994           0
     46253 TIP3     2286     TIP3     H1       HT       0.417000       1.00800           0
     46254 TIP3     2286     TIP3     H2       HT       0.417000       1.00800           0
     46255 TIP3     2287     TIP3     OH2      OT      -0.834000       15.9994           0
     46256 TIP3     2287     TIP3     H1       HT       0.417000       1.00800           0
     46257 TIP3     2287     TIP3     H2       HT       0.417000       1.00800           0
     46258 TIP3     2288     TIP3     OH2      OT      -0.834000       15.9994           0
     46259 TIP3     2288     TIP3     H1       HT       0.417000       1.00800           0
     46260 TIP3     2288     TIP3     H2       HT       0.417000       1.00800           0
     46261 TIP3     2289     TIP3     OH2      OT      -0.834000       15.9994           0
     46262 TIP3     2289     TIP3     H1       HT       0.417000       1.00800           0
     46263 TIP3     2289     TIP3     H2       HT       0.417000       1.00800           0
     46264 TIP3     2290     TIP3     OH2      OT      -0.834000       15.9994           0
     46265 TIP3     2290     TIP3     H1       HT       0.417000       1.00800           0
     46266 TIP3     2290     TIP3     H2       HT       0.417000       1.00800           0
     46267 TIP3     2291     TIP3     OH2      OT      -0.834000       15.9994           0
     46268 TIP3     2291     TIP3     H1       HT       0.417000       1.00800           0
     46269 TIP3     2291     TIP3     H2       HT       0.417000       1.00800           0
     46270 TIP3     2292     TIP3     OH2      OT      -0.834000       15.9994           0
     46271 TIP3     2292     TIP3     H1       HT       0.417000       1.00800           0
     46272 TIP3     2292     TIP3     H2       HT       0.417000       1.00800           0
     46273 TIP3     2293     TIP3     OH2      OT      -0.834000       15.9994           0
     46274 TIP3     2293     TIP3     H1       HT       0.417000       1.00800           0
     46275 TIP3     2293     TIP3     H2       HT       0.417000       1.00800           0
     46276 TIP3     2294     TIP3     OH2      OT      -0.834000       15.9994           0
     46277 TIP3     2294     TIP3     H1       HT       0.417000       1.00800           0
     46278 TIP3     2294     TIP3     H2       HT       0.417000       1.00800           0
     46279 TIP3     2295     TIP3     OH2      OT      -0.834000       15.9994           0
     46280 TIP3     2295     TIP3     H1       HT       0.417000       1.00800           0
     46281 TIP3     2295     TIP3     H2       HT       0.417000       1.00800           0
     46282 TIP3     2296     TIP3     OH2      OT      -0.834000       15.9994           0
     46283 TIP3     2296     TIP3     H1       HT       0.417000       1.00800           0
     46284 TIP3     2296     TIP3     H2       HT       0.417000       1.00800           0
     46285 TIP3     2297     TIP3     OH2      OT      -0.834000       15.9994           0
     46286 TIP3     2297     TIP3     H1       HT       0.417000       1.00800           0
     46287 TIP3     2297     TIP3     H2       HT       0.417000       1.00800           0
     46288 TIP3     2298     TIP3     OH2      OT      -0.834000       15.9994           0
     46289 TIP3     2298     TIP3     H1       HT       0.417000       1.00800           0
     46290 TIP3     2298     TIP3     H2       HT       0.417000       1.00800           0
     46291 TIP3     2299     TIP3     OH2      OT      -0.834000       15.9994           0
     46292 TIP3     2299     TIP3     H1       HT       0.417000       1.00800           0
     46293 TIP3     2299     TIP3     H2       HT       0.417000       1.00800           0
     46294 TIP3     2300     TIP3     OH2      OT      -0.834000       15.9994           0
     46295 TIP3     2300     TIP3     H1       HT       0.417000       1.00800           0
     46296 TIP3     2300     TIP3     H2       HT       0.417000       1.00800           0
     46297 TIP3     2301     TIP3     OH2      OT      -0.834000       15.9994           0
     46298 TIP3     2301     TIP3     H1       HT       0.417000       1.00800           0
     46299 TIP3     2301     TIP3     H2       HT       0.417000       1.00800           0
     46300 TIP3     2302     TIP3     OH2      OT      -0.834000       15.9994           0
     46301 TIP3     2302     TIP3     H1       HT       0.417000       1.00800           0
     46302 TIP3     2302     TIP3     H2       HT       0.417000       1.00800           0
     46303 TIP3     2303     TIP3     OH2      OT      -0.834000       15.9994           0
     46304 TIP3     2303     TIP3     H1       HT       0.417000       1.00800           0
     46305 TIP3     2303     TIP3     H2       HT       0.417000       1.00800           0
     46306 TIP3     2304     TIP3     OH2      OT      -0.834000       15.9994           0
     46307 TIP3     2304     TIP3     H1       HT       0.417000       1.00800           0
     46308 TIP3     2304     TIP3     H2       HT       0.417000       1.00800           0
     46309 TIP3     2305     TIP3     OH2      OT      -0.834000       15.9994           0
     46310 TIP3     2305     TIP3     H1       HT       0.417000       1.00800           0
     46311 TIP3     2305     TIP3     H2       HT       0.417000       1.00800           0
     46312 TIP3     2306     TIP3     OH2      OT      -0.834000       15.9994           0
     46313 TIP3     2306     TIP3     H1       HT       0.417000       1.00800           0
     46314 TIP3     2306     TIP3     H2       HT       0.417000       1.00800           0
     46315 TIP3     2307     TIP3     OH2      OT      -0.834000       15.9994           0
     46316 TIP3     2307     TIP3     H1       HT       0.417000       1.00800           0
     46317 TIP3     2307     TIP3     H2       HT       0.417000       1.00800           0
     46318 TIP3     2308     TIP3     OH2      OT      -0.834000       15.9994           0
     46319 TIP3     2308     TIP3     H1       HT       0.417000       1.00800           0
     46320 TIP3     2308     TIP3     H2       HT       0.417000       1.00800           0
     46321 TIP3     2309     TIP3     OH2      OT      -0.834000       15.9994           0
     46322 TIP3     2309     TIP3     H1       HT       0.417000       1.00800           0
     46323 TIP3     2309     TIP3     H2       HT       0.417000       1.00800           0
     46324 TIP3     2310     TIP3     OH2      OT      -0.834000       15.9994           0
     46325 TIP3     2310     TIP3     H1       HT       0.417000       1.00800           0
     46326 TIP3     2310     TIP3     H2       HT       0.417000       1.00800           0
     46327 TIP3     2311     TIP3     OH2      OT      -0.834000       15.9994           0
     46328 TIP3     2311     TIP3     H1       HT       0.417000       1.00800           0
     46329 TIP3     2311     TIP3     H2       HT       0.417000       1.00800           0
     46330 TIP3     2312     TIP3     OH2      OT      -0.834000       15.9994           0
     46331 TIP3     2312     TIP3     H1       HT       0.417000       1.00800           0
     46332 TIP3     2312     TIP3     H2       HT       0.417000       1.00800           0
     46333 TIP3     2313     TIP3     OH2      OT      -0.834000       15.9994           0
     46334 TIP3     2313     TIP3     H1       HT       0.417000       1.00800           0
     46335 TIP3     2313     TIP3     H2       HT       0.417000       1.00800           0
     46336 TIP3     2314     TIP3     OH2      OT      -0.834000       15.9994           0
     46337 TIP3     2314     TIP3     H1       HT       0.417000       1.00800           0
     46338 TIP3     2314     TIP3     H2       HT       0.417000       1.00800           0
     46339 TIP3     2315     TIP3     OH2      OT      -0.834000       15.9994           0
     46340 TIP3     2315     TIP3     H1       HT       0.417000       1.00800           0
     46341 TIP3     2315     TIP3     H2       HT       0.417000       1.00800           0
     46342 TIP3     2316     TIP3     OH2      OT      -0.834000       15.9994           0
     46343 TIP3     2316     TIP3     H1       HT       0.417000       1.00800           0
     46344 TIP3     2316     TIP3     H2       HT       0.417000       1.00800           0
     46345 TIP3     2317     TIP3     OH2      OT      -0.834000       15.9994           0
     46346 TIP3     2317     TIP3     H1       HT       0.417000       1.00800           0
     46347 TIP3     2317     TIP3     H2       HT       0.417000       1.00800           0
     46348 TIP3     2318     TIP3     OH2      OT      -0.834000       15.9994           0
     46349 TIP3     2318     TIP3     H1       HT       0.417000       1.00800           0
     46350 TIP3     2318     TIP3     H2       HT       0.417000       1.00800           0
     46351 TIP3     2319     TIP3     OH2      OT      -0.834000       15.9994           0
     46352 TIP3     2319     TIP3     H1       HT       0.417000       1.00800           0
     46353 TIP3     2319     TIP3     H2       HT       0.417000       1.00800           0
     46354 TIP3     2320     TIP3     OH2      OT      -0.834000       15.9994           0
     46355 TIP3     2320     TIP3     H1       HT       0.417000       1.00800           0
     46356 TIP3     2320     TIP3     H2       HT       0.417000       1.00800           0
     46357 TIP3     2321     TIP3     OH2      OT      -0.834000       15.9994           0
     46358 TIP3     2321     TIP3     H1       HT       0.417000       1.00800           0
     46359 TIP3     2321     TIP3     H2       HT       0.417000       1.00800           0
     46360 TIP3     2322     TIP3     OH2      OT      -0.834000       15.9994           0
     46361 TIP3     2322     TIP3     H1       HT       0.417000       1.00800           0
     46362 TIP3     2322     TIP3     H2       HT       0.417000       1.00800           0
     46363 TIP3     2323     TIP3     OH2      OT      -0.834000       15.9994           0
     46364 TIP3     2323     TIP3     H1       HT       0.417000       1.00800           0
     46365 TIP3     2323     TIP3     H2       HT       0.417000       1.00800           0
     46366 TIP3     2324     TIP3     OH2      OT      -0.834000       15.9994           0
     46367 TIP3     2324     TIP3     H1       HT       0.417000       1.00800           0
     46368 TIP3     2324     TIP3     H2       HT       0.417000       1.00800           0
     46369 TIP3     2325     TIP3     OH2      OT      -0.834000       15.9994           0
     46370 TIP3     2325     TIP3     H1       HT       0.417000       1.00800           0
     46371 TIP3     2325     TIP3     H2       HT       0.417000       1.00800           0
     46372 TIP3     2326     TIP3     OH2      OT      -0.834000       15.9994           0
     46373 TIP3     2326     TIP3     H1       HT       0.417000       1.00800           0
     46374 TIP3     2326     TIP3     H2       HT       0.417000       1.00800           0
     46375 TIP3     2327     TIP3     OH2      OT      -0.834000       15.9994           0
     46376 TIP3     2327     TIP3     H1       HT       0.417000       1.00800           0
     46377 TIP3     2327     TIP3     H2       HT       0.417000       1.00800           0
     46378 TIP3     2328     TIP3     OH2      OT      -0.834000       15.9994           0
     46379 TIP3     2328     TIP3     H1       HT       0.417000       1.00800           0
     46380 TIP3     2328     TIP3     H2       HT       0.417000       1.00800           0
     46381 TIP3     2329     TIP3     OH2      OT      -0.834000       15.9994           0
     46382 TIP3     2329     TIP3     H1       HT       0.417000       1.00800           0
     46383 TIP3     2329     TIP3     H2       HT       0.417000       1.00800           0
     46384 TIP3     2330     TIP3     OH2      OT      -0.834000       15.9994           0
     46385 TIP3     2330     TIP3     H1       HT       0.417000       1.00800           0
     46386 TIP3     2330     TIP3     H2       HT       0.417000       1.00800           0
     46387 TIP3     2331     TIP3     OH2      OT      -0.834000       15.9994           0
     46388 TIP3     2331     TIP3     H1       HT       0.417000       1.00800           0
     46389 TIP3     2331     TIP3     H2       HT       0.417000       1.00800           0
     46390 TIP3     2332     TIP3     OH2      OT      -0.834000       15.9994           0
     46391 TIP3     2332     TIP3     H1       HT       0.417000       1.00800           0
     46392 TIP3     2332     TIP3     H2       HT       0.417000       1.00800           0
     46393 TIP3     2333     TIP3     OH2      OT      -0.834000       15.9994           0
     46394 TIP3     2333     TIP3     H1       HT       0.417000       1.00800           0
     46395 TIP3     2333     TIP3     H2       HT       0.417000       1.00800           0
     46396 TIP3     2334     TIP3     OH2      OT      -0.834000       15.9994           0
     46397 TIP3     2334     TIP3     H1       HT       0.417000       1.00800           0
     46398 TIP3     2334     TIP3     H2       HT       0.417000       1.00800           0
     46399 TIP3     2335     TIP3     OH2      OT      -0.834000       15.9994           0
     46400 TIP3     2335     TIP3     H1       HT       0.417000       1.00800           0
     46401 TIP3     2335     TIP3     H2       HT       0.417000       1.00800           0
     46402 TIP3     2336     TIP3     OH2      OT      -0.834000       15.9994           0
     46403 TIP3     2336     TIP3     H1       HT       0.417000       1.00800           0
     46404 TIP3     2336     TIP3     H2       HT       0.417000       1.00800           0
     46405 TIP3     2337     TIP3     OH2      OT      -0.834000       15.9994           0
     46406 TIP3     2337     TIP3     H1       HT       0.417000       1.00800           0
     46407 TIP3     2337     TIP3     H2       HT       0.417000       1.00800           0
     46408 TIP3     2338     TIP3     OH2      OT      -0.834000       15.9994           0
     46409 TIP3     2338     TIP3     H1       HT       0.417000       1.00800           0
     46410 TIP3     2338     TIP3     H2       HT       0.417000       1.00800           0
     46411 TIP3     2339     TIP3     OH2      OT      -0.834000       15.9994           0
     46412 TIP3     2339     TIP3     H1       HT       0.417000       1.00800           0
     46413 TIP3     2339     TIP3     H2       HT       0.417000       1.00800           0
     46414 TIP3     2340     TIP3     OH2      OT      -0.834000       15.9994           0
     46415 TIP3     2340     TIP3     H1       HT       0.417000       1.00800           0
     46416 TIP3     2340     TIP3     H2       HT       0.417000       1.00800           0
     46417 TIP3     2341     TIP3     OH2      OT      -0.834000       15.9994           0
     46418 TIP3     2341     TIP3     H1       HT       0.417000       1.00800           0
     46419 TIP3     2341     TIP3     H2       HT       0.417000       1.00800           0
     46420 TIP3     2342     TIP3     OH2      OT      -0.834000       15.9994           0
     46421 TIP3     2342     TIP3     H1       HT       0.417000       1.00800           0
     46422 TIP3     2342     TIP3     H2       HT       0.417000       1.00800           0
     46423 TIP3     2343     TIP3     OH2      OT      -0.834000       15.9994           0
     46424 TIP3     2343     TIP3     H1       HT       0.417000       1.00800           0
     46425 TIP3     2343     TIP3     H2       HT       0.417000       1.00800           0
     46426 TIP3     2344     TIP3     OH2      OT      -0.834000       15.9994           0
     46427 TIP3     2344     TIP3     H1       HT       0.417000       1.00800           0
     46428 TIP3     2344     TIP3     H2       HT       0.417000       1.00800           0
     46429 TIP3     2345     TIP3     OH2      OT      -0.834000       15.9994           0
     46430 TIP3     2345     TIP3     H1       HT       0.417000       1.00800           0
     46431 TIP3     2345     TIP3     H2       HT       0.417000       1.00800           0
     46432 TIP3     2346     TIP3     OH2      OT      -0.834000       15.9994           0
     46433 TIP3     2346     TIP3     H1       HT       0.417000       1.00800           0
     46434 TIP3     2346     TIP3     H2       HT       0.417000       1.00800           0
     46435 TIP3     2347     TIP3     OH2      OT      -0.834000       15.9994           0
     46436 TIP3     2347     TIP3     H1       HT       0.417000       1.00800           0
     46437 TIP3     2347     TIP3     H2       HT       0.417000       1.00800           0
     46438 TIP3     2348     TIP3     OH2      OT      -0.834000       15.9994           0
     46439 TIP3     2348     TIP3     H1       HT       0.417000       1.00800           0
     46440 TIP3     2348     TIP3     H2       HT       0.417000       1.00800           0
     46441 TIP3     2349     TIP3     OH2      OT      -0.834000       15.9994           0
     46442 TIP3     2349     TIP3     H1       HT       0.417000       1.00800           0
     46443 TIP3     2349     TIP3     H2       HT       0.417000       1.00800           0
     46444 TIP3     2350     TIP3     OH2      OT      -0.834000       15.9994           0
     46445 TIP3     2350     TIP3     H1       HT       0.417000       1.00800           0
     46446 TIP3     2350     TIP3     H2       HT       0.417000       1.00800           0
     46447 TIP3     2351     TIP3     OH2      OT      -0.834000       15.9994           0
     46448 TIP3     2351     TIP3     H1       HT       0.417000       1.00800           0
     46449 TIP3     2351     TIP3     H2       HT       0.417000       1.00800           0
     46450 TIP3     2352     TIP3     OH2      OT      -0.834000       15.9994           0
     46451 TIP3     2352     TIP3     H1       HT       0.417000       1.00800           0
     46452 TIP3     2352     TIP3     H2       HT       0.417000       1.00800           0
     46453 TIP3     2353     TIP3     OH2      OT      -0.834000       15.9994           0
     46454 TIP3     2353     TIP3     H1       HT       0.417000       1.00800           0
     46455 TIP3     2353     TIP3     H2       HT       0.417000       1.00800           0
     46456 TIP3     2354     TIP3     OH2      OT      -0.834000       15.9994           0
     46457 TIP3     2354     TIP3     H1       HT       0.417000       1.00800           0
     46458 TIP3     2354     TIP3     H2       HT       0.417000       1.00800           0
     46459 TIP3     2355     TIP3     OH2      OT      -0.834000       15.9994           0
     46460 TIP3     2355     TIP3     H1       HT       0.417000       1.00800           0
     46461 TIP3     2355     TIP3     H2       HT       0.417000       1.00800           0
     46462 TIP3     2356     TIP3     OH2      OT      -0.834000       15.9994           0
     46463 TIP3     2356     TIP3     H1       HT       0.417000       1.00800           0
     46464 TIP3     2356     TIP3     H2       HT       0.417000       1.00800           0
     46465 TIP3     2357     TIP3     OH2      OT      -0.834000       15.9994           0
     46466 TIP3     2357     TIP3     H1       HT       0.417000       1.00800           0
     46467 TIP3     2357     TIP3     H2       HT       0.417000       1.00800           0
     46468 TIP3     2358     TIP3     OH2      OT      -0.834000       15.9994           0
     46469 TIP3     2358     TIP3     H1       HT       0.417000       1.00800           0
     46470 TIP3     2358     TIP3     H2       HT       0.417000       1.00800           0
     46471 TIP3     2359     TIP3     OH2      OT      -0.834000       15.9994           0
     46472 TIP3     2359     TIP3     H1       HT       0.417000       1.00800           0
     46473 TIP3     2359     TIP3     H2       HT       0.417000       1.00800           0
     46474 TIP3     2360     TIP3     OH2      OT      -0.834000       15.9994           0
     46475 TIP3     2360     TIP3     H1       HT       0.417000       1.00800           0
     46476 TIP3     2360     TIP3     H2       HT       0.417000       1.00800           0
     46477 TIP3     2361     TIP3     OH2      OT      -0.834000       15.9994           0
     46478 TIP3     2361     TIP3     H1       HT       0.417000       1.00800           0
     46479 TIP3     2361     TIP3     H2       HT       0.417000       1.00800           0
     46480 TIP3     2362     TIP3     OH2      OT      -0.834000       15.9994           0
     46481 TIP3     2362     TIP3     H1       HT       0.417000       1.00800           0
     46482 TIP3     2362     TIP3     H2       HT       0.417000       1.00800           0
     46483 TIP3     2363     TIP3     OH2      OT      -0.834000       15.9994           0
     46484 TIP3     2363     TIP3     H1       HT       0.417000       1.00800           0
     46485 TIP3     2363     TIP3     H2       HT       0.417000       1.00800           0
     46486 TIP3     2364     TIP3     OH2      OT      -0.834000       15.9994           0
     46487 TIP3     2364     TIP3     H1       HT       0.417000       1.00800           0
     46488 TIP3     2364     TIP3     H2       HT       0.417000       1.00800           0
     46489 TIP3     2365     TIP3     OH2      OT      -0.834000       15.9994           0
     46490 TIP3     2365     TIP3     H1       HT       0.417000       1.00800           0
     46491 TIP3     2365     TIP3     H2       HT       0.417000       1.00800           0
     46492 TIP3     2366     TIP3     OH2      OT      -0.834000       15.9994           0
     46493 TIP3     2366     TIP3     H1       HT       0.417000       1.00800           0
     46494 TIP3     2366     TIP3     H2       HT       0.417000       1.00800           0
     46495 TIP3     2367     TIP3     OH2      OT      -0.834000       15.9994           0
     46496 TIP3     2367     TIP3     H1       HT       0.417000       1.00800           0
     46497 TIP3     2367     TIP3     H2       HT       0.417000       1.00800           0
     46498 TIP3     2368     TIP3     OH2      OT      -0.834000       15.9994           0
     46499 TIP3     2368     TIP3     H1       HT       0.417000       1.00800           0
     46500 TIP3     2368     TIP3     H2       HT       0.417000       1.00800           0
     46501 TIP3     2369     TIP3     OH2      OT      -0.834000       15.9994           0
     46502 TIP3     2369     TIP3     H1       HT       0.417000       1.00800           0
     46503 TIP3     2369     TIP3     H2       HT       0.417000       1.00800           0
     46504 TIP3     2370     TIP3     OH2      OT      -0.834000       15.9994           0
     46505 TIP3     2370     TIP3     H1       HT       0.417000       1.00800           0
     46506 TIP3     2370     TIP3     H2       HT       0.417000       1.00800           0
     46507 TIP3     2371     TIP3     OH2      OT      -0.834000       15.9994           0
     46508 TIP3     2371     TIP3     H1       HT       0.417000       1.00800           0
     46509 TIP3     2371     TIP3     H2       HT       0.417000       1.00800           0
     46510 TIP3     2372     TIP3     OH2      OT      -0.834000       15.9994           0
     46511 TIP3     2372     TIP3     H1       HT       0.417000       1.00800           0
     46512 TIP3     2372     TIP3     H2       HT       0.417000       1.00800           0
     46513 TIP3     2373     TIP3     OH2      OT      -0.834000       15.9994           0
     46514 TIP3     2373     TIP3     H1       HT       0.417000       1.00800           0
     46515 TIP3     2373     TIP3     H2       HT       0.417000       1.00800           0
     46516 TIP3     2374     TIP3     OH2      OT      -0.834000       15.9994           0
     46517 TIP3     2374     TIP3     H1       HT       0.417000       1.00800           0
     46518 TIP3     2374     TIP3     H2       HT       0.417000       1.00800           0
     46519 TIP3     2375     TIP3     OH2      OT      -0.834000       15.9994           0
     46520 TIP3     2375     TIP3     H1       HT       0.417000       1.00800           0
     46521 TIP3     2375     TIP3     H2       HT       0.417000       1.00800           0
     46522 TIP3     2376     TIP3     OH2      OT      -0.834000       15.9994           0
     46523 TIP3     2376     TIP3     H1       HT       0.417000       1.00800           0
     46524 TIP3     2376     TIP3     H2       HT       0.417000       1.00800           0
     46525 TIP3     2377     TIP3     OH2      OT      -0.834000       15.9994           0
     46526 TIP3     2377     TIP3     H1       HT       0.417000       1.00800           0
     46527 TIP3     2377     TIP3     H2       HT       0.417000       1.00800           0
     46528 TIP3     2378     TIP3     OH2      OT      -0.834000       15.9994           0
     46529 TIP3     2378     TIP3     H1       HT       0.417000       1.00800           0
     46530 TIP3     2378     TIP3     H2       HT       0.417000       1.00800           0
     46531 TIP3     2379     TIP3     OH2      OT      -0.834000       15.9994           0
     46532 TIP3     2379     TIP3     H1       HT       0.417000       1.00800           0
     46533 TIP3     2379     TIP3     H2       HT       0.417000       1.00800           0
     46534 TIP3     2380     TIP3     OH2      OT      -0.834000       15.9994           0
     46535 TIP3     2380     TIP3     H1       HT       0.417000       1.00800           0
     46536 TIP3     2380     TIP3     H2       HT       0.417000       1.00800           0
     46537 TIP3     2381     TIP3     OH2      OT      -0.834000       15.9994           0
     46538 TIP3     2381     TIP3     H1       HT       0.417000       1.00800           0
     46539 TIP3     2381     TIP3     H2       HT       0.417000       1.00800           0
     46540 TIP3     2382     TIP3     OH2      OT      -0.834000       15.9994           0
     46541 TIP3     2382     TIP3     H1       HT       0.417000       1.00800           0
     46542 TIP3     2382     TIP3     H2       HT       0.417000       1.00800           0
     46543 TIP3     2383     TIP3     OH2      OT      -0.834000       15.9994           0
     46544 TIP3     2383     TIP3     H1       HT       0.417000       1.00800           0
     46545 TIP3     2383     TIP3     H2       HT       0.417000       1.00800           0
     46546 TIP3     2384     TIP3     OH2      OT      -0.834000       15.9994           0
     46547 TIP3     2384     TIP3     H1       HT       0.417000       1.00800           0
     46548 TIP3     2384     TIP3     H2       HT       0.417000       1.00800           0
     46549 TIP3     2385     TIP3     OH2      OT      -0.834000       15.9994           0
     46550 TIP3     2385     TIP3     H1       HT       0.417000       1.00800           0
     46551 TIP3     2385     TIP3     H2       HT       0.417000       1.00800           0
     46552 TIP3     2386     TIP3     OH2      OT      -0.834000       15.9994           0
     46553 TIP3     2386     TIP3     H1       HT       0.417000       1.00800           0
     46554 TIP3     2386     TIP3     H2       HT       0.417000       1.00800           0
     46555 TIP3     2387     TIP3     OH2      OT      -0.834000       15.9994           0
     46556 TIP3     2387     TIP3     H1       HT       0.417000       1.00800           0
     46557 TIP3     2387     TIP3     H2       HT       0.417000       1.00800           0
     46558 TIP3     2388     TIP3     OH2      OT      -0.834000       15.9994           0
     46559 TIP3     2388     TIP3     H1       HT       0.417000       1.00800           0
     46560 TIP3     2388     TIP3     H2       HT       0.417000       1.00800           0
     46561 TIP3     2389     TIP3     OH2      OT      -0.834000       15.9994           0
     46562 TIP3     2389     TIP3     H1       HT       0.417000       1.00800           0
     46563 TIP3     2389     TIP3     H2       HT       0.417000       1.00800           0
     46564 TIP3     2390     TIP3     OH2      OT      -0.834000       15.9994           0
     46565 TIP3     2390     TIP3     H1       HT       0.417000       1.00800           0
     46566 TIP3     2390     TIP3     H2       HT       0.417000       1.00800           0
     46567 TIP3     2391     TIP3     OH2      OT      -0.834000       15.9994           0
     46568 TIP3     2391     TIP3     H1       HT       0.417000       1.00800           0
     46569 TIP3     2391     TIP3     H2       HT       0.417000       1.00800           0
     46570 TIP3     2392     TIP3     OH2      OT      -0.834000       15.9994           0
     46571 TIP3     2392     TIP3     H1       HT       0.417000       1.00800           0
     46572 TIP3     2392     TIP3     H2       HT       0.417000       1.00800           0
     46573 TIP3     2393     TIP3     OH2      OT      -0.834000       15.9994           0
     46574 TIP3     2393     TIP3     H1       HT       0.417000       1.00800           0
     46575 TIP3     2393     TIP3     H2       HT       0.417000       1.00800           0
     46576 TIP3     2394     TIP3     OH2      OT      -0.834000       15.9994           0
     46577 TIP3     2394     TIP3     H1       HT       0.417000       1.00800           0
     46578 TIP3     2394     TIP3     H2       HT       0.417000       1.00800           0
     46579 TIP3     2395     TIP3     OH2      OT      -0.834000       15.9994           0
     46580 TIP3     2395     TIP3     H1       HT       0.417000       1.00800           0
     46581 TIP3     2395     TIP3     H2       HT       0.417000       1.00800           0
     46582 TIP3     2396     TIP3     OH2      OT      -0.834000       15.9994           0
     46583 TIP3     2396     TIP3     H1       HT       0.417000       1.00800           0
     46584 TIP3     2396     TIP3     H2       HT       0.417000       1.00800           0
     46585 TIP3     2397     TIP3     OH2      OT      -0.834000       15.9994           0
     46586 TIP3     2397     TIP3     H1       HT       0.417000       1.00800           0
     46587 TIP3     2397     TIP3     H2       HT       0.417000       1.00800           0
     46588 TIP3     2398     TIP3     OH2      OT      -0.834000       15.9994           0
     46589 TIP3     2398     TIP3     H1       HT       0.417000       1.00800           0
     46590 TIP3     2398     TIP3     H2       HT       0.417000       1.00800           0
     46591 TIP3     2399     TIP3     OH2      OT      -0.834000       15.9994           0
     46592 TIP3     2399     TIP3     H1       HT       0.417000       1.00800           0
     46593 TIP3     2399     TIP3     H2       HT       0.417000       1.00800           0
     46594 TIP3     2400     TIP3     OH2      OT      -0.834000       15.9994           0
     46595 TIP3     2400     TIP3     H1       HT       0.417000       1.00800           0
     46596 TIP3     2400     TIP3     H2       HT       0.417000       1.00800           0
     46597 TIP3     2401     TIP3     OH2      OT      -0.834000       15.9994           0
     46598 TIP3     2401     TIP3     H1       HT       0.417000       1.00800           0
     46599 TIP3     2401     TIP3     H2       HT       0.417000       1.00800           0
     46600 TIP3     2402     TIP3     OH2      OT      -0.834000       15.9994           0
     46601 TIP3     2402     TIP3     H1       HT       0.417000       1.00800           0
     46602 TIP3     2402     TIP3     H2       HT       0.417000       1.00800           0
     46603 TIP3     2403     TIP3     OH2      OT      -0.834000       15.9994           0
     46604 TIP3     2403     TIP3     H1       HT       0.417000       1.00800           0
     46605 TIP3     2403     TIP3     H2       HT       0.417000       1.00800           0
     46606 TIP3     2404     TIP3     OH2      OT      -0.834000       15.9994           0
     46607 TIP3     2404     TIP3     H1       HT       0.417000       1.00800           0
     46608 TIP3     2404     TIP3     H2       HT       0.417000       1.00800           0
     46609 TIP3     2405     TIP3     OH2      OT      -0.834000       15.9994           0
     46610 TIP3     2405     TIP3     H1       HT       0.417000       1.00800           0
     46611 TIP3     2405     TIP3     H2       HT       0.417000       1.00800           0
     46612 TIP3     2406     TIP3     OH2      OT      -0.834000       15.9994           0
     46613 TIP3     2406     TIP3     H1       HT       0.417000       1.00800           0
     46614 TIP3     2406     TIP3     H2       HT       0.417000       1.00800           0
     46615 TIP3     2407     TIP3     OH2      OT      -0.834000       15.9994           0
     46616 TIP3     2407     TIP3     H1       HT       0.417000       1.00800           0
     46617 TIP3     2407     TIP3     H2       HT       0.417000       1.00800           0
     46618 TIP3     2408     TIP3     OH2      OT      -0.834000       15.9994           0
     46619 TIP3     2408     TIP3     H1       HT       0.417000       1.00800           0
     46620 TIP3     2408     TIP3     H2       HT       0.417000       1.00800           0
     46621 TIP3     2409     TIP3     OH2      OT      -0.834000       15.9994           0
     46622 TIP3     2409     TIP3     H1       HT       0.417000       1.00800           0
     46623 TIP3     2409     TIP3     H2       HT       0.417000       1.00800           0
     46624 TIP3     2410     TIP3     OH2      OT      -0.834000       15.9994           0
     46625 TIP3     2410     TIP3     H1       HT       0.417000       1.00800           0
     46626 TIP3     2410     TIP3     H2       HT       0.417000       1.00800           0
     46627 TIP3     2411     TIP3     OH2      OT      -0.834000       15.9994           0
     46628 TIP3     2411     TIP3     H1       HT       0.417000       1.00800           0
     46629 TIP3     2411     TIP3     H2       HT       0.417000       1.00800           0
     46630 TIP3     2412     TIP3     OH2      OT      -0.834000       15.9994           0
     46631 TIP3     2412     TIP3     H1       HT       0.417000       1.00800           0
     46632 TIP3     2412     TIP3     H2       HT       0.417000       1.00800           0
     46633 TIP3     2413     TIP3     OH2      OT      -0.834000       15.9994           0
     46634 TIP3     2413     TIP3     H1       HT       0.417000       1.00800           0
     46635 TIP3     2413     TIP3     H2       HT       0.417000       1.00800           0
     46636 TIP3     2414     TIP3     OH2      OT      -0.834000       15.9994           0
     46637 TIP3     2414     TIP3     H1       HT       0.417000       1.00800           0
     46638 TIP3     2414     TIP3     H2       HT       0.417000       1.00800           0
     46639 TIP3     2415     TIP3     OH2      OT      -0.834000       15.9994           0
     46640 TIP3     2415     TIP3     H1       HT       0.417000       1.00800           0
     46641 TIP3     2415     TIP3     H2       HT       0.417000       1.00800           0
     46642 TIP3     2416     TIP3     OH2      OT      -0.834000       15.9994           0
     46643 TIP3     2416     TIP3     H1       HT       0.417000       1.00800           0
     46644 TIP3     2416     TIP3     H2       HT       0.417000       1.00800           0
     46645 TIP3     2417     TIP3     OH2      OT      -0.834000       15.9994           0
     46646 TIP3     2417     TIP3     H1       HT       0.417000       1.00800           0
     46647 TIP3     2417     TIP3     H2       HT       0.417000       1.00800           0
     46648 TIP3     2418     TIP3     OH2      OT      -0.834000       15.9994           0
     46649 TIP3     2418     TIP3     H1       HT       0.417000       1.00800           0
     46650 TIP3     2418     TIP3     H2       HT       0.417000       1.00800           0
     46651 TIP3     2419     TIP3     OH2      OT      -0.834000       15.9994           0
     46652 TIP3     2419     TIP3     H1       HT       0.417000       1.00800           0
     46653 TIP3     2419     TIP3     H2       HT       0.417000       1.00800           0
     46654 TIP3     2420     TIP3     OH2      OT      -0.834000       15.9994           0
     46655 TIP3     2420     TIP3     H1       HT       0.417000       1.00800           0
     46656 TIP3     2420     TIP3     H2       HT       0.417000       1.00800           0
     46657 TIP3     2421     TIP3     OH2      OT      -0.834000       15.9994           0
     46658 TIP3     2421     TIP3     H1       HT       0.417000       1.00800           0
     46659 TIP3     2421     TIP3     H2       HT       0.417000       1.00800           0
     46660 TIP3     2422     TIP3     OH2      OT      -0.834000       15.9994           0
     46661 TIP3     2422     TIP3     H1       HT       0.417000       1.00800           0
     46662 TIP3     2422     TIP3     H2       HT       0.417000       1.00800           0
     46663 TIP3     2423     TIP3     OH2      OT      -0.834000       15.9994           0
     46664 TIP3     2423     TIP3     H1       HT       0.417000       1.00800           0
     46665 TIP3     2423     TIP3     H2       HT       0.417000       1.00800           0
     46666 TIP3     2424     TIP3     OH2      OT      -0.834000       15.9994           0
     46667 TIP3     2424     TIP3     H1       HT       0.417000       1.00800           0
     46668 TIP3     2424     TIP3     H2       HT       0.417000       1.00800           0
     46669 TIP3     2425     TIP3     OH2      OT      -0.834000       15.9994           0
     46670 TIP3     2425     TIP3     H1       HT       0.417000       1.00800           0
     46671 TIP3     2425     TIP3     H2       HT       0.417000       1.00800           0
     46672 TIP3     2426     TIP3     OH2      OT      -0.834000       15.9994           0
     46673 TIP3     2426     TIP3     H1       HT       0.417000       1.00800           0
     46674 TIP3     2426     TIP3     H2       HT       0.417000       1.00800           0
     46675 TIP3     2427     TIP3     OH2      OT      -0.834000       15.9994           0
     46676 TIP3     2427     TIP3     H1       HT       0.417000       1.00800           0
     46677 TIP3     2427     TIP3     H2       HT       0.417000       1.00800           0
     46678 TIP3     2428     TIP3     OH2      OT      -0.834000       15.9994           0
     46679 TIP3     2428     TIP3     H1       HT       0.417000       1.00800           0
     46680 TIP3     2428     TIP3     H2       HT       0.417000       1.00800           0
     46681 TIP3     2429     TIP3     OH2      OT      -0.834000       15.9994           0
     46682 TIP3     2429     TIP3     H1       HT       0.417000       1.00800           0
     46683 TIP3     2429     TIP3     H2       HT       0.417000       1.00800           0
     46684 TIP3     2430     TIP3     OH2      OT      -0.834000       15.9994           0
     46685 TIP3     2430     TIP3     H1       HT       0.417000       1.00800           0
     46686 TIP3     2430     TIP3     H2       HT       0.417000       1.00800           0
     46687 TIP3     2431     TIP3     OH2      OT      -0.834000       15.9994           0
     46688 TIP3     2431     TIP3     H1       HT       0.417000       1.00800           0
     46689 TIP3     2431     TIP3     H2       HT       0.417000       1.00800           0
     46690 TIP3     2432     TIP3     OH2      OT      -0.834000       15.9994           0
     46691 TIP3     2432     TIP3     H1       HT       0.417000       1.00800           0
     46692 TIP3     2432     TIP3     H2       HT       0.417000       1.00800           0
     46693 TIP3     2433     TIP3     OH2      OT      -0.834000       15.9994           0
     46694 TIP3     2433     TIP3     H1       HT       0.417000       1.00800           0
     46695 TIP3     2433     TIP3     H2       HT       0.417000       1.00800           0
     46696 TIP3     2434     TIP3     OH2      OT      -0.834000       15.9994           0
     46697 TIP3     2434     TIP3     H1       HT       0.417000       1.00800           0
     46698 TIP3     2434     TIP3     H2       HT       0.417000       1.00800           0
     46699 TIP3     2435     TIP3     OH2      OT      -0.834000       15.9994           0
     46700 TIP3     2435     TIP3     H1       HT       0.417000       1.00800           0
     46701 TIP3     2435     TIP3     H2       HT       0.417000       1.00800           0
     46702 TIP3     2436     TIP3     OH2      OT      -0.834000       15.9994           0
     46703 TIP3     2436     TIP3     H1       HT       0.417000       1.00800           0
     46704 TIP3     2436     TIP3     H2       HT       0.417000       1.00800           0
     46705 TIP3     2437     TIP3     OH2      OT      -0.834000       15.9994           0
     46706 TIP3     2437     TIP3     H1       HT       0.417000       1.00800           0
     46707 TIP3     2437     TIP3     H2       HT       0.417000       1.00800           0
     46708 TIP3     2438     TIP3     OH2      OT      -0.834000       15.9994           0
     46709 TIP3     2438     TIP3     H1       HT       0.417000       1.00800           0
     46710 TIP3     2438     TIP3     H2       HT       0.417000       1.00800           0
     46711 TIP3     2439     TIP3     OH2      OT      -0.834000       15.9994           0
     46712 TIP3     2439     TIP3     H1       HT       0.417000       1.00800           0
     46713 TIP3     2439     TIP3     H2       HT       0.417000       1.00800           0
     46714 TIP3     2440     TIP3     OH2      OT      -0.834000       15.9994           0
     46715 TIP3     2440     TIP3     H1       HT       0.417000       1.00800           0
     46716 TIP3     2440     TIP3     H2       HT       0.417000       1.00800           0
     46717 TIP3     2441     TIP3     OH2      OT      -0.834000       15.9994           0
     46718 TIP3     2441     TIP3     H1       HT       0.417000       1.00800           0
     46719 TIP3     2441     TIP3     H2       HT       0.417000       1.00800           0
     46720 TIP3     2442     TIP3     OH2      OT      -0.834000       15.9994           0
     46721 TIP3     2442     TIP3     H1       HT       0.417000       1.00800           0
     46722 TIP3     2442     TIP3     H2       HT       0.417000       1.00800           0
     46723 TIP3     2443     TIP3     OH2      OT      -0.834000       15.9994           0
     46724 TIP3     2443     TIP3     H1       HT       0.417000       1.00800           0
     46725 TIP3     2443     TIP3     H2       HT       0.417000       1.00800           0
     46726 TIP3     2444     TIP3     OH2      OT      -0.834000       15.9994           0
     46727 TIP3     2444     TIP3     H1       HT       0.417000       1.00800           0
     46728 TIP3     2444     TIP3     H2       HT       0.417000       1.00800           0
     46729 TIP3     2445     TIP3     OH2      OT      -0.834000       15.9994           0
     46730 TIP3     2445     TIP3     H1       HT       0.417000       1.00800           0
     46731 TIP3     2445     TIP3     H2       HT       0.417000       1.00800           0
     46732 TIP3     2446     TIP3     OH2      OT      -0.834000       15.9994           0
     46733 TIP3     2446     TIP3     H1       HT       0.417000       1.00800           0
     46734 TIP3     2446     TIP3     H2       HT       0.417000       1.00800           0
     46735 TIP3     2447     TIP3     OH2      OT      -0.834000       15.9994           0
     46736 TIP3     2447     TIP3     H1       HT       0.417000       1.00800           0
     46737 TIP3     2447     TIP3     H2       HT       0.417000       1.00800           0
     46738 TIP3     2448     TIP3     OH2      OT      -0.834000       15.9994           0
     46739 TIP3     2448     TIP3     H1       HT       0.417000       1.00800           0
     46740 TIP3     2448     TIP3     H2       HT       0.417000       1.00800           0
     46741 TIP3     2449     TIP3     OH2      OT      -0.834000       15.9994           0
     46742 TIP3     2449     TIP3     H1       HT       0.417000       1.00800           0
     46743 TIP3     2449     TIP3     H2       HT       0.417000       1.00800           0
     46744 TIP3     2450     TIP3     OH2      OT      -0.834000       15.9994           0
     46745 TIP3     2450     TIP3     H1       HT       0.417000       1.00800           0
     46746 TIP3     2450     TIP3     H2       HT       0.417000       1.00800           0
     46747 TIP3     2451     TIP3     OH2      OT      -0.834000       15.9994           0
     46748 TIP3     2451     TIP3     H1       HT       0.417000       1.00800           0
     46749 TIP3     2451     TIP3     H2       HT       0.417000       1.00800           0
     46750 TIP3     2452     TIP3     OH2      OT      -0.834000       15.9994           0
     46751 TIP3     2452     TIP3     H1       HT       0.417000       1.00800           0
     46752 TIP3     2452     TIP3     H2       HT       0.417000       1.00800           0
     46753 TIP3     2453     TIP3     OH2      OT      -0.834000       15.9994           0
     46754 TIP3     2453     TIP3     H1       HT       0.417000       1.00800           0
     46755 TIP3     2453     TIP3     H2       HT       0.417000       1.00800           0
     46756 TIP3     2454     TIP3     OH2      OT      -0.834000       15.9994           0
     46757 TIP3     2454     TIP3     H1       HT       0.417000       1.00800           0
     46758 TIP3     2454     TIP3     H2       HT       0.417000       1.00800           0
     46759 TIP3     2455     TIP3     OH2      OT      -0.834000       15.9994           0
     46760 TIP3     2455     TIP3     H1       HT       0.417000       1.00800           0
     46761 TIP3     2455     TIP3     H2       HT       0.417000       1.00800           0
     46762 TIP3     2456     TIP3     OH2      OT      -0.834000       15.9994           0
     46763 TIP3     2456     TIP3     H1       HT       0.417000       1.00800           0
     46764 TIP3     2456     TIP3     H2       HT       0.417000       1.00800           0
     46765 TIP3     2457     TIP3     OH2      OT      -0.834000       15.9994           0
     46766 TIP3     2457     TIP3     H1       HT       0.417000       1.00800           0
     46767 TIP3     2457     TIP3     H2       HT       0.417000       1.00800           0
     46768 TIP3     2458     TIP3     OH2      OT      -0.834000       15.9994           0
     46769 TIP3     2458     TIP3     H1       HT       0.417000       1.00800           0
     46770 TIP3     2458     TIP3     H2       HT       0.417000       1.00800           0
     46771 TIP3     2459     TIP3     OH2      OT      -0.834000       15.9994           0
     46772 TIP3     2459     TIP3     H1       HT       0.417000       1.00800           0
     46773 TIP3     2459     TIP3     H2       HT       0.417000       1.00800           0
     46774 TIP3     2460     TIP3     OH2      OT      -0.834000       15.9994           0
     46775 TIP3     2460     TIP3     H1       HT       0.417000       1.00800           0
     46776 TIP3     2460     TIP3     H2       HT       0.417000       1.00800           0
     46777 TIP3     2461     TIP3     OH2      OT      -0.834000       15.9994           0
     46778 TIP3     2461     TIP3     H1       HT       0.417000       1.00800           0
     46779 TIP3     2461     TIP3     H2       HT       0.417000       1.00800           0
     46780 TIP3     2462     TIP3     OH2      OT      -0.834000       15.9994           0
     46781 TIP3     2462     TIP3     H1       HT       0.417000       1.00800           0
     46782 TIP3     2462     TIP3     H2       HT       0.417000       1.00800           0
     46783 TIP3     2463     TIP3     OH2      OT      -0.834000       15.9994           0
     46784 TIP3     2463     TIP3     H1       HT       0.417000       1.00800           0
     46785 TIP3     2463     TIP3     H2       HT       0.417000       1.00800           0
     46786 TIP3     2464     TIP3     OH2      OT      -0.834000       15.9994           0
     46787 TIP3     2464     TIP3     H1       HT       0.417000       1.00800           0
     46788 TIP3     2464     TIP3     H2       HT       0.417000       1.00800           0
     46789 TIP3     2465     TIP3     OH2      OT      -0.834000       15.9994           0
     46790 TIP3     2465     TIP3     H1       HT       0.417000       1.00800           0
     46791 TIP3     2465     TIP3     H2       HT       0.417000       1.00800           0
     46792 TIP3     2466     TIP3     OH2      OT      -0.834000       15.9994           0
     46793 TIP3     2466     TIP3     H1       HT       0.417000       1.00800           0
     46794 TIP3     2466     TIP3     H2       HT       0.417000       1.00800           0
     46795 TIP3     2467     TIP3     OH2      OT      -0.834000       15.9994           0
     46796 TIP3     2467     TIP3     H1       HT       0.417000       1.00800           0
     46797 TIP3     2467     TIP3     H2       HT       0.417000       1.00800           0
     46798 TIP3     2468     TIP3     OH2      OT      -0.834000       15.9994           0
     46799 TIP3     2468     TIP3     H1       HT       0.417000       1.00800           0
     46800 TIP3     2468     TIP3     H2       HT       0.417000       1.00800           0
     46801 TIP3     2469     TIP3     OH2      OT      -0.834000       15.9994           0
     46802 TIP3     2469     TIP3     H1       HT       0.417000       1.00800           0
     46803 TIP3     2469     TIP3     H2       HT       0.417000       1.00800           0
     46804 TIP3     2470     TIP3     OH2      OT      -0.834000       15.9994           0
     46805 TIP3     2470     TIP3     H1       HT       0.417000       1.00800           0
     46806 TIP3     2470     TIP3     H2       HT       0.417000       1.00800           0
     46807 TIP3     2471     TIP3     OH2      OT      -0.834000       15.9994           0
     46808 TIP3     2471     TIP3     H1       HT       0.417000       1.00800           0
     46809 TIP3     2471     TIP3     H2       HT       0.417000       1.00800           0
     46810 TIP3     2472     TIP3     OH2      OT      -0.834000       15.9994           0
     46811 TIP3     2472     TIP3     H1       HT       0.417000       1.00800           0
     46812 TIP3     2472     TIP3     H2       HT       0.417000       1.00800           0
     46813 TIP3     2473     TIP3     OH2      OT      -0.834000       15.9994           0
     46814 TIP3     2473     TIP3     H1       HT       0.417000       1.00800           0
     46815 TIP3     2473     TIP3     H2       HT       0.417000       1.00800           0
     46816 TIP3     2474     TIP3     OH2      OT      -0.834000       15.9994           0
     46817 TIP3     2474     TIP3     H1       HT       0.417000       1.00800           0
     46818 TIP3     2474     TIP3     H2       HT       0.417000       1.00800           0
     46819 TIP3     2475     TIP3     OH2      OT      -0.834000       15.9994           0
     46820 TIP3     2475     TIP3     H1       HT       0.417000       1.00800           0
     46821 TIP3     2475     TIP3     H2       HT       0.417000       1.00800           0
     46822 TIP3     2476     TIP3     OH2      OT      -0.834000       15.9994           0
     46823 TIP3     2476     TIP3     H1       HT       0.417000       1.00800           0
     46824 TIP3     2476     TIP3     H2       HT       0.417000       1.00800           0
     46825 TIP3     2477     TIP3     OH2      OT      -0.834000       15.9994           0
     46826 TIP3     2477     TIP3     H1       HT       0.417000       1.00800           0
     46827 TIP3     2477     TIP3     H2       HT       0.417000       1.00800           0
     46828 TIP3     2478     TIP3     OH2      OT      -0.834000       15.9994           0
     46829 TIP3     2478     TIP3     H1       HT       0.417000       1.00800           0
     46830 TIP3     2478     TIP3     H2       HT       0.417000       1.00800           0
     46831 TIP3     2479     TIP3     OH2      OT      -0.834000       15.9994           0
     46832 TIP3     2479     TIP3     H1       HT       0.417000       1.00800           0
     46833 TIP3     2479     TIP3     H2       HT       0.417000       1.00800           0
     46834 TIP3     2480     TIP3     OH2      OT      -0.834000       15.9994           0
     46835 TIP3     2480     TIP3     H1       HT       0.417000       1.00800           0
     46836 TIP3     2480     TIP3     H2       HT       0.417000       1.00800           0
     46837 TIP3     2481     TIP3     OH2      OT      -0.834000       15.9994           0
     46838 TIP3     2481     TIP3     H1       HT       0.417000       1.00800           0
     46839 TIP3     2481     TIP3     H2       HT       0.417000       1.00800           0
     46840 TIP3     2482     TIP3     OH2      OT      -0.834000       15.9994           0
     46841 TIP3     2482     TIP3     H1       HT       0.417000       1.00800           0
     46842 TIP3     2482     TIP3     H2       HT       0.417000       1.00800           0
     46843 TIP3     2483     TIP3     OH2      OT      -0.834000       15.9994           0
     46844 TIP3     2483     TIP3     H1       HT       0.417000       1.00800           0
     46845 TIP3     2483     TIP3     H2       HT       0.417000       1.00800           0
     46846 TIP3     2484     TIP3     OH2      OT      -0.834000       15.9994           0
     46847 TIP3     2484     TIP3     H1       HT       0.417000       1.00800           0
     46848 TIP3     2484     TIP3     H2       HT       0.417000       1.00800           0
     46849 TIP3     2485     TIP3     OH2      OT      -0.834000       15.9994           0
     46850 TIP3     2485     TIP3     H1       HT       0.417000       1.00800           0
     46851 TIP3     2485     TIP3     H2       HT       0.417000       1.00800           0
     46852 TIP3     2486     TIP3     OH2      OT      -0.834000       15.9994           0
     46853 TIP3     2486     TIP3     H1       HT       0.417000       1.00800           0
     46854 TIP3     2486     TIP3     H2       HT       0.417000       1.00800           0
     46855 TIP3     2487     TIP3     OH2      OT      -0.834000       15.9994           0
     46856 TIP3     2487     TIP3     H1       HT       0.417000       1.00800           0
     46857 TIP3     2487     TIP3     H2       HT       0.417000       1.00800           0
     46858 TIP3     2488     TIP3     OH2      OT      -0.834000       15.9994           0
     46859 TIP3     2488     TIP3     H1       HT       0.417000       1.00800           0
     46860 TIP3     2488     TIP3     H2       HT       0.417000       1.00800           0
     46861 TIP3     2489     TIP3     OH2      OT      -0.834000       15.9994           0
     46862 TIP3     2489     TIP3     H1       HT       0.417000       1.00800           0
     46863 TIP3     2489     TIP3     H2       HT       0.417000       1.00800           0
     46864 TIP3     2490     TIP3     OH2      OT      -0.834000       15.9994           0
     46865 TIP3     2490     TIP3     H1       HT       0.417000       1.00800           0
     46866 TIP3     2490     TIP3     H2       HT       0.417000       1.00800           0
     46867 TIP3     2491     TIP3     OH2      OT      -0.834000       15.9994           0
     46868 TIP3     2491     TIP3     H1       HT       0.417000       1.00800           0
     46869 TIP3     2491     TIP3     H2       HT       0.417000       1.00800           0
     46870 TIP3     2492     TIP3     OH2      OT      -0.834000       15.9994           0
     46871 TIP3     2492     TIP3     H1       HT       0.417000       1.00800           0
     46872 TIP3     2492     TIP3     H2       HT       0.417000       1.00800           0
     46873 TIP3     2493     TIP3     OH2      OT      -0.834000       15.9994           0
     46874 TIP3     2493     TIP3     H1       HT       0.417000       1.00800           0
     46875 TIP3     2493     TIP3     H2       HT       0.417000       1.00800           0
     46876 TIP3     2494     TIP3     OH2      OT      -0.834000       15.9994           0
     46877 TIP3     2494     TIP3     H1       HT       0.417000       1.00800           0
     46878 TIP3     2494     TIP3     H2       HT       0.417000       1.00800           0
     46879 TIP3     2495     TIP3     OH2      OT      -0.834000       15.9994           0
     46880 TIP3     2495     TIP3     H1       HT       0.417000       1.00800           0
     46881 TIP3     2495     TIP3     H2       HT       0.417000       1.00800           0
     46882 TIP3     2496     TIP3     OH2      OT      -0.834000       15.9994           0
     46883 TIP3     2496     TIP3     H1       HT       0.417000       1.00800           0
     46884 TIP3     2496     TIP3     H2       HT       0.417000       1.00800           0
     46885 TIP3     2497     TIP3     OH2      OT      -0.834000       15.9994           0
     46886 TIP3     2497     TIP3     H1       HT       0.417000       1.00800           0
     46887 TIP3     2497     TIP3     H2       HT       0.417000       1.00800           0
     46888 TIP3     2498     TIP3     OH2      OT      -0.834000       15.9994           0
     46889 TIP3     2498     TIP3     H1       HT       0.417000       1.00800           0
     46890 TIP3     2498     TIP3     H2       HT       0.417000       1.00800           0
     46891 TIP3     2499     TIP3     OH2      OT      -0.834000       15.9994           0
     46892 TIP3     2499     TIP3     H1       HT       0.417000       1.00800           0
     46893 TIP3     2499     TIP3     H2       HT       0.417000       1.00800           0
     46894 TIP3     2500     TIP3     OH2      OT      -0.834000       15.9994           0
     46895 TIP3     2500     TIP3     H1       HT       0.417000       1.00800           0
     46896 TIP3     2500     TIP3     H2       HT       0.417000       1.00800           0
     46897 TIP3     2501     TIP3     OH2      OT      -0.834000       15.9994           0
     46898 TIP3     2501     TIP3     H1       HT       0.417000       1.00800           0
     46899 TIP3     2501     TIP3     H2       HT       0.417000       1.00800           0
     46900 TIP3     2502     TIP3     OH2      OT      -0.834000       15.9994           0
     46901 TIP3     2502     TIP3     H1       HT       0.417000       1.00800           0
     46902 TIP3     2502     TIP3     H2       HT       0.417000       1.00800           0
     46903 TIP3     2503     TIP3     OH2      OT      -0.834000       15.9994           0
     46904 TIP3     2503     TIP3     H1       HT       0.417000       1.00800           0
     46905 TIP3     2503     TIP3     H2       HT       0.417000       1.00800           0
     46906 TIP3     2504     TIP3     OH2      OT      -0.834000       15.9994           0
     46907 TIP3     2504     TIP3     H1       HT       0.417000       1.00800           0
     46908 TIP3     2504     TIP3     H2       HT       0.417000       1.00800           0
     46909 TIP3     2505     TIP3     OH2      OT      -0.834000       15.9994           0
     46910 TIP3     2505     TIP3     H1       HT       0.417000       1.00800           0
     46911 TIP3     2505     TIP3     H2       HT       0.417000       1.00800           0
     46912 TIP3     2506     TIP3     OH2      OT      -0.834000       15.9994           0
     46913 TIP3     2506     TIP3     H1       HT       0.417000       1.00800           0
     46914 TIP3     2506     TIP3     H2       HT       0.417000       1.00800           0
     46915 TIP3     2507     TIP3     OH2      OT      -0.834000       15.9994           0
     46916 TIP3     2507     TIP3     H1       HT       0.417000       1.00800           0
     46917 TIP3     2507     TIP3     H2       HT       0.417000       1.00800           0
     46918 TIP3     2508     TIP3     OH2      OT      -0.834000       15.9994           0
     46919 TIP3     2508     TIP3     H1       HT       0.417000       1.00800           0
     46920 TIP3     2508     TIP3     H2       HT       0.417000       1.00800           0
     46921 TIP3     2509     TIP3     OH2      OT      -0.834000       15.9994           0
     46922 TIP3     2509     TIP3     H1       HT       0.417000       1.00800           0
     46923 TIP3     2509     TIP3     H2       HT       0.417000       1.00800           0
     46924 TIP3     2510     TIP3     OH2      OT      -0.834000       15.9994           0
     46925 TIP3     2510     TIP3     H1       HT       0.417000       1.00800           0
     46926 TIP3     2510     TIP3     H2       HT       0.417000       1.00800           0
     46927 TIP3     2511     TIP3     OH2      OT      -0.834000       15.9994           0
     46928 TIP3     2511     TIP3     H1       HT       0.417000       1.00800           0
     46929 TIP3     2511     TIP3     H2       HT       0.417000       1.00800           0
     46930 TIP3     2512     TIP3     OH2      OT      -0.834000       15.9994           0
     46931 TIP3     2512     TIP3     H1       HT       0.417000       1.00800           0
     46932 TIP3     2512     TIP3     H2       HT       0.417000       1.00800           0
     46933 TIP3     2513     TIP3     OH2      OT      -0.834000       15.9994           0
     46934 TIP3     2513     TIP3     H1       HT       0.417000       1.00800           0
     46935 TIP3     2513     TIP3     H2       HT       0.417000       1.00800           0
     46936 TIP3     2514     TIP3     OH2      OT      -0.834000       15.9994           0
     46937 TIP3     2514     TIP3     H1       HT       0.417000       1.00800           0
     46938 TIP3     2514     TIP3     H2       HT       0.417000       1.00800           0
     46939 TIP3     2515     TIP3     OH2      OT      -0.834000       15.9994           0
     46940 TIP3     2515     TIP3     H1       HT       0.417000       1.00800           0
     46941 TIP3     2515     TIP3     H2       HT       0.417000       1.00800           0
     46942 TIP3     2516     TIP3     OH2      OT      -0.834000       15.9994           0
     46943 TIP3     2516     TIP3     H1       HT       0.417000       1.00800           0
     46944 TIP3     2516     TIP3     H2       HT       0.417000       1.00800           0
     46945 TIP3     2517     TIP3     OH2      OT      -0.834000       15.9994           0
     46946 TIP3     2517     TIP3     H1       HT       0.417000       1.00800           0
     46947 TIP3     2517     TIP3     H2       HT       0.417000       1.00800           0
     46948 TIP3     2518     TIP3     OH2      OT      -0.834000       15.9994           0
     46949 TIP3     2518     TIP3     H1       HT       0.417000       1.00800           0
     46950 TIP3     2518     TIP3     H2       HT       0.417000       1.00800           0
     46951 TIP3     2519     TIP3     OH2      OT      -0.834000       15.9994           0
     46952 TIP3     2519     TIP3     H1       HT       0.417000       1.00800           0
     46953 TIP3     2519     TIP3     H2       HT       0.417000       1.00800           0
     46954 TIP3     2520     TIP3     OH2      OT      -0.834000       15.9994           0
     46955 TIP3     2520     TIP3     H1       HT       0.417000       1.00800           0
     46956 TIP3     2520     TIP3     H2       HT       0.417000       1.00800           0
     46957 TIP3     2521     TIP3     OH2      OT      -0.834000       15.9994           0
     46958 TIP3     2521     TIP3     H1       HT       0.417000       1.00800           0
     46959 TIP3     2521     TIP3     H2       HT       0.417000       1.00800           0
     46960 TIP3     2522     TIP3     OH2      OT      -0.834000       15.9994           0
     46961 TIP3     2522     TIP3     H1       HT       0.417000       1.00800           0
     46962 TIP3     2522     TIP3     H2       HT       0.417000       1.00800           0
     46963 TIP3     2523     TIP3     OH2      OT      -0.834000       15.9994           0
     46964 TIP3     2523     TIP3     H1       HT       0.417000       1.00800           0
     46965 TIP3     2523     TIP3     H2       HT       0.417000       1.00800           0
     46966 TIP3     2524     TIP3     OH2      OT      -0.834000       15.9994           0
     46967 TIP3     2524     TIP3     H1       HT       0.417000       1.00800           0
     46968 TIP3     2524     TIP3     H2       HT       0.417000       1.00800           0
     46969 TIP3     2525     TIP3     OH2      OT      -0.834000       15.9994           0
     46970 TIP3     2525     TIP3     H1       HT       0.417000       1.00800           0
     46971 TIP3     2525     TIP3     H2       HT       0.417000       1.00800           0
     46972 TIP3     2526     TIP3     OH2      OT      -0.834000       15.9994           0
     46973 TIP3     2526     TIP3     H1       HT       0.417000       1.00800           0
     46974 TIP3     2526     TIP3     H2       HT       0.417000       1.00800           0
     46975 TIP3     2527     TIP3     OH2      OT      -0.834000       15.9994           0
     46976 TIP3     2527     TIP3     H1       HT       0.417000       1.00800           0
     46977 TIP3     2527     TIP3     H2       HT       0.417000       1.00800           0
     46978 TIP3     2528     TIP3     OH2      OT      -0.834000       15.9994           0
     46979 TIP3     2528     TIP3     H1       HT       0.417000       1.00800           0
     46980 TIP3     2528     TIP3     H2       HT       0.417000       1.00800           0
     46981 TIP3     2529     TIP3     OH2      OT      -0.834000       15.9994           0
     46982 TIP3     2529     TIP3     H1       HT       0.417000       1.00800           0
     46983 TIP3     2529     TIP3     H2       HT       0.417000       1.00800           0
     46984 TIP3     2530     TIP3     OH2      OT      -0.834000       15.9994           0
     46985 TIP3     2530     TIP3     H1       HT       0.417000       1.00800           0
     46986 TIP3     2530     TIP3     H2       HT       0.417000       1.00800           0
     46987 TIP3     2531     TIP3     OH2      OT      -0.834000       15.9994           0
     46988 TIP3     2531     TIP3     H1       HT       0.417000       1.00800           0
     46989 TIP3     2531     TIP3     H2       HT       0.417000       1.00800           0
     46990 TIP3     2532     TIP3     OH2      OT      -0.834000       15.9994           0
     46991 TIP3     2532     TIP3     H1       HT       0.417000       1.00800           0
     46992 TIP3     2532     TIP3     H2       HT       0.417000       1.00800           0
     46993 TIP3     2533     TIP3     OH2      OT      -0.834000       15.9994           0
     46994 TIP3     2533     TIP3     H1       HT       0.417000       1.00800           0
     46995 TIP3     2533     TIP3     H2       HT       0.417000       1.00800           0
     46996 TIP3     2534     TIP3     OH2      OT      -0.834000       15.9994           0
     46997 TIP3     2534     TIP3     H1       HT       0.417000       1.00800           0
     46998 TIP3     2534     TIP3     H2       HT       0.417000       1.00800           0
     46999 TIP3     2535     TIP3     OH2      OT      -0.834000       15.9994           0
     47000 TIP3     2535     TIP3     H1       HT       0.417000       1.00800           0
     47001 TIP3     2535     TIP3     H2       HT       0.417000       1.00800           0
     47002 TIP3     2536     TIP3     OH2      OT      -0.834000       15.9994           0
     47003 TIP3     2536     TIP3     H1       HT       0.417000       1.00800           0
     47004 TIP3     2536     TIP3     H2       HT       0.417000       1.00800           0
     47005 TIP3     2537     TIP3     OH2      OT      -0.834000       15.9994           0
     47006 TIP3     2537     TIP3     H1       HT       0.417000       1.00800           0
     47007 TIP3     2537     TIP3     H2       HT       0.417000       1.00800           0
     47008 TIP3     2538     TIP3     OH2      OT      -0.834000       15.9994           0
     47009 TIP3     2538     TIP3     H1       HT       0.417000       1.00800           0
     47010 TIP3     2538     TIP3     H2       HT       0.417000       1.00800           0
     47011 TIP3     2539     TIP3     OH2      OT      -0.834000       15.9994           0
     47012 TIP3     2539     TIP3     H1       HT       0.417000       1.00800           0
     47013 TIP3     2539     TIP3     H2       HT       0.417000       1.00800           0
     47014 TIP3     2540     TIP3     OH2      OT      -0.834000       15.9994           0
     47015 TIP3     2540     TIP3     H1       HT       0.417000       1.00800           0
     47016 TIP3     2540     TIP3     H2       HT       0.417000       1.00800           0
     47017 TIP3     2541     TIP3     OH2      OT      -0.834000       15.9994           0
     47018 TIP3     2541     TIP3     H1       HT       0.417000       1.00800           0
     47019 TIP3     2541     TIP3     H2       HT       0.417000       1.00800           0
     47020 TIP3     2542     TIP3     OH2      OT      -0.834000       15.9994           0
     47021 TIP3     2542     TIP3     H1       HT       0.417000       1.00800           0
     47022 TIP3     2542     TIP3     H2       HT       0.417000       1.00800           0
     47023 TIP3     2543     TIP3     OH2      OT      -0.834000       15.9994           0
     47024 TIP3     2543     TIP3     H1       HT       0.417000       1.00800           0
     47025 TIP3     2543     TIP3     H2       HT       0.417000       1.00800           0
     47026 TIP3     2544     TIP3     OH2      OT      -0.834000       15.9994           0
     47027 TIP3     2544     TIP3     H1       HT       0.417000       1.00800           0
     47028 TIP3     2544     TIP3     H2       HT       0.417000       1.00800           0
     47029 TIP3     2545     TIP3     OH2      OT      -0.834000       15.9994           0
     47030 TIP3     2545     TIP3     H1       HT       0.417000       1.00800           0
     47031 TIP3     2545     TIP3     H2       HT       0.417000       1.00800           0
     47032 TIP3     2546     TIP3     OH2      OT      -0.834000       15.9994           0
     47033 TIP3     2546     TIP3     H1       HT       0.417000       1.00800           0
     47034 TIP3     2546     TIP3     H2       HT       0.417000       1.00800           0
     47035 TIP3     2547     TIP3     OH2      OT      -0.834000       15.9994           0
     47036 TIP3     2547     TIP3     H1       HT       0.417000       1.00800           0
     47037 TIP3     2547     TIP3     H2       HT       0.417000       1.00800           0
     47038 TIP3     2548     TIP3     OH2      OT      -0.834000       15.9994           0
     47039 TIP3     2548     TIP3     H1       HT       0.417000       1.00800           0
     47040 TIP3     2548     TIP3     H2       HT       0.417000       1.00800           0
     47041 TIP3     2549     TIP3     OH2      OT      -0.834000       15.9994           0
     47042 TIP3     2549     TIP3     H1       HT       0.417000       1.00800           0
     47043 TIP3     2549     TIP3     H2       HT       0.417000       1.00800           0
     47044 TIP3     2550     TIP3     OH2      OT      -0.834000       15.9994           0
     47045 TIP3     2550     TIP3     H1       HT       0.417000       1.00800           0
     47046 TIP3     2550     TIP3     H2       HT       0.417000       1.00800           0
     47047 TIP3     2551     TIP3     OH2      OT      -0.834000       15.9994           0
     47048 TIP3     2551     TIP3     H1       HT       0.417000       1.00800           0
     47049 TIP3     2551     TIP3     H2       HT       0.417000       1.00800           0
     47050 TIP3     2552     TIP3     OH2      OT      -0.834000       15.9994           0
     47051 TIP3     2552     TIP3     H1       HT       0.417000       1.00800           0
     47052 TIP3     2552     TIP3     H2       HT       0.417000       1.00800           0
     47053 TIP3     2553     TIP3     OH2      OT      -0.834000       15.9994           0
     47054 TIP3     2553     TIP3     H1       HT       0.417000       1.00800           0
     47055 TIP3     2553     TIP3     H2       HT       0.417000       1.00800           0
     47056 TIP3     2554     TIP3     OH2      OT      -0.834000       15.9994           0
     47057 TIP3     2554     TIP3     H1       HT       0.417000       1.00800           0
     47058 TIP3     2554     TIP3     H2       HT       0.417000       1.00800           0
     47059 TIP3     2555     TIP3     OH2      OT      -0.834000       15.9994           0
     47060 TIP3     2555     TIP3     H1       HT       0.417000       1.00800           0
     47061 TIP3     2555     TIP3     H2       HT       0.417000       1.00800           0
     47062 TIP3     2556     TIP3     OH2      OT      -0.834000       15.9994           0
     47063 TIP3     2556     TIP3     H1       HT       0.417000       1.00800           0
     47064 TIP3     2556     TIP3     H2       HT       0.417000       1.00800           0
     47065 TIP3     2557     TIP3     OH2      OT      -0.834000       15.9994           0
     47066 TIP3     2557     TIP3     H1       HT       0.417000       1.00800           0
     47067 TIP3     2557     TIP3     H2       HT       0.417000       1.00800           0
     47068 TIP3     2558     TIP3     OH2      OT      -0.834000       15.9994           0
     47069 TIP3     2558     TIP3     H1       HT       0.417000       1.00800           0
     47070 TIP3     2558     TIP3     H2       HT       0.417000       1.00800           0
     47071 TIP3     2559     TIP3     OH2      OT      -0.834000       15.9994           0
     47072 TIP3     2559     TIP3     H1       HT       0.417000       1.00800           0
     47073 TIP3     2559     TIP3     H2       HT       0.417000       1.00800           0
     47074 TIP3     2560     TIP3     OH2      OT      -0.834000       15.9994           0
     47075 TIP3     2560     TIP3     H1       HT       0.417000       1.00800           0
     47076 TIP3     2560     TIP3     H2       HT       0.417000       1.00800           0
     47077 TIP3     2561     TIP3     OH2      OT      -0.834000       15.9994           0
     47078 TIP3     2561     TIP3     H1       HT       0.417000       1.00800           0
     47079 TIP3     2561     TIP3     H2       HT       0.417000       1.00800           0
     47080 TIP3     2562     TIP3     OH2      OT      -0.834000       15.9994           0
     47081 TIP3     2562     TIP3     H1       HT       0.417000       1.00800           0
     47082 TIP3     2562     TIP3     H2       HT       0.417000       1.00800           0
     47083 TIP3     2563     TIP3     OH2      OT      -0.834000       15.9994           0
     47084 TIP3     2563     TIP3     H1       HT       0.417000       1.00800           0
     47085 TIP3     2563     TIP3     H2       HT       0.417000       1.00800           0
     47086 TIP3     2564     TIP3     OH2      OT      -0.834000       15.9994           0
     47087 TIP3     2564     TIP3     H1       HT       0.417000       1.00800           0
     47088 TIP3     2564     TIP3     H2       HT       0.417000       1.00800           0
     47089 TIP3     2565     TIP3     OH2      OT      -0.834000       15.9994           0
     47090 TIP3     2565     TIP3     H1       HT       0.417000       1.00800           0
     47091 TIP3     2565     TIP3     H2       HT       0.417000       1.00800           0
     47092 TIP3     2566     TIP3     OH2      OT      -0.834000       15.9994           0
     47093 TIP3     2566     TIP3     H1       HT       0.417000       1.00800           0
     47094 TIP3     2566     TIP3     H2       HT       0.417000       1.00800           0
     47095 TIP3     2567     TIP3     OH2      OT      -0.834000       15.9994           0
     47096 TIP3     2567     TIP3     H1       HT       0.417000       1.00800           0
     47097 TIP3     2567     TIP3     H2       HT       0.417000       1.00800           0
     47098 TIP3     2568     TIP3     OH2      OT      -0.834000       15.9994           0
     47099 TIP3     2568     TIP3     H1       HT       0.417000       1.00800           0
     47100 TIP3     2568     TIP3     H2       HT       0.417000       1.00800           0
     47101 TIP3     2569     TIP3     OH2      OT      -0.834000       15.9994           0
     47102 TIP3     2569     TIP3     H1       HT       0.417000       1.00800           0
     47103 TIP3     2569     TIP3     H2       HT       0.417000       1.00800           0
     47104 TIP3     2570     TIP3     OH2      OT      -0.834000       15.9994           0
     47105 TIP3     2570     TIP3     H1       HT       0.417000       1.00800           0
     47106 TIP3     2570     TIP3     H2       HT       0.417000       1.00800           0
     47107 TIP3     2571     TIP3     OH2      OT      -0.834000       15.9994           0
     47108 TIP3     2571     TIP3     H1       HT       0.417000       1.00800           0
     47109 TIP3     2571     TIP3     H2       HT       0.417000       1.00800           0
     47110 TIP3     2572     TIP3     OH2      OT      -0.834000       15.9994           0
     47111 TIP3     2572     TIP3     H1       HT       0.417000       1.00800           0
     47112 TIP3     2572     TIP3     H2       HT       0.417000       1.00800           0
     47113 TIP3     2573     TIP3     OH2      OT      -0.834000       15.9994           0
     47114 TIP3     2573     TIP3     H1       HT       0.417000       1.00800           0
     47115 TIP3     2573     TIP3     H2       HT       0.417000       1.00800           0
     47116 TIP3     2574     TIP3     OH2      OT      -0.834000       15.9994           0
     47117 TIP3     2574     TIP3     H1       HT       0.417000       1.00800           0
     47118 TIP3     2574     TIP3     H2       HT       0.417000       1.00800           0
     47119 TIP3     2575     TIP3     OH2      OT      -0.834000       15.9994           0
     47120 TIP3     2575     TIP3     H1       HT       0.417000       1.00800           0
     47121 TIP3     2575     TIP3     H2       HT       0.417000       1.00800           0
     47122 TIP3     2576     TIP3     OH2      OT      -0.834000       15.9994           0
     47123 TIP3     2576     TIP3     H1       HT       0.417000       1.00800           0
     47124 TIP3     2576     TIP3     H2       HT       0.417000       1.00800           0
     47125 TIP3     2577     TIP3     OH2      OT      -0.834000       15.9994           0
     47126 TIP3     2577     TIP3     H1       HT       0.417000       1.00800           0
     47127 TIP3     2577     TIP3     H2       HT       0.417000       1.00800           0
     47128 TIP3     2578     TIP3     OH2      OT      -0.834000       15.9994           0
     47129 TIP3     2578     TIP3     H1       HT       0.417000       1.00800           0
     47130 TIP3     2578     TIP3     H2       HT       0.417000       1.00800           0
     47131 TIP3     2579     TIP3     OH2      OT      -0.834000       15.9994           0
     47132 TIP3     2579     TIP3     H1       HT       0.417000       1.00800           0
     47133 TIP3     2579     TIP3     H2       HT       0.417000       1.00800           0
     47134 TIP3     2580     TIP3     OH2      OT      -0.834000       15.9994           0
     47135 TIP3     2580     TIP3     H1       HT       0.417000       1.00800           0
     47136 TIP3     2580     TIP3     H2       HT       0.417000       1.00800           0
     47137 TIP3     2581     TIP3     OH2      OT      -0.834000       15.9994           0
     47138 TIP3     2581     TIP3     H1       HT       0.417000       1.00800           0
     47139 TIP3     2581     TIP3     H2       HT       0.417000       1.00800           0
     47140 TIP3     2582     TIP3     OH2      OT      -0.834000       15.9994           0
     47141 TIP3     2582     TIP3     H1       HT       0.417000       1.00800           0
     47142 TIP3     2582     TIP3     H2       HT       0.417000       1.00800           0
     47143 TIP3     2583     TIP3     OH2      OT      -0.834000       15.9994           0
     47144 TIP3     2583     TIP3     H1       HT       0.417000       1.00800           0
     47145 TIP3     2583     TIP3     H2       HT       0.417000       1.00800           0
     47146 TIP3     2584     TIP3     OH2      OT      -0.834000       15.9994           0
     47147 TIP3     2584     TIP3     H1       HT       0.417000       1.00800           0
     47148 TIP3     2584     TIP3     H2       HT       0.417000       1.00800           0
     47149 TIP3     2585     TIP3     OH2      OT      -0.834000       15.9994           0
     47150 TIP3     2585     TIP3     H1       HT       0.417000       1.00800           0
     47151 TIP3     2585     TIP3     H2       HT       0.417000       1.00800           0
     47152 TIP3     2586     TIP3     OH2      OT      -0.834000       15.9994           0
     47153 TIP3     2586     TIP3     H1       HT       0.417000       1.00800           0
     47154 TIP3     2586     TIP3     H2       HT       0.417000       1.00800           0
     47155 TIP3     2587     TIP3     OH2      OT      -0.834000       15.9994           0
     47156 TIP3     2587     TIP3     H1       HT       0.417000       1.00800           0
     47157 TIP3     2587     TIP3     H2       HT       0.417000       1.00800           0
     47158 TIP3     2588     TIP3     OH2      OT      -0.834000       15.9994           0
     47159 TIP3     2588     TIP3     H1       HT       0.417000       1.00800           0
     47160 TIP3     2588     TIP3     H2       HT       0.417000       1.00800           0
     47161 TIP3     2589     TIP3     OH2      OT      -0.834000       15.9994           0
     47162 TIP3     2589     TIP3     H1       HT       0.417000       1.00800           0
     47163 TIP3     2589     TIP3     H2       HT       0.417000       1.00800           0
     47164 TIP3     2590     TIP3     OH2      OT      -0.834000       15.9994           0
     47165 TIP3     2590     TIP3     H1       HT       0.417000       1.00800           0
     47166 TIP3     2590     TIP3     H2       HT       0.417000       1.00800           0
     47167 TIP3     2591     TIP3     OH2      OT      -0.834000       15.9994           0
     47168 TIP3     2591     TIP3     H1       HT       0.417000       1.00800           0
     47169 TIP3     2591     TIP3     H2       HT       0.417000       1.00800           0
     47170 TIP3     2592     TIP3     OH2      OT      -0.834000       15.9994           0
     47171 TIP3     2592     TIP3     H1       HT       0.417000       1.00800           0
     47172 TIP3     2592     TIP3     H2       HT       0.417000       1.00800           0
     47173 TIP3     2593     TIP3     OH2      OT      -0.834000       15.9994           0
     47174 TIP3     2593     TIP3     H1       HT       0.417000       1.00800           0
     47175 TIP3     2593     TIP3     H2       HT       0.417000       1.00800           0
     47176 TIP3     2594     TIP3     OH2      OT      -0.834000       15.9994           0
     47177 TIP3     2594     TIP3     H1       HT       0.417000       1.00800           0
     47178 TIP3     2594     TIP3     H2       HT       0.417000       1.00800           0
     47179 TIP3     2595     TIP3     OH2      OT      -0.834000       15.9994           0
     47180 TIP3     2595     TIP3     H1       HT       0.417000       1.00800           0
     47181 TIP3     2595     TIP3     H2       HT       0.417000       1.00800           0
     47182 TIP3     2596     TIP3     OH2      OT      -0.834000       15.9994           0
     47183 TIP3     2596     TIP3     H1       HT       0.417000       1.00800           0
     47184 TIP3     2596     TIP3     H2       HT       0.417000       1.00800           0
     47185 TIP3     2597     TIP3     OH2      OT      -0.834000       15.9994           0
     47186 TIP3     2597     TIP3     H1       HT       0.417000       1.00800           0
     47187 TIP3     2597     TIP3     H2       HT       0.417000       1.00800           0
     47188 TIP3     2598     TIP3     OH2      OT      -0.834000       15.9994           0
     47189 TIP3     2598     TIP3     H1       HT       0.417000       1.00800           0
     47190 TIP3     2598     TIP3     H2       HT       0.417000       1.00800           0
     47191 TIP3     2599     TIP3     OH2      OT      -0.834000       15.9994           0
     47192 TIP3     2599     TIP3     H1       HT       0.417000       1.00800           0
     47193 TIP3     2599     TIP3     H2       HT       0.417000       1.00800           0
     47194 TIP3     2600     TIP3     OH2      OT      -0.834000       15.9994           0
     47195 TIP3     2600     TIP3     H1       HT       0.417000       1.00800           0
     47196 TIP3     2600     TIP3     H2       HT       0.417000       1.00800           0
     47197 TIP3     2601     TIP3     OH2      OT      -0.834000       15.9994           0
     47198 TIP3     2601     TIP3     H1       HT       0.417000       1.00800           0
     47199 TIP3     2601     TIP3     H2       HT       0.417000       1.00800           0
     47200 TIP3     2602     TIP3     OH2      OT      -0.834000       15.9994           0
     47201 TIP3     2602     TIP3     H1       HT       0.417000       1.00800           0
     47202 TIP3     2602     TIP3     H2       HT       0.417000       1.00800           0
     47203 TIP3     2603     TIP3     OH2      OT      -0.834000       15.9994           0
     47204 TIP3     2603     TIP3     H1       HT       0.417000       1.00800           0
     47205 TIP3     2603     TIP3     H2       HT       0.417000       1.00800           0
     47206 TIP3     2604     TIP3     OH2      OT      -0.834000       15.9994           0
     47207 TIP3     2604     TIP3     H1       HT       0.417000       1.00800           0
     47208 TIP3     2604     TIP3     H2       HT       0.417000       1.00800           0
     47209 TIP3     2605     TIP3     OH2      OT      -0.834000       15.9994           0
     47210 TIP3     2605     TIP3     H1       HT       0.417000       1.00800           0
     47211 TIP3     2605     TIP3     H2       HT       0.417000       1.00800           0
     47212 TIP3     2606     TIP3     OH2      OT      -0.834000       15.9994           0
     47213 TIP3     2606     TIP3     H1       HT       0.417000       1.00800           0
     47214 TIP3     2606     TIP3     H2       HT       0.417000       1.00800           0
     47215 TIP3     2607     TIP3     OH2      OT      -0.834000       15.9994           0
     47216 TIP3     2607     TIP3     H1       HT       0.417000       1.00800           0
     47217 TIP3     2607     TIP3     H2       HT       0.417000       1.00800           0
     47218 TIP3     2608     TIP3     OH2      OT      -0.834000       15.9994           0
     47219 TIP3     2608     TIP3     H1       HT       0.417000       1.00800           0
     47220 TIP3     2608     TIP3     H2       HT       0.417000       1.00800           0
     47221 TIP3     2609     TIP3     OH2      OT      -0.834000       15.9994           0
     47222 TIP3     2609     TIP3     H1       HT       0.417000       1.00800           0
     47223 TIP3     2609     TIP3     H2       HT       0.417000       1.00800           0
     47224 TIP3     2610     TIP3     OH2      OT      -0.834000       15.9994           0
     47225 TIP3     2610     TIP3     H1       HT       0.417000       1.00800           0
     47226 TIP3     2610     TIP3     H2       HT       0.417000       1.00800           0
     47227 TIP3     2611     TIP3     OH2      OT      -0.834000       15.9994           0
     47228 TIP3     2611     TIP3     H1       HT       0.417000       1.00800           0
     47229 TIP3     2611     TIP3     H2       HT       0.417000       1.00800           0
     47230 TIP3     2612     TIP3     OH2      OT      -0.834000       15.9994           0
     47231 TIP3     2612     TIP3     H1       HT       0.417000       1.00800           0
     47232 TIP3     2612     TIP3     H2       HT       0.417000       1.00800           0
     47233 TIP3     2613     TIP3     OH2      OT      -0.834000       15.9994           0
     47234 TIP3     2613     TIP3     H1       HT       0.417000       1.00800           0
     47235 TIP3     2613     TIP3     H2       HT       0.417000       1.00800           0
     47236 TIP3     2614     TIP3     OH2      OT      -0.834000       15.9994           0
     47237 TIP3     2614     TIP3     H1       HT       0.417000       1.00800           0
     47238 TIP3     2614     TIP3     H2       HT       0.417000       1.00800           0
     47239 TIP3     2615     TIP3     OH2      OT      -0.834000       15.9994           0
     47240 TIP3     2615     TIP3     H1       HT       0.417000       1.00800           0
     47241 TIP3     2615     TIP3     H2       HT       0.417000       1.00800           0
     47242 TIP3     2616     TIP3     OH2      OT      -0.834000       15.9994           0
     47243 TIP3     2616     TIP3     H1       HT       0.417000       1.00800           0
     47244 TIP3     2616     TIP3     H2       HT       0.417000       1.00800           0
     47245 TIP3     2617     TIP3     OH2      OT      -0.834000       15.9994           0
     47246 TIP3     2617     TIP3     H1       HT       0.417000       1.00800           0
     47247 TIP3     2617     TIP3     H2       HT       0.417000       1.00800           0
     47248 TIP3     2618     TIP3     OH2      OT      -0.834000       15.9994           0
     47249 TIP3     2618     TIP3     H1       HT       0.417000       1.00800           0
     47250 TIP3     2618     TIP3     H2       HT       0.417000       1.00800           0
     47251 TIP3     2619     TIP3     OH2      OT      -0.834000       15.9994           0
     47252 TIP3     2619     TIP3     H1       HT       0.417000       1.00800           0
     47253 TIP3     2619     TIP3     H2       HT       0.417000       1.00800           0
     47254 TIP3     2620     TIP3     OH2      OT      -0.834000       15.9994           0
     47255 TIP3     2620     TIP3     H1       HT       0.417000       1.00800           0
     47256 TIP3     2620     TIP3     H2       HT       0.417000       1.00800           0
     47257 TIP3     2621     TIP3     OH2      OT      -0.834000       15.9994           0
     47258 TIP3     2621     TIP3     H1       HT       0.417000       1.00800           0
     47259 TIP3     2621     TIP3     H2       HT       0.417000       1.00800           0
     47260 TIP3     2622     TIP3     OH2      OT      -0.834000       15.9994           0
     47261 TIP3     2622     TIP3     H1       HT       0.417000       1.00800           0
     47262 TIP3     2622     TIP3     H2       HT       0.417000       1.00800           0
     47263 TIP3     2623     TIP3     OH2      OT      -0.834000       15.9994           0
     47264 TIP3     2623     TIP3     H1       HT       0.417000       1.00800           0
     47265 TIP3     2623     TIP3     H2       HT       0.417000       1.00800           0
     47266 TIP3     2624     TIP3     OH2      OT      -0.834000       15.9994           0
     47267 TIP3     2624     TIP3     H1       HT       0.417000       1.00800           0
     47268 TIP3     2624     TIP3     H2       HT       0.417000       1.00800           0
     47269 TIP3     2625     TIP3     OH2      OT      -0.834000       15.9994           0
     47270 TIP3     2625     TIP3     H1       HT       0.417000       1.00800           0
     47271 TIP3     2625     TIP3     H2       HT       0.417000       1.00800           0
     47272 TIP3     2626     TIP3     OH2      OT      -0.834000       15.9994           0
     47273 TIP3     2626     TIP3     H1       HT       0.417000       1.00800           0
     47274 TIP3     2626     TIP3     H2       HT       0.417000       1.00800           0
     47275 TIP3     2627     TIP3     OH2      OT      -0.834000       15.9994           0
     47276 TIP3     2627     TIP3     H1       HT       0.417000       1.00800           0
     47277 TIP3     2627     TIP3     H2       HT       0.417000       1.00800           0
     47278 TIP3     2628     TIP3     OH2      OT      -0.834000       15.9994           0
     47279 TIP3     2628     TIP3     H1       HT       0.417000       1.00800           0
     47280 TIP3     2628     TIP3     H2       HT       0.417000       1.00800           0
     47281 TIP3     2629     TIP3     OH2      OT      -0.834000       15.9994           0
     47282 TIP3     2629     TIP3     H1       HT       0.417000       1.00800           0
     47283 TIP3     2629     TIP3     H2       HT       0.417000       1.00800           0
     47284 TIP3     2630     TIP3     OH2      OT      -0.834000       15.9994           0
     47285 TIP3     2630     TIP3     H1       HT       0.417000       1.00800           0
     47286 TIP3     2630     TIP3     H2       HT       0.417000       1.00800           0
     47287 TIP3     2631     TIP3     OH2      OT      -0.834000       15.9994           0
     47288 TIP3     2631     TIP3     H1       HT       0.417000       1.00800           0
     47289 TIP3     2631     TIP3     H2       HT       0.417000       1.00800           0
     47290 TIP3     2632     TIP3     OH2      OT      -0.834000       15.9994           0
     47291 TIP3     2632     TIP3     H1       HT       0.417000       1.00800           0
     47292 TIP3     2632     TIP3     H2       HT       0.417000       1.00800           0
     47293 TIP3     2633     TIP3     OH2      OT      -0.834000       15.9994           0
     47294 TIP3     2633     TIP3     H1       HT       0.417000       1.00800           0
     47295 TIP3     2633     TIP3     H2       HT       0.417000       1.00800           0
     47296 TIP3     2634     TIP3     OH2      OT      -0.834000       15.9994           0
     47297 TIP3     2634     TIP3     H1       HT       0.417000       1.00800           0
     47298 TIP3     2634     TIP3     H2       HT       0.417000       1.00800           0
     47299 TIP3     2635     TIP3     OH2      OT      -0.834000       15.9994           0
     47300 TIP3     2635     TIP3     H1       HT       0.417000       1.00800           0
     47301 TIP3     2635     TIP3     H2       HT       0.417000       1.00800           0
     47302 TIP3     2636     TIP3     OH2      OT      -0.834000       15.9994           0
     47303 TIP3     2636     TIP3     H1       HT       0.417000       1.00800           0
     47304 TIP3     2636     TIP3     H2       HT       0.417000       1.00800           0
     47305 TIP3     2637     TIP3     OH2      OT      -0.834000       15.9994           0
     47306 TIP3     2637     TIP3     H1       HT       0.417000       1.00800           0
     47307 TIP3     2637     TIP3     H2       HT       0.417000       1.00800           0
     47308 TIP3     2638     TIP3     OH2      OT      -0.834000       15.9994           0
     47309 TIP3     2638     TIP3     H1       HT       0.417000       1.00800           0
     47310 TIP3     2638     TIP3     H2       HT       0.417000       1.00800           0
     47311 TIP3     2639     TIP3     OH2      OT      -0.834000       15.9994           0
     47312 TIP3     2639     TIP3     H1       HT       0.417000       1.00800           0
     47313 TIP3     2639     TIP3     H2       HT       0.417000       1.00800           0
     47314 TIP3     2640     TIP3     OH2      OT      -0.834000       15.9994           0
     47315 TIP3     2640     TIP3     H1       HT       0.417000       1.00800           0
     47316 TIP3     2640     TIP3     H2       HT       0.417000       1.00800           0
     47317 TIP3     2641     TIP3     OH2      OT      -0.834000       15.9994           0
     47318 TIP3     2641     TIP3     H1       HT       0.417000       1.00800           0
     47319 TIP3     2641     TIP3     H2       HT       0.417000       1.00800           0
     47320 TIP3     2642     TIP3     OH2      OT      -0.834000       15.9994           0
     47321 TIP3     2642     TIP3     H1       HT       0.417000       1.00800           0
     47322 TIP3     2642     TIP3     H2       HT       0.417000       1.00800           0
     47323 TIP3     2643     TIP3     OH2      OT      -0.834000       15.9994           0
     47324 TIP3     2643     TIP3     H1       HT       0.417000       1.00800           0
     47325 TIP3     2643     TIP3     H2       HT       0.417000       1.00800           0
     47326 TIP3     2644     TIP3     OH2      OT      -0.834000       15.9994           0
     47327 TIP3     2644     TIP3     H1       HT       0.417000       1.00800           0
     47328 TIP3     2644     TIP3     H2       HT       0.417000       1.00800           0
     47329 TIP3     2645     TIP3     OH2      OT      -0.834000       15.9994           0
     47330 TIP3     2645     TIP3     H1       HT       0.417000       1.00800           0
     47331 TIP3     2645     TIP3     H2       HT       0.417000       1.00800           0
     47332 TIP3     2646     TIP3     OH2      OT      -0.834000       15.9994           0
     47333 TIP3     2646     TIP3     H1       HT       0.417000       1.00800           0
     47334 TIP3     2646     TIP3     H2       HT       0.417000       1.00800           0
     47335 TIP3     2647     TIP3     OH2      OT      -0.834000       15.9994           0
     47336 TIP3     2647     TIP3     H1       HT       0.417000       1.00800           0
     47337 TIP3     2647     TIP3     H2       HT       0.417000       1.00800           0
     47338 TIP3     2648     TIP3     OH2      OT      -0.834000       15.9994           0
     47339 TIP3     2648     TIP3     H1       HT       0.417000       1.00800           0
     47340 TIP3     2648     TIP3     H2       HT       0.417000       1.00800           0
     47341 TIP3     2649     TIP3     OH2      OT      -0.834000       15.9994           0
     47342 TIP3     2649     TIP3     H1       HT       0.417000       1.00800           0
     47343 TIP3     2649     TIP3     H2       HT       0.417000       1.00800           0
     47344 TIP3     2650     TIP3     OH2      OT      -0.834000       15.9994           0
     47345 TIP3     2650     TIP3     H1       HT       0.417000       1.00800           0
     47346 TIP3     2650     TIP3     H2       HT       0.417000       1.00800           0
     47347 TIP3     2651     TIP3     OH2      OT      -0.834000       15.9994           0
     47348 TIP3     2651     TIP3     H1       HT       0.417000       1.00800           0
     47349 TIP3     2651     TIP3     H2       HT       0.417000       1.00800           0
     47350 TIP3     2652     TIP3     OH2      OT      -0.834000       15.9994           0
     47351 TIP3     2652     TIP3     H1       HT       0.417000       1.00800           0
     47352 TIP3     2652     TIP3     H2       HT       0.417000       1.00800           0
     47353 TIP3     2653     TIP3     OH2      OT      -0.834000       15.9994           0
     47354 TIP3     2653     TIP3     H1       HT       0.417000       1.00800           0
     47355 TIP3     2653     TIP3     H2       HT       0.417000       1.00800           0
     47356 TIP3     2654     TIP3     OH2      OT      -0.834000       15.9994           0
     47357 TIP3     2654     TIP3     H1       HT       0.417000       1.00800           0
     47358 TIP3     2654     TIP3     H2       HT       0.417000       1.00800           0
     47359 TIP3     2655     TIP3     OH2      OT      -0.834000       15.9994           0
     47360 TIP3     2655     TIP3     H1       HT       0.417000       1.00800           0
     47361 TIP3     2655     TIP3     H2       HT       0.417000       1.00800           0
     47362 TIP3     2656     TIP3     OH2      OT      -0.834000       15.9994           0
     47363 TIP3     2656     TIP3     H1       HT       0.417000       1.00800           0
     47364 TIP3     2656     TIP3     H2       HT       0.417000       1.00800           0
     47365 TIP3     2657     TIP3     OH2      OT      -0.834000       15.9994           0
     47366 TIP3     2657     TIP3     H1       HT       0.417000       1.00800           0
     47367 TIP3     2657     TIP3     H2       HT       0.417000       1.00800           0
     47368 TIP3     2658     TIP3     OH2      OT      -0.834000       15.9994           0
     47369 TIP3     2658     TIP3     H1       HT       0.417000       1.00800           0
     47370 TIP3     2658     TIP3     H2       HT       0.417000       1.00800           0
     47371 TIP3     2659     TIP3     OH2      OT      -0.834000       15.9994           0
     47372 TIP3     2659     TIP3     H1       HT       0.417000       1.00800           0
     47373 TIP3     2659     TIP3     H2       HT       0.417000       1.00800           0
     47374 TIP3     2660     TIP3     OH2      OT      -0.834000       15.9994           0
     47375 TIP3     2660     TIP3     H1       HT       0.417000       1.00800           0
     47376 TIP3     2660     TIP3     H2       HT       0.417000       1.00800           0
     47377 TIP3     2661     TIP3     OH2      OT      -0.834000       15.9994           0
     47378 TIP3     2661     TIP3     H1       HT       0.417000       1.00800           0
     47379 TIP3     2661     TIP3     H2       HT       0.417000       1.00800           0
     47380 TIP3     2662     TIP3     OH2      OT      -0.834000       15.9994           0
     47381 TIP3     2662     TIP3     H1       HT       0.417000       1.00800           0
     47382 TIP3     2662     TIP3     H2       HT       0.417000       1.00800           0
     47383 TIP3     2663     TIP3     OH2      OT      -0.834000       15.9994           0
     47384 TIP3     2663     TIP3     H1       HT       0.417000       1.00800           0
     47385 TIP3     2663     TIP3     H2       HT       0.417000       1.00800           0
     47386 TIP3     2664     TIP3     OH2      OT      -0.834000       15.9994           0
     47387 TIP3     2664     TIP3     H1       HT       0.417000       1.00800           0
     47388 TIP3     2664     TIP3     H2       HT       0.417000       1.00800           0
     47389 TIP3     2665     TIP3     OH2      OT      -0.834000       15.9994           0
     47390 TIP3     2665     TIP3     H1       HT       0.417000       1.00800           0
     47391 TIP3     2665     TIP3     H2       HT       0.417000       1.00800           0
     47392 TIP3     2666     TIP3     OH2      OT      -0.834000       15.9994           0
     47393 TIP3     2666     TIP3     H1       HT       0.417000       1.00800           0
     47394 TIP3     2666     TIP3     H2       HT       0.417000       1.00800           0
     47395 TIP3     2667     TIP3     OH2      OT      -0.834000       15.9994           0
     47396 TIP3     2667     TIP3     H1       HT       0.417000       1.00800           0
     47397 TIP3     2667     TIP3     H2       HT       0.417000       1.00800           0
     47398 TIP3     2668     TIP3     OH2      OT      -0.834000       15.9994           0
     47399 TIP3     2668     TIP3     H1       HT       0.417000       1.00800           0
     47400 TIP3     2668     TIP3     H2       HT       0.417000       1.00800           0
     47401 TIP3     2669     TIP3     OH2      OT      -0.834000       15.9994           0
     47402 TIP3     2669     TIP3     H1       HT       0.417000       1.00800           0
     47403 TIP3     2669     TIP3     H2       HT       0.417000       1.00800           0
     47404 TIP3     2670     TIP3     OH2      OT      -0.834000       15.9994           0
     47405 TIP3     2670     TIP3     H1       HT       0.417000       1.00800           0
     47406 TIP3     2670     TIP3     H2       HT       0.417000       1.00800           0
     47407 TIP3     2671     TIP3     OH2      OT      -0.834000       15.9994           0
     47408 TIP3     2671     TIP3     H1       HT       0.417000       1.00800           0
     47409 TIP3     2671     TIP3     H2       HT       0.417000       1.00800           0
     47410 TIP3     2672     TIP3     OH2      OT      -0.834000       15.9994           0
     47411 TIP3     2672     TIP3     H1       HT       0.417000       1.00800           0
     47412 TIP3     2672     TIP3     H2       HT       0.417000       1.00800           0
     47413 TIP3     2673     TIP3     OH2      OT      -0.834000       15.9994           0
     47414 TIP3     2673     TIP3     H1       HT       0.417000       1.00800           0
     47415 TIP3     2673     TIP3     H2       HT       0.417000       1.00800           0
     47416 TIP3     2674     TIP3     OH2      OT      -0.834000       15.9994           0
     47417 TIP3     2674     TIP3     H1       HT       0.417000       1.00800           0
     47418 TIP3     2674     TIP3     H2       HT       0.417000       1.00800           0
     47419 TIP3     2675     TIP3     OH2      OT      -0.834000       15.9994           0
     47420 TIP3     2675     TIP3     H1       HT       0.417000       1.00800           0
     47421 TIP3     2675     TIP3     H2       HT       0.417000       1.00800           0
     47422 TIP3     2676     TIP3     OH2      OT      -0.834000       15.9994           0
     47423 TIP3     2676     TIP3     H1       HT       0.417000       1.00800           0
     47424 TIP3     2676     TIP3     H2       HT       0.417000       1.00800           0
     47425 TIP3     2677     TIP3     OH2      OT      -0.834000       15.9994           0
     47426 TIP3     2677     TIP3     H1       HT       0.417000       1.00800           0
     47427 TIP3     2677     TIP3     H2       HT       0.417000       1.00800           0
     47428 TIP3     2678     TIP3     OH2      OT      -0.834000       15.9994           0
     47429 TIP3     2678     TIP3     H1       HT       0.417000       1.00800           0
     47430 TIP3     2678     TIP3     H2       HT       0.417000       1.00800           0
     47431 TIP3     2679     TIP3     OH2      OT      -0.834000       15.9994           0
     47432 TIP3     2679     TIP3     H1       HT       0.417000       1.00800           0
     47433 TIP3     2679     TIP3     H2       HT       0.417000       1.00800           0
     47434 TIP3     2680     TIP3     OH2      OT      -0.834000       15.9994           0
     47435 TIP3     2680     TIP3     H1       HT       0.417000       1.00800           0
     47436 TIP3     2680     TIP3     H2       HT       0.417000       1.00800           0
     47437 TIP3     2681     TIP3     OH2      OT      -0.834000       15.9994           0
     47438 TIP3     2681     TIP3     H1       HT       0.417000       1.00800           0
     47439 TIP3     2681     TIP3     H2       HT       0.417000       1.00800           0
     47440 TIP3     2682     TIP3     OH2      OT      -0.834000       15.9994           0
     47441 TIP3     2682     TIP3     H1       HT       0.417000       1.00800           0
     47442 TIP3     2682     TIP3     H2       HT       0.417000       1.00800           0
     47443 TIP3     2683     TIP3     OH2      OT      -0.834000       15.9994           0
     47444 TIP3     2683     TIP3     H1       HT       0.417000       1.00800           0
     47445 TIP3     2683     TIP3     H2       HT       0.417000       1.00800           0
     47446 TIP3     2684     TIP3     OH2      OT      -0.834000       15.9994           0
     47447 TIP3     2684     TIP3     H1       HT       0.417000       1.00800           0
     47448 TIP3     2684     TIP3     H2       HT       0.417000       1.00800           0
     47449 TIP3     2685     TIP3     OH2      OT      -0.834000       15.9994           0
     47450 TIP3     2685     TIP3     H1       HT       0.417000       1.00800           0
     47451 TIP3     2685     TIP3     H2       HT       0.417000       1.00800           0
     47452 TIP3     2686     TIP3     OH2      OT      -0.834000       15.9994           0
     47453 TIP3     2686     TIP3     H1       HT       0.417000       1.00800           0
     47454 TIP3     2686     TIP3     H2       HT       0.417000       1.00800           0
     47455 TIP3     2687     TIP3     OH2      OT      -0.834000       15.9994           0
     47456 TIP3     2687     TIP3     H1       HT       0.417000       1.00800           0
     47457 TIP3     2687     TIP3     H2       HT       0.417000       1.00800           0
     47458 TIP3     2688     TIP3     OH2      OT      -0.834000       15.9994           0
     47459 TIP3     2688     TIP3     H1       HT       0.417000       1.00800           0
     47460 TIP3     2688     TIP3     H2       HT       0.417000       1.00800           0
     47461 TIP3     2689     TIP3     OH2      OT      -0.834000       15.9994           0
     47462 TIP3     2689     TIP3     H1       HT       0.417000       1.00800           0
     47463 TIP3     2689     TIP3     H2       HT       0.417000       1.00800           0
     47464 TIP3     2690     TIP3     OH2      OT      -0.834000       15.9994           0
     47465 TIP3     2690     TIP3     H1       HT       0.417000       1.00800           0
     47466 TIP3     2690     TIP3     H2       HT       0.417000       1.00800           0
     47467 TIP3     2691     TIP3     OH2      OT      -0.834000       15.9994           0
     47468 TIP3     2691     TIP3     H1       HT       0.417000       1.00800           0
     47469 TIP3     2691     TIP3     H2       HT       0.417000       1.00800           0
     47470 TIP3     2692     TIP3     OH2      OT      -0.834000       15.9994           0
     47471 TIP3     2692     TIP3     H1       HT       0.417000       1.00800           0
     47472 TIP3     2692     TIP3     H2       HT       0.417000       1.00800           0
     47473 TIP3     2693     TIP3     OH2      OT      -0.834000       15.9994           0
     47474 TIP3     2693     TIP3     H1       HT       0.417000       1.00800           0
     47475 TIP3     2693     TIP3     H2       HT       0.417000       1.00800           0
     47476 TIP3     2694     TIP3     OH2      OT      -0.834000       15.9994           0
     47477 TIP3     2694     TIP3     H1       HT       0.417000       1.00800           0
     47478 TIP3     2694     TIP3     H2       HT       0.417000       1.00800           0
     47479 TIP3     2695     TIP3     OH2      OT      -0.834000       15.9994           0
     47480 TIP3     2695     TIP3     H1       HT       0.417000       1.00800           0
     47481 TIP3     2695     TIP3     H2       HT       0.417000       1.00800           0
     47482 TIP3     2696     TIP3     OH2      OT      -0.834000       15.9994           0
     47483 TIP3     2696     TIP3     H1       HT       0.417000       1.00800           0
     47484 TIP3     2696     TIP3     H2       HT       0.417000       1.00800           0
     47485 TIP3     2697     TIP3     OH2      OT      -0.834000       15.9994           0
     47486 TIP3     2697     TIP3     H1       HT       0.417000       1.00800           0
     47487 TIP3     2697     TIP3     H2       HT       0.417000       1.00800           0
     47488 TIP3     2698     TIP3     OH2      OT      -0.834000       15.9994           0
     47489 TIP3     2698     TIP3     H1       HT       0.417000       1.00800           0
     47490 TIP3     2698     TIP3     H2       HT       0.417000       1.00800           0
     47491 TIP3     2699     TIP3     OH2      OT      -0.834000       15.9994           0
     47492 TIP3     2699     TIP3     H1       HT       0.417000       1.00800           0
     47493 TIP3     2699     TIP3     H2       HT       0.417000       1.00800           0
     47494 TIP3     2700     TIP3     OH2      OT      -0.834000       15.9994           0
     47495 TIP3     2700     TIP3     H1       HT       0.417000       1.00800           0
     47496 TIP3     2700     TIP3     H2       HT       0.417000       1.00800           0
     47497 TIP3     2701     TIP3     OH2      OT      -0.834000       15.9994           0
     47498 TIP3     2701     TIP3     H1       HT       0.417000       1.00800           0
     47499 TIP3     2701     TIP3     H2       HT       0.417000       1.00800           0
     47500 TIP3     2702     TIP3     OH2      OT      -0.834000       15.9994           0
     47501 TIP3     2702     TIP3     H1       HT       0.417000       1.00800           0
     47502 TIP3     2702     TIP3     H2       HT       0.417000       1.00800           0
     47503 TIP3     2703     TIP3     OH2      OT      -0.834000       15.9994           0
     47504 TIP3     2703     TIP3     H1       HT       0.417000       1.00800           0
     47505 TIP3     2703     TIP3     H2       HT       0.417000       1.00800           0
     47506 TIP3     2704     TIP3     OH2      OT      -0.834000       15.9994           0
     47507 TIP3     2704     TIP3     H1       HT       0.417000       1.00800           0
     47508 TIP3     2704     TIP3     H2       HT       0.417000       1.00800           0
     47509 TIP3     2705     TIP3     OH2      OT      -0.834000       15.9994           0
     47510 TIP3     2705     TIP3     H1       HT       0.417000       1.00800           0
     47511 TIP3     2705     TIP3     H2       HT       0.417000       1.00800           0
     47512 TIP3     2706     TIP3     OH2      OT      -0.834000       15.9994           0
     47513 TIP3     2706     TIP3     H1       HT       0.417000       1.00800           0
     47514 TIP3     2706     TIP3     H2       HT       0.417000       1.00800           0
     47515 TIP3     2707     TIP3     OH2      OT      -0.834000       15.9994           0
     47516 TIP3     2707     TIP3     H1       HT       0.417000       1.00800           0
     47517 TIP3     2707     TIP3     H2       HT       0.417000       1.00800           0
     47518 TIP3     2708     TIP3     OH2      OT      -0.834000       15.9994           0
     47519 TIP3     2708     TIP3     H1       HT       0.417000       1.00800           0
     47520 TIP3     2708     TIP3     H2       HT       0.417000       1.00800           0
     47521 TIP3     2709     TIP3     OH2      OT      -0.834000       15.9994           0
     47522 TIP3     2709     TIP3     H1       HT       0.417000       1.00800           0
     47523 TIP3     2709     TIP3     H2       HT       0.417000       1.00800           0
     47524 TIP3     2710     TIP3     OH2      OT      -0.834000       15.9994           0
     47525 TIP3     2710     TIP3     H1       HT       0.417000       1.00800           0
     47526 TIP3     2710     TIP3     H2       HT       0.417000       1.00800           0
     47527 TIP3     2711     TIP3     OH2      OT      -0.834000       15.9994           0
     47528 TIP3     2711     TIP3     H1       HT       0.417000       1.00800           0
     47529 TIP3     2711     TIP3     H2       HT       0.417000       1.00800           0
     47530 TIP3     2712     TIP3     OH2      OT      -0.834000       15.9994           0
     47531 TIP3     2712     TIP3     H1       HT       0.417000       1.00800           0
     47532 TIP3     2712     TIP3     H2       HT       0.417000       1.00800           0
     47533 TIP3     2713     TIP3     OH2      OT      -0.834000       15.9994           0
     47534 TIP3     2713     TIP3     H1       HT       0.417000       1.00800           0
     47535 TIP3     2713     TIP3     H2       HT       0.417000       1.00800           0
     47536 TIP3     2714     TIP3     OH2      OT      -0.834000       15.9994           0
     47537 TIP3     2714     TIP3     H1       HT       0.417000       1.00800           0
     47538 TIP3     2714     TIP3     H2       HT       0.417000       1.00800           0
     47539 TIP3     2715     TIP3     OH2      OT      -0.834000       15.9994           0
     47540 TIP3     2715     TIP3     H1       HT       0.417000       1.00800           0
     47541 TIP3     2715     TIP3     H2       HT       0.417000       1.00800           0
     47542 TIP3     2716     TIP3     OH2      OT      -0.834000       15.9994           0
     47543 TIP3     2716     TIP3     H1       HT       0.417000       1.00800           0
     47544 TIP3     2716     TIP3     H2       HT       0.417000       1.00800           0
     47545 TIP3     2717     TIP3     OH2      OT      -0.834000       15.9994           0
     47546 TIP3     2717     TIP3     H1       HT       0.417000       1.00800           0
     47547 TIP3     2717     TIP3     H2       HT       0.417000       1.00800           0
     47548 TIP3     2718     TIP3     OH2      OT      -0.834000       15.9994           0
     47549 TIP3     2718     TIP3     H1       HT       0.417000       1.00800           0
     47550 TIP3     2718     TIP3     H2       HT       0.417000       1.00800           0
     47551 TIP3     2719     TIP3     OH2      OT      -0.834000       15.9994           0
     47552 TIP3     2719     TIP3     H1       HT       0.417000       1.00800           0
     47553 TIP3     2719     TIP3     H2       HT       0.417000       1.00800           0
     47554 TIP3     2720     TIP3     OH2      OT      -0.834000       15.9994           0
     47555 TIP3     2720     TIP3     H1       HT       0.417000       1.00800           0
     47556 TIP3     2720     TIP3     H2       HT       0.417000       1.00800           0
     47557 TIP3     2721     TIP3     OH2      OT      -0.834000       15.9994           0
     47558 TIP3     2721     TIP3     H1       HT       0.417000       1.00800           0
     47559 TIP3     2721     TIP3     H2       HT       0.417000       1.00800           0
     47560 TIP3     2722     TIP3     OH2      OT      -0.834000       15.9994           0
     47561 TIP3     2722     TIP3     H1       HT       0.417000       1.00800           0
     47562 TIP3     2722     TIP3     H2       HT       0.417000       1.00800           0
     47563 TIP3     2723     TIP3     OH2      OT      -0.834000       15.9994           0
     47564 TIP3     2723     TIP3     H1       HT       0.417000       1.00800           0
     47565 TIP3     2723     TIP3     H2       HT       0.417000       1.00800           0
     47566 TIP3     2724     TIP3     OH2      OT      -0.834000       15.9994           0
     47567 TIP3     2724     TIP3     H1       HT       0.417000       1.00800           0
     47568 TIP3     2724     TIP3     H2       HT       0.417000       1.00800           0
     47569 TIP3     2725     TIP3     OH2      OT      -0.834000       15.9994           0
     47570 TIP3     2725     TIP3     H1       HT       0.417000       1.00800           0
     47571 TIP3     2725     TIP3     H2       HT       0.417000       1.00800           0
     47572 TIP3     2726     TIP3     OH2      OT      -0.834000       15.9994           0
     47573 TIP3     2726     TIP3     H1       HT       0.417000       1.00800           0
     47574 TIP3     2726     TIP3     H2       HT       0.417000       1.00800           0
     47575 TIP3     2727     TIP3     OH2      OT      -0.834000       15.9994           0
     47576 TIP3     2727     TIP3     H1       HT       0.417000       1.00800           0
     47577 TIP3     2727     TIP3     H2       HT       0.417000       1.00800           0
     47578 TIP3     2728     TIP3     OH2      OT      -0.834000       15.9994           0
     47579 TIP3     2728     TIP3     H1       HT       0.417000       1.00800           0
     47580 TIP3     2728     TIP3     H2       HT       0.417000       1.00800           0
     47581 TIP3     2729     TIP3     OH2      OT      -0.834000       15.9994           0
     47582 TIP3     2729     TIP3     H1       HT       0.417000       1.00800           0
     47583 TIP3     2729     TIP3     H2       HT       0.417000       1.00800           0
     47584 TIP3     2730     TIP3     OH2      OT      -0.834000       15.9994           0
     47585 TIP3     2730     TIP3     H1       HT       0.417000       1.00800           0
     47586 TIP3     2730     TIP3     H2       HT       0.417000       1.00800           0
     47587 TIP3     2731     TIP3     OH2      OT      -0.834000       15.9994           0
     47588 TIP3     2731     TIP3     H1       HT       0.417000       1.00800           0
     47589 TIP3     2731     TIP3     H2       HT       0.417000       1.00800           0
     47590 TIP3     2732     TIP3     OH2      OT      -0.834000       15.9994           0
     47591 TIP3     2732     TIP3     H1       HT       0.417000       1.00800           0
     47592 TIP3     2732     TIP3     H2       HT       0.417000       1.00800           0
     47593 TIP3     2733     TIP3     OH2      OT      -0.834000       15.9994           0
     47594 TIP3     2733     TIP3     H1       HT       0.417000       1.00800           0
     47595 TIP3     2733     TIP3     H2       HT       0.417000       1.00800           0
     47596 TIP3     2734     TIP3     OH2      OT      -0.834000       15.9994           0
     47597 TIP3     2734     TIP3     H1       HT       0.417000       1.00800           0
     47598 TIP3     2734     TIP3     H2       HT       0.417000       1.00800           0
     47599 TIP3     2735     TIP3     OH2      OT      -0.834000       15.9994           0
     47600 TIP3     2735     TIP3     H1       HT       0.417000       1.00800           0
     47601 TIP3     2735     TIP3     H2       HT       0.417000       1.00800           0
     47602 TIP3     2736     TIP3     OH2      OT      -0.834000       15.9994           0
     47603 TIP3     2736     TIP3     H1       HT       0.417000       1.00800           0
     47604 TIP3     2736     TIP3     H2       HT       0.417000       1.00800           0
     47605 TIP3     2737     TIP3     OH2      OT      -0.834000       15.9994           0
     47606 TIP3     2737     TIP3     H1       HT       0.417000       1.00800           0
     47607 TIP3     2737     TIP3     H2       HT       0.417000       1.00800           0
     47608 TIP3     2738     TIP3     OH2      OT      -0.834000       15.9994           0
     47609 TIP3     2738     TIP3     H1       HT       0.417000       1.00800           0
     47610 TIP3     2738     TIP3     H2       HT       0.417000       1.00800           0
     47611 TIP3     2739     TIP3     OH2      OT      -0.834000       15.9994           0
     47612 TIP3     2739     TIP3     H1       HT       0.417000       1.00800           0
     47613 TIP3     2739     TIP3     H2       HT       0.417000       1.00800           0
     47614 TIP3     2740     TIP3     OH2      OT      -0.834000       15.9994           0
     47615 TIP3     2740     TIP3     H1       HT       0.417000       1.00800           0
     47616 TIP3     2740     TIP3     H2       HT       0.417000       1.00800           0
     47617 TIP3     2741     TIP3     OH2      OT      -0.834000       15.9994           0
     47618 TIP3     2741     TIP3     H1       HT       0.417000       1.00800           0
     47619 TIP3     2741     TIP3     H2       HT       0.417000       1.00800           0
     47620 TIP3     2742     TIP3     OH2      OT      -0.834000       15.9994           0
     47621 TIP3     2742     TIP3     H1       HT       0.417000       1.00800           0
     47622 TIP3     2742     TIP3     H2       HT       0.417000       1.00800           0
     47623 TIP3     2743     TIP3     OH2      OT      -0.834000       15.9994           0
     47624 TIP3     2743     TIP3     H1       HT       0.417000       1.00800           0
     47625 TIP3     2743     TIP3     H2       HT       0.417000       1.00800           0
     47626 TIP3     2744     TIP3     OH2      OT      -0.834000       15.9994           0
     47627 TIP3     2744     TIP3     H1       HT       0.417000       1.00800           0
     47628 TIP3     2744     TIP3     H2       HT       0.417000       1.00800           0
     47629 TIP3     2745     TIP3     OH2      OT      -0.834000       15.9994           0
     47630 TIP3     2745     TIP3     H1       HT       0.417000       1.00800           0
     47631 TIP3     2745     TIP3     H2       HT       0.417000       1.00800           0
     47632 TIP3     2746     TIP3     OH2      OT      -0.834000       15.9994           0
     47633 TIP3     2746     TIP3     H1       HT       0.417000       1.00800           0
     47634 TIP3     2746     TIP3     H2       HT       0.417000       1.00800           0
     47635 TIP3     2747     TIP3     OH2      OT      -0.834000       15.9994           0
     47636 TIP3     2747     TIP3     H1       HT       0.417000       1.00800           0
     47637 TIP3     2747     TIP3     H2       HT       0.417000       1.00800           0
     47638 TIP3     2748     TIP3     OH2      OT      -0.834000       15.9994           0
     47639 TIP3     2748     TIP3     H1       HT       0.417000       1.00800           0
     47640 TIP3     2748     TIP3     H2       HT       0.417000       1.00800           0
     47641 TIP3     2749     TIP3     OH2      OT      -0.834000       15.9994           0
     47642 TIP3     2749     TIP3     H1       HT       0.417000       1.00800           0
     47643 TIP3     2749     TIP3     H2       HT       0.417000       1.00800           0
     47644 TIP3     2750     TIP3     OH2      OT      -0.834000       15.9994           0
     47645 TIP3     2750     TIP3     H1       HT       0.417000       1.00800           0
     47646 TIP3     2750     TIP3     H2       HT       0.417000       1.00800           0
     47647 TIP3     2751     TIP3     OH2      OT      -0.834000       15.9994           0
     47648 TIP3     2751     TIP3     H1       HT       0.417000       1.00800           0
     47649 TIP3     2751     TIP3     H2       HT       0.417000       1.00800           0
     47650 TIP3     2752     TIP3     OH2      OT      -0.834000       15.9994           0
     47651 TIP3     2752     TIP3     H1       HT       0.417000       1.00800           0
     47652 TIP3     2752     TIP3     H2       HT       0.417000       1.00800           0
     47653 TIP3     2753     TIP3     OH2      OT      -0.834000       15.9994           0
     47654 TIP3     2753     TIP3     H1       HT       0.417000       1.00800           0
     47655 TIP3     2753     TIP3     H2       HT       0.417000       1.00800           0
     47656 TIP3     2754     TIP3     OH2      OT      -0.834000       15.9994           0
     47657 TIP3     2754     TIP3     H1       HT       0.417000       1.00800           0
     47658 TIP3     2754     TIP3     H2       HT       0.417000       1.00800           0
     47659 TIP3     2755     TIP3     OH2      OT      -0.834000       15.9994           0
     47660 TIP3     2755     TIP3     H1       HT       0.417000       1.00800           0
     47661 TIP3     2755     TIP3     H2       HT       0.417000       1.00800           0
     47662 TIP3     2756     TIP3     OH2      OT      -0.834000       15.9994           0
     47663 TIP3     2756     TIP3     H1       HT       0.417000       1.00800           0
     47664 TIP3     2756     TIP3     H2       HT       0.417000       1.00800           0
     47665 TIP3     2757     TIP3     OH2      OT      -0.834000       15.9994           0
     47666 TIP3     2757     TIP3     H1       HT       0.417000       1.00800           0
     47667 TIP3     2757     TIP3     H2       HT       0.417000       1.00800           0
     47668 TIP3     2758     TIP3     OH2      OT      -0.834000       15.9994           0
     47669 TIP3     2758     TIP3     H1       HT       0.417000       1.00800           0
     47670 TIP3     2758     TIP3     H2       HT       0.417000       1.00800           0
     47671 TIP3     2759     TIP3     OH2      OT      -0.834000       15.9994           0
     47672 TIP3     2759     TIP3     H1       HT       0.417000       1.00800           0
     47673 TIP3     2759     TIP3     H2       HT       0.417000       1.00800           0
     47674 TIP3     2760     TIP3     OH2      OT      -0.834000       15.9994           0
     47675 TIP3     2760     TIP3     H1       HT       0.417000       1.00800           0
     47676 TIP3     2760     TIP3     H2       HT       0.417000       1.00800           0
     47677 TIP3     2761     TIP3     OH2      OT      -0.834000       15.9994           0
     47678 TIP3     2761     TIP3     H1       HT       0.417000       1.00800           0
     47679 TIP3     2761     TIP3     H2       HT       0.417000       1.00800           0
     47680 TIP3     2762     TIP3     OH2      OT      -0.834000       15.9994           0
     47681 TIP3     2762     TIP3     H1       HT       0.417000       1.00800           0
     47682 TIP3     2762     TIP3     H2       HT       0.417000       1.00800           0
     47683 TIP3     2763     TIP3     OH2      OT      -0.834000       15.9994           0
     47684 TIP3     2763     TIP3     H1       HT       0.417000       1.00800           0
     47685 TIP3     2763     TIP3     H2       HT       0.417000       1.00800           0
     47686 TIP3     2764     TIP3     OH2      OT      -0.834000       15.9994           0
     47687 TIP3     2764     TIP3     H1       HT       0.417000       1.00800           0
     47688 TIP3     2764     TIP3     H2       HT       0.417000       1.00800           0
     47689 TIP3     2765     TIP3     OH2      OT      -0.834000       15.9994           0
     47690 TIP3     2765     TIP3     H1       HT       0.417000       1.00800           0
     47691 TIP3     2765     TIP3     H2       HT       0.417000       1.00800           0
     47692 TIP3     2766     TIP3     OH2      OT      -0.834000       15.9994           0
     47693 TIP3     2766     TIP3     H1       HT       0.417000       1.00800           0
     47694 TIP3     2766     TIP3     H2       HT       0.417000       1.00800           0
     47695 TIP3     2767     TIP3     OH2      OT      -0.834000       15.9994           0
     47696 TIP3     2767     TIP3     H1       HT       0.417000       1.00800           0
     47697 TIP3     2767     TIP3     H2       HT       0.417000       1.00800           0
     47698 TIP3     2768     TIP3     OH2      OT      -0.834000       15.9994           0
     47699 TIP3     2768     TIP3     H1       HT       0.417000       1.00800           0
     47700 TIP3     2768     TIP3     H2       HT       0.417000       1.00800           0
     47701 TIP3     2769     TIP3     OH2      OT      -0.834000       15.9994           0
     47702 TIP3     2769     TIP3     H1       HT       0.417000       1.00800           0
     47703 TIP3     2769     TIP3     H2       HT       0.417000       1.00800           0
     47704 TIP3     2770     TIP3     OH2      OT      -0.834000       15.9994           0
     47705 TIP3     2770     TIP3     H1       HT       0.417000       1.00800           0
     47706 TIP3     2770     TIP3     H2       HT       0.417000       1.00800           0
     47707 TIP3     2771     TIP3     OH2      OT      -0.834000       15.9994           0
     47708 TIP3     2771     TIP3     H1       HT       0.417000       1.00800           0
     47709 TIP3     2771     TIP3     H2       HT       0.417000       1.00800           0
     47710 TIP3     2772     TIP3     OH2      OT      -0.834000       15.9994           0
     47711 TIP3     2772     TIP3     H1       HT       0.417000       1.00800           0
     47712 TIP3     2772     TIP3     H2       HT       0.417000       1.00800           0
     47713 TIP3     2773     TIP3     OH2      OT      -0.834000       15.9994           0
     47714 TIP3     2773     TIP3     H1       HT       0.417000       1.00800           0
     47715 TIP3     2773     TIP3     H2       HT       0.417000       1.00800           0
     47716 TIP3     2774     TIP3     OH2      OT      -0.834000       15.9994           0
     47717 TIP3     2774     TIP3     H1       HT       0.417000       1.00800           0
     47718 TIP3     2774     TIP3     H2       HT       0.417000       1.00800           0
     47719 TIP3     2775     TIP3     OH2      OT      -0.834000       15.9994           0
     47720 TIP3     2775     TIP3     H1       HT       0.417000       1.00800           0
     47721 TIP3     2775     TIP3     H2       HT       0.417000       1.00800           0
     47722 TIP3     2776     TIP3     OH2      OT      -0.834000       15.9994           0
     47723 TIP3     2776     TIP3     H1       HT       0.417000       1.00800           0
     47724 TIP3     2776     TIP3     H2       HT       0.417000       1.00800           0
     47725 TIP3     2777     TIP3     OH2      OT      -0.834000       15.9994           0
     47726 TIP3     2777     TIP3     H1       HT       0.417000       1.00800           0
     47727 TIP3     2777     TIP3     H2       HT       0.417000       1.00800           0
     47728 TIP3     2778     TIP3     OH2      OT      -0.834000       15.9994           0
     47729 TIP3     2778     TIP3     H1       HT       0.417000       1.00800           0
     47730 TIP3     2778     TIP3     H2       HT       0.417000       1.00800           0
     47731 TIP3     2779     TIP3     OH2      OT      -0.834000       15.9994           0
     47732 TIP3     2779     TIP3     H1       HT       0.417000       1.00800           0
     47733 TIP3     2779     TIP3     H2       HT       0.417000       1.00800           0
     47734 TIP3     2780     TIP3     OH2      OT      -0.834000       15.9994           0
     47735 TIP3     2780     TIP3     H1       HT       0.417000       1.00800           0
     47736 TIP3     2780     TIP3     H2       HT       0.417000       1.00800           0
     47737 TIP3     2781     TIP3     OH2      OT      -0.834000       15.9994           0
     47738 TIP3     2781     TIP3     H1       HT       0.417000       1.00800           0
     47739 TIP3     2781     TIP3     H2       HT       0.417000       1.00800           0
     47740 TIP3     2782     TIP3     OH2      OT      -0.834000       15.9994           0
     47741 TIP3     2782     TIP3     H1       HT       0.417000       1.00800           0
     47742 TIP3     2782     TIP3     H2       HT       0.417000       1.00800           0
     47743 TIP3     2783     TIP3     OH2      OT      -0.834000       15.9994           0
     47744 TIP3     2783     TIP3     H1       HT       0.417000       1.00800           0
     47745 TIP3     2783     TIP3     H2       HT       0.417000       1.00800           0
     47746 TIP3     2784     TIP3     OH2      OT      -0.834000       15.9994           0
     47747 TIP3     2784     TIP3     H1       HT       0.417000       1.00800           0
     47748 TIP3     2784     TIP3     H2       HT       0.417000       1.00800           0
     47749 TIP3     2785     TIP3     OH2      OT      -0.834000       15.9994           0
     47750 TIP3     2785     TIP3     H1       HT       0.417000       1.00800           0
     47751 TIP3     2785     TIP3     H2       HT       0.417000       1.00800           0
     47752 TIP3     2786     TIP3     OH2      OT      -0.834000       15.9994           0
     47753 TIP3     2786     TIP3     H1       HT       0.417000       1.00800           0
     47754 TIP3     2786     TIP3     H2       HT       0.417000       1.00800           0
     47755 TIP3     2787     TIP3     OH2      OT      -0.834000       15.9994           0
     47756 TIP3     2787     TIP3     H1       HT       0.417000       1.00800           0
     47757 TIP3     2787     TIP3     H2       HT       0.417000       1.00800           0
     47758 TIP3     2788     TIP3     OH2      OT      -0.834000       15.9994           0
     47759 TIP3     2788     TIP3     H1       HT       0.417000       1.00800           0
     47760 TIP3     2788     TIP3     H2       HT       0.417000       1.00800           0
     47761 TIP3     2789     TIP3     OH2      OT      -0.834000       15.9994           0
     47762 TIP3     2789     TIP3     H1       HT       0.417000       1.00800           0
     47763 TIP3     2789     TIP3     H2       HT       0.417000       1.00800           0
     47764 TIP3     2790     TIP3     OH2      OT      -0.834000       15.9994           0
     47765 TIP3     2790     TIP3     H1       HT       0.417000       1.00800           0
     47766 TIP3     2790     TIP3     H2       HT       0.417000       1.00800           0
     47767 TIP3     2791     TIP3     OH2      OT      -0.834000       15.9994           0
     47768 TIP3     2791     TIP3     H1       HT       0.417000       1.00800           0
     47769 TIP3     2791     TIP3     H2       HT       0.417000       1.00800           0
     47770 TIP3     2792     TIP3     OH2      OT      -0.834000       15.9994           0
     47771 TIP3     2792     TIP3     H1       HT       0.417000       1.00800           0
     47772 TIP3     2792     TIP3     H2       HT       0.417000       1.00800           0
     47773 TIP3     2793     TIP3     OH2      OT      -0.834000       15.9994           0
     47774 TIP3     2793     TIP3     H1       HT       0.417000       1.00800           0
     47775 TIP3     2793     TIP3     H2       HT       0.417000       1.00800           0
     47776 TIP3     2794     TIP3     OH2      OT      -0.834000       15.9994           0
     47777 TIP3     2794     TIP3     H1       HT       0.417000       1.00800           0
     47778 TIP3     2794     TIP3     H2       HT       0.417000       1.00800           0
     47779 TIP3     2795     TIP3     OH2      OT      -0.834000       15.9994           0
     47780 TIP3     2795     TIP3     H1       HT       0.417000       1.00800           0
     47781 TIP3     2795     TIP3     H2       HT       0.417000       1.00800           0
     47782 TIP3     2796     TIP3     OH2      OT      -0.834000       15.9994           0
     47783 TIP3     2796     TIP3     H1       HT       0.417000       1.00800           0
     47784 TIP3     2796     TIP3     H2       HT       0.417000       1.00800           0
     47785 TIP3     2797     TIP3     OH2      OT      -0.834000       15.9994           0
     47786 TIP3     2797     TIP3     H1       HT       0.417000       1.00800           0
     47787 TIP3     2797     TIP3     H2       HT       0.417000       1.00800           0
     47788 TIP3     2798     TIP3     OH2      OT      -0.834000       15.9994           0
     47789 TIP3     2798     TIP3     H1       HT       0.417000       1.00800           0
     47790 TIP3     2798     TIP3     H2       HT       0.417000       1.00800           0
     47791 TIP3     2799     TIP3     OH2      OT      -0.834000       15.9994           0
     47792 TIP3     2799     TIP3     H1       HT       0.417000       1.00800           0
     47793 TIP3     2799     TIP3     H2       HT       0.417000       1.00800           0
     47794 TIP3     2800     TIP3     OH2      OT      -0.834000       15.9994           0
     47795 TIP3     2800     TIP3     H1       HT       0.417000       1.00800           0
     47796 TIP3     2800     TIP3     H2       HT       0.417000       1.00800           0
     47797 TIP3     2801     TIP3     OH2      OT      -0.834000       15.9994           0
     47798 TIP3     2801     TIP3     H1       HT       0.417000       1.00800           0
     47799 TIP3     2801     TIP3     H2       HT       0.417000       1.00800           0
     47800 TIP3     2802     TIP3     OH2      OT      -0.834000       15.9994           0
     47801 TIP3     2802     TIP3     H1       HT       0.417000       1.00800           0
     47802 TIP3     2802     TIP3     H2       HT       0.417000       1.00800           0
     47803 TIP3     2803     TIP3     OH2      OT      -0.834000       15.9994           0
     47804 TIP3     2803     TIP3     H1       HT       0.417000       1.00800           0
     47805 TIP3     2803     TIP3     H2       HT       0.417000       1.00800           0
     47806 TIP3     2804     TIP3     OH2      OT      -0.834000       15.9994           0
     47807 TIP3     2804     TIP3     H1       HT       0.417000       1.00800           0
     47808 TIP3     2804     TIP3     H2       HT       0.417000       1.00800           0
     47809 TIP3     2805     TIP3     OH2      OT      -0.834000       15.9994           0
     47810 TIP3     2805     TIP3     H1       HT       0.417000       1.00800           0
     47811 TIP3     2805     TIP3     H2       HT       0.417000       1.00800           0
     47812 TIP3     2806     TIP3     OH2      OT      -0.834000       15.9994           0
     47813 TIP3     2806     TIP3     H1       HT       0.417000       1.00800           0
     47814 TIP3     2806     TIP3     H2       HT       0.417000       1.00800           0
     47815 TIP3     2807     TIP3     OH2      OT      -0.834000       15.9994           0
     47816 TIP3     2807     TIP3     H1       HT       0.417000       1.00800           0
     47817 TIP3     2807     TIP3     H2       HT       0.417000       1.00800           0
     47818 TIP3     2808     TIP3     OH2      OT      -0.834000       15.9994           0
     47819 TIP3     2808     TIP3     H1       HT       0.417000       1.00800           0
     47820 TIP3     2808     TIP3     H2       HT       0.417000       1.00800           0
     47821 TIP3     2809     TIP3     OH2      OT      -0.834000       15.9994           0
     47822 TIP3     2809     TIP3     H1       HT       0.417000       1.00800           0
     47823 TIP3     2809     TIP3     H2       HT       0.417000       1.00800           0
     47824 TIP3     2810     TIP3     OH2      OT      -0.834000       15.9994           0
     47825 TIP3     2810     TIP3     H1       HT       0.417000       1.00800           0
     47826 TIP3     2810     TIP3     H2       HT       0.417000       1.00800           0
     47827 TIP3     2811     TIP3     OH2      OT      -0.834000       15.9994           0
     47828 TIP3     2811     TIP3     H1       HT       0.417000       1.00800           0
     47829 TIP3     2811     TIP3     H2       HT       0.417000       1.00800           0
     47830 TIP3     2812     TIP3     OH2      OT      -0.834000       15.9994           0
     47831 TIP3     2812     TIP3     H1       HT       0.417000       1.00800           0
     47832 TIP3     2812     TIP3     H2       HT       0.417000       1.00800           0
     47833 TIP3     2813     TIP3     OH2      OT      -0.834000       15.9994           0
     47834 TIP3     2813     TIP3     H1       HT       0.417000       1.00800           0
     47835 TIP3     2813     TIP3     H2       HT       0.417000       1.00800           0
     47836 TIP3     2814     TIP3     OH2      OT      -0.834000       15.9994           0
     47837 TIP3     2814     TIP3     H1       HT       0.417000       1.00800           0
     47838 TIP3     2814     TIP3     H2       HT       0.417000       1.00800           0
     47839 TIP3     2815     TIP3     OH2      OT      -0.834000       15.9994           0
     47840 TIP3     2815     TIP3     H1       HT       0.417000       1.00800           0
     47841 TIP3     2815     TIP3     H2       HT       0.417000       1.00800           0
     47842 TIP3     2816     TIP3     OH2      OT      -0.834000       15.9994           0
     47843 TIP3     2816     TIP3     H1       HT       0.417000       1.00800           0
     47844 TIP3     2816     TIP3     H2       HT       0.417000       1.00800           0
     47845 TIP3     2817     TIP3     OH2      OT      -0.834000       15.9994           0
     47846 TIP3     2817     TIP3     H1       HT       0.417000       1.00800           0
     47847 TIP3     2817     TIP3     H2       HT       0.417000       1.00800           0
     47848 TIP3     2818     TIP3     OH2      OT      -0.834000       15.9994           0
     47849 TIP3     2818     TIP3     H1       HT       0.417000       1.00800           0
     47850 TIP3     2818     TIP3     H2       HT       0.417000       1.00800           0
     47851 TIP3     2819     TIP3     OH2      OT      -0.834000       15.9994           0
     47852 TIP3     2819     TIP3     H1       HT       0.417000       1.00800           0
     47853 TIP3     2819     TIP3     H2       HT       0.417000       1.00800           0
     47854 TIP3     2820     TIP3     OH2      OT      -0.834000       15.9994           0
     47855 TIP3     2820     TIP3     H1       HT       0.417000       1.00800           0
     47856 TIP3     2820     TIP3     H2       HT       0.417000       1.00800           0
     47857 TIP3     2821     TIP3     OH2      OT      -0.834000       15.9994           0
     47858 TIP3     2821     TIP3     H1       HT       0.417000       1.00800           0
     47859 TIP3     2821     TIP3     H2       HT       0.417000       1.00800           0
     47860 TIP3     2822     TIP3     OH2      OT      -0.834000       15.9994           0
     47861 TIP3     2822     TIP3     H1       HT       0.417000       1.00800           0
     47862 TIP3     2822     TIP3     H2       HT       0.417000       1.00800           0
     47863 TIP3     2823     TIP3     OH2      OT      -0.834000       15.9994           0
     47864 TIP3     2823     TIP3     H1       HT       0.417000       1.00800           0
     47865 TIP3     2823     TIP3     H2       HT       0.417000       1.00800           0
     47866 TIP3     2824     TIP3     OH2      OT      -0.834000       15.9994           0
     47867 TIP3     2824     TIP3     H1       HT       0.417000       1.00800           0
     47868 TIP3     2824     TIP3     H2       HT       0.417000       1.00800           0
     47869 TIP3     2825     TIP3     OH2      OT      -0.834000       15.9994           0
     47870 TIP3     2825     TIP3     H1       HT       0.417000       1.00800           0
     47871 TIP3     2825     TIP3     H2       HT       0.417000       1.00800           0
     47872 TIP3     2826     TIP3     OH2      OT      -0.834000       15.9994           0
     47873 TIP3     2826     TIP3     H1       HT       0.417000       1.00800           0
     47874 TIP3     2826     TIP3     H2       HT       0.417000       1.00800           0
     47875 TIP3     2827     TIP3     OH2      OT      -0.834000       15.9994           0
     47876 TIP3     2827     TIP3     H1       HT       0.417000       1.00800           0
     47877 TIP3     2827     TIP3     H2       HT       0.417000       1.00800           0
     47878 TIP3     2828     TIP3     OH2      OT      -0.834000       15.9994           0
     47879 TIP3     2828     TIP3     H1       HT       0.417000       1.00800           0
     47880 TIP3     2828     TIP3     H2       HT       0.417000       1.00800           0
     47881 TIP3     2829     TIP3     OH2      OT      -0.834000       15.9994           0
     47882 TIP3     2829     TIP3     H1       HT       0.417000       1.00800           0
     47883 TIP3     2829     TIP3     H2       HT       0.417000       1.00800           0
     47884 TIP3     2830     TIP3     OH2      OT      -0.834000       15.9994           0
     47885 TIP3     2830     TIP3     H1       HT       0.417000       1.00800           0
     47886 TIP3     2830     TIP3     H2       HT       0.417000       1.00800           0
     47887 TIP3     2831     TIP3     OH2      OT      -0.834000       15.9994           0
     47888 TIP3     2831     TIP3     H1       HT       0.417000       1.00800           0
     47889 TIP3     2831     TIP3     H2       HT       0.417000       1.00800           0
     47890 TIP3     2832     TIP3     OH2      OT      -0.834000       15.9994           0
     47891 TIP3     2832     TIP3     H1       HT       0.417000       1.00800           0
     47892 TIP3     2832     TIP3     H2       HT       0.417000       1.00800           0
     47893 TIP3     2833     TIP3     OH2      OT      -0.834000       15.9994           0
     47894 TIP3     2833     TIP3     H1       HT       0.417000       1.00800           0
     47895 TIP3     2833     TIP3     H2       HT       0.417000       1.00800           0
     47896 TIP3     2834     TIP3     OH2      OT      -0.834000       15.9994           0
     47897 TIP3     2834     TIP3     H1       HT       0.417000       1.00800           0
     47898 TIP3     2834     TIP3     H2       HT       0.417000       1.00800           0
     47899 TIP3     2835     TIP3     OH2      OT      -0.834000       15.9994           0
     47900 TIP3     2835     TIP3     H1       HT       0.417000       1.00800           0
     47901 TIP3     2835     TIP3     H2       HT       0.417000       1.00800           0
     47902 TIP3     2836     TIP3     OH2      OT      -0.834000       15.9994           0
     47903 TIP3     2836     TIP3     H1       HT       0.417000       1.00800           0
     47904 TIP3     2836     TIP3     H2       HT       0.417000       1.00800           0
     47905 TIP3     2837     TIP3     OH2      OT      -0.834000       15.9994           0
     47906 TIP3     2837     TIP3     H1       HT       0.417000       1.00800           0
     47907 TIP3     2837     TIP3     H2       HT       0.417000       1.00800           0
     47908 TIP3     2838     TIP3     OH2      OT      -0.834000       15.9994           0
     47909 TIP3     2838     TIP3     H1       HT       0.417000       1.00800           0
     47910 TIP3     2838     TIP3     H2       HT       0.417000       1.00800           0
     47911 TIP3     2839     TIP3     OH2      OT      -0.834000       15.9994           0
     47912 TIP3     2839     TIP3     H1       HT       0.417000       1.00800           0
     47913 TIP3     2839     TIP3     H2       HT       0.417000       1.00800           0
     47914 TIP3     2840     TIP3     OH2      OT      -0.834000       15.9994           0
     47915 TIP3     2840     TIP3     H1       HT       0.417000       1.00800           0
     47916 TIP3     2840     TIP3     H2       HT       0.417000       1.00800           0
     47917 TIP3     2841     TIP3     OH2      OT      -0.834000       15.9994           0
     47918 TIP3     2841     TIP3     H1       HT       0.417000       1.00800           0
     47919 TIP3     2841     TIP3     H2       HT       0.417000       1.00800           0
     47920 TIP3     2842     TIP3     OH2      OT      -0.834000       15.9994           0
     47921 TIP3     2842     TIP3     H1       HT       0.417000       1.00800           0
     47922 TIP3     2842     TIP3     H2       HT       0.417000       1.00800           0
     47923 TIP3     2843     TIP3     OH2      OT      -0.834000       15.9994           0
     47924 TIP3     2843     TIP3     H1       HT       0.417000       1.00800           0
     47925 TIP3     2843     TIP3     H2       HT       0.417000       1.00800           0
     47926 TIP3     2844     TIP3     OH2      OT      -0.834000       15.9994           0
     47927 TIP3     2844     TIP3     H1       HT       0.417000       1.00800           0
     47928 TIP3     2844     TIP3     H2       HT       0.417000       1.00800           0
     47929 TIP3     2845     TIP3     OH2      OT      -0.834000       15.9994           0
     47930 TIP3     2845     TIP3     H1       HT       0.417000       1.00800           0
     47931 TIP3     2845     TIP3     H2       HT       0.417000       1.00800           0
     47932 TIP3     2846     TIP3     OH2      OT      -0.834000       15.9994           0
     47933 TIP3     2846     TIP3     H1       HT       0.417000       1.00800           0
     47934 TIP3     2846     TIP3     H2       HT       0.417000       1.00800           0
     47935 TIP3     2847     TIP3     OH2      OT      -0.834000       15.9994           0
     47936 TIP3     2847     TIP3     H1       HT       0.417000       1.00800           0
     47937 TIP3     2847     TIP3     H2       HT       0.417000       1.00800           0
     47938 TIP3     2848     TIP3     OH2      OT      -0.834000       15.9994           0
     47939 TIP3     2848     TIP3     H1       HT       0.417000       1.00800           0
     47940 TIP3     2848     TIP3     H2       HT       0.417000       1.00800           0
     47941 TIP3     2849     TIP3     OH2      OT      -0.834000       15.9994           0
     47942 TIP3     2849     TIP3     H1       HT       0.417000       1.00800           0
     47943 TIP3     2849     TIP3     H2       HT       0.417000       1.00800           0
     47944 TIP3     2850     TIP3     OH2      OT      -0.834000       15.9994           0
     47945 TIP3     2850     TIP3     H1       HT       0.417000       1.00800           0
     47946 TIP3     2850     TIP3     H2       HT       0.417000       1.00800           0
     47947 TIP3     2851     TIP3     OH2      OT      -0.834000       15.9994           0
     47948 TIP3     2851     TIP3     H1       HT       0.417000       1.00800           0
     47949 TIP3     2851     TIP3     H2       HT       0.417000       1.00800           0
     47950 TIP3     2852     TIP3     OH2      OT      -0.834000       15.9994           0
     47951 TIP3     2852     TIP3     H1       HT       0.417000       1.00800           0
     47952 TIP3     2852     TIP3     H2       HT       0.417000       1.00800           0
     47953 TIP3     2853     TIP3     OH2      OT      -0.834000       15.9994           0
     47954 TIP3     2853     TIP3     H1       HT       0.417000       1.00800           0
     47955 TIP3     2853     TIP3     H2       HT       0.417000       1.00800           0
     47956 TIP3     2854     TIP3     OH2      OT      -0.834000       15.9994           0
     47957 TIP3     2854     TIP3     H1       HT       0.417000       1.00800           0
     47958 TIP3     2854     TIP3     H2       HT       0.417000       1.00800           0
     47959 TIP3     2855     TIP3     OH2      OT      -0.834000       15.9994           0
     47960 TIP3     2855     TIP3     H1       HT       0.417000       1.00800           0
     47961 TIP3     2855     TIP3     H2       HT       0.417000       1.00800           0
     47962 TIP3     2856     TIP3     OH2      OT      -0.834000       15.9994           0
     47963 TIP3     2856     TIP3     H1       HT       0.417000       1.00800           0
     47964 TIP3     2856     TIP3     H2       HT       0.417000       1.00800           0
     47965 TIP3     2857     TIP3     OH2      OT      -0.834000       15.9994           0
     47966 TIP3     2857     TIP3     H1       HT       0.417000       1.00800           0
     47967 TIP3     2857     TIP3     H2       HT       0.417000       1.00800           0
     47968 TIP3     2858     TIP3     OH2      OT      -0.834000       15.9994           0
     47969 TIP3     2858     TIP3     H1       HT       0.417000       1.00800           0
     47970 TIP3     2858     TIP3     H2       HT       0.417000       1.00800           0
     47971 TIP3     2859     TIP3     OH2      OT      -0.834000       15.9994           0
     47972 TIP3     2859     TIP3     H1       HT       0.417000       1.00800           0
     47973 TIP3     2859     TIP3     H2       HT       0.417000       1.00800           0
     47974 TIP3     2860     TIP3     OH2      OT      -0.834000       15.9994           0
     47975 TIP3     2860     TIP3     H1       HT       0.417000       1.00800           0
     47976 TIP3     2860     TIP3     H2       HT       0.417000       1.00800           0
     47977 TIP3     2861     TIP3     OH2      OT      -0.834000       15.9994           0
     47978 TIP3     2861     TIP3     H1       HT       0.417000       1.00800           0
     47979 TIP3     2861     TIP3     H2       HT       0.417000       1.00800           0
     47980 TIP3     2862     TIP3     OH2      OT      -0.834000       15.9994           0
     47981 TIP3     2862     TIP3     H1       HT       0.417000       1.00800           0
     47982 TIP3     2862     TIP3     H2       HT       0.417000       1.00800           0
     47983 TIP3     2863     TIP3     OH2      OT      -0.834000       15.9994           0
     47984 TIP3     2863     TIP3     H1       HT       0.417000       1.00800           0
     47985 TIP3     2863     TIP3     H2       HT       0.417000       1.00800           0
     47986 TIP3     2864     TIP3     OH2      OT      -0.834000       15.9994           0
     47987 TIP3     2864     TIP3     H1       HT       0.417000       1.00800           0
     47988 TIP3     2864     TIP3     H2       HT       0.417000       1.00800           0
     47989 TIP3     2865     TIP3     OH2      OT      -0.834000       15.9994           0
     47990 TIP3     2865     TIP3     H1       HT       0.417000       1.00800           0
     47991 TIP3     2865     TIP3     H2       HT       0.417000       1.00800           0
     47992 TIP3     2866     TIP3     OH2      OT      -0.834000       15.9994           0
     47993 TIP3     2866     TIP3     H1       HT       0.417000       1.00800           0
     47994 TIP3     2866     TIP3     H2       HT       0.417000       1.00800           0
     47995 TIP3     2867     TIP3     OH2      OT      -0.834000       15.9994           0
     47996 TIP3     2867     TIP3     H1       HT       0.417000       1.00800           0
     47997 TIP3     2867     TIP3     H2       HT       0.417000       1.00800           0
     47998 TIP3     2868     TIP3     OH2      OT      -0.834000       15.9994           0
     47999 TIP3     2868     TIP3     H1       HT       0.417000       1.00800           0
     48000 TIP3     2868     TIP3     H2       HT       0.417000       1.00800           0
     48001 TIP3     2869     TIP3     OH2      OT      -0.834000       15.9994           0
     48002 TIP3     2869     TIP3     H1       HT       0.417000       1.00800           0
     48003 TIP3     2869     TIP3     H2       HT       0.417000       1.00800           0
     48004 TIP3     2870     TIP3     OH2      OT      -0.834000       15.9994           0
     48005 TIP3     2870     TIP3     H1       HT       0.417000       1.00800           0
     48006 TIP3     2870     TIP3     H2       HT       0.417000       1.00800           0
     48007 TIP3     2871     TIP3     OH2      OT      -0.834000       15.9994           0
     48008 TIP3     2871     TIP3     H1       HT       0.417000       1.00800           0
     48009 TIP3     2871     TIP3     H2       HT       0.417000       1.00800           0
     48010 TIP3     2872     TIP3     OH2      OT      -0.834000       15.9994           0
     48011 TIP3     2872     TIP3     H1       HT       0.417000       1.00800           0
     48012 TIP3     2872     TIP3     H2       HT       0.417000       1.00800           0
     48013 TIP3     2873     TIP3     OH2      OT      -0.834000       15.9994           0
     48014 TIP3     2873     TIP3     H1       HT       0.417000       1.00800           0
     48015 TIP3     2873     TIP3     H2       HT       0.417000       1.00800           0
     48016 TIP3     2874     TIP3     OH2      OT      -0.834000       15.9994           0
     48017 TIP3     2874     TIP3     H1       HT       0.417000       1.00800           0
     48018 TIP3     2874     TIP3     H2       HT       0.417000       1.00800           0
     48019 TIP3     2875     TIP3     OH2      OT      -0.834000       15.9994           0
     48020 TIP3     2875     TIP3     H1       HT       0.417000       1.00800           0
     48021 TIP3     2875     TIP3     H2       HT       0.417000       1.00800           0
     48022 TIP3     2876     TIP3     OH2      OT      -0.834000       15.9994           0
     48023 TIP3     2876     TIP3     H1       HT       0.417000       1.00800           0
     48024 TIP3     2876     TIP3     H2       HT       0.417000       1.00800           0
     48025 TIP3     2877     TIP3     OH2      OT      -0.834000       15.9994           0
     48026 TIP3     2877     TIP3     H1       HT       0.417000       1.00800           0
     48027 TIP3     2877     TIP3     H2       HT       0.417000       1.00800           0
     48028 TIP3     2878     TIP3     OH2      OT      -0.834000       15.9994           0
     48029 TIP3     2878     TIP3     H1       HT       0.417000       1.00800           0
     48030 TIP3     2878     TIP3     H2       HT       0.417000       1.00800           0
     48031 TIP3     2879     TIP3     OH2      OT      -0.834000       15.9994           0
     48032 TIP3     2879     TIP3     H1       HT       0.417000       1.00800           0
     48033 TIP3     2879     TIP3     H2       HT       0.417000       1.00800           0
     48034 TIP3     2880     TIP3     OH2      OT      -0.834000       15.9994           0
     48035 TIP3     2880     TIP3     H1       HT       0.417000       1.00800           0
     48036 TIP3     2880     TIP3     H2       HT       0.417000       1.00800           0
     48037 TIP3     2881     TIP3     OH2      OT      -0.834000       15.9994           0
     48038 TIP3     2881     TIP3     H1       HT       0.417000       1.00800           0
     48039 TIP3     2881     TIP3     H2       HT       0.417000       1.00800           0
     48040 TIP3     2882     TIP3     OH2      OT      -0.834000       15.9994           0
     48041 TIP3     2882     TIP3     H1       HT       0.417000       1.00800           0
     48042 TIP3     2882     TIP3     H2       HT       0.417000       1.00800           0
     48043 TIP3     2883     TIP3     OH2      OT      -0.834000       15.9994           0
     48044 TIP3     2883     TIP3     H1       HT       0.417000       1.00800           0
     48045 TIP3     2883     TIP3     H2       HT       0.417000       1.00800           0
     48046 TIP3     2884     TIP3     OH2      OT      -0.834000       15.9994           0
     48047 TIP3     2884     TIP3     H1       HT       0.417000       1.00800           0
     48048 TIP3     2884     TIP3     H2       HT       0.417000       1.00800           0
     48049 TIP3     2885     TIP3     OH2      OT      -0.834000       15.9994           0
     48050 TIP3     2885     TIP3     H1       HT       0.417000       1.00800           0
     48051 TIP3     2885     TIP3     H2       HT       0.417000       1.00800           0
     48052 TIP3     2886     TIP3     OH2      OT      -0.834000       15.9994           0
     48053 TIP3     2886     TIP3     H1       HT       0.417000       1.00800           0
     48054 TIP3     2886     TIP3     H2       HT       0.417000       1.00800           0
     48055 TIP3     2887     TIP3     OH2      OT      -0.834000       15.9994           0
     48056 TIP3     2887     TIP3     H1       HT       0.417000       1.00800           0
     48057 TIP3     2887     TIP3     H2       HT       0.417000       1.00800           0
     48058 TIP3     2888     TIP3     OH2      OT      -0.834000       15.9994           0
     48059 TIP3     2888     TIP3     H1       HT       0.417000       1.00800           0
     48060 TIP3     2888     TIP3     H2       HT       0.417000       1.00800           0
     48061 TIP3     2889     TIP3     OH2      OT      -0.834000       15.9994           0
     48062 TIP3     2889     TIP3     H1       HT       0.417000       1.00800           0
     48063 TIP3     2889     TIP3     H2       HT       0.417000       1.00800           0
     48064 TIP3     2890     TIP3     OH2      OT      -0.834000       15.9994           0
     48065 TIP3     2890     TIP3     H1       HT       0.417000       1.00800           0
     48066 TIP3     2890     TIP3     H2       HT       0.417000       1.00800           0
     48067 TIP3     2891     TIP3     OH2      OT      -0.834000       15.9994           0
     48068 TIP3     2891     TIP3     H1       HT       0.417000       1.00800           0
     48069 TIP3     2891     TIP3     H2       HT       0.417000       1.00800           0
     48070 TIP3     2892     TIP3     OH2      OT      -0.834000       15.9994           0
     48071 TIP3     2892     TIP3     H1       HT       0.417000       1.00800           0
     48072 TIP3     2892     TIP3     H2       HT       0.417000       1.00800           0
     48073 TIP3     2893     TIP3     OH2      OT      -0.834000       15.9994           0
     48074 TIP3     2893     TIP3     H1       HT       0.417000       1.00800           0
     48075 TIP3     2893     TIP3     H2       HT       0.417000       1.00800           0
     48076 TIP3     2894     TIP3     OH2      OT      -0.834000       15.9994           0
     48077 TIP3     2894     TIP3     H1       HT       0.417000       1.00800           0
     48078 TIP3     2894     TIP3     H2       HT       0.417000       1.00800           0
     48079 TIP3     2895     TIP3     OH2      OT      -0.834000       15.9994           0
     48080 TIP3     2895     TIP3     H1       HT       0.417000       1.00800           0
     48081 TIP3     2895     TIP3     H2       HT       0.417000       1.00800           0
     48082 TIP3     2896     TIP3     OH2      OT      -0.834000       15.9994           0
     48083 TIP3     2896     TIP3     H1       HT       0.417000       1.00800           0
     48084 TIP3     2896     TIP3     H2       HT       0.417000       1.00800           0
     48085 TIP3     2897     TIP3     OH2      OT      -0.834000       15.9994           0
     48086 TIP3     2897     TIP3     H1       HT       0.417000       1.00800           0
     48087 TIP3     2897     TIP3     H2       HT       0.417000       1.00800           0
     48088 TIP3     2898     TIP3     OH2      OT      -0.834000       15.9994           0
     48089 TIP3     2898     TIP3     H1       HT       0.417000       1.00800           0
     48090 TIP3     2898     TIP3     H2       HT       0.417000       1.00800           0
     48091 TIP3     2899     TIP3     OH2      OT      -0.834000       15.9994           0
     48092 TIP3     2899     TIP3     H1       HT       0.417000       1.00800           0
     48093 TIP3     2899     TIP3     H2       HT       0.417000       1.00800           0
     48094 TIP3     2900     TIP3     OH2      OT      -0.834000       15.9994           0
     48095 TIP3     2900     TIP3     H1       HT       0.417000       1.00800           0
     48096 TIP3     2900     TIP3     H2       HT       0.417000       1.00800           0
     48097 TIP3     2901     TIP3     OH2      OT      -0.834000       15.9994           0
     48098 TIP3     2901     TIP3     H1       HT       0.417000       1.00800           0
     48099 TIP3     2901     TIP3     H2       HT       0.417000       1.00800           0
     48100 TIP3     2902     TIP3     OH2      OT      -0.834000       15.9994           0
     48101 TIP3     2902     TIP3     H1       HT       0.417000       1.00800           0
     48102 TIP3     2902     TIP3     H2       HT       0.417000       1.00800           0
     48103 TIP3     2903     TIP3     OH2      OT      -0.834000       15.9994           0
     48104 TIP3     2903     TIP3     H1       HT       0.417000       1.00800           0
     48105 TIP3     2903     TIP3     H2       HT       0.417000       1.00800           0
     48106 TIP3     2904     TIP3     OH2      OT      -0.834000       15.9994           0
     48107 TIP3     2904     TIP3     H1       HT       0.417000       1.00800           0
     48108 TIP3     2904     TIP3     H2       HT       0.417000       1.00800           0
     48109 TIP3     2905     TIP3     OH2      OT      -0.834000       15.9994           0
     48110 TIP3     2905     TIP3     H1       HT       0.417000       1.00800           0
     48111 TIP3     2905     TIP3     H2       HT       0.417000       1.00800           0
     48112 TIP3     2906     TIP3     OH2      OT      -0.834000       15.9994           0
     48113 TIP3     2906     TIP3     H1       HT       0.417000       1.00800           0
     48114 TIP3     2906     TIP3     H2       HT       0.417000       1.00800           0
     48115 TIP3     2907     TIP3     OH2      OT      -0.834000       15.9994           0
     48116 TIP3     2907     TIP3     H1       HT       0.417000       1.00800           0
     48117 TIP3     2907     TIP3     H2       HT       0.417000       1.00800           0
     48118 TIP3     2908     TIP3     OH2      OT      -0.834000       15.9994           0
     48119 TIP3     2908     TIP3     H1       HT       0.417000       1.00800           0
     48120 TIP3     2908     TIP3     H2       HT       0.417000       1.00800           0
     48121 TIP3     2909     TIP3     OH2      OT      -0.834000       15.9994           0
     48122 TIP3     2909     TIP3     H1       HT       0.417000       1.00800           0
     48123 TIP3     2909     TIP3     H2       HT       0.417000       1.00800           0
     48124 TIP3     2910     TIP3     OH2      OT      -0.834000       15.9994           0
     48125 TIP3     2910     TIP3     H1       HT       0.417000       1.00800           0
     48126 TIP3     2910     TIP3     H2       HT       0.417000       1.00800           0
     48127 TIP3     2911     TIP3     OH2      OT      -0.834000       15.9994           0
     48128 TIP3     2911     TIP3     H1       HT       0.417000       1.00800           0
     48129 TIP3     2911     TIP3     H2       HT       0.417000       1.00800           0
     48130 TIP3     2912     TIP3     OH2      OT      -0.834000       15.9994           0
     48131 TIP3     2912     TIP3     H1       HT       0.417000       1.00800           0
     48132 TIP3     2912     TIP3     H2       HT       0.417000       1.00800           0
     48133 TIP3     2913     TIP3     OH2      OT      -0.834000       15.9994           0
     48134 TIP3     2913     TIP3     H1       HT       0.417000       1.00800           0
     48135 TIP3     2913     TIP3     H2       HT       0.417000       1.00800           0
     48136 TIP3     2914     TIP3     OH2      OT      -0.834000       15.9994           0
     48137 TIP3     2914     TIP3     H1       HT       0.417000       1.00800           0
     48138 TIP3     2914     TIP3     H2       HT       0.417000       1.00800           0
     48139 TIP3     2915     TIP3     OH2      OT      -0.834000       15.9994           0
     48140 TIP3     2915     TIP3     H1       HT       0.417000       1.00800           0
     48141 TIP3     2915     TIP3     H2       HT       0.417000       1.00800           0
     48142 TIP3     2916     TIP3     OH2      OT      -0.834000       15.9994           0
     48143 TIP3     2916     TIP3     H1       HT       0.417000       1.00800           0
     48144 TIP3     2916     TIP3     H2       HT       0.417000       1.00800           0
     48145 TIP3     2917     TIP3     OH2      OT      -0.834000       15.9994           0
     48146 TIP3     2917     TIP3     H1       HT       0.417000       1.00800           0
     48147 TIP3     2917     TIP3     H2       HT       0.417000       1.00800           0
     48148 TIP3     2918     TIP3     OH2      OT      -0.834000       15.9994           0
     48149 TIP3     2918     TIP3     H1       HT       0.417000       1.00800           0
     48150 TIP3     2918     TIP3     H2       HT       0.417000       1.00800           0
     48151 TIP3     2919     TIP3     OH2      OT      -0.834000       15.9994           0
     48152 TIP3     2919     TIP3     H1       HT       0.417000       1.00800           0
     48153 TIP3     2919     TIP3     H2       HT       0.417000       1.00800           0
     48154 TIP3     2920     TIP3     OH2      OT      -0.834000       15.9994           0
     48155 TIP3     2920     TIP3     H1       HT       0.417000       1.00800           0
     48156 TIP3     2920     TIP3     H2       HT       0.417000       1.00800           0
     48157 TIP3     2921     TIP3     OH2      OT      -0.834000       15.9994           0
     48158 TIP3     2921     TIP3     H1       HT       0.417000       1.00800           0
     48159 TIP3     2921     TIP3     H2       HT       0.417000       1.00800           0
     48160 TIP3     2922     TIP3     OH2      OT      -0.834000       15.9994           0
     48161 TIP3     2922     TIP3     H1       HT       0.417000       1.00800           0
     48162 TIP3     2922     TIP3     H2       HT       0.417000       1.00800           0
     48163 TIP3     2923     TIP3     OH2      OT      -0.834000       15.9994           0
     48164 TIP3     2923     TIP3     H1       HT       0.417000       1.00800           0
     48165 TIP3     2923     TIP3     H2       HT       0.417000       1.00800           0
     48166 TIP3     2924     TIP3     OH2      OT      -0.834000       15.9994           0
     48167 TIP3     2924     TIP3     H1       HT       0.417000       1.00800           0
     48168 TIP3     2924     TIP3     H2       HT       0.417000       1.00800           0
     48169 TIP3     2925     TIP3     OH2      OT      -0.834000       15.9994           0
     48170 TIP3     2925     TIP3     H1       HT       0.417000       1.00800           0
     48171 TIP3     2925     TIP3     H2       HT       0.417000       1.00800           0
     48172 TIP3     2926     TIP3     OH2      OT      -0.834000       15.9994           0
     48173 TIP3     2926     TIP3     H1       HT       0.417000       1.00800           0
     48174 TIP3     2926     TIP3     H2       HT       0.417000       1.00800           0
     48175 TIP3     2927     TIP3     OH2      OT      -0.834000       15.9994           0
     48176 TIP3     2927     TIP3     H1       HT       0.417000       1.00800           0
     48177 TIP3     2927     TIP3     H2       HT       0.417000       1.00800           0
     48178 TIP3     2928     TIP3     OH2      OT      -0.834000       15.9994           0
     48179 TIP3     2928     TIP3     H1       HT       0.417000       1.00800           0
     48180 TIP3     2928     TIP3     H2       HT       0.417000       1.00800           0
     48181 TIP3     2929     TIP3     OH2      OT      -0.834000       15.9994           0
     48182 TIP3     2929     TIP3     H1       HT       0.417000       1.00800           0
     48183 TIP3     2929     TIP3     H2       HT       0.417000       1.00800           0
     48184 TIP3     2930     TIP3     OH2      OT      -0.834000       15.9994           0
     48185 TIP3     2930     TIP3     H1       HT       0.417000       1.00800           0
     48186 TIP3     2930     TIP3     H2       HT       0.417000       1.00800           0
     48187 TIP3     2931     TIP3     OH2      OT      -0.834000       15.9994           0
     48188 TIP3     2931     TIP3     H1       HT       0.417000       1.00800           0
     48189 TIP3     2931     TIP3     H2       HT       0.417000       1.00800           0
     48190 TIP3     2932     TIP3     OH2      OT      -0.834000       15.9994           0
     48191 TIP3     2932     TIP3     H1       HT       0.417000       1.00800           0
     48192 TIP3     2932     TIP3     H2       HT       0.417000       1.00800           0
     48193 TIP3     2933     TIP3     OH2      OT      -0.834000       15.9994           0
     48194 TIP3     2933     TIP3     H1       HT       0.417000       1.00800           0
     48195 TIP3     2933     TIP3     H2       HT       0.417000       1.00800           0
     48196 TIP3     2934     TIP3     OH2      OT      -0.834000       15.9994           0
     48197 TIP3     2934     TIP3     H1       HT       0.417000       1.00800           0
     48198 TIP3     2934     TIP3     H2       HT       0.417000       1.00800           0
     48199 TIP3     2935     TIP3     OH2      OT      -0.834000       15.9994           0
     48200 TIP3     2935     TIP3     H1       HT       0.417000       1.00800           0
     48201 TIP3     2935     TIP3     H2       HT       0.417000       1.00800           0
     48202 TIP3     2936     TIP3     OH2      OT      -0.834000       15.9994           0
     48203 TIP3     2936     TIP3     H1       HT       0.417000       1.00800           0
     48204 TIP3     2936     TIP3     H2       HT       0.417000       1.00800           0
     48205 TIP3     2937     TIP3     OH2      OT      -0.834000       15.9994           0
     48206 TIP3     2937     TIP3     H1       HT       0.417000       1.00800           0
     48207 TIP3     2937     TIP3     H2       HT       0.417000       1.00800           0
     48208 TIP3     2938     TIP3     OH2      OT      -0.834000       15.9994           0
     48209 TIP3     2938     TIP3     H1       HT       0.417000       1.00800           0
     48210 TIP3     2938     TIP3     H2       HT       0.417000       1.00800           0
     48211 TIP3     2939     TIP3     OH2      OT      -0.834000       15.9994           0
     48212 TIP3     2939     TIP3     H1       HT       0.417000       1.00800           0
     48213 TIP3     2939     TIP3     H2       HT       0.417000       1.00800           0
     48214 TIP3     2940     TIP3     OH2      OT      -0.834000       15.9994           0
     48215 TIP3     2940     TIP3     H1       HT       0.417000       1.00800           0
     48216 TIP3     2940     TIP3     H2       HT       0.417000       1.00800           0
     48217 TIP3     2941     TIP3     OH2      OT      -0.834000       15.9994           0
     48218 TIP3     2941     TIP3     H1       HT       0.417000       1.00800           0
     48219 TIP3     2941     TIP3     H2       HT       0.417000       1.00800           0
     48220 TIP3     2942     TIP3     OH2      OT      -0.834000       15.9994           0
     48221 TIP3     2942     TIP3     H1       HT       0.417000       1.00800           0
     48222 TIP3     2942     TIP3     H2       HT       0.417000       1.00800           0
     48223 TIP3     2943     TIP3     OH2      OT      -0.834000       15.9994           0
     48224 TIP3     2943     TIP3     H1       HT       0.417000       1.00800           0
     48225 TIP3     2943     TIP3     H2       HT       0.417000       1.00800           0
     48226 TIP3     2944     TIP3     OH2      OT      -0.834000       15.9994           0
     48227 TIP3     2944     TIP3     H1       HT       0.417000       1.00800           0
     48228 TIP3     2944     TIP3     H2       HT       0.417000       1.00800           0
     48229 TIP3     2945     TIP3     OH2      OT      -0.834000       15.9994           0
     48230 TIP3     2945     TIP3     H1       HT       0.417000       1.00800           0
     48231 TIP3     2945     TIP3     H2       HT       0.417000       1.00800           0
     48232 TIP3     2946     TIP3     OH2      OT      -0.834000       15.9994           0
     48233 TIP3     2946     TIP3     H1       HT       0.417000       1.00800           0
     48234 TIP3     2946     TIP3     H2       HT       0.417000       1.00800           0
     48235 TIP3     2947     TIP3     OH2      OT      -0.834000       15.9994           0
     48236 TIP3     2947     TIP3     H1       HT       0.417000       1.00800           0
     48237 TIP3     2947     TIP3     H2       HT       0.417000       1.00800           0
     48238 TIP3     2948     TIP3     OH2      OT      -0.834000       15.9994           0
     48239 TIP3     2948     TIP3     H1       HT       0.417000       1.00800           0
     48240 TIP3     2948     TIP3     H2       HT       0.417000       1.00800           0
     48241 TIP3     2949     TIP3     OH2      OT      -0.834000       15.9994           0
     48242 TIP3     2949     TIP3     H1       HT       0.417000       1.00800           0
     48243 TIP3     2949     TIP3     H2       HT       0.417000       1.00800           0
     48244 TIP3     2950     TIP3     OH2      OT      -0.834000       15.9994           0
     48245 TIP3     2950     TIP3     H1       HT       0.417000       1.00800           0
     48246 TIP3     2950     TIP3     H2       HT       0.417000       1.00800           0
     48247 TIP3     2951     TIP3     OH2      OT      -0.834000       15.9994           0
     48248 TIP3     2951     TIP3     H1       HT       0.417000       1.00800           0
     48249 TIP3     2951     TIP3     H2       HT       0.417000       1.00800           0
     48250 TIP3     2952     TIP3     OH2      OT      -0.834000       15.9994           0
     48251 TIP3     2952     TIP3     H1       HT       0.417000       1.00800           0
     48252 TIP3     2952     TIP3     H2       HT       0.417000       1.00800           0
     48253 TIP3     2953     TIP3     OH2      OT      -0.834000       15.9994           0
     48254 TIP3     2953     TIP3     H1       HT       0.417000       1.00800           0
     48255 TIP3     2953     TIP3     H2       HT       0.417000       1.00800           0
     48256 TIP3     2954     TIP3     OH2      OT      -0.834000       15.9994           0
     48257 TIP3     2954     TIP3     H1       HT       0.417000       1.00800           0
     48258 TIP3     2954     TIP3     H2       HT       0.417000       1.00800           0
     48259 TIP3     2955     TIP3     OH2      OT      -0.834000       15.9994           0
     48260 TIP3     2955     TIP3     H1       HT       0.417000       1.00800           0
     48261 TIP3     2955     TIP3     H2       HT       0.417000       1.00800           0
     48262 TIP3     2956     TIP3     OH2      OT      -0.834000       15.9994           0
     48263 TIP3     2956     TIP3     H1       HT       0.417000       1.00800           0
     48264 TIP3     2956     TIP3     H2       HT       0.417000       1.00800           0
     48265 TIP3     2957     TIP3     OH2      OT      -0.834000       15.9994           0
     48266 TIP3     2957     TIP3     H1       HT       0.417000       1.00800           0
     48267 TIP3     2957     TIP3     H2       HT       0.417000       1.00800           0
     48268 TIP3     2958     TIP3     OH2      OT      -0.834000       15.9994           0
     48269 TIP3     2958     TIP3     H1       HT       0.417000       1.00800           0
     48270 TIP3     2958     TIP3     H2       HT       0.417000       1.00800           0
     48271 TIP3     2959     TIP3     OH2      OT      -0.834000       15.9994           0
     48272 TIP3     2959     TIP3     H1       HT       0.417000       1.00800           0
     48273 TIP3     2959     TIP3     H2       HT       0.417000       1.00800           0
     48274 TIP3     2960     TIP3     OH2      OT      -0.834000       15.9994           0
     48275 TIP3     2960     TIP3     H1       HT       0.417000       1.00800           0
     48276 TIP3     2960     TIP3     H2       HT       0.417000       1.00800           0
     48277 TIP3     2961     TIP3     OH2      OT      -0.834000       15.9994           0
     48278 TIP3     2961     TIP3     H1       HT       0.417000       1.00800           0
     48279 TIP3     2961     TIP3     H2       HT       0.417000       1.00800           0
     48280 TIP3     2962     TIP3     OH2      OT      -0.834000       15.9994           0
     48281 TIP3     2962     TIP3     H1       HT       0.417000       1.00800           0
     48282 TIP3     2962     TIP3     H2       HT       0.417000       1.00800           0
     48283 TIP3     2963     TIP3     OH2      OT      -0.834000       15.9994           0
     48284 TIP3     2963     TIP3     H1       HT       0.417000       1.00800           0
     48285 TIP3     2963     TIP3     H2       HT       0.417000       1.00800           0
     48286 TIP3     2964     TIP3     OH2      OT      -0.834000       15.9994           0
     48287 TIP3     2964     TIP3     H1       HT       0.417000       1.00800           0
     48288 TIP3     2964     TIP3     H2       HT       0.417000       1.00800           0
     48289 TIP3     2965     TIP3     OH2      OT      -0.834000       15.9994           0
     48290 TIP3     2965     TIP3     H1       HT       0.417000       1.00800           0
     48291 TIP3     2965     TIP3     H2       HT       0.417000       1.00800           0
     48292 TIP3     2966     TIP3     OH2      OT      -0.834000       15.9994           0
     48293 TIP3     2966     TIP3     H1       HT       0.417000       1.00800           0
     48294 TIP3     2966     TIP3     H2       HT       0.417000       1.00800           0
     48295 TIP3     2967     TIP3     OH2      OT      -0.834000       15.9994           0
     48296 TIP3     2967     TIP3     H1       HT       0.417000       1.00800           0
     48297 TIP3     2967     TIP3     H2       HT       0.417000       1.00800           0
     48298 TIP3     2968     TIP3     OH2      OT      -0.834000       15.9994           0
     48299 TIP3     2968     TIP3     H1       HT       0.417000       1.00800           0
     48300 TIP3     2968     TIP3     H2       HT       0.417000       1.00800           0
     48301 TIP3     2969     TIP3     OH2      OT      -0.834000       15.9994           0
     48302 TIP3     2969     TIP3     H1       HT       0.417000       1.00800           0
     48303 TIP3     2969     TIP3     H2       HT       0.417000       1.00800           0
     48304 TIP3     2970     TIP3     OH2      OT      -0.834000       15.9994           0
     48305 TIP3     2970     TIP3     H1       HT       0.417000       1.00800           0
     48306 TIP3     2970     TIP3     H2       HT       0.417000       1.00800           0
     48307 TIP3     2971     TIP3     OH2      OT      -0.834000       15.9994           0
     48308 TIP3     2971     TIP3     H1       HT       0.417000       1.00800           0
     48309 TIP3     2971     TIP3     H2       HT       0.417000       1.00800           0
     48310 TIP3     2972     TIP3     OH2      OT      -0.834000       15.9994           0
     48311 TIP3     2972     TIP3     H1       HT       0.417000       1.00800           0
     48312 TIP3     2972     TIP3     H2       HT       0.417000       1.00800           0
     48313 TIP3     2973     TIP3     OH2      OT      -0.834000       15.9994           0
     48314 TIP3     2973     TIP3     H1       HT       0.417000       1.00800           0
     48315 TIP3     2973     TIP3     H2       HT       0.417000       1.00800           0
     48316 TIP3     2974     TIP3     OH2      OT      -0.834000       15.9994           0
     48317 TIP3     2974     TIP3     H1       HT       0.417000       1.00800           0
     48318 TIP3     2974     TIP3     H2       HT       0.417000       1.00800           0
     48319 TIP3     2975     TIP3     OH2      OT      -0.834000       15.9994           0
     48320 TIP3     2975     TIP3     H1       HT       0.417000       1.00800           0
     48321 TIP3     2975     TIP3     H2       HT       0.417000       1.00800           0
     48322 TIP3     2976     TIP3     OH2      OT      -0.834000       15.9994           0
     48323 TIP3     2976     TIP3     H1       HT       0.417000       1.00800           0
     48324 TIP3     2976     TIP3     H2       HT       0.417000       1.00800           0
     48325 TIP3     2977     TIP3     OH2      OT      -0.834000       15.9994           0
     48326 TIP3     2977     TIP3     H1       HT       0.417000       1.00800           0
     48327 TIP3     2977     TIP3     H2       HT       0.417000       1.00800           0
     48328 TIP3     2978     TIP3     OH2      OT      -0.834000       15.9994           0
     48329 TIP3     2978     TIP3     H1       HT       0.417000       1.00800           0
     48330 TIP3     2978     TIP3     H2       HT       0.417000       1.00800           0
     48331 TIP3     2979     TIP3     OH2      OT      -0.834000       15.9994           0
     48332 TIP3     2979     TIP3     H1       HT       0.417000       1.00800           0
     48333 TIP3     2979     TIP3     H2       HT       0.417000       1.00800           0
     48334 TIP3     2980     TIP3     OH2      OT      -0.834000       15.9994           0
     48335 TIP3     2980     TIP3     H1       HT       0.417000       1.00800           0
     48336 TIP3     2980     TIP3     H2       HT       0.417000       1.00800           0
     48337 TIP3     2981     TIP3     OH2      OT      -0.834000       15.9994           0
     48338 TIP3     2981     TIP3     H1       HT       0.417000       1.00800           0
     48339 TIP3     2981     TIP3     H2       HT       0.417000       1.00800           0
     48340 TIP3     2982     TIP3     OH2      OT      -0.834000       15.9994           0
     48341 TIP3     2982     TIP3     H1       HT       0.417000       1.00800           0
     48342 TIP3     2982     TIP3     H2       HT       0.417000       1.00800           0
     48343 TIP3     2983     TIP3     OH2      OT      -0.834000       15.9994           0
     48344 TIP3     2983     TIP3     H1       HT       0.417000       1.00800           0
     48345 TIP3     2983     TIP3     H2       HT       0.417000       1.00800           0
     48346 TIP3     2984     TIP3     OH2      OT      -0.834000       15.9994           0
     48347 TIP3     2984     TIP3     H1       HT       0.417000       1.00800           0
     48348 TIP3     2984     TIP3     H2       HT       0.417000       1.00800           0
     48349 TIP3     2985     TIP3     OH2      OT      -0.834000       15.9994           0
     48350 TIP3     2985     TIP3     H1       HT       0.417000       1.00800           0
     48351 TIP3     2985     TIP3     H2       HT       0.417000       1.00800           0
     48352 TIP3     2986     TIP3     OH2      OT      -0.834000       15.9994           0
     48353 TIP3     2986     TIP3     H1       HT       0.417000       1.00800           0
     48354 TIP3     2986     TIP3     H2       HT       0.417000       1.00800           0
     48355 TIP3     2987     TIP3     OH2      OT      -0.834000       15.9994           0
     48356 TIP3     2987     TIP3     H1       HT       0.417000       1.00800           0
     48357 TIP3     2987     TIP3     H2       HT       0.417000       1.00800           0
     48358 TIP3     2988     TIP3     OH2      OT      -0.834000       15.9994           0
     48359 TIP3     2988     TIP3     H1       HT       0.417000       1.00800           0
     48360 TIP3     2988     TIP3     H2       HT       0.417000       1.00800           0
     48361 TIP3     2989     TIP3     OH2      OT      -0.834000       15.9994           0
     48362 TIP3     2989     TIP3     H1       HT       0.417000       1.00800           0
     48363 TIP3     2989     TIP3     H2       HT       0.417000       1.00800           0
     48364 TIP3     2990     TIP3     OH2      OT      -0.834000       15.9994           0
     48365 TIP3     2990     TIP3     H1       HT       0.417000       1.00800           0
     48366 TIP3     2990     TIP3     H2       HT       0.417000       1.00800           0
     48367 TIP3     2991     TIP3     OH2      OT      -0.834000       15.9994           0
     48368 TIP3     2991     TIP3     H1       HT       0.417000       1.00800           0
     48369 TIP3     2991     TIP3     H2       HT       0.417000       1.00800           0
     48370 TIP3     2992     TIP3     OH2      OT      -0.834000       15.9994           0
     48371 TIP3     2992     TIP3     H1       HT       0.417000       1.00800           0
     48372 TIP3     2992     TIP3     H2       HT       0.417000       1.00800           0
     48373 TIP3     2993     TIP3     OH2      OT      -0.834000       15.9994           0
     48374 TIP3     2993     TIP3     H1       HT       0.417000       1.00800           0
     48375 TIP3     2993     TIP3     H2       HT       0.417000       1.00800           0
     48376 TIP3     2994     TIP3     OH2      OT      -0.834000       15.9994           0
     48377 TIP3     2994     TIP3     H1       HT       0.417000       1.00800           0
     48378 TIP3     2994     TIP3     H2       HT       0.417000       1.00800           0
     48379 TIP3     2995     TIP3     OH2      OT      -0.834000       15.9994           0
     48380 TIP3     2995     TIP3     H1       HT       0.417000       1.00800           0
     48381 TIP3     2995     TIP3     H2       HT       0.417000       1.00800           0
     48382 TIP3     2996     TIP3     OH2      OT      -0.834000       15.9994           0
     48383 TIP3     2996     TIP3     H1       HT       0.417000       1.00800           0
     48384 TIP3     2996     TIP3     H2       HT       0.417000       1.00800           0
     48385 TIP3     2997     TIP3     OH2      OT      -0.834000       15.9994           0
     48386 TIP3     2997     TIP3     H1       HT       0.417000       1.00800           0
     48387 TIP3     2997     TIP3     H2       HT       0.417000       1.00800           0
     48388 TIP3     2998     TIP3     OH2      OT      -0.834000       15.9994           0
     48389 TIP3     2998     TIP3     H1       HT       0.417000       1.00800           0
     48390 TIP3     2998     TIP3     H2       HT       0.417000       1.00800           0
     48391 TIP3     2999     TIP3     OH2      OT      -0.834000       15.9994           0
     48392 TIP3     2999     TIP3     H1       HT       0.417000       1.00800           0
     48393 TIP3     2999     TIP3     H2       HT       0.417000       1.00800           0
     48394 TIP3     3000     TIP3     OH2      OT      -0.834000       15.9994           0
     48395 TIP3     3000     TIP3     H1       HT       0.417000       1.00800           0
     48396 TIP3     3000     TIP3     H2       HT       0.417000       1.00800           0
     48397 TIP3     3001     TIP3     OH2      OT      -0.834000       15.9994           0
     48398 TIP3     3001     TIP3     H1       HT       0.417000       1.00800           0
     48399 TIP3     3001     TIP3     H2       HT       0.417000       1.00800           0
     48400 TIP3     3002     TIP3     OH2      OT      -0.834000       15.9994           0
     48401 TIP3     3002     TIP3     H1       HT       0.417000       1.00800           0
     48402 TIP3     3002     TIP3     H2       HT       0.417000       1.00800           0
     48403 TIP3     3003     TIP3     OH2      OT      -0.834000       15.9994           0
     48404 TIP3     3003     TIP3     H1       HT       0.417000       1.00800           0
     48405 TIP3     3003     TIP3     H2       HT       0.417000       1.00800           0
     48406 TIP3     3004     TIP3     OH2      OT      -0.834000       15.9994           0
     48407 TIP3     3004     TIP3     H1       HT       0.417000       1.00800           0
     48408 TIP3     3004     TIP3     H2       HT       0.417000       1.00800           0
     48409 TIP3     3005     TIP3     OH2      OT      -0.834000       15.9994           0
     48410 TIP3     3005     TIP3     H1       HT       0.417000       1.00800           0
     48411 TIP3     3005     TIP3     H2       HT       0.417000       1.00800           0
     48412 TIP3     3006     TIP3     OH2      OT      -0.834000       15.9994           0
     48413 TIP3     3006     TIP3     H1       HT       0.417000       1.00800           0
     48414 TIP3     3006     TIP3     H2       HT       0.417000       1.00800           0
     48415 TIP3     3007     TIP3     OH2      OT      -0.834000       15.9994           0
     48416 TIP3     3007     TIP3     H1       HT       0.417000       1.00800           0
     48417 TIP3     3007     TIP3     H2       HT       0.417000       1.00800           0
     48418 TIP3     3008     TIP3     OH2      OT      -0.834000       15.9994           0
     48419 TIP3     3008     TIP3     H1       HT       0.417000       1.00800           0
     48420 TIP3     3008     TIP3     H2       HT       0.417000       1.00800           0
     48421 TIP3     3009     TIP3     OH2      OT      -0.834000       15.9994           0
     48422 TIP3     3009     TIP3     H1       HT       0.417000       1.00800           0
     48423 TIP3     3009     TIP3     H2       HT       0.417000       1.00800           0
     48424 TIP3     3010     TIP3     OH2      OT      -0.834000       15.9994           0
     48425 TIP3     3010     TIP3     H1       HT       0.417000       1.00800           0
     48426 TIP3     3010     TIP3     H2       HT       0.417000       1.00800           0
     48427 TIP3     3011     TIP3     OH2      OT      -0.834000       15.9994           0
     48428 TIP3     3011     TIP3     H1       HT       0.417000       1.00800           0
     48429 TIP3     3011     TIP3     H2       HT       0.417000       1.00800           0
     48430 TIP3     3012     TIP3     OH2      OT      -0.834000       15.9994           0
     48431 TIP3     3012     TIP3     H1       HT       0.417000       1.00800           0
     48432 TIP3     3012     TIP3     H2       HT       0.417000       1.00800           0
     48433 TIP3     3013     TIP3     OH2      OT      -0.834000       15.9994           0
     48434 TIP3     3013     TIP3     H1       HT       0.417000       1.00800           0
     48435 TIP3     3013     TIP3     H2       HT       0.417000       1.00800           0
     48436 TIP3     3014     TIP3     OH2      OT      -0.834000       15.9994           0
     48437 TIP3     3014     TIP3     H1       HT       0.417000       1.00800           0
     48438 TIP3     3014     TIP3     H2       HT       0.417000       1.00800           0
     48439 TIP3     3015     TIP3     OH2      OT      -0.834000       15.9994           0
     48440 TIP3     3015     TIP3     H1       HT       0.417000       1.00800           0
     48441 TIP3     3015     TIP3     H2       HT       0.417000       1.00800           0
     48442 TIP3     3016     TIP3     OH2      OT      -0.834000       15.9994           0
     48443 TIP3     3016     TIP3     H1       HT       0.417000       1.00800           0
     48444 TIP3     3016     TIP3     H2       HT       0.417000       1.00800           0
     48445 TIP3     3017     TIP3     OH2      OT      -0.834000       15.9994           0
     48446 TIP3     3017     TIP3     H1       HT       0.417000       1.00800           0
     48447 TIP3     3017     TIP3     H2       HT       0.417000       1.00800           0
     48448 TIP3     3018     TIP3     OH2      OT      -0.834000       15.9994           0
     48449 TIP3     3018     TIP3     H1       HT       0.417000       1.00800           0
     48450 TIP3     3018     TIP3     H2       HT       0.417000       1.00800           0
     48451 TIP3     3019     TIP3     OH2      OT      -0.834000       15.9994           0
     48452 TIP3     3019     TIP3     H1       HT       0.417000       1.00800           0
     48453 TIP3     3019     TIP3     H2       HT       0.417000       1.00800           0
     48454 TIP3     3020     TIP3     OH2      OT      -0.834000       15.9994           0
     48455 TIP3     3020     TIP3     H1       HT       0.417000       1.00800           0
     48456 TIP3     3020     TIP3     H2       HT       0.417000       1.00800           0
     48457 TIP3     3021     TIP3     OH2      OT      -0.834000       15.9994           0
     48458 TIP3     3021     TIP3     H1       HT       0.417000       1.00800           0
     48459 TIP3     3021     TIP3     H2       HT       0.417000       1.00800           0
     48460 TIP3     3022     TIP3     OH2      OT      -0.834000       15.9994           0
     48461 TIP3     3022     TIP3     H1       HT       0.417000       1.00800           0
     48462 TIP3     3022     TIP3     H2       HT       0.417000       1.00800           0
     48463 TIP3     3023     TIP3     OH2      OT      -0.834000       15.9994           0
     48464 TIP3     3023     TIP3     H1       HT       0.417000       1.00800           0
     48465 TIP3     3023     TIP3     H2       HT       0.417000       1.00800           0
     48466 TIP3     3024     TIP3     OH2      OT      -0.834000       15.9994           0
     48467 TIP3     3024     TIP3     H1       HT       0.417000       1.00800           0
     48468 TIP3     3024     TIP3     H2       HT       0.417000       1.00800           0
     48469 TIP3     3025     TIP3     OH2      OT      -0.834000       15.9994           0
     48470 TIP3     3025     TIP3     H1       HT       0.417000       1.00800           0
     48471 TIP3     3025     TIP3     H2       HT       0.417000       1.00800           0
     48472 TIP3     3026     TIP3     OH2      OT      -0.834000       15.9994           0
     48473 TIP3     3026     TIP3     H1       HT       0.417000       1.00800           0
     48474 TIP3     3026     TIP3     H2       HT       0.417000       1.00800           0
     48475 TIP3     3027     TIP3     OH2      OT      -0.834000       15.9994           0
     48476 TIP3     3027     TIP3     H1       HT       0.417000       1.00800           0
     48477 TIP3     3027     TIP3     H2       HT       0.417000       1.00800           0
     48478 TIP3     3028     TIP3     OH2      OT      -0.834000       15.9994           0
     48479 TIP3     3028     TIP3     H1       HT       0.417000       1.00800           0
     48480 TIP3     3028     TIP3     H2       HT       0.417000       1.00800           0
     48481 TIP3     3029     TIP3     OH2      OT      -0.834000       15.9994           0
     48482 TIP3     3029     TIP3     H1       HT       0.417000       1.00800           0
     48483 TIP3     3029     TIP3     H2       HT       0.417000       1.00800           0
     48484 TIP3     3030     TIP3     OH2      OT      -0.834000       15.9994           0
     48485 TIP3     3030     TIP3     H1       HT       0.417000       1.00800           0
     48486 TIP3     3030     TIP3     H2       HT       0.417000       1.00800           0
     48487 TIP3     3031     TIP3     OH2      OT      -0.834000       15.9994           0
     48488 TIP3     3031     TIP3     H1       HT       0.417000       1.00800           0
     48489 TIP3     3031     TIP3     H2       HT       0.417000       1.00800           0
     48490 TIP3     3032     TIP3     OH2      OT      -0.834000       15.9994           0
     48491 TIP3     3032     TIP3     H1       HT       0.417000       1.00800           0
     48492 TIP3     3032     TIP3     H2       HT       0.417000       1.00800           0
     48493 TIP3     3033     TIP3     OH2      OT      -0.834000       15.9994           0
     48494 TIP3     3033     TIP3     H1       HT       0.417000       1.00800           0
     48495 TIP3     3033     TIP3     H2       HT       0.417000       1.00800           0
     48496 TIP3     3034     TIP3     OH2      OT      -0.834000       15.9994           0
     48497 TIP3     3034     TIP3     H1       HT       0.417000       1.00800           0
     48498 TIP3     3034     TIP3     H2       HT       0.417000       1.00800           0
     48499 TIP3     3035     TIP3     OH2      OT      -0.834000       15.9994           0
     48500 TIP3     3035     TIP3     H1       HT       0.417000       1.00800           0
     48501 TIP3     3035     TIP3     H2       HT       0.417000       1.00800           0
     48502 TIP3     3036     TIP3     OH2      OT      -0.834000       15.9994           0
     48503 TIP3     3036     TIP3     H1       HT       0.417000       1.00800           0
     48504 TIP3     3036     TIP3     H2       HT       0.417000       1.00800           0
     48505 TIP3     3037     TIP3     OH2      OT      -0.834000       15.9994           0
     48506 TIP3     3037     TIP3     H1       HT       0.417000       1.00800           0
     48507 TIP3     3037     TIP3     H2       HT       0.417000       1.00800           0
     48508 TIP3     3038     TIP3     OH2      OT      -0.834000       15.9994           0
     48509 TIP3     3038     TIP3     H1       HT       0.417000       1.00800           0
     48510 TIP3     3038     TIP3     H2       HT       0.417000       1.00800           0
     48511 TIP3     3039     TIP3     OH2      OT      -0.834000       15.9994           0
     48512 TIP3     3039     TIP3     H1       HT       0.417000       1.00800           0
     48513 TIP3     3039     TIP3     H2       HT       0.417000       1.00800           0
     48514 TIP3     3040     TIP3     OH2      OT      -0.834000       15.9994           0
     48515 TIP3     3040     TIP3     H1       HT       0.417000       1.00800           0
     48516 TIP3     3040     TIP3     H2       HT       0.417000       1.00800           0
     48517 TIP3     3041     TIP3     OH2      OT      -0.834000       15.9994           0
     48518 TIP3     3041     TIP3     H1       HT       0.417000       1.00800           0
     48519 TIP3     3041     TIP3     H2       HT       0.417000       1.00800           0
     48520 TIP3     3042     TIP3     OH2      OT      -0.834000       15.9994           0
     48521 TIP3     3042     TIP3     H1       HT       0.417000       1.00800           0
     48522 TIP3     3042     TIP3     H2       HT       0.417000       1.00800           0
     48523 TIP3     3043     TIP3     OH2      OT      -0.834000       15.9994           0
     48524 TIP3     3043     TIP3     H1       HT       0.417000       1.00800           0
     48525 TIP3     3043     TIP3     H2       HT       0.417000       1.00800           0
     48526 TIP3     3044     TIP3     OH2      OT      -0.834000       15.9994           0
     48527 TIP3     3044     TIP3     H1       HT       0.417000       1.00800           0
     48528 TIP3     3044     TIP3     H2       HT       0.417000       1.00800           0
     48529 TIP3     3045     TIP3     OH2      OT      -0.834000       15.9994           0
     48530 TIP3     3045     TIP3     H1       HT       0.417000       1.00800           0
     48531 TIP3     3045     TIP3     H2       HT       0.417000       1.00800           0
     48532 TIP3     3046     TIP3     OH2      OT      -0.834000       15.9994           0
     48533 TIP3     3046     TIP3     H1       HT       0.417000       1.00800           0
     48534 TIP3     3046     TIP3     H2       HT       0.417000       1.00800           0
     48535 TIP3     3047     TIP3     OH2      OT      -0.834000       15.9994           0
     48536 TIP3     3047     TIP3     H1       HT       0.417000       1.00800           0
     48537 TIP3     3047     TIP3     H2       HT       0.417000       1.00800           0
     48538 TIP3     3048     TIP3     OH2      OT      -0.834000       15.9994           0
     48539 TIP3     3048     TIP3     H1       HT       0.417000       1.00800           0
     48540 TIP3     3048     TIP3     H2       HT       0.417000       1.00800           0
     48541 TIP3     3049     TIP3     OH2      OT      -0.834000       15.9994           0
     48542 TIP3     3049     TIP3     H1       HT       0.417000       1.00800           0
     48543 TIP3     3049     TIP3     H2       HT       0.417000       1.00800           0
     48544 TIP3     3050     TIP3     OH2      OT      -0.834000       15.9994           0
     48545 TIP3     3050     TIP3     H1       HT       0.417000       1.00800           0
     48546 TIP3     3050     TIP3     H2       HT       0.417000       1.00800           0
     48547 TIP3     3051     TIP3     OH2      OT      -0.834000       15.9994           0
     48548 TIP3     3051     TIP3     H1       HT       0.417000       1.00800           0
     48549 TIP3     3051     TIP3     H2       HT       0.417000       1.00800           0
     48550 TIP3     3052     TIP3     OH2      OT      -0.834000       15.9994           0
     48551 TIP3     3052     TIP3     H1       HT       0.417000       1.00800           0
     48552 TIP3     3052     TIP3     H2       HT       0.417000       1.00800           0
     48553 TIP3     3053     TIP3     OH2      OT      -0.834000       15.9994           0
     48554 TIP3     3053     TIP3     H1       HT       0.417000       1.00800           0
     48555 TIP3     3053     TIP3     H2       HT       0.417000       1.00800           0
     48556 TIP3     3054     TIP3     OH2      OT      -0.834000       15.9994           0
     48557 TIP3     3054     TIP3     H1       HT       0.417000       1.00800           0
     48558 TIP3     3054     TIP3     H2       HT       0.417000       1.00800           0
     48559 TIP3     3055     TIP3     OH2      OT      -0.834000       15.9994           0
     48560 TIP3     3055     TIP3     H1       HT       0.417000       1.00800           0
     48561 TIP3     3055     TIP3     H2       HT       0.417000       1.00800           0
     48562 TIP3     3056     TIP3     OH2      OT      -0.834000       15.9994           0
     48563 TIP3     3056     TIP3     H1       HT       0.417000       1.00800           0
     48564 TIP3     3056     TIP3     H2       HT       0.417000       1.00800           0
     48565 TIP3     3057     TIP3     OH2      OT      -0.834000       15.9994           0
     48566 TIP3     3057     TIP3     H1       HT       0.417000       1.00800           0
     48567 TIP3     3057     TIP3     H2       HT       0.417000       1.00800           0
     48568 TIP3     3058     TIP3     OH2      OT      -0.834000       15.9994           0
     48569 TIP3     3058     TIP3     H1       HT       0.417000       1.00800           0
     48570 TIP3     3058     TIP3     H2       HT       0.417000       1.00800           0
     48571 TIP3     3059     TIP3     OH2      OT      -0.834000       15.9994           0
     48572 TIP3     3059     TIP3     H1       HT       0.417000       1.00800           0
     48573 TIP3     3059     TIP3     H2       HT       0.417000       1.00800           0
     48574 TIP3     3060     TIP3     OH2      OT      -0.834000       15.9994           0
     48575 TIP3     3060     TIP3     H1       HT       0.417000       1.00800           0
     48576 TIP3     3060     TIP3     H2       HT       0.417000       1.00800           0
     48577 TIP3     3061     TIP3     OH2      OT      -0.834000       15.9994           0
     48578 TIP3     3061     TIP3     H1       HT       0.417000       1.00800           0
     48579 TIP3     3061     TIP3     H2       HT       0.417000       1.00800           0
     48580 TIP3     3062     TIP3     OH2      OT      -0.834000       15.9994           0
     48581 TIP3     3062     TIP3     H1       HT       0.417000       1.00800           0
     48582 TIP3     3062     TIP3     H2       HT       0.417000       1.00800           0
     48583 TIP3     3063     TIP3     OH2      OT      -0.834000       15.9994           0
     48584 TIP3     3063     TIP3     H1       HT       0.417000       1.00800           0
     48585 TIP3     3063     TIP3     H2       HT       0.417000       1.00800           0
     48586 TIP3     3064     TIP3     OH2      OT      -0.834000       15.9994           0
     48587 TIP3     3064     TIP3     H1       HT       0.417000       1.00800           0
     48588 TIP3     3064     TIP3     H2       HT       0.417000       1.00800           0
     48589 TIP3     3065     TIP3     OH2      OT      -0.834000       15.9994           0
     48590 TIP3     3065     TIP3     H1       HT       0.417000       1.00800           0
     48591 TIP3     3065     TIP3     H2       HT       0.417000       1.00800           0
     48592 TIP3     3066     TIP3     OH2      OT      -0.834000       15.9994           0
     48593 TIP3     3066     TIP3     H1       HT       0.417000       1.00800           0
     48594 TIP3     3066     TIP3     H2       HT       0.417000       1.00800           0
     48595 TIP3     3067     TIP3     OH2      OT      -0.834000       15.9994           0
     48596 TIP3     3067     TIP3     H1       HT       0.417000       1.00800           0
     48597 TIP3     3067     TIP3     H2       HT       0.417000       1.00800           0
     48598 TIP3     3068     TIP3     OH2      OT      -0.834000       15.9994           0
     48599 TIP3     3068     TIP3     H1       HT       0.417000       1.00800           0
     48600 TIP3     3068     TIP3     H2       HT       0.417000       1.00800           0
     48601 TIP3     3069     TIP3     OH2      OT      -0.834000       15.9994           0
     48602 TIP3     3069     TIP3     H1       HT       0.417000       1.00800           0
     48603 TIP3     3069     TIP3     H2       HT       0.417000       1.00800           0
     48604 TIP3     3070     TIP3     OH2      OT      -0.834000       15.9994           0
     48605 TIP3     3070     TIP3     H1       HT       0.417000       1.00800           0
     48606 TIP3     3070     TIP3     H2       HT       0.417000       1.00800           0
     48607 TIP3     3071     TIP3     OH2      OT      -0.834000       15.9994           0
     48608 TIP3     3071     TIP3     H1       HT       0.417000       1.00800           0
     48609 TIP3     3071     TIP3     H2       HT       0.417000       1.00800           0
     48610 TIP3     3072     TIP3     OH2      OT      -0.834000       15.9994           0
     48611 TIP3     3072     TIP3     H1       HT       0.417000       1.00800           0
     48612 TIP3     3072     TIP3     H2       HT       0.417000       1.00800           0
     48613 TIP3     3073     TIP3     OH2      OT      -0.834000       15.9994           0
     48614 TIP3     3073     TIP3     H1       HT       0.417000       1.00800           0
     48615 TIP3     3073     TIP3     H2       HT       0.417000       1.00800           0
     48616 TIP3     3074     TIP3     OH2      OT      -0.834000       15.9994           0
     48617 TIP3     3074     TIP3     H1       HT       0.417000       1.00800           0
     48618 TIP3     3074     TIP3     H2       HT       0.417000       1.00800           0
     48619 TIP3     3075     TIP3     OH2      OT      -0.834000       15.9994           0
     48620 TIP3     3075     TIP3     H1       HT       0.417000       1.00800           0
     48621 TIP3     3075     TIP3     H2       HT       0.417000       1.00800           0
     48622 TIP3     3076     TIP3     OH2      OT      -0.834000       15.9994           0
     48623 TIP3     3076     TIP3     H1       HT       0.417000       1.00800           0
     48624 TIP3     3076     TIP3     H2       HT       0.417000       1.00800           0
     48625 TIP3     3077     TIP3     OH2      OT      -0.834000       15.9994           0
     48626 TIP3     3077     TIP3     H1       HT       0.417000       1.00800           0
     48627 TIP3     3077     TIP3     H2       HT       0.417000       1.00800           0
     48628 TIP3     3078     TIP3     OH2      OT      -0.834000       15.9994           0
     48629 TIP3     3078     TIP3     H1       HT       0.417000       1.00800           0
     48630 TIP3     3078     TIP3     H2       HT       0.417000       1.00800           0
     48631 TIP3     3079     TIP3     OH2      OT      -0.834000       15.9994           0
     48632 TIP3     3079     TIP3     H1       HT       0.417000       1.00800           0
     48633 TIP3     3079     TIP3     H2       HT       0.417000       1.00800           0
     48634 TIP3     3080     TIP3     OH2      OT      -0.834000       15.9994           0
     48635 TIP3     3080     TIP3     H1       HT       0.417000       1.00800           0
     48636 TIP3     3080     TIP3     H2       HT       0.417000       1.00800           0
     48637 TIP3     3081     TIP3     OH2      OT      -0.834000       15.9994           0
     48638 TIP3     3081     TIP3     H1       HT       0.417000       1.00800           0
     48639 TIP3     3081     TIP3     H2       HT       0.417000       1.00800           0
     48640 TIP3     3082     TIP3     OH2      OT      -0.834000       15.9994           0
     48641 TIP3     3082     TIP3     H1       HT       0.417000       1.00800           0
     48642 TIP3     3082     TIP3     H2       HT       0.417000       1.00800           0
     48643 TIP3     3083     TIP3     OH2      OT      -0.834000       15.9994           0
     48644 TIP3     3083     TIP3     H1       HT       0.417000       1.00800           0
     48645 TIP3     3083     TIP3     H2       HT       0.417000       1.00800           0
     48646 TIP3     3084     TIP3     OH2      OT      -0.834000       15.9994           0
     48647 TIP3     3084     TIP3     H1       HT       0.417000       1.00800           0
     48648 TIP3     3084     TIP3     H2       HT       0.417000       1.00800           0
     48649 TIP3     3085     TIP3     OH2      OT      -0.834000       15.9994           0
     48650 TIP3     3085     TIP3     H1       HT       0.417000       1.00800           0
     48651 TIP3     3085     TIP3     H2       HT       0.417000       1.00800           0
     48652 TIP3     3086     TIP3     OH2      OT      -0.834000       15.9994           0
     48653 TIP3     3086     TIP3     H1       HT       0.417000       1.00800           0
     48654 TIP3     3086     TIP3     H2       HT       0.417000       1.00800           0
     48655 TIP3     3087     TIP3     OH2      OT      -0.834000       15.9994           0
     48656 TIP3     3087     TIP3     H1       HT       0.417000       1.00800           0
     48657 TIP3     3087     TIP3     H2       HT       0.417000       1.00800           0
     48658 TIP3     3088     TIP3     OH2      OT      -0.834000       15.9994           0
     48659 TIP3     3088     TIP3     H1       HT       0.417000       1.00800           0
     48660 TIP3     3088     TIP3     H2       HT       0.417000       1.00800           0
     48661 TIP3     3089     TIP3     OH2      OT      -0.834000       15.9994           0
     48662 TIP3     3089     TIP3     H1       HT       0.417000       1.00800           0
     48663 TIP3     3089     TIP3     H2       HT       0.417000       1.00800           0
     48664 TIP3     3090     TIP3     OH2      OT      -0.834000       15.9994           0
     48665 TIP3     3090     TIP3     H1       HT       0.417000       1.00800           0
     48666 TIP3     3090     TIP3     H2       HT       0.417000       1.00800           0
     48667 TIP3     3091     TIP3     OH2      OT      -0.834000       15.9994           0
     48668 TIP3     3091     TIP3     H1       HT       0.417000       1.00800           0
     48669 TIP3     3091     TIP3     H2       HT       0.417000       1.00800           0
     48670 TIP3     3092     TIP3     OH2      OT      -0.834000       15.9994           0
     48671 TIP3     3092     TIP3     H1       HT       0.417000       1.00800           0
     48672 TIP3     3092     TIP3     H2       HT       0.417000       1.00800           0
     48673 TIP3     3093     TIP3     OH2      OT      -0.834000       15.9994           0
     48674 TIP3     3093     TIP3     H1       HT       0.417000       1.00800           0
     48675 TIP3     3093     TIP3     H2       HT       0.417000       1.00800           0
     48676 TIP3     3094     TIP3     OH2      OT      -0.834000       15.9994           0
     48677 TIP3     3094     TIP3     H1       HT       0.417000       1.00800           0
     48678 TIP3     3094     TIP3     H2       HT       0.417000       1.00800           0
     48679 TIP3     3095     TIP3     OH2      OT      -0.834000       15.9994           0
     48680 TIP3     3095     TIP3     H1       HT       0.417000       1.00800           0
     48681 TIP3     3095     TIP3     H2       HT       0.417000       1.00800           0
     48682 TIP3     3096     TIP3     OH2      OT      -0.834000       15.9994           0
     48683 TIP3     3096     TIP3     H1       HT       0.417000       1.00800           0
     48684 TIP3     3096     TIP3     H2       HT       0.417000       1.00800           0
     48685 TIP3     3097     TIP3     OH2      OT      -0.834000       15.9994           0
     48686 TIP3     3097     TIP3     H1       HT       0.417000       1.00800           0
     48687 TIP3     3097     TIP3     H2       HT       0.417000       1.00800           0
     48688 TIP3     3098     TIP3     OH2      OT      -0.834000       15.9994           0
     48689 TIP3     3098     TIP3     H1       HT       0.417000       1.00800           0
     48690 TIP3     3098     TIP3     H2       HT       0.417000       1.00800           0
     48691 TIP3     3099     TIP3     OH2      OT      -0.834000       15.9994           0
     48692 TIP3     3099     TIP3     H1       HT       0.417000       1.00800           0
     48693 TIP3     3099     TIP3     H2       HT       0.417000       1.00800           0
     48694 TIP3     3100     TIP3     OH2      OT      -0.834000       15.9994           0
     48695 TIP3     3100     TIP3     H1       HT       0.417000       1.00800           0
     48696 TIP3     3100     TIP3     H2       HT       0.417000       1.00800           0
     48697 TIP3     3101     TIP3     OH2      OT      -0.834000       15.9994           0
     48698 TIP3     3101     TIP3     H1       HT       0.417000       1.00800           0
     48699 TIP3     3101     TIP3     H2       HT       0.417000       1.00800           0
     48700 TIP3     3102     TIP3     OH2      OT      -0.834000       15.9994           0
     48701 TIP3     3102     TIP3     H1       HT       0.417000       1.00800           0
     48702 TIP3     3102     TIP3     H2       HT       0.417000       1.00800           0
     48703 TIP3     3103     TIP3     OH2      OT      -0.834000       15.9994           0
     48704 TIP3     3103     TIP3     H1       HT       0.417000       1.00800           0
     48705 TIP3     3103     TIP3     H2       HT       0.417000       1.00800           0
     48706 TIP3     3104     TIP3     OH2      OT      -0.834000       15.9994           0
     48707 TIP3     3104     TIP3     H1       HT       0.417000       1.00800           0
     48708 TIP3     3104     TIP3     H2       HT       0.417000       1.00800           0
     48709 TIP3     3105     TIP3     OH2      OT      -0.834000       15.9994           0
     48710 TIP3     3105     TIP3     H1       HT       0.417000       1.00800           0
     48711 TIP3     3105     TIP3     H2       HT       0.417000       1.00800           0
     48712 TIP3     3106     TIP3     OH2      OT      -0.834000       15.9994           0
     48713 TIP3     3106     TIP3     H1       HT       0.417000       1.00800           0
     48714 TIP3     3106     TIP3     H2       HT       0.417000       1.00800           0
     48715 TIP3     3107     TIP3     OH2      OT      -0.834000       15.9994           0
     48716 TIP3     3107     TIP3     H1       HT       0.417000       1.00800           0
     48717 TIP3     3107     TIP3     H2       HT       0.417000       1.00800           0
     48718 TIP3     3108     TIP3     OH2      OT      -0.834000       15.9994           0
     48719 TIP3     3108     TIP3     H1       HT       0.417000       1.00800           0
     48720 TIP3     3108     TIP3     H2       HT       0.417000       1.00800           0
     48721 TIP3     3109     TIP3     OH2      OT      -0.834000       15.9994           0
     48722 TIP3     3109     TIP3     H1       HT       0.417000       1.00800           0
     48723 TIP3     3109     TIP3     H2       HT       0.417000       1.00800           0
     48724 TIP3     3110     TIP3     OH2      OT      -0.834000       15.9994           0
     48725 TIP3     3110     TIP3     H1       HT       0.417000       1.00800           0
     48726 TIP3     3110     TIP3     H2       HT       0.417000       1.00800           0
     48727 TIP3     3111     TIP3     OH2      OT      -0.834000       15.9994           0
     48728 TIP3     3111     TIP3     H1       HT       0.417000       1.00800           0
     48729 TIP3     3111     TIP3     H2       HT       0.417000       1.00800           0
     48730 TIP3     3112     TIP3     OH2      OT      -0.834000       15.9994           0
     48731 TIP3     3112     TIP3     H1       HT       0.417000       1.00800           0
     48732 TIP3     3112     TIP3     H2       HT       0.417000       1.00800           0
     48733 TIP3     3113     TIP3     OH2      OT      -0.834000       15.9994           0
     48734 TIP3     3113     TIP3     H1       HT       0.417000       1.00800           0
     48735 TIP3     3113     TIP3     H2       HT       0.417000       1.00800           0
     48736 TIP3     3114     TIP3     OH2      OT      -0.834000       15.9994           0
     48737 TIP3     3114     TIP3     H1       HT       0.417000       1.00800           0
     48738 TIP3     3114     TIP3     H2       HT       0.417000       1.00800           0
     48739 TIP3     3115     TIP3     OH2      OT      -0.834000       15.9994           0
     48740 TIP3     3115     TIP3     H1       HT       0.417000       1.00800           0
     48741 TIP3     3115     TIP3     H2       HT       0.417000       1.00800           0
     48742 TIP3     3116     TIP3     OH2      OT      -0.834000       15.9994           0
     48743 TIP3     3116     TIP3     H1       HT       0.417000       1.00800           0
     48744 TIP3     3116     TIP3     H2       HT       0.417000       1.00800           0
     48745 TIP3     3117     TIP3     OH2      OT      -0.834000       15.9994           0
     48746 TIP3     3117     TIP3     H1       HT       0.417000       1.00800           0
     48747 TIP3     3117     TIP3     H2       HT       0.417000       1.00800           0
     48748 TIP3     3118     TIP3     OH2      OT      -0.834000       15.9994           0
     48749 TIP3     3118     TIP3     H1       HT       0.417000       1.00800           0
     48750 TIP3     3118     TIP3     H2       HT       0.417000       1.00800           0
     48751 TIP3     3119     TIP3     OH2      OT      -0.834000       15.9994           0
     48752 TIP3     3119     TIP3     H1       HT       0.417000       1.00800           0
     48753 TIP3     3119     TIP3     H2       HT       0.417000       1.00800           0
     48754 TIP3     3120     TIP3     OH2      OT      -0.834000       15.9994           0
     48755 TIP3     3120     TIP3     H1       HT       0.417000       1.00800           0
     48756 TIP3     3120     TIP3     H2       HT       0.417000       1.00800           0
     48757 TIP3     3121     TIP3     OH2      OT      -0.834000       15.9994           0
     48758 TIP3     3121     TIP3     H1       HT       0.417000       1.00800           0
     48759 TIP3     3121     TIP3     H2       HT       0.417000       1.00800           0
     48760 TIP3     3122     TIP3     OH2      OT      -0.834000       15.9994           0
     48761 TIP3     3122     TIP3     H1       HT       0.417000       1.00800           0
     48762 TIP3     3122     TIP3     H2       HT       0.417000       1.00800           0
     48763 TIP3     3123     TIP3     OH2      OT      -0.834000       15.9994           0
     48764 TIP3     3123     TIP3     H1       HT       0.417000       1.00800           0
     48765 TIP3     3123     TIP3     H2       HT       0.417000       1.00800           0
     48766 TIP3     3124     TIP3     OH2      OT      -0.834000       15.9994           0
     48767 TIP3     3124     TIP3     H1       HT       0.417000       1.00800           0
     48768 TIP3     3124     TIP3     H2       HT       0.417000       1.00800           0
     48769 TIP3     3125     TIP3     OH2      OT      -0.834000       15.9994           0
     48770 TIP3     3125     TIP3     H1       HT       0.417000       1.00800           0
     48771 TIP3     3125     TIP3     H2       HT       0.417000       1.00800           0
     48772 TIP3     3126     TIP3     OH2      OT      -0.834000       15.9994           0
     48773 TIP3     3126     TIP3     H1       HT       0.417000       1.00800           0
     48774 TIP3     3126     TIP3     H2       HT       0.417000       1.00800           0
     48775 TIP3     3127     TIP3     OH2      OT      -0.834000       15.9994           0
     48776 TIP3     3127     TIP3     H1       HT       0.417000       1.00800           0
     48777 TIP3     3127     TIP3     H2       HT       0.417000       1.00800           0
     48778 TIP3     3128     TIP3     OH2      OT      -0.834000       15.9994           0
     48779 TIP3     3128     TIP3     H1       HT       0.417000       1.00800           0
     48780 TIP3     3128     TIP3     H2       HT       0.417000       1.00800           0
     48781 TIP3     3129     TIP3     OH2      OT      -0.834000       15.9994           0
     48782 TIP3     3129     TIP3     H1       HT       0.417000       1.00800           0
     48783 TIP3     3129     TIP3     H2       HT       0.417000       1.00800           0
     48784 TIP3     3130     TIP3     OH2      OT      -0.834000       15.9994           0
     48785 TIP3     3130     TIP3     H1       HT       0.417000       1.00800           0
     48786 TIP3     3130     TIP3     H2       HT       0.417000       1.00800           0
     48787 TIP3     3131     TIP3     OH2      OT      -0.834000       15.9994           0
     48788 TIP3     3131     TIP3     H1       HT       0.417000       1.00800           0
     48789 TIP3     3131     TIP3     H2       HT       0.417000       1.00800           0
     48790 TIP3     3132     TIP3     OH2      OT      -0.834000       15.9994           0
     48791 TIP3     3132     TIP3     H1       HT       0.417000       1.00800           0
     48792 TIP3     3132     TIP3     H2       HT       0.417000       1.00800           0
     48793 TIP3     3133     TIP3     OH2      OT      -0.834000       15.9994           0
     48794 TIP3     3133     TIP3     H1       HT       0.417000       1.00800           0
     48795 TIP3     3133     TIP3     H2       HT       0.417000       1.00800           0
     48796 TIP3     3134     TIP3     OH2      OT      -0.834000       15.9994           0
     48797 TIP3     3134     TIP3     H1       HT       0.417000       1.00800           0
     48798 TIP3     3134     TIP3     H2       HT       0.417000       1.00800           0
     48799 TIP3     3135     TIP3     OH2      OT      -0.834000       15.9994           0
     48800 TIP3     3135     TIP3     H1       HT       0.417000       1.00800           0
     48801 TIP3     3135     TIP3     H2       HT       0.417000       1.00800           0
     48802 TIP3     3136     TIP3     OH2      OT      -0.834000       15.9994           0
     48803 TIP3     3136     TIP3     H1       HT       0.417000       1.00800           0
     48804 TIP3     3136     TIP3     H2       HT       0.417000       1.00800           0
     48805 TIP3     3137     TIP3     OH2      OT      -0.834000       15.9994           0
     48806 TIP3     3137     TIP3     H1       HT       0.417000       1.00800           0
     48807 TIP3     3137     TIP3     H2       HT       0.417000       1.00800           0
     48808 TIP3     3138     TIP3     OH2      OT      -0.834000       15.9994           0
     48809 TIP3     3138     TIP3     H1       HT       0.417000       1.00800           0
     48810 TIP3     3138     TIP3     H2       HT       0.417000       1.00800           0
     48811 TIP3     3139     TIP3     OH2      OT      -0.834000       15.9994           0
     48812 TIP3     3139     TIP3     H1       HT       0.417000       1.00800           0
     48813 TIP3     3139     TIP3     H2       HT       0.417000       1.00800           0
     48814 TIP3     3140     TIP3     OH2      OT      -0.834000       15.9994           0
     48815 TIP3     3140     TIP3     H1       HT       0.417000       1.00800           0
     48816 TIP3     3140     TIP3     H2       HT       0.417000       1.00800           0
     48817 TIP3     3141     TIP3     OH2      OT      -0.834000       15.9994           0
     48818 TIP3     3141     TIP3     H1       HT       0.417000       1.00800           0
     48819 TIP3     3141     TIP3     H2       HT       0.417000       1.00800           0
     48820 TIP3     3142     TIP3     OH2      OT      -0.834000       15.9994           0
     48821 TIP3     3142     TIP3     H1       HT       0.417000       1.00800           0
     48822 TIP3     3142     TIP3     H2       HT       0.417000       1.00800           0
     48823 TIP3     3143     TIP3     OH2      OT      -0.834000       15.9994           0
     48824 TIP3     3143     TIP3     H1       HT       0.417000       1.00800           0
     48825 TIP3     3143     TIP3     H2       HT       0.417000       1.00800           0
     48826 TIP3     3144     TIP3     OH2      OT      -0.834000       15.9994           0
     48827 TIP3     3144     TIP3     H1       HT       0.417000       1.00800           0
     48828 TIP3     3144     TIP3     H2       HT       0.417000       1.00800           0
     48829 TIP3     3145     TIP3     OH2      OT      -0.834000       15.9994           0
     48830 TIP3     3145     TIP3     H1       HT       0.417000       1.00800           0
     48831 TIP3     3145     TIP3     H2       HT       0.417000       1.00800           0
     48832 TIP3     3146     TIP3     OH2      OT      -0.834000       15.9994           0
     48833 TIP3     3146     TIP3     H1       HT       0.417000       1.00800           0
     48834 TIP3     3146     TIP3     H2       HT       0.417000       1.00800           0
     48835 TIP3     3147     TIP3     OH2      OT      -0.834000       15.9994           0
     48836 TIP3     3147     TIP3     H1       HT       0.417000       1.00800           0
     48837 TIP3     3147     TIP3     H2       HT       0.417000       1.00800           0
     48838 TIP3     3148     TIP3     OH2      OT      -0.834000       15.9994           0
     48839 TIP3     3148     TIP3     H1       HT       0.417000       1.00800           0
     48840 TIP3     3148     TIP3     H2       HT       0.417000       1.00800           0
     48841 TIP3     3149     TIP3     OH2      OT      -0.834000       15.9994           0
     48842 TIP3     3149     TIP3     H1       HT       0.417000       1.00800           0
     48843 TIP3     3149     TIP3     H2       HT       0.417000       1.00800           0
     48844 TIP3     3150     TIP3     OH2      OT      -0.834000       15.9994           0
     48845 TIP3     3150     TIP3     H1       HT       0.417000       1.00800           0
     48846 TIP3     3150     TIP3     H2       HT       0.417000       1.00800           0
     48847 TIP3     3151     TIP3     OH2      OT      -0.834000       15.9994           0
     48848 TIP3     3151     TIP3     H1       HT       0.417000       1.00800           0
     48849 TIP3     3151     TIP3     H2       HT       0.417000       1.00800           0
     48850 TIP3     3152     TIP3     OH2      OT      -0.834000       15.9994           0
     48851 TIP3     3152     TIP3     H1       HT       0.417000       1.00800           0
     48852 TIP3     3152     TIP3     H2       HT       0.417000       1.00800           0
     48853 TIP3     3153     TIP3     OH2      OT      -0.834000       15.9994           0
     48854 TIP3     3153     TIP3     H1       HT       0.417000       1.00800           0
     48855 TIP3     3153     TIP3     H2       HT       0.417000       1.00800           0
     48856 TIP3     3154     TIP3     OH2      OT      -0.834000       15.9994           0
     48857 TIP3     3154     TIP3     H1       HT       0.417000       1.00800           0
     48858 TIP3     3154     TIP3     H2       HT       0.417000       1.00800           0
     48859 TIP3     3155     TIP3     OH2      OT      -0.834000       15.9994           0
     48860 TIP3     3155     TIP3     H1       HT       0.417000       1.00800           0
     48861 TIP3     3155     TIP3     H2       HT       0.417000       1.00800           0
     48862 TIP3     3156     TIP3     OH2      OT      -0.834000       15.9994           0
     48863 TIP3     3156     TIP3     H1       HT       0.417000       1.00800           0
     48864 TIP3     3156     TIP3     H2       HT       0.417000       1.00800           0
     48865 TIP3     3157     TIP3     OH2      OT      -0.834000       15.9994           0
     48866 TIP3     3157     TIP3     H1       HT       0.417000       1.00800           0
     48867 TIP3     3157     TIP3     H2       HT       0.417000       1.00800           0
     48868 TIP3     3158     TIP3     OH2      OT      -0.834000       15.9994           0
     48869 TIP3     3158     TIP3     H1       HT       0.417000       1.00800           0
     48870 TIP3     3158     TIP3     H2       HT       0.417000       1.00800           0
     48871 TIP3     3159     TIP3     OH2      OT      -0.834000       15.9994           0
     48872 TIP3     3159     TIP3     H1       HT       0.417000       1.00800           0
     48873 TIP3     3159     TIP3     H2       HT       0.417000       1.00800           0
     48874 TIP3     3160     TIP3     OH2      OT      -0.834000       15.9994           0
     48875 TIP3     3160     TIP3     H1       HT       0.417000       1.00800           0
     48876 TIP3     3160     TIP3     H2       HT       0.417000       1.00800           0
     48877 TIP3     3161     TIP3     OH2      OT      -0.834000       15.9994           0
     48878 TIP3     3161     TIP3     H1       HT       0.417000       1.00800           0
     48879 TIP3     3161     TIP3     H2       HT       0.417000       1.00800           0
     48880 TIP3     3162     TIP3     OH2      OT      -0.834000       15.9994           0
     48881 TIP3     3162     TIP3     H1       HT       0.417000       1.00800           0
     48882 TIP3     3162     TIP3     H2       HT       0.417000       1.00800           0
     48883 TIP3     3163     TIP3     OH2      OT      -0.834000       15.9994           0
     48884 TIP3     3163     TIP3     H1       HT       0.417000       1.00800           0
     48885 TIP3     3163     TIP3     H2       HT       0.417000       1.00800           0
     48886 TIP3     3164     TIP3     OH2      OT      -0.834000       15.9994           0
     48887 TIP3     3164     TIP3     H1       HT       0.417000       1.00800           0
     48888 TIP3     3164     TIP3     H2       HT       0.417000       1.00800           0
     48889 TIP3     3165     TIP3     OH2      OT      -0.834000       15.9994           0
     48890 TIP3     3165     TIP3     H1       HT       0.417000       1.00800           0
     48891 TIP3     3165     TIP3     H2       HT       0.417000       1.00800           0
     48892 TIP3     3166     TIP3     OH2      OT      -0.834000       15.9994           0
     48893 TIP3     3166     TIP3     H1       HT       0.417000       1.00800           0
     48894 TIP3     3166     TIP3     H2       HT       0.417000       1.00800           0
     48895 TIP3     3167     TIP3     OH2      OT      -0.834000       15.9994           0
     48896 TIP3     3167     TIP3     H1       HT       0.417000       1.00800           0
     48897 TIP3     3167     TIP3     H2       HT       0.417000       1.00800           0
     48898 TIP3     3168     TIP3     OH2      OT      -0.834000       15.9994           0
     48899 TIP3     3168     TIP3     H1       HT       0.417000       1.00800           0
     48900 TIP3     3168     TIP3     H2       HT       0.417000       1.00800           0
     48901 TIP3     3169     TIP3     OH2      OT      -0.834000       15.9994           0
     48902 TIP3     3169     TIP3     H1       HT       0.417000       1.00800           0
     48903 TIP3     3169     TIP3     H2       HT       0.417000       1.00800           0
     48904 TIP3     3170     TIP3     OH2      OT      -0.834000       15.9994           0
     48905 TIP3     3170     TIP3     H1       HT       0.417000       1.00800           0
     48906 TIP3     3170     TIP3     H2       HT       0.417000       1.00800           0
     48907 TIP3     3171     TIP3     OH2      OT      -0.834000       15.9994           0
     48908 TIP3     3171     TIP3     H1       HT       0.417000       1.00800           0
     48909 TIP3     3171     TIP3     H2       HT       0.417000       1.00800           0
     48910 TIP3     3172     TIP3     OH2      OT      -0.834000       15.9994           0
     48911 TIP3     3172     TIP3     H1       HT       0.417000       1.00800           0
     48912 TIP3     3172     TIP3     H2       HT       0.417000       1.00800           0
     48913 TIP3     3173     TIP3     OH2      OT      -0.834000       15.9994           0
     48914 TIP3     3173     TIP3     H1       HT       0.417000       1.00800           0
     48915 TIP3     3173     TIP3     H2       HT       0.417000       1.00800           0
     48916 TIP3     3174     TIP3     OH2      OT      -0.834000       15.9994           0
     48917 TIP3     3174     TIP3     H1       HT       0.417000       1.00800           0
     48918 TIP3     3174     TIP3     H2       HT       0.417000       1.00800           0
     48919 TIP3     3175     TIP3     OH2      OT      -0.834000       15.9994           0
     48920 TIP3     3175     TIP3     H1       HT       0.417000       1.00800           0
     48921 TIP3     3175     TIP3     H2       HT       0.417000       1.00800           0
     48922 TIP3     3176     TIP3     OH2      OT      -0.834000       15.9994           0
     48923 TIP3     3176     TIP3     H1       HT       0.417000       1.00800           0
     48924 TIP3     3176     TIP3     H2       HT       0.417000       1.00800           0
     48925 TIP3     3177     TIP3     OH2      OT      -0.834000       15.9994           0
     48926 TIP3     3177     TIP3     H1       HT       0.417000       1.00800           0
     48927 TIP3     3177     TIP3     H2       HT       0.417000       1.00800           0
     48928 TIP3     3178     TIP3     OH2      OT      -0.834000       15.9994           0
     48929 TIP3     3178     TIP3     H1       HT       0.417000       1.00800           0
     48930 TIP3     3178     TIP3     H2       HT       0.417000       1.00800           0
     48931 TIP3     3179     TIP3     OH2      OT      -0.834000       15.9994           0
     48932 TIP3     3179     TIP3     H1       HT       0.417000       1.00800           0
     48933 TIP3     3179     TIP3     H2       HT       0.417000       1.00800           0
     48934 TIP3     3180     TIP3     OH2      OT      -0.834000       15.9994           0
     48935 TIP3     3180     TIP3     H1       HT       0.417000       1.00800           0
     48936 TIP3     3180     TIP3     H2       HT       0.417000       1.00800           0
     48937 TIP3     3181     TIP3     OH2      OT      -0.834000       15.9994           0
     48938 TIP3     3181     TIP3     H1       HT       0.417000       1.00800           0
     48939 TIP3     3181     TIP3     H2       HT       0.417000       1.00800           0
     48940 TIP3     3182     TIP3     OH2      OT      -0.834000       15.9994           0
     48941 TIP3     3182     TIP3     H1       HT       0.417000       1.00800           0
     48942 TIP3     3182     TIP3     H2       HT       0.417000       1.00800           0
     48943 TIP3     3183     TIP3     OH2      OT      -0.834000       15.9994           0
     48944 TIP3     3183     TIP3     H1       HT       0.417000       1.00800           0
     48945 TIP3     3183     TIP3     H2       HT       0.417000       1.00800           0
     48946 TIP3     3184     TIP3     OH2      OT      -0.834000       15.9994           0
     48947 TIP3     3184     TIP3     H1       HT       0.417000       1.00800           0
     48948 TIP3     3184     TIP3     H2       HT       0.417000       1.00800           0
     48949 TIP3     3185     TIP3     OH2      OT      -0.834000       15.9994           0
     48950 TIP3     3185     TIP3     H1       HT       0.417000       1.00800           0
     48951 TIP3     3185     TIP3     H2       HT       0.417000       1.00800           0
     48952 TIP3     3186     TIP3     OH2      OT      -0.834000       15.9994           0
     48953 TIP3     3186     TIP3     H1       HT       0.417000       1.00800           0
     48954 TIP3     3186     TIP3     H2       HT       0.417000       1.00800           0
     48955 TIP3     3187     TIP3     OH2      OT      -0.834000       15.9994           0
     48956 TIP3     3187     TIP3     H1       HT       0.417000       1.00800           0
     48957 TIP3     3187     TIP3     H2       HT       0.417000       1.00800           0
     48958 TIP3     3188     TIP3     OH2      OT      -0.834000       15.9994           0
     48959 TIP3     3188     TIP3     H1       HT       0.417000       1.00800           0
     48960 TIP3     3188     TIP3     H2       HT       0.417000       1.00800           0
     48961 TIP3     3189     TIP3     OH2      OT      -0.834000       15.9994           0
     48962 TIP3     3189     TIP3     H1       HT       0.417000       1.00800           0
     48963 TIP3     3189     TIP3     H2       HT       0.417000       1.00800           0
     48964 TIP3     3190     TIP3     OH2      OT      -0.834000       15.9994           0
     48965 TIP3     3190     TIP3     H1       HT       0.417000       1.00800           0
     48966 TIP3     3190     TIP3     H2       HT       0.417000       1.00800           0
     48967 TIP3     3191     TIP3     OH2      OT      -0.834000       15.9994           0
     48968 TIP3     3191     TIP3     H1       HT       0.417000       1.00800           0
     48969 TIP3     3191     TIP3     H2       HT       0.417000       1.00800           0
     48970 TIP3     3192     TIP3     OH2      OT      -0.834000       15.9994           0
     48971 TIP3     3192     TIP3     H1       HT       0.417000       1.00800           0
     48972 TIP3     3192     TIP3     H2       HT       0.417000       1.00800           0
     48973 TIP3     3193     TIP3     OH2      OT      -0.834000       15.9994           0
     48974 TIP3     3193     TIP3     H1       HT       0.417000       1.00800           0
     48975 TIP3     3193     TIP3     H2       HT       0.417000       1.00800           0
     48976 TIP3     3194     TIP3     OH2      OT      -0.834000       15.9994           0
     48977 TIP3     3194     TIP3     H1       HT       0.417000       1.00800           0
     48978 TIP3     3194     TIP3     H2       HT       0.417000       1.00800           0
     48979 TIP3     3195     TIP3     OH2      OT      -0.834000       15.9994           0
     48980 TIP3     3195     TIP3     H1       HT       0.417000       1.00800           0
     48981 TIP3     3195     TIP3     H2       HT       0.417000       1.00800           0
     48982 TIP3     3196     TIP3     OH2      OT      -0.834000       15.9994           0
     48983 TIP3     3196     TIP3     H1       HT       0.417000       1.00800           0
     48984 TIP3     3196     TIP3     H2       HT       0.417000       1.00800           0
     48985 TIP3     3197     TIP3     OH2      OT      -0.834000       15.9994           0
     48986 TIP3     3197     TIP3     H1       HT       0.417000       1.00800           0
     48987 TIP3     3197     TIP3     H2       HT       0.417000       1.00800           0
     48988 TIP3     3198     TIP3     OH2      OT      -0.834000       15.9994           0
     48989 TIP3     3198     TIP3     H1       HT       0.417000       1.00800           0
     48990 TIP3     3198     TIP3     H2       HT       0.417000       1.00800           0
     48991 TIP3     3199     TIP3     OH2      OT      -0.834000       15.9994           0
     48992 TIP3     3199     TIP3     H1       HT       0.417000       1.00800           0
     48993 TIP3     3199     TIP3     H2       HT       0.417000       1.00800           0
     48994 TIP3     3200     TIP3     OH2      OT      -0.834000       15.9994           0
     48995 TIP3     3200     TIP3     H1       HT       0.417000       1.00800           0
     48996 TIP3     3200     TIP3     H2       HT       0.417000       1.00800           0
     48997 TIP3     3201     TIP3     OH2      OT      -0.834000       15.9994           0
     48998 TIP3     3201     TIP3     H1       HT       0.417000       1.00800           0
     48999 TIP3     3201     TIP3     H2       HT       0.417000       1.00800           0
     49000 TIP3     3202     TIP3     OH2      OT      -0.834000       15.9994           0
     49001 TIP3     3202     TIP3     H1       HT       0.417000       1.00800           0
     49002 TIP3     3202     TIP3     H2       HT       0.417000       1.00800           0
     49003 TIP3     3203     TIP3     OH2      OT      -0.834000       15.9994           0
     49004 TIP3     3203     TIP3     H1       HT       0.417000       1.00800           0
     49005 TIP3     3203     TIP3     H2       HT       0.417000       1.00800           0
     49006 TIP3     3204     TIP3     OH2      OT      -0.834000       15.9994           0
     49007 TIP3     3204     TIP3     H1       HT       0.417000       1.00800           0
     49008 TIP3     3204     TIP3     H2       HT       0.417000       1.00800           0
     49009 TIP3     3205     TIP3     OH2      OT      -0.834000       15.9994           0
     49010 TIP3     3205     TIP3     H1       HT       0.417000       1.00800           0
     49011 TIP3     3205     TIP3     H2       HT       0.417000       1.00800           0
     49012 TIP3     3206     TIP3     OH2      OT      -0.834000       15.9994           0
     49013 TIP3     3206     TIP3     H1       HT       0.417000       1.00800           0
     49014 TIP3     3206     TIP3     H2       HT       0.417000       1.00800           0
     49015 TIP3     3207     TIP3     OH2      OT      -0.834000       15.9994           0
     49016 TIP3     3207     TIP3     H1       HT       0.417000       1.00800           0
     49017 TIP3     3207     TIP3     H2       HT       0.417000       1.00800           0
     49018 TIP3     3208     TIP3     OH2      OT      -0.834000       15.9994           0
     49019 TIP3     3208     TIP3     H1       HT       0.417000       1.00800           0
     49020 TIP3     3208     TIP3     H2       HT       0.417000       1.00800           0
     49021 TIP3     3209     TIP3     OH2      OT      -0.834000       15.9994           0
     49022 TIP3     3209     TIP3     H1       HT       0.417000       1.00800           0
     49023 TIP3     3209     TIP3     H2       HT       0.417000       1.00800           0
     49024 TIP3     3210     TIP3     OH2      OT      -0.834000       15.9994           0
     49025 TIP3     3210     TIP3     H1       HT       0.417000       1.00800           0
     49026 TIP3     3210     TIP3     H2       HT       0.417000       1.00800           0
     49027 TIP3     3211     TIP3     OH2      OT      -0.834000       15.9994           0
     49028 TIP3     3211     TIP3     H1       HT       0.417000       1.00800           0
     49029 TIP3     3211     TIP3     H2       HT       0.417000       1.00800           0
     49030 TIP3     3212     TIP3     OH2      OT      -0.834000       15.9994           0
     49031 TIP3     3212     TIP3     H1       HT       0.417000       1.00800           0
     49032 TIP3     3212     TIP3     H2       HT       0.417000       1.00800           0
     49033 TIP3     3213     TIP3     OH2      OT      -0.834000       15.9994           0
     49034 TIP3     3213     TIP3     H1       HT       0.417000       1.00800           0
     49035 TIP3     3213     TIP3     H2       HT       0.417000       1.00800           0
     49036 TIP3     3214     TIP3     OH2      OT      -0.834000       15.9994           0
     49037 TIP3     3214     TIP3     H1       HT       0.417000       1.00800           0
     49038 TIP3     3214     TIP3     H2       HT       0.417000       1.00800           0
     49039 TIP3     3215     TIP3     OH2      OT      -0.834000       15.9994           0
     49040 TIP3     3215     TIP3     H1       HT       0.417000       1.00800           0
     49041 TIP3     3215     TIP3     H2       HT       0.417000       1.00800           0
     49042 TIP3     3216     TIP3     OH2      OT      -0.834000       15.9994           0
     49043 TIP3     3216     TIP3     H1       HT       0.417000       1.00800           0
     49044 TIP3     3216     TIP3     H2       HT       0.417000       1.00800           0
     49045 TIP3     3217     TIP3     OH2      OT      -0.834000       15.9994           0
     49046 TIP3     3217     TIP3     H1       HT       0.417000       1.00800           0
     49047 TIP3     3217     TIP3     H2       HT       0.417000       1.00800           0
     49048 TIP3     3218     TIP3     OH2      OT      -0.834000       15.9994           0
     49049 TIP3     3218     TIP3     H1       HT       0.417000       1.00800           0
     49050 TIP3     3218     TIP3     H2       HT       0.417000       1.00800           0
     49051 TIP3     3219     TIP3     OH2      OT      -0.834000       15.9994           0
     49052 TIP3     3219     TIP3     H1       HT       0.417000       1.00800           0
     49053 TIP3     3219     TIP3     H2       HT       0.417000       1.00800           0
     49054 TIP3     3220     TIP3     OH2      OT      -0.834000       15.9994           0
     49055 TIP3     3220     TIP3     H1       HT       0.417000       1.00800           0
     49056 TIP3     3220     TIP3     H2       HT       0.417000       1.00800           0
     49057 TIP3     3221     TIP3     OH2      OT      -0.834000       15.9994           0
     49058 TIP3     3221     TIP3     H1       HT       0.417000       1.00800           0
     49059 TIP3     3221     TIP3     H2       HT       0.417000       1.00800           0
     49060 TIP3     3222     TIP3     OH2      OT      -0.834000       15.9994           0
     49061 TIP3     3222     TIP3     H1       HT       0.417000       1.00800           0
     49062 TIP3     3222     TIP3     H2       HT       0.417000       1.00800           0
     49063 TIP3     3223     TIP3     OH2      OT      -0.834000       15.9994           0
     49064 TIP3     3223     TIP3     H1       HT       0.417000       1.00800           0
     49065 TIP3     3223     TIP3     H2       HT       0.417000       1.00800           0
     49066 TIP3     3224     TIP3     OH2      OT      -0.834000       15.9994           0
     49067 TIP3     3224     TIP3     H1       HT       0.417000       1.00800           0
     49068 TIP3     3224     TIP3     H2       HT       0.417000       1.00800           0
     49069 TIP3     3225     TIP3     OH2      OT      -0.834000       15.9994           0
     49070 TIP3     3225     TIP3     H1       HT       0.417000       1.00800           0
     49071 TIP3     3225     TIP3     H2       HT       0.417000       1.00800           0
     49072 TIP3     3226     TIP3     OH2      OT      -0.834000       15.9994           0
     49073 TIP3     3226     TIP3     H1       HT       0.417000       1.00800           0
     49074 TIP3     3226     TIP3     H2       HT       0.417000       1.00800           0
     49075 TIP3     3227     TIP3     OH2      OT      -0.834000       15.9994           0
     49076 TIP3     3227     TIP3     H1       HT       0.417000       1.00800           0
     49077 TIP3     3227     TIP3     H2       HT       0.417000       1.00800           0
     49078 TIP3     3228     TIP3     OH2      OT      -0.834000       15.9994           0
     49079 TIP3     3228     TIP3     H1       HT       0.417000       1.00800           0
     49080 TIP3     3228     TIP3     H2       HT       0.417000       1.00800           0
     49081 TIP3     3229     TIP3     OH2      OT      -0.834000       15.9994           0
     49082 TIP3     3229     TIP3     H1       HT       0.417000       1.00800           0
     49083 TIP3     3229     TIP3     H2       HT       0.417000       1.00800           0
     49084 TIP3     3230     TIP3     OH2      OT      -0.834000       15.9994           0
     49085 TIP3     3230     TIP3     H1       HT       0.417000       1.00800           0
     49086 TIP3     3230     TIP3     H2       HT       0.417000       1.00800           0
     49087 TIP3     3231     TIP3     OH2      OT      -0.834000       15.9994           0
     49088 TIP3     3231     TIP3     H1       HT       0.417000       1.00800           0
     49089 TIP3     3231     TIP3     H2       HT       0.417000       1.00800           0
     49090 TIP3     3232     TIP3     OH2      OT      -0.834000       15.9994           0
     49091 TIP3     3232     TIP3     H1       HT       0.417000       1.00800           0
     49092 TIP3     3232     TIP3     H2       HT       0.417000       1.00800           0
     49093 TIP3     3233     TIP3     OH2      OT      -0.834000       15.9994           0
     49094 TIP3     3233     TIP3     H1       HT       0.417000       1.00800           0
     49095 TIP3     3233     TIP3     H2       HT       0.417000       1.00800           0
     49096 TIP3     3234     TIP3     OH2      OT      -0.834000       15.9994           0
     49097 TIP3     3234     TIP3     H1       HT       0.417000       1.00800           0
     49098 TIP3     3234     TIP3     H2       HT       0.417000       1.00800           0
     49099 TIP3     3235     TIP3     OH2      OT      -0.834000       15.9994           0
     49100 TIP3     3235     TIP3     H1       HT       0.417000       1.00800           0
     49101 TIP3     3235     TIP3     H2       HT       0.417000       1.00800           0
     49102 TIP3     3236     TIP3     OH2      OT      -0.834000       15.9994           0
     49103 TIP3     3236     TIP3     H1       HT       0.417000       1.00800           0
     49104 TIP3     3236     TIP3     H2       HT       0.417000       1.00800           0
     49105 TIP3     3237     TIP3     OH2      OT      -0.834000       15.9994           0
     49106 TIP3     3237     TIP3     H1       HT       0.417000       1.00800           0
     49107 TIP3     3237     TIP3     H2       HT       0.417000       1.00800           0
     49108 TIP3     3238     TIP3     OH2      OT      -0.834000       15.9994           0
     49109 TIP3     3238     TIP3     H1       HT       0.417000       1.00800           0
     49110 TIP3     3238     TIP3     H2       HT       0.417000       1.00800           0
     49111 TIP3     3239     TIP3     OH2      OT      -0.834000       15.9994           0
     49112 TIP3     3239     TIP3     H1       HT       0.417000       1.00800           0
     49113 TIP3     3239     TIP3     H2       HT       0.417000       1.00800           0
     49114 TIP3     3240     TIP3     OH2      OT      -0.834000       15.9994           0
     49115 TIP3     3240     TIP3     H1       HT       0.417000       1.00800           0
     49116 TIP3     3240     TIP3     H2       HT       0.417000       1.00800           0
     49117 TIP3     3241     TIP3     OH2      OT      -0.834000       15.9994           0
     49118 TIP3     3241     TIP3     H1       HT       0.417000       1.00800           0
     49119 TIP3     3241     TIP3     H2       HT       0.417000       1.00800           0
     49120 TIP3     3242     TIP3     OH2      OT      -0.834000       15.9994           0
     49121 TIP3     3242     TIP3     H1       HT       0.417000       1.00800           0
     49122 TIP3     3242     TIP3     H2       HT       0.417000       1.00800           0
     49123 TIP3     3243     TIP3     OH2      OT      -0.834000       15.9994           0
     49124 TIP3     3243     TIP3     H1       HT       0.417000       1.00800           0
     49125 TIP3     3243     TIP3     H2       HT       0.417000       1.00800           0
     49126 TIP3     3244     TIP3     OH2      OT      -0.834000       15.9994           0
     49127 TIP3     3244     TIP3     H1       HT       0.417000       1.00800           0
     49128 TIP3     3244     TIP3     H2       HT       0.417000       1.00800           0
     49129 TIP3     3245     TIP3     OH2      OT      -0.834000       15.9994           0
     49130 TIP3     3245     TIP3     H1       HT       0.417000       1.00800           0
     49131 TIP3     3245     TIP3     H2       HT       0.417000       1.00800           0
     49132 TIP3     3246     TIP3     OH2      OT      -0.834000       15.9994           0
     49133 TIP3     3246     TIP3     H1       HT       0.417000       1.00800           0
     49134 TIP3     3246     TIP3     H2       HT       0.417000       1.00800           0
     49135 TIP3     3247     TIP3     OH2      OT      -0.834000       15.9994           0
     49136 TIP3     3247     TIP3     H1       HT       0.417000       1.00800           0
     49137 TIP3     3247     TIP3     H2       HT       0.417000       1.00800           0
     49138 TIP3     3248     TIP3     OH2      OT      -0.834000       15.9994           0
     49139 TIP3     3248     TIP3     H1       HT       0.417000       1.00800           0
     49140 TIP3     3248     TIP3     H2       HT       0.417000       1.00800           0
     49141 TIP3     3249     TIP3     OH2      OT      -0.834000       15.9994           0
     49142 TIP3     3249     TIP3     H1       HT       0.417000       1.00800           0
     49143 TIP3     3249     TIP3     H2       HT       0.417000       1.00800           0
     49144 TIP3     3250     TIP3     OH2      OT      -0.834000       15.9994           0
     49145 TIP3     3250     TIP3     H1       HT       0.417000       1.00800           0
     49146 TIP3     3250     TIP3     H2       HT       0.417000       1.00800           0
     49147 TIP3     3251     TIP3     OH2      OT      -0.834000       15.9994           0
     49148 TIP3     3251     TIP3     H1       HT       0.417000       1.00800           0
     49149 TIP3     3251     TIP3     H2       HT       0.417000       1.00800           0
     49150 TIP3     3252     TIP3     OH2      OT      -0.834000       15.9994           0
     49151 TIP3     3252     TIP3     H1       HT       0.417000       1.00800           0
     49152 TIP3     3252     TIP3     H2       HT       0.417000       1.00800           0
     49153 TIP3     3253     TIP3     OH2      OT      -0.834000       15.9994           0
     49154 TIP3     3253     TIP3     H1       HT       0.417000       1.00800           0
     49155 TIP3     3253     TIP3     H2       HT       0.417000       1.00800           0
     49156 TIP3     3254     TIP3     OH2      OT      -0.834000       15.9994           0
     49157 TIP3     3254     TIP3     H1       HT       0.417000       1.00800           0
     49158 TIP3     3254     TIP3     H2       HT       0.417000       1.00800           0
     49159 TIP3     3255     TIP3     OH2      OT      -0.834000       15.9994           0
     49160 TIP3     3255     TIP3     H1       HT       0.417000       1.00800           0
     49161 TIP3     3255     TIP3     H2       HT       0.417000       1.00800           0
     49162 TIP3     3256     TIP3     OH2      OT      -0.834000       15.9994           0
     49163 TIP3     3256     TIP3     H1       HT       0.417000       1.00800           0
     49164 TIP3     3256     TIP3     H2       HT       0.417000       1.00800           0
     49165 TIP3     3257     TIP3     OH2      OT      -0.834000       15.9994           0
     49166 TIP3     3257     TIP3     H1       HT       0.417000       1.00800           0
     49167 TIP3     3257     TIP3     H2       HT       0.417000       1.00800           0
     49168 TIP3     3258     TIP3     OH2      OT      -0.834000       15.9994           0
     49169 TIP3     3258     TIP3     H1       HT       0.417000       1.00800           0
     49170 TIP3     3258     TIP3     H2       HT       0.417000       1.00800           0
     49171 TIP3     3259     TIP3     OH2      OT      -0.834000       15.9994           0
     49172 TIP3     3259     TIP3     H1       HT       0.417000       1.00800           0
     49173 TIP3     3259     TIP3     H2       HT       0.417000       1.00800           0
     49174 TIP3     3260     TIP3     OH2      OT      -0.834000       15.9994           0
     49175 TIP3     3260     TIP3     H1       HT       0.417000       1.00800           0
     49176 TIP3     3260     TIP3     H2       HT       0.417000       1.00800           0
     49177 TIP3     3261     TIP3     OH2      OT      -0.834000       15.9994           0
     49178 TIP3     3261     TIP3     H1       HT       0.417000       1.00800           0
     49179 TIP3     3261     TIP3     H2       HT       0.417000       1.00800           0
     49180 TIP3     3262     TIP3     OH2      OT      -0.834000       15.9994           0
     49181 TIP3     3262     TIP3     H1       HT       0.417000       1.00800           0
     49182 TIP3     3262     TIP3     H2       HT       0.417000       1.00800           0
     49183 TIP3     3263     TIP3     OH2      OT      -0.834000       15.9994           0
     49184 TIP3     3263     TIP3     H1       HT       0.417000       1.00800           0
     49185 TIP3     3263     TIP3     H2       HT       0.417000       1.00800           0
     49186 TIP3     3264     TIP3     OH2      OT      -0.834000       15.9994           0
     49187 TIP3     3264     TIP3     H1       HT       0.417000       1.00800           0
     49188 TIP3     3264     TIP3     H2       HT       0.417000       1.00800           0
     49189 TIP3     3265     TIP3     OH2      OT      -0.834000       15.9994           0
     49190 TIP3     3265     TIP3     H1       HT       0.417000       1.00800           0
     49191 TIP3     3265     TIP3     H2       HT       0.417000       1.00800           0
     49192 TIP3     3266     TIP3     OH2      OT      -0.834000       15.9994           0
     49193 TIP3     3266     TIP3     H1       HT       0.417000       1.00800           0
     49194 TIP3     3266     TIP3     H2       HT       0.417000       1.00800           0
     49195 TIP3     3267     TIP3     OH2      OT      -0.834000       15.9994           0
     49196 TIP3     3267     TIP3     H1       HT       0.417000       1.00800           0
     49197 TIP3     3267     TIP3     H2       HT       0.417000       1.00800           0
     49198 TIP3     3268     TIP3     OH2      OT      -0.834000       15.9994           0
     49199 TIP3     3268     TIP3     H1       HT       0.417000       1.00800           0
     49200 TIP3     3268     TIP3     H2       HT       0.417000       1.00800           0
     49201 TIP3     3269     TIP3     OH2      OT      -0.834000       15.9994           0
     49202 TIP3     3269     TIP3     H1       HT       0.417000       1.00800           0
     49203 TIP3     3269     TIP3     H2       HT       0.417000       1.00800           0
     49204 TIP3     3270     TIP3     OH2      OT      -0.834000       15.9994           0
     49205 TIP3     3270     TIP3     H1       HT       0.417000       1.00800           0
     49206 TIP3     3270     TIP3     H2       HT       0.417000       1.00800           0
     49207 TIP3     3271     TIP3     OH2      OT      -0.834000       15.9994           0
     49208 TIP3     3271     TIP3     H1       HT       0.417000       1.00800           0
     49209 TIP3     3271     TIP3     H2       HT       0.417000       1.00800           0
     49210 TIP3     3272     TIP3     OH2      OT      -0.834000       15.9994           0
     49211 TIP3     3272     TIP3     H1       HT       0.417000       1.00800           0
     49212 TIP3     3272     TIP3     H2       HT       0.417000       1.00800           0
     49213 TIP3     3273     TIP3     OH2      OT      -0.834000       15.9994           0
     49214 TIP3     3273     TIP3     H1       HT       0.417000       1.00800           0
     49215 TIP3     3273     TIP3     H2       HT       0.417000       1.00800           0
     49216 TIP3     3274     TIP3     OH2      OT      -0.834000       15.9994           0
     49217 TIP3     3274     TIP3     H1       HT       0.417000       1.00800           0
     49218 TIP3     3274     TIP3     H2       HT       0.417000       1.00800           0
     49219 TIP3     3275     TIP3     OH2      OT      -0.834000       15.9994           0
     49220 TIP3     3275     TIP3     H1       HT       0.417000       1.00800           0
     49221 TIP3     3275     TIP3     H2       HT       0.417000       1.00800           0
     49222 TIP3     3276     TIP3     OH2      OT      -0.834000       15.9994           0
     49223 TIP3     3276     TIP3     H1       HT       0.417000       1.00800           0
     49224 TIP3     3276     TIP3     H2       HT       0.417000       1.00800           0
     49225 TIP3     3277     TIP3     OH2      OT      -0.834000       15.9994           0
     49226 TIP3     3277     TIP3     H1       HT       0.417000       1.00800           0
     49227 TIP3     3277     TIP3     H2       HT       0.417000       1.00800           0
     49228 TIP3     3278     TIP3     OH2      OT      -0.834000       15.9994           0
     49229 TIP3     3278     TIP3     H1       HT       0.417000       1.00800           0
     49230 TIP3     3278     TIP3     H2       HT       0.417000       1.00800           0
     49231 TIP3     3279     TIP3     OH2      OT      -0.834000       15.9994           0
     49232 TIP3     3279     TIP3     H1       HT       0.417000       1.00800           0
     49233 TIP3     3279     TIP3     H2       HT       0.417000       1.00800           0
     49234 TIP3     3280     TIP3     OH2      OT      -0.834000       15.9994           0
     49235 TIP3     3280     TIP3     H1       HT       0.417000       1.00800           0
     49236 TIP3     3280     TIP3     H2       HT       0.417000       1.00800           0
     49237 TIP3     3281     TIP3     OH2      OT      -0.834000       15.9994           0
     49238 TIP3     3281     TIP3     H1       HT       0.417000       1.00800           0
     49239 TIP3     3281     TIP3     H2       HT       0.417000       1.00800           0
     49240 TIP3     3282     TIP3     OH2      OT      -0.834000       15.9994           0
     49241 TIP3     3282     TIP3     H1       HT       0.417000       1.00800           0
     49242 TIP3     3282     TIP3     H2       HT       0.417000       1.00800           0
     49243 TIP3     3283     TIP3     OH2      OT      -0.834000       15.9994           0
     49244 TIP3     3283     TIP3     H1       HT       0.417000       1.00800           0
     49245 TIP3     3283     TIP3     H2       HT       0.417000       1.00800           0
     49246 TIP3     3284     TIP3     OH2      OT      -0.834000       15.9994           0
     49247 TIP3     3284     TIP3     H1       HT       0.417000       1.00800           0
     49248 TIP3     3284     TIP3     H2       HT       0.417000       1.00800           0
     49249 TIP3     3285     TIP3     OH2      OT      -0.834000       15.9994           0
     49250 TIP3     3285     TIP3     H1       HT       0.417000       1.00800           0
     49251 TIP3     3285     TIP3     H2       HT       0.417000       1.00800           0
     49252 TIP3     3286     TIP3     OH2      OT      -0.834000       15.9994           0
     49253 TIP3     3286     TIP3     H1       HT       0.417000       1.00800           0
     49254 TIP3     3286     TIP3     H2       HT       0.417000       1.00800           0
     49255 TIP3     3287     TIP3     OH2      OT      -0.834000       15.9994           0
     49256 TIP3     3287     TIP3     H1       HT       0.417000       1.00800           0
     49257 TIP3     3287     TIP3     H2       HT       0.417000       1.00800           0
     49258 TIP3     3288     TIP3     OH2      OT      -0.834000       15.9994           0
     49259 TIP3     3288     TIP3     H1       HT       0.417000       1.00800           0
     49260 TIP3     3288     TIP3     H2       HT       0.417000       1.00800           0
     49261 TIP3     3289     TIP3     OH2      OT      -0.834000       15.9994           0
     49262 TIP3     3289     TIP3     H1       HT       0.417000       1.00800           0
     49263 TIP3     3289     TIP3     H2       HT       0.417000       1.00800           0
     49264 TIP3     3290     TIP3     OH2      OT      -0.834000       15.9994           0
     49265 TIP3     3290     TIP3     H1       HT       0.417000       1.00800           0
     49266 TIP3     3290     TIP3     H2       HT       0.417000       1.00800           0
     49267 TIP3     3291     TIP3     OH2      OT      -0.834000       15.9994           0
     49268 TIP3     3291     TIP3     H1       HT       0.417000       1.00800           0
     49269 TIP3     3291     TIP3     H2       HT       0.417000       1.00800           0
     49270 TIP3     3292     TIP3     OH2      OT      -0.834000       15.9994           0
     49271 TIP3     3292     TIP3     H1       HT       0.417000       1.00800           0
     49272 TIP3     3292     TIP3     H2       HT       0.417000       1.00800           0
     49273 TIP3     3293     TIP3     OH2      OT      -0.834000       15.9994           0
     49274 TIP3     3293     TIP3     H1       HT       0.417000       1.00800           0
     49275 TIP3     3293     TIP3     H2       HT       0.417000       1.00800           0
     49276 TIP3     3294     TIP3     OH2      OT      -0.834000       15.9994           0
     49277 TIP3     3294     TIP3     H1       HT       0.417000       1.00800           0
     49278 TIP3     3294     TIP3     H2       HT       0.417000       1.00800           0
     49279 TIP3     3295     TIP3     OH2      OT      -0.834000       15.9994           0
     49280 TIP3     3295     TIP3     H1       HT       0.417000       1.00800           0
     49281 TIP3     3295     TIP3     H2       HT       0.417000       1.00800           0
     49282 TIP3     3296     TIP3     OH2      OT      -0.834000       15.9994           0
     49283 TIP3     3296     TIP3     H1       HT       0.417000       1.00800           0
     49284 TIP3     3296     TIP3     H2       HT       0.417000       1.00800           0
     49285 TIP3     3297     TIP3     OH2      OT      -0.834000       15.9994           0
     49286 TIP3     3297     TIP3     H1       HT       0.417000       1.00800           0
     49287 TIP3     3297     TIP3     H2       HT       0.417000       1.00800           0
     49288 TIP3     3298     TIP3     OH2      OT      -0.834000       15.9994           0
     49289 TIP3     3298     TIP3     H1       HT       0.417000       1.00800           0
     49290 TIP3     3298     TIP3     H2       HT       0.417000       1.00800           0
     49291 TIP3     3299     TIP3     OH2      OT      -0.834000       15.9994           0
     49292 TIP3     3299     TIP3     H1       HT       0.417000       1.00800           0
     49293 TIP3     3299     TIP3     H2       HT       0.417000       1.00800           0
     49294 TIP3     3300     TIP3     OH2      OT      -0.834000       15.9994           0
     49295 TIP3     3300     TIP3     H1       HT       0.417000       1.00800           0
     49296 TIP3     3300     TIP3     H2       HT       0.417000       1.00800           0
     49297 TIP3     3301     TIP3     OH2      OT      -0.834000       15.9994           0
     49298 TIP3     3301     TIP3     H1       HT       0.417000       1.00800           0
     49299 TIP3     3301     TIP3     H2       HT       0.417000       1.00800           0
     49300 TIP3     3302     TIP3     OH2      OT      -0.834000       15.9994           0
     49301 TIP3     3302     TIP3     H1       HT       0.417000       1.00800           0
     49302 TIP3     3302     TIP3     H2       HT       0.417000       1.00800           0
     49303 TIP3     3303     TIP3     OH2      OT      -0.834000       15.9994           0
     49304 TIP3     3303     TIP3     H1       HT       0.417000       1.00800           0
     49305 TIP3     3303     TIP3     H2       HT       0.417000       1.00800           0
     49306 TIP3     3304     TIP3     OH2      OT      -0.834000       15.9994           0
     49307 TIP3     3304     TIP3     H1       HT       0.417000       1.00800           0
     49308 TIP3     3304     TIP3     H2       HT       0.417000       1.00800           0
     49309 TIP3     3305     TIP3     OH2      OT      -0.834000       15.9994           0
     49310 TIP3     3305     TIP3     H1       HT       0.417000       1.00800           0
     49311 TIP3     3305     TIP3     H2       HT       0.417000       1.00800           0
     49312 TIP3     3306     TIP3     OH2      OT      -0.834000       15.9994           0
     49313 TIP3     3306     TIP3     H1       HT       0.417000       1.00800           0
     49314 TIP3     3306     TIP3     H2       HT       0.417000       1.00800           0
     49315 TIP3     3307     TIP3     OH2      OT      -0.834000       15.9994           0
     49316 TIP3     3307     TIP3     H1       HT       0.417000       1.00800           0
     49317 TIP3     3307     TIP3     H2       HT       0.417000       1.00800           0
     49318 TIP3     3308     TIP3     OH2      OT      -0.834000       15.9994           0
     49319 TIP3     3308     TIP3     H1       HT       0.417000       1.00800           0
     49320 TIP3     3308     TIP3     H2       HT       0.417000       1.00800           0
     49321 TIP3     3309     TIP3     OH2      OT      -0.834000       15.9994           0
     49322 TIP3     3309     TIP3     H1       HT       0.417000       1.00800           0
     49323 TIP3     3309     TIP3     H2       HT       0.417000       1.00800           0
     49324 TIP3     3310     TIP3     OH2      OT      -0.834000       15.9994           0
     49325 TIP3     3310     TIP3     H1       HT       0.417000       1.00800           0
     49326 TIP3     3310     TIP3     H2       HT       0.417000       1.00800           0
     49327 TIP3     3311     TIP3     OH2      OT      -0.834000       15.9994           0
     49328 TIP3     3311     TIP3     H1       HT       0.417000       1.00800           0
     49329 TIP3     3311     TIP3     H2       HT       0.417000       1.00800           0
     49330 TIP3     3312     TIP3     OH2      OT      -0.834000       15.9994           0
     49331 TIP3     3312     TIP3     H1       HT       0.417000       1.00800           0
     49332 TIP3     3312     TIP3     H2       HT       0.417000       1.00800           0
     49333 TIP3     3313     TIP3     OH2      OT      -0.834000       15.9994           0
     49334 TIP3     3313     TIP3     H1       HT       0.417000       1.00800           0
     49335 TIP3     3313     TIP3     H2       HT       0.417000       1.00800           0
     49336 TIP3     3314     TIP3     OH2      OT      -0.834000       15.9994           0
     49337 TIP3     3314     TIP3     H1       HT       0.417000       1.00800           0
     49338 TIP3     3314     TIP3     H2       HT       0.417000       1.00800           0
     49339 TIP3     3315     TIP3     OH2      OT      -0.834000       15.9994           0
     49340 TIP3     3315     TIP3     H1       HT       0.417000       1.00800           0
     49341 TIP3     3315     TIP3     H2       HT       0.417000       1.00800           0
     49342 TIP3     3316     TIP3     OH2      OT      -0.834000       15.9994           0
     49343 TIP3     3316     TIP3     H1       HT       0.417000       1.00800           0
     49344 TIP3     3316     TIP3     H2       HT       0.417000       1.00800           0
     49345 TIP3     3317     TIP3     OH2      OT      -0.834000       15.9994           0
     49346 TIP3     3317     TIP3     H1       HT       0.417000       1.00800           0
     49347 TIP3     3317     TIP3     H2       HT       0.417000       1.00800           0
     49348 TIP3     3318     TIP3     OH2      OT      -0.834000       15.9994           0
     49349 TIP3     3318     TIP3     H1       HT       0.417000       1.00800           0
     49350 TIP3     3318     TIP3     H2       HT       0.417000       1.00800           0
     49351 TIP3     3319     TIP3     OH2      OT      -0.834000       15.9994           0
     49352 TIP3     3319     TIP3     H1       HT       0.417000       1.00800           0
     49353 TIP3     3319     TIP3     H2       HT       0.417000       1.00800           0
     49354 TIP3     3320     TIP3     OH2      OT      -0.834000       15.9994           0
     49355 TIP3     3320     TIP3     H1       HT       0.417000       1.00800           0
     49356 TIP3     3320     TIP3     H2       HT       0.417000       1.00800           0
     49357 TIP3     3321     TIP3     OH2      OT      -0.834000       15.9994           0
     49358 TIP3     3321     TIP3     H1       HT       0.417000       1.00800           0
     49359 TIP3     3321     TIP3     H2       HT       0.417000       1.00800           0
     49360 TIP3     3322     TIP3     OH2      OT      -0.834000       15.9994           0
     49361 TIP3     3322     TIP3     H1       HT       0.417000       1.00800           0
     49362 TIP3     3322     TIP3     H2       HT       0.417000       1.00800           0
     49363 TIP3     3323     TIP3     OH2      OT      -0.834000       15.9994           0
     49364 TIP3     3323     TIP3     H1       HT       0.417000       1.00800           0
     49365 TIP3     3323     TIP3     H2       HT       0.417000       1.00800           0
     49366 TIP3     3324     TIP3     OH2      OT      -0.834000       15.9994           0
     49367 TIP3     3324     TIP3     H1       HT       0.417000       1.00800           0
     49368 TIP3     3324     TIP3     H2       HT       0.417000       1.00800           0
     49369 TIP3     3325     TIP3     OH2      OT      -0.834000       15.9994           0
     49370 TIP3     3325     TIP3     H1       HT       0.417000       1.00800           0
     49371 TIP3     3325     TIP3     H2       HT       0.417000       1.00800           0
     49372 TIP3     3326     TIP3     OH2      OT      -0.834000       15.9994           0
     49373 TIP3     3326     TIP3     H1       HT       0.417000       1.00800           0
     49374 TIP3     3326     TIP3     H2       HT       0.417000       1.00800           0
     49375 TIP3     3327     TIP3     OH2      OT      -0.834000       15.9994           0
     49376 TIP3     3327     TIP3     H1       HT       0.417000       1.00800           0
     49377 TIP3     3327     TIP3     H2       HT       0.417000       1.00800           0
     49378 TIP3     3328     TIP3     OH2      OT      -0.834000       15.9994           0
     49379 TIP3     3328     TIP3     H1       HT       0.417000       1.00800           0
     49380 TIP3     3328     TIP3     H2       HT       0.417000       1.00800           0
     49381 TIP3     3329     TIP3     OH2      OT      -0.834000       15.9994           0
     49382 TIP3     3329     TIP3     H1       HT       0.417000       1.00800           0
     49383 TIP3     3329     TIP3     H2       HT       0.417000       1.00800           0
     49384 TIP3     3330     TIP3     OH2      OT      -0.834000       15.9994           0
     49385 TIP3     3330     TIP3     H1       HT       0.417000       1.00800           0
     49386 TIP3     3330     TIP3     H2       HT       0.417000       1.00800           0
     49387 TIP3     3331     TIP3     OH2      OT      -0.834000       15.9994           0
     49388 TIP3     3331     TIP3     H1       HT       0.417000       1.00800           0
     49389 TIP3     3331     TIP3     H2       HT       0.417000       1.00800           0
     49390 TIP3     3332     TIP3     OH2      OT      -0.834000       15.9994           0
     49391 TIP3     3332     TIP3     H1       HT       0.417000       1.00800           0
     49392 TIP3     3332     TIP3     H2       HT       0.417000       1.00800           0
     49393 TIP3     3333     TIP3     OH2      OT      -0.834000       15.9994           0
     49394 TIP3     3333     TIP3     H1       HT       0.417000       1.00800           0
     49395 TIP3     3333     TIP3     H2       HT       0.417000       1.00800           0
     49396 TIP3     3334     TIP3     OH2      OT      -0.834000       15.9994           0
     49397 TIP3     3334     TIP3     H1       HT       0.417000       1.00800           0
     49398 TIP3     3334     TIP3     H2       HT       0.417000       1.00800           0
     49399 TIP3     3335     TIP3     OH2      OT      -0.834000       15.9994           0
     49400 TIP3     3335     TIP3     H1       HT       0.417000       1.00800           0
     49401 TIP3     3335     TIP3     H2       HT       0.417000       1.00800           0
     49402 TIP3     3336     TIP3     OH2      OT      -0.834000       15.9994           0
     49403 TIP3     3336     TIP3     H1       HT       0.417000       1.00800           0
     49404 TIP3     3336     TIP3     H2       HT       0.417000       1.00800           0
     49405 TIP3     3337     TIP3     OH2      OT      -0.834000       15.9994           0
     49406 TIP3     3337     TIP3     H1       HT       0.417000       1.00800           0
     49407 TIP3     3337     TIP3     H2       HT       0.417000       1.00800           0
     49408 TIP3     3338     TIP3     OH2      OT      -0.834000       15.9994           0
     49409 TIP3     3338     TIP3     H1       HT       0.417000       1.00800           0
     49410 TIP3     3338     TIP3     H2       HT       0.417000       1.00800           0
     49411 TIP3     3339     TIP3     OH2      OT      -0.834000       15.9994           0
     49412 TIP3     3339     TIP3     H1       HT       0.417000       1.00800           0
     49413 TIP3     3339     TIP3     H2       HT       0.417000       1.00800           0
     49414 TIP3     3340     TIP3     OH2      OT      -0.834000       15.9994           0
     49415 TIP3     3340     TIP3     H1       HT       0.417000       1.00800           0
     49416 TIP3     3340     TIP3     H2       HT       0.417000       1.00800           0
     49417 TIP3     3341     TIP3     OH2      OT      -0.834000       15.9994           0
     49418 TIP3     3341     TIP3     H1       HT       0.417000       1.00800           0
     49419 TIP3     3341     TIP3     H2       HT       0.417000       1.00800           0
     49420 TIP3     3342     TIP3     OH2      OT      -0.834000       15.9994           0
     49421 TIP3     3342     TIP3     H1       HT       0.417000       1.00800           0
     49422 TIP3     3342     TIP3     H2       HT       0.417000       1.00800           0
     49423 TIP3     3343     TIP3     OH2      OT      -0.834000       15.9994           0
     49424 TIP3     3343     TIP3     H1       HT       0.417000       1.00800           0
     49425 TIP3     3343     TIP3     H2       HT       0.417000       1.00800           0
     49426 TIP3     3344     TIP3     OH2      OT      -0.834000       15.9994           0
     49427 TIP3     3344     TIP3     H1       HT       0.417000       1.00800           0
     49428 TIP3     3344     TIP3     H2       HT       0.417000       1.00800           0
     49429 TIP3     3345     TIP3     OH2      OT      -0.834000       15.9994           0
     49430 TIP3     3345     TIP3     H1       HT       0.417000       1.00800           0
     49431 TIP3     3345     TIP3     H2       HT       0.417000       1.00800           0
     49432 TIP3     3346     TIP3     OH2      OT      -0.834000       15.9994           0
     49433 TIP3     3346     TIP3     H1       HT       0.417000       1.00800           0
     49434 TIP3     3346     TIP3     H2       HT       0.417000       1.00800           0
     49435 TIP3     3347     TIP3     OH2      OT      -0.834000       15.9994           0
     49436 TIP3     3347     TIP3     H1       HT       0.417000       1.00800           0
     49437 TIP3     3347     TIP3     H2       HT       0.417000       1.00800           0
     49438 TIP3     3348     TIP3     OH2      OT      -0.834000       15.9994           0
     49439 TIP3     3348     TIP3     H1       HT       0.417000       1.00800           0
     49440 TIP3     3348     TIP3     H2       HT       0.417000       1.00800           0
     49441 TIP3     3349     TIP3     OH2      OT      -0.834000       15.9994           0
     49442 TIP3     3349     TIP3     H1       HT       0.417000       1.00800           0
     49443 TIP3     3349     TIP3     H2       HT       0.417000       1.00800           0
     49444 TIP3     3350     TIP3     OH2      OT      -0.834000       15.9994           0
     49445 TIP3     3350     TIP3     H1       HT       0.417000       1.00800           0
     49446 TIP3     3350     TIP3     H2       HT       0.417000       1.00800           0
     49447 TIP3     3351     TIP3     OH2      OT      -0.834000       15.9994           0
     49448 TIP3     3351     TIP3     H1       HT       0.417000       1.00800           0
     49449 TIP3     3351     TIP3     H2       HT       0.417000       1.00800           0
     49450 TIP3     3352     TIP3     OH2      OT      -0.834000       15.9994           0
     49451 TIP3     3352     TIP3     H1       HT       0.417000       1.00800           0
     49452 TIP3     3352     TIP3     H2       HT       0.417000       1.00800           0
     49453 TIP3     3353     TIP3     OH2      OT      -0.834000       15.9994           0
     49454 TIP3     3353     TIP3     H1       HT       0.417000       1.00800           0
     49455 TIP3     3353     TIP3     H2       HT       0.417000       1.00800           0
     49456 TIP3     3354     TIP3     OH2      OT      -0.834000       15.9994           0
     49457 TIP3     3354     TIP3     H1       HT       0.417000       1.00800           0
     49458 TIP3     3354     TIP3     H2       HT       0.417000       1.00800           0
     49459 TIP3     3355     TIP3     OH2      OT      -0.834000       15.9994           0
     49460 TIP3     3355     TIP3     H1       HT       0.417000       1.00800           0
     49461 TIP3     3355     TIP3     H2       HT       0.417000       1.00800           0
     49462 TIP3     3356     TIP3     OH2      OT      -0.834000       15.9994           0
     49463 TIP3     3356     TIP3     H1       HT       0.417000       1.00800           0
     49464 TIP3     3356     TIP3     H2       HT       0.417000       1.00800           0
     49465 TIP3     3357     TIP3     OH2      OT      -0.834000       15.9994           0
     49466 TIP3     3357     TIP3     H1       HT       0.417000       1.00800           0
     49467 TIP3     3357     TIP3     H2       HT       0.417000       1.00800           0
     49468 TIP3     3358     TIP3     OH2      OT      -0.834000       15.9994           0
     49469 TIP3     3358     TIP3     H1       HT       0.417000       1.00800           0
     49470 TIP3     3358     TIP3     H2       HT       0.417000       1.00800           0
     49471 TIP3     3359     TIP3     OH2      OT      -0.834000       15.9994           0
     49472 TIP3     3359     TIP3     H1       HT       0.417000       1.00800           0
     49473 TIP3     3359     TIP3     H2       HT       0.417000       1.00800           0
     49474 TIP3     3360     TIP3     OH2      OT      -0.834000       15.9994           0
     49475 TIP3     3360     TIP3     H1       HT       0.417000       1.00800           0
     49476 TIP3     3360     TIP3     H2       HT       0.417000       1.00800           0
     49477 TIP3     3361     TIP3     OH2      OT      -0.834000       15.9994           0
     49478 TIP3     3361     TIP3     H1       HT       0.417000       1.00800           0
     49479 TIP3     3361     TIP3     H2       HT       0.417000       1.00800           0
     49480 TIP3     3362     TIP3     OH2      OT      -0.834000       15.9994           0
     49481 TIP3     3362     TIP3     H1       HT       0.417000       1.00800           0
     49482 TIP3     3362     TIP3     H2       HT       0.417000       1.00800           0
     49483 TIP3     3363     TIP3     OH2      OT      -0.834000       15.9994           0
     49484 TIP3     3363     TIP3     H1       HT       0.417000       1.00800           0
     49485 TIP3     3363     TIP3     H2       HT       0.417000       1.00800           0
     49486 TIP3     3364     TIP3     OH2      OT      -0.834000       15.9994           0
     49487 TIP3     3364     TIP3     H1       HT       0.417000       1.00800           0
     49488 TIP3     3364     TIP3     H2       HT       0.417000       1.00800           0
     49489 TIP3     3365     TIP3     OH2      OT      -0.834000       15.9994           0
     49490 TIP3     3365     TIP3     H1       HT       0.417000       1.00800           0
     49491 TIP3     3365     TIP3     H2       HT       0.417000       1.00800           0
     49492 TIP3     3366     TIP3     OH2      OT      -0.834000       15.9994           0
     49493 TIP3     3366     TIP3     H1       HT       0.417000       1.00800           0
     49494 TIP3     3366     TIP3     H2       HT       0.417000       1.00800           0
     49495 TIP3     3367     TIP3     OH2      OT      -0.834000       15.9994           0
     49496 TIP3     3367     TIP3     H1       HT       0.417000       1.00800           0
     49497 TIP3     3367     TIP3     H2       HT       0.417000       1.00800           0
     49498 TIP3     3368     TIP3     OH2      OT      -0.834000       15.9994           0
     49499 TIP3     3368     TIP3     H1       HT       0.417000       1.00800           0
     49500 TIP3     3368     TIP3     H2       HT       0.417000       1.00800           0
     49501 TIP3     3369     TIP3     OH2      OT      -0.834000       15.9994           0
     49502 TIP3     3369     TIP3     H1       HT       0.417000       1.00800           0
     49503 TIP3     3369     TIP3     H2       HT       0.417000       1.00800           0
     49504 TIP3     3370     TIP3     OH2      OT      -0.834000       15.9994           0
     49505 TIP3     3370     TIP3     H1       HT       0.417000       1.00800           0
     49506 TIP3     3370     TIP3     H2       HT       0.417000       1.00800           0
     49507 TIP3     3371     TIP3     OH2      OT      -0.834000       15.9994           0
     49508 TIP3     3371     TIP3     H1       HT       0.417000       1.00800           0
     49509 TIP3     3371     TIP3     H2       HT       0.417000       1.00800           0
     49510 TIP3     3372     TIP3     OH2      OT      -0.834000       15.9994           0
     49511 TIP3     3372     TIP3     H1       HT       0.417000       1.00800           0
     49512 TIP3     3372     TIP3     H2       HT       0.417000       1.00800           0
     49513 TIP3     3373     TIP3     OH2      OT      -0.834000       15.9994           0
     49514 TIP3     3373     TIP3     H1       HT       0.417000       1.00800           0
     49515 TIP3     3373     TIP3     H2       HT       0.417000       1.00800           0
     49516 TIP3     3374     TIP3     OH2      OT      -0.834000       15.9994           0
     49517 TIP3     3374     TIP3     H1       HT       0.417000       1.00800           0
     49518 TIP3     3374     TIP3     H2       HT       0.417000       1.00800           0
     49519 TIP3     3375     TIP3     OH2      OT      -0.834000       15.9994           0
     49520 TIP3     3375     TIP3     H1       HT       0.417000       1.00800           0
     49521 TIP3     3375     TIP3     H2       HT       0.417000       1.00800           0
     49522 TIP3     3376     TIP3     OH2      OT      -0.834000       15.9994           0
     49523 TIP3     3376     TIP3     H1       HT       0.417000       1.00800           0
     49524 TIP3     3376     TIP3     H2       HT       0.417000       1.00800           0
     49525 TIP3     3377     TIP3     OH2      OT      -0.834000       15.9994           0
     49526 TIP3     3377     TIP3     H1       HT       0.417000       1.00800           0
     49527 TIP3     3377     TIP3     H2       HT       0.417000       1.00800           0
     49528 TIP3     3378     TIP3     OH2      OT      -0.834000       15.9994           0
     49529 TIP3     3378     TIP3     H1       HT       0.417000       1.00800           0
     49530 TIP3     3378     TIP3     H2       HT       0.417000       1.00800           0
     49531 TIP3     3379     TIP3     OH2      OT      -0.834000       15.9994           0
     49532 TIP3     3379     TIP3     H1       HT       0.417000       1.00800           0
     49533 TIP3     3379     TIP3     H2       HT       0.417000       1.00800           0
     49534 TIP3     3380     TIP3     OH2      OT      -0.834000       15.9994           0
     49535 TIP3     3380     TIP3     H1       HT       0.417000       1.00800           0
     49536 TIP3     3380     TIP3     H2       HT       0.417000       1.00800           0
     49537 TIP3     3381     TIP3     OH2      OT      -0.834000       15.9994           0
     49538 TIP3     3381     TIP3     H1       HT       0.417000       1.00800           0
     49539 TIP3     3381     TIP3     H2       HT       0.417000       1.00800           0
     49540 TIP3     3382     TIP3     OH2      OT      -0.834000       15.9994           0
     49541 TIP3     3382     TIP3     H1       HT       0.417000       1.00800           0
     49542 TIP3     3382     TIP3     H2       HT       0.417000       1.00800           0
     49543 TIP3     3383     TIP3     OH2      OT      -0.834000       15.9994           0
     49544 TIP3     3383     TIP3     H1       HT       0.417000       1.00800           0
     49545 TIP3     3383     TIP3     H2       HT       0.417000       1.00800           0
     49546 TIP3     3384     TIP3     OH2      OT      -0.834000       15.9994           0
     49547 TIP3     3384     TIP3     H1       HT       0.417000       1.00800           0
     49548 TIP3     3384     TIP3     H2       HT       0.417000       1.00800           0
     49549 TIP3     3385     TIP3     OH2      OT      -0.834000       15.9994           0
     49550 TIP3     3385     TIP3     H1       HT       0.417000       1.00800           0
     49551 TIP3     3385     TIP3     H2       HT       0.417000       1.00800           0
     49552 TIP3     3386     TIP3     OH2      OT      -0.834000       15.9994           0
     49553 TIP3     3386     TIP3     H1       HT       0.417000       1.00800           0
     49554 TIP3     3386     TIP3     H2       HT       0.417000       1.00800           0
     49555 TIP3     3387     TIP3     OH2      OT      -0.834000       15.9994           0
     49556 TIP3     3387     TIP3     H1       HT       0.417000       1.00800           0
     49557 TIP3     3387     TIP3     H2       HT       0.417000       1.00800           0
     49558 TIP3     3388     TIP3     OH2      OT      -0.834000       15.9994           0
     49559 TIP3     3388     TIP3     H1       HT       0.417000       1.00800           0
     49560 TIP3     3388     TIP3     H2       HT       0.417000       1.00800           0
     49561 TIP3     3389     TIP3     OH2      OT      -0.834000       15.9994           0
     49562 TIP3     3389     TIP3     H1       HT       0.417000       1.00800           0
     49563 TIP3     3389     TIP3     H2       HT       0.417000       1.00800           0
     49564 TIP3     3390     TIP3     OH2      OT      -0.834000       15.9994           0
     49565 TIP3     3390     TIP3     H1       HT       0.417000       1.00800           0
     49566 TIP3     3390     TIP3     H2       HT       0.417000       1.00800           0
     49567 TIP3     3391     TIP3     OH2      OT      -0.834000       15.9994           0
     49568 TIP3     3391     TIP3     H1       HT       0.417000       1.00800           0
     49569 TIP3     3391     TIP3     H2       HT       0.417000       1.00800           0
     49570 TIP3     3392     TIP3     OH2      OT      -0.834000       15.9994           0
     49571 TIP3     3392     TIP3     H1       HT       0.417000       1.00800           0
     49572 TIP3     3392     TIP3     H2       HT       0.417000       1.00800           0
     49573 TIP3     3393     TIP3     OH2      OT      -0.834000       15.9994           0
     49574 TIP3     3393     TIP3     H1       HT       0.417000       1.00800           0
     49575 TIP3     3393     TIP3     H2       HT       0.417000       1.00800           0
     49576 TIP3     3394     TIP3     OH2      OT      -0.834000       15.9994           0
     49577 TIP3     3394     TIP3     H1       HT       0.417000       1.00800           0
     49578 TIP3     3394     TIP3     H2       HT       0.417000       1.00800           0
     49579 TIP3     3395     TIP3     OH2      OT      -0.834000       15.9994           0
     49580 TIP3     3395     TIP3     H1       HT       0.417000       1.00800           0
     49581 TIP3     3395     TIP3     H2       HT       0.417000       1.00800           0
     49582 TIP3     3396     TIP3     OH2      OT      -0.834000       15.9994           0
     49583 TIP3     3396     TIP3     H1       HT       0.417000       1.00800           0
     49584 TIP3     3396     TIP3     H2       HT       0.417000       1.00800           0
     49585 TIP3     3397     TIP3     OH2      OT      -0.834000       15.9994           0
     49586 TIP3     3397     TIP3     H1       HT       0.417000       1.00800           0
     49587 TIP3     3397     TIP3     H2       HT       0.417000       1.00800           0
     49588 TIP3     3398     TIP3     OH2      OT      -0.834000       15.9994           0
     49589 TIP3     3398     TIP3     H1       HT       0.417000       1.00800           0
     49590 TIP3     3398     TIP3     H2       HT       0.417000       1.00800           0
     49591 TIP3     3399     TIP3     OH2      OT      -0.834000       15.9994           0
     49592 TIP3     3399     TIP3     H1       HT       0.417000       1.00800           0
     49593 TIP3     3399     TIP3     H2       HT       0.417000       1.00800           0
     49594 TIP3     3400     TIP3     OH2      OT      -0.834000       15.9994           0
     49595 TIP3     3400     TIP3     H1       HT       0.417000       1.00800           0
     49596 TIP3     3400     TIP3     H2       HT       0.417000       1.00800           0
     49597 TIP3     3401     TIP3     OH2      OT      -0.834000       15.9994           0
     49598 TIP3     3401     TIP3     H1       HT       0.417000       1.00800           0
     49599 TIP3     3401     TIP3     H2       HT       0.417000       1.00800           0
     49600 TIP3     3402     TIP3     OH2      OT      -0.834000       15.9994           0
     49601 TIP3     3402     TIP3     H1       HT       0.417000       1.00800           0
     49602 TIP3     3402     TIP3     H2       HT       0.417000       1.00800           0
     49603 TIP3     3403     TIP3     OH2      OT      -0.834000       15.9994           0
     49604 TIP3     3403     TIP3     H1       HT       0.417000       1.00800           0
     49605 TIP3     3403     TIP3     H2       HT       0.417000       1.00800           0
     49606 TIP3     3404     TIP3     OH2      OT      -0.834000       15.9994           0
     49607 TIP3     3404     TIP3     H1       HT       0.417000       1.00800           0
     49608 TIP3     3404     TIP3     H2       HT       0.417000       1.00800           0
     49609 TIP3     3405     TIP3     OH2      OT      -0.834000       15.9994           0
     49610 TIP3     3405     TIP3     H1       HT       0.417000       1.00800           0
     49611 TIP3     3405     TIP3     H2       HT       0.417000       1.00800           0
     49612 TIP3     3406     TIP3     OH2      OT      -0.834000       15.9994           0
     49613 TIP3     3406     TIP3     H1       HT       0.417000       1.00800           0
     49614 TIP3     3406     TIP3     H2       HT       0.417000       1.00800           0
     49615 TIP3     3407     TIP3     OH2      OT      -0.834000       15.9994           0
     49616 TIP3     3407     TIP3     H1       HT       0.417000       1.00800           0
     49617 TIP3     3407     TIP3     H2       HT       0.417000       1.00800           0
     49618 TIP3     3408     TIP3     OH2      OT      -0.834000       15.9994           0
     49619 TIP3     3408     TIP3     H1       HT       0.417000       1.00800           0
     49620 TIP3     3408     TIP3     H2       HT       0.417000       1.00800           0
     49621 TIP3     3409     TIP3     OH2      OT      -0.834000       15.9994           0
     49622 TIP3     3409     TIP3     H1       HT       0.417000       1.00800           0
     49623 TIP3     3409     TIP3     H2       HT       0.417000       1.00800           0
     49624 TIP3     3410     TIP3     OH2      OT      -0.834000       15.9994           0
     49625 TIP3     3410     TIP3     H1       HT       0.417000       1.00800           0
     49626 TIP3     3410     TIP3     H2       HT       0.417000       1.00800           0
     49627 TIP3     3411     TIP3     OH2      OT      -0.834000       15.9994           0
     49628 TIP3     3411     TIP3     H1       HT       0.417000       1.00800           0
     49629 TIP3     3411     TIP3     H2       HT       0.417000       1.00800           0
     49630 TIP3     3412     TIP3     OH2      OT      -0.834000       15.9994           0
     49631 TIP3     3412     TIP3     H1       HT       0.417000       1.00800           0
     49632 TIP3     3412     TIP3     H2       HT       0.417000       1.00800           0
     49633 TIP3     3413     TIP3     OH2      OT      -0.834000       15.9994           0
     49634 TIP3     3413     TIP3     H1       HT       0.417000       1.00800           0
     49635 TIP3     3413     TIP3     H2       HT       0.417000       1.00800           0
     49636 TIP3     3414     TIP3     OH2      OT      -0.834000       15.9994           0
     49637 TIP3     3414     TIP3     H1       HT       0.417000       1.00800           0
     49638 TIP3     3414     TIP3     H2       HT       0.417000       1.00800           0
     49639 TIP3     3415     TIP3     OH2      OT      -0.834000       15.9994           0
     49640 TIP3     3415     TIP3     H1       HT       0.417000       1.00800           0
     49641 TIP3     3415     TIP3     H2       HT       0.417000       1.00800           0
     49642 TIP3     3416     TIP3     OH2      OT      -0.834000       15.9994           0
     49643 TIP3     3416     TIP3     H1       HT       0.417000       1.00800           0
     49644 TIP3     3416     TIP3     H2       HT       0.417000       1.00800           0
     49645 TIP3     3417     TIP3     OH2      OT      -0.834000       15.9994           0
     49646 TIP3     3417     TIP3     H1       HT       0.417000       1.00800           0
     49647 TIP3     3417     TIP3     H2       HT       0.417000       1.00800           0
     49648 TIP3     3418     TIP3     OH2      OT      -0.834000       15.9994           0
     49649 TIP3     3418     TIP3     H1       HT       0.417000       1.00800           0
     49650 TIP3     3418     TIP3     H2       HT       0.417000       1.00800           0
     49651 TIP3     3419     TIP3     OH2      OT      -0.834000       15.9994           0
     49652 TIP3     3419     TIP3     H1       HT       0.417000       1.00800           0
     49653 TIP3     3419     TIP3     H2       HT       0.417000       1.00800           0
     49654 TIP3     3420     TIP3     OH2      OT      -0.834000       15.9994           0
     49655 TIP3     3420     TIP3     H1       HT       0.417000       1.00800           0
     49656 TIP3     3420     TIP3     H2       HT       0.417000       1.00800           0
     49657 TIP3     3421     TIP3     OH2      OT      -0.834000       15.9994           0
     49658 TIP3     3421     TIP3     H1       HT       0.417000       1.00800           0
     49659 TIP3     3421     TIP3     H2       HT       0.417000       1.00800           0
     49660 TIP3     3422     TIP3     OH2      OT      -0.834000       15.9994           0
     49661 TIP3     3422     TIP3     H1       HT       0.417000       1.00800           0
     49662 TIP3     3422     TIP3     H2       HT       0.417000       1.00800           0
     49663 TIP3     3423     TIP3     OH2      OT      -0.834000       15.9994           0
     49664 TIP3     3423     TIP3     H1       HT       0.417000       1.00800           0
     49665 TIP3     3423     TIP3     H2       HT       0.417000       1.00800           0
     49666 TIP3     3424     TIP3     OH2      OT      -0.834000       15.9994           0
     49667 TIP3     3424     TIP3     H1       HT       0.417000       1.00800           0
     49668 TIP3     3424     TIP3     H2       HT       0.417000       1.00800           0
     49669 TIP3     3425     TIP3     OH2      OT      -0.834000       15.9994           0
     49670 TIP3     3425     TIP3     H1       HT       0.417000       1.00800           0
     49671 TIP3     3425     TIP3     H2       HT       0.417000       1.00800           0
     49672 TIP3     3426     TIP3     OH2      OT      -0.834000       15.9994           0
     49673 TIP3     3426     TIP3     H1       HT       0.417000       1.00800           0
     49674 TIP3     3426     TIP3     H2       HT       0.417000       1.00800           0
     49675 TIP3     3427     TIP3     OH2      OT      -0.834000       15.9994           0
     49676 TIP3     3427     TIP3     H1       HT       0.417000       1.00800           0
     49677 TIP3     3427     TIP3     H2       HT       0.417000       1.00800           0
     49678 TIP3     3428     TIP3     OH2      OT      -0.834000       15.9994           0
     49679 TIP3     3428     TIP3     H1       HT       0.417000       1.00800           0
     49680 TIP3     3428     TIP3     H2       HT       0.417000       1.00800           0
     49681 TIP3     3429     TIP3     OH2      OT      -0.834000       15.9994           0
     49682 TIP3     3429     TIP3     H1       HT       0.417000       1.00800           0
     49683 TIP3     3429     TIP3     H2       HT       0.417000       1.00800           0
     49684 TIP3     3430     TIP3     OH2      OT      -0.834000       15.9994           0
     49685 TIP3     3430     TIP3     H1       HT       0.417000       1.00800           0
     49686 TIP3     3430     TIP3     H2       HT       0.417000       1.00800           0
     49687 TIP3     3431     TIP3     OH2      OT      -0.834000       15.9994           0
     49688 TIP3     3431     TIP3     H1       HT       0.417000       1.00800           0
     49689 TIP3     3431     TIP3     H2       HT       0.417000       1.00800           0
     49690 TIP3     3432     TIP3     OH2      OT      -0.834000       15.9994           0
     49691 TIP3     3432     TIP3     H1       HT       0.417000       1.00800           0
     49692 TIP3     3432     TIP3     H2       HT       0.417000       1.00800           0
     49693 TIP3     3433     TIP3     OH2      OT      -0.834000       15.9994           0
     49694 TIP3     3433     TIP3     H1       HT       0.417000       1.00800           0
     49695 TIP3     3433     TIP3     H2       HT       0.417000       1.00800           0
     49696 TIP3     3434     TIP3     OH2      OT      -0.834000       15.9994           0
     49697 TIP3     3434     TIP3     H1       HT       0.417000       1.00800           0
     49698 TIP3     3434     TIP3     H2       HT       0.417000       1.00800           0
     49699 TIP3     3435     TIP3     OH2      OT      -0.834000       15.9994           0
     49700 TIP3     3435     TIP3     H1       HT       0.417000       1.00800           0
     49701 TIP3     3435     TIP3     H2       HT       0.417000       1.00800           0
     49702 TIP3     3436     TIP3     OH2      OT      -0.834000       15.9994           0
     49703 TIP3     3436     TIP3     H1       HT       0.417000       1.00800           0
     49704 TIP3     3436     TIP3     H2       HT       0.417000       1.00800           0
     49705 TIP3     3437     TIP3     OH2      OT      -0.834000       15.9994           0
     49706 TIP3     3437     TIP3     H1       HT       0.417000       1.00800           0
     49707 TIP3     3437     TIP3     H2       HT       0.417000       1.00800           0
     49708 TIP3     3438     TIP3     OH2      OT      -0.834000       15.9994           0
     49709 TIP3     3438     TIP3     H1       HT       0.417000       1.00800           0
     49710 TIP3     3438     TIP3     H2       HT       0.417000       1.00800           0
     49711 TIP3     3439     TIP3     OH2      OT      -0.834000       15.9994           0
     49712 TIP3     3439     TIP3     H1       HT       0.417000       1.00800           0
     49713 TIP3     3439     TIP3     H2       HT       0.417000       1.00800           0
     49714 TIP3     3440     TIP3     OH2      OT      -0.834000       15.9994           0
     49715 TIP3     3440     TIP3     H1       HT       0.417000       1.00800           0
     49716 TIP3     3440     TIP3     H2       HT       0.417000       1.00800           0
     49717 TIP3     3441     TIP3     OH2      OT      -0.834000       15.9994           0
     49718 TIP3     3441     TIP3     H1       HT       0.417000       1.00800           0
     49719 TIP3     3441     TIP3     H2       HT       0.417000       1.00800           0
     49720 TIP3     3442     TIP3     OH2      OT      -0.834000       15.9994           0
     49721 TIP3     3442     TIP3     H1       HT       0.417000       1.00800           0
     49722 TIP3     3442     TIP3     H2       HT       0.417000       1.00800           0
     49723 TIP3     3443     TIP3     OH2      OT      -0.834000       15.9994           0
     49724 TIP3     3443     TIP3     H1       HT       0.417000       1.00800           0
     49725 TIP3     3443     TIP3     H2       HT       0.417000       1.00800           0
     49726 TIP3     3444     TIP3     OH2      OT      -0.834000       15.9994           0
     49727 TIP3     3444     TIP3     H1       HT       0.417000       1.00800           0
     49728 TIP3     3444     TIP3     H2       HT       0.417000       1.00800           0
     49729 TIP3     3445     TIP3     OH2      OT      -0.834000       15.9994           0
     49730 TIP3     3445     TIP3     H1       HT       0.417000       1.00800           0
     49731 TIP3     3445     TIP3     H2       HT       0.417000       1.00800           0
     49732 TIP3     3446     TIP3     OH2      OT      -0.834000       15.9994           0
     49733 TIP3     3446     TIP3     H1       HT       0.417000       1.00800           0
     49734 TIP3     3446     TIP3     H2       HT       0.417000       1.00800           0
     49735 TIP3     3447     TIP3     OH2      OT      -0.834000       15.9994           0
     49736 TIP3     3447     TIP3     H1       HT       0.417000       1.00800           0
     49737 TIP3     3447     TIP3     H2       HT       0.417000       1.00800           0
     49738 TIP3     3448     TIP3     OH2      OT      -0.834000       15.9994           0
     49739 TIP3     3448     TIP3     H1       HT       0.417000       1.00800           0
     49740 TIP3     3448     TIP3     H2       HT       0.417000       1.00800           0
     49741 TIP3     3449     TIP3     OH2      OT      -0.834000       15.9994           0
     49742 TIP3     3449     TIP3     H1       HT       0.417000       1.00800           0
     49743 TIP3     3449     TIP3     H2       HT       0.417000       1.00800           0
     49744 TIP3     3450     TIP3     OH2      OT      -0.834000       15.9994           0
     49745 TIP3     3450     TIP3     H1       HT       0.417000       1.00800           0
     49746 TIP3     3450     TIP3     H2       HT       0.417000       1.00800           0
     49747 TIP3     3451     TIP3     OH2      OT      -0.834000       15.9994           0
     49748 TIP3     3451     TIP3     H1       HT       0.417000       1.00800           0
     49749 TIP3     3451     TIP3     H2       HT       0.417000       1.00800           0
     49750 TIP3     3452     TIP3     OH2      OT      -0.834000       15.9994           0
     49751 TIP3     3452     TIP3     H1       HT       0.417000       1.00800           0
     49752 TIP3     3452     TIP3     H2       HT       0.417000       1.00800           0
     49753 TIP3     3453     TIP3     OH2      OT      -0.834000       15.9994           0
     49754 TIP3     3453     TIP3     H1       HT       0.417000       1.00800           0
     49755 TIP3     3453     TIP3     H2       HT       0.417000       1.00800           0
     49756 TIP3     3454     TIP3     OH2      OT      -0.834000       15.9994           0
     49757 TIP3     3454     TIP3     H1       HT       0.417000       1.00800           0
     49758 TIP3     3454     TIP3     H2       HT       0.417000       1.00800           0
     49759 TIP3     3455     TIP3     OH2      OT      -0.834000       15.9994           0
     49760 TIP3     3455     TIP3     H1       HT       0.417000       1.00800           0
     49761 TIP3     3455     TIP3     H2       HT       0.417000       1.00800           0
     49762 TIP3     3456     TIP3     OH2      OT      -0.834000       15.9994           0
     49763 TIP3     3456     TIP3     H1       HT       0.417000       1.00800           0
     49764 TIP3     3456     TIP3     H2       HT       0.417000       1.00800           0
     49765 TIP3     3457     TIP3     OH2      OT      -0.834000       15.9994           0
     49766 TIP3     3457     TIP3     H1       HT       0.417000       1.00800           0
     49767 TIP3     3457     TIP3     H2       HT       0.417000       1.00800           0
     49768 TIP3     3458     TIP3     OH2      OT      -0.834000       15.9994           0
     49769 TIP3     3458     TIP3     H1       HT       0.417000       1.00800           0
     49770 TIP3     3458     TIP3     H2       HT       0.417000       1.00800           0
     49771 TIP3     3459     TIP3     OH2      OT      -0.834000       15.9994           0
     49772 TIP3     3459     TIP3     H1       HT       0.417000       1.00800           0
     49773 TIP3     3459     TIP3     H2       HT       0.417000       1.00800           0
     49774 TIP3     3460     TIP3     OH2      OT      -0.834000       15.9994           0
     49775 TIP3     3460     TIP3     H1       HT       0.417000       1.00800           0
     49776 TIP3     3460     TIP3     H2       HT       0.417000       1.00800           0
     49777 TIP3     3461     TIP3     OH2      OT      -0.834000       15.9994           0
     49778 TIP3     3461     TIP3     H1       HT       0.417000       1.00800           0
     49779 TIP3     3461     TIP3     H2       HT       0.417000       1.00800           0
     49780 TIP3     3462     TIP3     OH2      OT      -0.834000       15.9994           0
     49781 TIP3     3462     TIP3     H1       HT       0.417000       1.00800           0
     49782 TIP3     3462     TIP3     H2       HT       0.417000       1.00800           0
     49783 TIP3     3463     TIP3     OH2      OT      -0.834000       15.9994           0
     49784 TIP3     3463     TIP3     H1       HT       0.417000       1.00800           0
     49785 TIP3     3463     TIP3     H2       HT       0.417000       1.00800           0
     49786 TIP3     3464     TIP3     OH2      OT      -0.834000       15.9994           0
     49787 TIP3     3464     TIP3     H1       HT       0.417000       1.00800           0
     49788 TIP3     3464     TIP3     H2       HT       0.417000       1.00800           0
     49789 TIP3     3465     TIP3     OH2      OT      -0.834000       15.9994           0
     49790 TIP3     3465     TIP3     H1       HT       0.417000       1.00800           0
     49791 TIP3     3465     TIP3     H2       HT       0.417000       1.00800           0
     49792 TIP3     3466     TIP3     OH2      OT      -0.834000       15.9994           0
     49793 TIP3     3466     TIP3     H1       HT       0.417000       1.00800           0
     49794 TIP3     3466     TIP3     H2       HT       0.417000       1.00800           0
     49795 TIP3     3467     TIP3     OH2      OT      -0.834000       15.9994           0
     49796 TIP3     3467     TIP3     H1       HT       0.417000       1.00800           0
     49797 TIP3     3467     TIP3     H2       HT       0.417000       1.00800           0
     49798 TIP3     3468     TIP3     OH2      OT      -0.834000       15.9994           0
     49799 TIP3     3468     TIP3     H1       HT       0.417000       1.00800           0
     49800 TIP3     3468     TIP3     H2       HT       0.417000       1.00800           0
     49801 TIP3     3469     TIP3     OH2      OT      -0.834000       15.9994           0
     49802 TIP3     3469     TIP3     H1       HT       0.417000       1.00800           0
     49803 TIP3     3469     TIP3     H2       HT       0.417000       1.00800           0
     49804 TIP3     3470     TIP3     OH2      OT      -0.834000       15.9994           0
     49805 TIP3     3470     TIP3     H1       HT       0.417000       1.00800           0
     49806 TIP3     3470     TIP3     H2       HT       0.417000       1.00800           0
     49807 TIP3     3471     TIP3     OH2      OT      -0.834000       15.9994           0
     49808 TIP3     3471     TIP3     H1       HT       0.417000       1.00800           0
     49809 TIP3     3471     TIP3     H2       HT       0.417000       1.00800           0
     49810 TIP3     3472     TIP3     OH2      OT      -0.834000       15.9994           0
     49811 TIP3     3472     TIP3     H1       HT       0.417000       1.00800           0
     49812 TIP3     3472     TIP3     H2       HT       0.417000       1.00800           0
     49813 TIP3     3473     TIP3     OH2      OT      -0.834000       15.9994           0
     49814 TIP3     3473     TIP3     H1       HT       0.417000       1.00800           0
     49815 TIP3     3473     TIP3     H2       HT       0.417000       1.00800           0
     49816 TIP3     3474     TIP3     OH2      OT      -0.834000       15.9994           0
     49817 TIP3     3474     TIP3     H1       HT       0.417000       1.00800           0
     49818 TIP3     3474     TIP3     H2       HT       0.417000       1.00800           0
     49819 TIP3     3475     TIP3     OH2      OT      -0.834000       15.9994           0
     49820 TIP3     3475     TIP3     H1       HT       0.417000       1.00800           0
     49821 TIP3     3475     TIP3     H2       HT       0.417000       1.00800           0
     49822 TIP3     3476     TIP3     OH2      OT      -0.834000       15.9994           0
     49823 TIP3     3476     TIP3     H1       HT       0.417000       1.00800           0
     49824 TIP3     3476     TIP3     H2       HT       0.417000       1.00800           0
     49825 TIP3     3477     TIP3     OH2      OT      -0.834000       15.9994           0
     49826 TIP3     3477     TIP3     H1       HT       0.417000       1.00800           0
     49827 TIP3     3477     TIP3     H2       HT       0.417000       1.00800           0
     49828 TIP3     3478     TIP3     OH2      OT      -0.834000       15.9994           0
     49829 TIP3     3478     TIP3     H1       HT       0.417000       1.00800           0
     49830 TIP3     3478     TIP3     H2       HT       0.417000       1.00800           0
     49831 TIP3     3479     TIP3     OH2      OT      -0.834000       15.9994           0
     49832 TIP3     3479     TIP3     H1       HT       0.417000       1.00800           0
     49833 TIP3     3479     TIP3     H2       HT       0.417000       1.00800           0
     49834 TIP3     3480     TIP3     OH2      OT      -0.834000       15.9994           0
     49835 TIP3     3480     TIP3     H1       HT       0.417000       1.00800           0
     49836 TIP3     3480     TIP3     H2       HT       0.417000       1.00800           0
     49837 TIP3     3481     TIP3     OH2      OT      -0.834000       15.9994           0
     49838 TIP3     3481     TIP3     H1       HT       0.417000       1.00800           0
     49839 TIP3     3481     TIP3     H2       HT       0.417000       1.00800           0
     49840 TIP3     3482     TIP3     OH2      OT      -0.834000       15.9994           0
     49841 TIP3     3482     TIP3     H1       HT       0.417000       1.00800           0
     49842 TIP3     3482     TIP3     H2       HT       0.417000       1.00800           0
     49843 TIP3     3483     TIP3     OH2      OT      -0.834000       15.9994           0
     49844 TIP3     3483     TIP3     H1       HT       0.417000       1.00800           0
     49845 TIP3     3483     TIP3     H2       HT       0.417000       1.00800           0
     49846 TIP3     3484     TIP3     OH2      OT      -0.834000       15.9994           0
     49847 TIP3     3484     TIP3     H1       HT       0.417000       1.00800           0
     49848 TIP3     3484     TIP3     H2       HT       0.417000       1.00800           0
     49849 TIP3     3485     TIP3     OH2      OT      -0.834000       15.9994           0
     49850 TIP3     3485     TIP3     H1       HT       0.417000       1.00800           0
     49851 TIP3     3485     TIP3     H2       HT       0.417000       1.00800           0
     49852 TIP3     3486     TIP3     OH2      OT      -0.834000       15.9994           0
     49853 TIP3     3486     TIP3     H1       HT       0.417000       1.00800           0
     49854 TIP3     3486     TIP3     H2       HT       0.417000       1.00800           0
     49855 TIP3     3487     TIP3     OH2      OT      -0.834000       15.9994           0
     49856 TIP3     3487     TIP3     H1       HT       0.417000       1.00800           0
     49857 TIP3     3487     TIP3     H2       HT       0.417000       1.00800           0
     49858 TIP3     3488     TIP3     OH2      OT      -0.834000       15.9994           0
     49859 TIP3     3488     TIP3     H1       HT       0.417000       1.00800           0
     49860 TIP3     3488     TIP3     H2       HT       0.417000       1.00800           0
     49861 TIP3     3489     TIP3     OH2      OT      -0.834000       15.9994           0
     49862 TIP3     3489     TIP3     H1       HT       0.417000       1.00800           0
     49863 TIP3     3489     TIP3     H2       HT       0.417000       1.00800           0
     49864 TIP3     3490     TIP3     OH2      OT      -0.834000       15.9994           0
     49865 TIP3     3490     TIP3     H1       HT       0.417000       1.00800           0
     49866 TIP3     3490     TIP3     H2       HT       0.417000       1.00800           0
     49867 TIP3     3491     TIP3     OH2      OT      -0.834000       15.9994           0
     49868 TIP3     3491     TIP3     H1       HT       0.417000       1.00800           0
     49869 TIP3     3491     TIP3     H2       HT       0.417000       1.00800           0
     49870 TIP3     3492     TIP3     OH2      OT      -0.834000       15.9994           0
     49871 TIP3     3492     TIP3     H1       HT       0.417000       1.00800           0
     49872 TIP3     3492     TIP3     H2       HT       0.417000       1.00800           0
     49873 TIP3     3493     TIP3     OH2      OT      -0.834000       15.9994           0
     49874 TIP3     3493     TIP3     H1       HT       0.417000       1.00800           0
     49875 TIP3     3493     TIP3     H2       HT       0.417000       1.00800           0
     49876 TIP3     3494     TIP3     OH2      OT      -0.834000       15.9994           0
     49877 TIP3     3494     TIP3     H1       HT       0.417000       1.00800           0
     49878 TIP3     3494     TIP3     H2       HT       0.417000       1.00800           0
     49879 TIP3     3495     TIP3     OH2      OT      -0.834000       15.9994           0
     49880 TIP3     3495     TIP3     H1       HT       0.417000       1.00800           0
     49881 TIP3     3495     TIP3     H2       HT       0.417000       1.00800           0
     49882 TIP3     3496     TIP3     OH2      OT      -0.834000       15.9994           0
     49883 TIP3     3496     TIP3     H1       HT       0.417000       1.00800           0
     49884 TIP3     3496     TIP3     H2       HT       0.417000       1.00800           0
     49885 TIP3     3497     TIP3     OH2      OT      -0.834000       15.9994           0
     49886 TIP3     3497     TIP3     H1       HT       0.417000       1.00800           0
     49887 TIP3     3497     TIP3     H2       HT       0.417000       1.00800           0
     49888 TIP3     3498     TIP3     OH2      OT      -0.834000       15.9994           0
     49889 TIP3     3498     TIP3     H1       HT       0.417000       1.00800           0
     49890 TIP3     3498     TIP3     H2       HT       0.417000       1.00800           0
     49891 TIP3     3499     TIP3     OH2      OT      -0.834000       15.9994           0
     49892 TIP3     3499     TIP3     H1       HT       0.417000       1.00800           0
     49893 TIP3     3499     TIP3     H2       HT       0.417000       1.00800           0
     49894 TIP3     3500     TIP3     OH2      OT      -0.834000       15.9994           0
     49895 TIP3     3500     TIP3     H1       HT       0.417000       1.00800           0
     49896 TIP3     3500     TIP3     H2       HT       0.417000       1.00800           0
     49897 TIP3     3501     TIP3     OH2      OT      -0.834000       15.9994           0
     49898 TIP3     3501     TIP3     H1       HT       0.417000       1.00800           0
     49899 TIP3     3501     TIP3     H2       HT       0.417000       1.00800           0
     49900 TIP3     3502     TIP3     OH2      OT      -0.834000       15.9994           0
     49901 TIP3     3502     TIP3     H1       HT       0.417000       1.00800           0
     49902 TIP3     3502     TIP3     H2       HT       0.417000       1.00800           0
     49903 TIP3     3503     TIP3     OH2      OT      -0.834000       15.9994           0
     49904 TIP3     3503     TIP3     H1       HT       0.417000       1.00800           0
     49905 TIP3     3503     TIP3     H2       HT       0.417000       1.00800           0
     49906 TIP3     3504     TIP3     OH2      OT      -0.834000       15.9994           0
     49907 TIP3     3504     TIP3     H1       HT       0.417000       1.00800           0
     49908 TIP3     3504     TIP3     H2       HT       0.417000       1.00800           0
     49909 TIP3     3505     TIP3     OH2      OT      -0.834000       15.9994           0
     49910 TIP3     3505     TIP3     H1       HT       0.417000       1.00800           0
     49911 TIP3     3505     TIP3     H2       HT       0.417000       1.00800           0
     49912 TIP3     3506     TIP3     OH2      OT      -0.834000       15.9994           0
     49913 TIP3     3506     TIP3     H1       HT       0.417000       1.00800           0
     49914 TIP3     3506     TIP3     H2       HT       0.417000       1.00800           0
     49915 TIP3     3507     TIP3     OH2      OT      -0.834000       15.9994           0
     49916 TIP3     3507     TIP3     H1       HT       0.417000       1.00800           0
     49917 TIP3     3507     TIP3     H2       HT       0.417000       1.00800           0
     49918 TIP3     3508     TIP3     OH2      OT      -0.834000       15.9994           0
     49919 TIP3     3508     TIP3     H1       HT       0.417000       1.00800           0
     49920 TIP3     3508     TIP3     H2       HT       0.417000       1.00800           0
     49921 TIP3     3509     TIP3     OH2      OT      -0.834000       15.9994           0
     49922 TIP3     3509     TIP3     H1       HT       0.417000       1.00800           0
     49923 TIP3     3509     TIP3     H2       HT       0.417000       1.00800           0
     49924 TIP3     3510     TIP3     OH2      OT      -0.834000       15.9994           0
     49925 TIP3     3510     TIP3     H1       HT       0.417000       1.00800           0
     49926 TIP3     3510     TIP3     H2       HT       0.417000       1.00800           0
     49927 TIP3     3511     TIP3     OH2      OT      -0.834000       15.9994           0
     49928 TIP3     3511     TIP3     H1       HT       0.417000       1.00800           0
     49929 TIP3     3511     TIP3     H2       HT       0.417000       1.00800           0
     49930 TIP3     3512     TIP3     OH2      OT      -0.834000       15.9994           0
     49931 TIP3     3512     TIP3     H1       HT       0.417000       1.00800           0
     49932 TIP3     3512     TIP3     H2       HT       0.417000       1.00800           0
     49933 TIP3     3513     TIP3     OH2      OT      -0.834000       15.9994           0
     49934 TIP3     3513     TIP3     H1       HT       0.417000       1.00800           0
     49935 TIP3     3513     TIP3     H2       HT       0.417000       1.00800           0
     49936 TIP3     3514     TIP3     OH2      OT      -0.834000       15.9994           0
     49937 TIP3     3514     TIP3     H1       HT       0.417000       1.00800           0
     49938 TIP3     3514     TIP3     H2       HT       0.417000       1.00800           0
     49939 TIP3     3515     TIP3     OH2      OT      -0.834000       15.9994           0
     49940 TIP3     3515     TIP3     H1       HT       0.417000       1.00800           0
     49941 TIP3     3515     TIP3     H2       HT       0.417000       1.00800           0
     49942 TIP3     3516     TIP3     OH2      OT      -0.834000       15.9994           0
     49943 TIP3     3516     TIP3     H1       HT       0.417000       1.00800           0
     49944 TIP3     3516     TIP3     H2       HT       0.417000       1.00800           0
     49945 TIP3     3517     TIP3     OH2      OT      -0.834000       15.9994           0
     49946 TIP3     3517     TIP3     H1       HT       0.417000       1.00800           0
     49947 TIP3     3517     TIP3     H2       HT       0.417000       1.00800           0
     49948 TIP3     3518     TIP3     OH2      OT      -0.834000       15.9994           0
     49949 TIP3     3518     TIP3     H1       HT       0.417000       1.00800           0
     49950 TIP3     3518     TIP3     H2       HT       0.417000       1.00800           0
     49951 TIP3     3519     TIP3     OH2      OT      -0.834000       15.9994           0
     49952 TIP3     3519     TIP3     H1       HT       0.417000       1.00800           0
     49953 TIP3     3519     TIP3     H2       HT       0.417000       1.00800           0
     49954 TIP3     3520     TIP3     OH2      OT      -0.834000       15.9994           0
     49955 TIP3     3520     TIP3     H1       HT       0.417000       1.00800           0
     49956 TIP3     3520     TIP3     H2       HT       0.417000       1.00800           0
     49957 TIP3     3521     TIP3     OH2      OT      -0.834000       15.9994           0
     49958 TIP3     3521     TIP3     H1       HT       0.417000       1.00800           0
     49959 TIP3     3521     TIP3     H2       HT       0.417000       1.00800           0
     49960 TIP3     3522     TIP3     OH2      OT      -0.834000       15.9994           0
     49961 TIP3     3522     TIP3     H1       HT       0.417000       1.00800           0
     49962 TIP3     3522     TIP3     H2       HT       0.417000       1.00800           0
     49963 TIP3     3523     TIP3     OH2      OT      -0.834000       15.9994           0
     49964 TIP3     3523     TIP3     H1       HT       0.417000       1.00800           0
     49965 TIP3     3523     TIP3     H2       HT       0.417000       1.00800           0
     49966 TIP3     3524     TIP3     OH2      OT      -0.834000       15.9994           0
     49967 TIP3     3524     TIP3     H1       HT       0.417000       1.00800           0
     49968 TIP3     3524     TIP3     H2       HT       0.417000       1.00800           0
     49969 TIP3     3525     TIP3     OH2      OT      -0.834000       15.9994           0
     49970 TIP3     3525     TIP3     H1       HT       0.417000       1.00800           0
     49971 TIP3     3525     TIP3     H2       HT       0.417000       1.00800           0
     49972 TIP3     3526     TIP3     OH2      OT      -0.834000       15.9994           0
     49973 TIP3     3526     TIP3     H1       HT       0.417000       1.00800           0
     49974 TIP3     3526     TIP3     H2       HT       0.417000       1.00800           0
     49975 TIP3     3527     TIP3     OH2      OT      -0.834000       15.9994           0
     49976 TIP3     3527     TIP3     H1       HT       0.417000       1.00800           0
     49977 TIP3     3527     TIP3     H2       HT       0.417000       1.00800           0
     49978 TIP3     3528     TIP3     OH2      OT      -0.834000       15.9994           0
     49979 TIP3     3528     TIP3     H1       HT       0.417000       1.00800           0
     49980 TIP3     3528     TIP3     H2       HT       0.417000       1.00800           0
     49981 TIP3     3529     TIP3     OH2      OT      -0.834000       15.9994           0
     49982 TIP3     3529     TIP3     H1       HT       0.417000       1.00800           0
     49983 TIP3     3529     TIP3     H2       HT       0.417000       1.00800           0
     49984 TIP3     3530     TIP3     OH2      OT      -0.834000       15.9994           0
     49985 TIP3     3530     TIP3     H1       HT       0.417000       1.00800           0
     49986 TIP3     3530     TIP3     H2       HT       0.417000       1.00800           0
     49987 TIP3     3531     TIP3     OH2      OT      -0.834000       15.9994           0
     49988 TIP3     3531     TIP3     H1       HT       0.417000       1.00800           0
     49989 TIP3     3531     TIP3     H2       HT       0.417000       1.00800           0
     49990 TIP3     3532     TIP3     OH2      OT      -0.834000       15.9994           0
     49991 TIP3     3532     TIP3     H1       HT       0.417000       1.00800           0
     49992 TIP3     3532     TIP3     H2       HT       0.417000       1.00800           0
     49993 TIP3     3533     TIP3     OH2      OT      -0.834000       15.9994           0
     49994 TIP3     3533     TIP3     H1       HT       0.417000       1.00800           0
     49995 TIP3     3533     TIP3     H2       HT       0.417000       1.00800           0
     49996 TIP3     3534     TIP3     OH2      OT      -0.834000       15.9994           0
     49997 TIP3     3534     TIP3     H1       HT       0.417000       1.00800           0
     49998 TIP3     3534     TIP3     H2       HT       0.417000       1.00800           0
     49999 TIP3     3535     TIP3     OH2      OT      -0.834000       15.9994           0
     50000 TIP3     3535     TIP3     H1       HT       0.417000       1.00800           0
     50001 TIP3     3535     TIP3     H2       HT       0.417000       1.00800           0
     50002 TIP3     3536     TIP3     OH2      OT      -0.834000       15.9994           0
     50003 TIP3     3536     TIP3     H1       HT       0.417000       1.00800           0
     50004 TIP3     3536     TIP3     H2       HT       0.417000       1.00800           0
     50005 TIP3     3537     TIP3     OH2      OT      -0.834000       15.9994           0
     50006 TIP3     3537     TIP3     H1       HT       0.417000       1.00800           0
     50007 TIP3     3537     TIP3     H2       HT       0.417000       1.00800           0
     50008 TIP3     3538     TIP3     OH2      OT      -0.834000       15.9994           0
     50009 TIP3     3538     TIP3     H1       HT       0.417000       1.00800           0
     50010 TIP3     3538     TIP3     H2       HT       0.417000       1.00800           0
     50011 TIP3     3539     TIP3     OH2      OT      -0.834000       15.9994           0
     50012 TIP3     3539     TIP3     H1       HT       0.417000       1.00800           0
     50013 TIP3     3539     TIP3     H2       HT       0.417000       1.00800           0
     50014 TIP3     3540     TIP3     OH2      OT      -0.834000       15.9994           0
     50015 TIP3     3540     TIP3     H1       HT       0.417000       1.00800           0
     50016 TIP3     3540     TIP3     H2       HT       0.417000       1.00800           0
     50017 TIP3     3541     TIP3     OH2      OT      -0.834000       15.9994           0
     50018 TIP3     3541     TIP3     H1       HT       0.417000       1.00800           0
     50019 TIP3     3541     TIP3     H2       HT       0.417000       1.00800           0
     50020 TIP3     3542     TIP3     OH2      OT      -0.834000       15.9994           0
     50021 TIP3     3542     TIP3     H1       HT       0.417000       1.00800           0
     50022 TIP3     3542     TIP3     H2       HT       0.417000       1.00800           0
     50023 TIP3     3543     TIP3     OH2      OT      -0.834000       15.9994           0
     50024 TIP3     3543     TIP3     H1       HT       0.417000       1.00800           0
     50025 TIP3     3543     TIP3     H2       HT       0.417000       1.00800           0
     50026 TIP3     3544     TIP3     OH2      OT      -0.834000       15.9994           0
     50027 TIP3     3544     TIP3     H1       HT       0.417000       1.00800           0
     50028 TIP3     3544     TIP3     H2       HT       0.417000       1.00800           0
     50029 TIP3     3545     TIP3     OH2      OT      -0.834000       15.9994           0
     50030 TIP3     3545     TIP3     H1       HT       0.417000       1.00800           0
     50031 TIP3     3545     TIP3     H2       HT       0.417000       1.00800           0
     50032 TIP3     3546     TIP3     OH2      OT      -0.834000       15.9994           0
     50033 TIP3     3546     TIP3     H1       HT       0.417000       1.00800           0
     50034 TIP3     3546     TIP3     H2       HT       0.417000       1.00800           0
     50035 TIP3     3547     TIP3     OH2      OT      -0.834000       15.9994           0
     50036 TIP3     3547     TIP3     H1       HT       0.417000       1.00800           0
     50037 TIP3     3547     TIP3     H2       HT       0.417000       1.00800           0
     50038 TIP3     3548     TIP3     OH2      OT      -0.834000       15.9994           0
     50039 TIP3     3548     TIP3     H1       HT       0.417000       1.00800           0
     50040 TIP3     3548     TIP3     H2       HT       0.417000       1.00800           0
     50041 TIP3     3549     TIP3     OH2      OT      -0.834000       15.9994           0
     50042 TIP3     3549     TIP3     H1       HT       0.417000       1.00800           0
     50043 TIP3     3549     TIP3     H2       HT       0.417000       1.00800           0
     50044 TIP3     3550     TIP3     OH2      OT      -0.834000       15.9994           0
     50045 TIP3     3550     TIP3     H1       HT       0.417000       1.00800           0
     50046 TIP3     3550     TIP3     H2       HT       0.417000       1.00800           0
     50047 TIP3     3551     TIP3     OH2      OT      -0.834000       15.9994           0
     50048 TIP3     3551     TIP3     H1       HT       0.417000       1.00800           0
     50049 TIP3     3551     TIP3     H2       HT       0.417000       1.00800           0
     50050 TIP3     3552     TIP3     OH2      OT      -0.834000       15.9994           0
     50051 TIP3     3552     TIP3     H1       HT       0.417000       1.00800           0
     50052 TIP3     3552     TIP3     H2       HT       0.417000       1.00800           0
     50053 TIP3     3553     TIP3     OH2      OT      -0.834000       15.9994           0
     50054 TIP3     3553     TIP3     H1       HT       0.417000       1.00800           0
     50055 TIP3     3553     TIP3     H2       HT       0.417000       1.00800           0
     50056 TIP3     3554     TIP3     OH2      OT      -0.834000       15.9994           0
     50057 TIP3     3554     TIP3     H1       HT       0.417000       1.00800           0
     50058 TIP3     3554     TIP3     H2       HT       0.417000       1.00800           0
     50059 TIP3     3555     TIP3     OH2      OT      -0.834000       15.9994           0
     50060 TIP3     3555     TIP3     H1       HT       0.417000       1.00800           0
     50061 TIP3     3555     TIP3     H2       HT       0.417000       1.00800           0
     50062 TIP3     3556     TIP3     OH2      OT      -0.834000       15.9994           0
     50063 TIP3     3556     TIP3     H1       HT       0.417000       1.00800           0
     50064 TIP3     3556     TIP3     H2       HT       0.417000       1.00800           0
     50065 TIP3     3557     TIP3     OH2      OT      -0.834000       15.9994           0
     50066 TIP3     3557     TIP3     H1       HT       0.417000       1.00800           0
     50067 TIP3     3557     TIP3     H2       HT       0.417000       1.00800           0
     50068 TIP3     3558     TIP3     OH2      OT      -0.834000       15.9994           0
     50069 TIP3     3558     TIP3     H1       HT       0.417000       1.00800           0
     50070 TIP3     3558     TIP3     H2       HT       0.417000       1.00800           0
     50071 TIP3     3559     TIP3     OH2      OT      -0.834000       15.9994           0
     50072 TIP3     3559     TIP3     H1       HT       0.417000       1.00800           0
     50073 TIP3     3559     TIP3     H2       HT       0.417000       1.00800           0
     50074 TIP3     3560     TIP3     OH2      OT      -0.834000       15.9994           0
     50075 TIP3     3560     TIP3     H1       HT       0.417000       1.00800           0
     50076 TIP3     3560     TIP3     H2       HT       0.417000       1.00800           0
     50077 TIP3     3561     TIP3     OH2      OT      -0.834000       15.9994           0
     50078 TIP3     3561     TIP3     H1       HT       0.417000       1.00800           0
     50079 TIP3     3561     TIP3     H2       HT       0.417000       1.00800           0
     50080 TIP3     3562     TIP3     OH2      OT      -0.834000       15.9994           0
     50081 TIP3     3562     TIP3     H1       HT       0.417000       1.00800           0
     50082 TIP3     3562     TIP3     H2       HT       0.417000       1.00800           0
     50083 TIP3     3563     TIP3     OH2      OT      -0.834000       15.9994           0
     50084 TIP3     3563     TIP3     H1       HT       0.417000       1.00800           0
     50085 TIP3     3563     TIP3     H2       HT       0.417000       1.00800           0
     50086 TIP3     3564     TIP3     OH2      OT      -0.834000       15.9994           0
     50087 TIP3     3564     TIP3     H1       HT       0.417000       1.00800           0
     50088 TIP3     3564     TIP3     H2       HT       0.417000       1.00800           0
     50089 TIP3     3565     TIP3     OH2      OT      -0.834000       15.9994           0
     50090 TIP3     3565     TIP3     H1       HT       0.417000       1.00800           0
     50091 TIP3     3565     TIP3     H2       HT       0.417000       1.00800           0
     50092 TIP3     3566     TIP3     OH2      OT      -0.834000       15.9994           0
     50093 TIP3     3566     TIP3     H1       HT       0.417000       1.00800           0
     50094 TIP3     3566     TIP3     H2       HT       0.417000       1.00800           0
     50095 TIP3     3567     TIP3     OH2      OT      -0.834000       15.9994           0
     50096 TIP3     3567     TIP3     H1       HT       0.417000       1.00800           0
     50097 TIP3     3567     TIP3     H2       HT       0.417000       1.00800           0
     50098 TIP3     3568     TIP3     OH2      OT      -0.834000       15.9994           0
     50099 TIP3     3568     TIP3     H1       HT       0.417000       1.00800           0
     50100 TIP3     3568     TIP3     H2       HT       0.417000       1.00800           0
     50101 TIP3     3569     TIP3     OH2      OT      -0.834000       15.9994           0
     50102 TIP3     3569     TIP3     H1       HT       0.417000       1.00800           0
     50103 TIP3     3569     TIP3     H2       HT       0.417000       1.00800           0
     50104 TIP3     3570     TIP3     OH2      OT      -0.834000       15.9994           0
     50105 TIP3     3570     TIP3     H1       HT       0.417000       1.00800           0
     50106 TIP3     3570     TIP3     H2       HT       0.417000       1.00800           0
     50107 TIP3     3571     TIP3     OH2      OT      -0.834000       15.9994           0
     50108 TIP3     3571     TIP3     H1       HT       0.417000       1.00800           0
     50109 TIP3     3571     TIP3     H2       HT       0.417000       1.00800           0
     50110 TIP3     3572     TIP3     OH2      OT      -0.834000       15.9994           0
     50111 TIP3     3572     TIP3     H1       HT       0.417000       1.00800           0
     50112 TIP3     3572     TIP3     H2       HT       0.417000       1.00800           0
     50113 TIP3     3573     TIP3     OH2      OT      -0.834000       15.9994           0
     50114 TIP3     3573     TIP3     H1       HT       0.417000       1.00800           0
     50115 TIP3     3573     TIP3     H2       HT       0.417000       1.00800           0
     50116 TIP3     3574     TIP3     OH2      OT      -0.834000       15.9994           0
     50117 TIP3     3574     TIP3     H1       HT       0.417000       1.00800           0
     50118 TIP3     3574     TIP3     H2       HT       0.417000       1.00800           0
     50119 TIP3     3575     TIP3     OH2      OT      -0.834000       15.9994           0
     50120 TIP3     3575     TIP3     H1       HT       0.417000       1.00800           0
     50121 TIP3     3575     TIP3     H2       HT       0.417000       1.00800           0
     50122 TIP3     3576     TIP3     OH2      OT      -0.834000       15.9994           0
     50123 TIP3     3576     TIP3     H1       HT       0.417000       1.00800           0
     50124 TIP3     3576     TIP3     H2       HT       0.417000       1.00800           0
     50125 TIP3     3577     TIP3     OH2      OT      -0.834000       15.9994           0
     50126 TIP3     3577     TIP3     H1       HT       0.417000       1.00800           0
     50127 TIP3     3577     TIP3     H2       HT       0.417000       1.00800           0
     50128 TIP3     3578     TIP3     OH2      OT      -0.834000       15.9994           0
     50129 TIP3     3578     TIP3     H1       HT       0.417000       1.00800           0
     50130 TIP3     3578     TIP3     H2       HT       0.417000       1.00800           0
     50131 TIP3     3579     TIP3     OH2      OT      -0.834000       15.9994           0
     50132 TIP3     3579     TIP3     H1       HT       0.417000       1.00800           0
     50133 TIP3     3579     TIP3     H2       HT       0.417000       1.00800           0
     50134 TIP3     3580     TIP3     OH2      OT      -0.834000       15.9994           0
     50135 TIP3     3580     TIP3     H1       HT       0.417000       1.00800           0
     50136 TIP3     3580     TIP3     H2       HT       0.417000       1.00800           0
     50137 TIP3     3581     TIP3     OH2      OT      -0.834000       15.9994           0
     50138 TIP3     3581     TIP3     H1       HT       0.417000       1.00800           0
     50139 TIP3     3581     TIP3     H2       HT       0.417000       1.00800           0
     50140 TIP3     3582     TIP3     OH2      OT      -0.834000       15.9994           0
     50141 TIP3     3582     TIP3     H1       HT       0.417000       1.00800           0
     50142 TIP3     3582     TIP3     H2       HT       0.417000       1.00800           0
     50143 TIP3     3583     TIP3     OH2      OT      -0.834000       15.9994           0
     50144 TIP3     3583     TIP3     H1       HT       0.417000       1.00800           0
     50145 TIP3     3583     TIP3     H2       HT       0.417000       1.00800           0
     50146 TIP3     3584     TIP3     OH2      OT      -0.834000       15.9994           0
     50147 TIP3     3584     TIP3     H1       HT       0.417000       1.00800           0
     50148 TIP3     3584     TIP3     H2       HT       0.417000       1.00800           0
     50149 TIP3     3585     TIP3     OH2      OT      -0.834000       15.9994           0
     50150 TIP3     3585     TIP3     H1       HT       0.417000       1.00800           0
     50151 TIP3     3585     TIP3     H2       HT       0.417000       1.00800           0
     50152 TIP3     3586     TIP3     OH2      OT      -0.834000       15.9994           0
     50153 TIP3     3586     TIP3     H1       HT       0.417000       1.00800           0
     50154 TIP3     3586     TIP3     H2       HT       0.417000       1.00800           0
     50155 TIP3     3587     TIP3     OH2      OT      -0.834000       15.9994           0
     50156 TIP3     3587     TIP3     H1       HT       0.417000       1.00800           0
     50157 TIP3     3587     TIP3     H2       HT       0.417000       1.00800           0
     50158 TIP3     3588     TIP3     OH2      OT      -0.834000       15.9994           0
     50159 TIP3     3588     TIP3     H1       HT       0.417000       1.00800           0
     50160 TIP3     3588     TIP3     H2       HT       0.417000       1.00800           0
     50161 TIP3     3589     TIP3     OH2      OT      -0.834000       15.9994           0
     50162 TIP3     3589     TIP3     H1       HT       0.417000       1.00800           0
     50163 TIP3     3589     TIP3     H2       HT       0.417000       1.00800           0
     50164 TIP3     3590     TIP3     OH2      OT      -0.834000       15.9994           0
     50165 TIP3     3590     TIP3     H1       HT       0.417000       1.00800           0
     50166 TIP3     3590     TIP3     H2       HT       0.417000       1.00800           0
     50167 TIP3     3591     TIP3     OH2      OT      -0.834000       15.9994           0
     50168 TIP3     3591     TIP3     H1       HT       0.417000       1.00800           0
     50169 TIP3     3591     TIP3     H2       HT       0.417000       1.00800           0
     50170 TIP3     3592     TIP3     OH2      OT      -0.834000       15.9994           0
     50171 TIP3     3592     TIP3     H1       HT       0.417000       1.00800           0
     50172 TIP3     3592     TIP3     H2       HT       0.417000       1.00800           0
     50173 TIP3     3593     TIP3     OH2      OT      -0.834000       15.9994           0
     50174 TIP3     3593     TIP3     H1       HT       0.417000       1.00800           0
     50175 TIP3     3593     TIP3     H2       HT       0.417000       1.00800           0
     50176 TIP3     3594     TIP3     OH2      OT      -0.834000       15.9994           0
     50177 TIP3     3594     TIP3     H1       HT       0.417000       1.00800           0
     50178 TIP3     3594     TIP3     H2       HT       0.417000       1.00800           0
     50179 TIP3     3595     TIP3     OH2      OT      -0.834000       15.9994           0
     50180 TIP3     3595     TIP3     H1       HT       0.417000       1.00800           0
     50181 TIP3     3595     TIP3     H2       HT       0.417000       1.00800           0
     50182 TIP3     3596     TIP3     OH2      OT      -0.834000       15.9994           0
     50183 TIP3     3596     TIP3     H1       HT       0.417000       1.00800           0
     50184 TIP3     3596     TIP3     H2       HT       0.417000       1.00800           0
     50185 TIP3     3597     TIP3     OH2      OT      -0.834000       15.9994           0
     50186 TIP3     3597     TIP3     H1       HT       0.417000       1.00800           0
     50187 TIP3     3597     TIP3     H2       HT       0.417000       1.00800           0
     50188 TIP3     3598     TIP3     OH2      OT      -0.834000       15.9994           0
     50189 TIP3     3598     TIP3     H1       HT       0.417000       1.00800           0
     50190 TIP3     3598     TIP3     H2       HT       0.417000       1.00800           0
     50191 TIP3     3599     TIP3     OH2      OT      -0.834000       15.9994           0
     50192 TIP3     3599     TIP3     H1       HT       0.417000       1.00800           0
     50193 TIP3     3599     TIP3     H2       HT       0.417000       1.00800           0
     50194 TIP3     3600     TIP3     OH2      OT      -0.834000       15.9994           0
     50195 TIP3     3600     TIP3     H1       HT       0.417000       1.00800           0
     50196 TIP3     3600     TIP3     H2       HT       0.417000       1.00800           0
     50197 TIP3     3601     TIP3     OH2      OT      -0.834000       15.9994           0
     50198 TIP3     3601     TIP3     H1       HT       0.417000       1.00800           0
     50199 TIP3     3601     TIP3     H2       HT       0.417000       1.00800           0
     50200 TIP3     3602     TIP3     OH2      OT      -0.834000       15.9994           0
     50201 TIP3     3602     TIP3     H1       HT       0.417000       1.00800           0
     50202 TIP3     3602     TIP3     H2       HT       0.417000       1.00800           0
     50203 TIP3     3603     TIP3     OH2      OT      -0.834000       15.9994           0
     50204 TIP3     3603     TIP3     H1       HT       0.417000       1.00800           0
     50205 TIP3     3603     TIP3     H2       HT       0.417000       1.00800           0
     50206 TIP3     3604     TIP3     OH2      OT      -0.834000       15.9994           0
     50207 TIP3     3604     TIP3     H1       HT       0.417000       1.00800           0
     50208 TIP3     3604     TIP3     H2       HT       0.417000       1.00800           0
     50209 TIP3     3605     TIP3     OH2      OT      -0.834000       15.9994           0
     50210 TIP3     3605     TIP3     H1       HT       0.417000       1.00800           0
     50211 TIP3     3605     TIP3     H2       HT       0.417000       1.00800           0
     50212 TIP3     3606     TIP3     OH2      OT      -0.834000       15.9994           0
     50213 TIP3     3606     TIP3     H1       HT       0.417000       1.00800           0
     50214 TIP3     3606     TIP3     H2       HT       0.417000       1.00800           0
     50215 TIP3     3607     TIP3     OH2      OT      -0.834000       15.9994           0
     50216 TIP3     3607     TIP3     H1       HT       0.417000       1.00800           0
     50217 TIP3     3607     TIP3     H2       HT       0.417000       1.00800           0
     50218 TIP3     3608     TIP3     OH2      OT      -0.834000       15.9994           0
     50219 TIP3     3608     TIP3     H1       HT       0.417000       1.00800           0
     50220 TIP3     3608     TIP3     H2       HT       0.417000       1.00800           0
     50221 TIP3     3609     TIP3     OH2      OT      -0.834000       15.9994           0
     50222 TIP3     3609     TIP3     H1       HT       0.417000       1.00800           0
     50223 TIP3     3609     TIP3     H2       HT       0.417000       1.00800           0
     50224 TIP3     3610     TIP3     OH2      OT      -0.834000       15.9994           0
     50225 TIP3     3610     TIP3     H1       HT       0.417000       1.00800           0
     50226 TIP3     3610     TIP3     H2       HT       0.417000       1.00800           0
     50227 TIP3     3611     TIP3     OH2      OT      -0.834000       15.9994           0
     50228 TIP3     3611     TIP3     H1       HT       0.417000       1.00800           0
     50229 TIP3     3611     TIP3     H2       HT       0.417000       1.00800           0
     50230 TIP3     3612     TIP3     OH2      OT      -0.834000       15.9994           0
     50231 TIP3     3612     TIP3     H1       HT       0.417000       1.00800           0
     50232 TIP3     3612     TIP3     H2       HT       0.417000       1.00800           0
     50233 TIP3     3613     TIP3     OH2      OT      -0.834000       15.9994           0
     50234 TIP3     3613     TIP3     H1       HT       0.417000       1.00800           0
     50235 TIP3     3613     TIP3     H2       HT       0.417000       1.00800           0
     50236 TIP3     3614     TIP3     OH2      OT      -0.834000       15.9994           0
     50237 TIP3     3614     TIP3     H1       HT       0.417000       1.00800           0
     50238 TIP3     3614     TIP3     H2       HT       0.417000       1.00800           0
     50239 TIP3     3615     TIP3     OH2      OT      -0.834000       15.9994           0
     50240 TIP3     3615     TIP3     H1       HT       0.417000       1.00800           0
     50241 TIP3     3615     TIP3     H2       HT       0.417000       1.00800           0
     50242 TIP3     3616     TIP3     OH2      OT      -0.834000       15.9994           0
     50243 TIP3     3616     TIP3     H1       HT       0.417000       1.00800           0
     50244 TIP3     3616     TIP3     H2       HT       0.417000       1.00800           0
     50245 TIP3     3617     TIP3     OH2      OT      -0.834000       15.9994           0
     50246 TIP3     3617     TIP3     H1       HT       0.417000       1.00800           0
     50247 TIP3     3617     TIP3     H2       HT       0.417000       1.00800           0
     50248 TIP3     3618     TIP3     OH2      OT      -0.834000       15.9994           0
     50249 TIP3     3618     TIP3     H1       HT       0.417000       1.00800           0
     50250 TIP3     3618     TIP3     H2       HT       0.417000       1.00800           0
     50251 TIP3     3619     TIP3     OH2      OT      -0.834000       15.9994           0
     50252 TIP3     3619     TIP3     H1       HT       0.417000       1.00800           0
     50253 TIP3     3619     TIP3     H2       HT       0.417000       1.00800           0
     50254 TIP3     3620     TIP3     OH2      OT      -0.834000       15.9994           0
     50255 TIP3     3620     TIP3     H1       HT       0.417000       1.00800           0
     50256 TIP3     3620     TIP3     H2       HT       0.417000       1.00800           0
     50257 TIP3     3621     TIP3     OH2      OT      -0.834000       15.9994           0
     50258 TIP3     3621     TIP3     H1       HT       0.417000       1.00800           0
     50259 TIP3     3621     TIP3     H2       HT       0.417000       1.00800           0
     50260 TIP3     3622     TIP3     OH2      OT      -0.834000       15.9994           0
     50261 TIP3     3622     TIP3     H1       HT       0.417000       1.00800           0
     50262 TIP3     3622     TIP3     H2       HT       0.417000       1.00800           0
     50263 TIP3     3623     TIP3     OH2      OT      -0.834000       15.9994           0
     50264 TIP3     3623     TIP3     H1       HT       0.417000       1.00800           0
     50265 TIP3     3623     TIP3     H2       HT       0.417000       1.00800           0
     50266 TIP3     3624     TIP3     OH2      OT      -0.834000       15.9994           0
     50267 TIP3     3624     TIP3     H1       HT       0.417000       1.00800           0
     50268 TIP3     3624     TIP3     H2       HT       0.417000       1.00800           0
     50269 TIP3     3625     TIP3     OH2      OT      -0.834000       15.9994           0
     50270 TIP3     3625     TIP3     H1       HT       0.417000       1.00800           0
     50271 TIP3     3625     TIP3     H2       HT       0.417000       1.00800           0
     50272 TIP3     3626     TIP3     OH2      OT      -0.834000       15.9994           0
     50273 TIP3     3626     TIP3     H1       HT       0.417000       1.00800           0
     50274 TIP3     3626     TIP3     H2       HT       0.417000       1.00800           0
     50275 TIP3     3627     TIP3     OH2      OT      -0.834000       15.9994           0
     50276 TIP3     3627     TIP3     H1       HT       0.417000       1.00800           0
     50277 TIP3     3627     TIP3     H2       HT       0.417000       1.00800           0
     50278 TIP3     3628     TIP3     OH2      OT      -0.834000       15.9994           0
     50279 TIP3     3628     TIP3     H1       HT       0.417000       1.00800           0
     50280 TIP3     3628     TIP3     H2       HT       0.417000       1.00800           0
     50281 TIP3     3629     TIP3     OH2      OT      -0.834000       15.9994           0
     50282 TIP3     3629     TIP3     H1       HT       0.417000       1.00800           0
     50283 TIP3     3629     TIP3     H2       HT       0.417000       1.00800           0
     50284 TIP3     3630     TIP3     OH2      OT      -0.834000       15.9994           0
     50285 TIP3     3630     TIP3     H1       HT       0.417000       1.00800           0
     50286 TIP3     3630     TIP3     H2       HT       0.417000       1.00800           0
     50287 TIP3     3631     TIP3     OH2      OT      -0.834000       15.9994           0
     50288 TIP3     3631     TIP3     H1       HT       0.417000       1.00800           0
     50289 TIP3     3631     TIP3     H2       HT       0.417000       1.00800           0
     50290 TIP3     3632     TIP3     OH2      OT      -0.834000       15.9994           0
     50291 TIP3     3632     TIP3     H1       HT       0.417000       1.00800           0
     50292 TIP3     3632     TIP3     H2       HT       0.417000       1.00800           0
     50293 TIP3     3633     TIP3     OH2      OT      -0.834000       15.9994           0
     50294 TIP3     3633     TIP3     H1       HT       0.417000       1.00800           0
     50295 TIP3     3633     TIP3     H2       HT       0.417000       1.00800           0
     50296 TIP3     3634     TIP3     OH2      OT      -0.834000       15.9994           0
     50297 TIP3     3634     TIP3     H1       HT       0.417000       1.00800           0
     50298 TIP3     3634     TIP3     H2       HT       0.417000       1.00800           0
     50299 TIP3     3635     TIP3     OH2      OT      -0.834000       15.9994           0
     50300 TIP3     3635     TIP3     H1       HT       0.417000       1.00800           0
     50301 TIP3     3635     TIP3     H2       HT       0.417000       1.00800           0
     50302 TIP3     3636     TIP3     OH2      OT      -0.834000       15.9994           0
     50303 TIP3     3636     TIP3     H1       HT       0.417000       1.00800           0
     50304 TIP3     3636     TIP3     H2       HT       0.417000       1.00800           0
     50305 TIP3     3637     TIP3     OH2      OT      -0.834000       15.9994           0
     50306 TIP3     3637     TIP3     H1       HT       0.417000       1.00800           0
     50307 TIP3     3637     TIP3     H2       HT       0.417000       1.00800           0
     50308 TIP3     3638     TIP3     OH2      OT      -0.834000       15.9994           0
     50309 TIP3     3638     TIP3     H1       HT       0.417000       1.00800           0
     50310 TIP3     3638     TIP3     H2       HT       0.417000       1.00800           0
     50311 TIP3     3639     TIP3     OH2      OT      -0.834000       15.9994           0
     50312 TIP3     3639     TIP3     H1       HT       0.417000       1.00800           0
     50313 TIP3     3639     TIP3     H2       HT       0.417000       1.00800           0
     50314 TIP3     3640     TIP3     OH2      OT      -0.834000       15.9994           0
     50315 TIP3     3640     TIP3     H1       HT       0.417000       1.00800           0
     50316 TIP3     3640     TIP3     H2       HT       0.417000       1.00800           0
     50317 TIP3     3641     TIP3     OH2      OT      -0.834000       15.9994           0
     50318 TIP3     3641     TIP3     H1       HT       0.417000       1.00800           0
     50319 TIP3     3641     TIP3     H2       HT       0.417000       1.00800           0
     50320 TIP3     3642     TIP3     OH2      OT      -0.834000       15.9994           0
     50321 TIP3     3642     TIP3     H1       HT       0.417000       1.00800           0
     50322 TIP3     3642     TIP3     H2       HT       0.417000       1.00800           0
     50323 TIP3     3643     TIP3     OH2      OT      -0.834000       15.9994           0
     50324 TIP3     3643     TIP3     H1       HT       0.417000       1.00800           0
     50325 TIP3     3643     TIP3     H2       HT       0.417000       1.00800           0
     50326 TIP3     3644     TIP3     OH2      OT      -0.834000       15.9994           0
     50327 TIP3     3644     TIP3     H1       HT       0.417000       1.00800           0
     50328 TIP3     3644     TIP3     H2       HT       0.417000       1.00800           0
     50329 TIP3     3645     TIP3     OH2      OT      -0.834000       15.9994           0
     50330 TIP3     3645     TIP3     H1       HT       0.417000       1.00800           0
     50331 TIP3     3645     TIP3     H2       HT       0.417000       1.00800           0
     50332 TIP3     3646     TIP3     OH2      OT      -0.834000       15.9994           0
     50333 TIP3     3646     TIP3     H1       HT       0.417000       1.00800           0
     50334 TIP3     3646     TIP3     H2       HT       0.417000       1.00800           0
     50335 TIP3     3647     TIP3     OH2      OT      -0.834000       15.9994           0
     50336 TIP3     3647     TIP3     H1       HT       0.417000       1.00800           0
     50337 TIP3     3647     TIP3     H2       HT       0.417000       1.00800           0
     50338 TIP3     3648     TIP3     OH2      OT      -0.834000       15.9994           0
     50339 TIP3     3648     TIP3     H1       HT       0.417000       1.00800           0
     50340 TIP3     3648     TIP3     H2       HT       0.417000       1.00800           0
     50341 TIP3     3649     TIP3     OH2      OT      -0.834000       15.9994           0
     50342 TIP3     3649     TIP3     H1       HT       0.417000       1.00800           0
     50343 TIP3     3649     TIP3     H2       HT       0.417000       1.00800           0
     50344 TIP3     3650     TIP3     OH2      OT      -0.834000       15.9994           0
     50345 TIP3     3650     TIP3     H1       HT       0.417000       1.00800           0
     50346 TIP3     3650     TIP3     H2       HT       0.417000       1.00800           0
     50347 TIP3     3651     TIP3     OH2      OT      -0.834000       15.9994           0
     50348 TIP3     3651     TIP3     H1       HT       0.417000       1.00800           0
     50349 TIP3     3651     TIP3     H2       HT       0.417000       1.00800           0
     50350 TIP3     3652     TIP3     OH2      OT      -0.834000       15.9994           0
     50351 TIP3     3652     TIP3     H1       HT       0.417000       1.00800           0
     50352 TIP3     3652     TIP3     H2       HT       0.417000       1.00800           0
     50353 TIP3     3653     TIP3     OH2      OT      -0.834000       15.9994           0
     50354 TIP3     3653     TIP3     H1       HT       0.417000       1.00800           0
     50355 TIP3     3653     TIP3     H2       HT       0.417000       1.00800           0
     50356 TIP3     3654     TIP3     OH2      OT      -0.834000       15.9994           0
     50357 TIP3     3654     TIP3     H1       HT       0.417000       1.00800           0
     50358 TIP3     3654     TIP3     H2       HT       0.417000       1.00800           0
     50359 TIP3     3655     TIP3     OH2      OT      -0.834000       15.9994           0
     50360 TIP3     3655     TIP3     H1       HT       0.417000       1.00800           0
     50361 TIP3     3655     TIP3     H2       HT       0.417000       1.00800           0
     50362 TIP3     3656     TIP3     OH2      OT      -0.834000       15.9994           0
     50363 TIP3     3656     TIP3     H1       HT       0.417000       1.00800           0
     50364 TIP3     3656     TIP3     H2       HT       0.417000       1.00800           0
     50365 TIP3     3657     TIP3     OH2      OT      -0.834000       15.9994           0
     50366 TIP3     3657     TIP3     H1       HT       0.417000       1.00800           0
     50367 TIP3     3657     TIP3     H2       HT       0.417000       1.00800           0
     50368 TIP3     3658     TIP3     OH2      OT      -0.834000       15.9994           0
     50369 TIP3     3658     TIP3     H1       HT       0.417000       1.00800           0
     50370 TIP3     3658     TIP3     H2       HT       0.417000       1.00800           0
     50371 TIP3     3659     TIP3     OH2      OT      -0.834000       15.9994           0
     50372 TIP3     3659     TIP3     H1       HT       0.417000       1.00800           0
     50373 TIP3     3659     TIP3     H2       HT       0.417000       1.00800           0
     50374 TIP3     3660     TIP3     OH2      OT      -0.834000       15.9994           0
     50375 TIP3     3660     TIP3     H1       HT       0.417000       1.00800           0
     50376 TIP3     3660     TIP3     H2       HT       0.417000       1.00800           0
     50377 TIP3     3661     TIP3     OH2      OT      -0.834000       15.9994           0
     50378 TIP3     3661     TIP3     H1       HT       0.417000       1.00800           0
     50379 TIP3     3661     TIP3     H2       HT       0.417000       1.00800           0
     50380 TIP3     3662     TIP3     OH2      OT      -0.834000       15.9994           0
     50381 TIP3     3662     TIP3     H1       HT       0.417000       1.00800           0
     50382 TIP3     3662     TIP3     H2       HT       0.417000       1.00800           0
     50383 TIP3     3663     TIP3     OH2      OT      -0.834000       15.9994           0
     50384 TIP3     3663     TIP3     H1       HT       0.417000       1.00800           0
     50385 TIP3     3663     TIP3     H2       HT       0.417000       1.00800           0
     50386 TIP3     3664     TIP3     OH2      OT      -0.834000       15.9994           0
     50387 TIP3     3664     TIP3     H1       HT       0.417000       1.00800           0
     50388 TIP3     3664     TIP3     H2       HT       0.417000       1.00800           0
     50389 TIP3     3665     TIP3     OH2      OT      -0.834000       15.9994           0
     50390 TIP3     3665     TIP3     H1       HT       0.417000       1.00800           0
     50391 TIP3     3665     TIP3     H2       HT       0.417000       1.00800           0
     50392 TIP3     3666     TIP3     OH2      OT      -0.834000       15.9994           0
     50393 TIP3     3666     TIP3     H1       HT       0.417000       1.00800           0
     50394 TIP3     3666     TIP3     H2       HT       0.417000       1.00800           0
     50395 TIP3     3667     TIP3     OH2      OT      -0.834000       15.9994           0
     50396 TIP3     3667     TIP3     H1       HT       0.417000       1.00800           0
     50397 TIP3     3667     TIP3     H2       HT       0.417000       1.00800           0
     50398 TIP3     3668     TIP3     OH2      OT      -0.834000       15.9994           0
     50399 TIP3     3668     TIP3     H1       HT       0.417000       1.00800           0
     50400 TIP3     3668     TIP3     H2       HT       0.417000       1.00800           0
     50401 TIP3     3669     TIP3     OH2      OT      -0.834000       15.9994           0
     50402 TIP3     3669     TIP3     H1       HT       0.417000       1.00800           0
     50403 TIP3     3669     TIP3     H2       HT       0.417000       1.00800           0
     50404 TIP3     3670     TIP3     OH2      OT      -0.834000       15.9994           0
     50405 TIP3     3670     TIP3     H1       HT       0.417000       1.00800           0
     50406 TIP3     3670     TIP3     H2       HT       0.417000       1.00800           0
     50407 TIP3     3671     TIP3     OH2      OT      -0.834000       15.9994           0
     50408 TIP3     3671     TIP3     H1       HT       0.417000       1.00800           0
     50409 TIP3     3671     TIP3     H2       HT       0.417000       1.00800           0
     50410 TIP3     3672     TIP3     OH2      OT      -0.834000       15.9994           0
     50411 TIP3     3672     TIP3     H1       HT       0.417000       1.00800           0
     50412 TIP3     3672     TIP3     H2       HT       0.417000       1.00800           0
     50413 TIP3     3673     TIP3     OH2      OT      -0.834000       15.9994           0
     50414 TIP3     3673     TIP3     H1       HT       0.417000       1.00800           0
     50415 TIP3     3673     TIP3     H2       HT       0.417000       1.00800           0
     50416 TIP3     3674     TIP3     OH2      OT      -0.834000       15.9994           0
     50417 TIP3     3674     TIP3     H1       HT       0.417000       1.00800           0
     50418 TIP3     3674     TIP3     H2       HT       0.417000       1.00800           0
     50419 TIP3     3675     TIP3     OH2      OT      -0.834000       15.9994           0
     50420 TIP3     3675     TIP3     H1       HT       0.417000       1.00800           0
     50421 TIP3     3675     TIP3     H2       HT       0.417000       1.00800           0
     50422 TIP3     3676     TIP3     OH2      OT      -0.834000       15.9994           0
     50423 TIP3     3676     TIP3     H1       HT       0.417000       1.00800           0
     50424 TIP3     3676     TIP3     H2       HT       0.417000       1.00800           0
     50425 TIP3     3677     TIP3     OH2      OT      -0.834000       15.9994           0
     50426 TIP3     3677     TIP3     H1       HT       0.417000       1.00800           0
     50427 TIP3     3677     TIP3     H2       HT       0.417000       1.00800           0
     50428 TIP3     3678     TIP3     OH2      OT      -0.834000       15.9994           0
     50429 TIP3     3678     TIP3     H1       HT       0.417000       1.00800           0
     50430 TIP3     3678     TIP3     H2       HT       0.417000       1.00800           0
     50431 TIP3     3679     TIP3     OH2      OT      -0.834000       15.9994           0
     50432 TIP3     3679     TIP3     H1       HT       0.417000       1.00800           0
     50433 TIP3     3679     TIP3     H2       HT       0.417000       1.00800           0
     50434 TIP3     3680     TIP3     OH2      OT      -0.834000       15.9994           0
     50435 TIP3     3680     TIP3     H1       HT       0.417000       1.00800           0
     50436 TIP3     3680     TIP3     H2       HT       0.417000       1.00800           0
     50437 TIP3     3681     TIP3     OH2      OT      -0.834000       15.9994           0
     50438 TIP3     3681     TIP3     H1       HT       0.417000       1.00800           0
     50439 TIP3     3681     TIP3     H2       HT       0.417000       1.00800           0
     50440 TIP3     3682     TIP3     OH2      OT      -0.834000       15.9994           0
     50441 TIP3     3682     TIP3     H1       HT       0.417000       1.00800           0
     50442 TIP3     3682     TIP3     H2       HT       0.417000       1.00800           0
     50443 TIP3     3683     TIP3     OH2      OT      -0.834000       15.9994           0
     50444 TIP3     3683     TIP3     H1       HT       0.417000       1.00800           0
     50445 TIP3     3683     TIP3     H2       HT       0.417000       1.00800           0
     50446 TIP3     3684     TIP3     OH2      OT      -0.834000       15.9994           0
     50447 TIP3     3684     TIP3     H1       HT       0.417000       1.00800           0
     50448 TIP3     3684     TIP3     H2       HT       0.417000       1.00800           0
     50449 TIP3     3685     TIP3     OH2      OT      -0.834000       15.9994           0
     50450 TIP3     3685     TIP3     H1       HT       0.417000       1.00800           0
     50451 TIP3     3685     TIP3     H2       HT       0.417000       1.00800           0
     50452 TIP3     3686     TIP3     OH2      OT      -0.834000       15.9994           0
     50453 TIP3     3686     TIP3     H1       HT       0.417000       1.00800           0
     50454 TIP3     3686     TIP3     H2       HT       0.417000       1.00800           0
     50455 TIP3     3687     TIP3     OH2      OT      -0.834000       15.9994           0
     50456 TIP3     3687     TIP3     H1       HT       0.417000       1.00800           0
     50457 TIP3     3687     TIP3     H2       HT       0.417000       1.00800           0
     50458 TIP3     3688     TIP3     OH2      OT      -0.834000       15.9994           0
     50459 TIP3     3688     TIP3     H1       HT       0.417000       1.00800           0
     50460 TIP3     3688     TIP3     H2       HT       0.417000       1.00800           0
     50461 TIP3     3689     TIP3     OH2      OT      -0.834000       15.9994           0
     50462 TIP3     3689     TIP3     H1       HT       0.417000       1.00800           0
     50463 TIP3     3689     TIP3     H2       HT       0.417000       1.00800           0
     50464 TIP3     3690     TIP3     OH2      OT      -0.834000       15.9994           0
     50465 TIP3     3690     TIP3     H1       HT       0.417000       1.00800           0
     50466 TIP3     3690     TIP3     H2       HT       0.417000       1.00800           0
     50467 TIP3     3691     TIP3     OH2      OT      -0.834000       15.9994           0
     50468 TIP3     3691     TIP3     H1       HT       0.417000       1.00800           0
     50469 TIP3     3691     TIP3     H2       HT       0.417000       1.00800           0
     50470 TIP3     3692     TIP3     OH2      OT      -0.834000       15.9994           0
     50471 TIP3     3692     TIP3     H1       HT       0.417000       1.00800           0
     50472 TIP3     3692     TIP3     H2       HT       0.417000       1.00800           0
     50473 TIP3     3693     TIP3     OH2      OT      -0.834000       15.9994           0
     50474 TIP3     3693     TIP3     H1       HT       0.417000       1.00800           0
     50475 TIP3     3693     TIP3     H2       HT       0.417000       1.00800           0
     50476 TIP3     3694     TIP3     OH2      OT      -0.834000       15.9994           0
     50477 TIP3     3694     TIP3     H1       HT       0.417000       1.00800           0
     50478 TIP3     3694     TIP3     H2       HT       0.417000       1.00800           0
     50479 TIP3     3695     TIP3     OH2      OT      -0.834000       15.9994           0
     50480 TIP3     3695     TIP3     H1       HT       0.417000       1.00800           0
     50481 TIP3     3695     TIP3     H2       HT       0.417000       1.00800           0
     50482 TIP3     3696     TIP3     OH2      OT      -0.834000       15.9994           0
     50483 TIP3     3696     TIP3     H1       HT       0.417000       1.00800           0
     50484 TIP3     3696     TIP3     H2       HT       0.417000       1.00800           0
     50485 TIP3     3697     TIP3     OH2      OT      -0.834000       15.9994           0
     50486 TIP3     3697     TIP3     H1       HT       0.417000       1.00800           0
     50487 TIP3     3697     TIP3     H2       HT       0.417000       1.00800           0
     50488 TIP3     3698     TIP3     OH2      OT      -0.834000       15.9994           0
     50489 TIP3     3698     TIP3     H1       HT       0.417000       1.00800           0
     50490 TIP3     3698     TIP3     H2       HT       0.417000       1.00800           0
     50491 TIP3     3699     TIP3     OH2      OT      -0.834000       15.9994           0
     50492 TIP3     3699     TIP3     H1       HT       0.417000       1.00800           0
     50493 TIP3     3699     TIP3     H2       HT       0.417000       1.00800           0
     50494 TIP3     3700     TIP3     OH2      OT      -0.834000       15.9994           0
     50495 TIP3     3700     TIP3     H1       HT       0.417000       1.00800           0
     50496 TIP3     3700     TIP3     H2       HT       0.417000       1.00800           0
     50497 TIP3     3701     TIP3     OH2      OT      -0.834000       15.9994           0
     50498 TIP3     3701     TIP3     H1       HT       0.417000       1.00800           0
     50499 TIP3     3701     TIP3     H2       HT       0.417000       1.00800           0
     50500 TIP3     3702     TIP3     OH2      OT      -0.834000       15.9994           0
     50501 TIP3     3702     TIP3     H1       HT       0.417000       1.00800           0
     50502 TIP3     3702     TIP3     H2       HT       0.417000       1.00800           0
     50503 TIP3     3703     TIP3     OH2      OT      -0.834000       15.9994           0
     50504 TIP3     3703     TIP3     H1       HT       0.417000       1.00800           0
     50505 TIP3     3703     TIP3     H2       HT       0.417000       1.00800           0
     50506 TIP3     3704     TIP3     OH2      OT      -0.834000       15.9994           0
     50507 TIP3     3704     TIP3     H1       HT       0.417000       1.00800           0
     50508 TIP3     3704     TIP3     H2       HT       0.417000       1.00800           0
     50509 TIP3     3705     TIP3     OH2      OT      -0.834000       15.9994           0
     50510 TIP3     3705     TIP3     H1       HT       0.417000       1.00800           0
     50511 TIP3     3705     TIP3     H2       HT       0.417000       1.00800           0
     50512 TIP3     3706     TIP3     OH2      OT      -0.834000       15.9994           0
     50513 TIP3     3706     TIP3     H1       HT       0.417000       1.00800           0
     50514 TIP3     3706     TIP3     H2       HT       0.417000       1.00800           0
     50515 TIP3     3707     TIP3     OH2      OT      -0.834000       15.9994           0
     50516 TIP3     3707     TIP3     H1       HT       0.417000       1.00800           0
     50517 TIP3     3707     TIP3     H2       HT       0.417000       1.00800           0
     50518 TIP3     3708     TIP3     OH2      OT      -0.834000       15.9994           0
     50519 TIP3     3708     TIP3     H1       HT       0.417000       1.00800           0
     50520 TIP3     3708     TIP3     H2       HT       0.417000       1.00800           0
     50521 TIP3     3709     TIP3     OH2      OT      -0.834000       15.9994           0
     50522 TIP3     3709     TIP3     H1       HT       0.417000       1.00800           0
     50523 TIP3     3709     TIP3     H2       HT       0.417000       1.00800           0
     50524 TIP3     3710     TIP3     OH2      OT      -0.834000       15.9994           0
     50525 TIP3     3710     TIP3     H1       HT       0.417000       1.00800           0
     50526 TIP3     3710     TIP3     H2       HT       0.417000       1.00800           0
     50527 TIP3     3711     TIP3     OH2      OT      -0.834000       15.9994           0
     50528 TIP3     3711     TIP3     H1       HT       0.417000       1.00800           0
     50529 TIP3     3711     TIP3     H2       HT       0.417000       1.00800           0
     50530 TIP3     3712     TIP3     OH2      OT      -0.834000       15.9994           0
     50531 TIP3     3712     TIP3     H1       HT       0.417000       1.00800           0
     50532 TIP3     3712     TIP3     H2       HT       0.417000       1.00800           0
     50533 TIP3     3713     TIP3     OH2      OT      -0.834000       15.9994           0
     50534 TIP3     3713     TIP3     H1       HT       0.417000       1.00800           0
     50535 TIP3     3713     TIP3     H2       HT       0.417000       1.00800           0
     50536 TIP3     3714     TIP3     OH2      OT      -0.834000       15.9994           0
     50537 TIP3     3714     TIP3     H1       HT       0.417000       1.00800           0
     50538 TIP3     3714     TIP3     H2       HT       0.417000       1.00800           0
     50539 TIP3     3715     TIP3     OH2      OT      -0.834000       15.9994           0
     50540 TIP3     3715     TIP3     H1       HT       0.417000       1.00800           0
     50541 TIP3     3715     TIP3     H2       HT       0.417000       1.00800           0
     50542 TIP3     3716     TIP3     OH2      OT      -0.834000       15.9994           0
     50543 TIP3     3716     TIP3     H1       HT       0.417000       1.00800           0
     50544 TIP3     3716     TIP3     H2       HT       0.417000       1.00800           0
     50545 TIP3     3717     TIP3     OH2      OT      -0.834000       15.9994           0
     50546 TIP3     3717     TIP3     H1       HT       0.417000       1.00800           0
     50547 TIP3     3717     TIP3     H2       HT       0.417000       1.00800           0
     50548 TIP3     3718     TIP3     OH2      OT      -0.834000       15.9994           0
     50549 TIP3     3718     TIP3     H1       HT       0.417000       1.00800           0
     50550 TIP3     3718     TIP3     H2       HT       0.417000       1.00800           0
     50551 TIP3     3719     TIP3     OH2      OT      -0.834000       15.9994           0
     50552 TIP3     3719     TIP3     H1       HT       0.417000       1.00800           0
     50553 TIP3     3719     TIP3     H2       HT       0.417000       1.00800           0
     50554 TIP3     3720     TIP3     OH2      OT      -0.834000       15.9994           0
     50555 TIP3     3720     TIP3     H1       HT       0.417000       1.00800           0
     50556 TIP3     3720     TIP3     H2       HT       0.417000       1.00800           0
     50557 TIP3     3721     TIP3     OH2      OT      -0.834000       15.9994           0
     50558 TIP3     3721     TIP3     H1       HT       0.417000       1.00800           0
     50559 TIP3     3721     TIP3     H2       HT       0.417000       1.00800           0
     50560 TIP3     3722     TIP3     OH2      OT      -0.834000       15.9994           0
     50561 TIP3     3722     TIP3     H1       HT       0.417000       1.00800           0
     50562 TIP3     3722     TIP3     H2       HT       0.417000       1.00800           0
     50563 TIP3     3723     TIP3     OH2      OT      -0.834000       15.9994           0
     50564 TIP3     3723     TIP3     H1       HT       0.417000       1.00800           0
     50565 TIP3     3723     TIP3     H2       HT       0.417000       1.00800           0
     50566 TIP3     3724     TIP3     OH2      OT      -0.834000       15.9994           0
     50567 TIP3     3724     TIP3     H1       HT       0.417000       1.00800           0
     50568 TIP3     3724     TIP3     H2       HT       0.417000       1.00800           0
     50569 TIP3     3725     TIP3     OH2      OT      -0.834000       15.9994           0
     50570 TIP3     3725     TIP3     H1       HT       0.417000       1.00800           0
     50571 TIP3     3725     TIP3     H2       HT       0.417000       1.00800           0
     50572 TIP3     3726     TIP3     OH2      OT      -0.834000       15.9994           0
     50573 TIP3     3726     TIP3     H1       HT       0.417000       1.00800           0
     50574 TIP3     3726     TIP3     H2       HT       0.417000       1.00800           0
     50575 TIP3     3727     TIP3     OH2      OT      -0.834000       15.9994           0
     50576 TIP3     3727     TIP3     H1       HT       0.417000       1.00800           0
     50577 TIP3     3727     TIP3     H2       HT       0.417000       1.00800           0
     50578 TIP3     3728     TIP3     OH2      OT      -0.834000       15.9994           0
     50579 TIP3     3728     TIP3     H1       HT       0.417000       1.00800           0
     50580 TIP3     3728     TIP3     H2       HT       0.417000       1.00800           0
     50581 TIP3     3729     TIP3     OH2      OT      -0.834000       15.9994           0
     50582 TIP3     3729     TIP3     H1       HT       0.417000       1.00800           0
     50583 TIP3     3729     TIP3     H2       HT       0.417000       1.00800           0
     50584 TIP3     3730     TIP3     OH2      OT      -0.834000       15.9994           0
     50585 TIP3     3730     TIP3     H1       HT       0.417000       1.00800           0
     50586 TIP3     3730     TIP3     H2       HT       0.417000       1.00800           0
     50587 TIP3     3731     TIP3     OH2      OT      -0.834000       15.9994           0
     50588 TIP3     3731     TIP3     H1       HT       0.417000       1.00800           0
     50589 TIP3     3731     TIP3     H2       HT       0.417000       1.00800           0
     50590 TIP3     3732     TIP3     OH2      OT      -0.834000       15.9994           0
     50591 TIP3     3732     TIP3     H1       HT       0.417000       1.00800           0
     50592 TIP3     3732     TIP3     H2       HT       0.417000       1.00800           0
     50593 TIP3     3733     TIP3     OH2      OT      -0.834000       15.9994           0
     50594 TIP3     3733     TIP3     H1       HT       0.417000       1.00800           0
     50595 TIP3     3733     TIP3     H2       HT       0.417000       1.00800           0
     50596 TIP3     3734     TIP3     OH2      OT      -0.834000       15.9994           0
     50597 TIP3     3734     TIP3     H1       HT       0.417000       1.00800           0
     50598 TIP3     3734     TIP3     H2       HT       0.417000       1.00800           0
     50599 TIP3     3735     TIP3     OH2      OT      -0.834000       15.9994           0
     50600 TIP3     3735     TIP3     H1       HT       0.417000       1.00800           0
     50601 TIP3     3735     TIP3     H2       HT       0.417000       1.00800           0
     50602 TIP3     3736     TIP3     OH2      OT      -0.834000       15.9994           0
     50603 TIP3     3736     TIP3     H1       HT       0.417000       1.00800           0
     50604 TIP3     3736     TIP3     H2       HT       0.417000       1.00800           0
     50605 TIP3     3737     TIP3     OH2      OT      -0.834000       15.9994           0
     50606 TIP3     3737     TIP3     H1       HT       0.417000       1.00800           0
     50607 TIP3     3737     TIP3     H2       HT       0.417000       1.00800           0
     50608 TIP3     3738     TIP3     OH2      OT      -0.834000       15.9994           0
     50609 TIP3     3738     TIP3     H1       HT       0.417000       1.00800           0
     50610 TIP3     3738     TIP3     H2       HT       0.417000       1.00800           0
     50611 TIP3     3739     TIP3     OH2      OT      -0.834000       15.9994           0
     50612 TIP3     3739     TIP3     H1       HT       0.417000       1.00800           0
     50613 TIP3     3739     TIP3     H2       HT       0.417000       1.00800           0
     50614 TIP3     3740     TIP3     OH2      OT      -0.834000       15.9994           0
     50615 TIP3     3740     TIP3     H1       HT       0.417000       1.00800           0
     50616 TIP3     3740     TIP3     H2       HT       0.417000       1.00800           0
     50617 TIP3     3741     TIP3     OH2      OT      -0.834000       15.9994           0
     50618 TIP3     3741     TIP3     H1       HT       0.417000       1.00800           0
     50619 TIP3     3741     TIP3     H2       HT       0.417000       1.00800           0
     50620 TIP3     3742     TIP3     OH2      OT      -0.834000       15.9994           0
     50621 TIP3     3742     TIP3     H1       HT       0.417000       1.00800           0
     50622 TIP3     3742     TIP3     H2       HT       0.417000       1.00800           0
     50623 TIP3     3743     TIP3     OH2      OT      -0.834000       15.9994           0
     50624 TIP3     3743     TIP3     H1       HT       0.417000       1.00800           0
     50625 TIP3     3743     TIP3     H2       HT       0.417000       1.00800           0
     50626 TIP3     3744     TIP3     OH2      OT      -0.834000       15.9994           0
     50627 TIP3     3744     TIP3     H1       HT       0.417000       1.00800           0
     50628 TIP3     3744     TIP3     H2       HT       0.417000       1.00800           0
     50629 TIP3     3745     TIP3     OH2      OT      -0.834000       15.9994           0
     50630 TIP3     3745     TIP3     H1       HT       0.417000       1.00800           0
     50631 TIP3     3745     TIP3     H2       HT       0.417000       1.00800           0
     50632 TIP3     3746     TIP3     OH2      OT      -0.834000       15.9994           0
     50633 TIP3     3746     TIP3     H1       HT       0.417000       1.00800           0
     50634 TIP3     3746     TIP3     H2       HT       0.417000       1.00800           0
     50635 TIP3     3747     TIP3     OH2      OT      -0.834000       15.9994           0
     50636 TIP3     3747     TIP3     H1       HT       0.417000       1.00800           0
     50637 TIP3     3747     TIP3     H2       HT       0.417000       1.00800           0
     50638 TIP3     3748     TIP3     OH2      OT      -0.834000       15.9994           0
     50639 TIP3     3748     TIP3     H1       HT       0.417000       1.00800           0
     50640 TIP3     3748     TIP3     H2       HT       0.417000       1.00800           0
     50641 TIP3     3749     TIP3     OH2      OT      -0.834000       15.9994           0
     50642 TIP3     3749     TIP3     H1       HT       0.417000       1.00800           0
     50643 TIP3     3749     TIP3     H2       HT       0.417000       1.00800           0
     50644 TIP3     3750     TIP3     OH2      OT      -0.834000       15.9994           0
     50645 TIP3     3750     TIP3     H1       HT       0.417000       1.00800           0
     50646 TIP3     3750     TIP3     H2       HT       0.417000       1.00800           0
     50647 TIP3     3751     TIP3     OH2      OT      -0.834000       15.9994           0
     50648 TIP3     3751     TIP3     H1       HT       0.417000       1.00800           0
     50649 TIP3     3751     TIP3     H2       HT       0.417000       1.00800           0
     50650 TIP3     3752     TIP3     OH2      OT      -0.834000       15.9994           0
     50651 TIP3     3752     TIP3     H1       HT       0.417000       1.00800           0
     50652 TIP3     3752     TIP3     H2       HT       0.417000       1.00800           0
     50653 TIP3     3753     TIP3     OH2      OT      -0.834000       15.9994           0
     50654 TIP3     3753     TIP3     H1       HT       0.417000       1.00800           0
     50655 TIP3     3753     TIP3     H2       HT       0.417000       1.00800           0
     50656 TIP3     3754     TIP3     OH2      OT      -0.834000       15.9994           0
     50657 TIP3     3754     TIP3     H1       HT       0.417000       1.00800           0
     50658 TIP3     3754     TIP3     H2       HT       0.417000       1.00800           0
     50659 TIP3     3755     TIP3     OH2      OT      -0.834000       15.9994           0
     50660 TIP3     3755     TIP3     H1       HT       0.417000       1.00800           0
     50661 TIP3     3755     TIP3     H2       HT       0.417000       1.00800           0
     50662 TIP3     3756     TIP3     OH2      OT      -0.834000       15.9994           0
     50663 TIP3     3756     TIP3     H1       HT       0.417000       1.00800           0
     50664 TIP3     3756     TIP3     H2       HT       0.417000       1.00800           0
     50665 TIP3     3757     TIP3     OH2      OT      -0.834000       15.9994           0
     50666 TIP3     3757     TIP3     H1       HT       0.417000       1.00800           0
     50667 TIP3     3757     TIP3     H2       HT       0.417000       1.00800           0
     50668 TIP3     3758     TIP3     OH2      OT      -0.834000       15.9994           0
     50669 TIP3     3758     TIP3     H1       HT       0.417000       1.00800           0
     50670 TIP3     3758     TIP3     H2       HT       0.417000       1.00800           0
     50671 TIP3     3759     TIP3     OH2      OT      -0.834000       15.9994           0
     50672 TIP3     3759     TIP3     H1       HT       0.417000       1.00800           0
     50673 TIP3     3759     TIP3     H2       HT       0.417000       1.00800           0
     50674 TIP3     3760     TIP3     OH2      OT      -0.834000       15.9994           0
     50675 TIP3     3760     TIP3     H1       HT       0.417000       1.00800           0
     50676 TIP3     3760     TIP3     H2       HT       0.417000       1.00800           0
     50677 TIP3     3761     TIP3     OH2      OT      -0.834000       15.9994           0
     50678 TIP3     3761     TIP3     H1       HT       0.417000       1.00800           0
     50679 TIP3     3761     TIP3     H2       HT       0.417000       1.00800           0
     50680 TIP3     3762     TIP3     OH2      OT      -0.834000       15.9994           0
     50681 TIP3     3762     TIP3     H1       HT       0.417000       1.00800           0
     50682 TIP3     3762     TIP3     H2       HT       0.417000       1.00800           0
     50683 TIP3     3763     TIP3     OH2      OT      -0.834000       15.9994           0
     50684 TIP3     3763     TIP3     H1       HT       0.417000       1.00800           0
     50685 TIP3     3763     TIP3     H2       HT       0.417000       1.00800           0
     50686 TIP3     3764     TIP3     OH2      OT      -0.834000       15.9994           0
     50687 TIP3     3764     TIP3     H1       HT       0.417000       1.00800           0
     50688 TIP3     3764     TIP3     H2       HT       0.417000       1.00800           0
     50689 TIP3     3765     TIP3     OH2      OT      -0.834000       15.9994           0
     50690 TIP3     3765     TIP3     H1       HT       0.417000       1.00800           0
     50691 TIP3     3765     TIP3     H2       HT       0.417000       1.00800           0
     50692 TIP3     3766     TIP3     OH2      OT      -0.834000       15.9994           0
     50693 TIP3     3766     TIP3     H1       HT       0.417000       1.00800           0
     50694 TIP3     3766     TIP3     H2       HT       0.417000       1.00800           0
     50695 TIP3     3767     TIP3     OH2      OT      -0.834000       15.9994           0
     50696 TIP3     3767     TIP3     H1       HT       0.417000       1.00800           0
     50697 TIP3     3767     TIP3     H2       HT       0.417000       1.00800           0
     50698 TIP3     3768     TIP3     OH2      OT      -0.834000       15.9994           0
     50699 TIP3     3768     TIP3     H1       HT       0.417000       1.00800           0
     50700 TIP3     3768     TIP3     H2       HT       0.417000       1.00800           0
     50701 TIP3     3769     TIP3     OH2      OT      -0.834000       15.9994           0
     50702 TIP3     3769     TIP3     H1       HT       0.417000       1.00800           0
     50703 TIP3     3769     TIP3     H2       HT       0.417000       1.00800           0
     50704 TIP3     3770     TIP3     OH2      OT      -0.834000       15.9994           0
     50705 TIP3     3770     TIP3     H1       HT       0.417000       1.00800           0
     50706 TIP3     3770     TIP3     H2       HT       0.417000       1.00800           0
     50707 TIP3     3771     TIP3     OH2      OT      -0.834000       15.9994           0
     50708 TIP3     3771     TIP3     H1       HT       0.417000       1.00800           0
     50709 TIP3     3771     TIP3     H2       HT       0.417000       1.00800           0
     50710 TIP3     3772     TIP3     OH2      OT      -0.834000       15.9994           0
     50711 TIP3     3772     TIP3     H1       HT       0.417000       1.00800           0
     50712 TIP3     3772     TIP3     H2       HT       0.417000       1.00800           0
     50713 TIP3     3773     TIP3     OH2      OT      -0.834000       15.9994           0
     50714 TIP3     3773     TIP3     H1       HT       0.417000       1.00800           0
     50715 TIP3     3773     TIP3     H2       HT       0.417000       1.00800           0
     50716 TIP3     3774     TIP3     OH2      OT      -0.834000       15.9994           0
     50717 TIP3     3774     TIP3     H1       HT       0.417000       1.00800           0
     50718 TIP3     3774     TIP3     H2       HT       0.417000       1.00800           0
     50719 TIP3     3775     TIP3     OH2      OT      -0.834000       15.9994           0
     50720 TIP3     3775     TIP3     H1       HT       0.417000       1.00800           0
     50721 TIP3     3775     TIP3     H2       HT       0.417000       1.00800           0
     50722 TIP3     3776     TIP3     OH2      OT      -0.834000       15.9994           0
     50723 TIP3     3776     TIP3     H1       HT       0.417000       1.00800           0
     50724 TIP3     3776     TIP3     H2       HT       0.417000       1.00800           0
     50725 TIP3     3777     TIP3     OH2      OT      -0.834000       15.9994           0
     50726 TIP3     3777     TIP3     H1       HT       0.417000       1.00800           0
     50727 TIP3     3777     TIP3     H2       HT       0.417000       1.00800           0
     50728 TIP3     3778     TIP3     OH2      OT      -0.834000       15.9994           0
     50729 TIP3     3778     TIP3     H1       HT       0.417000       1.00800           0
     50730 TIP3     3778     TIP3     H2       HT       0.417000       1.00800           0
     50731 TIP3     3779     TIP3     OH2      OT      -0.834000       15.9994           0
     50732 TIP3     3779     TIP3     H1       HT       0.417000       1.00800           0
     50733 TIP3     3779     TIP3     H2       HT       0.417000       1.00800           0
     50734 TIP3     3780     TIP3     OH2      OT      -0.834000       15.9994           0
     50735 TIP3     3780     TIP3     H1       HT       0.417000       1.00800           0
     50736 TIP3     3780     TIP3     H2       HT       0.417000       1.00800           0
     50737 TIP3     3781     TIP3     OH2      OT      -0.834000       15.9994           0
     50738 TIP3     3781     TIP3     H1       HT       0.417000       1.00800           0
     50739 TIP3     3781     TIP3     H2       HT       0.417000       1.00800           0
     50740 TIP3     3782     TIP3     OH2      OT      -0.834000       15.9994           0
     50741 TIP3     3782     TIP3     H1       HT       0.417000       1.00800           0
     50742 TIP3     3782     TIP3     H2       HT       0.417000       1.00800           0
     50743 TIP3     3783     TIP3     OH2      OT      -0.834000       15.9994           0
     50744 TIP3     3783     TIP3     H1       HT       0.417000       1.00800           0
     50745 TIP3     3783     TIP3     H2       HT       0.417000       1.00800           0
     50746 TIP3     3784     TIP3     OH2      OT      -0.834000       15.9994           0
     50747 TIP3     3784     TIP3     H1       HT       0.417000       1.00800           0
     50748 TIP3     3784     TIP3     H2       HT       0.417000       1.00800           0
     50749 TIP3     3785     TIP3     OH2      OT      -0.834000       15.9994           0
     50750 TIP3     3785     TIP3     H1       HT       0.417000       1.00800           0
     50751 TIP3     3785     TIP3     H2       HT       0.417000       1.00800           0
     50752 TIP3     3786     TIP3     OH2      OT      -0.834000       15.9994           0
     50753 TIP3     3786     TIP3     H1       HT       0.417000       1.00800           0
     50754 TIP3     3786     TIP3     H2       HT       0.417000       1.00800           0
     50755 TIP3     3787     TIP3     OH2      OT      -0.834000       15.9994           0
     50756 TIP3     3787     TIP3     H1       HT       0.417000       1.00800           0
     50757 TIP3     3787     TIP3     H2       HT       0.417000       1.00800           0
     50758 TIP3     3788     TIP3     OH2      OT      -0.834000       15.9994           0
     50759 TIP3     3788     TIP3     H1       HT       0.417000       1.00800           0
     50760 TIP3     3788     TIP3     H2       HT       0.417000       1.00800           0
     50761 TIP3     3789     TIP3     OH2      OT      -0.834000       15.9994           0
     50762 TIP3     3789     TIP3     H1       HT       0.417000       1.00800           0
     50763 TIP3     3789     TIP3     H2       HT       0.417000       1.00800           0
     50764 TIP3     3790     TIP3     OH2      OT      -0.834000       15.9994           0
     50765 TIP3     3790     TIP3     H1       HT       0.417000       1.00800           0
     50766 TIP3     3790     TIP3     H2       HT       0.417000       1.00800           0
     50767 TIP3     3791     TIP3     OH2      OT      -0.834000       15.9994           0
     50768 TIP3     3791     TIP3     H1       HT       0.417000       1.00800           0
     50769 TIP3     3791     TIP3     H2       HT       0.417000       1.00800           0
     50770 TIP3     3792     TIP3     OH2      OT      -0.834000       15.9994           0
     50771 TIP3     3792     TIP3     H1       HT       0.417000       1.00800           0
     50772 TIP3     3792     TIP3     H2       HT       0.417000       1.00800           0
     50773 TIP3     3793     TIP3     OH2      OT      -0.834000       15.9994           0
     50774 TIP3     3793     TIP3     H1       HT       0.417000       1.00800           0
     50775 TIP3     3793     TIP3     H2       HT       0.417000       1.00800           0
     50776 TIP3     3794     TIP3     OH2      OT      -0.834000       15.9994           0
     50777 TIP3     3794     TIP3     H1       HT       0.417000       1.00800           0
     50778 TIP3     3794     TIP3     H2       HT       0.417000       1.00800           0
     50779 TIP3     3795     TIP3     OH2      OT      -0.834000       15.9994           0
     50780 TIP3     3795     TIP3     H1       HT       0.417000       1.00800           0
     50781 TIP3     3795     TIP3     H2       HT       0.417000       1.00800           0
     50782 TIP3     3796     TIP3     OH2      OT      -0.834000       15.9994           0
     50783 TIP3     3796     TIP3     H1       HT       0.417000       1.00800           0
     50784 TIP3     3796     TIP3     H2       HT       0.417000       1.00800           0
     50785 TIP3     3797     TIP3     OH2      OT      -0.834000       15.9994           0
     50786 TIP3     3797     TIP3     H1       HT       0.417000       1.00800           0
     50787 TIP3     3797     TIP3     H2       HT       0.417000       1.00800           0
     50788 TIP3     3798     TIP3     OH2      OT      -0.834000       15.9994           0
     50789 TIP3     3798     TIP3     H1       HT       0.417000       1.00800           0
     50790 TIP3     3798     TIP3     H2       HT       0.417000       1.00800           0
     50791 TIP3     3799     TIP3     OH2      OT      -0.834000       15.9994           0
     50792 TIP3     3799     TIP3     H1       HT       0.417000       1.00800           0
     50793 TIP3     3799     TIP3     H2       HT       0.417000       1.00800           0
     50794 TIP3     3800     TIP3     OH2      OT      -0.834000       15.9994           0
     50795 TIP3     3800     TIP3     H1       HT       0.417000       1.00800           0
     50796 TIP3     3800     TIP3     H2       HT       0.417000       1.00800           0
     50797 TIP3     3801     TIP3     OH2      OT      -0.834000       15.9994           0
     50798 TIP3     3801     TIP3     H1       HT       0.417000       1.00800           0
     50799 TIP3     3801     TIP3     H2       HT       0.417000       1.00800           0
     50800 TIP3     3802     TIP3     OH2      OT      -0.834000       15.9994           0
     50801 TIP3     3802     TIP3     H1       HT       0.417000       1.00800           0
     50802 TIP3     3802     TIP3     H2       HT       0.417000       1.00800           0
     50803 TIP3     3803     TIP3     OH2      OT      -0.834000       15.9994           0
     50804 TIP3     3803     TIP3     H1       HT       0.417000       1.00800           0
     50805 TIP3     3803     TIP3     H2       HT       0.417000       1.00800           0
     50806 TIP3     3804     TIP3     OH2      OT      -0.834000       15.9994           0
     50807 TIP3     3804     TIP3     H1       HT       0.417000       1.00800           0
     50808 TIP3     3804     TIP3     H2       HT       0.417000       1.00800           0
     50809 TIP3     3805     TIP3     OH2      OT      -0.834000       15.9994           0
     50810 TIP3     3805     TIP3     H1       HT       0.417000       1.00800           0
     50811 TIP3     3805     TIP3     H2       HT       0.417000       1.00800           0
     50812 TIP3     3806     TIP3     OH2      OT      -0.834000       15.9994           0
     50813 TIP3     3806     TIP3     H1       HT       0.417000       1.00800           0
     50814 TIP3     3806     TIP3     H2       HT       0.417000       1.00800           0
     50815 TIP3     3807     TIP3     OH2      OT      -0.834000       15.9994           0
     50816 TIP3     3807     TIP3     H1       HT       0.417000       1.00800           0
     50817 TIP3     3807     TIP3     H2       HT       0.417000       1.00800           0
     50818 TIP3     3808     TIP3     OH2      OT      -0.834000       15.9994           0
     50819 TIP3     3808     TIP3     H1       HT       0.417000       1.00800           0
     50820 TIP3     3808     TIP3     H2       HT       0.417000       1.00800           0
     50821 TIP3     3809     TIP3     OH2      OT      -0.834000       15.9994           0
     50822 TIP3     3809     TIP3     H1       HT       0.417000       1.00800           0
     50823 TIP3     3809     TIP3     H2       HT       0.417000       1.00800           0
     50824 TIP3     3810     TIP3     OH2      OT      -0.834000       15.9994           0
     50825 TIP3     3810     TIP3     H1       HT       0.417000       1.00800           0
     50826 TIP3     3810     TIP3     H2       HT       0.417000       1.00800           0
     50827 TIP3     3811     TIP3     OH2      OT      -0.834000       15.9994           0
     50828 TIP3     3811     TIP3     H1       HT       0.417000       1.00800           0
     50829 TIP3     3811     TIP3     H2       HT       0.417000       1.00800           0
     50830 TIP3     3812     TIP3     OH2      OT      -0.834000       15.9994           0
     50831 TIP3     3812     TIP3     H1       HT       0.417000       1.00800           0
     50832 TIP3     3812     TIP3     H2       HT       0.417000       1.00800           0
     50833 TIP3     3813     TIP3     OH2      OT      -0.834000       15.9994           0
     50834 TIP3     3813     TIP3     H1       HT       0.417000       1.00800           0
     50835 TIP3     3813     TIP3     H2       HT       0.417000       1.00800           0
     50836 TIP3     3814     TIP3     OH2      OT      -0.834000       15.9994           0
     50837 TIP3     3814     TIP3     H1       HT       0.417000       1.00800           0
     50838 TIP3     3814     TIP3     H2       HT       0.417000       1.00800           0
     50839 TIP3     3815     TIP3     OH2      OT      -0.834000       15.9994           0
     50840 TIP3     3815     TIP3     H1       HT       0.417000       1.00800           0
     50841 TIP3     3815     TIP3     H2       HT       0.417000       1.00800           0
     50842 TIP3     3816     TIP3     OH2      OT      -0.834000       15.9994           0
     50843 TIP3     3816     TIP3     H1       HT       0.417000       1.00800           0
     50844 TIP3     3816     TIP3     H2       HT       0.417000       1.00800           0
     50845 TIP3     3817     TIP3     OH2      OT      -0.834000       15.9994           0
     50846 TIP3     3817     TIP3     H1       HT       0.417000       1.00800           0
     50847 TIP3     3817     TIP3     H2       HT       0.417000       1.00800           0
     50848 TIP3     3818     TIP3     OH2      OT      -0.834000       15.9994           0
     50849 TIP3     3818     TIP3     H1       HT       0.417000       1.00800           0
     50850 TIP3     3818     TIP3     H2       HT       0.417000       1.00800           0
     50851 TIP3     3819     TIP3     OH2      OT      -0.834000       15.9994           0
     50852 TIP3     3819     TIP3     H1       HT       0.417000       1.00800           0
     50853 TIP3     3819     TIP3     H2       HT       0.417000       1.00800           0
     50854 TIP3     3820     TIP3     OH2      OT      -0.834000       15.9994           0
     50855 TIP3     3820     TIP3     H1       HT       0.417000       1.00800           0
     50856 TIP3     3820     TIP3     H2       HT       0.417000       1.00800           0
     50857 TIP3     3821     TIP3     OH2      OT      -0.834000       15.9994           0
     50858 TIP3     3821     TIP3     H1       HT       0.417000       1.00800           0
     50859 TIP3     3821     TIP3     H2       HT       0.417000       1.00800           0
     50860 TIP3     3822     TIP3     OH2      OT      -0.834000       15.9994           0
     50861 TIP3     3822     TIP3     H1       HT       0.417000       1.00800           0
     50862 TIP3     3822     TIP3     H2       HT       0.417000       1.00800           0
     50863 TIP3     3823     TIP3     OH2      OT      -0.834000       15.9994           0
     50864 TIP3     3823     TIP3     H1       HT       0.417000       1.00800           0
     50865 TIP3     3823     TIP3     H2       HT       0.417000       1.00800           0
     50866 TIP3     3824     TIP3     OH2      OT      -0.834000       15.9994           0
     50867 TIP3     3824     TIP3     H1       HT       0.417000       1.00800           0
     50868 TIP3     3824     TIP3     H2       HT       0.417000       1.00800           0
     50869 TIP3     3825     TIP3     OH2      OT      -0.834000       15.9994           0
     50870 TIP3     3825     TIP3     H1       HT       0.417000       1.00800           0
     50871 TIP3     3825     TIP3     H2       HT       0.417000       1.00800           0
     50872 TIP3     3826     TIP3     OH2      OT      -0.834000       15.9994           0
     50873 TIP3     3826     TIP3     H1       HT       0.417000       1.00800           0
     50874 TIP3     3826     TIP3     H2       HT       0.417000       1.00800           0
     50875 TIP3     3827     TIP3     OH2      OT      -0.834000       15.9994           0
     50876 TIP3     3827     TIP3     H1       HT       0.417000       1.00800           0
     50877 TIP3     3827     TIP3     H2       HT       0.417000       1.00800           0
     50878 TIP3     3828     TIP3     OH2      OT      -0.834000       15.9994           0
     50879 TIP3     3828     TIP3     H1       HT       0.417000       1.00800           0
     50880 TIP3     3828     TIP3     H2       HT       0.417000       1.00800           0
     50881 TIP3     3829     TIP3     OH2      OT      -0.834000       15.9994           0
     50882 TIP3     3829     TIP3     H1       HT       0.417000       1.00800           0
     50883 TIP3     3829     TIP3     H2       HT       0.417000       1.00800           0
     50884 TIP3     3830     TIP3     OH2      OT      -0.834000       15.9994           0
     50885 TIP3     3830     TIP3     H1       HT       0.417000       1.00800           0
     50886 TIP3     3830     TIP3     H2       HT       0.417000       1.00800           0
     50887 TIP3     3831     TIP3     OH2      OT      -0.834000       15.9994           0
     50888 TIP3     3831     TIP3     H1       HT       0.417000       1.00800           0
     50889 TIP3     3831     TIP3     H2       HT       0.417000       1.00800           0
     50890 TIP3     3832     TIP3     OH2      OT      -0.834000       15.9994           0
     50891 TIP3     3832     TIP3     H1       HT       0.417000       1.00800           0
     50892 TIP3     3832     TIP3     H2       HT       0.417000       1.00800           0
     50893 TIP3     3833     TIP3     OH2      OT      -0.834000       15.9994           0
     50894 TIP3     3833     TIP3     H1       HT       0.417000       1.00800           0
     50895 TIP3     3833     TIP3     H2       HT       0.417000       1.00800           0
     50896 TIP3     3834     TIP3     OH2      OT      -0.834000       15.9994           0
     50897 TIP3     3834     TIP3     H1       HT       0.417000       1.00800           0
     50898 TIP3     3834     TIP3     H2       HT       0.417000       1.00800           0
     50899 TIP3     3835     TIP3     OH2      OT      -0.834000       15.9994           0
     50900 TIP3     3835     TIP3     H1       HT       0.417000       1.00800           0
     50901 TIP3     3835     TIP3     H2       HT       0.417000       1.00800           0
     50902 TIP3     3836     TIP3     OH2      OT      -0.834000       15.9994           0
     50903 TIP3     3836     TIP3     H1       HT       0.417000       1.00800           0
     50904 TIP3     3836     TIP3     H2       HT       0.417000       1.00800           0
     50905 TIP3     3837     TIP3     OH2      OT      -0.834000       15.9994           0
     50906 TIP3     3837     TIP3     H1       HT       0.417000       1.00800           0
     50907 TIP3     3837     TIP3     H2       HT       0.417000       1.00800           0
     50908 TIP3     3838     TIP3     OH2      OT      -0.834000       15.9994           0
     50909 TIP3     3838     TIP3     H1       HT       0.417000       1.00800           0
     50910 TIP3     3838     TIP3     H2       HT       0.417000       1.00800           0
     50911 TIP3     3839     TIP3     OH2      OT      -0.834000       15.9994           0
     50912 TIP3     3839     TIP3     H1       HT       0.417000       1.00800           0
     50913 TIP3     3839     TIP3     H2       HT       0.417000       1.00800           0
     50914 TIP3     3840     TIP3     OH2      OT      -0.834000       15.9994           0
     50915 TIP3     3840     TIP3     H1       HT       0.417000       1.00800           0
     50916 TIP3     3840     TIP3     H2       HT       0.417000       1.00800           0
     50917 TIP3     3841     TIP3     OH2      OT      -0.834000       15.9994           0
     50918 TIP3     3841     TIP3     H1       HT       0.417000       1.00800           0
     50919 TIP3     3841     TIP3     H2       HT       0.417000       1.00800           0
     50920 TIP3     3842     TIP3     OH2      OT      -0.834000       15.9994           0
     50921 TIP3     3842     TIP3     H1       HT       0.417000       1.00800           0
     50922 TIP3     3842     TIP3     H2       HT       0.417000       1.00800           0
     50923 TIP3     3843     TIP3     OH2      OT      -0.834000       15.9994           0
     50924 TIP3     3843     TIP3     H1       HT       0.417000       1.00800           0
     50925 TIP3     3843     TIP3     H2       HT       0.417000       1.00800           0
     50926 TIP3     3844     TIP3     OH2      OT      -0.834000       15.9994           0
     50927 TIP3     3844     TIP3     H1       HT       0.417000       1.00800           0
     50928 TIP3     3844     TIP3     H2       HT       0.417000       1.00800           0
     50929 TIP3     3845     TIP3     OH2      OT      -0.834000       15.9994           0
     50930 TIP3     3845     TIP3     H1       HT       0.417000       1.00800           0
     50931 TIP3     3845     TIP3     H2       HT       0.417000       1.00800           0
     50932 TIP3     3846     TIP3     OH2      OT      -0.834000       15.9994           0
     50933 TIP3     3846     TIP3     H1       HT       0.417000       1.00800           0
     50934 TIP3     3846     TIP3     H2       HT       0.417000       1.00800           0
     50935 TIP3     3847     TIP3     OH2      OT      -0.834000       15.9994           0
     50936 TIP3     3847     TIP3     H1       HT       0.417000       1.00800           0
     50937 TIP3     3847     TIP3     H2       HT       0.417000       1.00800           0
     50938 TIP3     3848     TIP3     OH2      OT      -0.834000       15.9994           0
     50939 TIP3     3848     TIP3     H1       HT       0.417000       1.00800           0
     50940 TIP3     3848     TIP3     H2       HT       0.417000       1.00800           0
     50941 TIP3     3849     TIP3     OH2      OT      -0.834000       15.9994           0
     50942 TIP3     3849     TIP3     H1       HT       0.417000       1.00800           0
     50943 TIP3     3849     TIP3     H2       HT       0.417000       1.00800           0
     50944 TIP3     3850     TIP3     OH2      OT      -0.834000       15.9994           0
     50945 TIP3     3850     TIP3     H1       HT       0.417000       1.00800           0
     50946 TIP3     3850     TIP3     H2       HT       0.417000       1.00800           0
     50947 TIP3     3851     TIP3     OH2      OT      -0.834000       15.9994           0
     50948 TIP3     3851     TIP3     H1       HT       0.417000       1.00800           0
     50949 TIP3     3851     TIP3     H2       HT       0.417000       1.00800           0
     50950 TIP3     3852     TIP3     OH2      OT      -0.834000       15.9994           0
     50951 TIP3     3852     TIP3     H1       HT       0.417000       1.00800           0
     50952 TIP3     3852     TIP3     H2       HT       0.417000       1.00800           0
     50953 TIP3     3853     TIP3     OH2      OT      -0.834000       15.9994           0
     50954 TIP3     3853     TIP3     H1       HT       0.417000       1.00800           0
     50955 TIP3     3853     TIP3     H2       HT       0.417000       1.00800           0
     50956 TIP3     3854     TIP3     OH2      OT      -0.834000       15.9994           0
     50957 TIP3     3854     TIP3     H1       HT       0.417000       1.00800           0
     50958 TIP3     3854     TIP3     H2       HT       0.417000       1.00800           0
     50959 TIP3     3855     TIP3     OH2      OT      -0.834000       15.9994           0
     50960 TIP3     3855     TIP3     H1       HT       0.417000       1.00800           0
     50961 TIP3     3855     TIP3     H2       HT       0.417000       1.00800           0
     50962 TIP3     3856     TIP3     OH2      OT      -0.834000       15.9994           0
     50963 TIP3     3856     TIP3     H1       HT       0.417000       1.00800           0
     50964 TIP3     3856     TIP3     H2       HT       0.417000       1.00800           0
     50965 TIP3     3857     TIP3     OH2      OT      -0.834000       15.9994           0
     50966 TIP3     3857     TIP3     H1       HT       0.417000       1.00800           0
     50967 TIP3     3857     TIP3     H2       HT       0.417000       1.00800           0
     50968 TIP3     3858     TIP3     OH2      OT      -0.834000       15.9994           0
     50969 TIP3     3858     TIP3     H1       HT       0.417000       1.00800           0
     50970 TIP3     3858     TIP3     H2       HT       0.417000       1.00800           0
     50971 TIP3     3859     TIP3     OH2      OT      -0.834000       15.9994           0
     50972 TIP3     3859     TIP3     H1       HT       0.417000       1.00800           0
     50973 TIP3     3859     TIP3     H2       HT       0.417000       1.00800           0
     50974 TIP3     3860     TIP3     OH2      OT      -0.834000       15.9994           0
     50975 TIP3     3860     TIP3     H1       HT       0.417000       1.00800           0
     50976 TIP3     3860     TIP3     H2       HT       0.417000       1.00800           0
     50977 TIP3     3861     TIP3     OH2      OT      -0.834000       15.9994           0
     50978 TIP3     3861     TIP3     H1       HT       0.417000       1.00800           0
     50979 TIP3     3861     TIP3     H2       HT       0.417000       1.00800           0
     50980 TIP3     3862     TIP3     OH2      OT      -0.834000       15.9994           0
     50981 TIP3     3862     TIP3     H1       HT       0.417000       1.00800           0
     50982 TIP3     3862     TIP3     H2       HT       0.417000       1.00800           0
     50983 TIP3     3863     TIP3     OH2      OT      -0.834000       15.9994           0
     50984 TIP3     3863     TIP3     H1       HT       0.417000       1.00800           0
     50985 TIP3     3863     TIP3     H2       HT       0.417000       1.00800           0
     50986 TIP3     3864     TIP3     OH2      OT      -0.834000       15.9994           0
     50987 TIP3     3864     TIP3     H1       HT       0.417000       1.00800           0
     50988 TIP3     3864     TIP3     H2       HT       0.417000       1.00800           0
     50989 TIP3     3865     TIP3     OH2      OT      -0.834000       15.9994           0
     50990 TIP3     3865     TIP3     H1       HT       0.417000       1.00800           0
     50991 TIP3     3865     TIP3     H2       HT       0.417000       1.00800           0
     50992 TIP3     3866     TIP3     OH2      OT      -0.834000       15.9994           0
     50993 TIP3     3866     TIP3     H1       HT       0.417000       1.00800           0
     50994 TIP3     3866     TIP3     H2       HT       0.417000       1.00800           0
     50995 TIP3     3867     TIP3     OH2      OT      -0.834000       15.9994           0
     50996 TIP3     3867     TIP3     H1       HT       0.417000       1.00800           0
     50997 TIP3     3867     TIP3     H2       HT       0.417000       1.00800           0
     50998 TIP3     3868     TIP3     OH2      OT      -0.834000       15.9994           0
     50999 TIP3     3868     TIP3     H1       HT       0.417000       1.00800           0
     51000 TIP3     3868     TIP3     H2       HT       0.417000       1.00800           0
     51001 TIP3     3869     TIP3     OH2      OT      -0.834000       15.9994           0
     51002 TIP3     3869     TIP3     H1       HT       0.417000       1.00800           0
     51003 TIP3     3869     TIP3     H2       HT       0.417000       1.00800           0
     51004 TIP3     3870     TIP3     OH2      OT      -0.834000       15.9994           0
     51005 TIP3     3870     TIP3     H1       HT       0.417000       1.00800           0
     51006 TIP3     3870     TIP3     H2       HT       0.417000       1.00800           0
     51007 TIP3     3871     TIP3     OH2      OT      -0.834000       15.9994           0
     51008 TIP3     3871     TIP3     H1       HT       0.417000       1.00800           0
     51009 TIP3     3871     TIP3     H2       HT       0.417000       1.00800           0
     51010 TIP3     3872     TIP3     OH2      OT      -0.834000       15.9994           0
     51011 TIP3     3872     TIP3     H1       HT       0.417000       1.00800           0
     51012 TIP3     3872     TIP3     H2       HT       0.417000       1.00800           0
     51013 TIP3     3873     TIP3     OH2      OT      -0.834000       15.9994           0
     51014 TIP3     3873     TIP3     H1       HT       0.417000       1.00800           0
     51015 TIP3     3873     TIP3     H2       HT       0.417000       1.00800           0
     51016 TIP3     3874     TIP3     OH2      OT      -0.834000       15.9994           0
     51017 TIP3     3874     TIP3     H1       HT       0.417000       1.00800           0
     51018 TIP3     3874     TIP3     H2       HT       0.417000       1.00800           0
     51019 TIP3     3875     TIP3     OH2      OT      -0.834000       15.9994           0
     51020 TIP3     3875     TIP3     H1       HT       0.417000       1.00800           0
     51021 TIP3     3875     TIP3     H2       HT       0.417000       1.00800           0
     51022 TIP3     3876     TIP3     OH2      OT      -0.834000       15.9994           0
     51023 TIP3     3876     TIP3     H1       HT       0.417000       1.00800           0
     51024 TIP3     3876     TIP3     H2       HT       0.417000       1.00800           0
     51025 TIP3     3877     TIP3     OH2      OT      -0.834000       15.9994           0
     51026 TIP3     3877     TIP3     H1       HT       0.417000       1.00800           0
     51027 TIP3     3877     TIP3     H2       HT       0.417000       1.00800           0
     51028 TIP3     3878     TIP3     OH2      OT      -0.834000       15.9994           0
     51029 TIP3     3878     TIP3     H1       HT       0.417000       1.00800           0
     51030 TIP3     3878     TIP3     H2       HT       0.417000       1.00800           0
     51031 TIP3     3879     TIP3     OH2      OT      -0.834000       15.9994           0
     51032 TIP3     3879     TIP3     H1       HT       0.417000       1.00800           0
     51033 TIP3     3879     TIP3     H2       HT       0.417000       1.00800           0
     51034 TIP3     3880     TIP3     OH2      OT      -0.834000       15.9994           0
     51035 TIP3     3880     TIP3     H1       HT       0.417000       1.00800           0
     51036 TIP3     3880     TIP3     H2       HT       0.417000       1.00800           0
     51037 TIP3     3881     TIP3     OH2      OT      -0.834000       15.9994           0
     51038 TIP3     3881     TIP3     H1       HT       0.417000       1.00800           0
     51039 TIP3     3881     TIP3     H2       HT       0.417000       1.00800           0
     51040 TIP3     3882     TIP3     OH2      OT      -0.834000       15.9994           0
     51041 TIP3     3882     TIP3     H1       HT       0.417000       1.00800           0
     51042 TIP3     3882     TIP3     H2       HT       0.417000       1.00800           0
     51043 TIP3     3883     TIP3     OH2      OT      -0.834000       15.9994           0
     51044 TIP3     3883     TIP3     H1       HT       0.417000       1.00800           0
     51045 TIP3     3883     TIP3     H2       HT       0.417000       1.00800           0
     51046 TIP3     3884     TIP3     OH2      OT      -0.834000       15.9994           0
     51047 TIP3     3884     TIP3     H1       HT       0.417000       1.00800           0
     51048 TIP3     3884     TIP3     H2       HT       0.417000       1.00800           0
     51049 TIP3     3885     TIP3     OH2      OT      -0.834000       15.9994           0
     51050 TIP3     3885     TIP3     H1       HT       0.417000       1.00800           0
     51051 TIP3     3885     TIP3     H2       HT       0.417000       1.00800           0
     51052 TIP3     3886     TIP3     OH2      OT      -0.834000       15.9994           0
     51053 TIP3     3886     TIP3     H1       HT       0.417000       1.00800           0
     51054 TIP3     3886     TIP3     H2       HT       0.417000       1.00800           0
     51055 TIP3     3887     TIP3     OH2      OT      -0.834000       15.9994           0
     51056 TIP3     3887     TIP3     H1       HT       0.417000       1.00800           0
     51057 TIP3     3887     TIP3     H2       HT       0.417000       1.00800           0
     51058 TIP3     3888     TIP3     OH2      OT      -0.834000       15.9994           0
     51059 TIP3     3888     TIP3     H1       HT       0.417000       1.00800           0
     51060 TIP3     3888     TIP3     H2       HT       0.417000       1.00800           0
     51061 TIP3     3889     TIP3     OH2      OT      -0.834000       15.9994           0
     51062 TIP3     3889     TIP3     H1       HT       0.417000       1.00800           0
     51063 TIP3     3889     TIP3     H2       HT       0.417000       1.00800           0
     51064 TIP3     3890     TIP3     OH2      OT      -0.834000       15.9994           0
     51065 TIP3     3890     TIP3     H1       HT       0.417000       1.00800           0
     51066 TIP3     3890     TIP3     H2       HT       0.417000       1.00800           0
     51067 TIP3     3891     TIP3     OH2      OT      -0.834000       15.9994           0
     51068 TIP3     3891     TIP3     H1       HT       0.417000       1.00800           0
     51069 TIP3     3891     TIP3     H2       HT       0.417000       1.00800           0
     51070 TIP3     3892     TIP3     OH2      OT      -0.834000       15.9994           0
     51071 TIP3     3892     TIP3     H1       HT       0.417000       1.00800           0
     51072 TIP3     3892     TIP3     H2       HT       0.417000       1.00800           0
     51073 TIP3     3893     TIP3     OH2      OT      -0.834000       15.9994           0
     51074 TIP3     3893     TIP3     H1       HT       0.417000       1.00800           0
     51075 TIP3     3893     TIP3     H2       HT       0.417000       1.00800           0
     51076 TIP3     3894     TIP3     OH2      OT      -0.834000       15.9994           0
     51077 TIP3     3894     TIP3     H1       HT       0.417000       1.00800           0
     51078 TIP3     3894     TIP3     H2       HT       0.417000       1.00800           0
     51079 TIP3     3895     TIP3     OH2      OT      -0.834000       15.9994           0
     51080 TIP3     3895     TIP3     H1       HT       0.417000       1.00800           0
     51081 TIP3     3895     TIP3     H2       HT       0.417000       1.00800           0
     51082 TIP3     3896     TIP3     OH2      OT      -0.834000       15.9994           0
     51083 TIP3     3896     TIP3     H1       HT       0.417000       1.00800           0
     51084 TIP3     3896     TIP3     H2       HT       0.417000       1.00800           0
     51085 TIP3     3897     TIP3     OH2      OT      -0.834000       15.9994           0
     51086 TIP3     3897     TIP3     H1       HT       0.417000       1.00800           0
     51087 TIP3     3897     TIP3     H2       HT       0.417000       1.00800           0
     51088 TIP3     3898     TIP3     OH2      OT      -0.834000       15.9994           0
     51089 TIP3     3898     TIP3     H1       HT       0.417000       1.00800           0
     51090 TIP3     3898     TIP3     H2       HT       0.417000       1.00800           0
     51091 TIP3     3899     TIP3     OH2      OT      -0.834000       15.9994           0
     51092 TIP3     3899     TIP3     H1       HT       0.417000       1.00800           0
     51093 TIP3     3899     TIP3     H2       HT       0.417000       1.00800           0
     51094 TIP3     3900     TIP3     OH2      OT      -0.834000       15.9994           0
     51095 TIP3     3900     TIP3     H1       HT       0.417000       1.00800           0
     51096 TIP3     3900     TIP3     H2       HT       0.417000       1.00800           0
     51097 TIP3     3901     TIP3     OH2      OT      -0.834000       15.9994           0
     51098 TIP3     3901     TIP3     H1       HT       0.417000       1.00800           0
     51099 TIP3     3901     TIP3     H2       HT       0.417000       1.00800           0
     51100 TIP3     3902     TIP3     OH2      OT      -0.834000       15.9994           0
     51101 TIP3     3902     TIP3     H1       HT       0.417000       1.00800           0
     51102 TIP3     3902     TIP3     H2       HT       0.417000       1.00800           0
     51103 TIP3     3903     TIP3     OH2      OT      -0.834000       15.9994           0
     51104 TIP3     3903     TIP3     H1       HT       0.417000       1.00800           0
     51105 TIP3     3903     TIP3     H2       HT       0.417000       1.00800           0
     51106 TIP3     3904     TIP3     OH2      OT      -0.834000       15.9994           0
     51107 TIP3     3904     TIP3     H1       HT       0.417000       1.00800           0
     51108 TIP3     3904     TIP3     H2       HT       0.417000       1.00800           0
     51109 TIP3     3905     TIP3     OH2      OT      -0.834000       15.9994           0
     51110 TIP3     3905     TIP3     H1       HT       0.417000       1.00800           0
     51111 TIP3     3905     TIP3     H2       HT       0.417000       1.00800           0
     51112 TIP3     3906     TIP3     OH2      OT      -0.834000       15.9994           0
     51113 TIP3     3906     TIP3     H1       HT       0.417000       1.00800           0
     51114 TIP3     3906     TIP3     H2       HT       0.417000       1.00800           0
     51115 TIP3     3907     TIP3     OH2      OT      -0.834000       15.9994           0
     51116 TIP3     3907     TIP3     H1       HT       0.417000       1.00800           0
     51117 TIP3     3907     TIP3     H2       HT       0.417000       1.00800           0
     51118 TIP3     3908     TIP3     OH2      OT      -0.834000       15.9994           0
     51119 TIP3     3908     TIP3     H1       HT       0.417000       1.00800           0
     51120 TIP3     3908     TIP3     H2       HT       0.417000       1.00800           0
     51121 TIP3     3909     TIP3     OH2      OT      -0.834000       15.9994           0
     51122 TIP3     3909     TIP3     H1       HT       0.417000       1.00800           0
     51123 TIP3     3909     TIP3     H2       HT       0.417000       1.00800           0
     51124 TIP3     3910     TIP3     OH2      OT      -0.834000       15.9994           0
     51125 TIP3     3910     TIP3     H1       HT       0.417000       1.00800           0
     51126 TIP3     3910     TIP3     H2       HT       0.417000       1.00800           0
     51127 TIP3     3911     TIP3     OH2      OT      -0.834000       15.9994           0
     51128 TIP3     3911     TIP3     H1       HT       0.417000       1.00800           0
     51129 TIP3     3911     TIP3     H2       HT       0.417000       1.00800           0
     51130 TIP3     3912     TIP3     OH2      OT      -0.834000       15.9994           0
     51131 TIP3     3912     TIP3     H1       HT       0.417000       1.00800           0
     51132 TIP3     3912     TIP3     H2       HT       0.417000       1.00800           0
     51133 TIP3     3913     TIP3     OH2      OT      -0.834000       15.9994           0
     51134 TIP3     3913     TIP3     H1       HT       0.417000       1.00800           0
     51135 TIP3     3913     TIP3     H2       HT       0.417000       1.00800           0
     51136 TIP3     3914     TIP3     OH2      OT      -0.834000       15.9994           0
     51137 TIP3     3914     TIP3     H1       HT       0.417000       1.00800           0
     51138 TIP3     3914     TIP3     H2       HT       0.417000       1.00800           0
     51139 TIP3     3915     TIP3     OH2      OT      -0.834000       15.9994           0
     51140 TIP3     3915     TIP3     H1       HT       0.417000       1.00800           0
     51141 TIP3     3915     TIP3     H2       HT       0.417000       1.00800           0
     51142 TIP3     3916     TIP3     OH2      OT      -0.834000       15.9994           0
     51143 TIP3     3916     TIP3     H1       HT       0.417000       1.00800           0
     51144 TIP3     3916     TIP3     H2       HT       0.417000       1.00800           0
     51145 TIP3     3917     TIP3     OH2      OT      -0.834000       15.9994           0
     51146 TIP3     3917     TIP3     H1       HT       0.417000       1.00800           0
     51147 TIP3     3917     TIP3     H2       HT       0.417000       1.00800           0
     51148 TIP3     3918     TIP3     OH2      OT      -0.834000       15.9994           0
     51149 TIP3     3918     TIP3     H1       HT       0.417000       1.00800           0
     51150 TIP3     3918     TIP3     H2       HT       0.417000       1.00800           0
     51151 TIP3     3919     TIP3     OH2      OT      -0.834000       15.9994           0
     51152 TIP3     3919     TIP3     H1       HT       0.417000       1.00800           0
     51153 TIP3     3919     TIP3     H2       HT       0.417000       1.00800           0
     51154 TIP3     3920     TIP3     OH2      OT      -0.834000       15.9994           0
     51155 TIP3     3920     TIP3     H1       HT       0.417000       1.00800           0
     51156 TIP3     3920     TIP3     H2       HT       0.417000       1.00800           0
     51157 TIP3     3921     TIP3     OH2      OT      -0.834000       15.9994           0
     51158 TIP3     3921     TIP3     H1       HT       0.417000       1.00800           0
     51159 TIP3     3921     TIP3     H2       HT       0.417000       1.00800           0
     51160 TIP3     3922     TIP3     OH2      OT      -0.834000       15.9994           0
     51161 TIP3     3922     TIP3     H1       HT       0.417000       1.00800           0
     51162 TIP3     3922     TIP3     H2       HT       0.417000       1.00800           0
     51163 TIP3     3923     TIP3     OH2      OT      -0.834000       15.9994           0
     51164 TIP3     3923     TIP3     H1       HT       0.417000       1.00800           0
     51165 TIP3     3923     TIP3     H2       HT       0.417000       1.00800           0
     51166 TIP3     3924     TIP3     OH2      OT      -0.834000       15.9994           0
     51167 TIP3     3924     TIP3     H1       HT       0.417000       1.00800           0
     51168 TIP3     3924     TIP3     H2       HT       0.417000       1.00800           0
     51169 TIP3     3925     TIP3     OH2      OT      -0.834000       15.9994           0
     51170 TIP3     3925     TIP3     H1       HT       0.417000       1.00800           0
     51171 TIP3     3925     TIP3     H2       HT       0.417000       1.00800           0
     51172 TIP3     3926     TIP3     OH2      OT      -0.834000       15.9994           0
     51173 TIP3     3926     TIP3     H1       HT       0.417000       1.00800           0
     51174 TIP3     3926     TIP3     H2       HT       0.417000       1.00800           0
     51175 TIP3     3927     TIP3     OH2      OT      -0.834000       15.9994           0
     51176 TIP3     3927     TIP3     H1       HT       0.417000       1.00800           0
     51177 TIP3     3927     TIP3     H2       HT       0.417000       1.00800           0
     51178 TIP3     3928     TIP3     OH2      OT      -0.834000       15.9994           0
     51179 TIP3     3928     TIP3     H1       HT       0.417000       1.00800           0
     51180 TIP3     3928     TIP3     H2       HT       0.417000       1.00800           0
     51181 TIP3     3929     TIP3     OH2      OT      -0.834000       15.9994           0
     51182 TIP3     3929     TIP3     H1       HT       0.417000       1.00800           0
     51183 TIP3     3929     TIP3     H2       HT       0.417000       1.00800           0
     51184 TIP3     3930     TIP3     OH2      OT      -0.834000       15.9994           0
     51185 TIP3     3930     TIP3     H1       HT       0.417000       1.00800           0
     51186 TIP3     3930     TIP3     H2       HT       0.417000       1.00800           0
     51187 TIP3     3931     TIP3     OH2      OT      -0.834000       15.9994           0
     51188 TIP3     3931     TIP3     H1       HT       0.417000       1.00800           0
     51189 TIP3     3931     TIP3     H2       HT       0.417000       1.00800           0
     51190 TIP3     3932     TIP3     OH2      OT      -0.834000       15.9994           0
     51191 TIP3     3932     TIP3     H1       HT       0.417000       1.00800           0
     51192 TIP3     3932     TIP3     H2       HT       0.417000       1.00800           0
     51193 TIP3     3933     TIP3     OH2      OT      -0.834000       15.9994           0
     51194 TIP3     3933     TIP3     H1       HT       0.417000       1.00800           0
     51195 TIP3     3933     TIP3     H2       HT       0.417000       1.00800           0
     51196 TIP3     3934     TIP3     OH2      OT      -0.834000       15.9994           0
     51197 TIP3     3934     TIP3     H1       HT       0.417000       1.00800           0
     51198 TIP3     3934     TIP3     H2       HT       0.417000       1.00800           0
     51199 TIP3     3935     TIP3     OH2      OT      -0.834000       15.9994           0
     51200 TIP3     3935     TIP3     H1       HT       0.417000       1.00800           0
     51201 TIP3     3935     TIP3     H2       HT       0.417000       1.00800           0
     51202 TIP3     3936     TIP3     OH2      OT      -0.834000       15.9994           0
     51203 TIP3     3936     TIP3     H1       HT       0.417000       1.00800           0
     51204 TIP3     3936     TIP3     H2       HT       0.417000       1.00800           0
     51205 TIP3     3937     TIP3     OH2      OT      -0.834000       15.9994           0
     51206 TIP3     3937     TIP3     H1       HT       0.417000       1.00800           0
     51207 TIP3     3937     TIP3     H2       HT       0.417000       1.00800           0
     51208 TIP3     3938     TIP3     OH2      OT      -0.834000       15.9994           0
     51209 TIP3     3938     TIP3     H1       HT       0.417000       1.00800           0
     51210 TIP3     3938     TIP3     H2       HT       0.417000       1.00800           0
     51211 TIP3     3939     TIP3     OH2      OT      -0.834000       15.9994           0
     51212 TIP3     3939     TIP3     H1       HT       0.417000       1.00800           0
     51213 TIP3     3939     TIP3     H2       HT       0.417000       1.00800           0
     51214 TIP3     3940     TIP3     OH2      OT      -0.834000       15.9994           0
     51215 TIP3     3940     TIP3     H1       HT       0.417000       1.00800           0
     51216 TIP3     3940     TIP3     H2       HT       0.417000       1.00800           0
     51217 TIP3     3941     TIP3     OH2      OT      -0.834000       15.9994           0
     51218 TIP3     3941     TIP3     H1       HT       0.417000       1.00800           0
     51219 TIP3     3941     TIP3     H2       HT       0.417000       1.00800           0
     51220 TIP3     3942     TIP3     OH2      OT      -0.834000       15.9994           0
     51221 TIP3     3942     TIP3     H1       HT       0.417000       1.00800           0
     51222 TIP3     3942     TIP3     H2       HT       0.417000       1.00800           0
     51223 TIP3     3943     TIP3     OH2      OT      -0.834000       15.9994           0
     51224 TIP3     3943     TIP3     H1       HT       0.417000       1.00800           0
     51225 TIP3     3943     TIP3     H2       HT       0.417000       1.00800           0
     51226 TIP3     3944     TIP3     OH2      OT      -0.834000       15.9994           0
     51227 TIP3     3944     TIP3     H1       HT       0.417000       1.00800           0
     51228 TIP3     3944     TIP3     H2       HT       0.417000       1.00800           0
     51229 TIP3     3945     TIP3     OH2      OT      -0.834000       15.9994           0
     51230 TIP3     3945     TIP3     H1       HT       0.417000       1.00800           0
     51231 TIP3     3945     TIP3     H2       HT       0.417000       1.00800           0
     51232 TIP3     3946     TIP3     OH2      OT      -0.834000       15.9994           0
     51233 TIP3     3946     TIP3     H1       HT       0.417000       1.00800           0
     51234 TIP3     3946     TIP3     H2       HT       0.417000       1.00800           0
     51235 TIP3     3947     TIP3     OH2      OT      -0.834000       15.9994           0
     51236 TIP3     3947     TIP3     H1       HT       0.417000       1.00800           0
     51237 TIP3     3947     TIP3     H2       HT       0.417000       1.00800           0
     51238 TIP3     3948     TIP3     OH2      OT      -0.834000       15.9994           0
     51239 TIP3     3948     TIP3     H1       HT       0.417000       1.00800           0
     51240 TIP3     3948     TIP3     H2       HT       0.417000       1.00800           0
     51241 TIP3     3949     TIP3     OH2      OT      -0.834000       15.9994           0
     51242 TIP3     3949     TIP3     H1       HT       0.417000       1.00800           0
     51243 TIP3     3949     TIP3     H2       HT       0.417000       1.00800           0
     51244 TIP3     3950     TIP3     OH2      OT      -0.834000       15.9994           0
     51245 TIP3     3950     TIP3     H1       HT       0.417000       1.00800           0
     51246 TIP3     3950     TIP3     H2       HT       0.417000       1.00800           0
     51247 TIP3     3951     TIP3     OH2      OT      -0.834000       15.9994           0
     51248 TIP3     3951     TIP3     H1       HT       0.417000       1.00800           0
     51249 TIP3     3951     TIP3     H2       HT       0.417000       1.00800           0
     51250 TIP3     3952     TIP3     OH2      OT      -0.834000       15.9994           0
     51251 TIP3     3952     TIP3     H1       HT       0.417000       1.00800           0
     51252 TIP3     3952     TIP3     H2       HT       0.417000       1.00800           0
     51253 TIP3     3953     TIP3     OH2      OT      -0.834000       15.9994           0
     51254 TIP3     3953     TIP3     H1       HT       0.417000       1.00800           0
     51255 TIP3     3953     TIP3     H2       HT       0.417000       1.00800           0
     51256 TIP3     3954     TIP3     OH2      OT      -0.834000       15.9994           0
     51257 TIP3     3954     TIP3     H1       HT       0.417000       1.00800           0
     51258 TIP3     3954     TIP3     H2       HT       0.417000       1.00800           0
     51259 TIP3     3955     TIP3     OH2      OT      -0.834000       15.9994           0
     51260 TIP3     3955     TIP3     H1       HT       0.417000       1.00800           0
     51261 TIP3     3955     TIP3     H2       HT       0.417000       1.00800           0
     51262 TIP3     3956     TIP3     OH2      OT      -0.834000       15.9994           0
     51263 TIP3     3956     TIP3     H1       HT       0.417000       1.00800           0
     51264 TIP3     3956     TIP3     H2       HT       0.417000       1.00800           0
     51265 TIP3     3957     TIP3     OH2      OT      -0.834000       15.9994           0
     51266 TIP3     3957     TIP3     H1       HT       0.417000       1.00800           0
     51267 TIP3     3957     TIP3     H2       HT       0.417000       1.00800           0
     51268 TIP3     3958     TIP3     OH2      OT      -0.834000       15.9994           0
     51269 TIP3     3958     TIP3     H1       HT       0.417000       1.00800           0
     51270 TIP3     3958     TIP3     H2       HT       0.417000       1.00800           0
     51271 TIP3     3959     TIP3     OH2      OT      -0.834000       15.9994           0
     51272 TIP3     3959     TIP3     H1       HT       0.417000       1.00800           0
     51273 TIP3     3959     TIP3     H2       HT       0.417000       1.00800           0
     51274 TIP3     3960     TIP3     OH2      OT      -0.834000       15.9994           0
     51275 TIP3     3960     TIP3     H1       HT       0.417000       1.00800           0
     51276 TIP3     3960     TIP3     H2       HT       0.417000       1.00800           0
     51277 TIP3     3961     TIP3     OH2      OT      -0.834000       15.9994           0
     51278 TIP3     3961     TIP3     H1       HT       0.417000       1.00800           0
     51279 TIP3     3961     TIP3     H2       HT       0.417000       1.00800           0
     51280 TIP3     3962     TIP3     OH2      OT      -0.834000       15.9994           0
     51281 TIP3     3962     TIP3     H1       HT       0.417000       1.00800           0
     51282 TIP3     3962     TIP3     H2       HT       0.417000       1.00800           0
     51283 TIP3     3963     TIP3     OH2      OT      -0.834000       15.9994           0
     51284 TIP3     3963     TIP3     H1       HT       0.417000       1.00800           0
     51285 TIP3     3963     TIP3     H2       HT       0.417000       1.00800           0
     51286 TIP3     3964     TIP3     OH2      OT      -0.834000       15.9994           0
     51287 TIP3     3964     TIP3     H1       HT       0.417000       1.00800           0
     51288 TIP3     3964     TIP3     H2       HT       0.417000       1.00800           0
     51289 TIP3     3965     TIP3     OH2      OT      -0.834000       15.9994           0
     51290 TIP3     3965     TIP3     H1       HT       0.417000       1.00800           0
     51291 TIP3     3965     TIP3     H2       HT       0.417000       1.00800           0
     51292 TIP3     3966     TIP3     OH2      OT      -0.834000       15.9994           0
     51293 TIP3     3966     TIP3     H1       HT       0.417000       1.00800           0
     51294 TIP3     3966     TIP3     H2       HT       0.417000       1.00800           0
     51295 TIP3     3967     TIP3     OH2      OT      -0.834000       15.9994           0
     51296 TIP3     3967     TIP3     H1       HT       0.417000       1.00800           0
     51297 TIP3     3967     TIP3     H2       HT       0.417000       1.00800           0
     51298 TIP3     3968     TIP3     OH2      OT      -0.834000       15.9994           0
     51299 TIP3     3968     TIP3     H1       HT       0.417000       1.00800           0
     51300 TIP3     3968     TIP3     H2       HT       0.417000       1.00800           0
     51301 TIP3     3969     TIP3     OH2      OT      -0.834000       15.9994           0
     51302 TIP3     3969     TIP3     H1       HT       0.417000       1.00800           0
     51303 TIP3     3969     TIP3     H2       HT       0.417000       1.00800           0
     51304 TIP3     3970     TIP3     OH2      OT      -0.834000       15.9994           0
     51305 TIP3     3970     TIP3     H1       HT       0.417000       1.00800           0
     51306 TIP3     3970     TIP3     H2       HT       0.417000       1.00800           0
     51307 TIP3     3971     TIP3     OH2      OT      -0.834000       15.9994           0
     51308 TIP3     3971     TIP3     H1       HT       0.417000       1.00800           0
     51309 TIP3     3971     TIP3     H2       HT       0.417000       1.00800           0
     51310 TIP3     3972     TIP3     OH2      OT      -0.834000       15.9994           0
     51311 TIP3     3972     TIP3     H1       HT       0.417000       1.00800           0
     51312 TIP3     3972     TIP3     H2       HT       0.417000       1.00800           0
     51313 TIP3     3973     TIP3     OH2      OT      -0.834000       15.9994           0
     51314 TIP3     3973     TIP3     H1       HT       0.417000       1.00800           0
     51315 TIP3     3973     TIP3     H2       HT       0.417000       1.00800           0
     51316 TIP3     3974     TIP3     OH2      OT      -0.834000       15.9994           0
     51317 TIP3     3974     TIP3     H1       HT       0.417000       1.00800           0
     51318 TIP3     3974     TIP3     H2       HT       0.417000       1.00800           0
     51319 TIP3     3975     TIP3     OH2      OT      -0.834000       15.9994           0
     51320 TIP3     3975     TIP3     H1       HT       0.417000       1.00800           0
     51321 TIP3     3975     TIP3     H2       HT       0.417000       1.00800           0
     51322 TIP3     3976     TIP3     OH2      OT      -0.834000       15.9994           0
     51323 TIP3     3976     TIP3     H1       HT       0.417000       1.00800           0
     51324 TIP3     3976     TIP3     H2       HT       0.417000       1.00800           0
     51325 TIP3     3977     TIP3     OH2      OT      -0.834000       15.9994           0
     51326 TIP3     3977     TIP3     H1       HT       0.417000       1.00800           0
     51327 TIP3     3977     TIP3     H2       HT       0.417000       1.00800           0
     51328 TIP3     3978     TIP3     OH2      OT      -0.834000       15.9994           0
     51329 TIP3     3978     TIP3     H1       HT       0.417000       1.00800           0
     51330 TIP3     3978     TIP3     H2       HT       0.417000       1.00800           0
     51331 TIP3     3979     TIP3     OH2      OT      -0.834000       15.9994           0
     51332 TIP3     3979     TIP3     H1       HT       0.417000       1.00800           0
     51333 TIP3     3979     TIP3     H2       HT       0.417000       1.00800           0
     51334 TIP3     3980     TIP3     OH2      OT      -0.834000       15.9994           0
     51335 TIP3     3980     TIP3     H1       HT       0.417000       1.00800           0
     51336 TIP3     3980     TIP3     H2       HT       0.417000       1.00800           0
     51337 TIP3     3981     TIP3     OH2      OT      -0.834000       15.9994           0
     51338 TIP3     3981     TIP3     H1       HT       0.417000       1.00800           0
     51339 TIP3     3981     TIP3     H2       HT       0.417000       1.00800           0
     51340 TIP3     3982     TIP3     OH2      OT      -0.834000       15.9994           0
     51341 TIP3     3982     TIP3     H1       HT       0.417000       1.00800           0
     51342 TIP3     3982     TIP3     H2       HT       0.417000       1.00800           0
     51343 TIP3     3983     TIP3     OH2      OT      -0.834000       15.9994           0
     51344 TIP3     3983     TIP3     H1       HT       0.417000       1.00800           0
     51345 TIP3     3983     TIP3     H2       HT       0.417000       1.00800           0
     51346 TIP3     3984     TIP3     OH2      OT      -0.834000       15.9994           0
     51347 TIP3     3984     TIP3     H1       HT       0.417000       1.00800           0
     51348 TIP3     3984     TIP3     H2       HT       0.417000       1.00800           0
     51349 TIP3     3985     TIP3     OH2      OT      -0.834000       15.9994           0
     51350 TIP3     3985     TIP3     H1       HT       0.417000       1.00800           0
     51351 TIP3     3985     TIP3     H2       HT       0.417000       1.00800           0
     51352 TIP3     3986     TIP3     OH2      OT      -0.834000       15.9994           0
     51353 TIP3     3986     TIP3     H1       HT       0.417000       1.00800           0
     51354 TIP3     3986     TIP3     H2       HT       0.417000       1.00800           0
     51355 TIP3     3987     TIP3     OH2      OT      -0.834000       15.9994           0
     51356 TIP3     3987     TIP3     H1       HT       0.417000       1.00800           0
     51357 TIP3     3987     TIP3     H2       HT       0.417000       1.00800           0
     51358 TIP3     3988     TIP3     OH2      OT      -0.834000       15.9994           0
     51359 TIP3     3988     TIP3     H1       HT       0.417000       1.00800           0
     51360 TIP3     3988     TIP3     H2       HT       0.417000       1.00800           0
     51361 TIP3     3989     TIP3     OH2      OT      -0.834000       15.9994           0
     51362 TIP3     3989     TIP3     H1       HT       0.417000       1.00800           0
     51363 TIP3     3989     TIP3     H2       HT       0.417000       1.00800           0
     51364 TIP3     3990     TIP3     OH2      OT      -0.834000       15.9994           0
     51365 TIP3     3990     TIP3     H1       HT       0.417000       1.00800           0
     51366 TIP3     3990     TIP3     H2       HT       0.417000       1.00800           0
     51367 TIP3     3991     TIP3     OH2      OT      -0.834000       15.9994           0
     51368 TIP3     3991     TIP3     H1       HT       0.417000       1.00800           0
     51369 TIP3     3991     TIP3     H2       HT       0.417000       1.00800           0
     51370 TIP3     3992     TIP3     OH2      OT      -0.834000       15.9994           0
     51371 TIP3     3992     TIP3     H1       HT       0.417000       1.00800           0
     51372 TIP3     3992     TIP3     H2       HT       0.417000       1.00800           0
     51373 TIP3     3993     TIP3     OH2      OT      -0.834000       15.9994           0
     51374 TIP3     3993     TIP3     H1       HT       0.417000       1.00800           0
     51375 TIP3     3993     TIP3     H2       HT       0.417000       1.00800           0
     51376 TIP3     3994     TIP3     OH2      OT      -0.834000       15.9994           0
     51377 TIP3     3994     TIP3     H1       HT       0.417000       1.00800           0
     51378 TIP3     3994     TIP3     H2       HT       0.417000       1.00800           0
     51379 TIP3     3995     TIP3     OH2      OT      -0.834000       15.9994           0
     51380 TIP3     3995     TIP3     H1       HT       0.417000       1.00800           0
     51381 TIP3     3995     TIP3     H2       HT       0.417000       1.00800           0
     51382 TIP3     3996     TIP3     OH2      OT      -0.834000       15.9994           0
     51383 TIP3     3996     TIP3     H1       HT       0.417000       1.00800           0
     51384 TIP3     3996     TIP3     H2       HT       0.417000       1.00800           0
     51385 TIP3     3997     TIP3     OH2      OT      -0.834000       15.9994           0
     51386 TIP3     3997     TIP3     H1       HT       0.417000       1.00800           0
     51387 TIP3     3997     TIP3     H2       HT       0.417000       1.00800           0
     51388 TIP3     3998     TIP3     OH2      OT      -0.834000       15.9994           0
     51389 TIP3     3998     TIP3     H1       HT       0.417000       1.00800           0
     51390 TIP3     3998     TIP3     H2       HT       0.417000       1.00800           0
     51391 TIP3     3999     TIP3     OH2      OT      -0.834000       15.9994           0
     51392 TIP3     3999     TIP3     H1       HT       0.417000       1.00800           0
     51393 TIP3     3999     TIP3     H2       HT       0.417000       1.00800           0
     51394 TIP3     4000     TIP3     OH2      OT      -0.834000       15.9994           0
     51395 TIP3     4000     TIP3     H1       HT       0.417000       1.00800           0
     51396 TIP3     4000     TIP3     H2       HT       0.417000       1.00800           0
     51397 TIP3     4001     TIP3     OH2      OT      -0.834000       15.9994           0
     51398 TIP3     4001     TIP3     H1       HT       0.417000       1.00800           0
     51399 TIP3     4001     TIP3     H2       HT       0.417000       1.00800           0
     51400 TIP3     4002     TIP3     OH2      OT      -0.834000       15.9994           0
     51401 TIP3     4002     TIP3     H1       HT       0.417000       1.00800           0
     51402 TIP3     4002     TIP3     H2       HT       0.417000       1.00800           0
     51403 TIP3     4003     TIP3     OH2      OT      -0.834000       15.9994           0
     51404 TIP3     4003     TIP3     H1       HT       0.417000       1.00800           0
     51405 TIP3     4003     TIP3     H2       HT       0.417000       1.00800           0
     51406 TIP3     4004     TIP3     OH2      OT      -0.834000       15.9994           0
     51407 TIP3     4004     TIP3     H1       HT       0.417000       1.00800           0
     51408 TIP3     4004     TIP3     H2       HT       0.417000       1.00800           0
     51409 TIP3     4005     TIP3     OH2      OT      -0.834000       15.9994           0
     51410 TIP3     4005     TIP3     H1       HT       0.417000       1.00800           0
     51411 TIP3     4005     TIP3     H2       HT       0.417000       1.00800           0
     51412 TIP3     4006     TIP3     OH2      OT      -0.834000       15.9994           0
     51413 TIP3     4006     TIP3     H1       HT       0.417000       1.00800           0
     51414 TIP3     4006     TIP3     H2       HT       0.417000       1.00800           0
     51415 TIP3     4007     TIP3     OH2      OT      -0.834000       15.9994           0
     51416 TIP3     4007     TIP3     H1       HT       0.417000       1.00800           0
     51417 TIP3     4007     TIP3     H2       HT       0.417000       1.00800           0
     51418 TIP3     4008     TIP3     OH2      OT      -0.834000       15.9994           0
     51419 TIP3     4008     TIP3     H1       HT       0.417000       1.00800           0
     51420 TIP3     4008     TIP3     H2       HT       0.417000       1.00800           0
     51421 TIP3     4009     TIP3     OH2      OT      -0.834000       15.9994           0
     51422 TIP3     4009     TIP3     H1       HT       0.417000       1.00800           0
     51423 TIP3     4009     TIP3     H2       HT       0.417000       1.00800           0
     51424 TIP3     4010     TIP3     OH2      OT      -0.834000       15.9994           0
     51425 TIP3     4010     TIP3     H1       HT       0.417000       1.00800           0
     51426 TIP3     4010     TIP3     H2       HT       0.417000       1.00800           0
     51427 TIP3     4011     TIP3     OH2      OT      -0.834000       15.9994           0
     51428 TIP3     4011     TIP3     H1       HT       0.417000       1.00800           0
     51429 TIP3     4011     TIP3     H2       HT       0.417000       1.00800           0
     51430 TIP3     4012     TIP3     OH2      OT      -0.834000       15.9994           0
     51431 TIP3     4012     TIP3     H1       HT       0.417000       1.00800           0
     51432 TIP3     4012     TIP3     H2       HT       0.417000       1.00800           0
     51433 TIP3     4013     TIP3     OH2      OT      -0.834000       15.9994           0
     51434 TIP3     4013     TIP3     H1       HT       0.417000       1.00800           0
     51435 TIP3     4013     TIP3     H2       HT       0.417000       1.00800           0
     51436 TIP3     4014     TIP3     OH2      OT      -0.834000       15.9994           0
     51437 TIP3     4014     TIP3     H1       HT       0.417000       1.00800           0
     51438 TIP3     4014     TIP3     H2       HT       0.417000       1.00800           0
     51439 TIP3     4015     TIP3     OH2      OT      -0.834000       15.9994           0
     51440 TIP3     4015     TIP3     H1       HT       0.417000       1.00800           0
     51441 TIP3     4015     TIP3     H2       HT       0.417000       1.00800           0
     51442 TIP3     4016     TIP3     OH2      OT      -0.834000       15.9994           0
     51443 TIP3     4016     TIP3     H1       HT       0.417000       1.00800           0
     51444 TIP3     4016     TIP3     H2       HT       0.417000       1.00800           0
     51445 TIP3     4017     TIP3     OH2      OT      -0.834000       15.9994           0
     51446 TIP3     4017     TIP3     H1       HT       0.417000       1.00800           0
     51447 TIP3     4017     TIP3     H2       HT       0.417000       1.00800           0
     51448 TIP3     4018     TIP3     OH2      OT      -0.834000       15.9994           0
     51449 TIP3     4018     TIP3     H1       HT       0.417000       1.00800           0
     51450 TIP3     4018     TIP3     H2       HT       0.417000       1.00800           0
     51451 TIP3     4019     TIP3     OH2      OT      -0.834000       15.9994           0
     51452 TIP3     4019     TIP3     H1       HT       0.417000       1.00800           0
     51453 TIP3     4019     TIP3     H2       HT       0.417000       1.00800           0
     51454 TIP3     4020     TIP3     OH2      OT      -0.834000       15.9994           0
     51455 TIP3     4020     TIP3     H1       HT       0.417000       1.00800           0
     51456 TIP3     4020     TIP3     H2       HT       0.417000       1.00800           0
     51457 TIP3     4021     TIP3     OH2      OT      -0.834000       15.9994           0
     51458 TIP3     4021     TIP3     H1       HT       0.417000       1.00800           0
     51459 TIP3     4021     TIP3     H2       HT       0.417000       1.00800           0
     51460 TIP3     4022     TIP3     OH2      OT      -0.834000       15.9994           0
     51461 TIP3     4022     TIP3     H1       HT       0.417000       1.00800           0
     51462 TIP3     4022     TIP3     H2       HT       0.417000       1.00800           0
     51463 TIP3     4023     TIP3     OH2      OT      -0.834000       15.9994           0
     51464 TIP3     4023     TIP3     H1       HT       0.417000       1.00800           0
     51465 TIP3     4023     TIP3     H2       HT       0.417000       1.00800           0
     51466 TIP3     4024     TIP3     OH2      OT      -0.834000       15.9994           0
     51467 TIP3     4024     TIP3     H1       HT       0.417000       1.00800           0
     51468 TIP3     4024     TIP3     H2       HT       0.417000       1.00800           0
     51469 TIP3     4025     TIP3     OH2      OT      -0.834000       15.9994           0
     51470 TIP3     4025     TIP3     H1       HT       0.417000       1.00800           0
     51471 TIP3     4025     TIP3     H2       HT       0.417000       1.00800           0
     51472 TIP3     4026     TIP3     OH2      OT      -0.834000       15.9994           0
     51473 TIP3     4026     TIP3     H1       HT       0.417000       1.00800           0
     51474 TIP3     4026     TIP3     H2       HT       0.417000       1.00800           0
     51475 TIP3     4027     TIP3     OH2      OT      -0.834000       15.9994           0
     51476 TIP3     4027     TIP3     H1       HT       0.417000       1.00800           0
     51477 TIP3     4027     TIP3     H2       HT       0.417000       1.00800           0
     51478 TIP3     4028     TIP3     OH2      OT      -0.834000       15.9994           0
     51479 TIP3     4028     TIP3     H1       HT       0.417000       1.00800           0
     51480 TIP3     4028     TIP3     H2       HT       0.417000       1.00800           0
     51481 TIP3     4029     TIP3     OH2      OT      -0.834000       15.9994           0
     51482 TIP3     4029     TIP3     H1       HT       0.417000       1.00800           0
     51483 TIP3     4029     TIP3     H2       HT       0.417000       1.00800           0
     51484 TIP3     4030     TIP3     OH2      OT      -0.834000       15.9994           0
     51485 TIP3     4030     TIP3     H1       HT       0.417000       1.00800           0
     51486 TIP3     4030     TIP3     H2       HT       0.417000       1.00800           0
     51487 TIP3     4031     TIP3     OH2      OT      -0.834000       15.9994           0
     51488 TIP3     4031     TIP3     H1       HT       0.417000       1.00800           0
     51489 TIP3     4031     TIP3     H2       HT       0.417000       1.00800           0
     51490 TIP3     4032     TIP3     OH2      OT      -0.834000       15.9994           0
     51491 TIP3     4032     TIP3     H1       HT       0.417000       1.00800           0
     51492 TIP3     4032     TIP3     H2       HT       0.417000       1.00800           0
     51493 TIP3     4033     TIP3     OH2      OT      -0.834000       15.9994           0
     51494 TIP3     4033     TIP3     H1       HT       0.417000       1.00800           0
     51495 TIP3     4033     TIP3     H2       HT       0.417000       1.00800           0
     51496 TIP3     4034     TIP3     OH2      OT      -0.834000       15.9994           0
     51497 TIP3     4034     TIP3     H1       HT       0.417000       1.00800           0
     51498 TIP3     4034     TIP3     H2       HT       0.417000       1.00800           0
     51499 TIP3     4035     TIP3     OH2      OT      -0.834000       15.9994           0
     51500 TIP3     4035     TIP3     H1       HT       0.417000       1.00800           0
     51501 TIP3     4035     TIP3     H2       HT       0.417000       1.00800           0
     51502 TIP3     4036     TIP3     OH2      OT      -0.834000       15.9994           0
     51503 TIP3     4036     TIP3     H1       HT       0.417000       1.00800           0
     51504 TIP3     4036     TIP3     H2       HT       0.417000       1.00800           0
     51505 TIP3     4037     TIP3     OH2      OT      -0.834000       15.9994           0
     51506 TIP3     4037     TIP3     H1       HT       0.417000       1.00800           0
     51507 TIP3     4037     TIP3     H2       HT       0.417000       1.00800           0
     51508 TIP3     4038     TIP3     OH2      OT      -0.834000       15.9994           0
     51509 TIP3     4038     TIP3     H1       HT       0.417000       1.00800           0
     51510 TIP3     4038     TIP3     H2       HT       0.417000       1.00800           0
     51511 TIP3     4039     TIP3     OH2      OT      -0.834000       15.9994           0
     51512 TIP3     4039     TIP3     H1       HT       0.417000       1.00800           0
     51513 TIP3     4039     TIP3     H2       HT       0.417000       1.00800           0
     51514 TIP3     4040     TIP3     OH2      OT      -0.834000       15.9994           0
     51515 TIP3     4040     TIP3     H1       HT       0.417000       1.00800           0
     51516 TIP3     4040     TIP3     H2       HT       0.417000       1.00800           0
     51517 TIP3     4041     TIP3     OH2      OT      -0.834000       15.9994           0
     51518 TIP3     4041     TIP3     H1       HT       0.417000       1.00800           0
     51519 TIP3     4041     TIP3     H2       HT       0.417000       1.00800           0
     51520 TIP3     4042     TIP3     OH2      OT      -0.834000       15.9994           0
     51521 TIP3     4042     TIP3     H1       HT       0.417000       1.00800           0
     51522 TIP3     4042     TIP3     H2       HT       0.417000       1.00800           0
     51523 TIP3     4043     TIP3     OH2      OT      -0.834000       15.9994           0
     51524 TIP3     4043     TIP3     H1       HT       0.417000       1.00800           0
     51525 TIP3     4043     TIP3     H2       HT       0.417000       1.00800           0
     51526 TIP3     4044     TIP3     OH2      OT      -0.834000       15.9994           0
     51527 TIP3     4044     TIP3     H1       HT       0.417000       1.00800           0
     51528 TIP3     4044     TIP3     H2       HT       0.417000       1.00800           0
     51529 TIP3     4045     TIP3     OH2      OT      -0.834000       15.9994           0
     51530 TIP3     4045     TIP3     H1       HT       0.417000       1.00800           0
     51531 TIP3     4045     TIP3     H2       HT       0.417000       1.00800           0
     51532 TIP3     4046     TIP3     OH2      OT      -0.834000       15.9994           0
     51533 TIP3     4046     TIP3     H1       HT       0.417000       1.00800           0
     51534 TIP3     4046     TIP3     H2       HT       0.417000       1.00800           0
     51535 TIP3     4047     TIP3     OH2      OT      -0.834000       15.9994           0
     51536 TIP3     4047     TIP3     H1       HT       0.417000       1.00800           0
     51537 TIP3     4047     TIP3     H2       HT       0.417000       1.00800           0
     51538 TIP3     4048     TIP3     OH2      OT      -0.834000       15.9994           0
     51539 TIP3     4048     TIP3     H1       HT       0.417000       1.00800           0
     51540 TIP3     4048     TIP3     H2       HT       0.417000       1.00800           0
     51541 TIP3     4049     TIP3     OH2      OT      -0.834000       15.9994           0
     51542 TIP3     4049     TIP3     H1       HT       0.417000       1.00800           0
     51543 TIP3     4049     TIP3     H2       HT       0.417000       1.00800           0
     51544 TIP3     4050     TIP3     OH2      OT      -0.834000       15.9994           0
     51545 TIP3     4050     TIP3     H1       HT       0.417000       1.00800           0
     51546 TIP3     4050     TIP3     H2       HT       0.417000       1.00800           0
     51547 TIP3     4051     TIP3     OH2      OT      -0.834000       15.9994           0
     51548 TIP3     4051     TIP3     H1       HT       0.417000       1.00800           0
     51549 TIP3     4051     TIP3     H2       HT       0.417000       1.00800           0
     51550 TIP3     4052     TIP3     OH2      OT      -0.834000       15.9994           0
     51551 TIP3     4052     TIP3     H1       HT       0.417000       1.00800           0
     51552 TIP3     4052     TIP3     H2       HT       0.417000       1.00800           0
     51553 TIP3     4053     TIP3     OH2      OT      -0.834000       15.9994           0
     51554 TIP3     4053     TIP3     H1       HT       0.417000       1.00800           0
     51555 TIP3     4053     TIP3     H2       HT       0.417000       1.00800           0
     51556 TIP3     4054     TIP3     OH2      OT      -0.834000       15.9994           0
     51557 TIP3     4054     TIP3     H1       HT       0.417000       1.00800           0
     51558 TIP3     4054     TIP3     H2       HT       0.417000       1.00800           0
     51559 TIP3     4055     TIP3     OH2      OT      -0.834000       15.9994           0
     51560 TIP3     4055     TIP3     H1       HT       0.417000       1.00800           0
     51561 TIP3     4055     TIP3     H2       HT       0.417000       1.00800           0
     51562 TIP3     4056     TIP3     OH2      OT      -0.834000       15.9994           0
     51563 TIP3     4056     TIP3     H1       HT       0.417000       1.00800           0
     51564 TIP3     4056     TIP3     H2       HT       0.417000       1.00800           0
     51565 TIP3     4057     TIP3     OH2      OT      -0.834000       15.9994           0
     51566 TIP3     4057     TIP3     H1       HT       0.417000       1.00800           0
     51567 TIP3     4057     TIP3     H2       HT       0.417000       1.00800           0
     51568 TIP3     4058     TIP3     OH2      OT      -0.834000       15.9994           0
     51569 TIP3     4058     TIP3     H1       HT       0.417000       1.00800           0
     51570 TIP3     4058     TIP3     H2       HT       0.417000       1.00800           0
     51571 TIP3     4059     TIP3     OH2      OT      -0.834000       15.9994           0
     51572 TIP3     4059     TIP3     H1       HT       0.417000       1.00800           0
     51573 TIP3     4059     TIP3     H2       HT       0.417000       1.00800           0
     51574 TIP3     4060     TIP3     OH2      OT      -0.834000       15.9994           0
     51575 TIP3     4060     TIP3     H1       HT       0.417000       1.00800           0
     51576 TIP3     4060     TIP3     H2       HT       0.417000       1.00800           0
     51577 TIP3     4061     TIP3     OH2      OT      -0.834000       15.9994           0
     51578 TIP3     4061     TIP3     H1       HT       0.417000       1.00800           0
     51579 TIP3     4061     TIP3     H2       HT       0.417000       1.00800           0
     51580 TIP3     4062     TIP3     OH2      OT      -0.834000       15.9994           0
     51581 TIP3     4062     TIP3     H1       HT       0.417000       1.00800           0
     51582 TIP3     4062     TIP3     H2       HT       0.417000       1.00800           0
     51583 TIP3     4063     TIP3     OH2      OT      -0.834000       15.9994           0
     51584 TIP3     4063     TIP3     H1       HT       0.417000       1.00800           0
     51585 TIP3     4063     TIP3     H2       HT       0.417000       1.00800           0
     51586 TIP3     4064     TIP3     OH2      OT      -0.834000       15.9994           0
     51587 TIP3     4064     TIP3     H1       HT       0.417000       1.00800           0
     51588 TIP3     4064     TIP3     H2       HT       0.417000       1.00800           0
     51589 TIP3     4065     TIP3     OH2      OT      -0.834000       15.9994           0
     51590 TIP3     4065     TIP3     H1       HT       0.417000       1.00800           0
     51591 TIP3     4065     TIP3     H2       HT       0.417000       1.00800           0
     51592 TIP3     4066     TIP3     OH2      OT      -0.834000       15.9994           0
     51593 TIP3     4066     TIP3     H1       HT       0.417000       1.00800           0
     51594 TIP3     4066     TIP3     H2       HT       0.417000       1.00800           0
     51595 TIP3     4067     TIP3     OH2      OT      -0.834000       15.9994           0
     51596 TIP3     4067     TIP3     H1       HT       0.417000       1.00800           0
     51597 TIP3     4067     TIP3     H2       HT       0.417000       1.00800           0
     51598 TIP3     4068     TIP3     OH2      OT      -0.834000       15.9994           0
     51599 TIP3     4068     TIP3     H1       HT       0.417000       1.00800           0
     51600 TIP3     4068     TIP3     H2       HT       0.417000       1.00800           0
     51601 TIP3     4069     TIP3     OH2      OT      -0.834000       15.9994           0
     51602 TIP3     4069     TIP3     H1       HT       0.417000       1.00800           0
     51603 TIP3     4069     TIP3     H2       HT       0.417000       1.00800           0
     51604 TIP3     4070     TIP3     OH2      OT      -0.834000       15.9994           0
     51605 TIP3     4070     TIP3     H1       HT       0.417000       1.00800           0
     51606 TIP3     4070     TIP3     H2       HT       0.417000       1.00800           0
     51607 TIP3     4071     TIP3     OH2      OT      -0.834000       15.9994           0
     51608 TIP3     4071     TIP3     H1       HT       0.417000       1.00800           0
     51609 TIP3     4071     TIP3     H2       HT       0.417000       1.00800           0
     51610 TIP3     4072     TIP3     OH2      OT      -0.834000       15.9994           0
     51611 TIP3     4072     TIP3     H1       HT       0.417000       1.00800           0
     51612 TIP3     4072     TIP3     H2       HT       0.417000       1.00800           0
     51613 TIP3     4073     TIP3     OH2      OT      -0.834000       15.9994           0
     51614 TIP3     4073     TIP3     H1       HT       0.417000       1.00800           0
     51615 TIP3     4073     TIP3     H2       HT       0.417000       1.00800           0
     51616 TIP3     4074     TIP3     OH2      OT      -0.834000       15.9994           0
     51617 TIP3     4074     TIP3     H1       HT       0.417000       1.00800           0
     51618 TIP3     4074     TIP3     H2       HT       0.417000       1.00800           0
     51619 TIP3     4075     TIP3     OH2      OT      -0.834000       15.9994           0
     51620 TIP3     4075     TIP3     H1       HT       0.417000       1.00800           0
     51621 TIP3     4075     TIP3     H2       HT       0.417000       1.00800           0
     51622 TIP3     4076     TIP3     OH2      OT      -0.834000       15.9994           0
     51623 TIP3     4076     TIP3     H1       HT       0.417000       1.00800           0
     51624 TIP3     4076     TIP3     H2       HT       0.417000       1.00800           0
     51625 TIP3     4077     TIP3     OH2      OT      -0.834000       15.9994           0
     51626 TIP3     4077     TIP3     H1       HT       0.417000       1.00800           0
     51627 TIP3     4077     TIP3     H2       HT       0.417000       1.00800           0
     51628 TIP3     4078     TIP3     OH2      OT      -0.834000       15.9994           0
     51629 TIP3     4078     TIP3     H1       HT       0.417000       1.00800           0
     51630 TIP3     4078     TIP3     H2       HT       0.417000       1.00800           0
     51631 TIP3     4079     TIP3     OH2      OT      -0.834000       15.9994           0
     51632 TIP3     4079     TIP3     H1       HT       0.417000       1.00800           0
     51633 TIP3     4079     TIP3     H2       HT       0.417000       1.00800           0
     51634 TIP3     4080     TIP3     OH2      OT      -0.834000       15.9994           0
     51635 TIP3     4080     TIP3     H1       HT       0.417000       1.00800           0
     51636 TIP3     4080     TIP3     H2       HT       0.417000       1.00800           0
     51637 TIP3     4081     TIP3     OH2      OT      -0.834000       15.9994           0
     51638 TIP3     4081     TIP3     H1       HT       0.417000       1.00800           0
     51639 TIP3     4081     TIP3     H2       HT       0.417000       1.00800           0
     51640 TIP3     4082     TIP3     OH2      OT      -0.834000       15.9994           0
     51641 TIP3     4082     TIP3     H1       HT       0.417000       1.00800           0
     51642 TIP3     4082     TIP3     H2       HT       0.417000       1.00800           0
     51643 TIP3     4083     TIP3     OH2      OT      -0.834000       15.9994           0
     51644 TIP3     4083     TIP3     H1       HT       0.417000       1.00800           0
     51645 TIP3     4083     TIP3     H2       HT       0.417000       1.00800           0
     51646 TIP3     4084     TIP3     OH2      OT      -0.834000       15.9994           0
     51647 TIP3     4084     TIP3     H1       HT       0.417000       1.00800           0
     51648 TIP3     4084     TIP3     H2       HT       0.417000       1.00800           0
     51649 TIP3     4085     TIP3     OH2      OT      -0.834000       15.9994           0
     51650 TIP3     4085     TIP3     H1       HT       0.417000       1.00800           0
     51651 TIP3     4085     TIP3     H2       HT       0.417000       1.00800           0
     51652 TIP3     4086     TIP3     OH2      OT      -0.834000       15.9994           0
     51653 TIP3     4086     TIP3     H1       HT       0.417000       1.00800           0
     51654 TIP3     4086     TIP3     H2       HT       0.417000       1.00800           0
     51655 TIP3     4087     TIP3     OH2      OT      -0.834000       15.9994           0
     51656 TIP3     4087     TIP3     H1       HT       0.417000       1.00800           0
     51657 TIP3     4087     TIP3     H2       HT       0.417000       1.00800           0
     51658 TIP3     4088     TIP3     OH2      OT      -0.834000       15.9994           0
     51659 TIP3     4088     TIP3     H1       HT       0.417000       1.00800           0
     51660 TIP3     4088     TIP3     H2       HT       0.417000       1.00800           0
     51661 TIP3     4089     TIP3     OH2      OT      -0.834000       15.9994           0
     51662 TIP3     4089     TIP3     H1       HT       0.417000       1.00800           0
     51663 TIP3     4089     TIP3     H2       HT       0.417000       1.00800           0
     51664 TIP3     4090     TIP3     OH2      OT      -0.834000       15.9994           0
     51665 TIP3     4090     TIP3     H1       HT       0.417000       1.00800           0
     51666 TIP3     4090     TIP3     H2       HT       0.417000       1.00800           0
     51667 TIP3     4091     TIP3     OH2      OT      -0.834000       15.9994           0
     51668 TIP3     4091     TIP3     H1       HT       0.417000       1.00800           0
     51669 TIP3     4091     TIP3     H2       HT       0.417000       1.00800           0
     51670 TIP3     4092     TIP3     OH2      OT      -0.834000       15.9994           0
     51671 TIP3     4092     TIP3     H1       HT       0.417000       1.00800           0
     51672 TIP3     4092     TIP3     H2       HT       0.417000       1.00800           0
     51673 TIP3     4093     TIP3     OH2      OT      -0.834000       15.9994           0
     51674 TIP3     4093     TIP3     H1       HT       0.417000       1.00800           0
     51675 TIP3     4093     TIP3     H2       HT       0.417000       1.00800           0
     51676 TIP3     4094     TIP3     OH2      OT      -0.834000       15.9994           0
     51677 TIP3     4094     TIP3     H1       HT       0.417000       1.00800           0
     51678 TIP3     4094     TIP3     H2       HT       0.417000       1.00800           0
     51679 TIP3     4095     TIP3     OH2      OT      -0.834000       15.9994           0
     51680 TIP3     4095     TIP3     H1       HT       0.417000       1.00800           0
     51681 TIP3     4095     TIP3     H2       HT       0.417000       1.00800           0
     51682 TIP3     4096     TIP3     OH2      OT      -0.834000       15.9994           0
     51683 TIP3     4096     TIP3     H1       HT       0.417000       1.00800           0
     51684 TIP3     4096     TIP3     H2       HT       0.417000       1.00800           0
     51685 TIP3     4097     TIP3     OH2      OT      -0.834000       15.9994           0
     51686 TIP3     4097     TIP3     H1       HT       0.417000       1.00800           0
     51687 TIP3     4097     TIP3     H2       HT       0.417000       1.00800           0
     51688 TIP3     4098     TIP3     OH2      OT      -0.834000       15.9994           0
     51689 TIP3     4098     TIP3     H1       HT       0.417000       1.00800           0
     51690 TIP3     4098     TIP3     H2       HT       0.417000       1.00800           0
     51691 TIP3     4099     TIP3     OH2      OT      -0.834000       15.9994           0
     51692 TIP3     4099     TIP3     H1       HT       0.417000       1.00800           0
     51693 TIP3     4099     TIP3     H2       HT       0.417000       1.00800           0
     51694 TIP3     4100     TIP3     OH2      OT      -0.834000       15.9994           0
     51695 TIP3     4100     TIP3     H1       HT       0.417000       1.00800           0
     51696 TIP3     4100     TIP3     H2       HT       0.417000       1.00800           0
     51697 TIP3     4101     TIP3     OH2      OT      -0.834000       15.9994           0
     51698 TIP3     4101     TIP3     H1       HT       0.417000       1.00800           0
     51699 TIP3     4101     TIP3     H2       HT       0.417000       1.00800           0
     51700 TIP3     4102     TIP3     OH2      OT      -0.834000       15.9994           0
     51701 TIP3     4102     TIP3     H1       HT       0.417000       1.00800           0
     51702 TIP3     4102     TIP3     H2       HT       0.417000       1.00800           0
     51703 TIP3     4103     TIP3     OH2      OT      -0.834000       15.9994           0
     51704 TIP3     4103     TIP3     H1       HT       0.417000       1.00800           0
     51705 TIP3     4103     TIP3     H2       HT       0.417000       1.00800           0
     51706 TIP3     4104     TIP3     OH2      OT      -0.834000       15.9994           0
     51707 TIP3     4104     TIP3     H1       HT       0.417000       1.00800           0
     51708 TIP3     4104     TIP3     H2       HT       0.417000       1.00800           0
     51709 TIP3     4105     TIP3     OH2      OT      -0.834000       15.9994           0
     51710 TIP3     4105     TIP3     H1       HT       0.417000       1.00800           0
     51711 TIP3     4105     TIP3     H2       HT       0.417000       1.00800           0
     51712 TIP3     4106     TIP3     OH2      OT      -0.834000       15.9994           0
     51713 TIP3     4106     TIP3     H1       HT       0.417000       1.00800           0
     51714 TIP3     4106     TIP3     H2       HT       0.417000       1.00800           0
     51715 TIP3     4107     TIP3     OH2      OT      -0.834000       15.9994           0
     51716 TIP3     4107     TIP3     H1       HT       0.417000       1.00800           0
     51717 TIP3     4107     TIP3     H2       HT       0.417000       1.00800           0
     51718 TIP3     4108     TIP3     OH2      OT      -0.834000       15.9994           0
     51719 TIP3     4108     TIP3     H1       HT       0.417000       1.00800           0
     51720 TIP3     4108     TIP3     H2       HT       0.417000       1.00800           0
     51721 TIP3     4109     TIP3     OH2      OT      -0.834000       15.9994           0
     51722 TIP3     4109     TIP3     H1       HT       0.417000       1.00800           0
     51723 TIP3     4109     TIP3     H2       HT       0.417000       1.00800           0
     51724 TIP3     4110     TIP3     OH2      OT      -0.834000       15.9994           0
     51725 TIP3     4110     TIP3     H1       HT       0.417000       1.00800           0
     51726 TIP3     4110     TIP3     H2       HT       0.417000       1.00800           0
     51727 TIP3     4111     TIP3     OH2      OT      -0.834000       15.9994           0
     51728 TIP3     4111     TIP3     H1       HT       0.417000       1.00800           0
     51729 TIP3     4111     TIP3     H2       HT       0.417000       1.00800           0
     51730 TIP3     4112     TIP3     OH2      OT      -0.834000       15.9994           0
     51731 TIP3     4112     TIP3     H1       HT       0.417000       1.00800           0
     51732 TIP3     4112     TIP3     H2       HT       0.417000       1.00800           0
     51733 TIP3     4113     TIP3     OH2      OT      -0.834000       15.9994           0
     51734 TIP3     4113     TIP3     H1       HT       0.417000       1.00800           0
     51735 TIP3     4113     TIP3     H2       HT       0.417000       1.00800           0
     51736 TIP3     4114     TIP3     OH2      OT      -0.834000       15.9994           0
     51737 TIP3     4114     TIP3     H1       HT       0.417000       1.00800           0
     51738 TIP3     4114     TIP3     H2       HT       0.417000       1.00800           0
     51739 TIP3     4115     TIP3     OH2      OT      -0.834000       15.9994           0
     51740 TIP3     4115     TIP3     H1       HT       0.417000       1.00800           0
     51741 TIP3     4115     TIP3     H2       HT       0.417000       1.00800           0
     51742 TIP3     4116     TIP3     OH2      OT      -0.834000       15.9994           0
     51743 TIP3     4116     TIP3     H1       HT       0.417000       1.00800           0
     51744 TIP3     4116     TIP3     H2       HT       0.417000       1.00800           0
     51745 TIP3     4117     TIP3     OH2      OT      -0.834000       15.9994           0
     51746 TIP3     4117     TIP3     H1       HT       0.417000       1.00800           0
     51747 TIP3     4117     TIP3     H2       HT       0.417000       1.00800           0
     51748 TIP3     4118     TIP3     OH2      OT      -0.834000       15.9994           0
     51749 TIP3     4118     TIP3     H1       HT       0.417000       1.00800           0
     51750 TIP3     4118     TIP3     H2       HT       0.417000       1.00800           0
     51751 TIP3     4119     TIP3     OH2      OT      -0.834000       15.9994           0
     51752 TIP3     4119     TIP3     H1       HT       0.417000       1.00800           0
     51753 TIP3     4119     TIP3     H2       HT       0.417000       1.00800           0
     51754 TIP3     4120     TIP3     OH2      OT      -0.834000       15.9994           0
     51755 TIP3     4120     TIP3     H1       HT       0.417000       1.00800           0
     51756 TIP3     4120     TIP3     H2       HT       0.417000       1.00800           0
     51757 TIP3     4121     TIP3     OH2      OT      -0.834000       15.9994           0
     51758 TIP3     4121     TIP3     H1       HT       0.417000       1.00800           0
     51759 TIP3     4121     TIP3     H2       HT       0.417000       1.00800           0
     51760 TIP3     4122     TIP3     OH2      OT      -0.834000       15.9994           0
     51761 TIP3     4122     TIP3     H1       HT       0.417000       1.00800           0
     51762 TIP3     4122     TIP3     H2       HT       0.417000       1.00800           0
     51763 TIP3     4123     TIP3     OH2      OT      -0.834000       15.9994           0
     51764 TIP3     4123     TIP3     H1       HT       0.417000       1.00800           0
     51765 TIP3     4123     TIP3     H2       HT       0.417000       1.00800           0
     51766 TIP3     4124     TIP3     OH2      OT      -0.834000       15.9994           0
     51767 TIP3     4124     TIP3     H1       HT       0.417000       1.00800           0
     51768 TIP3     4124     TIP3     H2       HT       0.417000       1.00800           0
     51769 TIP3     4125     TIP3     OH2      OT      -0.834000       15.9994           0
     51770 TIP3     4125     TIP3     H1       HT       0.417000       1.00800           0
     51771 TIP3     4125     TIP3     H2       HT       0.417000       1.00800           0
     51772 TIP3     4126     TIP3     OH2      OT      -0.834000       15.9994           0
     51773 TIP3     4126     TIP3     H1       HT       0.417000       1.00800           0
     51774 TIP3     4126     TIP3     H2       HT       0.417000       1.00800           0
     51775 TIP3     4127     TIP3     OH2      OT      -0.834000       15.9994           0
     51776 TIP3     4127     TIP3     H1       HT       0.417000       1.00800           0
     51777 TIP3     4127     TIP3     H2       HT       0.417000       1.00800           0
     51778 TIP3     4128     TIP3     OH2      OT      -0.834000       15.9994           0
     51779 TIP3     4128     TIP3     H1       HT       0.417000       1.00800           0
     51780 TIP3     4128     TIP3     H2       HT       0.417000       1.00800           0
     51781 TIP3     4129     TIP3     OH2      OT      -0.834000       15.9994           0
     51782 TIP3     4129     TIP3     H1       HT       0.417000       1.00800           0
     51783 TIP3     4129     TIP3     H2       HT       0.417000       1.00800           0
     51784 TIP3     4130     TIP3     OH2      OT      -0.834000       15.9994           0
     51785 TIP3     4130     TIP3     H1       HT       0.417000       1.00800           0
     51786 TIP3     4130     TIP3     H2       HT       0.417000       1.00800           0
     51787 TIP3     4131     TIP3     OH2      OT      -0.834000       15.9994           0
     51788 TIP3     4131     TIP3     H1       HT       0.417000       1.00800           0
     51789 TIP3     4131     TIP3     H2       HT       0.417000       1.00800           0
     51790 TIP3     4132     TIP3     OH2      OT      -0.834000       15.9994           0
     51791 TIP3     4132     TIP3     H1       HT       0.417000       1.00800           0
     51792 TIP3     4132     TIP3     H2       HT       0.417000       1.00800           0
     51793 TIP3     4133     TIP3     OH2      OT      -0.834000       15.9994           0
     51794 TIP3     4133     TIP3     H1       HT       0.417000       1.00800           0
     51795 TIP3     4133     TIP3     H2       HT       0.417000       1.00800           0
     51796 TIP3     4134     TIP3     OH2      OT      -0.834000       15.9994           0
     51797 TIP3     4134     TIP3     H1       HT       0.417000       1.00800           0
     51798 TIP3     4134     TIP3     H2       HT       0.417000       1.00800           0
     51799 TIP3     4135     TIP3     OH2      OT      -0.834000       15.9994           0
     51800 TIP3     4135     TIP3     H1       HT       0.417000       1.00800           0
     51801 TIP3     4135     TIP3     H2       HT       0.417000       1.00800           0
     51802 TIP3     4136     TIP3     OH2      OT      -0.834000       15.9994           0
     51803 TIP3     4136     TIP3     H1       HT       0.417000       1.00800           0
     51804 TIP3     4136     TIP3     H2       HT       0.417000       1.00800           0
     51805 TIP3     4137     TIP3     OH2      OT      -0.834000       15.9994           0
     51806 TIP3     4137     TIP3     H1       HT       0.417000       1.00800           0
     51807 TIP3     4137     TIP3     H2       HT       0.417000       1.00800           0
     51808 TIP3     4138     TIP3     OH2      OT      -0.834000       15.9994           0
     51809 TIP3     4138     TIP3     H1       HT       0.417000       1.00800           0
     51810 TIP3     4138     TIP3     H2       HT       0.417000       1.00800           0
     51811 TIP3     4139     TIP3     OH2      OT      -0.834000       15.9994           0
     51812 TIP3     4139     TIP3     H1       HT       0.417000       1.00800           0
     51813 TIP3     4139     TIP3     H2       HT       0.417000       1.00800           0
     51814 TIP3     4140     TIP3     OH2      OT      -0.834000       15.9994           0
     51815 TIP3     4140     TIP3     H1       HT       0.417000       1.00800           0
     51816 TIP3     4140     TIP3     H2       HT       0.417000       1.00800           0
     51817 TIP3     4141     TIP3     OH2      OT      -0.834000       15.9994           0
     51818 TIP3     4141     TIP3     H1       HT       0.417000       1.00800           0
     51819 TIP3     4141     TIP3     H2       HT       0.417000       1.00800           0
     51820 TIP3     4142     TIP3     OH2      OT      -0.834000       15.9994           0
     51821 TIP3     4142     TIP3     H1       HT       0.417000       1.00800           0
     51822 TIP3     4142     TIP3     H2       HT       0.417000       1.00800           0
     51823 TIP3     4143     TIP3     OH2      OT      -0.834000       15.9994           0
     51824 TIP3     4143     TIP3     H1       HT       0.417000       1.00800           0
     51825 TIP3     4143     TIP3     H2       HT       0.417000       1.00800           0
     51826 TIP3     4144     TIP3     OH2      OT      -0.834000       15.9994           0
     51827 TIP3     4144     TIP3     H1       HT       0.417000       1.00800           0
     51828 TIP3     4144     TIP3     H2       HT       0.417000       1.00800           0
     51829 TIP3     4145     TIP3     OH2      OT      -0.834000       15.9994           0
     51830 TIP3     4145     TIP3     H1       HT       0.417000       1.00800           0
     51831 TIP3     4145     TIP3     H2       HT       0.417000       1.00800           0
     51832 TIP3     4146     TIP3     OH2      OT      -0.834000       15.9994           0
     51833 TIP3     4146     TIP3     H1       HT       0.417000       1.00800           0
     51834 TIP3     4146     TIP3     H2       HT       0.417000       1.00800           0
     51835 TIP3     4147     TIP3     OH2      OT      -0.834000       15.9994           0
     51836 TIP3     4147     TIP3     H1       HT       0.417000       1.00800           0
     51837 TIP3     4147     TIP3     H2       HT       0.417000       1.00800           0
     51838 TIP3     4148     TIP3     OH2      OT      -0.834000       15.9994           0
     51839 TIP3     4148     TIP3     H1       HT       0.417000       1.00800           0
     51840 TIP3     4148     TIP3     H2       HT       0.417000       1.00800           0
     51841 TIP3     4149     TIP3     OH2      OT      -0.834000       15.9994           0
     51842 TIP3     4149     TIP3     H1       HT       0.417000       1.00800           0
     51843 TIP3     4149     TIP3     H2       HT       0.417000       1.00800           0
     51844 TIP3     4150     TIP3     OH2      OT      -0.834000       15.9994           0
     51845 TIP3     4150     TIP3     H1       HT       0.417000       1.00800           0
     51846 TIP3     4150     TIP3     H2       HT       0.417000       1.00800           0
     51847 TIP3     4151     TIP3     OH2      OT      -0.834000       15.9994           0
     51848 TIP3     4151     TIP3     H1       HT       0.417000       1.00800           0
     51849 TIP3     4151     TIP3     H2       HT       0.417000       1.00800           0
     51850 TIP3     4152     TIP3     OH2      OT      -0.834000       15.9994           0
     51851 TIP3     4152     TIP3     H1       HT       0.417000       1.00800           0
     51852 TIP3     4152     TIP3     H2       HT       0.417000       1.00800           0
     51853 TIP3     4153     TIP3     OH2      OT      -0.834000       15.9994           0
     51854 TIP3     4153     TIP3     H1       HT       0.417000       1.00800           0
     51855 TIP3     4153     TIP3     H2       HT       0.417000       1.00800           0
     51856 TIP3     4154     TIP3     OH2      OT      -0.834000       15.9994           0
     51857 TIP3     4154     TIP3     H1       HT       0.417000       1.00800           0
     51858 TIP3     4154     TIP3     H2       HT       0.417000       1.00800           0
     51859 TIP3     4155     TIP3     OH2      OT      -0.834000       15.9994           0
     51860 TIP3     4155     TIP3     H1       HT       0.417000       1.00800           0
     51861 TIP3     4155     TIP3     H2       HT       0.417000       1.00800           0
     51862 TIP3     4156     TIP3     OH2      OT      -0.834000       15.9994           0
     51863 TIP3     4156     TIP3     H1       HT       0.417000       1.00800           0
     51864 TIP3     4156     TIP3     H2       HT       0.417000       1.00800           0
     51865 TIP3     4157     TIP3     OH2      OT      -0.834000       15.9994           0
     51866 TIP3     4157     TIP3     H1       HT       0.417000       1.00800           0
     51867 TIP3     4157     TIP3     H2       HT       0.417000       1.00800           0
     51868 TIP3     4158     TIP3     OH2      OT      -0.834000       15.9994           0
     51869 TIP3     4158     TIP3     H1       HT       0.417000       1.00800           0
     51870 TIP3     4158     TIP3     H2       HT       0.417000       1.00800           0
     51871 TIP3     4159     TIP3     OH2      OT      -0.834000       15.9994           0
     51872 TIP3     4159     TIP3     H1       HT       0.417000       1.00800           0
     51873 TIP3     4159     TIP3     H2       HT       0.417000       1.00800           0
     51874 TIP3     4160     TIP3     OH2      OT      -0.834000       15.9994           0
     51875 TIP3     4160     TIP3     H1       HT       0.417000       1.00800           0
     51876 TIP3     4160     TIP3     H2       HT       0.417000       1.00800           0
     51877 TIP3     4161     TIP3     OH2      OT      -0.834000       15.9994           0
     51878 TIP3     4161     TIP3     H1       HT       0.417000       1.00800           0
     51879 TIP3     4161     TIP3     H2       HT       0.417000       1.00800           0
     51880 TIP3     4162     TIP3     OH2      OT      -0.834000       15.9994           0
     51881 TIP3     4162     TIP3     H1       HT       0.417000       1.00800           0
     51882 TIP3     4162     TIP3     H2       HT       0.417000       1.00800           0
     51883 TIP3     4163     TIP3     OH2      OT      -0.834000       15.9994           0
     51884 TIP3     4163     TIP3     H1       HT       0.417000       1.00800           0
     51885 TIP3     4163     TIP3     H2       HT       0.417000       1.00800           0
     51886 TIP3     4164     TIP3     OH2      OT      -0.834000       15.9994           0
     51887 TIP3     4164     TIP3     H1       HT       0.417000       1.00800           0
     51888 TIP3     4164     TIP3     H2       HT       0.417000       1.00800           0
     51889 TIP3     4165     TIP3     OH2      OT      -0.834000       15.9994           0
     51890 TIP3     4165     TIP3     H1       HT       0.417000       1.00800           0
     51891 TIP3     4165     TIP3     H2       HT       0.417000       1.00800           0
     51892 TIP3     4166     TIP3     OH2      OT      -0.834000       15.9994           0
     51893 TIP3     4166     TIP3     H1       HT       0.417000       1.00800           0
     51894 TIP3     4166     TIP3     H2       HT       0.417000       1.00800           0
     51895 TIP3     4167     TIP3     OH2      OT      -0.834000       15.9994           0
     51896 TIP3     4167     TIP3     H1       HT       0.417000       1.00800           0
     51897 TIP3     4167     TIP3     H2       HT       0.417000       1.00800           0
     51898 TIP3     4168     TIP3     OH2      OT      -0.834000       15.9994           0
     51899 TIP3     4168     TIP3     H1       HT       0.417000       1.00800           0
     51900 TIP3     4168     TIP3     H2       HT       0.417000       1.00800           0
     51901 TIP3     4169     TIP3     OH2      OT      -0.834000       15.9994           0
     51902 TIP3     4169     TIP3     H1       HT       0.417000       1.00800           0
     51903 TIP3     4169     TIP3     H2       HT       0.417000       1.00800           0
     51904 TIP3     4170     TIP3     OH2      OT      -0.834000       15.9994           0
     51905 TIP3     4170     TIP3     H1       HT       0.417000       1.00800           0
     51906 TIP3     4170     TIP3     H2       HT       0.417000       1.00800           0
     51907 TIP3     4171     TIP3     OH2      OT      -0.834000       15.9994           0
     51908 TIP3     4171     TIP3     H1       HT       0.417000       1.00800           0
     51909 TIP3     4171     TIP3     H2       HT       0.417000       1.00800           0
     51910 TIP3     4172     TIP3     OH2      OT      -0.834000       15.9994           0
     51911 TIP3     4172     TIP3     H1       HT       0.417000       1.00800           0
     51912 TIP3     4172     TIP3     H2       HT       0.417000       1.00800           0
     51913 TIP3     4173     TIP3     OH2      OT      -0.834000       15.9994           0
     51914 TIP3     4173     TIP3     H1       HT       0.417000       1.00800           0
     51915 TIP3     4173     TIP3     H2       HT       0.417000       1.00800           0
     51916 TIP3     4174     TIP3     OH2      OT      -0.834000       15.9994           0
     51917 TIP3     4174     TIP3     H1       HT       0.417000       1.00800           0
     51918 TIP3     4174     TIP3     H2       HT       0.417000       1.00800           0
     51919 TIP3     4175     TIP3     OH2      OT      -0.834000       15.9994           0
     51920 TIP3     4175     TIP3     H1       HT       0.417000       1.00800           0
     51921 TIP3     4175     TIP3     H2       HT       0.417000       1.00800           0
     51922 TIP3     4176     TIP3     OH2      OT      -0.834000       15.9994           0
     51923 TIP3     4176     TIP3     H1       HT       0.417000       1.00800           0
     51924 TIP3     4176     TIP3     H2       HT       0.417000       1.00800           0
     51925 TIP3     4177     TIP3     OH2      OT      -0.834000       15.9994           0
     51926 TIP3     4177     TIP3     H1       HT       0.417000       1.00800           0
     51927 TIP3     4177     TIP3     H2       HT       0.417000       1.00800           0
     51928 TIP3     4178     TIP3     OH2      OT      -0.834000       15.9994           0
     51929 TIP3     4178     TIP3     H1       HT       0.417000       1.00800           0
     51930 TIP3     4178     TIP3     H2       HT       0.417000       1.00800           0
     51931 TIP3     4179     TIP3     OH2      OT      -0.834000       15.9994           0
     51932 TIP3     4179     TIP3     H1       HT       0.417000       1.00800           0
     51933 TIP3     4179     TIP3     H2       HT       0.417000       1.00800           0
     51934 TIP3     4180     TIP3     OH2      OT      -0.834000       15.9994           0
     51935 TIP3     4180     TIP3     H1       HT       0.417000       1.00800           0
     51936 TIP3     4180     TIP3     H2       HT       0.417000       1.00800           0
     51937 TIP3     4181     TIP3     OH2      OT      -0.834000       15.9994           0
     51938 TIP3     4181     TIP3     H1       HT       0.417000       1.00800           0
     51939 TIP3     4181     TIP3     H2       HT       0.417000       1.00800           0
     51940 TIP3     4182     TIP3     OH2      OT      -0.834000       15.9994           0
     51941 TIP3     4182     TIP3     H1       HT       0.417000       1.00800           0
     51942 TIP3     4182     TIP3     H2       HT       0.417000       1.00800           0
     51943 TIP3     4183     TIP3     OH2      OT      -0.834000       15.9994           0
     51944 TIP3     4183     TIP3     H1       HT       0.417000       1.00800           0
     51945 TIP3     4183     TIP3     H2       HT       0.417000       1.00800           0
     51946 TIP3     4184     TIP3     OH2      OT      -0.834000       15.9994           0
     51947 TIP3     4184     TIP3     H1       HT       0.417000       1.00800           0
     51948 TIP3     4184     TIP3     H2       HT       0.417000       1.00800           0
     51949 TIP3     4185     TIP3     OH2      OT      -0.834000       15.9994           0
     51950 TIP3     4185     TIP3     H1       HT       0.417000       1.00800           0
     51951 TIP3     4185     TIP3     H2       HT       0.417000       1.00800           0
     51952 TIP3     4186     TIP3     OH2      OT      -0.834000       15.9994           0
     51953 TIP3     4186     TIP3     H1       HT       0.417000       1.00800           0
     51954 TIP3     4186     TIP3     H2       HT       0.417000       1.00800           0
     51955 TIP3     4187     TIP3     OH2      OT      -0.834000       15.9994           0
     51956 TIP3     4187     TIP3     H1       HT       0.417000       1.00800           0
     51957 TIP3     4187     TIP3     H2       HT       0.417000       1.00800           0
     51958 TIP3     4188     TIP3     OH2      OT      -0.834000       15.9994           0
     51959 TIP3     4188     TIP3     H1       HT       0.417000       1.00800           0
     51960 TIP3     4188     TIP3     H2       HT       0.417000       1.00800           0
     51961 TIP3     4189     TIP3     OH2      OT      -0.834000       15.9994           0
     51962 TIP3     4189     TIP3     H1       HT       0.417000       1.00800           0
     51963 TIP3     4189     TIP3     H2       HT       0.417000       1.00800           0
     51964 TIP3     4190     TIP3     OH2      OT      -0.834000       15.9994           0
     51965 TIP3     4190     TIP3     H1       HT       0.417000       1.00800           0
     51966 TIP3     4190     TIP3     H2       HT       0.417000       1.00800           0
     51967 TIP3     4191     TIP3     OH2      OT      -0.834000       15.9994           0
     51968 TIP3     4191     TIP3     H1       HT       0.417000       1.00800           0
     51969 TIP3     4191     TIP3     H2       HT       0.417000       1.00800           0
     51970 TIP3     4192     TIP3     OH2      OT      -0.834000       15.9994           0
     51971 TIP3     4192     TIP3     H1       HT       0.417000       1.00800           0
     51972 TIP3     4192     TIP3     H2       HT       0.417000       1.00800           0
     51973 TIP3     4193     TIP3     OH2      OT      -0.834000       15.9994           0
     51974 TIP3     4193     TIP3     H1       HT       0.417000       1.00800           0
     51975 TIP3     4193     TIP3     H2       HT       0.417000       1.00800           0
     51976 TIP3     4194     TIP3     OH2      OT      -0.834000       15.9994           0
     51977 TIP3     4194     TIP3     H1       HT       0.417000       1.00800           0
     51978 TIP3     4194     TIP3     H2       HT       0.417000       1.00800           0
     51979 TIP3     4195     TIP3     OH2      OT      -0.834000       15.9994           0
     51980 TIP3     4195     TIP3     H1       HT       0.417000       1.00800           0
     51981 TIP3     4195     TIP3     H2       HT       0.417000       1.00800           0
     51982 TIP3     4196     TIP3     OH2      OT      -0.834000       15.9994           0
     51983 TIP3     4196     TIP3     H1       HT       0.417000       1.00800           0
     51984 TIP3     4196     TIP3     H2       HT       0.417000       1.00800           0
     51985 TIP3     4197     TIP3     OH2      OT      -0.834000       15.9994           0
     51986 TIP3     4197     TIP3     H1       HT       0.417000       1.00800           0
     51987 TIP3     4197     TIP3     H2       HT       0.417000       1.00800           0
     51988 TIP3     4198     TIP3     OH2      OT      -0.834000       15.9994           0
     51989 TIP3     4198     TIP3     H1       HT       0.417000       1.00800           0
     51990 TIP3     4198     TIP3     H2       HT       0.417000       1.00800           0
     51991 TIP3     4199     TIP3     OH2      OT      -0.834000       15.9994           0
     51992 TIP3     4199     TIP3     H1       HT       0.417000       1.00800           0
     51993 TIP3     4199     TIP3     H2       HT       0.417000       1.00800           0
     51994 TIP3     4200     TIP3     OH2      OT      -0.834000       15.9994           0
     51995 TIP3     4200     TIP3     H1       HT       0.417000       1.00800           0
     51996 TIP3     4200     TIP3     H2       HT       0.417000       1.00800           0
     51997 TIP3     4201     TIP3     OH2      OT      -0.834000       15.9994           0
     51998 TIP3     4201     TIP3     H1       HT       0.417000       1.00800           0
     51999 TIP3     4201     TIP3     H2       HT       0.417000       1.00800           0
     52000 TIP3     4202     TIP3     OH2      OT      -0.834000       15.9994           0
     52001 TIP3     4202     TIP3     H1       HT       0.417000       1.00800           0
     52002 TIP3     4202     TIP3     H2       HT       0.417000       1.00800           0
     52003 TIP3     4203     TIP3     OH2      OT      -0.834000       15.9994           0
     52004 TIP3     4203     TIP3     H1       HT       0.417000       1.00800           0
     52005 TIP3     4203     TIP3     H2       HT       0.417000       1.00800           0
     52006 TIP3     4204     TIP3     OH2      OT      -0.834000       15.9994           0
     52007 TIP3     4204     TIP3     H1       HT       0.417000       1.00800           0
     52008 TIP3     4204     TIP3     H2       HT       0.417000       1.00800           0
     52009 TIP3     4205     TIP3     OH2      OT      -0.834000       15.9994           0
     52010 TIP3     4205     TIP3     H1       HT       0.417000       1.00800           0
     52011 TIP3     4205     TIP3     H2       HT       0.417000       1.00800           0
     52012 TIP3     4206     TIP3     OH2      OT      -0.834000       15.9994           0
     52013 TIP3     4206     TIP3     H1       HT       0.417000       1.00800           0
     52014 TIP3     4206     TIP3     H2       HT       0.417000       1.00800           0
     52015 TIP3     4207     TIP3     OH2      OT      -0.834000       15.9994           0
     52016 TIP3     4207     TIP3     H1       HT       0.417000       1.00800           0
     52017 TIP3     4207     TIP3     H2       HT       0.417000       1.00800           0
     52018 TIP3     4208     TIP3     OH2      OT      -0.834000       15.9994           0
     52019 TIP3     4208     TIP3     H1       HT       0.417000       1.00800           0
     52020 TIP3     4208     TIP3     H2       HT       0.417000       1.00800           0
     52021 TIP3     4209     TIP3     OH2      OT      -0.834000       15.9994           0
     52022 TIP3     4209     TIP3     H1       HT       0.417000       1.00800           0
     52023 TIP3     4209     TIP3     H2       HT       0.417000       1.00800           0
     52024 TIP3     4210     TIP3     OH2      OT      -0.834000       15.9994           0
     52025 TIP3     4210     TIP3     H1       HT       0.417000       1.00800           0
     52026 TIP3     4210     TIP3     H2       HT       0.417000       1.00800           0
     52027 TIP3     4211     TIP3     OH2      OT      -0.834000       15.9994           0
     52028 TIP3     4211     TIP3     H1       HT       0.417000       1.00800           0
     52029 TIP3     4211     TIP3     H2       HT       0.417000       1.00800           0
     52030 TIP3     4212     TIP3     OH2      OT      -0.834000       15.9994           0
     52031 TIP3     4212     TIP3     H1       HT       0.417000       1.00800           0
     52032 TIP3     4212     TIP3     H2       HT       0.417000       1.00800           0
     52033 TIP3     4213     TIP3     OH2      OT      -0.834000       15.9994           0
     52034 TIP3     4213     TIP3     H1       HT       0.417000       1.00800           0
     52035 TIP3     4213     TIP3     H2       HT       0.417000       1.00800           0
     52036 TIP3     4214     TIP3     OH2      OT      -0.834000       15.9994           0
     52037 TIP3     4214     TIP3     H1       HT       0.417000       1.00800           0
     52038 TIP3     4214     TIP3     H2       HT       0.417000       1.00800           0
     52039 TIP3     4215     TIP3     OH2      OT      -0.834000       15.9994           0
     52040 TIP3     4215     TIP3     H1       HT       0.417000       1.00800           0
     52041 TIP3     4215     TIP3     H2       HT       0.417000       1.00800           0
     52042 TIP3     4216     TIP3     OH2      OT      -0.834000       15.9994           0
     52043 TIP3     4216     TIP3     H1       HT       0.417000       1.00800           0
     52044 TIP3     4216     TIP3     H2       HT       0.417000       1.00800           0
     52045 TIP3     4217     TIP3     OH2      OT      -0.834000       15.9994           0
     52046 TIP3     4217     TIP3     H1       HT       0.417000       1.00800           0
     52047 TIP3     4217     TIP3     H2       HT       0.417000       1.00800           0
     52048 TIP3     4218     TIP3     OH2      OT      -0.834000       15.9994           0
     52049 TIP3     4218     TIP3     H1       HT       0.417000       1.00800           0
     52050 TIP3     4218     TIP3     H2       HT       0.417000       1.00800           0
     52051 TIP3     4219     TIP3     OH2      OT      -0.834000       15.9994           0
     52052 TIP3     4219     TIP3     H1       HT       0.417000       1.00800           0
     52053 TIP3     4219     TIP3     H2       HT       0.417000       1.00800           0
     52054 TIP3     4220     TIP3     OH2      OT      -0.834000       15.9994           0
     52055 TIP3     4220     TIP3     H1       HT       0.417000       1.00800           0
     52056 TIP3     4220     TIP3     H2       HT       0.417000       1.00800           0
     52057 TIP3     4221     TIP3     OH2      OT      -0.834000       15.9994           0
     52058 TIP3     4221     TIP3     H1       HT       0.417000       1.00800           0
     52059 TIP3     4221     TIP3     H2       HT       0.417000       1.00800           0
     52060 TIP3     4222     TIP3     OH2      OT      -0.834000       15.9994           0
     52061 TIP3     4222     TIP3     H1       HT       0.417000       1.00800           0
     52062 TIP3     4222     TIP3     H2       HT       0.417000       1.00800           0
     52063 TIP3     4223     TIP3     OH2      OT      -0.834000       15.9994           0
     52064 TIP3     4223     TIP3     H1       HT       0.417000       1.00800           0
     52065 TIP3     4223     TIP3     H2       HT       0.417000       1.00800           0
     52066 TIP3     4224     TIP3     OH2      OT      -0.834000       15.9994           0
     52067 TIP3     4224     TIP3     H1       HT       0.417000       1.00800           0
     52068 TIP3     4224     TIP3     H2       HT       0.417000       1.00800           0
     52069 TIP3     4225     TIP3     OH2      OT      -0.834000       15.9994           0
     52070 TIP3     4225     TIP3     H1       HT       0.417000       1.00800           0
     52071 TIP3     4225     TIP3     H2       HT       0.417000       1.00800           0
     52072 TIP3     4226     TIP3     OH2      OT      -0.834000       15.9994           0
     52073 TIP3     4226     TIP3     H1       HT       0.417000       1.00800           0
     52074 TIP3     4226     TIP3     H2       HT       0.417000       1.00800           0
     52075 TIP3     4227     TIP3     OH2      OT      -0.834000       15.9994           0
     52076 TIP3     4227     TIP3     H1       HT       0.417000       1.00800           0
     52077 TIP3     4227     TIP3     H2       HT       0.417000       1.00800           0
     52078 TIP3     4228     TIP3     OH2      OT      -0.834000       15.9994           0
     52079 TIP3     4228     TIP3     H1       HT       0.417000       1.00800           0
     52080 TIP3     4228     TIP3     H2       HT       0.417000       1.00800           0
     52081 TIP3     4229     TIP3     OH2      OT      -0.834000       15.9994           0
     52082 TIP3     4229     TIP3     H1       HT       0.417000       1.00800           0
     52083 TIP3     4229     TIP3     H2       HT       0.417000       1.00800           0
     52084 TIP3     4230     TIP3     OH2      OT      -0.834000       15.9994           0
     52085 TIP3     4230     TIP3     H1       HT       0.417000       1.00800           0
     52086 TIP3     4230     TIP3     H2       HT       0.417000       1.00800           0
     52087 TIP3     4231     TIP3     OH2      OT      -0.834000       15.9994           0
     52088 TIP3     4231     TIP3     H1       HT       0.417000       1.00800           0
     52089 TIP3     4231     TIP3     H2       HT       0.417000       1.00800           0
     52090 TIP3     4232     TIP3     OH2      OT      -0.834000       15.9994           0
     52091 TIP3     4232     TIP3     H1       HT       0.417000       1.00800           0
     52092 TIP3     4232     TIP3     H2       HT       0.417000       1.00800           0
     52093 TIP3     4233     TIP3     OH2      OT      -0.834000       15.9994           0
     52094 TIP3     4233     TIP3     H1       HT       0.417000       1.00800           0
     52095 TIP3     4233     TIP3     H2       HT       0.417000       1.00800           0
     52096 TIP3     4234     TIP3     OH2      OT      -0.834000       15.9994           0
     52097 TIP3     4234     TIP3     H1       HT       0.417000       1.00800           0
     52098 TIP3     4234     TIP3     H2       HT       0.417000       1.00800           0
     52099 TIP3     4235     TIP3     OH2      OT      -0.834000       15.9994           0
     52100 TIP3     4235     TIP3     H1       HT       0.417000       1.00800           0
     52101 TIP3     4235     TIP3     H2       HT       0.417000       1.00800           0
     52102 TIP3     4236     TIP3     OH2      OT      -0.834000       15.9994           0
     52103 TIP3     4236     TIP3     H1       HT       0.417000       1.00800           0
     52104 TIP3     4236     TIP3     H2       HT       0.417000       1.00800           0
     52105 TIP3     4237     TIP3     OH2      OT      -0.834000       15.9994           0
     52106 TIP3     4237     TIP3     H1       HT       0.417000       1.00800           0
     52107 TIP3     4237     TIP3     H2       HT       0.417000       1.00800           0
     52108 TIP3     4238     TIP3     OH2      OT      -0.834000       15.9994           0
     52109 TIP3     4238     TIP3     H1       HT       0.417000       1.00800           0
     52110 TIP3     4238     TIP3     H2       HT       0.417000       1.00800           0
     52111 TIP3     4239     TIP3     OH2      OT      -0.834000       15.9994           0
     52112 TIP3     4239     TIP3     H1       HT       0.417000       1.00800           0
     52113 TIP3     4239     TIP3     H2       HT       0.417000       1.00800           0
     52114 TIP3     4240     TIP3     OH2      OT      -0.834000       15.9994           0
     52115 TIP3     4240     TIP3     H1       HT       0.417000       1.00800           0
     52116 TIP3     4240     TIP3     H2       HT       0.417000       1.00800           0
     52117 TIP3     4241     TIP3     OH2      OT      -0.834000       15.9994           0
     52118 TIP3     4241     TIP3     H1       HT       0.417000       1.00800           0
     52119 TIP3     4241     TIP3     H2       HT       0.417000       1.00800           0
     52120 TIP3     4242     TIP3     OH2      OT      -0.834000       15.9994           0
     52121 TIP3     4242     TIP3     H1       HT       0.417000       1.00800           0
     52122 TIP3     4242     TIP3     H2       HT       0.417000       1.00800           0
     52123 TIP3     4243     TIP3     OH2      OT      -0.834000       15.9994           0
     52124 TIP3     4243     TIP3     H1       HT       0.417000       1.00800           0
     52125 TIP3     4243     TIP3     H2       HT       0.417000       1.00800           0
     52126 TIP3     4244     TIP3     OH2      OT      -0.834000       15.9994           0
     52127 TIP3     4244     TIP3     H1       HT       0.417000       1.00800           0
     52128 TIP3     4244     TIP3     H2       HT       0.417000       1.00800           0
     52129 TIP3     4245     TIP3     OH2      OT      -0.834000       15.9994           0
     52130 TIP3     4245     TIP3     H1       HT       0.417000       1.00800           0
     52131 TIP3     4245     TIP3     H2       HT       0.417000       1.00800           0
     52132 TIP3     4246     TIP3     OH2      OT      -0.834000       15.9994           0
     52133 TIP3     4246     TIP3     H1       HT       0.417000       1.00800           0
     52134 TIP3     4246     TIP3     H2       HT       0.417000       1.00800           0
     52135 TIP3     4247     TIP3     OH2      OT      -0.834000       15.9994           0
     52136 TIP3     4247     TIP3     H1       HT       0.417000       1.00800           0
     52137 TIP3     4247     TIP3     H2       HT       0.417000       1.00800           0
     52138 TIP3     4248     TIP3     OH2      OT      -0.834000       15.9994           0
     52139 TIP3     4248     TIP3     H1       HT       0.417000       1.00800           0
     52140 TIP3     4248     TIP3     H2       HT       0.417000       1.00800           0
     52141 TIP3     4249     TIP3     OH2      OT      -0.834000       15.9994           0
     52142 TIP3     4249     TIP3     H1       HT       0.417000       1.00800           0
     52143 TIP3     4249     TIP3     H2       HT       0.417000       1.00800           0
     52144 TIP3     4250     TIP3     OH2      OT      -0.834000       15.9994           0
     52145 TIP3     4250     TIP3     H1       HT       0.417000       1.00800           0
     52146 TIP3     4250     TIP3     H2       HT       0.417000       1.00800           0
     52147 TIP3     4251     TIP3     OH2      OT      -0.834000       15.9994           0
     52148 TIP3     4251     TIP3     H1       HT       0.417000       1.00800           0
     52149 TIP3     4251     TIP3     H2       HT       0.417000       1.00800           0
     52150 TIP3     4252     TIP3     OH2      OT      -0.834000       15.9994           0
     52151 TIP3     4252     TIP3     H1       HT       0.417000       1.00800           0
     52152 TIP3     4252     TIP3     H2       HT       0.417000       1.00800           0
     52153 TIP3     4253     TIP3     OH2      OT      -0.834000       15.9994           0
     52154 TIP3     4253     TIP3     H1       HT       0.417000       1.00800           0
     52155 TIP3     4253     TIP3     H2       HT       0.417000       1.00800           0
     52156 TIP3     4254     TIP3     OH2      OT      -0.834000       15.9994           0
     52157 TIP3     4254     TIP3     H1       HT       0.417000       1.00800           0
     52158 TIP3     4254     TIP3     H2       HT       0.417000       1.00800           0
     52159 TIP3     4255     TIP3     OH2      OT      -0.834000       15.9994           0
     52160 TIP3     4255     TIP3     H1       HT       0.417000       1.00800           0
     52161 TIP3     4255     TIP3     H2       HT       0.417000       1.00800           0
     52162 TIP3     4256     TIP3     OH2      OT      -0.834000       15.9994           0
     52163 TIP3     4256     TIP3     H1       HT       0.417000       1.00800           0
     52164 TIP3     4256     TIP3     H2       HT       0.417000       1.00800           0
     52165 TIP3     4257     TIP3     OH2      OT      -0.834000       15.9994           0
     52166 TIP3     4257     TIP3     H1       HT       0.417000       1.00800           0
     52167 TIP3     4257     TIP3     H2       HT       0.417000       1.00800           0
     52168 TIP3     4258     TIP3     OH2      OT      -0.834000       15.9994           0
     52169 TIP3     4258     TIP3     H1       HT       0.417000       1.00800           0
     52170 TIP3     4258     TIP3     H2       HT       0.417000       1.00800           0
     52171 TIP3     4259     TIP3     OH2      OT      -0.834000       15.9994           0
     52172 TIP3     4259     TIP3     H1       HT       0.417000       1.00800           0
     52173 TIP3     4259     TIP3     H2       HT       0.417000       1.00800           0
     52174 TIP3     4260     TIP3     OH2      OT      -0.834000       15.9994           0
     52175 TIP3     4260     TIP3     H1       HT       0.417000       1.00800           0
     52176 TIP3     4260     TIP3     H2       HT       0.417000       1.00800           0
     52177 TIP3     4261     TIP3     OH2      OT      -0.834000       15.9994           0
     52178 TIP3     4261     TIP3     H1       HT       0.417000       1.00800           0
     52179 TIP3     4261     TIP3     H2       HT       0.417000       1.00800           0
     52180 TIP3     4262     TIP3     OH2      OT      -0.834000       15.9994           0
     52181 TIP3     4262     TIP3     H1       HT       0.417000       1.00800           0
     52182 TIP3     4262     TIP3     H2       HT       0.417000       1.00800           0
     52183 TIP3     4263     TIP3     OH2      OT      -0.834000       15.9994           0
     52184 TIP3     4263     TIP3     H1       HT       0.417000       1.00800           0
     52185 TIP3     4263     TIP3     H2       HT       0.417000       1.00800           0
     52186 TIP3     4264     TIP3     OH2      OT      -0.834000       15.9994           0
     52187 TIP3     4264     TIP3     H1       HT       0.417000       1.00800           0
     52188 TIP3     4264     TIP3     H2       HT       0.417000       1.00800           0
     52189 TIP3     4265     TIP3     OH2      OT      -0.834000       15.9994           0
     52190 TIP3     4265     TIP3     H1       HT       0.417000       1.00800           0
     52191 TIP3     4265     TIP3     H2       HT       0.417000       1.00800           0
     52192 TIP3     4266     TIP3     OH2      OT      -0.834000       15.9994           0
     52193 TIP3     4266     TIP3     H1       HT       0.417000       1.00800           0
     52194 TIP3     4266     TIP3     H2       HT       0.417000       1.00800           0
     52195 TIP3     4267     TIP3     OH2      OT      -0.834000       15.9994           0
     52196 TIP3     4267     TIP3     H1       HT       0.417000       1.00800           0
     52197 TIP3     4267     TIP3     H2       HT       0.417000       1.00800           0
     52198 TIP3     4268     TIP3     OH2      OT      -0.834000       15.9994           0
     52199 TIP3     4268     TIP3     H1       HT       0.417000       1.00800           0
     52200 TIP3     4268     TIP3     H2       HT       0.417000       1.00800           0
     52201 TIP3     4269     TIP3     OH2      OT      -0.834000       15.9994           0
     52202 TIP3     4269     TIP3     H1       HT       0.417000       1.00800           0
     52203 TIP3     4269     TIP3     H2       HT       0.417000       1.00800           0
     52204 TIP3     4270     TIP3     OH2      OT      -0.834000       15.9994           0
     52205 TIP3     4270     TIP3     H1       HT       0.417000       1.00800           0
     52206 TIP3     4270     TIP3     H2       HT       0.417000       1.00800           0
     52207 TIP3     4271     TIP3     OH2      OT      -0.834000       15.9994           0
     52208 TIP3     4271     TIP3     H1       HT       0.417000       1.00800           0
     52209 TIP3     4271     TIP3     H2       HT       0.417000       1.00800           0
     52210 TIP3     4272     TIP3     OH2      OT      -0.834000       15.9994           0
     52211 TIP3     4272     TIP3     H1       HT       0.417000       1.00800           0
     52212 TIP3     4272     TIP3     H2       HT       0.417000       1.00800           0
     52213 TIP3     4273     TIP3     OH2      OT      -0.834000       15.9994           0
     52214 TIP3     4273     TIP3     H1       HT       0.417000       1.00800           0
     52215 TIP3     4273     TIP3     H2       HT       0.417000       1.00800           0
     52216 TIP3     4274     TIP3     OH2      OT      -0.834000       15.9994           0
     52217 TIP3     4274     TIP3     H1       HT       0.417000       1.00800           0
     52218 TIP3     4274     TIP3     H2       HT       0.417000       1.00800           0
     52219 TIP3     4275     TIP3     OH2      OT      -0.834000       15.9994           0
     52220 TIP3     4275     TIP3     H1       HT       0.417000       1.00800           0
     52221 TIP3     4275     TIP3     H2       HT       0.417000       1.00800           0
     52222 TIP3     4276     TIP3     OH2      OT      -0.834000       15.9994           0
     52223 TIP3     4276     TIP3     H1       HT       0.417000       1.00800           0
     52224 TIP3     4276     TIP3     H2       HT       0.417000       1.00800           0
     52225 TIP3     4277     TIP3     OH2      OT      -0.834000       15.9994           0
     52226 TIP3     4277     TIP3     H1       HT       0.417000       1.00800           0
     52227 TIP3     4277     TIP3     H2       HT       0.417000       1.00800           0
     52228 TIP3     4278     TIP3     OH2      OT      -0.834000       15.9994           0
     52229 TIP3     4278     TIP3     H1       HT       0.417000       1.00800           0
     52230 TIP3     4278     TIP3     H2       HT       0.417000       1.00800           0
     52231 TIP3     4279     TIP3     OH2      OT      -0.834000       15.9994           0
     52232 TIP3     4279     TIP3     H1       HT       0.417000       1.00800           0
     52233 TIP3     4279     TIP3     H2       HT       0.417000       1.00800           0
     52234 TIP3     4280     TIP3     OH2      OT      -0.834000       15.9994           0
     52235 TIP3     4280     TIP3     H1       HT       0.417000       1.00800           0
     52236 TIP3     4280     TIP3     H2       HT       0.417000       1.00800           0
     52237 TIP3     4281     TIP3     OH2      OT      -0.834000       15.9994           0
     52238 TIP3     4281     TIP3     H1       HT       0.417000       1.00800           0
     52239 TIP3     4281     TIP3     H2       HT       0.417000       1.00800           0
     52240 TIP3     4282     TIP3     OH2      OT      -0.834000       15.9994           0
     52241 TIP3     4282     TIP3     H1       HT       0.417000       1.00800           0
     52242 TIP3     4282     TIP3     H2       HT       0.417000       1.00800           0
     52243 TIP3     4283     TIP3     OH2      OT      -0.834000       15.9994           0
     52244 TIP3     4283     TIP3     H1       HT       0.417000       1.00800           0
     52245 TIP3     4283     TIP3     H2       HT       0.417000       1.00800           0
     52246 TIP3     4284     TIP3     OH2      OT      -0.834000       15.9994           0
     52247 TIP3     4284     TIP3     H1       HT       0.417000       1.00800           0
     52248 TIP3     4284     TIP3     H2       HT       0.417000       1.00800           0
     52249 TIP3     4285     TIP3     OH2      OT      -0.834000       15.9994           0
     52250 TIP3     4285     TIP3     H1       HT       0.417000       1.00800           0
     52251 TIP3     4285     TIP3     H2       HT       0.417000       1.00800           0
     52252 TIP3     4286     TIP3     OH2      OT      -0.834000       15.9994           0
     52253 TIP3     4286     TIP3     H1       HT       0.417000       1.00800           0
     52254 TIP3     4286     TIP3     H2       HT       0.417000       1.00800           0
     52255 TIP3     4287     TIP3     OH2      OT      -0.834000       15.9994           0
     52256 TIP3     4287     TIP3     H1       HT       0.417000       1.00800           0
     52257 TIP3     4287     TIP3     H2       HT       0.417000       1.00800           0
     52258 TIP3     4288     TIP3     OH2      OT      -0.834000       15.9994           0
     52259 TIP3     4288     TIP3     H1       HT       0.417000       1.00800           0
     52260 TIP3     4288     TIP3     H2       HT       0.417000       1.00800           0
     52261 TIP3     4289     TIP3     OH2      OT      -0.834000       15.9994           0
     52262 TIP3     4289     TIP3     H1       HT       0.417000       1.00800           0
     52263 TIP3     4289     TIP3     H2       HT       0.417000       1.00800           0
     52264 TIP3     4290     TIP3     OH2      OT      -0.834000       15.9994           0
     52265 TIP3     4290     TIP3     H1       HT       0.417000       1.00800           0
     52266 TIP3     4290     TIP3     H2       HT       0.417000       1.00800           0
     52267 TIP3     4291     TIP3     OH2      OT      -0.834000       15.9994           0
     52268 TIP3     4291     TIP3     H1       HT       0.417000       1.00800           0
     52269 TIP3     4291     TIP3     H2       HT       0.417000       1.00800           0
     52270 TIP3     4292     TIP3     OH2      OT      -0.834000       15.9994           0
     52271 TIP3     4292     TIP3     H1       HT       0.417000       1.00800           0
     52272 TIP3     4292     TIP3     H2       HT       0.417000       1.00800           0
     52273 TIP3     4293     TIP3     OH2      OT      -0.834000       15.9994           0
     52274 TIP3     4293     TIP3     H1       HT       0.417000       1.00800           0
     52275 TIP3     4293     TIP3     H2       HT       0.417000       1.00800           0
     52276 TIP3     4294     TIP3     OH2      OT      -0.834000       15.9994           0
     52277 TIP3     4294     TIP3     H1       HT       0.417000       1.00800           0
     52278 TIP3     4294     TIP3     H2       HT       0.417000       1.00800           0
     52279 TIP3     4295     TIP3     OH2      OT      -0.834000       15.9994           0
     52280 TIP3     4295     TIP3     H1       HT       0.417000       1.00800           0
     52281 TIP3     4295     TIP3     H2       HT       0.417000       1.00800           0
     52282 TIP3     4296     TIP3     OH2      OT      -0.834000       15.9994           0
     52283 TIP3     4296     TIP3     H1       HT       0.417000       1.00800           0
     52284 TIP3     4296     TIP3     H2       HT       0.417000       1.00800           0
     52285 TIP3     4297     TIP3     OH2      OT      -0.834000       15.9994           0
     52286 TIP3     4297     TIP3     H1       HT       0.417000       1.00800           0
     52287 TIP3     4297     TIP3     H2       HT       0.417000       1.00800           0
     52288 TIP3     4298     TIP3     OH2      OT      -0.834000       15.9994           0
     52289 TIP3     4298     TIP3     H1       HT       0.417000       1.00800           0
     52290 TIP3     4298     TIP3     H2       HT       0.417000       1.00800           0
     52291 TIP3     4299     TIP3     OH2      OT      -0.834000       15.9994           0
     52292 TIP3     4299     TIP3     H1       HT       0.417000       1.00800           0
     52293 TIP3     4299     TIP3     H2       HT       0.417000       1.00800           0
     52294 TIP3     4300     TIP3     OH2      OT      -0.834000       15.9994           0
     52295 TIP3     4300     TIP3     H1       HT       0.417000       1.00800           0
     52296 TIP3     4300     TIP3     H2       HT       0.417000       1.00800           0
     52297 TIP3     4301     TIP3     OH2      OT      -0.834000       15.9994           0
     52298 TIP3     4301     TIP3     H1       HT       0.417000       1.00800           0
     52299 TIP3     4301     TIP3     H2       HT       0.417000       1.00800           0
     52300 TIP3     4302     TIP3     OH2      OT      -0.834000       15.9994           0
     52301 TIP3     4302     TIP3     H1       HT       0.417000       1.00800           0
     52302 TIP3     4302     TIP3     H2       HT       0.417000       1.00800           0
     52303 TIP3     4303     TIP3     OH2      OT      -0.834000       15.9994           0
     52304 TIP3     4303     TIP3     H1       HT       0.417000       1.00800           0
     52305 TIP3     4303     TIP3     H2       HT       0.417000       1.00800           0
     52306 TIP3     4304     TIP3     OH2      OT      -0.834000       15.9994           0
     52307 TIP3     4304     TIP3     H1       HT       0.417000       1.00800           0
     52308 TIP3     4304     TIP3     H2       HT       0.417000       1.00800           0
     52309 TIP3     4305     TIP3     OH2      OT      -0.834000       15.9994           0
     52310 TIP3     4305     TIP3     H1       HT       0.417000       1.00800           0
     52311 TIP3     4305     TIP3     H2       HT       0.417000       1.00800           0
     52312 TIP3     4306     TIP3     OH2      OT      -0.834000       15.9994           0
     52313 TIP3     4306     TIP3     H1       HT       0.417000       1.00800           0
     52314 TIP3     4306     TIP3     H2       HT       0.417000       1.00800           0
     52315 TIP3     4307     TIP3     OH2      OT      -0.834000       15.9994           0
     52316 TIP3     4307     TIP3     H1       HT       0.417000       1.00800           0
     52317 TIP3     4307     TIP3     H2       HT       0.417000       1.00800           0
     52318 TIP3     4308     TIP3     OH2      OT      -0.834000       15.9994           0
     52319 TIP3     4308     TIP3     H1       HT       0.417000       1.00800           0
     52320 TIP3     4308     TIP3     H2       HT       0.417000       1.00800           0
     52321 TIP3     4309     TIP3     OH2      OT      -0.834000       15.9994           0
     52322 TIP3     4309     TIP3     H1       HT       0.417000       1.00800           0
     52323 TIP3     4309     TIP3     H2       HT       0.417000       1.00800           0
     52324 TIP3     4310     TIP3     OH2      OT      -0.834000       15.9994           0
     52325 TIP3     4310     TIP3     H1       HT       0.417000       1.00800           0
     52326 TIP3     4310     TIP3     H2       HT       0.417000       1.00800           0
     52327 TIP3     4311     TIP3     OH2      OT      -0.834000       15.9994           0
     52328 TIP3     4311     TIP3     H1       HT       0.417000       1.00800           0
     52329 TIP3     4311     TIP3     H2       HT       0.417000       1.00800           0
     52330 TIP3     4312     TIP3     OH2      OT      -0.834000       15.9994           0
     52331 TIP3     4312     TIP3     H1       HT       0.417000       1.00800           0
     52332 TIP3     4312     TIP3     H2       HT       0.417000       1.00800           0
     52333 TIP3     4313     TIP3     OH2      OT      -0.834000       15.9994           0
     52334 TIP3     4313     TIP3     H1       HT       0.417000       1.00800           0
     52335 TIP3     4313     TIP3     H2       HT       0.417000       1.00800           0
     52336 TIP3     4314     TIP3     OH2      OT      -0.834000       15.9994           0
     52337 TIP3     4314     TIP3     H1       HT       0.417000       1.00800           0
     52338 TIP3     4314     TIP3     H2       HT       0.417000       1.00800           0
     52339 TIP3     4315     TIP3     OH2      OT      -0.834000       15.9994           0
     52340 TIP3     4315     TIP3     H1       HT       0.417000       1.00800           0
     52341 TIP3     4315     TIP3     H2       HT       0.417000       1.00800           0
     52342 TIP3     4316     TIP3     OH2      OT      -0.834000       15.9994           0
     52343 TIP3     4316     TIP3     H1       HT       0.417000       1.00800           0
     52344 TIP3     4316     TIP3     H2       HT       0.417000       1.00800           0
     52345 TIP3     4317     TIP3     OH2      OT      -0.834000       15.9994           0
     52346 TIP3     4317     TIP3     H1       HT       0.417000       1.00800           0
     52347 TIP3     4317     TIP3     H2       HT       0.417000       1.00800           0
     52348 TIP3     4318     TIP3     OH2      OT      -0.834000       15.9994           0
     52349 TIP3     4318     TIP3     H1       HT       0.417000       1.00800           0
     52350 TIP3     4318     TIP3     H2       HT       0.417000       1.00800           0
     52351 TIP3     4319     TIP3     OH2      OT      -0.834000       15.9994           0
     52352 TIP3     4319     TIP3     H1       HT       0.417000       1.00800           0
     52353 TIP3     4319     TIP3     H2       HT       0.417000       1.00800           0
     52354 TIP3     4320     TIP3     OH2      OT      -0.834000       15.9994           0
     52355 TIP3     4320     TIP3     H1       HT       0.417000       1.00800           0
     52356 TIP3     4320     TIP3     H2       HT       0.417000       1.00800           0
     52357 TIP3     4321     TIP3     OH2      OT      -0.834000       15.9994           0
     52358 TIP3     4321     TIP3     H1       HT       0.417000       1.00800           0
     52359 TIP3     4321     TIP3     H2       HT       0.417000       1.00800           0
     52360 TIP3     4322     TIP3     OH2      OT      -0.834000       15.9994           0
     52361 TIP3     4322     TIP3     H1       HT       0.417000       1.00800           0
     52362 TIP3     4322     TIP3     H2       HT       0.417000       1.00800           0
     52363 TIP3     4323     TIP3     OH2      OT      -0.834000       15.9994           0
     52364 TIP3     4323     TIP3     H1       HT       0.417000       1.00800           0
     52365 TIP3     4323     TIP3     H2       HT       0.417000       1.00800           0
     52366 TIP3     4324     TIP3     OH2      OT      -0.834000       15.9994           0
     52367 TIP3     4324     TIP3     H1       HT       0.417000       1.00800           0
     52368 TIP3     4324     TIP3     H2       HT       0.417000       1.00800           0
     52369 TIP3     4325     TIP3     OH2      OT      -0.834000       15.9994           0
     52370 TIP3     4325     TIP3     H1       HT       0.417000       1.00800           0
     52371 TIP3     4325     TIP3     H2       HT       0.417000       1.00800           0
     52372 TIP3     4326     TIP3     OH2      OT      -0.834000       15.9994           0
     52373 TIP3     4326     TIP3     H1       HT       0.417000       1.00800           0
     52374 TIP3     4326     TIP3     H2       HT       0.417000       1.00800           0
     52375 TIP3     4327     TIP3     OH2      OT      -0.834000       15.9994           0
     52376 TIP3     4327     TIP3     H1       HT       0.417000       1.00800           0
     52377 TIP3     4327     TIP3     H2       HT       0.417000       1.00800           0
     52378 TIP3     4328     TIP3     OH2      OT      -0.834000       15.9994           0
     52379 TIP3     4328     TIP3     H1       HT       0.417000       1.00800           0
     52380 TIP3     4328     TIP3     H2       HT       0.417000       1.00800           0
     52381 TIP3     4329     TIP3     OH2      OT      -0.834000       15.9994           0
     52382 TIP3     4329     TIP3     H1       HT       0.417000       1.00800           0
     52383 TIP3     4329     TIP3     H2       HT       0.417000       1.00800           0
     52384 TIP3     4330     TIP3     OH2      OT      -0.834000       15.9994           0
     52385 TIP3     4330     TIP3     H1       HT       0.417000       1.00800           0
     52386 TIP3     4330     TIP3     H2       HT       0.417000       1.00800           0
     52387 TIP3     4331     TIP3     OH2      OT      -0.834000       15.9994           0
     52388 TIP3     4331     TIP3     H1       HT       0.417000       1.00800           0
     52389 TIP3     4331     TIP3     H2       HT       0.417000       1.00800           0
     52390 TIP3     4332     TIP3     OH2      OT      -0.834000       15.9994           0
     52391 TIP3     4332     TIP3     H1       HT       0.417000       1.00800           0
     52392 TIP3     4332     TIP3     H2       HT       0.417000       1.00800           0
     52393 TIP3     4333     TIP3     OH2      OT      -0.834000       15.9994           0
     52394 TIP3     4333     TIP3     H1       HT       0.417000       1.00800           0
     52395 TIP3     4333     TIP3     H2       HT       0.417000       1.00800           0
     52396 TIP3     4334     TIP3     OH2      OT      -0.834000       15.9994           0
     52397 TIP3     4334     TIP3     H1       HT       0.417000       1.00800           0
     52398 TIP3     4334     TIP3     H2       HT       0.417000       1.00800           0
     52399 TIP3     4335     TIP3     OH2      OT      -0.834000       15.9994           0
     52400 TIP3     4335     TIP3     H1       HT       0.417000       1.00800           0
     52401 TIP3     4335     TIP3     H2       HT       0.417000       1.00800           0
     52402 TIP3     4336     TIP3     OH2      OT      -0.834000       15.9994           0
     52403 TIP3     4336     TIP3     H1       HT       0.417000       1.00800           0
     52404 TIP3     4336     TIP3     H2       HT       0.417000       1.00800           0
     52405 TIP3     4337     TIP3     OH2      OT      -0.834000       15.9994           0
     52406 TIP3     4337     TIP3     H1       HT       0.417000       1.00800           0
     52407 TIP3     4337     TIP3     H2       HT       0.417000       1.00800           0
     52408 TIP3     4338     TIP3     OH2      OT      -0.834000       15.9994           0
     52409 TIP3     4338     TIP3     H1       HT       0.417000       1.00800           0
     52410 TIP3     4338     TIP3     H2       HT       0.417000       1.00800           0
     52411 TIP3     4339     TIP3     OH2      OT      -0.834000       15.9994           0
     52412 TIP3     4339     TIP3     H1       HT       0.417000       1.00800           0
     52413 TIP3     4339     TIP3     H2       HT       0.417000       1.00800           0
     52414 TIP3     4340     TIP3     OH2      OT      -0.834000       15.9994           0
     52415 TIP3     4340     TIP3     H1       HT       0.417000       1.00800           0
     52416 TIP3     4340     TIP3     H2       HT       0.417000       1.00800           0
     52417 TIP3     4341     TIP3     OH2      OT      -0.834000       15.9994           0
     52418 TIP3     4341     TIP3     H1       HT       0.417000       1.00800           0
     52419 TIP3     4341     TIP3     H2       HT       0.417000       1.00800           0
     52420 TIP3     4342     TIP3     OH2      OT      -0.834000       15.9994           0
     52421 TIP3     4342     TIP3     H1       HT       0.417000       1.00800           0
     52422 TIP3     4342     TIP3     H2       HT       0.417000       1.00800           0
     52423 TIP3     4343     TIP3     OH2      OT      -0.834000       15.9994           0
     52424 TIP3     4343     TIP3     H1       HT       0.417000       1.00800           0
     52425 TIP3     4343     TIP3     H2       HT       0.417000       1.00800           0
     52426 TIP3     4344     TIP3     OH2      OT      -0.834000       15.9994           0
     52427 TIP3     4344     TIP3     H1       HT       0.417000       1.00800           0
     52428 TIP3     4344     TIP3     H2       HT       0.417000       1.00800           0
     52429 TIP3     4345     TIP3     OH2      OT      -0.834000       15.9994           0
     52430 TIP3     4345     TIP3     H1       HT       0.417000       1.00800           0
     52431 TIP3     4345     TIP3     H2       HT       0.417000       1.00800           0
     52432 TIP3     4346     TIP3     OH2      OT      -0.834000       15.9994           0
     52433 TIP3     4346     TIP3     H1       HT       0.417000       1.00800           0
     52434 TIP3     4346     TIP3     H2       HT       0.417000       1.00800           0
     52435 TIP3     4347     TIP3     OH2      OT      -0.834000       15.9994           0
     52436 TIP3     4347     TIP3     H1       HT       0.417000       1.00800           0
     52437 TIP3     4347     TIP3     H2       HT       0.417000       1.00800           0
     52438 TIP3     4348     TIP3     OH2      OT      -0.834000       15.9994           0
     52439 TIP3     4348     TIP3     H1       HT       0.417000       1.00800           0
     52440 TIP3     4348     TIP3     H2       HT       0.417000       1.00800           0
     52441 TIP3     4349     TIP3     OH2      OT      -0.834000       15.9994           0
     52442 TIP3     4349     TIP3     H1       HT       0.417000       1.00800           0
     52443 TIP3     4349     TIP3     H2       HT       0.417000       1.00800           0
     52444 TIP3     4350     TIP3     OH2      OT      -0.834000       15.9994           0
     52445 TIP3     4350     TIP3     H1       HT       0.417000       1.00800           0
     52446 TIP3     4350     TIP3     H2       HT       0.417000       1.00800           0
     52447 TIP3     4351     TIP3     OH2      OT      -0.834000       15.9994           0
     52448 TIP3     4351     TIP3     H1       HT       0.417000       1.00800           0
     52449 TIP3     4351     TIP3     H2       HT       0.417000       1.00800           0
     52450 TIP3     4352     TIP3     OH2      OT      -0.834000       15.9994           0
     52451 TIP3     4352     TIP3     H1       HT       0.417000       1.00800           0
     52452 TIP3     4352     TIP3     H2       HT       0.417000       1.00800           0
     52453 TIP3     4353     TIP3     OH2      OT      -0.834000       15.9994           0
     52454 TIP3     4353     TIP3     H1       HT       0.417000       1.00800           0
     52455 TIP3     4353     TIP3     H2       HT       0.417000       1.00800           0
     52456 TIP3     4354     TIP3     OH2      OT      -0.834000       15.9994           0
     52457 TIP3     4354     TIP3     H1       HT       0.417000       1.00800           0
     52458 TIP3     4354     TIP3     H2       HT       0.417000       1.00800           0
     52459 TIP3     4355     TIP3     OH2      OT      -0.834000       15.9994           0
     52460 TIP3     4355     TIP3     H1       HT       0.417000       1.00800           0
     52461 TIP3     4355     TIP3     H2       HT       0.417000       1.00800           0
     52462 TIP3     4356     TIP3     OH2      OT      -0.834000       15.9994           0
     52463 TIP3     4356     TIP3     H1       HT       0.417000       1.00800           0
     52464 TIP3     4356     TIP3     H2       HT       0.417000       1.00800           0
     52465 TIP3     4357     TIP3     OH2      OT      -0.834000       15.9994           0
     52466 TIP3     4357     TIP3     H1       HT       0.417000       1.00800           0
     52467 TIP3     4357     TIP3     H2       HT       0.417000       1.00800           0
     52468 TIP3     4358     TIP3     OH2      OT      -0.834000       15.9994           0
     52469 TIP3     4358     TIP3     H1       HT       0.417000       1.00800           0
     52470 TIP3     4358     TIP3     H2       HT       0.417000       1.00800           0
     52471 TIP3     4359     TIP3     OH2      OT      -0.834000       15.9994           0
     52472 TIP3     4359     TIP3     H1       HT       0.417000       1.00800           0
     52473 TIP3     4359     TIP3     H2       HT       0.417000       1.00800           0
     52474 TIP3     4360     TIP3     OH2      OT      -0.834000       15.9994           0
     52475 TIP3     4360     TIP3     H1       HT       0.417000       1.00800           0
     52476 TIP3     4360     TIP3     H2       HT       0.417000       1.00800           0
     52477 TIP3     4361     TIP3     OH2      OT      -0.834000       15.9994           0
     52478 TIP3     4361     TIP3     H1       HT       0.417000       1.00800           0
     52479 TIP3     4361     TIP3     H2       HT       0.417000       1.00800           0
     52480 TIP3     4362     TIP3     OH2      OT      -0.834000       15.9994           0
     52481 TIP3     4362     TIP3     H1       HT       0.417000       1.00800           0
     52482 TIP3     4362     TIP3     H2       HT       0.417000       1.00800           0
     52483 TIP3     4363     TIP3     OH2      OT      -0.834000       15.9994           0
     52484 TIP3     4363     TIP3     H1       HT       0.417000       1.00800           0
     52485 TIP3     4363     TIP3     H2       HT       0.417000       1.00800           0
     52486 TIP3     4364     TIP3     OH2      OT      -0.834000       15.9994           0
     52487 TIP3     4364     TIP3     H1       HT       0.417000       1.00800           0
     52488 TIP3     4364     TIP3     H2       HT       0.417000       1.00800           0
     52489 TIP3     4365     TIP3     OH2      OT      -0.834000       15.9994           0
     52490 TIP3     4365     TIP3     H1       HT       0.417000       1.00800           0
     52491 TIP3     4365     TIP3     H2       HT       0.417000       1.00800           0
     52492 TIP3     4366     TIP3     OH2      OT      -0.834000       15.9994           0
     52493 TIP3     4366     TIP3     H1       HT       0.417000       1.00800           0
     52494 TIP3     4366     TIP3     H2       HT       0.417000       1.00800           0
     52495 TIP3     4367     TIP3     OH2      OT      -0.834000       15.9994           0
     52496 TIP3     4367     TIP3     H1       HT       0.417000       1.00800           0
     52497 TIP3     4367     TIP3     H2       HT       0.417000       1.00800           0
     52498 TIP3     4368     TIP3     OH2      OT      -0.834000       15.9994           0
     52499 TIP3     4368     TIP3     H1       HT       0.417000       1.00800           0
     52500 TIP3     4368     TIP3     H2       HT       0.417000       1.00800           0
     52501 TIP3     4369     TIP3     OH2      OT      -0.834000       15.9994           0
     52502 TIP3     4369     TIP3     H1       HT       0.417000       1.00800           0
     52503 TIP3     4369     TIP3     H2       HT       0.417000       1.00800           0
     52504 TIP3     4370     TIP3     OH2      OT      -0.834000       15.9994           0
     52505 TIP3     4370     TIP3     H1       HT       0.417000       1.00800           0
     52506 TIP3     4370     TIP3     H2       HT       0.417000       1.00800           0
     52507 TIP3     4371     TIP3     OH2      OT      -0.834000       15.9994           0
     52508 TIP3     4371     TIP3     H1       HT       0.417000       1.00800           0
     52509 TIP3     4371     TIP3     H2       HT       0.417000       1.00800           0
     52510 TIP3     4372     TIP3     OH2      OT      -0.834000       15.9994           0
     52511 TIP3     4372     TIP3     H1       HT       0.417000       1.00800           0
     52512 TIP3     4372     TIP3     H2       HT       0.417000       1.00800           0
     52513 TIP3     4373     TIP3     OH2      OT      -0.834000       15.9994           0
     52514 TIP3     4373     TIP3     H1       HT       0.417000       1.00800           0
     52515 TIP3     4373     TIP3     H2       HT       0.417000       1.00800           0
     52516 TIP3     4374     TIP3     OH2      OT      -0.834000       15.9994           0
     52517 TIP3     4374     TIP3     H1       HT       0.417000       1.00800           0
     52518 TIP3     4374     TIP3     H2       HT       0.417000       1.00800           0
     52519 TIP3     4375     TIP3     OH2      OT      -0.834000       15.9994           0
     52520 TIP3     4375     TIP3     H1       HT       0.417000       1.00800           0
     52521 TIP3     4375     TIP3     H2       HT       0.417000       1.00800           0
     52522 TIP3     4376     TIP3     OH2      OT      -0.834000       15.9994           0
     52523 TIP3     4376     TIP3     H1       HT       0.417000       1.00800           0
     52524 TIP3     4376     TIP3     H2       HT       0.417000       1.00800           0
     52525 TIP3     4377     TIP3     OH2      OT      -0.834000       15.9994           0
     52526 TIP3     4377     TIP3     H1       HT       0.417000       1.00800           0
     52527 TIP3     4377     TIP3     H2       HT       0.417000       1.00800           0
     52528 TIP3     4378     TIP3     OH2      OT      -0.834000       15.9994           0
     52529 TIP3     4378     TIP3     H1       HT       0.417000       1.00800           0
     52530 TIP3     4378     TIP3     H2       HT       0.417000       1.00800           0
     52531 TIP3     4379     TIP3     OH2      OT      -0.834000       15.9994           0
     52532 TIP3     4379     TIP3     H1       HT       0.417000       1.00800           0
     52533 TIP3     4379     TIP3     H2       HT       0.417000       1.00800           0
     52534 TIP3     4380     TIP3     OH2      OT      -0.834000       15.9994           0
     52535 TIP3     4380     TIP3     H1       HT       0.417000       1.00800           0
     52536 TIP3     4380     TIP3     H2       HT       0.417000       1.00800           0
     52537 TIP3     4381     TIP3     OH2      OT      -0.834000       15.9994           0
     52538 TIP3     4381     TIP3     H1       HT       0.417000       1.00800           0
     52539 TIP3     4381     TIP3     H2       HT       0.417000       1.00800           0
     52540 TIP3     4382     TIP3     OH2      OT      -0.834000       15.9994           0
     52541 TIP3     4382     TIP3     H1       HT       0.417000       1.00800           0
     52542 TIP3     4382     TIP3     H2       HT       0.417000       1.00800           0
     52543 TIP3     4383     TIP3     OH2      OT      -0.834000       15.9994           0
     52544 TIP3     4383     TIP3     H1       HT       0.417000       1.00800           0
     52545 TIP3     4383     TIP3     H2       HT       0.417000       1.00800           0
     52546 TIP3     4384     TIP3     OH2      OT      -0.834000       15.9994           0
     52547 TIP3     4384     TIP3     H1       HT       0.417000       1.00800           0
     52548 TIP3     4384     TIP3     H2       HT       0.417000       1.00800           0
     52549 TIP3     4385     TIP3     OH2      OT      -0.834000       15.9994           0
     52550 TIP3     4385     TIP3     H1       HT       0.417000       1.00800           0
     52551 TIP3     4385     TIP3     H2       HT       0.417000       1.00800           0
     52552 TIP3     4386     TIP3     OH2      OT      -0.834000       15.9994           0
     52553 TIP3     4386     TIP3     H1       HT       0.417000       1.00800           0
     52554 TIP3     4386     TIP3     H2       HT       0.417000       1.00800           0
     52555 TIP3     4387     TIP3     OH2      OT      -0.834000       15.9994           0
     52556 TIP3     4387     TIP3     H1       HT       0.417000       1.00800           0
     52557 TIP3     4387     TIP3     H2       HT       0.417000       1.00800           0
     52558 TIP3     4388     TIP3     OH2      OT      -0.834000       15.9994           0
     52559 TIP3     4388     TIP3     H1       HT       0.417000       1.00800           0
     52560 TIP3     4388     TIP3     H2       HT       0.417000       1.00800           0
     52561 TIP3     4389     TIP3     OH2      OT      -0.834000       15.9994           0
     52562 TIP3     4389     TIP3     H1       HT       0.417000       1.00800           0
     52563 TIP3     4389     TIP3     H2       HT       0.417000       1.00800           0
     52564 TIP3     4390     TIP3     OH2      OT      -0.834000       15.9994           0
     52565 TIP3     4390     TIP3     H1       HT       0.417000       1.00800           0
     52566 TIP3     4390     TIP3     H2       HT       0.417000       1.00800           0
     52567 TIP3     4391     TIP3     OH2      OT      -0.834000       15.9994           0
     52568 TIP3     4391     TIP3     H1       HT       0.417000       1.00800           0
     52569 TIP3     4391     TIP3     H2       HT       0.417000       1.00800           0
     52570 TIP3     4392     TIP3     OH2      OT      -0.834000       15.9994           0
     52571 TIP3     4392     TIP3     H1       HT       0.417000       1.00800           0
     52572 TIP3     4392     TIP3     H2       HT       0.417000       1.00800           0
     52573 TIP3     4393     TIP3     OH2      OT      -0.834000       15.9994           0
     52574 TIP3     4393     TIP3     H1       HT       0.417000       1.00800           0
     52575 TIP3     4393     TIP3     H2       HT       0.417000       1.00800           0
     52576 TIP3     4394     TIP3     OH2      OT      -0.834000       15.9994           0
     52577 TIP3     4394     TIP3     H1       HT       0.417000       1.00800           0
     52578 TIP3     4394     TIP3     H2       HT       0.417000       1.00800           0
     52579 TIP3     4395     TIP3     OH2      OT      -0.834000       15.9994           0
     52580 TIP3     4395     TIP3     H1       HT       0.417000       1.00800           0
     52581 TIP3     4395     TIP3     H2       HT       0.417000       1.00800           0
     52582 TIP3     4396     TIP3     OH2      OT      -0.834000       15.9994           0
     52583 TIP3     4396     TIP3     H1       HT       0.417000       1.00800           0
     52584 TIP3     4396     TIP3     H2       HT       0.417000       1.00800           0
     52585 TIP3     4397     TIP3     OH2      OT      -0.834000       15.9994           0
     52586 TIP3     4397     TIP3     H1       HT       0.417000       1.00800           0
     52587 TIP3     4397     TIP3     H2       HT       0.417000       1.00800           0
     52588 TIP3     4398     TIP3     OH2      OT      -0.834000       15.9994           0
     52589 TIP3     4398     TIP3     H1       HT       0.417000       1.00800           0
     52590 TIP3     4398     TIP3     H2       HT       0.417000       1.00800           0
     52591 TIP3     4399     TIP3     OH2      OT      -0.834000       15.9994           0
     52592 TIP3     4399     TIP3     H1       HT       0.417000       1.00800           0
     52593 TIP3     4399     TIP3     H2       HT       0.417000       1.00800           0
     52594 TIP3     4400     TIP3     OH2      OT      -0.834000       15.9994           0
     52595 TIP3     4400     TIP3     H1       HT       0.417000       1.00800           0
     52596 TIP3     4400     TIP3     H2       HT       0.417000       1.00800           0
     52597 TIP3     4401     TIP3     OH2      OT      -0.834000       15.9994           0
     52598 TIP3     4401     TIP3     H1       HT       0.417000       1.00800           0
     52599 TIP3     4401     TIP3     H2       HT       0.417000       1.00800           0
     52600 TIP3     4402     TIP3     OH2      OT      -0.834000       15.9994           0
     52601 TIP3     4402     TIP3     H1       HT       0.417000       1.00800           0
     52602 TIP3     4402     TIP3     H2       HT       0.417000       1.00800           0
     52603 TIP3     4403     TIP3     OH2      OT      -0.834000       15.9994           0
     52604 TIP3     4403     TIP3     H1       HT       0.417000       1.00800           0
     52605 TIP3     4403     TIP3     H2       HT       0.417000       1.00800           0
     52606 TIP3     4404     TIP3     OH2      OT      -0.834000       15.9994           0
     52607 TIP3     4404     TIP3     H1       HT       0.417000       1.00800           0
     52608 TIP3     4404     TIP3     H2       HT       0.417000       1.00800           0
     52609 TIP3     4405     TIP3     OH2      OT      -0.834000       15.9994           0
     52610 TIP3     4405     TIP3     H1       HT       0.417000       1.00800           0
     52611 TIP3     4405     TIP3     H2       HT       0.417000       1.00800           0
     52612 TIP3     4406     TIP3     OH2      OT      -0.834000       15.9994           0
     52613 TIP3     4406     TIP3     H1       HT       0.417000       1.00800           0
     52614 TIP3     4406     TIP3     H2       HT       0.417000       1.00800           0
     52615 TIP3     4407     TIP3     OH2      OT      -0.834000       15.9994           0
     52616 TIP3     4407     TIP3     H1       HT       0.417000       1.00800           0
     52617 TIP3     4407     TIP3     H2       HT       0.417000       1.00800           0
     52618 TIP3     4408     TIP3     OH2      OT      -0.834000       15.9994           0
     52619 TIP3     4408     TIP3     H1       HT       0.417000       1.00800           0
     52620 TIP3     4408     TIP3     H2       HT       0.417000       1.00800           0
     52621 TIP3     4409     TIP3     OH2      OT      -0.834000       15.9994           0
     52622 TIP3     4409     TIP3     H1       HT       0.417000       1.00800           0
     52623 TIP3     4409     TIP3     H2       HT       0.417000       1.00800           0
     52624 TIP3     4410     TIP3     OH2      OT      -0.834000       15.9994           0
     52625 TIP3     4410     TIP3     H1       HT       0.417000       1.00800           0
     52626 TIP3     4410     TIP3     H2       HT       0.417000       1.00800           0
     52627 TIP3     4411     TIP3     OH2      OT      -0.834000       15.9994           0
     52628 TIP3     4411     TIP3     H1       HT       0.417000       1.00800           0
     52629 TIP3     4411     TIP3     H2       HT       0.417000       1.00800           0
     52630 TIP3     4412     TIP3     OH2      OT      -0.834000       15.9994           0
     52631 TIP3     4412     TIP3     H1       HT       0.417000       1.00800           0
     52632 TIP3     4412     TIP3     H2       HT       0.417000       1.00800           0
     52633 TIP3     4413     TIP3     OH2      OT      -0.834000       15.9994           0
     52634 TIP3     4413     TIP3     H1       HT       0.417000       1.00800           0
     52635 TIP3     4413     TIP3     H2       HT       0.417000       1.00800           0
     52636 TIP3     4414     TIP3     OH2      OT      -0.834000       15.9994           0
     52637 TIP3     4414     TIP3     H1       HT       0.417000       1.00800           0
     52638 TIP3     4414     TIP3     H2       HT       0.417000       1.00800           0
     52639 TIP3     4415     TIP3     OH2      OT      -0.834000       15.9994           0
     52640 TIP3     4415     TIP3     H1       HT       0.417000       1.00800           0
     52641 TIP3     4415     TIP3     H2       HT       0.417000       1.00800           0
     52642 TIP3     4416     TIP3     OH2      OT      -0.834000       15.9994           0
     52643 TIP3     4416     TIP3     H1       HT       0.417000       1.00800           0
     52644 TIP3     4416     TIP3     H2       HT       0.417000       1.00800           0
     52645 TIP3     4417     TIP3     OH2      OT      -0.834000       15.9994           0
     52646 TIP3     4417     TIP3     H1       HT       0.417000       1.00800           0
     52647 TIP3     4417     TIP3     H2       HT       0.417000       1.00800           0
     52648 TIP3     4418     TIP3     OH2      OT      -0.834000       15.9994           0
     52649 TIP3     4418     TIP3     H1       HT       0.417000       1.00800           0
     52650 TIP3     4418     TIP3     H2       HT       0.417000       1.00800           0
     52651 TIP3     4419     TIP3     OH2      OT      -0.834000       15.9994           0
     52652 TIP3     4419     TIP3     H1       HT       0.417000       1.00800           0
     52653 TIP3     4419     TIP3     H2       HT       0.417000       1.00800           0
     52654 TIP3     4420     TIP3     OH2      OT      -0.834000       15.9994           0
     52655 TIP3     4420     TIP3     H1       HT       0.417000       1.00800           0
     52656 TIP3     4420     TIP3     H2       HT       0.417000       1.00800           0
     52657 TIP3     4421     TIP3     OH2      OT      -0.834000       15.9994           0
     52658 TIP3     4421     TIP3     H1       HT       0.417000       1.00800           0
     52659 TIP3     4421     TIP3     H2       HT       0.417000       1.00800           0
     52660 TIP3     4422     TIP3     OH2      OT      -0.834000       15.9994           0
     52661 TIP3     4422     TIP3     H1       HT       0.417000       1.00800           0
     52662 TIP3     4422     TIP3     H2       HT       0.417000       1.00800           0
     52663 TIP3     4423     TIP3     OH2      OT      -0.834000       15.9994           0
     52664 TIP3     4423     TIP3     H1       HT       0.417000       1.00800           0
     52665 TIP3     4423     TIP3     H2       HT       0.417000       1.00800           0
     52666 TIP3     4424     TIP3     OH2      OT      -0.834000       15.9994           0
     52667 TIP3     4424     TIP3     H1       HT       0.417000       1.00800           0
     52668 TIP3     4424     TIP3     H2       HT       0.417000       1.00800           0
     52669 TIP3     4425     TIP3     OH2      OT      -0.834000       15.9994           0
     52670 TIP3     4425     TIP3     H1       HT       0.417000       1.00800           0
     52671 TIP3     4425     TIP3     H2       HT       0.417000       1.00800           0
     52672 TIP3     4426     TIP3     OH2      OT      -0.834000       15.9994           0
     52673 TIP3     4426     TIP3     H1       HT       0.417000       1.00800           0
     52674 TIP3     4426     TIP3     H2       HT       0.417000       1.00800           0
     52675 TIP3     4427     TIP3     OH2      OT      -0.834000       15.9994           0
     52676 TIP3     4427     TIP3     H1       HT       0.417000       1.00800           0
     52677 TIP3     4427     TIP3     H2       HT       0.417000       1.00800           0
     52678 TIP3     4428     TIP3     OH2      OT      -0.834000       15.9994           0
     52679 TIP3     4428     TIP3     H1       HT       0.417000       1.00800           0
     52680 TIP3     4428     TIP3     H2       HT       0.417000       1.00800           0
     52681 TIP3     4429     TIP3     OH2      OT      -0.834000       15.9994           0
     52682 TIP3     4429     TIP3     H1       HT       0.417000       1.00800           0
     52683 TIP3     4429     TIP3     H2       HT       0.417000       1.00800           0
     52684 TIP3     4430     TIP3     OH2      OT      -0.834000       15.9994           0
     52685 TIP3     4430     TIP3     H1       HT       0.417000       1.00800           0
     52686 TIP3     4430     TIP3     H2       HT       0.417000       1.00800           0
     52687 TIP3     4431     TIP3     OH2      OT      -0.834000       15.9994           0
     52688 TIP3     4431     TIP3     H1       HT       0.417000       1.00800           0
     52689 TIP3     4431     TIP3     H2       HT       0.417000       1.00800           0
     52690 TIP3     4432     TIP3     OH2      OT      -0.834000       15.9994           0
     52691 TIP3     4432     TIP3     H1       HT       0.417000       1.00800           0
     52692 TIP3     4432     TIP3     H2       HT       0.417000       1.00800           0
     52693 TIP3     4433     TIP3     OH2      OT      -0.834000       15.9994           0
     52694 TIP3     4433     TIP3     H1       HT       0.417000       1.00800           0
     52695 TIP3     4433     TIP3     H2       HT       0.417000       1.00800           0
     52696 TIP3     4434     TIP3     OH2      OT      -0.834000       15.9994           0
     52697 TIP3     4434     TIP3     H1       HT       0.417000       1.00800           0
     52698 TIP3     4434     TIP3     H2       HT       0.417000       1.00800           0
     52699 TIP3     4435     TIP3     OH2      OT      -0.834000       15.9994           0
     52700 TIP3     4435     TIP3     H1       HT       0.417000       1.00800           0
     52701 TIP3     4435     TIP3     H2       HT       0.417000       1.00800           0
     52702 TIP3     4436     TIP3     OH2      OT      -0.834000       15.9994           0
     52703 TIP3     4436     TIP3     H1       HT       0.417000       1.00800           0
     52704 TIP3     4436     TIP3     H2       HT       0.417000       1.00800           0
     52705 TIP3     4437     TIP3     OH2      OT      -0.834000       15.9994           0
     52706 TIP3     4437     TIP3     H1       HT       0.417000       1.00800           0
     52707 TIP3     4437     TIP3     H2       HT       0.417000       1.00800           0
     52708 TIP3     4438     TIP3     OH2      OT      -0.834000       15.9994           0
     52709 TIP3     4438     TIP3     H1       HT       0.417000       1.00800           0
     52710 TIP3     4438     TIP3     H2       HT       0.417000       1.00800           0
     52711 TIP3     4439     TIP3     OH2      OT      -0.834000       15.9994           0
     52712 TIP3     4439     TIP3     H1       HT       0.417000       1.00800           0
     52713 TIP3     4439     TIP3     H2       HT       0.417000       1.00800           0
     52714 TIP3     4440     TIP3     OH2      OT      -0.834000       15.9994           0
     52715 TIP3     4440     TIP3     H1       HT       0.417000       1.00800           0
     52716 TIP3     4440     TIP3     H2       HT       0.417000       1.00800           0
     52717 TIP3     4441     TIP3     OH2      OT      -0.834000       15.9994           0
     52718 TIP3     4441     TIP3     H1       HT       0.417000       1.00800           0
     52719 TIP3     4441     TIP3     H2       HT       0.417000       1.00800           0
     52720 TIP3     4442     TIP3     OH2      OT      -0.834000       15.9994           0
     52721 TIP3     4442     TIP3     H1       HT       0.417000       1.00800           0
     52722 TIP3     4442     TIP3     H2       HT       0.417000       1.00800           0
     52723 TIP3     4443     TIP3     OH2      OT      -0.834000       15.9994           0
     52724 TIP3     4443     TIP3     H1       HT       0.417000       1.00800           0
     52725 TIP3     4443     TIP3     H2       HT       0.417000       1.00800           0
     52726 TIP3     4444     TIP3     OH2      OT      -0.834000       15.9994           0
     52727 TIP3     4444     TIP3     H1       HT       0.417000       1.00800           0
     52728 TIP3     4444     TIP3     H2       HT       0.417000       1.00800           0
     52729 TIP3     4445     TIP3     OH2      OT      -0.834000       15.9994           0
     52730 TIP3     4445     TIP3     H1       HT       0.417000       1.00800           0
     52731 TIP3     4445     TIP3     H2       HT       0.417000       1.00800           0
     52732 TIP3     4446     TIP3     OH2      OT      -0.834000       15.9994           0
     52733 TIP3     4446     TIP3     H1       HT       0.417000       1.00800           0
     52734 TIP3     4446     TIP3     H2       HT       0.417000       1.00800           0
     52735 TIP3     4447     TIP3     OH2      OT      -0.834000       15.9994           0
     52736 TIP3     4447     TIP3     H1       HT       0.417000       1.00800           0
     52737 TIP3     4447     TIP3     H2       HT       0.417000       1.00800           0
     52738 TIP3     4448     TIP3     OH2      OT      -0.834000       15.9994           0
     52739 TIP3     4448     TIP3     H1       HT       0.417000       1.00800           0
     52740 TIP3     4448     TIP3     H2       HT       0.417000       1.00800           0
     52741 TIP3     4449     TIP3     OH2      OT      -0.834000       15.9994           0
     52742 TIP3     4449     TIP3     H1       HT       0.417000       1.00800           0
     52743 TIP3     4449     TIP3     H2       HT       0.417000       1.00800           0
     52744 TIP3     4450     TIP3     OH2      OT      -0.834000       15.9994           0
     52745 TIP3     4450     TIP3     H1       HT       0.417000       1.00800           0
     52746 TIP3     4450     TIP3     H2       HT       0.417000       1.00800           0
     52747 TIP3     4451     TIP3     OH2      OT      -0.834000       15.9994           0
     52748 TIP3     4451     TIP3     H1       HT       0.417000       1.00800           0
     52749 TIP3     4451     TIP3     H2       HT       0.417000       1.00800           0
     52750 TIP3     4452     TIP3     OH2      OT      -0.834000       15.9994           0
     52751 TIP3     4452     TIP3     H1       HT       0.417000       1.00800           0
     52752 TIP3     4452     TIP3     H2       HT       0.417000       1.00800           0
     52753 TIP3     4453     TIP3     OH2      OT      -0.834000       15.9994           0
     52754 TIP3     4453     TIP3     H1       HT       0.417000       1.00800           0
     52755 TIP3     4453     TIP3     H2       HT       0.417000       1.00800           0
     52756 TIP3     4454     TIP3     OH2      OT      -0.834000       15.9994           0
     52757 TIP3     4454     TIP3     H1       HT       0.417000       1.00800           0
     52758 TIP3     4454     TIP3     H2       HT       0.417000       1.00800           0
     52759 TIP3     4455     TIP3     OH2      OT      -0.834000       15.9994           0
     52760 TIP3     4455     TIP3     H1       HT       0.417000       1.00800           0
     52761 TIP3     4455     TIP3     H2       HT       0.417000       1.00800           0
     52762 TIP3     4456     TIP3     OH2      OT      -0.834000       15.9994           0
     52763 TIP3     4456     TIP3     H1       HT       0.417000       1.00800           0
     52764 TIP3     4456     TIP3     H2       HT       0.417000       1.00800           0
     52765 TIP3     4457     TIP3     OH2      OT      -0.834000       15.9994           0
     52766 TIP3     4457     TIP3     H1       HT       0.417000       1.00800           0
     52767 TIP3     4457     TIP3     H2       HT       0.417000       1.00800           0
     52768 TIP3     4458     TIP3     OH2      OT      -0.834000       15.9994           0
     52769 TIP3     4458     TIP3     H1       HT       0.417000       1.00800           0
     52770 TIP3     4458     TIP3     H2       HT       0.417000       1.00800           0
     52771 TIP3     4459     TIP3     OH2      OT      -0.834000       15.9994           0
     52772 TIP3     4459     TIP3     H1       HT       0.417000       1.00800           0
     52773 TIP3     4459     TIP3     H2       HT       0.417000       1.00800           0
     52774 TIP3     4460     TIP3     OH2      OT      -0.834000       15.9994           0
     52775 TIP3     4460     TIP3     H1       HT       0.417000       1.00800           0
     52776 TIP3     4460     TIP3     H2       HT       0.417000       1.00800           0
     52777 TIP3     4461     TIP3     OH2      OT      -0.834000       15.9994           0
     52778 TIP3     4461     TIP3     H1       HT       0.417000       1.00800           0
     52779 TIP3     4461     TIP3     H2       HT       0.417000       1.00800           0
     52780 TIP3     4462     TIP3     OH2      OT      -0.834000       15.9994           0
     52781 TIP3     4462     TIP3     H1       HT       0.417000       1.00800           0
     52782 TIP3     4462     TIP3     H2       HT       0.417000       1.00800           0
     52783 TIP3     4463     TIP3     OH2      OT      -0.834000       15.9994           0
     52784 TIP3     4463     TIP3     H1       HT       0.417000       1.00800           0
     52785 TIP3     4463     TIP3     H2       HT       0.417000       1.00800           0
     52786 TIP3     4464     TIP3     OH2      OT      -0.834000       15.9994           0
     52787 TIP3     4464     TIP3     H1       HT       0.417000       1.00800           0
     52788 TIP3     4464     TIP3     H2       HT       0.417000       1.00800           0
     52789 TIP3     4465     TIP3     OH2      OT      -0.834000       15.9994           0
     52790 TIP3     4465     TIP3     H1       HT       0.417000       1.00800           0
     52791 TIP3     4465     TIP3     H2       HT       0.417000       1.00800           0
     52792 TIP3     4466     TIP3     OH2      OT      -0.834000       15.9994           0
     52793 TIP3     4466     TIP3     H1       HT       0.417000       1.00800           0
     52794 TIP3     4466     TIP3     H2       HT       0.417000       1.00800           0
     52795 TIP3     4467     TIP3     OH2      OT      -0.834000       15.9994           0
     52796 TIP3     4467     TIP3     H1       HT       0.417000       1.00800           0
     52797 TIP3     4467     TIP3     H2       HT       0.417000       1.00800           0
     52798 TIP3     4468     TIP3     OH2      OT      -0.834000       15.9994           0
     52799 TIP3     4468     TIP3     H1       HT       0.417000       1.00800           0
     52800 TIP3     4468     TIP3     H2       HT       0.417000       1.00800           0
     52801 TIP3     4469     TIP3     OH2      OT      -0.834000       15.9994           0
     52802 TIP3     4469     TIP3     H1       HT       0.417000       1.00800           0
     52803 TIP3     4469     TIP3     H2       HT       0.417000       1.00800           0
     52804 TIP3     4470     TIP3     OH2      OT      -0.834000       15.9994           0
     52805 TIP3     4470     TIP3     H1       HT       0.417000       1.00800           0
     52806 TIP3     4470     TIP3     H2       HT       0.417000       1.00800           0
     52807 TIP3     4471     TIP3     OH2      OT      -0.834000       15.9994           0
     52808 TIP3     4471     TIP3     H1       HT       0.417000       1.00800           0
     52809 TIP3     4471     TIP3     H2       HT       0.417000       1.00800           0
     52810 TIP3     4472     TIP3     OH2      OT      -0.834000       15.9994           0
     52811 TIP3     4472     TIP3     H1       HT       0.417000       1.00800           0
     52812 TIP3     4472     TIP3     H2       HT       0.417000       1.00800           0
     52813 TIP3     4473     TIP3     OH2      OT      -0.834000       15.9994           0
     52814 TIP3     4473     TIP3     H1       HT       0.417000       1.00800           0
     52815 TIP3     4473     TIP3     H2       HT       0.417000       1.00800           0
     52816 TIP3     4474     TIP3     OH2      OT      -0.834000       15.9994           0
     52817 TIP3     4474     TIP3     H1       HT       0.417000       1.00800           0
     52818 TIP3     4474     TIP3     H2       HT       0.417000       1.00800           0
     52819 TIP3     4475     TIP3     OH2      OT      -0.834000       15.9994           0
     52820 TIP3     4475     TIP3     H1       HT       0.417000       1.00800           0
     52821 TIP3     4475     TIP3     H2       HT       0.417000       1.00800           0
     52822 TIP3     4476     TIP3     OH2      OT      -0.834000       15.9994           0
     52823 TIP3     4476     TIP3     H1       HT       0.417000       1.00800           0
     52824 TIP3     4476     TIP3     H2       HT       0.417000       1.00800           0
     52825 TIP3     4477     TIP3     OH2      OT      -0.834000       15.9994           0
     52826 TIP3     4477     TIP3     H1       HT       0.417000       1.00800           0
     52827 TIP3     4477     TIP3     H2       HT       0.417000       1.00800           0
     52828 TIP3     4478     TIP3     OH2      OT      -0.834000       15.9994           0
     52829 TIP3     4478     TIP3     H1       HT       0.417000       1.00800           0
     52830 TIP3     4478     TIP3     H2       HT       0.417000       1.00800           0
     52831 TIP3     4479     TIP3     OH2      OT      -0.834000       15.9994           0
     52832 TIP3     4479     TIP3     H1       HT       0.417000       1.00800           0
     52833 TIP3     4479     TIP3     H2       HT       0.417000       1.00800           0
     52834 TIP3     4480     TIP3     OH2      OT      -0.834000       15.9994           0
     52835 TIP3     4480     TIP3     H1       HT       0.417000       1.00800           0
     52836 TIP3     4480     TIP3     H2       HT       0.417000       1.00800           0
     52837 TIP3     4481     TIP3     OH2      OT      -0.834000       15.9994           0
     52838 TIP3     4481     TIP3     H1       HT       0.417000       1.00800           0
     52839 TIP3     4481     TIP3     H2       HT       0.417000       1.00800           0
     52840 TIP3     4482     TIP3     OH2      OT      -0.834000       15.9994           0
     52841 TIP3     4482     TIP3     H1       HT       0.417000       1.00800           0
     52842 TIP3     4482     TIP3     H2       HT       0.417000       1.00800           0
     52843 TIP3     4483     TIP3     OH2      OT      -0.834000       15.9994           0
     52844 TIP3     4483     TIP3     H1       HT       0.417000       1.00800           0
     52845 TIP3     4483     TIP3     H2       HT       0.417000       1.00800           0
     52846 TIP3     4484     TIP3     OH2      OT      -0.834000       15.9994           0
     52847 TIP3     4484     TIP3     H1       HT       0.417000       1.00800           0
     52848 TIP3     4484     TIP3     H2       HT       0.417000       1.00800           0
     52849 TIP3     4485     TIP3     OH2      OT      -0.834000       15.9994           0
     52850 TIP3     4485     TIP3     H1       HT       0.417000       1.00800           0
     52851 TIP3     4485     TIP3     H2       HT       0.417000       1.00800           0
     52852 TIP3     4486     TIP3     OH2      OT      -0.834000       15.9994           0
     52853 TIP3     4486     TIP3     H1       HT       0.417000       1.00800           0
     52854 TIP3     4486     TIP3     H2       HT       0.417000       1.00800           0
     52855 TIP3     4487     TIP3     OH2      OT      -0.834000       15.9994           0
     52856 TIP3     4487     TIP3     H1       HT       0.417000       1.00800           0
     52857 TIP3     4487     TIP3     H2       HT       0.417000       1.00800           0
     52858 TIP3     4488     TIP3     OH2      OT      -0.834000       15.9994           0
     52859 TIP3     4488     TIP3     H1       HT       0.417000       1.00800           0
     52860 TIP3     4488     TIP3     H2       HT       0.417000       1.00800           0
     52861 TIP3     4489     TIP3     OH2      OT      -0.834000       15.9994           0
     52862 TIP3     4489     TIP3     H1       HT       0.417000       1.00800           0
     52863 TIP3     4489     TIP3     H2       HT       0.417000       1.00800           0
     52864 TIP3     4490     TIP3     OH2      OT      -0.834000       15.9994           0
     52865 TIP3     4490     TIP3     H1       HT       0.417000       1.00800           0
     52866 TIP3     4490     TIP3     H2       HT       0.417000       1.00800           0
     52867 TIP3     4491     TIP3     OH2      OT      -0.834000       15.9994           0
     52868 TIP3     4491     TIP3     H1       HT       0.417000       1.00800           0
     52869 TIP3     4491     TIP3     H2       HT       0.417000       1.00800           0
     52870 TIP3     4492     TIP3     OH2      OT      -0.834000       15.9994           0
     52871 TIP3     4492     TIP3     H1       HT       0.417000       1.00800           0
     52872 TIP3     4492     TIP3     H2       HT       0.417000       1.00800           0
     52873 TIP3     4493     TIP3     OH2      OT      -0.834000       15.9994           0
     52874 TIP3     4493     TIP3     H1       HT       0.417000       1.00800           0
     52875 TIP3     4493     TIP3     H2       HT       0.417000       1.00800           0
     52876 TIP3     4494     TIP3     OH2      OT      -0.834000       15.9994           0
     52877 TIP3     4494     TIP3     H1       HT       0.417000       1.00800           0
     52878 TIP3     4494     TIP3     H2       HT       0.417000       1.00800           0
     52879 TIP3     4495     TIP3     OH2      OT      -0.834000       15.9994           0
     52880 TIP3     4495     TIP3     H1       HT       0.417000       1.00800           0
     52881 TIP3     4495     TIP3     H2       HT       0.417000       1.00800           0
     52882 TIP3     4496     TIP3     OH2      OT      -0.834000       15.9994           0
     52883 TIP3     4496     TIP3     H1       HT       0.417000       1.00800           0
     52884 TIP3     4496     TIP3     H2       HT       0.417000       1.00800           0
     52885 TIP3     4497     TIP3     OH2      OT      -0.834000       15.9994           0
     52886 TIP3     4497     TIP3     H1       HT       0.417000       1.00800           0
     52887 TIP3     4497     TIP3     H2       HT       0.417000       1.00800           0
     52888 TIP3     4498     TIP3     OH2      OT      -0.834000       15.9994           0
     52889 TIP3     4498     TIP3     H1       HT       0.417000       1.00800           0
     52890 TIP3     4498     TIP3     H2       HT       0.417000       1.00800           0
     52891 TIP3     4499     TIP3     OH2      OT      -0.834000       15.9994           0
     52892 TIP3     4499     TIP3     H1       HT       0.417000       1.00800           0
     52893 TIP3     4499     TIP3     H2       HT       0.417000       1.00800           0
     52894 TIP3     4500     TIP3     OH2      OT      -0.834000       15.9994           0
     52895 TIP3     4500     TIP3     H1       HT       0.417000       1.00800           0
     52896 TIP3     4500     TIP3     H2       HT       0.417000       1.00800           0
     52897 TIP3     4501     TIP3     OH2      OT      -0.834000       15.9994           0
     52898 TIP3     4501     TIP3     H1       HT       0.417000       1.00800           0
     52899 TIP3     4501     TIP3     H2       HT       0.417000       1.00800           0
     52900 TIP3     4502     TIP3     OH2      OT      -0.834000       15.9994           0
     52901 TIP3     4502     TIP3     H1       HT       0.417000       1.00800           0
     52902 TIP3     4502     TIP3     H2       HT       0.417000       1.00800           0
     52903 TIP3     4503     TIP3     OH2      OT      -0.834000       15.9994           0
     52904 TIP3     4503     TIP3     H1       HT       0.417000       1.00800           0
     52905 TIP3     4503     TIP3     H2       HT       0.417000       1.00800           0
     52906 TIP3     4504     TIP3     OH2      OT      -0.834000       15.9994           0
     52907 TIP3     4504     TIP3     H1       HT       0.417000       1.00800           0
     52908 TIP3     4504     TIP3     H2       HT       0.417000       1.00800           0
     52909 TIP3     4505     TIP3     OH2      OT      -0.834000       15.9994           0
     52910 TIP3     4505     TIP3     H1       HT       0.417000       1.00800           0
     52911 TIP3     4505     TIP3     H2       HT       0.417000       1.00800           0
     52912 TIP3     4506     TIP3     OH2      OT      -0.834000       15.9994           0
     52913 TIP3     4506     TIP3     H1       HT       0.417000       1.00800           0
     52914 TIP3     4506     TIP3     H2       HT       0.417000       1.00800           0
     52915 TIP3     4507     TIP3     OH2      OT      -0.834000       15.9994           0
     52916 TIP3     4507     TIP3     H1       HT       0.417000       1.00800           0
     52917 TIP3     4507     TIP3     H2       HT       0.417000       1.00800           0
     52918 TIP3     4508     TIP3     OH2      OT      -0.834000       15.9994           0
     52919 TIP3     4508     TIP3     H1       HT       0.417000       1.00800           0
     52920 TIP3     4508     TIP3     H2       HT       0.417000       1.00800           0
     52921 TIP3     4509     TIP3     OH2      OT      -0.834000       15.9994           0
     52922 TIP3     4509     TIP3     H1       HT       0.417000       1.00800           0
     52923 TIP3     4509     TIP3     H2       HT       0.417000       1.00800           0
     52924 TIP3     4510     TIP3     OH2      OT      -0.834000       15.9994           0
     52925 TIP3     4510     TIP3     H1       HT       0.417000       1.00800           0
     52926 TIP3     4510     TIP3     H2       HT       0.417000       1.00800           0
     52927 TIP3     4511     TIP3     OH2      OT      -0.834000       15.9994           0
     52928 TIP3     4511     TIP3     H1       HT       0.417000       1.00800           0
     52929 TIP3     4511     TIP3     H2       HT       0.417000       1.00800           0
     52930 TIP3     4512     TIP3     OH2      OT      -0.834000       15.9994           0
     52931 TIP3     4512     TIP3     H1       HT       0.417000       1.00800           0
     52932 TIP3     4512     TIP3     H2       HT       0.417000       1.00800           0
     52933 TIP3     4513     TIP3     OH2      OT      -0.834000       15.9994           0
     52934 TIP3     4513     TIP3     H1       HT       0.417000       1.00800           0
     52935 TIP3     4513     TIP3     H2       HT       0.417000       1.00800           0
     52936 TIP3     4514     TIP3     OH2      OT      -0.834000       15.9994           0
     52937 TIP3     4514     TIP3     H1       HT       0.417000       1.00800           0
     52938 TIP3     4514     TIP3     H2       HT       0.417000       1.00800           0
     52939 TIP3     4515     TIP3     OH2      OT      -0.834000       15.9994           0
     52940 TIP3     4515     TIP3     H1       HT       0.417000       1.00800           0
     52941 TIP3     4515     TIP3     H2       HT       0.417000       1.00800           0
     52942 TIP3     4516     TIP3     OH2      OT      -0.834000       15.9994           0
     52943 TIP3     4516     TIP3     H1       HT       0.417000       1.00800           0
     52944 TIP3     4516     TIP3     H2       HT       0.417000       1.00800           0
     52945 TIP3     4517     TIP3     OH2      OT      -0.834000       15.9994           0
     52946 TIP3     4517     TIP3     H1       HT       0.417000       1.00800           0
     52947 TIP3     4517     TIP3     H2       HT       0.417000       1.00800           0
     52948 TIP3     4518     TIP3     OH2      OT      -0.834000       15.9994           0
     52949 TIP3     4518     TIP3     H1       HT       0.417000       1.00800           0
     52950 TIP3     4518     TIP3     H2       HT       0.417000       1.00800           0
     52951 TIP3     4519     TIP3     OH2      OT      -0.834000       15.9994           0
     52952 TIP3     4519     TIP3     H1       HT       0.417000       1.00800           0
     52953 TIP3     4519     TIP3     H2       HT       0.417000       1.00800           0
     52954 TIP3     4520     TIP3     OH2      OT      -0.834000       15.9994           0
     52955 TIP3     4520     TIP3     H1       HT       0.417000       1.00800           0
     52956 TIP3     4520     TIP3     H2       HT       0.417000       1.00800           0
     52957 TIP3     4521     TIP3     OH2      OT      -0.834000       15.9994           0
     52958 TIP3     4521     TIP3     H1       HT       0.417000       1.00800           0
     52959 TIP3     4521     TIP3     H2       HT       0.417000       1.00800           0
     52960 TIP3     4522     TIP3     OH2      OT      -0.834000       15.9994           0
     52961 TIP3     4522     TIP3     H1       HT       0.417000       1.00800           0
     52962 TIP3     4522     TIP3     H2       HT       0.417000       1.00800           0
     52963 TIP3     4523     TIP3     OH2      OT      -0.834000       15.9994           0
     52964 TIP3     4523     TIP3     H1       HT       0.417000       1.00800           0
     52965 TIP3     4523     TIP3     H2       HT       0.417000       1.00800           0
     52966 TIP3     4524     TIP3     OH2      OT      -0.834000       15.9994           0
     52967 TIP3     4524     TIP3     H1       HT       0.417000       1.00800           0
     52968 TIP3     4524     TIP3     H2       HT       0.417000       1.00800           0
     52969 TIP3     4525     TIP3     OH2      OT      -0.834000       15.9994           0
     52970 TIP3     4525     TIP3     H1       HT       0.417000       1.00800           0
     52971 TIP3     4525     TIP3     H2       HT       0.417000       1.00800           0
     52972 TIP3     4526     TIP3     OH2      OT      -0.834000       15.9994           0
     52973 TIP3     4526     TIP3     H1       HT       0.417000       1.00800           0
     52974 TIP3     4526     TIP3     H2       HT       0.417000       1.00800           0
     52975 TIP3     4527     TIP3     OH2      OT      -0.834000       15.9994           0
     52976 TIP3     4527     TIP3     H1       HT       0.417000       1.00800           0
     52977 TIP3     4527     TIP3     H2       HT       0.417000       1.00800           0
     52978 TIP3     4528     TIP3     OH2      OT      -0.834000       15.9994           0
     52979 TIP3     4528     TIP3     H1       HT       0.417000       1.00800           0
     52980 TIP3     4528     TIP3     H2       HT       0.417000       1.00800           0
     52981 TIP3     4529     TIP3     OH2      OT      -0.834000       15.9994           0
     52982 TIP3     4529     TIP3     H1       HT       0.417000       1.00800           0
     52983 TIP3     4529     TIP3     H2       HT       0.417000       1.00800           0
     52984 TIP3     4530     TIP3     OH2      OT      -0.834000       15.9994           0
     52985 TIP3     4530     TIP3     H1       HT       0.417000       1.00800           0
     52986 TIP3     4530     TIP3     H2       HT       0.417000       1.00800           0
     52987 TIP3     4531     TIP3     OH2      OT      -0.834000       15.9994           0
     52988 TIP3     4531     TIP3     H1       HT       0.417000       1.00800           0
     52989 TIP3     4531     TIP3     H2       HT       0.417000       1.00800           0
     52990 TIP3     4532     TIP3     OH2      OT      -0.834000       15.9994           0
     52991 TIP3     4532     TIP3     H1       HT       0.417000       1.00800           0
     52992 TIP3     4532     TIP3     H2       HT       0.417000       1.00800           0
     52993 TIP3     4533     TIP3     OH2      OT      -0.834000       15.9994           0
     52994 TIP3     4533     TIP3     H1       HT       0.417000       1.00800           0
     52995 TIP3     4533     TIP3     H2       HT       0.417000       1.00800           0
     52996 TIP3     4534     TIP3     OH2      OT      -0.834000       15.9994           0
     52997 TIP3     4534     TIP3     H1       HT       0.417000       1.00800           0
     52998 TIP3     4534     TIP3     H2       HT       0.417000       1.00800           0
     52999 TIP3     4535     TIP3     OH2      OT      -0.834000       15.9994           0
     53000 TIP3     4535     TIP3     H1       HT       0.417000       1.00800           0
     53001 TIP3     4535     TIP3     H2       HT       0.417000       1.00800           0
     53002 TIP3     4536     TIP3     OH2      OT      -0.834000       15.9994           0
     53003 TIP3     4536     TIP3     H1       HT       0.417000       1.00800           0
     53004 TIP3     4536     TIP3     H2       HT       0.417000       1.00800           0
     53005 TIP3     4537     TIP3     OH2      OT      -0.834000       15.9994           0
     53006 TIP3     4537     TIP3     H1       HT       0.417000       1.00800           0
     53007 TIP3     4537     TIP3     H2       HT       0.417000       1.00800           0
     53008 TIP3     4538     TIP3     OH2      OT      -0.834000       15.9994           0
     53009 TIP3     4538     TIP3     H1       HT       0.417000       1.00800           0
     53010 TIP3     4538     TIP3     H2       HT       0.417000       1.00800           0
     53011 TIP3     4539     TIP3     OH2      OT      -0.834000       15.9994           0
     53012 TIP3     4539     TIP3     H1       HT       0.417000       1.00800           0
     53013 TIP3     4539     TIP3     H2       HT       0.417000       1.00800           0
     53014 TIP3     4540     TIP3     OH2      OT      -0.834000       15.9994           0
     53015 TIP3     4540     TIP3     H1       HT       0.417000       1.00800           0
     53016 TIP3     4540     TIP3     H2       HT       0.417000       1.00800           0
     53017 TIP3     4541     TIP3     OH2      OT      -0.834000       15.9994           0
     53018 TIP3     4541     TIP3     H1       HT       0.417000       1.00800           0
     53019 TIP3     4541     TIP3     H2       HT       0.417000       1.00800           0
     53020 TIP3     4542     TIP3     OH2      OT      -0.834000       15.9994           0
     53021 TIP3     4542     TIP3     H1       HT       0.417000       1.00800           0
     53022 TIP3     4542     TIP3     H2       HT       0.417000       1.00800           0
     53023 TIP3     4543     TIP3     OH2      OT      -0.834000       15.9994           0
     53024 TIP3     4543     TIP3     H1       HT       0.417000       1.00800           0
     53025 TIP3     4543     TIP3     H2       HT       0.417000       1.00800           0
     53026 TIP3     4544     TIP3     OH2      OT      -0.834000       15.9994           0
     53027 TIP3     4544     TIP3     H1       HT       0.417000       1.00800           0
     53028 TIP3     4544     TIP3     H2       HT       0.417000       1.00800           0
     53029 TIP3     4545     TIP3     OH2      OT      -0.834000       15.9994           0
     53030 TIP3     4545     TIP3     H1       HT       0.417000       1.00800           0
     53031 TIP3     4545     TIP3     H2       HT       0.417000       1.00800           0
     53032 TIP3     4546     TIP3     OH2      OT      -0.834000       15.9994           0
     53033 TIP3     4546     TIP3     H1       HT       0.417000       1.00800           0
     53034 TIP3     4546     TIP3     H2       HT       0.417000       1.00800           0
     53035 TIP3     4547     TIP3     OH2      OT      -0.834000       15.9994           0
     53036 TIP3     4547     TIP3     H1       HT       0.417000       1.00800           0
     53037 TIP3     4547     TIP3     H2       HT       0.417000       1.00800           0
     53038 TIP3     4548     TIP3     OH2      OT      -0.834000       15.9994           0
     53039 TIP3     4548     TIP3     H1       HT       0.417000       1.00800           0
     53040 TIP3     4548     TIP3     H2       HT       0.417000       1.00800           0
     53041 TIP3     4549     TIP3     OH2      OT      -0.834000       15.9994           0
     53042 TIP3     4549     TIP3     H1       HT       0.417000       1.00800           0
     53043 TIP3     4549     TIP3     H2       HT       0.417000       1.00800           0
     53044 TIP3     4550     TIP3     OH2      OT      -0.834000       15.9994           0
     53045 TIP3     4550     TIP3     H1       HT       0.417000       1.00800           0
     53046 TIP3     4550     TIP3     H2       HT       0.417000       1.00800           0
     53047 TIP3     4551     TIP3     OH2      OT      -0.834000       15.9994           0
     53048 TIP3     4551     TIP3     H1       HT       0.417000       1.00800           0
     53049 TIP3     4551     TIP3     H2       HT       0.417000       1.00800           0
     53050 TIP3     4552     TIP3     OH2      OT      -0.834000       15.9994           0
     53051 TIP3     4552     TIP3     H1       HT       0.417000       1.00800           0
     53052 TIP3     4552     TIP3     H2       HT       0.417000       1.00800           0
     53053 TIP3     4553     TIP3     OH2      OT      -0.834000       15.9994           0
     53054 TIP3     4553     TIP3     H1       HT       0.417000       1.00800           0
     53055 TIP3     4553     TIP3     H2       HT       0.417000       1.00800           0
     53056 TIP3     4554     TIP3     OH2      OT      -0.834000       15.9994           0
     53057 TIP3     4554     TIP3     H1       HT       0.417000       1.00800           0
     53058 TIP3     4554     TIP3     H2       HT       0.417000       1.00800           0
     53059 TIP3     4555     TIP3     OH2      OT      -0.834000       15.9994           0
     53060 TIP3     4555     TIP3     H1       HT       0.417000       1.00800           0
     53061 TIP3     4555     TIP3     H2       HT       0.417000       1.00800           0
     53062 TIP3     4556     TIP3     OH2      OT      -0.834000       15.9994           0
     53063 TIP3     4556     TIP3     H1       HT       0.417000       1.00800           0
     53064 TIP3     4556     TIP3     H2       HT       0.417000       1.00800           0
     53065 TIP3     4557     TIP3     OH2      OT      -0.834000       15.9994           0
     53066 TIP3     4557     TIP3     H1       HT       0.417000       1.00800           0
     53067 TIP3     4557     TIP3     H2       HT       0.417000       1.00800           0
     53068 TIP3     4558     TIP3     OH2      OT      -0.834000       15.9994           0
     53069 TIP3     4558     TIP3     H1       HT       0.417000       1.00800           0
     53070 TIP3     4558     TIP3     H2       HT       0.417000       1.00800           0
     53071 TIP3     4559     TIP3     OH2      OT      -0.834000       15.9994           0
     53072 TIP3     4559     TIP3     H1       HT       0.417000       1.00800           0
     53073 TIP3     4559     TIP3     H2       HT       0.417000       1.00800           0
     53074 TIP3     4560     TIP3     OH2      OT      -0.834000       15.9994           0
     53075 TIP3     4560     TIP3     H1       HT       0.417000       1.00800           0
     53076 TIP3     4560     TIP3     H2       HT       0.417000       1.00800           0
     53077 TIP3     4561     TIP3     OH2      OT      -0.834000       15.9994           0
     53078 TIP3     4561     TIP3     H1       HT       0.417000       1.00800           0
     53079 TIP3     4561     TIP3     H2       HT       0.417000       1.00800           0
     53080 TIP3     4562     TIP3     OH2      OT      -0.834000       15.9994           0
     53081 TIP3     4562     TIP3     H1       HT       0.417000       1.00800           0
     53082 TIP3     4562     TIP3     H2       HT       0.417000       1.00800           0
     53083 TIP3     4563     TIP3     OH2      OT      -0.834000       15.9994           0
     53084 TIP3     4563     TIP3     H1       HT       0.417000       1.00800           0
     53085 TIP3     4563     TIP3     H2       HT       0.417000       1.00800           0
     53086 TIP3     4564     TIP3     OH2      OT      -0.834000       15.9994           0
     53087 TIP3     4564     TIP3     H1       HT       0.417000       1.00800           0
     53088 TIP3     4564     TIP3     H2       HT       0.417000       1.00800           0
     53089 TIP3     4565     TIP3     OH2      OT      -0.834000       15.9994           0
     53090 TIP3     4565     TIP3     H1       HT       0.417000       1.00800           0
     53091 TIP3     4565     TIP3     H2       HT       0.417000       1.00800           0
     53092 TIP3     4566     TIP3     OH2      OT      -0.834000       15.9994           0
     53093 TIP3     4566     TIP3     H1       HT       0.417000       1.00800           0
     53094 TIP3     4566     TIP3     H2       HT       0.417000       1.00800           0
     53095 TIP3     4567     TIP3     OH2      OT      -0.834000       15.9994           0
     53096 TIP3     4567     TIP3     H1       HT       0.417000       1.00800           0
     53097 TIP3     4567     TIP3     H2       HT       0.417000       1.00800           0
     53098 TIP3     4568     TIP3     OH2      OT      -0.834000       15.9994           0
     53099 TIP3     4568     TIP3     H1       HT       0.417000       1.00800           0
     53100 TIP3     4568     TIP3     H2       HT       0.417000       1.00800           0
     53101 TIP3     4569     TIP3     OH2      OT      -0.834000       15.9994           0
     53102 TIP3     4569     TIP3     H1       HT       0.417000       1.00800           0
     53103 TIP3     4569     TIP3     H2       HT       0.417000       1.00800           0
     53104 TIP3     4570     TIP3     OH2      OT      -0.834000       15.9994           0
     53105 TIP3     4570     TIP3     H1       HT       0.417000       1.00800           0
     53106 TIP3     4570     TIP3     H2       HT       0.417000       1.00800           0
     53107 TIP3     4571     TIP3     OH2      OT      -0.834000       15.9994           0
     53108 TIP3     4571     TIP3     H1       HT       0.417000       1.00800           0
     53109 TIP3     4571     TIP3     H2       HT       0.417000       1.00800           0
     53110 TIP3     4572     TIP3     OH2      OT      -0.834000       15.9994           0
     53111 TIP3     4572     TIP3     H1       HT       0.417000       1.00800           0
     53112 TIP3     4572     TIP3     H2       HT       0.417000       1.00800           0
     53113 TIP3     4573     TIP3     OH2      OT      -0.834000       15.9994           0
     53114 TIP3     4573     TIP3     H1       HT       0.417000       1.00800           0
     53115 TIP3     4573     TIP3     H2       HT       0.417000       1.00800           0
     53116 TIP3     4574     TIP3     OH2      OT      -0.834000       15.9994           0
     53117 TIP3     4574     TIP3     H1       HT       0.417000       1.00800           0
     53118 TIP3     4574     TIP3     H2       HT       0.417000       1.00800           0
     53119 TIP3     4575     TIP3     OH2      OT      -0.834000       15.9994           0
     53120 TIP3     4575     TIP3     H1       HT       0.417000       1.00800           0
     53121 TIP3     4575     TIP3     H2       HT       0.417000       1.00800           0
     53122 TIP3     4576     TIP3     OH2      OT      -0.834000       15.9994           0
     53123 TIP3     4576     TIP3     H1       HT       0.417000       1.00800           0
     53124 TIP3     4576     TIP3     H2       HT       0.417000       1.00800           0
     53125 TIP3     4577     TIP3     OH2      OT      -0.834000       15.9994           0
     53126 TIP3     4577     TIP3     H1       HT       0.417000       1.00800           0
     53127 TIP3     4577     TIP3     H2       HT       0.417000       1.00800           0
     53128 TIP3     4578     TIP3     OH2      OT      -0.834000       15.9994           0
     53129 TIP3     4578     TIP3     H1       HT       0.417000       1.00800           0
     53130 TIP3     4578     TIP3     H2       HT       0.417000       1.00800           0
     53131 TIP3     4579     TIP3     OH2      OT      -0.834000       15.9994           0
     53132 TIP3     4579     TIP3     H1       HT       0.417000       1.00800           0
     53133 TIP3     4579     TIP3     H2       HT       0.417000       1.00800           0
     53134 TIP3     4580     TIP3     OH2      OT      -0.834000       15.9994           0
     53135 TIP3     4580     TIP3     H1       HT       0.417000       1.00800           0
     53136 TIP3     4580     TIP3     H2       HT       0.417000       1.00800           0
     53137 TIP3     4581     TIP3     OH2      OT      -0.834000       15.9994           0
     53138 TIP3     4581     TIP3     H1       HT       0.417000       1.00800           0
     53139 TIP3     4581     TIP3     H2       HT       0.417000       1.00800           0
     53140 TIP3     4582     TIP3     OH2      OT      -0.834000       15.9994           0
     53141 TIP3     4582     TIP3     H1       HT       0.417000       1.00800           0
     53142 TIP3     4582     TIP3     H2       HT       0.417000       1.00800           0
     53143 TIP3     4583     TIP3     OH2      OT      -0.834000       15.9994           0
     53144 TIP3     4583     TIP3     H1       HT       0.417000       1.00800           0
     53145 TIP3     4583     TIP3     H2       HT       0.417000       1.00800           0
     53146 TIP3     4584     TIP3     OH2      OT      -0.834000       15.9994           0
     53147 TIP3     4584     TIP3     H1       HT       0.417000       1.00800           0
     53148 TIP3     4584     TIP3     H2       HT       0.417000       1.00800           0
     53149 TIP3     4585     TIP3     OH2      OT      -0.834000       15.9994           0
     53150 TIP3     4585     TIP3     H1       HT       0.417000       1.00800           0
     53151 TIP3     4585     TIP3     H2       HT       0.417000       1.00800           0
     53152 TIP3     4586     TIP3     OH2      OT      -0.834000       15.9994           0
     53153 TIP3     4586     TIP3     H1       HT       0.417000       1.00800           0
     53154 TIP3     4586     TIP3     H2       HT       0.417000       1.00800           0
     53155 TIP3     4587     TIP3     OH2      OT      -0.834000       15.9994           0
     53156 TIP3     4587     TIP3     H1       HT       0.417000       1.00800           0
     53157 TIP3     4587     TIP3     H2       HT       0.417000       1.00800           0
     53158 TIP3     4588     TIP3     OH2      OT      -0.834000       15.9994           0
     53159 TIP3     4588     TIP3     H1       HT       0.417000       1.00800           0
     53160 TIP3     4588     TIP3     H2       HT       0.417000       1.00800           0
     53161 TIP3     4589     TIP3     OH2      OT      -0.834000       15.9994           0
     53162 TIP3     4589     TIP3     H1       HT       0.417000       1.00800           0
     53163 TIP3     4589     TIP3     H2       HT       0.417000       1.00800           0
     53164 TIP3     4590     TIP3     OH2      OT      -0.834000       15.9994           0
     53165 TIP3     4590     TIP3     H1       HT       0.417000       1.00800           0
     53166 TIP3     4590     TIP3     H2       HT       0.417000       1.00800           0
     53167 TIP3     4591     TIP3     OH2      OT      -0.834000       15.9994           0
     53168 TIP3     4591     TIP3     H1       HT       0.417000       1.00800           0
     53169 TIP3     4591     TIP3     H2       HT       0.417000       1.00800           0
     53170 TIP3     4592     TIP3     OH2      OT      -0.834000       15.9994           0
     53171 TIP3     4592     TIP3     H1       HT       0.417000       1.00800           0
     53172 TIP3     4592     TIP3     H2       HT       0.417000       1.00800           0
     53173 TIP3     4593     TIP3     OH2      OT      -0.834000       15.9994           0
     53174 TIP3     4593     TIP3     H1       HT       0.417000       1.00800           0
     53175 TIP3     4593     TIP3     H2       HT       0.417000       1.00800           0
     53176 TIP3     4594     TIP3     OH2      OT      -0.834000       15.9994           0
     53177 TIP3     4594     TIP3     H1       HT       0.417000       1.00800           0
     53178 TIP3     4594     TIP3     H2       HT       0.417000       1.00800           0
     53179 TIP3     4595     TIP3     OH2      OT      -0.834000       15.9994           0
     53180 TIP3     4595     TIP3     H1       HT       0.417000       1.00800           0
     53181 TIP3     4595     TIP3     H2       HT       0.417000       1.00800           0
     53182 TIP3     4596     TIP3     OH2      OT      -0.834000       15.9994           0
     53183 TIP3     4596     TIP3     H1       HT       0.417000       1.00800           0
     53184 TIP3     4596     TIP3     H2       HT       0.417000       1.00800           0
     53185 TIP3     4597     TIP3     OH2      OT      -0.834000       15.9994           0
     53186 TIP3     4597     TIP3     H1       HT       0.417000       1.00800           0
     53187 TIP3     4597     TIP3     H2       HT       0.417000       1.00800           0
     53188 TIP3     4598     TIP3     OH2      OT      -0.834000       15.9994           0
     53189 TIP3     4598     TIP3     H1       HT       0.417000       1.00800           0
     53190 TIP3     4598     TIP3     H2       HT       0.417000       1.00800           0
     53191 TIP3     4599     TIP3     OH2      OT      -0.834000       15.9994           0
     53192 TIP3     4599     TIP3     H1       HT       0.417000       1.00800           0
     53193 TIP3     4599     TIP3     H2       HT       0.417000       1.00800           0
     53194 TIP3     4600     TIP3     OH2      OT      -0.834000       15.9994           0
     53195 TIP3     4600     TIP3     H1       HT       0.417000       1.00800           0
     53196 TIP3     4600     TIP3     H2       HT       0.417000       1.00800           0
     53197 TIP3     4601     TIP3     OH2      OT      -0.834000       15.9994           0
     53198 TIP3     4601     TIP3     H1       HT       0.417000       1.00800           0
     53199 TIP3     4601     TIP3     H2       HT       0.417000       1.00800           0
     53200 TIP3     4602     TIP3     OH2      OT      -0.834000       15.9994           0
     53201 TIP3     4602     TIP3     H1       HT       0.417000       1.00800           0
     53202 TIP3     4602     TIP3     H2       HT       0.417000       1.00800           0
     53203 TIP3     4603     TIP3     OH2      OT      -0.834000       15.9994           0
     53204 TIP3     4603     TIP3     H1       HT       0.417000       1.00800           0
     53205 TIP3     4603     TIP3     H2       HT       0.417000       1.00800           0
     53206 TIP3     4604     TIP3     OH2      OT      -0.834000       15.9994           0
     53207 TIP3     4604     TIP3     H1       HT       0.417000       1.00800           0
     53208 TIP3     4604     TIP3     H2       HT       0.417000       1.00800           0
     53209 TIP3     4605     TIP3     OH2      OT      -0.834000       15.9994           0
     53210 TIP3     4605     TIP3     H1       HT       0.417000       1.00800           0
     53211 TIP3     4605     TIP3     H2       HT       0.417000       1.00800           0
     53212 TIP3     4606     TIP3     OH2      OT      -0.834000       15.9994           0
     53213 TIP3     4606     TIP3     H1       HT       0.417000       1.00800           0
     53214 TIP3     4606     TIP3     H2       HT       0.417000       1.00800           0
     53215 TIP3     4607     TIP3     OH2      OT      -0.834000       15.9994           0
     53216 TIP3     4607     TIP3     H1       HT       0.417000       1.00800           0
     53217 TIP3     4607     TIP3     H2       HT       0.417000       1.00800           0
     53218 TIP3     4608     TIP3     OH2      OT      -0.834000       15.9994           0
     53219 TIP3     4608     TIP3     H1       HT       0.417000       1.00800           0
     53220 TIP3     4608     TIP3     H2       HT       0.417000       1.00800           0
     53221 TIP3     4609     TIP3     OH2      OT      -0.834000       15.9994           0
     53222 TIP3     4609     TIP3     H1       HT       0.417000       1.00800           0
     53223 TIP3     4609     TIP3     H2       HT       0.417000       1.00800           0
     53224 TIP3     4610     TIP3     OH2      OT      -0.834000       15.9994           0
     53225 TIP3     4610     TIP3     H1       HT       0.417000       1.00800           0
     53226 TIP3     4610     TIP3     H2       HT       0.417000       1.00800           0
     53227 TIP3     4611     TIP3     OH2      OT      -0.834000       15.9994           0
     53228 TIP3     4611     TIP3     H1       HT       0.417000       1.00800           0
     53229 TIP3     4611     TIP3     H2       HT       0.417000       1.00800           0
     53230 TIP3     4612     TIP3     OH2      OT      -0.834000       15.9994           0
     53231 TIP3     4612     TIP3     H1       HT       0.417000       1.00800           0
     53232 TIP3     4612     TIP3     H2       HT       0.417000       1.00800           0
     53233 TIP3     4613     TIP3     OH2      OT      -0.834000       15.9994           0
     53234 TIP3     4613     TIP3     H1       HT       0.417000       1.00800           0
     53235 TIP3     4613     TIP3     H2       HT       0.417000       1.00800           0
     53236 TIP3     4614     TIP3     OH2      OT      -0.834000       15.9994           0
     53237 TIP3     4614     TIP3     H1       HT       0.417000       1.00800           0
     53238 TIP3     4614     TIP3     H2       HT       0.417000       1.00800           0
     53239 TIP3     4615     TIP3     OH2      OT      -0.834000       15.9994           0
     53240 TIP3     4615     TIP3     H1       HT       0.417000       1.00800           0
     53241 TIP3     4615     TIP3     H2       HT       0.417000       1.00800           0
     53242 TIP3     4616     TIP3     OH2      OT      -0.834000       15.9994           0
     53243 TIP3     4616     TIP3     H1       HT       0.417000       1.00800           0
     53244 TIP3     4616     TIP3     H2       HT       0.417000       1.00800           0
     53245 TIP3     4617     TIP3     OH2      OT      -0.834000       15.9994           0
     53246 TIP3     4617     TIP3     H1       HT       0.417000       1.00800           0
     53247 TIP3     4617     TIP3     H2       HT       0.417000       1.00800           0
     53248 TIP3     4618     TIP3     OH2      OT      -0.834000       15.9994           0
     53249 TIP3     4618     TIP3     H1       HT       0.417000       1.00800           0
     53250 TIP3     4618     TIP3     H2       HT       0.417000       1.00800           0
     53251 TIP3     4619     TIP3     OH2      OT      -0.834000       15.9994           0
     53252 TIP3     4619     TIP3     H1       HT       0.417000       1.00800           0
     53253 TIP3     4619     TIP3     H2       HT       0.417000       1.00800           0
     53254 TIP3     4620     TIP3     OH2      OT      -0.834000       15.9994           0
     53255 TIP3     4620     TIP3     H1       HT       0.417000       1.00800           0
     53256 TIP3     4620     TIP3     H2       HT       0.417000       1.00800           0
     53257 TIP3     4621     TIP3     OH2      OT      -0.834000       15.9994           0
     53258 TIP3     4621     TIP3     H1       HT       0.417000       1.00800           0
     53259 TIP3     4621     TIP3     H2       HT       0.417000       1.00800           0
     53260 TIP3     4622     TIP3     OH2      OT      -0.834000       15.9994           0
     53261 TIP3     4622     TIP3     H1       HT       0.417000       1.00800           0
     53262 TIP3     4622     TIP3     H2       HT       0.417000       1.00800           0
     53263 TIP3     4623     TIP3     OH2      OT      -0.834000       15.9994           0
     53264 TIP3     4623     TIP3     H1       HT       0.417000       1.00800           0
     53265 TIP3     4623     TIP3     H2       HT       0.417000       1.00800           0
     53266 TIP3     4624     TIP3     OH2      OT      -0.834000       15.9994           0
     53267 TIP3     4624     TIP3     H1       HT       0.417000       1.00800           0
     53268 TIP3     4624     TIP3     H2       HT       0.417000       1.00800           0
     53269 TIP3     4625     TIP3     OH2      OT      -0.834000       15.9994           0
     53270 TIP3     4625     TIP3     H1       HT       0.417000       1.00800           0
     53271 TIP3     4625     TIP3     H2       HT       0.417000       1.00800           0
     53272 TIP3     4626     TIP3     OH2      OT      -0.834000       15.9994           0
     53273 TIP3     4626     TIP3     H1       HT       0.417000       1.00800           0
     53274 TIP3     4626     TIP3     H2       HT       0.417000       1.00800           0
     53275 TIP3     4627     TIP3     OH2      OT      -0.834000       15.9994           0
     53276 TIP3     4627     TIP3     H1       HT       0.417000       1.00800           0
     53277 TIP3     4627     TIP3     H2       HT       0.417000       1.00800           0
     53278 TIP3     4628     TIP3     OH2      OT      -0.834000       15.9994           0
     53279 TIP3     4628     TIP3     H1       HT       0.417000       1.00800           0
     53280 TIP3     4628     TIP3     H2       HT       0.417000       1.00800           0
     53281 TIP3     4629     TIP3     OH2      OT      -0.834000       15.9994           0
     53282 TIP3     4629     TIP3     H1       HT       0.417000       1.00800           0
     53283 TIP3     4629     TIP3     H2       HT       0.417000       1.00800           0
     53284 TIP3     4630     TIP3     OH2      OT      -0.834000       15.9994           0
     53285 TIP3     4630     TIP3     H1       HT       0.417000       1.00800           0
     53286 TIP3     4630     TIP3     H2       HT       0.417000       1.00800           0
     53287 TIP3     4631     TIP3     OH2      OT      -0.834000       15.9994           0
     53288 TIP3     4631     TIP3     H1       HT       0.417000       1.00800           0
     53289 TIP3     4631     TIP3     H2       HT       0.417000       1.00800           0
     53290 TIP3     4632     TIP3     OH2      OT      -0.834000       15.9994           0
     53291 TIP3     4632     TIP3     H1       HT       0.417000       1.00800           0
     53292 TIP3     4632     TIP3     H2       HT       0.417000       1.00800           0
     53293 TIP3     4633     TIP3     OH2      OT      -0.834000       15.9994           0
     53294 TIP3     4633     TIP3     H1       HT       0.417000       1.00800           0
     53295 TIP3     4633     TIP3     H2       HT       0.417000       1.00800           0
     53296 TIP3     4634     TIP3     OH2      OT      -0.834000       15.9994           0
     53297 TIP3     4634     TIP3     H1       HT       0.417000       1.00800           0
     53298 TIP3     4634     TIP3     H2       HT       0.417000       1.00800           0
     53299 TIP3     4635     TIP3     OH2      OT      -0.834000       15.9994           0
     53300 TIP3     4635     TIP3     H1       HT       0.417000       1.00800           0
     53301 TIP3     4635     TIP3     H2       HT       0.417000       1.00800           0
     53302 TIP3     4636     TIP3     OH2      OT      -0.834000       15.9994           0
     53303 TIP3     4636     TIP3     H1       HT       0.417000       1.00800           0
     53304 TIP3     4636     TIP3     H2       HT       0.417000       1.00800           0
     53305 TIP3     4637     TIP3     OH2      OT      -0.834000       15.9994           0
     53306 TIP3     4637     TIP3     H1       HT       0.417000       1.00800           0
     53307 TIP3     4637     TIP3     H2       HT       0.417000       1.00800           0
     53308 TIP3     4638     TIP3     OH2      OT      -0.834000       15.9994           0
     53309 TIP3     4638     TIP3     H1       HT       0.417000       1.00800           0
     53310 TIP3     4638     TIP3     H2       HT       0.417000       1.00800           0
     53311 TIP3     4639     TIP3     OH2      OT      -0.834000       15.9994           0
     53312 TIP3     4639     TIP3     H1       HT       0.417000       1.00800           0
     53313 TIP3     4639     TIP3     H2       HT       0.417000       1.00800           0
     53314 TIP3     4640     TIP3     OH2      OT      -0.834000       15.9994           0
     53315 TIP3     4640     TIP3     H1       HT       0.417000       1.00800           0
     53316 TIP3     4640     TIP3     H2       HT       0.417000       1.00800           0
     53317 TIP3     4641     TIP3     OH2      OT      -0.834000       15.9994           0
     53318 TIP3     4641     TIP3     H1       HT       0.417000       1.00800           0
     53319 TIP3     4641     TIP3     H2       HT       0.417000       1.00800           0
     53320 TIP3     4642     TIP3     OH2      OT      -0.834000       15.9994           0
     53321 TIP3     4642     TIP3     H1       HT       0.417000       1.00800           0
     53322 TIP3     4642     TIP3     H2       HT       0.417000       1.00800           0
     53323 TIP3     4643     TIP3     OH2      OT      -0.834000       15.9994           0
     53324 TIP3     4643     TIP3     H1       HT       0.417000       1.00800           0
     53325 TIP3     4643     TIP3     H2       HT       0.417000       1.00800           0
     53326 TIP3     4644     TIP3     OH2      OT      -0.834000       15.9994           0
     53327 TIP3     4644     TIP3     H1       HT       0.417000       1.00800           0
     53328 TIP3     4644     TIP3     H2       HT       0.417000       1.00800           0
     53329 TIP3     4645     TIP3     OH2      OT      -0.834000       15.9994           0
     53330 TIP3     4645     TIP3     H1       HT       0.417000       1.00800           0
     53331 TIP3     4645     TIP3     H2       HT       0.417000       1.00800           0
     53332 TIP3     4646     TIP3     OH2      OT      -0.834000       15.9994           0
     53333 TIP3     4646     TIP3     H1       HT       0.417000       1.00800           0
     53334 TIP3     4646     TIP3     H2       HT       0.417000       1.00800           0
     53335 TIP3     4647     TIP3     OH2      OT      -0.834000       15.9994           0
     53336 TIP3     4647     TIP3     H1       HT       0.417000       1.00800           0
     53337 TIP3     4647     TIP3     H2       HT       0.417000       1.00800           0
     53338 TIP3     4648     TIP3     OH2      OT      -0.834000       15.9994           0
     53339 TIP3     4648     TIP3     H1       HT       0.417000       1.00800           0
     53340 TIP3     4648     TIP3     H2       HT       0.417000       1.00800           0
     53341 TIP3     4649     TIP3     OH2      OT      -0.834000       15.9994           0
     53342 TIP3     4649     TIP3     H1       HT       0.417000       1.00800           0
     53343 TIP3     4649     TIP3     H2       HT       0.417000       1.00800           0
     53344 TIP3     4650     TIP3     OH2      OT      -0.834000       15.9994           0
     53345 TIP3     4650     TIP3     H1       HT       0.417000       1.00800           0
     53346 TIP3     4650     TIP3     H2       HT       0.417000       1.00800           0
     53347 TIP3     4651     TIP3     OH2      OT      -0.834000       15.9994           0
     53348 TIP3     4651     TIP3     H1       HT       0.417000       1.00800           0
     53349 TIP3     4651     TIP3     H2       HT       0.417000       1.00800           0
     53350 TIP3     4652     TIP3     OH2      OT      -0.834000       15.9994           0
     53351 TIP3     4652     TIP3     H1       HT       0.417000       1.00800           0
     53352 TIP3     4652     TIP3     H2       HT       0.417000       1.00800           0
     53353 TIP3     4653     TIP3     OH2      OT      -0.834000       15.9994           0
     53354 TIP3     4653     TIP3     H1       HT       0.417000       1.00800           0
     53355 TIP3     4653     TIP3     H2       HT       0.417000       1.00800           0
     53356 TIP3     4654     TIP3     OH2      OT      -0.834000       15.9994           0
     53357 TIP3     4654     TIP3     H1       HT       0.417000       1.00800           0
     53358 TIP3     4654     TIP3     H2       HT       0.417000       1.00800           0
     53359 TIP3     4655     TIP3     OH2      OT      -0.834000       15.9994           0
     53360 TIP3     4655     TIP3     H1       HT       0.417000       1.00800           0
     53361 TIP3     4655     TIP3     H2       HT       0.417000       1.00800           0
     53362 TIP3     4656     TIP3     OH2      OT      -0.834000       15.9994           0
     53363 TIP3     4656     TIP3     H1       HT       0.417000       1.00800           0
     53364 TIP3     4656     TIP3     H2       HT       0.417000       1.00800           0
     53365 TIP3     4657     TIP3     OH2      OT      -0.834000       15.9994           0
     53366 TIP3     4657     TIP3     H1       HT       0.417000       1.00800           0
     53367 TIP3     4657     TIP3     H2       HT       0.417000       1.00800           0
     53368 TIP3     4658     TIP3     OH2      OT      -0.834000       15.9994           0
     53369 TIP3     4658     TIP3     H1       HT       0.417000       1.00800           0
     53370 TIP3     4658     TIP3     H2       HT       0.417000       1.00800           0
     53371 TIP3     4659     TIP3     OH2      OT      -0.834000       15.9994           0
     53372 TIP3     4659     TIP3     H1       HT       0.417000       1.00800           0
     53373 TIP3     4659     TIP3     H2       HT       0.417000       1.00800           0
     53374 TIP3     4660     TIP3     OH2      OT      -0.834000       15.9994           0
     53375 TIP3     4660     TIP3     H1       HT       0.417000       1.00800           0
     53376 TIP3     4660     TIP3     H2       HT       0.417000       1.00800           0
     53377 TIP3     4661     TIP3     OH2      OT      -0.834000       15.9994           0
     53378 TIP3     4661     TIP3     H1       HT       0.417000       1.00800           0
     53379 TIP3     4661     TIP3     H2       HT       0.417000       1.00800           0
     53380 TIP3     4662     TIP3     OH2      OT      -0.834000       15.9994           0
     53381 TIP3     4662     TIP3     H1       HT       0.417000       1.00800           0
     53382 TIP3     4662     TIP3     H2       HT       0.417000       1.00800           0
     53383 TIP3     4663     TIP3     OH2      OT      -0.834000       15.9994           0
     53384 TIP3     4663     TIP3     H1       HT       0.417000       1.00800           0
     53385 TIP3     4663     TIP3     H2       HT       0.417000       1.00800           0
     53386 TIP3     4664     TIP3     OH2      OT      -0.834000       15.9994           0
     53387 TIP3     4664     TIP3     H1       HT       0.417000       1.00800           0
     53388 TIP3     4664     TIP3     H2       HT       0.417000       1.00800           0
     53389 TIP3     4665     TIP3     OH2      OT      -0.834000       15.9994           0
     53390 TIP3     4665     TIP3     H1       HT       0.417000       1.00800           0
     53391 TIP3     4665     TIP3     H2       HT       0.417000       1.00800           0
     53392 TIP3     4666     TIP3     OH2      OT      -0.834000       15.9994           0
     53393 TIP3     4666     TIP3     H1       HT       0.417000       1.00800           0
     53394 TIP3     4666     TIP3     H2       HT       0.417000       1.00800           0
     53395 TIP3     4667     TIP3     OH2      OT      -0.834000       15.9994           0
     53396 TIP3     4667     TIP3     H1       HT       0.417000       1.00800           0
     53397 TIP3     4667     TIP3     H2       HT       0.417000       1.00800           0
     53398 TIP3     4668     TIP3     OH2      OT      -0.834000       15.9994           0
     53399 TIP3     4668     TIP3     H1       HT       0.417000       1.00800           0
     53400 TIP3     4668     TIP3     H2       HT       0.417000       1.00800           0
     53401 TIP3     4669     TIP3     OH2      OT      -0.834000       15.9994           0
     53402 TIP3     4669     TIP3     H1       HT       0.417000       1.00800           0
     53403 TIP3     4669     TIP3     H2       HT       0.417000       1.00800           0
     53404 TIP3     4670     TIP3     OH2      OT      -0.834000       15.9994           0
     53405 TIP3     4670     TIP3     H1       HT       0.417000       1.00800           0
     53406 TIP3     4670     TIP3     H2       HT       0.417000       1.00800           0
     53407 TIP3     4671     TIP3     OH2      OT      -0.834000       15.9994           0
     53408 TIP3     4671     TIP3     H1       HT       0.417000       1.00800           0
     53409 TIP3     4671     TIP3     H2       HT       0.417000       1.00800           0
     53410 TIP3     4672     TIP3     OH2      OT      -0.834000       15.9994           0
     53411 TIP3     4672     TIP3     H1       HT       0.417000       1.00800           0
     53412 TIP3     4672     TIP3     H2       HT       0.417000       1.00800           0
     53413 TIP3     4673     TIP3     OH2      OT      -0.834000       15.9994           0
     53414 TIP3     4673     TIP3     H1       HT       0.417000       1.00800           0
     53415 TIP3     4673     TIP3     H2       HT       0.417000       1.00800           0
     53416 TIP3     4674     TIP3     OH2      OT      -0.834000       15.9994           0
     53417 TIP3     4674     TIP3     H1       HT       0.417000       1.00800           0
     53418 TIP3     4674     TIP3     H2       HT       0.417000       1.00800           0
     53419 TIP3     4675     TIP3     OH2      OT      -0.834000       15.9994           0
     53420 TIP3     4675     TIP3     H1       HT       0.417000       1.00800           0
     53421 TIP3     4675     TIP3     H2       HT       0.417000       1.00800           0
     53422 TIP3     4676     TIP3     OH2      OT      -0.834000       15.9994           0
     53423 TIP3     4676     TIP3     H1       HT       0.417000       1.00800           0
     53424 TIP3     4676     TIP3     H2       HT       0.417000       1.00800           0
     53425 TIP3     4677     TIP3     OH2      OT      -0.834000       15.9994           0
     53426 TIP3     4677     TIP3     H1       HT       0.417000       1.00800           0
     53427 TIP3     4677     TIP3     H2       HT       0.417000       1.00800           0
     53428 TIP3     4678     TIP3     OH2      OT      -0.834000       15.9994           0
     53429 TIP3     4678     TIP3     H1       HT       0.417000       1.00800           0
     53430 TIP3     4678     TIP3     H2       HT       0.417000       1.00800           0
     53431 TIP3     4679     TIP3     OH2      OT      -0.834000       15.9994           0
     53432 TIP3     4679     TIP3     H1       HT       0.417000       1.00800           0
     53433 TIP3     4679     TIP3     H2       HT       0.417000       1.00800           0
     53434 TIP3     4680     TIP3     OH2      OT      -0.834000       15.9994           0
     53435 TIP3     4680     TIP3     H1       HT       0.417000       1.00800           0
     53436 TIP3     4680     TIP3     H2       HT       0.417000       1.00800           0
     53437 TIP3     4681     TIP3     OH2      OT      -0.834000       15.9994           0
     53438 TIP3     4681     TIP3     H1       HT       0.417000       1.00800           0
     53439 TIP3     4681     TIP3     H2       HT       0.417000       1.00800           0
     53440 TIP3     4682     TIP3     OH2      OT      -0.834000       15.9994           0
     53441 TIP3     4682     TIP3     H1       HT       0.417000       1.00800           0
     53442 TIP3     4682     TIP3     H2       HT       0.417000       1.00800           0
     53443 TIP3     4683     TIP3     OH2      OT      -0.834000       15.9994           0
     53444 TIP3     4683     TIP3     H1       HT       0.417000       1.00800           0
     53445 TIP3     4683     TIP3     H2       HT       0.417000       1.00800           0
     53446 TIP3     4684     TIP3     OH2      OT      -0.834000       15.9994           0
     53447 TIP3     4684     TIP3     H1       HT       0.417000       1.00800           0
     53448 TIP3     4684     TIP3     H2       HT       0.417000       1.00800           0
     53449 TIP3     4685     TIP3     OH2      OT      -0.834000       15.9994           0
     53450 TIP3     4685     TIP3     H1       HT       0.417000       1.00800           0
     53451 TIP3     4685     TIP3     H2       HT       0.417000       1.00800           0
     53452 TIP3     4686     TIP3     OH2      OT      -0.834000       15.9994           0
     53453 TIP3     4686     TIP3     H1       HT       0.417000       1.00800           0
     53454 TIP3     4686     TIP3     H2       HT       0.417000       1.00800           0
     53455 TIP3     4687     TIP3     OH2      OT      -0.834000       15.9994           0
     53456 TIP3     4687     TIP3     H1       HT       0.417000       1.00800           0
     53457 TIP3     4687     TIP3     H2       HT       0.417000       1.00800           0
     53458 TIP3     4688     TIP3     OH2      OT      -0.834000       15.9994           0
     53459 TIP3     4688     TIP3     H1       HT       0.417000       1.00800           0
     53460 TIP3     4688     TIP3     H2       HT       0.417000       1.00800           0
     53461 TIP3     4689     TIP3     OH2      OT      -0.834000       15.9994           0
     53462 TIP3     4689     TIP3     H1       HT       0.417000       1.00800           0
     53463 TIP3     4689     TIP3     H2       HT       0.417000       1.00800           0
     53464 TIP3     4690     TIP3     OH2      OT      -0.834000       15.9994           0
     53465 TIP3     4690     TIP3     H1       HT       0.417000       1.00800           0
     53466 TIP3     4690     TIP3     H2       HT       0.417000       1.00800           0
     53467 TIP3     4691     TIP3     OH2      OT      -0.834000       15.9994           0
     53468 TIP3     4691     TIP3     H1       HT       0.417000       1.00800           0
     53469 TIP3     4691     TIP3     H2       HT       0.417000       1.00800           0
     53470 TIP3     4692     TIP3     OH2      OT      -0.834000       15.9994           0
     53471 TIP3     4692     TIP3     H1       HT       0.417000       1.00800           0
     53472 TIP3     4692     TIP3     H2       HT       0.417000       1.00800           0
     53473 TIP3     4693     TIP3     OH2      OT      -0.834000       15.9994           0
     53474 TIP3     4693     TIP3     H1       HT       0.417000       1.00800           0
     53475 TIP3     4693     TIP3     H2       HT       0.417000       1.00800           0
     53476 TIP3     4694     TIP3     OH2      OT      -0.834000       15.9994           0
     53477 TIP3     4694     TIP3     H1       HT       0.417000       1.00800           0
     53478 TIP3     4694     TIP3     H2       HT       0.417000       1.00800           0
     53479 TIP3     4695     TIP3     OH2      OT      -0.834000       15.9994           0
     53480 TIP3     4695     TIP3     H1       HT       0.417000       1.00800           0
     53481 TIP3     4695     TIP3     H2       HT       0.417000       1.00800           0
     53482 TIP3     4696     TIP3     OH2      OT      -0.834000       15.9994           0
     53483 TIP3     4696     TIP3     H1       HT       0.417000       1.00800           0
     53484 TIP3     4696     TIP3     H2       HT       0.417000       1.00800           0
     53485 TIP3     4697     TIP3     OH2      OT      -0.834000       15.9994           0
     53486 TIP3     4697     TIP3     H1       HT       0.417000       1.00800           0
     53487 TIP3     4697     TIP3     H2       HT       0.417000       1.00800           0
     53488 TIP3     4698     TIP3     OH2      OT      -0.834000       15.9994           0
     53489 TIP3     4698     TIP3     H1       HT       0.417000       1.00800           0
     53490 TIP3     4698     TIP3     H2       HT       0.417000       1.00800           0
     53491 TIP3     4699     TIP3     OH2      OT      -0.834000       15.9994           0
     53492 TIP3     4699     TIP3     H1       HT       0.417000       1.00800           0
     53493 TIP3     4699     TIP3     H2       HT       0.417000       1.00800           0
     53494 TIP3     4700     TIP3     OH2      OT      -0.834000       15.9994           0
     53495 TIP3     4700     TIP3     H1       HT       0.417000       1.00800           0
     53496 TIP3     4700     TIP3     H2       HT       0.417000       1.00800           0
     53497 TIP3     4701     TIP3     OH2      OT      -0.834000       15.9994           0
     53498 TIP3     4701     TIP3     H1       HT       0.417000       1.00800           0
     53499 TIP3     4701     TIP3     H2       HT       0.417000       1.00800           0
     53500 TIP3     4702     TIP3     OH2      OT      -0.834000       15.9994           0
     53501 TIP3     4702     TIP3     H1       HT       0.417000       1.00800           0
     53502 TIP3     4702     TIP3     H2       HT       0.417000       1.00800           0
     53503 TIP3     4703     TIP3     OH2      OT      -0.834000       15.9994           0
     53504 TIP3     4703     TIP3     H1       HT       0.417000       1.00800           0
     53505 TIP3     4703     TIP3     H2       HT       0.417000       1.00800           0
     53506 TIP3     4704     TIP3     OH2      OT      -0.834000       15.9994           0
     53507 TIP3     4704     TIP3     H1       HT       0.417000       1.00800           0
     53508 TIP3     4704     TIP3     H2       HT       0.417000       1.00800           0
     53509 TIP3     4705     TIP3     OH2      OT      -0.834000       15.9994           0
     53510 TIP3     4705     TIP3     H1       HT       0.417000       1.00800           0
     53511 TIP3     4705     TIP3     H2       HT       0.417000       1.00800           0
     53512 TIP3     4706     TIP3     OH2      OT      -0.834000       15.9994           0
     53513 TIP3     4706     TIP3     H1       HT       0.417000       1.00800           0
     53514 TIP3     4706     TIP3     H2       HT       0.417000       1.00800           0
     53515 TIP3     4707     TIP3     OH2      OT      -0.834000       15.9994           0
     53516 TIP3     4707     TIP3     H1       HT       0.417000       1.00800           0
     53517 TIP3     4707     TIP3     H2       HT       0.417000       1.00800           0
     53518 TIP3     4708     TIP3     OH2      OT      -0.834000       15.9994           0
     53519 TIP3     4708     TIP3     H1       HT       0.417000       1.00800           0
     53520 TIP3     4708     TIP3     H2       HT       0.417000       1.00800           0
     53521 TIP3     4709     TIP3     OH2      OT      -0.834000       15.9994           0
     53522 TIP3     4709     TIP3     H1       HT       0.417000       1.00800           0
     53523 TIP3     4709     TIP3     H2       HT       0.417000       1.00800           0
     53524 TIP3     4710     TIP3     OH2      OT      -0.834000       15.9994           0
     53525 TIP3     4710     TIP3     H1       HT       0.417000       1.00800           0
     53526 TIP3     4710     TIP3     H2       HT       0.417000       1.00800           0
     53527 TIP3     4711     TIP3     OH2      OT      -0.834000       15.9994           0
     53528 TIP3     4711     TIP3     H1       HT       0.417000       1.00800           0
     53529 TIP3     4711     TIP3     H2       HT       0.417000       1.00800           0
     53530 TIP3     4712     TIP3     OH2      OT      -0.834000       15.9994           0
     53531 TIP3     4712     TIP3     H1       HT       0.417000       1.00800           0
     53532 TIP3     4712     TIP3     H2       HT       0.417000       1.00800           0
     53533 TIP3     4713     TIP3     OH2      OT      -0.834000       15.9994           0
     53534 TIP3     4713     TIP3     H1       HT       0.417000       1.00800           0
     53535 TIP3     4713     TIP3     H2       HT       0.417000       1.00800           0
     53536 TIP3     4714     TIP3     OH2      OT      -0.834000       15.9994           0
     53537 TIP3     4714     TIP3     H1       HT       0.417000       1.00800           0
     53538 TIP3     4714     TIP3     H2       HT       0.417000       1.00800           0
     53539 TIP3     4715     TIP3     OH2      OT      -0.834000       15.9994           0
     53540 TIP3     4715     TIP3     H1       HT       0.417000       1.00800           0
     53541 TIP3     4715     TIP3     H2       HT       0.417000       1.00800           0
     53542 TIP3     4716     TIP3     OH2      OT      -0.834000       15.9994           0
     53543 TIP3     4716     TIP3     H1       HT       0.417000       1.00800           0
     53544 TIP3     4716     TIP3     H2       HT       0.417000       1.00800           0
     53545 TIP3     4717     TIP3     OH2      OT      -0.834000       15.9994           0
     53546 TIP3     4717     TIP3     H1       HT       0.417000       1.00800           0
     53547 TIP3     4717     TIP3     H2       HT       0.417000       1.00800           0
     53548 TIP3     4718     TIP3     OH2      OT      -0.834000       15.9994           0
     53549 TIP3     4718     TIP3     H1       HT       0.417000       1.00800           0
     53550 TIP3     4718     TIP3     H2       HT       0.417000       1.00800           0
     53551 TIP3     4719     TIP3     OH2      OT      -0.834000       15.9994           0
     53552 TIP3     4719     TIP3     H1       HT       0.417000       1.00800           0
     53553 TIP3     4719     TIP3     H2       HT       0.417000       1.00800           0
     53554 TIP3     4720     TIP3     OH2      OT      -0.834000       15.9994           0
     53555 TIP3     4720     TIP3     H1       HT       0.417000       1.00800           0
     53556 TIP3     4720     TIP3     H2       HT       0.417000       1.00800           0
     53557 TIP3     4721     TIP3     OH2      OT      -0.834000       15.9994           0
     53558 TIP3     4721     TIP3     H1       HT       0.417000       1.00800           0
     53559 TIP3     4721     TIP3     H2       HT       0.417000       1.00800           0
     53560 TIP3     4722     TIP3     OH2      OT      -0.834000       15.9994           0
     53561 TIP3     4722     TIP3     H1       HT       0.417000       1.00800           0
     53562 TIP3     4722     TIP3     H2       HT       0.417000       1.00800           0
     53563 TIP3     4723     TIP3     OH2      OT      -0.834000       15.9994           0
     53564 TIP3     4723     TIP3     H1       HT       0.417000       1.00800           0
     53565 TIP3     4723     TIP3     H2       HT       0.417000       1.00800           0
     53566 TIP3     4724     TIP3     OH2      OT      -0.834000       15.9994           0
     53567 TIP3     4724     TIP3     H1       HT       0.417000       1.00800           0
     53568 TIP3     4724     TIP3     H2       HT       0.417000       1.00800           0
     53569 TIP3     4725     TIP3     OH2      OT      -0.834000       15.9994           0
     53570 TIP3     4725     TIP3     H1       HT       0.417000       1.00800           0
     53571 TIP3     4725     TIP3     H2       HT       0.417000       1.00800           0
     53572 TIP3     4726     TIP3     OH2      OT      -0.834000       15.9994           0
     53573 TIP3     4726     TIP3     H1       HT       0.417000       1.00800           0
     53574 TIP3     4726     TIP3     H2       HT       0.417000       1.00800           0
     53575 TIP3     4727     TIP3     OH2      OT      -0.834000       15.9994           0
     53576 TIP3     4727     TIP3     H1       HT       0.417000       1.00800           0
     53577 TIP3     4727     TIP3     H2       HT       0.417000       1.00800           0
     53578 TIP3     4728     TIP3     OH2      OT      -0.834000       15.9994           0
     53579 TIP3     4728     TIP3     H1       HT       0.417000       1.00800           0
     53580 TIP3     4728     TIP3     H2       HT       0.417000       1.00800           0
     53581 TIP3     4729     TIP3     OH2      OT      -0.834000       15.9994           0
     53582 TIP3     4729     TIP3     H1       HT       0.417000       1.00800           0
     53583 TIP3     4729     TIP3     H2       HT       0.417000       1.00800           0
     53584 TIP3     4730     TIP3     OH2      OT      -0.834000       15.9994           0
     53585 TIP3     4730     TIP3     H1       HT       0.417000       1.00800           0
     53586 TIP3     4730     TIP3     H2       HT       0.417000       1.00800           0
     53587 TIP3     4731     TIP3     OH2      OT      -0.834000       15.9994           0
     53588 TIP3     4731     TIP3     H1       HT       0.417000       1.00800           0
     53589 TIP3     4731     TIP3     H2       HT       0.417000       1.00800           0
     53590 TIP3     4732     TIP3     OH2      OT      -0.834000       15.9994           0
     53591 TIP3     4732     TIP3     H1       HT       0.417000       1.00800           0
     53592 TIP3     4732     TIP3     H2       HT       0.417000       1.00800           0
     53593 TIP3     4733     TIP3     OH2      OT      -0.834000       15.9994           0
     53594 TIP3     4733     TIP3     H1       HT       0.417000       1.00800           0
     53595 TIP3     4733     TIP3     H2       HT       0.417000       1.00800           0
     53596 TIP3     4734     TIP3     OH2      OT      -0.834000       15.9994           0
     53597 TIP3     4734     TIP3     H1       HT       0.417000       1.00800           0
     53598 TIP3     4734     TIP3     H2       HT       0.417000       1.00800           0
     53599 TIP3     4735     TIP3     OH2      OT      -0.834000       15.9994           0
     53600 TIP3     4735     TIP3     H1       HT       0.417000       1.00800           0
     53601 TIP3     4735     TIP3     H2       HT       0.417000       1.00800           0
     53602 TIP3     4736     TIP3     OH2      OT      -0.834000       15.9994           0
     53603 TIP3     4736     TIP3     H1       HT       0.417000       1.00800           0
     53604 TIP3     4736     TIP3     H2       HT       0.417000       1.00800           0
     53605 TIP3     4737     TIP3     OH2      OT      -0.834000       15.9994           0
     53606 TIP3     4737     TIP3     H1       HT       0.417000       1.00800           0
     53607 TIP3     4737     TIP3     H2       HT       0.417000       1.00800           0
     53608 TIP3     4738     TIP3     OH2      OT      -0.834000       15.9994           0
     53609 TIP3     4738     TIP3     H1       HT       0.417000       1.00800           0
     53610 TIP3     4738     TIP3     H2       HT       0.417000       1.00800           0
     53611 TIP3     4739     TIP3     OH2      OT      -0.834000       15.9994           0
     53612 TIP3     4739     TIP3     H1       HT       0.417000       1.00800           0
     53613 TIP3     4739     TIP3     H2       HT       0.417000       1.00800           0
     53614 TIP3     4740     TIP3     OH2      OT      -0.834000       15.9994           0
     53615 TIP3     4740     TIP3     H1       HT       0.417000       1.00800           0
     53616 TIP3     4740     TIP3     H2       HT       0.417000       1.00800           0
     53617 TIP3     4741     TIP3     OH2      OT      -0.834000       15.9994           0
     53618 TIP3     4741     TIP3     H1       HT       0.417000       1.00800           0
     53619 TIP3     4741     TIP3     H2       HT       0.417000       1.00800           0
     53620 TIP3     4742     TIP3     OH2      OT      -0.834000       15.9994           0
     53621 TIP3     4742     TIP3     H1       HT       0.417000       1.00800           0
     53622 TIP3     4742     TIP3     H2       HT       0.417000       1.00800           0
     53623 TIP3     4743     TIP3     OH2      OT      -0.834000       15.9994           0
     53624 TIP3     4743     TIP3     H1       HT       0.417000       1.00800           0
     53625 TIP3     4743     TIP3     H2       HT       0.417000       1.00800           0
     53626 TIP3     4744     TIP3     OH2      OT      -0.834000       15.9994           0
     53627 TIP3     4744     TIP3     H1       HT       0.417000       1.00800           0
     53628 TIP3     4744     TIP3     H2       HT       0.417000       1.00800           0
     53629 TIP3     4745     TIP3     OH2      OT      -0.834000       15.9994           0
     53630 TIP3     4745     TIP3     H1       HT       0.417000       1.00800           0
     53631 TIP3     4745     TIP3     H2       HT       0.417000       1.00800           0
     53632 TIP3     4746     TIP3     OH2      OT      -0.834000       15.9994           0
     53633 TIP3     4746     TIP3     H1       HT       0.417000       1.00800           0
     53634 TIP3     4746     TIP3     H2       HT       0.417000       1.00800           0
     53635 TIP3     4747     TIP3     OH2      OT      -0.834000       15.9994           0
     53636 TIP3     4747     TIP3     H1       HT       0.417000       1.00800           0
     53637 TIP3     4747     TIP3     H2       HT       0.417000       1.00800           0
     53638 TIP3     4748     TIP3     OH2      OT      -0.834000       15.9994           0
     53639 TIP3     4748     TIP3     H1       HT       0.417000       1.00800           0
     53640 TIP3     4748     TIP3     H2       HT       0.417000       1.00800           0
     53641 TIP3     4749     TIP3     OH2      OT      -0.834000       15.9994           0
     53642 TIP3     4749     TIP3     H1       HT       0.417000       1.00800           0
     53643 TIP3     4749     TIP3     H2       HT       0.417000       1.00800           0
     53644 TIP3     4750     TIP3     OH2      OT      -0.834000       15.9994           0
     53645 TIP3     4750     TIP3     H1       HT       0.417000       1.00800           0
     53646 TIP3     4750     TIP3     H2       HT       0.417000       1.00800           0
     53647 TIP3     4751     TIP3     OH2      OT      -0.834000       15.9994           0
     53648 TIP3     4751     TIP3     H1       HT       0.417000       1.00800           0
     53649 TIP3     4751     TIP3     H2       HT       0.417000       1.00800           0
     53650 TIP3     4752     TIP3     OH2      OT      -0.834000       15.9994           0
     53651 TIP3     4752     TIP3     H1       HT       0.417000       1.00800           0
     53652 TIP3     4752     TIP3     H2       HT       0.417000       1.00800           0
     53653 TIP3     4753     TIP3     OH2      OT      -0.834000       15.9994           0
     53654 TIP3     4753     TIP3     H1       HT       0.417000       1.00800           0
     53655 TIP3     4753     TIP3     H2       HT       0.417000       1.00800           0
     53656 TIP3     4754     TIP3     OH2      OT      -0.834000       15.9994           0
     53657 TIP3     4754     TIP3     H1       HT       0.417000       1.00800           0
     53658 TIP3     4754     TIP3     H2       HT       0.417000       1.00800           0
     53659 TIP3     4755     TIP3     OH2      OT      -0.834000       15.9994           0
     53660 TIP3     4755     TIP3     H1       HT       0.417000       1.00800           0
     53661 TIP3     4755     TIP3     H2       HT       0.417000       1.00800           0
     53662 TIP3     4756     TIP3     OH2      OT      -0.834000       15.9994           0
     53663 TIP3     4756     TIP3     H1       HT       0.417000       1.00800           0
     53664 TIP3     4756     TIP3     H2       HT       0.417000       1.00800           0
     53665 TIP3     4757     TIP3     OH2      OT      -0.834000       15.9994           0
     53666 TIP3     4757     TIP3     H1       HT       0.417000       1.00800           0
     53667 TIP3     4757     TIP3     H2       HT       0.417000       1.00800           0
     53668 TIP3     4758     TIP3     OH2      OT      -0.834000       15.9994           0
     53669 TIP3     4758     TIP3     H1       HT       0.417000       1.00800           0
     53670 TIP3     4758     TIP3     H2       HT       0.417000       1.00800           0
     53671 TIP3     4759     TIP3     OH2      OT      -0.834000       15.9994           0
     53672 TIP3     4759     TIP3     H1       HT       0.417000       1.00800           0
     53673 TIP3     4759     TIP3     H2       HT       0.417000       1.00800           0
     53674 TIP3     4760     TIP3     OH2      OT      -0.834000       15.9994           0
     53675 TIP3     4760     TIP3     H1       HT       0.417000       1.00800           0
     53676 TIP3     4760     TIP3     H2       HT       0.417000       1.00800           0
     53677 TIP3     4761     TIP3     OH2      OT      -0.834000       15.9994           0
     53678 TIP3     4761     TIP3     H1       HT       0.417000       1.00800           0
     53679 TIP3     4761     TIP3     H2       HT       0.417000       1.00800           0
     53680 TIP3     4762     TIP3     OH2      OT      -0.834000       15.9994           0
     53681 TIP3     4762     TIP3     H1       HT       0.417000       1.00800           0
     53682 TIP3     4762     TIP3     H2       HT       0.417000       1.00800           0
     53683 TIP3     4763     TIP3     OH2      OT      -0.834000       15.9994           0
     53684 TIP3     4763     TIP3     H1       HT       0.417000       1.00800           0
     53685 TIP3     4763     TIP3     H2       HT       0.417000       1.00800           0
     53686 TIP3     4764     TIP3     OH2      OT      -0.834000       15.9994           0
     53687 TIP3     4764     TIP3     H1       HT       0.417000       1.00800           0
     53688 TIP3     4764     TIP3     H2       HT       0.417000       1.00800           0
     53689 TIP3     4765     TIP3     OH2      OT      -0.834000       15.9994           0
     53690 TIP3     4765     TIP3     H1       HT       0.417000       1.00800           0
     53691 TIP3     4765     TIP3     H2       HT       0.417000       1.00800           0
     53692 TIP3     4766     TIP3     OH2      OT      -0.834000       15.9994           0
     53693 TIP3     4766     TIP3     H1       HT       0.417000       1.00800           0
     53694 TIP3     4766     TIP3     H2       HT       0.417000       1.00800           0
     53695 TIP3     4767     TIP3     OH2      OT      -0.834000       15.9994           0
     53696 TIP3     4767     TIP3     H1       HT       0.417000       1.00800           0
     53697 TIP3     4767     TIP3     H2       HT       0.417000       1.00800           0
     53698 TIP3     4768     TIP3     OH2      OT      -0.834000       15.9994           0
     53699 TIP3     4768     TIP3     H1       HT       0.417000       1.00800           0
     53700 TIP3     4768     TIP3     H2       HT       0.417000       1.00800           0
     53701 TIP3     4769     TIP3     OH2      OT      -0.834000       15.9994           0
     53702 TIP3     4769     TIP3     H1       HT       0.417000       1.00800           0
     53703 TIP3     4769     TIP3     H2       HT       0.417000       1.00800           0
     53704 TIP3     4770     TIP3     OH2      OT      -0.834000       15.9994           0
     53705 TIP3     4770     TIP3     H1       HT       0.417000       1.00800           0
     53706 TIP3     4770     TIP3     H2       HT       0.417000       1.00800           0
     53707 TIP3     4771     TIP3     OH2      OT      -0.834000       15.9994           0
     53708 TIP3     4771     TIP3     H1       HT       0.417000       1.00800           0
     53709 TIP3     4771     TIP3     H2       HT       0.417000       1.00800           0
     53710 TIP3     4772     TIP3     OH2      OT      -0.834000       15.9994           0
     53711 TIP3     4772     TIP3     H1       HT       0.417000       1.00800           0
     53712 TIP3     4772     TIP3     H2       HT       0.417000       1.00800           0
     53713 TIP3     4773     TIP3     OH2      OT      -0.834000       15.9994           0
     53714 TIP3     4773     TIP3     H1       HT       0.417000       1.00800           0
     53715 TIP3     4773     TIP3     H2       HT       0.417000       1.00800           0
     53716 TIP3     4774     TIP3     OH2      OT      -0.834000       15.9994           0
     53717 TIP3     4774     TIP3     H1       HT       0.417000       1.00800           0
     53718 TIP3     4774     TIP3     H2       HT       0.417000       1.00800           0
     53719 TIP3     4775     TIP3     OH2      OT      -0.834000       15.9994           0
     53720 TIP3     4775     TIP3     H1       HT       0.417000       1.00800           0
     53721 TIP3     4775     TIP3     H2       HT       0.417000       1.00800           0
     53722 TIP3     4776     TIP3     OH2      OT      -0.834000       15.9994           0
     53723 TIP3     4776     TIP3     H1       HT       0.417000       1.00800           0
     53724 TIP3     4776     TIP3     H2       HT       0.417000       1.00800           0
     53725 TIP3     4777     TIP3     OH2      OT      -0.834000       15.9994           0
     53726 TIP3     4777     TIP3     H1       HT       0.417000       1.00800           0
     53727 TIP3     4777     TIP3     H2       HT       0.417000       1.00800           0
     53728 TIP3     4778     TIP3     OH2      OT      -0.834000       15.9994           0
     53729 TIP3     4778     TIP3     H1       HT       0.417000       1.00800           0
     53730 TIP3     4778     TIP3     H2       HT       0.417000       1.00800           0
     53731 TIP3     4779     TIP3     OH2      OT      -0.834000       15.9994           0
     53732 TIP3     4779     TIP3     H1       HT       0.417000       1.00800           0
     53733 TIP3     4779     TIP3     H2       HT       0.417000       1.00800           0
     53734 TIP3     4780     TIP3     OH2      OT      -0.834000       15.9994           0
     53735 TIP3     4780     TIP3     H1       HT       0.417000       1.00800           0
     53736 TIP3     4780     TIP3     H2       HT       0.417000       1.00800           0
     53737 TIP3     4781     TIP3     OH2      OT      -0.834000       15.9994           0
     53738 TIP3     4781     TIP3     H1       HT       0.417000       1.00800           0
     53739 TIP3     4781     TIP3     H2       HT       0.417000       1.00800           0
     53740 TIP3     4782     TIP3     OH2      OT      -0.834000       15.9994           0
     53741 TIP3     4782     TIP3     H1       HT       0.417000       1.00800           0
     53742 TIP3     4782     TIP3     H2       HT       0.417000       1.00800           0
     53743 TIP3     4783     TIP3     OH2      OT      -0.834000       15.9994           0
     53744 TIP3     4783     TIP3     H1       HT       0.417000       1.00800           0
     53745 TIP3     4783     TIP3     H2       HT       0.417000       1.00800           0
     53746 TIP3     4784     TIP3     OH2      OT      -0.834000       15.9994           0
     53747 TIP3     4784     TIP3     H1       HT       0.417000       1.00800           0
     53748 TIP3     4784     TIP3     H2       HT       0.417000       1.00800           0
     53749 TIP3     4785     TIP3     OH2      OT      -0.834000       15.9994           0
     53750 TIP3     4785     TIP3     H1       HT       0.417000       1.00800           0
     53751 TIP3     4785     TIP3     H2       HT       0.417000       1.00800           0
     53752 TIP3     4786     TIP3     OH2      OT      -0.834000       15.9994           0
     53753 TIP3     4786     TIP3     H1       HT       0.417000       1.00800           0
     53754 TIP3     4786     TIP3     H2       HT       0.417000       1.00800           0
     53755 TIP3     4787     TIP3     OH2      OT      -0.834000       15.9994           0
     53756 TIP3     4787     TIP3     H1       HT       0.417000       1.00800           0
     53757 TIP3     4787     TIP3     H2       HT       0.417000       1.00800           0
     53758 TIP3     4788     TIP3     OH2      OT      -0.834000       15.9994           0
     53759 TIP3     4788     TIP3     H1       HT       0.417000       1.00800           0
     53760 TIP3     4788     TIP3     H2       HT       0.417000       1.00800           0
     53761 TIP3     4789     TIP3     OH2      OT      -0.834000       15.9994           0
     53762 TIP3     4789     TIP3     H1       HT       0.417000       1.00800           0
     53763 TIP3     4789     TIP3     H2       HT       0.417000       1.00800           0
     53764 TIP3     4790     TIP3     OH2      OT      -0.834000       15.9994           0
     53765 TIP3     4790     TIP3     H1       HT       0.417000       1.00800           0
     53766 TIP3     4790     TIP3     H2       HT       0.417000       1.00800           0
     53767 TIP3     4791     TIP3     OH2      OT      -0.834000       15.9994           0
     53768 TIP3     4791     TIP3     H1       HT       0.417000       1.00800           0
     53769 TIP3     4791     TIP3     H2       HT       0.417000       1.00800           0
     53770 TIP3     4792     TIP3     OH2      OT      -0.834000       15.9994           0
     53771 TIP3     4792     TIP3     H1       HT       0.417000       1.00800           0
     53772 TIP3     4792     TIP3     H2       HT       0.417000       1.00800           0
     53773 TIP3     4793     TIP3     OH2      OT      -0.834000       15.9994           0
     53774 TIP3     4793     TIP3     H1       HT       0.417000       1.00800           0
     53775 TIP3     4793     TIP3     H2       HT       0.417000       1.00800           0
     53776 TIP3     4794     TIP3     OH2      OT      -0.834000       15.9994           0
     53777 TIP3     4794     TIP3     H1       HT       0.417000       1.00800           0
     53778 TIP3     4794     TIP3     H2       HT       0.417000       1.00800           0
     53779 TIP3     4795     TIP3     OH2      OT      -0.834000       15.9994           0
     53780 TIP3     4795     TIP3     H1       HT       0.417000       1.00800           0
     53781 TIP3     4795     TIP3     H2       HT       0.417000       1.00800           0
     53782 TIP3     4796     TIP3     OH2      OT      -0.834000       15.9994           0
     53783 TIP3     4796     TIP3     H1       HT       0.417000       1.00800           0
     53784 TIP3     4796     TIP3     H2       HT       0.417000       1.00800           0
     53785 TIP3     4797     TIP3     OH2      OT      -0.834000       15.9994           0
     53786 TIP3     4797     TIP3     H1       HT       0.417000       1.00800           0
     53787 TIP3     4797     TIP3     H2       HT       0.417000       1.00800           0
     53788 TIP3     4798     TIP3     OH2      OT      -0.834000       15.9994           0
     53789 TIP3     4798     TIP3     H1       HT       0.417000       1.00800           0
     53790 TIP3     4798     TIP3     H2       HT       0.417000       1.00800           0
     53791 TIP3     4799     TIP3     OH2      OT      -0.834000       15.9994           0
     53792 TIP3     4799     TIP3     H1       HT       0.417000       1.00800           0
     53793 TIP3     4799     TIP3     H2       HT       0.417000       1.00800           0
     53794 TIP3     4800     TIP3     OH2      OT      -0.834000       15.9994           0
     53795 TIP3     4800     TIP3     H1       HT       0.417000       1.00800           0
     53796 TIP3     4800     TIP3     H2       HT       0.417000       1.00800           0
     53797 TIP3     4801     TIP3     OH2      OT      -0.834000       15.9994           0
     53798 TIP3     4801     TIP3     H1       HT       0.417000       1.00800           0
     53799 TIP3     4801     TIP3     H2       HT       0.417000       1.00800           0
     53800 TIP3     4802     TIP3     OH2      OT      -0.834000       15.9994           0
     53801 TIP3     4802     TIP3     H1       HT       0.417000       1.00800           0
     53802 TIP3     4802     TIP3     H2       HT       0.417000       1.00800           0
     53803 TIP3     4803     TIP3     OH2      OT      -0.834000       15.9994           0
     53804 TIP3     4803     TIP3     H1       HT       0.417000       1.00800           0
     53805 TIP3     4803     TIP3     H2       HT       0.417000       1.00800           0
     53806 TIP3     4804     TIP3     OH2      OT      -0.834000       15.9994           0
     53807 TIP3     4804     TIP3     H1       HT       0.417000       1.00800           0
     53808 TIP3     4804     TIP3     H2       HT       0.417000       1.00800           0
     53809 TIP3     4805     TIP3     OH2      OT      -0.834000       15.9994           0
     53810 TIP3     4805     TIP3     H1       HT       0.417000       1.00800           0
     53811 TIP3     4805     TIP3     H2       HT       0.417000       1.00800           0
     53812 TIP3     4806     TIP3     OH2      OT      -0.834000       15.9994           0
     53813 TIP3     4806     TIP3     H1       HT       0.417000       1.00800           0
     53814 TIP3     4806     TIP3     H2       HT       0.417000       1.00800           0
     53815 TIP3     4807     TIP3     OH2      OT      -0.834000       15.9994           0
     53816 TIP3     4807     TIP3     H1       HT       0.417000       1.00800           0
     53817 TIP3     4807     TIP3     H2       HT       0.417000       1.00800           0
     53818 TIP3     4808     TIP3     OH2      OT      -0.834000       15.9994           0
     53819 TIP3     4808     TIP3     H1       HT       0.417000       1.00800           0
     53820 TIP3     4808     TIP3     H2       HT       0.417000       1.00800           0
     53821 TIP3     4809     TIP3     OH2      OT      -0.834000       15.9994           0
     53822 TIP3     4809     TIP3     H1       HT       0.417000       1.00800           0
     53823 TIP3     4809     TIP3     H2       HT       0.417000       1.00800           0
     53824 TIP3     4810     TIP3     OH2      OT      -0.834000       15.9994           0
     53825 TIP3     4810     TIP3     H1       HT       0.417000       1.00800           0
     53826 TIP3     4810     TIP3     H2       HT       0.417000       1.00800           0
     53827 TIP3     4811     TIP3     OH2      OT      -0.834000       15.9994           0
     53828 TIP3     4811     TIP3     H1       HT       0.417000       1.00800           0
     53829 TIP3     4811     TIP3     H2       HT       0.417000       1.00800           0
     53830 TIP3     4812     TIP3     OH2      OT      -0.834000       15.9994           0
     53831 TIP3     4812     TIP3     H1       HT       0.417000       1.00800           0
     53832 TIP3     4812     TIP3     H2       HT       0.417000       1.00800           0
     53833 TIP3     4813     TIP3     OH2      OT      -0.834000       15.9994           0
     53834 TIP3     4813     TIP3     H1       HT       0.417000       1.00800           0
     53835 TIP3     4813     TIP3     H2       HT       0.417000       1.00800           0
     53836 TIP3     4814     TIP3     OH2      OT      -0.834000       15.9994           0
     53837 TIP3     4814     TIP3     H1       HT       0.417000       1.00800           0
     53838 TIP3     4814     TIP3     H2       HT       0.417000       1.00800           0
     53839 TIP3     4815     TIP3     OH2      OT      -0.834000       15.9994           0
     53840 TIP3     4815     TIP3     H1       HT       0.417000       1.00800           0
     53841 TIP3     4815     TIP3     H2       HT       0.417000       1.00800           0
     53842 TIP3     4816     TIP3     OH2      OT      -0.834000       15.9994           0
     53843 TIP3     4816     TIP3     H1       HT       0.417000       1.00800           0
     53844 TIP3     4816     TIP3     H2       HT       0.417000       1.00800           0
     53845 TIP3     4817     TIP3     OH2      OT      -0.834000       15.9994           0
     53846 TIP3     4817     TIP3     H1       HT       0.417000       1.00800           0
     53847 TIP3     4817     TIP3     H2       HT       0.417000       1.00800           0
     53848 TIP3     4818     TIP3     OH2      OT      -0.834000       15.9994           0
     53849 TIP3     4818     TIP3     H1       HT       0.417000       1.00800           0
     53850 TIP3     4818     TIP3     H2       HT       0.417000       1.00800           0
     53851 TIP3     4819     TIP3     OH2      OT      -0.834000       15.9994           0
     53852 TIP3     4819     TIP3     H1       HT       0.417000       1.00800           0
     53853 TIP3     4819     TIP3     H2       HT       0.417000       1.00800           0
     53854 TIP3     4820     TIP3     OH2      OT      -0.834000       15.9994           0
     53855 TIP3     4820     TIP3     H1       HT       0.417000       1.00800           0
     53856 TIP3     4820     TIP3     H2       HT       0.417000       1.00800           0
     53857 TIP3     4821     TIP3     OH2      OT      -0.834000       15.9994           0
     53858 TIP3     4821     TIP3     H1       HT       0.417000       1.00800           0
     53859 TIP3     4821     TIP3     H2       HT       0.417000       1.00800           0
     53860 TIP3     4822     TIP3     OH2      OT      -0.834000       15.9994           0
     53861 TIP3     4822     TIP3     H1       HT       0.417000       1.00800           0
     53862 TIP3     4822     TIP3     H2       HT       0.417000       1.00800           0
     53863 TIP3     4823     TIP3     OH2      OT      -0.834000       15.9994           0
     53864 TIP3     4823     TIP3     H1       HT       0.417000       1.00800           0
     53865 TIP3     4823     TIP3     H2       HT       0.417000       1.00800           0
     53866 TIP3     4824     TIP3     OH2      OT      -0.834000       15.9994           0
     53867 TIP3     4824     TIP3     H1       HT       0.417000       1.00800           0
     53868 TIP3     4824     TIP3     H2       HT       0.417000       1.00800           0
     53869 TIP3     4825     TIP3     OH2      OT      -0.834000       15.9994           0
     53870 TIP3     4825     TIP3     H1       HT       0.417000       1.00800           0
     53871 TIP3     4825     TIP3     H2       HT       0.417000       1.00800           0
     53872 TIP3     4826     TIP3     OH2      OT      -0.834000       15.9994           0
     53873 TIP3     4826     TIP3     H1       HT       0.417000       1.00800           0
     53874 TIP3     4826     TIP3     H2       HT       0.417000       1.00800           0
     53875 TIP3     4827     TIP3     OH2      OT      -0.834000       15.9994           0
     53876 TIP3     4827     TIP3     H1       HT       0.417000       1.00800           0
     53877 TIP3     4827     TIP3     H2       HT       0.417000       1.00800           0
     53878 TIP3     4828     TIP3     OH2      OT      -0.834000       15.9994           0
     53879 TIP3     4828     TIP3     H1       HT       0.417000       1.00800           0
     53880 TIP3     4828     TIP3     H2       HT       0.417000       1.00800           0
     53881 TIP3     4829     TIP3     OH2      OT      -0.834000       15.9994           0
     53882 TIP3     4829     TIP3     H1       HT       0.417000       1.00800           0
     53883 TIP3     4829     TIP3     H2       HT       0.417000       1.00800           0
     53884 TIP3     4830     TIP3     OH2      OT      -0.834000       15.9994           0
     53885 TIP3     4830     TIP3     H1       HT       0.417000       1.00800           0
     53886 TIP3     4830     TIP3     H2       HT       0.417000       1.00800           0
     53887 TIP3     4831     TIP3     OH2      OT      -0.834000       15.9994           0
     53888 TIP3     4831     TIP3     H1       HT       0.417000       1.00800           0
     53889 TIP3     4831     TIP3     H2       HT       0.417000       1.00800           0
     53890 TIP3     4832     TIP3     OH2      OT      -0.834000       15.9994           0
     53891 TIP3     4832     TIP3     H1       HT       0.417000       1.00800           0
     53892 TIP3     4832     TIP3     H2       HT       0.417000       1.00800           0
     53893 TIP3     4833     TIP3     OH2      OT      -0.834000       15.9994           0
     53894 TIP3     4833     TIP3     H1       HT       0.417000       1.00800           0
     53895 TIP3     4833     TIP3     H2       HT       0.417000       1.00800           0
     53896 TIP3     4834     TIP3     OH2      OT      -0.834000       15.9994           0
     53897 TIP3     4834     TIP3     H1       HT       0.417000       1.00800           0
     53898 TIP3     4834     TIP3     H2       HT       0.417000       1.00800           0
     53899 TIP3     4835     TIP3     OH2      OT      -0.834000       15.9994           0
     53900 TIP3     4835     TIP3     H1       HT       0.417000       1.00800           0
     53901 TIP3     4835     TIP3     H2       HT       0.417000       1.00800           0
     53902 TIP3     4836     TIP3     OH2      OT      -0.834000       15.9994           0
     53903 TIP3     4836     TIP3     H1       HT       0.417000       1.00800           0
     53904 TIP3     4836     TIP3     H2       HT       0.417000       1.00800           0
     53905 TIP3     4837     TIP3     OH2      OT      -0.834000       15.9994           0
     53906 TIP3     4837     TIP3     H1       HT       0.417000       1.00800           0
     53907 TIP3     4837     TIP3     H2       HT       0.417000       1.00800           0
     53908 TIP3     4838     TIP3     OH2      OT      -0.834000       15.9994           0
     53909 TIP3     4838     TIP3     H1       HT       0.417000       1.00800           0
     53910 TIP3     4838     TIP3     H2       HT       0.417000       1.00800           0
     53911 TIP3     4839     TIP3     OH2      OT      -0.834000       15.9994           0
     53912 TIP3     4839     TIP3     H1       HT       0.417000       1.00800           0
     53913 TIP3     4839     TIP3     H2       HT       0.417000       1.00800           0
     53914 TIP3     4840     TIP3     OH2      OT      -0.834000       15.9994           0
     53915 TIP3     4840     TIP3     H1       HT       0.417000       1.00800           0
     53916 TIP3     4840     TIP3     H2       HT       0.417000       1.00800           0
     53917 TIP3     4841     TIP3     OH2      OT      -0.834000       15.9994           0
     53918 TIP3     4841     TIP3     H1       HT       0.417000       1.00800           0
     53919 TIP3     4841     TIP3     H2       HT       0.417000       1.00800           0
     53920 TIP3     4842     TIP3     OH2      OT      -0.834000       15.9994           0
     53921 TIP3     4842     TIP3     H1       HT       0.417000       1.00800           0
     53922 TIP3     4842     TIP3     H2       HT       0.417000       1.00800           0
     53923 TIP3     4843     TIP3     OH2      OT      -0.834000       15.9994           0
     53924 TIP3     4843     TIP3     H1       HT       0.417000       1.00800           0
     53925 TIP3     4843     TIP3     H2       HT       0.417000       1.00800           0
     53926 TIP3     4844     TIP3     OH2      OT      -0.834000       15.9994           0
     53927 TIP3     4844     TIP3     H1       HT       0.417000       1.00800           0
     53928 TIP3     4844     TIP3     H2       HT       0.417000       1.00800           0
     53929 TIP3     4845     TIP3     OH2      OT      -0.834000       15.9994           0
     53930 TIP3     4845     TIP3     H1       HT       0.417000       1.00800           0
     53931 TIP3     4845     TIP3     H2       HT       0.417000       1.00800           0
     53932 TIP3     4846     TIP3     OH2      OT      -0.834000       15.9994           0
     53933 TIP3     4846     TIP3     H1       HT       0.417000       1.00800           0
     53934 TIP3     4846     TIP3     H2       HT       0.417000       1.00800           0
     53935 TIP3     4847     TIP3     OH2      OT      -0.834000       15.9994           0
     53936 TIP3     4847     TIP3     H1       HT       0.417000       1.00800           0
     53937 TIP3     4847     TIP3     H2       HT       0.417000       1.00800           0
     53938 TIP3     4848     TIP3     OH2      OT      -0.834000       15.9994           0
     53939 TIP3     4848     TIP3     H1       HT       0.417000       1.00800           0
     53940 TIP3     4848     TIP3     H2       HT       0.417000       1.00800           0
     53941 TIP3     4849     TIP3     OH2      OT      -0.834000       15.9994           0
     53942 TIP3     4849     TIP3     H1       HT       0.417000       1.00800           0
     53943 TIP3     4849     TIP3     H2       HT       0.417000       1.00800           0
     53944 TIP3     4850     TIP3     OH2      OT      -0.834000       15.9994           0
     53945 TIP3     4850     TIP3     H1       HT       0.417000       1.00800           0
     53946 TIP3     4850     TIP3     H2       HT       0.417000       1.00800           0
     53947 TIP3     4851     TIP3     OH2      OT      -0.834000       15.9994           0
     53948 TIP3     4851     TIP3     H1       HT       0.417000       1.00800           0
     53949 TIP3     4851     TIP3     H2       HT       0.417000       1.00800           0
     53950 TIP3     4852     TIP3     OH2      OT      -0.834000       15.9994           0
     53951 TIP3     4852     TIP3     H1       HT       0.417000       1.00800           0
     53952 TIP3     4852     TIP3     H2       HT       0.417000       1.00800           0
     53953 TIP3     4853     TIP3     OH2      OT      -0.834000       15.9994           0
     53954 TIP3     4853     TIP3     H1       HT       0.417000       1.00800           0
     53955 TIP3     4853     TIP3     H2       HT       0.417000       1.00800           0
     53956 TIP3     4854     TIP3     OH2      OT      -0.834000       15.9994           0
     53957 TIP3     4854     TIP3     H1       HT       0.417000       1.00800           0
     53958 TIP3     4854     TIP3     H2       HT       0.417000       1.00800           0
     53959 TIP3     4855     TIP3     OH2      OT      -0.834000       15.9994           0
     53960 TIP3     4855     TIP3     H1       HT       0.417000       1.00800           0
     53961 TIP3     4855     TIP3     H2       HT       0.417000       1.00800           0
     53962 TIP3     4856     TIP3     OH2      OT      -0.834000       15.9994           0
     53963 TIP3     4856     TIP3     H1       HT       0.417000       1.00800           0
     53964 TIP3     4856     TIP3     H2       HT       0.417000       1.00800           0
     53965 TIP3     4857     TIP3     OH2      OT      -0.834000       15.9994           0
     53966 TIP3     4857     TIP3     H1       HT       0.417000       1.00800           0
     53967 TIP3     4857     TIP3     H2       HT       0.417000       1.00800           0
     53968 TIP3     4858     TIP3     OH2      OT      -0.834000       15.9994           0
     53969 TIP3     4858     TIP3     H1       HT       0.417000       1.00800           0
     53970 TIP3     4858     TIP3     H2       HT       0.417000       1.00800           0
     53971 TIP3     4859     TIP3     OH2      OT      -0.834000       15.9994           0
     53972 TIP3     4859     TIP3     H1       HT       0.417000       1.00800           0
     53973 TIP3     4859     TIP3     H2       HT       0.417000       1.00800           0
     53974 TIP3     4860     TIP3     OH2      OT      -0.834000       15.9994           0
     53975 TIP3     4860     TIP3     H1       HT       0.417000       1.00800           0
     53976 TIP3     4860     TIP3     H2       HT       0.417000       1.00800           0
     53977 TIP3     4861     TIP3     OH2      OT      -0.834000       15.9994           0
     53978 TIP3     4861     TIP3     H1       HT       0.417000       1.00800           0
     53979 TIP3     4861     TIP3     H2       HT       0.417000       1.00800           0
     53980 TIP3     4862     TIP3     OH2      OT      -0.834000       15.9994           0
     53981 TIP3     4862     TIP3     H1       HT       0.417000       1.00800           0
     53982 TIP3     4862     TIP3     H2       HT       0.417000       1.00800           0
     53983 TIP3     4863     TIP3     OH2      OT      -0.834000       15.9994           0
     53984 TIP3     4863     TIP3     H1       HT       0.417000       1.00800           0
     53985 TIP3     4863     TIP3     H2       HT       0.417000       1.00800           0
     53986 TIP3     4864     TIP3     OH2      OT      -0.834000       15.9994           0
     53987 TIP3     4864     TIP3     H1       HT       0.417000       1.00800           0
     53988 TIP3     4864     TIP3     H2       HT       0.417000       1.00800           0
     53989 TIP3     4865     TIP3     OH2      OT      -0.834000       15.9994           0
     53990 TIP3     4865     TIP3     H1       HT       0.417000       1.00800           0
     53991 TIP3     4865     TIP3     H2       HT       0.417000       1.00800           0
     53992 TIP3     4866     TIP3     OH2      OT      -0.834000       15.9994           0
     53993 TIP3     4866     TIP3     H1       HT       0.417000       1.00800           0
     53994 TIP3     4866     TIP3     H2       HT       0.417000       1.00800           0
     53995 TIP3     4867     TIP3     OH2      OT      -0.834000       15.9994           0
     53996 TIP3     4867     TIP3     H1       HT       0.417000       1.00800           0
     53997 TIP3     4867     TIP3     H2       HT       0.417000       1.00800           0
     53998 TIP3     4868     TIP3     OH2      OT      -0.834000       15.9994           0
     53999 TIP3     4868     TIP3     H1       HT       0.417000       1.00800           0
     54000 TIP3     4868     TIP3     H2       HT       0.417000       1.00800           0
     54001 TIP3     4869     TIP3     OH2      OT      -0.834000       15.9994           0
     54002 TIP3     4869     TIP3     H1       HT       0.417000       1.00800           0
     54003 TIP3     4869     TIP3     H2       HT       0.417000       1.00800           0
     54004 TIP3     4870     TIP3     OH2      OT      -0.834000       15.9994           0
     54005 TIP3     4870     TIP3     H1       HT       0.417000       1.00800           0
     54006 TIP3     4870     TIP3     H2       HT       0.417000       1.00800           0
     54007 TIP3     4871     TIP3     OH2      OT      -0.834000       15.9994           0
     54008 TIP3     4871     TIP3     H1       HT       0.417000       1.00800           0
     54009 TIP3     4871     TIP3     H2       HT       0.417000       1.00800           0
     54010 TIP3     4872     TIP3     OH2      OT      -0.834000       15.9994           0
     54011 TIP3     4872     TIP3     H1       HT       0.417000       1.00800           0
     54012 TIP3     4872     TIP3     H2       HT       0.417000       1.00800           0
     54013 TIP3     4873     TIP3     OH2      OT      -0.834000       15.9994           0
     54014 TIP3     4873     TIP3     H1       HT       0.417000       1.00800           0
     54015 TIP3     4873     TIP3     H2       HT       0.417000       1.00800           0
     54016 TIP3     4874     TIP3     OH2      OT      -0.834000       15.9994           0
     54017 TIP3     4874     TIP3     H1       HT       0.417000       1.00800           0
     54018 TIP3     4874     TIP3     H2       HT       0.417000       1.00800           0
     54019 TIP3     4875     TIP3     OH2      OT      -0.834000       15.9994           0
     54020 TIP3     4875     TIP3     H1       HT       0.417000       1.00800           0
     54021 TIP3     4875     TIP3     H2       HT       0.417000       1.00800           0
     54022 TIP3     4876     TIP3     OH2      OT      -0.834000       15.9994           0
     54023 TIP3     4876     TIP3     H1       HT       0.417000       1.00800           0
     54024 TIP3     4876     TIP3     H2       HT       0.417000       1.00800           0
     54025 TIP3     4877     TIP3     OH2      OT      -0.834000       15.9994           0
     54026 TIP3     4877     TIP3     H1       HT       0.417000       1.00800           0
     54027 TIP3     4877     TIP3     H2       HT       0.417000       1.00800           0
     54028 TIP3     4878     TIP3     OH2      OT      -0.834000       15.9994           0
     54029 TIP3     4878     TIP3     H1       HT       0.417000       1.00800           0
     54030 TIP3     4878     TIP3     H2       HT       0.417000       1.00800           0
     54031 TIP3     4879     TIP3     OH2      OT      -0.834000       15.9994           0
     54032 TIP3     4879     TIP3     H1       HT       0.417000       1.00800           0
     54033 TIP3     4879     TIP3     H2       HT       0.417000       1.00800           0
     54034 TIP3     4880     TIP3     OH2      OT      -0.834000       15.9994           0
     54035 TIP3     4880     TIP3     H1       HT       0.417000       1.00800           0
     54036 TIP3     4880     TIP3     H2       HT       0.417000       1.00800           0
     54037 TIP3     4881     TIP3     OH2      OT      -0.834000       15.9994           0
     54038 TIP3     4881     TIP3     H1       HT       0.417000       1.00800           0
     54039 TIP3     4881     TIP3     H2       HT       0.417000       1.00800           0
     54040 TIP3     4882     TIP3     OH2      OT      -0.834000       15.9994           0
     54041 TIP3     4882     TIP3     H1       HT       0.417000       1.00800           0
     54042 TIP3     4882     TIP3     H2       HT       0.417000       1.00800           0
     54043 TIP3     4883     TIP3     OH2      OT      -0.834000       15.9994           0
     54044 TIP3     4883     TIP3     H1       HT       0.417000       1.00800           0
     54045 TIP3     4883     TIP3     H2       HT       0.417000       1.00800           0
     54046 TIP3     4884     TIP3     OH2      OT      -0.834000       15.9994           0
     54047 TIP3     4884     TIP3     H1       HT       0.417000       1.00800           0
     54048 TIP3     4884     TIP3     H2       HT       0.417000       1.00800           0
     54049 TIP3     4885     TIP3     OH2      OT      -0.834000       15.9994           0
     54050 TIP3     4885     TIP3     H1       HT       0.417000       1.00800           0
     54051 TIP3     4885     TIP3     H2       HT       0.417000       1.00800           0
     54052 TIP3     4886     TIP3     OH2      OT      -0.834000       15.9994           0
     54053 TIP3     4886     TIP3     H1       HT       0.417000       1.00800           0
     54054 TIP3     4886     TIP3     H2       HT       0.417000       1.00800           0
     54055 TIP3     4887     TIP3     OH2      OT      -0.834000       15.9994           0
     54056 TIP3     4887     TIP3     H1       HT       0.417000       1.00800           0
     54057 TIP3     4887     TIP3     H2       HT       0.417000       1.00800           0
     54058 TIP3     4888     TIP3     OH2      OT      -0.834000       15.9994           0
     54059 TIP3     4888     TIP3     H1       HT       0.417000       1.00800           0
     54060 TIP3     4888     TIP3     H2       HT       0.417000       1.00800           0
     54061 TIP3     4889     TIP3     OH2      OT      -0.834000       15.9994           0
     54062 TIP3     4889     TIP3     H1       HT       0.417000       1.00800           0
     54063 TIP3     4889     TIP3     H2       HT       0.417000       1.00800           0
     54064 TIP3     4890     TIP3     OH2      OT      -0.834000       15.9994           0
     54065 TIP3     4890     TIP3     H1       HT       0.417000       1.00800           0
     54066 TIP3     4890     TIP3     H2       HT       0.417000       1.00800           0
     54067 TIP3     4891     TIP3     OH2      OT      -0.834000       15.9994           0
     54068 TIP3     4891     TIP3     H1       HT       0.417000       1.00800           0
     54069 TIP3     4891     TIP3     H2       HT       0.417000       1.00800           0
     54070 TIP3     4892     TIP3     OH2      OT      -0.834000       15.9994           0
     54071 TIP3     4892     TIP3     H1       HT       0.417000       1.00800           0
     54072 TIP3     4892     TIP3     H2       HT       0.417000       1.00800           0
     54073 TIP3     4893     TIP3     OH2      OT      -0.834000       15.9994           0
     54074 TIP3     4893     TIP3     H1       HT       0.417000       1.00800           0
     54075 TIP3     4893     TIP3     H2       HT       0.417000       1.00800           0
     54076 TIP3     4894     TIP3     OH2      OT      -0.834000       15.9994           0
     54077 TIP3     4894     TIP3     H1       HT       0.417000       1.00800           0
     54078 TIP3     4894     TIP3     H2       HT       0.417000       1.00800           0
     54079 TIP3     4895     TIP3     OH2      OT      -0.834000       15.9994           0
     54080 TIP3     4895     TIP3     H1       HT       0.417000       1.00800           0
     54081 TIP3     4895     TIP3     H2       HT       0.417000       1.00800           0
     54082 TIP3     4896     TIP3     OH2      OT      -0.834000       15.9994           0
     54083 TIP3     4896     TIP3     H1       HT       0.417000       1.00800           0
     54084 TIP3     4896     TIP3     H2       HT       0.417000       1.00800           0
     54085 TIP3     4897     TIP3     OH2      OT      -0.834000       15.9994           0
     54086 TIP3     4897     TIP3     H1       HT       0.417000       1.00800           0
     54087 TIP3     4897     TIP3     H2       HT       0.417000       1.00800           0
     54088 TIP3     4898     TIP3     OH2      OT      -0.834000       15.9994           0
     54089 TIP3     4898     TIP3     H1       HT       0.417000       1.00800           0
     54090 TIP3     4898     TIP3     H2       HT       0.417000       1.00800           0
     54091 TIP3     4899     TIP3     OH2      OT      -0.834000       15.9994           0
     54092 TIP3     4899     TIP3     H1       HT       0.417000       1.00800           0
     54093 TIP3     4899     TIP3     H2       HT       0.417000       1.00800           0
     54094 TIP3     4900     TIP3     OH2      OT      -0.834000       15.9994           0
     54095 TIP3     4900     TIP3     H1       HT       0.417000       1.00800           0
     54096 TIP3     4900     TIP3     H2       HT       0.417000       1.00800           0
     54097 TIP3     4901     TIP3     OH2      OT      -0.834000       15.9994           0
     54098 TIP3     4901     TIP3     H1       HT       0.417000       1.00800           0
     54099 TIP3     4901     TIP3     H2       HT       0.417000       1.00800           0
     54100 TIP3     4902     TIP3     OH2      OT      -0.834000       15.9994           0
     54101 TIP3     4902     TIP3     H1       HT       0.417000       1.00800           0
     54102 TIP3     4902     TIP3     H2       HT       0.417000       1.00800           0
     54103 TIP3     4903     TIP3     OH2      OT      -0.834000       15.9994           0
     54104 TIP3     4903     TIP3     H1       HT       0.417000       1.00800           0
     54105 TIP3     4903     TIP3     H2       HT       0.417000       1.00800           0
     54106 TIP3     4904     TIP3     OH2      OT      -0.834000       15.9994           0
     54107 TIP3     4904     TIP3     H1       HT       0.417000       1.00800           0
     54108 TIP3     4904     TIP3     H2       HT       0.417000       1.00800           0
     54109 TIP3     4905     TIP3     OH2      OT      -0.834000       15.9994           0
     54110 TIP3     4905     TIP3     H1       HT       0.417000       1.00800           0
     54111 TIP3     4905     TIP3     H2       HT       0.417000       1.00800           0
     54112 TIP3     4906     TIP3     OH2      OT      -0.834000       15.9994           0
     54113 TIP3     4906     TIP3     H1       HT       0.417000       1.00800           0
     54114 TIP3     4906     TIP3     H2       HT       0.417000       1.00800           0
     54115 TIP3     4907     TIP3     OH2      OT      -0.834000       15.9994           0
     54116 TIP3     4907     TIP3     H1       HT       0.417000       1.00800           0
     54117 TIP3     4907     TIP3     H2       HT       0.417000       1.00800           0
     54118 TIP3     4908     TIP3     OH2      OT      -0.834000       15.9994           0
     54119 TIP3     4908     TIP3     H1       HT       0.417000       1.00800           0
     54120 TIP3     4908     TIP3     H2       HT       0.417000       1.00800           0
     54121 TIP3     4909     TIP3     OH2      OT      -0.834000       15.9994           0
     54122 TIP3     4909     TIP3     H1       HT       0.417000       1.00800           0
     54123 TIP3     4909     TIP3     H2       HT       0.417000       1.00800           0
     54124 TIP3     4910     TIP3     OH2      OT      -0.834000       15.9994           0
     54125 TIP3     4910     TIP3     H1       HT       0.417000       1.00800           0
     54126 TIP3     4910     TIP3     H2       HT       0.417000       1.00800           0
     54127 TIP3     4911     TIP3     OH2      OT      -0.834000       15.9994           0
     54128 TIP3     4911     TIP3     H1       HT       0.417000       1.00800           0
     54129 TIP3     4911     TIP3     H2       HT       0.417000       1.00800           0
     54130 TIP3     4912     TIP3     OH2      OT      -0.834000       15.9994           0
     54131 TIP3     4912     TIP3     H1       HT       0.417000       1.00800           0
     54132 TIP3     4912     TIP3     H2       HT       0.417000       1.00800           0
     54133 TIP3     4913     TIP3     OH2      OT      -0.834000       15.9994           0
     54134 TIP3     4913     TIP3     H1       HT       0.417000       1.00800           0
     54135 TIP3     4913     TIP3     H2       HT       0.417000       1.00800           0
     54136 TIP3     4914     TIP3     OH2      OT      -0.834000       15.9994           0
     54137 TIP3     4914     TIP3     H1       HT       0.417000       1.00800           0
     54138 TIP3     4914     TIP3     H2       HT       0.417000       1.00800           0
     54139 TIP3     4915     TIP3     OH2      OT      -0.834000       15.9994           0
     54140 TIP3     4915     TIP3     H1       HT       0.417000       1.00800           0
     54141 TIP3     4915     TIP3     H2       HT       0.417000       1.00800           0
     54142 TIP3     4916     TIP3     OH2      OT      -0.834000       15.9994           0
     54143 TIP3     4916     TIP3     H1       HT       0.417000       1.00800           0
     54144 TIP3     4916     TIP3     H2       HT       0.417000       1.00800           0
     54145 TIP3     4917     TIP3     OH2      OT      -0.834000       15.9994           0
     54146 TIP3     4917     TIP3     H1       HT       0.417000       1.00800           0
     54147 TIP3     4917     TIP3     H2       HT       0.417000       1.00800           0
     54148 TIP3     4918     TIP3     OH2      OT      -0.834000       15.9994           0
     54149 TIP3     4918     TIP3     H1       HT       0.417000       1.00800           0
     54150 TIP3     4918     TIP3     H2       HT       0.417000       1.00800           0
     54151 TIP3     4919     TIP3     OH2      OT      -0.834000       15.9994           0
     54152 TIP3     4919     TIP3     H1       HT       0.417000       1.00800           0
     54153 TIP3     4919     TIP3     H2       HT       0.417000       1.00800           0
     54154 TIP3     4920     TIP3     OH2      OT      -0.834000       15.9994           0
     54155 TIP3     4920     TIP3     H1       HT       0.417000       1.00800           0
     54156 TIP3     4920     TIP3     H2       HT       0.417000       1.00800           0
     54157 TIP3     4921     TIP3     OH2      OT      -0.834000       15.9994           0
     54158 TIP3     4921     TIP3     H1       HT       0.417000       1.00800           0
     54159 TIP3     4921     TIP3     H2       HT       0.417000       1.00800           0
     54160 TIP3     4922     TIP3     OH2      OT      -0.834000       15.9994           0
     54161 TIP3     4922     TIP3     H1       HT       0.417000       1.00800           0
     54162 TIP3     4922     TIP3     H2       HT       0.417000       1.00800           0
     54163 TIP3     4923     TIP3     OH2      OT      -0.834000       15.9994           0
     54164 TIP3     4923     TIP3     H1       HT       0.417000       1.00800           0
     54165 TIP3     4923     TIP3     H2       HT       0.417000       1.00800           0
     54166 TIP3     4924     TIP3     OH2      OT      -0.834000       15.9994           0
     54167 TIP3     4924     TIP3     H1       HT       0.417000       1.00800           0
     54168 TIP3     4924     TIP3     H2       HT       0.417000       1.00800           0
     54169 TIP3     4925     TIP3     OH2      OT      -0.834000       15.9994           0
     54170 TIP3     4925     TIP3     H1       HT       0.417000       1.00800           0
     54171 TIP3     4925     TIP3     H2       HT       0.417000       1.00800           0
     54172 TIP3     4926     TIP3     OH2      OT      -0.834000       15.9994           0
     54173 TIP3     4926     TIP3     H1       HT       0.417000       1.00800           0
     54174 TIP3     4926     TIP3     H2       HT       0.417000       1.00800           0
     54175 TIP3     4927     TIP3     OH2      OT      -0.834000       15.9994           0
     54176 TIP3     4927     TIP3     H1       HT       0.417000       1.00800           0
     54177 TIP3     4927     TIP3     H2       HT       0.417000       1.00800           0
     54178 TIP3     4928     TIP3     OH2      OT      -0.834000       15.9994           0
     54179 TIP3     4928     TIP3     H1       HT       0.417000       1.00800           0
     54180 TIP3     4928     TIP3     H2       HT       0.417000       1.00800           0
     54181 TIP3     4929     TIP3     OH2      OT      -0.834000       15.9994           0
     54182 TIP3     4929     TIP3     H1       HT       0.417000       1.00800           0
     54183 TIP3     4929     TIP3     H2       HT       0.417000       1.00800           0
     54184 TIP3     4930     TIP3     OH2      OT      -0.834000       15.9994           0
     54185 TIP3     4930     TIP3     H1       HT       0.417000       1.00800           0
     54186 TIP3     4930     TIP3     H2       HT       0.417000       1.00800           0
     54187 TIP3     4931     TIP3     OH2      OT      -0.834000       15.9994           0
     54188 TIP3     4931     TIP3     H1       HT       0.417000       1.00800           0
     54189 TIP3     4931     TIP3     H2       HT       0.417000       1.00800           0
     54190 TIP3     4932     TIP3     OH2      OT      -0.834000       15.9994           0
     54191 TIP3     4932     TIP3     H1       HT       0.417000       1.00800           0
     54192 TIP3     4932     TIP3     H2       HT       0.417000       1.00800           0
     54193 TIP3     4933     TIP3     OH2      OT      -0.834000       15.9994           0
     54194 TIP3     4933     TIP3     H1       HT       0.417000       1.00800           0
     54195 TIP3     4933     TIP3     H2       HT       0.417000       1.00800           0
     54196 TIP3     4934     TIP3     OH2      OT      -0.834000       15.9994           0
     54197 TIP3     4934     TIP3     H1       HT       0.417000       1.00800           0
     54198 TIP3     4934     TIP3     H2       HT       0.417000       1.00800           0
     54199 TIP3     4935     TIP3     OH2      OT      -0.834000       15.9994           0
     54200 TIP3     4935     TIP3     H1       HT       0.417000       1.00800           0
     54201 TIP3     4935     TIP3     H2       HT       0.417000       1.00800           0
     54202 TIP3     4936     TIP3     OH2      OT      -0.834000       15.9994           0
     54203 TIP3     4936     TIP3     H1       HT       0.417000       1.00800           0
     54204 TIP3     4936     TIP3     H2       HT       0.417000       1.00800           0
     54205 TIP3     4937     TIP3     OH2      OT      -0.834000       15.9994           0
     54206 TIP3     4937     TIP3     H1       HT       0.417000       1.00800           0
     54207 TIP3     4937     TIP3     H2       HT       0.417000       1.00800           0
     54208 TIP3     4938     TIP3     OH2      OT      -0.834000       15.9994           0
     54209 TIP3     4938     TIP3     H1       HT       0.417000       1.00800           0
     54210 TIP3     4938     TIP3     H2       HT       0.417000       1.00800           0
     54211 TIP3     4939     TIP3     OH2      OT      -0.834000       15.9994           0
     54212 TIP3     4939     TIP3     H1       HT       0.417000       1.00800           0
     54213 TIP3     4939     TIP3     H2       HT       0.417000       1.00800           0
     54214 TIP3     4940     TIP3     OH2      OT      -0.834000       15.9994           0
     54215 TIP3     4940     TIP3     H1       HT       0.417000       1.00800           0
     54216 TIP3     4940     TIP3     H2       HT       0.417000       1.00800           0
     54217 TIP3     4941     TIP3     OH2      OT      -0.834000       15.9994           0
     54218 TIP3     4941     TIP3     H1       HT       0.417000       1.00800           0
     54219 TIP3     4941     TIP3     H2       HT       0.417000       1.00800           0
     54220 TIP3     4942     TIP3     OH2      OT      -0.834000       15.9994           0
     54221 TIP3     4942     TIP3     H1       HT       0.417000       1.00800           0
     54222 TIP3     4942     TIP3     H2       HT       0.417000       1.00800           0
     54223 TIP3     4943     TIP3     OH2      OT      -0.834000       15.9994           0
     54224 TIP3     4943     TIP3     H1       HT       0.417000       1.00800           0
     54225 TIP3     4943     TIP3     H2       HT       0.417000       1.00800           0
     54226 TIP3     4944     TIP3     OH2      OT      -0.834000       15.9994           0
     54227 TIP3     4944     TIP3     H1       HT       0.417000       1.00800           0
     54228 TIP3     4944     TIP3     H2       HT       0.417000       1.00800           0
     54229 TIP3     4945     TIP3     OH2      OT      -0.834000       15.9994           0
     54230 TIP3     4945     TIP3     H1       HT       0.417000       1.00800           0
     54231 TIP3     4945     TIP3     H2       HT       0.417000       1.00800           0
     54232 TIP3     4946     TIP3     OH2      OT      -0.834000       15.9994           0
     54233 TIP3     4946     TIP3     H1       HT       0.417000       1.00800           0
     54234 TIP3     4946     TIP3     H2       HT       0.417000       1.00800           0
     54235 TIP3     4947     TIP3     OH2      OT      -0.834000       15.9994           0
     54236 TIP3     4947     TIP3     H1       HT       0.417000       1.00800           0
     54237 TIP3     4947     TIP3     H2       HT       0.417000       1.00800           0
     54238 TIP3     4948     TIP3     OH2      OT      -0.834000       15.9994           0
     54239 TIP3     4948     TIP3     H1       HT       0.417000       1.00800           0
     54240 TIP3     4948     TIP3     H2       HT       0.417000       1.00800           0
     54241 TIP3     4949     TIP3     OH2      OT      -0.834000       15.9994           0
     54242 TIP3     4949     TIP3     H1       HT       0.417000       1.00800           0
     54243 TIP3     4949     TIP3     H2       HT       0.417000       1.00800           0
     54244 TIP3     4950     TIP3     OH2      OT      -0.834000       15.9994           0
     54245 TIP3     4950     TIP3     H1       HT       0.417000       1.00800           0
     54246 TIP3     4950     TIP3     H2       HT       0.417000       1.00800           0
     54247 TIP3     4951     TIP3     OH2      OT      -0.834000       15.9994           0
     54248 TIP3     4951     TIP3     H1       HT       0.417000       1.00800           0
     54249 TIP3     4951     TIP3     H2       HT       0.417000       1.00800           0
     54250 TIP3     4952     TIP3     OH2      OT      -0.834000       15.9994           0
     54251 TIP3     4952     TIP3     H1       HT       0.417000       1.00800           0
     54252 TIP3     4952     TIP3     H2       HT       0.417000       1.00800           0
     54253 TIP3     4953     TIP3     OH2      OT      -0.834000       15.9994           0
     54254 TIP3     4953     TIP3     H1       HT       0.417000       1.00800           0
     54255 TIP3     4953     TIP3     H2       HT       0.417000       1.00800           0
     54256 TIP3     4954     TIP3     OH2      OT      -0.834000       15.9994           0
     54257 TIP3     4954     TIP3     H1       HT       0.417000       1.00800           0
     54258 TIP3     4954     TIP3     H2       HT       0.417000       1.00800           0
     54259 TIP3     4955     TIP3     OH2      OT      -0.834000       15.9994           0
     54260 TIP3     4955     TIP3     H1       HT       0.417000       1.00800           0
     54261 TIP3     4955     TIP3     H2       HT       0.417000       1.00800           0
     54262 TIP3     4956     TIP3     OH2      OT      -0.834000       15.9994           0
     54263 TIP3     4956     TIP3     H1       HT       0.417000       1.00800           0
     54264 TIP3     4956     TIP3     H2       HT       0.417000       1.00800           0
     54265 TIP3     4957     TIP3     OH2      OT      -0.834000       15.9994           0
     54266 TIP3     4957     TIP3     H1       HT       0.417000       1.00800           0
     54267 TIP3     4957     TIP3     H2       HT       0.417000       1.00800           0
     54268 TIP3     4958     TIP3     OH2      OT      -0.834000       15.9994           0
     54269 TIP3     4958     TIP3     H1       HT       0.417000       1.00800           0
     54270 TIP3     4958     TIP3     H2       HT       0.417000       1.00800           0
     54271 TIP3     4959     TIP3     OH2      OT      -0.834000       15.9994           0
     54272 TIP3     4959     TIP3     H1       HT       0.417000       1.00800           0
     54273 TIP3     4959     TIP3     H2       HT       0.417000       1.00800           0
     54274 TIP3     4960     TIP3     OH2      OT      -0.834000       15.9994           0
     54275 TIP3     4960     TIP3     H1       HT       0.417000       1.00800           0
     54276 TIP3     4960     TIP3     H2       HT       0.417000       1.00800           0
     54277 TIP3     4961     TIP3     OH2      OT      -0.834000       15.9994           0
     54278 TIP3     4961     TIP3     H1       HT       0.417000       1.00800           0
     54279 TIP3     4961     TIP3     H2       HT       0.417000       1.00800           0
     54280 TIP3     4962     TIP3     OH2      OT      -0.834000       15.9994           0
     54281 TIP3     4962     TIP3     H1       HT       0.417000       1.00800           0
     54282 TIP3     4962     TIP3     H2       HT       0.417000       1.00800           0
     54283 TIP3     4963     TIP3     OH2      OT      -0.834000       15.9994           0
     54284 TIP3     4963     TIP3     H1       HT       0.417000       1.00800           0
     54285 TIP3     4963     TIP3     H2       HT       0.417000       1.00800           0
     54286 TIP3     4964     TIP3     OH2      OT      -0.834000       15.9994           0
     54287 TIP3     4964     TIP3     H1       HT       0.417000       1.00800           0
     54288 TIP3     4964     TIP3     H2       HT       0.417000       1.00800           0
     54289 TIP3     4965     TIP3     OH2      OT      -0.834000       15.9994           0
     54290 TIP3     4965     TIP3     H1       HT       0.417000       1.00800           0
     54291 TIP3     4965     TIP3     H2       HT       0.417000       1.00800           0
     54292 TIP3     4966     TIP3     OH2      OT      -0.834000       15.9994           0
     54293 TIP3     4966     TIP3     H1       HT       0.417000       1.00800           0
     54294 TIP3     4966     TIP3     H2       HT       0.417000       1.00800           0
     54295 TIP3     4967     TIP3     OH2      OT      -0.834000       15.9994           0
     54296 TIP3     4967     TIP3     H1       HT       0.417000       1.00800           0
     54297 TIP3     4967     TIP3     H2       HT       0.417000       1.00800           0
     54298 TIP3     4968     TIP3     OH2      OT      -0.834000       15.9994           0
     54299 TIP3     4968     TIP3     H1       HT       0.417000       1.00800           0
     54300 TIP3     4968     TIP3     H2       HT       0.417000       1.00800           0
     54301 TIP3     4969     TIP3     OH2      OT      -0.834000       15.9994           0
     54302 TIP3     4969     TIP3     H1       HT       0.417000       1.00800           0
     54303 TIP3     4969     TIP3     H2       HT       0.417000       1.00800           0
     54304 TIP3     4970     TIP3     OH2      OT      -0.834000       15.9994           0
     54305 TIP3     4970     TIP3     H1       HT       0.417000       1.00800           0
     54306 TIP3     4970     TIP3     H2       HT       0.417000       1.00800           0
     54307 TIP3     4971     TIP3     OH2      OT      -0.834000       15.9994           0
     54308 TIP3     4971     TIP3     H1       HT       0.417000       1.00800           0
     54309 TIP3     4971     TIP3     H2       HT       0.417000       1.00800           0
     54310 TIP3     4972     TIP3     OH2      OT      -0.834000       15.9994           0
     54311 TIP3     4972     TIP3     H1       HT       0.417000       1.00800           0
     54312 TIP3     4972     TIP3     H2       HT       0.417000       1.00800           0
     54313 TIP3     4973     TIP3     OH2      OT      -0.834000       15.9994           0
     54314 TIP3     4973     TIP3     H1       HT       0.417000       1.00800           0
     54315 TIP3     4973     TIP3     H2       HT       0.417000       1.00800           0
     54316 TIP3     4974     TIP3     OH2      OT      -0.834000       15.9994           0
     54317 TIP3     4974     TIP3     H1       HT       0.417000       1.00800           0
     54318 TIP3     4974     TIP3     H2       HT       0.417000       1.00800           0
     54319 TIP3     4975     TIP3     OH2      OT      -0.834000       15.9994           0
     54320 TIP3     4975     TIP3     H1       HT       0.417000       1.00800           0
     54321 TIP3     4975     TIP3     H2       HT       0.417000       1.00800           0
     54322 TIP3     4976     TIP3     OH2      OT      -0.834000       15.9994           0
     54323 TIP3     4976     TIP3     H1       HT       0.417000       1.00800           0
     54324 TIP3     4976     TIP3     H2       HT       0.417000       1.00800           0
     54325 TIP3     4977     TIP3     OH2      OT      -0.834000       15.9994           0
     54326 TIP3     4977     TIP3     H1       HT       0.417000       1.00800           0
     54327 TIP3     4977     TIP3     H2       HT       0.417000       1.00800           0
     54328 TIP3     4978     TIP3     OH2      OT      -0.834000       15.9994           0
     54329 TIP3     4978     TIP3     H1       HT       0.417000       1.00800           0
     54330 TIP3     4978     TIP3     H2       HT       0.417000       1.00800           0
     54331 TIP3     4979     TIP3     OH2      OT      -0.834000       15.9994           0
     54332 TIP3     4979     TIP3     H1       HT       0.417000       1.00800           0
     54333 TIP3     4979     TIP3     H2       HT       0.417000       1.00800           0
     54334 TIP3     4980     TIP3     OH2      OT      -0.834000       15.9994           0
     54335 TIP3     4980     TIP3     H1       HT       0.417000       1.00800           0
     54336 TIP3     4980     TIP3     H2       HT       0.417000       1.00800           0
     54337 TIP3     4981     TIP3     OH2      OT      -0.834000       15.9994           0
     54338 TIP3     4981     TIP3     H1       HT       0.417000       1.00800           0
     54339 TIP3     4981     TIP3     H2       HT       0.417000       1.00800           0
     54340 TIP3     4982     TIP3     OH2      OT      -0.834000       15.9994           0
     54341 TIP3     4982     TIP3     H1       HT       0.417000       1.00800           0
     54342 TIP3     4982     TIP3     H2       HT       0.417000       1.00800           0
     54343 TIP3     4983     TIP3     OH2      OT      -0.834000       15.9994           0
     54344 TIP3     4983     TIP3     H1       HT       0.417000       1.00800           0
     54345 TIP3     4983     TIP3     H2       HT       0.417000       1.00800           0
     54346 TIP3     4984     TIP3     OH2      OT      -0.834000       15.9994           0
     54347 TIP3     4984     TIP3     H1       HT       0.417000       1.00800           0
     54348 TIP3     4984     TIP3     H2       HT       0.417000       1.00800           0
     54349 TIP3     4985     TIP3     OH2      OT      -0.834000       15.9994           0
     54350 TIP3     4985     TIP3     H1       HT       0.417000       1.00800           0
     54351 TIP3     4985     TIP3     H2       HT       0.417000       1.00800           0
     54352 TIP3     4986     TIP3     OH2      OT      -0.834000       15.9994           0
     54353 TIP3     4986     TIP3     H1       HT       0.417000       1.00800           0
     54354 TIP3     4986     TIP3     H2       HT       0.417000       1.00800           0
     54355 TIP3     4987     TIP3     OH2      OT      -0.834000       15.9994           0
     54356 TIP3     4987     TIP3     H1       HT       0.417000       1.00800           0
     54357 TIP3     4987     TIP3     H2       HT       0.417000       1.00800           0
     54358 TIP3     4988     TIP3     OH2      OT      -0.834000       15.9994           0
     54359 TIP3     4988     TIP3     H1       HT       0.417000       1.00800           0
     54360 TIP3     4988     TIP3     H2       HT       0.417000       1.00800           0
     54361 TIP3     4989     TIP3     OH2      OT      -0.834000       15.9994           0
     54362 TIP3     4989     TIP3     H1       HT       0.417000       1.00800           0
     54363 TIP3     4989     TIP3     H2       HT       0.417000       1.00800           0
     54364 TIP3     4990     TIP3     OH2      OT      -0.834000       15.9994           0
     54365 TIP3     4990     TIP3     H1       HT       0.417000       1.00800           0
     54366 TIP3     4990     TIP3     H2       HT       0.417000       1.00800           0
     54367 TIP3     4991     TIP3     OH2      OT      -0.834000       15.9994           0
     54368 TIP3     4991     TIP3     H1       HT       0.417000       1.00800           0
     54369 TIP3     4991     TIP3     H2       HT       0.417000       1.00800           0
     54370 TIP3     4992     TIP3     OH2      OT      -0.834000       15.9994           0
     54371 TIP3     4992     TIP3     H1       HT       0.417000       1.00800           0
     54372 TIP3     4992     TIP3     H2       HT       0.417000       1.00800           0
     54373 TIP3     4993     TIP3     OH2      OT      -0.834000       15.9994           0
     54374 TIP3     4993     TIP3     H1       HT       0.417000       1.00800           0
     54375 TIP3     4993     TIP3     H2       HT       0.417000       1.00800           0
     54376 TIP3     4994     TIP3     OH2      OT      -0.834000       15.9994           0
     54377 TIP3     4994     TIP3     H1       HT       0.417000       1.00800           0
     54378 TIP3     4994     TIP3     H2       HT       0.417000       1.00800           0
     54379 TIP3     4995     TIP3     OH2      OT      -0.834000       15.9994           0
     54380 TIP3     4995     TIP3     H1       HT       0.417000       1.00800           0
     54381 TIP3     4995     TIP3     H2       HT       0.417000       1.00800           0
     54382 TIP3     4996     TIP3     OH2      OT      -0.834000       15.9994           0
     54383 TIP3     4996     TIP3     H1       HT       0.417000       1.00800           0
     54384 TIP3     4996     TIP3     H2       HT       0.417000       1.00800           0
     54385 TIP3     4997     TIP3     OH2      OT      -0.834000       15.9994           0
     54386 TIP3     4997     TIP3     H1       HT       0.417000       1.00800           0
     54387 TIP3     4997     TIP3     H2       HT       0.417000       1.00800           0
     54388 TIP3     4998     TIP3     OH2      OT      -0.834000       15.9994           0
     54389 TIP3     4998     TIP3     H1       HT       0.417000       1.00800           0
     54390 TIP3     4998     TIP3     H2       HT       0.417000       1.00800           0
     54391 TIP3     4999     TIP3     OH2      OT      -0.834000       15.9994           0
     54392 TIP3     4999     TIP3     H1       HT       0.417000       1.00800           0
     54393 TIP3     4999     TIP3     H2       HT       0.417000       1.00800           0
     54394 TIP3     5000     TIP3     OH2      OT      -0.834000       15.9994           0
     54395 TIP3     5000     TIP3     H1       HT       0.417000       1.00800           0
     54396 TIP3     5000     TIP3     H2       HT       0.417000       1.00800           0
     54397 TIP3     5001     TIP3     OH2      OT      -0.834000       15.9994           0
     54398 TIP3     5001     TIP3     H1       HT       0.417000       1.00800           0
     54399 TIP3     5001     TIP3     H2       HT       0.417000       1.00800           0
     54400 TIP3     5002     TIP3     OH2      OT      -0.834000       15.9994           0
     54401 TIP3     5002     TIP3     H1       HT       0.417000       1.00800           0
     54402 TIP3     5002     TIP3     H2       HT       0.417000       1.00800           0
     54403 TIP3     5003     TIP3     OH2      OT      -0.834000       15.9994           0
     54404 TIP3     5003     TIP3     H1       HT       0.417000       1.00800           0
     54405 TIP3     5003     TIP3     H2       HT       0.417000       1.00800           0
     54406 TIP3     5004     TIP3     OH2      OT      -0.834000       15.9994           0
     54407 TIP3     5004     TIP3     H1       HT       0.417000       1.00800           0
     54408 TIP3     5004     TIP3     H2       HT       0.417000       1.00800           0
     54409 TIP3     5005     TIP3     OH2      OT      -0.834000       15.9994           0
     54410 TIP3     5005     TIP3     H1       HT       0.417000       1.00800           0
     54411 TIP3     5005     TIP3     H2       HT       0.417000       1.00800           0
     54412 TIP3     5006     TIP3     OH2      OT      -0.834000       15.9994           0
     54413 TIP3     5006     TIP3     H1       HT       0.417000       1.00800           0
     54414 TIP3     5006     TIP3     H2       HT       0.417000       1.00800           0
     54415 TIP3     5007     TIP3     OH2      OT      -0.834000       15.9994           0
     54416 TIP3     5007     TIP3     H1       HT       0.417000       1.00800           0
     54417 TIP3     5007     TIP3     H2       HT       0.417000       1.00800           0
     54418 TIP3     5008     TIP3     OH2      OT      -0.834000       15.9994           0
     54419 TIP3     5008     TIP3     H1       HT       0.417000       1.00800           0
     54420 TIP3     5008     TIP3     H2       HT       0.417000       1.00800           0
     54421 TIP3     5009     TIP3     OH2      OT      -0.834000       15.9994           0
     54422 TIP3     5009     TIP3     H1       HT       0.417000       1.00800           0
     54423 TIP3     5009     TIP3     H2       HT       0.417000       1.00800           0
     54424 TIP3     5010     TIP3     OH2      OT      -0.834000       15.9994           0
     54425 TIP3     5010     TIP3     H1       HT       0.417000       1.00800           0
     54426 TIP3     5010     TIP3     H2       HT       0.417000       1.00800           0
     54427 TIP3     5011     TIP3     OH2      OT      -0.834000       15.9994           0
     54428 TIP3     5011     TIP3     H1       HT       0.417000       1.00800           0
     54429 TIP3     5011     TIP3     H2       HT       0.417000       1.00800           0
     54430 TIP3     5012     TIP3     OH2      OT      -0.834000       15.9994           0
     54431 TIP3     5012     TIP3     H1       HT       0.417000       1.00800           0
     54432 TIP3     5012     TIP3     H2       HT       0.417000       1.00800           0
     54433 TIP3     5013     TIP3     OH2      OT      -0.834000       15.9994           0
     54434 TIP3     5013     TIP3     H1       HT       0.417000       1.00800           0
     54435 TIP3     5013     TIP3     H2       HT       0.417000       1.00800           0
     54436 TIP3     5014     TIP3     OH2      OT      -0.834000       15.9994           0
     54437 TIP3     5014     TIP3     H1       HT       0.417000       1.00800           0
     54438 TIP3     5014     TIP3     H2       HT       0.417000       1.00800           0
     54439 TIP3     5015     TIP3     OH2      OT      -0.834000       15.9994           0
     54440 TIP3     5015     TIP3     H1       HT       0.417000       1.00800           0
     54441 TIP3     5015     TIP3     H2       HT       0.417000       1.00800           0
     54442 TIP3     5016     TIP3     OH2      OT      -0.834000       15.9994           0
     54443 TIP3     5016     TIP3     H1       HT       0.417000       1.00800           0
     54444 TIP3     5016     TIP3     H2       HT       0.417000       1.00800           0
     54445 TIP3     5017     TIP3     OH2      OT      -0.834000       15.9994           0
     54446 TIP3     5017     TIP3     H1       HT       0.417000       1.00800           0
     54447 TIP3     5017     TIP3     H2       HT       0.417000       1.00800           0
     54448 TIP3     5018     TIP3     OH2      OT      -0.834000       15.9994           0
     54449 TIP3     5018     TIP3     H1       HT       0.417000       1.00800           0
     54450 TIP3     5018     TIP3     H2       HT       0.417000       1.00800           0
     54451 TIP3     5019     TIP3     OH2      OT      -0.834000       15.9994           0
     54452 TIP3     5019     TIP3     H1       HT       0.417000       1.00800           0
     54453 TIP3     5019     TIP3     H2       HT       0.417000       1.00800           0
     54454 TIP3     5020     TIP3     OH2      OT      -0.834000       15.9994           0
     54455 TIP3     5020     TIP3     H1       HT       0.417000       1.00800           0
     54456 TIP3     5020     TIP3     H2       HT       0.417000       1.00800           0
     54457 TIP3     5021     TIP3     OH2      OT      -0.834000       15.9994           0
     54458 TIP3     5021     TIP3     H1       HT       0.417000       1.00800           0
     54459 TIP3     5021     TIP3     H2       HT       0.417000       1.00800           0
     54460 TIP3     5022     TIP3     OH2      OT      -0.834000       15.9994           0
     54461 TIP3     5022     TIP3     H1       HT       0.417000       1.00800           0
     54462 TIP3     5022     TIP3     H2       HT       0.417000       1.00800           0
     54463 TIP3     5023     TIP3     OH2      OT      -0.834000       15.9994           0
     54464 TIP3     5023     TIP3     H1       HT       0.417000       1.00800           0
     54465 TIP3     5023     TIP3     H2       HT       0.417000       1.00800           0
     54466 TIP3     5024     TIP3     OH2      OT      -0.834000       15.9994           0
     54467 TIP3     5024     TIP3     H1       HT       0.417000       1.00800           0
     54468 TIP3     5024     TIP3     H2       HT       0.417000       1.00800           0
     54469 TIP3     5025     TIP3     OH2      OT      -0.834000       15.9994           0
     54470 TIP3     5025     TIP3     H1       HT       0.417000       1.00800           0
     54471 TIP3     5025     TIP3     H2       HT       0.417000       1.00800           0
     54472 TIP3     5026     TIP3     OH2      OT      -0.834000       15.9994           0
     54473 TIP3     5026     TIP3     H1       HT       0.417000       1.00800           0
     54474 TIP3     5026     TIP3     H2       HT       0.417000       1.00800           0
     54475 TIP3     5027     TIP3     OH2      OT      -0.834000       15.9994           0
     54476 TIP3     5027     TIP3     H1       HT       0.417000       1.00800           0
     54477 TIP3     5027     TIP3     H2       HT       0.417000       1.00800           0
     54478 TIP3     5028     TIP3     OH2      OT      -0.834000       15.9994           0
     54479 TIP3     5028     TIP3     H1       HT       0.417000       1.00800           0
     54480 TIP3     5028     TIP3     H2       HT       0.417000       1.00800           0
     54481 TIP3     5029     TIP3     OH2      OT      -0.834000       15.9994           0
     54482 TIP3     5029     TIP3     H1       HT       0.417000       1.00800           0
     54483 TIP3     5029     TIP3     H2       HT       0.417000       1.00800           0
     54484 TIP3     5030     TIP3     OH2      OT      -0.834000       15.9994           0
     54485 TIP3     5030     TIP3     H1       HT       0.417000       1.00800           0
     54486 TIP3     5030     TIP3     H2       HT       0.417000       1.00800           0
     54487 TIP3     5031     TIP3     OH2      OT      -0.834000       15.9994           0
     54488 TIP3     5031     TIP3     H1       HT       0.417000       1.00800           0
     54489 TIP3     5031     TIP3     H2       HT       0.417000       1.00800           0
     54490 TIP3     5032     TIP3     OH2      OT      -0.834000       15.9994           0
     54491 TIP3     5032     TIP3     H1       HT       0.417000       1.00800           0
     54492 TIP3     5032     TIP3     H2       HT       0.417000       1.00800           0
     54493 TIP3     5033     TIP3     OH2      OT      -0.834000       15.9994           0
     54494 TIP3     5033     TIP3     H1       HT       0.417000       1.00800           0
     54495 TIP3     5033     TIP3     H2       HT       0.417000       1.00800           0
     54496 TIP3     5034     TIP3     OH2      OT      -0.834000       15.9994           0
     54497 TIP3     5034     TIP3     H1       HT       0.417000       1.00800           0
     54498 TIP3     5034     TIP3     H2       HT       0.417000       1.00800           0
     54499 TIP3     5035     TIP3     OH2      OT      -0.834000       15.9994           0
     54500 TIP3     5035     TIP3     H1       HT       0.417000       1.00800           0
     54501 TIP3     5035     TIP3     H2       HT       0.417000       1.00800           0
     54502 TIP3     5036     TIP3     OH2      OT      -0.834000       15.9994           0
     54503 TIP3     5036     TIP3     H1       HT       0.417000       1.00800           0
     54504 TIP3     5036     TIP3     H2       HT       0.417000       1.00800           0
     54505 TIP3     5037     TIP3     OH2      OT      -0.834000       15.9994           0
     54506 TIP3     5037     TIP3     H1       HT       0.417000       1.00800           0
     54507 TIP3     5037     TIP3     H2       HT       0.417000       1.00800           0
     54508 TIP3     5038     TIP3     OH2      OT      -0.834000       15.9994           0
     54509 TIP3     5038     TIP3     H1       HT       0.417000       1.00800           0
     54510 TIP3     5038     TIP3     H2       HT       0.417000       1.00800           0
     54511 TIP3     5039     TIP3     OH2      OT      -0.834000       15.9994           0
     54512 TIP3     5039     TIP3     H1       HT       0.417000       1.00800           0
     54513 TIP3     5039     TIP3     H2       HT       0.417000       1.00800           0
     54514 TIP3     5040     TIP3     OH2      OT      -0.834000       15.9994           0
     54515 TIP3     5040     TIP3     H1       HT       0.417000       1.00800           0
     54516 TIP3     5040     TIP3     H2       HT       0.417000       1.00800           0
     54517 TIP3     5041     TIP3     OH2      OT      -0.834000       15.9994           0
     54518 TIP3     5041     TIP3     H1       HT       0.417000       1.00800           0
     54519 TIP3     5041     TIP3     H2       HT       0.417000       1.00800           0
     54520 TIP3     5042     TIP3     OH2      OT      -0.834000       15.9994           0
     54521 TIP3     5042     TIP3     H1       HT       0.417000       1.00800           0
     54522 TIP3     5042     TIP3     H2       HT       0.417000       1.00800           0
     54523 TIP3     5043     TIP3     OH2      OT      -0.834000       15.9994           0
     54524 TIP3     5043     TIP3     H1       HT       0.417000       1.00800           0
     54525 TIP3     5043     TIP3     H2       HT       0.417000       1.00800           0
     54526 TIP3     5044     TIP3     OH2      OT      -0.834000       15.9994           0
     54527 TIP3     5044     TIP3     H1       HT       0.417000       1.00800           0
     54528 TIP3     5044     TIP3     H2       HT       0.417000       1.00800           0
     54529 TIP3     5045     TIP3     OH2      OT      -0.834000       15.9994           0
     54530 TIP3     5045     TIP3     H1       HT       0.417000       1.00800           0
     54531 TIP3     5045     TIP3     H2       HT       0.417000       1.00800           0
     54532 TIP3     5046     TIP3     OH2      OT      -0.834000       15.9994           0
     54533 TIP3     5046     TIP3     H1       HT       0.417000       1.00800           0
     54534 TIP3     5046     TIP3     H2       HT       0.417000       1.00800           0
     54535 TIP3     5047     TIP3     OH2      OT      -0.834000       15.9994           0
     54536 TIP3     5047     TIP3     H1       HT       0.417000       1.00800           0
     54537 TIP3     5047     TIP3     H2       HT       0.417000       1.00800           0
     54538 TIP3     5048     TIP3     OH2      OT      -0.834000       15.9994           0
     54539 TIP3     5048     TIP3     H1       HT       0.417000       1.00800           0
     54540 TIP3     5048     TIP3     H2       HT       0.417000       1.00800           0
     54541 TIP3     5049     TIP3     OH2      OT      -0.834000       15.9994           0
     54542 TIP3     5049     TIP3     H1       HT       0.417000       1.00800           0
     54543 TIP3     5049     TIP3     H2       HT       0.417000       1.00800           0
     54544 TIP3     5050     TIP3     OH2      OT      -0.834000       15.9994           0
     54545 TIP3     5050     TIP3     H1       HT       0.417000       1.00800           0
     54546 TIP3     5050     TIP3     H2       HT       0.417000       1.00800           0
     54547 TIP3     5051     TIP3     OH2      OT      -0.834000       15.9994           0
     54548 TIP3     5051     TIP3     H1       HT       0.417000       1.00800           0
     54549 TIP3     5051     TIP3     H2       HT       0.417000       1.00800           0
     54550 TIP3     5052     TIP3     OH2      OT      -0.834000       15.9994           0
     54551 TIP3     5052     TIP3     H1       HT       0.417000       1.00800           0
     54552 TIP3     5052     TIP3     H2       HT       0.417000       1.00800           0
     54553 TIP3     5053     TIP3     OH2      OT      -0.834000       15.9994           0
     54554 TIP3     5053     TIP3     H1       HT       0.417000       1.00800           0
     54555 TIP3     5053     TIP3     H2       HT       0.417000       1.00800           0
     54556 TIP3     5054     TIP3     OH2      OT      -0.834000       15.9994           0
     54557 TIP3     5054     TIP3     H1       HT       0.417000       1.00800           0
     54558 TIP3     5054     TIP3     H2       HT       0.417000       1.00800           0
     54559 TIP3     5055     TIP3     OH2      OT      -0.834000       15.9994           0
     54560 TIP3     5055     TIP3     H1       HT       0.417000       1.00800           0
     54561 TIP3     5055     TIP3     H2       HT       0.417000       1.00800           0
     54562 TIP3     5056     TIP3     OH2      OT      -0.834000       15.9994           0
     54563 TIP3     5056     TIP3     H1       HT       0.417000       1.00800           0
     54564 TIP3     5056     TIP3     H2       HT       0.417000       1.00800           0
     54565 TIP3     5057     TIP3     OH2      OT      -0.834000       15.9994           0
     54566 TIP3     5057     TIP3     H1       HT       0.417000       1.00800           0
     54567 TIP3     5057     TIP3     H2       HT       0.417000       1.00800           0
     54568 TIP3     5058     TIP3     OH2      OT      -0.834000       15.9994           0
     54569 TIP3     5058     TIP3     H1       HT       0.417000       1.00800           0
     54570 TIP3     5058     TIP3     H2       HT       0.417000       1.00800           0
     54571 TIP3     5059     TIP3     OH2      OT      -0.834000       15.9994           0
     54572 TIP3     5059     TIP3     H1       HT       0.417000       1.00800           0
     54573 TIP3     5059     TIP3     H2       HT       0.417000       1.00800           0
     54574 TIP3     5060     TIP3     OH2      OT      -0.834000       15.9994           0
     54575 TIP3     5060     TIP3     H1       HT       0.417000       1.00800           0
     54576 TIP3     5060     TIP3     H2       HT       0.417000       1.00800           0
     54577 TIP3     5061     TIP3     OH2      OT      -0.834000       15.9994           0
     54578 TIP3     5061     TIP3     H1       HT       0.417000       1.00800           0
     54579 TIP3     5061     TIP3     H2       HT       0.417000       1.00800           0
     54580 TIP3     5062     TIP3     OH2      OT      -0.834000       15.9994           0
     54581 TIP3     5062     TIP3     H1       HT       0.417000       1.00800           0
     54582 TIP3     5062     TIP3     H2       HT       0.417000       1.00800           0
     54583 TIP3     5063     TIP3     OH2      OT      -0.834000       15.9994           0
     54584 TIP3     5063     TIP3     H1       HT       0.417000       1.00800           0
     54585 TIP3     5063     TIP3     H2       HT       0.417000       1.00800           0
     54586 TIP3     5064     TIP3     OH2      OT      -0.834000       15.9994           0
     54587 TIP3     5064     TIP3     H1       HT       0.417000       1.00800           0
     54588 TIP3     5064     TIP3     H2       HT       0.417000       1.00800           0
     54589 TIP3     5065     TIP3     OH2      OT      -0.834000       15.9994           0
     54590 TIP3     5065     TIP3     H1       HT       0.417000       1.00800           0
     54591 TIP3     5065     TIP3     H2       HT       0.417000       1.00800           0
     54592 TIP3     5066     TIP3     OH2      OT      -0.834000       15.9994           0
     54593 TIP3     5066     TIP3     H1       HT       0.417000       1.00800           0
     54594 TIP3     5066     TIP3     H2       HT       0.417000       1.00800           0
     54595 TIP3     5067     TIP3     OH2      OT      -0.834000       15.9994           0
     54596 TIP3     5067     TIP3     H1       HT       0.417000       1.00800           0
     54597 TIP3     5067     TIP3     H2       HT       0.417000       1.00800           0
     54598 TIP3     5068     TIP3     OH2      OT      -0.834000       15.9994           0
     54599 TIP3     5068     TIP3     H1       HT       0.417000       1.00800           0
     54600 TIP3     5068     TIP3     H2       HT       0.417000       1.00800           0
     54601 TIP3     5069     TIP3     OH2      OT      -0.834000       15.9994           0
     54602 TIP3     5069     TIP3     H1       HT       0.417000       1.00800           0
     54603 TIP3     5069     TIP3     H2       HT       0.417000       1.00800           0
     54604 TIP3     5070     TIP3     OH2      OT      -0.834000       15.9994           0
     54605 TIP3     5070     TIP3     H1       HT       0.417000       1.00800           0
     54606 TIP3     5070     TIP3     H2       HT       0.417000       1.00800           0
     54607 TIP3     5071     TIP3     OH2      OT      -0.834000       15.9994           0
     54608 TIP3     5071     TIP3     H1       HT       0.417000       1.00800           0
     54609 TIP3     5071     TIP3     H2       HT       0.417000       1.00800           0
     54610 TIP3     5072     TIP3     OH2      OT      -0.834000       15.9994           0
     54611 TIP3     5072     TIP3     H1       HT       0.417000       1.00800           0
     54612 TIP3     5072     TIP3     H2       HT       0.417000       1.00800           0
     54613 TIP3     5073     TIP3     OH2      OT      -0.834000       15.9994           0
     54614 TIP3     5073     TIP3     H1       HT       0.417000       1.00800           0
     54615 TIP3     5073     TIP3     H2       HT       0.417000       1.00800           0
     54616 TIP3     5074     TIP3     OH2      OT      -0.834000       15.9994           0
     54617 TIP3     5074     TIP3     H1       HT       0.417000       1.00800           0
     54618 TIP3     5074     TIP3     H2       HT       0.417000       1.00800           0
     54619 TIP3     5075     TIP3     OH2      OT      -0.834000       15.9994           0
     54620 TIP3     5075     TIP3     H1       HT       0.417000       1.00800           0
     54621 TIP3     5075     TIP3     H2       HT       0.417000       1.00800           0
     54622 TIP3     5076     TIP3     OH2      OT      -0.834000       15.9994           0
     54623 TIP3     5076     TIP3     H1       HT       0.417000       1.00800           0
     54624 TIP3     5076     TIP3     H2       HT       0.417000       1.00800           0
     54625 TIP3     5077     TIP3     OH2      OT      -0.834000       15.9994           0
     54626 TIP3     5077     TIP3     H1       HT       0.417000       1.00800           0
     54627 TIP3     5077     TIP3     H2       HT       0.417000       1.00800           0
     54628 TIP3     5078     TIP3     OH2      OT      -0.834000       15.9994           0
     54629 TIP3     5078     TIP3     H1       HT       0.417000       1.00800           0
     54630 TIP3     5078     TIP3     H2       HT       0.417000       1.00800           0
     54631 TIP3     5079     TIP3     OH2      OT      -0.834000       15.9994           0
     54632 TIP3     5079     TIP3     H1       HT       0.417000       1.00800           0
     54633 TIP3     5079     TIP3     H2       HT       0.417000       1.00800           0
     54634 TIP3     5080     TIP3     OH2      OT      -0.834000       15.9994           0
     54635 TIP3     5080     TIP3     H1       HT       0.417000       1.00800           0
     54636 TIP3     5080     TIP3     H2       HT       0.417000       1.00800           0
     54637 TIP3     5081     TIP3     OH2      OT      -0.834000       15.9994           0
     54638 TIP3     5081     TIP3     H1       HT       0.417000       1.00800           0
     54639 TIP3     5081     TIP3     H2       HT       0.417000       1.00800           0
     54640 TIP3     5082     TIP3     OH2      OT      -0.834000       15.9994           0
     54641 TIP3     5082     TIP3     H1       HT       0.417000       1.00800           0
     54642 TIP3     5082     TIP3     H2       HT       0.417000       1.00800           0
     54643 TIP3     5083     TIP3     OH2      OT      -0.834000       15.9994           0
     54644 TIP3     5083     TIP3     H1       HT       0.417000       1.00800           0
     54645 TIP3     5083     TIP3     H2       HT       0.417000       1.00800           0
     54646 TIP3     5084     TIP3     OH2      OT      -0.834000       15.9994           0
     54647 TIP3     5084     TIP3     H1       HT       0.417000       1.00800           0
     54648 TIP3     5084     TIP3     H2       HT       0.417000       1.00800           0
     54649 TIP3     5085     TIP3     OH2      OT      -0.834000       15.9994           0
     54650 TIP3     5085     TIP3     H1       HT       0.417000       1.00800           0
     54651 TIP3     5085     TIP3     H2       HT       0.417000       1.00800           0
     54652 TIP3     5086     TIP3     OH2      OT      -0.834000       15.9994           0
     54653 TIP3     5086     TIP3     H1       HT       0.417000       1.00800           0
     54654 TIP3     5086     TIP3     H2       HT       0.417000       1.00800           0
     54655 TIP3     5087     TIP3     OH2      OT      -0.834000       15.9994           0
     54656 TIP3     5087     TIP3     H1       HT       0.417000       1.00800           0
     54657 TIP3     5087     TIP3     H2       HT       0.417000       1.00800           0
     54658 TIP3     5088     TIP3     OH2      OT      -0.834000       15.9994           0
     54659 TIP3     5088     TIP3     H1       HT       0.417000       1.00800           0
     54660 TIP3     5088     TIP3     H2       HT       0.417000       1.00800           0
     54661 TIP3     5089     TIP3     OH2      OT      -0.834000       15.9994           0
     54662 TIP3     5089     TIP3     H1       HT       0.417000       1.00800           0
     54663 TIP3     5089     TIP3     H2       HT       0.417000       1.00800           0
     54664 TIP3     5090     TIP3     OH2      OT      -0.834000       15.9994           0
     54665 TIP3     5090     TIP3     H1       HT       0.417000       1.00800           0
     54666 TIP3     5090     TIP3     H2       HT       0.417000       1.00800           0
     54667 TIP3     5091     TIP3     OH2      OT      -0.834000       15.9994           0
     54668 TIP3     5091     TIP3     H1       HT       0.417000       1.00800           0
     54669 TIP3     5091     TIP3     H2       HT       0.417000       1.00800           0
     54670 TIP3     5092     TIP3     OH2      OT      -0.834000       15.9994           0
     54671 TIP3     5092     TIP3     H1       HT       0.417000       1.00800           0
     54672 TIP3     5092     TIP3     H2       HT       0.417000       1.00800           0
     54673 TIP3     5093     TIP3     OH2      OT      -0.834000       15.9994           0
     54674 TIP3     5093     TIP3     H1       HT       0.417000       1.00800           0
     54675 TIP3     5093     TIP3     H2       HT       0.417000       1.00800           0
     54676 TIP3     5094     TIP3     OH2      OT      -0.834000       15.9994           0
     54677 TIP3     5094     TIP3     H1       HT       0.417000       1.00800           0
     54678 TIP3     5094     TIP3     H2       HT       0.417000       1.00800           0
     54679 TIP3     5095     TIP3     OH2      OT      -0.834000       15.9994           0
     54680 TIP3     5095     TIP3     H1       HT       0.417000       1.00800           0
     54681 TIP3     5095     TIP3     H2       HT       0.417000       1.00800           0
     54682 TIP3     5096     TIP3     OH2      OT      -0.834000       15.9994           0
     54683 TIP3     5096     TIP3     H1       HT       0.417000       1.00800           0
     54684 TIP3     5096     TIP3     H2       HT       0.417000       1.00800           0
     54685 TIP3     5097     TIP3     OH2      OT      -0.834000       15.9994           0
     54686 TIP3     5097     TIP3     H1       HT       0.417000       1.00800           0
     54687 TIP3     5097     TIP3     H2       HT       0.417000       1.00800           0
     54688 TIP3     5098     TIP3     OH2      OT      -0.834000       15.9994           0
     54689 TIP3     5098     TIP3     H1       HT       0.417000       1.00800           0
     54690 TIP3     5098     TIP3     H2       HT       0.417000       1.00800           0
     54691 TIP3     5099     TIP3     OH2      OT      -0.834000       15.9994           0
     54692 TIP3     5099     TIP3     H1       HT       0.417000       1.00800           0
     54693 TIP3     5099     TIP3     H2       HT       0.417000       1.00800           0
     54694 TIP3     5100     TIP3     OH2      OT      -0.834000       15.9994           0
     54695 TIP3     5100     TIP3     H1       HT       0.417000       1.00800           0
     54696 TIP3     5100     TIP3     H2       HT       0.417000       1.00800           0
     54697 TIP3     5101     TIP3     OH2      OT      -0.834000       15.9994           0
     54698 TIP3     5101     TIP3     H1       HT       0.417000       1.00800           0
     54699 TIP3     5101     TIP3     H2       HT       0.417000       1.00800           0
     54700 TIP3     5102     TIP3     OH2      OT      -0.834000       15.9994           0
     54701 TIP3     5102     TIP3     H1       HT       0.417000       1.00800           0
     54702 TIP3     5102     TIP3     H2       HT       0.417000       1.00800           0
     54703 TIP3     5103     TIP3     OH2      OT      -0.834000       15.9994           0
     54704 TIP3     5103     TIP3     H1       HT       0.417000       1.00800           0
     54705 TIP3     5103     TIP3     H2       HT       0.417000       1.00800           0
     54706 TIP3     5104     TIP3     OH2      OT      -0.834000       15.9994           0
     54707 TIP3     5104     TIP3     H1       HT       0.417000       1.00800           0
     54708 TIP3     5104     TIP3     H2       HT       0.417000       1.00800           0
     54709 TIP3     5105     TIP3     OH2      OT      -0.834000       15.9994           0
     54710 TIP3     5105     TIP3     H1       HT       0.417000       1.00800           0
     54711 TIP3     5105     TIP3     H2       HT       0.417000       1.00800           0
     54712 TIP3     5106     TIP3     OH2      OT      -0.834000       15.9994           0
     54713 TIP3     5106     TIP3     H1       HT       0.417000       1.00800           0
     54714 TIP3     5106     TIP3     H2       HT       0.417000       1.00800           0
     54715 TIP3     5107     TIP3     OH2      OT      -0.834000       15.9994           0
     54716 TIP3     5107     TIP3     H1       HT       0.417000       1.00800           0
     54717 TIP3     5107     TIP3     H2       HT       0.417000       1.00800           0
     54718 TIP3     5108     TIP3     OH2      OT      -0.834000       15.9994           0
     54719 TIP3     5108     TIP3     H1       HT       0.417000       1.00800           0
     54720 TIP3     5108     TIP3     H2       HT       0.417000       1.00800           0
     54721 TIP3     5109     TIP3     OH2      OT      -0.834000       15.9994           0
     54722 TIP3     5109     TIP3     H1       HT       0.417000       1.00800           0
     54723 TIP3     5109     TIP3     H2       HT       0.417000       1.00800           0
     54724 TIP3     5110     TIP3     OH2      OT      -0.834000       15.9994           0
     54725 TIP3     5110     TIP3     H1       HT       0.417000       1.00800           0
     54726 TIP3     5110     TIP3     H2       HT       0.417000       1.00800           0
     54727 TIP3     5111     TIP3     OH2      OT      -0.834000       15.9994           0
     54728 TIP3     5111     TIP3     H1       HT       0.417000       1.00800           0
     54729 TIP3     5111     TIP3     H2       HT       0.417000       1.00800           0
     54730 TIP3     5112     TIP3     OH2      OT      -0.834000       15.9994           0
     54731 TIP3     5112     TIP3     H1       HT       0.417000       1.00800           0
     54732 TIP3     5112     TIP3     H2       HT       0.417000       1.00800           0
     54733 TIP3     5113     TIP3     OH2      OT      -0.834000       15.9994           0
     54734 TIP3     5113     TIP3     H1       HT       0.417000       1.00800           0
     54735 TIP3     5113     TIP3     H2       HT       0.417000       1.00800           0
     54736 TIP3     5114     TIP3     OH2      OT      -0.834000       15.9994           0
     54737 TIP3     5114     TIP3     H1       HT       0.417000       1.00800           0
     54738 TIP3     5114     TIP3     H2       HT       0.417000       1.00800           0
     54739 TIP3     5115     TIP3     OH2      OT      -0.834000       15.9994           0
     54740 TIP3     5115     TIP3     H1       HT       0.417000       1.00800           0
     54741 TIP3     5115     TIP3     H2       HT       0.417000       1.00800           0
     54742 TIP3     5116     TIP3     OH2      OT      -0.834000       15.9994           0
     54743 TIP3     5116     TIP3     H1       HT       0.417000       1.00800           0
     54744 TIP3     5116     TIP3     H2       HT       0.417000       1.00800           0
     54745 TIP3     5117     TIP3     OH2      OT      -0.834000       15.9994           0
     54746 TIP3     5117     TIP3     H1       HT       0.417000       1.00800           0
     54747 TIP3     5117     TIP3     H2       HT       0.417000       1.00800           0
     54748 TIP3     5118     TIP3     OH2      OT      -0.834000       15.9994           0
     54749 TIP3     5118     TIP3     H1       HT       0.417000       1.00800           0
     54750 TIP3     5118     TIP3     H2       HT       0.417000       1.00800           0
     54751 TIP3     5119     TIP3     OH2      OT      -0.834000       15.9994           0
     54752 TIP3     5119     TIP3     H1       HT       0.417000       1.00800           0
     54753 TIP3     5119     TIP3     H2       HT       0.417000       1.00800           0
     54754 TIP3     5120     TIP3     OH2      OT      -0.834000       15.9994           0
     54755 TIP3     5120     TIP3     H1       HT       0.417000       1.00800           0
     54756 TIP3     5120     TIP3     H2       HT       0.417000       1.00800           0
     54757 TIP3     5121     TIP3     OH2      OT      -0.834000       15.9994           0
     54758 TIP3     5121     TIP3     H1       HT       0.417000       1.00800           0
     54759 TIP3     5121     TIP3     H2       HT       0.417000       1.00800           0
     54760 TIP3     5122     TIP3     OH2      OT      -0.834000       15.9994           0
     54761 TIP3     5122     TIP3     H1       HT       0.417000       1.00800           0
     54762 TIP3     5122     TIP3     H2       HT       0.417000       1.00800           0
     54763 TIP3     5123     TIP3     OH2      OT      -0.834000       15.9994           0
     54764 TIP3     5123     TIP3     H1       HT       0.417000       1.00800           0
     54765 TIP3     5123     TIP3     H2       HT       0.417000       1.00800           0
     54766 TIP3     5124     TIP3     OH2      OT      -0.834000       15.9994           0
     54767 TIP3     5124     TIP3     H1       HT       0.417000       1.00800           0
     54768 TIP3     5124     TIP3     H2       HT       0.417000       1.00800           0
     54769 TIP3     5125     TIP3     OH2      OT      -0.834000       15.9994           0
     54770 TIP3     5125     TIP3     H1       HT       0.417000       1.00800           0
     54771 TIP3     5125     TIP3     H2       HT       0.417000       1.00800           0
     54772 TIP3     5126     TIP3     OH2      OT      -0.834000       15.9994           0
     54773 TIP3     5126     TIP3     H1       HT       0.417000       1.00800           0
     54774 TIP3     5126     TIP3     H2       HT       0.417000       1.00800           0
     54775 TIP3     5127     TIP3     OH2      OT      -0.834000       15.9994           0
     54776 TIP3     5127     TIP3     H1       HT       0.417000       1.00800           0
     54777 TIP3     5127     TIP3     H2       HT       0.417000       1.00800           0
     54778 TIP3     5128     TIP3     OH2      OT      -0.834000       15.9994           0
     54779 TIP3     5128     TIP3     H1       HT       0.417000       1.00800           0
     54780 TIP3     5128     TIP3     H2       HT       0.417000       1.00800           0
     54781 TIP3     5129     TIP3     OH2      OT      -0.834000       15.9994           0
     54782 TIP3     5129     TIP3     H1       HT       0.417000       1.00800           0
     54783 TIP3     5129     TIP3     H2       HT       0.417000       1.00800           0
     54784 TIP3     5130     TIP3     OH2      OT      -0.834000       15.9994           0
     54785 TIP3     5130     TIP3     H1       HT       0.417000       1.00800           0
     54786 TIP3     5130     TIP3     H2       HT       0.417000       1.00800           0
     54787 TIP3     5131     TIP3     OH2      OT      -0.834000       15.9994           0
     54788 TIP3     5131     TIP3     H1       HT       0.417000       1.00800           0
     54789 TIP3     5131     TIP3     H2       HT       0.417000       1.00800           0
     54790 TIP3     5132     TIP3     OH2      OT      -0.834000       15.9994           0
     54791 TIP3     5132     TIP3     H1       HT       0.417000       1.00800           0
     54792 TIP3     5132     TIP3     H2       HT       0.417000       1.00800           0
     54793 TIP3     5133     TIP3     OH2      OT      -0.834000       15.9994           0
     54794 TIP3     5133     TIP3     H1       HT       0.417000       1.00800           0
     54795 TIP3     5133     TIP3     H2       HT       0.417000       1.00800           0
     54796 TIP3     5134     TIP3     OH2      OT      -0.834000       15.9994           0
     54797 TIP3     5134     TIP3     H1       HT       0.417000       1.00800           0
     54798 TIP3     5134     TIP3     H2       HT       0.417000       1.00800           0
     54799 TIP3     5135     TIP3     OH2      OT      -0.834000       15.9994           0
     54800 TIP3     5135     TIP3     H1       HT       0.417000       1.00800           0
     54801 TIP3     5135     TIP3     H2       HT       0.417000       1.00800           0
     54802 TIP3     5136     TIP3     OH2      OT      -0.834000       15.9994           0
     54803 TIP3     5136     TIP3     H1       HT       0.417000       1.00800           0
     54804 TIP3     5136     TIP3     H2       HT       0.417000       1.00800           0
     54805 TIP3     5137     TIP3     OH2      OT      -0.834000       15.9994           0
     54806 TIP3     5137     TIP3     H1       HT       0.417000       1.00800           0
     54807 TIP3     5137     TIP3     H2       HT       0.417000       1.00800           0
     54808 TIP3     5138     TIP3     OH2      OT      -0.834000       15.9994           0
     54809 TIP3     5138     TIP3     H1       HT       0.417000       1.00800           0
     54810 TIP3     5138     TIP3     H2       HT       0.417000       1.00800           0
     54811 TIP3     5139     TIP3     OH2      OT      -0.834000       15.9994           0
     54812 TIP3     5139     TIP3     H1       HT       0.417000       1.00800           0
     54813 TIP3     5139     TIP3     H2       HT       0.417000       1.00800           0
     54814 TIP3     5140     TIP3     OH2      OT      -0.834000       15.9994           0
     54815 TIP3     5140     TIP3     H1       HT       0.417000       1.00800           0
     54816 TIP3     5140     TIP3     H2       HT       0.417000       1.00800           0
     54817 TIP3     5141     TIP3     OH2      OT      -0.834000       15.9994           0
     54818 TIP3     5141     TIP3     H1       HT       0.417000       1.00800           0
     54819 TIP3     5141     TIP3     H2       HT       0.417000       1.00800           0
     54820 TIP3     5142     TIP3     OH2      OT      -0.834000       15.9994           0
     54821 TIP3     5142     TIP3     H1       HT       0.417000       1.00800           0
     54822 TIP3     5142     TIP3     H2       HT       0.417000       1.00800           0
     54823 TIP3     5143     TIP3     OH2      OT      -0.834000       15.9994           0
     54824 TIP3     5143     TIP3     H1       HT       0.417000       1.00800           0
     54825 TIP3     5143     TIP3     H2       HT       0.417000       1.00800           0
     54826 TIP3     5144     TIP3     OH2      OT      -0.834000       15.9994           0
     54827 TIP3     5144     TIP3     H1       HT       0.417000       1.00800           0
     54828 TIP3     5144     TIP3     H2       HT       0.417000       1.00800           0
     54829 TIP3     5145     TIP3     OH2      OT      -0.834000       15.9994           0
     54830 TIP3     5145     TIP3     H1       HT       0.417000       1.00800           0
     54831 TIP3     5145     TIP3     H2       HT       0.417000       1.00800           0
     54832 TIP3     5146     TIP3     OH2      OT      -0.834000       15.9994           0
     54833 TIP3     5146     TIP3     H1       HT       0.417000       1.00800           0
     54834 TIP3     5146     TIP3     H2       HT       0.417000       1.00800           0
     54835 TIP3     5147     TIP3     OH2      OT      -0.834000       15.9994           0
     54836 TIP3     5147     TIP3     H1       HT       0.417000       1.00800           0
     54837 TIP3     5147     TIP3     H2       HT       0.417000       1.00800           0
     54838 TIP3     5148     TIP3     OH2      OT      -0.834000       15.9994           0
     54839 TIP3     5148     TIP3     H1       HT       0.417000       1.00800           0
     54840 TIP3     5148     TIP3     H2       HT       0.417000       1.00800           0
     54841 TIP3     5149     TIP3     OH2      OT      -0.834000       15.9994           0
     54842 TIP3     5149     TIP3     H1       HT       0.417000       1.00800           0
     54843 TIP3     5149     TIP3     H2       HT       0.417000       1.00800           0
     54844 TIP3     5150     TIP3     OH2      OT      -0.834000       15.9994           0
     54845 TIP3     5150     TIP3     H1       HT       0.417000       1.00800           0
     54846 TIP3     5150     TIP3     H2       HT       0.417000       1.00800           0
     54847 TIP3     5151     TIP3     OH2      OT      -0.834000       15.9994           0
     54848 TIP3     5151     TIP3     H1       HT       0.417000       1.00800           0
     54849 TIP3     5151     TIP3     H2       HT       0.417000       1.00800           0
     54850 TIP3     5152     TIP3     OH2      OT      -0.834000       15.9994           0
     54851 TIP3     5152     TIP3     H1       HT       0.417000       1.00800           0
     54852 TIP3     5152     TIP3     H2       HT       0.417000       1.00800           0
     54853 TIP3     5153     TIP3     OH2      OT      -0.834000       15.9994           0
     54854 TIP3     5153     TIP3     H1       HT       0.417000       1.00800           0
     54855 TIP3     5153     TIP3     H2       HT       0.417000       1.00800           0
     54856 TIP3     5154     TIP3     OH2      OT      -0.834000       15.9994           0
     54857 TIP3     5154     TIP3     H1       HT       0.417000       1.00800           0
     54858 TIP3     5154     TIP3     H2       HT       0.417000       1.00800           0
     54859 TIP3     5155     TIP3     OH2      OT      -0.834000       15.9994           0
     54860 TIP3     5155     TIP3     H1       HT       0.417000       1.00800           0
     54861 TIP3     5155     TIP3     H2       HT       0.417000       1.00800           0
     54862 TIP3     5156     TIP3     OH2      OT      -0.834000       15.9994           0
     54863 TIP3     5156     TIP3     H1       HT       0.417000       1.00800           0
     54864 TIP3     5156     TIP3     H2       HT       0.417000       1.00800           0
     54865 TIP3     5157     TIP3     OH2      OT      -0.834000       15.9994           0
     54866 TIP3     5157     TIP3     H1       HT       0.417000       1.00800           0
     54867 TIP3     5157     TIP3     H2       HT       0.417000       1.00800           0
     54868 TIP3     5158     TIP3     OH2      OT      -0.834000       15.9994           0
     54869 TIP3     5158     TIP3     H1       HT       0.417000       1.00800           0
     54870 TIP3     5158     TIP3     H2       HT       0.417000       1.00800           0
     54871 TIP3     5159     TIP3     OH2      OT      -0.834000       15.9994           0
     54872 TIP3     5159     TIP3     H1       HT       0.417000       1.00800           0
     54873 TIP3     5159     TIP3     H2       HT       0.417000       1.00800           0
     54874 TIP3     5160     TIP3     OH2      OT      -0.834000       15.9994           0
     54875 TIP3     5160     TIP3     H1       HT       0.417000       1.00800           0
     54876 TIP3     5160     TIP3     H2       HT       0.417000       1.00800           0
     54877 TIP3     5161     TIP3     OH2      OT      -0.834000       15.9994           0
     54878 TIP3     5161     TIP3     H1       HT       0.417000       1.00800           0
     54879 TIP3     5161     TIP3     H2       HT       0.417000       1.00800           0
     54880 TIP3     5162     TIP3     OH2      OT      -0.834000       15.9994           0
     54881 TIP3     5162     TIP3     H1       HT       0.417000       1.00800           0
     54882 TIP3     5162     TIP3     H2       HT       0.417000       1.00800           0
     54883 TIP3     5163     TIP3     OH2      OT      -0.834000       15.9994           0
     54884 TIP3     5163     TIP3     H1       HT       0.417000       1.00800           0
     54885 TIP3     5163     TIP3     H2       HT       0.417000       1.00800           0
     54886 TIP3     5164     TIP3     OH2      OT      -0.834000       15.9994           0
     54887 TIP3     5164     TIP3     H1       HT       0.417000       1.00800           0
     54888 TIP3     5164     TIP3     H2       HT       0.417000       1.00800           0
     54889 TIP3     5165     TIP3     OH2      OT      -0.834000       15.9994           0
     54890 TIP3     5165     TIP3     H1       HT       0.417000       1.00800           0
     54891 TIP3     5165     TIP3     H2       HT       0.417000       1.00800           0
     54892 TIP3     5166     TIP3     OH2      OT      -0.834000       15.9994           0
     54893 TIP3     5166     TIP3     H1       HT       0.417000       1.00800           0
     54894 TIP3     5166     TIP3     H2       HT       0.417000       1.00800           0
     54895 TIP3     5167     TIP3     OH2      OT      -0.834000       15.9994           0
     54896 TIP3     5167     TIP3     H1       HT       0.417000       1.00800           0
     54897 TIP3     5167     TIP3     H2       HT       0.417000       1.00800           0
     54898 TIP3     5168     TIP3     OH2      OT      -0.834000       15.9994           0
     54899 TIP3     5168     TIP3     H1       HT       0.417000       1.00800           0
     54900 TIP3     5168     TIP3     H2       HT       0.417000       1.00800           0
     54901 TIP3     5169     TIP3     OH2      OT      -0.834000       15.9994           0
     54902 TIP3     5169     TIP3     H1       HT       0.417000       1.00800           0
     54903 TIP3     5169     TIP3     H2       HT       0.417000       1.00800           0
     54904 TIP3     5170     TIP3     OH2      OT      -0.834000       15.9994           0
     54905 TIP3     5170     TIP3     H1       HT       0.417000       1.00800           0
     54906 TIP3     5170     TIP3     H2       HT       0.417000       1.00800           0
     54907 TIP3     5171     TIP3     OH2      OT      -0.834000       15.9994           0
     54908 TIP3     5171     TIP3     H1       HT       0.417000       1.00800           0
     54909 TIP3     5171     TIP3     H2       HT       0.417000       1.00800           0
     54910 TIP3     5172     TIP3     OH2      OT      -0.834000       15.9994           0
     54911 TIP3     5172     TIP3     H1       HT       0.417000       1.00800           0
     54912 TIP3     5172     TIP3     H2       HT       0.417000       1.00800           0
     54913 TIP3     5173     TIP3     OH2      OT      -0.834000       15.9994           0
     54914 TIP3     5173     TIP3     H1       HT       0.417000       1.00800           0
     54915 TIP3     5173     TIP3     H2       HT       0.417000       1.00800           0
     54916 TIP3     5174     TIP3     OH2      OT      -0.834000       15.9994           0
     54917 TIP3     5174     TIP3     H1       HT       0.417000       1.00800           0
     54918 TIP3     5174     TIP3     H2       HT       0.417000       1.00800           0
     54919 TIP3     5175     TIP3     OH2      OT      -0.834000       15.9994           0
     54920 TIP3     5175     TIP3     H1       HT       0.417000       1.00800           0
     54921 TIP3     5175     TIP3     H2       HT       0.417000       1.00800           0
     54922 TIP3     5176     TIP3     OH2      OT      -0.834000       15.9994           0
     54923 TIP3     5176     TIP3     H1       HT       0.417000       1.00800           0
     54924 TIP3     5176     TIP3     H2       HT       0.417000       1.00800           0
     54925 TIP3     5177     TIP3     OH2      OT      -0.834000       15.9994           0
     54926 TIP3     5177     TIP3     H1       HT       0.417000       1.00800           0
     54927 TIP3     5177     TIP3     H2       HT       0.417000       1.00800           0
     54928 TIP3     5178     TIP3     OH2      OT      -0.834000       15.9994           0
     54929 TIP3     5178     TIP3     H1       HT       0.417000       1.00800           0
     54930 TIP3     5178     TIP3     H2       HT       0.417000       1.00800           0
     54931 TIP3     5179     TIP3     OH2      OT      -0.834000       15.9994           0
     54932 TIP3     5179     TIP3     H1       HT       0.417000       1.00800           0
     54933 TIP3     5179     TIP3     H2       HT       0.417000       1.00800           0
     54934 TIP3     5180     TIP3     OH2      OT      -0.834000       15.9994           0
     54935 TIP3     5180     TIP3     H1       HT       0.417000       1.00800           0
     54936 TIP3     5180     TIP3     H2       HT       0.417000       1.00800           0
     54937 TIP3     5181     TIP3     OH2      OT      -0.834000       15.9994           0
     54938 TIP3     5181     TIP3     H1       HT       0.417000       1.00800           0
     54939 TIP3     5181     TIP3     H2       HT       0.417000       1.00800           0
     54940 TIP3     5182     TIP3     OH2      OT      -0.834000       15.9994           0
     54941 TIP3     5182     TIP3     H1       HT       0.417000       1.00800           0
     54942 TIP3     5182     TIP3     H2       HT       0.417000       1.00800           0
     54943 TIP3     5183     TIP3     OH2      OT      -0.834000       15.9994           0
     54944 TIP3     5183     TIP3     H1       HT       0.417000       1.00800           0
     54945 TIP3     5183     TIP3     H2       HT       0.417000       1.00800           0
     54946 TIP3     5184     TIP3     OH2      OT      -0.834000       15.9994           0
     54947 TIP3     5184     TIP3     H1       HT       0.417000       1.00800           0
     54948 TIP3     5184     TIP3     H2       HT       0.417000       1.00800           0
     54949 TIP3     5185     TIP3     OH2      OT      -0.834000       15.9994           0
     54950 TIP3     5185     TIP3     H1       HT       0.417000       1.00800           0
     54951 TIP3     5185     TIP3     H2       HT       0.417000       1.00800           0
     54952 TIP3     5186     TIP3     OH2      OT      -0.834000       15.9994           0
     54953 TIP3     5186     TIP3     H1       HT       0.417000       1.00800           0
     54954 TIP3     5186     TIP3     H2       HT       0.417000       1.00800           0
     54955 TIP3     5187     TIP3     OH2      OT      -0.834000       15.9994           0
     54956 TIP3     5187     TIP3     H1       HT       0.417000       1.00800           0
     54957 TIP3     5187     TIP3     H2       HT       0.417000       1.00800           0
     54958 TIP3     5188     TIP3     OH2      OT      -0.834000       15.9994           0
     54959 TIP3     5188     TIP3     H1       HT       0.417000       1.00800           0
     54960 TIP3     5188     TIP3     H2       HT       0.417000       1.00800           0
     54961 TIP3     5189     TIP3     OH2      OT      -0.834000       15.9994           0
     54962 TIP3     5189     TIP3     H1       HT       0.417000       1.00800           0
     54963 TIP3     5189     TIP3     H2       HT       0.417000       1.00800           0
     54964 TIP3     5190     TIP3     OH2      OT      -0.834000       15.9994           0
     54965 TIP3     5190     TIP3     H1       HT       0.417000       1.00800           0
     54966 TIP3     5190     TIP3     H2       HT       0.417000       1.00800           0
     54967 TIP3     5191     TIP3     OH2      OT      -0.834000       15.9994           0
     54968 TIP3     5191     TIP3     H1       HT       0.417000       1.00800           0
     54969 TIP3     5191     TIP3     H2       HT       0.417000       1.00800           0
     54970 TIP3     5192     TIP3     OH2      OT      -0.834000       15.9994           0
     54971 TIP3     5192     TIP3     H1       HT       0.417000       1.00800           0
     54972 TIP3     5192     TIP3     H2       HT       0.417000       1.00800           0
     54973 TIP3     5193     TIP3     OH2      OT      -0.834000       15.9994           0
     54974 TIP3     5193     TIP3     H1       HT       0.417000       1.00800           0
     54975 TIP3     5193     TIP3     H2       HT       0.417000       1.00800           0
     54976 TIP3     5194     TIP3     OH2      OT      -0.834000       15.9994           0
     54977 TIP3     5194     TIP3     H1       HT       0.417000       1.00800           0
     54978 TIP3     5194     TIP3     H2       HT       0.417000       1.00800           0
     54979 TIP3     5195     TIP3     OH2      OT      -0.834000       15.9994           0
     54980 TIP3     5195     TIP3     H1       HT       0.417000       1.00800           0
     54981 TIP3     5195     TIP3     H2       HT       0.417000       1.00800           0
     54982 TIP3     5196     TIP3     OH2      OT      -0.834000       15.9994           0
     54983 TIP3     5196     TIP3     H1       HT       0.417000       1.00800           0
     54984 TIP3     5196     TIP3     H2       HT       0.417000       1.00800           0
     54985 TIP3     5197     TIP3     OH2      OT      -0.834000       15.9994           0
     54986 TIP3     5197     TIP3     H1       HT       0.417000       1.00800           0
     54987 TIP3     5197     TIP3     H2       HT       0.417000       1.00800           0
     54988 TIP3     5198     TIP3     OH2      OT      -0.834000       15.9994           0
     54989 TIP3     5198     TIP3     H1       HT       0.417000       1.00800           0
     54990 TIP3     5198     TIP3     H2       HT       0.417000       1.00800           0
     54991 TIP3     5199     TIP3     OH2      OT      -0.834000       15.9994           0
     54992 TIP3     5199     TIP3     H1       HT       0.417000       1.00800           0
     54993 TIP3     5199     TIP3     H2       HT       0.417000       1.00800           0
     54994 TIP3     5200     TIP3     OH2      OT      -0.834000       15.9994           0
     54995 TIP3     5200     TIP3     H1       HT       0.417000       1.00800           0
     54996 TIP3     5200     TIP3     H2       HT       0.417000       1.00800           0
     54997 TIP3     5201     TIP3     OH2      OT      -0.834000       15.9994           0
     54998 TIP3     5201     TIP3     H1       HT       0.417000       1.00800           0
     54999 TIP3     5201     TIP3     H2       HT       0.417000       1.00800           0
     55000 TIP3     5202     TIP3     OH2      OT      -0.834000       15.9994           0
     55001 TIP3     5202     TIP3     H1       HT       0.417000       1.00800           0
     55002 TIP3     5202     TIP3     H2       HT       0.417000       1.00800           0
     55003 TIP3     5203     TIP3     OH2      OT      -0.834000       15.9994           0
     55004 TIP3     5203     TIP3     H1       HT       0.417000       1.00800           0
     55005 TIP3     5203     TIP3     H2       HT       0.417000       1.00800           0
     55006 TIP3     5204     TIP3     OH2      OT      -0.834000       15.9994           0
     55007 TIP3     5204     TIP3     H1       HT       0.417000       1.00800           0
     55008 TIP3     5204     TIP3     H2       HT       0.417000       1.00800           0
     55009 TIP3     5205     TIP3     OH2      OT      -0.834000       15.9994           0
     55010 TIP3     5205     TIP3     H1       HT       0.417000       1.00800           0
     55011 TIP3     5205     TIP3     H2       HT       0.417000       1.00800           0
     55012 TIP3     5206     TIP3     OH2      OT      -0.834000       15.9994           0
     55013 TIP3     5206     TIP3     H1       HT       0.417000       1.00800           0
     55014 TIP3     5206     TIP3     H2       HT       0.417000       1.00800           0
     55015 TIP3     5207     TIP3     OH2      OT      -0.834000       15.9994           0
     55016 TIP3     5207     TIP3     H1       HT       0.417000       1.00800           0
     55017 TIP3     5207     TIP3     H2       HT       0.417000       1.00800           0
     55018 TIP3     5208     TIP3     OH2      OT      -0.834000       15.9994           0
     55019 TIP3     5208     TIP3     H1       HT       0.417000       1.00800           0
     55020 TIP3     5208     TIP3     H2       HT       0.417000       1.00800           0
     55021 TIP3     5209     TIP3     OH2      OT      -0.834000       15.9994           0
     55022 TIP3     5209     TIP3     H1       HT       0.417000       1.00800           0
     55023 TIP3     5209     TIP3     H2       HT       0.417000       1.00800           0
     55024 TIP3     5210     TIP3     OH2      OT      -0.834000       15.9994           0
     55025 TIP3     5210     TIP3     H1       HT       0.417000       1.00800           0
     55026 TIP3     5210     TIP3     H2       HT       0.417000       1.00800           0
     55027 TIP3     5211     TIP3     OH2      OT      -0.834000       15.9994           0
     55028 TIP3     5211     TIP3     H1       HT       0.417000       1.00800           0
     55029 TIP3     5211     TIP3     H2       HT       0.417000       1.00800           0
     55030 TIP3     5212     TIP3     OH2      OT      -0.834000       15.9994           0
     55031 TIP3     5212     TIP3     H1       HT       0.417000       1.00800           0
     55032 TIP3     5212     TIP3     H2       HT       0.417000       1.00800           0
     55033 TIP3     5213     TIP3     OH2      OT      -0.834000       15.9994           0
     55034 TIP3     5213     TIP3     H1       HT       0.417000       1.00800           0
     55035 TIP3     5213     TIP3     H2       HT       0.417000       1.00800           0
     55036 TIP3     5214     TIP3     OH2      OT      -0.834000       15.9994           0
     55037 TIP3     5214     TIP3     H1       HT       0.417000       1.00800           0
     55038 TIP3     5214     TIP3     H2       HT       0.417000       1.00800           0
     55039 TIP3     5215     TIP3     OH2      OT      -0.834000       15.9994           0
     55040 TIP3     5215     TIP3     H1       HT       0.417000       1.00800           0
     55041 TIP3     5215     TIP3     H2       HT       0.417000       1.00800           0
     55042 TIP3     5216     TIP3     OH2      OT      -0.834000       15.9994           0
     55043 TIP3     5216     TIP3     H1       HT       0.417000       1.00800           0
     55044 TIP3     5216     TIP3     H2       HT       0.417000       1.00800           0
     55045 TIP3     5217     TIP3     OH2      OT      -0.834000       15.9994           0
     55046 TIP3     5217     TIP3     H1       HT       0.417000       1.00800           0
     55047 TIP3     5217     TIP3     H2       HT       0.417000       1.00800           0
     55048 TIP3     5218     TIP3     OH2      OT      -0.834000       15.9994           0
     55049 TIP3     5218     TIP3     H1       HT       0.417000       1.00800           0
     55050 TIP3     5218     TIP3     H2       HT       0.417000       1.00800           0
     55051 TIP3     5219     TIP3     OH2      OT      -0.834000       15.9994           0
     55052 TIP3     5219     TIP3     H1       HT       0.417000       1.00800           0
     55053 TIP3     5219     TIP3     H2       HT       0.417000       1.00800           0
     55054 TIP3     5220     TIP3     OH2      OT      -0.834000       15.9994           0
     55055 TIP3     5220     TIP3     H1       HT       0.417000       1.00800           0
     55056 TIP3     5220     TIP3     H2       HT       0.417000       1.00800           0
     55057 TIP3     5221     TIP3     OH2      OT      -0.834000       15.9994           0
     55058 TIP3     5221     TIP3     H1       HT       0.417000       1.00800           0
     55059 TIP3     5221     TIP3     H2       HT       0.417000       1.00800           0
     55060 TIP3     5222     TIP3     OH2      OT      -0.834000       15.9994           0
     55061 TIP3     5222     TIP3     H1       HT       0.417000       1.00800           0
     55062 TIP3     5222     TIP3     H2       HT       0.417000       1.00800           0
     55063 TIP3     5223     TIP3     OH2      OT      -0.834000       15.9994           0
     55064 TIP3     5223     TIP3     H1       HT       0.417000       1.00800           0
     55065 TIP3     5223     TIP3     H2       HT       0.417000       1.00800           0
     55066 TIP3     5224     TIP3     OH2      OT      -0.834000       15.9994           0
     55067 TIP3     5224     TIP3     H1       HT       0.417000       1.00800           0
     55068 TIP3     5224     TIP3     H2       HT       0.417000       1.00800           0
     55069 TIP3     5225     TIP3     OH2      OT      -0.834000       15.9994           0
     55070 TIP3     5225     TIP3     H1       HT       0.417000       1.00800           0
     55071 TIP3     5225     TIP3     H2       HT       0.417000       1.00800           0
     55072 TIP3     5226     TIP3     OH2      OT      -0.834000       15.9994           0
     55073 TIP3     5226     TIP3     H1       HT       0.417000       1.00800           0
     55074 TIP3     5226     TIP3     H2       HT       0.417000       1.00800           0
     55075 TIP3     5227     TIP3     OH2      OT      -0.834000       15.9994           0
     55076 TIP3     5227     TIP3     H1       HT       0.417000       1.00800           0
     55077 TIP3     5227     TIP3     H2       HT       0.417000       1.00800           0
     55078 TIP3     5228     TIP3     OH2      OT      -0.834000       15.9994           0
     55079 TIP3     5228     TIP3     H1       HT       0.417000       1.00800           0
     55080 TIP3     5228     TIP3     H2       HT       0.417000       1.00800           0
     55081 TIP3     5229     TIP3     OH2      OT      -0.834000       15.9994           0
     55082 TIP3     5229     TIP3     H1       HT       0.417000       1.00800           0
     55083 TIP3     5229     TIP3     H2       HT       0.417000       1.00800           0
     55084 TIP3     5230     TIP3     OH2      OT      -0.834000       15.9994           0
     55085 TIP3     5230     TIP3     H1       HT       0.417000       1.00800           0
     55086 TIP3     5230     TIP3     H2       HT       0.417000       1.00800           0
     55087 TIP3     5231     TIP3     OH2      OT      -0.834000       15.9994           0
     55088 TIP3     5231     TIP3     H1       HT       0.417000       1.00800           0
     55089 TIP3     5231     TIP3     H2       HT       0.417000       1.00800           0
     55090 TIP3     5232     TIP3     OH2      OT      -0.834000       15.9994           0
     55091 TIP3     5232     TIP3     H1       HT       0.417000       1.00800           0
     55092 TIP3     5232     TIP3     H2       HT       0.417000       1.00800           0
     55093 TIP3     5233     TIP3     OH2      OT      -0.834000       15.9994           0
     55094 TIP3     5233     TIP3     H1       HT       0.417000       1.00800           0
     55095 TIP3     5233     TIP3     H2       HT       0.417000       1.00800           0
     55096 TIP3     5234     TIP3     OH2      OT      -0.834000       15.9994           0
     55097 TIP3     5234     TIP3     H1       HT       0.417000       1.00800           0
     55098 TIP3     5234     TIP3     H2       HT       0.417000       1.00800           0
     55099 TIP3     5235     TIP3     OH2      OT      -0.834000       15.9994           0
     55100 TIP3     5235     TIP3     H1       HT       0.417000       1.00800           0
     55101 TIP3     5235     TIP3     H2       HT       0.417000       1.00800           0
     55102 TIP3     5236     TIP3     OH2      OT      -0.834000       15.9994           0
     55103 TIP3     5236     TIP3     H1       HT       0.417000       1.00800           0
     55104 TIP3     5236     TIP3     H2       HT       0.417000       1.00800           0
     55105 TIP3     5237     TIP3     OH2      OT      -0.834000       15.9994           0
     55106 TIP3     5237     TIP3     H1       HT       0.417000       1.00800           0
     55107 TIP3     5237     TIP3     H2       HT       0.417000       1.00800           0
     55108 TIP3     5238     TIP3     OH2      OT      -0.834000       15.9994           0
     55109 TIP3     5238     TIP3     H1       HT       0.417000       1.00800           0
     55110 TIP3     5238     TIP3     H2       HT       0.417000       1.00800           0
     55111 TIP3     5239     TIP3     OH2      OT      -0.834000       15.9994           0
     55112 TIP3     5239     TIP3     H1       HT       0.417000       1.00800           0
     55113 TIP3     5239     TIP3     H2       HT       0.417000       1.00800           0
     55114 TIP3     5240     TIP3     OH2      OT      -0.834000       15.9994           0
     55115 TIP3     5240     TIP3     H1       HT       0.417000       1.00800           0
     55116 TIP3     5240     TIP3     H2       HT       0.417000       1.00800           0
     55117 TIP3     5241     TIP3     OH2      OT      -0.834000       15.9994           0
     55118 TIP3     5241     TIP3     H1       HT       0.417000       1.00800           0
     55119 TIP3     5241     TIP3     H2       HT       0.417000       1.00800           0
     55120 TIP3     5242     TIP3     OH2      OT      -0.834000       15.9994           0
     55121 TIP3     5242     TIP3     H1       HT       0.417000       1.00800           0
     55122 TIP3     5242     TIP3     H2       HT       0.417000       1.00800           0
     55123 TIP3     5243     TIP3     OH2      OT      -0.834000       15.9994           0
     55124 TIP3     5243     TIP3     H1       HT       0.417000       1.00800           0
     55125 TIP3     5243     TIP3     H2       HT       0.417000       1.00800           0
     55126 TIP3     5244     TIP3     OH2      OT      -0.834000       15.9994           0
     55127 TIP3     5244     TIP3     H1       HT       0.417000       1.00800           0
     55128 TIP3     5244     TIP3     H2       HT       0.417000       1.00800           0
     55129 TIP3     5245     TIP3     OH2      OT      -0.834000       15.9994           0
     55130 TIP3     5245     TIP3     H1       HT       0.417000       1.00800           0
     55131 TIP3     5245     TIP3     H2       HT       0.417000       1.00800           0
     55132 TIP3     5246     TIP3     OH2      OT      -0.834000       15.9994           0
     55133 TIP3     5246     TIP3     H1       HT       0.417000       1.00800           0
     55134 TIP3     5246     TIP3     H2       HT       0.417000       1.00800           0
     55135 TIP3     5247     TIP3     OH2      OT      -0.834000       15.9994           0
     55136 TIP3     5247     TIP3     H1       HT       0.417000       1.00800           0
     55137 TIP3     5247     TIP3     H2       HT       0.417000       1.00800           0
     55138 TIP3     5248     TIP3     OH2      OT      -0.834000       15.9994           0
     55139 TIP3     5248     TIP3     H1       HT       0.417000       1.00800           0
     55140 TIP3     5248     TIP3     H2       HT       0.417000       1.00800           0
     55141 TIP3     5249     TIP3     OH2      OT      -0.834000       15.9994           0
     55142 TIP3     5249     TIP3     H1       HT       0.417000       1.00800           0
     55143 TIP3     5249     TIP3     H2       HT       0.417000       1.00800           0
     55144 TIP3     5250     TIP3     OH2      OT      -0.834000       15.9994           0
     55145 TIP3     5250     TIP3     H1       HT       0.417000       1.00800           0
     55146 TIP3     5250     TIP3     H2       HT       0.417000       1.00800           0
     55147 TIP3     5251     TIP3     OH2      OT      -0.834000       15.9994           0
     55148 TIP3     5251     TIP3     H1       HT       0.417000       1.00800           0
     55149 TIP3     5251     TIP3     H2       HT       0.417000       1.00800           0
     55150 TIP3     5252     TIP3     OH2      OT      -0.834000       15.9994           0
     55151 TIP3     5252     TIP3     H1       HT       0.417000       1.00800           0
     55152 TIP3     5252     TIP3     H2       HT       0.417000       1.00800           0
     55153 TIP3     5253     TIP3     OH2      OT      -0.834000       15.9994           0
     55154 TIP3     5253     TIP3     H1       HT       0.417000       1.00800           0
     55155 TIP3     5253     TIP3     H2       HT       0.417000       1.00800           0
     55156 TIP3     5254     TIP3     OH2      OT      -0.834000       15.9994           0
     55157 TIP3     5254     TIP3     H1       HT       0.417000       1.00800           0
     55158 TIP3     5254     TIP3     H2       HT       0.417000       1.00800           0
     55159 TIP3     5255     TIP3     OH2      OT      -0.834000       15.9994           0
     55160 TIP3     5255     TIP3     H1       HT       0.417000       1.00800           0
     55161 TIP3     5255     TIP3     H2       HT       0.417000       1.00800           0
     55162 TIP3     5256     TIP3     OH2      OT      -0.834000       15.9994           0
     55163 TIP3     5256     TIP3     H1       HT       0.417000       1.00800           0
     55164 TIP3     5256     TIP3     H2       HT       0.417000       1.00800           0
     55165 TIP3     5257     TIP3     OH2      OT      -0.834000       15.9994           0
     55166 TIP3     5257     TIP3     H1       HT       0.417000       1.00800           0
     55167 TIP3     5257     TIP3     H2       HT       0.417000       1.00800           0
     55168 TIP3     5258     TIP3     OH2      OT      -0.834000       15.9994           0
     55169 TIP3     5258     TIP3     H1       HT       0.417000       1.00800           0
     55170 TIP3     5258     TIP3     H2       HT       0.417000       1.00800           0
     55171 TIP3     5259     TIP3     OH2      OT      -0.834000       15.9994           0
     55172 TIP3     5259     TIP3     H1       HT       0.417000       1.00800           0
     55173 TIP3     5259     TIP3     H2       HT       0.417000       1.00800           0
     55174 TIP3     5260     TIP3     OH2      OT      -0.834000       15.9994           0
     55175 TIP3     5260     TIP3     H1       HT       0.417000       1.00800           0
     55176 TIP3     5260     TIP3     H2       HT       0.417000       1.00800           0
     55177 TIP3     5261     TIP3     OH2      OT      -0.834000       15.9994           0
     55178 TIP3     5261     TIP3     H1       HT       0.417000       1.00800           0
     55179 TIP3     5261     TIP3     H2       HT       0.417000       1.00800           0
     55180 TIP3     5262     TIP3     OH2      OT      -0.834000       15.9994           0
     55181 TIP3     5262     TIP3     H1       HT       0.417000       1.00800           0
     55182 TIP3     5262     TIP3     H2       HT       0.417000       1.00800           0
     55183 TIP3     5263     TIP3     OH2      OT      -0.834000       15.9994           0
     55184 TIP3     5263     TIP3     H1       HT       0.417000       1.00800           0
     55185 TIP3     5263     TIP3     H2       HT       0.417000       1.00800           0
     55186 TIP3     5264     TIP3     OH2      OT      -0.834000       15.9994           0
     55187 TIP3     5264     TIP3     H1       HT       0.417000       1.00800           0
     55188 TIP3     5264     TIP3     H2       HT       0.417000       1.00800           0
     55189 TIP3     5265     TIP3     OH2      OT      -0.834000       15.9994           0
     55190 TIP3     5265     TIP3     H1       HT       0.417000       1.00800           0
     55191 TIP3     5265     TIP3     H2       HT       0.417000       1.00800           0
     55192 TIP3     5266     TIP3     OH2      OT      -0.834000       15.9994           0
     55193 TIP3     5266     TIP3     H1       HT       0.417000       1.00800           0
     55194 TIP3     5266     TIP3     H2       HT       0.417000       1.00800           0
     55195 TIP3     5267     TIP3     OH2      OT      -0.834000       15.9994           0
     55196 TIP3     5267     TIP3     H1       HT       0.417000       1.00800           0
     55197 TIP3     5267     TIP3     H2       HT       0.417000       1.00800           0
     55198 TIP3     5268     TIP3     OH2      OT      -0.834000       15.9994           0
     55199 TIP3     5268     TIP3     H1       HT       0.417000       1.00800           0
     55200 TIP3     5268     TIP3     H2       HT       0.417000       1.00800           0
     55201 TIP3     5269     TIP3     OH2      OT      -0.834000       15.9994           0
     55202 TIP3     5269     TIP3     H1       HT       0.417000       1.00800           0
     55203 TIP3     5269     TIP3     H2       HT       0.417000       1.00800           0
     55204 TIP3     5270     TIP3     OH2      OT      -0.834000       15.9994           0
     55205 TIP3     5270     TIP3     H1       HT       0.417000       1.00800           0
     55206 TIP3     5270     TIP3     H2       HT       0.417000       1.00800           0
     55207 TIP3     5271     TIP3     OH2      OT      -0.834000       15.9994           0
     55208 TIP3     5271     TIP3     H1       HT       0.417000       1.00800           0
     55209 TIP3     5271     TIP3     H2       HT       0.417000       1.00800           0
     55210 TIP3     5272     TIP3     OH2      OT      -0.834000       15.9994           0
     55211 TIP3     5272     TIP3     H1       HT       0.417000       1.00800           0
     55212 TIP3     5272     TIP3     H2       HT       0.417000       1.00800           0
     55213 TIP3     5273     TIP3     OH2      OT      -0.834000       15.9994           0
     55214 TIP3     5273     TIP3     H1       HT       0.417000       1.00800           0
     55215 TIP3     5273     TIP3     H2       HT       0.417000       1.00800           0
     55216 TIP3     5274     TIP3     OH2      OT      -0.834000       15.9994           0
     55217 TIP3     5274     TIP3     H1       HT       0.417000       1.00800           0
     55218 TIP3     5274     TIP3     H2       HT       0.417000       1.00800           0
     55219 TIP3     5275     TIP3     OH2      OT      -0.834000       15.9994           0
     55220 TIP3     5275     TIP3     H1       HT       0.417000       1.00800           0
     55221 TIP3     5275     TIP3     H2       HT       0.417000       1.00800           0
     55222 TIP3     5276     TIP3     OH2      OT      -0.834000       15.9994           0
     55223 TIP3     5276     TIP3     H1       HT       0.417000       1.00800           0
     55224 TIP3     5276     TIP3     H2       HT       0.417000       1.00800           0
     55225 TIP3     5277     TIP3     OH2      OT      -0.834000       15.9994           0
     55226 TIP3     5277     TIP3     H1       HT       0.417000       1.00800           0
     55227 TIP3     5277     TIP3     H2       HT       0.417000       1.00800           0
     55228 TIP3     5278     TIP3     OH2      OT      -0.834000       15.9994           0
     55229 TIP3     5278     TIP3     H1       HT       0.417000       1.00800           0
     55230 TIP3     5278     TIP3     H2       HT       0.417000       1.00800           0
     55231 TIP3     5279     TIP3     OH2      OT      -0.834000       15.9994           0
     55232 TIP3     5279     TIP3     H1       HT       0.417000       1.00800           0
     55233 TIP3     5279     TIP3     H2       HT       0.417000       1.00800           0
     55234 TIP3     5280     TIP3     OH2      OT      -0.834000       15.9994           0
     55235 TIP3     5280     TIP3     H1       HT       0.417000       1.00800           0
     55236 TIP3     5280     TIP3     H2       HT       0.417000       1.00800           0
     55237 TIP3     5281     TIP3     OH2      OT      -0.834000       15.9994           0
     55238 TIP3     5281     TIP3     H1       HT       0.417000       1.00800           0
     55239 TIP3     5281     TIP3     H2       HT       0.417000       1.00800           0
     55240 TIP3     5282     TIP3     OH2      OT      -0.834000       15.9994           0
     55241 TIP3     5282     TIP3     H1       HT       0.417000       1.00800           0
     55242 TIP3     5282     TIP3     H2       HT       0.417000       1.00800           0
     55243 TIP3     5283     TIP3     OH2      OT      -0.834000       15.9994           0
     55244 TIP3     5283     TIP3     H1       HT       0.417000       1.00800           0
     55245 TIP3     5283     TIP3     H2       HT       0.417000       1.00800           0
     55246 TIP3     5284     TIP3     OH2      OT      -0.834000       15.9994           0
     55247 TIP3     5284     TIP3     H1       HT       0.417000       1.00800           0
     55248 TIP3     5284     TIP3     H2       HT       0.417000       1.00800           0
     55249 TIP3     5285     TIP3     OH2      OT      -0.834000       15.9994           0
     55250 TIP3     5285     TIP3     H1       HT       0.417000       1.00800           0
     55251 TIP3     5285     TIP3     H2       HT       0.417000       1.00800           0
     55252 TIP3     5286     TIP3     OH2      OT      -0.834000       15.9994           0
     55253 TIP3     5286     TIP3     H1       HT       0.417000       1.00800           0
     55254 TIP3     5286     TIP3     H2       HT       0.417000       1.00800           0
     55255 TIP3     5287     TIP3     OH2      OT      -0.834000       15.9994           0
     55256 TIP3     5287     TIP3     H1       HT       0.417000       1.00800           0
     55257 TIP3     5287     TIP3     H2       HT       0.417000       1.00800           0
     55258 TIP3     5288     TIP3     OH2      OT      -0.834000       15.9994           0
     55259 TIP3     5288     TIP3     H1       HT       0.417000       1.00800           0
     55260 TIP3     5288     TIP3     H2       HT       0.417000       1.00800           0
     55261 TIP3     5289     TIP3     OH2      OT      -0.834000       15.9994           0
     55262 TIP3     5289     TIP3     H1       HT       0.417000       1.00800           0
     55263 TIP3     5289     TIP3     H2       HT       0.417000       1.00800           0
     55264 TIP3     5290     TIP3     OH2      OT      -0.834000       15.9994           0
     55265 TIP3     5290     TIP3     H1       HT       0.417000       1.00800           0
     55266 TIP3     5290     TIP3     H2       HT       0.417000       1.00800           0
     55267 TIP3     5291     TIP3     OH2      OT      -0.834000       15.9994           0
     55268 TIP3     5291     TIP3     H1       HT       0.417000       1.00800           0
     55269 TIP3     5291     TIP3     H2       HT       0.417000       1.00800           0
     55270 TIP3     5292     TIP3     OH2      OT      -0.834000       15.9994           0
     55271 TIP3     5292     TIP3     H1       HT       0.417000       1.00800           0
     55272 TIP3     5292     TIP3     H2       HT       0.417000       1.00800           0
     55273 TIP3     5293     TIP3     OH2      OT      -0.834000       15.9994           0
     55274 TIP3     5293     TIP3     H1       HT       0.417000       1.00800           0
     55275 TIP3     5293     TIP3     H2       HT       0.417000       1.00800           0
     55276 TIP3     5294     TIP3     OH2      OT      -0.834000       15.9994           0
     55277 TIP3     5294     TIP3     H1       HT       0.417000       1.00800           0
     55278 TIP3     5294     TIP3     H2       HT       0.417000       1.00800           0
     55279 TIP3     5295     TIP3     OH2      OT      -0.834000       15.9994           0
     55280 TIP3     5295     TIP3     H1       HT       0.417000       1.00800           0
     55281 TIP3     5295     TIP3     H2       HT       0.417000       1.00800           0
     55282 TIP3     5296     TIP3     OH2      OT      -0.834000       15.9994           0
     55283 TIP3     5296     TIP3     H1       HT       0.417000       1.00800           0
     55284 TIP3     5296     TIP3     H2       HT       0.417000       1.00800           0
     55285 TIP3     5297     TIP3     OH2      OT      -0.834000       15.9994           0
     55286 TIP3     5297     TIP3     H1       HT       0.417000       1.00800           0
     55287 TIP3     5297     TIP3     H2       HT       0.417000       1.00800           0
     55288 TIP3     5298     TIP3     OH2      OT      -0.834000       15.9994           0
     55289 TIP3     5298     TIP3     H1       HT       0.417000       1.00800           0
     55290 TIP3     5298     TIP3     H2       HT       0.417000       1.00800           0
     55291 TIP3     5299     TIP3     OH2      OT      -0.834000       15.9994           0
     55292 TIP3     5299     TIP3     H1       HT       0.417000       1.00800           0
     55293 TIP3     5299     TIP3     H2       HT       0.417000       1.00800           0
     55294 TIP3     5300     TIP3     OH2      OT      -0.834000       15.9994           0
     55295 TIP3     5300     TIP3     H1       HT       0.417000       1.00800           0
     55296 TIP3     5300     TIP3     H2       HT       0.417000       1.00800           0
     55297 TIP3     5301     TIP3     OH2      OT      -0.834000       15.9994           0
     55298 TIP3     5301     TIP3     H1       HT       0.417000       1.00800           0
     55299 TIP3     5301     TIP3     H2       HT       0.417000       1.00800           0
     55300 TIP3     5302     TIP3     OH2      OT      -0.834000       15.9994           0
     55301 TIP3     5302     TIP3     H1       HT       0.417000       1.00800           0
     55302 TIP3     5302     TIP3     H2       HT       0.417000       1.00800           0
     55303 TIP3     5303     TIP3     OH2      OT      -0.834000       15.9994           0
     55304 TIP3     5303     TIP3     H1       HT       0.417000       1.00800           0
     55305 TIP3     5303     TIP3     H2       HT       0.417000       1.00800           0
     55306 TIP3     5304     TIP3     OH2      OT      -0.834000       15.9994           0
     55307 TIP3     5304     TIP3     H1       HT       0.417000       1.00800           0
     55308 TIP3     5304     TIP3     H2       HT       0.417000       1.00800           0
     55309 TIP3     5305     TIP3     OH2      OT      -0.834000       15.9994           0
     55310 TIP3     5305     TIP3     H1       HT       0.417000       1.00800           0
     55311 TIP3     5305     TIP3     H2       HT       0.417000       1.00800           0
     55312 TIP3     5306     TIP3     OH2      OT      -0.834000       15.9994           0
     55313 TIP3     5306     TIP3     H1       HT       0.417000       1.00800           0
     55314 TIP3     5306     TIP3     H2       HT       0.417000       1.00800           0
     55315 TIP3     5307     TIP3     OH2      OT      -0.834000       15.9994           0
     55316 TIP3     5307     TIP3     H1       HT       0.417000       1.00800           0
     55317 TIP3     5307     TIP3     H2       HT       0.417000       1.00800           0
     55318 TIP3     5308     TIP3     OH2      OT      -0.834000       15.9994           0
     55319 TIP3     5308     TIP3     H1       HT       0.417000       1.00800           0
     55320 TIP3     5308     TIP3     H2       HT       0.417000       1.00800           0
     55321 TIP3     5309     TIP3     OH2      OT      -0.834000       15.9994           0
     55322 TIP3     5309     TIP3     H1       HT       0.417000       1.00800           0
     55323 TIP3     5309     TIP3     H2       HT       0.417000       1.00800           0
     55324 TIP3     5310     TIP3     OH2      OT      -0.834000       15.9994           0
     55325 TIP3     5310     TIP3     H1       HT       0.417000       1.00800           0
     55326 TIP3     5310     TIP3     H2       HT       0.417000       1.00800           0
     55327 TIP3     5311     TIP3     OH2      OT      -0.834000       15.9994           0
     55328 TIP3     5311     TIP3     H1       HT       0.417000       1.00800           0
     55329 TIP3     5311     TIP3     H2       HT       0.417000       1.00800           0
     55330 TIP3     5312     TIP3     OH2      OT      -0.834000       15.9994           0
     55331 TIP3     5312     TIP3     H1       HT       0.417000       1.00800           0
     55332 TIP3     5312     TIP3     H2       HT       0.417000       1.00800           0
     55333 TIP3     5313     TIP3     OH2      OT      -0.834000       15.9994           0
     55334 TIP3     5313     TIP3     H1       HT       0.417000       1.00800           0
     55335 TIP3     5313     TIP3     H2       HT       0.417000       1.00800           0
     55336 TIP3     5314     TIP3     OH2      OT      -0.834000       15.9994           0
     55337 TIP3     5314     TIP3     H1       HT       0.417000       1.00800           0
     55338 TIP3     5314     TIP3     H2       HT       0.417000       1.00800           0
     55339 TIP3     5315     TIP3     OH2      OT      -0.834000       15.9994           0
     55340 TIP3     5315     TIP3     H1       HT       0.417000       1.00800           0
     55341 TIP3     5315     TIP3     H2       HT       0.417000       1.00800           0
     55342 TIP3     5316     TIP3     OH2      OT      -0.834000       15.9994           0
     55343 TIP3     5316     TIP3     H1       HT       0.417000       1.00800           0
     55344 TIP3     5316     TIP3     H2       HT       0.417000       1.00800           0
     55345 TIP3     5317     TIP3     OH2      OT      -0.834000       15.9994           0
     55346 TIP3     5317     TIP3     H1       HT       0.417000       1.00800           0
     55347 TIP3     5317     TIP3     H2       HT       0.417000       1.00800           0
     55348 TIP3     5318     TIP3     OH2      OT      -0.834000       15.9994           0
     55349 TIP3     5318     TIP3     H1       HT       0.417000       1.00800           0
     55350 TIP3     5318     TIP3     H2       HT       0.417000       1.00800           0
     55351 TIP3     5319     TIP3     OH2      OT      -0.834000       15.9994           0
     55352 TIP3     5319     TIP3     H1       HT       0.417000       1.00800           0
     55353 TIP3     5319     TIP3     H2       HT       0.417000       1.00800           0
     55354 TIP3     5320     TIP3     OH2      OT      -0.834000       15.9994           0
     55355 TIP3     5320     TIP3     H1       HT       0.417000       1.00800           0
     55356 TIP3     5320     TIP3     H2       HT       0.417000       1.00800           0
     55357 TIP3     5321     TIP3     OH2      OT      -0.834000       15.9994           0
     55358 TIP3     5321     TIP3     H1       HT       0.417000       1.00800           0
     55359 TIP3     5321     TIP3     H2       HT       0.417000       1.00800           0
     55360 TIP3     5322     TIP3     OH2      OT      -0.834000       15.9994           0
     55361 TIP3     5322     TIP3     H1       HT       0.417000       1.00800           0
     55362 TIP3     5322     TIP3     H2       HT       0.417000       1.00800           0
     55363 TIP3     5323     TIP3     OH2      OT      -0.834000       15.9994           0
     55364 TIP3     5323     TIP3     H1       HT       0.417000       1.00800           0
     55365 TIP3     5323     TIP3     H2       HT       0.417000       1.00800           0
     55366 TIP3     5324     TIP3     OH2      OT      -0.834000       15.9994           0
     55367 TIP3     5324     TIP3     H1       HT       0.417000       1.00800           0
     55368 TIP3     5324     TIP3     H2       HT       0.417000       1.00800           0
     55369 TIP3     5325     TIP3     OH2      OT      -0.834000       15.9994           0
     55370 TIP3     5325     TIP3     H1       HT       0.417000       1.00800           0
     55371 TIP3     5325     TIP3     H2       HT       0.417000       1.00800           0
     55372 TIP3     5326     TIP3     OH2      OT      -0.834000       15.9994           0
     55373 TIP3     5326     TIP3     H1       HT       0.417000       1.00800           0
     55374 TIP3     5326     TIP3     H2       HT       0.417000       1.00800           0
     55375 TIP3     5327     TIP3     OH2      OT      -0.834000       15.9994           0
     55376 TIP3     5327     TIP3     H1       HT       0.417000       1.00800           0
     55377 TIP3     5327     TIP3     H2       HT       0.417000       1.00800           0
     55378 TIP3     5328     TIP3     OH2      OT      -0.834000       15.9994           0
     55379 TIP3     5328     TIP3     H1       HT       0.417000       1.00800           0
     55380 TIP3     5328     TIP3     H2       HT       0.417000       1.00800           0
     55381 TIP3     5329     TIP3     OH2      OT      -0.834000       15.9994           0
     55382 TIP3     5329     TIP3     H1       HT       0.417000       1.00800           0
     55383 TIP3     5329     TIP3     H2       HT       0.417000       1.00800           0
     55384 TIP3     5330     TIP3     OH2      OT      -0.834000       15.9994           0
     55385 TIP3     5330     TIP3     H1       HT       0.417000       1.00800           0
     55386 TIP3     5330     TIP3     H2       HT       0.417000       1.00800           0
     55387 TIP3     5331     TIP3     OH2      OT      -0.834000       15.9994           0
     55388 TIP3     5331     TIP3     H1       HT       0.417000       1.00800           0
     55389 TIP3     5331     TIP3     H2       HT       0.417000       1.00800           0
     55390 TIP3     5332     TIP3     OH2      OT      -0.834000       15.9994           0
     55391 TIP3     5332     TIP3     H1       HT       0.417000       1.00800           0
     55392 TIP3     5332     TIP3     H2       HT       0.417000       1.00800           0
     55393 TIP3     5333     TIP3     OH2      OT      -0.834000       15.9994           0
     55394 TIP3     5333     TIP3     H1       HT       0.417000       1.00800           0
     55395 TIP3     5333     TIP3     H2       HT       0.417000       1.00800           0
     55396 TIP3     5334     TIP3     OH2      OT      -0.834000       15.9994           0
     55397 TIP3     5334     TIP3     H1       HT       0.417000       1.00800           0
     55398 TIP3     5334     TIP3     H2       HT       0.417000       1.00800           0
     55399 TIP3     5335     TIP3     OH2      OT      -0.834000       15.9994           0
     55400 TIP3     5335     TIP3     H1       HT       0.417000       1.00800           0
     55401 TIP3     5335     TIP3     H2       HT       0.417000       1.00800           0
     55402 TIP3     5336     TIP3     OH2      OT      -0.834000       15.9994           0
     55403 TIP3     5336     TIP3     H1       HT       0.417000       1.00800           0
     55404 TIP3     5336     TIP3     H2       HT       0.417000       1.00800           0
     55405 TIP3     5337     TIP3     OH2      OT      -0.834000       15.9994           0
     55406 TIP3     5337     TIP3     H1       HT       0.417000       1.00800           0
     55407 TIP3     5337     TIP3     H2       HT       0.417000       1.00800           0
     55408 TIP3     5338     TIP3     OH2      OT      -0.834000       15.9994           0
     55409 TIP3     5338     TIP3     H1       HT       0.417000       1.00800           0
     55410 TIP3     5338     TIP3     H2       HT       0.417000       1.00800           0
     55411 TIP3     5339     TIP3     OH2      OT      -0.834000       15.9994           0
     55412 TIP3     5339     TIP3     H1       HT       0.417000       1.00800           0
     55413 TIP3     5339     TIP3     H2       HT       0.417000       1.00800           0
     55414 TIP3     5340     TIP3     OH2      OT      -0.834000       15.9994           0
     55415 TIP3     5340     TIP3     H1       HT       0.417000       1.00800           0
     55416 TIP3     5340     TIP3     H2       HT       0.417000       1.00800           0
     55417 TIP3     5341     TIP3     OH2      OT      -0.834000       15.9994           0
     55418 TIP3     5341     TIP3     H1       HT       0.417000       1.00800           0
     55419 TIP3     5341     TIP3     H2       HT       0.417000       1.00800           0
     55420 TIP3     5342     TIP3     OH2      OT      -0.834000       15.9994           0
     55421 TIP3     5342     TIP3     H1       HT       0.417000       1.00800           0
     55422 TIP3     5342     TIP3     H2       HT       0.417000       1.00800           0
     55423 TIP3     5343     TIP3     OH2      OT      -0.834000       15.9994           0
     55424 TIP3     5343     TIP3     H1       HT       0.417000       1.00800           0
     55425 TIP3     5343     TIP3     H2       HT       0.417000       1.00800           0
     55426 TIP3     5344     TIP3     OH2      OT      -0.834000       15.9994           0
     55427 TIP3     5344     TIP3     H1       HT       0.417000       1.00800           0
     55428 TIP3     5344     TIP3     H2       HT       0.417000       1.00800           0
     55429 TIP3     5345     TIP3     OH2      OT      -0.834000       15.9994           0
     55430 TIP3     5345     TIP3     H1       HT       0.417000       1.00800           0
     55431 TIP3     5345     TIP3     H2       HT       0.417000       1.00800           0
     55432 TIP3     5346     TIP3     OH2      OT      -0.834000       15.9994           0
     55433 TIP3     5346     TIP3     H1       HT       0.417000       1.00800           0
     55434 TIP3     5346     TIP3     H2       HT       0.417000       1.00800           0
     55435 TIP3     5347     TIP3     OH2      OT      -0.834000       15.9994           0
     55436 TIP3     5347     TIP3     H1       HT       0.417000       1.00800           0
     55437 TIP3     5347     TIP3     H2       HT       0.417000       1.00800           0
     55438 TIP3     5348     TIP3     OH2      OT      -0.834000       15.9994           0
     55439 TIP3     5348     TIP3     H1       HT       0.417000       1.00800           0
     55440 TIP3     5348     TIP3     H2       HT       0.417000       1.00800           0
     55441 TIP3     5349     TIP3     OH2      OT      -0.834000       15.9994           0
     55442 TIP3     5349     TIP3     H1       HT       0.417000       1.00800           0
     55443 TIP3     5349     TIP3     H2       HT       0.417000       1.00800           0
     55444 TIP3     5350     TIP3     OH2      OT      -0.834000       15.9994           0
     55445 TIP3     5350     TIP3     H1       HT       0.417000       1.00800           0
     55446 TIP3     5350     TIP3     H2       HT       0.417000       1.00800           0
     55447 TIP3     5351     TIP3     OH2      OT      -0.834000       15.9994           0
     55448 TIP3     5351     TIP3     H1       HT       0.417000       1.00800           0
     55449 TIP3     5351     TIP3     H2       HT       0.417000       1.00800           0
     55450 TIP3     5352     TIP3     OH2      OT      -0.834000       15.9994           0
     55451 TIP3     5352     TIP3     H1       HT       0.417000       1.00800           0
     55452 TIP3     5352     TIP3     H2       HT       0.417000       1.00800           0
     55453 TIP3     5353     TIP3     OH2      OT      -0.834000       15.9994           0
     55454 TIP3     5353     TIP3     H1       HT       0.417000       1.00800           0
     55455 TIP3     5353     TIP3     H2       HT       0.417000       1.00800           0
     55456 TIP3     5354     TIP3     OH2      OT      -0.834000       15.9994           0
     55457 TIP3     5354     TIP3     H1       HT       0.417000       1.00800           0
     55458 TIP3     5354     TIP3     H2       HT       0.417000       1.00800           0
     55459 TIP3     5355     TIP3     OH2      OT      -0.834000       15.9994           0
     55460 TIP3     5355     TIP3     H1       HT       0.417000       1.00800           0
     55461 TIP3     5355     TIP3     H2       HT       0.417000       1.00800           0
     55462 TIP3     5356     TIP3     OH2      OT      -0.834000       15.9994           0
     55463 TIP3     5356     TIP3     H1       HT       0.417000       1.00800           0
     55464 TIP3     5356     TIP3     H2       HT       0.417000       1.00800           0
     55465 TIP3     5357     TIP3     OH2      OT      -0.834000       15.9994           0
     55466 TIP3     5357     TIP3     H1       HT       0.417000       1.00800           0
     55467 TIP3     5357     TIP3     H2       HT       0.417000       1.00800           0
     55468 TIP3     5358     TIP3     OH2      OT      -0.834000       15.9994           0
     55469 TIP3     5358     TIP3     H1       HT       0.417000       1.00800           0
     55470 TIP3     5358     TIP3     H2       HT       0.417000       1.00800           0
     55471 TIP3     5359     TIP3     OH2      OT      -0.834000       15.9994           0
     55472 TIP3     5359     TIP3     H1       HT       0.417000       1.00800           0
     55473 TIP3     5359     TIP3     H2       HT       0.417000       1.00800           0
     55474 TIP3     5360     TIP3     OH2      OT      -0.834000       15.9994           0
     55475 TIP3     5360     TIP3     H1       HT       0.417000       1.00800           0
     55476 TIP3     5360     TIP3     H2       HT       0.417000       1.00800           0
     55477 TIP3     5361     TIP3     OH2      OT      -0.834000       15.9994           0
     55478 TIP3     5361     TIP3     H1       HT       0.417000       1.00800           0
     55479 TIP3     5361     TIP3     H2       HT       0.417000       1.00800           0
     55480 TIP3     5362     TIP3     OH2      OT      -0.834000       15.9994           0
     55481 TIP3     5362     TIP3     H1       HT       0.417000       1.00800           0
     55482 TIP3     5362     TIP3     H2       HT       0.417000       1.00800           0
     55483 TIP3     5363     TIP3     OH2      OT      -0.834000       15.9994           0
     55484 TIP3     5363     TIP3     H1       HT       0.417000       1.00800           0
     55485 TIP3     5363     TIP3     H2       HT       0.417000       1.00800           0
     55486 TIP3     5364     TIP3     OH2      OT      -0.834000       15.9994           0
     55487 TIP3     5364     TIP3     H1       HT       0.417000       1.00800           0
     55488 TIP3     5364     TIP3     H2       HT       0.417000       1.00800           0
     55489 TIP3     5365     TIP3     OH2      OT      -0.834000       15.9994           0
     55490 TIP3     5365     TIP3     H1       HT       0.417000       1.00800           0
     55491 TIP3     5365     TIP3     H2       HT       0.417000       1.00800           0
     55492 TIP3     5366     TIP3     OH2      OT      -0.834000       15.9994           0
     55493 TIP3     5366     TIP3     H1       HT       0.417000       1.00800           0
     55494 TIP3     5366     TIP3     H2       HT       0.417000       1.00800           0
     55495 TIP3     5367     TIP3     OH2      OT      -0.834000       15.9994           0
     55496 TIP3     5367     TIP3     H1       HT       0.417000       1.00800           0
     55497 TIP3     5367     TIP3     H2       HT       0.417000       1.00800           0
     55498 TIP3     5368     TIP3     OH2      OT      -0.834000       15.9994           0
     55499 TIP3     5368     TIP3     H1       HT       0.417000       1.00800           0
     55500 TIP3     5368     TIP3     H2       HT       0.417000       1.00800           0
     55501 TIP3     5369     TIP3     OH2      OT      -0.834000       15.9994           0
     55502 TIP3     5369     TIP3     H1       HT       0.417000       1.00800           0
     55503 TIP3     5369     TIP3     H2       HT       0.417000       1.00800           0
     55504 TIP3     5370     TIP3     OH2      OT      -0.834000       15.9994           0
     55505 TIP3     5370     TIP3     H1       HT       0.417000       1.00800           0
     55506 TIP3     5370     TIP3     H2       HT       0.417000       1.00800           0
     55507 TIP3     5371     TIP3     OH2      OT      -0.834000       15.9994           0
     55508 TIP3     5371     TIP3     H1       HT       0.417000       1.00800           0
     55509 TIP3     5371     TIP3     H2       HT       0.417000       1.00800           0
     55510 TIP3     5372     TIP3     OH2      OT      -0.834000       15.9994           0
     55511 TIP3     5372     TIP3     H1       HT       0.417000       1.00800           0
     55512 TIP3     5372     TIP3     H2       HT       0.417000       1.00800           0
     55513 TIP3     5373     TIP3     OH2      OT      -0.834000       15.9994           0
     55514 TIP3     5373     TIP3     H1       HT       0.417000       1.00800           0
     55515 TIP3     5373     TIP3     H2       HT       0.417000       1.00800           0
     55516 TIP3     5374     TIP3     OH2      OT      -0.834000       15.9994           0
     55517 TIP3     5374     TIP3     H1       HT       0.417000       1.00800           0
     55518 TIP3     5374     TIP3     H2       HT       0.417000       1.00800           0
     55519 TIP3     5375     TIP3     OH2      OT      -0.834000       15.9994           0
     55520 TIP3     5375     TIP3     H1       HT       0.417000       1.00800           0
     55521 TIP3     5375     TIP3     H2       HT       0.417000       1.00800           0
     55522 TIP3     5376     TIP3     OH2      OT      -0.834000       15.9994           0
     55523 TIP3     5376     TIP3     H1       HT       0.417000       1.00800           0
     55524 TIP3     5376     TIP3     H2       HT       0.417000       1.00800           0
     55525 TIP3     5377     TIP3     OH2      OT      -0.834000       15.9994           0
     55526 TIP3     5377     TIP3     H1       HT       0.417000       1.00800           0
     55527 TIP3     5377     TIP3     H2       HT       0.417000       1.00800           0
     55528 TIP3     5378     TIP3     OH2      OT      -0.834000       15.9994           0
     55529 TIP3     5378     TIP3     H1       HT       0.417000       1.00800           0
     55530 TIP3     5378     TIP3     H2       HT       0.417000       1.00800           0
     55531 TIP3     5379     TIP3     OH2      OT      -0.834000       15.9994           0
     55532 TIP3     5379     TIP3     H1       HT       0.417000       1.00800           0
     55533 TIP3     5379     TIP3     H2       HT       0.417000       1.00800           0
     55534 TIP3     5380     TIP3     OH2      OT      -0.834000       15.9994           0
     55535 TIP3     5380     TIP3     H1       HT       0.417000       1.00800           0
     55536 TIP3     5380     TIP3     H2       HT       0.417000       1.00800           0
     55537 TIP3     5381     TIP3     OH2      OT      -0.834000       15.9994           0
     55538 TIP3     5381     TIP3     H1       HT       0.417000       1.00800           0
     55539 TIP3     5381     TIP3     H2       HT       0.417000       1.00800           0
     55540 TIP3     5382     TIP3     OH2      OT      -0.834000       15.9994           0
     55541 TIP3     5382     TIP3     H1       HT       0.417000       1.00800           0
     55542 TIP3     5382     TIP3     H2       HT       0.417000       1.00800           0
     55543 TIP3     5383     TIP3     OH2      OT      -0.834000       15.9994           0
     55544 TIP3     5383     TIP3     H1       HT       0.417000       1.00800           0
     55545 TIP3     5383     TIP3     H2       HT       0.417000       1.00800           0
     55546 TIP3     5384     TIP3     OH2      OT      -0.834000       15.9994           0
     55547 TIP3     5384     TIP3     H1       HT       0.417000       1.00800           0
     55548 TIP3     5384     TIP3     H2       HT       0.417000       1.00800           0
     55549 TIP3     5385     TIP3     OH2      OT      -0.834000       15.9994           0
     55550 TIP3     5385     TIP3     H1       HT       0.417000       1.00800           0
     55551 TIP3     5385     TIP3     H2       HT       0.417000       1.00800           0
     55552 TIP3     5386     TIP3     OH2      OT      -0.834000       15.9994           0
     55553 TIP3     5386     TIP3     H1       HT       0.417000       1.00800           0
     55554 TIP3     5386     TIP3     H2       HT       0.417000       1.00800           0
     55555 TIP3     5387     TIP3     OH2      OT      -0.834000       15.9994           0
     55556 TIP3     5387     TIP3     H1       HT       0.417000       1.00800           0
     55557 TIP3     5387     TIP3     H2       HT       0.417000       1.00800           0
     55558 TIP3     5388     TIP3     OH2      OT      -0.834000       15.9994           0
     55559 TIP3     5388     TIP3     H1       HT       0.417000       1.00800           0
     55560 TIP3     5388     TIP3     H2       HT       0.417000       1.00800           0
     55561 TIP3     5389     TIP3     OH2      OT      -0.834000       15.9994           0
     55562 TIP3     5389     TIP3     H1       HT       0.417000       1.00800           0
     55563 TIP3     5389     TIP3     H2       HT       0.417000       1.00800           0
     55564 TIP3     5390     TIP3     OH2      OT      -0.834000       15.9994           0
     55565 TIP3     5390     TIP3     H1       HT       0.417000       1.00800           0
     55566 TIP3     5390     TIP3     H2       HT       0.417000       1.00800           0
     55567 TIP3     5391     TIP3     OH2      OT      -0.834000       15.9994           0
     55568 TIP3     5391     TIP3     H1       HT       0.417000       1.00800           0
     55569 TIP3     5391     TIP3     H2       HT       0.417000       1.00800           0
     55570 TIP3     5392     TIP3     OH2      OT      -0.834000       15.9994           0
     55571 TIP3     5392     TIP3     H1       HT       0.417000       1.00800           0
     55572 TIP3     5392     TIP3     H2       HT       0.417000       1.00800           0
     55573 TIP3     5393     TIP3     OH2      OT      -0.834000       15.9994           0
     55574 TIP3     5393     TIP3     H1       HT       0.417000       1.00800           0
     55575 TIP3     5393     TIP3     H2       HT       0.417000       1.00800           0
     55576 TIP3     5394     TIP3     OH2      OT      -0.834000       15.9994           0
     55577 TIP3     5394     TIP3     H1       HT       0.417000       1.00800           0
     55578 TIP3     5394     TIP3     H2       HT       0.417000       1.00800           0
     55579 TIP3     5395     TIP3     OH2      OT      -0.834000       15.9994           0
     55580 TIP3     5395     TIP3     H1       HT       0.417000       1.00800           0
     55581 TIP3     5395     TIP3     H2       HT       0.417000       1.00800           0
     55582 TIP3     5396     TIP3     OH2      OT      -0.834000       15.9994           0
     55583 TIP3     5396     TIP3     H1       HT       0.417000       1.00800           0
     55584 TIP3     5396     TIP3     H2       HT       0.417000       1.00800           0
     55585 TIP3     5397     TIP3     OH2      OT      -0.834000       15.9994           0
     55586 TIP3     5397     TIP3     H1       HT       0.417000       1.00800           0
     55587 TIP3     5397     TIP3     H2       HT       0.417000       1.00800           0
     55588 TIP3     5398     TIP3     OH2      OT      -0.834000       15.9994           0
     55589 TIP3     5398     TIP3     H1       HT       0.417000       1.00800           0
     55590 TIP3     5398     TIP3     H2       HT       0.417000       1.00800           0
     55591 TIP3     5399     TIP3     OH2      OT      -0.834000       15.9994           0
     55592 TIP3     5399     TIP3     H1       HT       0.417000       1.00800           0
     55593 TIP3     5399     TIP3     H2       HT       0.417000       1.00800           0
     55594 TIP3     5400     TIP3     OH2      OT      -0.834000       15.9994           0
     55595 TIP3     5400     TIP3     H1       HT       0.417000       1.00800           0
     55596 TIP3     5400     TIP3     H2       HT       0.417000       1.00800           0
     55597 TIP3     5401     TIP3     OH2      OT      -0.834000       15.9994           0
     55598 TIP3     5401     TIP3     H1       HT       0.417000       1.00800           0
     55599 TIP3     5401     TIP3     H2       HT       0.417000       1.00800           0
     55600 TIP3     5402     TIP3     OH2      OT      -0.834000       15.9994           0
     55601 TIP3     5402     TIP3     H1       HT       0.417000       1.00800           0
     55602 TIP3     5402     TIP3     H2       HT       0.417000       1.00800           0
     55603 TIP3     5403     TIP3     OH2      OT      -0.834000       15.9994           0
     55604 TIP3     5403     TIP3     H1       HT       0.417000       1.00800           0
     55605 TIP3     5403     TIP3     H2       HT       0.417000       1.00800           0
     55606 TIP3     5404     TIP3     OH2      OT      -0.834000       15.9994           0
     55607 TIP3     5404     TIP3     H1       HT       0.417000       1.00800           0
     55608 TIP3     5404     TIP3     H2       HT       0.417000       1.00800           0
     55609 TIP3     5405     TIP3     OH2      OT      -0.834000       15.9994           0
     55610 TIP3     5405     TIP3     H1       HT       0.417000       1.00800           0
     55611 TIP3     5405     TIP3     H2       HT       0.417000       1.00800           0
     55612 TIP3     5406     TIP3     OH2      OT      -0.834000       15.9994           0
     55613 TIP3     5406     TIP3     H1       HT       0.417000       1.00800           0
     55614 TIP3     5406     TIP3     H2       HT       0.417000       1.00800           0
     55615 TIP3     5407     TIP3     OH2      OT      -0.834000       15.9994           0
     55616 TIP3     5407     TIP3     H1       HT       0.417000       1.00800           0
     55617 TIP3     5407     TIP3     H2       HT       0.417000       1.00800           0
     55618 TIP3     5408     TIP3     OH2      OT      -0.834000       15.9994           0
     55619 TIP3     5408     TIP3     H1       HT       0.417000       1.00800           0
     55620 TIP3     5408     TIP3     H2       HT       0.417000       1.00800           0
     55621 TIP3     5409     TIP3     OH2      OT      -0.834000       15.9994           0
     55622 TIP3     5409     TIP3     H1       HT       0.417000       1.00800           0
     55623 TIP3     5409     TIP3     H2       HT       0.417000       1.00800           0
     55624 TIP3     5410     TIP3     OH2      OT      -0.834000       15.9994           0
     55625 TIP3     5410     TIP3     H1       HT       0.417000       1.00800           0
     55626 TIP3     5410     TIP3     H2       HT       0.417000       1.00800           0
     55627 TIP3     5411     TIP3     OH2      OT      -0.834000       15.9994           0
     55628 TIP3     5411     TIP3     H1       HT       0.417000       1.00800           0
     55629 TIP3     5411     TIP3     H2       HT       0.417000       1.00800           0
     55630 TIP3     5412     TIP3     OH2      OT      -0.834000       15.9994           0
     55631 TIP3     5412     TIP3     H1       HT       0.417000       1.00800           0
     55632 TIP3     5412     TIP3     H2       HT       0.417000       1.00800           0
     55633 TIP3     5413     TIP3     OH2      OT      -0.834000       15.9994           0
     55634 TIP3     5413     TIP3     H1       HT       0.417000       1.00800           0
     55635 TIP3     5413     TIP3     H2       HT       0.417000       1.00800           0
     55636 TIP3     5414     TIP3     OH2      OT      -0.834000       15.9994           0
     55637 TIP3     5414     TIP3     H1       HT       0.417000       1.00800           0
     55638 TIP3     5414     TIP3     H2       HT       0.417000       1.00800           0
     55639 TIP3     5415     TIP3     OH2      OT      -0.834000       15.9994           0
     55640 TIP3     5415     TIP3     H1       HT       0.417000       1.00800           0
     55641 TIP3     5415     TIP3     H2       HT       0.417000       1.00800           0
     55642 TIP3     5416     TIP3     OH2      OT      -0.834000       15.9994           0
     55643 TIP3     5416     TIP3     H1       HT       0.417000       1.00800           0
     55644 TIP3     5416     TIP3     H2       HT       0.417000       1.00800           0
     55645 TIP3     5417     TIP3     OH2      OT      -0.834000       15.9994           0
     55646 TIP3     5417     TIP3     H1       HT       0.417000       1.00800           0
     55647 TIP3     5417     TIP3     H2       HT       0.417000       1.00800           0
     55648 TIP3     5418     TIP3     OH2      OT      -0.834000       15.9994           0
     55649 TIP3     5418     TIP3     H1       HT       0.417000       1.00800           0
     55650 TIP3     5418     TIP3     H2       HT       0.417000       1.00800           0
     55651 TIP3     5419     TIP3     OH2      OT      -0.834000       15.9994           0
     55652 TIP3     5419     TIP3     H1       HT       0.417000       1.00800           0
     55653 TIP3     5419     TIP3     H2       HT       0.417000       1.00800           0
     55654 TIP3     5420     TIP3     OH2      OT      -0.834000       15.9994           0
     55655 TIP3     5420     TIP3     H1       HT       0.417000       1.00800           0
     55656 TIP3     5420     TIP3     H2       HT       0.417000       1.00800           0
     55657 TIP3     5421     TIP3     OH2      OT      -0.834000       15.9994           0
     55658 TIP3     5421     TIP3     H1       HT       0.417000       1.00800           0
     55659 TIP3     5421     TIP3     H2       HT       0.417000       1.00800           0
     55660 TIP3     5422     TIP3     OH2      OT      -0.834000       15.9994           0
     55661 TIP3     5422     TIP3     H1       HT       0.417000       1.00800           0
     55662 TIP3     5422     TIP3     H2       HT       0.417000       1.00800           0
     55663 TIP3     5423     TIP3     OH2      OT      -0.834000       15.9994           0
     55664 TIP3     5423     TIP3     H1       HT       0.417000       1.00800           0
     55665 TIP3     5423     TIP3     H2       HT       0.417000       1.00800           0
     55666 TIP3     5424     TIP3     OH2      OT      -0.834000       15.9994           0
     55667 TIP3     5424     TIP3     H1       HT       0.417000       1.00800           0
     55668 TIP3     5424     TIP3     H2       HT       0.417000       1.00800           0
     55669 TIP3     5425     TIP3     OH2      OT      -0.834000       15.9994           0
     55670 TIP3     5425     TIP3     H1       HT       0.417000       1.00800           0
     55671 TIP3     5425     TIP3     H2       HT       0.417000       1.00800           0
     55672 TIP3     5426     TIP3     OH2      OT      -0.834000       15.9994           0
     55673 TIP3     5426     TIP3     H1       HT       0.417000       1.00800           0
     55674 TIP3     5426     TIP3     H2       HT       0.417000       1.00800           0
     55675 TIP3     5427     TIP3     OH2      OT      -0.834000       15.9994           0
     55676 TIP3     5427     TIP3     H1       HT       0.417000       1.00800           0
     55677 TIP3     5427     TIP3     H2       HT       0.417000       1.00800           0
     55678 TIP3     5428     TIP3     OH2      OT      -0.834000       15.9994           0
     55679 TIP3     5428     TIP3     H1       HT       0.417000       1.00800           0
     55680 TIP3     5428     TIP3     H2       HT       0.417000       1.00800           0
     55681 TIP3     5429     TIP3     OH2      OT      -0.834000       15.9994           0
     55682 TIP3     5429     TIP3     H1       HT       0.417000       1.00800           0
     55683 TIP3     5429     TIP3     H2       HT       0.417000       1.00800           0
     55684 TIP3     5430     TIP3     OH2      OT      -0.834000       15.9994           0
     55685 TIP3     5430     TIP3     H1       HT       0.417000       1.00800           0
     55686 TIP3     5430     TIP3     H2       HT       0.417000       1.00800           0
     55687 TIP3     5431     TIP3     OH2      OT      -0.834000       15.9994           0
     55688 TIP3     5431     TIP3     H1       HT       0.417000       1.00800           0
     55689 TIP3     5431     TIP3     H2       HT       0.417000       1.00800           0
     55690 TIP3     5432     TIP3     OH2      OT      -0.834000       15.9994           0
     55691 TIP3     5432     TIP3     H1       HT       0.417000       1.00800           0
     55692 TIP3     5432     TIP3     H2       HT       0.417000       1.00800           0
     55693 TIP3     5433     TIP3     OH2      OT      -0.834000       15.9994           0
     55694 TIP3     5433     TIP3     H1       HT       0.417000       1.00800           0
     55695 TIP3     5433     TIP3     H2       HT       0.417000       1.00800           0
     55696 TIP3     5434     TIP3     OH2      OT      -0.834000       15.9994           0
     55697 TIP3     5434     TIP3     H1       HT       0.417000       1.00800           0
     55698 TIP3     5434     TIP3     H2       HT       0.417000       1.00800           0
     55699 TIP3     5435     TIP3     OH2      OT      -0.834000       15.9994           0
     55700 TIP3     5435     TIP3     H1       HT       0.417000       1.00800           0
     55701 TIP3     5435     TIP3     H2       HT       0.417000       1.00800           0
     55702 TIP3     5436     TIP3     OH2      OT      -0.834000       15.9994           0
     55703 TIP3     5436     TIP3     H1       HT       0.417000       1.00800           0
     55704 TIP3     5436     TIP3     H2       HT       0.417000       1.00800           0
     55705 TIP3     5437     TIP3     OH2      OT      -0.834000       15.9994           0
     55706 TIP3     5437     TIP3     H1       HT       0.417000       1.00800           0
     55707 TIP3     5437     TIP3     H2       HT       0.417000       1.00800           0
     55708 TIP3     5438     TIP3     OH2      OT      -0.834000       15.9994           0
     55709 TIP3     5438     TIP3     H1       HT       0.417000       1.00800           0
     55710 TIP3     5438     TIP3     H2       HT       0.417000       1.00800           0
     55711 TIP3     5439     TIP3     OH2      OT      -0.834000       15.9994           0
     55712 TIP3     5439     TIP3     H1       HT       0.417000       1.00800           0
     55713 TIP3     5439     TIP3     H2       HT       0.417000       1.00800           0
     55714 TIP3     5440     TIP3     OH2      OT      -0.834000       15.9994           0
     55715 TIP3     5440     TIP3     H1       HT       0.417000       1.00800           0
     55716 TIP3     5440     TIP3     H2       HT       0.417000       1.00800           0
     55717 TIP3     5441     TIP3     OH2      OT      -0.834000       15.9994           0
     55718 TIP3     5441     TIP3     H1       HT       0.417000       1.00800           0
     55719 TIP3     5441     TIP3     H2       HT       0.417000       1.00800           0
     55720 TIP3     5442     TIP3     OH2      OT      -0.834000       15.9994           0
     55721 TIP3     5442     TIP3     H1       HT       0.417000       1.00800           0
     55722 TIP3     5442     TIP3     H2       HT       0.417000       1.00800           0
     55723 TIP3     5443     TIP3     OH2      OT      -0.834000       15.9994           0
     55724 TIP3     5443     TIP3     H1       HT       0.417000       1.00800           0
     55725 TIP3     5443     TIP3     H2       HT       0.417000       1.00800           0
     55726 TIP3     5444     TIP3     OH2      OT      -0.834000       15.9994           0
     55727 TIP3     5444     TIP3     H1       HT       0.417000       1.00800           0
     55728 TIP3     5444     TIP3     H2       HT       0.417000       1.00800           0
     55729 TIP3     5445     TIP3     OH2      OT      -0.834000       15.9994           0
     55730 TIP3     5445     TIP3     H1       HT       0.417000       1.00800           0
     55731 TIP3     5445     TIP3     H2       HT       0.417000       1.00800           0
     55732 TIP3     5446     TIP3     OH2      OT      -0.834000       15.9994           0
     55733 TIP3     5446     TIP3     H1       HT       0.417000       1.00800           0
     55734 TIP3     5446     TIP3     H2       HT       0.417000       1.00800           0
     55735 TIP3     5447     TIP3     OH2      OT      -0.834000       15.9994           0
     55736 TIP3     5447     TIP3     H1       HT       0.417000       1.00800           0
     55737 TIP3     5447     TIP3     H2       HT       0.417000       1.00800           0
     55738 TIP3     5448     TIP3     OH2      OT      -0.834000       15.9994           0
     55739 TIP3     5448     TIP3     H1       HT       0.417000       1.00800           0
     55740 TIP3     5448     TIP3     H2       HT       0.417000       1.00800           0
     55741 TIP3     5449     TIP3     OH2      OT      -0.834000       15.9994           0
     55742 TIP3     5449     TIP3     H1       HT       0.417000       1.00800           0
     55743 TIP3     5449     TIP3     H2       HT       0.417000       1.00800           0
     55744 TIP3     5450     TIP3     OH2      OT      -0.834000       15.9994           0
     55745 TIP3     5450     TIP3     H1       HT       0.417000       1.00800           0
     55746 TIP3     5450     TIP3     H2       HT       0.417000       1.00800           0
     55747 TIP3     5451     TIP3     OH2      OT      -0.834000       15.9994           0
     55748 TIP3     5451     TIP3     H1       HT       0.417000       1.00800           0
     55749 TIP3     5451     TIP3     H2       HT       0.417000       1.00800           0
     55750 TIP3     5452     TIP3     OH2      OT      -0.834000       15.9994           0
     55751 TIP3     5452     TIP3     H1       HT       0.417000       1.00800           0
     55752 TIP3     5452     TIP3     H2       HT       0.417000       1.00800           0
     55753 TIP3     5453     TIP3     OH2      OT      -0.834000       15.9994           0
     55754 TIP3     5453     TIP3     H1       HT       0.417000       1.00800           0
     55755 TIP3     5453     TIP3     H2       HT       0.417000       1.00800           0
     55756 TIP3     5454     TIP3     OH2      OT      -0.834000       15.9994           0
     55757 TIP3     5454     TIP3     H1       HT       0.417000       1.00800           0
     55758 TIP3     5454     TIP3     H2       HT       0.417000       1.00800           0
     55759 TIP3     5455     TIP3     OH2      OT      -0.834000       15.9994           0
     55760 TIP3     5455     TIP3     H1       HT       0.417000       1.00800           0
     55761 TIP3     5455     TIP3     H2       HT       0.417000       1.00800           0
     55762 TIP3     5456     TIP3     OH2      OT      -0.834000       15.9994           0
     55763 TIP3     5456     TIP3     H1       HT       0.417000       1.00800           0
     55764 TIP3     5456     TIP3     H2       HT       0.417000       1.00800           0
     55765 TIP3     5457     TIP3     OH2      OT      -0.834000       15.9994           0
     55766 TIP3     5457     TIP3     H1       HT       0.417000       1.00800           0
     55767 TIP3     5457     TIP3     H2       HT       0.417000       1.00800           0
     55768 TIP3     5458     TIP3     OH2      OT      -0.834000       15.9994           0
     55769 TIP3     5458     TIP3     H1       HT       0.417000       1.00800           0
     55770 TIP3     5458     TIP3     H2       HT       0.417000       1.00800           0
     55771 TIP3     5459     TIP3     OH2      OT      -0.834000       15.9994           0
     55772 TIP3     5459     TIP3     H1       HT       0.417000       1.00800           0
     55773 TIP3     5459     TIP3     H2       HT       0.417000       1.00800           0
     55774 TIP3     5460     TIP3     OH2      OT      -0.834000       15.9994           0
     55775 TIP3     5460     TIP3     H1       HT       0.417000       1.00800           0
     55776 TIP3     5460     TIP3     H2       HT       0.417000       1.00800           0
     55777 TIP3     5461     TIP3     OH2      OT      -0.834000       15.9994           0
     55778 TIP3     5461     TIP3     H1       HT       0.417000       1.00800           0
     55779 TIP3     5461     TIP3     H2       HT       0.417000       1.00800           0
     55780 TIP3     5462     TIP3     OH2      OT      -0.834000       15.9994           0
     55781 TIP3     5462     TIP3     H1       HT       0.417000       1.00800           0
     55782 TIP3     5462     TIP3     H2       HT       0.417000       1.00800           0
     55783 TIP3     5463     TIP3     OH2      OT      -0.834000       15.9994           0
     55784 TIP3     5463     TIP3     H1       HT       0.417000       1.00800           0
     55785 TIP3     5463     TIP3     H2       HT       0.417000       1.00800           0
     55786 TIP3     5464     TIP3     OH2      OT      -0.834000       15.9994           0
     55787 TIP3     5464     TIP3     H1       HT       0.417000       1.00800           0
     55788 TIP3     5464     TIP3     H2       HT       0.417000       1.00800           0
     55789 TIP3     5465     TIP3     OH2      OT      -0.834000       15.9994           0
     55790 TIP3     5465     TIP3     H1       HT       0.417000       1.00800           0
     55791 TIP3     5465     TIP3     H2       HT       0.417000       1.00800           0
     55792 TIP3     5466     TIP3     OH2      OT      -0.834000       15.9994           0
     55793 TIP3     5466     TIP3     H1       HT       0.417000       1.00800           0
     55794 TIP3     5466     TIP3     H2       HT       0.417000       1.00800           0
     55795 TIP3     5467     TIP3     OH2      OT      -0.834000       15.9994           0
     55796 TIP3     5467     TIP3     H1       HT       0.417000       1.00800           0
     55797 TIP3     5467     TIP3     H2       HT       0.417000       1.00800           0
     55798 TIP3     5468     TIP3     OH2      OT      -0.834000       15.9994           0
     55799 TIP3     5468     TIP3     H1       HT       0.417000       1.00800           0
     55800 TIP3     5468     TIP3     H2       HT       0.417000       1.00800           0
     55801 TIP3     5469     TIP3     OH2      OT      -0.834000       15.9994           0
     55802 TIP3     5469     TIP3     H1       HT       0.417000       1.00800           0
     55803 TIP3     5469     TIP3     H2       HT       0.417000       1.00800           0
     55804 TIP3     5470     TIP3     OH2      OT      -0.834000       15.9994           0
     55805 TIP3     5470     TIP3     H1       HT       0.417000       1.00800           0
     55806 TIP3     5470     TIP3     H2       HT       0.417000       1.00800           0
     55807 TIP3     5471     TIP3     OH2      OT      -0.834000       15.9994           0
     55808 TIP3     5471     TIP3     H1       HT       0.417000       1.00800           0
     55809 TIP3     5471     TIP3     H2       HT       0.417000       1.00800           0
     55810 TIP3     5472     TIP3     OH2      OT      -0.834000       15.9994           0
     55811 TIP3     5472     TIP3     H1       HT       0.417000       1.00800           0
     55812 TIP3     5472     TIP3     H2       HT       0.417000       1.00800           0
     55813 TIP3     5473     TIP3     OH2      OT      -0.834000       15.9994           0
     55814 TIP3     5473     TIP3     H1       HT       0.417000       1.00800           0
     55815 TIP3     5473     TIP3     H2       HT       0.417000       1.00800           0
     55816 TIP3     5474     TIP3     OH2      OT      -0.834000       15.9994           0
     55817 TIP3     5474     TIP3     H1       HT       0.417000       1.00800           0
     55818 TIP3     5474     TIP3     H2       HT       0.417000       1.00800           0
     55819 TIP3     5475     TIP3     OH2      OT      -0.834000       15.9994           0
     55820 TIP3     5475     TIP3     H1       HT       0.417000       1.00800           0
     55821 TIP3     5475     TIP3     H2       HT       0.417000       1.00800           0
     55822 TIP3     5476     TIP3     OH2      OT      -0.834000       15.9994           0
     55823 TIP3     5476     TIP3     H1       HT       0.417000       1.00800           0
     55824 TIP3     5476     TIP3     H2       HT       0.417000       1.00800           0
     55825 TIP3     5477     TIP3     OH2      OT      -0.834000       15.9994           0
     55826 TIP3     5477     TIP3     H1       HT       0.417000       1.00800           0
     55827 TIP3     5477     TIP3     H2       HT       0.417000       1.00800           0
     55828 TIP3     5478     TIP3     OH2      OT      -0.834000       15.9994           0
     55829 TIP3     5478     TIP3     H1       HT       0.417000       1.00800           0
     55830 TIP3     5478     TIP3     H2       HT       0.417000       1.00800           0
     55831 TIP3     5479     TIP3     OH2      OT      -0.834000       15.9994           0
     55832 TIP3     5479     TIP3     H1       HT       0.417000       1.00800           0
     55833 TIP3     5479     TIP3     H2       HT       0.417000       1.00800           0
     55834 TIP3     5480     TIP3     OH2      OT      -0.834000       15.9994           0
     55835 TIP3     5480     TIP3     H1       HT       0.417000       1.00800           0
     55836 TIP3     5480     TIP3     H2       HT       0.417000       1.00800           0
     55837 TIP3     5481     TIP3     OH2      OT      -0.834000       15.9994           0
     55838 TIP3     5481     TIP3     H1       HT       0.417000       1.00800           0
     55839 TIP3     5481     TIP3     H2       HT       0.417000       1.00800           0
     55840 TIP3     5482     TIP3     OH2      OT      -0.834000       15.9994           0
     55841 TIP3     5482     TIP3     H1       HT       0.417000       1.00800           0
     55842 TIP3     5482     TIP3     H2       HT       0.417000       1.00800           0
     55843 TIP3     5483     TIP3     OH2      OT      -0.834000       15.9994           0
     55844 TIP3     5483     TIP3     H1       HT       0.417000       1.00800           0
     55845 TIP3     5483     TIP3     H2       HT       0.417000       1.00800           0
     55846 TIP3     5484     TIP3     OH2      OT      -0.834000       15.9994           0
     55847 TIP3     5484     TIP3     H1       HT       0.417000       1.00800           0
     55848 TIP3     5484     TIP3     H2       HT       0.417000       1.00800           0
     55849 TIP3     5485     TIP3     OH2      OT      -0.834000       15.9994           0
     55850 TIP3     5485     TIP3     H1       HT       0.417000       1.00800           0
     55851 TIP3     5485     TIP3     H2       HT       0.417000       1.00800           0
     55852 TIP3     5486     TIP3     OH2      OT      -0.834000       15.9994           0
     55853 TIP3     5486     TIP3     H1       HT       0.417000       1.00800           0
     55854 TIP3     5486     TIP3     H2       HT       0.417000       1.00800           0
     55855 TIP3     5487     TIP3     OH2      OT      -0.834000       15.9994           0
     55856 TIP3     5487     TIP3     H1       HT       0.417000       1.00800           0
     55857 TIP3     5487     TIP3     H2       HT       0.417000       1.00800           0
     55858 TIP3     5488     TIP3     OH2      OT      -0.834000       15.9994           0
     55859 TIP3     5488     TIP3     H1       HT       0.417000       1.00800           0
     55860 TIP3     5488     TIP3     H2       HT       0.417000       1.00800           0
     55861 TIP3     5489     TIP3     OH2      OT      -0.834000       15.9994           0
     55862 TIP3     5489     TIP3     H1       HT       0.417000       1.00800           0
     55863 TIP3     5489     TIP3     H2       HT       0.417000       1.00800           0
     55864 TIP3     5490     TIP3     OH2      OT      -0.834000       15.9994           0
     55865 TIP3     5490     TIP3     H1       HT       0.417000       1.00800           0
     55866 TIP3     5490     TIP3     H2       HT       0.417000       1.00800           0
     55867 TIP3     5491     TIP3     OH2      OT      -0.834000       15.9994           0
     55868 TIP3     5491     TIP3     H1       HT       0.417000       1.00800           0
     55869 TIP3     5491     TIP3     H2       HT       0.417000       1.00800           0
     55870 TIP3     5492     TIP3     OH2      OT      -0.834000       15.9994           0
     55871 TIP3     5492     TIP3     H1       HT       0.417000       1.00800           0
     55872 TIP3     5492     TIP3     H2       HT       0.417000       1.00800           0
     55873 TIP3     5493     TIP3     OH2      OT      -0.834000       15.9994           0
     55874 TIP3     5493     TIP3     H1       HT       0.417000       1.00800           0
     55875 TIP3     5493     TIP3     H2       HT       0.417000       1.00800           0
     55876 TIP3     5494     TIP3     OH2      OT      -0.834000       15.9994           0
     55877 TIP3     5494     TIP3     H1       HT       0.417000       1.00800           0
     55878 TIP3     5494     TIP3     H2       HT       0.417000       1.00800           0
     55879 TIP3     5495     TIP3     OH2      OT      -0.834000       15.9994           0
     55880 TIP3     5495     TIP3     H1       HT       0.417000       1.00800           0
     55881 TIP3     5495     TIP3     H2       HT       0.417000       1.00800           0
     55882 TIP3     5496     TIP3     OH2      OT      -0.834000       15.9994           0
     55883 TIP3     5496     TIP3     H1       HT       0.417000       1.00800           0
     55884 TIP3     5496     TIP3     H2       HT       0.417000       1.00800           0
     55885 TIP3     5497     TIP3     OH2      OT      -0.834000       15.9994           0
     55886 TIP3     5497     TIP3     H1       HT       0.417000       1.00800           0
     55887 TIP3     5497     TIP3     H2       HT       0.417000       1.00800           0
     55888 TIP3     5498     TIP3     OH2      OT      -0.834000       15.9994           0
     55889 TIP3     5498     TIP3     H1       HT       0.417000       1.00800           0
     55890 TIP3     5498     TIP3     H2       HT       0.417000       1.00800           0
     55891 TIP3     5499     TIP3     OH2      OT      -0.834000       15.9994           0
     55892 TIP3     5499     TIP3     H1       HT       0.417000       1.00800           0
     55893 TIP3     5499     TIP3     H2       HT       0.417000       1.00800           0
     55894 TIP3     5500     TIP3     OH2      OT      -0.834000       15.9994           0
     55895 TIP3     5500     TIP3     H1       HT       0.417000       1.00800           0
     55896 TIP3     5500     TIP3     H2       HT       0.417000       1.00800           0
     55897 TIP3     5501     TIP3     OH2      OT      -0.834000       15.9994           0
     55898 TIP3     5501     TIP3     H1       HT       0.417000       1.00800           0
     55899 TIP3     5501     TIP3     H2       HT       0.417000       1.00800           0
     55900 TIP3     5502     TIP3     OH2      OT      -0.834000       15.9994           0
     55901 TIP3     5502     TIP3     H1       HT       0.417000       1.00800           0
     55902 TIP3     5502     TIP3     H2       HT       0.417000       1.00800           0
     55903 TIP3     5503     TIP3     OH2      OT      -0.834000       15.9994           0
     55904 TIP3     5503     TIP3     H1       HT       0.417000       1.00800           0
     55905 TIP3     5503     TIP3     H2       HT       0.417000       1.00800           0
     55906 TIP3     5504     TIP3     OH2      OT      -0.834000       15.9994           0
     55907 TIP3     5504     TIP3     H1       HT       0.417000       1.00800           0
     55908 TIP3     5504     TIP3     H2       HT       0.417000       1.00800           0
     55909 TIP3     5505     TIP3     OH2      OT      -0.834000       15.9994           0
     55910 TIP3     5505     TIP3     H1       HT       0.417000       1.00800           0
     55911 TIP3     5505     TIP3     H2       HT       0.417000       1.00800           0
     55912 TIP3     5506     TIP3     OH2      OT      -0.834000       15.9994           0
     55913 TIP3     5506     TIP3     H1       HT       0.417000       1.00800           0
     55914 TIP3     5506     TIP3     H2       HT       0.417000       1.00800           0
     55915 TIP3     5507     TIP3     OH2      OT      -0.834000       15.9994           0
     55916 TIP3     5507     TIP3     H1       HT       0.417000       1.00800           0
     55917 TIP3     5507     TIP3     H2       HT       0.417000       1.00800           0
     55918 TIP3     5508     TIP3     OH2      OT      -0.834000       15.9994           0
     55919 TIP3     5508     TIP3     H1       HT       0.417000       1.00800           0
     55920 TIP3     5508     TIP3     H2       HT       0.417000       1.00800           0
     55921 TIP3     5509     TIP3     OH2      OT      -0.834000       15.9994           0
     55922 TIP3     5509     TIP3     H1       HT       0.417000       1.00800           0
     55923 TIP3     5509     TIP3     H2       HT       0.417000       1.00800           0
     55924 TIP3     5510     TIP3     OH2      OT      -0.834000       15.9994           0
     55925 TIP3     5510     TIP3     H1       HT       0.417000       1.00800           0
     55926 TIP3     5510     TIP3     H2       HT       0.417000       1.00800           0
     55927 TIP3     5511     TIP3     OH2      OT      -0.834000       15.9994           0
     55928 TIP3     5511     TIP3     H1       HT       0.417000       1.00800           0
     55929 TIP3     5511     TIP3     H2       HT       0.417000       1.00800           0
     55930 TIP3     5512     TIP3     OH2      OT      -0.834000       15.9994           0
     55931 TIP3     5512     TIP3     H1       HT       0.417000       1.00800           0
     55932 TIP3     5512     TIP3     H2       HT       0.417000       1.00800           0
     55933 TIP3     5513     TIP3     OH2      OT      -0.834000       15.9994           0
     55934 TIP3     5513     TIP3     H1       HT       0.417000       1.00800           0
     55935 TIP3     5513     TIP3     H2       HT       0.417000       1.00800           0
     55936 TIP3     5514     TIP3     OH2      OT      -0.834000       15.9994           0
     55937 TIP3     5514     TIP3     H1       HT       0.417000       1.00800           0
     55938 TIP3     5514     TIP3     H2       HT       0.417000       1.00800           0
     55939 TIP3     5515     TIP3     OH2      OT      -0.834000       15.9994           0
     55940 TIP3     5515     TIP3     H1       HT       0.417000       1.00800           0
     55941 TIP3     5515     TIP3     H2       HT       0.417000       1.00800           0
     55942 TIP3     5516     TIP3     OH2      OT      -0.834000       15.9994           0
     55943 TIP3     5516     TIP3     H1       HT       0.417000       1.00800           0
     55944 TIP3     5516     TIP3     H2       HT       0.417000       1.00800           0
     55945 TIP3     5517     TIP3     OH2      OT      -0.834000       15.9994           0
     55946 TIP3     5517     TIP3     H1       HT       0.417000       1.00800           0
     55947 TIP3     5517     TIP3     H2       HT       0.417000       1.00800           0
     55948 TIP3     5518     TIP3     OH2      OT      -0.834000       15.9994           0
     55949 TIP3     5518     TIP3     H1       HT       0.417000       1.00800           0
     55950 TIP3     5518     TIP3     H2       HT       0.417000       1.00800           0
     55951 TIP3     5519     TIP3     OH2      OT      -0.834000       15.9994           0
     55952 TIP3     5519     TIP3     H1       HT       0.417000       1.00800           0
     55953 TIP3     5519     TIP3     H2       HT       0.417000       1.00800           0
     55954 TIP3     5520     TIP3     OH2      OT      -0.834000       15.9994           0
     55955 TIP3     5520     TIP3     H1       HT       0.417000       1.00800           0
     55956 TIP3     5520     TIP3     H2       HT       0.417000       1.00800           0
     55957 TIP3     5521     TIP3     OH2      OT      -0.834000       15.9994           0
     55958 TIP3     5521     TIP3     H1       HT       0.417000       1.00800           0
     55959 TIP3     5521     TIP3     H2       HT       0.417000       1.00800           0
     55960 TIP3     5522     TIP3     OH2      OT      -0.834000       15.9994           0
     55961 TIP3     5522     TIP3     H1       HT       0.417000       1.00800           0
     55962 TIP3     5522     TIP3     H2       HT       0.417000       1.00800           0
     55963 TIP3     5523     TIP3     OH2      OT      -0.834000       15.9994           0
     55964 TIP3     5523     TIP3     H1       HT       0.417000       1.00800           0
     55965 TIP3     5523     TIP3     H2       HT       0.417000       1.00800           0
     55966 TIP3     5524     TIP3     OH2      OT      -0.834000       15.9994           0
     55967 TIP3     5524     TIP3     H1       HT       0.417000       1.00800           0
     55968 TIP3     5524     TIP3     H2       HT       0.417000       1.00800           0
     55969 TIP3     5525     TIP3     OH2      OT      -0.834000       15.9994           0
     55970 TIP3     5525     TIP3     H1       HT       0.417000       1.00800           0
     55971 TIP3     5525     TIP3     H2       HT       0.417000       1.00800           0
     55972 TIP3     5526     TIP3     OH2      OT      -0.834000       15.9994           0
     55973 TIP3     5526     TIP3     H1       HT       0.417000       1.00800           0
     55974 TIP3     5526     TIP3     H2       HT       0.417000       1.00800           0
     55975 TIP3     5527     TIP3     OH2      OT      -0.834000       15.9994           0
     55976 TIP3     5527     TIP3     H1       HT       0.417000       1.00800           0
     55977 TIP3     5527     TIP3     H2       HT       0.417000       1.00800           0
     55978 TIP3     5528     TIP3     OH2      OT      -0.834000       15.9994           0
     55979 TIP3     5528     TIP3     H1       HT       0.417000       1.00800           0
     55980 TIP3     5528     TIP3     H2       HT       0.417000       1.00800           0
     55981 TIP3     5529     TIP3     OH2      OT      -0.834000       15.9994           0
     55982 TIP3     5529     TIP3     H1       HT       0.417000       1.00800           0
     55983 TIP3     5529     TIP3     H2       HT       0.417000       1.00800           0
     55984 TIP3     5530     TIP3     OH2      OT      -0.834000       15.9994           0
     55985 TIP3     5530     TIP3     H1       HT       0.417000       1.00800           0
     55986 TIP3     5530     TIP3     H2       HT       0.417000       1.00800           0
     55987 TIP3     5531     TIP3     OH2      OT      -0.834000       15.9994           0
     55988 TIP3     5531     TIP3     H1       HT       0.417000       1.00800           0
     55989 TIP3     5531     TIP3     H2       HT       0.417000       1.00800           0
     55990 TIP3     5532     TIP3     OH2      OT      -0.834000       15.9994           0
     55991 TIP3     5532     TIP3     H1       HT       0.417000       1.00800           0
     55992 TIP3     5532     TIP3     H2       HT       0.417000       1.00800           0
     55993 TIP3     5533     TIP3     OH2      OT      -0.834000       15.9994           0
     55994 TIP3     5533     TIP3     H1       HT       0.417000       1.00800           0
     55995 TIP3     5533     TIP3     H2       HT       0.417000       1.00800           0
     55996 TIP3     5534     TIP3     OH2      OT      -0.834000       15.9994           0
     55997 TIP3     5534     TIP3     H1       HT       0.417000       1.00800           0
     55998 TIP3     5534     TIP3     H2       HT       0.417000       1.00800           0
     55999 TIP3     5535     TIP3     OH2      OT      -0.834000       15.9994           0
     56000 TIP3     5535     TIP3     H1       HT       0.417000       1.00800           0
     56001 TIP3     5535     TIP3     H2       HT       0.417000       1.00800           0
     56002 TIP3     5536     TIP3     OH2      OT      -0.834000       15.9994           0
     56003 TIP3     5536     TIP3     H1       HT       0.417000       1.00800           0
     56004 TIP3     5536     TIP3     H2       HT       0.417000       1.00800           0
     56005 TIP3     5537     TIP3     OH2      OT      -0.834000       15.9994           0
     56006 TIP3     5537     TIP3     H1       HT       0.417000       1.00800           0
     56007 TIP3     5537     TIP3     H2       HT       0.417000       1.00800           0
     56008 TIP3     5538     TIP3     OH2      OT      -0.834000       15.9994           0
     56009 TIP3     5538     TIP3     H1       HT       0.417000       1.00800           0
     56010 TIP3     5538     TIP3     H2       HT       0.417000       1.00800           0
     56011 TIP3     5539     TIP3     OH2      OT      -0.834000       15.9994           0
     56012 TIP3     5539     TIP3     H1       HT       0.417000       1.00800           0
     56013 TIP3     5539     TIP3     H2       HT       0.417000       1.00800           0
     56014 TIP3     5540     TIP3     OH2      OT      -0.834000       15.9994           0
     56015 TIP3     5540     TIP3     H1       HT       0.417000       1.00800           0
     56016 TIP3     5540     TIP3     H2       HT       0.417000       1.00800           0
     56017 TIP3     5541     TIP3     OH2      OT      -0.834000       15.9994           0
     56018 TIP3     5541     TIP3     H1       HT       0.417000       1.00800           0
     56019 TIP3     5541     TIP3     H2       HT       0.417000       1.00800           0
     56020 TIP3     5542     TIP3     OH2      OT      -0.834000       15.9994           0
     56021 TIP3     5542     TIP3     H1       HT       0.417000       1.00800           0
     56022 TIP3     5542     TIP3     H2       HT       0.417000       1.00800           0
     56023 TIP3     5543     TIP3     OH2      OT      -0.834000       15.9994           0
     56024 TIP3     5543     TIP3     H1       HT       0.417000       1.00800           0
     56025 TIP3     5543     TIP3     H2       HT       0.417000       1.00800           0
     56026 TIP3     5544     TIP3     OH2      OT      -0.834000       15.9994           0
     56027 TIP3     5544     TIP3     H1       HT       0.417000       1.00800           0
     56028 TIP3     5544     TIP3     H2       HT       0.417000       1.00800           0
     56029 TIP3     5545     TIP3     OH2      OT      -0.834000       15.9994           0
     56030 TIP3     5545     TIP3     H1       HT       0.417000       1.00800           0
     56031 TIP3     5545     TIP3     H2       HT       0.417000       1.00800           0
     56032 TIP3     5546     TIP3     OH2      OT      -0.834000       15.9994           0
     56033 TIP3     5546     TIP3     H1       HT       0.417000       1.00800           0
     56034 TIP3     5546     TIP3     H2       HT       0.417000       1.00800           0
     56035 TIP3     5547     TIP3     OH2      OT      -0.834000       15.9994           0
     56036 TIP3     5547     TIP3     H1       HT       0.417000       1.00800           0
     56037 TIP3     5547     TIP3     H2       HT       0.417000       1.00800           0
     56038 TIP3     5548     TIP3     OH2      OT      -0.834000       15.9994           0
     56039 TIP3     5548     TIP3     H1       HT       0.417000       1.00800           0
     56040 TIP3     5548     TIP3     H2       HT       0.417000       1.00800           0
     56041 TIP3     5549     TIP3     OH2      OT      -0.834000       15.9994           0
     56042 TIP3     5549     TIP3     H1       HT       0.417000       1.00800           0
     56043 TIP3     5549     TIP3     H2       HT       0.417000       1.00800           0
     56044 TIP3     5550     TIP3     OH2      OT      -0.834000       15.9994           0
     56045 TIP3     5550     TIP3     H1       HT       0.417000       1.00800           0
     56046 TIP3     5550     TIP3     H2       HT       0.417000       1.00800           0
     56047 TIP3     5551     TIP3     OH2      OT      -0.834000       15.9994           0
     56048 TIP3     5551     TIP3     H1       HT       0.417000       1.00800           0
     56049 TIP3     5551     TIP3     H2       HT       0.417000       1.00800           0
     56050 TIP3     5552     TIP3     OH2      OT      -0.834000       15.9994           0
     56051 TIP3     5552     TIP3     H1       HT       0.417000       1.00800           0
     56052 TIP3     5552     TIP3     H2       HT       0.417000       1.00800           0
     56053 TIP3     5553     TIP3     OH2      OT      -0.834000       15.9994           0
     56054 TIP3     5553     TIP3     H1       HT       0.417000       1.00800           0
     56055 TIP3     5553     TIP3     H2       HT       0.417000       1.00800           0
     56056 TIP3     5554     TIP3     OH2      OT      -0.834000       15.9994           0
     56057 TIP3     5554     TIP3     H1       HT       0.417000       1.00800           0
     56058 TIP3     5554     TIP3     H2       HT       0.417000       1.00800           0
     56059 TIP3     5555     TIP3     OH2      OT      -0.834000       15.9994           0
     56060 TIP3     5555     TIP3     H1       HT       0.417000       1.00800           0
     56061 TIP3     5555     TIP3     H2       HT       0.417000       1.00800           0
     56062 TIP3     5556     TIP3     OH2      OT      -0.834000       15.9994           0
     56063 TIP3     5556     TIP3     H1       HT       0.417000       1.00800           0
     56064 TIP3     5556     TIP3     H2       HT       0.417000       1.00800           0
     56065 TIP3     5557     TIP3     OH2      OT      -0.834000       15.9994           0
     56066 TIP3     5557     TIP3     H1       HT       0.417000       1.00800           0
     56067 TIP3     5557     TIP3     H2       HT       0.417000       1.00800           0
     56068 TIP3     5558     TIP3     OH2      OT      -0.834000       15.9994           0
     56069 TIP3     5558     TIP3     H1       HT       0.417000       1.00800           0
     56070 TIP3     5558     TIP3     H2       HT       0.417000       1.00800           0
     56071 TIP3     5559     TIP3     OH2      OT      -0.834000       15.9994           0
     56072 TIP3     5559     TIP3     H1       HT       0.417000       1.00800           0
     56073 TIP3     5559     TIP3     H2       HT       0.417000       1.00800           0
     56074 TIP3     5560     TIP3     OH2      OT      -0.834000       15.9994           0
     56075 TIP3     5560     TIP3     H1       HT       0.417000       1.00800           0
     56076 TIP3     5560     TIP3     H2       HT       0.417000       1.00800           0
     56077 TIP3     5561     TIP3     OH2      OT      -0.834000       15.9994           0
     56078 TIP3     5561     TIP3     H1       HT       0.417000       1.00800           0
     56079 TIP3     5561     TIP3     H2       HT       0.417000       1.00800           0
     56080 TIP3     5562     TIP3     OH2      OT      -0.834000       15.9994           0
     56081 TIP3     5562     TIP3     H1       HT       0.417000       1.00800           0
     56082 TIP3     5562     TIP3     H2       HT       0.417000       1.00800           0
     56083 TIP3     5563     TIP3     OH2      OT      -0.834000       15.9994           0
     56084 TIP3     5563     TIP3     H1       HT       0.417000       1.00800           0
     56085 TIP3     5563     TIP3     H2       HT       0.417000       1.00800           0
     56086 TIP3     5564     TIP3     OH2      OT      -0.834000       15.9994           0
     56087 TIP3     5564     TIP3     H1       HT       0.417000       1.00800           0
     56088 TIP3     5564     TIP3     H2       HT       0.417000       1.00800           0
     56089 TIP3     5565     TIP3     OH2      OT      -0.834000       15.9994           0
     56090 TIP3     5565     TIP3     H1       HT       0.417000       1.00800           0
     56091 TIP3     5565     TIP3     H2       HT       0.417000       1.00800           0
     56092 TIP3     5566     TIP3     OH2      OT      -0.834000       15.9994           0
     56093 TIP3     5566     TIP3     H1       HT       0.417000       1.00800           0
     56094 TIP3     5566     TIP3     H2       HT       0.417000       1.00800           0
     56095 TIP3     5567     TIP3     OH2      OT      -0.834000       15.9994           0
     56096 TIP3     5567     TIP3     H1       HT       0.417000       1.00800           0
     56097 TIP3     5567     TIP3     H2       HT       0.417000       1.00800           0
     56098 TIP3     5568     TIP3     OH2      OT      -0.834000       15.9994           0
     56099 TIP3     5568     TIP3     H1       HT       0.417000       1.00800           0
     56100 TIP3     5568     TIP3     H2       HT       0.417000       1.00800           0
     56101 TIP3     5569     TIP3     OH2      OT      -0.834000       15.9994           0
     56102 TIP3     5569     TIP3     H1       HT       0.417000       1.00800           0
     56103 TIP3     5569     TIP3     H2       HT       0.417000       1.00800           0
     56104 TIP3     5570     TIP3     OH2      OT      -0.834000       15.9994           0
     56105 TIP3     5570     TIP3     H1       HT       0.417000       1.00800           0
     56106 TIP3     5570     TIP3     H2       HT       0.417000       1.00800           0
     56107 TIP3     5571     TIP3     OH2      OT      -0.834000       15.9994           0
     56108 TIP3     5571     TIP3     H1       HT       0.417000       1.00800           0
     56109 TIP3     5571     TIP3     H2       HT       0.417000       1.00800           0
     56110 TIP3     5572     TIP3     OH2      OT      -0.834000       15.9994           0
     56111 TIP3     5572     TIP3     H1       HT       0.417000       1.00800           0
     56112 TIP3     5572     TIP3     H2       HT       0.417000       1.00800           0
     56113 TIP3     5573     TIP3     OH2      OT      -0.834000       15.9994           0
     56114 TIP3     5573     TIP3     H1       HT       0.417000       1.00800           0
     56115 TIP3     5573     TIP3     H2       HT       0.417000       1.00800           0
     56116 TIP3     5574     TIP3     OH2      OT      -0.834000       15.9994           0
     56117 TIP3     5574     TIP3     H1       HT       0.417000       1.00800           0
     56118 TIP3     5574     TIP3     H2       HT       0.417000       1.00800           0
     56119 TIP3     5575     TIP3     OH2      OT      -0.834000       15.9994           0
     56120 TIP3     5575     TIP3     H1       HT       0.417000       1.00800           0
     56121 TIP3     5575     TIP3     H2       HT       0.417000       1.00800           0
     56122 TIP3     5576     TIP3     OH2      OT      -0.834000       15.9994           0
     56123 TIP3     5576     TIP3     H1       HT       0.417000       1.00800           0
     56124 TIP3     5576     TIP3     H2       HT       0.417000       1.00800           0
     56125 TIP3     5577     TIP3     OH2      OT      -0.834000       15.9994           0
     56126 TIP3     5577     TIP3     H1       HT       0.417000       1.00800           0
     56127 TIP3     5577     TIP3     H2       HT       0.417000       1.00800           0
     56128 TIP3     5578     TIP3     OH2      OT      -0.834000       15.9994           0
     56129 TIP3     5578     TIP3     H1       HT       0.417000       1.00800           0
     56130 TIP3     5578     TIP3     H2       HT       0.417000       1.00800           0
     56131 TIP3     5579     TIP3     OH2      OT      -0.834000       15.9994           0
     56132 TIP3     5579     TIP3     H1       HT       0.417000       1.00800           0
     56133 TIP3     5579     TIP3     H2       HT       0.417000       1.00800           0
     56134 TIP3     5580     TIP3     OH2      OT      -0.834000       15.9994           0
     56135 TIP3     5580     TIP3     H1       HT       0.417000       1.00800           0
     56136 TIP3     5580     TIP3     H2       HT       0.417000       1.00800           0
     56137 TIP3     5581     TIP3     OH2      OT      -0.834000       15.9994           0
     56138 TIP3     5581     TIP3     H1       HT       0.417000       1.00800           0
     56139 TIP3     5581     TIP3     H2       HT       0.417000       1.00800           0
     56140 TIP3     5582     TIP3     OH2      OT      -0.834000       15.9994           0
     56141 TIP3     5582     TIP3     H1       HT       0.417000       1.00800           0
     56142 TIP3     5582     TIP3     H2       HT       0.417000       1.00800           0
     56143 TIP3     5583     TIP3     OH2      OT      -0.834000       15.9994           0
     56144 TIP3     5583     TIP3     H1       HT       0.417000       1.00800           0
     56145 TIP3     5583     TIP3     H2       HT       0.417000       1.00800           0
     56146 TIP3     5584     TIP3     OH2      OT      -0.834000       15.9994           0
     56147 TIP3     5584     TIP3     H1       HT       0.417000       1.00800           0
     56148 TIP3     5584     TIP3     H2       HT       0.417000       1.00800           0
     56149 TIP3     5585     TIP3     OH2      OT      -0.834000       15.9994           0
     56150 TIP3     5585     TIP3     H1       HT       0.417000       1.00800           0
     56151 TIP3     5585     TIP3     H2       HT       0.417000       1.00800           0
     56152 TIP3     5586     TIP3     OH2      OT      -0.834000       15.9994           0
     56153 TIP3     5586     TIP3     H1       HT       0.417000       1.00800           0
     56154 TIP3     5586     TIP3     H2       HT       0.417000       1.00800           0
     56155 TIP3     5587     TIP3     OH2      OT      -0.834000       15.9994           0
     56156 TIP3     5587     TIP3     H1       HT       0.417000       1.00800           0
     56157 TIP3     5587     TIP3     H2       HT       0.417000       1.00800           0
     56158 TIP3     5588     TIP3     OH2      OT      -0.834000       15.9994           0
     56159 TIP3     5588     TIP3     H1       HT       0.417000       1.00800           0
     56160 TIP3     5588     TIP3     H2       HT       0.417000       1.00800           0
     56161 TIP3     5589     TIP3     OH2      OT      -0.834000       15.9994           0
     56162 TIP3     5589     TIP3     H1       HT       0.417000       1.00800           0
     56163 TIP3     5589     TIP3     H2       HT       0.417000       1.00800           0
     56164 TIP3     5590     TIP3     OH2      OT      -0.834000       15.9994           0
     56165 TIP3     5590     TIP3     H1       HT       0.417000       1.00800           0
     56166 TIP3     5590     TIP3     H2       HT       0.417000       1.00800           0
     56167 TIP3     5591     TIP3     OH2      OT      -0.834000       15.9994           0
     56168 TIP3     5591     TIP3     H1       HT       0.417000       1.00800           0
     56169 TIP3     5591     TIP3     H2       HT       0.417000       1.00800           0
     56170 TIP3     5592     TIP3     OH2      OT      -0.834000       15.9994           0
     56171 TIP3     5592     TIP3     H1       HT       0.417000       1.00800           0
     56172 TIP3     5592     TIP3     H2       HT       0.417000       1.00800           0
     56173 TIP3     5593     TIP3     OH2      OT      -0.834000       15.9994           0
     56174 TIP3     5593     TIP3     H1       HT       0.417000       1.00800           0
     56175 TIP3     5593     TIP3     H2       HT       0.417000       1.00800           0
     56176 TIP3     5594     TIP3     OH2      OT      -0.834000       15.9994           0
     56177 TIP3     5594     TIP3     H1       HT       0.417000       1.00800           0
     56178 TIP3     5594     TIP3     H2       HT       0.417000       1.00800           0
     56179 TIP3     5595     TIP3     OH2      OT      -0.834000       15.9994           0
     56180 TIP3     5595     TIP3     H1       HT       0.417000       1.00800           0
     56181 TIP3     5595     TIP3     H2       HT       0.417000       1.00800           0
     56182 TIP3     5596     TIP3     OH2      OT      -0.834000       15.9994           0
     56183 TIP3     5596     TIP3     H1       HT       0.417000       1.00800           0
     56184 TIP3     5596     TIP3     H2       HT       0.417000       1.00800           0
     56185 TIP3     5597     TIP3     OH2      OT      -0.834000       15.9994           0
     56186 TIP3     5597     TIP3     H1       HT       0.417000       1.00800           0
     56187 TIP3     5597     TIP3     H2       HT       0.417000       1.00800           0
     56188 TIP3     5598     TIP3     OH2      OT      -0.834000       15.9994           0
     56189 TIP3     5598     TIP3     H1       HT       0.417000       1.00800           0
     56190 TIP3     5598     TIP3     H2       HT       0.417000       1.00800           0
     56191 TIP3     5599     TIP3     OH2      OT      -0.834000       15.9994           0
     56192 TIP3     5599     TIP3     H1       HT       0.417000       1.00800           0
     56193 TIP3     5599     TIP3     H2       HT       0.417000       1.00800           0
     56194 TIP3     5600     TIP3     OH2      OT      -0.834000       15.9994           0
     56195 TIP3     5600     TIP3     H1       HT       0.417000       1.00800           0
     56196 TIP3     5600     TIP3     H2       HT       0.417000       1.00800           0
     56197 TIP3     5601     TIP3     OH2      OT      -0.834000       15.9994           0
     56198 TIP3     5601     TIP3     H1       HT       0.417000       1.00800           0
     56199 TIP3     5601     TIP3     H2       HT       0.417000       1.00800           0
     56200 TIP3     5602     TIP3     OH2      OT      -0.834000       15.9994           0
     56201 TIP3     5602     TIP3     H1       HT       0.417000       1.00800           0
     56202 TIP3     5602     TIP3     H2       HT       0.417000       1.00800           0
     56203 TIP3     5603     TIP3     OH2      OT      -0.834000       15.9994           0
     56204 TIP3     5603     TIP3     H1       HT       0.417000       1.00800           0
     56205 TIP3     5603     TIP3     H2       HT       0.417000       1.00800           0
     56206 TIP3     5604     TIP3     OH2      OT      -0.834000       15.9994           0
     56207 TIP3     5604     TIP3     H1       HT       0.417000       1.00800           0
     56208 TIP3     5604     TIP3     H2       HT       0.417000       1.00800           0
     56209 TIP3     5605     TIP3     OH2      OT      -0.834000       15.9994           0
     56210 TIP3     5605     TIP3     H1       HT       0.417000       1.00800           0
     56211 TIP3     5605     TIP3     H2       HT       0.417000       1.00800           0
     56212 TIP3     5606     TIP3     OH2      OT      -0.834000       15.9994           0
     56213 TIP3     5606     TIP3     H1       HT       0.417000       1.00800           0
     56214 TIP3     5606     TIP3     H2       HT       0.417000       1.00800           0
     56215 TIP3     5607     TIP3     OH2      OT      -0.834000       15.9994           0
     56216 TIP3     5607     TIP3     H1       HT       0.417000       1.00800           0
     56217 TIP3     5607     TIP3     H2       HT       0.417000       1.00800           0
     56218 TIP3     5608     TIP3     OH2      OT      -0.834000       15.9994           0
     56219 TIP3     5608     TIP3     H1       HT       0.417000       1.00800           0
     56220 TIP3     5608     TIP3     H2       HT       0.417000       1.00800           0
     56221 TIP3     5609     TIP3     OH2      OT      -0.834000       15.9994           0
     56222 TIP3     5609     TIP3     H1       HT       0.417000       1.00800           0
     56223 TIP3     5609     TIP3     H2       HT       0.417000       1.00800           0
     56224 TIP3     5610     TIP3     OH2      OT      -0.834000       15.9994           0
     56225 TIP3     5610     TIP3     H1       HT       0.417000       1.00800           0
     56226 TIP3     5610     TIP3     H2       HT       0.417000       1.00800           0
     56227 TIP3     5611     TIP3     OH2      OT      -0.834000       15.9994           0
     56228 TIP3     5611     TIP3     H1       HT       0.417000       1.00800           0
     56229 TIP3     5611     TIP3     H2       HT       0.417000       1.00800           0
     56230 TIP3     5612     TIP3     OH2      OT      -0.834000       15.9994           0
     56231 TIP3     5612     TIP3     H1       HT       0.417000       1.00800           0
     56232 TIP3     5612     TIP3     H2       HT       0.417000       1.00800           0
     56233 TIP3     5613     TIP3     OH2      OT      -0.834000       15.9994           0
     56234 TIP3     5613     TIP3     H1       HT       0.417000       1.00800           0
     56235 TIP3     5613     TIP3     H2       HT       0.417000       1.00800           0
     56236 TIP3     5614     TIP3     OH2      OT      -0.834000       15.9994           0
     56237 TIP3     5614     TIP3     H1       HT       0.417000       1.00800           0
     56238 TIP3     5614     TIP3     H2       HT       0.417000       1.00800           0
     56239 TIP3     5615     TIP3     OH2      OT      -0.834000       15.9994           0
     56240 TIP3     5615     TIP3     H1       HT       0.417000       1.00800           0
     56241 TIP3     5615     TIP3     H2       HT       0.417000       1.00800           0
     56242 TIP3     5616     TIP3     OH2      OT      -0.834000       15.9994           0
     56243 TIP3     5616     TIP3     H1       HT       0.417000       1.00800           0
     56244 TIP3     5616     TIP3     H2       HT       0.417000       1.00800           0
     56245 TIP3     5617     TIP3     OH2      OT      -0.834000       15.9994           0
     56246 TIP3     5617     TIP3     H1       HT       0.417000       1.00800           0
     56247 TIP3     5617     TIP3     H2       HT       0.417000       1.00800           0
     56248 TIP3     5618     TIP3     OH2      OT      -0.834000       15.9994           0
     56249 TIP3     5618     TIP3     H1       HT       0.417000       1.00800           0
     56250 TIP3     5618     TIP3     H2       HT       0.417000       1.00800           0
     56251 TIP3     5619     TIP3     OH2      OT      -0.834000       15.9994           0
     56252 TIP3     5619     TIP3     H1       HT       0.417000       1.00800           0
     56253 TIP3     5619     TIP3     H2       HT       0.417000       1.00800           0
     56254 TIP3     5620     TIP3     OH2      OT      -0.834000       15.9994           0
     56255 TIP3     5620     TIP3     H1       HT       0.417000       1.00800           0
     56256 TIP3     5620     TIP3     H2       HT       0.417000       1.00800           0
     56257 TIP3     5621     TIP3     OH2      OT      -0.834000       15.9994           0
     56258 TIP3     5621     TIP3     H1       HT       0.417000       1.00800           0
     56259 TIP3     5621     TIP3     H2       HT       0.417000       1.00800           0
     56260 TIP3     5622     TIP3     OH2      OT      -0.834000       15.9994           0
     56261 TIP3     5622     TIP3     H1       HT       0.417000       1.00800           0
     56262 TIP3     5622     TIP3     H2       HT       0.417000       1.00800           0
     56263 TIP3     5623     TIP3     OH2      OT      -0.834000       15.9994           0
     56264 TIP3     5623     TIP3     H1       HT       0.417000       1.00800           0
     56265 TIP3     5623     TIP3     H2       HT       0.417000       1.00800           0
     56266 TIP3     5624     TIP3     OH2      OT      -0.834000       15.9994           0
     56267 TIP3     5624     TIP3     H1       HT       0.417000       1.00800           0
     56268 TIP3     5624     TIP3     H2       HT       0.417000       1.00800           0
     56269 TIP3     5625     TIP3     OH2      OT      -0.834000       15.9994           0
     56270 TIP3     5625     TIP3     H1       HT       0.417000       1.00800           0
     56271 TIP3     5625     TIP3     H2       HT       0.417000       1.00800           0
     56272 TIP3     5626     TIP3     OH2      OT      -0.834000       15.9994           0
     56273 TIP3     5626     TIP3     H1       HT       0.417000       1.00800           0
     56274 TIP3     5626     TIP3     H2       HT       0.417000       1.00800           0
     56275 TIP3     5627     TIP3     OH2      OT      -0.834000       15.9994           0
     56276 TIP3     5627     TIP3     H1       HT       0.417000       1.00800           0
     56277 TIP3     5627     TIP3     H2       HT       0.417000       1.00800           0
     56278 TIP3     5628     TIP3     OH2      OT      -0.834000       15.9994           0
     56279 TIP3     5628     TIP3     H1       HT       0.417000       1.00800           0
     56280 TIP3     5628     TIP3     H2       HT       0.417000       1.00800           0
     56281 TIP3     5629     TIP3     OH2      OT      -0.834000       15.9994           0
     56282 TIP3     5629     TIP3     H1       HT       0.417000       1.00800           0
     56283 TIP3     5629     TIP3     H2       HT       0.417000       1.00800           0
     56284 TIP3     5630     TIP3     OH2      OT      -0.834000       15.9994           0
     56285 TIP3     5630     TIP3     H1       HT       0.417000       1.00800           0
     56286 TIP3     5630     TIP3     H2       HT       0.417000       1.00800           0
     56287 TIP3     5631     TIP3     OH2      OT      -0.834000       15.9994           0
     56288 TIP3     5631     TIP3     H1       HT       0.417000       1.00800           0
     56289 TIP3     5631     TIP3     H2       HT       0.417000       1.00800           0
     56290 TIP3     5632     TIP3     OH2      OT      -0.834000       15.9994           0
     56291 TIP3     5632     TIP3     H1       HT       0.417000       1.00800           0
     56292 TIP3     5632     TIP3     H2       HT       0.417000       1.00800           0
     56293 TIP3     5633     TIP3     OH2      OT      -0.834000       15.9994           0
     56294 TIP3     5633     TIP3     H1       HT       0.417000       1.00800           0
     56295 TIP3     5633     TIP3     H2       HT       0.417000       1.00800           0
     56296 TIP3     5634     TIP3     OH2      OT      -0.834000       15.9994           0
     56297 TIP3     5634     TIP3     H1       HT       0.417000       1.00800           0
     56298 TIP3     5634     TIP3     H2       HT       0.417000       1.00800           0
     56299 TIP3     5635     TIP3     OH2      OT      -0.834000       15.9994           0
     56300 TIP3     5635     TIP3     H1       HT       0.417000       1.00800           0
     56301 TIP3     5635     TIP3     H2       HT       0.417000       1.00800           0
     56302 TIP3     5636     TIP3     OH2      OT      -0.834000       15.9994           0
     56303 TIP3     5636     TIP3     H1       HT       0.417000       1.00800           0
     56304 TIP3     5636     TIP3     H2       HT       0.417000       1.00800           0
     56305 TIP3     5637     TIP3     OH2      OT      -0.834000       15.9994           0
     56306 TIP3     5637     TIP3     H1       HT       0.417000       1.00800           0
     56307 TIP3     5637     TIP3     H2       HT       0.417000       1.00800           0
     56308 TIP3     5638     TIP3     OH2      OT      -0.834000       15.9994           0
     56309 TIP3     5638     TIP3     H1       HT       0.417000       1.00800           0
     56310 TIP3     5638     TIP3     H2       HT       0.417000       1.00800           0
     56311 TIP3     5639     TIP3     OH2      OT      -0.834000       15.9994           0
     56312 TIP3     5639     TIP3     H1       HT       0.417000       1.00800           0
     56313 TIP3     5639     TIP3     H2       HT       0.417000       1.00800           0
     56314 TIP3     5640     TIP3     OH2      OT      -0.834000       15.9994           0
     56315 TIP3     5640     TIP3     H1       HT       0.417000       1.00800           0
     56316 TIP3     5640     TIP3     H2       HT       0.417000       1.00800           0
     56317 TIP3     5641     TIP3     OH2      OT      -0.834000       15.9994           0
     56318 TIP3     5641     TIP3     H1       HT       0.417000       1.00800           0
     56319 TIP3     5641     TIP3     H2       HT       0.417000       1.00800           0
     56320 TIP3     5642     TIP3     OH2      OT      -0.834000       15.9994           0
     56321 TIP3     5642     TIP3     H1       HT       0.417000       1.00800           0
     56322 TIP3     5642     TIP3     H2       HT       0.417000       1.00800           0
     56323 TIP3     5643     TIP3     OH2      OT      -0.834000       15.9994           0
     56324 TIP3     5643     TIP3     H1       HT       0.417000       1.00800           0
     56325 TIP3     5643     TIP3     H2       HT       0.417000       1.00800           0
     56326 TIP3     5644     TIP3     OH2      OT      -0.834000       15.9994           0
     56327 TIP3     5644     TIP3     H1       HT       0.417000       1.00800           0
     56328 TIP3     5644     TIP3     H2       HT       0.417000       1.00800           0
     56329 TIP3     5645     TIP3     OH2      OT      -0.834000       15.9994           0
     56330 TIP3     5645     TIP3     H1       HT       0.417000       1.00800           0
     56331 TIP3     5645     TIP3     H2       HT       0.417000       1.00800           0
     56332 TIP3     5646     TIP3     OH2      OT      -0.834000       15.9994           0
     56333 TIP3     5646     TIP3     H1       HT       0.417000       1.00800           0
     56334 TIP3     5646     TIP3     H2       HT       0.417000       1.00800           0
     56335 TIP3     5647     TIP3     OH2      OT      -0.834000       15.9994           0
     56336 TIP3     5647     TIP3     H1       HT       0.417000       1.00800           0
     56337 TIP3     5647     TIP3     H2       HT       0.417000       1.00800           0
     56338 TIP3     5648     TIP3     OH2      OT      -0.834000       15.9994           0
     56339 TIP3     5648     TIP3     H1       HT       0.417000       1.00800           0
     56340 TIP3     5648     TIP3     H2       HT       0.417000       1.00800           0
     56341 TIP3     5649     TIP3     OH2      OT      -0.834000       15.9994           0
     56342 TIP3     5649     TIP3     H1       HT       0.417000       1.00800           0
     56343 TIP3     5649     TIP3     H2       HT       0.417000       1.00800           0
     56344 TIP3     5650     TIP3     OH2      OT      -0.834000       15.9994           0
     56345 TIP3     5650     TIP3     H1       HT       0.417000       1.00800           0
     56346 TIP3     5650     TIP3     H2       HT       0.417000       1.00800           0
     56347 TIP3     5651     TIP3     OH2      OT      -0.834000       15.9994           0
     56348 TIP3     5651     TIP3     H1       HT       0.417000       1.00800           0
     56349 TIP3     5651     TIP3     H2       HT       0.417000       1.00800           0
     56350 TIP3     5652     TIP3     OH2      OT      -0.834000       15.9994           0
     56351 TIP3     5652     TIP3     H1       HT       0.417000       1.00800           0
     56352 TIP3     5652     TIP3     H2       HT       0.417000       1.00800           0
     56353 TIP3     5653     TIP3     OH2      OT      -0.834000       15.9994           0
     56354 TIP3     5653     TIP3     H1       HT       0.417000       1.00800           0
     56355 TIP3     5653     TIP3     H2       HT       0.417000       1.00800           0
     56356 TIP3     5654     TIP3     OH2      OT      -0.834000       15.9994           0
     56357 TIP3     5654     TIP3     H1       HT       0.417000       1.00800           0
     56358 TIP3     5654     TIP3     H2       HT       0.417000       1.00800           0
     56359 TIP3     5655     TIP3     OH2      OT      -0.834000       15.9994           0
     56360 TIP3     5655     TIP3     H1       HT       0.417000       1.00800           0
     56361 TIP3     5655     TIP3     H2       HT       0.417000       1.00800           0
     56362 TIP3     5656     TIP3     OH2      OT      -0.834000       15.9994           0
     56363 TIP3     5656     TIP3     H1       HT       0.417000       1.00800           0
     56364 TIP3     5656     TIP3     H2       HT       0.417000       1.00800           0
     56365 TIP3     5657     TIP3     OH2      OT      -0.834000       15.9994           0
     56366 TIP3     5657     TIP3     H1       HT       0.417000       1.00800           0
     56367 TIP3     5657     TIP3     H2       HT       0.417000       1.00800           0
     56368 TIP3     5658     TIP3     OH2      OT      -0.834000       15.9994           0
     56369 TIP3     5658     TIP3     H1       HT       0.417000       1.00800           0
     56370 TIP3     5658     TIP3     H2       HT       0.417000       1.00800           0
     56371 TIP3     5659     TIP3     OH2      OT      -0.834000       15.9994           0
     56372 TIP3     5659     TIP3     H1       HT       0.417000       1.00800           0
     56373 TIP3     5659     TIP3     H2       HT       0.417000       1.00800           0
     56374 TIP3     5660     TIP3     OH2      OT      -0.834000       15.9994           0
     56375 TIP3     5660     TIP3     H1       HT       0.417000       1.00800           0
     56376 TIP3     5660     TIP3     H2       HT       0.417000       1.00800           0
     56377 TIP3     5661     TIP3     OH2      OT      -0.834000       15.9994           0
     56378 TIP3     5661     TIP3     H1       HT       0.417000       1.00800           0
     56379 TIP3     5661     TIP3     H2       HT       0.417000       1.00800           0
     56380 TIP3     5662     TIP3     OH2      OT      -0.834000       15.9994           0
     56381 TIP3     5662     TIP3     H1       HT       0.417000       1.00800           0
     56382 TIP3     5662     TIP3     H2       HT       0.417000       1.00800           0
     56383 TIP3     5663     TIP3     OH2      OT      -0.834000       15.9994           0
     56384 TIP3     5663     TIP3     H1       HT       0.417000       1.00800           0
     56385 TIP3     5663     TIP3     H2       HT       0.417000       1.00800           0
     56386 TIP3     5664     TIP3     OH2      OT      -0.834000       15.9994           0
     56387 TIP3     5664     TIP3     H1       HT       0.417000       1.00800           0
     56388 TIP3     5664     TIP3     H2       HT       0.417000       1.00800           0
     56389 TIP3     5665     TIP3     OH2      OT      -0.834000       15.9994           0
     56390 TIP3     5665     TIP3     H1       HT       0.417000       1.00800           0
     56391 TIP3     5665     TIP3     H2       HT       0.417000       1.00800           0
     56392 TIP3     5666     TIP3     OH2      OT      -0.834000       15.9994           0
     56393 TIP3     5666     TIP3     H1       HT       0.417000       1.00800           0
     56394 TIP3     5666     TIP3     H2       HT       0.417000       1.00800           0
     56395 TIP3     5667     TIP3     OH2      OT      -0.834000       15.9994           0
     56396 TIP3     5667     TIP3     H1       HT       0.417000       1.00800           0
     56397 TIP3     5667     TIP3     H2       HT       0.417000       1.00800           0
     56398 TIP3     5668     TIP3     OH2      OT      -0.834000       15.9994           0
     56399 TIP3     5668     TIP3     H1       HT       0.417000       1.00800           0
     56400 TIP3     5668     TIP3     H2       HT       0.417000       1.00800           0
     56401 TIP3     5669     TIP3     OH2      OT      -0.834000       15.9994           0
     56402 TIP3     5669     TIP3     H1       HT       0.417000       1.00800           0
     56403 TIP3     5669     TIP3     H2       HT       0.417000       1.00800           0
     56404 TIP3     5670     TIP3     OH2      OT      -0.834000       15.9994           0
     56405 TIP3     5670     TIP3     H1       HT       0.417000       1.00800           0
     56406 TIP3     5670     TIP3     H2       HT       0.417000       1.00800           0
     56407 TIP3     5671     TIP3     OH2      OT      -0.834000       15.9994           0
     56408 TIP3     5671     TIP3     H1       HT       0.417000       1.00800           0
     56409 TIP3     5671     TIP3     H2       HT       0.417000       1.00800           0
     56410 TIP3     5672     TIP3     OH2      OT      -0.834000       15.9994           0
     56411 TIP3     5672     TIP3     H1       HT       0.417000       1.00800           0
     56412 TIP3     5672     TIP3     H2       HT       0.417000       1.00800           0
     56413 TIP3     5673     TIP3     OH2      OT      -0.834000       15.9994           0
     56414 TIP3     5673     TIP3     H1       HT       0.417000       1.00800           0
     56415 TIP3     5673     TIP3     H2       HT       0.417000       1.00800           0
     56416 TIP3     5674     TIP3     OH2      OT      -0.834000       15.9994           0
     56417 TIP3     5674     TIP3     H1       HT       0.417000       1.00800           0
     56418 TIP3     5674     TIP3     H2       HT       0.417000       1.00800           0
     56419 TIP3     5675     TIP3     OH2      OT      -0.834000       15.9994           0
     56420 TIP3     5675     TIP3     H1       HT       0.417000       1.00800           0
     56421 TIP3     5675     TIP3     H2       HT       0.417000       1.00800           0
     56422 TIP3     5676     TIP3     OH2      OT      -0.834000       15.9994           0
     56423 TIP3     5676     TIP3     H1       HT       0.417000       1.00800           0
     56424 TIP3     5676     TIP3     H2       HT       0.417000       1.00800           0
     56425 TIP3     5677     TIP3     OH2      OT      -0.834000       15.9994           0
     56426 TIP3     5677     TIP3     H1       HT       0.417000       1.00800           0
     56427 TIP3     5677     TIP3     H2       HT       0.417000       1.00800           0
     56428 TIP3     5678     TIP3     OH2      OT      -0.834000       15.9994           0
     56429 TIP3     5678     TIP3     H1       HT       0.417000       1.00800           0
     56430 TIP3     5678     TIP3     H2       HT       0.417000       1.00800           0
     56431 TIP3     5679     TIP3     OH2      OT      -0.834000       15.9994           0
     56432 TIP3     5679     TIP3     H1       HT       0.417000       1.00800           0
     56433 TIP3     5679     TIP3     H2       HT       0.417000       1.00800           0
     56434 TIP3     5680     TIP3     OH2      OT      -0.834000       15.9994           0
     56435 TIP3     5680     TIP3     H1       HT       0.417000       1.00800           0
     56436 TIP3     5680     TIP3     H2       HT       0.417000       1.00800           0
     56437 TIP3     5681     TIP3     OH2      OT      -0.834000       15.9994           0
     56438 TIP3     5681     TIP3     H1       HT       0.417000       1.00800           0
     56439 TIP3     5681     TIP3     H2       HT       0.417000       1.00800           0
     56440 TIP3     5682     TIP3     OH2      OT      -0.834000       15.9994           0
     56441 TIP3     5682     TIP3     H1       HT       0.417000       1.00800           0
     56442 TIP3     5682     TIP3     H2       HT       0.417000       1.00800           0
     56443 TIP3     5683     TIP3     OH2      OT      -0.834000       15.9994           0
     56444 TIP3     5683     TIP3     H1       HT       0.417000       1.00800           0
     56445 TIP3     5683     TIP3     H2       HT       0.417000       1.00800           0
     56446 TIP3     5684     TIP3     OH2      OT      -0.834000       15.9994           0
     56447 TIP3     5684     TIP3     H1       HT       0.417000       1.00800           0
     56448 TIP3     5684     TIP3     H2       HT       0.417000       1.00800           0
     56449 TIP3     5685     TIP3     OH2      OT      -0.834000       15.9994           0
     56450 TIP3     5685     TIP3     H1       HT       0.417000       1.00800           0
     56451 TIP3     5685     TIP3     H2       HT       0.417000       1.00800           0
     56452 TIP3     5686     TIP3     OH2      OT      -0.834000       15.9994           0
     56453 TIP3     5686     TIP3     H1       HT       0.417000       1.00800           0
     56454 TIP3     5686     TIP3     H2       HT       0.417000       1.00800           0
     56455 TIP3     5687     TIP3     OH2      OT      -0.834000       15.9994           0
     56456 TIP3     5687     TIP3     H1       HT       0.417000       1.00800           0
     56457 TIP3     5687     TIP3     H2       HT       0.417000       1.00800           0
     56458 TIP3     5688     TIP3     OH2      OT      -0.834000       15.9994           0
     56459 TIP3     5688     TIP3     H1       HT       0.417000       1.00800           0
     56460 TIP3     5688     TIP3     H2       HT       0.417000       1.00800           0
     56461 TIP3     5689     TIP3     OH2      OT      -0.834000       15.9994           0
     56462 TIP3     5689     TIP3     H1       HT       0.417000       1.00800           0
     56463 TIP3     5689     TIP3     H2       HT       0.417000       1.00800           0
     56464 TIP3     5690     TIP3     OH2      OT      -0.834000       15.9994           0
     56465 TIP3     5690     TIP3     H1       HT       0.417000       1.00800           0
     56466 TIP3     5690     TIP3     H2       HT       0.417000       1.00800           0
     56467 TIP3     5691     TIP3     OH2      OT      -0.834000       15.9994           0
     56468 TIP3     5691     TIP3     H1       HT       0.417000       1.00800           0
     56469 TIP3     5691     TIP3     H2       HT       0.417000       1.00800           0
     56470 TIP3     5692     TIP3     OH2      OT      -0.834000       15.9994           0
     56471 TIP3     5692     TIP3     H1       HT       0.417000       1.00800           0
     56472 TIP3     5692     TIP3     H2       HT       0.417000       1.00800           0
     56473 TIP3     5693     TIP3     OH2      OT      -0.834000       15.9994           0
     56474 TIP3     5693     TIP3     H1       HT       0.417000       1.00800           0
     56475 TIP3     5693     TIP3     H2       HT       0.417000       1.00800           0
     56476 TIP3     5694     TIP3     OH2      OT      -0.834000       15.9994           0
     56477 TIP3     5694     TIP3     H1       HT       0.417000       1.00800           0
     56478 TIP3     5694     TIP3     H2       HT       0.417000       1.00800           0
     56479 TIP3     5695     TIP3     OH2      OT      -0.834000       15.9994           0
     56480 TIP3     5695     TIP3     H1       HT       0.417000       1.00800           0
     56481 TIP3     5695     TIP3     H2       HT       0.417000       1.00800           0
     56482 TIP3     5696     TIP3     OH2      OT      -0.834000       15.9994           0
     56483 TIP3     5696     TIP3     H1       HT       0.417000       1.00800           0
     56484 TIP3     5696     TIP3     H2       HT       0.417000       1.00800           0
     56485 TIP3     5697     TIP3     OH2      OT      -0.834000       15.9994           0
     56486 TIP3     5697     TIP3     H1       HT       0.417000       1.00800           0
     56487 TIP3     5697     TIP3     H2       HT       0.417000       1.00800           0
     56488 TIP3     5698     TIP3     OH2      OT      -0.834000       15.9994           0
     56489 TIP3     5698     TIP3     H1       HT       0.417000       1.00800           0
     56490 TIP3     5698     TIP3     H2       HT       0.417000       1.00800           0
     56491 TIP3     5699     TIP3     OH2      OT      -0.834000       15.9994           0
     56492 TIP3     5699     TIP3     H1       HT       0.417000       1.00800           0
     56493 TIP3     5699     TIP3     H2       HT       0.417000       1.00800           0
     56494 TIP3     5700     TIP3     OH2      OT      -0.834000       15.9994           0
     56495 TIP3     5700     TIP3     H1       HT       0.417000       1.00800           0
     56496 TIP3     5700     TIP3     H2       HT       0.417000       1.00800           0
     56497 TIP3     5701     TIP3     OH2      OT      -0.834000       15.9994           0
     56498 TIP3     5701     TIP3     H1       HT       0.417000       1.00800           0
     56499 TIP3     5701     TIP3     H2       HT       0.417000       1.00800           0
     56500 TIP3     5702     TIP3     OH2      OT      -0.834000       15.9994           0
     56501 TIP3     5702     TIP3     H1       HT       0.417000       1.00800           0
     56502 TIP3     5702     TIP3     H2       HT       0.417000       1.00800           0
     56503 TIP3     5703     TIP3     OH2      OT      -0.834000       15.9994           0
     56504 TIP3     5703     TIP3     H1       HT       0.417000       1.00800           0
     56505 TIP3     5703     TIP3     H2       HT       0.417000       1.00800           0
     56506 TIP3     5704     TIP3     OH2      OT      -0.834000       15.9994           0
     56507 TIP3     5704     TIP3     H1       HT       0.417000       1.00800           0
     56508 TIP3     5704     TIP3     H2       HT       0.417000       1.00800           0
     56509 TIP3     5705     TIP3     OH2      OT      -0.834000       15.9994           0
     56510 TIP3     5705     TIP3     H1       HT       0.417000       1.00800           0
     56511 TIP3     5705     TIP3     H2       HT       0.417000       1.00800           0
     56512 TIP3     5706     TIP3     OH2      OT      -0.834000       15.9994           0
     56513 TIP3     5706     TIP3     H1       HT       0.417000       1.00800           0
     56514 TIP3     5706     TIP3     H2       HT       0.417000       1.00800           0
     56515 TIP3     5707     TIP3     OH2      OT      -0.834000       15.9994           0
     56516 TIP3     5707     TIP3     H1       HT       0.417000       1.00800           0
     56517 TIP3     5707     TIP3     H2       HT       0.417000       1.00800           0
     56518 TIP3     5708     TIP3     OH2      OT      -0.834000       15.9994           0
     56519 TIP3     5708     TIP3     H1       HT       0.417000       1.00800           0
     56520 TIP3     5708     TIP3     H2       HT       0.417000       1.00800           0
     56521 TIP3     5709     TIP3     OH2      OT      -0.834000       15.9994           0
     56522 TIP3     5709     TIP3     H1       HT       0.417000       1.00800           0
     56523 TIP3     5709     TIP3     H2       HT       0.417000       1.00800           0
     56524 TIP3     5710     TIP3     OH2      OT      -0.834000       15.9994           0
     56525 TIP3     5710     TIP3     H1       HT       0.417000       1.00800           0
     56526 TIP3     5710     TIP3     H2       HT       0.417000       1.00800           0
     56527 TIP3     5711     TIP3     OH2      OT      -0.834000       15.9994           0
     56528 TIP3     5711     TIP3     H1       HT       0.417000       1.00800           0
     56529 TIP3     5711     TIP3     H2       HT       0.417000       1.00800           0
     56530 TIP3     5712     TIP3     OH2      OT      -0.834000       15.9994           0
     56531 TIP3     5712     TIP3     H1       HT       0.417000       1.00800           0
     56532 TIP3     5712     TIP3     H2       HT       0.417000       1.00800           0
     56533 TIP3     5713     TIP3     OH2      OT      -0.834000       15.9994           0
     56534 TIP3     5713     TIP3     H1       HT       0.417000       1.00800           0
     56535 TIP3     5713     TIP3     H2       HT       0.417000       1.00800           0
     56536 TIP3     5714     TIP3     OH2      OT      -0.834000       15.9994           0
     56537 TIP3     5714     TIP3     H1       HT       0.417000       1.00800           0
     56538 TIP3     5714     TIP3     H2       HT       0.417000       1.00800           0
     56539 TIP3     5715     TIP3     OH2      OT      -0.834000       15.9994           0
     56540 TIP3     5715     TIP3     H1       HT       0.417000       1.00800           0
     56541 TIP3     5715     TIP3     H2       HT       0.417000       1.00800           0
     56542 TIP3     5716     TIP3     OH2      OT      -0.834000       15.9994           0
     56543 TIP3     5716     TIP3     H1       HT       0.417000       1.00800           0
     56544 TIP3     5716     TIP3     H2       HT       0.417000       1.00800           0
     56545 TIP3     5717     TIP3     OH2      OT      -0.834000       15.9994           0
     56546 TIP3     5717     TIP3     H1       HT       0.417000       1.00800           0
     56547 TIP3     5717     TIP3     H2       HT       0.417000       1.00800           0
     56548 TIP3     5718     TIP3     OH2      OT      -0.834000       15.9994           0
     56549 TIP3     5718     TIP3     H1       HT       0.417000       1.00800           0
     56550 TIP3     5718     TIP3     H2       HT       0.417000       1.00800           0
     56551 TIP3     5719     TIP3     OH2      OT      -0.834000       15.9994           0
     56552 TIP3     5719     TIP3     H1       HT       0.417000       1.00800           0
     56553 TIP3     5719     TIP3     H2       HT       0.417000       1.00800           0
     56554 TIP3     5720     TIP3     OH2      OT      -0.834000       15.9994           0
     56555 TIP3     5720     TIP3     H1       HT       0.417000       1.00800           0
     56556 TIP3     5720     TIP3     H2       HT       0.417000       1.00800           0
     56557 TIP3     5721     TIP3     OH2      OT      -0.834000       15.9994           0
     56558 TIP3     5721     TIP3     H1       HT       0.417000       1.00800           0
     56559 TIP3     5721     TIP3     H2       HT       0.417000       1.00800           0
     56560 TIP3     5722     TIP3     OH2      OT      -0.834000       15.9994           0
     56561 TIP3     5722     TIP3     H1       HT       0.417000       1.00800           0
     56562 TIP3     5722     TIP3     H2       HT       0.417000       1.00800           0
     56563 TIP3     5723     TIP3     OH2      OT      -0.834000       15.9994           0
     56564 TIP3     5723     TIP3     H1       HT       0.417000       1.00800           0
     56565 TIP3     5723     TIP3     H2       HT       0.417000       1.00800           0
     56566 TIP3     5724     TIP3     OH2      OT      -0.834000       15.9994           0
     56567 TIP3     5724     TIP3     H1       HT       0.417000       1.00800           0
     56568 TIP3     5724     TIP3     H2       HT       0.417000       1.00800           0
     56569 TIP3     5725     TIP3     OH2      OT      -0.834000       15.9994           0
     56570 TIP3     5725     TIP3     H1       HT       0.417000       1.00800           0
     56571 TIP3     5725     TIP3     H2       HT       0.417000       1.00800           0
     56572 TIP3     5726     TIP3     OH2      OT      -0.834000       15.9994           0
     56573 TIP3     5726     TIP3     H1       HT       0.417000       1.00800           0
     56574 TIP3     5726     TIP3     H2       HT       0.417000       1.00800           0
     56575 TIP3     5727     TIP3     OH2      OT      -0.834000       15.9994           0
     56576 TIP3     5727     TIP3     H1       HT       0.417000       1.00800           0
     56577 TIP3     5727     TIP3     H2       HT       0.417000       1.00800           0
     56578 TIP3     5728     TIP3     OH2      OT      -0.834000       15.9994           0
     56579 TIP3     5728     TIP3     H1       HT       0.417000       1.00800           0
     56580 TIP3     5728     TIP3     H2       HT       0.417000       1.00800           0
     56581 TIP3     5729     TIP3     OH2      OT      -0.834000       15.9994           0
     56582 TIP3     5729     TIP3     H1       HT       0.417000       1.00800           0
     56583 TIP3     5729     TIP3     H2       HT       0.417000       1.00800           0
     56584 TIP3     5730     TIP3     OH2      OT      -0.834000       15.9994           0
     56585 TIP3     5730     TIP3     H1       HT       0.417000       1.00800           0
     56586 TIP3     5730     TIP3     H2       HT       0.417000       1.00800           0
     56587 TIP3     5731     TIP3     OH2      OT      -0.834000       15.9994           0
     56588 TIP3     5731     TIP3     H1       HT       0.417000       1.00800           0
     56589 TIP3     5731     TIP3     H2       HT       0.417000       1.00800           0
     56590 TIP3     5732     TIP3     OH2      OT      -0.834000       15.9994           0
     56591 TIP3     5732     TIP3     H1       HT       0.417000       1.00800           0
     56592 TIP3     5732     TIP3     H2       HT       0.417000       1.00800           0
     56593 TIP3     5733     TIP3     OH2      OT      -0.834000       15.9994           0
     56594 TIP3     5733     TIP3     H1       HT       0.417000       1.00800           0
     56595 TIP3     5733     TIP3     H2       HT       0.417000       1.00800           0
     56596 TIP3     5734     TIP3     OH2      OT      -0.834000       15.9994           0
     56597 TIP3     5734     TIP3     H1       HT       0.417000       1.00800           0
     56598 TIP3     5734     TIP3     H2       HT       0.417000       1.00800           0
     56599 TIP3     5735     TIP3     OH2      OT      -0.834000       15.9994           0
     56600 TIP3     5735     TIP3     H1       HT       0.417000       1.00800           0
     56601 TIP3     5735     TIP3     H2       HT       0.417000       1.00800           0
     56602 TIP3     5736     TIP3     OH2      OT      -0.834000       15.9994           0
     56603 TIP3     5736     TIP3     H1       HT       0.417000       1.00800           0
     56604 TIP3     5736     TIP3     H2       HT       0.417000       1.00800           0
     56605 TIP3     5737     TIP3     OH2      OT      -0.834000       15.9994           0
     56606 TIP3     5737     TIP3     H1       HT       0.417000       1.00800           0
     56607 TIP3     5737     TIP3     H2       HT       0.417000       1.00800           0
     56608 TIP3     5738     TIP3     OH2      OT      -0.834000       15.9994           0
     56609 TIP3     5738     TIP3     H1       HT       0.417000       1.00800           0
     56610 TIP3     5738     TIP3     H2       HT       0.417000       1.00800           0
     56611 TIP3     5739     TIP3     OH2      OT      -0.834000       15.9994           0
     56612 TIP3     5739     TIP3     H1       HT       0.417000       1.00800           0
     56613 TIP3     5739     TIP3     H2       HT       0.417000       1.00800           0
     56614 TIP3     5740     TIP3     OH2      OT      -0.834000       15.9994           0
     56615 TIP3     5740     TIP3     H1       HT       0.417000       1.00800           0
     56616 TIP3     5740     TIP3     H2       HT       0.417000       1.00800           0
     56617 TIP3     5741     TIP3     OH2      OT      -0.834000       15.9994           0
     56618 TIP3     5741     TIP3     H1       HT       0.417000       1.00800           0
     56619 TIP3     5741     TIP3     H2       HT       0.417000       1.00800           0
     56620 TIP3     5742     TIP3     OH2      OT      -0.834000       15.9994           0
     56621 TIP3     5742     TIP3     H1       HT       0.417000       1.00800           0
     56622 TIP3     5742     TIP3     H2       HT       0.417000       1.00800           0
     56623 TIP3     5743     TIP3     OH2      OT      -0.834000       15.9994           0
     56624 TIP3     5743     TIP3     H1       HT       0.417000       1.00800           0
     56625 TIP3     5743     TIP3     H2       HT       0.417000       1.00800           0
     56626 TIP3     5744     TIP3     OH2      OT      -0.834000       15.9994           0
     56627 TIP3     5744     TIP3     H1       HT       0.417000       1.00800           0
     56628 TIP3     5744     TIP3     H2       HT       0.417000       1.00800           0
     56629 TIP3     5745     TIP3     OH2      OT      -0.834000       15.9994           0
     56630 TIP3     5745     TIP3     H1       HT       0.417000       1.00800           0
     56631 TIP3     5745     TIP3     H2       HT       0.417000       1.00800           0
     56632 TIP3     5746     TIP3     OH2      OT      -0.834000       15.9994           0
     56633 TIP3     5746     TIP3     H1       HT       0.417000       1.00800           0
     56634 TIP3     5746     TIP3     H2       HT       0.417000       1.00800           0
     56635 TIP3     5747     TIP3     OH2      OT      -0.834000       15.9994           0
     56636 TIP3     5747     TIP3     H1       HT       0.417000       1.00800           0
     56637 TIP3     5747     TIP3     H2       HT       0.417000       1.00800           0
     56638 TIP3     5748     TIP3     OH2      OT      -0.834000       15.9994           0
     56639 TIP3     5748     TIP3     H1       HT       0.417000       1.00800           0
     56640 TIP3     5748     TIP3     H2       HT       0.417000       1.00800           0
     56641 TIP3     5749     TIP3     OH2      OT      -0.834000       15.9994           0
     56642 TIP3     5749     TIP3     H1       HT       0.417000       1.00800           0
     56643 TIP3     5749     TIP3     H2       HT       0.417000       1.00800           0
     56644 TIP3     5750     TIP3     OH2      OT      -0.834000       15.9994           0
     56645 TIP3     5750     TIP3     H1       HT       0.417000       1.00800           0
     56646 TIP3     5750     TIP3     H2       HT       0.417000       1.00800           0
     56647 TIP3     5751     TIP3     OH2      OT      -0.834000       15.9994           0
     56648 TIP3     5751     TIP3     H1       HT       0.417000       1.00800           0
     56649 TIP3     5751     TIP3     H2       HT       0.417000       1.00800           0
     56650 TIP3     5752     TIP3     OH2      OT      -0.834000       15.9994           0
     56651 TIP3     5752     TIP3     H1       HT       0.417000       1.00800           0
     56652 TIP3     5752     TIP3     H2       HT       0.417000       1.00800           0
     56653 TIP3     5753     TIP3     OH2      OT      -0.834000       15.9994           0
     56654 TIP3     5753     TIP3     H1       HT       0.417000       1.00800           0
     56655 TIP3     5753     TIP3     H2       HT       0.417000       1.00800           0
     56656 TIP3     5754     TIP3     OH2      OT      -0.834000       15.9994           0
     56657 TIP3     5754     TIP3     H1       HT       0.417000       1.00800           0
     56658 TIP3     5754     TIP3     H2       HT       0.417000       1.00800           0
     56659 TIP3     5755     TIP3     OH2      OT      -0.834000       15.9994           0
     56660 TIP3     5755     TIP3     H1       HT       0.417000       1.00800           0
     56661 TIP3     5755     TIP3     H2       HT       0.417000       1.00800           0
     56662 TIP3     5756     TIP3     OH2      OT      -0.834000       15.9994           0
     56663 TIP3     5756     TIP3     H1       HT       0.417000       1.00800           0
     56664 TIP3     5756     TIP3     H2       HT       0.417000       1.00800           0
     56665 TIP3     5757     TIP3     OH2      OT      -0.834000       15.9994           0
     56666 TIP3     5757     TIP3     H1       HT       0.417000       1.00800           0
     56667 TIP3     5757     TIP3     H2       HT       0.417000       1.00800           0
     56668 TIP3     5758     TIP3     OH2      OT      -0.834000       15.9994           0
     56669 TIP3     5758     TIP3     H1       HT       0.417000       1.00800           0
     56670 TIP3     5758     TIP3     H2       HT       0.417000       1.00800           0
     56671 TIP3     5759     TIP3     OH2      OT      -0.834000       15.9994           0
     56672 TIP3     5759     TIP3     H1       HT       0.417000       1.00800           0
     56673 TIP3     5759     TIP3     H2       HT       0.417000       1.00800           0
     56674 TIP3     5760     TIP3     OH2      OT      -0.834000       15.9994           0
     56675 TIP3     5760     TIP3     H1       HT       0.417000       1.00800           0
     56676 TIP3     5760     TIP3     H2       HT       0.417000       1.00800           0
     56677 TIP3     5761     TIP3     OH2      OT      -0.834000       15.9994           0
     56678 TIP3     5761     TIP3     H1       HT       0.417000       1.00800           0
     56679 TIP3     5761     TIP3     H2       HT       0.417000       1.00800           0
     56680 TIP3     5762     TIP3     OH2      OT      -0.834000       15.9994           0
     56681 TIP3     5762     TIP3     H1       HT       0.417000       1.00800           0
     56682 TIP3     5762     TIP3     H2       HT       0.417000       1.00800           0
     56683 TIP3     5763     TIP3     OH2      OT      -0.834000       15.9994           0
     56684 TIP3     5763     TIP3     H1       HT       0.417000       1.00800           0
     56685 TIP3     5763     TIP3     H2       HT       0.417000       1.00800           0
     56686 TIP3     5764     TIP3     OH2      OT      -0.834000       15.9994           0
     56687 TIP3     5764     TIP3     H1       HT       0.417000       1.00800           0
     56688 TIP3     5764     TIP3     H2       HT       0.417000       1.00800           0
     56689 TIP3     5765     TIP3     OH2      OT      -0.834000       15.9994           0
     56690 TIP3     5765     TIP3     H1       HT       0.417000       1.00800           0
     56691 TIP3     5765     TIP3     H2       HT       0.417000       1.00800           0
     56692 TIP3     5766     TIP3     OH2      OT      -0.834000       15.9994           0
     56693 TIP3     5766     TIP3     H1       HT       0.417000       1.00800           0
     56694 TIP3     5766     TIP3     H2       HT       0.417000       1.00800           0
     56695 TIP3     5767     TIP3     OH2      OT      -0.834000       15.9994           0
     56696 TIP3     5767     TIP3     H1       HT       0.417000       1.00800           0
     56697 TIP3     5767     TIP3     H2       HT       0.417000       1.00800           0
     56698 TIP3     5768     TIP3     OH2      OT      -0.834000       15.9994           0
     56699 TIP3     5768     TIP3     H1       HT       0.417000       1.00800           0
     56700 TIP3     5768     TIP3     H2       HT       0.417000       1.00800           0
     56701 TIP3     5769     TIP3     OH2      OT      -0.834000       15.9994           0
     56702 TIP3     5769     TIP3     H1       HT       0.417000       1.00800           0
     56703 TIP3     5769     TIP3     H2       HT       0.417000       1.00800           0
     56704 TIP3     5770     TIP3     OH2      OT      -0.834000       15.9994           0
     56705 TIP3     5770     TIP3     H1       HT       0.417000       1.00800           0
     56706 TIP3     5770     TIP3     H2       HT       0.417000       1.00800           0
     56707 TIP3     5771     TIP3     OH2      OT      -0.834000       15.9994           0
     56708 TIP3     5771     TIP3     H1       HT       0.417000       1.00800           0
     56709 TIP3     5771     TIP3     H2       HT       0.417000       1.00800           0
     56710 TIP3     5772     TIP3     OH2      OT      -0.834000       15.9994           0
     56711 TIP3     5772     TIP3     H1       HT       0.417000       1.00800           0
     56712 TIP3     5772     TIP3     H2       HT       0.417000       1.00800           0
     56713 TIP3     5773     TIP3     OH2      OT      -0.834000       15.9994           0
     56714 TIP3     5773     TIP3     H1       HT       0.417000       1.00800           0
     56715 TIP3     5773     TIP3     H2       HT       0.417000       1.00800           0
     56716 TIP3     5774     TIP3     OH2      OT      -0.834000       15.9994           0
     56717 TIP3     5774     TIP3     H1       HT       0.417000       1.00800           0
     56718 TIP3     5774     TIP3     H2       HT       0.417000       1.00800           0
     56719 TIP3     5775     TIP3     OH2      OT      -0.834000       15.9994           0
     56720 TIP3     5775     TIP3     H1       HT       0.417000       1.00800           0
     56721 TIP3     5775     TIP3     H2       HT       0.417000       1.00800           0
     56722 TIP3     5776     TIP3     OH2      OT      -0.834000       15.9994           0
     56723 TIP3     5776     TIP3     H1       HT       0.417000       1.00800           0
     56724 TIP3     5776     TIP3     H2       HT       0.417000       1.00800           0
     56725 TIP3     5777     TIP3     OH2      OT      -0.834000       15.9994           0
     56726 TIP3     5777     TIP3     H1       HT       0.417000       1.00800           0
     56727 TIP3     5777     TIP3     H2       HT       0.417000       1.00800           0
     56728 TIP3     5778     TIP3     OH2      OT      -0.834000       15.9994           0
     56729 TIP3     5778     TIP3     H1       HT       0.417000       1.00800           0
     56730 TIP3     5778     TIP3     H2       HT       0.417000       1.00800           0
     56731 TIP3     5779     TIP3     OH2      OT      -0.834000       15.9994           0
     56732 TIP3     5779     TIP3     H1       HT       0.417000       1.00800           0
     56733 TIP3     5779     TIP3     H2       HT       0.417000       1.00800           0
     56734 TIP3     5780     TIP3     OH2      OT      -0.834000       15.9994           0
     56735 TIP3     5780     TIP3     H1       HT       0.417000       1.00800           0
     56736 TIP3     5780     TIP3     H2       HT       0.417000       1.00800           0
     56737 TIP3     5781     TIP3     OH2      OT      -0.834000       15.9994           0
     56738 TIP3     5781     TIP3     H1       HT       0.417000       1.00800           0
     56739 TIP3     5781     TIP3     H2       HT       0.417000       1.00800           0
     56740 TIP3     5782     TIP3     OH2      OT      -0.834000       15.9994           0
     56741 TIP3     5782     TIP3     H1       HT       0.417000       1.00800           0
     56742 TIP3     5782     TIP3     H2       HT       0.417000       1.00800           0
     56743 TIP3     5783     TIP3     OH2      OT      -0.834000       15.9994           0
     56744 TIP3     5783     TIP3     H1       HT       0.417000       1.00800           0
     56745 TIP3     5783     TIP3     H2       HT       0.417000       1.00800           0
     56746 TIP3     5784     TIP3     OH2      OT      -0.834000       15.9994           0
     56747 TIP3     5784     TIP3     H1       HT       0.417000       1.00800           0
     56748 TIP3     5784     TIP3     H2       HT       0.417000       1.00800           0
     56749 TIP3     5785     TIP3     OH2      OT      -0.834000       15.9994           0
     56750 TIP3     5785     TIP3     H1       HT       0.417000       1.00800           0
     56751 TIP3     5785     TIP3     H2       HT       0.417000       1.00800           0
     56752 TIP3     5786     TIP3     OH2      OT      -0.834000       15.9994           0
     56753 TIP3     5786     TIP3     H1       HT       0.417000       1.00800           0
     56754 TIP3     5786     TIP3     H2       HT       0.417000       1.00800           0
     56755 TIP3     5787     TIP3     OH2      OT      -0.834000       15.9994           0
     56756 TIP3     5787     TIP3     H1       HT       0.417000       1.00800           0
     56757 TIP3     5787     TIP3     H2       HT       0.417000       1.00800           0
     56758 TIP3     5788     TIP3     OH2      OT      -0.834000       15.9994           0
     56759 TIP3     5788     TIP3     H1       HT       0.417000       1.00800           0
     56760 TIP3     5788     TIP3     H2       HT       0.417000       1.00800           0
     56761 TIP3     5789     TIP3     OH2      OT      -0.834000       15.9994           0
     56762 TIP3     5789     TIP3     H1       HT       0.417000       1.00800           0
     56763 TIP3     5789     TIP3     H2       HT       0.417000       1.00800           0
     56764 TIP3     5790     TIP3     OH2      OT      -0.834000       15.9994           0
     56765 TIP3     5790     TIP3     H1       HT       0.417000       1.00800           0
     56766 TIP3     5790     TIP3     H2       HT       0.417000       1.00800           0
     56767 TIP3     5791     TIP3     OH2      OT      -0.834000       15.9994           0
     56768 TIP3     5791     TIP3     H1       HT       0.417000       1.00800           0
     56769 TIP3     5791     TIP3     H2       HT       0.417000       1.00800           0
     56770 TIP3     5792     TIP3     OH2      OT      -0.834000       15.9994           0
     56771 TIP3     5792     TIP3     H1       HT       0.417000       1.00800           0
     56772 TIP3     5792     TIP3     H2       HT       0.417000       1.00800           0
     56773 TIP3     5793     TIP3     OH2      OT      -0.834000       15.9994           0
     56774 TIP3     5793     TIP3     H1       HT       0.417000       1.00800           0
     56775 TIP3     5793     TIP3     H2       HT       0.417000       1.00800           0
     56776 TIP3     5794     TIP3     OH2      OT      -0.834000       15.9994           0
     56777 TIP3     5794     TIP3     H1       HT       0.417000       1.00800           0
     56778 TIP3     5794     TIP3     H2       HT       0.417000       1.00800           0
     56779 TIP3     5795     TIP3     OH2      OT      -0.834000       15.9994           0
     56780 TIP3     5795     TIP3     H1       HT       0.417000       1.00800           0
     56781 TIP3     5795     TIP3     H2       HT       0.417000       1.00800           0
     56782 TIP3     5796     TIP3     OH2      OT      -0.834000       15.9994           0
     56783 TIP3     5796     TIP3     H1       HT       0.417000       1.00800           0
     56784 TIP3     5796     TIP3     H2       HT       0.417000       1.00800           0
     56785 TIP3     5797     TIP3     OH2      OT      -0.834000       15.9994           0
     56786 TIP3     5797     TIP3     H1       HT       0.417000       1.00800           0
     56787 TIP3     5797     TIP3     H2       HT       0.417000       1.00800           0
     56788 TIP3     5798     TIP3     OH2      OT      -0.834000       15.9994           0
     56789 TIP3     5798     TIP3     H1       HT       0.417000       1.00800           0
     56790 TIP3     5798     TIP3     H2       HT       0.417000       1.00800           0
     56791 TIP3     5799     TIP3     OH2      OT      -0.834000       15.9994           0
     56792 TIP3     5799     TIP3     H1       HT       0.417000       1.00800           0
     56793 TIP3     5799     TIP3     H2       HT       0.417000       1.00800           0
     56794 TIP3     5800     TIP3     OH2      OT      -0.834000       15.9994           0
     56795 TIP3     5800     TIP3     H1       HT       0.417000       1.00800           0
     56796 TIP3     5800     TIP3     H2       HT       0.417000       1.00800           0
     56797 TIP3     5801     TIP3     OH2      OT      -0.834000       15.9994           0
     56798 TIP3     5801     TIP3     H1       HT       0.417000       1.00800           0
     56799 TIP3     5801     TIP3     H2       HT       0.417000       1.00800           0
     56800 TIP3     5802     TIP3     OH2      OT      -0.834000       15.9994           0
     56801 TIP3     5802     TIP3     H1       HT       0.417000       1.00800           0
     56802 TIP3     5802     TIP3     H2       HT       0.417000       1.00800           0
     56803 TIP3     5803     TIP3     OH2      OT      -0.834000       15.9994           0
     56804 TIP3     5803     TIP3     H1       HT       0.417000       1.00800           0
     56805 TIP3     5803     TIP3     H2       HT       0.417000       1.00800           0
     56806 TIP3     5804     TIP3     OH2      OT      -0.834000       15.9994           0
     56807 TIP3     5804     TIP3     H1       HT       0.417000       1.00800           0
     56808 TIP3     5804     TIP3     H2       HT       0.417000       1.00800           0
     56809 TIP3     5805     TIP3     OH2      OT      -0.834000       15.9994           0
     56810 TIP3     5805     TIP3     H1       HT       0.417000       1.00800           0
     56811 TIP3     5805     TIP3     H2       HT       0.417000       1.00800           0
     56812 TIP3     5806     TIP3     OH2      OT      -0.834000       15.9994           0
     56813 TIP3     5806     TIP3     H1       HT       0.417000       1.00800           0
     56814 TIP3     5806     TIP3     H2       HT       0.417000       1.00800           0
     56815 TIP3     5807     TIP3     OH2      OT      -0.834000       15.9994           0
     56816 TIP3     5807     TIP3     H1       HT       0.417000       1.00800           0
     56817 TIP3     5807     TIP3     H2       HT       0.417000       1.00800           0
     56818 TIP3     5808     TIP3     OH2      OT      -0.834000       15.9994           0
     56819 TIP3     5808     TIP3     H1       HT       0.417000       1.00800           0
     56820 TIP3     5808     TIP3     H2       HT       0.417000       1.00800           0
     56821 TIP3     5809     TIP3     OH2      OT      -0.834000       15.9994           0
     56822 TIP3     5809     TIP3     H1       HT       0.417000       1.00800           0
     56823 TIP3     5809     TIP3     H2       HT       0.417000       1.00800           0
     56824 TIP3     5810     TIP3     OH2      OT      -0.834000       15.9994           0
     56825 TIP3     5810     TIP3     H1       HT       0.417000       1.00800           0
     56826 TIP3     5810     TIP3     H2       HT       0.417000       1.00800           0
     56827 TIP3     5811     TIP3     OH2      OT      -0.834000       15.9994           0
     56828 TIP3     5811     TIP3     H1       HT       0.417000       1.00800           0
     56829 TIP3     5811     TIP3     H2       HT       0.417000       1.00800           0
     56830 TIP3     5812     TIP3     OH2      OT      -0.834000       15.9994           0
     56831 TIP3     5812     TIP3     H1       HT       0.417000       1.00800           0
     56832 TIP3     5812     TIP3     H2       HT       0.417000       1.00800           0
     56833 TIP3     5813     TIP3     OH2      OT      -0.834000       15.9994           0
     56834 TIP3     5813     TIP3     H1       HT       0.417000       1.00800           0
     56835 TIP3     5813     TIP3     H2       HT       0.417000       1.00800           0
     56836 TIP3     5814     TIP3     OH2      OT      -0.834000       15.9994           0
     56837 TIP3     5814     TIP3     H1       HT       0.417000       1.00800           0
     56838 TIP3     5814     TIP3     H2       HT       0.417000       1.00800           0
     56839 TIP3     5815     TIP3     OH2      OT      -0.834000       15.9994           0
     56840 TIP3     5815     TIP3     H1       HT       0.417000       1.00800           0
     56841 TIP3     5815     TIP3     H2       HT       0.417000       1.00800           0
     56842 TIP3     5816     TIP3     OH2      OT      -0.834000       15.9994           0
     56843 TIP3     5816     TIP3     H1       HT       0.417000       1.00800           0
     56844 TIP3     5816     TIP3     H2       HT       0.417000       1.00800           0
     56845 TIP3     5817     TIP3     OH2      OT      -0.834000       15.9994           0
     56846 TIP3     5817     TIP3     H1       HT       0.417000       1.00800           0
     56847 TIP3     5817     TIP3     H2       HT       0.417000       1.00800           0
     56848 TIP3     5818     TIP3     OH2      OT      -0.834000       15.9994           0
     56849 TIP3     5818     TIP3     H1       HT       0.417000       1.00800           0
     56850 TIP3     5818     TIP3     H2       HT       0.417000       1.00800           0
     56851 TIP3     5819     TIP3     OH2      OT      -0.834000       15.9994           0
     56852 TIP3     5819     TIP3     H1       HT       0.417000       1.00800           0
     56853 TIP3     5819     TIP3     H2       HT       0.417000       1.00800           0
     56854 TIP3     5820     TIP3     OH2      OT      -0.834000       15.9994           0
     56855 TIP3     5820     TIP3     H1       HT       0.417000       1.00800           0
     56856 TIP3     5820     TIP3     H2       HT       0.417000       1.00800           0
     56857 TIP3     5821     TIP3     OH2      OT      -0.834000       15.9994           0
     56858 TIP3     5821     TIP3     H1       HT       0.417000       1.00800           0
     56859 TIP3     5821     TIP3     H2       HT       0.417000       1.00800           0
     56860 TIP3     5822     TIP3     OH2      OT      -0.834000       15.9994           0
     56861 TIP3     5822     TIP3     H1       HT       0.417000       1.00800           0
     56862 TIP3     5822     TIP3     H2       HT       0.417000       1.00800           0
     56863 TIP3     5823     TIP3     OH2      OT      -0.834000       15.9994           0
     56864 TIP3     5823     TIP3     H1       HT       0.417000       1.00800           0
     56865 TIP3     5823     TIP3     H2       HT       0.417000       1.00800           0
     56866 TIP3     5824     TIP3     OH2      OT      -0.834000       15.9994           0
     56867 TIP3     5824     TIP3     H1       HT       0.417000       1.00800           0
     56868 TIP3     5824     TIP3     H2       HT       0.417000       1.00800           0
     56869 TIP3     5825     TIP3     OH2      OT      -0.834000       15.9994           0
     56870 TIP3     5825     TIP3     H1       HT       0.417000       1.00800           0
     56871 TIP3     5825     TIP3     H2       HT       0.417000       1.00800           0
     56872 TIP3     5826     TIP3     OH2      OT      -0.834000       15.9994           0
     56873 TIP3     5826     TIP3     H1       HT       0.417000       1.00800           0
     56874 TIP3     5826     TIP3     H2       HT       0.417000       1.00800           0
     56875 TIP3     5827     TIP3     OH2      OT      -0.834000       15.9994           0
     56876 TIP3     5827     TIP3     H1       HT       0.417000       1.00800           0
     56877 TIP3     5827     TIP3     H2       HT       0.417000       1.00800           0
     56878 TIP3     5828     TIP3     OH2      OT      -0.834000       15.9994           0
     56879 TIP3     5828     TIP3     H1       HT       0.417000       1.00800           0
     56880 TIP3     5828     TIP3     H2       HT       0.417000       1.00800           0
     56881 TIP3     5829     TIP3     OH2      OT      -0.834000       15.9994           0
     56882 TIP3     5829     TIP3     H1       HT       0.417000       1.00800           0
     56883 TIP3     5829     TIP3     H2       HT       0.417000       1.00800           0
     56884 TIP3     5830     TIP3     OH2      OT      -0.834000       15.9994           0
     56885 TIP3     5830     TIP3     H1       HT       0.417000       1.00800           0
     56886 TIP3     5830     TIP3     H2       HT       0.417000       1.00800           0
     56887 TIP3     5831     TIP3     OH2      OT      -0.834000       15.9994           0
     56888 TIP3     5831     TIP3     H1       HT       0.417000       1.00800           0
     56889 TIP3     5831     TIP3     H2       HT       0.417000       1.00800           0
     56890 TIP3     5832     TIP3     OH2      OT      -0.834000       15.9994           0
     56891 TIP3     5832     TIP3     H1       HT       0.417000       1.00800           0
     56892 TIP3     5832     TIP3     H2       HT       0.417000       1.00800           0
     56893 TIP3     5833     TIP3     OH2      OT      -0.834000       15.9994           0
     56894 TIP3     5833     TIP3     H1       HT       0.417000       1.00800           0
     56895 TIP3     5833     TIP3     H2       HT       0.417000       1.00800           0
     56896 TIP3     5834     TIP3     OH2      OT      -0.834000       15.9994           0
     56897 TIP3     5834     TIP3     H1       HT       0.417000       1.00800           0
     56898 TIP3     5834     TIP3     H2       HT       0.417000       1.00800           0
     56899 TIP3     5835     TIP3     OH2      OT      -0.834000       15.9994           0
     56900 TIP3     5835     TIP3     H1       HT       0.417000       1.00800           0
     56901 TIP3     5835     TIP3     H2       HT       0.417000       1.00800           0
     56902 TIP3     5836     TIP3     OH2      OT      -0.834000       15.9994           0
     56903 TIP3     5836     TIP3     H1       HT       0.417000       1.00800           0
     56904 TIP3     5836     TIP3     H2       HT       0.417000       1.00800           0
     56905 TIP3     5837     TIP3     OH2      OT      -0.834000       15.9994           0
     56906 TIP3     5837     TIP3     H1       HT       0.417000       1.00800           0
     56907 TIP3     5837     TIP3     H2       HT       0.417000       1.00800           0
     56908 TIP3     5838     TIP3     OH2      OT      -0.834000       15.9994           0
     56909 TIP3     5838     TIP3     H1       HT       0.417000       1.00800           0
     56910 TIP3     5838     TIP3     H2       HT       0.417000       1.00800           0
     56911 TIP3     5839     TIP3     OH2      OT      -0.834000       15.9994           0
     56912 TIP3     5839     TIP3     H1       HT       0.417000       1.00800           0
     56913 TIP3     5839     TIP3     H2       HT       0.417000       1.00800           0
     56914 TIP3     5840     TIP3     OH2      OT      -0.834000       15.9994           0
     56915 TIP3     5840     TIP3     H1       HT       0.417000       1.00800           0
     56916 TIP3     5840     TIP3     H2       HT       0.417000       1.00800           0
     56917 TIP3     5841     TIP3     OH2      OT      -0.834000       15.9994           0
     56918 TIP3     5841     TIP3     H1       HT       0.417000       1.00800           0
     56919 TIP3     5841     TIP3     H2       HT       0.417000       1.00800           0
     56920 TIP3     5842     TIP3     OH2      OT      -0.834000       15.9994           0
     56921 TIP3     5842     TIP3     H1       HT       0.417000       1.00800           0
     56922 TIP3     5842     TIP3     H2       HT       0.417000       1.00800           0
     56923 TIP3     5843     TIP3     OH2      OT      -0.834000       15.9994           0
     56924 TIP3     5843     TIP3     H1       HT       0.417000       1.00800           0
     56925 TIP3     5843     TIP3     H2       HT       0.417000       1.00800           0
     56926 TIP3     5844     TIP3     OH2      OT      -0.834000       15.9994           0
     56927 TIP3     5844     TIP3     H1       HT       0.417000       1.00800           0
     56928 TIP3     5844     TIP3     H2       HT       0.417000       1.00800           0
     56929 TIP3     5845     TIP3     OH2      OT      -0.834000       15.9994           0
     56930 TIP3     5845     TIP3     H1       HT       0.417000       1.00800           0
     56931 TIP3     5845     TIP3     H2       HT       0.417000       1.00800           0
     56932 TIP3     5846     TIP3     OH2      OT      -0.834000       15.9994           0
     56933 TIP3     5846     TIP3     H1       HT       0.417000       1.00800           0
     56934 TIP3     5846     TIP3     H2       HT       0.417000       1.00800           0
     56935 TIP3     5847     TIP3     OH2      OT      -0.834000       15.9994           0
     56936 TIP3     5847     TIP3     H1       HT       0.417000       1.00800           0
     56937 TIP3     5847     TIP3     H2       HT       0.417000       1.00800           0
     56938 TIP3     5848     TIP3     OH2      OT      -0.834000       15.9994           0
     56939 TIP3     5848     TIP3     H1       HT       0.417000       1.00800           0
     56940 TIP3     5848     TIP3     H2       HT       0.417000       1.00800           0
     56941 TIP3     5849     TIP3     OH2      OT      -0.834000       15.9994           0
     56942 TIP3     5849     TIP3     H1       HT       0.417000       1.00800           0
     56943 TIP3     5849     TIP3     H2       HT       0.417000       1.00800           0
     56944 TIP3     5850     TIP3     OH2      OT      -0.834000       15.9994           0
     56945 TIP3     5850     TIP3     H1       HT       0.417000       1.00800           0
     56946 TIP3     5850     TIP3     H2       HT       0.417000       1.00800           0
     56947 TIP3     5851     TIP3     OH2      OT      -0.834000       15.9994           0
     56948 TIP3     5851     TIP3     H1       HT       0.417000       1.00800           0
     56949 TIP3     5851     TIP3     H2       HT       0.417000       1.00800           0
     56950 TIP3     5852     TIP3     OH2      OT      -0.834000       15.9994           0
     56951 TIP3     5852     TIP3     H1       HT       0.417000       1.00800           0
     56952 TIP3     5852     TIP3     H2       HT       0.417000       1.00800           0
     56953 TIP3     5853     TIP3     OH2      OT      -0.834000       15.9994           0
     56954 TIP3     5853     TIP3     H1       HT       0.417000       1.00800           0
     56955 TIP3     5853     TIP3     H2       HT       0.417000       1.00800           0
     56956 TIP3     5854     TIP3     OH2      OT      -0.834000       15.9994           0
     56957 TIP3     5854     TIP3     H1       HT       0.417000       1.00800           0
     56958 TIP3     5854     TIP3     H2       HT       0.417000       1.00800           0
     56959 TIP3     5855     TIP3     OH2      OT      -0.834000       15.9994           0
     56960 TIP3     5855     TIP3     H1       HT       0.417000       1.00800           0
     56961 TIP3     5855     TIP3     H2       HT       0.417000       1.00800           0
     56962 TIP3     5856     TIP3     OH2      OT      -0.834000       15.9994           0
     56963 TIP3     5856     TIP3     H1       HT       0.417000       1.00800           0
     56964 TIP3     5856     TIP3     H2       HT       0.417000       1.00800           0
     56965 TIP3     5857     TIP3     OH2      OT      -0.834000       15.9994           0
     56966 TIP3     5857     TIP3     H1       HT       0.417000       1.00800           0
     56967 TIP3     5857     TIP3     H2       HT       0.417000       1.00800           0
     56968 TIP3     5858     TIP3     OH2      OT      -0.834000       15.9994           0
     56969 TIP3     5858     TIP3     H1       HT       0.417000       1.00800           0
     56970 TIP3     5858     TIP3     H2       HT       0.417000       1.00800           0
     56971 TIP3     5859     TIP3     OH2      OT      -0.834000       15.9994           0
     56972 TIP3     5859     TIP3     H1       HT       0.417000       1.00800           0
     56973 TIP3     5859     TIP3     H2       HT       0.417000       1.00800           0
     56974 TIP3     5860     TIP3     OH2      OT      -0.834000       15.9994           0
     56975 TIP3     5860     TIP3     H1       HT       0.417000       1.00800           0
     56976 TIP3     5860     TIP3     H2       HT       0.417000       1.00800           0
     56977 TIP3     5861     TIP3     OH2      OT      -0.834000       15.9994           0
     56978 TIP3     5861     TIP3     H1       HT       0.417000       1.00800           0
     56979 TIP3     5861     TIP3     H2       HT       0.417000       1.00800           0
     56980 TIP3     5862     TIP3     OH2      OT      -0.834000       15.9994           0
     56981 TIP3     5862     TIP3     H1       HT       0.417000       1.00800           0
     56982 TIP3     5862     TIP3     H2       HT       0.417000       1.00800           0
     56983 TIP3     5863     TIP3     OH2      OT      -0.834000       15.9994           0
     56984 TIP3     5863     TIP3     H1       HT       0.417000       1.00800           0
     56985 TIP3     5863     TIP3     H2       HT       0.417000       1.00800           0
     56986 TIP3     5864     TIP3     OH2      OT      -0.834000       15.9994           0
     56987 TIP3     5864     TIP3     H1       HT       0.417000       1.00800           0
     56988 TIP3     5864     TIP3     H2       HT       0.417000       1.00800           0
     56989 TIP3     5865     TIP3     OH2      OT      -0.834000       15.9994           0
     56990 TIP3     5865     TIP3     H1       HT       0.417000       1.00800           0
     56991 TIP3     5865     TIP3     H2       HT       0.417000       1.00800           0
     56992 TIP3     5866     TIP3     OH2      OT      -0.834000       15.9994           0
     56993 TIP3     5866     TIP3     H1       HT       0.417000       1.00800           0
     56994 TIP3     5866     TIP3     H2       HT       0.417000       1.00800           0
     56995 TIP3     5867     TIP3     OH2      OT      -0.834000       15.9994           0
     56996 TIP3     5867     TIP3     H1       HT       0.417000       1.00800           0
     56997 TIP3     5867     TIP3     H2       HT       0.417000       1.00800           0
     56998 TIP3     5868     TIP3     OH2      OT      -0.834000       15.9994           0
     56999 TIP3     5868     TIP3     H1       HT       0.417000       1.00800           0
     57000 TIP3     5868     TIP3     H2       HT       0.417000       1.00800           0
     57001 TIP3     5869     TIP3     OH2      OT      -0.834000       15.9994           0
     57002 TIP3     5869     TIP3     H1       HT       0.417000       1.00800           0
     57003 TIP3     5869     TIP3     H2       HT       0.417000       1.00800           0
     57004 TIP3     5870     TIP3     OH2      OT      -0.834000       15.9994           0
     57005 TIP3     5870     TIP3     H1       HT       0.417000       1.00800           0
     57006 TIP3     5870     TIP3     H2       HT       0.417000       1.00800           0
     57007 TIP3     5871     TIP3     OH2      OT      -0.834000       15.9994           0
     57008 TIP3     5871     TIP3     H1       HT       0.417000       1.00800           0
     57009 TIP3     5871     TIP3     H2       HT       0.417000       1.00800           0
     57010 TIP3     5872     TIP3     OH2      OT      -0.834000       15.9994           0
     57011 TIP3     5872     TIP3     H1       HT       0.417000       1.00800           0
     57012 TIP3     5872     TIP3     H2       HT       0.417000       1.00800           0
     57013 TIP3     5873     TIP3     OH2      OT      -0.834000       15.9994           0
     57014 TIP3     5873     TIP3     H1       HT       0.417000       1.00800           0
     57015 TIP3     5873     TIP3     H2       HT       0.417000       1.00800           0
     57016 TIP3     5874     TIP3     OH2      OT      -0.834000       15.9994           0
     57017 TIP3     5874     TIP3     H1       HT       0.417000       1.00800           0
     57018 TIP3     5874     TIP3     H2       HT       0.417000       1.00800           0
     57019 TIP3     5875     TIP3     OH2      OT      -0.834000       15.9994           0
     57020 TIP3     5875     TIP3     H1       HT       0.417000       1.00800           0
     57021 TIP3     5875     TIP3     H2       HT       0.417000       1.00800           0
     57022 TIP3     5876     TIP3     OH2      OT      -0.834000       15.9994           0
     57023 TIP3     5876     TIP3     H1       HT       0.417000       1.00800           0
     57024 TIP3     5876     TIP3     H2       HT       0.417000       1.00800           0
     57025 TIP3     5877     TIP3     OH2      OT      -0.834000       15.9994           0
     57026 TIP3     5877     TIP3     H1       HT       0.417000       1.00800           0
     57027 TIP3     5877     TIP3     H2       HT       0.417000       1.00800           0
     57028 TIP3     5878     TIP3     OH2      OT      -0.834000       15.9994           0
     57029 TIP3     5878     TIP3     H1       HT       0.417000       1.00800           0
     57030 TIP3     5878     TIP3     H2       HT       0.417000       1.00800           0
     57031 TIP3     5879     TIP3     OH2      OT      -0.834000       15.9994           0
     57032 TIP3     5879     TIP3     H1       HT       0.417000       1.00800           0
     57033 TIP3     5879     TIP3     H2       HT       0.417000       1.00800           0
     57034 TIP3     5880     TIP3     OH2      OT      -0.834000       15.9994           0
     57035 TIP3     5880     TIP3     H1       HT       0.417000       1.00800           0
     57036 TIP3     5880     TIP3     H2       HT       0.417000       1.00800           0
     57037 TIP3     5881     TIP3     OH2      OT      -0.834000       15.9994           0
     57038 TIP3     5881     TIP3     H1       HT       0.417000       1.00800           0
     57039 TIP3     5881     TIP3     H2       HT       0.417000       1.00800           0
     57040 TIP3     5882     TIP3     OH2      OT      -0.834000       15.9994           0
     57041 TIP3     5882     TIP3     H1       HT       0.417000       1.00800           0
     57042 TIP3     5882     TIP3     H2       HT       0.417000       1.00800           0
     57043 TIP3     5883     TIP3     OH2      OT      -0.834000       15.9994           0
     57044 TIP3     5883     TIP3     H1       HT       0.417000       1.00800           0
     57045 TIP3     5883     TIP3     H2       HT       0.417000       1.00800           0
     57046 TIP3     5884     TIP3     OH2      OT      -0.834000       15.9994           0
     57047 TIP3     5884     TIP3     H1       HT       0.417000       1.00800           0
     57048 TIP3     5884     TIP3     H2       HT       0.417000       1.00800           0
     57049 TIP3     5885     TIP3     OH2      OT      -0.834000       15.9994           0
     57050 TIP3     5885     TIP3     H1       HT       0.417000       1.00800           0
     57051 TIP3     5885     TIP3     H2       HT       0.417000       1.00800           0
     57052 TIP3     5886     TIP3     OH2      OT      -0.834000       15.9994           0
     57053 TIP3     5886     TIP3     H1       HT       0.417000       1.00800           0
     57054 TIP3     5886     TIP3     H2       HT       0.417000       1.00800           0
     57055 TIP3     5887     TIP3     OH2      OT      -0.834000       15.9994           0
     57056 TIP3     5887     TIP3     H1       HT       0.417000       1.00800           0
     57057 TIP3     5887     TIP3     H2       HT       0.417000       1.00800           0
     57058 TIP3     5888     TIP3     OH2      OT      -0.834000       15.9994           0
     57059 TIP3     5888     TIP3     H1       HT       0.417000       1.00800           0
     57060 TIP3     5888     TIP3     H2       HT       0.417000       1.00800           0
     57061 TIP3     5889     TIP3     OH2      OT      -0.834000       15.9994           0
     57062 TIP3     5889     TIP3     H1       HT       0.417000       1.00800           0
     57063 TIP3     5889     TIP3     H2       HT       0.417000       1.00800           0
     57064 TIP3     5890     TIP3     OH2      OT      -0.834000       15.9994           0
     57065 TIP3     5890     TIP3     H1       HT       0.417000       1.00800           0
     57066 TIP3     5890     TIP3     H2       HT       0.417000       1.00800           0
     57067 TIP3     5891     TIP3     OH2      OT      -0.834000       15.9994           0
     57068 TIP3     5891     TIP3     H1       HT       0.417000       1.00800           0
     57069 TIP3     5891     TIP3     H2       HT       0.417000       1.00800           0
     57070 TIP3     5892     TIP3     OH2      OT      -0.834000       15.9994           0
     57071 TIP3     5892     TIP3     H1       HT       0.417000       1.00800           0
     57072 TIP3     5892     TIP3     H2       HT       0.417000       1.00800           0
     57073 TIP3     5893     TIP3     OH2      OT      -0.834000       15.9994           0
     57074 TIP3     5893     TIP3     H1       HT       0.417000       1.00800           0
     57075 TIP3     5893     TIP3     H2       HT       0.417000       1.00800           0
     57076 TIP3     5894     TIP3     OH2      OT      -0.834000       15.9994           0
     57077 TIP3     5894     TIP3     H1       HT       0.417000       1.00800           0
     57078 TIP3     5894     TIP3     H2       HT       0.417000       1.00800           0
     57079 TIP3     5895     TIP3     OH2      OT      -0.834000       15.9994           0
     57080 TIP3     5895     TIP3     H1       HT       0.417000       1.00800           0
     57081 TIP3     5895     TIP3     H2       HT       0.417000       1.00800           0
     57082 TIP3     5896     TIP3     OH2      OT      -0.834000       15.9994           0
     57083 TIP3     5896     TIP3     H1       HT       0.417000       1.00800           0
     57084 TIP3     5896     TIP3     H2       HT       0.417000       1.00800           0
     57085 TIP3     5897     TIP3     OH2      OT      -0.834000       15.9994           0
     57086 TIP3     5897     TIP3     H1       HT       0.417000       1.00800           0
     57087 TIP3     5897     TIP3     H2       HT       0.417000       1.00800           0
     57088 TIP3     5898     TIP3     OH2      OT      -0.834000       15.9994           0
     57089 TIP3     5898     TIP3     H1       HT       0.417000       1.00800           0
     57090 TIP3     5898     TIP3     H2       HT       0.417000       1.00800           0
     57091 TIP3     5899     TIP3     OH2      OT      -0.834000       15.9994           0
     57092 TIP3     5899     TIP3     H1       HT       0.417000       1.00800           0
     57093 TIP3     5899     TIP3     H2       HT       0.417000       1.00800           0
     57094 TIP3     5900     TIP3     OH2      OT      -0.834000       15.9994           0
     57095 TIP3     5900     TIP3     H1       HT       0.417000       1.00800           0
     57096 TIP3     5900     TIP3     H2       HT       0.417000       1.00800           0
     57097 TIP3     5901     TIP3     OH2      OT      -0.834000       15.9994           0
     57098 TIP3     5901     TIP3     H1       HT       0.417000       1.00800           0
     57099 TIP3     5901     TIP3     H2       HT       0.417000       1.00800           0
     57100 TIP3     5902     TIP3     OH2      OT      -0.834000       15.9994           0
     57101 TIP3     5902     TIP3     H1       HT       0.417000       1.00800           0
     57102 TIP3     5902     TIP3     H2       HT       0.417000       1.00800           0
     57103 TIP3     5903     TIP3     OH2      OT      -0.834000       15.9994           0
     57104 TIP3     5903     TIP3     H1       HT       0.417000       1.00800           0
     57105 TIP3     5903     TIP3     H2       HT       0.417000       1.00800           0
     57106 TIP3     5904     TIP3     OH2      OT      -0.834000       15.9994           0
     57107 TIP3     5904     TIP3     H1       HT       0.417000       1.00800           0
     57108 TIP3     5904     TIP3     H2       HT       0.417000       1.00800           0
     57109 TIP3     5905     TIP3     OH2      OT      -0.834000       15.9994           0
     57110 TIP3     5905     TIP3     H1       HT       0.417000       1.00800           0
     57111 TIP3     5905     TIP3     H2       HT       0.417000       1.00800           0
     57112 TIP3     5906     TIP3     OH2      OT      -0.834000       15.9994           0
     57113 TIP3     5906     TIP3     H1       HT       0.417000       1.00800           0
     57114 TIP3     5906     TIP3     H2       HT       0.417000       1.00800           0
     57115 TIP3     5907     TIP3     OH2      OT      -0.834000       15.9994           0
     57116 TIP3     5907     TIP3     H1       HT       0.417000       1.00800           0
     57117 TIP3     5907     TIP3     H2       HT       0.417000       1.00800           0
     57118 TIP3     5908     TIP3     OH2      OT      -0.834000       15.9994           0
     57119 TIP3     5908     TIP3     H1       HT       0.417000       1.00800           0
     57120 TIP3     5908     TIP3     H2       HT       0.417000       1.00800           0
     57121 TIP3     5909     TIP3     OH2      OT      -0.834000       15.9994           0
     57122 TIP3     5909     TIP3     H1       HT       0.417000       1.00800           0
     57123 TIP3     5909     TIP3     H2       HT       0.417000       1.00800           0
     57124 TIP3     5910     TIP3     OH2      OT      -0.834000       15.9994           0
     57125 TIP3     5910     TIP3     H1       HT       0.417000       1.00800           0
     57126 TIP3     5910     TIP3     H2       HT       0.417000       1.00800           0
     57127 TIP3     5911     TIP3     OH2      OT      -0.834000       15.9994           0
     57128 TIP3     5911     TIP3     H1       HT       0.417000       1.00800           0
     57129 TIP3     5911     TIP3     H2       HT       0.417000       1.00800           0
     57130 TIP3     5912     TIP3     OH2      OT      -0.834000       15.9994           0
     57131 TIP3     5912     TIP3     H1       HT       0.417000       1.00800           0
     57132 TIP3     5912     TIP3     H2       HT       0.417000       1.00800           0
     57133 TIP3     5913     TIP3     OH2      OT      -0.834000       15.9994           0
     57134 TIP3     5913     TIP3     H1       HT       0.417000       1.00800           0
     57135 TIP3     5913     TIP3     H2       HT       0.417000       1.00800           0
     57136 TIP3     5914     TIP3     OH2      OT      -0.834000       15.9994           0
     57137 TIP3     5914     TIP3     H1       HT       0.417000       1.00800           0
     57138 TIP3     5914     TIP3     H2       HT       0.417000       1.00800           0
     57139 TIP3     5915     TIP3     OH2      OT      -0.834000       15.9994           0
     57140 TIP3     5915     TIP3     H1       HT       0.417000       1.00800           0
     57141 TIP3     5915     TIP3     H2       HT       0.417000       1.00800           0
     57142 TIP3     5916     TIP3     OH2      OT      -0.834000       15.9994           0
     57143 TIP3     5916     TIP3     H1       HT       0.417000       1.00800           0
     57144 TIP3     5916     TIP3     H2       HT       0.417000       1.00800           0
     57145 TIP3     5917     TIP3     OH2      OT      -0.834000       15.9994           0
     57146 TIP3     5917     TIP3     H1       HT       0.417000       1.00800           0
     57147 TIP3     5917     TIP3     H2       HT       0.417000       1.00800           0
     57148 TIP3     5918     TIP3     OH2      OT      -0.834000       15.9994           0
     57149 TIP3     5918     TIP3     H1       HT       0.417000       1.00800           0
     57150 TIP3     5918     TIP3     H2       HT       0.417000       1.00800           0
     57151 TIP3     5919     TIP3     OH2      OT      -0.834000       15.9994           0
     57152 TIP3     5919     TIP3     H1       HT       0.417000       1.00800           0
     57153 TIP3     5919     TIP3     H2       HT       0.417000       1.00800           0
     57154 TIP3     5920     TIP3     OH2      OT      -0.834000       15.9994           0
     57155 TIP3     5920     TIP3     H1       HT       0.417000       1.00800           0
     57156 TIP3     5920     TIP3     H2       HT       0.417000       1.00800           0
     57157 TIP3     5921     TIP3     OH2      OT      -0.834000       15.9994           0
     57158 TIP3     5921     TIP3     H1       HT       0.417000       1.00800           0
     57159 TIP3     5921     TIP3     H2       HT       0.417000       1.00800           0
     57160 TIP3     5922     TIP3     OH2      OT      -0.834000       15.9994           0
     57161 TIP3     5922     TIP3     H1       HT       0.417000       1.00800           0
     57162 TIP3     5922     TIP3     H2       HT       0.417000       1.00800           0
     57163 TIP3     5923     TIP3     OH2      OT      -0.834000       15.9994           0
     57164 TIP3     5923     TIP3     H1       HT       0.417000       1.00800           0
     57165 TIP3     5923     TIP3     H2       HT       0.417000       1.00800           0
     57166 TIP3     5924     TIP3     OH2      OT      -0.834000       15.9994           0
     57167 TIP3     5924     TIP3     H1       HT       0.417000       1.00800           0
     57168 TIP3     5924     TIP3     H2       HT       0.417000       1.00800           0
     57169 TIP3     5925     TIP3     OH2      OT      -0.834000       15.9994           0
     57170 TIP3     5925     TIP3     H1       HT       0.417000       1.00800           0
     57171 TIP3     5925     TIP3     H2       HT       0.417000       1.00800           0
     57172 TIP3     5926     TIP3     OH2      OT      -0.834000       15.9994           0
     57173 TIP3     5926     TIP3     H1       HT       0.417000       1.00800           0
     57174 TIP3     5926     TIP3     H2       HT       0.417000       1.00800           0
     57175 TIP3     5927     TIP3     OH2      OT      -0.834000       15.9994           0
     57176 TIP3     5927     TIP3     H1       HT       0.417000       1.00800           0
     57177 TIP3     5927     TIP3     H2       HT       0.417000       1.00800           0
     57178 TIP3     5928     TIP3     OH2      OT      -0.834000       15.9994           0
     57179 TIP3     5928     TIP3     H1       HT       0.417000       1.00800           0
     57180 TIP3     5928     TIP3     H2       HT       0.417000       1.00800           0
     57181 TIP3     5929     TIP3     OH2      OT      -0.834000       15.9994           0
     57182 TIP3     5929     TIP3     H1       HT       0.417000       1.00800           0
     57183 TIP3     5929     TIP3     H2       HT       0.417000       1.00800           0
     57184 TIP3     5930     TIP3     OH2      OT      -0.834000       15.9994           0
     57185 TIP3     5930     TIP3     H1       HT       0.417000       1.00800           0
     57186 TIP3     5930     TIP3     H2       HT       0.417000       1.00800           0
     57187 TIP3     5931     TIP3     OH2      OT      -0.834000       15.9994           0
     57188 TIP3     5931     TIP3     H1       HT       0.417000       1.00800           0
     57189 TIP3     5931     TIP3     H2       HT       0.417000       1.00800           0
     57190 TIP3     5932     TIP3     OH2      OT      -0.834000       15.9994           0
     57191 TIP3     5932     TIP3     H1       HT       0.417000       1.00800           0
     57192 TIP3     5932     TIP3     H2       HT       0.417000       1.00800           0
     57193 TIP3     5933     TIP3     OH2      OT      -0.834000       15.9994           0
     57194 TIP3     5933     TIP3     H1       HT       0.417000       1.00800           0
     57195 TIP3     5933     TIP3     H2       HT       0.417000       1.00800           0
     57196 TIP3     5934     TIP3     OH2      OT      -0.834000       15.9994           0
     57197 TIP3     5934     TIP3     H1       HT       0.417000       1.00800           0
     57198 TIP3     5934     TIP3     H2       HT       0.417000       1.00800           0
     57199 TIP3     5935     TIP3     OH2      OT      -0.834000       15.9994           0
     57200 TIP3     5935     TIP3     H1       HT       0.417000       1.00800           0
     57201 TIP3     5935     TIP3     H2       HT       0.417000       1.00800           0
     57202 TIP3     5936     TIP3     OH2      OT      -0.834000       15.9994           0
     57203 TIP3     5936     TIP3     H1       HT       0.417000       1.00800           0
     57204 TIP3     5936     TIP3     H2       HT       0.417000       1.00800           0
     57205 TIP3     5937     TIP3     OH2      OT      -0.834000       15.9994           0
     57206 TIP3     5937     TIP3     H1       HT       0.417000       1.00800           0
     57207 TIP3     5937     TIP3     H2       HT       0.417000       1.00800           0
     57208 TIP3     5938     TIP3     OH2      OT      -0.834000       15.9994           0
     57209 TIP3     5938     TIP3     H1       HT       0.417000       1.00800           0
     57210 TIP3     5938     TIP3     H2       HT       0.417000       1.00800           0
     57211 TIP3     5939     TIP3     OH2      OT      -0.834000       15.9994           0
     57212 TIP3     5939     TIP3     H1       HT       0.417000       1.00800           0
     57213 TIP3     5939     TIP3     H2       HT       0.417000       1.00800           0
     57214 TIP3     5940     TIP3     OH2      OT      -0.834000       15.9994           0
     57215 TIP3     5940     TIP3     H1       HT       0.417000       1.00800           0
     57216 TIP3     5940     TIP3     H2       HT       0.417000       1.00800           0
     57217 TIP3     5941     TIP3     OH2      OT      -0.834000       15.9994           0
     57218 TIP3     5941     TIP3     H1       HT       0.417000       1.00800           0
     57219 TIP3     5941     TIP3     H2       HT       0.417000       1.00800           0
     57220 TIP3     5942     TIP3     OH2      OT      -0.834000       15.9994           0
     57221 TIP3     5942     TIP3     H1       HT       0.417000       1.00800           0
     57222 TIP3     5942     TIP3     H2       HT       0.417000       1.00800           0
     57223 TIP3     5943     TIP3     OH2      OT      -0.834000       15.9994           0
     57224 TIP3     5943     TIP3     H1       HT       0.417000       1.00800           0
     57225 TIP3     5943     TIP3     H2       HT       0.417000       1.00800           0
     57226 TIP3     5944     TIP3     OH2      OT      -0.834000       15.9994           0
     57227 TIP3     5944     TIP3     H1       HT       0.417000       1.00800           0
     57228 TIP3     5944     TIP3     H2       HT       0.417000       1.00800           0
     57229 TIP3     5945     TIP3     OH2      OT      -0.834000       15.9994           0
     57230 TIP3     5945     TIP3     H1       HT       0.417000       1.00800           0
     57231 TIP3     5945     TIP3     H2       HT       0.417000       1.00800           0
     57232 TIP3     5946     TIP3     OH2      OT      -0.834000       15.9994           0
     57233 TIP3     5946     TIP3     H1       HT       0.417000       1.00800           0
     57234 TIP3     5946     TIP3     H2       HT       0.417000       1.00800           0
     57235 TIP3     5947     TIP3     OH2      OT      -0.834000       15.9994           0
     57236 TIP3     5947     TIP3     H1       HT       0.417000       1.00800           0
     57237 TIP3     5947     TIP3     H2       HT       0.417000       1.00800           0
     57238 TIP3     5948     TIP3     OH2      OT      -0.834000       15.9994           0
     57239 TIP3     5948     TIP3     H1       HT       0.417000       1.00800           0
     57240 TIP3     5948     TIP3     H2       HT       0.417000       1.00800           0
     57241 TIP3     5949     TIP3     OH2      OT      -0.834000       15.9994           0
     57242 TIP3     5949     TIP3     H1       HT       0.417000       1.00800           0
     57243 TIP3     5949     TIP3     H2       HT       0.417000       1.00800           0
     57244 TIP3     5950     TIP3     OH2      OT      -0.834000       15.9994           0
     57245 TIP3     5950     TIP3     H1       HT       0.417000       1.00800           0
     57246 TIP3     5950     TIP3     H2       HT       0.417000       1.00800           0
     57247 TIP3     5951     TIP3     OH2      OT      -0.834000       15.9994           0
     57248 TIP3     5951     TIP3     H1       HT       0.417000       1.00800           0
     57249 TIP3     5951     TIP3     H2       HT       0.417000       1.00800           0
     57250 TIP3     5952     TIP3     OH2      OT      -0.834000       15.9994           0
     57251 TIP3     5952     TIP3     H1       HT       0.417000       1.00800           0
     57252 TIP3     5952     TIP3     H2       HT       0.417000       1.00800           0
     57253 TIP3     5953     TIP3     OH2      OT      -0.834000       15.9994           0
     57254 TIP3     5953     TIP3     H1       HT       0.417000       1.00800           0
     57255 TIP3     5953     TIP3     H2       HT       0.417000       1.00800           0
     57256 TIP3     5954     TIP3     OH2      OT      -0.834000       15.9994           0
     57257 TIP3     5954     TIP3     H1       HT       0.417000       1.00800           0
     57258 TIP3     5954     TIP3     H2       HT       0.417000       1.00800           0
     57259 TIP3     5955     TIP3     OH2      OT      -0.834000       15.9994           0
     57260 TIP3     5955     TIP3     H1       HT       0.417000       1.00800           0
     57261 TIP3     5955     TIP3     H2       HT       0.417000       1.00800           0
     57262 TIP3     5956     TIP3     OH2      OT      -0.834000       15.9994           0
     57263 TIP3     5956     TIP3     H1       HT       0.417000       1.00800           0
     57264 TIP3     5956     TIP3     H2       HT       0.417000       1.00800           0
     57265 TIP3     5957     TIP3     OH2      OT      -0.834000       15.9994           0
     57266 TIP3     5957     TIP3     H1       HT       0.417000       1.00800           0
     57267 TIP3     5957     TIP3     H2       HT       0.417000       1.00800           0
     57268 TIP3     5958     TIP3     OH2      OT      -0.834000       15.9994           0
     57269 TIP3     5958     TIP3     H1       HT       0.417000       1.00800           0
     57270 TIP3     5958     TIP3     H2       HT       0.417000       1.00800           0
     57271 TIP3     5959     TIP3     OH2      OT      -0.834000       15.9994           0
     57272 TIP3     5959     TIP3     H1       HT       0.417000       1.00800           0
     57273 TIP3     5959     TIP3     H2       HT       0.417000       1.00800           0
     57274 TIP3     5960     TIP3     OH2      OT      -0.834000       15.9994           0
     57275 TIP3     5960     TIP3     H1       HT       0.417000       1.00800           0
     57276 TIP3     5960     TIP3     H2       HT       0.417000       1.00800           0
     57277 TIP3     5961     TIP3     OH2      OT      -0.834000       15.9994           0
     57278 TIP3     5961     TIP3     H1       HT       0.417000       1.00800           0
     57279 TIP3     5961     TIP3     H2       HT       0.417000       1.00800           0
     57280 TIP3     5962     TIP3     OH2      OT      -0.834000       15.9994           0
     57281 TIP3     5962     TIP3     H1       HT       0.417000       1.00800           0
     57282 TIP3     5962     TIP3     H2       HT       0.417000       1.00800           0
     57283 TIP3     5963     TIP3     OH2      OT      -0.834000       15.9994           0
     57284 TIP3     5963     TIP3     H1       HT       0.417000       1.00800           0
     57285 TIP3     5963     TIP3     H2       HT       0.417000       1.00800           0
     57286 TIP3     5964     TIP3     OH2      OT      -0.834000       15.9994           0
     57287 TIP3     5964     TIP3     H1       HT       0.417000       1.00800           0
     57288 TIP3     5964     TIP3     H2       HT       0.417000       1.00800           0
     57289 TIP3     5965     TIP3     OH2      OT      -0.834000       15.9994           0
     57290 TIP3     5965     TIP3     H1       HT       0.417000       1.00800           0
     57291 TIP3     5965     TIP3     H2       HT       0.417000       1.00800           0
     57292 TIP3     5966     TIP3     OH2      OT      -0.834000       15.9994           0
     57293 TIP3     5966     TIP3     H1       HT       0.417000       1.00800           0
     57294 TIP3     5966     TIP3     H2       HT       0.417000       1.00800           0
     57295 TIP3     5967     TIP3     OH2      OT      -0.834000       15.9994           0
     57296 TIP3     5967     TIP3     H1       HT       0.417000       1.00800           0
     57297 TIP3     5967     TIP3     H2       HT       0.417000       1.00800           0
     57298 TIP3     5968     TIP3     OH2      OT      -0.834000       15.9994           0
     57299 TIP3     5968     TIP3     H1       HT       0.417000       1.00800           0
     57300 TIP3     5968     TIP3     H2       HT       0.417000       1.00800           0
     57301 TIP3     5969     TIP3     OH2      OT      -0.834000       15.9994           0
     57302 TIP3     5969     TIP3     H1       HT       0.417000       1.00800           0
     57303 TIP3     5969     TIP3     H2       HT       0.417000       1.00800           0
     57304 TIP3     5970     TIP3     OH2      OT      -0.834000       15.9994           0
     57305 TIP3     5970     TIP3     H1       HT       0.417000       1.00800           0
     57306 TIP3     5970     TIP3     H2       HT       0.417000       1.00800           0
     57307 TIP3     5971     TIP3     OH2      OT      -0.834000       15.9994           0
     57308 TIP3     5971     TIP3     H1       HT       0.417000       1.00800           0
     57309 TIP3     5971     TIP3     H2       HT       0.417000       1.00800           0
     57310 TIP3     5972     TIP3     OH2      OT      -0.834000       15.9994           0
     57311 TIP3     5972     TIP3     H1       HT       0.417000       1.00800           0
     57312 TIP3     5972     TIP3     H2       HT       0.417000       1.00800           0
     57313 TIP3     5973     TIP3     OH2      OT      -0.834000       15.9994           0
     57314 TIP3     5973     TIP3     H1       HT       0.417000       1.00800           0
     57315 TIP3     5973     TIP3     H2       HT       0.417000       1.00800           0
     57316 TIP3     5974     TIP3     OH2      OT      -0.834000       15.9994           0
     57317 TIP3     5974     TIP3     H1       HT       0.417000       1.00800           0
     57318 TIP3     5974     TIP3     H2       HT       0.417000       1.00800           0
     57319 TIP3     5975     TIP3     OH2      OT      -0.834000       15.9994           0
     57320 TIP3     5975     TIP3     H1       HT       0.417000       1.00800           0
     57321 TIP3     5975     TIP3     H2       HT       0.417000       1.00800           0
     57322 TIP3     5976     TIP3     OH2      OT      -0.834000       15.9994           0
     57323 TIP3     5976     TIP3     H1       HT       0.417000       1.00800           0
     57324 TIP3     5976     TIP3     H2       HT       0.417000       1.00800           0
     57325 TIP3     5977     TIP3     OH2      OT      -0.834000       15.9994           0
     57326 TIP3     5977     TIP3     H1       HT       0.417000       1.00800           0
     57327 TIP3     5977     TIP3     H2       HT       0.417000       1.00800           0
     57328 TIP3     5978     TIP3     OH2      OT      -0.834000       15.9994           0
     57329 TIP3     5978     TIP3     H1       HT       0.417000       1.00800           0
     57330 TIP3     5978     TIP3     H2       HT       0.417000       1.00800           0
     57331 TIP3     5979     TIP3     OH2      OT      -0.834000       15.9994           0
     57332 TIP3     5979     TIP3     H1       HT       0.417000       1.00800           0
     57333 TIP3     5979     TIP3     H2       HT       0.417000       1.00800           0
     57334 TIP3     5980     TIP3     OH2      OT      -0.834000       15.9994           0
     57335 TIP3     5980     TIP3     H1       HT       0.417000       1.00800           0
     57336 TIP3     5980     TIP3     H2       HT       0.417000       1.00800           0
     57337 TIP3     5981     TIP3     OH2      OT      -0.834000       15.9994           0
     57338 TIP3     5981     TIP3     H1       HT       0.417000       1.00800           0
     57339 TIP3     5981     TIP3     H2       HT       0.417000       1.00800           0
     57340 TIP3     5982     TIP3     OH2      OT      -0.834000       15.9994           0
     57341 TIP3     5982     TIP3     H1       HT       0.417000       1.00800           0
     57342 TIP3     5982     TIP3     H2       HT       0.417000       1.00800           0
     57343 TIP3     5983     TIP3     OH2      OT      -0.834000       15.9994           0
     57344 TIP3     5983     TIP3     H1       HT       0.417000       1.00800           0
     57345 TIP3     5983     TIP3     H2       HT       0.417000       1.00800           0
     57346 TIP3     5984     TIP3     OH2      OT      -0.834000       15.9994           0
     57347 TIP3     5984     TIP3     H1       HT       0.417000       1.00800           0
     57348 TIP3     5984     TIP3     H2       HT       0.417000       1.00800           0
     57349 TIP3     5985     TIP3     OH2      OT      -0.834000       15.9994           0
     57350 TIP3     5985     TIP3     H1       HT       0.417000       1.00800           0
     57351 TIP3     5985     TIP3     H2       HT       0.417000       1.00800           0
     57352 TIP3     5986     TIP3     OH2      OT      -0.834000       15.9994           0
     57353 TIP3     5986     TIP3     H1       HT       0.417000       1.00800           0
     57354 TIP3     5986     TIP3     H2       HT       0.417000       1.00800           0
     57355 TIP3     5987     TIP3     OH2      OT      -0.834000       15.9994           0
     57356 TIP3     5987     TIP3     H1       HT       0.417000       1.00800           0
     57357 TIP3     5987     TIP3     H2       HT       0.417000       1.00800           0
     57358 TIP3     5988     TIP3     OH2      OT      -0.834000       15.9994           0
     57359 TIP3     5988     TIP3     H1       HT       0.417000       1.00800           0
     57360 TIP3     5988     TIP3     H2       HT       0.417000       1.00800           0
     57361 TIP3     5989     TIP3     OH2      OT      -0.834000       15.9994           0
     57362 TIP3     5989     TIP3     H1       HT       0.417000       1.00800           0
     57363 TIP3     5989     TIP3     H2       HT       0.417000       1.00800           0
     57364 TIP3     5990     TIP3     OH2      OT      -0.834000       15.9994           0
     57365 TIP3     5990     TIP3     H1       HT       0.417000       1.00800           0
     57366 TIP3     5990     TIP3     H2       HT       0.417000       1.00800           0
     57367 TIP3     5991     TIP3     OH2      OT      -0.834000       15.9994           0
     57368 TIP3     5991     TIP3     H1       HT       0.417000       1.00800           0
     57369 TIP3     5991     TIP3     H2       HT       0.417000       1.00800           0
     57370 TIP3     5992     TIP3     OH2      OT      -0.834000       15.9994           0
     57371 TIP3     5992     TIP3     H1       HT       0.417000       1.00800           0
     57372 TIP3     5992     TIP3     H2       HT       0.417000       1.00800           0
     57373 TIP3     5993     TIP3     OH2      OT      -0.834000       15.9994           0
     57374 TIP3     5993     TIP3     H1       HT       0.417000       1.00800           0
     57375 TIP3     5993     TIP3     H2       HT       0.417000       1.00800           0
     57376 TIP3     5994     TIP3     OH2      OT      -0.834000       15.9994           0
     57377 TIP3     5994     TIP3     H1       HT       0.417000       1.00800           0
     57378 TIP3     5994     TIP3     H2       HT       0.417000       1.00800           0
     57379 TIP3     5995     TIP3     OH2      OT      -0.834000       15.9994           0
     57380 TIP3     5995     TIP3     H1       HT       0.417000       1.00800           0
     57381 TIP3     5995     TIP3     H2       HT       0.417000       1.00800           0
     57382 TIP3     5996     TIP3     OH2      OT      -0.834000       15.9994           0
     57383 TIP3     5996     TIP3     H1       HT       0.417000       1.00800           0
     57384 TIP3     5996     TIP3     H2       HT       0.417000       1.00800           0
     57385 TIP3     5997     TIP3     OH2      OT      -0.834000       15.9994           0
     57386 TIP3     5997     TIP3     H1       HT       0.417000       1.00800           0
     57387 TIP3     5997     TIP3     H2       HT       0.417000       1.00800           0
     57388 TIP3     5998     TIP3     OH2      OT      -0.834000       15.9994           0
     57389 TIP3     5998     TIP3     H1       HT       0.417000       1.00800           0
     57390 TIP3     5998     TIP3     H2       HT       0.417000       1.00800           0
     57391 TIP3     5999     TIP3     OH2      OT      -0.834000       15.9994           0
     57392 TIP3     5999     TIP3     H1       HT       0.417000       1.00800           0
     57393 TIP3     5999     TIP3     H2       HT       0.417000       1.00800           0
     57394 TIP3     6000     TIP3     OH2      OT      -0.834000       15.9994           0
     57395 TIP3     6000     TIP3     H1       HT       0.417000       1.00800           0
     57396 TIP3     6000     TIP3     H2       HT       0.417000       1.00800           0
     57397 TIP3     6001     TIP3     OH2      OT      -0.834000       15.9994           0
     57398 TIP3     6001     TIP3     H1       HT       0.417000       1.00800           0
     57399 TIP3     6001     TIP3     H2       HT       0.417000       1.00800           0
     57400 TIP3     6002     TIP3     OH2      OT      -0.834000       15.9994           0
     57401 TIP3     6002     TIP3     H1       HT       0.417000       1.00800           0
     57402 TIP3     6002     TIP3     H2       HT       0.417000       1.00800           0
     57403 TIP3     6003     TIP3     OH2      OT      -0.834000       15.9994           0
     57404 TIP3     6003     TIP3     H1       HT       0.417000       1.00800           0
     57405 TIP3     6003     TIP3     H2       HT       0.417000       1.00800           0
     57406 TIP3     6004     TIP3     OH2      OT      -0.834000       15.9994           0
     57407 TIP3     6004     TIP3     H1       HT       0.417000       1.00800           0
     57408 TIP3     6004     TIP3     H2       HT       0.417000       1.00800           0
     57409 TIP3     6005     TIP3     OH2      OT      -0.834000       15.9994           0
     57410 TIP3     6005     TIP3     H1       HT       0.417000       1.00800           0
     57411 TIP3     6005     TIP3     H2       HT       0.417000       1.00800           0
     57412 TIP3     6006     TIP3     OH2      OT      -0.834000       15.9994           0
     57413 TIP3     6006     TIP3     H1       HT       0.417000       1.00800           0
     57414 TIP3     6006     TIP3     H2       HT       0.417000       1.00800           0
     57415 TIP3     6007     TIP3     OH2      OT      -0.834000       15.9994           0
     57416 TIP3     6007     TIP3     H1       HT       0.417000       1.00800           0
     57417 TIP3     6007     TIP3     H2       HT       0.417000       1.00800           0
     57418 TIP3     6008     TIP3     OH2      OT      -0.834000       15.9994           0
     57419 TIP3     6008     TIP3     H1       HT       0.417000       1.00800           0
     57420 TIP3     6008     TIP3     H2       HT       0.417000       1.00800           0
     57421 TIP3     6009     TIP3     OH2      OT      -0.834000       15.9994           0
     57422 TIP3     6009     TIP3     H1       HT       0.417000       1.00800           0
     57423 TIP3     6009     TIP3     H2       HT       0.417000       1.00800           0
     57424 TIP3     6010     TIP3     OH2      OT      -0.834000       15.9994           0
     57425 TIP3     6010     TIP3     H1       HT       0.417000       1.00800           0
     57426 TIP3     6010     TIP3     H2       HT       0.417000       1.00800           0
     57427 TIP3     6011     TIP3     OH2      OT      -0.834000       15.9994           0
     57428 TIP3     6011     TIP3     H1       HT       0.417000       1.00800           0
     57429 TIP3     6011     TIP3     H2       HT       0.417000       1.00800           0
     57430 TIP3     6012     TIP3     OH2      OT      -0.834000       15.9994           0
     57431 TIP3     6012     TIP3     H1       HT       0.417000       1.00800           0
     57432 TIP3     6012     TIP3     H2       HT       0.417000       1.00800           0
     57433 TIP3     6013     TIP3     OH2      OT      -0.834000       15.9994           0
     57434 TIP3     6013     TIP3     H1       HT       0.417000       1.00800           0
     57435 TIP3     6013     TIP3     H2       HT       0.417000       1.00800           0
     57436 TIP3     6014     TIP3     OH2      OT      -0.834000       15.9994           0
     57437 TIP3     6014     TIP3     H1       HT       0.417000       1.00800           0
     57438 TIP3     6014     TIP3     H2       HT       0.417000       1.00800           0
     57439 TIP3     6015     TIP3     OH2      OT      -0.834000       15.9994           0
     57440 TIP3     6015     TIP3     H1       HT       0.417000       1.00800           0
     57441 TIP3     6015     TIP3     H2       HT       0.417000       1.00800           0
     57442 TIP3     6016     TIP3     OH2      OT      -0.834000       15.9994           0
     57443 TIP3     6016     TIP3     H1       HT       0.417000       1.00800           0
     57444 TIP3     6016     TIP3     H2       HT       0.417000       1.00800           0
     57445 TIP3     6017     TIP3     OH2      OT      -0.834000       15.9994           0
     57446 TIP3     6017     TIP3     H1       HT       0.417000       1.00800           0
     57447 TIP3     6017     TIP3     H2       HT       0.417000       1.00800           0
     57448 TIP3     6018     TIP3     OH2      OT      -0.834000       15.9994           0
     57449 TIP3     6018     TIP3     H1       HT       0.417000       1.00800           0
     57450 TIP3     6018     TIP3     H2       HT       0.417000       1.00800           0
     57451 TIP3     6019     TIP3     OH2      OT      -0.834000       15.9994           0
     57452 TIP3     6019     TIP3     H1       HT       0.417000       1.00800           0
     57453 TIP3     6019     TIP3     H2       HT       0.417000       1.00800           0
     57454 TIP3     6020     TIP3     OH2      OT      -0.834000       15.9994           0
     57455 TIP3     6020     TIP3     H1       HT       0.417000       1.00800           0
     57456 TIP3     6020     TIP3     H2       HT       0.417000       1.00800           0
     57457 TIP3     6021     TIP3     OH2      OT      -0.834000       15.9994           0
     57458 TIP3     6021     TIP3     H1       HT       0.417000       1.00800           0
     57459 TIP3     6021     TIP3     H2       HT       0.417000       1.00800           0
     57460 TIP3     6022     TIP3     OH2      OT      -0.834000       15.9994           0
     57461 TIP3     6022     TIP3     H1       HT       0.417000       1.00800           0
     57462 TIP3     6022     TIP3     H2       HT       0.417000       1.00800           0
     57463 TIP3     6023     TIP3     OH2      OT      -0.834000       15.9994           0
     57464 TIP3     6023     TIP3     H1       HT       0.417000       1.00800           0
     57465 TIP3     6023     TIP3     H2       HT       0.417000       1.00800           0
     57466 TIP3     6024     TIP3     OH2      OT      -0.834000       15.9994           0
     57467 TIP3     6024     TIP3     H1       HT       0.417000       1.00800           0
     57468 TIP3     6024     TIP3     H2       HT       0.417000       1.00800           0
     57469 TIP3     6025     TIP3     OH2      OT      -0.834000       15.9994           0
     57470 TIP3     6025     TIP3     H1       HT       0.417000       1.00800           0
     57471 TIP3     6025     TIP3     H2       HT       0.417000       1.00800           0
     57472 TIP3     6026     TIP3     OH2      OT      -0.834000       15.9994           0
     57473 TIP3     6026     TIP3     H1       HT       0.417000       1.00800           0
     57474 TIP3     6026     TIP3     H2       HT       0.417000       1.00800           0
     57475 TIP3     6027     TIP3     OH2      OT      -0.834000       15.9994           0
     57476 TIP3     6027     TIP3     H1       HT       0.417000       1.00800           0
     57477 TIP3     6027     TIP3     H2       HT       0.417000       1.00800           0
     57478 TIP3     6028     TIP3     OH2      OT      -0.834000       15.9994           0
     57479 TIP3     6028     TIP3     H1       HT       0.417000       1.00800           0
     57480 TIP3     6028     TIP3     H2       HT       0.417000       1.00800           0
     57481 TIP3     6029     TIP3     OH2      OT      -0.834000       15.9994           0
     57482 TIP3     6029     TIP3     H1       HT       0.417000       1.00800           0
     57483 TIP3     6029     TIP3     H2       HT       0.417000       1.00800           0
     57484 TIP3     6030     TIP3     OH2      OT      -0.834000       15.9994           0
     57485 TIP3     6030     TIP3     H1       HT       0.417000       1.00800           0
     57486 TIP3     6030     TIP3     H2       HT       0.417000       1.00800           0
     57487 TIP3     6031     TIP3     OH2      OT      -0.834000       15.9994           0
     57488 TIP3     6031     TIP3     H1       HT       0.417000       1.00800           0
     57489 TIP3     6031     TIP3     H2       HT       0.417000       1.00800           0
     57490 TIP3     6032     TIP3     OH2      OT      -0.834000       15.9994           0
     57491 TIP3     6032     TIP3     H1       HT       0.417000       1.00800           0
     57492 TIP3     6032     TIP3     H2       HT       0.417000       1.00800           0
     57493 TIP3     6033     TIP3     OH2      OT      -0.834000       15.9994           0
     57494 TIP3     6033     TIP3     H1       HT       0.417000       1.00800           0
     57495 TIP3     6033     TIP3     H2       HT       0.417000       1.00800           0
     57496 TIP3     6034     TIP3     OH2      OT      -0.834000       15.9994           0
     57497 TIP3     6034     TIP3     H1       HT       0.417000       1.00800           0
     57498 TIP3     6034     TIP3     H2       HT       0.417000       1.00800           0
     57499 TIP3     6035     TIP3     OH2      OT      -0.834000       15.9994           0
     57500 TIP3     6035     TIP3     H1       HT       0.417000       1.00800           0
     57501 TIP3     6035     TIP3     H2       HT       0.417000       1.00800           0
     57502 TIP3     6036     TIP3     OH2      OT      -0.834000       15.9994           0
     57503 TIP3     6036     TIP3     H1       HT       0.417000       1.00800           0
     57504 TIP3     6036     TIP3     H2       HT       0.417000       1.00800           0
     57505 TIP3     6037     TIP3     OH2      OT      -0.834000       15.9994           0
     57506 TIP3     6037     TIP3     H1       HT       0.417000       1.00800           0
     57507 TIP3     6037     TIP3     H2       HT       0.417000       1.00800           0
     57508 TIP3     6038     TIP3     OH2      OT      -0.834000       15.9994           0
     57509 TIP3     6038     TIP3     H1       HT       0.417000       1.00800           0
     57510 TIP3     6038     TIP3     H2       HT       0.417000       1.00800           0
     57511 TIP3     6039     TIP3     OH2      OT      -0.834000       15.9994           0
     57512 TIP3     6039     TIP3     H1       HT       0.417000       1.00800           0
     57513 TIP3     6039     TIP3     H2       HT       0.417000       1.00800           0
     57514 TIP3     6040     TIP3     OH2      OT      -0.834000       15.9994           0
     57515 TIP3     6040     TIP3     H1       HT       0.417000       1.00800           0
     57516 TIP3     6040     TIP3     H2       HT       0.417000       1.00800           0
     57517 TIP3     6041     TIP3     OH2      OT      -0.834000       15.9994           0
     57518 TIP3     6041     TIP3     H1       HT       0.417000       1.00800           0
     57519 TIP3     6041     TIP3     H2       HT       0.417000       1.00800           0
     57520 TIP3     6042     TIP3     OH2      OT      -0.834000       15.9994           0
     57521 TIP3     6042     TIP3     H1       HT       0.417000       1.00800           0
     57522 TIP3     6042     TIP3     H2       HT       0.417000       1.00800           0
     57523 TIP3     6043     TIP3     OH2      OT      -0.834000       15.9994           0
     57524 TIP3     6043     TIP3     H1       HT       0.417000       1.00800           0
     57525 TIP3     6043     TIP3     H2       HT       0.417000       1.00800           0
     57526 TIP3     6044     TIP3     OH2      OT      -0.834000       15.9994           0
     57527 TIP3     6044     TIP3     H1       HT       0.417000       1.00800           0
     57528 TIP3     6044     TIP3     H2       HT       0.417000       1.00800           0
     57529 TIP3     6045     TIP3     OH2      OT      -0.834000       15.9994           0
     57530 TIP3     6045     TIP3     H1       HT       0.417000       1.00800           0
     57531 TIP3     6045     TIP3     H2       HT       0.417000       1.00800           0
     57532 TIP3     6046     TIP3     OH2      OT      -0.834000       15.9994           0
     57533 TIP3     6046     TIP3     H1       HT       0.417000       1.00800           0
     57534 TIP3     6046     TIP3     H2       HT       0.417000       1.00800           0
     57535 TIP3     6047     TIP3     OH2      OT      -0.834000       15.9994           0
     57536 TIP3     6047     TIP3     H1       HT       0.417000       1.00800           0
     57537 TIP3     6047     TIP3     H2       HT       0.417000       1.00800           0
     57538 TIP3     6048     TIP3     OH2      OT      -0.834000       15.9994           0
     57539 TIP3     6048     TIP3     H1       HT       0.417000       1.00800           0
     57540 TIP3     6048     TIP3     H2       HT       0.417000       1.00800           0
     57541 TIP3     6049     TIP3     OH2      OT      -0.834000       15.9994           0
     57542 TIP3     6049     TIP3     H1       HT       0.417000       1.00800           0
     57543 TIP3     6049     TIP3     H2       HT       0.417000       1.00800           0
     57544 TIP3     6050     TIP3     OH2      OT      -0.834000       15.9994           0
     57545 TIP3     6050     TIP3     H1       HT       0.417000       1.00800           0
     57546 TIP3     6050     TIP3     H2       HT       0.417000       1.00800           0
     57547 TIP3     6051     TIP3     OH2      OT      -0.834000       15.9994           0
     57548 TIP3     6051     TIP3     H1       HT       0.417000       1.00800           0
     57549 TIP3     6051     TIP3     H2       HT       0.417000       1.00800           0
     57550 TIP3     6052     TIP3     OH2      OT      -0.834000       15.9994           0
     57551 TIP3     6052     TIP3     H1       HT       0.417000       1.00800           0
     57552 TIP3     6052     TIP3     H2       HT       0.417000       1.00800           0
     57553 TIP3     6053     TIP3     OH2      OT      -0.834000       15.9994           0
     57554 TIP3     6053     TIP3     H1       HT       0.417000       1.00800           0
     57555 TIP3     6053     TIP3     H2       HT       0.417000       1.00800           0
     57556 TIP3     6054     TIP3     OH2      OT      -0.834000       15.9994           0
     57557 TIP3     6054     TIP3     H1       HT       0.417000       1.00800           0
     57558 TIP3     6054     TIP3     H2       HT       0.417000       1.00800           0
     57559 TIP3     6055     TIP3     OH2      OT      -0.834000       15.9994           0
     57560 TIP3     6055     TIP3     H1       HT       0.417000       1.00800           0
     57561 TIP3     6055     TIP3     H2       HT       0.417000       1.00800           0
     57562 TIP3     6056     TIP3     OH2      OT      -0.834000       15.9994           0
     57563 TIP3     6056     TIP3     H1       HT       0.417000       1.00800           0
     57564 TIP3     6056     TIP3     H2       HT       0.417000       1.00800           0
     57565 TIP3     6057     TIP3     OH2      OT      -0.834000       15.9994           0
     57566 TIP3     6057     TIP3     H1       HT       0.417000       1.00800           0
     57567 TIP3     6057     TIP3     H2       HT       0.417000       1.00800           0
     57568 TIP3     6058     TIP3     OH2      OT      -0.834000       15.9994           0
     57569 TIP3     6058     TIP3     H1       HT       0.417000       1.00800           0
     57570 TIP3     6058     TIP3     H2       HT       0.417000       1.00800           0
     57571 TIP3     6059     TIP3     OH2      OT      -0.834000       15.9994           0
     57572 TIP3     6059     TIP3     H1       HT       0.417000       1.00800           0
     57573 TIP3     6059     TIP3     H2       HT       0.417000       1.00800           0
     57574 TIP3     6060     TIP3     OH2      OT      -0.834000       15.9994           0
     57575 TIP3     6060     TIP3     H1       HT       0.417000       1.00800           0
     57576 TIP3     6060     TIP3     H2       HT       0.417000       1.00800           0
     57577 TIP3     6061     TIP3     OH2      OT      -0.834000       15.9994           0
     57578 TIP3     6061     TIP3     H1       HT       0.417000       1.00800           0
     57579 TIP3     6061     TIP3     H2       HT       0.417000       1.00800           0
     57580 TIP3     6062     TIP3     OH2      OT      -0.834000       15.9994           0
     57581 TIP3     6062     TIP3     H1       HT       0.417000       1.00800           0
     57582 TIP3     6062     TIP3     H2       HT       0.417000       1.00800           0
     57583 TIP3     6063     TIP3     OH2      OT      -0.834000       15.9994           0
     57584 TIP3     6063     TIP3     H1       HT       0.417000       1.00800           0
     57585 TIP3     6063     TIP3     H2       HT       0.417000       1.00800           0
     57586 TIP3     6064     TIP3     OH2      OT      -0.834000       15.9994           0
     57587 TIP3     6064     TIP3     H1       HT       0.417000       1.00800           0
     57588 TIP3     6064     TIP3     H2       HT       0.417000       1.00800           0
     57589 TIP3     6065     TIP3     OH2      OT      -0.834000       15.9994           0
     57590 TIP3     6065     TIP3     H1       HT       0.417000       1.00800           0
     57591 TIP3     6065     TIP3     H2       HT       0.417000       1.00800           0
     57592 TIP3     6066     TIP3     OH2      OT      -0.834000       15.9994           0
     57593 TIP3     6066     TIP3     H1       HT       0.417000       1.00800           0
     57594 TIP3     6066     TIP3     H2       HT       0.417000       1.00800           0
     57595 TIP3     6067     TIP3     OH2      OT      -0.834000       15.9994           0
     57596 TIP3     6067     TIP3     H1       HT       0.417000       1.00800           0
     57597 TIP3     6067     TIP3     H2       HT       0.417000       1.00800           0
     57598 TIP3     6068     TIP3     OH2      OT      -0.834000       15.9994           0
     57599 TIP3     6068     TIP3     H1       HT       0.417000       1.00800           0
     57600 TIP3     6068     TIP3     H2       HT       0.417000       1.00800           0
     57601 TIP3     6069     TIP3     OH2      OT      -0.834000       15.9994           0
     57602 TIP3     6069     TIP3     H1       HT       0.417000       1.00800           0
     57603 TIP3     6069     TIP3     H2       HT       0.417000       1.00800           0
     57604 TIP3     6070     TIP3     OH2      OT      -0.834000       15.9994           0
     57605 TIP3     6070     TIP3     H1       HT       0.417000       1.00800           0
     57606 TIP3     6070     TIP3     H2       HT       0.417000       1.00800           0
     57607 TIP3     6071     TIP3     OH2      OT      -0.834000       15.9994           0
     57608 TIP3     6071     TIP3     H1       HT       0.417000       1.00800           0
     57609 TIP3     6071     TIP3     H2       HT       0.417000       1.00800           0
     57610 TIP3     6072     TIP3     OH2      OT      -0.834000       15.9994           0
     57611 TIP3     6072     TIP3     H1       HT       0.417000       1.00800           0
     57612 TIP3     6072     TIP3     H2       HT       0.417000       1.00800           0
     57613 TIP3     6073     TIP3     OH2      OT      -0.834000       15.9994           0
     57614 TIP3     6073     TIP3     H1       HT       0.417000       1.00800           0
     57615 TIP3     6073     TIP3     H2       HT       0.417000       1.00800           0
     57616 TIP3     6074     TIP3     OH2      OT      -0.834000       15.9994           0
     57617 TIP3     6074     TIP3     H1       HT       0.417000       1.00800           0
     57618 TIP3     6074     TIP3     H2       HT       0.417000       1.00800           0
     57619 TIP3     6075     TIP3     OH2      OT      -0.834000       15.9994           0
     57620 TIP3     6075     TIP3     H1       HT       0.417000       1.00800           0
     57621 TIP3     6075     TIP3     H2       HT       0.417000       1.00800           0
     57622 TIP3     6076     TIP3     OH2      OT      -0.834000       15.9994           0
     57623 TIP3     6076     TIP3     H1       HT       0.417000       1.00800           0
     57624 TIP3     6076     TIP3     H2       HT       0.417000       1.00800           0
     57625 TIP3     6077     TIP3     OH2      OT      -0.834000       15.9994           0
     57626 TIP3     6077     TIP3     H1       HT       0.417000       1.00800           0
     57627 TIP3     6077     TIP3     H2       HT       0.417000       1.00800           0
     57628 TIP3     6078     TIP3     OH2      OT      -0.834000       15.9994           0
     57629 TIP3     6078     TIP3     H1       HT       0.417000       1.00800           0
     57630 TIP3     6078     TIP3     H2       HT       0.417000       1.00800           0
     57631 TIP3     6079     TIP3     OH2      OT      -0.834000       15.9994           0
     57632 TIP3     6079     TIP3     H1       HT       0.417000       1.00800           0
     57633 TIP3     6079     TIP3     H2       HT       0.417000       1.00800           0
     57634 TIP3     6080     TIP3     OH2      OT      -0.834000       15.9994           0
     57635 TIP3     6080     TIP3     H1       HT       0.417000       1.00800           0
     57636 TIP3     6080     TIP3     H2       HT       0.417000       1.00800           0
     57637 TIP3     6081     TIP3     OH2      OT      -0.834000       15.9994           0
     57638 TIP3     6081     TIP3     H1       HT       0.417000       1.00800           0
     57639 TIP3     6081     TIP3     H2       HT       0.417000       1.00800           0
     57640 TIP3     6082     TIP3     OH2      OT      -0.834000       15.9994           0
     57641 TIP3     6082     TIP3     H1       HT       0.417000       1.00800           0
     57642 TIP3     6082     TIP3     H2       HT       0.417000       1.00800           0
     57643 TIP3     6083     TIP3     OH2      OT      -0.834000       15.9994           0
     57644 TIP3     6083     TIP3     H1       HT       0.417000       1.00800           0
     57645 TIP3     6083     TIP3     H2       HT       0.417000       1.00800           0
     57646 TIP3     6084     TIP3     OH2      OT      -0.834000       15.9994           0
     57647 TIP3     6084     TIP3     H1       HT       0.417000       1.00800           0
     57648 TIP3     6084     TIP3     H2       HT       0.417000       1.00800           0
     57649 TIP3     6085     TIP3     OH2      OT      -0.834000       15.9994           0
     57650 TIP3     6085     TIP3     H1       HT       0.417000       1.00800           0
     57651 TIP3     6085     TIP3     H2       HT       0.417000       1.00800           0
     57652 TIP3     6086     TIP3     OH2      OT      -0.834000       15.9994           0
     57653 TIP3     6086     TIP3     H1       HT       0.417000       1.00800           0
     57654 TIP3     6086     TIP3     H2       HT       0.417000       1.00800           0
     57655 TIP3     6087     TIP3     OH2      OT      -0.834000       15.9994           0
     57656 TIP3     6087     TIP3     H1       HT       0.417000       1.00800           0
     57657 TIP3     6087     TIP3     H2       HT       0.417000       1.00800           0
     57658 TIP3     6088     TIP3     OH2      OT      -0.834000       15.9994           0
     57659 TIP3     6088     TIP3     H1       HT       0.417000       1.00800           0
     57660 TIP3     6088     TIP3     H2       HT       0.417000       1.00800           0
     57661 TIP3     6089     TIP3     OH2      OT      -0.834000       15.9994           0
     57662 TIP3     6089     TIP3     H1       HT       0.417000       1.00800           0
     57663 TIP3     6089     TIP3     H2       HT       0.417000       1.00800           0
     57664 TIP3     6090     TIP3     OH2      OT      -0.834000       15.9994           0
     57665 TIP3     6090     TIP3     H1       HT       0.417000       1.00800           0
     57666 TIP3     6090     TIP3     H2       HT       0.417000       1.00800           0
     57667 TIP3     6091     TIP3     OH2      OT      -0.834000       15.9994           0
     57668 TIP3     6091     TIP3     H1       HT       0.417000       1.00800           0
     57669 TIP3     6091     TIP3     H2       HT       0.417000       1.00800           0
     57670 TIP3     6092     TIP3     OH2      OT      -0.834000       15.9994           0
     57671 TIP3     6092     TIP3     H1       HT       0.417000       1.00800           0
     57672 TIP3     6092     TIP3     H2       HT       0.417000       1.00800           0
     57673 TIP3     6093     TIP3     OH2      OT      -0.834000       15.9994           0
     57674 TIP3     6093     TIP3     H1       HT       0.417000       1.00800           0
     57675 TIP3     6093     TIP3     H2       HT       0.417000       1.00800           0
     57676 TIP3     6094     TIP3     OH2      OT      -0.834000       15.9994           0
     57677 TIP3     6094     TIP3     H1       HT       0.417000       1.00800           0
     57678 TIP3     6094     TIP3     H2       HT       0.417000       1.00800           0
     57679 TIP3     6095     TIP3     OH2      OT      -0.834000       15.9994           0
     57680 TIP3     6095     TIP3     H1       HT       0.417000       1.00800           0
     57681 TIP3     6095     TIP3     H2       HT       0.417000       1.00800           0
     57682 TIP3     6096     TIP3     OH2      OT      -0.834000       15.9994           0
     57683 TIP3     6096     TIP3     H1       HT       0.417000       1.00800           0
     57684 TIP3     6096     TIP3     H2       HT       0.417000       1.00800           0
     57685 TIP3     6097     TIP3     OH2      OT      -0.834000       15.9994           0
     57686 TIP3     6097     TIP3     H1       HT       0.417000       1.00800           0
     57687 TIP3     6097     TIP3     H2       HT       0.417000       1.00800           0
     57688 TIP3     6098     TIP3     OH2      OT      -0.834000       15.9994           0
     57689 TIP3     6098     TIP3     H1       HT       0.417000       1.00800           0
     57690 TIP3     6098     TIP3     H2       HT       0.417000       1.00800           0
     57691 TIP3     6099     TIP3     OH2      OT      -0.834000       15.9994           0
     57692 TIP3     6099     TIP3     H1       HT       0.417000       1.00800           0
     57693 TIP3     6099     TIP3     H2       HT       0.417000       1.00800           0
     57694 TIP3     6100     TIP3     OH2      OT      -0.834000       15.9994           0
     57695 TIP3     6100     TIP3     H1       HT       0.417000       1.00800           0
     57696 TIP3     6100     TIP3     H2       HT       0.417000       1.00800           0
     57697 TIP3     6101     TIP3     OH2      OT      -0.834000       15.9994           0
     57698 TIP3     6101     TIP3     H1       HT       0.417000       1.00800           0
     57699 TIP3     6101     TIP3     H2       HT       0.417000       1.00800           0
     57700 TIP3     6102     TIP3     OH2      OT      -0.834000       15.9994           0
     57701 TIP3     6102     TIP3     H1       HT       0.417000       1.00800           0
     57702 TIP3     6102     TIP3     H2       HT       0.417000       1.00800           0
     57703 TIP3     6103     TIP3     OH2      OT      -0.834000       15.9994           0
     57704 TIP3     6103     TIP3     H1       HT       0.417000       1.00800           0
     57705 TIP3     6103     TIP3     H2       HT       0.417000       1.00800           0
     57706 TIP3     6104     TIP3     OH2      OT      -0.834000       15.9994           0
     57707 TIP3     6104     TIP3     H1       HT       0.417000       1.00800           0
     57708 TIP3     6104     TIP3     H2       HT       0.417000       1.00800           0
     57709 TIP3     6105     TIP3     OH2      OT      -0.834000       15.9994           0
     57710 TIP3     6105     TIP3     H1       HT       0.417000       1.00800           0
     57711 TIP3     6105     TIP3     H2       HT       0.417000       1.00800           0
     57712 TIP3     6106     TIP3     OH2      OT      -0.834000       15.9994           0
     57713 TIP3     6106     TIP3     H1       HT       0.417000       1.00800           0
     57714 TIP3     6106     TIP3     H2       HT       0.417000       1.00800           0
     57715 TIP3     6107     TIP3     OH2      OT      -0.834000       15.9994           0
     57716 TIP3     6107     TIP3     H1       HT       0.417000       1.00800           0
     57717 TIP3     6107     TIP3     H2       HT       0.417000       1.00800           0
     57718 TIP3     6108     TIP3     OH2      OT      -0.834000       15.9994           0
     57719 TIP3     6108     TIP3     H1       HT       0.417000       1.00800           0
     57720 TIP3     6108     TIP3     H2       HT       0.417000       1.00800           0
     57721 TIP3     6109     TIP3     OH2      OT      -0.834000       15.9994           0
     57722 TIP3     6109     TIP3     H1       HT       0.417000       1.00800           0
     57723 TIP3     6109     TIP3     H2       HT       0.417000       1.00800           0
     57724 TIP3     6110     TIP3     OH2      OT      -0.834000       15.9994           0
     57725 TIP3     6110     TIP3     H1       HT       0.417000       1.00800           0
     57726 TIP3     6110     TIP3     H2       HT       0.417000       1.00800           0
     57727 TIP3     6111     TIP3     OH2      OT      -0.834000       15.9994           0
     57728 TIP3     6111     TIP3     H1       HT       0.417000       1.00800           0
     57729 TIP3     6111     TIP3     H2       HT       0.417000       1.00800           0
     57730 TIP3     6112     TIP3     OH2      OT      -0.834000       15.9994           0
     57731 TIP3     6112     TIP3     H1       HT       0.417000       1.00800           0
     57732 TIP3     6112     TIP3     H2       HT       0.417000       1.00800           0
     57733 TIP3     6113     TIP3     OH2      OT      -0.834000       15.9994           0
     57734 TIP3     6113     TIP3     H1       HT       0.417000       1.00800           0
     57735 TIP3     6113     TIP3     H2       HT       0.417000       1.00800           0
     57736 TIP3     6114     TIP3     OH2      OT      -0.834000       15.9994           0
     57737 TIP3     6114     TIP3     H1       HT       0.417000       1.00800           0
     57738 TIP3     6114     TIP3     H2       HT       0.417000       1.00800           0
     57739 TIP3     6115     TIP3     OH2      OT      -0.834000       15.9994           0
     57740 TIP3     6115     TIP3     H1       HT       0.417000       1.00800           0
     57741 TIP3     6115     TIP3     H2       HT       0.417000       1.00800           0
     57742 TIP3     6116     TIP3     OH2      OT      -0.834000       15.9994           0
     57743 TIP3     6116     TIP3     H1       HT       0.417000       1.00800           0
     57744 TIP3     6116     TIP3     H2       HT       0.417000       1.00800           0
     57745 TIP3     6117     TIP3     OH2      OT      -0.834000       15.9994           0
     57746 TIP3     6117     TIP3     H1       HT       0.417000       1.00800           0
     57747 TIP3     6117     TIP3     H2       HT       0.417000       1.00800           0
     57748 TIP3     6118     TIP3     OH2      OT      -0.834000       15.9994           0
     57749 TIP3     6118     TIP3     H1       HT       0.417000       1.00800           0
     57750 TIP3     6118     TIP3     H2       HT       0.417000       1.00800           0
     57751 TIP3     6119     TIP3     OH2      OT      -0.834000       15.9994           0
     57752 TIP3     6119     TIP3     H1       HT       0.417000       1.00800           0
     57753 TIP3     6119     TIP3     H2       HT       0.417000       1.00800           0
     57754 TIP3     6120     TIP3     OH2      OT      -0.834000       15.9994           0
     57755 TIP3     6120     TIP3     H1       HT       0.417000       1.00800           0
     57756 TIP3     6120     TIP3     H2       HT       0.417000       1.00800           0
     57757 TIP3     6121     TIP3     OH2      OT      -0.834000       15.9994           0
     57758 TIP3     6121     TIP3     H1       HT       0.417000       1.00800           0
     57759 TIP3     6121     TIP3     H2       HT       0.417000       1.00800           0
     57760 TIP3     6122     TIP3     OH2      OT      -0.834000       15.9994           0
     57761 TIP3     6122     TIP3     H1       HT       0.417000       1.00800           0
     57762 TIP3     6122     TIP3     H2       HT       0.417000       1.00800           0
     57763 TIP3     6123     TIP3     OH2      OT      -0.834000       15.9994           0
     57764 TIP3     6123     TIP3     H1       HT       0.417000       1.00800           0
     57765 TIP3     6123     TIP3     H2       HT       0.417000       1.00800           0
     57766 TIP3     6124     TIP3     OH2      OT      -0.834000       15.9994           0
     57767 TIP3     6124     TIP3     H1       HT       0.417000       1.00800           0
     57768 TIP3     6124     TIP3     H2       HT       0.417000       1.00800           0
     57769 TIP3     6125     TIP3     OH2      OT      -0.834000       15.9994           0
     57770 TIP3     6125     TIP3     H1       HT       0.417000       1.00800           0
     57771 TIP3     6125     TIP3     H2       HT       0.417000       1.00800           0
     57772 TIP3     6126     TIP3     OH2      OT      -0.834000       15.9994           0
     57773 TIP3     6126     TIP3     H1       HT       0.417000       1.00800           0
     57774 TIP3     6126     TIP3     H2       HT       0.417000       1.00800           0
     57775 TIP3     6127     TIP3     OH2      OT      -0.834000       15.9994           0
     57776 TIP3     6127     TIP3     H1       HT       0.417000       1.00800           0
     57777 TIP3     6127     TIP3     H2       HT       0.417000       1.00800           0
     57778 TIP3     6128     TIP3     OH2      OT      -0.834000       15.9994           0
     57779 TIP3     6128     TIP3     H1       HT       0.417000       1.00800           0
     57780 TIP3     6128     TIP3     H2       HT       0.417000       1.00800           0
     57781 TIP3     6129     TIP3     OH2      OT      -0.834000       15.9994           0
     57782 TIP3     6129     TIP3     H1       HT       0.417000       1.00800           0
     57783 TIP3     6129     TIP3     H2       HT       0.417000       1.00800           0
     57784 TIP3     6130     TIP3     OH2      OT      -0.834000       15.9994           0
     57785 TIP3     6130     TIP3     H1       HT       0.417000       1.00800           0
     57786 TIP3     6130     TIP3     H2       HT       0.417000       1.00800           0
     57787 TIP3     6131     TIP3     OH2      OT      -0.834000       15.9994           0
     57788 TIP3     6131     TIP3     H1       HT       0.417000       1.00800           0
     57789 TIP3     6131     TIP3     H2       HT       0.417000       1.00800           0
     57790 TIP3     6132     TIP3     OH2      OT      -0.834000       15.9994           0
     57791 TIP3     6132     TIP3     H1       HT       0.417000       1.00800           0
     57792 TIP3     6132     TIP3     H2       HT       0.417000       1.00800           0
     57793 TIP3     6133     TIP3     OH2      OT      -0.834000       15.9994           0
     57794 TIP3     6133     TIP3     H1       HT       0.417000       1.00800           0
     57795 TIP3     6133     TIP3     H2       HT       0.417000       1.00800           0
     57796 TIP3     6134     TIP3     OH2      OT      -0.834000       15.9994           0
     57797 TIP3     6134     TIP3     H1       HT       0.417000       1.00800           0
     57798 TIP3     6134     TIP3     H2       HT       0.417000       1.00800           0
     57799 TIP3     6135     TIP3     OH2      OT      -0.834000       15.9994           0
     57800 TIP3     6135     TIP3     H1       HT       0.417000       1.00800           0
     57801 TIP3     6135     TIP3     H2       HT       0.417000       1.00800           0
     57802 TIP3     6136     TIP3     OH2      OT      -0.834000       15.9994           0
     57803 TIP3     6136     TIP3     H1       HT       0.417000       1.00800           0
     57804 TIP3     6136     TIP3     H2       HT       0.417000       1.00800           0
     57805 TIP3     6137     TIP3     OH2      OT      -0.834000       15.9994           0
     57806 TIP3     6137     TIP3     H1       HT       0.417000       1.00800           0
     57807 TIP3     6137     TIP3     H2       HT       0.417000       1.00800           0
     57808 TIP3     6138     TIP3     OH2      OT      -0.834000       15.9994           0
     57809 TIP3     6138     TIP3     H1       HT       0.417000       1.00800           0
     57810 TIP3     6138     TIP3     H2       HT       0.417000       1.00800           0
     57811 TIP3     6139     TIP3     OH2      OT      -0.834000       15.9994           0
     57812 TIP3     6139     TIP3     H1       HT       0.417000       1.00800           0
     57813 TIP3     6139     TIP3     H2       HT       0.417000       1.00800           0
     57814 TIP3     6140     TIP3     OH2      OT      -0.834000       15.9994           0
     57815 TIP3     6140     TIP3     H1       HT       0.417000       1.00800           0
     57816 TIP3     6140     TIP3     H2       HT       0.417000       1.00800           0
     57817 TIP3     6141     TIP3     OH2      OT      -0.834000       15.9994           0
     57818 TIP3     6141     TIP3     H1       HT       0.417000       1.00800           0
     57819 TIP3     6141     TIP3     H2       HT       0.417000       1.00800           0
     57820 TIP3     6142     TIP3     OH2      OT      -0.834000       15.9994           0
     57821 TIP3     6142     TIP3     H1       HT       0.417000       1.00800           0
     57822 TIP3     6142     TIP3     H2       HT       0.417000       1.00800           0
     57823 TIP3     6143     TIP3     OH2      OT      -0.834000       15.9994           0
     57824 TIP3     6143     TIP3     H1       HT       0.417000       1.00800           0
     57825 TIP3     6143     TIP3     H2       HT       0.417000       1.00800           0
     57826 TIP3     6144     TIP3     OH2      OT      -0.834000       15.9994           0
     57827 TIP3     6144     TIP3     H1       HT       0.417000       1.00800           0
     57828 TIP3     6144     TIP3     H2       HT       0.417000       1.00800           0
     57829 TIP3     6145     TIP3     OH2      OT      -0.834000       15.9994           0
     57830 TIP3     6145     TIP3     H1       HT       0.417000       1.00800           0
     57831 TIP3     6145     TIP3     H2       HT       0.417000       1.00800           0
     57832 TIP3     6146     TIP3     OH2      OT      -0.834000       15.9994           0
     57833 TIP3     6146     TIP3     H1       HT       0.417000       1.00800           0
     57834 TIP3     6146     TIP3     H2       HT       0.417000       1.00800           0
     57835 TIP3     6147     TIP3     OH2      OT      -0.834000       15.9994           0
     57836 TIP3     6147     TIP3     H1       HT       0.417000       1.00800           0
     57837 TIP3     6147     TIP3     H2       HT       0.417000       1.00800           0
     57838 TIP3     6148     TIP3     OH2      OT      -0.834000       15.9994           0
     57839 TIP3     6148     TIP3     H1       HT       0.417000       1.00800           0
     57840 TIP3     6148     TIP3     H2       HT       0.417000       1.00800           0
     57841 TIP3     6149     TIP3     OH2      OT      -0.834000       15.9994           0
     57842 TIP3     6149     TIP3     H1       HT       0.417000       1.00800           0
     57843 TIP3     6149     TIP3     H2       HT       0.417000       1.00800           0
     57844 TIP3     6150     TIP3     OH2      OT      -0.834000       15.9994           0
     57845 TIP3     6150     TIP3     H1       HT       0.417000       1.00800           0
     57846 TIP3     6150     TIP3     H2       HT       0.417000       1.00800           0
     57847 TIP3     6151     TIP3     OH2      OT      -0.834000       15.9994           0
     57848 TIP3     6151     TIP3     H1       HT       0.417000       1.00800           0
     57849 TIP3     6151     TIP3     H2       HT       0.417000       1.00800           0
     57850 TIP3     6152     TIP3     OH2      OT      -0.834000       15.9994           0
     57851 TIP3     6152     TIP3     H1       HT       0.417000       1.00800           0
     57852 TIP3     6152     TIP3     H2       HT       0.417000       1.00800           0
     57853 TIP3     6153     TIP3     OH2      OT      -0.834000       15.9994           0
     57854 TIP3     6153     TIP3     H1       HT       0.417000       1.00800           0
     57855 TIP3     6153     TIP3     H2       HT       0.417000       1.00800           0
     57856 TIP3     6154     TIP3     OH2      OT      -0.834000       15.9994           0
     57857 TIP3     6154     TIP3     H1       HT       0.417000       1.00800           0
     57858 TIP3     6154     TIP3     H2       HT       0.417000       1.00800           0
     57859 TIP3     6155     TIP3     OH2      OT      -0.834000       15.9994           0
     57860 TIP3     6155     TIP3     H1       HT       0.417000       1.00800           0
     57861 TIP3     6155     TIP3     H2       HT       0.417000       1.00800           0
     57862 TIP3     6156     TIP3     OH2      OT      -0.834000       15.9994           0
     57863 TIP3     6156     TIP3     H1       HT       0.417000       1.00800           0
     57864 TIP3     6156     TIP3     H2       HT       0.417000       1.00800           0
     57865 TIP3     6157     TIP3     OH2      OT      -0.834000       15.9994           0
     57866 TIP3     6157     TIP3     H1       HT       0.417000       1.00800           0
     57867 TIP3     6157     TIP3     H2       HT       0.417000       1.00800           0
     57868 TIP3     6158     TIP3     OH2      OT      -0.834000       15.9994           0
     57869 TIP3     6158     TIP3     H1       HT       0.417000       1.00800           0
     57870 TIP3     6158     TIP3     H2       HT       0.417000       1.00800           0
     57871 TIP3     6159     TIP3     OH2      OT      -0.834000       15.9994           0
     57872 TIP3     6159     TIP3     H1       HT       0.417000       1.00800           0
     57873 TIP3     6159     TIP3     H2       HT       0.417000       1.00800           0
     57874 TIP3     6160     TIP3     OH2      OT      -0.834000       15.9994           0
     57875 TIP3     6160     TIP3     H1       HT       0.417000       1.00800           0
     57876 TIP3     6160     TIP3     H2       HT       0.417000       1.00800           0
     57877 TIP3     6161     TIP3     OH2      OT      -0.834000       15.9994           0
     57878 TIP3     6161     TIP3     H1       HT       0.417000       1.00800           0
     57879 TIP3     6161     TIP3     H2       HT       0.417000       1.00800           0
     57880 TIP3     6162     TIP3     OH2      OT      -0.834000       15.9994           0
     57881 TIP3     6162     TIP3     H1       HT       0.417000       1.00800           0
     57882 TIP3     6162     TIP3     H2       HT       0.417000       1.00800           0
     57883 TIP3     6163     TIP3     OH2      OT      -0.834000       15.9994           0
     57884 TIP3     6163     TIP3     H1       HT       0.417000       1.00800           0
     57885 TIP3     6163     TIP3     H2       HT       0.417000       1.00800           0
     57886 TIP3     6164     TIP3     OH2      OT      -0.834000       15.9994           0
     57887 TIP3     6164     TIP3     H1       HT       0.417000       1.00800           0
     57888 TIP3     6164     TIP3     H2       HT       0.417000       1.00800           0
     57889 TIP3     6165     TIP3     OH2      OT      -0.834000       15.9994           0
     57890 TIP3     6165     TIP3     H1       HT       0.417000       1.00800           0
     57891 TIP3     6165     TIP3     H2       HT       0.417000       1.00800           0
     57892 TIP3     6166     TIP3     OH2      OT      -0.834000       15.9994           0
     57893 TIP3     6166     TIP3     H1       HT       0.417000       1.00800           0
     57894 TIP3     6166     TIP3     H2       HT       0.417000       1.00800           0
     57895 TIP3     6167     TIP3     OH2      OT      -0.834000       15.9994           0
     57896 TIP3     6167     TIP3     H1       HT       0.417000       1.00800           0
     57897 TIP3     6167     TIP3     H2       HT       0.417000       1.00800           0
     57898 TIP3     6168     TIP3     OH2      OT      -0.834000       15.9994           0
     57899 TIP3     6168     TIP3     H1       HT       0.417000       1.00800           0
     57900 TIP3     6168     TIP3     H2       HT       0.417000       1.00800           0
     57901 TIP3     6169     TIP3     OH2      OT      -0.834000       15.9994           0
     57902 TIP3     6169     TIP3     H1       HT       0.417000       1.00800           0
     57903 TIP3     6169     TIP3     H2       HT       0.417000       1.00800           0
     57904 TIP3     6170     TIP3     OH2      OT      -0.834000       15.9994           0
     57905 TIP3     6170     TIP3     H1       HT       0.417000       1.00800           0
     57906 TIP3     6170     TIP3     H2       HT       0.417000       1.00800           0
     57907 TIP3     6171     TIP3     OH2      OT      -0.834000       15.9994           0
     57908 TIP3     6171     TIP3     H1       HT       0.417000       1.00800           0
     57909 TIP3     6171     TIP3     H2       HT       0.417000       1.00800           0
     57910 TIP3     6172     TIP3     OH2      OT      -0.834000       15.9994           0
     57911 TIP3     6172     TIP3     H1       HT       0.417000       1.00800           0
     57912 TIP3     6172     TIP3     H2       HT       0.417000       1.00800           0
     57913 TIP3     6173     TIP3     OH2      OT      -0.834000       15.9994           0
     57914 TIP3     6173     TIP3     H1       HT       0.417000       1.00800           0
     57915 TIP3     6173     TIP3     H2       HT       0.417000       1.00800           0
     57916 TIP3     6174     TIP3     OH2      OT      -0.834000       15.9994           0
     57917 TIP3     6174     TIP3     H1       HT       0.417000       1.00800           0
     57918 TIP3     6174     TIP3     H2       HT       0.417000       1.00800           0
     57919 TIP3     6175     TIP3     OH2      OT      -0.834000       15.9994           0
     57920 TIP3     6175     TIP3     H1       HT       0.417000       1.00800           0
     57921 TIP3     6175     TIP3     H2       HT       0.417000       1.00800           0
     57922 TIP3     6176     TIP3     OH2      OT      -0.834000       15.9994           0
     57923 TIP3     6176     TIP3     H1       HT       0.417000       1.00800           0
     57924 TIP3     6176     TIP3     H2       HT       0.417000       1.00800           0
     57925 TIP3     6177     TIP3     OH2      OT      -0.834000       15.9994           0
     57926 TIP3     6177     TIP3     H1       HT       0.417000       1.00800           0
     57927 TIP3     6177     TIP3     H2       HT       0.417000       1.00800           0
     57928 TIP3     6178     TIP3     OH2      OT      -0.834000       15.9994           0
     57929 TIP3     6178     TIP3     H1       HT       0.417000       1.00800           0
     57930 TIP3     6178     TIP3     H2       HT       0.417000       1.00800           0
     57931 TIP3     6179     TIP3     OH2      OT      -0.834000       15.9994           0
     57932 TIP3     6179     TIP3     H1       HT       0.417000       1.00800           0
     57933 TIP3     6179     TIP3     H2       HT       0.417000       1.00800           0
     57934 TIP3     6180     TIP3     OH2      OT      -0.834000       15.9994           0
     57935 TIP3     6180     TIP3     H1       HT       0.417000       1.00800           0
     57936 TIP3     6180     TIP3     H2       HT       0.417000       1.00800           0
     57937 TIP3     6181     TIP3     OH2      OT      -0.834000       15.9994           0
     57938 TIP3     6181     TIP3     H1       HT       0.417000       1.00800           0
     57939 TIP3     6181     TIP3     H2       HT       0.417000       1.00800           0
     57940 TIP3     6182     TIP3     OH2      OT      -0.834000       15.9994           0
     57941 TIP3     6182     TIP3     H1       HT       0.417000       1.00800           0
     57942 TIP3     6182     TIP3     H2       HT       0.417000       1.00800           0
     57943 TIP3     6183     TIP3     OH2      OT      -0.834000       15.9994           0
     57944 TIP3     6183     TIP3     H1       HT       0.417000       1.00800           0
     57945 TIP3     6183     TIP3     H2       HT       0.417000       1.00800           0
     57946 TIP3     6184     TIP3     OH2      OT      -0.834000       15.9994           0
     57947 TIP3     6184     TIP3     H1       HT       0.417000       1.00800           0
     57948 TIP3     6184     TIP3     H2       HT       0.417000       1.00800           0
     57949 TIP3     6185     TIP3     OH2      OT      -0.834000       15.9994           0
     57950 TIP3     6185     TIP3     H1       HT       0.417000       1.00800           0
     57951 TIP3     6185     TIP3     H2       HT       0.417000       1.00800           0
     57952 TIP3     6186     TIP3     OH2      OT      -0.834000       15.9994           0
     57953 TIP3     6186     TIP3     H1       HT       0.417000       1.00800           0
     57954 TIP3     6186     TIP3     H2       HT       0.417000       1.00800           0
     57955 TIP3     6187     TIP3     OH2      OT      -0.834000       15.9994           0
     57956 TIP3     6187     TIP3     H1       HT       0.417000       1.00800           0
     57957 TIP3     6187     TIP3     H2       HT       0.417000       1.00800           0
     57958 TIP3     6188     TIP3     OH2      OT      -0.834000       15.9994           0
     57959 TIP3     6188     TIP3     H1       HT       0.417000       1.00800           0
     57960 TIP3     6188     TIP3     H2       HT       0.417000       1.00800           0
     57961 TIP3     6189     TIP3     OH2      OT      -0.834000       15.9994           0
     57962 TIP3     6189     TIP3     H1       HT       0.417000       1.00800           0
     57963 TIP3     6189     TIP3     H2       HT       0.417000       1.00800           0
     57964 TIP3     6190     TIP3     OH2      OT      -0.834000       15.9994           0
     57965 TIP3     6190     TIP3     H1       HT       0.417000       1.00800           0
     57966 TIP3     6190     TIP3     H2       HT       0.417000       1.00800           0
     57967 TIP3     6191     TIP3     OH2      OT      -0.834000       15.9994           0
     57968 TIP3     6191     TIP3     H1       HT       0.417000       1.00800           0
     57969 TIP3     6191     TIP3     H2       HT       0.417000       1.00800           0
     57970 TIP3     6192     TIP3     OH2      OT      -0.834000       15.9994           0
     57971 TIP3     6192     TIP3     H1       HT       0.417000       1.00800           0
     57972 TIP3     6192     TIP3     H2       HT       0.417000       1.00800           0
     57973 TIP3     6193     TIP3     OH2      OT      -0.834000       15.9994           0
     57974 TIP3     6193     TIP3     H1       HT       0.417000       1.00800           0
     57975 TIP3     6193     TIP3     H2       HT       0.417000       1.00800           0
     57976 TIP3     6194     TIP3     OH2      OT      -0.834000       15.9994           0
     57977 TIP3     6194     TIP3     H1       HT       0.417000       1.00800           0
     57978 TIP3     6194     TIP3     H2       HT       0.417000       1.00800           0
     57979 TIP3     6195     TIP3     OH2      OT      -0.834000       15.9994           0
     57980 TIP3     6195     TIP3     H1       HT       0.417000       1.00800           0
     57981 TIP3     6195     TIP3     H2       HT       0.417000       1.00800           0
     57982 TIP3     6196     TIP3     OH2      OT      -0.834000       15.9994           0
     57983 TIP3     6196     TIP3     H1       HT       0.417000       1.00800           0
     57984 TIP3     6196     TIP3     H2       HT       0.417000       1.00800           0
     57985 TIP3     6197     TIP3     OH2      OT      -0.834000       15.9994           0
     57986 TIP3     6197     TIP3     H1       HT       0.417000       1.00800           0
     57987 TIP3     6197     TIP3     H2       HT       0.417000       1.00800           0
     57988 TIP3     6198     TIP3     OH2      OT      -0.834000       15.9994           0
     57989 TIP3     6198     TIP3     H1       HT       0.417000       1.00800           0
     57990 TIP3     6198     TIP3     H2       HT       0.417000       1.00800           0
     57991 TIP3     6199     TIP3     OH2      OT      -0.834000       15.9994           0
     57992 TIP3     6199     TIP3     H1       HT       0.417000       1.00800           0
     57993 TIP3     6199     TIP3     H2       HT       0.417000       1.00800           0
     57994 TIP3     6200     TIP3     OH2      OT      -0.834000       15.9994           0
     57995 TIP3     6200     TIP3     H1       HT       0.417000       1.00800           0
     57996 TIP3     6200     TIP3     H2       HT       0.417000       1.00800           0
     57997 TIP3     6201     TIP3     OH2      OT      -0.834000       15.9994           0
     57998 TIP3     6201     TIP3     H1       HT       0.417000       1.00800           0
     57999 TIP3     6201     TIP3     H2       HT       0.417000       1.00800           0
     58000 TIP3     6202     TIP3     OH2      OT      -0.834000       15.9994           0
     58001 TIP3     6202     TIP3     H1       HT       0.417000       1.00800           0
     58002 TIP3     6202     TIP3     H2       HT       0.417000       1.00800           0
     58003 TIP3     6203     TIP3     OH2      OT      -0.834000       15.9994           0
     58004 TIP3     6203     TIP3     H1       HT       0.417000       1.00800           0
     58005 TIP3     6203     TIP3     H2       HT       0.417000       1.00800           0
     58006 TIP3     6204     TIP3     OH2      OT      -0.834000       15.9994           0
     58007 TIP3     6204     TIP3     H1       HT       0.417000       1.00800           0
     58008 TIP3     6204     TIP3     H2       HT       0.417000       1.00800           0
     58009 TIP3     6205     TIP3     OH2      OT      -0.834000       15.9994           0
     58010 TIP3     6205     TIP3     H1       HT       0.417000       1.00800           0
     58011 TIP3     6205     TIP3     H2       HT       0.417000       1.00800           0
     58012 TIP3     6206     TIP3     OH2      OT      -0.834000       15.9994           0
     58013 TIP3     6206     TIP3     H1       HT       0.417000       1.00800           0
     58014 TIP3     6206     TIP3     H2       HT       0.417000       1.00800           0
     58015 TIP3     6207     TIP3     OH2      OT      -0.834000       15.9994           0
     58016 TIP3     6207     TIP3     H1       HT       0.417000       1.00800           0
     58017 TIP3     6207     TIP3     H2       HT       0.417000       1.00800           0
     58018 TIP3     6208     TIP3     OH2      OT      -0.834000       15.9994           0
     58019 TIP3     6208     TIP3     H1       HT       0.417000       1.00800           0
     58020 TIP3     6208     TIP3     H2       HT       0.417000       1.00800           0
     58021 TIP3     6209     TIP3     OH2      OT      -0.834000       15.9994           0
     58022 TIP3     6209     TIP3     H1       HT       0.417000       1.00800           0
     58023 TIP3     6209     TIP3     H2       HT       0.417000       1.00800           0
     58024 TIP3     6210     TIP3     OH2      OT      -0.834000       15.9994           0
     58025 TIP3     6210     TIP3     H1       HT       0.417000       1.00800           0
     58026 TIP3     6210     TIP3     H2       HT       0.417000       1.00800           0
     58027 TIP3     6211     TIP3     OH2      OT      -0.834000       15.9994           0
     58028 TIP3     6211     TIP3     H1       HT       0.417000       1.00800           0
     58029 TIP3     6211     TIP3     H2       HT       0.417000       1.00800           0
     58030 TIP3     6212     TIP3     OH2      OT      -0.834000       15.9994           0
     58031 TIP3     6212     TIP3     H1       HT       0.417000       1.00800           0
     58032 TIP3     6212     TIP3     H2       HT       0.417000       1.00800           0
     58033 TIP3     6213     TIP3     OH2      OT      -0.834000       15.9994           0
     58034 TIP3     6213     TIP3     H1       HT       0.417000       1.00800           0
     58035 TIP3     6213     TIP3     H2       HT       0.417000       1.00800           0
     58036 TIP3     6214     TIP3     OH2      OT      -0.834000       15.9994           0
     58037 TIP3     6214     TIP3     H1       HT       0.417000       1.00800           0
     58038 TIP3     6214     TIP3     H2       HT       0.417000       1.00800           0
     58039 TIP3     6215     TIP3     OH2      OT      -0.834000       15.9994           0
     58040 TIP3     6215     TIP3     H1       HT       0.417000       1.00800           0
     58041 TIP3     6215     TIP3     H2       HT       0.417000       1.00800           0
     58042 TIP3     6216     TIP3     OH2      OT      -0.834000       15.9994           0
     58043 TIP3     6216     TIP3     H1       HT       0.417000       1.00800           0
     58044 TIP3     6216     TIP3     H2       HT       0.417000       1.00800           0
     58045 TIP3     6217     TIP3     OH2      OT      -0.834000       15.9994           0
     58046 TIP3     6217     TIP3     H1       HT       0.417000       1.00800           0
     58047 TIP3     6217     TIP3     H2       HT       0.417000       1.00800           0
     58048 TIP3     6218     TIP3     OH2      OT      -0.834000       15.9994           0
     58049 TIP3     6218     TIP3     H1       HT       0.417000       1.00800           0
     58050 TIP3     6218     TIP3     H2       HT       0.417000       1.00800           0
     58051 TIP3     6219     TIP3     OH2      OT      -0.834000       15.9994           0
     58052 TIP3     6219     TIP3     H1       HT       0.417000       1.00800           0
     58053 TIP3     6219     TIP3     H2       HT       0.417000       1.00800           0
     58054 TIP3     6220     TIP3     OH2      OT      -0.834000       15.9994           0
     58055 TIP3     6220     TIP3     H1       HT       0.417000       1.00800           0
     58056 TIP3     6220     TIP3     H2       HT       0.417000       1.00800           0
     58057 TIP3     6221     TIP3     OH2      OT      -0.834000       15.9994           0
     58058 TIP3     6221     TIP3     H1       HT       0.417000       1.00800           0
     58059 TIP3     6221     TIP3     H2       HT       0.417000       1.00800           0
     58060 TIP3     6222     TIP3     OH2      OT      -0.834000       15.9994           0
     58061 TIP3     6222     TIP3     H1       HT       0.417000       1.00800           0
     58062 TIP3     6222     TIP3     H2       HT       0.417000       1.00800           0
     58063 TIP3     6223     TIP3     OH2      OT      -0.834000       15.9994           0
     58064 TIP3     6223     TIP3     H1       HT       0.417000       1.00800           0
     58065 TIP3     6223     TIP3     H2       HT       0.417000       1.00800           0
     58066 TIP3     6224     TIP3     OH2      OT      -0.834000       15.9994           0
     58067 TIP3     6224     TIP3     H1       HT       0.417000       1.00800           0
     58068 TIP3     6224     TIP3     H2       HT       0.417000       1.00800           0
     58069 TIP3     6225     TIP3     OH2      OT      -0.834000       15.9994           0
     58070 TIP3     6225     TIP3     H1       HT       0.417000       1.00800           0
     58071 TIP3     6225     TIP3     H2       HT       0.417000       1.00800           0
     58072 TIP3     6226     TIP3     OH2      OT      -0.834000       15.9994           0
     58073 TIP3     6226     TIP3     H1       HT       0.417000       1.00800           0
     58074 TIP3     6226     TIP3     H2       HT       0.417000       1.00800           0
     58075 TIP3     6227     TIP3     OH2      OT      -0.834000       15.9994           0
     58076 TIP3     6227     TIP3     H1       HT       0.417000       1.00800           0
     58077 TIP3     6227     TIP3     H2       HT       0.417000       1.00800           0
     58078 TIP3     6228     TIP3     OH2      OT      -0.834000       15.9994           0
     58079 TIP3     6228     TIP3     H1       HT       0.417000       1.00800           0
     58080 TIP3     6228     TIP3     H2       HT       0.417000       1.00800           0
     58081 TIP3     6229     TIP3     OH2      OT      -0.834000       15.9994           0
     58082 TIP3     6229     TIP3     H1       HT       0.417000       1.00800           0
     58083 TIP3     6229     TIP3     H2       HT       0.417000       1.00800           0
     58084 TIP3     6230     TIP3     OH2      OT      -0.834000       15.9994           0
     58085 TIP3     6230     TIP3     H1       HT       0.417000       1.00800           0
     58086 TIP3     6230     TIP3     H2       HT       0.417000       1.00800           0
     58087 TIP3     6231     TIP3     OH2      OT      -0.834000       15.9994           0
     58088 TIP3     6231     TIP3     H1       HT       0.417000       1.00800           0
     58089 TIP3     6231     TIP3     H2       HT       0.417000       1.00800           0
     58090 TIP3     6232     TIP3     OH2      OT      -0.834000       15.9994           0
     58091 TIP3     6232     TIP3     H1       HT       0.417000       1.00800           0
     58092 TIP3     6232     TIP3     H2       HT       0.417000       1.00800           0
     58093 TIP3     6233     TIP3     OH2      OT      -0.834000       15.9994           0
     58094 TIP3     6233     TIP3     H1       HT       0.417000       1.00800           0
     58095 TIP3     6233     TIP3     H2       HT       0.417000       1.00800           0
     58096 TIP3     6234     TIP3     OH2      OT      -0.834000       15.9994           0
     58097 TIP3     6234     TIP3     H1       HT       0.417000       1.00800           0
     58098 TIP3     6234     TIP3     H2       HT       0.417000       1.00800           0
     58099 TIP3     6235     TIP3     OH2      OT      -0.834000       15.9994           0
     58100 TIP3     6235     TIP3     H1       HT       0.417000       1.00800           0
     58101 TIP3     6235     TIP3     H2       HT       0.417000       1.00800           0
     58102 TIP3     6236     TIP3     OH2      OT      -0.834000       15.9994           0
     58103 TIP3     6236     TIP3     H1       HT       0.417000       1.00800           0
     58104 TIP3     6236     TIP3     H2       HT       0.417000       1.00800           0
     58105 TIP3     6237     TIP3     OH2      OT      -0.834000       15.9994           0
     58106 TIP3     6237     TIP3     H1       HT       0.417000       1.00800           0
     58107 TIP3     6237     TIP3     H2       HT       0.417000       1.00800           0
     58108 TIP3     6238     TIP3     OH2      OT      -0.834000       15.9994           0
     58109 TIP3     6238     TIP3     H1       HT       0.417000       1.00800           0
     58110 TIP3     6238     TIP3     H2       HT       0.417000       1.00800           0
     58111 TIP3     6239     TIP3     OH2      OT      -0.834000       15.9994           0
     58112 TIP3     6239     TIP3     H1       HT       0.417000       1.00800           0
     58113 TIP3     6239     TIP3     H2       HT       0.417000       1.00800           0
     58114 TIP3     6240     TIP3     OH2      OT      -0.834000       15.9994           0
     58115 TIP3     6240     TIP3     H1       HT       0.417000       1.00800           0
     58116 TIP3     6240     TIP3     H2       HT       0.417000       1.00800           0
     58117 TIP3     6241     TIP3     OH2      OT      -0.834000       15.9994           0
     58118 TIP3     6241     TIP3     H1       HT       0.417000       1.00800           0
     58119 TIP3     6241     TIP3     H2       HT       0.417000       1.00800           0
     58120 TIP3     6242     TIP3     OH2      OT      -0.834000       15.9994           0
     58121 TIP3     6242     TIP3     H1       HT       0.417000       1.00800           0
     58122 TIP3     6242     TIP3     H2       HT       0.417000       1.00800           0
     58123 TIP3     6243     TIP3     OH2      OT      -0.834000       15.9994           0
     58124 TIP3     6243     TIP3     H1       HT       0.417000       1.00800           0
     58125 TIP3     6243     TIP3     H2       HT       0.417000       1.00800           0
     58126 TIP3     6244     TIP3     OH2      OT      -0.834000       15.9994           0
     58127 TIP3     6244     TIP3     H1       HT       0.417000       1.00800           0
     58128 TIP3     6244     TIP3     H2       HT       0.417000       1.00800           0
     58129 TIP3     6245     TIP3     OH2      OT      -0.834000       15.9994           0
     58130 TIP3     6245     TIP3     H1       HT       0.417000       1.00800           0
     58131 TIP3     6245     TIP3     H2       HT       0.417000       1.00800           0
     58132 TIP3     6246     TIP3     OH2      OT      -0.834000       15.9994           0
     58133 TIP3     6246     TIP3     H1       HT       0.417000       1.00800           0
     58134 TIP3     6246     TIP3     H2       HT       0.417000       1.00800           0
     58135 TIP3     6247     TIP3     OH2      OT      -0.834000       15.9994           0
     58136 TIP3     6247     TIP3     H1       HT       0.417000       1.00800           0
     58137 TIP3     6247     TIP3     H2       HT       0.417000       1.00800           0
     58138 TIP3     6248     TIP3     OH2      OT      -0.834000       15.9994           0
     58139 TIP3     6248     TIP3     H1       HT       0.417000       1.00800           0
     58140 TIP3     6248     TIP3     H2       HT       0.417000       1.00800           0
     58141 TIP3     6249     TIP3     OH2      OT      -0.834000       15.9994           0
     58142 TIP3     6249     TIP3     H1       HT       0.417000       1.00800           0
     58143 TIP3     6249     TIP3     H2       HT       0.417000       1.00800           0
     58144 TIP3     6250     TIP3     OH2      OT      -0.834000       15.9994           0
     58145 TIP3     6250     TIP3     H1       HT       0.417000       1.00800           0
     58146 TIP3     6250     TIP3     H2       HT       0.417000       1.00800           0
     58147 TIP3     6251     TIP3     OH2      OT      -0.834000       15.9994           0
     58148 TIP3     6251     TIP3     H1       HT       0.417000       1.00800           0
     58149 TIP3     6251     TIP3     H2       HT       0.417000       1.00800           0
     58150 TIP3     6252     TIP3     OH2      OT      -0.834000       15.9994           0
     58151 TIP3     6252     TIP3     H1       HT       0.417000       1.00800           0
     58152 TIP3     6252     TIP3     H2       HT       0.417000       1.00800           0
     58153 TIP3     6253     TIP3     OH2      OT      -0.834000       15.9994           0
     58154 TIP3     6253     TIP3     H1       HT       0.417000       1.00800           0
     58155 TIP3     6253     TIP3     H2       HT       0.417000       1.00800           0
     58156 TIP3     6254     TIP3     OH2      OT      -0.834000       15.9994           0
     58157 TIP3     6254     TIP3     H1       HT       0.417000       1.00800           0
     58158 TIP3     6254     TIP3     H2       HT       0.417000       1.00800           0
     58159 TIP3     6255     TIP3     OH2      OT      -0.834000       15.9994           0
     58160 TIP3     6255     TIP3     H1       HT       0.417000       1.00800           0
     58161 TIP3     6255     TIP3     H2       HT       0.417000       1.00800           0
     58162 TIP3     6256     TIP3     OH2      OT      -0.834000       15.9994           0
     58163 TIP3     6256     TIP3     H1       HT       0.417000       1.00800           0
     58164 TIP3     6256     TIP3     H2       HT       0.417000       1.00800           0
     58165 TIP3     6257     TIP3     OH2      OT      -0.834000       15.9994           0
     58166 TIP3     6257     TIP3     H1       HT       0.417000       1.00800           0
     58167 TIP3     6257     TIP3     H2       HT       0.417000       1.00800           0
     58168 TIP3     6258     TIP3     OH2      OT      -0.834000       15.9994           0
     58169 TIP3     6258     TIP3     H1       HT       0.417000       1.00800           0
     58170 TIP3     6258     TIP3     H2       HT       0.417000       1.00800           0
     58171 TIP3     6259     TIP3     OH2      OT      -0.834000       15.9994           0
     58172 TIP3     6259     TIP3     H1       HT       0.417000       1.00800           0
     58173 TIP3     6259     TIP3     H2       HT       0.417000       1.00800           0
     58174 TIP3     6260     TIP3     OH2      OT      -0.834000       15.9994           0
     58175 TIP3     6260     TIP3     H1       HT       0.417000       1.00800           0
     58176 TIP3     6260     TIP3     H2       HT       0.417000       1.00800           0
     58177 TIP3     6261     TIP3     OH2      OT      -0.834000       15.9994           0
     58178 TIP3     6261     TIP3     H1       HT       0.417000       1.00800           0
     58179 TIP3     6261     TIP3     H2       HT       0.417000       1.00800           0
     58180 TIP3     6262     TIP3     OH2      OT      -0.834000       15.9994           0
     58181 TIP3     6262     TIP3     H1       HT       0.417000       1.00800           0
     58182 TIP3     6262     TIP3     H2       HT       0.417000       1.00800           0
     58183 TIP3     6263     TIP3     OH2      OT      -0.834000       15.9994           0
     58184 TIP3     6263     TIP3     H1       HT       0.417000       1.00800           0
     58185 TIP3     6263     TIP3     H2       HT       0.417000       1.00800           0
     58186 TIP3     6264     TIP3     OH2      OT      -0.834000       15.9994           0
     58187 TIP3     6264     TIP3     H1       HT       0.417000       1.00800           0
     58188 TIP3     6264     TIP3     H2       HT       0.417000       1.00800           0
     58189 TIP3     6265     TIP3     OH2      OT      -0.834000       15.9994           0
     58190 TIP3     6265     TIP3     H1       HT       0.417000       1.00800           0
     58191 TIP3     6265     TIP3     H2       HT       0.417000       1.00800           0
     58192 TIP3     6266     TIP3     OH2      OT      -0.834000       15.9994           0
     58193 TIP3     6266     TIP3     H1       HT       0.417000       1.00800           0
     58194 TIP3     6266     TIP3     H2       HT       0.417000       1.00800           0
     58195 TIP3     6267     TIP3     OH2      OT      -0.834000       15.9994           0
     58196 TIP3     6267     TIP3     H1       HT       0.417000       1.00800           0
     58197 TIP3     6267     TIP3     H2       HT       0.417000       1.00800           0
     58198 TIP3     6268     TIP3     OH2      OT      -0.834000       15.9994           0
     58199 TIP3     6268     TIP3     H1       HT       0.417000       1.00800           0
     58200 TIP3     6268     TIP3     H2       HT       0.417000       1.00800           0
     58201 TIP3     6269     TIP3     OH2      OT      -0.834000       15.9994           0
     58202 TIP3     6269     TIP3     H1       HT       0.417000       1.00800           0
     58203 TIP3     6269     TIP3     H2       HT       0.417000       1.00800           0
     58204 TIP3     6270     TIP3     OH2      OT      -0.834000       15.9994           0
     58205 TIP3     6270     TIP3     H1       HT       0.417000       1.00800           0
     58206 TIP3     6270     TIP3     H2       HT       0.417000       1.00800           0
     58207 TIP3     6271     TIP3     OH2      OT      -0.834000       15.9994           0
     58208 TIP3     6271     TIP3     H1       HT       0.417000       1.00800           0
     58209 TIP3     6271     TIP3     H2       HT       0.417000       1.00800           0
     58210 TIP3     6272     TIP3     OH2      OT      -0.834000       15.9994           0
     58211 TIP3     6272     TIP3     H1       HT       0.417000       1.00800           0
     58212 TIP3     6272     TIP3     H2       HT       0.417000       1.00800           0
     58213 TIP3     6273     TIP3     OH2      OT      -0.834000       15.9994           0
     58214 TIP3     6273     TIP3     H1       HT       0.417000       1.00800           0
     58215 TIP3     6273     TIP3     H2       HT       0.417000       1.00800           0
     58216 TIP3     6274     TIP3     OH2      OT      -0.834000       15.9994           0
     58217 TIP3     6274     TIP3     H1       HT       0.417000       1.00800           0
     58218 TIP3     6274     TIP3     H2       HT       0.417000       1.00800           0
     58219 TIP3     6275     TIP3     OH2      OT      -0.834000       15.9994           0
     58220 TIP3     6275     TIP3     H1       HT       0.417000       1.00800           0
     58221 TIP3     6275     TIP3     H2       HT       0.417000       1.00800           0
     58222 TIP3     6276     TIP3     OH2      OT      -0.834000       15.9994           0
     58223 TIP3     6276     TIP3     H1       HT       0.417000       1.00800           0
     58224 TIP3     6276     TIP3     H2       HT       0.417000       1.00800           0
     58225 TIP3     6277     TIP3     OH2      OT      -0.834000       15.9994           0
     58226 TIP3     6277     TIP3     H1       HT       0.417000       1.00800           0
     58227 TIP3     6277     TIP3     H2       HT       0.417000       1.00800           0
     58228 TIP3     6278     TIP3     OH2      OT      -0.834000       15.9994           0
     58229 TIP3     6278     TIP3     H1       HT       0.417000       1.00800           0
     58230 TIP3     6278     TIP3     H2       HT       0.417000       1.00800           0
     58231 TIP3     6279     TIP3     OH2      OT      -0.834000       15.9994           0
     58232 TIP3     6279     TIP3     H1       HT       0.417000       1.00800           0
     58233 TIP3     6279     TIP3     H2       HT       0.417000       1.00800           0
     58234 TIP3     6280     TIP3     OH2      OT      -0.834000       15.9994           0
     58235 TIP3     6280     TIP3     H1       HT       0.417000       1.00800           0
     58236 TIP3     6280     TIP3     H2       HT       0.417000       1.00800           0
     58237 TIP3     6281     TIP3     OH2      OT      -0.834000       15.9994           0
     58238 TIP3     6281     TIP3     H1       HT       0.417000       1.00800           0
     58239 TIP3     6281     TIP3     H2       HT       0.417000       1.00800           0
     58240 TIP3     6282     TIP3     OH2      OT      -0.834000       15.9994           0
     58241 TIP3     6282     TIP3     H1       HT       0.417000       1.00800           0
     58242 TIP3     6282     TIP3     H2       HT       0.417000       1.00800           0
     58243 TIP3     6283     TIP3     OH2      OT      -0.834000       15.9994           0
     58244 TIP3     6283     TIP3     H1       HT       0.417000       1.00800           0
     58245 TIP3     6283     TIP3     H2       HT       0.417000       1.00800           0
     58246 TIP3     6284     TIP3     OH2      OT      -0.834000       15.9994           0
     58247 TIP3     6284     TIP3     H1       HT       0.417000       1.00800           0
     58248 TIP3     6284     TIP3     H2       HT       0.417000       1.00800           0
     58249 TIP3     6285     TIP3     OH2      OT      -0.834000       15.9994           0
     58250 TIP3     6285     TIP3     H1       HT       0.417000       1.00800           0
     58251 TIP3     6285     TIP3     H2       HT       0.417000       1.00800           0
     58252 TIP3     6286     TIP3     OH2      OT      -0.834000       15.9994           0
     58253 TIP3     6286     TIP3     H1       HT       0.417000       1.00800           0
     58254 TIP3     6286     TIP3     H2       HT       0.417000       1.00800           0
     58255 TIP3     6287     TIP3     OH2      OT      -0.834000       15.9994           0
     58256 TIP3     6287     TIP3     H1       HT       0.417000       1.00800           0
     58257 TIP3     6287     TIP3     H2       HT       0.417000       1.00800           0
     58258 TIP3     6288     TIP3     OH2      OT      -0.834000       15.9994           0
     58259 TIP3     6288     TIP3     H1       HT       0.417000       1.00800           0
     58260 TIP3     6288     TIP3     H2       HT       0.417000       1.00800           0
     58261 TIP3     6289     TIP3     OH2      OT      -0.834000       15.9994           0
     58262 TIP3     6289     TIP3     H1       HT       0.417000       1.00800           0
     58263 TIP3     6289     TIP3     H2       HT       0.417000       1.00800           0
     58264 TIP3     6290     TIP3     OH2      OT      -0.834000       15.9994           0
     58265 TIP3     6290     TIP3     H1       HT       0.417000       1.00800           0
     58266 TIP3     6290     TIP3     H2       HT       0.417000       1.00800           0
     58267 TIP3     6291     TIP3     OH2      OT      -0.834000       15.9994           0
     58268 TIP3     6291     TIP3     H1       HT       0.417000       1.00800           0
     58269 TIP3     6291     TIP3     H2       HT       0.417000       1.00800           0
     58270 TIP3     6292     TIP3     OH2      OT      -0.834000       15.9994           0
     58271 TIP3     6292     TIP3     H1       HT       0.417000       1.00800           0
     58272 TIP3     6292     TIP3     H2       HT       0.417000       1.00800           0
     58273 TIP3     6293     TIP3     OH2      OT      -0.834000       15.9994           0
     58274 TIP3     6293     TIP3     H1       HT       0.417000       1.00800           0
     58275 TIP3     6293     TIP3     H2       HT       0.417000       1.00800           0
     58276 TIP3     6294     TIP3     OH2      OT      -0.834000       15.9994           0
     58277 TIP3     6294     TIP3     H1       HT       0.417000       1.00800           0
     58278 TIP3     6294     TIP3     H2       HT       0.417000       1.00800           0
     58279 TIP3     6295     TIP3     OH2      OT      -0.834000       15.9994           0
     58280 TIP3     6295     TIP3     H1       HT       0.417000       1.00800           0
     58281 TIP3     6295     TIP3     H2       HT       0.417000       1.00800           0
     58282 TIP3     6296     TIP3     OH2      OT      -0.834000       15.9994           0
     58283 TIP3     6296     TIP3     H1       HT       0.417000       1.00800           0
     58284 TIP3     6296     TIP3     H2       HT       0.417000       1.00800           0
     58285 TIP3     6297     TIP3     OH2      OT      -0.834000       15.9994           0
     58286 TIP3     6297     TIP3     H1       HT       0.417000       1.00800           0
     58287 TIP3     6297     TIP3     H2       HT       0.417000       1.00800           0
     58288 TIP3     6298     TIP3     OH2      OT      -0.834000       15.9994           0
     58289 TIP3     6298     TIP3     H1       HT       0.417000       1.00800           0
     58290 TIP3     6298     TIP3     H2       HT       0.417000       1.00800           0
     58291 TIP3     6299     TIP3     OH2      OT      -0.834000       15.9994           0
     58292 TIP3     6299     TIP3     H1       HT       0.417000       1.00800           0
     58293 TIP3     6299     TIP3     H2       HT       0.417000       1.00800           0
     58294 TIP3     6300     TIP3     OH2      OT      -0.834000       15.9994           0
     58295 TIP3     6300     TIP3     H1       HT       0.417000       1.00800           0
     58296 TIP3     6300     TIP3     H2       HT       0.417000       1.00800           0
     58297 TIP3     6301     TIP3     OH2      OT      -0.834000       15.9994           0
     58298 TIP3     6301     TIP3     H1       HT       0.417000       1.00800           0
     58299 TIP3     6301     TIP3     H2       HT       0.417000       1.00800           0
     58300 TIP3     6302     TIP3     OH2      OT      -0.834000       15.9994           0
     58301 TIP3     6302     TIP3     H1       HT       0.417000       1.00800           0
     58302 TIP3     6302     TIP3     H2       HT       0.417000       1.00800           0
     58303 TIP3     6303     TIP3     OH2      OT      -0.834000       15.9994           0
     58304 TIP3     6303     TIP3     H1       HT       0.417000       1.00800           0
     58305 TIP3     6303     TIP3     H2       HT       0.417000       1.00800           0
     58306 TIP3     6304     TIP3     OH2      OT      -0.834000       15.9994           0
     58307 TIP3     6304     TIP3     H1       HT       0.417000       1.00800           0
     58308 TIP3     6304     TIP3     H2       HT       0.417000       1.00800           0
     58309 TIP3     6305     TIP3     OH2      OT      -0.834000       15.9994           0
     58310 TIP3     6305     TIP3     H1       HT       0.417000       1.00800           0
     58311 TIP3     6305     TIP3     H2       HT       0.417000       1.00800           0
     58312 TIP3     6306     TIP3     OH2      OT      -0.834000       15.9994           0
     58313 TIP3     6306     TIP3     H1       HT       0.417000       1.00800           0
     58314 TIP3     6306     TIP3     H2       HT       0.417000       1.00800           0
     58315 TIP3     6307     TIP3     OH2      OT      -0.834000       15.9994           0
     58316 TIP3     6307     TIP3     H1       HT       0.417000       1.00800           0
     58317 TIP3     6307     TIP3     H2       HT       0.417000       1.00800           0
     58318 TIP3     6308     TIP3     OH2      OT      -0.834000       15.9994           0
     58319 TIP3     6308     TIP3     H1       HT       0.417000       1.00800           0
     58320 TIP3     6308     TIP3     H2       HT       0.417000       1.00800           0
     58321 TIP3     6309     TIP3     OH2      OT      -0.834000       15.9994           0
     58322 TIP3     6309     TIP3     H1       HT       0.417000       1.00800           0
     58323 TIP3     6309     TIP3     H2       HT       0.417000       1.00800           0
     58324 TIP3     6310     TIP3     OH2      OT      -0.834000       15.9994           0
     58325 TIP3     6310     TIP3     H1       HT       0.417000       1.00800           0
     58326 TIP3     6310     TIP3     H2       HT       0.417000       1.00800           0
     58327 TIP3     6311     TIP3     OH2      OT      -0.834000       15.9994           0
     58328 TIP3     6311     TIP3     H1       HT       0.417000       1.00800           0
     58329 TIP3     6311     TIP3     H2       HT       0.417000       1.00800           0
     58330 TIP3     6312     TIP3     OH2      OT      -0.834000       15.9994           0
     58331 TIP3     6312     TIP3     H1       HT       0.417000       1.00800           0
     58332 TIP3     6312     TIP3     H2       HT       0.417000       1.00800           0
     58333 TIP3     6313     TIP3     OH2      OT      -0.834000       15.9994           0
     58334 TIP3     6313     TIP3     H1       HT       0.417000       1.00800           0
     58335 TIP3     6313     TIP3     H2       HT       0.417000       1.00800           0
     58336 TIP3     6314     TIP3     OH2      OT      -0.834000       15.9994           0
     58337 TIP3     6314     TIP3     H1       HT       0.417000       1.00800           0
     58338 TIP3     6314     TIP3     H2       HT       0.417000       1.00800           0
     58339 TIP3     6315     TIP3     OH2      OT      -0.834000       15.9994           0
     58340 TIP3     6315     TIP3     H1       HT       0.417000       1.00800           0
     58341 TIP3     6315     TIP3     H2       HT       0.417000       1.00800           0
     58342 TIP3     6316     TIP3     OH2      OT      -0.834000       15.9994           0
     58343 TIP3     6316     TIP3     H1       HT       0.417000       1.00800           0
     58344 TIP3     6316     TIP3     H2       HT       0.417000       1.00800           0
     58345 TIP3     6317     TIP3     OH2      OT      -0.834000       15.9994           0
     58346 TIP3     6317     TIP3     H1       HT       0.417000       1.00800           0
     58347 TIP3     6317     TIP3     H2       HT       0.417000       1.00800           0
     58348 TIP3     6318     TIP3     OH2      OT      -0.834000       15.9994           0
     58349 TIP3     6318     TIP3     H1       HT       0.417000       1.00800           0
     58350 TIP3     6318     TIP3     H2       HT       0.417000       1.00800           0
     58351 TIP3     6319     TIP3     OH2      OT      -0.834000       15.9994           0
     58352 TIP3     6319     TIP3     H1       HT       0.417000       1.00800           0
     58353 TIP3     6319     TIP3     H2       HT       0.417000       1.00800           0
     58354 TIP3     6320     TIP3     OH2      OT      -0.834000       15.9994           0
     58355 TIP3     6320     TIP3     H1       HT       0.417000       1.00800           0
     58356 TIP3     6320     TIP3     H2       HT       0.417000       1.00800           0
     58357 TIP3     6321     TIP3     OH2      OT      -0.834000       15.9994           0
     58358 TIP3     6321     TIP3     H1       HT       0.417000       1.00800           0
     58359 TIP3     6321     TIP3     H2       HT       0.417000       1.00800           0
     58360 TIP3     6322     TIP3     OH2      OT      -0.834000       15.9994           0
     58361 TIP3     6322     TIP3     H1       HT       0.417000       1.00800           0
     58362 TIP3     6322     TIP3     H2       HT       0.417000       1.00800           0
     58363 TIP3     6323     TIP3     OH2      OT      -0.834000       15.9994           0
     58364 TIP3     6323     TIP3     H1       HT       0.417000       1.00800           0
     58365 TIP3     6323     TIP3     H2       HT       0.417000       1.00800           0
     58366 TIP3     6324     TIP3     OH2      OT      -0.834000       15.9994           0
     58367 TIP3     6324     TIP3     H1       HT       0.417000       1.00800           0
     58368 TIP3     6324     TIP3     H2       HT       0.417000       1.00800           0
     58369 TIP3     6325     TIP3     OH2      OT      -0.834000       15.9994           0
     58370 TIP3     6325     TIP3     H1       HT       0.417000       1.00800           0
     58371 TIP3     6325     TIP3     H2       HT       0.417000       1.00800           0
     58372 TIP3     6326     TIP3     OH2      OT      -0.834000       15.9994           0
     58373 TIP3     6326     TIP3     H1       HT       0.417000       1.00800           0
     58374 TIP3     6326     TIP3     H2       HT       0.417000       1.00800           0
     58375 TIP3     6327     TIP3     OH2      OT      -0.834000       15.9994           0
     58376 TIP3     6327     TIP3     H1       HT       0.417000       1.00800           0
     58377 TIP3     6327     TIP3     H2       HT       0.417000       1.00800           0
     58378 TIP3     6328     TIP3     OH2      OT      -0.834000       15.9994           0
     58379 TIP3     6328     TIP3     H1       HT       0.417000       1.00800           0
     58380 TIP3     6328     TIP3     H2       HT       0.417000       1.00800           0
     58381 TIP3     6329     TIP3     OH2      OT      -0.834000       15.9994           0
     58382 TIP3     6329     TIP3     H1       HT       0.417000       1.00800           0
     58383 TIP3     6329     TIP3     H2       HT       0.417000       1.00800           0
     58384 TIP3     6330     TIP3     OH2      OT      -0.834000       15.9994           0
     58385 TIP3     6330     TIP3     H1       HT       0.417000       1.00800           0
     58386 TIP3     6330     TIP3     H2       HT       0.417000       1.00800           0
     58387 TIP3     6331     TIP3     OH2      OT      -0.834000       15.9994           0
     58388 TIP3     6331     TIP3     H1       HT       0.417000       1.00800           0
     58389 TIP3     6331     TIP3     H2       HT       0.417000       1.00800           0
     58390 TIP3     6332     TIP3     OH2      OT      -0.834000       15.9994           0
     58391 TIP3     6332     TIP3     H1       HT       0.417000       1.00800           0
     58392 TIP3     6332     TIP3     H2       HT       0.417000       1.00800           0
     58393 TIP3     6333     TIP3     OH2      OT      -0.834000       15.9994           0
     58394 TIP3     6333     TIP3     H1       HT       0.417000       1.00800           0
     58395 TIP3     6333     TIP3     H2       HT       0.417000       1.00800           0
     58396 TIP3     6334     TIP3     OH2      OT      -0.834000       15.9994           0
     58397 TIP3     6334     TIP3     H1       HT       0.417000       1.00800           0
     58398 TIP3     6334     TIP3     H2       HT       0.417000       1.00800           0
     58399 TIP3     6335     TIP3     OH2      OT      -0.834000       15.9994           0
     58400 TIP3     6335     TIP3     H1       HT       0.417000       1.00800           0
     58401 TIP3     6335     TIP3     H2       HT       0.417000       1.00800           0
     58402 TIP3     6336     TIP3     OH2      OT      -0.834000       15.9994           0
     58403 TIP3     6336     TIP3     H1       HT       0.417000       1.00800           0
     58404 TIP3     6336     TIP3     H2       HT       0.417000       1.00800           0
     58405 TIP3     6337     TIP3     OH2      OT      -0.834000       15.9994           0
     58406 TIP3     6337     TIP3     H1       HT       0.417000       1.00800           0
     58407 TIP3     6337     TIP3     H2       HT       0.417000       1.00800           0
     58408 TIP3     6338     TIP3     OH2      OT      -0.834000       15.9994           0
     58409 TIP3     6338     TIP3     H1       HT       0.417000       1.00800           0
     58410 TIP3     6338     TIP3     H2       HT       0.417000       1.00800           0
     58411 TIP3     6339     TIP3     OH2      OT      -0.834000       15.9994           0
     58412 TIP3     6339     TIP3     H1       HT       0.417000       1.00800           0
     58413 TIP3     6339     TIP3     H2       HT       0.417000       1.00800           0
     58414 TIP3     6340     TIP3     OH2      OT      -0.834000       15.9994           0
     58415 TIP3     6340     TIP3     H1       HT       0.417000       1.00800           0
     58416 TIP3     6340     TIP3     H2       HT       0.417000       1.00800           0
     58417 TIP3     6341     TIP3     OH2      OT      -0.834000       15.9994           0
     58418 TIP3     6341     TIP3     H1       HT       0.417000       1.00800           0
     58419 TIP3     6341     TIP3     H2       HT       0.417000       1.00800           0
     58420 TIP3     6342     TIP3     OH2      OT      -0.834000       15.9994           0
     58421 TIP3     6342     TIP3     H1       HT       0.417000       1.00800           0
     58422 TIP3     6342     TIP3     H2       HT       0.417000       1.00800           0
     58423 TIP3     6343     TIP3     OH2      OT      -0.834000       15.9994           0
     58424 TIP3     6343     TIP3     H1       HT       0.417000       1.00800           0
     58425 TIP3     6343     TIP3     H2       HT       0.417000       1.00800           0
     58426 TIP3     6344     TIP3     OH2      OT      -0.834000       15.9994           0
     58427 TIP3     6344     TIP3     H1       HT       0.417000       1.00800           0
     58428 TIP3     6344     TIP3     H2       HT       0.417000       1.00800           0
     58429 TIP3     6345     TIP3     OH2      OT      -0.834000       15.9994           0
     58430 TIP3     6345     TIP3     H1       HT       0.417000       1.00800           0
     58431 TIP3     6345     TIP3     H2       HT       0.417000       1.00800           0
     58432 TIP3     6346     TIP3     OH2      OT      -0.834000       15.9994           0
     58433 TIP3     6346     TIP3     H1       HT       0.417000       1.00800           0
     58434 TIP3     6346     TIP3     H2       HT       0.417000       1.00800           0
     58435 TIP3     6347     TIP3     OH2      OT      -0.834000       15.9994           0
     58436 TIP3     6347     TIP3     H1       HT       0.417000       1.00800           0
     58437 TIP3     6347     TIP3     H2       HT       0.417000       1.00800           0
     58438 TIP3     6348     TIP3     OH2      OT      -0.834000       15.9994           0
     58439 TIP3     6348     TIP3     H1       HT       0.417000       1.00800           0
     58440 TIP3     6348     TIP3     H2       HT       0.417000       1.00800           0
     58441 TIP3     6349     TIP3     OH2      OT      -0.834000       15.9994           0
     58442 TIP3     6349     TIP3     H1       HT       0.417000       1.00800           0
     58443 TIP3     6349     TIP3     H2       HT       0.417000       1.00800           0
     58444 TIP3     6350     TIP3     OH2      OT      -0.834000       15.9994           0
     58445 TIP3     6350     TIP3     H1       HT       0.417000       1.00800           0
     58446 TIP3     6350     TIP3     H2       HT       0.417000       1.00800           0
     58447 TIP3     6351     TIP3     OH2      OT      -0.834000       15.9994           0
     58448 TIP3     6351     TIP3     H1       HT       0.417000       1.00800           0
     58449 TIP3     6351     TIP3     H2       HT       0.417000       1.00800           0
     58450 TIP3     6352     TIP3     OH2      OT      -0.834000       15.9994           0
     58451 TIP3     6352     TIP3     H1       HT       0.417000       1.00800           0
     58452 TIP3     6352     TIP3     H2       HT       0.417000       1.00800           0
     58453 TIP3     6353     TIP3     OH2      OT      -0.834000       15.9994           0
     58454 TIP3     6353     TIP3     H1       HT       0.417000       1.00800           0
     58455 TIP3     6353     TIP3     H2       HT       0.417000       1.00800           0
     58456 TIP3     6354     TIP3     OH2      OT      -0.834000       15.9994           0
     58457 TIP3     6354     TIP3     H1       HT       0.417000       1.00800           0
     58458 TIP3     6354     TIP3     H2       HT       0.417000       1.00800           0
     58459 TIP3     6355     TIP3     OH2      OT      -0.834000       15.9994           0
     58460 TIP3     6355     TIP3     H1       HT       0.417000       1.00800           0
     58461 TIP3     6355     TIP3     H2       HT       0.417000       1.00800           0
     58462 TIP3     6356     TIP3     OH2      OT      -0.834000       15.9994           0
     58463 TIP3     6356     TIP3     H1       HT       0.417000       1.00800           0
     58464 TIP3     6356     TIP3     H2       HT       0.417000       1.00800           0
     58465 TIP3     6357     TIP3     OH2      OT      -0.834000       15.9994           0
     58466 TIP3     6357     TIP3     H1       HT       0.417000       1.00800           0
     58467 TIP3     6357     TIP3     H2       HT       0.417000       1.00800           0
     58468 TIP3     6358     TIP3     OH2      OT      -0.834000       15.9994           0
     58469 TIP3     6358     TIP3     H1       HT       0.417000       1.00800           0
     58470 TIP3     6358     TIP3     H2       HT       0.417000       1.00800           0
     58471 TIP3     6359     TIP3     OH2      OT      -0.834000       15.9994           0
     58472 TIP3     6359     TIP3     H1       HT       0.417000       1.00800           0
     58473 TIP3     6359     TIP3     H2       HT       0.417000       1.00800           0
     58474 TIP3     6360     TIP3     OH2      OT      -0.834000       15.9994           0
     58475 TIP3     6360     TIP3     H1       HT       0.417000       1.00800           0
     58476 TIP3     6360     TIP3     H2       HT       0.417000       1.00800           0
     58477 TIP3     6361     TIP3     OH2      OT      -0.834000       15.9994           0
     58478 TIP3     6361     TIP3     H1       HT       0.417000       1.00800           0
     58479 TIP3     6361     TIP3     H2       HT       0.417000       1.00800           0
     58480 TIP3     6362     TIP3     OH2      OT      -0.834000       15.9994           0
     58481 TIP3     6362     TIP3     H1       HT       0.417000       1.00800           0
     58482 TIP3     6362     TIP3     H2       HT       0.417000       1.00800           0
     58483 TIP3     6363     TIP3     OH2      OT      -0.834000       15.9994           0
     58484 TIP3     6363     TIP3     H1       HT       0.417000       1.00800           0
     58485 TIP3     6363     TIP3     H2       HT       0.417000       1.00800           0
     58486 TIP3     6364     TIP3     OH2      OT      -0.834000       15.9994           0
     58487 TIP3     6364     TIP3     H1       HT       0.417000       1.00800           0
     58488 TIP3     6364     TIP3     H2       HT       0.417000       1.00800           0
     58489 TIP3     6365     TIP3     OH2      OT      -0.834000       15.9994           0
     58490 TIP3     6365     TIP3     H1       HT       0.417000       1.00800           0
     58491 TIP3     6365     TIP3     H2       HT       0.417000       1.00800           0
     58492 TIP3     6366     TIP3     OH2      OT      -0.834000       15.9994           0
     58493 TIP3     6366     TIP3     H1       HT       0.417000       1.00800           0
     58494 TIP3     6366     TIP3     H2       HT       0.417000       1.00800           0
     58495 TIP3     6367     TIP3     OH2      OT      -0.834000       15.9994           0
     58496 TIP3     6367     TIP3     H1       HT       0.417000       1.00800           0
     58497 TIP3     6367     TIP3     H2       HT       0.417000       1.00800           0
     58498 TIP3     6368     TIP3     OH2      OT      -0.834000       15.9994           0
     58499 TIP3     6368     TIP3     H1       HT       0.417000       1.00800           0
     58500 TIP3     6368     TIP3     H2       HT       0.417000       1.00800           0
     58501 TIP3     6369     TIP3     OH2      OT      -0.834000       15.9994           0
     58502 TIP3     6369     TIP3     H1       HT       0.417000       1.00800           0
     58503 TIP3     6369     TIP3     H2       HT       0.417000       1.00800           0
     58504 TIP3     6370     TIP3     OH2      OT      -0.834000       15.9994           0
     58505 TIP3     6370     TIP3     H1       HT       0.417000       1.00800           0
     58506 TIP3     6370     TIP3     H2       HT       0.417000       1.00800           0
     58507 TIP3     6371     TIP3     OH2      OT      -0.834000       15.9994           0
     58508 TIP3     6371     TIP3     H1       HT       0.417000       1.00800           0
     58509 TIP3     6371     TIP3     H2       HT       0.417000       1.00800           0
     58510 TIP3     6372     TIP3     OH2      OT      -0.834000       15.9994           0
     58511 TIP3     6372     TIP3     H1       HT       0.417000       1.00800           0
     58512 TIP3     6372     TIP3     H2       HT       0.417000       1.00800           0
     58513 TIP3     6373     TIP3     OH2      OT      -0.834000       15.9994           0
     58514 TIP3     6373     TIP3     H1       HT       0.417000       1.00800           0
     58515 TIP3     6373     TIP3     H2       HT       0.417000       1.00800           0
     58516 TIP3     6374     TIP3     OH2      OT      -0.834000       15.9994           0
     58517 TIP3     6374     TIP3     H1       HT       0.417000       1.00800           0
     58518 TIP3     6374     TIP3     H2       HT       0.417000       1.00800           0
     58519 TIP3     6375     TIP3     OH2      OT      -0.834000       15.9994           0
     58520 TIP3     6375     TIP3     H1       HT       0.417000       1.00800           0
     58521 TIP3     6375     TIP3     H2       HT       0.417000       1.00800           0
     58522 TIP3     6376     TIP3     OH2      OT      -0.834000       15.9994           0
     58523 TIP3     6376     TIP3     H1       HT       0.417000       1.00800           0
     58524 TIP3     6376     TIP3     H2       HT       0.417000       1.00800           0
     58525 TIP3     6377     TIP3     OH2      OT      -0.834000       15.9994           0
     58526 TIP3     6377     TIP3     H1       HT       0.417000       1.00800           0
     58527 TIP3     6377     TIP3     H2       HT       0.417000       1.00800           0
     58528 TIP3     6378     TIP3     OH2      OT      -0.834000       15.9994           0
     58529 TIP3     6378     TIP3     H1       HT       0.417000       1.00800           0
     58530 TIP3     6378     TIP3     H2       HT       0.417000       1.00800           0
     58531 TIP3     6379     TIP3     OH2      OT      -0.834000       15.9994           0
     58532 TIP3     6379     TIP3     H1       HT       0.417000       1.00800           0
     58533 TIP3     6379     TIP3     H2       HT       0.417000       1.00800           0
     58534 TIP3     6380     TIP3     OH2      OT      -0.834000       15.9994           0
     58535 TIP3     6380     TIP3     H1       HT       0.417000       1.00800           0
     58536 TIP3     6380     TIP3     H2       HT       0.417000       1.00800           0
     58537 TIP3     6381     TIP3     OH2      OT      -0.834000       15.9994           0
     58538 TIP3     6381     TIP3     H1       HT       0.417000       1.00800           0
     58539 TIP3     6381     TIP3     H2       HT       0.417000       1.00800           0
     58540 TIP3     6382     TIP3     OH2      OT      -0.834000       15.9994           0
     58541 TIP3     6382     TIP3     H1       HT       0.417000       1.00800           0
     58542 TIP3     6382     TIP3     H2       HT       0.417000       1.00800           0
     58543 TIP3     6383     TIP3     OH2      OT      -0.834000       15.9994           0
     58544 TIP3     6383     TIP3     H1       HT       0.417000       1.00800           0
     58545 TIP3     6383     TIP3     H2       HT       0.417000       1.00800           0
     58546 TIP3     6384     TIP3     OH2      OT      -0.834000       15.9994           0
     58547 TIP3     6384     TIP3     H1       HT       0.417000       1.00800           0
     58548 TIP3     6384     TIP3     H2       HT       0.417000       1.00800           0
     58549 TIP3     6385     TIP3     OH2      OT      -0.834000       15.9994           0
     58550 TIP3     6385     TIP3     H1       HT       0.417000       1.00800           0
     58551 TIP3     6385     TIP3     H2       HT       0.417000       1.00800           0
     58552 TIP3     6386     TIP3     OH2      OT      -0.834000       15.9994           0
     58553 TIP3     6386     TIP3     H1       HT       0.417000       1.00800           0
     58554 TIP3     6386     TIP3     H2       HT       0.417000       1.00800           0
     58555 TIP3     6387     TIP3     OH2      OT      -0.834000       15.9994           0
     58556 TIP3     6387     TIP3     H1       HT       0.417000       1.00800           0
     58557 TIP3     6387     TIP3     H2       HT       0.417000       1.00800           0
     58558 TIP3     6388     TIP3     OH2      OT      -0.834000       15.9994           0
     58559 TIP3     6388     TIP3     H1       HT       0.417000       1.00800           0
     58560 TIP3     6388     TIP3     H2       HT       0.417000       1.00800           0
     58561 TIP3     6389     TIP3     OH2      OT      -0.834000       15.9994           0
     58562 TIP3     6389     TIP3     H1       HT       0.417000       1.00800           0
     58563 TIP3     6389     TIP3     H2       HT       0.417000       1.00800           0
     58564 TIP3     6390     TIP3     OH2      OT      -0.834000       15.9994           0
     58565 TIP3     6390     TIP3     H1       HT       0.417000       1.00800           0
     58566 TIP3     6390     TIP3     H2       HT       0.417000       1.00800           0
     58567 TIP3     6391     TIP3     OH2      OT      -0.834000       15.9994           0
     58568 TIP3     6391     TIP3     H1       HT       0.417000       1.00800           0
     58569 TIP3     6391     TIP3     H2       HT       0.417000       1.00800           0
     58570 TIP3     6392     TIP3     OH2      OT      -0.834000       15.9994           0
     58571 TIP3     6392     TIP3     H1       HT       0.417000       1.00800           0
     58572 TIP3     6392     TIP3     H2       HT       0.417000       1.00800           0
     58573 TIP3     6393     TIP3     OH2      OT      -0.834000       15.9994           0
     58574 TIP3     6393     TIP3     H1       HT       0.417000       1.00800           0
     58575 TIP3     6393     TIP3     H2       HT       0.417000       1.00800           0
     58576 TIP3     6394     TIP3     OH2      OT      -0.834000       15.9994           0
     58577 TIP3     6394     TIP3     H1       HT       0.417000       1.00800           0
     58578 TIP3     6394     TIP3     H2       HT       0.417000       1.00800           0
     58579 TIP3     6395     TIP3     OH2      OT      -0.834000       15.9994           0
     58580 TIP3     6395     TIP3     H1       HT       0.417000       1.00800           0
     58581 TIP3     6395     TIP3     H2       HT       0.417000       1.00800           0
     58582 TIP3     6396     TIP3     OH2      OT      -0.834000       15.9994           0
     58583 TIP3     6396     TIP3     H1       HT       0.417000       1.00800           0
     58584 TIP3     6396     TIP3     H2       HT       0.417000       1.00800           0
     58585 TIP3     6397     TIP3     OH2      OT      -0.834000       15.9994           0
     58586 TIP3     6397     TIP3     H1       HT       0.417000       1.00800           0
     58587 TIP3     6397     TIP3     H2       HT       0.417000       1.00800           0
     58588 TIP3     6398     TIP3     OH2      OT      -0.834000       15.9994           0
     58589 TIP3     6398     TIP3     H1       HT       0.417000       1.00800           0
     58590 TIP3     6398     TIP3     H2       HT       0.417000       1.00800           0
     58591 TIP3     6399     TIP3     OH2      OT      -0.834000       15.9994           0
     58592 TIP3     6399     TIP3     H1       HT       0.417000       1.00800           0
     58593 TIP3     6399     TIP3     H2       HT       0.417000       1.00800           0
     58594 TIP3     6400     TIP3     OH2      OT      -0.834000       15.9994           0
     58595 TIP3     6400     TIP3     H1       HT       0.417000       1.00800           0
     58596 TIP3     6400     TIP3     H2       HT       0.417000       1.00800           0
     58597 TIP3     6401     TIP3     OH2      OT      -0.834000       15.9994           0
     58598 TIP3     6401     TIP3     H1       HT       0.417000       1.00800           0
     58599 TIP3     6401     TIP3     H2       HT       0.417000       1.00800           0
     58600 TIP3     6402     TIP3     OH2      OT      -0.834000       15.9994           0
     58601 TIP3     6402     TIP3     H1       HT       0.417000       1.00800           0
     58602 TIP3     6402     TIP3     H2       HT       0.417000       1.00800           0
     58603 TIP3     6403     TIP3     OH2      OT      -0.834000       15.9994           0
     58604 TIP3     6403     TIP3     H1       HT       0.417000       1.00800           0
     58605 TIP3     6403     TIP3     H2       HT       0.417000       1.00800           0
     58606 TIP3     6404     TIP3     OH2      OT      -0.834000       15.9994           0
     58607 TIP3     6404     TIP3     H1       HT       0.417000       1.00800           0
     58608 TIP3     6404     TIP3     H2       HT       0.417000       1.00800           0
     58609 TIP3     6405     TIP3     OH2      OT      -0.834000       15.9994           0
     58610 TIP3     6405     TIP3     H1       HT       0.417000       1.00800           0
     58611 TIP3     6405     TIP3     H2       HT       0.417000       1.00800           0
     58612 TIP3     6406     TIP3     OH2      OT      -0.834000       15.9994           0
     58613 TIP3     6406     TIP3     H1       HT       0.417000       1.00800           0
     58614 TIP3     6406     TIP3     H2       HT       0.417000       1.00800           0
     58615 TIP3     6407     TIP3     OH2      OT      -0.834000       15.9994           0
     58616 TIP3     6407     TIP3     H1       HT       0.417000       1.00800           0
     58617 TIP3     6407     TIP3     H2       HT       0.417000       1.00800           0
     58618 TIP3     6408     TIP3     OH2      OT      -0.834000       15.9994           0
     58619 TIP3     6408     TIP3     H1       HT       0.417000       1.00800           0
     58620 TIP3     6408     TIP3     H2       HT       0.417000       1.00800           0
     58621 TIP3     6409     TIP3     OH2      OT      -0.834000       15.9994           0
     58622 TIP3     6409     TIP3     H1       HT       0.417000       1.00800           0
     58623 TIP3     6409     TIP3     H2       HT       0.417000       1.00800           0
     58624 TIP3     6410     TIP3     OH2      OT      -0.834000       15.9994           0
     58625 TIP3     6410     TIP3     H1       HT       0.417000       1.00800           0
     58626 TIP3     6410     TIP3     H2       HT       0.417000       1.00800           0
     58627 TIP3     6411     TIP3     OH2      OT      -0.834000       15.9994           0
     58628 TIP3     6411     TIP3     H1       HT       0.417000       1.00800           0
     58629 TIP3     6411     TIP3     H2       HT       0.417000       1.00800           0
     58630 TIP3     6412     TIP3     OH2      OT      -0.834000       15.9994           0
     58631 TIP3     6412     TIP3     H1       HT       0.417000       1.00800           0
     58632 TIP3     6412     TIP3     H2       HT       0.417000       1.00800           0
     58633 TIP3     6413     TIP3     OH2      OT      -0.834000       15.9994           0
     58634 TIP3     6413     TIP3     H1       HT       0.417000       1.00800           0
     58635 TIP3     6413     TIP3     H2       HT       0.417000       1.00800           0
     58636 TIP3     6414     TIP3     OH2      OT      -0.834000       15.9994           0
     58637 TIP3     6414     TIP3     H1       HT       0.417000       1.00800           0
     58638 TIP3     6414     TIP3     H2       HT       0.417000       1.00800           0
     58639 TIP3     6415     TIP3     OH2      OT      -0.834000       15.9994           0
     58640 TIP3     6415     TIP3     H1       HT       0.417000       1.00800           0
     58641 TIP3     6415     TIP3     H2       HT       0.417000       1.00800           0
     58642 TIP3     6416     TIP3     OH2      OT      -0.834000       15.9994           0
     58643 TIP3     6416     TIP3     H1       HT       0.417000       1.00800           0
     58644 TIP3     6416     TIP3     H2       HT       0.417000       1.00800           0
     58645 TIP3     6417     TIP3     OH2      OT      -0.834000       15.9994           0
     58646 TIP3     6417     TIP3     H1       HT       0.417000       1.00800           0
     58647 TIP3     6417     TIP3     H2       HT       0.417000       1.00800           0
     58648 TIP3     6418     TIP3     OH2      OT      -0.834000       15.9994           0
     58649 TIP3     6418     TIP3     H1       HT       0.417000       1.00800           0
     58650 TIP3     6418     TIP3     H2       HT       0.417000       1.00800           0
     58651 TIP3     6419     TIP3     OH2      OT      -0.834000       15.9994           0
     58652 TIP3     6419     TIP3     H1       HT       0.417000       1.00800           0
     58653 TIP3     6419     TIP3     H2       HT       0.417000       1.00800           0
     58654 TIP3     6420     TIP3     OH2      OT      -0.834000       15.9994           0
     58655 TIP3     6420     TIP3     H1       HT       0.417000       1.00800           0
     58656 TIP3     6420     TIP3     H2       HT       0.417000       1.00800           0
     58657 TIP3     6421     TIP3     OH2      OT      -0.834000       15.9994           0
     58658 TIP3     6421     TIP3     H1       HT       0.417000       1.00800           0
     58659 TIP3     6421     TIP3     H2       HT       0.417000       1.00800           0
     58660 TIP3     6422     TIP3     OH2      OT      -0.834000       15.9994           0
     58661 TIP3     6422     TIP3     H1       HT       0.417000       1.00800           0
     58662 TIP3     6422     TIP3     H2       HT       0.417000       1.00800           0
     58663 TIP3     6423     TIP3     OH2      OT      -0.834000       15.9994           0
     58664 TIP3     6423     TIP3     H1       HT       0.417000       1.00800           0
     58665 TIP3     6423     TIP3     H2       HT       0.417000       1.00800           0
     58666 TIP3     6424     TIP3     OH2      OT      -0.834000       15.9994           0
     58667 TIP3     6424     TIP3     H1       HT       0.417000       1.00800           0
     58668 TIP3     6424     TIP3     H2       HT       0.417000       1.00800           0
     58669 TIP3     6425     TIP3     OH2      OT      -0.834000       15.9994           0
     58670 TIP3     6425     TIP3     H1       HT       0.417000       1.00800           0
     58671 TIP3     6425     TIP3     H2       HT       0.417000       1.00800           0
     58672 TIP3     6426     TIP3     OH2      OT      -0.834000       15.9994           0
     58673 TIP3     6426     TIP3     H1       HT       0.417000       1.00800           0
     58674 TIP3     6426     TIP3     H2       HT       0.417000       1.00800           0
     58675 TIP3     6427     TIP3     OH2      OT      -0.834000       15.9994           0
     58676 TIP3     6427     TIP3     H1       HT       0.417000       1.00800           0
     58677 TIP3     6427     TIP3     H2       HT       0.417000       1.00800           0
     58678 TIP3     6428     TIP3     OH2      OT      -0.834000       15.9994           0
     58679 TIP3     6428     TIP3     H1       HT       0.417000       1.00800           0
     58680 TIP3     6428     TIP3     H2       HT       0.417000       1.00800           0
     58681 TIP3     6429     TIP3     OH2      OT      -0.834000       15.9994           0
     58682 TIP3     6429     TIP3     H1       HT       0.417000       1.00800           0
     58683 TIP3     6429     TIP3     H2       HT       0.417000       1.00800           0
     58684 TIP3     6430     TIP3     OH2      OT      -0.834000       15.9994           0
     58685 TIP3     6430     TIP3     H1       HT       0.417000       1.00800           0
     58686 TIP3     6430     TIP3     H2       HT       0.417000       1.00800           0
     58687 TIP3     6431     TIP3     OH2      OT      -0.834000       15.9994           0
     58688 TIP3     6431     TIP3     H1       HT       0.417000       1.00800           0
     58689 TIP3     6431     TIP3     H2       HT       0.417000       1.00800           0
     58690 TIP3     6432     TIP3     OH2      OT      -0.834000       15.9994           0
     58691 TIP3     6432     TIP3     H1       HT       0.417000       1.00800           0
     58692 TIP3     6432     TIP3     H2       HT       0.417000       1.00800           0
     58693 TIP3     6433     TIP3     OH2      OT      -0.834000       15.9994           0
     58694 TIP3     6433     TIP3     H1       HT       0.417000       1.00800           0
     58695 TIP3     6433     TIP3     H2       HT       0.417000       1.00800           0
     58696 TIP3     6434     TIP3     OH2      OT      -0.834000       15.9994           0
     58697 TIP3     6434     TIP3     H1       HT       0.417000       1.00800           0
     58698 TIP3     6434     TIP3     H2       HT       0.417000       1.00800           0
     58699 TIP3     6435     TIP3     OH2      OT      -0.834000       15.9994           0
     58700 TIP3     6435     TIP3     H1       HT       0.417000       1.00800           0
     58701 TIP3     6435     TIP3     H2       HT       0.417000       1.00800           0
     58702 TIP3     6436     TIP3     OH2      OT      -0.834000       15.9994           0
     58703 TIP3     6436     TIP3     H1       HT       0.417000       1.00800           0
     58704 TIP3     6436     TIP3     H2       HT       0.417000       1.00800           0
     58705 TIP3     6437     TIP3     OH2      OT      -0.834000       15.9994           0
     58706 TIP3     6437     TIP3     H1       HT       0.417000       1.00800           0
     58707 TIP3     6437     TIP3     H2       HT       0.417000       1.00800           0
     58708 TIP3     6438     TIP3     OH2      OT      -0.834000       15.9994           0
     58709 TIP3     6438     TIP3     H1       HT       0.417000       1.00800           0
     58710 TIP3     6438     TIP3     H2       HT       0.417000       1.00800           0
     58711 TIP3     6439     TIP3     OH2      OT      -0.834000       15.9994           0
     58712 TIP3     6439     TIP3     H1       HT       0.417000       1.00800           0
     58713 TIP3     6439     TIP3     H2       HT       0.417000       1.00800           0
     58714 TIP3     6440     TIP3     OH2      OT      -0.834000       15.9994           0
     58715 TIP3     6440     TIP3     H1       HT       0.417000       1.00800           0
     58716 TIP3     6440     TIP3     H2       HT       0.417000       1.00800           0
     58717 TIP3     6441     TIP3     OH2      OT      -0.834000       15.9994           0
     58718 TIP3     6441     TIP3     H1       HT       0.417000       1.00800           0
     58719 TIP3     6441     TIP3     H2       HT       0.417000       1.00800           0
     58720 TIP3     6442     TIP3     OH2      OT      -0.834000       15.9994           0
     58721 TIP3     6442     TIP3     H1       HT       0.417000       1.00800           0
     58722 TIP3     6442     TIP3     H2       HT       0.417000       1.00800           0
     58723 TIP3     6443     TIP3     OH2      OT      -0.834000       15.9994           0
     58724 TIP3     6443     TIP3     H1       HT       0.417000       1.00800           0
     58725 TIP3     6443     TIP3     H2       HT       0.417000       1.00800           0
     58726 TIP3     6444     TIP3     OH2      OT      -0.834000       15.9994           0
     58727 TIP3     6444     TIP3     H1       HT       0.417000       1.00800           0
     58728 TIP3     6444     TIP3     H2       HT       0.417000       1.00800           0
     58729 TIP3     6445     TIP3     OH2      OT      -0.834000       15.9994           0
     58730 TIP3     6445     TIP3     H1       HT       0.417000       1.00800           0
     58731 TIP3     6445     TIP3     H2       HT       0.417000       1.00800           0
     58732 TIP3     6446     TIP3     OH2      OT      -0.834000       15.9994           0
     58733 TIP3     6446     TIP3     H1       HT       0.417000       1.00800           0
     58734 TIP3     6446     TIP3     H2       HT       0.417000       1.00800           0
     58735 TIP3     6447     TIP3     OH2      OT      -0.834000       15.9994           0
     58736 TIP3     6447     TIP3     H1       HT       0.417000       1.00800           0
     58737 TIP3     6447     TIP3     H2       HT       0.417000       1.00800           0
     58738 TIP3     6448     TIP3     OH2      OT      -0.834000       15.9994           0
     58739 TIP3     6448     TIP3     H1       HT       0.417000       1.00800           0
     58740 TIP3     6448     TIP3     H2       HT       0.417000       1.00800           0
     58741 TIP3     6449     TIP3     OH2      OT      -0.834000       15.9994           0
     58742 TIP3     6449     TIP3     H1       HT       0.417000       1.00800           0
     58743 TIP3     6449     TIP3     H2       HT       0.417000       1.00800           0
     58744 TIP3     6450     TIP3     OH2      OT      -0.834000       15.9994           0
     58745 TIP3     6450     TIP3     H1       HT       0.417000       1.00800           0
     58746 TIP3     6450     TIP3     H2       HT       0.417000       1.00800           0
     58747 TIP3     6451     TIP3     OH2      OT      -0.834000       15.9994           0
     58748 TIP3     6451     TIP3     H1       HT       0.417000       1.00800           0
     58749 TIP3     6451     TIP3     H2       HT       0.417000       1.00800           0
     58750 TIP3     6452     TIP3     OH2      OT      -0.834000       15.9994           0
     58751 TIP3     6452     TIP3     H1       HT       0.417000       1.00800           0
     58752 TIP3     6452     TIP3     H2       HT       0.417000       1.00800           0
     58753 TIP3     6453     TIP3     OH2      OT      -0.834000       15.9994           0
     58754 TIP3     6453     TIP3     H1       HT       0.417000       1.00800           0
     58755 TIP3     6453     TIP3     H2       HT       0.417000       1.00800           0
     58756 TIP3     6454     TIP3     OH2      OT      -0.834000       15.9994           0
     58757 TIP3     6454     TIP3     H1       HT       0.417000       1.00800           0
     58758 TIP3     6454     TIP3     H2       HT       0.417000       1.00800           0
     58759 TIP3     6455     TIP3     OH2      OT      -0.834000       15.9994           0
     58760 TIP3     6455     TIP3     H1       HT       0.417000       1.00800           0
     58761 TIP3     6455     TIP3     H2       HT       0.417000       1.00800           0
     58762 TIP3     6456     TIP3     OH2      OT      -0.834000       15.9994           0
     58763 TIP3     6456     TIP3     H1       HT       0.417000       1.00800           0
     58764 TIP3     6456     TIP3     H2       HT       0.417000       1.00800           0
     58765 TIP3     6457     TIP3     OH2      OT      -0.834000       15.9994           0
     58766 TIP3     6457     TIP3     H1       HT       0.417000       1.00800           0
     58767 TIP3     6457     TIP3     H2       HT       0.417000       1.00800           0
     58768 TIP3     6458     TIP3     OH2      OT      -0.834000       15.9994           0
     58769 TIP3     6458     TIP3     H1       HT       0.417000       1.00800           0
     58770 TIP3     6458     TIP3     H2       HT       0.417000       1.00800           0
     58771 TIP3     6459     TIP3     OH2      OT      -0.834000       15.9994           0
     58772 TIP3     6459     TIP3     H1       HT       0.417000       1.00800           0
     58773 TIP3     6459     TIP3     H2       HT       0.417000       1.00800           0
     58774 TIP3     6460     TIP3     OH2      OT      -0.834000       15.9994           0
     58775 TIP3     6460     TIP3     H1       HT       0.417000       1.00800           0
     58776 TIP3     6460     TIP3     H2       HT       0.417000       1.00800           0
     58777 TIP3     6461     TIP3     OH2      OT      -0.834000       15.9994           0
     58778 TIP3     6461     TIP3     H1       HT       0.417000       1.00800           0
     58779 TIP3     6461     TIP3     H2       HT       0.417000       1.00800           0
     58780 TIP3     6462     TIP3     OH2      OT      -0.834000       15.9994           0
     58781 TIP3     6462     TIP3     H1       HT       0.417000       1.00800           0
     58782 TIP3     6462     TIP3     H2       HT       0.417000       1.00800           0
     58783 TIP3     6463     TIP3     OH2      OT      -0.834000       15.9994           0
     58784 TIP3     6463     TIP3     H1       HT       0.417000       1.00800           0
     58785 TIP3     6463     TIP3     H2       HT       0.417000       1.00800           0
     58786 TIP3     6464     TIP3     OH2      OT      -0.834000       15.9994           0
     58787 TIP3     6464     TIP3     H1       HT       0.417000       1.00800           0
     58788 TIP3     6464     TIP3     H2       HT       0.417000       1.00800           0
     58789 TIP3     6465     TIP3     OH2      OT      -0.834000       15.9994           0
     58790 TIP3     6465     TIP3     H1       HT       0.417000       1.00800           0
     58791 TIP3     6465     TIP3     H2       HT       0.417000       1.00800           0
     58792 TIP3     6466     TIP3     OH2      OT      -0.834000       15.9994           0
     58793 TIP3     6466     TIP3     H1       HT       0.417000       1.00800           0
     58794 TIP3     6466     TIP3     H2       HT       0.417000       1.00800           0
     58795 TIP3     6467     TIP3     OH2      OT      -0.834000       15.9994           0
     58796 TIP3     6467     TIP3     H1       HT       0.417000       1.00800           0
     58797 TIP3     6467     TIP3     H2       HT       0.417000       1.00800           0
     58798 TIP3     6468     TIP3     OH2      OT      -0.834000       15.9994           0
     58799 TIP3     6468     TIP3     H1       HT       0.417000       1.00800           0
     58800 TIP3     6468     TIP3     H2       HT       0.417000       1.00800           0
     58801 TIP3     6469     TIP3     OH2      OT      -0.834000       15.9994           0
     58802 TIP3     6469     TIP3     H1       HT       0.417000       1.00800           0
     58803 TIP3     6469     TIP3     H2       HT       0.417000       1.00800           0
     58804 TIP3     6470     TIP3     OH2      OT      -0.834000       15.9994           0
     58805 TIP3     6470     TIP3     H1       HT       0.417000       1.00800           0
     58806 TIP3     6470     TIP3     H2       HT       0.417000       1.00800           0
     58807 TIP3     6471     TIP3     OH2      OT      -0.834000       15.9994           0
     58808 TIP3     6471     TIP3     H1       HT       0.417000       1.00800           0
     58809 TIP3     6471     TIP3     H2       HT       0.417000       1.00800           0
     58810 TIP3     6472     TIP3     OH2      OT      -0.834000       15.9994           0
     58811 TIP3     6472     TIP3     H1       HT       0.417000       1.00800           0
     58812 TIP3     6472     TIP3     H2       HT       0.417000       1.00800           0
     58813 TIP3     6473     TIP3     OH2      OT      -0.834000       15.9994           0
     58814 TIP3     6473     TIP3     H1       HT       0.417000       1.00800           0
     58815 TIP3     6473     TIP3     H2       HT       0.417000       1.00800           0
     58816 TIP3     6474     TIP3     OH2      OT      -0.834000       15.9994           0
     58817 TIP3     6474     TIP3     H1       HT       0.417000       1.00800           0
     58818 TIP3     6474     TIP3     H2       HT       0.417000       1.00800           0
     58819 TIP3     6475     TIP3     OH2      OT      -0.834000       15.9994           0
     58820 TIP3     6475     TIP3     H1       HT       0.417000       1.00800           0
     58821 TIP3     6475     TIP3     H2       HT       0.417000       1.00800           0
     58822 TIP3     6476     TIP3     OH2      OT      -0.834000       15.9994           0
     58823 TIP3     6476     TIP3     H1       HT       0.417000       1.00800           0
     58824 TIP3     6476     TIP3     H2       HT       0.417000       1.00800           0
     58825 TIP3     6477     TIP3     OH2      OT      -0.834000       15.9994           0
     58826 TIP3     6477     TIP3     H1       HT       0.417000       1.00800           0
     58827 TIP3     6477     TIP3     H2       HT       0.417000       1.00800           0
     58828 TIP3     6478     TIP3     OH2      OT      -0.834000       15.9994           0
     58829 TIP3     6478     TIP3     H1       HT       0.417000       1.00800           0
     58830 TIP3     6478     TIP3     H2       HT       0.417000       1.00800           0
     58831 TIP3     6479     TIP3     OH2      OT      -0.834000       15.9994           0
     58832 TIP3     6479     TIP3     H1       HT       0.417000       1.00800           0
     58833 TIP3     6479     TIP3     H2       HT       0.417000       1.00800           0
     58834 TIP3     6480     TIP3     OH2      OT      -0.834000       15.9994           0
     58835 TIP3     6480     TIP3     H1       HT       0.417000       1.00800           0
     58836 TIP3     6480     TIP3     H2       HT       0.417000       1.00800           0
     58837 TIP3     6481     TIP3     OH2      OT      -0.834000       15.9994           0
     58838 TIP3     6481     TIP3     H1       HT       0.417000       1.00800           0
     58839 TIP3     6481     TIP3     H2       HT       0.417000       1.00800           0
     58840 TIP3     6482     TIP3     OH2      OT      -0.834000       15.9994           0
     58841 TIP3     6482     TIP3     H1       HT       0.417000       1.00800           0
     58842 TIP3     6482     TIP3     H2       HT       0.417000       1.00800           0
     58843 TIP3     6483     TIP3     OH2      OT      -0.834000       15.9994           0
     58844 TIP3     6483     TIP3     H1       HT       0.417000       1.00800           0
     58845 TIP3     6483     TIP3     H2       HT       0.417000       1.00800           0
     58846 TIP3     6484     TIP3     OH2      OT      -0.834000       15.9994           0
     58847 TIP3     6484     TIP3     H1       HT       0.417000       1.00800           0
     58848 TIP3     6484     TIP3     H2       HT       0.417000       1.00800           0
     58849 TIP3     6485     TIP3     OH2      OT      -0.834000       15.9994           0
     58850 TIP3     6485     TIP3     H1       HT       0.417000       1.00800           0
     58851 TIP3     6485     TIP3     H2       HT       0.417000       1.00800           0
     58852 TIP3     6486     TIP3     OH2      OT      -0.834000       15.9994           0
     58853 TIP3     6486     TIP3     H1       HT       0.417000       1.00800           0
     58854 TIP3     6486     TIP3     H2       HT       0.417000       1.00800           0
     58855 TIP3     6487     TIP3     OH2      OT      -0.834000       15.9994           0
     58856 TIP3     6487     TIP3     H1       HT       0.417000       1.00800           0
     58857 TIP3     6487     TIP3     H2       HT       0.417000       1.00800           0
     58858 TIP3     6488     TIP3     OH2      OT      -0.834000       15.9994           0
     58859 TIP3     6488     TIP3     H1       HT       0.417000       1.00800           0
     58860 TIP3     6488     TIP3     H2       HT       0.417000       1.00800           0
     58861 TIP3     6489     TIP3     OH2      OT      -0.834000       15.9994           0
     58862 TIP3     6489     TIP3     H1       HT       0.417000       1.00800           0
     58863 TIP3     6489     TIP3     H2       HT       0.417000       1.00800           0
     58864 TIP3     6490     TIP3     OH2      OT      -0.834000       15.9994           0
     58865 TIP3     6490     TIP3     H1       HT       0.417000       1.00800           0
     58866 TIP3     6490     TIP3     H2       HT       0.417000       1.00800           0
     58867 TIP3     6491     TIP3     OH2      OT      -0.834000       15.9994           0
     58868 TIP3     6491     TIP3     H1       HT       0.417000       1.00800           0
     58869 TIP3     6491     TIP3     H2       HT       0.417000       1.00800           0
     58870 TIP3     6492     TIP3     OH2      OT      -0.834000       15.9994           0
     58871 TIP3     6492     TIP3     H1       HT       0.417000       1.00800           0
     58872 TIP3     6492     TIP3     H2       HT       0.417000       1.00800           0
     58873 TIP3     6493     TIP3     OH2      OT      -0.834000       15.9994           0
     58874 TIP3     6493     TIP3     H1       HT       0.417000       1.00800           0
     58875 TIP3     6493     TIP3     H2       HT       0.417000       1.00800           0
     58876 TIP3     6494     TIP3     OH2      OT      -0.834000       15.9994           0
     58877 TIP3     6494     TIP3     H1       HT       0.417000       1.00800           0
     58878 TIP3     6494     TIP3     H2       HT       0.417000       1.00800           0
     58879 TIP3     6495     TIP3     OH2      OT      -0.834000       15.9994           0
     58880 TIP3     6495     TIP3     H1       HT       0.417000       1.00800           0
     58881 TIP3     6495     TIP3     H2       HT       0.417000       1.00800           0
     58882 TIP3     6496     TIP3     OH2      OT      -0.834000       15.9994           0
     58883 TIP3     6496     TIP3     H1       HT       0.417000       1.00800           0
     58884 TIP3     6496     TIP3     H2       HT       0.417000       1.00800           0
     58885 TIP3     6497     TIP3     OH2      OT      -0.834000       15.9994           0
     58886 TIP3     6497     TIP3     H1       HT       0.417000       1.00800           0
     58887 TIP3     6497     TIP3     H2       HT       0.417000       1.00800           0
     58888 TIP3     6498     TIP3     OH2      OT      -0.834000       15.9994           0
     58889 TIP3     6498     TIP3     H1       HT       0.417000       1.00800           0
     58890 TIP3     6498     TIP3     H2       HT       0.417000       1.00800           0
     58891 TIP3     6499     TIP3     OH2      OT      -0.834000       15.9994           0
     58892 TIP3     6499     TIP3     H1       HT       0.417000       1.00800           0
     58893 TIP3     6499     TIP3     H2       HT       0.417000       1.00800           0
     58894 TIP3     6500     TIP3     OH2      OT      -0.834000       15.9994           0
     58895 TIP3     6500     TIP3     H1       HT       0.417000       1.00800           0
     58896 TIP3     6500     TIP3     H2       HT       0.417000       1.00800           0
     58897 TIP3     6501     TIP3     OH2      OT      -0.834000       15.9994           0
     58898 TIP3     6501     TIP3     H1       HT       0.417000       1.00800           0
     58899 TIP3     6501     TIP3     H2       HT       0.417000       1.00800           0
     58900 TIP3     6502     TIP3     OH2      OT      -0.834000       15.9994           0
     58901 TIP3     6502     TIP3     H1       HT       0.417000       1.00800           0
     58902 TIP3     6502     TIP3     H2       HT       0.417000       1.00800           0
     58903 TIP3     6503     TIP3     OH2      OT      -0.834000       15.9994           0
     58904 TIP3     6503     TIP3     H1       HT       0.417000       1.00800           0
     58905 TIP3     6503     TIP3     H2       HT       0.417000       1.00800           0
     58906 TIP3     6504     TIP3     OH2      OT      -0.834000       15.9994           0
     58907 TIP3     6504     TIP3     H1       HT       0.417000       1.00800           0
     58908 TIP3     6504     TIP3     H2       HT       0.417000       1.00800           0
     58909 TIP3     6505     TIP3     OH2      OT      -0.834000       15.9994           0
     58910 TIP3     6505     TIP3     H1       HT       0.417000       1.00800           0
     58911 TIP3     6505     TIP3     H2       HT       0.417000       1.00800           0
     58912 TIP3     6506     TIP3     OH2      OT      -0.834000       15.9994           0
     58913 TIP3     6506     TIP3     H1       HT       0.417000       1.00800           0
     58914 TIP3     6506     TIP3     H2       HT       0.417000       1.00800           0
     58915 TIP3     6507     TIP3     OH2      OT      -0.834000       15.9994           0
     58916 TIP3     6507     TIP3     H1       HT       0.417000       1.00800           0
     58917 TIP3     6507     TIP3     H2       HT       0.417000       1.00800           0
     58918 TIP3     6508     TIP3     OH2      OT      -0.834000       15.9994           0
     58919 TIP3     6508     TIP3     H1       HT       0.417000       1.00800           0
     58920 TIP3     6508     TIP3     H2       HT       0.417000       1.00800           0
     58921 TIP3     6509     TIP3     OH2      OT      -0.834000       15.9994           0
     58922 TIP3     6509     TIP3     H1       HT       0.417000       1.00800           0
     58923 TIP3     6509     TIP3     H2       HT       0.417000       1.00800           0
     58924 TIP3     6510     TIP3     OH2      OT      -0.834000       15.9994           0
     58925 TIP3     6510     TIP3     H1       HT       0.417000       1.00800           0
     58926 TIP3     6510     TIP3     H2       HT       0.417000       1.00800           0
     58927 TIP3     6511     TIP3     OH2      OT      -0.834000       15.9994           0
     58928 TIP3     6511     TIP3     H1       HT       0.417000       1.00800           0
     58929 TIP3     6511     TIP3     H2       HT       0.417000       1.00800           0
     58930 TIP3     6512     TIP3     OH2      OT      -0.834000       15.9994           0
     58931 TIP3     6512     TIP3     H1       HT       0.417000       1.00800           0
     58932 TIP3     6512     TIP3     H2       HT       0.417000       1.00800           0
     58933 TIP3     6513     TIP3     OH2      OT      -0.834000       15.9994           0
     58934 TIP3     6513     TIP3     H1       HT       0.417000       1.00800           0
     58935 TIP3     6513     TIP3     H2       HT       0.417000       1.00800           0
     58936 TIP3     6514     TIP3     OH2      OT      -0.834000       15.9994           0
     58937 TIP3     6514     TIP3     H1       HT       0.417000       1.00800           0
     58938 TIP3     6514     TIP3     H2       HT       0.417000       1.00800           0
     58939 TIP3     6515     TIP3     OH2      OT      -0.834000       15.9994           0
     58940 TIP3     6515     TIP3     H1       HT       0.417000       1.00800           0
     58941 TIP3     6515     TIP3     H2       HT       0.417000       1.00800           0
     58942 TIP3     6516     TIP3     OH2      OT      -0.834000       15.9994           0
     58943 TIP3     6516     TIP3     H1       HT       0.417000       1.00800           0
     58944 TIP3     6516     TIP3     H2       HT       0.417000       1.00800           0
     58945 TIP3     6517     TIP3     OH2      OT      -0.834000       15.9994           0
     58946 TIP3     6517     TIP3     H1       HT       0.417000       1.00800           0
     58947 TIP3     6517     TIP3     H2       HT       0.417000       1.00800           0
     58948 TIP3     6518     TIP3     OH2      OT      -0.834000       15.9994           0
     58949 TIP3     6518     TIP3     H1       HT       0.417000       1.00800           0
     58950 TIP3     6518     TIP3     H2       HT       0.417000       1.00800           0
     58951 TIP3     6519     TIP3     OH2      OT      -0.834000       15.9994           0
     58952 TIP3     6519     TIP3     H1       HT       0.417000       1.00800           0
     58953 TIP3     6519     TIP3     H2       HT       0.417000       1.00800           0
     58954 TIP3     6520     TIP3     OH2      OT      -0.834000       15.9994           0
     58955 TIP3     6520     TIP3     H1       HT       0.417000       1.00800           0
     58956 TIP3     6520     TIP3     H2       HT       0.417000       1.00800           0
     58957 TIP3     6521     TIP3     OH2      OT      -0.834000       15.9994           0
     58958 TIP3     6521     TIP3     H1       HT       0.417000       1.00800           0
     58959 TIP3     6521     TIP3     H2       HT       0.417000       1.00800           0
     58960 TIP3     6522     TIP3     OH2      OT      -0.834000       15.9994           0
     58961 TIP3     6522     TIP3     H1       HT       0.417000       1.00800           0
     58962 TIP3     6522     TIP3     H2       HT       0.417000       1.00800           0
     58963 TIP3     6523     TIP3     OH2      OT      -0.834000       15.9994           0
     58964 TIP3     6523     TIP3     H1       HT       0.417000       1.00800           0
     58965 TIP3     6523     TIP3     H2       HT       0.417000       1.00800           0
     58966 TIP3     6524     TIP3     OH2      OT      -0.834000       15.9994           0
     58967 TIP3     6524     TIP3     H1       HT       0.417000       1.00800           0
     58968 TIP3     6524     TIP3     H2       HT       0.417000       1.00800           0
     58969 TIP3     6525     TIP3     OH2      OT      -0.834000       15.9994           0
     58970 TIP3     6525     TIP3     H1       HT       0.417000       1.00800           0
     58971 TIP3     6525     TIP3     H2       HT       0.417000       1.00800           0
     58972 TIP3     6526     TIP3     OH2      OT      -0.834000       15.9994           0
     58973 TIP3     6526     TIP3     H1       HT       0.417000       1.00800           0
     58974 TIP3     6526     TIP3     H2       HT       0.417000       1.00800           0
     58975 TIP3     6527     TIP3     OH2      OT      -0.834000       15.9994           0
     58976 TIP3     6527     TIP3     H1       HT       0.417000       1.00800           0
     58977 TIP3     6527     TIP3     H2       HT       0.417000       1.00800           0
     58978 TIP3     6528     TIP3     OH2      OT      -0.834000       15.9994           0
     58979 TIP3     6528     TIP3     H1       HT       0.417000       1.00800           0
     58980 TIP3     6528     TIP3     H2       HT       0.417000       1.00800           0
     58981 TIP3     6529     TIP3     OH2      OT      -0.834000       15.9994           0
     58982 TIP3     6529     TIP3     H1       HT       0.417000       1.00800           0
     58983 TIP3     6529     TIP3     H2       HT       0.417000       1.00800           0
     58984 TIP3     6530     TIP3     OH2      OT      -0.834000       15.9994           0
     58985 TIP3     6530     TIP3     H1       HT       0.417000       1.00800           0
     58986 TIP3     6530     TIP3     H2       HT       0.417000       1.00800           0
     58987 TIP3     6531     TIP3     OH2      OT      -0.834000       15.9994           0
     58988 TIP3     6531     TIP3     H1       HT       0.417000       1.00800           0
     58989 TIP3     6531     TIP3     H2       HT       0.417000       1.00800           0
     58990 TIP3     6532     TIP3     OH2      OT      -0.834000       15.9994           0
     58991 TIP3     6532     TIP3     H1       HT       0.417000       1.00800           0
     58992 TIP3     6532     TIP3     H2       HT       0.417000       1.00800           0
     58993 TIP3     6533     TIP3     OH2      OT      -0.834000       15.9994           0
     58994 TIP3     6533     TIP3     H1       HT       0.417000       1.00800           0
     58995 TIP3     6533     TIP3     H2       HT       0.417000       1.00800           0
     58996 TIP3     6534     TIP3     OH2      OT      -0.834000       15.9994           0
     58997 TIP3     6534     TIP3     H1       HT       0.417000       1.00800           0
     58998 TIP3     6534     TIP3     H2       HT       0.417000       1.00800           0
     58999 TIP3     6535     TIP3     OH2      OT      -0.834000       15.9994           0
     59000 TIP3     6535     TIP3     H1       HT       0.417000       1.00800           0
     59001 TIP3     6535     TIP3     H2       HT       0.417000       1.00800           0
     59002 TIP3     6536     TIP3     OH2      OT      -0.834000       15.9994           0
     59003 TIP3     6536     TIP3     H1       HT       0.417000       1.00800           0
     59004 TIP3     6536     TIP3     H2       HT       0.417000       1.00800           0
     59005 TIP3     6537     TIP3     OH2      OT      -0.834000       15.9994           0
     59006 TIP3     6537     TIP3     H1       HT       0.417000       1.00800           0
     59007 TIP3     6537     TIP3     H2       HT       0.417000       1.00800           0
     59008 TIP3     6538     TIP3     OH2      OT      -0.834000       15.9994           0
     59009 TIP3     6538     TIP3     H1       HT       0.417000       1.00800           0
     59010 TIP3     6538     TIP3     H2       HT       0.417000       1.00800           0
     59011 TIP3     6539     TIP3     OH2      OT      -0.834000       15.9994           0
     59012 TIP3     6539     TIP3     H1       HT       0.417000       1.00800           0
     59013 TIP3     6539     TIP3     H2       HT       0.417000       1.00800           0
     59014 TIP3     6540     TIP3     OH2      OT      -0.834000       15.9994           0
     59015 TIP3     6540     TIP3     H1       HT       0.417000       1.00800           0
     59016 TIP3     6540     TIP3     H2       HT       0.417000       1.00800           0
     59017 TIP3     6541     TIP3     OH2      OT      -0.834000       15.9994           0
     59018 TIP3     6541     TIP3     H1       HT       0.417000       1.00800           0
     59019 TIP3     6541     TIP3     H2       HT       0.417000       1.00800           0
     59020 TIP3     6542     TIP3     OH2      OT      -0.834000       15.9994           0
     59021 TIP3     6542     TIP3     H1       HT       0.417000       1.00800           0
     59022 TIP3     6542     TIP3     H2       HT       0.417000       1.00800           0
     59023 TIP3     6543     TIP3     OH2      OT      -0.834000       15.9994           0
     59024 TIP3     6543     TIP3     H1       HT       0.417000       1.00800           0
     59025 TIP3     6543     TIP3     H2       HT       0.417000       1.00800           0
     59026 TIP3     6544     TIP3     OH2      OT      -0.834000       15.9994           0
     59027 TIP3     6544     TIP3     H1       HT       0.417000       1.00800           0
     59028 TIP3     6544     TIP3     H2       HT       0.417000       1.00800           0
     59029 TIP3     6545     TIP3     OH2      OT      -0.834000       15.9994           0
     59030 TIP3     6545     TIP3     H1       HT       0.417000       1.00800           0
     59031 TIP3     6545     TIP3     H2       HT       0.417000       1.00800           0
     59032 TIP3     6546     TIP3     OH2      OT      -0.834000       15.9994           0
     59033 TIP3     6546     TIP3     H1       HT       0.417000       1.00800           0
     59034 TIP3     6546     TIP3     H2       HT       0.417000       1.00800           0
     59035 TIP3     6547     TIP3     OH2      OT      -0.834000       15.9994           0
     59036 TIP3     6547     TIP3     H1       HT       0.417000       1.00800           0
     59037 TIP3     6547     TIP3     H2       HT       0.417000       1.00800           0
     59038 TIP3     6548     TIP3     OH2      OT      -0.834000       15.9994           0
     59039 TIP3     6548     TIP3     H1       HT       0.417000       1.00800           0
     59040 TIP3     6548     TIP3     H2       HT       0.417000       1.00800           0
     59041 TIP3     6549     TIP3     OH2      OT      -0.834000       15.9994           0
     59042 TIP3     6549     TIP3     H1       HT       0.417000       1.00800           0
     59043 TIP3     6549     TIP3     H2       HT       0.417000       1.00800           0
     59044 TIP3     6550     TIP3     OH2      OT      -0.834000       15.9994           0
     59045 TIP3     6550     TIP3     H1       HT       0.417000       1.00800           0
     59046 TIP3     6550     TIP3     H2       HT       0.417000       1.00800           0
     59047 TIP3     6551     TIP3     OH2      OT      -0.834000       15.9994           0
     59048 TIP3     6551     TIP3     H1       HT       0.417000       1.00800           0
     59049 TIP3     6551     TIP3     H2       HT       0.417000       1.00800           0
     59050 TIP3     6552     TIP3     OH2      OT      -0.834000       15.9994           0
     59051 TIP3     6552     TIP3     H1       HT       0.417000       1.00800           0
     59052 TIP3     6552     TIP3     H2       HT       0.417000       1.00800           0
     59053 TIP3     6553     TIP3     OH2      OT      -0.834000       15.9994           0
     59054 TIP3     6553     TIP3     H1       HT       0.417000       1.00800           0
     59055 TIP3     6553     TIP3     H2       HT       0.417000       1.00800           0
     59056 TIP3     6554     TIP3     OH2      OT      -0.834000       15.9994           0
     59057 TIP3     6554     TIP3     H1       HT       0.417000       1.00800           0
     59058 TIP3     6554     TIP3     H2       HT       0.417000       1.00800           0
     59059 TIP3     6555     TIP3     OH2      OT      -0.834000       15.9994           0
     59060 TIP3     6555     TIP3     H1       HT       0.417000       1.00800           0
     59061 TIP3     6555     TIP3     H2       HT       0.417000       1.00800           0
     59062 TIP3     6556     TIP3     OH2      OT      -0.834000       15.9994           0
     59063 TIP3     6556     TIP3     H1       HT       0.417000       1.00800           0
     59064 TIP3     6556     TIP3     H2       HT       0.417000       1.00800           0
     59065 TIP3     6557     TIP3     OH2      OT      -0.834000       15.9994           0
     59066 TIP3     6557     TIP3     H1       HT       0.417000       1.00800           0
     59067 TIP3     6557     TIP3     H2       HT       0.417000       1.00800           0
     59068 TIP3     6558     TIP3     OH2      OT      -0.834000       15.9994           0
     59069 TIP3     6558     TIP3     H1       HT       0.417000       1.00800           0
     59070 TIP3     6558     TIP3     H2       HT       0.417000       1.00800           0
     59071 TIP3     6559     TIP3     OH2      OT      -0.834000       15.9994           0
     59072 TIP3     6559     TIP3     H1       HT       0.417000       1.00800           0
     59073 TIP3     6559     TIP3     H2       HT       0.417000       1.00800           0
     59074 TIP3     6560     TIP3     OH2      OT      -0.834000       15.9994           0
     59075 TIP3     6560     TIP3     H1       HT       0.417000       1.00800           0
     59076 TIP3     6560     TIP3     H2       HT       0.417000       1.00800           0
     59077 TIP3     6561     TIP3     OH2      OT      -0.834000       15.9994           0
     59078 TIP3     6561     TIP3     H1       HT       0.417000       1.00800           0
     59079 TIP3     6561     TIP3     H2       HT       0.417000       1.00800           0
     59080 TIP3     6562     TIP3     OH2      OT      -0.834000       15.9994           0
     59081 TIP3     6562     TIP3     H1       HT       0.417000       1.00800           0
     59082 TIP3     6562     TIP3     H2       HT       0.417000       1.00800           0
     59083 TIP3     6563     TIP3     OH2      OT      -0.834000       15.9994           0
     59084 TIP3     6563     TIP3     H1       HT       0.417000       1.00800           0
     59085 TIP3     6563     TIP3     H2       HT       0.417000       1.00800           0
     59086 TIP3     6564     TIP3     OH2      OT      -0.834000       15.9994           0
     59087 TIP3     6564     TIP3     H1       HT       0.417000       1.00800           0
     59088 TIP3     6564     TIP3     H2       HT       0.417000       1.00800           0
     59089 TIP3     6565     TIP3     OH2      OT      -0.834000       15.9994           0
     59090 TIP3     6565     TIP3     H1       HT       0.417000       1.00800           0
     59091 TIP3     6565     TIP3     H2       HT       0.417000       1.00800           0
     59092 TIP3     6566     TIP3     OH2      OT      -0.834000       15.9994           0
     59093 TIP3     6566     TIP3     H1       HT       0.417000       1.00800           0
     59094 TIP3     6566     TIP3     H2       HT       0.417000       1.00800           0
     59095 TIP3     6567     TIP3     OH2      OT      -0.834000       15.9994           0
     59096 TIP3     6567     TIP3     H1       HT       0.417000       1.00800           0
     59097 TIP3     6567     TIP3     H2       HT       0.417000       1.00800           0
     59098 TIP3     6568     TIP3     OH2      OT      -0.834000       15.9994           0
     59099 TIP3     6568     TIP3     H1       HT       0.417000       1.00800           0
     59100 TIP3     6568     TIP3     H2       HT       0.417000       1.00800           0
     59101 TIP3     6569     TIP3     OH2      OT      -0.834000       15.9994           0
     59102 TIP3     6569     TIP3     H1       HT       0.417000       1.00800           0
     59103 TIP3     6569     TIP3     H2       HT       0.417000       1.00800           0
     59104 TIP3     6570     TIP3     OH2      OT      -0.834000       15.9994           0
     59105 TIP3     6570     TIP3     H1       HT       0.417000       1.00800           0
     59106 TIP3     6570     TIP3     H2       HT       0.417000       1.00800           0
     59107 TIP3     6571     TIP3     OH2      OT      -0.834000       15.9994           0
     59108 TIP3     6571     TIP3     H1       HT       0.417000       1.00800           0
     59109 TIP3     6571     TIP3     H2       HT       0.417000       1.00800           0
     59110 TIP3     6572     TIP3     OH2      OT      -0.834000       15.9994           0
     59111 TIP3     6572     TIP3     H1       HT       0.417000       1.00800           0
     59112 TIP3     6572     TIP3     H2       HT       0.417000       1.00800           0
     59113 TIP3     6573     TIP3     OH2      OT      -0.834000       15.9994           0
     59114 TIP3     6573     TIP3     H1       HT       0.417000       1.00800           0
     59115 TIP3     6573     TIP3     H2       HT       0.417000       1.00800           0
     59116 TIP3     6574     TIP3     OH2      OT      -0.834000       15.9994           0
     59117 TIP3     6574     TIP3     H1       HT       0.417000       1.00800           0
     59118 TIP3     6574     TIP3     H2       HT       0.417000       1.00800           0
     59119 TIP3     6575     TIP3     OH2      OT      -0.834000       15.9994           0
     59120 TIP3     6575     TIP3     H1       HT       0.417000       1.00800           0
     59121 TIP3     6575     TIP3     H2       HT       0.417000       1.00800           0
     59122 TIP3     6576     TIP3     OH2      OT      -0.834000       15.9994           0
     59123 TIP3     6576     TIP3     H1       HT       0.417000       1.00800           0
     59124 TIP3     6576     TIP3     H2       HT       0.417000       1.00800           0
     59125 TIP3     6577     TIP3     OH2      OT      -0.834000       15.9994           0
     59126 TIP3     6577     TIP3     H1       HT       0.417000       1.00800           0
     59127 TIP3     6577     TIP3     H2       HT       0.417000       1.00800           0
     59128 TIP3     6578     TIP3     OH2      OT      -0.834000       15.9994           0
     59129 TIP3     6578     TIP3     H1       HT       0.417000       1.00800           0
     59130 TIP3     6578     TIP3     H2       HT       0.417000       1.00800           0
     59131 TIP3     6579     TIP3     OH2      OT      -0.834000       15.9994           0
     59132 TIP3     6579     TIP3     H1       HT       0.417000       1.00800           0
     59133 TIP3     6579     TIP3     H2       HT       0.417000       1.00800           0
     59134 TIP3     6580     TIP3     OH2      OT      -0.834000       15.9994           0
     59135 TIP3     6580     TIP3     H1       HT       0.417000       1.00800           0
     59136 TIP3     6580     TIP3     H2       HT       0.417000       1.00800           0
     59137 TIP3     6581     TIP3     OH2      OT      -0.834000       15.9994           0
     59138 TIP3     6581     TIP3     H1       HT       0.417000       1.00800           0
     59139 TIP3     6581     TIP3     H2       HT       0.417000       1.00800           0
     59140 TIP3     6582     TIP3     OH2      OT      -0.834000       15.9994           0
     59141 TIP3     6582     TIP3     H1       HT       0.417000       1.00800           0
     59142 TIP3     6582     TIP3     H2       HT       0.417000       1.00800           0
     59143 TIP3     6583     TIP3     OH2      OT      -0.834000       15.9994           0
     59144 TIP3     6583     TIP3     H1       HT       0.417000       1.00800           0
     59145 TIP3     6583     TIP3     H2       HT       0.417000       1.00800           0
     59146 TIP3     6584     TIP3     OH2      OT      -0.834000       15.9994           0
     59147 TIP3     6584     TIP3     H1       HT       0.417000       1.00800           0
     59148 TIP3     6584     TIP3     H2       HT       0.417000       1.00800           0
     59149 TIP3     6585     TIP3     OH2      OT      -0.834000       15.9994           0
     59150 TIP3     6585     TIP3     H1       HT       0.417000       1.00800           0
     59151 TIP3     6585     TIP3     H2       HT       0.417000       1.00800           0
     59152 TIP3     6586     TIP3     OH2      OT      -0.834000       15.9994           0
     59153 TIP3     6586     TIP3     H1       HT       0.417000       1.00800           0
     59154 TIP3     6586     TIP3     H2       HT       0.417000       1.00800           0
     59155 TIP3     6587     TIP3     OH2      OT      -0.834000       15.9994           0
     59156 TIP3     6587     TIP3     H1       HT       0.417000       1.00800           0
     59157 TIP3     6587     TIP3     H2       HT       0.417000       1.00800           0
     59158 TIP3     6588     TIP3     OH2      OT      -0.834000       15.9994           0
     59159 TIP3     6588     TIP3     H1       HT       0.417000       1.00800           0
     59160 TIP3     6588     TIP3     H2       HT       0.417000       1.00800           0
     59161 TIP3     6589     TIP3     OH2      OT      -0.834000       15.9994           0
     59162 TIP3     6589     TIP3     H1       HT       0.417000       1.00800           0
     59163 TIP3     6589     TIP3     H2       HT       0.417000       1.00800           0
     59164 TIP3     6590     TIP3     OH2      OT      -0.834000       15.9994           0
     59165 TIP3     6590     TIP3     H1       HT       0.417000       1.00800           0
     59166 TIP3     6590     TIP3     H2       HT       0.417000       1.00800           0
     59167 TIP3     6591     TIP3     OH2      OT      -0.834000       15.9994           0
     59168 TIP3     6591     TIP3     H1       HT       0.417000       1.00800           0
     59169 TIP3     6591     TIP3     H2       HT       0.417000       1.00800           0
     59170 TIP3     6592     TIP3     OH2      OT      -0.834000       15.9994           0
     59171 TIP3     6592     TIP3     H1       HT       0.417000       1.00800           0
     59172 TIP3     6592     TIP3     H2       HT       0.417000       1.00800           0
     59173 TIP3     6593     TIP3     OH2      OT      -0.834000       15.9994           0
     59174 TIP3     6593     TIP3     H1       HT       0.417000       1.00800           0
     59175 TIP3     6593     TIP3     H2       HT       0.417000       1.00800           0
     59176 TIP3     6594     TIP3     OH2      OT      -0.834000       15.9994           0
     59177 TIP3     6594     TIP3     H1       HT       0.417000       1.00800           0
     59178 TIP3     6594     TIP3     H2       HT       0.417000       1.00800           0
     59179 TIP3     6595     TIP3     OH2      OT      -0.834000       15.9994           0
     59180 TIP3     6595     TIP3     H1       HT       0.417000       1.00800           0
     59181 TIP3     6595     TIP3     H2       HT       0.417000       1.00800           0
     59182 TIP3     6596     TIP3     OH2      OT      -0.834000       15.9994           0
     59183 TIP3     6596     TIP3     H1       HT       0.417000       1.00800           0
     59184 TIP3     6596     TIP3     H2       HT       0.417000       1.00800           0
     59185 TIP3     6597     TIP3     OH2      OT      -0.834000       15.9994           0
     59186 TIP3     6597     TIP3     H1       HT       0.417000       1.00800           0
     59187 TIP3     6597     TIP3     H2       HT       0.417000       1.00800           0
     59188 TIP3     6598     TIP3     OH2      OT      -0.834000       15.9994           0
     59189 TIP3     6598     TIP3     H1       HT       0.417000       1.00800           0
     59190 TIP3     6598     TIP3     H2       HT       0.417000       1.00800           0
     59191 TIP3     6599     TIP3     OH2      OT      -0.834000       15.9994           0
     59192 TIP3     6599     TIP3     H1       HT       0.417000       1.00800           0
     59193 TIP3     6599     TIP3     H2       HT       0.417000       1.00800           0
     59194 TIP3     6600     TIP3     OH2      OT      -0.834000       15.9994           0
     59195 TIP3     6600     TIP3     H1       HT       0.417000       1.00800           0
     59196 TIP3     6600     TIP3     H2       HT       0.417000       1.00800           0
     59197 TIP3     6601     TIP3     OH2      OT      -0.834000       15.9994           0
     59198 TIP3     6601     TIP3     H1       HT       0.417000       1.00800           0
     59199 TIP3     6601     TIP3     H2       HT       0.417000       1.00800           0
     59200 TIP3     6602     TIP3     OH2      OT      -0.834000       15.9994           0
     59201 TIP3     6602     TIP3     H1       HT       0.417000       1.00800           0
     59202 TIP3     6602     TIP3     H2       HT       0.417000       1.00800           0
     59203 TIP3     6603     TIP3     OH2      OT      -0.834000       15.9994           0
     59204 TIP3     6603     TIP3     H1       HT       0.417000       1.00800           0
     59205 TIP3     6603     TIP3     H2       HT       0.417000       1.00800           0
     59206 TIP3     6604     TIP3     OH2      OT      -0.834000       15.9994           0
     59207 TIP3     6604     TIP3     H1       HT       0.417000       1.00800           0
     59208 TIP3     6604     TIP3     H2       HT       0.417000       1.00800           0
     59209 TIP3     6605     TIP3     OH2      OT      -0.834000       15.9994           0
     59210 TIP3     6605     TIP3     H1       HT       0.417000       1.00800           0
     59211 TIP3     6605     TIP3     H2       HT       0.417000       1.00800           0
     59212 TIP3     6606     TIP3     OH2      OT      -0.834000       15.9994           0
     59213 TIP3     6606     TIP3     H1       HT       0.417000       1.00800           0
     59214 TIP3     6606     TIP3     H2       HT       0.417000       1.00800           0
     59215 TIP3     6607     TIP3     OH2      OT      -0.834000       15.9994           0
     59216 TIP3     6607     TIP3     H1       HT       0.417000       1.00800           0
     59217 TIP3     6607     TIP3     H2       HT       0.417000       1.00800           0
     59218 TIP3     6608     TIP3     OH2      OT      -0.834000       15.9994           0
     59219 TIP3     6608     TIP3     H1       HT       0.417000       1.00800           0
     59220 TIP3     6608     TIP3     H2       HT       0.417000       1.00800           0
     59221 TIP3     6609     TIP3     OH2      OT      -0.834000       15.9994           0
     59222 TIP3     6609     TIP3     H1       HT       0.417000       1.00800           0
     59223 TIP3     6609     TIP3     H2       HT       0.417000       1.00800           0
     59224 TIP3     6610     TIP3     OH2      OT      -0.834000       15.9994           0
     59225 TIP3     6610     TIP3     H1       HT       0.417000       1.00800           0
     59226 TIP3     6610     TIP3     H2       HT       0.417000       1.00800           0
     59227 TIP3     6611     TIP3     OH2      OT      -0.834000       15.9994           0
     59228 TIP3     6611     TIP3     H1       HT       0.417000       1.00800           0
     59229 TIP3     6611     TIP3     H2       HT       0.417000       1.00800           0
     59230 TIP3     6612     TIP3     OH2      OT      -0.834000       15.9994           0
     59231 TIP3     6612     TIP3     H1       HT       0.417000       1.00800           0
     59232 TIP3     6612     TIP3     H2       HT       0.417000       1.00800           0
     59233 TIP3     6613     TIP3     OH2      OT      -0.834000       15.9994           0
     59234 TIP3     6613     TIP3     H1       HT       0.417000       1.00800           0
     59235 TIP3     6613     TIP3     H2       HT       0.417000       1.00800           0
     59236 TIP3     6614     TIP3     OH2      OT      -0.834000       15.9994           0
     59237 TIP3     6614     TIP3     H1       HT       0.417000       1.00800           0
     59238 TIP3     6614     TIP3     H2       HT       0.417000       1.00800           0
     59239 TIP3     6615     TIP3     OH2      OT      -0.834000       15.9994           0
     59240 TIP3     6615     TIP3     H1       HT       0.417000       1.00800           0
     59241 TIP3     6615     TIP3     H2       HT       0.417000       1.00800           0
     59242 TIP3     6616     TIP3     OH2      OT      -0.834000       15.9994           0
     59243 TIP3     6616     TIP3     H1       HT       0.417000       1.00800           0
     59244 TIP3     6616     TIP3     H2       HT       0.417000       1.00800           0
     59245 TIP3     6617     TIP3     OH2      OT      -0.834000       15.9994           0
     59246 TIP3     6617     TIP3     H1       HT       0.417000       1.00800           0
     59247 TIP3     6617     TIP3     H2       HT       0.417000       1.00800           0
     59248 TIP3     6618     TIP3     OH2      OT      -0.834000       15.9994           0
     59249 TIP3     6618     TIP3     H1       HT       0.417000       1.00800           0
     59250 TIP3     6618     TIP3     H2       HT       0.417000       1.00800           0
     59251 TIP3     6619     TIP3     OH2      OT      -0.834000       15.9994           0
     59252 TIP3     6619     TIP3     H1       HT       0.417000       1.00800           0
     59253 TIP3     6619     TIP3     H2       HT       0.417000       1.00800           0
     59254 TIP3     6620     TIP3     OH2      OT      -0.834000       15.9994           0
     59255 TIP3     6620     TIP3     H1       HT       0.417000       1.00800           0
     59256 TIP3     6620     TIP3     H2       HT       0.417000       1.00800           0
     59257 TIP3     6621     TIP3     OH2      OT      -0.834000       15.9994           0
     59258 TIP3     6621     TIP3     H1       HT       0.417000       1.00800           0
     59259 TIP3     6621     TIP3     H2       HT       0.417000       1.00800           0
     59260 TIP3     6622     TIP3     OH2      OT      -0.834000       15.9994           0
     59261 TIP3     6622     TIP3     H1       HT       0.417000       1.00800           0
     59262 TIP3     6622     TIP3     H2       HT       0.417000       1.00800           0
     59263 TIP3     6623     TIP3     OH2      OT      -0.834000       15.9994           0
     59264 TIP3     6623     TIP3     H1       HT       0.417000       1.00800           0
     59265 TIP3     6623     TIP3     H2       HT       0.417000       1.00800           0
     59266 TIP3     6624     TIP3     OH2      OT      -0.834000       15.9994           0
     59267 TIP3     6624     TIP3     H1       HT       0.417000       1.00800           0
     59268 TIP3     6624     TIP3     H2       HT       0.417000       1.00800           0
     59269 TIP3     6625     TIP3     OH2      OT      -0.834000       15.9994           0
     59270 TIP3     6625     TIP3     H1       HT       0.417000       1.00800           0
     59271 TIP3     6625     TIP3     H2       HT       0.417000       1.00800           0
     59272 TIP3     6626     TIP3     OH2      OT      -0.834000       15.9994           0
     59273 TIP3     6626     TIP3     H1       HT       0.417000       1.00800           0
     59274 TIP3     6626     TIP3     H2       HT       0.417000       1.00800           0
     59275 TIP3     6627     TIP3     OH2      OT      -0.834000       15.9994           0
     59276 TIP3     6627     TIP3     H1       HT       0.417000       1.00800           0
     59277 TIP3     6627     TIP3     H2       HT       0.417000       1.00800           0
     59278 TIP3     6628     TIP3     OH2      OT      -0.834000       15.9994           0
     59279 TIP3     6628     TIP3     H1       HT       0.417000       1.00800           0
     59280 TIP3     6628     TIP3     H2       HT       0.417000       1.00800           0
     59281 TIP3     6629     TIP3     OH2      OT      -0.834000       15.9994           0
     59282 TIP3     6629     TIP3     H1       HT       0.417000       1.00800           0
     59283 TIP3     6629     TIP3     H2       HT       0.417000       1.00800           0
     59284 TIP3     6630     TIP3     OH2      OT      -0.834000       15.9994           0
     59285 TIP3     6630     TIP3     H1       HT       0.417000       1.00800           0
     59286 TIP3     6630     TIP3     H2       HT       0.417000       1.00800           0
     59287 TIP3     6631     TIP3     OH2      OT      -0.834000       15.9994           0
     59288 TIP3     6631     TIP3     H1       HT       0.417000       1.00800           0
     59289 TIP3     6631     TIP3     H2       HT       0.417000       1.00800           0
     59290 TIP3     6632     TIP3     OH2      OT      -0.834000       15.9994           0
     59291 TIP3     6632     TIP3     H1       HT       0.417000       1.00800           0
     59292 TIP3     6632     TIP3     H2       HT       0.417000       1.00800           0
     59293 TIP3     6633     TIP3     OH2      OT      -0.834000       15.9994           0
     59294 TIP3     6633     TIP3     H1       HT       0.417000       1.00800           0
     59295 TIP3     6633     TIP3     H2       HT       0.417000       1.00800           0
     59296 TIP3     6634     TIP3     OH2      OT      -0.834000       15.9994           0
     59297 TIP3     6634     TIP3     H1       HT       0.417000       1.00800           0
     59298 TIP3     6634     TIP3     H2       HT       0.417000       1.00800           0
     59299 TIP3     6635     TIP3     OH2      OT      -0.834000       15.9994           0
     59300 TIP3     6635     TIP3     H1       HT       0.417000       1.00800           0
     59301 TIP3     6635     TIP3     H2       HT       0.417000       1.00800           0
     59302 TIP3     6636     TIP3     OH2      OT      -0.834000       15.9994           0
     59303 TIP3     6636     TIP3     H1       HT       0.417000       1.00800           0
     59304 TIP3     6636     TIP3     H2       HT       0.417000       1.00800           0
     59305 TIP3     6637     TIP3     OH2      OT      -0.834000       15.9994           0
     59306 TIP3     6637     TIP3     H1       HT       0.417000       1.00800           0
     59307 TIP3     6637     TIP3     H2       HT       0.417000       1.00800           0
     59308 TIP3     6638     TIP3     OH2      OT      -0.834000       15.9994           0
     59309 TIP3     6638     TIP3     H1       HT       0.417000       1.00800           0
     59310 TIP3     6638     TIP3     H2       HT       0.417000       1.00800           0
     59311 TIP3     6639     TIP3     OH2      OT      -0.834000       15.9994           0
     59312 TIP3     6639     TIP3     H1       HT       0.417000       1.00800           0
     59313 TIP3     6639     TIP3     H2       HT       0.417000       1.00800           0
     59314 TIP3     6640     TIP3     OH2      OT      -0.834000       15.9994           0
     59315 TIP3     6640     TIP3     H1       HT       0.417000       1.00800           0
     59316 TIP3     6640     TIP3     H2       HT       0.417000       1.00800           0
     59317 TIP3     6641     TIP3     OH2      OT      -0.834000       15.9994           0
     59318 TIP3     6641     TIP3     H1       HT       0.417000       1.00800           0
     59319 TIP3     6641     TIP3     H2       HT       0.417000       1.00800           0
     59320 TIP3     6642     TIP3     OH2      OT      -0.834000       15.9994           0
     59321 TIP3     6642     TIP3     H1       HT       0.417000       1.00800           0
     59322 TIP3     6642     TIP3     H2       HT       0.417000       1.00800           0
     59323 TIP3     6643     TIP3     OH2      OT      -0.834000       15.9994           0
     59324 TIP3     6643     TIP3     H1       HT       0.417000       1.00800           0
     59325 TIP3     6643     TIP3     H2       HT       0.417000       1.00800           0
     59326 TIP3     6644     TIP3     OH2      OT      -0.834000       15.9994           0
     59327 TIP3     6644     TIP3     H1       HT       0.417000       1.00800           0
     59328 TIP3     6644     TIP3     H2       HT       0.417000       1.00800           0
     59329 TIP3     6645     TIP3     OH2      OT      -0.834000       15.9994           0
     59330 TIP3     6645     TIP3     H1       HT       0.417000       1.00800           0
     59331 TIP3     6645     TIP3     H2       HT       0.417000       1.00800           0
     59332 TIP3     6646     TIP3     OH2      OT      -0.834000       15.9994           0
     59333 TIP3     6646     TIP3     H1       HT       0.417000       1.00800           0
     59334 TIP3     6646     TIP3     H2       HT       0.417000       1.00800           0
     59335 TIP3     6647     TIP3     OH2      OT      -0.834000       15.9994           0
     59336 TIP3     6647     TIP3     H1       HT       0.417000       1.00800           0
     59337 TIP3     6647     TIP3     H2       HT       0.417000       1.00800           0
     59338 TIP3     6648     TIP3     OH2      OT      -0.834000       15.9994           0
     59339 TIP3     6648     TIP3     H1       HT       0.417000       1.00800           0
     59340 TIP3     6648     TIP3     H2       HT       0.417000       1.00800           0
     59341 TIP3     6649     TIP3     OH2      OT      -0.834000       15.9994           0
     59342 TIP3     6649     TIP3     H1       HT       0.417000       1.00800           0
     59343 TIP3     6649     TIP3     H2       HT       0.417000       1.00800           0
     59344 TIP3     6650     TIP3     OH2      OT      -0.834000       15.9994           0
     59345 TIP3     6650     TIP3     H1       HT       0.417000       1.00800           0
     59346 TIP3     6650     TIP3     H2       HT       0.417000       1.00800           0
     59347 TIP3     6651     TIP3     OH2      OT      -0.834000       15.9994           0
     59348 TIP3     6651     TIP3     H1       HT       0.417000       1.00800           0
     59349 TIP3     6651     TIP3     H2       HT       0.417000       1.00800           0
     59350 TIP3     6652     TIP3     OH2      OT      -0.834000       15.9994           0
     59351 TIP3     6652     TIP3     H1       HT       0.417000       1.00800           0
     59352 TIP3     6652     TIP3     H2       HT       0.417000       1.00800           0
     59353 TIP3     6653     TIP3     OH2      OT      -0.834000       15.9994           0
     59354 TIP3     6653     TIP3     H1       HT       0.417000       1.00800           0
     59355 TIP3     6653     TIP3     H2       HT       0.417000       1.00800           0
     59356 TIP3     6654     TIP3     OH2      OT      -0.834000       15.9994           0
     59357 TIP3     6654     TIP3     H1       HT       0.417000       1.00800           0
     59358 TIP3     6654     TIP3     H2       HT       0.417000       1.00800           0
     59359 TIP3     6655     TIP3     OH2      OT      -0.834000       15.9994           0
     59360 TIP3     6655     TIP3     H1       HT       0.417000       1.00800           0
     59361 TIP3     6655     TIP3     H2       HT       0.417000       1.00800           0
     59362 TIP3     6656     TIP3     OH2      OT      -0.834000       15.9994           0
     59363 TIP3     6656     TIP3     H1       HT       0.417000       1.00800           0
     59364 TIP3     6656     TIP3     H2       HT       0.417000       1.00800           0
     59365 TIP3     6657     TIP3     OH2      OT      -0.834000       15.9994           0
     59366 TIP3     6657     TIP3     H1       HT       0.417000       1.00800           0
     59367 TIP3     6657     TIP3     H2       HT       0.417000       1.00800           0
     59368 TIP3     6658     TIP3     OH2      OT      -0.834000       15.9994           0
     59369 TIP3     6658     TIP3     H1       HT       0.417000       1.00800           0
     59370 TIP3     6658     TIP3     H2       HT       0.417000       1.00800           0
     59371 TIP3     6659     TIP3     OH2      OT      -0.834000       15.9994           0
     59372 TIP3     6659     TIP3     H1       HT       0.417000       1.00800           0
     59373 TIP3     6659     TIP3     H2       HT       0.417000       1.00800           0
     59374 TIP3     6660     TIP3     OH2      OT      -0.834000       15.9994           0
     59375 TIP3     6660     TIP3     H1       HT       0.417000       1.00800           0
     59376 TIP3     6660     TIP3     H2       HT       0.417000       1.00800           0
     59377 TIP3     6661     TIP3     OH2      OT      -0.834000       15.9994           0
     59378 TIP3     6661     TIP3     H1       HT       0.417000       1.00800           0
     59379 TIP3     6661     TIP3     H2       HT       0.417000       1.00800           0
     59380 TIP3     6662     TIP3     OH2      OT      -0.834000       15.9994           0
     59381 TIP3     6662     TIP3     H1       HT       0.417000       1.00800           0
     59382 TIP3     6662     TIP3     H2       HT       0.417000       1.00800           0
     59383 TIP3     6663     TIP3     OH2      OT      -0.834000       15.9994           0
     59384 TIP3     6663     TIP3     H1       HT       0.417000       1.00800           0
     59385 TIP3     6663     TIP3     H2       HT       0.417000       1.00800           0
     59386 TIP3     6664     TIP3     OH2      OT      -0.834000       15.9994           0
     59387 TIP3     6664     TIP3     H1       HT       0.417000       1.00800           0
     59388 TIP3     6664     TIP3     H2       HT       0.417000       1.00800           0
     59389 TIP3     6665     TIP3     OH2      OT      -0.834000       15.9994           0
     59390 TIP3     6665     TIP3     H1       HT       0.417000       1.00800           0
     59391 TIP3     6665     TIP3     H2       HT       0.417000       1.00800           0
     59392 TIP3     6666     TIP3     OH2      OT      -0.834000       15.9994           0
     59393 TIP3     6666     TIP3     H1       HT       0.417000       1.00800           0
     59394 TIP3     6666     TIP3     H2       HT       0.417000       1.00800           0
     59395 TIP3     6667     TIP3     OH2      OT      -0.834000       15.9994           0
     59396 TIP3     6667     TIP3     H1       HT       0.417000       1.00800           0
     59397 TIP3     6667     TIP3     H2       HT       0.417000       1.00800           0
     59398 TIP3     6668     TIP3     OH2      OT      -0.834000       15.9994           0
     59399 TIP3     6668     TIP3     H1       HT       0.417000       1.00800           0
     59400 TIP3     6668     TIP3     H2       HT       0.417000       1.00800           0
     59401 TIP3     6669     TIP3     OH2      OT      -0.834000       15.9994           0
     59402 TIP3     6669     TIP3     H1       HT       0.417000       1.00800           0
     59403 TIP3     6669     TIP3     H2       HT       0.417000       1.00800           0
     59404 TIP3     6670     TIP3     OH2      OT      -0.834000       15.9994           0
     59405 TIP3     6670     TIP3     H1       HT       0.417000       1.00800           0
     59406 TIP3     6670     TIP3     H2       HT       0.417000       1.00800           0
     59407 TIP3     6671     TIP3     OH2      OT      -0.834000       15.9994           0
     59408 TIP3     6671     TIP3     H1       HT       0.417000       1.00800           0
     59409 TIP3     6671     TIP3     H2       HT       0.417000       1.00800           0
     59410 TIP3     6672     TIP3     OH2      OT      -0.834000       15.9994           0
     59411 TIP3     6672     TIP3     H1       HT       0.417000       1.00800           0
     59412 TIP3     6672     TIP3     H2       HT       0.417000       1.00800           0
     59413 TIP3     6673     TIP3     OH2      OT      -0.834000       15.9994           0
     59414 TIP3     6673     TIP3     H1       HT       0.417000       1.00800           0
     59415 TIP3     6673     TIP3     H2       HT       0.417000       1.00800           0
     59416 TIP3     6674     TIP3     OH2      OT      -0.834000       15.9994           0
     59417 TIP3     6674     TIP3     H1       HT       0.417000       1.00800           0
     59418 TIP3     6674     TIP3     H2       HT       0.417000       1.00800           0
     59419 TIP3     6675     TIP3     OH2      OT      -0.834000       15.9994           0
     59420 TIP3     6675     TIP3     H1       HT       0.417000       1.00800           0
     59421 TIP3     6675     TIP3     H2       HT       0.417000       1.00800           0
     59422 TIP3     6676     TIP3     OH2      OT      -0.834000       15.9994           0
     59423 TIP3     6676     TIP3     H1       HT       0.417000       1.00800           0
     59424 TIP3     6676     TIP3     H2       HT       0.417000       1.00800           0
     59425 TIP3     6677     TIP3     OH2      OT      -0.834000       15.9994           0
     59426 TIP3     6677     TIP3     H1       HT       0.417000       1.00800           0
     59427 TIP3     6677     TIP3     H2       HT       0.417000       1.00800           0
     59428 TIP3     6678     TIP3     OH2      OT      -0.834000       15.9994           0
     59429 TIP3     6678     TIP3     H1       HT       0.417000       1.00800           0
     59430 TIP3     6678     TIP3     H2       HT       0.417000       1.00800           0
     59431 TIP3     6679     TIP3     OH2      OT      -0.834000       15.9994           0
     59432 TIP3     6679     TIP3     H1       HT       0.417000       1.00800           0
     59433 TIP3     6679     TIP3     H2       HT       0.417000       1.00800           0
     59434 TIP3     6680     TIP3     OH2      OT      -0.834000       15.9994           0
     59435 TIP3     6680     TIP3     H1       HT       0.417000       1.00800           0
     59436 TIP3     6680     TIP3     H2       HT       0.417000       1.00800           0
     59437 TIP3     6681     TIP3     OH2      OT      -0.834000       15.9994           0
     59438 TIP3     6681     TIP3     H1       HT       0.417000       1.00800           0
     59439 TIP3     6681     TIP3     H2       HT       0.417000       1.00800           0
     59440 TIP3     6682     TIP3     OH2      OT      -0.834000       15.9994           0
     59441 TIP3     6682     TIP3     H1       HT       0.417000       1.00800           0
     59442 TIP3     6682     TIP3     H2       HT       0.417000       1.00800           0
     59443 TIP3     6683     TIP3     OH2      OT      -0.834000       15.9994           0
     59444 TIP3     6683     TIP3     H1       HT       0.417000       1.00800           0
     59445 TIP3     6683     TIP3     H2       HT       0.417000       1.00800           0
     59446 TIP3     6684     TIP3     OH2      OT      -0.834000       15.9994           0
     59447 TIP3     6684     TIP3     H1       HT       0.417000       1.00800           0
     59448 TIP3     6684     TIP3     H2       HT       0.417000       1.00800           0
     59449 TIP3     6685     TIP3     OH2      OT      -0.834000       15.9994           0
     59450 TIP3     6685     TIP3     H1       HT       0.417000       1.00800           0
     59451 TIP3     6685     TIP3     H2       HT       0.417000       1.00800           0
     59452 TIP3     6686     TIP3     OH2      OT      -0.834000       15.9994           0
     59453 TIP3     6686     TIP3     H1       HT       0.417000       1.00800           0
     59454 TIP3     6686     TIP3     H2       HT       0.417000       1.00800           0
     59455 TIP3     6687     TIP3     OH2      OT      -0.834000       15.9994           0
     59456 TIP3     6687     TIP3     H1       HT       0.417000       1.00800           0
     59457 TIP3     6687     TIP3     H2       HT       0.417000       1.00800           0
     59458 TIP3     6688     TIP3     OH2      OT      -0.834000       15.9994           0
     59459 TIP3     6688     TIP3     H1       HT       0.417000       1.00800           0
     59460 TIP3     6688     TIP3     H2       HT       0.417000       1.00800           0
     59461 TIP3     6689     TIP3     OH2      OT      -0.834000       15.9994           0
     59462 TIP3     6689     TIP3     H1       HT       0.417000       1.00800           0
     59463 TIP3     6689     TIP3     H2       HT       0.417000       1.00800           0
     59464 TIP3     6690     TIP3     OH2      OT      -0.834000       15.9994           0
     59465 TIP3     6690     TIP3     H1       HT       0.417000       1.00800           0
     59466 TIP3     6690     TIP3     H2       HT       0.417000       1.00800           0
     59467 TIP3     6691     TIP3     OH2      OT      -0.834000       15.9994           0
     59468 TIP3     6691     TIP3     H1       HT       0.417000       1.00800           0
     59469 TIP3     6691     TIP3     H2       HT       0.417000       1.00800           0
     59470 TIP3     6692     TIP3     OH2      OT      -0.834000       15.9994           0
     59471 TIP3     6692     TIP3     H1       HT       0.417000       1.00800           0
     59472 TIP3     6692     TIP3     H2       HT       0.417000       1.00800           0
     59473 TIP3     6693     TIP3     OH2      OT      -0.834000       15.9994           0
     59474 TIP3     6693     TIP3     H1       HT       0.417000       1.00800           0
     59475 TIP3     6693     TIP3     H2       HT       0.417000       1.00800           0
     59476 TIP3     6694     TIP3     OH2      OT      -0.834000       15.9994           0
     59477 TIP3     6694     TIP3     H1       HT       0.417000       1.00800           0
     59478 TIP3     6694     TIP3     H2       HT       0.417000       1.00800           0
     59479 TIP3     6695     TIP3     OH2      OT      -0.834000       15.9994           0
     59480 TIP3     6695     TIP3     H1       HT       0.417000       1.00800           0
     59481 TIP3     6695     TIP3     H2       HT       0.417000       1.00800           0
     59482 TIP3     6696     TIP3     OH2      OT      -0.834000       15.9994           0
     59483 TIP3     6696     TIP3     H1       HT       0.417000       1.00800           0
     59484 TIP3     6696     TIP3     H2       HT       0.417000       1.00800           0
     59485 TIP3     6697     TIP3     OH2      OT      -0.834000       15.9994           0
     59486 TIP3     6697     TIP3     H1       HT       0.417000       1.00800           0
     59487 TIP3     6697     TIP3     H2       HT       0.417000       1.00800           0
     59488 TIP3     6698     TIP3     OH2      OT      -0.834000       15.9994           0
     59489 TIP3     6698     TIP3     H1       HT       0.417000       1.00800           0
     59490 TIP3     6698     TIP3     H2       HT       0.417000       1.00800           0
     59491 TIP3     6699     TIP3     OH2      OT      -0.834000       15.9994           0
     59492 TIP3     6699     TIP3     H1       HT       0.417000       1.00800           0
     59493 TIP3     6699     TIP3     H2       HT       0.417000       1.00800           0
     59494 TIP3     6700     TIP3     OH2      OT      -0.834000       15.9994           0
     59495 TIP3     6700     TIP3     H1       HT       0.417000       1.00800           0
     59496 TIP3     6700     TIP3     H2       HT       0.417000       1.00800           0
     59497 TIP3     6701     TIP3     OH2      OT      -0.834000       15.9994           0
     59498 TIP3     6701     TIP3     H1       HT       0.417000       1.00800           0
     59499 TIP3     6701     TIP3     H2       HT       0.417000       1.00800           0
     59500 TIP3     6702     TIP3     OH2      OT      -0.834000       15.9994           0
     59501 TIP3     6702     TIP3     H1       HT       0.417000       1.00800           0
     59502 TIP3     6702     TIP3     H2       HT       0.417000       1.00800           0
     59503 TIP3     6703     TIP3     OH2      OT      -0.834000       15.9994           0
     59504 TIP3     6703     TIP3     H1       HT       0.417000       1.00800           0
     59505 TIP3     6703     TIP3     H2       HT       0.417000       1.00800           0
     59506 TIP3     6704     TIP3     OH2      OT      -0.834000       15.9994           0
     59507 TIP3     6704     TIP3     H1       HT       0.417000       1.00800           0
     59508 TIP3     6704     TIP3     H2       HT       0.417000       1.00800           0
     59509 TIP3     6705     TIP3     OH2      OT      -0.834000       15.9994           0
     59510 TIP3     6705     TIP3     H1       HT       0.417000       1.00800           0
     59511 TIP3     6705     TIP3     H2       HT       0.417000       1.00800           0
     59512 TIP3     6706     TIP3     OH2      OT      -0.834000       15.9994           0
     59513 TIP3     6706     TIP3     H1       HT       0.417000       1.00800           0
     59514 TIP3     6706     TIP3     H2       HT       0.417000       1.00800           0
     59515 TIP3     6707     TIP3     OH2      OT      -0.834000       15.9994           0
     59516 TIP3     6707     TIP3     H1       HT       0.417000       1.00800           0
     59517 TIP3     6707     TIP3     H2       HT       0.417000       1.00800           0
     59518 TIP3     6708     TIP3     OH2      OT      -0.834000       15.9994           0
     59519 TIP3     6708     TIP3     H1       HT       0.417000       1.00800           0
     59520 TIP3     6708     TIP3     H2       HT       0.417000       1.00800           0
     59521 TIP3     6709     TIP3     OH2      OT      -0.834000       15.9994           0
     59522 TIP3     6709     TIP3     H1       HT       0.417000       1.00800           0
     59523 TIP3     6709     TIP3     H2       HT       0.417000       1.00800           0
     59524 TIP3     6710     TIP3     OH2      OT      -0.834000       15.9994           0
     59525 TIP3     6710     TIP3     H1       HT       0.417000       1.00800           0
     59526 TIP3     6710     TIP3     H2       HT       0.417000       1.00800           0
     59527 TIP3     6711     TIP3     OH2      OT      -0.834000       15.9994           0
     59528 TIP3     6711     TIP3     H1       HT       0.417000       1.00800           0
     59529 TIP3     6711     TIP3     H2       HT       0.417000       1.00800           0
     59530 TIP3     6712     TIP3     OH2      OT      -0.834000       15.9994           0
     59531 TIP3     6712     TIP3     H1       HT       0.417000       1.00800           0
     59532 TIP3     6712     TIP3     H2       HT       0.417000       1.00800           0
     59533 TIP3     6713     TIP3     OH2      OT      -0.834000       15.9994           0
     59534 TIP3     6713     TIP3     H1       HT       0.417000       1.00800           0
     59535 TIP3     6713     TIP3     H2       HT       0.417000       1.00800           0
     59536 TIP3     6714     TIP3     OH2      OT      -0.834000       15.9994           0
     59537 TIP3     6714     TIP3     H1       HT       0.417000       1.00800           0
     59538 TIP3     6714     TIP3     H2       HT       0.417000       1.00800           0
     59539 TIP3     6715     TIP3     OH2      OT      -0.834000       15.9994           0
     59540 TIP3     6715     TIP3     H1       HT       0.417000       1.00800           0
     59541 TIP3     6715     TIP3     H2       HT       0.417000       1.00800           0
     59542 TIP3     6716     TIP3     OH2      OT      -0.834000       15.9994           0
     59543 TIP3     6716     TIP3     H1       HT       0.417000       1.00800           0
     59544 TIP3     6716     TIP3     H2       HT       0.417000       1.00800           0
     59545 TIP3     6717     TIP3     OH2      OT      -0.834000       15.9994           0
     59546 TIP3     6717     TIP3     H1       HT       0.417000       1.00800           0
     59547 TIP3     6717     TIP3     H2       HT       0.417000       1.00800           0
     59548 TIP3     6718     TIP3     OH2      OT      -0.834000       15.9994           0
     59549 TIP3     6718     TIP3     H1       HT       0.417000       1.00800           0
     59550 TIP3     6718     TIP3     H2       HT       0.417000       1.00800           0
     59551 TIP3     6719     TIP3     OH2      OT      -0.834000       15.9994           0
     59552 TIP3     6719     TIP3     H1       HT       0.417000       1.00800           0
     59553 TIP3     6719     TIP3     H2       HT       0.417000       1.00800           0
     59554 TIP3     6720     TIP3     OH2      OT      -0.834000       15.9994           0
     59555 TIP3     6720     TIP3     H1       HT       0.417000       1.00800           0
     59556 TIP3     6720     TIP3     H2       HT       0.417000       1.00800           0
     59557 TIP3     6721     TIP3     OH2      OT      -0.834000       15.9994           0
     59558 TIP3     6721     TIP3     H1       HT       0.417000       1.00800           0
     59559 TIP3     6721     TIP3     H2       HT       0.417000       1.00800           0
     59560 TIP3     6722     TIP3     OH2      OT      -0.834000       15.9994           0
     59561 TIP3     6722     TIP3     H1       HT       0.417000       1.00800           0
     59562 TIP3     6722     TIP3     H2       HT       0.417000       1.00800           0
     59563 TIP3     6723     TIP3     OH2      OT      -0.834000       15.9994           0
     59564 TIP3     6723     TIP3     H1       HT       0.417000       1.00800           0
     59565 TIP3     6723     TIP3     H2       HT       0.417000       1.00800           0
     59566 TIP3     6724     TIP3     OH2      OT      -0.834000       15.9994           0
     59567 TIP3     6724     TIP3     H1       HT       0.417000       1.00800           0
     59568 TIP3     6724     TIP3     H2       HT       0.417000       1.00800           0
     59569 TIP3     6725     TIP3     OH2      OT      -0.834000       15.9994           0
     59570 TIP3     6725     TIP3     H1       HT       0.417000       1.00800           0
     59571 TIP3     6725     TIP3     H2       HT       0.417000       1.00800           0
     59572 TIP3     6726     TIP3     OH2      OT      -0.834000       15.9994           0
     59573 TIP3     6726     TIP3     H1       HT       0.417000       1.00800           0
     59574 TIP3     6726     TIP3     H2       HT       0.417000       1.00800           0
     59575 TIP3     6727     TIP3     OH2      OT      -0.834000       15.9994           0
     59576 TIP3     6727     TIP3     H1       HT       0.417000       1.00800           0
     59577 TIP3     6727     TIP3     H2       HT       0.417000       1.00800           0
     59578 TIP3     6728     TIP3     OH2      OT      -0.834000       15.9994           0
     59579 TIP3     6728     TIP3     H1       HT       0.417000       1.00800           0
     59580 TIP3     6728     TIP3     H2       HT       0.417000       1.00800           0
     59581 TIP3     6729     TIP3     OH2      OT      -0.834000       15.9994           0
     59582 TIP3     6729     TIP3     H1       HT       0.417000       1.00800           0
     59583 TIP3     6729     TIP3     H2       HT       0.417000       1.00800           0
     59584 TIP3     6730     TIP3     OH2      OT      -0.834000       15.9994           0
     59585 TIP3     6730     TIP3     H1       HT       0.417000       1.00800           0
     59586 TIP3     6730     TIP3     H2       HT       0.417000       1.00800           0
     59587 TIP3     6731     TIP3     OH2      OT      -0.834000       15.9994           0
     59588 TIP3     6731     TIP3     H1       HT       0.417000       1.00800           0
     59589 TIP3     6731     TIP3     H2       HT       0.417000       1.00800           0
     59590 TIP3     6732     TIP3     OH2      OT      -0.834000       15.9994           0
     59591 TIP3     6732     TIP3     H1       HT       0.417000       1.00800           0
     59592 TIP3     6732     TIP3     H2       HT       0.417000       1.00800           0
     59593 TIP3     6733     TIP3     OH2      OT      -0.834000       15.9994           0
     59594 TIP3     6733     TIP3     H1       HT       0.417000       1.00800           0
     59595 TIP3     6733     TIP3     H2       HT       0.417000       1.00800           0
     59596 TIP3     6734     TIP3     OH2      OT      -0.834000       15.9994           0
     59597 TIP3     6734     TIP3     H1       HT       0.417000       1.00800           0
     59598 TIP3     6734     TIP3     H2       HT       0.417000       1.00800           0
     59599 TIP3     6735     TIP3     OH2      OT      -0.834000       15.9994           0
     59600 TIP3     6735     TIP3     H1       HT       0.417000       1.00800           0
     59601 TIP3     6735     TIP3     H2       HT       0.417000       1.00800           0
     59602 TIP3     6736     TIP3     OH2      OT      -0.834000       15.9994           0
     59603 TIP3     6736     TIP3     H1       HT       0.417000       1.00800           0
     59604 TIP3     6736     TIP3     H2       HT       0.417000       1.00800           0
     59605 TIP3     6737     TIP3     OH2      OT      -0.834000       15.9994           0
     59606 TIP3     6737     TIP3     H1       HT       0.417000       1.00800           0
     59607 TIP3     6737     TIP3     H2       HT       0.417000       1.00800           0
     59608 TIP3     6738     TIP3     OH2      OT      -0.834000       15.9994           0
     59609 TIP3     6738     TIP3     H1       HT       0.417000       1.00800           0
     59610 TIP3     6738     TIP3     H2       HT       0.417000       1.00800           0
     59611 TIP3     6739     TIP3     OH2      OT      -0.834000       15.9994           0
     59612 TIP3     6739     TIP3     H1       HT       0.417000       1.00800           0
     59613 TIP3     6739     TIP3     H2       HT       0.417000       1.00800           0
     59614 TIP3     6740     TIP3     OH2      OT      -0.834000       15.9994           0
     59615 TIP3     6740     TIP3     H1       HT       0.417000       1.00800           0
     59616 TIP3     6740     TIP3     H2       HT       0.417000       1.00800           0
     59617 TIP3     6741     TIP3     OH2      OT      -0.834000       15.9994           0
     59618 TIP3     6741     TIP3     H1       HT       0.417000       1.00800           0
     59619 TIP3     6741     TIP3     H2       HT       0.417000       1.00800           0
     59620 TIP3     6742     TIP3     OH2      OT      -0.834000       15.9994           0
     59621 TIP3     6742     TIP3     H1       HT       0.417000       1.00800           0
     59622 TIP3     6742     TIP3     H2       HT       0.417000       1.00800           0
     59623 TIP3     6743     TIP3     OH2      OT      -0.834000       15.9994           0
     59624 TIP3     6743     TIP3     H1       HT       0.417000       1.00800           0
     59625 TIP3     6743     TIP3     H2       HT       0.417000       1.00800           0
     59626 TIP3     6744     TIP3     OH2      OT      -0.834000       15.9994           0
     59627 TIP3     6744     TIP3     H1       HT       0.417000       1.00800           0
     59628 TIP3     6744     TIP3     H2       HT       0.417000       1.00800           0
     59629 TIP3     6745     TIP3     OH2      OT      -0.834000       15.9994           0
     59630 TIP3     6745     TIP3     H1       HT       0.417000       1.00800           0
     59631 TIP3     6745     TIP3     H2       HT       0.417000       1.00800           0
     59632 TIP3     6746     TIP3     OH2      OT      -0.834000       15.9994           0
     59633 TIP3     6746     TIP3     H1       HT       0.417000       1.00800           0
     59634 TIP3     6746     TIP3     H2       HT       0.417000       1.00800           0
     59635 TIP3     6747     TIP3     OH2      OT      -0.834000       15.9994           0
     59636 TIP3     6747     TIP3     H1       HT       0.417000       1.00800           0
     59637 TIP3     6747     TIP3     H2       HT       0.417000       1.00800           0
     59638 TIP3     6748     TIP3     OH2      OT      -0.834000       15.9994           0
     59639 TIP3     6748     TIP3     H1       HT       0.417000       1.00800           0
     59640 TIP3     6748     TIP3     H2       HT       0.417000       1.00800           0
     59641 TIP3     6749     TIP3     OH2      OT      -0.834000       15.9994           0
     59642 TIP3     6749     TIP3     H1       HT       0.417000       1.00800           0
     59643 TIP3     6749     TIP3     H2       HT       0.417000       1.00800           0
     59644 TIP3     6750     TIP3     OH2      OT      -0.834000       15.9994           0
     59645 TIP3     6750     TIP3     H1       HT       0.417000       1.00800           0
     59646 TIP3     6750     TIP3     H2       HT       0.417000       1.00800           0
     59647 TIP3     6751     TIP3     OH2      OT      -0.834000       15.9994           0
     59648 TIP3     6751     TIP3     H1       HT       0.417000       1.00800           0
     59649 TIP3     6751     TIP3     H2       HT       0.417000       1.00800           0
     59650 TIP3     6752     TIP3     OH2      OT      -0.834000       15.9994           0
     59651 TIP3     6752     TIP3     H1       HT       0.417000       1.00800           0
     59652 TIP3     6752     TIP3     H2       HT       0.417000       1.00800           0
     59653 TIP3     6753     TIP3     OH2      OT      -0.834000       15.9994           0
     59654 TIP3     6753     TIP3     H1       HT       0.417000       1.00800           0
     59655 TIP3     6753     TIP3     H2       HT       0.417000       1.00800           0
     59656 TIP3     6754     TIP3     OH2      OT      -0.834000       15.9994           0
     59657 TIP3     6754     TIP3     H1       HT       0.417000       1.00800           0
     59658 TIP3     6754     TIP3     H2       HT       0.417000       1.00800           0
     59659 TIP3     6755     TIP3     OH2      OT      -0.834000       15.9994           0
     59660 TIP3     6755     TIP3     H1       HT       0.417000       1.00800           0
     59661 TIP3     6755     TIP3     H2       HT       0.417000       1.00800           0
     59662 TIP3     6756     TIP3     OH2      OT      -0.834000       15.9994           0
     59663 TIP3     6756     TIP3     H1       HT       0.417000       1.00800           0
     59664 TIP3     6756     TIP3     H2       HT       0.417000       1.00800           0
     59665 TIP3     6757     TIP3     OH2      OT      -0.834000       15.9994           0
     59666 TIP3     6757     TIP3     H1       HT       0.417000       1.00800           0
     59667 TIP3     6757     TIP3     H2       HT       0.417000       1.00800           0
     59668 TIP3     6758     TIP3     OH2      OT      -0.834000       15.9994           0
     59669 TIP3     6758     TIP3     H1       HT       0.417000       1.00800           0
     59670 TIP3     6758     TIP3     H2       HT       0.417000       1.00800           0
     59671 TIP3     6759     TIP3     OH2      OT      -0.834000       15.9994           0
     59672 TIP3     6759     TIP3     H1       HT       0.417000       1.00800           0
     59673 TIP3     6759     TIP3     H2       HT       0.417000       1.00800           0
     59674 TIP3     6760     TIP3     OH2      OT      -0.834000       15.9994           0
     59675 TIP3     6760     TIP3     H1       HT       0.417000       1.00800           0
     59676 TIP3     6760     TIP3     H2       HT       0.417000       1.00800           0
     59677 TIP3     6761     TIP3     OH2      OT      -0.834000       15.9994           0
     59678 TIP3     6761     TIP3     H1       HT       0.417000       1.00800           0
     59679 TIP3     6761     TIP3     H2       HT       0.417000       1.00800           0
     59680 TIP3     6762     TIP3     OH2      OT      -0.834000       15.9994           0
     59681 TIP3     6762     TIP3     H1       HT       0.417000       1.00800           0
     59682 TIP3     6762     TIP3     H2       HT       0.417000       1.00800           0
     59683 TIP3     6763     TIP3     OH2      OT      -0.834000       15.9994           0
     59684 TIP3     6763     TIP3     H1       HT       0.417000       1.00800           0
     59685 TIP3     6763     TIP3     H2       HT       0.417000       1.00800           0
     59686 TIP3     6764     TIP3     OH2      OT      -0.834000       15.9994           0
     59687 TIP3     6764     TIP3     H1       HT       0.417000       1.00800           0
     59688 TIP3     6764     TIP3     H2       HT       0.417000       1.00800           0
     59689 TIP3     6765     TIP3     OH2      OT      -0.834000       15.9994           0
     59690 TIP3     6765     TIP3     H1       HT       0.417000       1.00800           0
     59691 TIP3     6765     TIP3     H2       HT       0.417000       1.00800           0
     59692 TIP3     6766     TIP3     OH2      OT      -0.834000       15.9994           0
     59693 TIP3     6766     TIP3     H1       HT       0.417000       1.00800           0
     59694 TIP3     6766     TIP3     H2       HT       0.417000       1.00800           0
     59695 TIP3     6767     TIP3     OH2      OT      -0.834000       15.9994           0
     59696 TIP3     6767     TIP3     H1       HT       0.417000       1.00800           0
     59697 TIP3     6767     TIP3     H2       HT       0.417000       1.00800           0
     59698 TIP3     6768     TIP3     OH2      OT      -0.834000       15.9994           0
     59699 TIP3     6768     TIP3     H1       HT       0.417000       1.00800           0
     59700 TIP3     6768     TIP3     H2       HT       0.417000       1.00800           0
     59701 TIP3     6769     TIP3     OH2      OT      -0.834000       15.9994           0
     59702 TIP3     6769     TIP3     H1       HT       0.417000       1.00800           0
     59703 TIP3     6769     TIP3     H2       HT       0.417000       1.00800           0
     59704 TIP3     6770     TIP3     OH2      OT      -0.834000       15.9994           0
     59705 TIP3     6770     TIP3     H1       HT       0.417000       1.00800           0
     59706 TIP3     6770     TIP3     H2       HT       0.417000       1.00800           0
     59707 TIP3     6771     TIP3     OH2      OT      -0.834000       15.9994           0
     59708 TIP3     6771     TIP3     H1       HT       0.417000       1.00800           0
     59709 TIP3     6771     TIP3     H2       HT       0.417000       1.00800           0
     59710 TIP3     6772     TIP3     OH2      OT      -0.834000       15.9994           0
     59711 TIP3     6772     TIP3     H1       HT       0.417000       1.00800           0
     59712 TIP3     6772     TIP3     H2       HT       0.417000       1.00800           0
     59713 TIP3     6773     TIP3     OH2      OT      -0.834000       15.9994           0
     59714 TIP3     6773     TIP3     H1       HT       0.417000       1.00800           0
     59715 TIP3     6773     TIP3     H2       HT       0.417000       1.00800           0
     59716 TIP3     6774     TIP3     OH2      OT      -0.834000       15.9994           0
     59717 TIP3     6774     TIP3     H1       HT       0.417000       1.00800           0
     59718 TIP3     6774     TIP3     H2       HT       0.417000       1.00800           0
     59719 TIP3     6775     TIP3     OH2      OT      -0.834000       15.9994           0
     59720 TIP3     6775     TIP3     H1       HT       0.417000       1.00800           0
     59721 TIP3     6775     TIP3     H2       HT       0.417000       1.00800           0
     59722 TIP3     6776     TIP3     OH2      OT      -0.834000       15.9994           0
     59723 TIP3     6776     TIP3     H1       HT       0.417000       1.00800           0
     59724 TIP3     6776     TIP3     H2       HT       0.417000       1.00800           0
     59725 TIP3     6777     TIP3     OH2      OT      -0.834000       15.9994           0
     59726 TIP3     6777     TIP3     H1       HT       0.417000       1.00800           0
     59727 TIP3     6777     TIP3     H2       HT       0.417000       1.00800           0
     59728 TIP3     6778     TIP3     OH2      OT      -0.834000       15.9994           0
     59729 TIP3     6778     TIP3     H1       HT       0.417000       1.00800           0
     59730 TIP3     6778     TIP3     H2       HT       0.417000       1.00800           0
     59731 TIP3     6779     TIP3     OH2      OT      -0.834000       15.9994           0
     59732 TIP3     6779     TIP3     H1       HT       0.417000       1.00800           0
     59733 TIP3     6779     TIP3     H2       HT       0.417000       1.00800           0
     59734 TIP3     6780     TIP3     OH2      OT      -0.834000       15.9994           0
     59735 TIP3     6780     TIP3     H1       HT       0.417000       1.00800           0
     59736 TIP3     6780     TIP3     H2       HT       0.417000       1.00800           0
     59737 TIP3     6781     TIP3     OH2      OT      -0.834000       15.9994           0
     59738 TIP3     6781     TIP3     H1       HT       0.417000       1.00800           0
     59739 TIP3     6781     TIP3     H2       HT       0.417000       1.00800           0
     59740 TIP3     6782     TIP3     OH2      OT      -0.834000       15.9994           0
     59741 TIP3     6782     TIP3     H1       HT       0.417000       1.00800           0
     59742 TIP3     6782     TIP3     H2       HT       0.417000       1.00800           0
     59743 TIP3     6783     TIP3     OH2      OT      -0.834000       15.9994           0
     59744 TIP3     6783     TIP3     H1       HT       0.417000       1.00800           0
     59745 TIP3     6783     TIP3     H2       HT       0.417000       1.00800           0
     59746 TIP3     6784     TIP3     OH2      OT      -0.834000       15.9994           0
     59747 TIP3     6784     TIP3     H1       HT       0.417000       1.00800           0
     59748 TIP3     6784     TIP3     H2       HT       0.417000       1.00800           0
     59749 TIP3     6785     TIP3     OH2      OT      -0.834000       15.9994           0
     59750 TIP3     6785     TIP3     H1       HT       0.417000       1.00800           0
     59751 TIP3     6785     TIP3     H2       HT       0.417000       1.00800           0
     59752 TIP3     6786     TIP3     OH2      OT      -0.834000       15.9994           0
     59753 TIP3     6786     TIP3     H1       HT       0.417000       1.00800           0
     59754 TIP3     6786     TIP3     H2       HT       0.417000       1.00800           0
     59755 TIP3     6787     TIP3     OH2      OT      -0.834000       15.9994           0
     59756 TIP3     6787     TIP3     H1       HT       0.417000       1.00800           0
     59757 TIP3     6787     TIP3     H2       HT       0.417000       1.00800           0
     59758 TIP3     6788     TIP3     OH2      OT      -0.834000       15.9994           0
     59759 TIP3     6788     TIP3     H1       HT       0.417000       1.00800           0
     59760 TIP3     6788     TIP3     H2       HT       0.417000       1.00800           0
     59761 TIP3     6789     TIP3     OH2      OT      -0.834000       15.9994           0
     59762 TIP3     6789     TIP3     H1       HT       0.417000       1.00800           0
     59763 TIP3     6789     TIP3     H2       HT       0.417000       1.00800           0
     59764 TIP3     6790     TIP3     OH2      OT      -0.834000       15.9994           0
     59765 TIP3     6790     TIP3     H1       HT       0.417000       1.00800           0
     59766 TIP3     6790     TIP3     H2       HT       0.417000       1.00800           0
     59767 TIP3     6791     TIP3     OH2      OT      -0.834000       15.9994           0
     59768 TIP3     6791     TIP3     H1       HT       0.417000       1.00800           0
     59769 TIP3     6791     TIP3     H2       HT       0.417000       1.00800           0
     59770 TIP3     6792     TIP3     OH2      OT      -0.834000       15.9994           0
     59771 TIP3     6792     TIP3     H1       HT       0.417000       1.00800           0
     59772 TIP3     6792     TIP3     H2       HT       0.417000       1.00800           0
     59773 TIP3     6793     TIP3     OH2      OT      -0.834000       15.9994           0
     59774 TIP3     6793     TIP3     H1       HT       0.417000       1.00800           0
     59775 TIP3     6793     TIP3     H2       HT       0.417000       1.00800           0
     59776 TIP3     6794     TIP3     OH2      OT      -0.834000       15.9994           0
     59777 TIP3     6794     TIP3     H1       HT       0.417000       1.00800           0
     59778 TIP3     6794     TIP3     H2       HT       0.417000       1.00800           0
     59779 TIP3     6795     TIP3     OH2      OT      -0.834000       15.9994           0
     59780 TIP3     6795     TIP3     H1       HT       0.417000       1.00800           0
     59781 TIP3     6795     TIP3     H2       HT       0.417000       1.00800           0
     59782 TIP3     6796     TIP3     OH2      OT      -0.834000       15.9994           0
     59783 TIP3     6796     TIP3     H1       HT       0.417000       1.00800           0
     59784 TIP3     6796     TIP3     H2       HT       0.417000       1.00800           0
     59785 TIP3     6797     TIP3     OH2      OT      -0.834000       15.9994           0
     59786 TIP3     6797     TIP3     H1       HT       0.417000       1.00800           0
     59787 TIP3     6797     TIP3     H2       HT       0.417000       1.00800           0
     59788 TIP3     6798     TIP3     OH2      OT      -0.834000       15.9994           0
     59789 TIP3     6798     TIP3     H1       HT       0.417000       1.00800           0
     59790 TIP3     6798     TIP3     H2       HT       0.417000       1.00800           0
     59791 TIP3     6799     TIP3     OH2      OT      -0.834000       15.9994           0
     59792 TIP3     6799     TIP3     H1       HT       0.417000       1.00800           0
     59793 TIP3     6799     TIP3     H2       HT       0.417000       1.00800           0
     59794 TIP3     6800     TIP3     OH2      OT      -0.834000       15.9994           0
     59795 TIP3     6800     TIP3     H1       HT       0.417000       1.00800           0
     59796 TIP3     6800     TIP3     H2       HT       0.417000       1.00800           0
     59797 TIP3     6801     TIP3     OH2      OT      -0.834000       15.9994           0
     59798 TIP3     6801     TIP3     H1       HT       0.417000       1.00800           0
     59799 TIP3     6801     TIP3     H2       HT       0.417000       1.00800           0
     59800 TIP3     6802     TIP3     OH2      OT      -0.834000       15.9994           0
     59801 TIP3     6802     TIP3     H1       HT       0.417000       1.00800           0
     59802 TIP3     6802     TIP3     H2       HT       0.417000       1.00800           0
     59803 TIP3     6803     TIP3     OH2      OT      -0.834000       15.9994           0
     59804 TIP3     6803     TIP3     H1       HT       0.417000       1.00800           0
     59805 TIP3     6803     TIP3     H2       HT       0.417000       1.00800           0
     59806 TIP3     6804     TIP3     OH2      OT      -0.834000       15.9994           0
     59807 TIP3     6804     TIP3     H1       HT       0.417000       1.00800           0
     59808 TIP3     6804     TIP3     H2       HT       0.417000       1.00800           0
     59809 TIP3     6805     TIP3     OH2      OT      -0.834000       15.9994           0
     59810 TIP3     6805     TIP3     H1       HT       0.417000       1.00800           0
     59811 TIP3     6805     TIP3     H2       HT       0.417000       1.00800           0
     59812 TIP3     6806     TIP3     OH2      OT      -0.834000       15.9994           0
     59813 TIP3     6806     TIP3     H1       HT       0.417000       1.00800           0
     59814 TIP3     6806     TIP3     H2       HT       0.417000       1.00800           0
     59815 TIP3     6807     TIP3     OH2      OT      -0.834000       15.9994           0
     59816 TIP3     6807     TIP3     H1       HT       0.417000       1.00800           0
     59817 TIP3     6807     TIP3     H2       HT       0.417000       1.00800           0
     59818 TIP3     6808     TIP3     OH2      OT      -0.834000       15.9994           0
     59819 TIP3     6808     TIP3     H1       HT       0.417000       1.00800           0
     59820 TIP3     6808     TIP3     H2       HT       0.417000       1.00800           0
     59821 TIP3     6809     TIP3     OH2      OT      -0.834000       15.9994           0
     59822 TIP3     6809     TIP3     H1       HT       0.417000       1.00800           0
     59823 TIP3     6809     TIP3     H2       HT       0.417000       1.00800           0
     59824 TIP3     6810     TIP3     OH2      OT      -0.834000       15.9994           0
     59825 TIP3     6810     TIP3     H1       HT       0.417000       1.00800           0
     59826 TIP3     6810     TIP3     H2       HT       0.417000       1.00800           0
     59827 TIP3     6811     TIP3     OH2      OT      -0.834000       15.9994           0
     59828 TIP3     6811     TIP3     H1       HT       0.417000       1.00800           0
     59829 TIP3     6811     TIP3     H2       HT       0.417000       1.00800           0
     59830 TIP3     6812     TIP3     OH2      OT      -0.834000       15.9994           0
     59831 TIP3     6812     TIP3     H1       HT       0.417000       1.00800           0
     59832 TIP3     6812     TIP3     H2       HT       0.417000       1.00800           0
     59833 TIP3     6813     TIP3     OH2      OT      -0.834000       15.9994           0
     59834 TIP3     6813     TIP3     H1       HT       0.417000       1.00800           0
     59835 TIP3     6813     TIP3     H2       HT       0.417000       1.00800           0
     59836 TIP3     6814     TIP3     OH2      OT      -0.834000       15.9994           0
     59837 TIP3     6814     TIP3     H1       HT       0.417000       1.00800           0
     59838 TIP3     6814     TIP3     H2       HT       0.417000       1.00800           0
     59839 TIP3     6815     TIP3     OH2      OT      -0.834000       15.9994           0
     59840 TIP3     6815     TIP3     H1       HT       0.417000       1.00800           0
     59841 TIP3     6815     TIP3     H2       HT       0.417000       1.00800           0
     59842 TIP3     6816     TIP3     OH2      OT      -0.834000       15.9994           0
     59843 TIP3     6816     TIP3     H1       HT       0.417000       1.00800           0
     59844 TIP3     6816     TIP3     H2       HT       0.417000       1.00800           0
     59845 TIP3     6817     TIP3     OH2      OT      -0.834000       15.9994           0
     59846 TIP3     6817     TIP3     H1       HT       0.417000       1.00800           0
     59847 TIP3     6817     TIP3     H2       HT       0.417000       1.00800           0
     59848 TIP3     6818     TIP3     OH2      OT      -0.834000       15.9994           0
     59849 TIP3     6818     TIP3     H1       HT       0.417000       1.00800           0
     59850 TIP3     6818     TIP3     H2       HT       0.417000       1.00800           0
     59851 TIP3     6819     TIP3     OH2      OT      -0.834000       15.9994           0
     59852 TIP3     6819     TIP3     H1       HT       0.417000       1.00800           0
     59853 TIP3     6819     TIP3     H2       HT       0.417000       1.00800           0
     59854 TIP3     6820     TIP3     OH2      OT      -0.834000       15.9994           0
     59855 TIP3     6820     TIP3     H1       HT       0.417000       1.00800           0
     59856 TIP3     6820     TIP3     H2       HT       0.417000       1.00800           0
     59857 TIP3     6821     TIP3     OH2      OT      -0.834000       15.9994           0
     59858 TIP3     6821     TIP3     H1       HT       0.417000       1.00800           0
     59859 TIP3     6821     TIP3     H2       HT       0.417000       1.00800           0
     59860 TIP3     6822     TIP3     OH2      OT      -0.834000       15.9994           0
     59861 TIP3     6822     TIP3     H1       HT       0.417000       1.00800           0
     59862 TIP3     6822     TIP3     H2       HT       0.417000       1.00800           0
     59863 TIP3     6823     TIP3     OH2      OT      -0.834000       15.9994           0
     59864 TIP3     6823     TIP3     H1       HT       0.417000       1.00800           0
     59865 TIP3     6823     TIP3     H2       HT       0.417000       1.00800           0
     59866 TIP3     6824     TIP3     OH2      OT      -0.834000       15.9994           0
     59867 TIP3     6824     TIP3     H1       HT       0.417000       1.00800           0
     59868 TIP3     6824     TIP3     H2       HT       0.417000       1.00800           0
     59869 TIP3     6825     TIP3     OH2      OT      -0.834000       15.9994           0
     59870 TIP3     6825     TIP3     H1       HT       0.417000       1.00800           0
     59871 TIP3     6825     TIP3     H2       HT       0.417000       1.00800           0
     59872 TIP3     6826     TIP3     OH2      OT      -0.834000       15.9994           0
     59873 TIP3     6826     TIP3     H1       HT       0.417000       1.00800           0
     59874 TIP3     6826     TIP3     H2       HT       0.417000       1.00800           0
     59875 TIP3     6827     TIP3     OH2      OT      -0.834000       15.9994           0
     59876 TIP3     6827     TIP3     H1       HT       0.417000       1.00800           0
     59877 TIP3     6827     TIP3     H2       HT       0.417000       1.00800           0
     59878 TIP3     6828     TIP3     OH2      OT      -0.834000       15.9994           0
     59879 TIP3     6828     TIP3     H1       HT       0.417000       1.00800           0
     59880 TIP3     6828     TIP3     H2       HT       0.417000       1.00800           0
     59881 TIP3     6829     TIP3     OH2      OT      -0.834000       15.9994           0
     59882 TIP3     6829     TIP3     H1       HT       0.417000       1.00800           0
     59883 TIP3     6829     TIP3     H2       HT       0.417000       1.00800           0
     59884 TIP3     6830     TIP3     OH2      OT      -0.834000       15.9994           0
     59885 TIP3     6830     TIP3     H1       HT       0.417000       1.00800           0
     59886 TIP3     6830     TIP3     H2       HT       0.417000       1.00800           0
     59887 TIP3     6831     TIP3     OH2      OT      -0.834000       15.9994           0
     59888 TIP3     6831     TIP3     H1       HT       0.417000       1.00800           0
     59889 TIP3     6831     TIP3     H2       HT       0.417000       1.00800           0
     59890 TIP3     6832     TIP3     OH2      OT      -0.834000       15.9994           0
     59891 TIP3     6832     TIP3     H1       HT       0.417000       1.00800           0
     59892 TIP3     6832     TIP3     H2       HT       0.417000       1.00800           0
     59893 TIP3     6833     TIP3     OH2      OT      -0.834000       15.9994           0
     59894 TIP3     6833     TIP3     H1       HT       0.417000       1.00800           0
     59895 TIP3     6833     TIP3     H2       HT       0.417000       1.00800           0
     59896 TIP3     6834     TIP3     OH2      OT      -0.834000       15.9994           0
     59897 TIP3     6834     TIP3     H1       HT       0.417000       1.00800           0
     59898 TIP3     6834     TIP3     H2       HT       0.417000       1.00800           0
     59899 TIP3     6835     TIP3     OH2      OT      -0.834000       15.9994           0
     59900 TIP3     6835     TIP3     H1       HT       0.417000       1.00800           0
     59901 TIP3     6835     TIP3     H2       HT       0.417000       1.00800           0
     59902 TIP3     6836     TIP3     OH2      OT      -0.834000       15.9994           0
     59903 TIP3     6836     TIP3     H1       HT       0.417000       1.00800           0
     59904 TIP3     6836     TIP3     H2       HT       0.417000       1.00800           0
     59905 TIP3     6837     TIP3     OH2      OT      -0.834000       15.9994           0
     59906 TIP3     6837     TIP3     H1       HT       0.417000       1.00800           0
     59907 TIP3     6837     TIP3     H2       HT       0.417000       1.00800           0
     59908 TIP3     6838     TIP3     OH2      OT      -0.834000       15.9994           0
     59909 TIP3     6838     TIP3     H1       HT       0.417000       1.00800           0
     59910 TIP3     6838     TIP3     H2       HT       0.417000       1.00800           0
     59911 TIP3     6839     TIP3     OH2      OT      -0.834000       15.9994           0
     59912 TIP3     6839     TIP3     H1       HT       0.417000       1.00800           0
     59913 TIP3     6839     TIP3     H2       HT       0.417000       1.00800           0
     59914 TIP3     6840     TIP3     OH2      OT      -0.834000       15.9994           0
     59915 TIP3     6840     TIP3     H1       HT       0.417000       1.00800           0
     59916 TIP3     6840     TIP3     H2       HT       0.417000       1.00800           0
     59917 TIP3     6841     TIP3     OH2      OT      -0.834000       15.9994           0
     59918 TIP3     6841     TIP3     H1       HT       0.417000       1.00800           0
     59919 TIP3     6841     TIP3     H2       HT       0.417000       1.00800           0
     59920 TIP3     6842     TIP3     OH2      OT      -0.834000       15.9994           0
     59921 TIP3     6842     TIP3     H1       HT       0.417000       1.00800           0
     59922 TIP3     6842     TIP3     H2       HT       0.417000       1.00800           0
     59923 TIP3     6843     TIP3     OH2      OT      -0.834000       15.9994           0
     59924 TIP3     6843     TIP3     H1       HT       0.417000       1.00800           0
     59925 TIP3     6843     TIP3     H2       HT       0.417000       1.00800           0
     59926 TIP3     6844     TIP3     OH2      OT      -0.834000       15.9994           0
     59927 TIP3     6844     TIP3     H1       HT       0.417000       1.00800           0
     59928 TIP3     6844     TIP3     H2       HT       0.417000       1.00800           0
     59929 TIP3     6845     TIP3     OH2      OT      -0.834000       15.9994           0
     59930 TIP3     6845     TIP3     H1       HT       0.417000       1.00800           0
     59931 TIP3     6845     TIP3     H2       HT       0.417000       1.00800           0
     59932 TIP3     6846     TIP3     OH2      OT      -0.834000       15.9994           0
     59933 TIP3     6846     TIP3     H1       HT       0.417000       1.00800           0
     59934 TIP3     6846     TIP3     H2       HT       0.417000       1.00800           0
     59935 TIP3     6847     TIP3     OH2      OT      -0.834000       15.9994           0
     59936 TIP3     6847     TIP3     H1       HT       0.417000       1.00800           0
     59937 TIP3     6847     TIP3     H2       HT       0.417000       1.00800           0
     59938 TIP3     6848     TIP3     OH2      OT      -0.834000       15.9994           0
     59939 TIP3     6848     TIP3     H1       HT       0.417000       1.00800           0
     59940 TIP3     6848     TIP3     H2       HT       0.417000       1.00800           0
     59941 TIP3     6849     TIP3     OH2      OT      -0.834000       15.9994           0
     59942 TIP3     6849     TIP3     H1       HT       0.417000       1.00800           0
     59943 TIP3     6849     TIP3     H2       HT       0.417000       1.00800           0
     59944 TIP3     6850     TIP3     OH2      OT      -0.834000       15.9994           0
     59945 TIP3     6850     TIP3     H1       HT       0.417000       1.00800           0
     59946 TIP3     6850     TIP3     H2       HT       0.417000       1.00800           0
     59947 TIP3     6851     TIP3     OH2      OT      -0.834000       15.9994           0
     59948 TIP3     6851     TIP3     H1       HT       0.417000       1.00800           0
     59949 TIP3     6851     TIP3     H2       HT       0.417000       1.00800           0
     59950 TIP3     6852     TIP3     OH2      OT      -0.834000       15.9994           0
     59951 TIP3     6852     TIP3     H1       HT       0.417000       1.00800           0
     59952 TIP3     6852     TIP3     H2       HT       0.417000       1.00800           0
     59953 TIP3     6853     TIP3     OH2      OT      -0.834000       15.9994           0
     59954 TIP3     6853     TIP3     H1       HT       0.417000       1.00800           0
     59955 TIP3     6853     TIP3     H2       HT       0.417000       1.00800           0
     59956 TIP3     6854     TIP3     OH2      OT      -0.834000       15.9994           0
     59957 TIP3     6854     TIP3     H1       HT       0.417000       1.00800           0
     59958 TIP3     6854     TIP3     H2       HT       0.417000       1.00800           0
     59959 TIP3     6855     TIP3     OH2      OT      -0.834000       15.9994           0
     59960 TIP3     6855     TIP3     H1       HT       0.417000       1.00800           0
     59961 TIP3     6855     TIP3     H2       HT       0.417000       1.00800           0
     59962 TIP3     6856     TIP3     OH2      OT      -0.834000       15.9994           0
     59963 TIP3     6856     TIP3     H1       HT       0.417000       1.00800           0
     59964 TIP3     6856     TIP3     H2       HT       0.417000       1.00800           0
     59965 TIP3     6857     TIP3     OH2      OT      -0.834000       15.9994           0
     59966 TIP3     6857     TIP3     H1       HT       0.417000       1.00800           0
     59967 TIP3     6857     TIP3     H2       HT       0.417000       1.00800           0
     59968 TIP3     6858     TIP3     OH2      OT      -0.834000       15.9994           0
     59969 TIP3     6858     TIP3     H1       HT       0.417000       1.00800           0
     59970 TIP3     6858     TIP3     H2       HT       0.417000       1.00800           0
     59971 TIP3     6859     TIP3     OH2      OT      -0.834000       15.9994           0
     59972 TIP3     6859     TIP3     H1       HT       0.417000       1.00800           0
     59973 TIP3     6859     TIP3     H2       HT       0.417000       1.00800           0
     59974 TIP3     6860     TIP3     OH2      OT      -0.834000       15.9994           0
     59975 TIP3     6860     TIP3     H1       HT       0.417000       1.00800           0
     59976 TIP3     6860     TIP3     H2       HT       0.417000       1.00800           0
     59977 TIP3     6861     TIP3     OH2      OT      -0.834000       15.9994           0
     59978 TIP3     6861     TIP3     H1       HT       0.417000       1.00800           0
     59979 TIP3     6861     TIP3     H2       HT       0.417000       1.00800           0
     59980 TIP3     6862     TIP3     OH2      OT      -0.834000       15.9994           0
     59981 TIP3     6862     TIP3     H1       HT       0.417000       1.00800           0
     59982 TIP3     6862     TIP3     H2       HT       0.417000       1.00800           0
     59983 TIP3     6863     TIP3     OH2      OT      -0.834000       15.9994           0
     59984 TIP3     6863     TIP3     H1       HT       0.417000       1.00800           0
     59985 TIP3     6863     TIP3     H2       HT       0.417000       1.00800           0
     59986 TIP3     6864     TIP3     OH2      OT      -0.834000       15.9994           0
     59987 TIP3     6864     TIP3     H1       HT       0.417000       1.00800           0
     59988 TIP3     6864     TIP3     H2       HT       0.417000       1.00800           0
     59989 TIP3     6865     TIP3     OH2      OT      -0.834000       15.9994           0
     59990 TIP3     6865     TIP3     H1       HT       0.417000       1.00800           0
     59991 TIP3     6865     TIP3     H2       HT       0.417000       1.00800           0
     59992 TIP3     6866     TIP3     OH2      OT      -0.834000       15.9994           0
     59993 TIP3     6866     TIP3     H1       HT       0.417000       1.00800           0
     59994 TIP3     6866     TIP3     H2       HT       0.417000       1.00800           0
     59995 TIP3     6867     TIP3     OH2      OT      -0.834000       15.9994           0
     59996 TIP3     6867     TIP3     H1       HT       0.417000       1.00800           0
     59997 TIP3     6867     TIP3     H2       HT       0.417000       1.00800           0
     59998 TIP3     6868     TIP3     OH2      OT      -0.834000       15.9994           0
     59999 TIP3     6868     TIP3     H1       HT       0.417000       1.00800           0
     60000 TIP3     6868     TIP3     H2       HT       0.417000       1.00800           0
     60001 TIP3     6869     TIP3     OH2      OT      -0.834000       15.9994           0
     60002 TIP3     6869     TIP3     H1       HT       0.417000       1.00800           0
     60003 TIP3     6869     TIP3     H2       HT       0.417000       1.00800           0
     60004 TIP3     6870     TIP3     OH2      OT      -0.834000       15.9994           0
     60005 TIP3     6870     TIP3     H1       HT       0.417000       1.00800           0
     60006 TIP3     6870     TIP3     H2       HT       0.417000       1.00800           0
     60007 TIP3     6871     TIP3     OH2      OT      -0.834000       15.9994           0
     60008 TIP3     6871     TIP3     H1       HT       0.417000       1.00800           0
     60009 TIP3     6871     TIP3     H2       HT       0.417000       1.00800           0
     60010 TIP3     6872     TIP3     OH2      OT      -0.834000       15.9994           0
     60011 TIP3     6872     TIP3     H1       HT       0.417000       1.00800           0
     60012 TIP3     6872     TIP3     H2       HT       0.417000       1.00800           0
     60013 TIP3     6873     TIP3     OH2      OT      -0.834000       15.9994           0
     60014 TIP3     6873     TIP3     H1       HT       0.417000       1.00800           0
     60015 TIP3     6873     TIP3     H2       HT       0.417000       1.00800           0
     60016 TIP3     6874     TIP3     OH2      OT      -0.834000       15.9994           0
     60017 TIP3     6874     TIP3     H1       HT       0.417000       1.00800           0
     60018 TIP3     6874     TIP3     H2       HT       0.417000       1.00800           0
     60019 TIP3     6875     TIP3     OH2      OT      -0.834000       15.9994           0
     60020 TIP3     6875     TIP3     H1       HT       0.417000       1.00800           0
     60021 TIP3     6875     TIP3     H2       HT       0.417000       1.00800           0
     60022 TIP3     6876     TIP3     OH2      OT      -0.834000       15.9994           0
     60023 TIP3     6876     TIP3     H1       HT       0.417000       1.00800           0
     60024 TIP3     6876     TIP3     H2       HT       0.417000       1.00800           0
     60025 TIP3     6877     TIP3     OH2      OT      -0.834000       15.9994           0
     60026 TIP3     6877     TIP3     H1       HT       0.417000       1.00800           0
     60027 TIP3     6877     TIP3     H2       HT       0.417000       1.00800           0
     60028 TIP3     6878     TIP3     OH2      OT      -0.834000       15.9994           0
     60029 TIP3     6878     TIP3     H1       HT       0.417000       1.00800           0
     60030 TIP3     6878     TIP3     H2       HT       0.417000       1.00800           0
     60031 TIP3     6879     TIP3     OH2      OT      -0.834000       15.9994           0
     60032 TIP3     6879     TIP3     H1       HT       0.417000       1.00800           0
     60033 TIP3     6879     TIP3     H2       HT       0.417000       1.00800           0
     60034 TIP3     6880     TIP3     OH2      OT      -0.834000       15.9994           0
     60035 TIP3     6880     TIP3     H1       HT       0.417000       1.00800           0
     60036 TIP3     6880     TIP3     H2       HT       0.417000       1.00800           0
     60037 TIP3     6881     TIP3     OH2      OT      -0.834000       15.9994           0
     60038 TIP3     6881     TIP3     H1       HT       0.417000       1.00800           0
     60039 TIP3     6881     TIP3     H2       HT       0.417000       1.00800           0
     60040 TIP3     6882     TIP3     OH2      OT      -0.834000       15.9994           0
     60041 TIP3     6882     TIP3     H1       HT       0.417000       1.00800           0
     60042 TIP3     6882     TIP3     H2       HT       0.417000       1.00800           0
     60043 TIP3     6883     TIP3     OH2      OT      -0.834000       15.9994           0
     60044 TIP3     6883     TIP3     H1       HT       0.417000       1.00800           0
     60045 TIP3     6883     TIP3     H2       HT       0.417000       1.00800           0
     60046 TIP3     6884     TIP3     OH2      OT      -0.834000       15.9994           0
     60047 TIP3     6884     TIP3     H1       HT       0.417000       1.00800           0
     60048 TIP3     6884     TIP3     H2       HT       0.417000       1.00800           0
     60049 TIP3     6885     TIP3     OH2      OT      -0.834000       15.9994           0
     60050 TIP3     6885     TIP3     H1       HT       0.417000       1.00800           0
     60051 TIP3     6885     TIP3     H2       HT       0.417000       1.00800           0
     60052 TIP3     6886     TIP3     OH2      OT      -0.834000       15.9994           0
     60053 TIP3     6886     TIP3     H1       HT       0.417000       1.00800           0
     60054 TIP3     6886     TIP3     H2       HT       0.417000       1.00800           0
     60055 TIP3     6887     TIP3     OH2      OT      -0.834000       15.9994           0
     60056 TIP3     6887     TIP3     H1       HT       0.417000       1.00800           0
     60057 TIP3     6887     TIP3     H2       HT       0.417000       1.00800           0
     60058 TIP3     6888     TIP3     OH2      OT      -0.834000       15.9994           0
     60059 TIP3     6888     TIP3     H1       HT       0.417000       1.00800           0
     60060 TIP3     6888     TIP3     H2       HT       0.417000       1.00800           0
     60061 TIP3     6889     TIP3     OH2      OT      -0.834000       15.9994           0
     60062 TIP3     6889     TIP3     H1       HT       0.417000       1.00800           0
     60063 TIP3     6889     TIP3     H2       HT       0.417000       1.00800           0
     60064 TIP3     6890     TIP3     OH2      OT      -0.834000       15.9994           0
     60065 TIP3     6890     TIP3     H1       HT       0.417000       1.00800           0
     60066 TIP3     6890     TIP3     H2       HT       0.417000       1.00800           0
     60067 TIP3     6891     TIP3     OH2      OT      -0.834000       15.9994           0
     60068 TIP3     6891     TIP3     H1       HT       0.417000       1.00800           0
     60069 TIP3     6891     TIP3     H2       HT       0.417000       1.00800           0
     60070 TIP3     6892     TIP3     OH2      OT      -0.834000       15.9994           0
     60071 TIP3     6892     TIP3     H1       HT       0.417000       1.00800           0
     60072 TIP3     6892     TIP3     H2       HT       0.417000       1.00800           0
     60073 TIP3     6893     TIP3     OH2      OT      -0.834000       15.9994           0
     60074 TIP3     6893     TIP3     H1       HT       0.417000       1.00800           0
     60075 TIP3     6893     TIP3     H2       HT       0.417000       1.00800           0
     60076 TIP3     6894     TIP3     OH2      OT      -0.834000       15.9994           0
     60077 TIP3     6894     TIP3     H1       HT       0.417000       1.00800           0
     60078 TIP3     6894     TIP3     H2       HT       0.417000       1.00800           0
     60079 TIP3     6895     TIP3     OH2      OT      -0.834000       15.9994           0
     60080 TIP3     6895     TIP3     H1       HT       0.417000       1.00800           0
     60081 TIP3     6895     TIP3     H2       HT       0.417000       1.00800           0
     60082 TIP3     6896     TIP3     OH2      OT      -0.834000       15.9994           0
     60083 TIP3     6896     TIP3     H1       HT       0.417000       1.00800           0
     60084 TIP3     6896     TIP3     H2       HT       0.417000       1.00800           0
     60085 TIP3     6897     TIP3     OH2      OT      -0.834000       15.9994           0
     60086 TIP3     6897     TIP3     H1       HT       0.417000       1.00800           0
     60087 TIP3     6897     TIP3     H2       HT       0.417000       1.00800           0
     60088 TIP3     6898     TIP3     OH2      OT      -0.834000       15.9994           0
     60089 TIP3     6898     TIP3     H1       HT       0.417000       1.00800           0
     60090 TIP3     6898     TIP3     H2       HT       0.417000       1.00800           0
     60091 TIP3     6899     TIP3     OH2      OT      -0.834000       15.9994           0
     60092 TIP3     6899     TIP3     H1       HT       0.417000       1.00800           0
     60093 TIP3     6899     TIP3     H2       HT       0.417000       1.00800           0
     60094 TIP3     6900     TIP3     OH2      OT      -0.834000       15.9994           0
     60095 TIP3     6900     TIP3     H1       HT       0.417000       1.00800           0
     60096 TIP3     6900     TIP3     H2       HT       0.417000       1.00800           0
     60097 TIP3     6901     TIP3     OH2      OT      -0.834000       15.9994           0
     60098 TIP3     6901     TIP3     H1       HT       0.417000       1.00800           0
     60099 TIP3     6901     TIP3     H2       HT       0.417000       1.00800           0
     60100 TIP3     6902     TIP3     OH2      OT      -0.834000       15.9994           0
     60101 TIP3     6902     TIP3     H1       HT       0.417000       1.00800           0
     60102 TIP3     6902     TIP3     H2       HT       0.417000       1.00800           0
     60103 TIP3     6903     TIP3     OH2      OT      -0.834000       15.9994           0
     60104 TIP3     6903     TIP3     H1       HT       0.417000       1.00800           0
     60105 TIP3     6903     TIP3     H2       HT       0.417000       1.00800           0
     60106 TIP3     6904     TIP3     OH2      OT      -0.834000       15.9994           0
     60107 TIP3     6904     TIP3     H1       HT       0.417000       1.00800           0
     60108 TIP3     6904     TIP3     H2       HT       0.417000       1.00800           0
     60109 TIP3     6905     TIP3     OH2      OT      -0.834000       15.9994           0
     60110 TIP3     6905     TIP3     H1       HT       0.417000       1.00800           0
     60111 TIP3     6905     TIP3     H2       HT       0.417000       1.00800           0
     60112 TIP3     6906     TIP3     OH2      OT      -0.834000       15.9994           0
     60113 TIP3     6906     TIP3     H1       HT       0.417000       1.00800           0
     60114 TIP3     6906     TIP3     H2       HT       0.417000       1.00800           0
     60115 TIP3     6907     TIP3     OH2      OT      -0.834000       15.9994           0
     60116 TIP3     6907     TIP3     H1       HT       0.417000       1.00800           0
     60117 TIP3     6907     TIP3     H2       HT       0.417000       1.00800           0
     60118 TIP3     6908     TIP3     OH2      OT      -0.834000       15.9994           0
     60119 TIP3     6908     TIP3     H1       HT       0.417000       1.00800           0
     60120 TIP3     6908     TIP3     H2       HT       0.417000       1.00800           0
     60121 TIP3     6909     TIP3     OH2      OT      -0.834000       15.9994           0
     60122 TIP3     6909     TIP3     H1       HT       0.417000       1.00800           0
     60123 TIP3     6909     TIP3     H2       HT       0.417000       1.00800           0
     60124 TIP3     6910     TIP3     OH2      OT      -0.834000       15.9994           0
     60125 TIP3     6910     TIP3     H1       HT       0.417000       1.00800           0
     60126 TIP3     6910     TIP3     H2       HT       0.417000       1.00800           0
     60127 TIP3     6911     TIP3     OH2      OT      -0.834000       15.9994           0
     60128 TIP3     6911     TIP3     H1       HT       0.417000       1.00800           0
     60129 TIP3     6911     TIP3     H2       HT       0.417000       1.00800           0
     60130 TIP3     6912     TIP3     OH2      OT      -0.834000       15.9994           0
     60131 TIP3     6912     TIP3     H1       HT       0.417000       1.00800           0
     60132 TIP3     6912     TIP3     H2       HT       0.417000       1.00800           0
     60133 TIP3     6913     TIP3     OH2      OT      -0.834000       15.9994           0
     60134 TIP3     6913     TIP3     H1       HT       0.417000       1.00800           0
     60135 TIP3     6913     TIP3     H2       HT       0.417000       1.00800           0
     60136 TIP3     6914     TIP3     OH2      OT      -0.834000       15.9994           0
     60137 TIP3     6914     TIP3     H1       HT       0.417000       1.00800           0
     60138 TIP3     6914     TIP3     H2       HT       0.417000       1.00800           0
     60139 TIP3     6915     TIP3     OH2      OT      -0.834000       15.9994           0
     60140 TIP3     6915     TIP3     H1       HT       0.417000       1.00800           0
     60141 TIP3     6915     TIP3     H2       HT       0.417000       1.00800           0
     60142 TIP3     6916     TIP3     OH2      OT      -0.834000       15.9994           0
     60143 TIP3     6916     TIP3     H1       HT       0.417000       1.00800           0
     60144 TIP3     6916     TIP3     H2       HT       0.417000       1.00800           0
     60145 TIP3     6917     TIP3     OH2      OT      -0.834000       15.9994           0
     60146 TIP3     6917     TIP3     H1       HT       0.417000       1.00800           0
     60147 TIP3     6917     TIP3     H2       HT       0.417000       1.00800           0
     60148 TIP3     6918     TIP3     OH2      OT      -0.834000       15.9994           0
     60149 TIP3     6918     TIP3     H1       HT       0.417000       1.00800           0
     60150 TIP3     6918     TIP3     H2       HT       0.417000       1.00800           0
     60151 TIP3     6919     TIP3     OH2      OT      -0.834000       15.9994           0
     60152 TIP3     6919     TIP3     H1       HT       0.417000       1.00800           0
     60153 TIP3     6919     TIP3     H2       HT       0.417000       1.00800           0
     60154 TIP3     6920     TIP3     OH2      OT      -0.834000       15.9994           0
     60155 TIP3     6920     TIP3     H1       HT       0.417000       1.00800           0
     60156 TIP3     6920     TIP3     H2       HT       0.417000       1.00800           0
     60157 TIP3     6921     TIP3     OH2      OT      -0.834000       15.9994           0
     60158 TIP3     6921     TIP3     H1       HT       0.417000       1.00800           0
     60159 TIP3     6921     TIP3     H2       HT       0.417000       1.00800           0
     60160 TIP3     6922     TIP3     OH2      OT      -0.834000       15.9994           0
     60161 TIP3     6922     TIP3     H1       HT       0.417000       1.00800           0
     60162 TIP3     6922     TIP3     H2       HT       0.417000       1.00800           0
     60163 TIP3     6923     TIP3     OH2      OT      -0.834000       15.9994           0
     60164 TIP3     6923     TIP3     H1       HT       0.417000       1.00800           0
     60165 TIP3     6923     TIP3     H2       HT       0.417000       1.00800           0
     60166 TIP3     6924     TIP3     OH2      OT      -0.834000       15.9994           0
     60167 TIP3     6924     TIP3     H1       HT       0.417000       1.00800           0
     60168 TIP3     6924     TIP3     H2       HT       0.417000       1.00800           0
     60169 TIP3     6925     TIP3     OH2      OT      -0.834000       15.9994           0
     60170 TIP3     6925     TIP3     H1       HT       0.417000       1.00800           0
     60171 TIP3     6925     TIP3     H2       HT       0.417000       1.00800           0
     60172 TIP3     6926     TIP3     OH2      OT      -0.834000       15.9994           0
     60173 TIP3     6926     TIP3     H1       HT       0.417000       1.00800           0
     60174 TIP3     6926     TIP3     H2       HT       0.417000       1.00800           0
     60175 TIP3     6927     TIP3     OH2      OT      -0.834000       15.9994           0
     60176 TIP3     6927     TIP3     H1       HT       0.417000       1.00800           0
     60177 TIP3     6927     TIP3     H2       HT       0.417000       1.00800           0
     60178 TIP3     6928     TIP3     OH2      OT      -0.834000       15.9994           0
     60179 TIP3     6928     TIP3     H1       HT       0.417000       1.00800           0
     60180 TIP3     6928     TIP3     H2       HT       0.417000       1.00800           0
     60181 TIP3     6929     TIP3     OH2      OT      -0.834000       15.9994           0
     60182 TIP3     6929     TIP3     H1       HT       0.417000       1.00800           0
     60183 TIP3     6929     TIP3     H2       HT       0.417000       1.00800           0
     60184 TIP3     6930     TIP3     OH2      OT      -0.834000       15.9994           0
     60185 TIP3     6930     TIP3     H1       HT       0.417000       1.00800           0
     60186 TIP3     6930     TIP3     H2       HT       0.417000       1.00800           0
     60187 TIP3     6931     TIP3     OH2      OT      -0.834000       15.9994           0
     60188 TIP3     6931     TIP3     H1       HT       0.417000       1.00800           0
     60189 TIP3     6931     TIP3     H2       HT       0.417000       1.00800           0
     60190 TIP3     6932     TIP3     OH2      OT      -0.834000       15.9994           0
     60191 TIP3     6932     TIP3     H1       HT       0.417000       1.00800           0
     60192 TIP3     6932     TIP3     H2       HT       0.417000       1.00800           0
     60193 TIP3     6933     TIP3     OH2      OT      -0.834000       15.9994           0
     60194 TIP3     6933     TIP3     H1       HT       0.417000       1.00800           0
     60195 TIP3     6933     TIP3     H2       HT       0.417000       1.00800           0
     60196 TIP3     6934     TIP3     OH2      OT      -0.834000       15.9994           0
     60197 TIP3     6934     TIP3     H1       HT       0.417000       1.00800           0
     60198 TIP3     6934     TIP3     H2       HT       0.417000       1.00800           0
     60199 TIP3     6935     TIP3     OH2      OT      -0.834000       15.9994           0
     60200 TIP3     6935     TIP3     H1       HT       0.417000       1.00800           0
     60201 TIP3     6935     TIP3     H2       HT       0.417000       1.00800           0
     60202 TIP3     6936     TIP3     OH2      OT      -0.834000       15.9994           0
     60203 TIP3     6936     TIP3     H1       HT       0.417000       1.00800           0
     60204 TIP3     6936     TIP3     H2       HT       0.417000       1.00800           0
     60205 TIP3     6937     TIP3     OH2      OT      -0.834000       15.9994           0
     60206 TIP3     6937     TIP3     H1       HT       0.417000       1.00800           0
     60207 TIP3     6937     TIP3     H2       HT       0.417000       1.00800           0
     60208 TIP3     6938     TIP3     OH2      OT      -0.834000       15.9994           0
     60209 TIP3     6938     TIP3     H1       HT       0.417000       1.00800           0
     60210 TIP3     6938     TIP3     H2       HT       0.417000       1.00800           0
     60211 TIP3     6939     TIP3     OH2      OT      -0.834000       15.9994           0
     60212 TIP3     6939     TIP3     H1       HT       0.417000       1.00800           0
     60213 TIP3     6939     TIP3     H2       HT       0.417000       1.00800           0
     60214 TIP3     6940     TIP3     OH2      OT      -0.834000       15.9994           0
     60215 TIP3     6940     TIP3     H1       HT       0.417000       1.00800           0
     60216 TIP3     6940     TIP3     H2       HT       0.417000       1.00800           0
     60217 TIP3     6941     TIP3     OH2      OT      -0.834000       15.9994           0
     60218 TIP3     6941     TIP3     H1       HT       0.417000       1.00800           0
     60219 TIP3     6941     TIP3     H2       HT       0.417000       1.00800           0
     60220 TIP3     6942     TIP3     OH2      OT      -0.834000       15.9994           0
     60221 TIP3     6942     TIP3     H1       HT       0.417000       1.00800           0
     60222 TIP3     6942     TIP3     H2       HT       0.417000       1.00800           0
     60223 TIP3     6943     TIP3     OH2      OT      -0.834000       15.9994           0
     60224 TIP3     6943     TIP3     H1       HT       0.417000       1.00800           0
     60225 TIP3     6943     TIP3     H2       HT       0.417000       1.00800           0
     60226 TIP3     6944     TIP3     OH2      OT      -0.834000       15.9994           0
     60227 TIP3     6944     TIP3     H1       HT       0.417000       1.00800           0
     60228 TIP3     6944     TIP3     H2       HT       0.417000       1.00800           0
     60229 TIP3     6945     TIP3     OH2      OT      -0.834000       15.9994           0
     60230 TIP3     6945     TIP3     H1       HT       0.417000       1.00800           0
     60231 TIP3     6945     TIP3     H2       HT       0.417000       1.00800           0
     60232 TIP3     6946     TIP3     OH2      OT      -0.834000       15.9994           0
     60233 TIP3     6946     TIP3     H1       HT       0.417000       1.00800           0
     60234 TIP3     6946     TIP3     H2       HT       0.417000       1.00800           0
     60235 TIP3     6947     TIP3     OH2      OT      -0.834000       15.9994           0
     60236 TIP3     6947     TIP3     H1       HT       0.417000       1.00800           0
     60237 TIP3     6947     TIP3     H2       HT       0.417000       1.00800           0
     60238 TIP3     6948     TIP3     OH2      OT      -0.834000       15.9994           0
     60239 TIP3     6948     TIP3     H1       HT       0.417000       1.00800           0
     60240 TIP3     6948     TIP3     H2       HT       0.417000       1.00800           0
     60241 TIP3     6949     TIP3     OH2      OT      -0.834000       15.9994           0
     60242 TIP3     6949     TIP3     H1       HT       0.417000       1.00800           0
     60243 TIP3     6949     TIP3     H2       HT       0.417000       1.00800           0
     60244 TIP3     6950     TIP3     OH2      OT      -0.834000       15.9994           0
     60245 TIP3     6950     TIP3     H1       HT       0.417000       1.00800           0
     60246 TIP3     6950     TIP3     H2       HT       0.417000       1.00800           0
     60247 TIP3     6951     TIP3     OH2      OT      -0.834000       15.9994           0
     60248 TIP3     6951     TIP3     H1       HT       0.417000       1.00800           0
     60249 TIP3     6951     TIP3     H2       HT       0.417000       1.00800           0
     60250 TIP3     6952     TIP3     OH2      OT      -0.834000       15.9994           0
     60251 TIP3     6952     TIP3     H1       HT       0.417000       1.00800           0
     60252 TIP3     6952     TIP3     H2       HT       0.417000       1.00800           0
     60253 TIP3     6953     TIP3     OH2      OT      -0.834000       15.9994           0
     60254 TIP3     6953     TIP3     H1       HT       0.417000       1.00800           0
     60255 TIP3     6953     TIP3     H2       HT       0.417000       1.00800           0
     60256 TIP3     6954     TIP3     OH2      OT      -0.834000       15.9994           0
     60257 TIP3     6954     TIP3     H1       HT       0.417000       1.00800           0
     60258 TIP3     6954     TIP3     H2       HT       0.417000       1.00800           0
     60259 TIP3     6955     TIP3     OH2      OT      -0.834000       15.9994           0
     60260 TIP3     6955     TIP3     H1       HT       0.417000       1.00800           0
     60261 TIP3     6955     TIP3     H2       HT       0.417000       1.00800           0
     60262 TIP3     6956     TIP3     OH2      OT      -0.834000       15.9994           0
     60263 TIP3     6956     TIP3     H1       HT       0.417000       1.00800           0
     60264 TIP3     6956     TIP3     H2       HT       0.417000       1.00800           0
     60265 TIP3     6957     TIP3     OH2      OT      -0.834000       15.9994           0
     60266 TIP3     6957     TIP3     H1       HT       0.417000       1.00800           0
     60267 TIP3     6957     TIP3     H2       HT       0.417000       1.00800           0
     60268 TIP3     6958     TIP3     OH2      OT      -0.834000       15.9994           0
     60269 TIP3     6958     TIP3     H1       HT       0.417000       1.00800           0
     60270 TIP3     6958     TIP3     H2       HT       0.417000       1.00800           0
     60271 TIP3     6959     TIP3     OH2      OT      -0.834000       15.9994           0
     60272 TIP3     6959     TIP3     H1       HT       0.417000       1.00800           0
     60273 TIP3     6959     TIP3     H2       HT       0.417000       1.00800           0
     60274 TIP3     6960     TIP3     OH2      OT      -0.834000       15.9994           0
     60275 TIP3     6960     TIP3     H1       HT       0.417000       1.00800           0
     60276 TIP3     6960     TIP3     H2       HT       0.417000       1.00800           0
     60277 TIP3     6961     TIP3     OH2      OT      -0.834000       15.9994           0
     60278 TIP3     6961     TIP3     H1       HT       0.417000       1.00800           0
     60279 TIP3     6961     TIP3     H2       HT       0.417000       1.00800           0
     60280 TIP3     6962     TIP3     OH2      OT      -0.834000       15.9994           0
     60281 TIP3     6962     TIP3     H1       HT       0.417000       1.00800           0
     60282 TIP3     6962     TIP3     H2       HT       0.417000       1.00800           0
     60283 TIP3     6963     TIP3     OH2      OT      -0.834000       15.9994           0
     60284 TIP3     6963     TIP3     H1       HT       0.417000       1.00800           0
     60285 TIP3     6963     TIP3     H2       HT       0.417000       1.00800           0
     60286 TIP3     6964     TIP3     OH2      OT      -0.834000       15.9994           0
     60287 TIP3     6964     TIP3     H1       HT       0.417000       1.00800           0
     60288 TIP3     6964     TIP3     H2       HT       0.417000       1.00800           0
     60289 TIP3     6965     TIP3     OH2      OT      -0.834000       15.9994           0
     60290 TIP3     6965     TIP3     H1       HT       0.417000       1.00800           0
     60291 TIP3     6965     TIP3     H2       HT       0.417000       1.00800           0
     60292 TIP3     6966     TIP3     OH2      OT      -0.834000       15.9994           0
     60293 TIP3     6966     TIP3     H1       HT       0.417000       1.00800           0
     60294 TIP3     6966     TIP3     H2       HT       0.417000       1.00800           0
     60295 TIP3     6967     TIP3     OH2      OT      -0.834000       15.9994           0
     60296 TIP3     6967     TIP3     H1       HT       0.417000       1.00800           0
     60297 TIP3     6967     TIP3     H2       HT       0.417000       1.00800           0
     60298 TIP3     6968     TIP3     OH2      OT      -0.834000       15.9994           0
     60299 TIP3     6968     TIP3     H1       HT       0.417000       1.00800           0
     60300 TIP3     6968     TIP3     H2       HT       0.417000       1.00800           0
     60301 TIP3     6969     TIP3     OH2      OT      -0.834000       15.9994           0
     60302 TIP3     6969     TIP3     H1       HT       0.417000       1.00800           0
     60303 TIP3     6969     TIP3     H2       HT       0.417000       1.00800           0
     60304 TIP3     6970     TIP3     OH2      OT      -0.834000       15.9994           0
     60305 TIP3     6970     TIP3     H1       HT       0.417000       1.00800           0
     60306 TIP3     6970     TIP3     H2       HT       0.417000       1.00800           0
     60307 TIP3     6971     TIP3     OH2      OT      -0.834000       15.9994           0
     60308 TIP3     6971     TIP3     H1       HT       0.417000       1.00800           0
     60309 TIP3     6971     TIP3     H2       HT       0.417000       1.00800           0
     60310 TIP3     6972     TIP3     OH2      OT      -0.834000       15.9994           0
     60311 TIP3     6972     TIP3     H1       HT       0.417000       1.00800           0
     60312 TIP3     6972     TIP3     H2       HT       0.417000       1.00800           0
     60313 TIP3     6973     TIP3     OH2      OT      -0.834000       15.9994           0
     60314 TIP3     6973     TIP3     H1       HT       0.417000       1.00800           0
     60315 TIP3     6973     TIP3     H2       HT       0.417000       1.00800           0
     60316 TIP3     6974     TIP3     OH2      OT      -0.834000       15.9994           0
     60317 TIP3     6974     TIP3     H1       HT       0.417000       1.00800           0
     60318 TIP3     6974     TIP3     H2       HT       0.417000       1.00800           0
     60319 TIP3     6975     TIP3     OH2      OT      -0.834000       15.9994           0
     60320 TIP3     6975     TIP3     H1       HT       0.417000       1.00800           0
     60321 TIP3     6975     TIP3     H2       HT       0.417000       1.00800           0
     60322 TIP3     6976     TIP3     OH2      OT      -0.834000       15.9994           0
     60323 TIP3     6976     TIP3     H1       HT       0.417000       1.00800           0
     60324 TIP3     6976     TIP3     H2       HT       0.417000       1.00800           0
     60325 TIP3     6977     TIP3     OH2      OT      -0.834000       15.9994           0
     60326 TIP3     6977     TIP3     H1       HT       0.417000       1.00800           0
     60327 TIP3     6977     TIP3     H2       HT       0.417000       1.00800           0
     60328 TIP3     6978     TIP3     OH2      OT      -0.834000       15.9994           0
     60329 TIP3     6978     TIP3     H1       HT       0.417000       1.00800           0
     60330 TIP3     6978     TIP3     H2       HT       0.417000       1.00800           0
     60331 TIP3     6979     TIP3     OH2      OT      -0.834000       15.9994           0
     60332 TIP3     6979     TIP3     H1       HT       0.417000       1.00800           0
     60333 TIP3     6979     TIP3     H2       HT       0.417000       1.00800           0
     60334 TIP3     6980     TIP3     OH2      OT      -0.834000       15.9994           0
     60335 TIP3     6980     TIP3     H1       HT       0.417000       1.00800           0
     60336 TIP3     6980     TIP3     H2       HT       0.417000       1.00800           0
     60337 TIP3     6981     TIP3     OH2      OT      -0.834000       15.9994           0
     60338 TIP3     6981     TIP3     H1       HT       0.417000       1.00800           0
     60339 TIP3     6981     TIP3     H2       HT       0.417000       1.00800           0
     60340 TIP3     6982     TIP3     OH2      OT      -0.834000       15.9994           0
     60341 TIP3     6982     TIP3     H1       HT       0.417000       1.00800           0
     60342 TIP3     6982     TIP3     H2       HT       0.417000       1.00800           0
     60343 TIP3     6983     TIP3     OH2      OT      -0.834000       15.9994           0
     60344 TIP3     6983     TIP3     H1       HT       0.417000       1.00800           0
     60345 TIP3     6983     TIP3     H2       HT       0.417000       1.00800           0
     60346 TIP3     6984     TIP3     OH2      OT      -0.834000       15.9994           0
     60347 TIP3     6984     TIP3     H1       HT       0.417000       1.00800           0
     60348 TIP3     6984     TIP3     H2       HT       0.417000       1.00800           0
     60349 TIP3     6985     TIP3     OH2      OT      -0.834000       15.9994           0
     60350 TIP3     6985     TIP3     H1       HT       0.417000       1.00800           0
     60351 TIP3     6985     TIP3     H2       HT       0.417000       1.00800           0
     60352 TIP3     6986     TIP3     OH2      OT      -0.834000       15.9994           0
     60353 TIP3     6986     TIP3     H1       HT       0.417000       1.00800           0
     60354 TIP3     6986     TIP3     H2       HT       0.417000       1.00800           0
     60355 TIP3     6987     TIP3     OH2      OT      -0.834000       15.9994           0
     60356 TIP3     6987     TIP3     H1       HT       0.417000       1.00800           0
     60357 TIP3     6987     TIP3     H2       HT       0.417000       1.00800           0
     60358 TIP3     6988     TIP3     OH2      OT      -0.834000       15.9994           0
     60359 TIP3     6988     TIP3     H1       HT       0.417000       1.00800           0
     60360 TIP3     6988     TIP3     H2       HT       0.417000       1.00800           0
     60361 TIP3     6989     TIP3     OH2      OT      -0.834000       15.9994           0
     60362 TIP3     6989     TIP3     H1       HT       0.417000       1.00800           0
     60363 TIP3     6989     TIP3     H2       HT       0.417000       1.00800           0
     60364 TIP3     6990     TIP3     OH2      OT      -0.834000       15.9994           0
     60365 TIP3     6990     TIP3     H1       HT       0.417000       1.00800           0
     60366 TIP3     6990     TIP3     H2       HT       0.417000       1.00800           0
     60367 TIP3     6991     TIP3     OH2      OT      -0.834000       15.9994           0
     60368 TIP3     6991     TIP3     H1       HT       0.417000       1.00800           0
     60369 TIP3     6991     TIP3     H2       HT       0.417000       1.00800           0
     60370 TIP3     6992     TIP3     OH2      OT      -0.834000       15.9994           0
     60371 TIP3     6992     TIP3     H1       HT       0.417000       1.00800           0
     60372 TIP3     6992     TIP3     H2       HT       0.417000       1.00800           0
     60373 TIP3     6993     TIP3     OH2      OT      -0.834000       15.9994           0
     60374 TIP3     6993     TIP3     H1       HT       0.417000       1.00800           0
     60375 TIP3     6993     TIP3     H2       HT       0.417000       1.00800           0
     60376 TIP3     6994     TIP3     OH2      OT      -0.834000       15.9994           0
     60377 TIP3     6994     TIP3     H1       HT       0.417000       1.00800           0
     60378 TIP3     6994     TIP3     H2       HT       0.417000       1.00800           0
     60379 TIP3     6995     TIP3     OH2      OT      -0.834000       15.9994           0
     60380 TIP3     6995     TIP3     H1       HT       0.417000       1.00800           0
     60381 TIP3     6995     TIP3     H2       HT       0.417000       1.00800           0
     60382 TIP3     6996     TIP3     OH2      OT      -0.834000       15.9994           0
     60383 TIP3     6996     TIP3     H1       HT       0.417000       1.00800           0
     60384 TIP3     6996     TIP3     H2       HT       0.417000       1.00800           0
     60385 TIP3     6997     TIP3     OH2      OT      -0.834000       15.9994           0
     60386 TIP3     6997     TIP3     H1       HT       0.417000       1.00800           0
     60387 TIP3     6997     TIP3     H2       HT       0.417000       1.00800           0
     60388 TIP3     6998     TIP3     OH2      OT      -0.834000       15.9994           0
     60389 TIP3     6998     TIP3     H1       HT       0.417000       1.00800           0
     60390 TIP3     6998     TIP3     H2       HT       0.417000       1.00800           0
     60391 TIP3     6999     TIP3     OH2      OT      -0.834000       15.9994           0
     60392 TIP3     6999     TIP3     H1       HT       0.417000       1.00800           0
     60393 TIP3     6999     TIP3     H2       HT       0.417000       1.00800           0
     60394 TIP3     7000     TIP3     OH2      OT      -0.834000       15.9994           0
     60395 TIP3     7000     TIP3     H1       HT       0.417000       1.00800           0
     60396 TIP3     7000     TIP3     H2       HT       0.417000       1.00800           0
     60397 TIP3     7001     TIP3     OH2      OT      -0.834000       15.9994           0
     60398 TIP3     7001     TIP3     H1       HT       0.417000       1.00800           0
     60399 TIP3     7001     TIP3     H2       HT       0.417000       1.00800           0
     60400 TIP3     7002     TIP3     OH2      OT      -0.834000       15.9994           0
     60401 TIP3     7002     TIP3     H1       HT       0.417000       1.00800           0
     60402 TIP3     7002     TIP3     H2       HT       0.417000       1.00800           0
     60403 TIP3     7003     TIP3     OH2      OT      -0.834000       15.9994           0
     60404 TIP3     7003     TIP3     H1       HT       0.417000       1.00800           0
     60405 TIP3     7003     TIP3     H2       HT       0.417000       1.00800           0
     60406 TIP3     7004     TIP3     OH2      OT      -0.834000       15.9994           0
     60407 TIP3     7004     TIP3     H1       HT       0.417000       1.00800           0
     60408 TIP3     7004     TIP3     H2       HT       0.417000       1.00800           0
     60409 TIP3     7005     TIP3     OH2      OT      -0.834000       15.9994           0
     60410 TIP3     7005     TIP3     H1       HT       0.417000       1.00800           0
     60411 TIP3     7005     TIP3     H2       HT       0.417000       1.00800           0
     60412 TIP3     7006     TIP3     OH2      OT      -0.834000       15.9994           0
     60413 TIP3     7006     TIP3     H1       HT       0.417000       1.00800           0
     60414 TIP3     7006     TIP3     H2       HT       0.417000       1.00800           0
     60415 TIP3     7007     TIP3     OH2      OT      -0.834000       15.9994           0
     60416 TIP3     7007     TIP3     H1       HT       0.417000       1.00800           0
     60417 TIP3     7007     TIP3     H2       HT       0.417000       1.00800           0
     60418 TIP3     7008     TIP3     OH2      OT      -0.834000       15.9994           0
     60419 TIP3     7008     TIP3     H1       HT       0.417000       1.00800           0
     60420 TIP3     7008     TIP3     H2       HT       0.417000       1.00800           0
     60421 TIP3     7009     TIP3     OH2      OT      -0.834000       15.9994           0
     60422 TIP3     7009     TIP3     H1       HT       0.417000       1.00800           0
     60423 TIP3     7009     TIP3     H2       HT       0.417000       1.00800           0
     60424 TIP3     7010     TIP3     OH2      OT      -0.834000       15.9994           0
     60425 TIP3     7010     TIP3     H1       HT       0.417000       1.00800           0
     60426 TIP3     7010     TIP3     H2       HT       0.417000       1.00800           0
     60427 TIP3     7011     TIP3     OH2      OT      -0.834000       15.9994           0
     60428 TIP3     7011     TIP3     H1       HT       0.417000       1.00800           0
     60429 TIP3     7011     TIP3     H2       HT       0.417000       1.00800           0
     60430 TIP3     7012     TIP3     OH2      OT      -0.834000       15.9994           0
     60431 TIP3     7012     TIP3     H1       HT       0.417000       1.00800           0
     60432 TIP3     7012     TIP3     H2       HT       0.417000       1.00800           0
     60433 TIP3     7013     TIP3     OH2      OT      -0.834000       15.9994           0
     60434 TIP3     7013     TIP3     H1       HT       0.417000       1.00800           0
     60435 TIP3     7013     TIP3     H2       HT       0.417000       1.00800           0
     60436 TIP3     7014     TIP3     OH2      OT      -0.834000       15.9994           0
     60437 TIP3     7014     TIP3     H1       HT       0.417000       1.00800           0
     60438 TIP3     7014     TIP3     H2       HT       0.417000       1.00800           0
     60439 TIP3     7015     TIP3     OH2      OT      -0.834000       15.9994           0
     60440 TIP3     7015     TIP3     H1       HT       0.417000       1.00800           0
     60441 TIP3     7015     TIP3     H2       HT       0.417000       1.00800           0
     60442 TIP3     7016     TIP3     OH2      OT      -0.834000       15.9994           0
     60443 TIP3     7016     TIP3     H1       HT       0.417000       1.00800           0
     60444 TIP3     7016     TIP3     H2       HT       0.417000       1.00800           0
     60445 TIP3     7017     TIP3     OH2      OT      -0.834000       15.9994           0
     60446 TIP3     7017     TIP3     H1       HT       0.417000       1.00800           0
     60447 TIP3     7017     TIP3     H2       HT       0.417000       1.00800           0
     60448 TIP3     7018     TIP3     OH2      OT      -0.834000       15.9994           0
     60449 TIP3     7018     TIP3     H1       HT       0.417000       1.00800           0
     60450 TIP3     7018     TIP3     H2       HT       0.417000       1.00800           0
     60451 TIP3     7019     TIP3     OH2      OT      -0.834000       15.9994           0
     60452 TIP3     7019     TIP3     H1       HT       0.417000       1.00800           0
     60453 TIP3     7019     TIP3     H2       HT       0.417000       1.00800           0
     60454 TIP3     7020     TIP3     OH2      OT      -0.834000       15.9994           0
     60455 TIP3     7020     TIP3     H1       HT       0.417000       1.00800           0
     60456 TIP3     7020     TIP3     H2       HT       0.417000       1.00800           0
     60457 TIP3     7021     TIP3     OH2      OT      -0.834000       15.9994           0
     60458 TIP3     7021     TIP3     H1       HT       0.417000       1.00800           0
     60459 TIP3     7021     TIP3     H2       HT       0.417000       1.00800           0
     60460 TIP3     7022     TIP3     OH2      OT      -0.834000       15.9994           0
     60461 TIP3     7022     TIP3     H1       HT       0.417000       1.00800           0
     60462 TIP3     7022     TIP3     H2       HT       0.417000       1.00800           0
     60463 TIP3     7023     TIP3     OH2      OT      -0.834000       15.9994           0
     60464 TIP3     7023     TIP3     H1       HT       0.417000       1.00800           0
     60465 TIP3     7023     TIP3     H2       HT       0.417000       1.00800           0
     60466 TIP3     7024     TIP3     OH2      OT      -0.834000       15.9994           0
     60467 TIP3     7024     TIP3     H1       HT       0.417000       1.00800           0
     60468 TIP3     7024     TIP3     H2       HT       0.417000       1.00800           0
     60469 TIP3     7025     TIP3     OH2      OT      -0.834000       15.9994           0
     60470 TIP3     7025     TIP3     H1       HT       0.417000       1.00800           0
     60471 TIP3     7025     TIP3     H2       HT       0.417000       1.00800           0
     60472 TIP3     7026     TIP3     OH2      OT      -0.834000       15.9994           0
     60473 TIP3     7026     TIP3     H1       HT       0.417000       1.00800           0
     60474 TIP3     7026     TIP3     H2       HT       0.417000       1.00800           0
     60475 TIP3     7027     TIP3     OH2      OT      -0.834000       15.9994           0
     60476 TIP3     7027     TIP3     H1       HT       0.417000       1.00800           0
     60477 TIP3     7027     TIP3     H2       HT       0.417000       1.00800           0
     60478 TIP3     7028     TIP3     OH2      OT      -0.834000       15.9994           0
     60479 TIP3     7028     TIP3     H1       HT       0.417000       1.00800           0
     60480 TIP3     7028     TIP3     H2       HT       0.417000       1.00800           0
     60481 TIP3     7029     TIP3     OH2      OT      -0.834000       15.9994           0
     60482 TIP3     7029     TIP3     H1       HT       0.417000       1.00800           0
     60483 TIP3     7029     TIP3     H2       HT       0.417000       1.00800           0
     60484 TIP3     7030     TIP3     OH2      OT      -0.834000       15.9994           0
     60485 TIP3     7030     TIP3     H1       HT       0.417000       1.00800           0
     60486 TIP3     7030     TIP3     H2       HT       0.417000       1.00800           0
     60487 TIP3     7031     TIP3     OH2      OT      -0.834000       15.9994           0
     60488 TIP3     7031     TIP3     H1       HT       0.417000       1.00800           0
     60489 TIP3     7031     TIP3     H2       HT       0.417000       1.00800           0
     60490 TIP3     7032     TIP3     OH2      OT      -0.834000       15.9994           0
     60491 TIP3     7032     TIP3     H1       HT       0.417000       1.00800           0
     60492 TIP3     7032     TIP3     H2       HT       0.417000       1.00800           0
     60493 TIP3     7033     TIP3     OH2      OT      -0.834000       15.9994           0
     60494 TIP3     7033     TIP3     H1       HT       0.417000       1.00800           0
     60495 TIP3     7033     TIP3     H2       HT       0.417000       1.00800           0
     60496 TIP3     7034     TIP3     OH2      OT      -0.834000       15.9994           0
     60497 TIP3     7034     TIP3     H1       HT       0.417000       1.00800           0
     60498 TIP3     7034     TIP3     H2       HT       0.417000       1.00800           0
     60499 TIP3     7035     TIP3     OH2      OT      -0.834000       15.9994           0
     60500 TIP3     7035     TIP3     H1       HT       0.417000       1.00800           0
     60501 TIP3     7035     TIP3     H2       HT       0.417000       1.00800           0
     60502 TIP3     7036     TIP3     OH2      OT      -0.834000       15.9994           0
     60503 TIP3     7036     TIP3     H1       HT       0.417000       1.00800           0
     60504 TIP3     7036     TIP3     H2       HT       0.417000       1.00800           0
     60505 TIP3     7037     TIP3     OH2      OT      -0.834000       15.9994           0
     60506 TIP3     7037     TIP3     H1       HT       0.417000       1.00800           0
     60507 TIP3     7037     TIP3     H2       HT       0.417000       1.00800           0
     60508 TIP3     7038     TIP3     OH2      OT      -0.834000       15.9994           0
     60509 TIP3     7038     TIP3     H1       HT       0.417000       1.00800           0
     60510 TIP3     7038     TIP3     H2       HT       0.417000       1.00800           0
     60511 TIP3     7039     TIP3     OH2      OT      -0.834000       15.9994           0
     60512 TIP3     7039     TIP3     H1       HT       0.417000       1.00800           0
     60513 TIP3     7039     TIP3     H2       HT       0.417000       1.00800           0
     60514 TIP3     7040     TIP3     OH2      OT      -0.834000       15.9994           0
     60515 TIP3     7040     TIP3     H1       HT       0.417000       1.00800           0
     60516 TIP3     7040     TIP3     H2       HT       0.417000       1.00800           0
     60517 TIP3     7041     TIP3     OH2      OT      -0.834000       15.9994           0
     60518 TIP3     7041     TIP3     H1       HT       0.417000       1.00800           0
     60519 TIP3     7041     TIP3     H2       HT       0.417000       1.00800           0
     60520 TIP3     7042     TIP3     OH2      OT      -0.834000       15.9994           0
     60521 TIP3     7042     TIP3     H1       HT       0.417000       1.00800           0
     60522 TIP3     7042     TIP3     H2       HT       0.417000       1.00800           0
     60523 TIP3     7043     TIP3     OH2      OT      -0.834000       15.9994           0
     60524 TIP3     7043     TIP3     H1       HT       0.417000       1.00800           0
     60525 TIP3     7043     TIP3     H2       HT       0.417000       1.00800           0
     60526 TIP3     7044     TIP3     OH2      OT      -0.834000       15.9994           0
     60527 TIP3     7044     TIP3     H1       HT       0.417000       1.00800           0
     60528 TIP3     7044     TIP3     H2       HT       0.417000       1.00800           0
     60529 TIP3     7045     TIP3     OH2      OT      -0.834000       15.9994           0
     60530 TIP3     7045     TIP3     H1       HT       0.417000       1.00800           0
     60531 TIP3     7045     TIP3     H2       HT       0.417000       1.00800           0
     60532 TIP3     7046     TIP3     OH2      OT      -0.834000       15.9994           0
     60533 TIP3     7046     TIP3     H1       HT       0.417000       1.00800           0
     60534 TIP3     7046     TIP3     H2       HT       0.417000       1.00800           0
     60535 TIP3     7047     TIP3     OH2      OT      -0.834000       15.9994           0
     60536 TIP3     7047     TIP3     H1       HT       0.417000       1.00800           0
     60537 TIP3     7047     TIP3     H2       HT       0.417000       1.00800           0
     60538 TIP3     7048     TIP3     OH2      OT      -0.834000       15.9994           0
     60539 TIP3     7048     TIP3     H1       HT       0.417000       1.00800           0
     60540 TIP3     7048     TIP3     H2       HT       0.417000       1.00800           0
     60541 TIP3     7049     TIP3     OH2      OT      -0.834000       15.9994           0
     60542 TIP3     7049     TIP3     H1       HT       0.417000       1.00800           0
     60543 TIP3     7049     TIP3     H2       HT       0.417000       1.00800           0
     60544 TIP3     7050     TIP3     OH2      OT      -0.834000       15.9994           0
     60545 TIP3     7050     TIP3     H1       HT       0.417000       1.00800           0
     60546 TIP3     7050     TIP3     H2       HT       0.417000       1.00800           0
     60547 TIP3     7051     TIP3     OH2      OT      -0.834000       15.9994           0
     60548 TIP3     7051     TIP3     H1       HT       0.417000       1.00800           0
     60549 TIP3     7051     TIP3     H2       HT       0.417000       1.00800           0
     60550 TIP3     7052     TIP3     OH2      OT      -0.834000       15.9994           0
     60551 TIP3     7052     TIP3     H1       HT       0.417000       1.00800           0
     60552 TIP3     7052     TIP3     H2       HT       0.417000       1.00800           0
     60553 TIP3     7053     TIP3     OH2      OT      -0.834000       15.9994           0
     60554 TIP3     7053     TIP3     H1       HT       0.417000       1.00800           0
     60555 TIP3     7053     TIP3     H2       HT       0.417000       1.00800           0
     60556 TIP3     7054     TIP3     OH2      OT      -0.834000       15.9994           0
     60557 TIP3     7054     TIP3     H1       HT       0.417000       1.00800           0
     60558 TIP3     7054     TIP3     H2       HT       0.417000       1.00800           0
     60559 TIP3     7055     TIP3     OH2      OT      -0.834000       15.9994           0
     60560 TIP3     7055     TIP3     H1       HT       0.417000       1.00800           0
     60561 TIP3     7055     TIP3     H2       HT       0.417000       1.00800           0
     60562 TIP3     7056     TIP3     OH2      OT      -0.834000       15.9994           0
     60563 TIP3     7056     TIP3     H1       HT       0.417000       1.00800           0
     60564 TIP3     7056     TIP3     H2       HT       0.417000       1.00800           0
     60565 TIP3     7057     TIP3     OH2      OT      -0.834000       15.9994           0
     60566 TIP3     7057     TIP3     H1       HT       0.417000       1.00800           0
     60567 TIP3     7057     TIP3     H2       HT       0.417000       1.00800           0
     60568 TIP3     7058     TIP3     OH2      OT      -0.834000       15.9994           0
     60569 TIP3     7058     TIP3     H1       HT       0.417000       1.00800           0
     60570 TIP3     7058     TIP3     H2       HT       0.417000       1.00800           0
     60571 TIP3     7059     TIP3     OH2      OT      -0.834000       15.9994           0
     60572 TIP3     7059     TIP3     H1       HT       0.417000       1.00800           0
     60573 TIP3     7059     TIP3     H2       HT       0.417000       1.00800           0
     60574 TIP3     7060     TIP3     OH2      OT      -0.834000       15.9994           0
     60575 TIP3     7060     TIP3     H1       HT       0.417000       1.00800           0
     60576 TIP3     7060     TIP3     H2       HT       0.417000       1.00800           0
     60577 TIP3     7061     TIP3     OH2      OT      -0.834000       15.9994           0
     60578 TIP3     7061     TIP3     H1       HT       0.417000       1.00800           0
     60579 TIP3     7061     TIP3     H2       HT       0.417000       1.00800           0
     60580 TIP3     7062     TIP3     OH2      OT      -0.834000       15.9994           0
     60581 TIP3     7062     TIP3     H1       HT       0.417000       1.00800           0
     60582 TIP3     7062     TIP3     H2       HT       0.417000       1.00800           0
     60583 TIP3     7063     TIP3     OH2      OT      -0.834000       15.9994           0
     60584 TIP3     7063     TIP3     H1       HT       0.417000       1.00800           0
     60585 TIP3     7063     TIP3     H2       HT       0.417000       1.00800           0
     60586 TIP3     7064     TIP3     OH2      OT      -0.834000       15.9994           0
     60587 TIP3     7064     TIP3     H1       HT       0.417000       1.00800           0
     60588 TIP3     7064     TIP3     H2       HT       0.417000       1.00800           0
     60589 TIP3     7065     TIP3     OH2      OT      -0.834000       15.9994           0
     60590 TIP3     7065     TIP3     H1       HT       0.417000       1.00800           0
     60591 TIP3     7065     TIP3     H2       HT       0.417000       1.00800           0
     60592 TIP3     7066     TIP3     OH2      OT      -0.834000       15.9994           0
     60593 TIP3     7066     TIP3     H1       HT       0.417000       1.00800           0
     60594 TIP3     7066     TIP3     H2       HT       0.417000       1.00800           0
     60595 TIP3     7067     TIP3     OH2      OT      -0.834000       15.9994           0
     60596 TIP3     7067     TIP3     H1       HT       0.417000       1.00800           0
     60597 TIP3     7067     TIP3     H2       HT       0.417000       1.00800           0
     60598 TIP3     7068     TIP3     OH2      OT      -0.834000       15.9994           0
     60599 TIP3     7068     TIP3     H1       HT       0.417000       1.00800           0
     60600 TIP3     7068     TIP3     H2       HT       0.417000       1.00800           0
     60601 TIP3     7069     TIP3     OH2      OT      -0.834000       15.9994           0
     60602 TIP3     7069     TIP3     H1       HT       0.417000       1.00800           0
     60603 TIP3     7069     TIP3     H2       HT       0.417000       1.00800           0
     60604 TIP3     7070     TIP3     OH2      OT      -0.834000       15.9994           0
     60605 TIP3     7070     TIP3     H1       HT       0.417000       1.00800           0
     60606 TIP3     7070     TIP3     H2       HT       0.417000       1.00800           0
     60607 TIP3     7071     TIP3     OH2      OT      -0.834000       15.9994           0
     60608 TIP3     7071     TIP3     H1       HT       0.417000       1.00800           0
     60609 TIP3     7071     TIP3     H2       HT       0.417000       1.00800           0
     60610 TIP3     7072     TIP3     OH2      OT      -0.834000       15.9994           0
     60611 TIP3     7072     TIP3     H1       HT       0.417000       1.00800           0
     60612 TIP3     7072     TIP3     H2       HT       0.417000       1.00800           0
     60613 TIP3     7073     TIP3     OH2      OT      -0.834000       15.9994           0
     60614 TIP3     7073     TIP3     H1       HT       0.417000       1.00800           0
     60615 TIP3     7073     TIP3     H2       HT       0.417000       1.00800           0
     60616 TIP3     7074     TIP3     OH2      OT      -0.834000       15.9994           0
     60617 TIP3     7074     TIP3     H1       HT       0.417000       1.00800           0
     60618 TIP3     7074     TIP3     H2       HT       0.417000       1.00800           0
     60619 TIP3     7075     TIP3     OH2      OT      -0.834000       15.9994           0
     60620 TIP3     7075     TIP3     H1       HT       0.417000       1.00800           0
     60621 TIP3     7075     TIP3     H2       HT       0.417000       1.00800           0
     60622 TIP3     7076     TIP3     OH2      OT      -0.834000       15.9994           0
     60623 TIP3     7076     TIP3     H1       HT       0.417000       1.00800           0
     60624 TIP3     7076     TIP3     H2       HT       0.417000       1.00800           0
     60625 TIP3     7077     TIP3     OH2      OT      -0.834000       15.9994           0
     60626 TIP3     7077     TIP3     H1       HT       0.417000       1.00800           0
     60627 TIP3     7077     TIP3     H2       HT       0.417000       1.00800           0
     60628 TIP3     7078     TIP3     OH2      OT      -0.834000       15.9994           0
     60629 TIP3     7078     TIP3     H1       HT       0.417000       1.00800           0
     60630 TIP3     7078     TIP3     H2       HT       0.417000       1.00800           0
     60631 TIP3     7079     TIP3     OH2      OT      -0.834000       15.9994           0
     60632 TIP3     7079     TIP3     H1       HT       0.417000       1.00800           0
     60633 TIP3     7079     TIP3     H2       HT       0.417000       1.00800           0
     60634 TIP3     7080     TIP3     OH2      OT      -0.834000       15.9994           0
     60635 TIP3     7080     TIP3     H1       HT       0.417000       1.00800           0
     60636 TIP3     7080     TIP3     H2       HT       0.417000       1.00800           0
     60637 TIP3     7081     TIP3     OH2      OT      -0.834000       15.9994           0
     60638 TIP3     7081     TIP3     H1       HT       0.417000       1.00800           0
     60639 TIP3     7081     TIP3     H2       HT       0.417000       1.00800           0
     60640 TIP3     7082     TIP3     OH2      OT      -0.834000       15.9994           0
     60641 TIP3     7082     TIP3     H1       HT       0.417000       1.00800           0
     60642 TIP3     7082     TIP3     H2       HT       0.417000       1.00800           0
     60643 TIP3     7083     TIP3     OH2      OT      -0.834000       15.9994           0
     60644 TIP3     7083     TIP3     H1       HT       0.417000       1.00800           0
     60645 TIP3     7083     TIP3     H2       HT       0.417000       1.00800           0
     60646 TIP3     7084     TIP3     OH2      OT      -0.834000       15.9994           0
     60647 TIP3     7084     TIP3     H1       HT       0.417000       1.00800           0
     60648 TIP3     7084     TIP3     H2       HT       0.417000       1.00800           0
     60649 TIP3     7085     TIP3     OH2      OT      -0.834000       15.9994           0
     60650 TIP3     7085     TIP3     H1       HT       0.417000       1.00800           0
     60651 TIP3     7085     TIP3     H2       HT       0.417000       1.00800           0
     60652 TIP3     7086     TIP3     OH2      OT      -0.834000       15.9994           0
     60653 TIP3     7086     TIP3     H1       HT       0.417000       1.00800           0
     60654 TIP3     7086     TIP3     H2       HT       0.417000       1.00800           0
     60655 TIP3     7087     TIP3     OH2      OT      -0.834000       15.9994           0
     60656 TIP3     7087     TIP3     H1       HT       0.417000       1.00800           0
     60657 TIP3     7087     TIP3     H2       HT       0.417000       1.00800           0
     60658 TIP3     7088     TIP3     OH2      OT      -0.834000       15.9994           0
     60659 TIP3     7088     TIP3     H1       HT       0.417000       1.00800           0
     60660 TIP3     7088     TIP3     H2       HT       0.417000       1.00800           0
     60661 TIP3     7089     TIP3     OH2      OT      -0.834000       15.9994           0
     60662 TIP3     7089     TIP3     H1       HT       0.417000       1.00800           0
     60663 TIP3     7089     TIP3     H2       HT       0.417000       1.00800           0
     60664 TIP3     7090     TIP3     OH2      OT      -0.834000       15.9994           0
     60665 TIP3     7090     TIP3     H1       HT       0.417000       1.00800           0
     60666 TIP3     7090     TIP3     H2       HT       0.417000       1.00800           0
     60667 TIP3     7091     TIP3     OH2      OT      -0.834000       15.9994           0
     60668 TIP3     7091     TIP3     H1       HT       0.417000       1.00800           0
     60669 TIP3     7091     TIP3     H2       HT       0.417000       1.00800           0
     60670 TIP3     7092     TIP3     OH2      OT      -0.834000       15.9994           0
     60671 TIP3     7092     TIP3     H1       HT       0.417000       1.00800           0
     60672 TIP3     7092     TIP3     H2       HT       0.417000       1.00800           0
     60673 TIP3     7093     TIP3     OH2      OT      -0.834000       15.9994           0
     60674 TIP3     7093     TIP3     H1       HT       0.417000       1.00800           0
     60675 TIP3     7093     TIP3     H2       HT       0.417000       1.00800           0
     60676 TIP3     7094     TIP3     OH2      OT      -0.834000       15.9994           0
     60677 TIP3     7094     TIP3     H1       HT       0.417000       1.00800           0
     60678 TIP3     7094     TIP3     H2       HT       0.417000       1.00800           0
     60679 TIP3     7095     TIP3     OH2      OT      -0.834000       15.9994           0
     60680 TIP3     7095     TIP3     H1       HT       0.417000       1.00800           0
     60681 TIP3     7095     TIP3     H2       HT       0.417000       1.00800           0
     60682 TIP3     7096     TIP3     OH2      OT      -0.834000       15.9994           0
     60683 TIP3     7096     TIP3     H1       HT       0.417000       1.00800           0
     60684 TIP3     7096     TIP3     H2       HT       0.417000       1.00800           0
     60685 TIP3     7097     TIP3     OH2      OT      -0.834000       15.9994           0
     60686 TIP3     7097     TIP3     H1       HT       0.417000       1.00800           0
     60687 TIP3     7097     TIP3     H2       HT       0.417000       1.00800           0
     60688 TIP3     7098     TIP3     OH2      OT      -0.834000       15.9994           0
     60689 TIP3     7098     TIP3     H1       HT       0.417000       1.00800           0
     60690 TIP3     7098     TIP3     H2       HT       0.417000       1.00800           0
     60691 TIP3     7099     TIP3     OH2      OT      -0.834000       15.9994           0
     60692 TIP3     7099     TIP3     H1       HT       0.417000       1.00800           0
     60693 TIP3     7099     TIP3     H2       HT       0.417000       1.00800           0
     60694 TIP3     7100     TIP3     OH2      OT      -0.834000       15.9994           0
     60695 TIP3     7100     TIP3     H1       HT       0.417000       1.00800           0
     60696 TIP3     7100     TIP3     H2       HT       0.417000       1.00800           0
     60697 TIP3     7101     TIP3     OH2      OT      -0.834000       15.9994           0
     60698 TIP3     7101     TIP3     H1       HT       0.417000       1.00800           0
     60699 TIP3     7101     TIP3     H2       HT       0.417000       1.00800           0
     60700 TIP3     7102     TIP3     OH2      OT      -0.834000       15.9994           0
     60701 TIP3     7102     TIP3     H1       HT       0.417000       1.00800           0
     60702 TIP3     7102     TIP3     H2       HT       0.417000       1.00800           0
     60703 TIP3     7103     TIP3     OH2      OT      -0.834000       15.9994           0
     60704 TIP3     7103     TIP3     H1       HT       0.417000       1.00800           0
     60705 TIP3     7103     TIP3     H2       HT       0.417000       1.00800           0
     60706 TIP3     7104     TIP3     OH2      OT      -0.834000       15.9994           0
     60707 TIP3     7104     TIP3     H1       HT       0.417000       1.00800           0
     60708 TIP3     7104     TIP3     H2       HT       0.417000       1.00800           0
     60709 TIP3     7105     TIP3     OH2      OT      -0.834000       15.9994           0
     60710 TIP3     7105     TIP3     H1       HT       0.417000       1.00800           0
     60711 TIP3     7105     TIP3     H2       HT       0.417000       1.00800           0
     60712 TIP3     7106     TIP3     OH2      OT      -0.834000       15.9994           0
     60713 TIP3     7106     TIP3     H1       HT       0.417000       1.00800           0
     60714 TIP3     7106     TIP3     H2       HT       0.417000       1.00800           0
     60715 TIP3     7107     TIP3     OH2      OT      -0.834000       15.9994           0
     60716 TIP3     7107     TIP3     H1       HT       0.417000       1.00800           0
     60717 TIP3     7107     TIP3     H2       HT       0.417000       1.00800           0
     60718 TIP3     7108     TIP3     OH2      OT      -0.834000       15.9994           0
     60719 TIP3     7108     TIP3     H1       HT       0.417000       1.00800           0
     60720 TIP3     7108     TIP3     H2       HT       0.417000       1.00800           0
     60721 TIP3     7109     TIP3     OH2      OT      -0.834000       15.9994           0
     60722 TIP3     7109     TIP3     H1       HT       0.417000       1.00800           0
     60723 TIP3     7109     TIP3     H2       HT       0.417000       1.00800           0
     60724 TIP3     7110     TIP3     OH2      OT      -0.834000       15.9994           0
     60725 TIP3     7110     TIP3     H1       HT       0.417000       1.00800           0
     60726 TIP3     7110     TIP3     H2       HT       0.417000       1.00800           0
     60727 TIP3     7111     TIP3     OH2      OT      -0.834000       15.9994           0
     60728 TIP3     7111     TIP3     H1       HT       0.417000       1.00800           0
     60729 TIP3     7111     TIP3     H2       HT       0.417000       1.00800           0
     60730 TIP3     7112     TIP3     OH2      OT      -0.834000       15.9994           0
     60731 TIP3     7112     TIP3     H1       HT       0.417000       1.00800           0
     60732 TIP3     7112     TIP3     H2       HT       0.417000       1.00800           0
     60733 TIP3     7113     TIP3     OH2      OT      -0.834000       15.9994           0
     60734 TIP3     7113     TIP3     H1       HT       0.417000       1.00800           0
     60735 TIP3     7113     TIP3     H2       HT       0.417000       1.00800           0
     60736 TIP3     7114     TIP3     OH2      OT      -0.834000       15.9994           0
     60737 TIP3     7114     TIP3     H1       HT       0.417000       1.00800           0
     60738 TIP3     7114     TIP3     H2       HT       0.417000       1.00800           0
     60739 TIP3     7115     TIP3     OH2      OT      -0.834000       15.9994           0
     60740 TIP3     7115     TIP3     H1       HT       0.417000       1.00800           0
     60741 TIP3     7115     TIP3     H2       HT       0.417000       1.00800           0
     60742 TIP3     7116     TIP3     OH2      OT      -0.834000       15.9994           0
     60743 TIP3     7116     TIP3     H1       HT       0.417000       1.00800           0
     60744 TIP3     7116     TIP3     H2       HT       0.417000       1.00800           0
     60745 TIP3     7117     TIP3     OH2      OT      -0.834000       15.9994           0
     60746 TIP3     7117     TIP3     H1       HT       0.417000       1.00800           0
     60747 TIP3     7117     TIP3     H2       HT       0.417000       1.00800           0
     60748 TIP3     7118     TIP3     OH2      OT      -0.834000       15.9994           0
     60749 TIP3     7118     TIP3     H1       HT       0.417000       1.00800           0
     60750 TIP3     7118     TIP3     H2       HT       0.417000       1.00800           0
     60751 TIP3     7119     TIP3     OH2      OT      -0.834000       15.9994           0
     60752 TIP3     7119     TIP3     H1       HT       0.417000       1.00800           0
     60753 TIP3     7119     TIP3     H2       HT       0.417000       1.00800           0
     60754 TIP3     7120     TIP3     OH2      OT      -0.834000       15.9994           0
     60755 TIP3     7120     TIP3     H1       HT       0.417000       1.00800           0
     60756 TIP3     7120     TIP3     H2       HT       0.417000       1.00800           0
     60757 TIP3     7121     TIP3     OH2      OT      -0.834000       15.9994           0
     60758 TIP3     7121     TIP3     H1       HT       0.417000       1.00800           0
     60759 TIP3     7121     TIP3     H2       HT       0.417000       1.00800           0
     60760 TIP3     7122     TIP3     OH2      OT      -0.834000       15.9994           0
     60761 TIP3     7122     TIP3     H1       HT       0.417000       1.00800           0
     60762 TIP3     7122     TIP3     H2       HT       0.417000       1.00800           0
     60763 TIP3     7123     TIP3     OH2      OT      -0.834000       15.9994           0
     60764 TIP3     7123     TIP3     H1       HT       0.417000       1.00800           0
     60765 TIP3     7123     TIP3     H2       HT       0.417000       1.00800           0
     60766 TIP3     7124     TIP3     OH2      OT      -0.834000       15.9994           0
     60767 TIP3     7124     TIP3     H1       HT       0.417000       1.00800           0
     60768 TIP3     7124     TIP3     H2       HT       0.417000       1.00800           0
     60769 TIP3     7125     TIP3     OH2      OT      -0.834000       15.9994           0
     60770 TIP3     7125     TIP3     H1       HT       0.417000       1.00800           0
     60771 TIP3     7125     TIP3     H2       HT       0.417000       1.00800           0
     60772 TIP3     7126     TIP3     OH2      OT      -0.834000       15.9994           0
     60773 TIP3     7126     TIP3     H1       HT       0.417000       1.00800           0
     60774 TIP3     7126     TIP3     H2       HT       0.417000       1.00800           0
     60775 TIP3     7127     TIP3     OH2      OT      -0.834000       15.9994           0
     60776 TIP3     7127     TIP3     H1       HT       0.417000       1.00800           0
     60777 TIP3     7127     TIP3     H2       HT       0.417000       1.00800           0
     60778 TIP3     7128     TIP3     OH2      OT      -0.834000       15.9994           0
     60779 TIP3     7128     TIP3     H1       HT       0.417000       1.00800           0
     60780 TIP3     7128     TIP3     H2       HT       0.417000       1.00800           0
     60781 TIP3     7129     TIP3     OH2      OT      -0.834000       15.9994           0
     60782 TIP3     7129     TIP3     H1       HT       0.417000       1.00800           0
     60783 TIP3     7129     TIP3     H2       HT       0.417000       1.00800           0
     60784 TIP3     7130     TIP3     OH2      OT      -0.834000       15.9994           0
     60785 TIP3     7130     TIP3     H1       HT       0.417000       1.00800           0
     60786 TIP3     7130     TIP3     H2       HT       0.417000       1.00800           0
     60787 TIP3     7131     TIP3     OH2      OT      -0.834000       15.9994           0
     60788 TIP3     7131     TIP3     H1       HT       0.417000       1.00800           0
     60789 TIP3     7131     TIP3     H2       HT       0.417000       1.00800           0
     60790 TIP3     7132     TIP3     OH2      OT      -0.834000       15.9994           0
     60791 TIP3     7132     TIP3     H1       HT       0.417000       1.00800           0
     60792 TIP3     7132     TIP3     H2       HT       0.417000       1.00800           0
     60793 TIP3     7133     TIP3     OH2      OT      -0.834000       15.9994           0
     60794 TIP3     7133     TIP3     H1       HT       0.417000       1.00800           0
     60795 TIP3     7133     TIP3     H2       HT       0.417000       1.00800           0
     60796 TIP3     7134     TIP3     OH2      OT      -0.834000       15.9994           0
     60797 TIP3     7134     TIP3     H1       HT       0.417000       1.00800           0
     60798 TIP3     7134     TIP3     H2       HT       0.417000       1.00800           0
     60799 TIP3     7135     TIP3     OH2      OT      -0.834000       15.9994           0
     60800 TIP3     7135     TIP3     H1       HT       0.417000       1.00800           0
     60801 TIP3     7135     TIP3     H2       HT       0.417000       1.00800           0
     60802 TIP3     7136     TIP3     OH2      OT      -0.834000       15.9994           0
     60803 TIP3     7136     TIP3     H1       HT       0.417000       1.00800           0
     60804 TIP3     7136     TIP3     H2       HT       0.417000       1.00800           0
     60805 TIP3     7137     TIP3     OH2      OT      -0.834000       15.9994           0
     60806 TIP3     7137     TIP3     H1       HT       0.417000       1.00800           0
     60807 TIP3     7137     TIP3     H2       HT       0.417000       1.00800           0
     60808 TIP3     7138     TIP3     OH2      OT      -0.834000       15.9994           0
     60809 TIP3     7138     TIP3     H1       HT       0.417000       1.00800           0
     60810 TIP3     7138     TIP3     H2       HT       0.417000       1.00800           0
     60811 TIP3     7139     TIP3     OH2      OT      -0.834000       15.9994           0
     60812 TIP3     7139     TIP3     H1       HT       0.417000       1.00800           0
     60813 TIP3     7139     TIP3     H2       HT       0.417000       1.00800           0
     60814 TIP3     7140     TIP3     OH2      OT      -0.834000       15.9994           0
     60815 TIP3     7140     TIP3     H1       HT       0.417000       1.00800           0
     60816 TIP3     7140     TIP3     H2       HT       0.417000       1.00800           0
     60817 TIP3     7141     TIP3     OH2      OT      -0.834000       15.9994           0
     60818 TIP3     7141     TIP3     H1       HT       0.417000       1.00800           0
     60819 TIP3     7141     TIP3     H2       HT       0.417000       1.00800           0
     60820 TIP3     7142     TIP3     OH2      OT      -0.834000       15.9994           0
     60821 TIP3     7142     TIP3     H1       HT       0.417000       1.00800           0
     60822 TIP3     7142     TIP3     H2       HT       0.417000       1.00800           0
     60823 TIP3     7143     TIP3     OH2      OT      -0.834000       15.9994           0
     60824 TIP3     7143     TIP3     H1       HT       0.417000       1.00800           0
     60825 TIP3     7143     TIP3     H2       HT       0.417000       1.00800           0
     60826 TIP3     7144     TIP3     OH2      OT      -0.834000       15.9994           0
     60827 TIP3     7144     TIP3     H1       HT       0.417000       1.00800           0
     60828 TIP3     7144     TIP3     H2       HT       0.417000       1.00800           0
     60829 TIP3     7145     TIP3     OH2      OT      -0.834000       15.9994           0
     60830 TIP3     7145     TIP3     H1       HT       0.417000       1.00800           0
     60831 TIP3     7145     TIP3     H2       HT       0.417000       1.00800           0
     60832 TIP3     7146     TIP3     OH2      OT      -0.834000       15.9994           0
     60833 TIP3     7146     TIP3     H1       HT       0.417000       1.00800           0
     60834 TIP3     7146     TIP3     H2       HT       0.417000       1.00800           0
     60835 TIP3     7147     TIP3     OH2      OT      -0.834000       15.9994           0
     60836 TIP3     7147     TIP3     H1       HT       0.417000       1.00800           0
     60837 TIP3     7147     TIP3     H2       HT       0.417000       1.00800           0
     60838 TIP3     7148     TIP3     OH2      OT      -0.834000       15.9994           0
     60839 TIP3     7148     TIP3     H1       HT       0.417000       1.00800           0
     60840 TIP3     7148     TIP3     H2       HT       0.417000       1.00800           0
     60841 TIP3     7149     TIP3     OH2      OT      -0.834000       15.9994           0
     60842 TIP3     7149     TIP3     H1       HT       0.417000       1.00800           0
     60843 TIP3     7149     TIP3     H2       HT       0.417000       1.00800           0
     60844 TIP3     7150     TIP3     OH2      OT      -0.834000       15.9994           0
     60845 TIP3     7150     TIP3     H1       HT       0.417000       1.00800           0
     60846 TIP3     7150     TIP3     H2       HT       0.417000       1.00800           0
     60847 TIP3     7151     TIP3     OH2      OT      -0.834000       15.9994           0
     60848 TIP3     7151     TIP3     H1       HT       0.417000       1.00800           0
     60849 TIP3     7151     TIP3     H2       HT       0.417000       1.00800           0
     60850 TIP3     7152     TIP3     OH2      OT      -0.834000       15.9994           0
     60851 TIP3     7152     TIP3     H1       HT       0.417000       1.00800           0
     60852 TIP3     7152     TIP3     H2       HT       0.417000       1.00800           0
     60853 TIP3     7153     TIP3     OH2      OT      -0.834000       15.9994           0
     60854 TIP3     7153     TIP3     H1       HT       0.417000       1.00800           0
     60855 TIP3     7153     TIP3     H2       HT       0.417000       1.00800           0
     60856 TIP3     7154     TIP3     OH2      OT      -0.834000       15.9994           0
     60857 TIP3     7154     TIP3     H1       HT       0.417000       1.00800           0
     60858 TIP3     7154     TIP3     H2       HT       0.417000       1.00800           0
     60859 TIP3     7155     TIP3     OH2      OT      -0.834000       15.9994           0
     60860 TIP3     7155     TIP3     H1       HT       0.417000       1.00800           0
     60861 TIP3     7155     TIP3     H2       HT       0.417000       1.00800           0
     60862 TIP3     7156     TIP3     OH2      OT      -0.834000       15.9994           0
     60863 TIP3     7156     TIP3     H1       HT       0.417000       1.00800           0
     60864 TIP3     7156     TIP3     H2       HT       0.417000       1.00800           0
     60865 TIP3     7157     TIP3     OH2      OT      -0.834000       15.9994           0
     60866 TIP3     7157     TIP3     H1       HT       0.417000       1.00800           0
     60867 TIP3     7157     TIP3     H2       HT       0.417000       1.00800           0
     60868 TIP3     7158     TIP3     OH2      OT      -0.834000       15.9994           0
     60869 TIP3     7158     TIP3     H1       HT       0.417000       1.00800           0
     60870 TIP3     7158     TIP3     H2       HT       0.417000       1.00800           0
     60871 TIP3     7159     TIP3     OH2      OT      -0.834000       15.9994           0
     60872 TIP3     7159     TIP3     H1       HT       0.417000       1.00800           0
     60873 TIP3     7159     TIP3     H2       HT       0.417000       1.00800           0
     60874 TIP3     7160     TIP3     OH2      OT      -0.834000       15.9994           0
     60875 TIP3     7160     TIP3     H1       HT       0.417000       1.00800           0
     60876 TIP3     7160     TIP3     H2       HT       0.417000       1.00800           0
     60877 TIP3     7161     TIP3     OH2      OT      -0.834000       15.9994           0
     60878 TIP3     7161     TIP3     H1       HT       0.417000       1.00800           0
     60879 TIP3     7161     TIP3     H2       HT       0.417000       1.00800           0
     60880 TIP3     7162     TIP3     OH2      OT      -0.834000       15.9994           0
     60881 TIP3     7162     TIP3     H1       HT       0.417000       1.00800           0
     60882 TIP3     7162     TIP3     H2       HT       0.417000       1.00800           0
     60883 TIP3     7163     TIP3     OH2      OT      -0.834000       15.9994           0
     60884 TIP3     7163     TIP3     H1       HT       0.417000       1.00800           0
     60885 TIP3     7163     TIP3     H2       HT       0.417000       1.00800           0
     60886 TIP3     7164     TIP3     OH2      OT      -0.834000       15.9994           0
     60887 TIP3     7164     TIP3     H1       HT       0.417000       1.00800           0
     60888 TIP3     7164     TIP3     H2       HT       0.417000       1.00800           0
     60889 TIP3     7165     TIP3     OH2      OT      -0.834000       15.9994           0
     60890 TIP3     7165     TIP3     H1       HT       0.417000       1.00800           0
     60891 TIP3     7165     TIP3     H2       HT       0.417000       1.00800           0
     60892 TIP3     7166     TIP3     OH2      OT      -0.834000       15.9994           0
     60893 TIP3     7166     TIP3     H1       HT       0.417000       1.00800           0
     60894 TIP3     7166     TIP3     H2       HT       0.417000       1.00800           0
     60895 TIP3     7167     TIP3     OH2      OT      -0.834000       15.9994           0
     60896 TIP3     7167     TIP3     H1       HT       0.417000       1.00800           0
     60897 TIP3     7167     TIP3     H2       HT       0.417000       1.00800           0
     60898 TIP3     7168     TIP3     OH2      OT      -0.834000       15.9994           0
     60899 TIP3     7168     TIP3     H1       HT       0.417000       1.00800           0
     60900 TIP3     7168     TIP3     H2       HT       0.417000       1.00800           0
     60901 TIP3     7169     TIP3     OH2      OT      -0.834000       15.9994           0
     60902 TIP3     7169     TIP3     H1       HT       0.417000       1.00800           0
     60903 TIP3     7169     TIP3     H2       HT       0.417000       1.00800           0
     60904 TIP3     7170     TIP3     OH2      OT      -0.834000       15.9994           0
     60905 TIP3     7170     TIP3     H1       HT       0.417000       1.00800           0
     60906 TIP3     7170     TIP3     H2       HT       0.417000       1.00800           0
     60907 TIP3     7171     TIP3     OH2      OT      -0.834000       15.9994           0
     60908 TIP3     7171     TIP3     H1       HT       0.417000       1.00800           0
     60909 TIP3     7171     TIP3     H2       HT       0.417000       1.00800           0
     60910 TIP3     7172     TIP3     OH2      OT      -0.834000       15.9994           0
     60911 TIP3     7172     TIP3     H1       HT       0.417000       1.00800           0
     60912 TIP3     7172     TIP3     H2       HT       0.417000       1.00800           0
     60913 TIP3     7173     TIP3     OH2      OT      -0.834000       15.9994           0
     60914 TIP3     7173     TIP3     H1       HT       0.417000       1.00800           0
     60915 TIP3     7173     TIP3     H2       HT       0.417000       1.00800           0
     60916 TIP3     7174     TIP3     OH2      OT      -0.834000       15.9994           0
     60917 TIP3     7174     TIP3     H1       HT       0.417000       1.00800           0
     60918 TIP3     7174     TIP3     H2       HT       0.417000       1.00800           0
     60919 TIP3     7175     TIP3     OH2      OT      -0.834000       15.9994           0
     60920 TIP3     7175     TIP3     H1       HT       0.417000       1.00800           0
     60921 TIP3     7175     TIP3     H2       HT       0.417000       1.00800           0
     60922 TIP3     7176     TIP3     OH2      OT      -0.834000       15.9994           0
     60923 TIP3     7176     TIP3     H1       HT       0.417000       1.00800           0
     60924 TIP3     7176     TIP3     H2       HT       0.417000       1.00800           0
     60925 TIP3     7177     TIP3     OH2      OT      -0.834000       15.9994           0
     60926 TIP3     7177     TIP3     H1       HT       0.417000       1.00800           0
     60927 TIP3     7177     TIP3     H2       HT       0.417000       1.00800           0
     60928 TIP3     7178     TIP3     OH2      OT      -0.834000       15.9994           0
     60929 TIP3     7178     TIP3     H1       HT       0.417000       1.00800           0
     60930 TIP3     7178     TIP3     H2       HT       0.417000       1.00800           0
     60931 TIP3     7179     TIP3     OH2      OT      -0.834000       15.9994           0
     60932 TIP3     7179     TIP3     H1       HT       0.417000       1.00800           0
     60933 TIP3     7179     TIP3     H2       HT       0.417000       1.00800           0
     60934 TIP3     7180     TIP3     OH2      OT      -0.834000       15.9994           0
     60935 TIP3     7180     TIP3     H1       HT       0.417000       1.00800           0
     60936 TIP3     7180     TIP3     H2       HT       0.417000       1.00800           0
     60937 TIP3     7181     TIP3     OH2      OT      -0.834000       15.9994           0
     60938 TIP3     7181     TIP3     H1       HT       0.417000       1.00800           0
     60939 TIP3     7181     TIP3     H2       HT       0.417000       1.00800           0
     60940 TIP3     7182     TIP3     OH2      OT      -0.834000       15.9994           0
     60941 TIP3     7182     TIP3     H1       HT       0.417000       1.00800           0
     60942 TIP3     7182     TIP3     H2       HT       0.417000       1.00800           0
     60943 TIP3     7183     TIP3     OH2      OT      -0.834000       15.9994           0
     60944 TIP3     7183     TIP3     H1       HT       0.417000       1.00800           0
     60945 TIP3     7183     TIP3     H2       HT       0.417000       1.00800           0
     60946 TIP3     7184     TIP3     OH2      OT      -0.834000       15.9994           0
     60947 TIP3     7184     TIP3     H1       HT       0.417000       1.00800           0
     60948 TIP3     7184     TIP3     H2       HT       0.417000       1.00800           0
     60949 TIP3     7185     TIP3     OH2      OT      -0.834000       15.9994           0
     60950 TIP3     7185     TIP3     H1       HT       0.417000       1.00800           0
     60951 TIP3     7185     TIP3     H2       HT       0.417000       1.00800           0
     60952 TIP3     7186     TIP3     OH2      OT      -0.834000       15.9994           0
     60953 TIP3     7186     TIP3     H1       HT       0.417000       1.00800           0
     60954 TIP3     7186     TIP3     H2       HT       0.417000       1.00800           0
     60955 TIP3     7187     TIP3     OH2      OT      -0.834000       15.9994           0
     60956 TIP3     7187     TIP3     H1       HT       0.417000       1.00800           0
     60957 TIP3     7187     TIP3     H2       HT       0.417000       1.00800           0
     60958 TIP3     7188     TIP3     OH2      OT      -0.834000       15.9994           0
     60959 TIP3     7188     TIP3     H1       HT       0.417000       1.00800           0
     60960 TIP3     7188     TIP3     H2       HT       0.417000       1.00800           0
     60961 TIP3     7189     TIP3     OH2      OT      -0.834000       15.9994           0
     60962 TIP3     7189     TIP3     H1       HT       0.417000       1.00800           0
     60963 TIP3     7189     TIP3     H2       HT       0.417000       1.00800           0
     60964 TIP3     7190     TIP3     OH2      OT      -0.834000       15.9994           0
     60965 TIP3     7190     TIP3     H1       HT       0.417000       1.00800           0
     60966 TIP3     7190     TIP3     H2       HT       0.417000       1.00800           0
     60967 TIP3     7191     TIP3     OH2      OT      -0.834000       15.9994           0
     60968 TIP3     7191     TIP3     H1       HT       0.417000       1.00800           0
     60969 TIP3     7191     TIP3     H2       HT       0.417000       1.00800           0
     60970 TIP3     7192     TIP3     OH2      OT      -0.834000       15.9994           0
     60971 TIP3     7192     TIP3     H1       HT       0.417000       1.00800           0
     60972 TIP3     7192     TIP3     H2       HT       0.417000       1.00800           0
     60973 TIP3     7193     TIP3     OH2      OT      -0.834000       15.9994           0
     60974 TIP3     7193     TIP3     H1       HT       0.417000       1.00800           0
     60975 TIP3     7193     TIP3     H2       HT       0.417000       1.00800           0
     60976 TIP3     7194     TIP3     OH2      OT      -0.834000       15.9994           0
     60977 TIP3     7194     TIP3     H1       HT       0.417000       1.00800           0
     60978 TIP3     7194     TIP3     H2       HT       0.417000       1.00800           0
     60979 TIP3     7195     TIP3     OH2      OT      -0.834000       15.9994           0
     60980 TIP3     7195     TIP3     H1       HT       0.417000       1.00800           0
     60981 TIP3     7195     TIP3     H2       HT       0.417000       1.00800           0
     60982 TIP3     7196     TIP3     OH2      OT      -0.834000       15.9994           0
     60983 TIP3     7196     TIP3     H1       HT       0.417000       1.00800           0
     60984 TIP3     7196     TIP3     H2       HT       0.417000       1.00800           0
     60985 TIP3     7197     TIP3     OH2      OT      -0.834000       15.9994           0
     60986 TIP3     7197     TIP3     H1       HT       0.417000       1.00800           0
     60987 TIP3     7197     TIP3     H2       HT       0.417000       1.00800           0
     60988 TIP3     7198     TIP3     OH2      OT      -0.834000       15.9994           0
     60989 TIP3     7198     TIP3     H1       HT       0.417000       1.00800           0
     60990 TIP3     7198     TIP3     H2       HT       0.417000       1.00800           0
     60991 TIP3     7199     TIP3     OH2      OT      -0.834000       15.9994           0
     60992 TIP3     7199     TIP3     H1       HT       0.417000       1.00800           0
     60993 TIP3     7199     TIP3     H2       HT       0.417000       1.00800           0
     60994 TIP3     7200     TIP3     OH2      OT      -0.834000       15.9994           0
     60995 TIP3     7200     TIP3     H1       HT       0.417000       1.00800           0
     60996 TIP3     7200     TIP3     H2       HT       0.417000       1.00800           0
     60997 TIP3     7201     TIP3     OH2      OT      -0.834000       15.9994           0
     60998 TIP3     7201     TIP3     H1       HT       0.417000       1.00800           0
     60999 TIP3     7201     TIP3     H2       HT       0.417000       1.00800           0
     61000 TIP3     7202     TIP3     OH2      OT      -0.834000       15.9994           0
     61001 TIP3     7202     TIP3     H1       HT       0.417000       1.00800           0
     61002 TIP3     7202     TIP3     H2       HT       0.417000       1.00800           0
     61003 TIP3     7203     TIP3     OH2      OT      -0.834000       15.9994           0
     61004 TIP3     7203     TIP3     H1       HT       0.417000       1.00800           0
     61005 TIP3     7203     TIP3     H2       HT       0.417000       1.00800           0
     61006 TIP3     7204     TIP3     OH2      OT      -0.834000       15.9994           0
     61007 TIP3     7204     TIP3     H1       HT       0.417000       1.00800           0
     61008 TIP3     7204     TIP3     H2       HT       0.417000       1.00800           0
     61009 TIP3     7205     TIP3     OH2      OT      -0.834000       15.9994           0
     61010 TIP3     7205     TIP3     H1       HT       0.417000       1.00800           0
     61011 TIP3     7205     TIP3     H2       HT       0.417000       1.00800           0
     61012 TIP3     7206     TIP3     OH2      OT      -0.834000       15.9994           0
     61013 TIP3     7206     TIP3     H1       HT       0.417000       1.00800           0
     61014 TIP3     7206     TIP3     H2       HT       0.417000       1.00800           0
     61015 TIP3     7207     TIP3     OH2      OT      -0.834000       15.9994           0
     61016 TIP3     7207     TIP3     H1       HT       0.417000       1.00800           0
     61017 TIP3     7207     TIP3     H2       HT       0.417000       1.00800           0
     61018 TIP3     7208     TIP3     OH2      OT      -0.834000       15.9994           0
     61019 TIP3     7208     TIP3     H1       HT       0.417000       1.00800           0
     61020 TIP3     7208     TIP3     H2       HT       0.417000       1.00800           0
     61021 TIP3     7209     TIP3     OH2      OT      -0.834000       15.9994           0
     61022 TIP3     7209     TIP3     H1       HT       0.417000       1.00800           0
     61023 TIP3     7209     TIP3     H2       HT       0.417000       1.00800           0
     61024 TIP3     7210     TIP3     OH2      OT      -0.834000       15.9994           0
     61025 TIP3     7210     TIP3     H1       HT       0.417000       1.00800           0
     61026 TIP3     7210     TIP3     H2       HT       0.417000       1.00800           0
     61027 TIP3     7211     TIP3     OH2      OT      -0.834000       15.9994           0
     61028 TIP3     7211     TIP3     H1       HT       0.417000       1.00800           0
     61029 TIP3     7211     TIP3     H2       HT       0.417000       1.00800           0
     61030 TIP3     7212     TIP3     OH2      OT      -0.834000       15.9994           0
     61031 TIP3     7212     TIP3     H1       HT       0.417000       1.00800           0
     61032 TIP3     7212     TIP3     H2       HT       0.417000       1.00800           0
     61033 TIP3     7213     TIP3     OH2      OT      -0.834000       15.9994           0
     61034 TIP3     7213     TIP3     H1       HT       0.417000       1.00800           0
     61035 TIP3     7213     TIP3     H2       HT       0.417000       1.00800           0
     61036 TIP3     7214     TIP3     OH2      OT      -0.834000       15.9994           0
     61037 TIP3     7214     TIP3     H1       HT       0.417000       1.00800           0
     61038 TIP3     7214     TIP3     H2       HT       0.417000       1.00800           0
     61039 TIP3     7215     TIP3     OH2      OT      -0.834000       15.9994           0
     61040 TIP3     7215     TIP3     H1       HT       0.417000       1.00800           0
     61041 TIP3     7215     TIP3     H2       HT       0.417000       1.00800           0
     61042 TIP3     7216     TIP3     OH2      OT      -0.834000       15.9994           0
     61043 TIP3     7216     TIP3     H1       HT       0.417000       1.00800           0
     61044 TIP3     7216     TIP3     H2       HT       0.417000       1.00800           0
     61045 TIP3     7217     TIP3     OH2      OT      -0.834000       15.9994           0
     61046 TIP3     7217     TIP3     H1       HT       0.417000       1.00800           0
     61047 TIP3     7217     TIP3     H2       HT       0.417000       1.00800           0
     61048 TIP3     7218     TIP3     OH2      OT      -0.834000       15.9994           0
     61049 TIP3     7218     TIP3     H1       HT       0.417000       1.00800           0
     61050 TIP3     7218     TIP3     H2       HT       0.417000       1.00800           0
     61051 TIP3     7219     TIP3     OH2      OT      -0.834000       15.9994           0
     61052 TIP3     7219     TIP3     H1       HT       0.417000       1.00800           0
     61053 TIP3     7219     TIP3     H2       HT       0.417000       1.00800           0
     61054 TIP3     7220     TIP3     OH2      OT      -0.834000       15.9994           0
     61055 TIP3     7220     TIP3     H1       HT       0.417000       1.00800           0
     61056 TIP3     7220     TIP3     H2       HT       0.417000       1.00800           0
     61057 TIP3     7221     TIP3     OH2      OT      -0.834000       15.9994           0
     61058 TIP3     7221     TIP3     H1       HT       0.417000       1.00800           0
     61059 TIP3     7221     TIP3     H2       HT       0.417000       1.00800           0
     61060 TIP3     7222     TIP3     OH2      OT      -0.834000       15.9994           0
     61061 TIP3     7222     TIP3     H1       HT       0.417000       1.00800           0
     61062 TIP3     7222     TIP3     H2       HT       0.417000       1.00800           0
     61063 TIP3     7223     TIP3     OH2      OT      -0.834000       15.9994           0
     61064 TIP3     7223     TIP3     H1       HT       0.417000       1.00800           0
     61065 TIP3     7223     TIP3     H2       HT       0.417000       1.00800           0
     61066 TIP3     7224     TIP3     OH2      OT      -0.834000       15.9994           0
     61067 TIP3     7224     TIP3     H1       HT       0.417000       1.00800           0
     61068 TIP3     7224     TIP3     H2       HT       0.417000       1.00800           0
     61069 TIP3     7225     TIP3     OH2      OT      -0.834000       15.9994           0
     61070 TIP3     7225     TIP3     H1       HT       0.417000       1.00800           0
     61071 TIP3     7225     TIP3     H2       HT       0.417000       1.00800           0
     61072 TIP3     7226     TIP3     OH2      OT      -0.834000       15.9994           0
     61073 TIP3     7226     TIP3     H1       HT       0.417000       1.00800           0
     61074 TIP3     7226     TIP3     H2       HT       0.417000       1.00800           0
     61075 TIP3     7227     TIP3     OH2      OT      -0.834000       15.9994           0
     61076 TIP3     7227     TIP3     H1       HT       0.417000       1.00800           0
     61077 TIP3     7227     TIP3     H2       HT       0.417000       1.00800           0
     61078 TIP3     7228     TIP3     OH2      OT      -0.834000       15.9994           0
     61079 TIP3     7228     TIP3     H1       HT       0.417000       1.00800           0
     61080 TIP3     7228     TIP3     H2       HT       0.417000       1.00800           0
     61081 TIP3     7229     TIP3     OH2      OT      -0.834000       15.9994           0
     61082 TIP3     7229     TIP3     H1       HT       0.417000       1.00800           0
     61083 TIP3     7229     TIP3     H2       HT       0.417000       1.00800           0
     61084 TIP3     7230     TIP3     OH2      OT      -0.834000       15.9994           0
     61085 TIP3     7230     TIP3     H1       HT       0.417000       1.00800           0
     61086 TIP3     7230     TIP3     H2       HT       0.417000       1.00800           0
     61087 TIP3     7231     TIP3     OH2      OT      -0.834000       15.9994           0
     61088 TIP3     7231     TIP3     H1       HT       0.417000       1.00800           0
     61089 TIP3     7231     TIP3     H2       HT       0.417000       1.00800           0
     61090 TIP3     7232     TIP3     OH2      OT      -0.834000       15.9994           0
     61091 TIP3     7232     TIP3     H1       HT       0.417000       1.00800           0
     61092 TIP3     7232     TIP3     H2       HT       0.417000       1.00800           0
     61093 TIP3     7233     TIP3     OH2      OT      -0.834000       15.9994           0
     61094 TIP3     7233     TIP3     H1       HT       0.417000       1.00800           0
     61095 TIP3     7233     TIP3     H2       HT       0.417000       1.00800           0
     61096 TIP3     7234     TIP3     OH2      OT      -0.834000       15.9994           0
     61097 TIP3     7234     TIP3     H1       HT       0.417000       1.00800           0
     61098 TIP3     7234     TIP3     H2       HT       0.417000       1.00800           0
     61099 TIP3     7235     TIP3     OH2      OT      -0.834000       15.9994           0
     61100 TIP3     7235     TIP3     H1       HT       0.417000       1.00800           0
     61101 TIP3     7235     TIP3     H2       HT       0.417000       1.00800           0
     61102 TIP3     7236     TIP3     OH2      OT      -0.834000       15.9994           0
     61103 TIP3     7236     TIP3     H1       HT       0.417000       1.00800           0
     61104 TIP3     7236     TIP3     H2       HT       0.417000       1.00800           0
     61105 TIP3     7237     TIP3     OH2      OT      -0.834000       15.9994           0
     61106 TIP3     7237     TIP3     H1       HT       0.417000       1.00800           0
     61107 TIP3     7237     TIP3     H2       HT       0.417000       1.00800           0
     61108 TIP3     7238     TIP3     OH2      OT      -0.834000       15.9994           0
     61109 TIP3     7238     TIP3     H1       HT       0.417000       1.00800           0
     61110 TIP3     7238     TIP3     H2       HT       0.417000       1.00800           0
     61111 TIP3     7239     TIP3     OH2      OT      -0.834000       15.9994           0
     61112 TIP3     7239     TIP3     H1       HT       0.417000       1.00800           0
     61113 TIP3     7239     TIP3     H2       HT       0.417000       1.00800           0
     61114 TIP3     7240     TIP3     OH2      OT      -0.834000       15.9994           0
     61115 TIP3     7240     TIP3     H1       HT       0.417000       1.00800           0
     61116 TIP3     7240     TIP3     H2       HT       0.417000       1.00800           0
     61117 TIP3     7241     TIP3     OH2      OT      -0.834000       15.9994           0
     61118 TIP3     7241     TIP3     H1       HT       0.417000       1.00800           0
     61119 TIP3     7241     TIP3     H2       HT       0.417000       1.00800           0
     61120 TIP3     7242     TIP3     OH2      OT      -0.834000       15.9994           0
     61121 TIP3     7242     TIP3     H1       HT       0.417000       1.00800           0
     61122 TIP3     7242     TIP3     H2       HT       0.417000       1.00800           0
     61123 TIP3     7243     TIP3     OH2      OT      -0.834000       15.9994           0
     61124 TIP3     7243     TIP3     H1       HT       0.417000       1.00800           0
     61125 TIP3     7243     TIP3     H2       HT       0.417000       1.00800           0
     61126 TIP3     7244     TIP3     OH2      OT      -0.834000       15.9994           0
     61127 TIP3     7244     TIP3     H1       HT       0.417000       1.00800           0
     61128 TIP3     7244     TIP3     H2       HT       0.417000       1.00800           0
     61129 TIP3     7245     TIP3     OH2      OT      -0.834000       15.9994           0
     61130 TIP3     7245     TIP3     H1       HT       0.417000       1.00800           0
     61131 TIP3     7245     TIP3     H2       HT       0.417000       1.00800           0
     61132 TIP3     7246     TIP3     OH2      OT      -0.834000       15.9994           0
     61133 TIP3     7246     TIP3     H1       HT       0.417000       1.00800           0
     61134 TIP3     7246     TIP3     H2       HT       0.417000       1.00800           0
     61135 TIP3     7247     TIP3     OH2      OT      -0.834000       15.9994           0
     61136 TIP3     7247     TIP3     H1       HT       0.417000       1.00800           0
     61137 TIP3     7247     TIP3     H2       HT       0.417000       1.00800           0
     61138 TIP3     7248     TIP3     OH2      OT      -0.834000       15.9994           0
     61139 TIP3     7248     TIP3     H1       HT       0.417000       1.00800           0
     61140 TIP3     7248     TIP3     H2       HT       0.417000       1.00800           0
     61141 TIP3     7249     TIP3     OH2      OT      -0.834000       15.9994           0
     61142 TIP3     7249     TIP3     H1       HT       0.417000       1.00800           0
     61143 TIP3     7249     TIP3     H2       HT       0.417000       1.00800           0
     61144 TIP3     7250     TIP3     OH2      OT      -0.834000       15.9994           0
     61145 TIP3     7250     TIP3     H1       HT       0.417000       1.00800           0
     61146 TIP3     7250     TIP3     H2       HT       0.417000       1.00800           0
     61147 TIP3     7251     TIP3     OH2      OT      -0.834000       15.9994           0
     61148 TIP3     7251     TIP3     H1       HT       0.417000       1.00800           0
     61149 TIP3     7251     TIP3     H2       HT       0.417000       1.00800           0
     61150 TIP3     7252     TIP3     OH2      OT      -0.834000       15.9994           0
     61151 TIP3     7252     TIP3     H1       HT       0.417000       1.00800           0
     61152 TIP3     7252     TIP3     H2       HT       0.417000       1.00800           0
     61153 TIP3     7253     TIP3     OH2      OT      -0.834000       15.9994           0
     61154 TIP3     7253     TIP3     H1       HT       0.417000       1.00800           0
     61155 TIP3     7253     TIP3     H2       HT       0.417000       1.00800           0
     61156 TIP3     7254     TIP3     OH2      OT      -0.834000       15.9994           0
     61157 TIP3     7254     TIP3     H1       HT       0.417000       1.00800           0
     61158 TIP3     7254     TIP3     H2       HT       0.417000       1.00800           0
     61159 TIP3     7255     TIP3     OH2      OT      -0.834000       15.9994           0
     61160 TIP3     7255     TIP3     H1       HT       0.417000       1.00800           0
     61161 TIP3     7255     TIP3     H2       HT       0.417000       1.00800           0
     61162 TIP3     7256     TIP3     OH2      OT      -0.834000       15.9994           0
     61163 TIP3     7256     TIP3     H1       HT       0.417000       1.00800           0
     61164 TIP3     7256     TIP3     H2       HT       0.417000       1.00800           0
     61165 TIP3     7257     TIP3     OH2      OT      -0.834000       15.9994           0
     61166 TIP3     7257     TIP3     H1       HT       0.417000       1.00800           0
     61167 TIP3     7257     TIP3     H2       HT       0.417000       1.00800           0
     61168 TIP3     7258     TIP3     OH2      OT      -0.834000       15.9994           0
     61169 TIP3     7258     TIP3     H1       HT       0.417000       1.00800           0
     61170 TIP3     7258     TIP3     H2       HT       0.417000       1.00800           0
     61171 TIP3     7259     TIP3     OH2      OT      -0.834000       15.9994           0
     61172 TIP3     7259     TIP3     H1       HT       0.417000       1.00800           0
     61173 TIP3     7259     TIP3     H2       HT       0.417000       1.00800           0
     61174 TIP3     7260     TIP3     OH2      OT      -0.834000       15.9994           0
     61175 TIP3     7260     TIP3     H1       HT       0.417000       1.00800           0
     61176 TIP3     7260     TIP3     H2       HT       0.417000       1.00800           0
     61177 TIP3     7261     TIP3     OH2      OT      -0.834000       15.9994           0
     61178 TIP3     7261     TIP3     H1       HT       0.417000       1.00800           0
     61179 TIP3     7261     TIP3     H2       HT       0.417000       1.00800           0
     61180 TIP3     7262     TIP3     OH2      OT      -0.834000       15.9994           0
     61181 TIP3     7262     TIP3     H1       HT       0.417000       1.00800           0
     61182 TIP3     7262     TIP3     H2       HT       0.417000       1.00800           0
     61183 TIP3     7263     TIP3     OH2      OT      -0.834000       15.9994           0
     61184 TIP3     7263     TIP3     H1       HT       0.417000       1.00800           0
     61185 TIP3     7263     TIP3     H2       HT       0.417000       1.00800           0
     61186 TIP3     7264     TIP3     OH2      OT      -0.834000       15.9994           0
     61187 TIP3     7264     TIP3     H1       HT       0.417000       1.00800           0
     61188 TIP3     7264     TIP3     H2       HT       0.417000       1.00800           0
     61189 TIP3     7265     TIP3     OH2      OT      -0.834000       15.9994           0
     61190 TIP3     7265     TIP3     H1       HT       0.417000       1.00800           0
     61191 TIP3     7265     TIP3     H2       HT       0.417000       1.00800           0
     61192 TIP3     7266     TIP3     OH2      OT      -0.834000       15.9994           0
     61193 TIP3     7266     TIP3     H1       HT       0.417000       1.00800           0
     61194 TIP3     7266     TIP3     H2       HT       0.417000       1.00800           0
     61195 TIP3     7267     TIP3     OH2      OT      -0.834000       15.9994           0
     61196 TIP3     7267     TIP3     H1       HT       0.417000       1.00800           0
     61197 TIP3     7267     TIP3     H2       HT       0.417000       1.00800           0
     61198 TIP3     7268     TIP3     OH2      OT      -0.834000       15.9994           0
     61199 TIP3     7268     TIP3     H1       HT       0.417000       1.00800           0
     61200 TIP3     7268     TIP3     H2       HT       0.417000       1.00800           0
     61201 TIP3     7269     TIP3     OH2      OT      -0.834000       15.9994           0
     61202 TIP3     7269     TIP3     H1       HT       0.417000       1.00800           0
     61203 TIP3     7269     TIP3     H2       HT       0.417000       1.00800           0
     61204 TIP3     7270     TIP3     OH2      OT      -0.834000       15.9994           0
     61205 TIP3     7270     TIP3     H1       HT       0.417000       1.00800           0
     61206 TIP3     7270     TIP3     H2       HT       0.417000       1.00800           0
     61207 TIP3     7271     TIP3     OH2      OT      -0.834000       15.9994           0
     61208 TIP3     7271     TIP3     H1       HT       0.417000       1.00800           0
     61209 TIP3     7271     TIP3     H2       HT       0.417000       1.00800           0
     61210 TIP3     7272     TIP3     OH2      OT      -0.834000       15.9994           0
     61211 TIP3     7272     TIP3     H1       HT       0.417000       1.00800           0
     61212 TIP3     7272     TIP3     H2       HT       0.417000       1.00800           0
     61213 TIP3     7273     TIP3     OH2      OT      -0.834000       15.9994           0
     61214 TIP3     7273     TIP3     H1       HT       0.417000       1.00800           0
     61215 TIP3     7273     TIP3     H2       HT       0.417000       1.00800           0
     61216 TIP3     7274     TIP3     OH2      OT      -0.834000       15.9994           0
     61217 TIP3     7274     TIP3     H1       HT       0.417000       1.00800           0
     61218 TIP3     7274     TIP3     H2       HT       0.417000       1.00800           0
     61219 TIP3     7275     TIP3     OH2      OT      -0.834000       15.9994           0
     61220 TIP3     7275     TIP3     H1       HT       0.417000       1.00800           0
     61221 TIP3     7275     TIP3     H2       HT       0.417000       1.00800           0
     61222 TIP3     7276     TIP3     OH2      OT      -0.834000       15.9994           0
     61223 TIP3     7276     TIP3     H1       HT       0.417000       1.00800           0
     61224 TIP3     7276     TIP3     H2       HT       0.417000       1.00800           0
     61225 TIP3     7277     TIP3     OH2      OT      -0.834000       15.9994           0
     61226 TIP3     7277     TIP3     H1       HT       0.417000       1.00800           0
     61227 TIP3     7277     TIP3     H2       HT       0.417000       1.00800           0
     61228 TIP3     7278     TIP3     OH2      OT      -0.834000       15.9994           0
     61229 TIP3     7278     TIP3     H1       HT       0.417000       1.00800           0
     61230 TIP3     7278     TIP3     H2       HT       0.417000       1.00800           0
     61231 TIP3     7279     TIP3     OH2      OT      -0.834000       15.9994           0
     61232 TIP3     7279     TIP3     H1       HT       0.417000       1.00800           0
     61233 TIP3     7279     TIP3     H2       HT       0.417000       1.00800           0
     61234 TIP3     7280     TIP3     OH2      OT      -0.834000       15.9994           0
     61235 TIP3     7280     TIP3     H1       HT       0.417000       1.00800           0
     61236 TIP3     7280     TIP3     H2       HT       0.417000       1.00800           0
     61237 TIP3     7281     TIP3     OH2      OT      -0.834000       15.9994           0
     61238 TIP3     7281     TIP3     H1       HT       0.417000       1.00800           0
     61239 TIP3     7281     TIP3     H2       HT       0.417000       1.00800           0
     61240 TIP3     7282     TIP3     OH2      OT      -0.834000       15.9994           0
     61241 TIP3     7282     TIP3     H1       HT       0.417000       1.00800           0
     61242 TIP3     7282     TIP3     H2       HT       0.417000       1.00800           0
     61243 TIP3     7283     TIP3     OH2      OT      -0.834000       15.9994           0
     61244 TIP3     7283     TIP3     H1       HT       0.417000       1.00800           0
     61245 TIP3     7283     TIP3     H2       HT       0.417000       1.00800           0
     61246 TIP3     7284     TIP3     OH2      OT      -0.834000       15.9994           0
     61247 TIP3     7284     TIP3     H1       HT       0.417000       1.00800           0
     61248 TIP3     7284     TIP3     H2       HT       0.417000       1.00800           0
     61249 TIP3     7285     TIP3     OH2      OT      -0.834000       15.9994           0
     61250 TIP3     7285     TIP3     H1       HT       0.417000       1.00800           0
     61251 TIP3     7285     TIP3     H2       HT       0.417000       1.00800           0
     61252 TIP3     7286     TIP3     OH2      OT      -0.834000       15.9994           0
     61253 TIP3     7286     TIP3     H1       HT       0.417000       1.00800           0
     61254 TIP3     7286     TIP3     H2       HT       0.417000       1.00800           0
     61255 TIP3     7287     TIP3     OH2      OT      -0.834000       15.9994           0
     61256 TIP3     7287     TIP3     H1       HT       0.417000       1.00800           0
     61257 TIP3     7287     TIP3     H2       HT       0.417000       1.00800           0
     61258 TIP3     7288     TIP3     OH2      OT      -0.834000       15.9994           0
     61259 TIP3     7288     TIP3     H1       HT       0.417000       1.00800           0
     61260 TIP3     7288     TIP3     H2       HT       0.417000       1.00800           0
     61261 TIP3     7289     TIP3     OH2      OT      -0.834000       15.9994           0
     61262 TIP3     7289     TIP3     H1       HT       0.417000       1.00800           0
     61263 TIP3     7289     TIP3     H2       HT       0.417000       1.00800           0
     61264 TIP3     7290     TIP3     OH2      OT      -0.834000       15.9994           0
     61265 TIP3     7290     TIP3     H1       HT       0.417000       1.00800           0
     61266 TIP3     7290     TIP3     H2       HT       0.417000       1.00800           0
     61267 TIP3     7291     TIP3     OH2      OT      -0.834000       15.9994           0
     61268 TIP3     7291     TIP3     H1       HT       0.417000       1.00800           0
     61269 TIP3     7291     TIP3     H2       HT       0.417000       1.00800           0
     61270 TIP3     7292     TIP3     OH2      OT      -0.834000       15.9994           0
     61271 TIP3     7292     TIP3     H1       HT       0.417000       1.00800           0
     61272 TIP3     7292     TIP3     H2       HT       0.417000       1.00800           0
     61273 TIP3     7293     TIP3     OH2      OT      -0.834000       15.9994           0
     61274 TIP3     7293     TIP3     H1       HT       0.417000       1.00800           0
     61275 TIP3     7293     TIP3     H2       HT       0.417000       1.00800           0
     61276 TIP3     7294     TIP3     OH2      OT      -0.834000       15.9994           0
     61277 TIP3     7294     TIP3     H1       HT       0.417000       1.00800           0
     61278 TIP3     7294     TIP3     H2       HT       0.417000       1.00800           0
     61279 TIP3     7295     TIP3     OH2      OT      -0.834000       15.9994           0
     61280 TIP3     7295     TIP3     H1       HT       0.417000       1.00800           0
     61281 TIP3     7295     TIP3     H2       HT       0.417000       1.00800           0
     61282 TIP3     7296     TIP3     OH2      OT      -0.834000       15.9994           0
     61283 TIP3     7296     TIP3     H1       HT       0.417000       1.00800           0
     61284 TIP3     7296     TIP3     H2       HT       0.417000       1.00800           0
     61285 TIP3     7297     TIP3     OH2      OT      -0.834000       15.9994           0
     61286 TIP3     7297     TIP3     H1       HT       0.417000       1.00800           0
     61287 TIP3     7297     TIP3     H2       HT       0.417000       1.00800           0
     61288 TIP3     7298     TIP3     OH2      OT      -0.834000       15.9994           0
     61289 TIP3     7298     TIP3     H1       HT       0.417000       1.00800           0
     61290 TIP3     7298     TIP3     H2       HT       0.417000       1.00800           0
     61291 TIP3     7299     TIP3     OH2      OT      -0.834000       15.9994           0
     61292 TIP3     7299     TIP3     H1       HT       0.417000       1.00800           0
     61293 TIP3     7299     TIP3     H2       HT       0.417000       1.00800           0
     61294 TIP3     7300     TIP3     OH2      OT      -0.834000       15.9994           0
     61295 TIP3     7300     TIP3     H1       HT       0.417000       1.00800           0
     61296 TIP3     7300     TIP3     H2       HT       0.417000       1.00800           0
     61297 TIP3     7301     TIP3     OH2      OT      -0.834000       15.9994           0
     61298 TIP3     7301     TIP3     H1       HT       0.417000       1.00800           0
     61299 TIP3     7301     TIP3     H2       HT       0.417000       1.00800           0
     61300 TIP3     7302     TIP3     OH2      OT      -0.834000       15.9994           0
     61301 TIP3     7302     TIP3     H1       HT       0.417000       1.00800           0
     61302 TIP3     7302     TIP3     H2       HT       0.417000       1.00800           0
     61303 TIP3     7303     TIP3     OH2      OT      -0.834000       15.9994           0
     61304 TIP3     7303     TIP3     H1       HT       0.417000       1.00800           0
     61305 TIP3     7303     TIP3     H2       HT       0.417000       1.00800           0
     61306 TIP3     7304     TIP3     OH2      OT      -0.834000       15.9994           0
     61307 TIP3     7304     TIP3     H1       HT       0.417000       1.00800           0
     61308 TIP3     7304     TIP3     H2       HT       0.417000       1.00800           0
     61309 TIP3     7305     TIP3     OH2      OT      -0.834000       15.9994           0
     61310 TIP3     7305     TIP3     H1       HT       0.417000       1.00800           0
     61311 TIP3     7305     TIP3     H2       HT       0.417000       1.00800           0
     61312 TIP3     7306     TIP3     OH2      OT      -0.834000       15.9994           0
     61313 TIP3     7306     TIP3     H1       HT       0.417000       1.00800           0
     61314 TIP3     7306     TIP3     H2       HT       0.417000       1.00800           0
     61315 TIP3     7307     TIP3     OH2      OT      -0.834000       15.9994           0
     61316 TIP3     7307     TIP3     H1       HT       0.417000       1.00800           0
     61317 TIP3     7307     TIP3     H2       HT       0.417000       1.00800           0
     61318 TIP3     7308     TIP3     OH2      OT      -0.834000       15.9994           0
     61319 TIP3     7308     TIP3     H1       HT       0.417000       1.00800           0
     61320 TIP3     7308     TIP3     H2       HT       0.417000       1.00800           0
     61321 TIP3     7309     TIP3     OH2      OT      -0.834000       15.9994           0
     61322 TIP3     7309     TIP3     H1       HT       0.417000       1.00800           0
     61323 TIP3     7309     TIP3     H2       HT       0.417000       1.00800           0
     61324 TIP3     7310     TIP3     OH2      OT      -0.834000       15.9994           0
     61325 TIP3     7310     TIP3     H1       HT       0.417000       1.00800           0
     61326 TIP3     7310     TIP3     H2       HT       0.417000       1.00800           0
     61327 TIP3     7311     TIP3     OH2      OT      -0.834000       15.9994           0
     61328 TIP3     7311     TIP3     H1       HT       0.417000       1.00800           0
     61329 TIP3     7311     TIP3     H2       HT       0.417000       1.00800           0
     61330 TIP3     7312     TIP3     OH2      OT      -0.834000       15.9994           0
     61331 TIP3     7312     TIP3     H1       HT       0.417000       1.00800           0
     61332 TIP3     7312     TIP3     H2       HT       0.417000       1.00800           0
     61333 TIP3     7313     TIP3     OH2      OT      -0.834000       15.9994           0
     61334 TIP3     7313     TIP3     H1       HT       0.417000       1.00800           0
     61335 TIP3     7313     TIP3     H2       HT       0.417000       1.00800           0
     61336 TIP3     7314     TIP3     OH2      OT      -0.834000       15.9994           0
     61337 TIP3     7314     TIP3     H1       HT       0.417000       1.00800           0
     61338 TIP3     7314     TIP3     H2       HT       0.417000       1.00800           0
     61339 TIP3     7315     TIP3     OH2      OT      -0.834000       15.9994           0
     61340 TIP3     7315     TIP3     H1       HT       0.417000       1.00800           0
     61341 TIP3     7315     TIP3     H2       HT       0.417000       1.00800           0
     61342 TIP3     7316     TIP3     OH2      OT      -0.834000       15.9994           0
     61343 TIP3     7316     TIP3     H1       HT       0.417000       1.00800           0
     61344 TIP3     7316     TIP3     H2       HT       0.417000       1.00800           0
     61345 TIP3     7317     TIP3     OH2      OT      -0.834000       15.9994           0
     61346 TIP3     7317     TIP3     H1       HT       0.417000       1.00800           0
     61347 TIP3     7317     TIP3     H2       HT       0.417000       1.00800           0
     61348 TIP3     7318     TIP3     OH2      OT      -0.834000       15.9994           0
     61349 TIP3     7318     TIP3     H1       HT       0.417000       1.00800           0
     61350 TIP3     7318     TIP3     H2       HT       0.417000       1.00800           0
     61351 TIP3     7319     TIP3     OH2      OT      -0.834000       15.9994           0
     61352 TIP3     7319     TIP3     H1       HT       0.417000       1.00800           0
     61353 TIP3     7319     TIP3     H2       HT       0.417000       1.00800           0
     61354 TIP3     7320     TIP3     OH2      OT      -0.834000       15.9994           0
     61355 TIP3     7320     TIP3     H1       HT       0.417000       1.00800           0
     61356 TIP3     7320     TIP3     H2       HT       0.417000       1.00800           0
     61357 TIP3     7321     TIP3     OH2      OT      -0.834000       15.9994           0
     61358 TIP3     7321     TIP3     H1       HT       0.417000       1.00800           0
     61359 TIP3     7321     TIP3     H2       HT       0.417000       1.00800           0
     61360 TIP3     7322     TIP3     OH2      OT      -0.834000       15.9994           0
     61361 TIP3     7322     TIP3     H1       HT       0.417000       1.00800           0
     61362 TIP3     7322     TIP3     H2       HT       0.417000       1.00800           0
     61363 TIP3     7323     TIP3     OH2      OT      -0.834000       15.9994           0
     61364 TIP3     7323     TIP3     H1       HT       0.417000       1.00800           0
     61365 TIP3     7323     TIP3     H2       HT       0.417000       1.00800           0
     61366 TIP3     7324     TIP3     OH2      OT      -0.834000       15.9994           0
     61367 TIP3     7324     TIP3     H1       HT       0.417000       1.00800           0
     61368 TIP3     7324     TIP3     H2       HT       0.417000       1.00800           0
     61369 TIP3     7325     TIP3     OH2      OT      -0.834000       15.9994           0
     61370 TIP3     7325     TIP3     H1       HT       0.417000       1.00800           0
     61371 TIP3     7325     TIP3     H2       HT       0.417000       1.00800           0
     61372 TIP3     7326     TIP3     OH2      OT      -0.834000       15.9994           0
     61373 TIP3     7326     TIP3     H1       HT       0.417000       1.00800           0
     61374 TIP3     7326     TIP3     H2       HT       0.417000       1.00800           0
     61375 TIP3     7327     TIP3     OH2      OT      -0.834000       15.9994           0
     61376 TIP3     7327     TIP3     H1       HT       0.417000       1.00800           0
     61377 TIP3     7327     TIP3     H2       HT       0.417000       1.00800           0
     61378 TIP3     7328     TIP3     OH2      OT      -0.834000       15.9994           0
     61379 TIP3     7328     TIP3     H1       HT       0.417000       1.00800           0
     61380 TIP3     7328     TIP3     H2       HT       0.417000       1.00800           0
     61381 TIP3     7329     TIP3     OH2      OT      -0.834000       15.9994           0
     61382 TIP3     7329     TIP3     H1       HT       0.417000       1.00800           0
     61383 TIP3     7329     TIP3     H2       HT       0.417000       1.00800           0
     61384 TIP3     7330     TIP3     OH2      OT      -0.834000       15.9994           0
     61385 TIP3     7330     TIP3     H1       HT       0.417000       1.00800           0
     61386 TIP3     7330     TIP3     H2       HT       0.417000       1.00800           0
     61387 TIP3     7331     TIP3     OH2      OT      -0.834000       15.9994           0
     61388 TIP3     7331     TIP3     H1       HT       0.417000       1.00800           0
     61389 TIP3     7331     TIP3     H2       HT       0.417000       1.00800           0
     61390 TIP3     7332     TIP3     OH2      OT      -0.834000       15.9994           0
     61391 TIP3     7332     TIP3     H1       HT       0.417000       1.00800           0
     61392 TIP3     7332     TIP3     H2       HT       0.417000       1.00800           0
     61393 TIP3     7333     TIP3     OH2      OT      -0.834000       15.9994           0
     61394 TIP3     7333     TIP3     H1       HT       0.417000       1.00800           0
     61395 TIP3     7333     TIP3     H2       HT       0.417000       1.00800           0
     61396 TIP3     7334     TIP3     OH2      OT      -0.834000       15.9994           0
     61397 TIP3     7334     TIP3     H1       HT       0.417000       1.00800           0
     61398 TIP3     7334     TIP3     H2       HT       0.417000       1.00800           0
     61399 TIP3     7335     TIP3     OH2      OT      -0.834000       15.9994           0
     61400 TIP3     7335     TIP3     H1       HT       0.417000       1.00800           0
     61401 TIP3     7335     TIP3     H2       HT       0.417000       1.00800           0
     61402 TIP3     7336     TIP3     OH2      OT      -0.834000       15.9994           0
     61403 TIP3     7336     TIP3     H1       HT       0.417000       1.00800           0
     61404 TIP3     7336     TIP3     H2       HT       0.417000       1.00800           0
     61405 TIP3     7337     TIP3     OH2      OT      -0.834000       15.9994           0
     61406 TIP3     7337     TIP3     H1       HT       0.417000       1.00800           0
     61407 TIP3     7337     TIP3     H2       HT       0.417000       1.00800           0
     61408 TIP3     7338     TIP3     OH2      OT      -0.834000       15.9994           0
     61409 TIP3     7338     TIP3     H1       HT       0.417000       1.00800           0
     61410 TIP3     7338     TIP3     H2       HT       0.417000       1.00800           0
     61411 TIP3     7339     TIP3     OH2      OT      -0.834000       15.9994           0
     61412 TIP3     7339     TIP3     H1       HT       0.417000       1.00800           0
     61413 TIP3     7339     TIP3     H2       HT       0.417000       1.00800           0
     61414 TIP3     7340     TIP3     OH2      OT      -0.834000       15.9994           0
     61415 TIP3     7340     TIP3     H1       HT       0.417000       1.00800           0
     61416 TIP3     7340     TIP3     H2       HT       0.417000       1.00800           0
     61417 TIP3     7341     TIP3     OH2      OT      -0.834000       15.9994           0
     61418 TIP3     7341     TIP3     H1       HT       0.417000       1.00800           0
     61419 TIP3     7341     TIP3     H2       HT       0.417000       1.00800           0
     61420 TIP3     7342     TIP3     OH2      OT      -0.834000       15.9994           0
     61421 TIP3     7342     TIP3     H1       HT       0.417000       1.00800           0
     61422 TIP3     7342     TIP3     H2       HT       0.417000       1.00800           0
     61423 TIP3     7343     TIP3     OH2      OT      -0.834000       15.9994           0
     61424 TIP3     7343     TIP3     H1       HT       0.417000       1.00800           0
     61425 TIP3     7343     TIP3     H2       HT       0.417000       1.00800           0
     61426 TIP3     7344     TIP3     OH2      OT      -0.834000       15.9994           0
     61427 TIP3     7344     TIP3     H1       HT       0.417000       1.00800           0
     61428 TIP3     7344     TIP3     H2       HT       0.417000       1.00800           0
     61429 TIP3     7345     TIP3     OH2      OT      -0.834000       15.9994           0
     61430 TIP3     7345     TIP3     H1       HT       0.417000       1.00800           0
     61431 TIP3     7345     TIP3     H2       HT       0.417000       1.00800           0
     61432 TIP3     7346     TIP3     OH2      OT      -0.834000       15.9994           0
     61433 TIP3     7346     TIP3     H1       HT       0.417000       1.00800           0
     61434 TIP3     7346     TIP3     H2       HT       0.417000       1.00800           0
     61435 TIP3     7347     TIP3     OH2      OT      -0.834000       15.9994           0
     61436 TIP3     7347     TIP3     H1       HT       0.417000       1.00800           0
     61437 TIP3     7347     TIP3     H2       HT       0.417000       1.00800           0
     61438 TIP3     7348     TIP3     OH2      OT      -0.834000       15.9994           0
     61439 TIP3     7348     TIP3     H1       HT       0.417000       1.00800           0
     61440 TIP3     7348     TIP3     H2       HT       0.417000       1.00800           0
     61441 TIP3     7349     TIP3     OH2      OT      -0.834000       15.9994           0
     61442 TIP3     7349     TIP3     H1       HT       0.417000       1.00800           0
     61443 TIP3     7349     TIP3     H2       HT       0.417000       1.00800           0
     61444 TIP3     7350     TIP3     OH2      OT      -0.834000       15.9994           0
     61445 TIP3     7350     TIP3     H1       HT       0.417000       1.00800           0
     61446 TIP3     7350     TIP3     H2       HT       0.417000       1.00800           0
     61447 TIP3     7351     TIP3     OH2      OT      -0.834000       15.9994           0
     61448 TIP3     7351     TIP3     H1       HT       0.417000       1.00800           0
     61449 TIP3     7351     TIP3     H2       HT       0.417000       1.00800           0
     61450 TIP3     7352     TIP3     OH2      OT      -0.834000       15.9994           0
     61451 TIP3     7352     TIP3     H1       HT       0.417000       1.00800           0
     61452 TIP3     7352     TIP3     H2       HT       0.417000       1.00800           0
     61453 TIP3     7353     TIP3     OH2      OT      -0.834000       15.9994           0
     61454 TIP3     7353     TIP3     H1       HT       0.417000       1.00800           0
     61455 TIP3     7353     TIP3     H2       HT       0.417000       1.00800           0
     61456 TIP3     7354     TIP3     OH2      OT      -0.834000       15.9994           0
     61457 TIP3     7354     TIP3     H1       HT       0.417000       1.00800           0
     61458 TIP3     7354     TIP3     H2       HT       0.417000       1.00800           0
     61459 TIP3     7355     TIP3     OH2      OT      -0.834000       15.9994           0
     61460 TIP3     7355     TIP3     H1       HT       0.417000       1.00800           0
     61461 TIP3     7355     TIP3     H2       HT       0.417000       1.00800           0
     61462 TIP3     7356     TIP3     OH2      OT      -0.834000       15.9994           0
     61463 TIP3     7356     TIP3     H1       HT       0.417000       1.00800           0
     61464 TIP3     7356     TIP3     H2       HT       0.417000       1.00800           0
     61465 TIP3     7357     TIP3     OH2      OT      -0.834000       15.9994           0
     61466 TIP3     7357     TIP3     H1       HT       0.417000       1.00800           0
     61467 TIP3     7357     TIP3     H2       HT       0.417000       1.00800           0
     61468 TIP3     7358     TIP3     OH2      OT      -0.834000       15.9994           0
     61469 TIP3     7358     TIP3     H1       HT       0.417000       1.00800           0
     61470 TIP3     7358     TIP3     H2       HT       0.417000       1.00800           0
     61471 TIP3     7359     TIP3     OH2      OT      -0.834000       15.9994           0
     61472 TIP3     7359     TIP3     H1       HT       0.417000       1.00800           0
     61473 TIP3     7359     TIP3     H2       HT       0.417000       1.00800           0
     61474 TIP3     7360     TIP3     OH2      OT      -0.834000       15.9994           0
     61475 TIP3     7360     TIP3     H1       HT       0.417000       1.00800           0
     61476 TIP3     7360     TIP3     H2       HT       0.417000       1.00800           0
     61477 TIP3     7361     TIP3     OH2      OT      -0.834000       15.9994           0
     61478 TIP3     7361     TIP3     H1       HT       0.417000       1.00800           0
     61479 TIP3     7361     TIP3     H2       HT       0.417000       1.00800           0
     61480 TIP3     7362     TIP3     OH2      OT      -0.834000       15.9994           0
     61481 TIP3     7362     TIP3     H1       HT       0.417000       1.00800           0
     61482 TIP3     7362     TIP3     H2       HT       0.417000       1.00800           0
     61483 TIP3     7363     TIP3     OH2      OT      -0.834000       15.9994           0
     61484 TIP3     7363     TIP3     H1       HT       0.417000       1.00800           0
     61485 TIP3     7363     TIP3     H2       HT       0.417000       1.00800           0
     61486 TIP3     7364     TIP3     OH2      OT      -0.834000       15.9994           0
     61487 TIP3     7364     TIP3     H1       HT       0.417000       1.00800           0
     61488 TIP3     7364     TIP3     H2       HT       0.417000       1.00800           0
     61489 TIP3     7365     TIP3     OH2      OT      -0.834000       15.9994           0
     61490 TIP3     7365     TIP3     H1       HT       0.417000       1.00800           0
     61491 TIP3     7365     TIP3     H2       HT       0.417000       1.00800           0
     61492 TIP3     7366     TIP3     OH2      OT      -0.834000       15.9994           0
     61493 TIP3     7366     TIP3     H1       HT       0.417000       1.00800           0
     61494 TIP3     7366     TIP3     H2       HT       0.417000       1.00800           0
     61495 TIP3     7367     TIP3     OH2      OT      -0.834000       15.9994           0
     61496 TIP3     7367     TIP3     H1       HT       0.417000       1.00800           0
     61497 TIP3     7367     TIP3     H2       HT       0.417000       1.00800           0
     61498 TIP3     7368     TIP3     OH2      OT      -0.834000       15.9994           0
     61499 TIP3     7368     TIP3     H1       HT       0.417000       1.00800           0
     61500 TIP3     7368     TIP3     H2       HT       0.417000       1.00800           0
     61501 TIP3     7369     TIP3     OH2      OT      -0.834000       15.9994           0
     61502 TIP3     7369     TIP3     H1       HT       0.417000       1.00800           0
     61503 TIP3     7369     TIP3     H2       HT       0.417000       1.00800           0
     61504 TIP3     7370     TIP3     OH2      OT      -0.834000       15.9994           0
     61505 TIP3     7370     TIP3     H1       HT       0.417000       1.00800           0
     61506 TIP3     7370     TIP3     H2       HT       0.417000       1.00800           0
     61507 TIP3     7371     TIP3     OH2      OT      -0.834000       15.9994           0
     61508 TIP3     7371     TIP3     H1       HT       0.417000       1.00800           0
     61509 TIP3     7371     TIP3     H2       HT       0.417000       1.00800           0
     61510 TIP3     7372     TIP3     OH2      OT      -0.834000       15.9994           0
     61511 TIP3     7372     TIP3     H1       HT       0.417000       1.00800           0
     61512 TIP3     7372     TIP3     H2       HT       0.417000       1.00800           0
     61513 TIP3     7373     TIP3     OH2      OT      -0.834000       15.9994           0
     61514 TIP3     7373     TIP3     H1       HT       0.417000       1.00800           0
     61515 TIP3     7373     TIP3     H2       HT       0.417000       1.00800           0
     61516 TIP3     7374     TIP3     OH2      OT      -0.834000       15.9994           0
     61517 TIP3     7374     TIP3     H1       HT       0.417000       1.00800           0
     61518 TIP3     7374     TIP3     H2       HT       0.417000       1.00800           0
     61519 TIP3     7375     TIP3     OH2      OT      -0.834000       15.9994           0
     61520 TIP3     7375     TIP3     H1       HT       0.417000       1.00800           0
     61521 TIP3     7375     TIP3     H2       HT       0.417000       1.00800           0
     61522 TIP3     7376     TIP3     OH2      OT      -0.834000       15.9994           0
     61523 TIP3     7376     TIP3     H1       HT       0.417000       1.00800           0
     61524 TIP3     7376     TIP3     H2       HT       0.417000       1.00800           0
     61525 TIP3     7377     TIP3     OH2      OT      -0.834000       15.9994           0
     61526 TIP3     7377     TIP3     H1       HT       0.417000       1.00800           0
     61527 TIP3     7377     TIP3     H2       HT       0.417000       1.00800           0
     61528 TIP3     7378     TIP3     OH2      OT      -0.834000       15.9994           0
     61529 TIP3     7378     TIP3     H1       HT       0.417000       1.00800           0
     61530 TIP3     7378     TIP3     H2       HT       0.417000       1.00800           0
     61531 TIP3     7379     TIP3     OH2      OT      -0.834000       15.9994           0
     61532 TIP3     7379     TIP3     H1       HT       0.417000       1.00800           0
     61533 TIP3     7379     TIP3     H2       HT       0.417000       1.00800           0
     61534 TIP3     7380     TIP3     OH2      OT      -0.834000       15.9994           0
     61535 TIP3     7380     TIP3     H1       HT       0.417000       1.00800           0
     61536 TIP3     7380     TIP3     H2       HT       0.417000       1.00800           0
     61537 TIP3     7381     TIP3     OH2      OT      -0.834000       15.9994           0
     61538 TIP3     7381     TIP3     H1       HT       0.417000       1.00800           0
     61539 TIP3     7381     TIP3     H2       HT       0.417000       1.00800           0
     61540 TIP3     7382     TIP3     OH2      OT      -0.834000       15.9994           0
     61541 TIP3     7382     TIP3     H1       HT       0.417000       1.00800           0
     61542 TIP3     7382     TIP3     H2       HT       0.417000       1.00800           0
     61543 TIP3     7383     TIP3     OH2      OT      -0.834000       15.9994           0
     61544 TIP3     7383     TIP3     H1       HT       0.417000       1.00800           0
     61545 TIP3     7383     TIP3     H2       HT       0.417000       1.00800           0
     61546 TIP3     7384     TIP3     OH2      OT      -0.834000       15.9994           0
     61547 TIP3     7384     TIP3     H1       HT       0.417000       1.00800           0
     61548 TIP3     7384     TIP3     H2       HT       0.417000       1.00800           0
     61549 TIP3     7385     TIP3     OH2      OT      -0.834000       15.9994           0
     61550 TIP3     7385     TIP3     H1       HT       0.417000       1.00800           0
     61551 TIP3     7385     TIP3     H2       HT       0.417000       1.00800           0
     61552 TIP3     7386     TIP3     OH2      OT      -0.834000       15.9994           0
     61553 TIP3     7386     TIP3     H1       HT       0.417000       1.00800           0
     61554 TIP3     7386     TIP3     H2       HT       0.417000       1.00800           0
     61555 TIP3     7387     TIP3     OH2      OT      -0.834000       15.9994           0
     61556 TIP3     7387     TIP3     H1       HT       0.417000       1.00800           0
     61557 TIP3     7387     TIP3     H2       HT       0.417000       1.00800           0
     61558 TIP3     7388     TIP3     OH2      OT      -0.834000       15.9994           0
     61559 TIP3     7388     TIP3     H1       HT       0.417000       1.00800           0
     61560 TIP3     7388     TIP3     H2       HT       0.417000       1.00800           0
     61561 TIP3     7389     TIP3     OH2      OT      -0.834000       15.9994           0
     61562 TIP3     7389     TIP3     H1       HT       0.417000       1.00800           0
     61563 TIP3     7389     TIP3     H2       HT       0.417000       1.00800           0
     61564 TIP3     7390     TIP3     OH2      OT      -0.834000       15.9994           0
     61565 TIP3     7390     TIP3     H1       HT       0.417000       1.00800           0
     61566 TIP3     7390     TIP3     H2       HT       0.417000       1.00800           0
     61567 TIP3     7391     TIP3     OH2      OT      -0.834000       15.9994           0
     61568 TIP3     7391     TIP3     H1       HT       0.417000       1.00800           0
     61569 TIP3     7391     TIP3     H2       HT       0.417000       1.00800           0
     61570 TIP3     7392     TIP3     OH2      OT      -0.834000       15.9994           0
     61571 TIP3     7392     TIP3     H1       HT       0.417000       1.00800           0
     61572 TIP3     7392     TIP3     H2       HT       0.417000       1.00800           0
     61573 TIP3     7393     TIP3     OH2      OT      -0.834000       15.9994           0
     61574 TIP3     7393     TIP3     H1       HT       0.417000       1.00800           0
     61575 TIP3     7393     TIP3     H2       HT       0.417000       1.00800           0
     61576 TIP3     7394     TIP3     OH2      OT      -0.834000       15.9994           0
     61577 TIP3     7394     TIP3     H1       HT       0.417000       1.00800           0
     61578 TIP3     7394     TIP3     H2       HT       0.417000       1.00800           0
     61579 TIP3     7395     TIP3     OH2      OT      -0.834000       15.9994           0
     61580 TIP3     7395     TIP3     H1       HT       0.417000       1.00800           0
     61581 TIP3     7395     TIP3     H2       HT       0.417000       1.00800           0
     61582 TIP3     7396     TIP3     OH2      OT      -0.834000       15.9994           0
     61583 TIP3     7396     TIP3     H1       HT       0.417000       1.00800           0
     61584 TIP3     7396     TIP3     H2       HT       0.417000       1.00800           0
     61585 TIP3     7397     TIP3     OH2      OT      -0.834000       15.9994           0
     61586 TIP3     7397     TIP3     H1       HT       0.417000       1.00800           0
     61587 TIP3     7397     TIP3     H2       HT       0.417000       1.00800           0
     61588 TIP3     7398     TIP3     OH2      OT      -0.834000       15.9994           0
     61589 TIP3     7398     TIP3     H1       HT       0.417000       1.00800           0
     61590 TIP3     7398     TIP3     H2       HT       0.417000       1.00800           0
     61591 TIP3     7399     TIP3     OH2      OT      -0.834000       15.9994           0
     61592 TIP3     7399     TIP3     H1       HT       0.417000       1.00800           0
     61593 TIP3     7399     TIP3     H2       HT       0.417000       1.00800           0
     61594 TIP3     7400     TIP3     OH2      OT      -0.834000       15.9994           0
     61595 TIP3     7400     TIP3     H1       HT       0.417000       1.00800           0
     61596 TIP3     7400     TIP3     H2       HT       0.417000       1.00800           0
     61597 TIP3     7401     TIP3     OH2      OT      -0.834000       15.9994           0
     61598 TIP3     7401     TIP3     H1       HT       0.417000       1.00800           0
     61599 TIP3     7401     TIP3     H2       HT       0.417000       1.00800           0
     61600 TIP3     7402     TIP3     OH2      OT      -0.834000       15.9994           0
     61601 TIP3     7402     TIP3     H1       HT       0.417000       1.00800           0
     61602 TIP3     7402     TIP3     H2       HT       0.417000       1.00800           0
     61603 TIP3     7403     TIP3     OH2      OT      -0.834000       15.9994           0
     61604 TIP3     7403     TIP3     H1       HT       0.417000       1.00800           0
     61605 TIP3     7403     TIP3     H2       HT       0.417000       1.00800           0
     61606 TIP3     7404     TIP3     OH2      OT      -0.834000       15.9994           0
     61607 TIP3     7404     TIP3     H1       HT       0.417000       1.00800           0
     61608 TIP3     7404     TIP3     H2       HT       0.417000       1.00800           0
     61609 TIP3     7405     TIP3     OH2      OT      -0.834000       15.9994           0
     61610 TIP3     7405     TIP3     H1       HT       0.417000       1.00800           0
     61611 TIP3     7405     TIP3     H2       HT       0.417000       1.00800           0
     61612 TIP3     7406     TIP3     OH2      OT      -0.834000       15.9994           0
     61613 TIP3     7406     TIP3     H1       HT       0.417000       1.00800           0
     61614 TIP3     7406     TIP3     H2       HT       0.417000       1.00800           0
     61615 TIP3     7407     TIP3     OH2      OT      -0.834000       15.9994           0
     61616 TIP3     7407     TIP3     H1       HT       0.417000       1.00800           0
     61617 TIP3     7407     TIP3     H2       HT       0.417000       1.00800           0
     61618 TIP3     7408     TIP3     OH2      OT      -0.834000       15.9994           0
     61619 TIP3     7408     TIP3     H1       HT       0.417000       1.00800           0
     61620 TIP3     7408     TIP3     H2       HT       0.417000       1.00800           0
     61621 TIP3     7409     TIP3     OH2      OT      -0.834000       15.9994           0
     61622 TIP3     7409     TIP3     H1       HT       0.417000       1.00800           0
     61623 TIP3     7409     TIP3     H2       HT       0.417000       1.00800           0
     61624 TIP3     7410     TIP3     OH2      OT      -0.834000       15.9994           0
     61625 TIP3     7410     TIP3     H1       HT       0.417000       1.00800           0
     61626 TIP3     7410     TIP3     H2       HT       0.417000       1.00800           0
     61627 TIP3     7411     TIP3     OH2      OT      -0.834000       15.9994           0
     61628 TIP3     7411     TIP3     H1       HT       0.417000       1.00800           0
     61629 TIP3     7411     TIP3     H2       HT       0.417000       1.00800           0
     61630 TIP3     7412     TIP3     OH2      OT      -0.834000       15.9994           0
     61631 TIP3     7412     TIP3     H1       HT       0.417000       1.00800           0
     61632 TIP3     7412     TIP3     H2       HT       0.417000       1.00800           0
     61633 TIP3     7413     TIP3     OH2      OT      -0.834000       15.9994           0
     61634 TIP3     7413     TIP3     H1       HT       0.417000       1.00800           0
     61635 TIP3     7413     TIP3     H2       HT       0.417000       1.00800           0
     61636 TIP3     7414     TIP3     OH2      OT      -0.834000       15.9994           0
     61637 TIP3     7414     TIP3     H1       HT       0.417000       1.00800           0
     61638 TIP3     7414     TIP3     H2       HT       0.417000       1.00800           0
     61639 TIP3     7415     TIP3     OH2      OT      -0.834000       15.9994           0
     61640 TIP3     7415     TIP3     H1       HT       0.417000       1.00800           0
     61641 TIP3     7415     TIP3     H2       HT       0.417000       1.00800           0
     61642 TIP3     7416     TIP3     OH2      OT      -0.834000       15.9994           0
     61643 TIP3     7416     TIP3     H1       HT       0.417000       1.00800           0
     61644 TIP3     7416     TIP3     H2       HT       0.417000       1.00800           0
     61645 TIP3     7417     TIP3     OH2      OT      -0.834000       15.9994           0
     61646 TIP3     7417     TIP3     H1       HT       0.417000       1.00800           0
     61647 TIP3     7417     TIP3     H2       HT       0.417000       1.00800           0
     61648 TIP3     7418     TIP3     OH2      OT      -0.834000       15.9994           0
     61649 TIP3     7418     TIP3     H1       HT       0.417000       1.00800           0
     61650 TIP3     7418     TIP3     H2       HT       0.417000       1.00800           0
     61651 TIP3     7419     TIP3     OH2      OT      -0.834000       15.9994           0
     61652 TIP3     7419     TIP3     H1       HT       0.417000       1.00800           0
     61653 TIP3     7419     TIP3     H2       HT       0.417000       1.00800           0
     61654 TIP3     7420     TIP3     OH2      OT      -0.834000       15.9994           0
     61655 TIP3     7420     TIP3     H1       HT       0.417000       1.00800           0
     61656 TIP3     7420     TIP3     H2       HT       0.417000       1.00800           0
     61657 TIP3     7421     TIP3     OH2      OT      -0.834000       15.9994           0
     61658 TIP3     7421     TIP3     H1       HT       0.417000       1.00800           0
     61659 TIP3     7421     TIP3     H2       HT       0.417000       1.00800           0
     61660 TIP3     7422     TIP3     OH2      OT      -0.834000       15.9994           0
     61661 TIP3     7422     TIP3     H1       HT       0.417000       1.00800           0
     61662 TIP3     7422     TIP3     H2       HT       0.417000       1.00800           0
     61663 TIP3     7423     TIP3     OH2      OT      -0.834000       15.9994           0
     61664 TIP3     7423     TIP3     H1       HT       0.417000       1.00800           0
     61665 TIP3     7423     TIP3     H2       HT       0.417000       1.00800           0
     61666 TIP3     7424     TIP3     OH2      OT      -0.834000       15.9994           0
     61667 TIP3     7424     TIP3     H1       HT       0.417000       1.00800           0
     61668 TIP3     7424     TIP3     H2       HT       0.417000       1.00800           0
     61669 TIP3     7425     TIP3     OH2      OT      -0.834000       15.9994           0
     61670 TIP3     7425     TIP3     H1       HT       0.417000       1.00800           0
     61671 TIP3     7425     TIP3     H2       HT       0.417000       1.00800           0
     61672 TIP3     7426     TIP3     OH2      OT      -0.834000       15.9994           0
     61673 TIP3     7426     TIP3     H1       HT       0.417000       1.00800           0
     61674 TIP3     7426     TIP3     H2       HT       0.417000       1.00800           0
     61675 TIP3     7427     TIP3     OH2      OT      -0.834000       15.9994           0
     61676 TIP3     7427     TIP3     H1       HT       0.417000       1.00800           0
     61677 TIP3     7427     TIP3     H2       HT       0.417000       1.00800           0
     61678 TIP3     7428     TIP3     OH2      OT      -0.834000       15.9994           0
     61679 TIP3     7428     TIP3     H1       HT       0.417000       1.00800           0
     61680 TIP3     7428     TIP3     H2       HT       0.417000       1.00800           0
     61681 TIP3     7429     TIP3     OH2      OT      -0.834000       15.9994           0
     61682 TIP3     7429     TIP3     H1       HT       0.417000       1.00800           0
     61683 TIP3     7429     TIP3     H2       HT       0.417000       1.00800           0
     61684 TIP3     7430     TIP3     OH2      OT      -0.834000       15.9994           0
     61685 TIP3     7430     TIP3     H1       HT       0.417000       1.00800           0
     61686 TIP3     7430     TIP3     H2       HT       0.417000       1.00800           0
     61687 TIP3     7431     TIP3     OH2      OT      -0.834000       15.9994           0
     61688 TIP3     7431     TIP3     H1       HT       0.417000       1.00800           0
     61689 TIP3     7431     TIP3     H2       HT       0.417000       1.00800           0
     61690 TIP3     7432     TIP3     OH2      OT      -0.834000       15.9994           0
     61691 TIP3     7432     TIP3     H1       HT       0.417000       1.00800           0
     61692 TIP3     7432     TIP3     H2       HT       0.417000       1.00800           0
     61693 TIP3     7433     TIP3     OH2      OT      -0.834000       15.9994           0
     61694 TIP3     7433     TIP3     H1       HT       0.417000       1.00800           0
     61695 TIP3     7433     TIP3     H2       HT       0.417000       1.00800           0
     61696 TIP3     7434     TIP3     OH2      OT      -0.834000       15.9994           0
     61697 TIP3     7434     TIP3     H1       HT       0.417000       1.00800           0
     61698 TIP3     7434     TIP3     H2       HT       0.417000       1.00800           0
     61699 TIP3     7435     TIP3     OH2      OT      -0.834000       15.9994           0
     61700 TIP3     7435     TIP3     H1       HT       0.417000       1.00800           0
     61701 TIP3     7435     TIP3     H2       HT       0.417000       1.00800           0
     61702 TIP3     7436     TIP3     OH2      OT      -0.834000       15.9994           0
     61703 TIP3     7436     TIP3     H1       HT       0.417000       1.00800           0
     61704 TIP3     7436     TIP3     H2       HT       0.417000       1.00800           0
     61705 TIP3     7437     TIP3     OH2      OT      -0.834000       15.9994           0
     61706 TIP3     7437     TIP3     H1       HT       0.417000       1.00800           0
     61707 TIP3     7437     TIP3     H2       HT       0.417000       1.00800           0
     61708 TIP3     7438     TIP3     OH2      OT      -0.834000       15.9994           0
     61709 TIP3     7438     TIP3     H1       HT       0.417000       1.00800           0
     61710 TIP3     7438     TIP3     H2       HT       0.417000       1.00800           0
     61711 TIP3     7439     TIP3     OH2      OT      -0.834000       15.9994           0
     61712 TIP3     7439     TIP3     H1       HT       0.417000       1.00800           0
     61713 TIP3     7439     TIP3     H2       HT       0.417000       1.00800           0
     61714 TIP3     7440     TIP3     OH2      OT      -0.834000       15.9994           0
     61715 TIP3     7440     TIP3     H1       HT       0.417000       1.00800           0
     61716 TIP3     7440     TIP3     H2       HT       0.417000       1.00800           0
     61717 TIP3     7441     TIP3     OH2      OT      -0.834000       15.9994           0
     61718 TIP3     7441     TIP3     H1       HT       0.417000       1.00800           0
     61719 TIP3     7441     TIP3     H2       HT       0.417000       1.00800           0
     61720 TIP3     7442     TIP3     OH2      OT      -0.834000       15.9994           0
     61721 TIP3     7442     TIP3     H1       HT       0.417000       1.00800           0
     61722 TIP3     7442     TIP3     H2       HT       0.417000       1.00800           0
     61723 TIP3     7443     TIP3     OH2      OT      -0.834000       15.9994           0
     61724 TIP3     7443     TIP3     H1       HT       0.417000       1.00800           0
     61725 TIP3     7443     TIP3     H2       HT       0.417000       1.00800           0
     61726 TIP3     7444     TIP3     OH2      OT      -0.834000       15.9994           0
     61727 TIP3     7444     TIP3     H1       HT       0.417000       1.00800           0
     61728 TIP3     7444     TIP3     H2       HT       0.417000       1.00800           0
     61729 TIP3     7445     TIP3     OH2      OT      -0.834000       15.9994           0
     61730 TIP3     7445     TIP3     H1       HT       0.417000       1.00800           0
     61731 TIP3     7445     TIP3     H2       HT       0.417000       1.00800           0
     61732 TIP3     7446     TIP3     OH2      OT      -0.834000       15.9994           0
     61733 TIP3     7446     TIP3     H1       HT       0.417000       1.00800           0
     61734 TIP3     7446     TIP3     H2       HT       0.417000       1.00800           0
     61735 TIP3     7447     TIP3     OH2      OT      -0.834000       15.9994           0
     61736 TIP3     7447     TIP3     H1       HT       0.417000       1.00800           0
     61737 TIP3     7447     TIP3     H2       HT       0.417000       1.00800           0
     61738 TIP3     7448     TIP3     OH2      OT      -0.834000       15.9994           0
     61739 TIP3     7448     TIP3     H1       HT       0.417000       1.00800           0
     61740 TIP3     7448     TIP3     H2       HT       0.417000       1.00800           0
     61741 TIP3     7449     TIP3     OH2      OT      -0.834000       15.9994           0
     61742 TIP3     7449     TIP3     H1       HT       0.417000       1.00800           0
     61743 TIP3     7449     TIP3     H2       HT       0.417000       1.00800           0
     61744 TIP3     7450     TIP3     OH2      OT      -0.834000       15.9994           0
     61745 TIP3     7450     TIP3     H1       HT       0.417000       1.00800           0
     61746 TIP3     7450     TIP3     H2       HT       0.417000       1.00800           0
     61747 TIP3     7451     TIP3     OH2      OT      -0.834000       15.9994           0
     61748 TIP3     7451     TIP3     H1       HT       0.417000       1.00800           0
     61749 TIP3     7451     TIP3     H2       HT       0.417000       1.00800           0
     61750 TIP3     7452     TIP3     OH2      OT      -0.834000       15.9994           0
     61751 TIP3     7452     TIP3     H1       HT       0.417000       1.00800           0
     61752 TIP3     7452     TIP3     H2       HT       0.417000       1.00800           0
     61753 TIP3     7453     TIP3     OH2      OT      -0.834000       15.9994           0
     61754 TIP3     7453     TIP3     H1       HT       0.417000       1.00800           0
     61755 TIP3     7453     TIP3     H2       HT       0.417000       1.00800           0
     61756 TIP3     7454     TIP3     OH2      OT      -0.834000       15.9994           0
     61757 TIP3     7454     TIP3     H1       HT       0.417000       1.00800           0
     61758 TIP3     7454     TIP3     H2       HT       0.417000       1.00800           0
     61759 TIP3     7455     TIP3     OH2      OT      -0.834000       15.9994           0
     61760 TIP3     7455     TIP3     H1       HT       0.417000       1.00800           0
     61761 TIP3     7455     TIP3     H2       HT       0.417000       1.00800           0
     61762 TIP3     7456     TIP3     OH2      OT      -0.834000       15.9994           0
     61763 TIP3     7456     TIP3     H1       HT       0.417000       1.00800           0
     61764 TIP3     7456     TIP3     H2       HT       0.417000       1.00800           0
     61765 TIP3     7457     TIP3     OH2      OT      -0.834000       15.9994           0
     61766 TIP3     7457     TIP3     H1       HT       0.417000       1.00800           0
     61767 TIP3     7457     TIP3     H2       HT       0.417000       1.00800           0
     61768 TIP3     7458     TIP3     OH2      OT      -0.834000       15.9994           0
     61769 TIP3     7458     TIP3     H1       HT       0.417000       1.00800           0
     61770 TIP3     7458     TIP3     H2       HT       0.417000       1.00800           0
     61771 TIP3     7459     TIP3     OH2      OT      -0.834000       15.9994           0
     61772 TIP3     7459     TIP3     H1       HT       0.417000       1.00800           0
     61773 TIP3     7459     TIP3     H2       HT       0.417000       1.00800           0
     61774 TIP3     7460     TIP3     OH2      OT      -0.834000       15.9994           0
     61775 TIP3     7460     TIP3     H1       HT       0.417000       1.00800           0
     61776 TIP3     7460     TIP3     H2       HT       0.417000       1.00800           0
     61777 TIP3     7461     TIP3     OH2      OT      -0.834000       15.9994           0
     61778 TIP3     7461     TIP3     H1       HT       0.417000       1.00800           0
     61779 TIP3     7461     TIP3     H2       HT       0.417000       1.00800           0
     61780 TIP3     7462     TIP3     OH2      OT      -0.834000       15.9994           0
     61781 TIP3     7462     TIP3     H1       HT       0.417000       1.00800           0
     61782 TIP3     7462     TIP3     H2       HT       0.417000       1.00800           0
     61783 TIP3     7463     TIP3     OH2      OT      -0.834000       15.9994           0
     61784 TIP3     7463     TIP3     H1       HT       0.417000       1.00800           0
     61785 TIP3     7463     TIP3     H2       HT       0.417000       1.00800           0
     61786 TIP3     7464     TIP3     OH2      OT      -0.834000       15.9994           0
     61787 TIP3     7464     TIP3     H1       HT       0.417000       1.00800           0
     61788 TIP3     7464     TIP3     H2       HT       0.417000       1.00800           0
     61789 TIP3     7465     TIP3     OH2      OT      -0.834000       15.9994           0
     61790 TIP3     7465     TIP3     H1       HT       0.417000       1.00800           0
     61791 TIP3     7465     TIP3     H2       HT       0.417000       1.00800           0
     61792 TIP3     7466     TIP3     OH2      OT      -0.834000       15.9994           0
     61793 TIP3     7466     TIP3     H1       HT       0.417000       1.00800           0
     61794 TIP3     7466     TIP3     H2       HT       0.417000       1.00800           0
     61795 TIP3     7467     TIP3     OH2      OT      -0.834000       15.9994           0
     61796 TIP3     7467     TIP3     H1       HT       0.417000       1.00800           0
     61797 TIP3     7467     TIP3     H2       HT       0.417000       1.00800           0
     61798 TIP3     7468     TIP3     OH2      OT      -0.834000       15.9994           0
     61799 TIP3     7468     TIP3     H1       HT       0.417000       1.00800           0
     61800 TIP3     7468     TIP3     H2       HT       0.417000       1.00800           0
     61801 TIP3     7469     TIP3     OH2      OT      -0.834000       15.9994           0
     61802 TIP3     7469     TIP3     H1       HT       0.417000       1.00800           0
     61803 TIP3     7469     TIP3     H2       HT       0.417000       1.00800           0
     61804 TIP3     7470     TIP3     OH2      OT      -0.834000       15.9994           0
     61805 TIP3     7470     TIP3     H1       HT       0.417000       1.00800           0
     61806 TIP3     7470     TIP3     H2       HT       0.417000       1.00800           0
     61807 TIP3     7471     TIP3     OH2      OT      -0.834000       15.9994           0
     61808 TIP3     7471     TIP3     H1       HT       0.417000       1.00800           0
     61809 TIP3     7471     TIP3     H2       HT       0.417000       1.00800           0
     61810 TIP3     7472     TIP3     OH2      OT      -0.834000       15.9994           0
     61811 TIP3     7472     TIP3     H1       HT       0.417000       1.00800           0
     61812 TIP3     7472     TIP3     H2       HT       0.417000       1.00800           0
     61813 TIP3     7473     TIP3     OH2      OT      -0.834000       15.9994           0
     61814 TIP3     7473     TIP3     H1       HT       0.417000       1.00800           0
     61815 TIP3     7473     TIP3     H2       HT       0.417000       1.00800           0
     61816 TIP3     7474     TIP3     OH2      OT      -0.834000       15.9994           0
     61817 TIP3     7474     TIP3     H1       HT       0.417000       1.00800           0
     61818 TIP3     7474     TIP3     H2       HT       0.417000       1.00800           0
     61819 TIP3     7475     TIP3     OH2      OT      -0.834000       15.9994           0
     61820 TIP3     7475     TIP3     H1       HT       0.417000       1.00800           0
     61821 TIP3     7475     TIP3     H2       HT       0.417000       1.00800           0
     61822 TIP3     7476     TIP3     OH2      OT      -0.834000       15.9994           0
     61823 TIP3     7476     TIP3     H1       HT       0.417000       1.00800           0
     61824 TIP3     7476     TIP3     H2       HT       0.417000       1.00800           0
     61825 TIP3     7477     TIP3     OH2      OT      -0.834000       15.9994           0
     61826 TIP3     7477     TIP3     H1       HT       0.417000       1.00800           0
     61827 TIP3     7477     TIP3     H2       HT       0.417000       1.00800           0
     61828 TIP3     7478     TIP3     OH2      OT      -0.834000       15.9994           0
     61829 TIP3     7478     TIP3     H1       HT       0.417000       1.00800           0
     61830 TIP3     7478     TIP3     H2       HT       0.417000       1.00800           0
     61831 TIP3     7479     TIP3     OH2      OT      -0.834000       15.9994           0
     61832 TIP3     7479     TIP3     H1       HT       0.417000       1.00800           0
     61833 TIP3     7479     TIP3     H2       HT       0.417000       1.00800           0
     61834 TIP3     7480     TIP3     OH2      OT      -0.834000       15.9994           0
     61835 TIP3     7480     TIP3     H1       HT       0.417000       1.00800           0
     61836 TIP3     7480     TIP3     H2       HT       0.417000       1.00800           0
     61837 TIP3     7481     TIP3     OH2      OT      -0.834000       15.9994           0
     61838 TIP3     7481     TIP3     H1       HT       0.417000       1.00800           0
     61839 TIP3     7481     TIP3     H2       HT       0.417000       1.00800           0
     61840 TIP3     7482     TIP3     OH2      OT      -0.834000       15.9994           0
     61841 TIP3     7482     TIP3     H1       HT       0.417000       1.00800           0
     61842 TIP3     7482     TIP3     H2       HT       0.417000       1.00800           0
     61843 TIP3     7483     TIP3     OH2      OT      -0.834000       15.9994           0
     61844 TIP3     7483     TIP3     H1       HT       0.417000       1.00800           0
     61845 TIP3     7483     TIP3     H2       HT       0.417000       1.00800           0
     61846 TIP3     7484     TIP3     OH2      OT      -0.834000       15.9994           0
     61847 TIP3     7484     TIP3     H1       HT       0.417000       1.00800           0
     61848 TIP3     7484     TIP3     H2       HT       0.417000       1.00800           0
     61849 TIP3     7485     TIP3     OH2      OT      -0.834000       15.9994           0
     61850 TIP3     7485     TIP3     H1       HT       0.417000       1.00800           0
     61851 TIP3     7485     TIP3     H2       HT       0.417000       1.00800           0
     61852 TIP3     7486     TIP3     OH2      OT      -0.834000       15.9994           0
     61853 TIP3     7486     TIP3     H1       HT       0.417000       1.00800           0
     61854 TIP3     7486     TIP3     H2       HT       0.417000       1.00800           0
     61855 TIP3     7487     TIP3     OH2      OT      -0.834000       15.9994           0
     61856 TIP3     7487     TIP3     H1       HT       0.417000       1.00800           0
     61857 TIP3     7487     TIP3     H2       HT       0.417000       1.00800           0
     61858 TIP3     7488     TIP3     OH2      OT      -0.834000       15.9994           0
     61859 TIP3     7488     TIP3     H1       HT       0.417000       1.00800           0
     61860 TIP3     7488     TIP3     H2       HT       0.417000       1.00800           0
     61861 TIP3     7489     TIP3     OH2      OT      -0.834000       15.9994           0
     61862 TIP3     7489     TIP3     H1       HT       0.417000       1.00800           0
     61863 TIP3     7489     TIP3     H2       HT       0.417000       1.00800           0
     61864 TIP3     7490     TIP3     OH2      OT      -0.834000       15.9994           0
     61865 TIP3     7490     TIP3     H1       HT       0.417000       1.00800           0
     61866 TIP3     7490     TIP3     H2       HT       0.417000       1.00800           0
     61867 TIP3     7491     TIP3     OH2      OT      -0.834000       15.9994           0
     61868 TIP3     7491     TIP3     H1       HT       0.417000       1.00800           0
     61869 TIP3     7491     TIP3     H2       HT       0.417000       1.00800           0
     61870 TIP3     7492     TIP3     OH2      OT      -0.834000       15.9994           0
     61871 TIP3     7492     TIP3     H1       HT       0.417000       1.00800           0
     61872 TIP3     7492     TIP3     H2       HT       0.417000       1.00800           0
     61873 TIP3     7493     TIP3     OH2      OT      -0.834000       15.9994           0
     61874 TIP3     7493     TIP3     H1       HT       0.417000       1.00800           0
     61875 TIP3     7493     TIP3     H2       HT       0.417000       1.00800           0
     61876 TIP3     7494     TIP3     OH2      OT      -0.834000       15.9994           0
     61877 TIP3     7494     TIP3     H1       HT       0.417000       1.00800           0
     61878 TIP3     7494     TIP3     H2       HT       0.417000       1.00800           0
     61879 TIP3     7495     TIP3     OH2      OT      -0.834000       15.9994           0
     61880 TIP3     7495     TIP3     H1       HT       0.417000       1.00800           0
     61881 TIP3     7495     TIP3     H2       HT       0.417000       1.00800           0
     61882 TIP3     7496     TIP3     OH2      OT      -0.834000       15.9994           0
     61883 TIP3     7496     TIP3     H1       HT       0.417000       1.00800           0
     61884 TIP3     7496     TIP3     H2       HT       0.417000       1.00800           0
     61885 TIP3     7497     TIP3     OH2      OT      -0.834000       15.9994           0
     61886 TIP3     7497     TIP3     H1       HT       0.417000       1.00800           0
     61887 TIP3     7497     TIP3     H2       HT       0.417000       1.00800           0
     61888 TIP3     7498     TIP3     OH2      OT      -0.834000       15.9994           0
     61889 TIP3     7498     TIP3     H1       HT       0.417000       1.00800           0
     61890 TIP3     7498     TIP3     H2       HT       0.417000       1.00800           0
     61891 TIP3     7499     TIP3     OH2      OT      -0.834000       15.9994           0
     61892 TIP3     7499     TIP3     H1       HT       0.417000       1.00800           0
     61893 TIP3     7499     TIP3     H2       HT       0.417000       1.00800           0
     61894 TIP3     7500     TIP3     OH2      OT      -0.834000       15.9994           0
     61895 TIP3     7500     TIP3     H1       HT       0.417000       1.00800           0
     61896 TIP3     7500     TIP3     H2       HT       0.417000       1.00800           0
     61897 TIP3     7501     TIP3     OH2      OT      -0.834000       15.9994           0
     61898 TIP3     7501     TIP3     H1       HT       0.417000       1.00800           0
     61899 TIP3     7501     TIP3     H2       HT       0.417000       1.00800           0
     61900 TIP3     7502     TIP3     OH2      OT      -0.834000       15.9994           0
     61901 TIP3     7502     TIP3     H1       HT       0.417000       1.00800           0
     61902 TIP3     7502     TIP3     H2       HT       0.417000       1.00800           0
     61903 TIP3     7503     TIP3     OH2      OT      -0.834000       15.9994           0
     61904 TIP3     7503     TIP3     H1       HT       0.417000       1.00800           0
     61905 TIP3     7503     TIP3     H2       HT       0.417000       1.00800           0
     61906 TIP3     7504     TIP3     OH2      OT      -0.834000       15.9994           0
     61907 TIP3     7504     TIP3     H1       HT       0.417000       1.00800           0
     61908 TIP3     7504     TIP3     H2       HT       0.417000       1.00800           0
     61909 TIP3     7505     TIP3     OH2      OT      -0.834000       15.9994           0
     61910 TIP3     7505     TIP3     H1       HT       0.417000       1.00800           0
     61911 TIP3     7505     TIP3     H2       HT       0.417000       1.00800           0
     61912 TIP3     7506     TIP3     OH2      OT      -0.834000       15.9994           0
     61913 TIP3     7506     TIP3     H1       HT       0.417000       1.00800           0
     61914 TIP3     7506     TIP3     H2       HT       0.417000       1.00800           0
     61915 TIP3     7507     TIP3     OH2      OT      -0.834000       15.9994           0
     61916 TIP3     7507     TIP3     H1       HT       0.417000       1.00800           0
     61917 TIP3     7507     TIP3     H2       HT       0.417000       1.00800           0
     61918 TIP3     7508     TIP3     OH2      OT      -0.834000       15.9994           0
     61919 TIP3     7508     TIP3     H1       HT       0.417000       1.00800           0
     61920 TIP3     7508     TIP3     H2       HT       0.417000       1.00800           0
     61921 TIP3     7509     TIP3     OH2      OT      -0.834000       15.9994           0
     61922 TIP3     7509     TIP3     H1       HT       0.417000       1.00800           0
     61923 TIP3     7509     TIP3     H2       HT       0.417000       1.00800           0
     61924 TIP3     7510     TIP3     OH2      OT      -0.834000       15.9994           0
     61925 TIP3     7510     TIP3     H1       HT       0.417000       1.00800           0
     61926 TIP3     7510     TIP3     H2       HT       0.417000       1.00800           0
     61927 TIP3     7511     TIP3     OH2      OT      -0.834000       15.9994           0
     61928 TIP3     7511     TIP3     H1       HT       0.417000       1.00800           0
     61929 TIP3     7511     TIP3     H2       HT       0.417000       1.00800           0
     61930 TIP3     7512     TIP3     OH2      OT      -0.834000       15.9994           0
     61931 TIP3     7512     TIP3     H1       HT       0.417000       1.00800           0
     61932 TIP3     7512     TIP3     H2       HT       0.417000       1.00800           0
     61933 TIP3     7513     TIP3     OH2      OT      -0.834000       15.9994           0
     61934 TIP3     7513     TIP3     H1       HT       0.417000       1.00800           0
     61935 TIP3     7513     TIP3     H2       HT       0.417000       1.00800           0
     61936 TIP3     7514     TIP3     OH2      OT      -0.834000       15.9994           0
     61937 TIP3     7514     TIP3     H1       HT       0.417000       1.00800           0
     61938 TIP3     7514     TIP3     H2       HT       0.417000       1.00800           0
     61939 TIP3     7515     TIP3     OH2      OT      -0.834000       15.9994           0
     61940 TIP3     7515     TIP3     H1       HT       0.417000       1.00800           0
     61941 TIP3     7515     TIP3     H2       HT       0.417000       1.00800           0
     61942 TIP3     7516     TIP3     OH2      OT      -0.834000       15.9994           0
     61943 TIP3     7516     TIP3     H1       HT       0.417000       1.00800           0
     61944 TIP3     7516     TIP3     H2       HT       0.417000       1.00800           0
     61945 TIP3     7517     TIP3     OH2      OT      -0.834000       15.9994           0
     61946 TIP3     7517     TIP3     H1       HT       0.417000       1.00800           0
     61947 TIP3     7517     TIP3     H2       HT       0.417000       1.00800           0
     61948 TIP3     7518     TIP3     OH2      OT      -0.834000       15.9994           0
     61949 TIP3     7518     TIP3     H1       HT       0.417000       1.00800           0
     61950 TIP3     7518     TIP3     H2       HT       0.417000       1.00800           0
     61951 TIP3     7519     TIP3     OH2      OT      -0.834000       15.9994           0
     61952 TIP3     7519     TIP3     H1       HT       0.417000       1.00800           0
     61953 TIP3     7519     TIP3     H2       HT       0.417000       1.00800           0
     61954 TIP3     7520     TIP3     OH2      OT      -0.834000       15.9994           0
     61955 TIP3     7520     TIP3     H1       HT       0.417000       1.00800           0
     61956 TIP3     7520     TIP3     H2       HT       0.417000       1.00800           0
     61957 TIP3     7521     TIP3     OH2      OT      -0.834000       15.9994           0
     61958 TIP3     7521     TIP3     H1       HT       0.417000       1.00800           0
     61959 TIP3     7521     TIP3     H2       HT       0.417000       1.00800           0
     61960 TIP3     7522     TIP3     OH2      OT      -0.834000       15.9994           0
     61961 TIP3     7522     TIP3     H1       HT       0.417000       1.00800           0
     61962 TIP3     7522     TIP3     H2       HT       0.417000       1.00800           0
     61963 TIP3     7523     TIP3     OH2      OT      -0.834000       15.9994           0
     61964 TIP3     7523     TIP3     H1       HT       0.417000       1.00800           0
     61965 TIP3     7523     TIP3     H2       HT       0.417000       1.00800           0
     61966 TIP3     7524     TIP3     OH2      OT      -0.834000       15.9994           0
     61967 TIP3     7524     TIP3     H1       HT       0.417000       1.00800           0
     61968 TIP3     7524     TIP3     H2       HT       0.417000       1.00800           0
     61969 TIP3     7525     TIP3     OH2      OT      -0.834000       15.9994           0
     61970 TIP3     7525     TIP3     H1       HT       0.417000       1.00800           0
     61971 TIP3     7525     TIP3     H2       HT       0.417000       1.00800           0
     61972 TIP3     7526     TIP3     OH2      OT      -0.834000       15.9994           0
     61973 TIP3     7526     TIP3     H1       HT       0.417000       1.00800           0
     61974 TIP3     7526     TIP3     H2       HT       0.417000       1.00800           0
     61975 TIP3     7527     TIP3     OH2      OT      -0.834000       15.9994           0
     61976 TIP3     7527     TIP3     H1       HT       0.417000       1.00800           0
     61977 TIP3     7527     TIP3     H2       HT       0.417000       1.00800           0
     61978 TIP3     7528     TIP3     OH2      OT      -0.834000       15.9994           0
     61979 TIP3     7528     TIP3     H1       HT       0.417000       1.00800           0
     61980 TIP3     7528     TIP3     H2       HT       0.417000       1.00800           0
     61981 TIP3     7529     TIP3     OH2      OT      -0.834000       15.9994           0
     61982 TIP3     7529     TIP3     H1       HT       0.417000       1.00800           0
     61983 TIP3     7529     TIP3     H2       HT       0.417000       1.00800           0
     61984 TIP3     7530     TIP3     OH2      OT      -0.834000       15.9994           0
     61985 TIP3     7530     TIP3     H1       HT       0.417000       1.00800           0
     61986 TIP3     7530     TIP3     H2       HT       0.417000       1.00800           0
     61987 TIP3     7531     TIP3     OH2      OT      -0.834000       15.9994           0
     61988 TIP3     7531     TIP3     H1       HT       0.417000       1.00800           0
     61989 TIP3     7531     TIP3     H2       HT       0.417000       1.00800           0
     61990 TIP3     7532     TIP3     OH2      OT      -0.834000       15.9994           0
     61991 TIP3     7532     TIP3     H1       HT       0.417000       1.00800           0
     61992 TIP3     7532     TIP3     H2       HT       0.417000       1.00800           0
     61993 TIP3     7533     TIP3     OH2      OT      -0.834000       15.9994           0
     61994 TIP3     7533     TIP3     H1       HT       0.417000       1.00800           0
     61995 TIP3     7533     TIP3     H2       HT       0.417000       1.00800           0
     61996 TIP3     7534     TIP3     OH2      OT      -0.834000       15.9994           0
     61997 TIP3     7534     TIP3     H1       HT       0.417000       1.00800           0
     61998 TIP3     7534     TIP3     H2       HT       0.417000       1.00800           0
     61999 TIP3     7535     TIP3     OH2      OT      -0.834000       15.9994           0
     62000 TIP3     7535     TIP3     H1       HT       0.417000       1.00800           0
     62001 TIP3     7535     TIP3     H2       HT       0.417000       1.00800           0
     62002 TIP3     7536     TIP3     OH2      OT      -0.834000       15.9994           0
     62003 TIP3     7536     TIP3     H1       HT       0.417000       1.00800           0
     62004 TIP3     7536     TIP3     H2       HT       0.417000       1.00800           0
     62005 TIP3     7537     TIP3     OH2      OT      -0.834000       15.9994           0
     62006 TIP3     7537     TIP3     H1       HT       0.417000       1.00800           0
     62007 TIP3     7537     TIP3     H2       HT       0.417000       1.00800           0
     62008 TIP3     7538     TIP3     OH2      OT      -0.834000       15.9994           0
     62009 TIP3     7538     TIP3     H1       HT       0.417000       1.00800           0
     62010 TIP3     7538     TIP3     H2       HT       0.417000       1.00800           0
     62011 TIP3     7539     TIP3     OH2      OT      -0.834000       15.9994           0
     62012 TIP3     7539     TIP3     H1       HT       0.417000       1.00800           0
     62013 TIP3     7539     TIP3     H2       HT       0.417000       1.00800           0
     62014 TIP3     7540     TIP3     OH2      OT      -0.834000       15.9994           0
     62015 TIP3     7540     TIP3     H1       HT       0.417000       1.00800           0
     62016 TIP3     7540     TIP3     H2       HT       0.417000       1.00800           0
     62017 TIP3     7541     TIP3     OH2      OT      -0.834000       15.9994           0
     62018 TIP3     7541     TIP3     H1       HT       0.417000       1.00800           0
     62019 TIP3     7541     TIP3     H2       HT       0.417000       1.00800           0
     62020 TIP3     7542     TIP3     OH2      OT      -0.834000       15.9994           0
     62021 TIP3     7542     TIP3     H1       HT       0.417000       1.00800           0
     62022 TIP3     7542     TIP3     H2       HT       0.417000       1.00800           0
     62023 TIP3     7543     TIP3     OH2      OT      -0.834000       15.9994           0
     62024 TIP3     7543     TIP3     H1       HT       0.417000       1.00800           0
     62025 TIP3     7543     TIP3     H2       HT       0.417000       1.00800           0
     62026 TIP3     7544     TIP3     OH2      OT      -0.834000       15.9994           0
     62027 TIP3     7544     TIP3     H1       HT       0.417000       1.00800           0
     62028 TIP3     7544     TIP3     H2       HT       0.417000       1.00800           0
     62029 TIP3     7545     TIP3     OH2      OT      -0.834000       15.9994           0
     62030 TIP3     7545     TIP3     H1       HT       0.417000       1.00800           0
     62031 TIP3     7545     TIP3     H2       HT       0.417000       1.00800           0
     62032 TIP3     7546     TIP3     OH2      OT      -0.834000       15.9994           0
     62033 TIP3     7546     TIP3     H1       HT       0.417000       1.00800           0
     62034 TIP3     7546     TIP3     H2       HT       0.417000       1.00800           0
     62035 TIP3     7547     TIP3     OH2      OT      -0.834000       15.9994           0
     62036 TIP3     7547     TIP3     H1       HT       0.417000       1.00800           0
     62037 TIP3     7547     TIP3     H2       HT       0.417000       1.00800           0
     62038 TIP3     7548     TIP3     OH2      OT      -0.834000       15.9994           0
     62039 TIP3     7548     TIP3     H1       HT       0.417000       1.00800           0
     62040 TIP3     7548     TIP3     H2       HT       0.417000       1.00800           0
     62041 TIP3     7549     TIP3     OH2      OT      -0.834000       15.9994           0
     62042 TIP3     7549     TIP3     H1       HT       0.417000       1.00800           0
     62043 TIP3     7549     TIP3     H2       HT       0.417000       1.00800           0
     62044 TIP3     7550     TIP3     OH2      OT      -0.834000       15.9994           0
     62045 TIP3     7550     TIP3     H1       HT       0.417000       1.00800           0
     62046 TIP3     7550     TIP3     H2       HT       0.417000       1.00800           0
     62047 TIP3     7551     TIP3     OH2      OT      -0.834000       15.9994           0
     62048 TIP3     7551     TIP3     H1       HT       0.417000       1.00800           0
     62049 TIP3     7551     TIP3     H2       HT       0.417000       1.00800           0
     62050 TIP3     7552     TIP3     OH2      OT      -0.834000       15.9994           0
     62051 TIP3     7552     TIP3     H1       HT       0.417000       1.00800           0
     62052 TIP3     7552     TIP3     H2       HT       0.417000       1.00800           0
     62053 TIP3     7553     TIP3     OH2      OT      -0.834000       15.9994           0
     62054 TIP3     7553     TIP3     H1       HT       0.417000       1.00800           0
     62055 TIP3     7553     TIP3     H2       HT       0.417000       1.00800           0
     62056 TIP3     7554     TIP3     OH2      OT      -0.834000       15.9994           0
     62057 TIP3     7554     TIP3     H1       HT       0.417000       1.00800           0
     62058 TIP3     7554     TIP3     H2       HT       0.417000       1.00800           0
     62059 TIP3     7555     TIP3     OH2      OT      -0.834000       15.9994           0
     62060 TIP3     7555     TIP3     H1       HT       0.417000       1.00800           0
     62061 TIP3     7555     TIP3     H2       HT       0.417000       1.00800           0
     62062 TIP3     7556     TIP3     OH2      OT      -0.834000       15.9994           0
     62063 TIP3     7556     TIP3     H1       HT       0.417000       1.00800           0
     62064 TIP3     7556     TIP3     H2       HT       0.417000       1.00800           0
     62065 TIP3     7557     TIP3     OH2      OT      -0.834000       15.9994           0
     62066 TIP3     7557     TIP3     H1       HT       0.417000       1.00800           0
     62067 TIP3     7557     TIP3     H2       HT       0.417000       1.00800           0
     62068 TIP3     7558     TIP3     OH2      OT      -0.834000       15.9994           0
     62069 TIP3     7558     TIP3     H1       HT       0.417000       1.00800           0
     62070 TIP3     7558     TIP3     H2       HT       0.417000       1.00800           0
     62071 TIP3     7559     TIP3     OH2      OT      -0.834000       15.9994           0
     62072 TIP3     7559     TIP3     H1       HT       0.417000       1.00800           0
     62073 TIP3     7559     TIP3     H2       HT       0.417000       1.00800           0
     62074 TIP3     7560     TIP3     OH2      OT      -0.834000       15.9994           0
     62075 TIP3     7560     TIP3     H1       HT       0.417000       1.00800           0
     62076 TIP3     7560     TIP3     H2       HT       0.417000       1.00800           0
     62077 TIP3     7561     TIP3     OH2      OT      -0.834000       15.9994           0
     62078 TIP3     7561     TIP3     H1       HT       0.417000       1.00800           0
     62079 TIP3     7561     TIP3     H2       HT       0.417000       1.00800           0
     62080 TIP3     7562     TIP3     OH2      OT      -0.834000       15.9994           0
     62081 TIP3     7562     TIP3     H1       HT       0.417000       1.00800           0
     62082 TIP3     7562     TIP3     H2       HT       0.417000       1.00800           0
     62083 TIP3     7563     TIP3     OH2      OT      -0.834000       15.9994           0
     62084 TIP3     7563     TIP3     H1       HT       0.417000       1.00800           0
     62085 TIP3     7563     TIP3     H2       HT       0.417000       1.00800           0
     62086 TIP3     7564     TIP3     OH2      OT      -0.834000       15.9994           0
     62087 TIP3     7564     TIP3     H1       HT       0.417000       1.00800           0
     62088 TIP3     7564     TIP3     H2       HT       0.417000       1.00800           0
     62089 TIP3     7565     TIP3     OH2      OT      -0.834000       15.9994           0
     62090 TIP3     7565     TIP3     H1       HT       0.417000       1.00800           0
     62091 TIP3     7565     TIP3     H2       HT       0.417000       1.00800           0
     62092 TIP3     7566     TIP3     OH2      OT      -0.834000       15.9994           0
     62093 TIP3     7566     TIP3     H1       HT       0.417000       1.00800           0
     62094 TIP3     7566     TIP3     H2       HT       0.417000       1.00800           0
     62095 TIP3     7567     TIP3     OH2      OT      -0.834000       15.9994           0
     62096 TIP3     7567     TIP3     H1       HT       0.417000       1.00800           0
     62097 TIP3     7567     TIP3     H2       HT       0.417000       1.00800           0
     62098 TIP3     7568     TIP3     OH2      OT      -0.834000       15.9994           0
     62099 TIP3     7568     TIP3     H1       HT       0.417000       1.00800           0
     62100 TIP3     7568     TIP3     H2       HT       0.417000       1.00800           0
     62101 TIP3     7569     TIP3     OH2      OT      -0.834000       15.9994           0
     62102 TIP3     7569     TIP3     H1       HT       0.417000       1.00800           0
     62103 TIP3     7569     TIP3     H2       HT       0.417000       1.00800           0
     62104 TIP3     7570     TIP3     OH2      OT      -0.834000       15.9994           0
     62105 TIP3     7570     TIP3     H1       HT       0.417000       1.00800           0
     62106 TIP3     7570     TIP3     H2       HT       0.417000       1.00800           0
     62107 TIP3     7571     TIP3     OH2      OT      -0.834000       15.9994           0
     62108 TIP3     7571     TIP3     H1       HT       0.417000       1.00800           0
     62109 TIP3     7571     TIP3     H2       HT       0.417000       1.00800           0
     62110 TIP3     7572     TIP3     OH2      OT      -0.834000       15.9994           0
     62111 TIP3     7572     TIP3     H1       HT       0.417000       1.00800           0
     62112 TIP3     7572     TIP3     H2       HT       0.417000       1.00800           0
     62113 TIP3     7573     TIP3     OH2      OT      -0.834000       15.9994           0
     62114 TIP3     7573     TIP3     H1       HT       0.417000       1.00800           0
     62115 TIP3     7573     TIP3     H2       HT       0.417000       1.00800           0
     62116 TIP3     7574     TIP3     OH2      OT      -0.834000       15.9994           0
     62117 TIP3     7574     TIP3     H1       HT       0.417000       1.00800           0
     62118 TIP3     7574     TIP3     H2       HT       0.417000       1.00800           0
     62119 TIP3     7575     TIP3     OH2      OT      -0.834000       15.9994           0
     62120 TIP3     7575     TIP3     H1       HT       0.417000       1.00800           0
     62121 TIP3     7575     TIP3     H2       HT       0.417000       1.00800           0
     62122 TIP3     7576     TIP3     OH2      OT      -0.834000       15.9994           0
     62123 TIP3     7576     TIP3     H1       HT       0.417000       1.00800           0
     62124 TIP3     7576     TIP3     H2       HT       0.417000       1.00800           0
     62125 TIP3     7577     TIP3     OH2      OT      -0.834000       15.9994           0
     62126 TIP3     7577     TIP3     H1       HT       0.417000       1.00800           0
     62127 TIP3     7577     TIP3     H2       HT       0.417000       1.00800           0
     62128 TIP3     7578     TIP3     OH2      OT      -0.834000       15.9994           0
     62129 TIP3     7578     TIP3     H1       HT       0.417000       1.00800           0
     62130 TIP3     7578     TIP3     H2       HT       0.417000       1.00800           0
     62131 TIP3     7579     TIP3     OH2      OT      -0.834000       15.9994           0
     62132 TIP3     7579     TIP3     H1       HT       0.417000       1.00800           0
     62133 TIP3     7579     TIP3     H2       HT       0.417000       1.00800           0
     62134 TIP3     7580     TIP3     OH2      OT      -0.834000       15.9994           0
     62135 TIP3     7580     TIP3     H1       HT       0.417000       1.00800           0
     62136 TIP3     7580     TIP3     H2       HT       0.417000       1.00800           0
     62137 TIP3     7581     TIP3     OH2      OT      -0.834000       15.9994           0
     62138 TIP3     7581     TIP3     H1       HT       0.417000       1.00800           0
     62139 TIP3     7581     TIP3     H2       HT       0.417000       1.00800           0
     62140 TIP3     7582     TIP3     OH2      OT      -0.834000       15.9994           0
     62141 TIP3     7582     TIP3     H1       HT       0.417000       1.00800           0
     62142 TIP3     7582     TIP3     H2       HT       0.417000       1.00800           0
     62143 TIP3     7583     TIP3     OH2      OT      -0.834000       15.9994           0
     62144 TIP3     7583     TIP3     H1       HT       0.417000       1.00800           0
     62145 TIP3     7583     TIP3     H2       HT       0.417000       1.00800           0
     62146 TIP3     7584     TIP3     OH2      OT      -0.834000       15.9994           0
     62147 TIP3     7584     TIP3     H1       HT       0.417000       1.00800           0
     62148 TIP3     7584     TIP3     H2       HT       0.417000       1.00800           0
     62149 TIP3     7585     TIP3     OH2      OT      -0.834000       15.9994           0
     62150 TIP3     7585     TIP3     H1       HT       0.417000       1.00800           0
     62151 TIP3     7585     TIP3     H2       HT       0.417000       1.00800           0
     62152 TIP3     7586     TIP3     OH2      OT      -0.834000       15.9994           0
     62153 TIP3     7586     TIP3     H1       HT       0.417000       1.00800           0
     62154 TIP3     7586     TIP3     H2       HT       0.417000       1.00800           0
     62155 TIP3     7587     TIP3     OH2      OT      -0.834000       15.9994           0
     62156 TIP3     7587     TIP3     H1       HT       0.417000       1.00800           0
     62157 TIP3     7587     TIP3     H2       HT       0.417000       1.00800           0
     62158 TIP3     7588     TIP3     OH2      OT      -0.834000       15.9994           0
     62159 TIP3     7588     TIP3     H1       HT       0.417000       1.00800           0
     62160 TIP3     7588     TIP3     H2       HT       0.417000       1.00800           0
     62161 TIP3     7589     TIP3     OH2      OT      -0.834000       15.9994           0
     62162 TIP3     7589     TIP3     H1       HT       0.417000       1.00800           0
     62163 TIP3     7589     TIP3     H2       HT       0.417000       1.00800           0
     62164 TIP3     7590     TIP3     OH2      OT      -0.834000       15.9994           0
     62165 TIP3     7590     TIP3     H1       HT       0.417000       1.00800           0
     62166 TIP3     7590     TIP3     H2       HT       0.417000       1.00800           0
     62167 TIP3     7591     TIP3     OH2      OT      -0.834000       15.9994           0
     62168 TIP3     7591     TIP3     H1       HT       0.417000       1.00800           0
     62169 TIP3     7591     TIP3     H2       HT       0.417000       1.00800           0
     62170 TIP3     7592     TIP3     OH2      OT      -0.834000       15.9994           0
     62171 TIP3     7592     TIP3     H1       HT       0.417000       1.00800           0
     62172 TIP3     7592     TIP3     H2       HT       0.417000       1.00800           0
     62173 TIP3     7593     TIP3     OH2      OT      -0.834000       15.9994           0
     62174 TIP3     7593     TIP3     H1       HT       0.417000       1.00800           0
     62175 TIP3     7593     TIP3     H2       HT       0.417000       1.00800           0
     62176 TIP3     7594     TIP3     OH2      OT      -0.834000       15.9994           0
     62177 TIP3     7594     TIP3     H1       HT       0.417000       1.00800           0
     62178 TIP3     7594     TIP3     H2       HT       0.417000       1.00800           0
     62179 TIP3     7595     TIP3     OH2      OT      -0.834000       15.9994           0
     62180 TIP3     7595     TIP3     H1       HT       0.417000       1.00800           0
     62181 TIP3     7595     TIP3     H2       HT       0.417000       1.00800           0
     62182 TIP3     7596     TIP3     OH2      OT      -0.834000       15.9994           0
     62183 TIP3     7596     TIP3     H1       HT       0.417000       1.00800           0
     62184 TIP3     7596     TIP3     H2       HT       0.417000       1.00800           0
     62185 TIP3     7597     TIP3     OH2      OT      -0.834000       15.9994           0
     62186 TIP3     7597     TIP3     H1       HT       0.417000       1.00800           0
     62187 TIP3     7597     TIP3     H2       HT       0.417000       1.00800           0
     62188 TIP3     7598     TIP3     OH2      OT      -0.834000       15.9994           0
     62189 TIP3     7598     TIP3     H1       HT       0.417000       1.00800           0
     62190 TIP3     7598     TIP3     H2       HT       0.417000       1.00800           0
     62191 TIP3     7599     TIP3     OH2      OT      -0.834000       15.9994           0
     62192 TIP3     7599     TIP3     H1       HT       0.417000       1.00800           0
     62193 TIP3     7599     TIP3     H2       HT       0.417000       1.00800           0
     62194 TIP3     7600     TIP3     OH2      OT      -0.834000       15.9994           0
     62195 TIP3     7600     TIP3     H1       HT       0.417000       1.00800           0
     62196 TIP3     7600     TIP3     H2       HT       0.417000       1.00800           0
     62197 TIP3     7601     TIP3     OH2      OT      -0.834000       15.9994           0
     62198 TIP3     7601     TIP3     H1       HT       0.417000       1.00800           0
     62199 TIP3     7601     TIP3     H2       HT       0.417000       1.00800           0
     62200 TIP3     7602     TIP3     OH2      OT      -0.834000       15.9994           0
     62201 TIP3     7602     TIP3     H1       HT       0.417000       1.00800           0
     62202 TIP3     7602     TIP3     H2       HT       0.417000       1.00800           0
     62203 TIP3     7603     TIP3     OH2      OT      -0.834000       15.9994           0
     62204 TIP3     7603     TIP3     H1       HT       0.417000       1.00800           0
     62205 TIP3     7603     TIP3     H2       HT       0.417000       1.00800           0
     62206 TIP3     7604     TIP3     OH2      OT      -0.834000       15.9994           0
     62207 TIP3     7604     TIP3     H1       HT       0.417000       1.00800           0
     62208 TIP3     7604     TIP3     H2       HT       0.417000       1.00800           0
     62209 TIP3     7605     TIP3     OH2      OT      -0.834000       15.9994           0
     62210 TIP3     7605     TIP3     H1       HT       0.417000       1.00800           0
     62211 TIP3     7605     TIP3     H2       HT       0.417000       1.00800           0
     62212 TIP3     7606     TIP3     OH2      OT      -0.834000       15.9994           0
     62213 TIP3     7606     TIP3     H1       HT       0.417000       1.00800           0
     62214 TIP3     7606     TIP3     H2       HT       0.417000       1.00800           0
     62215 TIP3     7607     TIP3     OH2      OT      -0.834000       15.9994           0
     62216 TIP3     7607     TIP3     H1       HT       0.417000       1.00800           0
     62217 TIP3     7607     TIP3     H2       HT       0.417000       1.00800           0
     62218 TIP3     7608     TIP3     OH2      OT      -0.834000       15.9994           0
     62219 TIP3     7608     TIP3     H1       HT       0.417000       1.00800           0
     62220 TIP3     7608     TIP3     H2       HT       0.417000       1.00800           0
     62221 TIP3     7609     TIP3     OH2      OT      -0.834000       15.9994           0
     62222 TIP3     7609     TIP3     H1       HT       0.417000       1.00800           0
     62223 TIP3     7609     TIP3     H2       HT       0.417000       1.00800           0
     62224 TIP3     7610     TIP3     OH2      OT      -0.834000       15.9994           0
     62225 TIP3     7610     TIP3     H1       HT       0.417000       1.00800           0
     62226 TIP3     7610     TIP3     H2       HT       0.417000       1.00800           0
     62227 TIP3     7611     TIP3     OH2      OT      -0.834000       15.9994           0
     62228 TIP3     7611     TIP3     H1       HT       0.417000       1.00800           0
     62229 TIP3     7611     TIP3     H2       HT       0.417000       1.00800           0
     62230 TIP3     7612     TIP3     OH2      OT      -0.834000       15.9994           0
     62231 TIP3     7612     TIP3     H1       HT       0.417000       1.00800           0
     62232 TIP3     7612     TIP3     H2       HT       0.417000       1.00800           0
     62233 TIP3     7613     TIP3     OH2      OT      -0.834000       15.9994           0
     62234 TIP3     7613     TIP3     H1       HT       0.417000       1.00800           0
     62235 TIP3     7613     TIP3     H2       HT       0.417000       1.00800           0
     62236 TIP3     7614     TIP3     OH2      OT      -0.834000       15.9994           0
     62237 TIP3     7614     TIP3     H1       HT       0.417000       1.00800           0
     62238 TIP3     7614     TIP3     H2       HT       0.417000       1.00800           0
     62239 TIP3     7615     TIP3     OH2      OT      -0.834000       15.9994           0
     62240 TIP3     7615     TIP3     H1       HT       0.417000       1.00800           0
     62241 TIP3     7615     TIP3     H2       HT       0.417000       1.00800           0
     62242 TIP3     7616     TIP3     OH2      OT      -0.834000       15.9994           0
     62243 TIP3     7616     TIP3     H1       HT       0.417000       1.00800           0
     62244 TIP3     7616     TIP3     H2       HT       0.417000       1.00800           0
     62245 TIP3     7617     TIP3     OH2      OT      -0.834000       15.9994           0
     62246 TIP3     7617     TIP3     H1       HT       0.417000       1.00800           0
     62247 TIP3     7617     TIP3     H2       HT       0.417000       1.00800           0
     62248 TIP3     7618     TIP3     OH2      OT      -0.834000       15.9994           0
     62249 TIP3     7618     TIP3     H1       HT       0.417000       1.00800           0
     62250 TIP3     7618     TIP3     H2       HT       0.417000       1.00800           0
     62251 TIP3     7619     TIP3     OH2      OT      -0.834000       15.9994           0
     62252 TIP3     7619     TIP3     H1       HT       0.417000       1.00800           0
     62253 TIP3     7619     TIP3     H2       HT       0.417000       1.00800           0
     62254 TIP3     7620     TIP3     OH2      OT      -0.834000       15.9994           0
     62255 TIP3     7620     TIP3     H1       HT       0.417000       1.00800           0
     62256 TIP3     7620     TIP3     H2       HT       0.417000       1.00800           0
     62257 TIP3     7621     TIP3     OH2      OT      -0.834000       15.9994           0
     62258 TIP3     7621     TIP3     H1       HT       0.417000       1.00800           0
     62259 TIP3     7621     TIP3     H2       HT       0.417000       1.00800           0
     62260 TIP3     7622     TIP3     OH2      OT      -0.834000       15.9994           0
     62261 TIP3     7622     TIP3     H1       HT       0.417000       1.00800           0
     62262 TIP3     7622     TIP3     H2       HT       0.417000       1.00800           0
     62263 TIP3     7623     TIP3     OH2      OT      -0.834000       15.9994           0
     62264 TIP3     7623     TIP3     H1       HT       0.417000       1.00800           0
     62265 TIP3     7623     TIP3     H2       HT       0.417000       1.00800           0
     62266 TIP3     7624     TIP3     OH2      OT      -0.834000       15.9994           0
     62267 TIP3     7624     TIP3     H1       HT       0.417000       1.00800           0
     62268 TIP3     7624     TIP3     H2       HT       0.417000       1.00800           0
     62269 TIP3     7625     TIP3     OH2      OT      -0.834000       15.9994           0
     62270 TIP3     7625     TIP3     H1       HT       0.417000       1.00800           0
     62271 TIP3     7625     TIP3     H2       HT       0.417000       1.00800           0
     62272 TIP3     7626     TIP3     OH2      OT      -0.834000       15.9994           0
     62273 TIP3     7626     TIP3     H1       HT       0.417000       1.00800           0
     62274 TIP3     7626     TIP3     H2       HT       0.417000       1.00800           0
     62275 TIP3     7627     TIP3     OH2      OT      -0.834000       15.9994           0
     62276 TIP3     7627     TIP3     H1       HT       0.417000       1.00800           0
     62277 TIP3     7627     TIP3     H2       HT       0.417000       1.00800           0
     62278 TIP3     7628     TIP3     OH2      OT      -0.834000       15.9994           0
     62279 TIP3     7628     TIP3     H1       HT       0.417000       1.00800           0
     62280 TIP3     7628     TIP3     H2       HT       0.417000       1.00800           0
     62281 TIP3     7629     TIP3     OH2      OT      -0.834000       15.9994           0
     62282 TIP3     7629     TIP3     H1       HT       0.417000       1.00800           0
     62283 TIP3     7629     TIP3     H2       HT       0.417000       1.00800           0
     62284 TIP3     7630     TIP3     OH2      OT      -0.834000       15.9994           0
     62285 TIP3     7630     TIP3     H1       HT       0.417000       1.00800           0
     62286 TIP3     7630     TIP3     H2       HT       0.417000       1.00800           0
     62287 TIP3     7631     TIP3     OH2      OT      -0.834000       15.9994           0
     62288 TIP3     7631     TIP3     H1       HT       0.417000       1.00800           0
     62289 TIP3     7631     TIP3     H2       HT       0.417000       1.00800           0
     62290 TIP3     7632     TIP3     OH2      OT      -0.834000       15.9994           0
     62291 TIP3     7632     TIP3     H1       HT       0.417000       1.00800           0
     62292 TIP3     7632     TIP3     H2       HT       0.417000       1.00800           0
     62293 TIP3     7633     TIP3     OH2      OT      -0.834000       15.9994           0
     62294 TIP3     7633     TIP3     H1       HT       0.417000       1.00800           0
     62295 TIP3     7633     TIP3     H2       HT       0.417000       1.00800           0
     62296 TIP3     7634     TIP3     OH2      OT      -0.834000       15.9994           0
     62297 TIP3     7634     TIP3     H1       HT       0.417000       1.00800           0
     62298 TIP3     7634     TIP3     H2       HT       0.417000       1.00800           0
     62299 TIP3     7635     TIP3     OH2      OT      -0.834000       15.9994           0
     62300 TIP3     7635     TIP3     H1       HT       0.417000       1.00800           0
     62301 TIP3     7635     TIP3     H2       HT       0.417000       1.00800           0
     62302 TIP3     7636     TIP3     OH2      OT      -0.834000       15.9994           0
     62303 TIP3     7636     TIP3     H1       HT       0.417000       1.00800           0
     62304 TIP3     7636     TIP3     H2       HT       0.417000       1.00800           0
     62305 TIP3     7637     TIP3     OH2      OT      -0.834000       15.9994           0
     62306 TIP3     7637     TIP3     H1       HT       0.417000       1.00800           0
     62307 TIP3     7637     TIP3     H2       HT       0.417000       1.00800           0
     62308 TIP3     7638     TIP3     OH2      OT      -0.834000       15.9994           0
     62309 TIP3     7638     TIP3     H1       HT       0.417000       1.00800           0
     62310 TIP3     7638     TIP3     H2       HT       0.417000       1.00800           0
     62311 TIP3     7639     TIP3     OH2      OT      -0.834000       15.9994           0
     62312 TIP3     7639     TIP3     H1       HT       0.417000       1.00800           0
     62313 TIP3     7639     TIP3     H2       HT       0.417000       1.00800           0
     62314 TIP3     7640     TIP3     OH2      OT      -0.834000       15.9994           0
     62315 TIP3     7640     TIP3     H1       HT       0.417000       1.00800           0
     62316 TIP3     7640     TIP3     H2       HT       0.417000       1.00800           0
     62317 TIP3     7641     TIP3     OH2      OT      -0.834000       15.9994           0
     62318 TIP3     7641     TIP3     H1       HT       0.417000       1.00800           0
     62319 TIP3     7641     TIP3     H2       HT       0.417000       1.00800           0
     62320 TIP3     7642     TIP3     OH2      OT      -0.834000       15.9994           0
     62321 TIP3     7642     TIP3     H1       HT       0.417000       1.00800           0
     62322 TIP3     7642     TIP3     H2       HT       0.417000       1.00800           0
     62323 TIP3     7643     TIP3     OH2      OT      -0.834000       15.9994           0
     62324 TIP3     7643     TIP3     H1       HT       0.417000       1.00800           0
     62325 TIP3     7643     TIP3     H2       HT       0.417000       1.00800           0
     62326 TIP3     7644     TIP3     OH2      OT      -0.834000       15.9994           0
     62327 TIP3     7644     TIP3     H1       HT       0.417000       1.00800           0
     62328 TIP3     7644     TIP3     H2       HT       0.417000       1.00800           0
     62329 TIP3     7645     TIP3     OH2      OT      -0.834000       15.9994           0
     62330 TIP3     7645     TIP3     H1       HT       0.417000       1.00800           0
     62331 TIP3     7645     TIP3     H2       HT       0.417000       1.00800           0
     62332 TIP3     7646     TIP3     OH2      OT      -0.834000       15.9994           0
     62333 TIP3     7646     TIP3     H1       HT       0.417000       1.00800           0
     62334 TIP3     7646     TIP3     H2       HT       0.417000       1.00800           0
     62335 TIP3     7647     TIP3     OH2      OT      -0.834000       15.9994           0
     62336 TIP3     7647     TIP3     H1       HT       0.417000       1.00800           0
     62337 TIP3     7647     TIP3     H2       HT       0.417000       1.00800           0
     62338 TIP3     7648     TIP3     OH2      OT      -0.834000       15.9994           0
     62339 TIP3     7648     TIP3     H1       HT       0.417000       1.00800           0
     62340 TIP3     7648     TIP3     H2       HT       0.417000       1.00800           0
     62341 TIP3     7649     TIP3     OH2      OT      -0.834000       15.9994           0
     62342 TIP3     7649     TIP3     H1       HT       0.417000       1.00800           0
     62343 TIP3     7649     TIP3     H2       HT       0.417000       1.00800           0
     62344 TIP3     7650     TIP3     OH2      OT      -0.834000       15.9994           0
     62345 TIP3     7650     TIP3     H1       HT       0.417000       1.00800           0
     62346 TIP3     7650     TIP3     H2       HT       0.417000       1.00800           0
     62347 TIP3     7651     TIP3     OH2      OT      -0.834000       15.9994           0
     62348 TIP3     7651     TIP3     H1       HT       0.417000       1.00800           0
     62349 TIP3     7651     TIP3     H2       HT       0.417000       1.00800           0
     62350 TIP3     7652     TIP3     OH2      OT      -0.834000       15.9994           0
     62351 TIP3     7652     TIP3     H1       HT       0.417000       1.00800           0
     62352 TIP3     7652     TIP3     H2       HT       0.417000       1.00800           0
     62353 TIP3     7653     TIP3     OH2      OT      -0.834000       15.9994           0
     62354 TIP3     7653     TIP3     H1       HT       0.417000       1.00800           0
     62355 TIP3     7653     TIP3     H2       HT       0.417000       1.00800           0
     62356 TIP3     7654     TIP3     OH2      OT      -0.834000       15.9994           0
     62357 TIP3     7654     TIP3     H1       HT       0.417000       1.00800           0
     62358 TIP3     7654     TIP3     H2       HT       0.417000       1.00800           0
     62359 TIP3     7655     TIP3     OH2      OT      -0.834000       15.9994           0
     62360 TIP3     7655     TIP3     H1       HT       0.417000       1.00800           0
     62361 TIP3     7655     TIP3     H2       HT       0.417000       1.00800           0
     62362 TIP3     7656     TIP3     OH2      OT      -0.834000       15.9994           0
     62363 TIP3     7656     TIP3     H1       HT       0.417000       1.00800           0
     62364 TIP3     7656     TIP3     H2       HT       0.417000       1.00800           0
     62365 TIP3     7657     TIP3     OH2      OT      -0.834000       15.9994           0
     62366 TIP3     7657     TIP3     H1       HT       0.417000       1.00800           0
     62367 TIP3     7657     TIP3     H2       HT       0.417000       1.00800           0
     62368 TIP3     7658     TIP3     OH2      OT      -0.834000       15.9994           0
     62369 TIP3     7658     TIP3     H1       HT       0.417000       1.00800           0
     62370 TIP3     7658     TIP3     H2       HT       0.417000       1.00800           0
     62371 TIP3     7659     TIP3     OH2      OT      -0.834000       15.9994           0
     62372 TIP3     7659     TIP3     H1       HT       0.417000       1.00800           0
     62373 TIP3     7659     TIP3     H2       HT       0.417000       1.00800           0
     62374 TIP3     7660     TIP3     OH2      OT      -0.834000       15.9994           0
     62375 TIP3     7660     TIP3     H1       HT       0.417000       1.00800           0
     62376 TIP3     7660     TIP3     H2       HT       0.417000       1.00800           0
     62377 TIP3     7661     TIP3     OH2      OT      -0.834000       15.9994           0
     62378 TIP3     7661     TIP3     H1       HT       0.417000       1.00800           0
     62379 TIP3     7661     TIP3     H2       HT       0.417000       1.00800           0
     62380 TIP3     7662     TIP3     OH2      OT      -0.834000       15.9994           0
     62381 TIP3     7662     TIP3     H1       HT       0.417000       1.00800           0
     62382 TIP3     7662     TIP3     H2       HT       0.417000       1.00800           0
     62383 TIP3     7663     TIP3     OH2      OT      -0.834000       15.9994           0
     62384 TIP3     7663     TIP3     H1       HT       0.417000       1.00800           0
     62385 TIP3     7663     TIP3     H2       HT       0.417000       1.00800           0
     62386 TIP3     7664     TIP3     OH2      OT      -0.834000       15.9994           0
     62387 TIP3     7664     TIP3     H1       HT       0.417000       1.00800           0
     62388 TIP3     7664     TIP3     H2       HT       0.417000       1.00800           0
     62389 TIP3     7665     TIP3     OH2      OT      -0.834000       15.9994           0
     62390 TIP3     7665     TIP3     H1       HT       0.417000       1.00800           0
     62391 TIP3     7665     TIP3     H2       HT       0.417000       1.00800           0
     62392 TIP3     7666     TIP3     OH2      OT      -0.834000       15.9994           0
     62393 TIP3     7666     TIP3     H1       HT       0.417000       1.00800           0
     62394 TIP3     7666     TIP3     H2       HT       0.417000       1.00800           0
     62395 TIP3     7667     TIP3     OH2      OT      -0.834000       15.9994           0
     62396 TIP3     7667     TIP3     H1       HT       0.417000       1.00800           0
     62397 TIP3     7667     TIP3     H2       HT       0.417000       1.00800           0
     62398 TIP3     7668     TIP3     OH2      OT      -0.834000       15.9994           0
     62399 TIP3     7668     TIP3     H1       HT       0.417000       1.00800           0
     62400 TIP3     7668     TIP3     H2       HT       0.417000       1.00800           0
     62401 TIP3     7669     TIP3     OH2      OT      -0.834000       15.9994           0
     62402 TIP3     7669     TIP3     H1       HT       0.417000       1.00800           0
     62403 TIP3     7669     TIP3     H2       HT       0.417000       1.00800           0
     62404 TIP3     7670     TIP3     OH2      OT      -0.834000       15.9994           0
     62405 TIP3     7670     TIP3     H1       HT       0.417000       1.00800           0
     62406 TIP3     7670     TIP3     H2       HT       0.417000       1.00800           0
     62407 TIP3     7671     TIP3     OH2      OT      -0.834000       15.9994           0
     62408 TIP3     7671     TIP3     H1       HT       0.417000       1.00800           0
     62409 TIP3     7671     TIP3     H2       HT       0.417000       1.00800           0
     62410 TIP3     7672     TIP3     OH2      OT      -0.834000       15.9994           0
     62411 TIP3     7672     TIP3     H1       HT       0.417000       1.00800           0
     62412 TIP3     7672     TIP3     H2       HT       0.417000       1.00800           0
     62413 TIP3     7673     TIP3     OH2      OT      -0.834000       15.9994           0
     62414 TIP3     7673     TIP3     H1       HT       0.417000       1.00800           0
     62415 TIP3     7673     TIP3     H2       HT       0.417000       1.00800           0
     62416 TIP3     7674     TIP3     OH2      OT      -0.834000       15.9994           0
     62417 TIP3     7674     TIP3     H1       HT       0.417000       1.00800           0
     62418 TIP3     7674     TIP3     H2       HT       0.417000       1.00800           0
     62419 TIP3     7675     TIP3     OH2      OT      -0.834000       15.9994           0
     62420 TIP3     7675     TIP3     H1       HT       0.417000       1.00800           0
     62421 TIP3     7675     TIP3     H2       HT       0.417000       1.00800           0
     62422 TIP3     7676     TIP3     OH2      OT      -0.834000       15.9994           0
     62423 TIP3     7676     TIP3     H1       HT       0.417000       1.00800           0
     62424 TIP3     7676     TIP3     H2       HT       0.417000       1.00800           0
     62425 TIP3     7677     TIP3     OH2      OT      -0.834000       15.9994           0
     62426 TIP3     7677     TIP3     H1       HT       0.417000       1.00800           0
     62427 TIP3     7677     TIP3     H2       HT       0.417000       1.00800           0
     62428 TIP3     7678     TIP3     OH2      OT      -0.834000       15.9994           0
     62429 TIP3     7678     TIP3     H1       HT       0.417000       1.00800           0
     62430 TIP3     7678     TIP3     H2       HT       0.417000       1.00800           0
     62431 TIP3     7679     TIP3     OH2      OT      -0.834000       15.9994           0
     62432 TIP3     7679     TIP3     H1       HT       0.417000       1.00800           0
     62433 TIP3     7679     TIP3     H2       HT       0.417000       1.00800           0
     62434 TIP3     7680     TIP3     OH2      OT      -0.834000       15.9994           0
     62435 TIP3     7680     TIP3     H1       HT       0.417000       1.00800           0
     62436 TIP3     7680     TIP3     H2       HT       0.417000       1.00800           0
     62437 TIP3     7681     TIP3     OH2      OT      -0.834000       15.9994           0
     62438 TIP3     7681     TIP3     H1       HT       0.417000       1.00800           0
     62439 TIP3     7681     TIP3     H2       HT       0.417000       1.00800           0
     62440 TIP3     7682     TIP3     OH2      OT      -0.834000       15.9994           0
     62441 TIP3     7682     TIP3     H1       HT       0.417000       1.00800           0
     62442 TIP3     7682     TIP3     H2       HT       0.417000       1.00800           0
     62443 TIP3     7683     TIP3     OH2      OT      -0.834000       15.9994           0
     62444 TIP3     7683     TIP3     H1       HT       0.417000       1.00800           0
     62445 TIP3     7683     TIP3     H2       HT       0.417000       1.00800           0
     62446 TIP3     7684     TIP3     OH2      OT      -0.834000       15.9994           0
     62447 TIP3     7684     TIP3     H1       HT       0.417000       1.00800           0
     62448 TIP3     7684     TIP3     H2       HT       0.417000       1.00800           0
     62449 TIP3     7685     TIP3     OH2      OT      -0.834000       15.9994           0
     62450 TIP3     7685     TIP3     H1       HT       0.417000       1.00800           0
     62451 TIP3     7685     TIP3     H2       HT       0.417000       1.00800           0
     62452 TIP3     7686     TIP3     OH2      OT      -0.834000       15.9994           0
     62453 TIP3     7686     TIP3     H1       HT       0.417000       1.00800           0
     62454 TIP3     7686     TIP3     H2       HT       0.417000       1.00800           0
     62455 TIP3     7687     TIP3     OH2      OT      -0.834000       15.9994           0
     62456 TIP3     7687     TIP3     H1       HT       0.417000       1.00800           0
     62457 TIP3     7687     TIP3     H2       HT       0.417000       1.00800           0
     62458 TIP3     7688     TIP3     OH2      OT      -0.834000       15.9994           0
     62459 TIP3     7688     TIP3     H1       HT       0.417000       1.00800           0
     62460 TIP3     7688     TIP3     H2       HT       0.417000       1.00800           0
     62461 TIP3     7689     TIP3     OH2      OT      -0.834000       15.9994           0
     62462 TIP3     7689     TIP3     H1       HT       0.417000       1.00800           0
     62463 TIP3     7689     TIP3     H2       HT       0.417000       1.00800           0
     62464 TIP3     7690     TIP3     OH2      OT      -0.834000       15.9994           0
     62465 TIP3     7690     TIP3     H1       HT       0.417000       1.00800           0
     62466 TIP3     7690     TIP3     H2       HT       0.417000       1.00800           0
     62467 TIP3     7691     TIP3     OH2      OT      -0.834000       15.9994           0
     62468 TIP3     7691     TIP3     H1       HT       0.417000       1.00800           0
     62469 TIP3     7691     TIP3     H2       HT       0.417000       1.00800           0
     62470 TIP3     7692     TIP3     OH2      OT      -0.834000       15.9994           0
     62471 TIP3     7692     TIP3     H1       HT       0.417000       1.00800           0
     62472 TIP3     7692     TIP3     H2       HT       0.417000       1.00800           0
     62473 TIP3     7693     TIP3     OH2      OT      -0.834000       15.9994           0
     62474 TIP3     7693     TIP3     H1       HT       0.417000       1.00800           0
     62475 TIP3     7693     TIP3     H2       HT       0.417000       1.00800           0
     62476 TIP3     7694     TIP3     OH2      OT      -0.834000       15.9994           0
     62477 TIP3     7694     TIP3     H1       HT       0.417000       1.00800           0
     62478 TIP3     7694     TIP3     H2       HT       0.417000       1.00800           0
     62479 TIP3     7695     TIP3     OH2      OT      -0.834000       15.9994           0
     62480 TIP3     7695     TIP3     H1       HT       0.417000       1.00800           0
     62481 TIP3     7695     TIP3     H2       HT       0.417000       1.00800           0
     62482 TIP3     7696     TIP3     OH2      OT      -0.834000       15.9994           0
     62483 TIP3     7696     TIP3     H1       HT       0.417000       1.00800           0
     62484 TIP3     7696     TIP3     H2       HT       0.417000       1.00800           0
     62485 TIP3     7697     TIP3     OH2      OT      -0.834000       15.9994           0
     62486 TIP3     7697     TIP3     H1       HT       0.417000       1.00800           0
     62487 TIP3     7697     TIP3     H2       HT       0.417000       1.00800           0
     62488 TIP3     7698     TIP3     OH2      OT      -0.834000       15.9994           0
     62489 TIP3     7698     TIP3     H1       HT       0.417000       1.00800           0
     62490 TIP3     7698     TIP3     H2       HT       0.417000       1.00800           0
     62491 TIP3     7699     TIP3     OH2      OT      -0.834000       15.9994           0
     62492 TIP3     7699     TIP3     H1       HT       0.417000       1.00800           0
     62493 TIP3     7699     TIP3     H2       HT       0.417000       1.00800           0
     62494 TIP3     7700     TIP3     OH2      OT      -0.834000       15.9994           0
     62495 TIP3     7700     TIP3     H1       HT       0.417000       1.00800           0
     62496 TIP3     7700     TIP3     H2       HT       0.417000       1.00800           0
     62497 TIP3     7701     TIP3     OH2      OT      -0.834000       15.9994           0
     62498 TIP3     7701     TIP3     H1       HT       0.417000       1.00800           0
     62499 TIP3     7701     TIP3     H2       HT       0.417000       1.00800           0
     62500 TIP3     7702     TIP3     OH2      OT      -0.834000       15.9994           0
     62501 TIP3     7702     TIP3     H1       HT       0.417000       1.00800           0
     62502 TIP3     7702     TIP3     H2       HT       0.417000       1.00800           0
     62503 TIP3     7703     TIP3     OH2      OT      -0.834000       15.9994           0
     62504 TIP3     7703     TIP3     H1       HT       0.417000       1.00800           0
     62505 TIP3     7703     TIP3     H2       HT       0.417000       1.00800           0
     62506 TIP3     7704     TIP3     OH2      OT      -0.834000       15.9994           0
     62507 TIP3     7704     TIP3     H1       HT       0.417000       1.00800           0
     62508 TIP3     7704     TIP3     H2       HT       0.417000       1.00800           0
     62509 TIP3     7705     TIP3     OH2      OT      -0.834000       15.9994           0
     62510 TIP3     7705     TIP3     H1       HT       0.417000       1.00800           0
     62511 TIP3     7705     TIP3     H2       HT       0.417000       1.00800           0
     62512 TIP3     7706     TIP3     OH2      OT      -0.834000       15.9994           0
     62513 TIP3     7706     TIP3     H1       HT       0.417000       1.00800           0
     62514 TIP3     7706     TIP3     H2       HT       0.417000       1.00800           0
     62515 TIP3     7707     TIP3     OH2      OT      -0.834000       15.9994           0
     62516 TIP3     7707     TIP3     H1       HT       0.417000       1.00800           0
     62517 TIP3     7707     TIP3     H2       HT       0.417000       1.00800           0
     62518 TIP3     7708     TIP3     OH2      OT      -0.834000       15.9994           0
     62519 TIP3     7708     TIP3     H1       HT       0.417000       1.00800           0
     62520 TIP3     7708     TIP3     H2       HT       0.417000       1.00800           0
     62521 TIP3     7709     TIP3     OH2      OT      -0.834000       15.9994           0
     62522 TIP3     7709     TIP3     H1       HT       0.417000       1.00800           0
     62523 TIP3     7709     TIP3     H2       HT       0.417000       1.00800           0
     62524 TIP3     7710     TIP3     OH2      OT      -0.834000       15.9994           0
     62525 TIP3     7710     TIP3     H1       HT       0.417000       1.00800           0
     62526 TIP3     7710     TIP3     H2       HT       0.417000       1.00800           0
     62527 TIP3     7711     TIP3     OH2      OT      -0.834000       15.9994           0
     62528 TIP3     7711     TIP3     H1       HT       0.417000       1.00800           0
     62529 TIP3     7711     TIP3     H2       HT       0.417000       1.00800           0
     62530 TIP3     7712     TIP3     OH2      OT      -0.834000       15.9994           0
     62531 TIP3     7712     TIP3     H1       HT       0.417000       1.00800           0
     62532 TIP3     7712     TIP3     H2       HT       0.417000       1.00800           0
     62533 TIP3     7713     TIP3     OH2      OT      -0.834000       15.9994           0
     62534 TIP3     7713     TIP3     H1       HT       0.417000       1.00800           0
     62535 TIP3     7713     TIP3     H2       HT       0.417000       1.00800           0
     62536 TIP3     7714     TIP3     OH2      OT      -0.834000       15.9994           0
     62537 TIP3     7714     TIP3     H1       HT       0.417000       1.00800           0
     62538 TIP3     7714     TIP3     H2       HT       0.417000       1.00800           0
     62539 TIP3     7715     TIP3     OH2      OT      -0.834000       15.9994           0
     62540 TIP3     7715     TIP3     H1       HT       0.417000       1.00800           0
     62541 TIP3     7715     TIP3     H2       HT       0.417000       1.00800           0
     62542 TIP3     7716     TIP3     OH2      OT      -0.834000       15.9994           0
     62543 TIP3     7716     TIP3     H1       HT       0.417000       1.00800           0
     62544 TIP3     7716     TIP3     H2       HT       0.417000       1.00800           0
     62545 TIP3     7717     TIP3     OH2      OT      -0.834000       15.9994           0
     62546 TIP3     7717     TIP3     H1       HT       0.417000       1.00800           0
     62547 TIP3     7717     TIP3     H2       HT       0.417000       1.00800           0
     62548 TIP3     7718     TIP3     OH2      OT      -0.834000       15.9994           0
     62549 TIP3     7718     TIP3     H1       HT       0.417000       1.00800           0
     62550 TIP3     7718     TIP3     H2       HT       0.417000       1.00800           0
     62551 TIP3     7719     TIP3     OH2      OT      -0.834000       15.9994           0
     62552 TIP3     7719     TIP3     H1       HT       0.417000       1.00800           0
     62553 TIP3     7719     TIP3     H2       HT       0.417000       1.00800           0
     62554 TIP3     7720     TIP3     OH2      OT      -0.834000       15.9994           0
     62555 TIP3     7720     TIP3     H1       HT       0.417000       1.00800           0
     62556 TIP3     7720     TIP3     H2       HT       0.417000       1.00800           0
     62557 TIP3     7721     TIP3     OH2      OT      -0.834000       15.9994           0
     62558 TIP3     7721     TIP3     H1       HT       0.417000       1.00800           0
     62559 TIP3     7721     TIP3     H2       HT       0.417000       1.00800           0
     62560 TIP3     7722     TIP3     OH2      OT      -0.834000       15.9994           0
     62561 TIP3     7722     TIP3     H1       HT       0.417000       1.00800           0
     62562 TIP3     7722     TIP3     H2       HT       0.417000       1.00800           0
     62563 TIP3     7723     TIP3     OH2      OT      -0.834000       15.9994           0
     62564 TIP3     7723     TIP3     H1       HT       0.417000       1.00800           0
     62565 TIP3     7723     TIP3     H2       HT       0.417000       1.00800           0
     62566 TIP3     7724     TIP3     OH2      OT      -0.834000       15.9994           0
     62567 TIP3     7724     TIP3     H1       HT       0.417000       1.00800           0
     62568 TIP3     7724     TIP3     H2       HT       0.417000       1.00800           0
     62569 TIP3     7725     TIP3     OH2      OT      -0.834000       15.9994           0
     62570 TIP3     7725     TIP3     H1       HT       0.417000       1.00800           0
     62571 TIP3     7725     TIP3     H2       HT       0.417000       1.00800           0
     62572 TIP3     7726     TIP3     OH2      OT      -0.834000       15.9994           0
     62573 TIP3     7726     TIP3     H1       HT       0.417000       1.00800           0
     62574 TIP3     7726     TIP3     H2       HT       0.417000       1.00800           0
     62575 TIP3     7727     TIP3     OH2      OT      -0.834000       15.9994           0
     62576 TIP3     7727     TIP3     H1       HT       0.417000       1.00800           0
     62577 TIP3     7727     TIP3     H2       HT       0.417000       1.00800           0
     62578 TIP3     7728     TIP3     OH2      OT      -0.834000       15.9994           0
     62579 TIP3     7728     TIP3     H1       HT       0.417000       1.00800           0
     62580 TIP3     7728     TIP3     H2       HT       0.417000       1.00800           0
     62581 TIP3     7729     TIP3     OH2      OT      -0.834000       15.9994           0
     62582 TIP3     7729     TIP3     H1       HT       0.417000       1.00800           0
     62583 TIP3     7729     TIP3     H2       HT       0.417000       1.00800           0
     62584 TIP3     7730     TIP3     OH2      OT      -0.834000       15.9994           0
     62585 TIP3     7730     TIP3     H1       HT       0.417000       1.00800           0
     62586 TIP3     7730     TIP3     H2       HT       0.417000       1.00800           0
     62587 TIP3     7731     TIP3     OH2      OT      -0.834000       15.9994           0
     62588 TIP3     7731     TIP3     H1       HT       0.417000       1.00800           0
     62589 TIP3     7731     TIP3     H2       HT       0.417000       1.00800           0
     62590 TIP3     7732     TIP3     OH2      OT      -0.834000       15.9994           0
     62591 TIP3     7732     TIP3     H1       HT       0.417000       1.00800           0
     62592 TIP3     7732     TIP3     H2       HT       0.417000       1.00800           0
     62593 TIP3     7733     TIP3     OH2      OT      -0.834000       15.9994           0
     62594 TIP3     7733     TIP3     H1       HT       0.417000       1.00800           0
     62595 TIP3     7733     TIP3     H2       HT       0.417000       1.00800           0
     62596 TIP3     7734     TIP3     OH2      OT      -0.834000       15.9994           0
     62597 TIP3     7734     TIP3     H1       HT       0.417000       1.00800           0
     62598 TIP3     7734     TIP3     H2       HT       0.417000       1.00800           0
     62599 TIP3     7735     TIP3     OH2      OT      -0.834000       15.9994           0
     62600 TIP3     7735     TIP3     H1       HT       0.417000       1.00800           0
     62601 TIP3     7735     TIP3     H2       HT       0.417000       1.00800           0
     62602 TIP3     7736     TIP3     OH2      OT      -0.834000       15.9994           0
     62603 TIP3     7736     TIP3     H1       HT       0.417000       1.00800           0
     62604 TIP3     7736     TIP3     H2       HT       0.417000       1.00800           0
     62605 TIP3     7737     TIP3     OH2      OT      -0.834000       15.9994           0
     62606 TIP3     7737     TIP3     H1       HT       0.417000       1.00800           0
     62607 TIP3     7737     TIP3     H2       HT       0.417000       1.00800           0
     62608 TIP3     7738     TIP3     OH2      OT      -0.834000       15.9994           0
     62609 TIP3     7738     TIP3     H1       HT       0.417000       1.00800           0
     62610 TIP3     7738     TIP3     H2       HT       0.417000       1.00800           0
     62611 TIP3     7739     TIP3     OH2      OT      -0.834000       15.9994           0
     62612 TIP3     7739     TIP3     H1       HT       0.417000       1.00800           0
     62613 TIP3     7739     TIP3     H2       HT       0.417000       1.00800           0
     62614 TIP3     7740     TIP3     OH2      OT      -0.834000       15.9994           0
     62615 TIP3     7740     TIP3     H1       HT       0.417000       1.00800           0
     62616 TIP3     7740     TIP3     H2       HT       0.417000       1.00800           0
     62617 TIP3     7741     TIP3     OH2      OT      -0.834000       15.9994           0
     62618 TIP3     7741     TIP3     H1       HT       0.417000       1.00800           0
     62619 TIP3     7741     TIP3     H2       HT       0.417000       1.00800           0
     62620 TIP3     7742     TIP3     OH2      OT      -0.834000       15.9994           0
     62621 TIP3     7742     TIP3     H1       HT       0.417000       1.00800           0
     62622 TIP3     7742     TIP3     H2       HT       0.417000       1.00800           0
     62623 TIP3     7743     TIP3     OH2      OT      -0.834000       15.9994           0
     62624 TIP3     7743     TIP3     H1       HT       0.417000       1.00800           0
     62625 TIP3     7743     TIP3     H2       HT       0.417000       1.00800           0
     62626 TIP3     7744     TIP3     OH2      OT      -0.834000       15.9994           0
     62627 TIP3     7744     TIP3     H1       HT       0.417000       1.00800           0
     62628 TIP3     7744     TIP3     H2       HT       0.417000       1.00800           0
     62629 TIP3     7745     TIP3     OH2      OT      -0.834000       15.9994           0
     62630 TIP3     7745     TIP3     H1       HT       0.417000       1.00800           0
     62631 TIP3     7745     TIP3     H2       HT       0.417000       1.00800           0
     62632 TIP3     7746     TIP3     OH2      OT      -0.834000       15.9994           0
     62633 TIP3     7746     TIP3     H1       HT       0.417000       1.00800           0
     62634 TIP3     7746     TIP3     H2       HT       0.417000       1.00800           0
     62635 TIP3     7747     TIP3     OH2      OT      -0.834000       15.9994           0
     62636 TIP3     7747     TIP3     H1       HT       0.417000       1.00800           0
     62637 TIP3     7747     TIP3     H2       HT       0.417000       1.00800           0
     62638 TIP3     7748     TIP3     OH2      OT      -0.834000       15.9994           0
     62639 TIP3     7748     TIP3     H1       HT       0.417000       1.00800           0
     62640 TIP3     7748     TIP3     H2       HT       0.417000       1.00800           0
     62641 TIP3     7749     TIP3     OH2      OT      -0.834000       15.9994           0
     62642 TIP3     7749     TIP3     H1       HT       0.417000       1.00800           0
     62643 TIP3     7749     TIP3     H2       HT       0.417000       1.00800           0
     62644 TIP3     7750     TIP3     OH2      OT      -0.834000       15.9994           0
     62645 TIP3     7750     TIP3     H1       HT       0.417000       1.00800           0
     62646 TIP3     7750     TIP3     H2       HT       0.417000       1.00800           0
     62647 TIP3     7751     TIP3     OH2      OT      -0.834000       15.9994           0
     62648 TIP3     7751     TIP3     H1       HT       0.417000       1.00800           0
     62649 TIP3     7751     TIP3     H2       HT       0.417000       1.00800           0
     62650 TIP3     7752     TIP3     OH2      OT      -0.834000       15.9994           0
     62651 TIP3     7752     TIP3     H1       HT       0.417000       1.00800           0
     62652 TIP3     7752     TIP3     H2       HT       0.417000       1.00800           0
     62653 TIP3     7753     TIP3     OH2      OT      -0.834000       15.9994           0
     62654 TIP3     7753     TIP3     H1       HT       0.417000       1.00800           0
     62655 TIP3     7753     TIP3     H2       HT       0.417000       1.00800           0
     62656 TIP3     7754     TIP3     OH2      OT      -0.834000       15.9994           0
     62657 TIP3     7754     TIP3     H1       HT       0.417000       1.00800           0
     62658 TIP3     7754     TIP3     H2       HT       0.417000       1.00800           0
     62659 TIP3     7755     TIP3     OH2      OT      -0.834000       15.9994           0
     62660 TIP3     7755     TIP3     H1       HT       0.417000       1.00800           0
     62661 TIP3     7755     TIP3     H2       HT       0.417000       1.00800           0
     62662 TIP3     7756     TIP3     OH2      OT      -0.834000       15.9994           0
     62663 TIP3     7756     TIP3     H1       HT       0.417000       1.00800           0
     62664 TIP3     7756     TIP3     H2       HT       0.417000       1.00800           0
     62665 TIP3     7757     TIP3     OH2      OT      -0.834000       15.9994           0
     62666 TIP3     7757     TIP3     H1       HT       0.417000       1.00800           0
     62667 TIP3     7757     TIP3     H2       HT       0.417000       1.00800           0
     62668 TIP3     7758     TIP3     OH2      OT      -0.834000       15.9994           0
     62669 TIP3     7758     TIP3     H1       HT       0.417000       1.00800           0
     62670 TIP3     7758     TIP3     H2       HT       0.417000       1.00800           0
     62671 TIP3     7759     TIP3     OH2      OT      -0.834000       15.9994           0
     62672 TIP3     7759     TIP3     H1       HT       0.417000       1.00800           0
     62673 TIP3     7759     TIP3     H2       HT       0.417000       1.00800           0
     62674 TIP3     7760     TIP3     OH2      OT      -0.834000       15.9994           0
     62675 TIP3     7760     TIP3     H1       HT       0.417000       1.00800           0
     62676 TIP3     7760     TIP3     H2       HT       0.417000       1.00800           0
     62677 TIP3     7761     TIP3     OH2      OT      -0.834000       15.9994           0
     62678 TIP3     7761     TIP3     H1       HT       0.417000       1.00800           0
     62679 TIP3     7761     TIP3     H2       HT       0.417000       1.00800           0
     62680 TIP3     7762     TIP3     OH2      OT      -0.834000       15.9994           0
     62681 TIP3     7762     TIP3     H1       HT       0.417000       1.00800           0
     62682 TIP3     7762     TIP3     H2       HT       0.417000       1.00800           0
     62683 TIP3     7763     TIP3     OH2      OT      -0.834000       15.9994           0
     62684 TIP3     7763     TIP3     H1       HT       0.417000       1.00800           0
     62685 TIP3     7763     TIP3     H2       HT       0.417000       1.00800           0
     62686 TIP3     7764     TIP3     OH2      OT      -0.834000       15.9994           0
     62687 TIP3     7764     TIP3     H1       HT       0.417000       1.00800           0
     62688 TIP3     7764     TIP3     H2       HT       0.417000       1.00800           0
     62689 TIP3     7765     TIP3     OH2      OT      -0.834000       15.9994           0
     62690 TIP3     7765     TIP3     H1       HT       0.417000       1.00800           0
     62691 TIP3     7765     TIP3     H2       HT       0.417000       1.00800           0
     62692 TIP3     7766     TIP3     OH2      OT      -0.834000       15.9994           0
     62693 TIP3     7766     TIP3     H1       HT       0.417000       1.00800           0
     62694 TIP3     7766     TIP3     H2       HT       0.417000       1.00800           0
     62695 TIP3     7767     TIP3     OH2      OT      -0.834000       15.9994           0
     62696 TIP3     7767     TIP3     H1       HT       0.417000       1.00800           0
     62697 TIP3     7767     TIP3     H2       HT       0.417000       1.00800           0
     62698 TIP3     7768     TIP3     OH2      OT      -0.834000       15.9994           0
     62699 TIP3     7768     TIP3     H1       HT       0.417000       1.00800           0
     62700 TIP3     7768     TIP3     H2       HT       0.417000       1.00800           0
     62701 TIP3     7769     TIP3     OH2      OT      -0.834000       15.9994           0
     62702 TIP3     7769     TIP3     H1       HT       0.417000       1.00800           0
     62703 TIP3     7769     TIP3     H2       HT       0.417000       1.00800           0
     62704 TIP3     7770     TIP3     OH2      OT      -0.834000       15.9994           0
     62705 TIP3     7770     TIP3     H1       HT       0.417000       1.00800           0
     62706 TIP3     7770     TIP3     H2       HT       0.417000       1.00800           0
     62707 TIP3     7771     TIP3     OH2      OT      -0.834000       15.9994           0
     62708 TIP3     7771     TIP3     H1       HT       0.417000       1.00800           0
     62709 TIP3     7771     TIP3     H2       HT       0.417000       1.00800           0
     62710 TIP3     7772     TIP3     OH2      OT      -0.834000       15.9994           0
     62711 TIP3     7772     TIP3     H1       HT       0.417000       1.00800           0
     62712 TIP3     7772     TIP3     H2       HT       0.417000       1.00800           0
     62713 TIP3     7773     TIP3     OH2      OT      -0.834000       15.9994           0
     62714 TIP3     7773     TIP3     H1       HT       0.417000       1.00800           0
     62715 TIP3     7773     TIP3     H2       HT       0.417000       1.00800           0
     62716 TIP3     7774     TIP3     OH2      OT      -0.834000       15.9994           0
     62717 TIP3     7774     TIP3     H1       HT       0.417000       1.00800           0
     62718 TIP3     7774     TIP3     H2       HT       0.417000       1.00800           0
     62719 TIP3     7775     TIP3     OH2      OT      -0.834000       15.9994           0
     62720 TIP3     7775     TIP3     H1       HT       0.417000       1.00800           0
     62721 TIP3     7775     TIP3     H2       HT       0.417000       1.00800           0
     62722 TIP3     7776     TIP3     OH2      OT      -0.834000       15.9994           0
     62723 TIP3     7776     TIP3     H1       HT       0.417000       1.00800           0
     62724 TIP3     7776     TIP3     H2       HT       0.417000       1.00800           0
     62725 TIP3     7777     TIP3     OH2      OT      -0.834000       15.9994           0
     62726 TIP3     7777     TIP3     H1       HT       0.417000       1.00800           0
     62727 TIP3     7777     TIP3     H2       HT       0.417000       1.00800           0
     62728 TIP3     7778     TIP3     OH2      OT      -0.834000       15.9994           0
     62729 TIP3     7778     TIP3     H1       HT       0.417000       1.00800           0
     62730 TIP3     7778     TIP3     H2       HT       0.417000       1.00800           0
     62731 TIP3     7779     TIP3     OH2      OT      -0.834000       15.9994           0
     62732 TIP3     7779     TIP3     H1       HT       0.417000       1.00800           0
     62733 TIP3     7779     TIP3     H2       HT       0.417000       1.00800           0
     62734 TIP3     7780     TIP3     OH2      OT      -0.834000       15.9994           0
     62735 TIP3     7780     TIP3     H1       HT       0.417000       1.00800           0
     62736 TIP3     7780     TIP3     H2       HT       0.417000       1.00800           0
     62737 TIP3     7781     TIP3     OH2      OT      -0.834000       15.9994           0
     62738 TIP3     7781     TIP3     H1       HT       0.417000       1.00800           0
     62739 TIP3     7781     TIP3     H2       HT       0.417000       1.00800           0
     62740 TIP3     7782     TIP3     OH2      OT      -0.834000       15.9994           0
     62741 TIP3     7782     TIP3     H1       HT       0.417000       1.00800           0
     62742 TIP3     7782     TIP3     H2       HT       0.417000       1.00800           0
     62743 TIP3     7783     TIP3     OH2      OT      -0.834000       15.9994           0
     62744 TIP3     7783     TIP3     H1       HT       0.417000       1.00800           0
     62745 TIP3     7783     TIP3     H2       HT       0.417000       1.00800           0
     62746 TIP3     7784     TIP3     OH2      OT      -0.834000       15.9994           0
     62747 TIP3     7784     TIP3     H1       HT       0.417000       1.00800           0
     62748 TIP3     7784     TIP3     H2       HT       0.417000       1.00800           0
     62749 TIP3     7785     TIP3     OH2      OT      -0.834000       15.9994           0
     62750 TIP3     7785     TIP3     H1       HT       0.417000       1.00800           0
     62751 TIP3     7785     TIP3     H2       HT       0.417000       1.00800           0
     62752 TIP3     7786     TIP3     OH2      OT      -0.834000       15.9994           0
     62753 TIP3     7786     TIP3     H1       HT       0.417000       1.00800           0
     62754 TIP3     7786     TIP3     H2       HT       0.417000       1.00800           0
     62755 TIP3     7787     TIP3     OH2      OT      -0.834000       15.9994           0
     62756 TIP3     7787     TIP3     H1       HT       0.417000       1.00800           0
     62757 TIP3     7787     TIP3     H2       HT       0.417000       1.00800           0
     62758 TIP3     7788     TIP3     OH2      OT      -0.834000       15.9994           0
     62759 TIP3     7788     TIP3     H1       HT       0.417000       1.00800           0
     62760 TIP3     7788     TIP3     H2       HT       0.417000       1.00800           0
     62761 TIP3     7789     TIP3     OH2      OT      -0.834000       15.9994           0
     62762 TIP3     7789     TIP3     H1       HT       0.417000       1.00800           0
     62763 TIP3     7789     TIP3     H2       HT       0.417000       1.00800           0
     62764 TIP3     7790     TIP3     OH2      OT      -0.834000       15.9994           0
     62765 TIP3     7790     TIP3     H1       HT       0.417000       1.00800           0
     62766 TIP3     7790     TIP3     H2       HT       0.417000       1.00800           0
     62767 TIP3     7791     TIP3     OH2      OT      -0.834000       15.9994           0
     62768 TIP3     7791     TIP3     H1       HT       0.417000       1.00800           0
     62769 TIP3     7791     TIP3     H2       HT       0.417000       1.00800           0
     62770 TIP3     7792     TIP3     OH2      OT      -0.834000       15.9994           0
     62771 TIP3     7792     TIP3     H1       HT       0.417000       1.00800           0
     62772 TIP3     7792     TIP3     H2       HT       0.417000       1.00800           0
     62773 TIP3     7793     TIP3     OH2      OT      -0.834000       15.9994           0
     62774 TIP3     7793     TIP3     H1       HT       0.417000       1.00800           0
     62775 TIP3     7793     TIP3     H2       HT       0.417000       1.00800           0
     62776 TIP3     7794     TIP3     OH2      OT      -0.834000       15.9994           0
     62777 TIP3     7794     TIP3     H1       HT       0.417000       1.00800           0
     62778 TIP3     7794     TIP3     H2       HT       0.417000       1.00800           0
     62779 TIP3     7795     TIP3     OH2      OT      -0.834000       15.9994           0
     62780 TIP3     7795     TIP3     H1       HT       0.417000       1.00800           0
     62781 TIP3     7795     TIP3     H2       HT       0.417000       1.00800           0
     62782 TIP3     7796     TIP3     OH2      OT      -0.834000       15.9994           0
     62783 TIP3     7796     TIP3     H1       HT       0.417000       1.00800           0
     62784 TIP3     7796     TIP3     H2       HT       0.417000       1.00800           0
     62785 TIP3     7797     TIP3     OH2      OT      -0.834000       15.9994           0
     62786 TIP3     7797     TIP3     H1       HT       0.417000       1.00800           0
     62787 TIP3     7797     TIP3     H2       HT       0.417000       1.00800           0
     62788 TIP3     7798     TIP3     OH2      OT      -0.834000       15.9994           0
     62789 TIP3     7798     TIP3     H1       HT       0.417000       1.00800           0
     62790 TIP3     7798     TIP3     H2       HT       0.417000       1.00800           0
     62791 TIP3     7799     TIP3     OH2      OT      -0.834000       15.9994           0
     62792 TIP3     7799     TIP3     H1       HT       0.417000       1.00800           0
     62793 TIP3     7799     TIP3     H2       HT       0.417000       1.00800           0
     62794 TIP3     7800     TIP3     OH2      OT      -0.834000       15.9994           0
     62795 TIP3     7800     TIP3     H1       HT       0.417000       1.00800           0
     62796 TIP3     7800     TIP3     H2       HT       0.417000       1.00800           0
     62797 TIP3     7801     TIP3     OH2      OT      -0.834000       15.9994           0
     62798 TIP3     7801     TIP3     H1       HT       0.417000       1.00800           0
     62799 TIP3     7801     TIP3     H2       HT       0.417000       1.00800           0
     62800 TIP3     7802     TIP3     OH2      OT      -0.834000       15.9994           0
     62801 TIP3     7802     TIP3     H1       HT       0.417000       1.00800           0
     62802 TIP3     7802     TIP3     H2       HT       0.417000       1.00800           0
     62803 TIP3     7803     TIP3     OH2      OT      -0.834000       15.9994           0
     62804 TIP3     7803     TIP3     H1       HT       0.417000       1.00800           0
     62805 TIP3     7803     TIP3     H2       HT       0.417000       1.00800           0
     62806 TIP3     7804     TIP3     OH2      OT      -0.834000       15.9994           0
     62807 TIP3     7804     TIP3     H1       HT       0.417000       1.00800           0
     62808 TIP3     7804     TIP3     H2       HT       0.417000       1.00800           0
     62809 TIP3     7805     TIP3     OH2      OT      -0.834000       15.9994           0
     62810 TIP3     7805     TIP3     H1       HT       0.417000       1.00800           0
     62811 TIP3     7805     TIP3     H2       HT       0.417000       1.00800           0
     62812 TIP3     7806     TIP3     OH2      OT      -0.834000       15.9994           0
     62813 TIP3     7806     TIP3     H1       HT       0.417000       1.00800           0
     62814 TIP3     7806     TIP3     H2       HT       0.417000       1.00800           0
     62815 TIP3     7807     TIP3     OH2      OT      -0.834000       15.9994           0
     62816 TIP3     7807     TIP3     H1       HT       0.417000       1.00800           0
     62817 TIP3     7807     TIP3     H2       HT       0.417000       1.00800           0
     62818 TIP3     7808     TIP3     OH2      OT      -0.834000       15.9994           0
     62819 TIP3     7808     TIP3     H1       HT       0.417000       1.00800           0
     62820 TIP3     7808     TIP3     H2       HT       0.417000       1.00800           0
     62821 TIP3     7809     TIP3     OH2      OT      -0.834000       15.9994           0
     62822 TIP3     7809     TIP3     H1       HT       0.417000       1.00800           0
     62823 TIP3     7809     TIP3     H2       HT       0.417000       1.00800           0
     62824 TIP3     7810     TIP3     OH2      OT      -0.834000       15.9994           0
     62825 TIP3     7810     TIP3     H1       HT       0.417000       1.00800           0
     62826 TIP3     7810     TIP3     H2       HT       0.417000       1.00800           0
     62827 TIP3     7811     TIP3     OH2      OT      -0.834000       15.9994           0
     62828 TIP3     7811     TIP3     H1       HT       0.417000       1.00800           0
     62829 TIP3     7811     TIP3     H2       HT       0.417000       1.00800           0
     62830 TIP3     7812     TIP3     OH2      OT      -0.834000       15.9994           0
     62831 TIP3     7812     TIP3     H1       HT       0.417000       1.00800           0
     62832 TIP3     7812     TIP3     H2       HT       0.417000       1.00800           0
     62833 TIP3     7813     TIP3     OH2      OT      -0.834000       15.9994           0
     62834 TIP3     7813     TIP3     H1       HT       0.417000       1.00800           0
     62835 TIP3     7813     TIP3     H2       HT       0.417000       1.00800           0
     62836 TIP3     7814     TIP3     OH2      OT      -0.834000       15.9994           0
     62837 TIP3     7814     TIP3     H1       HT       0.417000       1.00800           0
     62838 TIP3     7814     TIP3     H2       HT       0.417000       1.00800           0
     62839 TIP3     7815     TIP3     OH2      OT      -0.834000       15.9994           0
     62840 TIP3     7815     TIP3     H1       HT       0.417000       1.00800           0
     62841 TIP3     7815     TIP3     H2       HT       0.417000       1.00800           0
     62842 TIP3     7816     TIP3     OH2      OT      -0.834000       15.9994           0
     62843 TIP3     7816     TIP3     H1       HT       0.417000       1.00800           0
     62844 TIP3     7816     TIP3     H2       HT       0.417000       1.00800           0
     62845 TIP3     7817     TIP3     OH2      OT      -0.834000       15.9994           0
     62846 TIP3     7817     TIP3     H1       HT       0.417000       1.00800           0
     62847 TIP3     7817     TIP3     H2       HT       0.417000       1.00800           0
     62848 TIP3     7818     TIP3     OH2      OT      -0.834000       15.9994           0
     62849 TIP3     7818     TIP3     H1       HT       0.417000       1.00800           0
     62850 TIP3     7818     TIP3     H2       HT       0.417000       1.00800           0
     62851 TIP3     7819     TIP3     OH2      OT      -0.834000       15.9994           0
     62852 TIP3     7819     TIP3     H1       HT       0.417000       1.00800           0
     62853 TIP3     7819     TIP3     H2       HT       0.417000       1.00800           0
     62854 TIP3     7820     TIP3     OH2      OT      -0.834000       15.9994           0
     62855 TIP3     7820     TIP3     H1       HT       0.417000       1.00800           0
     62856 TIP3     7820     TIP3     H2       HT       0.417000       1.00800           0
     62857 TIP3     7821     TIP3     OH2      OT      -0.834000       15.9994           0
     62858 TIP3     7821     TIP3     H1       HT       0.417000       1.00800           0
     62859 TIP3     7821     TIP3     H2       HT       0.417000       1.00800           0
     62860 TIP3     7822     TIP3     OH2      OT      -0.834000       15.9994           0
     62861 TIP3     7822     TIP3     H1       HT       0.417000       1.00800           0
     62862 TIP3     7822     TIP3     H2       HT       0.417000       1.00800           0
     62863 TIP3     7823     TIP3     OH2      OT      -0.834000       15.9994           0
     62864 TIP3     7823     TIP3     H1       HT       0.417000       1.00800           0
     62865 TIP3     7823     TIP3     H2       HT       0.417000       1.00800           0
     62866 TIP3     7824     TIP3     OH2      OT      -0.834000       15.9994           0
     62867 TIP3     7824     TIP3     H1       HT       0.417000       1.00800           0
     62868 TIP3     7824     TIP3     H2       HT       0.417000       1.00800           0
     62869 TIP3     7825     TIP3     OH2      OT      -0.834000       15.9994           0
     62870 TIP3     7825     TIP3     H1       HT       0.417000       1.00800           0
     62871 TIP3     7825     TIP3     H2       HT       0.417000       1.00800           0
     62872 TIP3     7826     TIP3     OH2      OT      -0.834000       15.9994           0
     62873 TIP3     7826     TIP3     H1       HT       0.417000       1.00800           0
     62874 TIP3     7826     TIP3     H2       HT       0.417000       1.00800           0
     62875 TIP3     7827     TIP3     OH2      OT      -0.834000       15.9994           0
     62876 TIP3     7827     TIP3     H1       HT       0.417000       1.00800           0
     62877 TIP3     7827     TIP3     H2       HT       0.417000       1.00800           0
     62878 TIP3     7828     TIP3     OH2      OT      -0.834000       15.9994           0
     62879 TIP3     7828     TIP3     H1       HT       0.417000       1.00800           0
     62880 TIP3     7828     TIP3     H2       HT       0.417000       1.00800           0
     62881 TIP3     7829     TIP3     OH2      OT      -0.834000       15.9994           0
     62882 TIP3     7829     TIP3     H1       HT       0.417000       1.00800           0
     62883 TIP3     7829     TIP3     H2       HT       0.417000       1.00800           0
     62884 TIP3     7830     TIP3     OH2      OT      -0.834000       15.9994           0
     62885 TIP3     7830     TIP3     H1       HT       0.417000       1.00800           0
     62886 TIP3     7830     TIP3     H2       HT       0.417000       1.00800           0
     62887 TIP3     7831     TIP3     OH2      OT      -0.834000       15.9994           0
     62888 TIP3     7831     TIP3     H1       HT       0.417000       1.00800           0
     62889 TIP3     7831     TIP3     H2       HT       0.417000       1.00800           0
     62890 TIP3     7832     TIP3     OH2      OT      -0.834000       15.9994           0
     62891 TIP3     7832     TIP3     H1       HT       0.417000       1.00800           0
     62892 TIP3     7832     TIP3     H2       HT       0.417000       1.00800           0
     62893 TIP3     7833     TIP3     OH2      OT      -0.834000       15.9994           0
     62894 TIP3     7833     TIP3     H1       HT       0.417000       1.00800           0
     62895 TIP3     7833     TIP3     H2       HT       0.417000       1.00800           0
     62896 TIP3     7834     TIP3     OH2      OT      -0.834000       15.9994           0
     62897 TIP3     7834     TIP3     H1       HT       0.417000       1.00800           0
     62898 TIP3     7834     TIP3     H2       HT       0.417000       1.00800           0
     62899 TIP3     7835     TIP3     OH2      OT      -0.834000       15.9994           0
     62900 TIP3     7835     TIP3     H1       HT       0.417000       1.00800           0
     62901 TIP3     7835     TIP3     H2       HT       0.417000       1.00800           0
     62902 TIP3     7836     TIP3     OH2      OT      -0.834000       15.9994           0
     62903 TIP3     7836     TIP3     H1       HT       0.417000       1.00800           0
     62904 TIP3     7836     TIP3     H2       HT       0.417000       1.00800           0
     62905 TIP3     7837     TIP3     OH2      OT      -0.834000       15.9994           0
     62906 TIP3     7837     TIP3     H1       HT       0.417000       1.00800           0
     62907 TIP3     7837     TIP3     H2       HT       0.417000       1.00800           0
     62908 TIP3     7838     TIP3     OH2      OT      -0.834000       15.9994           0
     62909 TIP3     7838     TIP3     H1       HT       0.417000       1.00800           0
     62910 TIP3     7838     TIP3     H2       HT       0.417000       1.00800           0
     62911 TIP3     7839     TIP3     OH2      OT      -0.834000       15.9994           0
     62912 TIP3     7839     TIP3     H1       HT       0.417000       1.00800           0
     62913 TIP3     7839     TIP3     H2       HT       0.417000       1.00800           0
     62914 TIP3     7840     TIP3     OH2      OT      -0.834000       15.9994           0
     62915 TIP3     7840     TIP3     H1       HT       0.417000       1.00800           0
     62916 TIP3     7840     TIP3     H2       HT       0.417000       1.00800           0
     62917 TIP3     7841     TIP3     OH2      OT      -0.834000       15.9994           0
     62918 TIP3     7841     TIP3     H1       HT       0.417000       1.00800           0
     62919 TIP3     7841     TIP3     H2       HT       0.417000       1.00800           0
     62920 TIP3     7842     TIP3     OH2      OT      -0.834000       15.9994           0
     62921 TIP3     7842     TIP3     H1       HT       0.417000       1.00800           0
     62922 TIP3     7842     TIP3     H2       HT       0.417000       1.00800           0
     62923 TIP3     7843     TIP3     OH2      OT      -0.834000       15.9994           0
     62924 TIP3     7843     TIP3     H1       HT       0.417000       1.00800           0
     62925 TIP3     7843     TIP3     H2       HT       0.417000       1.00800           0
     62926 TIP3     7844     TIP3     OH2      OT      -0.834000       15.9994           0
     62927 TIP3     7844     TIP3     H1       HT       0.417000       1.00800           0
     62928 TIP3     7844     TIP3     H2       HT       0.417000       1.00800           0
     62929 TIP3     7845     TIP3     OH2      OT      -0.834000       15.9994           0
     62930 TIP3     7845     TIP3     H1       HT       0.417000       1.00800           0
     62931 TIP3     7845     TIP3     H2       HT       0.417000       1.00800           0
     62932 TIP3     7846     TIP3     OH2      OT      -0.834000       15.9994           0
     62933 TIP3     7846     TIP3     H1       HT       0.417000       1.00800           0
     62934 TIP3     7846     TIP3     H2       HT       0.417000       1.00800           0
     62935 TIP3     7847     TIP3     OH2      OT      -0.834000       15.9994           0
     62936 TIP3     7847     TIP3     H1       HT       0.417000       1.00800           0
     62937 TIP3     7847     TIP3     H2       HT       0.417000       1.00800           0
     62938 TIP3     7848     TIP3     OH2      OT      -0.834000       15.9994           0
     62939 TIP3     7848     TIP3     H1       HT       0.417000       1.00800           0
     62940 TIP3     7848     TIP3     H2       HT       0.417000       1.00800           0
     62941 TIP3     7849     TIP3     OH2      OT      -0.834000       15.9994           0
     62942 TIP3     7849     TIP3     H1       HT       0.417000       1.00800           0
     62943 TIP3     7849     TIP3     H2       HT       0.417000       1.00800           0
     62944 TIP3     7850     TIP3     OH2      OT      -0.834000       15.9994           0
     62945 TIP3     7850     TIP3     H1       HT       0.417000       1.00800           0
     62946 TIP3     7850     TIP3     H2       HT       0.417000       1.00800           0
     62947 TIP3     7851     TIP3     OH2      OT      -0.834000       15.9994           0
     62948 TIP3     7851     TIP3     H1       HT       0.417000       1.00800           0
     62949 TIP3     7851     TIP3     H2       HT       0.417000       1.00800           0
     62950 TIP3     7852     TIP3     OH2      OT      -0.834000       15.9994           0
     62951 TIP3     7852     TIP3     H1       HT       0.417000       1.00800           0
     62952 TIP3     7852     TIP3     H2       HT       0.417000       1.00800           0
     62953 TIP3     7853     TIP3     OH2      OT      -0.834000       15.9994           0
     62954 TIP3     7853     TIP3     H1       HT       0.417000       1.00800           0
     62955 TIP3     7853     TIP3     H2       HT       0.417000       1.00800           0
     62956 TIP3     7854     TIP3     OH2      OT      -0.834000       15.9994           0
     62957 TIP3     7854     TIP3     H1       HT       0.417000       1.00800           0
     62958 TIP3     7854     TIP3     H2       HT       0.417000       1.00800           0
     62959 TIP3     7855     TIP3     OH2      OT      -0.834000       15.9994           0
     62960 TIP3     7855     TIP3     H1       HT       0.417000       1.00800           0
     62961 TIP3     7855     TIP3     H2       HT       0.417000       1.00800           0
     62962 TIP3     7856     TIP3     OH2      OT      -0.834000       15.9994           0
     62963 TIP3     7856     TIP3     H1       HT       0.417000       1.00800           0
     62964 TIP3     7856     TIP3     H2       HT       0.417000       1.00800           0
     62965 TIP3     7857     TIP3     OH2      OT      -0.834000       15.9994           0
     62966 TIP3     7857     TIP3     H1       HT       0.417000       1.00800           0
     62967 TIP3     7857     TIP3     H2       HT       0.417000       1.00800           0
     62968 TIP3     7858     TIP3     OH2      OT      -0.834000       15.9994           0
     62969 TIP3     7858     TIP3     H1       HT       0.417000       1.00800           0
     62970 TIP3     7858     TIP3     H2       HT       0.417000       1.00800           0
     62971 TIP3     7859     TIP3     OH2      OT      -0.834000       15.9994           0
     62972 TIP3     7859     TIP3     H1       HT       0.417000       1.00800           0
     62973 TIP3     7859     TIP3     H2       HT       0.417000       1.00800           0
     62974 TIP3     7860     TIP3     OH2      OT      -0.834000       15.9994           0
     62975 TIP3     7860     TIP3     H1       HT       0.417000       1.00800           0
     62976 TIP3     7860     TIP3     H2       HT       0.417000       1.00800           0
     62977 TIP3     7861     TIP3     OH2      OT      -0.834000       15.9994           0
     62978 TIP3     7861     TIP3     H1       HT       0.417000       1.00800           0
     62979 TIP3     7861     TIP3     H2       HT       0.417000       1.00800           0
     62980 TIP3     7862     TIP3     OH2      OT      -0.834000       15.9994           0
     62981 TIP3     7862     TIP3     H1       HT       0.417000       1.00800           0
     62982 TIP3     7862     TIP3     H2       HT       0.417000       1.00800           0
     62983 TIP3     7863     TIP3     OH2      OT      -0.834000       15.9994           0
     62984 TIP3     7863     TIP3     H1       HT       0.417000       1.00800           0
     62985 TIP3     7863     TIP3     H2       HT       0.417000       1.00800           0
     62986 TIP3     7864     TIP3     OH2      OT      -0.834000       15.9994           0
     62987 TIP3     7864     TIP3     H1       HT       0.417000       1.00800           0
     62988 TIP3     7864     TIP3     H2       HT       0.417000       1.00800           0
     62989 TIP3     7865     TIP3     OH2      OT      -0.834000       15.9994           0
     62990 TIP3     7865     TIP3     H1       HT       0.417000       1.00800           0
     62991 TIP3     7865     TIP3     H2       HT       0.417000       1.00800           0
     62992 TIP3     7866     TIP3     OH2      OT      -0.834000       15.9994           0
     62993 TIP3     7866     TIP3     H1       HT       0.417000       1.00800           0
     62994 TIP3     7866     TIP3     H2       HT       0.417000       1.00800           0
     62995 TIP3     7867     TIP3     OH2      OT      -0.834000       15.9994           0
     62996 TIP3     7867     TIP3     H1       HT       0.417000       1.00800           0
     62997 TIP3     7867     TIP3     H2       HT       0.417000       1.00800           0
     62998 TIP3     7868     TIP3     OH2      OT      -0.834000       15.9994           0
     62999 TIP3     7868     TIP3     H1       HT       0.417000       1.00800           0
     63000 TIP3     7868     TIP3     H2       HT       0.417000       1.00800           0
     63001 TIP3     7869     TIP3     OH2      OT      -0.834000       15.9994           0
     63002 TIP3     7869     TIP3     H1       HT       0.417000       1.00800           0
     63003 TIP3     7869     TIP3     H2       HT       0.417000       1.00800           0
     63004 TIP3     7870     TIP3     OH2      OT      -0.834000       15.9994           0
     63005 TIP3     7870     TIP3     H1       HT       0.417000       1.00800           0
     63006 TIP3     7870     TIP3     H2       HT       0.417000       1.00800           0
     63007 TIP3     7871     TIP3     OH2      OT      -0.834000       15.9994           0
     63008 TIP3     7871     TIP3     H1       HT       0.417000       1.00800           0
     63009 TIP3     7871     TIP3     H2       HT       0.417000       1.00800           0
     63010 TIP3     7872     TIP3     OH2      OT      -0.834000       15.9994           0
     63011 TIP3     7872     TIP3     H1       HT       0.417000       1.00800           0
     63012 TIP3     7872     TIP3     H2       HT       0.417000       1.00800           0
     63013 TIP3     7873     TIP3     OH2      OT      -0.834000       15.9994           0
     63014 TIP3     7873     TIP3     H1       HT       0.417000       1.00800           0
     63015 TIP3     7873     TIP3     H2       HT       0.417000       1.00800           0
     63016 TIP3     7874     TIP3     OH2      OT      -0.834000       15.9994           0
     63017 TIP3     7874     TIP3     H1       HT       0.417000       1.00800           0
     63018 TIP3     7874     TIP3     H2       HT       0.417000       1.00800           0
     63019 TIP3     7875     TIP3     OH2      OT      -0.834000       15.9994           0
     63020 TIP3     7875     TIP3     H1       HT       0.417000       1.00800           0
     63021 TIP3     7875     TIP3     H2       HT       0.417000       1.00800           0
     63022 TIP3     7876     TIP3     OH2      OT      -0.834000       15.9994           0
     63023 TIP3     7876     TIP3     H1       HT       0.417000       1.00800           0
     63024 TIP3     7876     TIP3     H2       HT       0.417000       1.00800           0
     63025 TIP3     7877     TIP3     OH2      OT      -0.834000       15.9994           0
     63026 TIP3     7877     TIP3     H1       HT       0.417000       1.00800           0
     63027 TIP3     7877     TIP3     H2       HT       0.417000       1.00800           0
     63028 TIP3     7878     TIP3     OH2      OT      -0.834000       15.9994           0
     63029 TIP3     7878     TIP3     H1       HT       0.417000       1.00800           0
     63030 TIP3     7878     TIP3     H2       HT       0.417000       1.00800           0
     63031 TIP3     7879     TIP3     OH2      OT      -0.834000       15.9994           0
     63032 TIP3     7879     TIP3     H1       HT       0.417000       1.00800           0
     63033 TIP3     7879     TIP3     H2       HT       0.417000       1.00800           0
     63034 TIP3     7880     TIP3     OH2      OT      -0.834000       15.9994           0
     63035 TIP3     7880     TIP3     H1       HT       0.417000       1.00800           0
     63036 TIP3     7880     TIP3     H2       HT       0.417000       1.00800           0
     63037 TIP3     7881     TIP3     OH2      OT      -0.834000       15.9994           0
     63038 TIP3     7881     TIP3     H1       HT       0.417000       1.00800           0
     63039 TIP3     7881     TIP3     H2       HT       0.417000       1.00800           0
     63040 TIP3     7882     TIP3     OH2      OT      -0.834000       15.9994           0
     63041 TIP3     7882     TIP3     H1       HT       0.417000       1.00800           0
     63042 TIP3     7882     TIP3     H2       HT       0.417000       1.00800           0
     63043 TIP3     7883     TIP3     OH2      OT      -0.834000       15.9994           0
     63044 TIP3     7883     TIP3     H1       HT       0.417000       1.00800           0
     63045 TIP3     7883     TIP3     H2       HT       0.417000       1.00800           0
     63046 TIP3     7884     TIP3     OH2      OT      -0.834000       15.9994           0
     63047 TIP3     7884     TIP3     H1       HT       0.417000       1.00800           0
     63048 TIP3     7884     TIP3     H2       HT       0.417000       1.00800           0
     63049 TIP3     7885     TIP3     OH2      OT      -0.834000       15.9994           0
     63050 TIP3     7885     TIP3     H1       HT       0.417000       1.00800           0
     63051 TIP3     7885     TIP3     H2       HT       0.417000       1.00800           0
     63052 TIP3     7886     TIP3     OH2      OT      -0.834000       15.9994           0
     63053 TIP3     7886     TIP3     H1       HT       0.417000       1.00800           0
     63054 TIP3     7886     TIP3     H2       HT       0.417000       1.00800           0
     63055 TIP3     7887     TIP3     OH2      OT      -0.834000       15.9994           0
     63056 TIP3     7887     TIP3     H1       HT       0.417000       1.00800           0
     63057 TIP3     7887     TIP3     H2       HT       0.417000       1.00800           0
     63058 TIP3     7888     TIP3     OH2      OT      -0.834000       15.9994           0
     63059 TIP3     7888     TIP3     H1       HT       0.417000       1.00800           0
     63060 TIP3     7888     TIP3     H2       HT       0.417000       1.00800           0
     63061 TIP3     7889     TIP3     OH2      OT      -0.834000       15.9994           0
     63062 TIP3     7889     TIP3     H1       HT       0.417000       1.00800           0
     63063 TIP3     7889     TIP3     H2       HT       0.417000       1.00800           0
     63064 TIP3     7890     TIP3     OH2      OT      -0.834000       15.9994           0
     63065 TIP3     7890     TIP3     H1       HT       0.417000       1.00800           0
     63066 TIP3     7890     TIP3     H2       HT       0.417000       1.00800           0
     63067 TIP3     7891     TIP3     OH2      OT      -0.834000       15.9994           0
     63068 TIP3     7891     TIP3     H1       HT       0.417000       1.00800           0
     63069 TIP3     7891     TIP3     H2       HT       0.417000       1.00800           0
     63070 TIP3     7892     TIP3     OH2      OT      -0.834000       15.9994           0
     63071 TIP3     7892     TIP3     H1       HT       0.417000       1.00800           0
     63072 TIP3     7892     TIP3     H2       HT       0.417000       1.00800           0
     63073 TIP3     7893     TIP3     OH2      OT      -0.834000       15.9994           0
     63074 TIP3     7893     TIP3     H1       HT       0.417000       1.00800           0
     63075 TIP3     7893     TIP3     H2       HT       0.417000       1.00800           0
     63076 TIP3     7894     TIP3     OH2      OT      -0.834000       15.9994           0
     63077 TIP3     7894     TIP3     H1       HT       0.417000       1.00800           0
     63078 TIP3     7894     TIP3     H2       HT       0.417000       1.00800           0
     63079 TIP3     7895     TIP3     OH2      OT      -0.834000       15.9994           0
     63080 TIP3     7895     TIP3     H1       HT       0.417000       1.00800           0
     63081 TIP3     7895     TIP3     H2       HT       0.417000       1.00800           0
     63082 TIP3     7896     TIP3     OH2      OT      -0.834000       15.9994           0
     63083 TIP3     7896     TIP3     H1       HT       0.417000       1.00800           0
     63084 TIP3     7896     TIP3     H2       HT       0.417000       1.00800           0
     63085 TIP3     7897     TIP3     OH2      OT      -0.834000       15.9994           0
     63086 TIP3     7897     TIP3     H1       HT       0.417000       1.00800           0
     63087 TIP3     7897     TIP3     H2       HT       0.417000       1.00800           0
     63088 TIP3     7898     TIP3     OH2      OT      -0.834000       15.9994           0
     63089 TIP3     7898     TIP3     H1       HT       0.417000       1.00800           0
     63090 TIP3     7898     TIP3     H2       HT       0.417000       1.00800           0
     63091 TIP3     7899     TIP3     OH2      OT      -0.834000       15.9994           0
     63092 TIP3     7899     TIP3     H1       HT       0.417000       1.00800           0
     63093 TIP3     7899     TIP3     H2       HT       0.417000       1.00800           0
     63094 TIP3     7900     TIP3     OH2      OT      -0.834000       15.9994           0
     63095 TIP3     7900     TIP3     H1       HT       0.417000       1.00800           0
     63096 TIP3     7900     TIP3     H2       HT       0.417000       1.00800           0
     63097 TIP3     7901     TIP3     OH2      OT      -0.834000       15.9994           0
     63098 TIP3     7901     TIP3     H1       HT       0.417000       1.00800           0
     63099 TIP3     7901     TIP3     H2       HT       0.417000       1.00800           0
     63100 TIP3     7902     TIP3     OH2      OT      -0.834000       15.9994           0
     63101 TIP3     7902     TIP3     H1       HT       0.417000       1.00800           0
     63102 TIP3     7902     TIP3     H2       HT       0.417000       1.00800           0
     63103 TIP3     7903     TIP3     OH2      OT      -0.834000       15.9994           0
     63104 TIP3     7903     TIP3     H1       HT       0.417000       1.00800           0
     63105 TIP3     7903     TIP3     H2       HT       0.417000       1.00800           0
     63106 TIP3     7904     TIP3     OH2      OT      -0.834000       15.9994           0
     63107 TIP3     7904     TIP3     H1       HT       0.417000       1.00800           0
     63108 TIP3     7904     TIP3     H2       HT       0.417000       1.00800           0
     63109 TIP3     7905     TIP3     OH2      OT      -0.834000       15.9994           0
     63110 TIP3     7905     TIP3     H1       HT       0.417000       1.00800           0
     63111 TIP3     7905     TIP3     H2       HT       0.417000       1.00800           0
     63112 TIP3     7906     TIP3     OH2      OT      -0.834000       15.9994           0
     63113 TIP3     7906     TIP3     H1       HT       0.417000       1.00800           0
     63114 TIP3     7906     TIP3     H2       HT       0.417000       1.00800           0
     63115 TIP3     7907     TIP3     OH2      OT      -0.834000       15.9994           0
     63116 TIP3     7907     TIP3     H1       HT       0.417000       1.00800           0
     63117 TIP3     7907     TIP3     H2       HT       0.417000       1.00800           0
     63118 TIP3     7908     TIP3     OH2      OT      -0.834000       15.9994           0
     63119 TIP3     7908     TIP3     H1       HT       0.417000       1.00800           0
     63120 TIP3     7908     TIP3     H2       HT       0.417000       1.00800           0
     63121 TIP3     7909     TIP3     OH2      OT      -0.834000       15.9994           0
     63122 TIP3     7909     TIP3     H1       HT       0.417000       1.00800           0
     63123 TIP3     7909     TIP3     H2       HT       0.417000       1.00800           0
     63124 TIP3     7910     TIP3     OH2      OT      -0.834000       15.9994           0
     63125 TIP3     7910     TIP3     H1       HT       0.417000       1.00800           0
     63126 TIP3     7910     TIP3     H2       HT       0.417000       1.00800           0
     63127 TIP3     7911     TIP3     OH2      OT      -0.834000       15.9994           0
     63128 TIP3     7911     TIP3     H1       HT       0.417000       1.00800           0
     63129 TIP3     7911     TIP3     H2       HT       0.417000       1.00800           0
     63130 TIP3     7912     TIP3     OH2      OT      -0.834000       15.9994           0
     63131 TIP3     7912     TIP3     H1       HT       0.417000       1.00800           0
     63132 TIP3     7912     TIP3     H2       HT       0.417000       1.00800           0
     63133 TIP3     7913     TIP3     OH2      OT      -0.834000       15.9994           0
     63134 TIP3     7913     TIP3     H1       HT       0.417000       1.00800           0
     63135 TIP3     7913     TIP3     H2       HT       0.417000       1.00800           0
     63136 TIP3     7914     TIP3     OH2      OT      -0.834000       15.9994           0
     63137 TIP3     7914     TIP3     H1       HT       0.417000       1.00800           0
     63138 TIP3     7914     TIP3     H2       HT       0.417000       1.00800           0
     63139 TIP3     7915     TIP3     OH2      OT      -0.834000       15.9994           0
     63140 TIP3     7915     TIP3     H1       HT       0.417000       1.00800           0
     63141 TIP3     7915     TIP3     H2       HT       0.417000       1.00800           0
     63142 TIP3     7916     TIP3     OH2      OT      -0.834000       15.9994           0
     63143 TIP3     7916     TIP3     H1       HT       0.417000       1.00800           0
     63144 TIP3     7916     TIP3     H2       HT       0.417000       1.00800           0
     63145 TIP3     7917     TIP3     OH2      OT      -0.834000       15.9994           0
     63146 TIP3     7917     TIP3     H1       HT       0.417000       1.00800           0
     63147 TIP3     7917     TIP3     H2       HT       0.417000       1.00800           0
     63148 TIP3     7918     TIP3     OH2      OT      -0.834000       15.9994           0
     63149 TIP3     7918     TIP3     H1       HT       0.417000       1.00800           0
     63150 TIP3     7918     TIP3     H2       HT       0.417000       1.00800           0
     63151 TIP3     7919     TIP3     OH2      OT      -0.834000       15.9994           0
     63152 TIP3     7919     TIP3     H1       HT       0.417000       1.00800           0
     63153 TIP3     7919     TIP3     H2       HT       0.417000       1.00800           0
     63154 TIP3     7920     TIP3     OH2      OT      -0.834000       15.9994           0
     63155 TIP3     7920     TIP3     H1       HT       0.417000       1.00800           0
     63156 TIP3     7920     TIP3     H2       HT       0.417000       1.00800           0
     63157 TIP3     7921     TIP3     OH2      OT      -0.834000       15.9994           0
     63158 TIP3     7921     TIP3     H1       HT       0.417000       1.00800           0
     63159 TIP3     7921     TIP3     H2       HT       0.417000       1.00800           0
     63160 TIP3     7922     TIP3     OH2      OT      -0.834000       15.9994           0
     63161 TIP3     7922     TIP3     H1       HT       0.417000       1.00800           0
     63162 TIP3     7922     TIP3     H2       HT       0.417000       1.00800           0
     63163 TIP3     7923     TIP3     OH2      OT      -0.834000       15.9994           0
     63164 TIP3     7923     TIP3     H1       HT       0.417000       1.00800           0
     63165 TIP3     7923     TIP3     H2       HT       0.417000       1.00800           0
     63166 TIP3     7924     TIP3     OH2      OT      -0.834000       15.9994           0
     63167 TIP3     7924     TIP3     H1       HT       0.417000       1.00800           0
     63168 TIP3     7924     TIP3     H2       HT       0.417000       1.00800           0
     63169 TIP3     7925     TIP3     OH2      OT      -0.834000       15.9994           0
     63170 TIP3     7925     TIP3     H1       HT       0.417000       1.00800           0
     63171 TIP3     7925     TIP3     H2       HT       0.417000       1.00800           0
     63172 TIP3     7926     TIP3     OH2      OT      -0.834000       15.9994           0
     63173 TIP3     7926     TIP3     H1       HT       0.417000       1.00800           0
     63174 TIP3     7926     TIP3     H2       HT       0.417000       1.00800           0
     63175 TIP3     7927     TIP3     OH2      OT      -0.834000       15.9994           0
     63176 TIP3     7927     TIP3     H1       HT       0.417000       1.00800           0
     63177 TIP3     7927     TIP3     H2       HT       0.417000       1.00800           0
     63178 TIP3     7928     TIP3     OH2      OT      -0.834000       15.9994           0
     63179 TIP3     7928     TIP3     H1       HT       0.417000       1.00800           0
     63180 TIP3     7928     TIP3     H2       HT       0.417000       1.00800           0
     63181 TIP3     7929     TIP3     OH2      OT      -0.834000       15.9994           0
     63182 TIP3     7929     TIP3     H1       HT       0.417000       1.00800           0
     63183 TIP3     7929     TIP3     H2       HT       0.417000       1.00800           0
     63184 TIP3     7930     TIP3     OH2      OT      -0.834000       15.9994           0
     63185 TIP3     7930     TIP3     H1       HT       0.417000       1.00800           0
     63186 TIP3     7930     TIP3     H2       HT       0.417000       1.00800           0
     63187 TIP3     7931     TIP3     OH2      OT      -0.834000       15.9994           0
     63188 TIP3     7931     TIP3     H1       HT       0.417000       1.00800           0
     63189 TIP3     7931     TIP3     H2       HT       0.417000       1.00800           0
     63190 TIP3     7932     TIP3     OH2      OT      -0.834000       15.9994           0
     63191 TIP3     7932     TIP3     H1       HT       0.417000       1.00800           0
     63192 TIP3     7932     TIP3     H2       HT       0.417000       1.00800           0
     63193 TIP3     7933     TIP3     OH2      OT      -0.834000       15.9994           0
     63194 TIP3     7933     TIP3     H1       HT       0.417000       1.00800           0
     63195 TIP3     7933     TIP3     H2       HT       0.417000       1.00800           0
     63196 TIP3     7934     TIP3     OH2      OT      -0.834000       15.9994           0
     63197 TIP3     7934     TIP3     H1       HT       0.417000       1.00800           0
     63198 TIP3     7934     TIP3     H2       HT       0.417000       1.00800           0
     63199 TIP3     7935     TIP3     OH2      OT      -0.834000       15.9994           0
     63200 TIP3     7935     TIP3     H1       HT       0.417000       1.00800           0
     63201 TIP3     7935     TIP3     H2       HT       0.417000       1.00800           0
     63202 TIP3     7936     TIP3     OH2      OT      -0.834000       15.9994           0
     63203 TIP3     7936     TIP3     H1       HT       0.417000       1.00800           0
     63204 TIP3     7936     TIP3     H2       HT       0.417000       1.00800           0
     63205 TIP3     7937     TIP3     OH2      OT      -0.834000       15.9994           0
     63206 TIP3     7937     TIP3     H1       HT       0.417000       1.00800           0
     63207 TIP3     7937     TIP3     H2       HT       0.417000       1.00800           0
     63208 TIP3     7938     TIP3     OH2      OT      -0.834000       15.9994           0
     63209 TIP3     7938     TIP3     H1       HT       0.417000       1.00800           0
     63210 TIP3     7938     TIP3     H2       HT       0.417000       1.00800           0
     63211 TIP3     7939     TIP3     OH2      OT      -0.834000       15.9994           0
     63212 TIP3     7939     TIP3     H1       HT       0.417000       1.00800           0
     63213 TIP3     7939     TIP3     H2       HT       0.417000       1.00800           0
     63214 TIP3     7940     TIP3     OH2      OT      -0.834000       15.9994           0
     63215 TIP3     7940     TIP3     H1       HT       0.417000       1.00800           0
     63216 TIP3     7940     TIP3     H2       HT       0.417000       1.00800           0
     63217 TIP3     7941     TIP3     OH2      OT      -0.834000       15.9994           0
     63218 TIP3     7941     TIP3     H1       HT       0.417000       1.00800           0
     63219 TIP3     7941     TIP3     H2       HT       0.417000       1.00800           0
     63220 TIP3     7942     TIP3     OH2      OT      -0.834000       15.9994           0
     63221 TIP3     7942     TIP3     H1       HT       0.417000       1.00800           0
     63222 TIP3     7942     TIP3     H2       HT       0.417000       1.00800           0
     63223 TIP3     7943     TIP3     OH2      OT      -0.834000       15.9994           0
     63224 TIP3     7943     TIP3     H1       HT       0.417000       1.00800           0
     63225 TIP3     7943     TIP3     H2       HT       0.417000       1.00800           0
     63226 TIP3     7944     TIP3     OH2      OT      -0.834000       15.9994           0
     63227 TIP3     7944     TIP3     H1       HT       0.417000       1.00800           0
     63228 TIP3     7944     TIP3     H2       HT       0.417000       1.00800           0
     63229 TIP3     7945     TIP3     OH2      OT      -0.834000       15.9994           0
     63230 TIP3     7945     TIP3     H1       HT       0.417000       1.00800           0
     63231 TIP3     7945     TIP3     H2       HT       0.417000       1.00800           0
     63232 TIP3     7946     TIP3     OH2      OT      -0.834000       15.9994           0
     63233 TIP3     7946     TIP3     H1       HT       0.417000       1.00800           0
     63234 TIP3     7946     TIP3     H2       HT       0.417000       1.00800           0
     63235 TIP3     7947     TIP3     OH2      OT      -0.834000       15.9994           0
     63236 TIP3     7947     TIP3     H1       HT       0.417000       1.00800           0
     63237 TIP3     7947     TIP3     H2       HT       0.417000       1.00800           0
     63238 TIP3     7948     TIP3     OH2      OT      -0.834000       15.9994           0
     63239 TIP3     7948     TIP3     H1       HT       0.417000       1.00800           0
     63240 TIP3     7948     TIP3     H2       HT       0.417000       1.00800           0
     63241 TIP3     7949     TIP3     OH2      OT      -0.834000       15.9994           0
     63242 TIP3     7949     TIP3     H1       HT       0.417000       1.00800           0
     63243 TIP3     7949     TIP3     H2       HT       0.417000       1.00800           0
     63244 TIP3     7950     TIP3     OH2      OT      -0.834000       15.9994           0
     63245 TIP3     7950     TIP3     H1       HT       0.417000       1.00800           0
     63246 TIP3     7950     TIP3     H2       HT       0.417000       1.00800           0
     63247 TIP3     7951     TIP3     OH2      OT      -0.834000       15.9994           0
     63248 TIP3     7951     TIP3     H1       HT       0.417000       1.00800           0
     63249 TIP3     7951     TIP3     H2       HT       0.417000       1.00800           0
     63250 TIP3     7952     TIP3     OH2      OT      -0.834000       15.9994           0
     63251 TIP3     7952     TIP3     H1       HT       0.417000       1.00800           0
     63252 TIP3     7952     TIP3     H2       HT       0.417000       1.00800           0
     63253 TIP3     7953     TIP3     OH2      OT      -0.834000       15.9994           0
     63254 TIP3     7953     TIP3     H1       HT       0.417000       1.00800           0
     63255 TIP3     7953     TIP3     H2       HT       0.417000       1.00800           0
     63256 TIP3     7954     TIP3     OH2      OT      -0.834000       15.9994           0
     63257 TIP3     7954     TIP3     H1       HT       0.417000       1.00800           0
     63258 TIP3     7954     TIP3     H2       HT       0.417000       1.00800           0
     63259 TIP3     7955     TIP3     OH2      OT      -0.834000       15.9994           0
     63260 TIP3     7955     TIP3     H1       HT       0.417000       1.00800           0
     63261 TIP3     7955     TIP3     H2       HT       0.417000       1.00800           0
     63262 TIP3     7956     TIP3     OH2      OT      -0.834000       15.9994           0
     63263 TIP3     7956     TIP3     H1       HT       0.417000       1.00800           0
     63264 TIP3     7956     TIP3     H2       HT       0.417000       1.00800           0
     63265 TIP3     7957     TIP3     OH2      OT      -0.834000       15.9994           0
     63266 TIP3     7957     TIP3     H1       HT       0.417000       1.00800           0
     63267 TIP3     7957     TIP3     H2       HT       0.417000       1.00800           0
     63268 TIP3     7958     TIP3     OH2      OT      -0.834000       15.9994           0
     63269 TIP3     7958     TIP3     H1       HT       0.417000       1.00800           0
     63270 TIP3     7958     TIP3     H2       HT       0.417000       1.00800           0
     63271 TIP3     7959     TIP3     OH2      OT      -0.834000       15.9994           0
     63272 TIP3     7959     TIP3     H1       HT       0.417000       1.00800           0
     63273 TIP3     7959     TIP3     H2       HT       0.417000       1.00800           0
     63274 TIP3     7960     TIP3     OH2      OT      -0.834000       15.9994           0
     63275 TIP3     7960     TIP3     H1       HT       0.417000       1.00800           0
     63276 TIP3     7960     TIP3     H2       HT       0.417000       1.00800           0
     63277 TIP3     7961     TIP3     OH2      OT      -0.834000       15.9994           0
     63278 TIP3     7961     TIP3     H1       HT       0.417000       1.00800           0
     63279 TIP3     7961     TIP3     H2       HT       0.417000       1.00800           0
     63280 TIP3     7962     TIP3     OH2      OT      -0.834000       15.9994           0
     63281 TIP3     7962     TIP3     H1       HT       0.417000       1.00800           0
     63282 TIP3     7962     TIP3     H2       HT       0.417000       1.00800           0
     63283 TIP3     7963     TIP3     OH2      OT      -0.834000       15.9994           0
     63284 TIP3     7963     TIP3     H1       HT       0.417000       1.00800           0
     63285 TIP3     7963     TIP3     H2       HT       0.417000       1.00800           0
     63286 TIP3     7964     TIP3     OH2      OT      -0.834000       15.9994           0
     63287 TIP3     7964     TIP3     H1       HT       0.417000       1.00800           0
     63288 TIP3     7964     TIP3     H2       HT       0.417000       1.00800           0
     63289 TIP3     7965     TIP3     OH2      OT      -0.834000       15.9994           0
     63290 TIP3     7965     TIP3     H1       HT       0.417000       1.00800           0
     63291 TIP3     7965     TIP3     H2       HT       0.417000       1.00800           0
     63292 TIP3     7966     TIP3     OH2      OT      -0.834000       15.9994           0
     63293 TIP3     7966     TIP3     H1       HT       0.417000       1.00800           0
     63294 TIP3     7966     TIP3     H2       HT       0.417000       1.00800           0
     63295 TIP3     7967     TIP3     OH2      OT      -0.834000       15.9994           0
     63296 TIP3     7967     TIP3     H1       HT       0.417000       1.00800           0
     63297 TIP3     7967     TIP3     H2       HT       0.417000       1.00800           0
     63298 TIP3     7968     TIP3     OH2      OT      -0.834000       15.9994           0
     63299 TIP3     7968     TIP3     H1       HT       0.417000       1.00800           0
     63300 TIP3     7968     TIP3     H2       HT       0.417000       1.00800           0
     63301 TIP3     7969     TIP3     OH2      OT      -0.834000       15.9994           0
     63302 TIP3     7969     TIP3     H1       HT       0.417000       1.00800           0
     63303 TIP3     7969     TIP3     H2       HT       0.417000       1.00800           0
     63304 TIP3     7970     TIP3     OH2      OT      -0.834000       15.9994           0
     63305 TIP3     7970     TIP3     H1       HT       0.417000       1.00800           0
     63306 TIP3     7970     TIP3     H2       HT       0.417000       1.00800           0
     63307 TIP3     7971     TIP3     OH2      OT      -0.834000       15.9994           0
     63308 TIP3     7971     TIP3     H1       HT       0.417000       1.00800           0
     63309 TIP3     7971     TIP3     H2       HT       0.417000       1.00800           0
     63310 TIP3     7972     TIP3     OH2      OT      -0.834000       15.9994           0
     63311 TIP3     7972     TIP3     H1       HT       0.417000       1.00800           0
     63312 TIP3     7972     TIP3     H2       HT       0.417000       1.00800           0
     63313 TIP3     7973     TIP3     OH2      OT      -0.834000       15.9994           0
     63314 TIP3     7973     TIP3     H1       HT       0.417000       1.00800           0
     63315 TIP3     7973     TIP3     H2       HT       0.417000       1.00800           0
     63316 TIP3     7974     TIP3     OH2      OT      -0.834000       15.9994           0
     63317 TIP3     7974     TIP3     H1       HT       0.417000       1.00800           0
     63318 TIP3     7974     TIP3     H2       HT       0.417000       1.00800           0
     63319 TIP3     7975     TIP3     OH2      OT      -0.834000       15.9994           0
     63320 TIP3     7975     TIP3     H1       HT       0.417000       1.00800           0
     63321 TIP3     7975     TIP3     H2       HT       0.417000       1.00800           0
     63322 TIP3     7976     TIP3     OH2      OT      -0.834000       15.9994           0
     63323 TIP3     7976     TIP3     H1       HT       0.417000       1.00800           0
     63324 TIP3     7976     TIP3     H2       HT       0.417000       1.00800           0
     63325 TIP3     7977     TIP3     OH2      OT      -0.834000       15.9994           0
     63326 TIP3     7977     TIP3     H1       HT       0.417000       1.00800           0
     63327 TIP3     7977     TIP3     H2       HT       0.417000       1.00800           0
     63328 TIP3     7978     TIP3     OH2      OT      -0.834000       15.9994           0
     63329 TIP3     7978     TIP3     H1       HT       0.417000       1.00800           0
     63330 TIP3     7978     TIP3     H2       HT       0.417000       1.00800           0
     63331 TIP3     7979     TIP3     OH2      OT      -0.834000       15.9994           0
     63332 TIP3     7979     TIP3     H1       HT       0.417000       1.00800           0
     63333 TIP3     7979     TIP3     H2       HT       0.417000       1.00800           0
     63334 TIP3     7980     TIP3     OH2      OT      -0.834000       15.9994           0
     63335 TIP3     7980     TIP3     H1       HT       0.417000       1.00800           0
     63336 TIP3     7980     TIP3     H2       HT       0.417000       1.00800           0
     63337 TIP3     7981     TIP3     OH2      OT      -0.834000       15.9994           0
     63338 TIP3     7981     TIP3     H1       HT       0.417000       1.00800           0
     63339 TIP3     7981     TIP3     H2       HT       0.417000       1.00800           0
     63340 TIP3     7982     TIP3     OH2      OT      -0.834000       15.9994           0
     63341 TIP3     7982     TIP3     H1       HT       0.417000       1.00800           0
     63342 TIP3     7982     TIP3     H2       HT       0.417000       1.00800           0
     63343 TIP3     7983     TIP3     OH2      OT      -0.834000       15.9994           0
     63344 TIP3     7983     TIP3     H1       HT       0.417000       1.00800           0
     63345 TIP3     7983     TIP3     H2       HT       0.417000       1.00800           0
     63346 TIP3     7984     TIP3     OH2      OT      -0.834000       15.9994           0
     63347 TIP3     7984     TIP3     H1       HT       0.417000       1.00800           0
     63348 TIP3     7984     TIP3     H2       HT       0.417000       1.00800           0
     63349 TIP3     7985     TIP3     OH2      OT      -0.834000       15.9994           0
     63350 TIP3     7985     TIP3     H1       HT       0.417000       1.00800           0
     63351 TIP3     7985     TIP3     H2       HT       0.417000       1.00800           0
     63352 TIP3     7986     TIP3     OH2      OT      -0.834000       15.9994           0
     63353 TIP3     7986     TIP3     H1       HT       0.417000       1.00800           0
     63354 TIP3     7986     TIP3     H2       HT       0.417000       1.00800           0
     63355 TIP3     7987     TIP3     OH2      OT      -0.834000       15.9994           0
     63356 TIP3     7987     TIP3     H1       HT       0.417000       1.00800           0
     63357 TIP3     7987     TIP3     H2       HT       0.417000       1.00800           0
     63358 TIP3     7988     TIP3     OH2      OT      -0.834000       15.9994           0
     63359 TIP3     7988     TIP3     H1       HT       0.417000       1.00800           0
     63360 TIP3     7988     TIP3     H2       HT       0.417000       1.00800           0
     63361 TIP3     7989     TIP3     OH2      OT      -0.834000       15.9994           0
     63362 TIP3     7989     TIP3     H1       HT       0.417000       1.00800           0
     63363 TIP3     7989     TIP3     H2       HT       0.417000       1.00800           0
     63364 TIP3     7990     TIP3     OH2      OT      -0.834000       15.9994           0
     63365 TIP3     7990     TIP3     H1       HT       0.417000       1.00800           0
     63366 TIP3     7990     TIP3     H2       HT       0.417000       1.00800           0
     63367 TIP3     7991     TIP3     OH2      OT      -0.834000       15.9994           0
     63368 TIP3     7991     TIP3     H1       HT       0.417000       1.00800           0
     63369 TIP3     7991     TIP3     H2       HT       0.417000       1.00800           0
     63370 TIP3     7992     TIP3     OH2      OT      -0.834000       15.9994           0
     63371 TIP3     7992     TIP3     H1       HT       0.417000       1.00800           0
     63372 TIP3     7992     TIP3     H2       HT       0.417000       1.00800           0
     63373 TIP3     7993     TIP3     OH2      OT      -0.834000       15.9994           0
     63374 TIP3     7993     TIP3     H1       HT       0.417000       1.00800           0
     63375 TIP3     7993     TIP3     H2       HT       0.417000       1.00800           0
     63376 TIP3     7994     TIP3     OH2      OT      -0.834000       15.9994           0
     63377 TIP3     7994     TIP3     H1       HT       0.417000       1.00800           0
     63378 TIP3     7994     TIP3     H2       HT       0.417000       1.00800           0
     63379 TIP3     7995     TIP3     OH2      OT      -0.834000       15.9994           0
     63380 TIP3     7995     TIP3     H1       HT       0.417000       1.00800           0
     63381 TIP3     7995     TIP3     H2       HT       0.417000       1.00800           0
     63382 TIP3     7996     TIP3     OH2      OT      -0.834000       15.9994           0
     63383 TIP3     7996     TIP3     H1       HT       0.417000       1.00800           0
     63384 TIP3     7996     TIP3     H2       HT       0.417000       1.00800           0
     63385 TIP3     7997     TIP3     OH2      OT      -0.834000       15.9994           0
     63386 TIP3     7997     TIP3     H1       HT       0.417000       1.00800           0
     63387 TIP3     7997     TIP3     H2       HT       0.417000       1.00800           0
     63388 TIP3     7998     TIP3     OH2      OT      -0.834000       15.9994           0
     63389 TIP3     7998     TIP3     H1       HT       0.417000       1.00800           0
     63390 TIP3     7998     TIP3     H2       HT       0.417000       1.00800           0
     63391 TIP3     7999     TIP3     OH2      OT      -0.834000       15.9994           0
     63392 TIP3     7999     TIP3     H1       HT       0.417000       1.00800           0
     63393 TIP3     7999     TIP3     H2       HT       0.417000       1.00800           0
     63394 TIP3     8000     TIP3     OH2      OT      -0.834000       15.9994           0
     63395 TIP3     8000     TIP3     H1       HT       0.417000       1.00800           0
     63396 TIP3     8000     TIP3     H2       HT       0.417000       1.00800           0
     63397 TIP3     8001     TIP3     OH2      OT      -0.834000       15.9994           0
     63398 TIP3     8001     TIP3     H1       HT       0.417000       1.00800           0
     63399 TIP3     8001     TIP3     H2       HT       0.417000       1.00800           0
     63400 TIP3     8002     TIP3     OH2      OT      -0.834000       15.9994           0
     63401 TIP3     8002     TIP3     H1       HT       0.417000       1.00800           0
     63402 TIP3     8002     TIP3     H2       HT       0.417000       1.00800           0
     63403 TIP3     8003     TIP3     OH2      OT      -0.834000       15.9994           0
     63404 TIP3     8003     TIP3     H1       HT       0.417000       1.00800           0
     63405 TIP3     8003     TIP3     H2       HT       0.417000       1.00800           0
     63406 TIP3     8004     TIP3     OH2      OT      -0.834000       15.9994           0
     63407 TIP3     8004     TIP3     H1       HT       0.417000       1.00800           0
     63408 TIP3     8004     TIP3     H2       HT       0.417000       1.00800           0
     63409 TIP3     8005     TIP3     OH2      OT      -0.834000       15.9994           0
     63410 TIP3     8005     TIP3     H1       HT       0.417000       1.00800           0
     63411 TIP3     8005     TIP3     H2       HT       0.417000       1.00800           0
     63412 TIP3     8006     TIP3     OH2      OT      -0.834000       15.9994           0
     63413 TIP3     8006     TIP3     H1       HT       0.417000       1.00800           0
     63414 TIP3     8006     TIP3     H2       HT       0.417000       1.00800           0
     63415 TIP3     8007     TIP3     OH2      OT      -0.834000       15.9994           0
     63416 TIP3     8007     TIP3     H1       HT       0.417000       1.00800           0
     63417 TIP3     8007     TIP3     H2       HT       0.417000       1.00800           0
     63418 TIP3     8008     TIP3     OH2      OT      -0.834000       15.9994           0
     63419 TIP3     8008     TIP3     H1       HT       0.417000       1.00800           0
     63420 TIP3     8008     TIP3     H2       HT       0.417000       1.00800           0
     63421 TIP3     8009     TIP3     OH2      OT      -0.834000       15.9994           0
     63422 TIP3     8009     TIP3     H1       HT       0.417000       1.00800           0
     63423 TIP3     8009     TIP3     H2       HT       0.417000       1.00800           0
     63424 TIP3     8010     TIP3     OH2      OT      -0.834000       15.9994           0
     63425 TIP3     8010     TIP3     H1       HT       0.417000       1.00800           0
     63426 TIP3     8010     TIP3     H2       HT       0.417000       1.00800           0
     63427 TIP3     8011     TIP3     OH2      OT      -0.834000       15.9994           0
     63428 TIP3     8011     TIP3     H1       HT       0.417000       1.00800           0
     63429 TIP3     8011     TIP3     H2       HT       0.417000       1.00800           0
     63430 TIP3     8012     TIP3     OH2      OT      -0.834000       15.9994           0
     63431 TIP3     8012     TIP3     H1       HT       0.417000       1.00800           0
     63432 TIP3     8012     TIP3     H2       HT       0.417000       1.00800           0
     63433 TIP3     8013     TIP3     OH2      OT      -0.834000       15.9994           0
     63434 TIP3     8013     TIP3     H1       HT       0.417000       1.00800           0
     63435 TIP3     8013     TIP3     H2       HT       0.417000       1.00800           0
     63436 TIP3     8014     TIP3     OH2      OT      -0.834000       15.9994           0
     63437 TIP3     8014     TIP3     H1       HT       0.417000       1.00800           0
     63438 TIP3     8014     TIP3     H2       HT       0.417000       1.00800           0
     63439 TIP3     8015     TIP3     OH2      OT      -0.834000       15.9994           0
     63440 TIP3     8015     TIP3     H1       HT       0.417000       1.00800           0
     63441 TIP3     8015     TIP3     H2       HT       0.417000       1.00800           0
     63442 TIP3     8016     TIP3     OH2      OT      -0.834000       15.9994           0
     63443 TIP3     8016     TIP3     H1       HT       0.417000       1.00800           0
     63444 TIP3     8016     TIP3     H2       HT       0.417000       1.00800           0
     63445 TIP3     8017     TIP3     OH2      OT      -0.834000       15.9994           0
     63446 TIP3     8017     TIP3     H1       HT       0.417000       1.00800           0
     63447 TIP3     8017     TIP3     H2       HT       0.417000       1.00800           0
     63448 TIP3     8018     TIP3     OH2      OT      -0.834000       15.9994           0
     63449 TIP3     8018     TIP3     H1       HT       0.417000       1.00800           0
     63450 TIP3     8018     TIP3     H2       HT       0.417000       1.00800           0
     63451 TIP3     8019     TIP3     OH2      OT      -0.834000       15.9994           0
     63452 TIP3     8019     TIP3     H1       HT       0.417000       1.00800           0
     63453 TIP3     8019     TIP3     H2       HT       0.417000       1.00800           0
     63454 TIP3     8020     TIP3     OH2      OT      -0.834000       15.9994           0
     63455 TIP3     8020     TIP3     H1       HT       0.417000       1.00800           0
     63456 TIP3     8020     TIP3     H2       HT       0.417000       1.00800           0
     63457 TIP3     8021     TIP3     OH2      OT      -0.834000       15.9994           0
     63458 TIP3     8021     TIP3     H1       HT       0.417000       1.00800           0
     63459 TIP3     8021     TIP3     H2       HT       0.417000       1.00800           0
     63460 TIP3     8022     TIP3     OH2      OT      -0.834000       15.9994           0
     63461 TIP3     8022     TIP3     H1       HT       0.417000       1.00800           0
     63462 TIP3     8022     TIP3     H2       HT       0.417000       1.00800           0
     63463 TIP3     8023     TIP3     OH2      OT      -0.834000       15.9994           0
     63464 TIP3     8023     TIP3     H1       HT       0.417000       1.00800           0
     63465 TIP3     8023     TIP3     H2       HT       0.417000       1.00800           0
     63466 TIP3     8024     TIP3     OH2      OT      -0.834000       15.9994           0
     63467 TIP3     8024     TIP3     H1       HT       0.417000       1.00800           0
     63468 TIP3     8024     TIP3     H2       HT       0.417000       1.00800           0
     63469 TIP3     8025     TIP3     OH2      OT      -0.834000       15.9994           0
     63470 TIP3     8025     TIP3     H1       HT       0.417000       1.00800           0
     63471 TIP3     8025     TIP3     H2       HT       0.417000       1.00800           0
     63472 TIP3     8026     TIP3     OH2      OT      -0.834000       15.9994           0
     63473 TIP3     8026     TIP3     H1       HT       0.417000       1.00800           0
     63474 TIP3     8026     TIP3     H2       HT       0.417000       1.00800           0
     63475 TIP3     8027     TIP3     OH2      OT      -0.834000       15.9994           0
     63476 TIP3     8027     TIP3     H1       HT       0.417000       1.00800           0
     63477 TIP3     8027     TIP3     H2       HT       0.417000       1.00800           0
     63478 TIP3     8028     TIP3     OH2      OT      -0.834000       15.9994           0
     63479 TIP3     8028     TIP3     H1       HT       0.417000       1.00800           0
     63480 TIP3     8028     TIP3     H2       HT       0.417000       1.00800           0
     63481 TIP3     8029     TIP3     OH2      OT      -0.834000       15.9994           0
     63482 TIP3     8029     TIP3     H1       HT       0.417000       1.00800           0
     63483 TIP3     8029     TIP3     H2       HT       0.417000       1.00800           0
     63484 TIP3     8030     TIP3     OH2      OT      -0.834000       15.9994           0
     63485 TIP3     8030     TIP3     H1       HT       0.417000       1.00800           0
     63486 TIP3     8030     TIP3     H2       HT       0.417000       1.00800           0
     63487 TIP3     8031     TIP3     OH2      OT      -0.834000       15.9994           0
     63488 TIP3     8031     TIP3     H1       HT       0.417000       1.00800           0
     63489 TIP3     8031     TIP3     H2       HT       0.417000       1.00800           0
     63490 TIP3     8032     TIP3     OH2      OT      -0.834000       15.9994           0
     63491 TIP3     8032     TIP3     H1       HT       0.417000       1.00800           0
     63492 TIP3     8032     TIP3     H2       HT       0.417000       1.00800           0
     63493 TIP3     8033     TIP3     OH2      OT      -0.834000       15.9994           0
     63494 TIP3     8033     TIP3     H1       HT       0.417000       1.00800           0
     63495 TIP3     8033     TIP3     H2       HT       0.417000       1.00800           0
     63496 TIP3     8034     TIP3     OH2      OT      -0.834000       15.9994           0
     63497 TIP3     8034     TIP3     H1       HT       0.417000       1.00800           0
     63498 TIP3     8034     TIP3     H2       HT       0.417000       1.00800           0
     63499 TIP3     8035     TIP3     OH2      OT      -0.834000       15.9994           0
     63500 TIP3     8035     TIP3     H1       HT       0.417000       1.00800           0
     63501 TIP3     8035     TIP3     H2       HT       0.417000       1.00800           0
     63502 TIP3     8036     TIP3     OH2      OT      -0.834000       15.9994           0
     63503 TIP3     8036     TIP3     H1       HT       0.417000       1.00800           0
     63504 TIP3     8036     TIP3     H2       HT       0.417000       1.00800           0
     63505 TIP3     8037     TIP3     OH2      OT      -0.834000       15.9994           0
     63506 TIP3     8037     TIP3     H1       HT       0.417000       1.00800           0
     63507 TIP3     8037     TIP3     H2       HT       0.417000       1.00800           0
     63508 TIP3     8038     TIP3     OH2      OT      -0.834000       15.9994           0
     63509 TIP3     8038     TIP3     H1       HT       0.417000       1.00800           0
     63510 TIP3     8038     TIP3     H2       HT       0.417000       1.00800           0
     63511 TIP3     8039     TIP3     OH2      OT      -0.834000       15.9994           0
     63512 TIP3     8039     TIP3     H1       HT       0.417000       1.00800           0
     63513 TIP3     8039     TIP3     H2       HT       0.417000       1.00800           0
     63514 TIP3     8040     TIP3     OH2      OT      -0.834000       15.9994           0
     63515 TIP3     8040     TIP3     H1       HT       0.417000       1.00800           0
     63516 TIP3     8040     TIP3     H2       HT       0.417000       1.00800           0
     63517 TIP3     8041     TIP3     OH2      OT      -0.834000       15.9994           0
     63518 TIP3     8041     TIP3     H1       HT       0.417000       1.00800           0
     63519 TIP3     8041     TIP3     H2       HT       0.417000       1.00800           0
     63520 TIP3     8042     TIP3     OH2      OT      -0.834000       15.9994           0
     63521 TIP3     8042     TIP3     H1       HT       0.417000       1.00800           0
     63522 TIP3     8042     TIP3     H2       HT       0.417000       1.00800           0
     63523 TIP3     8043     TIP3     OH2      OT      -0.834000       15.9994           0
     63524 TIP3     8043     TIP3     H1       HT       0.417000       1.00800           0
     63525 TIP3     8043     TIP3     H2       HT       0.417000       1.00800           0
     63526 TIP3     8044     TIP3     OH2      OT      -0.834000       15.9994           0
     63527 TIP3     8044     TIP3     H1       HT       0.417000       1.00800           0
     63528 TIP3     8044     TIP3     H2       HT       0.417000       1.00800           0
     63529 TIP3     8045     TIP3     OH2      OT      -0.834000       15.9994           0
     63530 TIP3     8045     TIP3     H1       HT       0.417000       1.00800           0
     63531 TIP3     8045     TIP3     H2       HT       0.417000       1.00800           0
     63532 TIP3     8046     TIP3     OH2      OT      -0.834000       15.9994           0
     63533 TIP3     8046     TIP3     H1       HT       0.417000       1.00800           0
     63534 TIP3     8046     TIP3     H2       HT       0.417000       1.00800           0
     63535 TIP3     8047     TIP3     OH2      OT      -0.834000       15.9994           0
     63536 TIP3     8047     TIP3     H1       HT       0.417000       1.00800           0
     63537 TIP3     8047     TIP3     H2       HT       0.417000       1.00800           0
     63538 TIP3     8048     TIP3     OH2      OT      -0.834000       15.9994           0
     63539 TIP3     8048     TIP3     H1       HT       0.417000       1.00800           0
     63540 TIP3     8048     TIP3     H2       HT       0.417000       1.00800           0
     63541 TIP3     8049     TIP3     OH2      OT      -0.834000       15.9994           0
     63542 TIP3     8049     TIP3     H1       HT       0.417000       1.00800           0
     63543 TIP3     8049     TIP3     H2       HT       0.417000       1.00800           0
     63544 TIP3     8050     TIP3     OH2      OT      -0.834000       15.9994           0
     63545 TIP3     8050     TIP3     H1       HT       0.417000       1.00800           0
     63546 TIP3     8050     TIP3     H2       HT       0.417000       1.00800           0
     63547 TIP3     8051     TIP3     OH2      OT      -0.834000       15.9994           0
     63548 TIP3     8051     TIP3     H1       HT       0.417000       1.00800           0
     63549 TIP3     8051     TIP3     H2       HT       0.417000       1.00800           0
     63550 TIP3     8052     TIP3     OH2      OT      -0.834000       15.9994           0
     63551 TIP3     8052     TIP3     H1       HT       0.417000       1.00800           0
     63552 TIP3     8052     TIP3     H2       HT       0.417000       1.00800           0
     63553 TIP3     8053     TIP3     OH2      OT      -0.834000       15.9994           0
     63554 TIP3     8053     TIP3     H1       HT       0.417000       1.00800           0
     63555 TIP3     8053     TIP3     H2       HT       0.417000       1.00800           0
     63556 TIP3     8054     TIP3     OH2      OT      -0.834000       15.9994           0
     63557 TIP3     8054     TIP3     H1       HT       0.417000       1.00800           0
     63558 TIP3     8054     TIP3     H2       HT       0.417000       1.00800           0
     63559 TIP3     8055     TIP3     OH2      OT      -0.834000       15.9994           0
     63560 TIP3     8055     TIP3     H1       HT       0.417000       1.00800           0
     63561 TIP3     8055     TIP3     H2       HT       0.417000       1.00800           0
     63562 TIP3     8056     TIP3     OH2      OT      -0.834000       15.9994           0
     63563 TIP3     8056     TIP3     H1       HT       0.417000       1.00800           0
     63564 TIP3     8056     TIP3     H2       HT       0.417000       1.00800           0
     63565 TIP3     8057     TIP3     OH2      OT      -0.834000       15.9994           0
     63566 TIP3     8057     TIP3     H1       HT       0.417000       1.00800           0
     63567 TIP3     8057     TIP3     H2       HT       0.417000       1.00800           0
     63568 TIP3     8058     TIP3     OH2      OT      -0.834000       15.9994           0
     63569 TIP3     8058     TIP3     H1       HT       0.417000       1.00800           0
     63570 TIP3     8058     TIP3     H2       HT       0.417000       1.00800           0
     63571 TIP3     8059     TIP3     OH2      OT      -0.834000       15.9994           0
     63572 TIP3     8059     TIP3     H1       HT       0.417000       1.00800           0
     63573 TIP3     8059     TIP3     H2       HT       0.417000       1.00800           0
     63574 TIP3     8060     TIP3     OH2      OT      -0.834000       15.9994           0
     63575 TIP3     8060     TIP3     H1       HT       0.417000       1.00800           0
     63576 TIP3     8060     TIP3     H2       HT       0.417000       1.00800           0
     63577 TIP3     8061     TIP3     OH2      OT      -0.834000       15.9994           0
     63578 TIP3     8061     TIP3     H1       HT       0.417000       1.00800           0
     63579 TIP3     8061     TIP3     H2       HT       0.417000       1.00800           0
     63580 TIP3     8062     TIP3     OH2      OT      -0.834000       15.9994           0
     63581 TIP3     8062     TIP3     H1       HT       0.417000       1.00800           0
     63582 TIP3     8062     TIP3     H2       HT       0.417000       1.00800           0
     63583 TIP3     8063     TIP3     OH2      OT      -0.834000       15.9994           0
     63584 TIP3     8063     TIP3     H1       HT       0.417000       1.00800           0
     63585 TIP3     8063     TIP3     H2       HT       0.417000       1.00800           0
     63586 TIP3     8064     TIP3     OH2      OT      -0.834000       15.9994           0
     63587 TIP3     8064     TIP3     H1       HT       0.417000       1.00800           0
     63588 TIP3     8064     TIP3     H2       HT       0.417000       1.00800           0
     63589 TIP3     8065     TIP3     OH2      OT      -0.834000       15.9994           0
     63590 TIP3     8065     TIP3     H1       HT       0.417000       1.00800           0
     63591 TIP3     8065     TIP3     H2       HT       0.417000       1.00800           0
     63592 TIP3     8066     TIP3     OH2      OT      -0.834000       15.9994           0
     63593 TIP3     8066     TIP3     H1       HT       0.417000       1.00800           0
     63594 TIP3     8066     TIP3     H2       HT       0.417000       1.00800           0
     63595 TIP3     8067     TIP3     OH2      OT      -0.834000       15.9994           0
     63596 TIP3     8067     TIP3     H1       HT       0.417000       1.00800           0
     63597 TIP3     8067     TIP3     H2       HT       0.417000       1.00800           0
     63598 TIP3     8068     TIP3     OH2      OT      -0.834000       15.9994           0
     63599 TIP3     8068     TIP3     H1       HT       0.417000       1.00800           0
     63600 TIP3     8068     TIP3     H2       HT       0.417000       1.00800           0
     63601 TIP3     8069     TIP3     OH2      OT      -0.834000       15.9994           0
     63602 TIP3     8069     TIP3     H1       HT       0.417000       1.00800           0
     63603 TIP3     8069     TIP3     H2       HT       0.417000       1.00800           0
     63604 TIP3     8070     TIP3     OH2      OT      -0.834000       15.9994           0
     63605 TIP3     8070     TIP3     H1       HT       0.417000       1.00800           0
     63606 TIP3     8070     TIP3     H2       HT       0.417000       1.00800           0
     63607 TIP3     8071     TIP3     OH2      OT      -0.834000       15.9994           0
     63608 TIP3     8071     TIP3     H1       HT       0.417000       1.00800           0
     63609 TIP3     8071     TIP3     H2       HT       0.417000       1.00800           0
     63610 TIP3     8072     TIP3     OH2      OT      -0.834000       15.9994           0
     63611 TIP3     8072     TIP3     H1       HT       0.417000       1.00800           0
     63612 TIP3     8072     TIP3     H2       HT       0.417000       1.00800           0
     63613 TIP3     8073     TIP3     OH2      OT      -0.834000       15.9994           0
     63614 TIP3     8073     TIP3     H1       HT       0.417000       1.00800           0
     63615 TIP3     8073     TIP3     H2       HT       0.417000       1.00800           0
     63616 TIP3     8074     TIP3     OH2      OT      -0.834000       15.9994           0
     63617 TIP3     8074     TIP3     H1       HT       0.417000       1.00800           0
     63618 TIP3     8074     TIP3     H2       HT       0.417000       1.00800           0
     63619 TIP3     8075     TIP3     OH2      OT      -0.834000       15.9994           0
     63620 TIP3     8075     TIP3     H1       HT       0.417000       1.00800           0
     63621 TIP3     8075     TIP3     H2       HT       0.417000       1.00800           0
     63622 TIP3     8076     TIP3     OH2      OT      -0.834000       15.9994           0
     63623 TIP3     8076     TIP3     H1       HT       0.417000       1.00800           0
     63624 TIP3     8076     TIP3     H2       HT       0.417000       1.00800           0
     63625 TIP3     8077     TIP3     OH2      OT      -0.834000       15.9994           0
     63626 TIP3     8077     TIP3     H1       HT       0.417000       1.00800           0
     63627 TIP3     8077     TIP3     H2       HT       0.417000       1.00800           0
     63628 TIP3     8078     TIP3     OH2      OT      -0.834000       15.9994           0
     63629 TIP3     8078     TIP3     H1       HT       0.417000       1.00800           0
     63630 TIP3     8078     TIP3     H2       HT       0.417000       1.00800           0
     63631 TIP3     8079     TIP3     OH2      OT      -0.834000       15.9994           0
     63632 TIP3     8079     TIP3     H1       HT       0.417000       1.00800           0
     63633 TIP3     8079     TIP3     H2       HT       0.417000       1.00800           0
     63634 TIP3     8080     TIP3     OH2      OT      -0.834000       15.9994           0
     63635 TIP3     8080     TIP3     H1       HT       0.417000       1.00800           0
     63636 TIP3     8080     TIP3     H2       HT       0.417000       1.00800           0
     63637 TIP3     8081     TIP3     OH2      OT      -0.834000       15.9994           0
     63638 TIP3     8081     TIP3     H1       HT       0.417000       1.00800           0
     63639 TIP3     8081     TIP3     H2       HT       0.417000       1.00800           0
     63640 TIP3     8082     TIP3     OH2      OT      -0.834000       15.9994           0
     63641 TIP3     8082     TIP3     H1       HT       0.417000       1.00800           0
     63642 TIP3     8082     TIP3     H2       HT       0.417000       1.00800           0
     63643 TIP3     8083     TIP3     OH2      OT      -0.834000       15.9994           0
     63644 TIP3     8083     TIP3     H1       HT       0.417000       1.00800           0
     63645 TIP3     8083     TIP3     H2       HT       0.417000       1.00800           0
     63646 TIP3     8084     TIP3     OH2      OT      -0.834000       15.9994           0
     63647 TIP3     8084     TIP3     H1       HT       0.417000       1.00800           0
     63648 TIP3     8084     TIP3     H2       HT       0.417000       1.00800           0
     63649 TIP3     8085     TIP3     OH2      OT      -0.834000       15.9994           0
     63650 TIP3     8085     TIP3     H1       HT       0.417000       1.00800           0
     63651 TIP3     8085     TIP3     H2       HT       0.417000       1.00800           0
     63652 TIP3     8086     TIP3     OH2      OT      -0.834000       15.9994           0
     63653 TIP3     8086     TIP3     H1       HT       0.417000       1.00800           0
     63654 TIP3     8086     TIP3     H2       HT       0.417000       1.00800           0
     63655 TIP3     8087     TIP3     OH2      OT      -0.834000       15.9994           0
     63656 TIP3     8087     TIP3     H1       HT       0.417000       1.00800           0
     63657 TIP3     8087     TIP3     H2       HT       0.417000       1.00800           0
     63658 TIP3     8088     TIP3     OH2      OT      -0.834000       15.9994           0
     63659 TIP3     8088     TIP3     H1       HT       0.417000       1.00800           0
     63660 TIP3     8088     TIP3     H2       HT       0.417000       1.00800           0
     63661 TIP3     8089     TIP3     OH2      OT      -0.834000       15.9994           0
     63662 TIP3     8089     TIP3     H1       HT       0.417000       1.00800           0
     63663 TIP3     8089     TIP3     H2       HT       0.417000       1.00800           0
     63664 TIP3     8090     TIP3     OH2      OT      -0.834000       15.9994           0
     63665 TIP3     8090     TIP3     H1       HT       0.417000       1.00800           0
     63666 TIP3     8090     TIP3     H2       HT       0.417000       1.00800           0
     63667 TIP3     8091     TIP3     OH2      OT      -0.834000       15.9994           0
     63668 TIP3     8091     TIP3     H1       HT       0.417000       1.00800           0
     63669 TIP3     8091     TIP3     H2       HT       0.417000       1.00800           0
     63670 TIP3     8092     TIP3     OH2      OT      -0.834000       15.9994           0
     63671 TIP3     8092     TIP3     H1       HT       0.417000       1.00800           0
     63672 TIP3     8092     TIP3     H2       HT       0.417000       1.00800           0
     63673 TIP3     8093     TIP3     OH2      OT      -0.834000       15.9994           0
     63674 TIP3     8093     TIP3     H1       HT       0.417000       1.00800           0
     63675 TIP3     8093     TIP3     H2       HT       0.417000       1.00800           0
     63676 TIP3     8094     TIP3     OH2      OT      -0.834000       15.9994           0
     63677 TIP3     8094     TIP3     H1       HT       0.417000       1.00800           0
     63678 TIP3     8094     TIP3     H2       HT       0.417000       1.00800           0
     63679 TIP3     8095     TIP3     OH2      OT      -0.834000       15.9994           0
     63680 TIP3     8095     TIP3     H1       HT       0.417000       1.00800           0
     63681 TIP3     8095     TIP3     H2       HT       0.417000       1.00800           0
     63682 TIP3     8096     TIP3     OH2      OT      -0.834000       15.9994           0
     63683 TIP3     8096     TIP3     H1       HT       0.417000       1.00800           0
     63684 TIP3     8096     TIP3     H2       HT       0.417000       1.00800           0
     63685 TIP3     8097     TIP3     OH2      OT      -0.834000       15.9994           0
     63686 TIP3     8097     TIP3     H1       HT       0.417000       1.00800           0
     63687 TIP3     8097     TIP3     H2       HT       0.417000       1.00800           0
     63688 TIP3     8098     TIP3     OH2      OT      -0.834000       15.9994           0
     63689 TIP3     8098     TIP3     H1       HT       0.417000       1.00800           0
     63690 TIP3     8098     TIP3     H2       HT       0.417000       1.00800           0
     63691 TIP3     8099     TIP3     OH2      OT      -0.834000       15.9994           0
     63692 TIP3     8099     TIP3     H1       HT       0.417000       1.00800           0
     63693 TIP3     8099     TIP3     H2       HT       0.417000       1.00800           0
     63694 TIP3     8100     TIP3     OH2      OT      -0.834000       15.9994           0
     63695 TIP3     8100     TIP3     H1       HT       0.417000       1.00800           0
     63696 TIP3     8100     TIP3     H2       HT       0.417000       1.00800           0
     63697 TIP3     8101     TIP3     OH2      OT      -0.834000       15.9994           0
     63698 TIP3     8101     TIP3     H1       HT       0.417000       1.00800           0
     63699 TIP3     8101     TIP3     H2       HT       0.417000       1.00800           0
     63700 TIP3     8102     TIP3     OH2      OT      -0.834000       15.9994           0
     63701 TIP3     8102     TIP3     H1       HT       0.417000       1.00800           0
     63702 TIP3     8102     TIP3     H2       HT       0.417000       1.00800           0
     63703 TIP3     8103     TIP3     OH2      OT      -0.834000       15.9994           0
     63704 TIP3     8103     TIP3     H1       HT       0.417000       1.00800           0
     63705 TIP3     8103     TIP3     H2       HT       0.417000       1.00800           0
     63706 TIP3     8104     TIP3     OH2      OT      -0.834000       15.9994           0
     63707 TIP3     8104     TIP3     H1       HT       0.417000       1.00800           0
     63708 TIP3     8104     TIP3     H2       HT       0.417000       1.00800           0
     63709 TIP3     8105     TIP3     OH2      OT      -0.834000       15.9994           0
     63710 TIP3     8105     TIP3     H1       HT       0.417000       1.00800           0
     63711 TIP3     8105     TIP3     H2       HT       0.417000       1.00800           0
     63712 TIP3     8106     TIP3     OH2      OT      -0.834000       15.9994           0
     63713 TIP3     8106     TIP3     H1       HT       0.417000       1.00800           0
     63714 TIP3     8106     TIP3     H2       HT       0.417000       1.00800           0
     63715 TIP3     8107     TIP3     OH2      OT      -0.834000       15.9994           0
     63716 TIP3     8107     TIP3     H1       HT       0.417000       1.00800           0
     63717 TIP3     8107     TIP3     H2       HT       0.417000       1.00800           0
     63718 TIP3     8108     TIP3     OH2      OT      -0.834000       15.9994           0
     63719 TIP3     8108     TIP3     H1       HT       0.417000       1.00800           0
     63720 TIP3     8108     TIP3     H2       HT       0.417000       1.00800           0
     63721 TIP3     8109     TIP3     OH2      OT      -0.834000       15.9994           0
     63722 TIP3     8109     TIP3     H1       HT       0.417000       1.00800           0
     63723 TIP3     8109     TIP3     H2       HT       0.417000       1.00800           0
     63724 TIP3     8110     TIP3     OH2      OT      -0.834000       15.9994           0
     63725 TIP3     8110     TIP3     H1       HT       0.417000       1.00800           0
     63726 TIP3     8110     TIP3     H2       HT       0.417000       1.00800           0
     63727 TIP3     8111     TIP3     OH2      OT      -0.834000       15.9994           0
     63728 TIP3     8111     TIP3     H1       HT       0.417000       1.00800           0
     63729 TIP3     8111     TIP3     H2       HT       0.417000       1.00800           0
     63730 TIP3     8112     TIP3     OH2      OT      -0.834000       15.9994           0
     63731 TIP3     8112     TIP3     H1       HT       0.417000       1.00800           0
     63732 TIP3     8112     TIP3     H2       HT       0.417000       1.00800           0
     63733 TIP3     8113     TIP3     OH2      OT      -0.834000       15.9994           0
     63734 TIP3     8113     TIP3     H1       HT       0.417000       1.00800           0
     63735 TIP3     8113     TIP3     H2       HT       0.417000       1.00800           0
     63736 TIP3     8114     TIP3     OH2      OT      -0.834000       15.9994           0
     63737 TIP3     8114     TIP3     H1       HT       0.417000       1.00800           0
     63738 TIP3     8114     TIP3     H2       HT       0.417000       1.00800           0
     63739 TIP3     8115     TIP3     OH2      OT      -0.834000       15.9994           0
     63740 TIP3     8115     TIP3     H1       HT       0.417000       1.00800           0
     63741 TIP3     8115     TIP3     H2       HT       0.417000       1.00800           0
     63742 TIP3     8116     TIP3     OH2      OT      -0.834000       15.9994           0
     63743 TIP3     8116     TIP3     H1       HT       0.417000       1.00800           0
     63744 TIP3     8116     TIP3     H2       HT       0.417000       1.00800           0
     63745 TIP3     8117     TIP3     OH2      OT      -0.834000       15.9994           0
     63746 TIP3     8117     TIP3     H1       HT       0.417000       1.00800           0
     63747 TIP3     8117     TIP3     H2       HT       0.417000       1.00800           0
     63748 TIP3     8118     TIP3     OH2      OT      -0.834000       15.9994           0
     63749 TIP3     8118     TIP3     H1       HT       0.417000       1.00800           0
     63750 TIP3     8118     TIP3     H2       HT       0.417000       1.00800           0
     63751 TIP3     8119     TIP3     OH2      OT      -0.834000       15.9994           0
     63752 TIP3     8119     TIP3     H1       HT       0.417000       1.00800           0
     63753 TIP3     8119     TIP3     H2       HT       0.417000       1.00800           0
     63754 TIP3     8120     TIP3     OH2      OT      -0.834000       15.9994           0
     63755 TIP3     8120     TIP3     H1       HT       0.417000       1.00800           0
     63756 TIP3     8120     TIP3     H2       HT       0.417000       1.00800           0
     63757 TIP3     8121     TIP3     OH2      OT      -0.834000       15.9994           0
     63758 TIP3     8121     TIP3     H1       HT       0.417000       1.00800           0
     63759 TIP3     8121     TIP3     H2       HT       0.417000       1.00800           0
     63760 TIP3     8122     TIP3     OH2      OT      -0.834000       15.9994           0
     63761 TIP3     8122     TIP3     H1       HT       0.417000       1.00800           0
     63762 TIP3     8122     TIP3     H2       HT       0.417000       1.00800           0
     63763 TIP3     8123     TIP3     OH2      OT      -0.834000       15.9994           0
     63764 TIP3     8123     TIP3     H1       HT       0.417000       1.00800           0
     63765 TIP3     8123     TIP3     H2       HT       0.417000       1.00800           0
     63766 TIP3     8124     TIP3     OH2      OT      -0.834000       15.9994           0
     63767 TIP3     8124     TIP3     H1       HT       0.417000       1.00800           0
     63768 TIP3     8124     TIP3     H2       HT       0.417000       1.00800           0
     63769 TIP3     8125     TIP3     OH2      OT      -0.834000       15.9994           0
     63770 TIP3     8125     TIP3     H1       HT       0.417000       1.00800           0
     63771 TIP3     8125     TIP3     H2       HT       0.417000       1.00800           0
     63772 TIP3     8126     TIP3     OH2      OT      -0.834000       15.9994           0
     63773 TIP3     8126     TIP3     H1       HT       0.417000       1.00800           0
     63774 TIP3     8126     TIP3     H2       HT       0.417000       1.00800           0
     63775 TIP3     8127     TIP3     OH2      OT      -0.834000       15.9994           0
     63776 TIP3     8127     TIP3     H1       HT       0.417000       1.00800           0
     63777 TIP3     8127     TIP3     H2       HT       0.417000       1.00800           0
     63778 TIP3     8128     TIP3     OH2      OT      -0.834000       15.9994           0
     63779 TIP3     8128     TIP3     H1       HT       0.417000       1.00800           0
     63780 TIP3     8128     TIP3     H2       HT       0.417000       1.00800           0
     63781 TIP3     8129     TIP3     OH2      OT      -0.834000       15.9994           0
     63782 TIP3     8129     TIP3     H1       HT       0.417000       1.00800           0
     63783 TIP3     8129     TIP3     H2       HT       0.417000       1.00800           0
     63784 TIP3     8130     TIP3     OH2      OT      -0.834000       15.9994           0
     63785 TIP3     8130     TIP3     H1       HT       0.417000       1.00800           0
     63786 TIP3     8130     TIP3     H2       HT       0.417000       1.00800           0
     63787 TIP3     8131     TIP3     OH2      OT      -0.834000       15.9994           0
     63788 TIP3     8131     TIP3     H1       HT       0.417000       1.00800           0
     63789 TIP3     8131     TIP3     H2       HT       0.417000       1.00800           0
     63790 TIP3     8132     TIP3     OH2      OT      -0.834000       15.9994           0
     63791 TIP3     8132     TIP3     H1       HT       0.417000       1.00800           0
     63792 TIP3     8132     TIP3     H2       HT       0.417000       1.00800           0
     63793 TIP3     8133     TIP3     OH2      OT      -0.834000       15.9994           0
     63794 TIP3     8133     TIP3     H1       HT       0.417000       1.00800           0
     63795 TIP3     8133     TIP3     H2       HT       0.417000       1.00800           0
     63796 TIP3     8134     TIP3     OH2      OT      -0.834000       15.9994           0
     63797 TIP3     8134     TIP3     H1       HT       0.417000       1.00800           0
     63798 TIP3     8134     TIP3     H2       HT       0.417000       1.00800           0
     63799 TIP3     8135     TIP3     OH2      OT      -0.834000       15.9994           0
     63800 TIP3     8135     TIP3     H1       HT       0.417000       1.00800           0
     63801 TIP3     8135     TIP3     H2       HT       0.417000       1.00800           0
     63802 TIP3     8136     TIP3     OH2      OT      -0.834000       15.9994           0
     63803 TIP3     8136     TIP3     H1       HT       0.417000       1.00800           0
     63804 TIP3     8136     TIP3     H2       HT       0.417000       1.00800           0
     63805 TIP3     8137     TIP3     OH2      OT      -0.834000       15.9994           0
     63806 TIP3     8137     TIP3     H1       HT       0.417000       1.00800           0
     63807 TIP3     8137     TIP3     H2       HT       0.417000       1.00800           0
     63808 TIP3     8138     TIP3     OH2      OT      -0.834000       15.9994           0
     63809 TIP3     8138     TIP3     H1       HT       0.417000       1.00800           0
     63810 TIP3     8138     TIP3     H2       HT       0.417000       1.00800           0
     63811 TIP3     8139     TIP3     OH2      OT      -0.834000       15.9994           0
     63812 TIP3     8139     TIP3     H1       HT       0.417000       1.00800           0
     63813 TIP3     8139     TIP3     H2       HT       0.417000       1.00800           0
     63814 TIP3     8140     TIP3     OH2      OT      -0.834000       15.9994           0
     63815 TIP3     8140     TIP3     H1       HT       0.417000       1.00800           0
     63816 TIP3     8140     TIP3     H2       HT       0.417000       1.00800           0
     63817 TIP3     8141     TIP3     OH2      OT      -0.834000       15.9994           0
     63818 TIP3     8141     TIP3     H1       HT       0.417000       1.00800           0
     63819 TIP3     8141     TIP3     H2       HT       0.417000       1.00800           0
     63820 TIP3     8142     TIP3     OH2      OT      -0.834000       15.9994           0
     63821 TIP3     8142     TIP3     H1       HT       0.417000       1.00800           0
     63822 TIP3     8142     TIP3     H2       HT       0.417000       1.00800           0
     63823 TIP3     8143     TIP3     OH2      OT      -0.834000       15.9994           0
     63824 TIP3     8143     TIP3     H1       HT       0.417000       1.00800           0
     63825 TIP3     8143     TIP3     H2       HT       0.417000       1.00800           0
     63826 TIP3     8144     TIP3     OH2      OT      -0.834000       15.9994           0
     63827 TIP3     8144     TIP3     H1       HT       0.417000       1.00800           0
     63828 TIP3     8144     TIP3     H2       HT       0.417000       1.00800           0
     63829 TIP3     8145     TIP3     OH2      OT      -0.834000       15.9994           0
     63830 TIP3     8145     TIP3     H1       HT       0.417000       1.00800           0
     63831 TIP3     8145     TIP3     H2       HT       0.417000       1.00800           0
     63832 TIP3     8146     TIP3     OH2      OT      -0.834000       15.9994           0
     63833 TIP3     8146     TIP3     H1       HT       0.417000       1.00800           0
     63834 TIP3     8146     TIP3     H2       HT       0.417000       1.00800           0
     63835 TIP3     8147     TIP3     OH2      OT      -0.834000       15.9994           0
     63836 TIP3     8147     TIP3     H1       HT       0.417000       1.00800           0
     63837 TIP3     8147     TIP3     H2       HT       0.417000       1.00800           0
     63838 TIP3     8148     TIP3     OH2      OT      -0.834000       15.9994           0
     63839 TIP3     8148     TIP3     H1       HT       0.417000       1.00800           0
     63840 TIP3     8148     TIP3     H2       HT       0.417000       1.00800           0
     63841 TIP3     8149     TIP3     OH2      OT      -0.834000       15.9994           0
     63842 TIP3     8149     TIP3     H1       HT       0.417000       1.00800           0
     63843 TIP3     8149     TIP3     H2       HT       0.417000       1.00800           0
     63844 TIP3     8150     TIP3     OH2      OT      -0.834000       15.9994           0
     63845 TIP3     8150     TIP3     H1       HT       0.417000       1.00800           0
     63846 TIP3     8150     TIP3     H2       HT       0.417000       1.00800           0
     63847 TIP3     8151     TIP3     OH2      OT      -0.834000       15.9994           0
     63848 TIP3     8151     TIP3     H1       HT       0.417000       1.00800           0
     63849 TIP3     8151     TIP3     H2       HT       0.417000       1.00800           0
     63850 TIP3     8152     TIP3     OH2      OT      -0.834000       15.9994           0
     63851 TIP3     8152     TIP3     H1       HT       0.417000       1.00800           0
     63852 TIP3     8152     TIP3     H2       HT       0.417000       1.00800           0
     63853 TIP3     8153     TIP3     OH2      OT      -0.834000       15.9994           0
     63854 TIP3     8153     TIP3     H1       HT       0.417000       1.00800           0
     63855 TIP3     8153     TIP3     H2       HT       0.417000       1.00800           0
     63856 TIP3     8154     TIP3     OH2      OT      -0.834000       15.9994           0
     63857 TIP3     8154     TIP3     H1       HT       0.417000       1.00800           0
     63858 TIP3     8154     TIP3     H2       HT       0.417000       1.00800           0
     63859 TIP3     8155     TIP3     OH2      OT      -0.834000       15.9994           0
     63860 TIP3     8155     TIP3     H1       HT       0.417000       1.00800           0
     63861 TIP3     8155     TIP3     H2       HT       0.417000       1.00800           0
     63862 TIP3     8156     TIP3     OH2      OT      -0.834000       15.9994           0
     63863 TIP3     8156     TIP3     H1       HT       0.417000       1.00800           0
     63864 TIP3     8156     TIP3     H2       HT       0.417000       1.00800           0
     63865 TIP3     8157     TIP3     OH2      OT      -0.834000       15.9994           0
     63866 TIP3     8157     TIP3     H1       HT       0.417000       1.00800           0
     63867 TIP3     8157     TIP3     H2       HT       0.417000       1.00800           0
     63868 TIP3     8158     TIP3     OH2      OT      -0.834000       15.9994           0
     63869 TIP3     8158     TIP3     H1       HT       0.417000       1.00800           0
     63870 TIP3     8158     TIP3     H2       HT       0.417000       1.00800           0
     63871 TIP3     8159     TIP3     OH2      OT      -0.834000       15.9994           0
     63872 TIP3     8159     TIP3     H1       HT       0.417000       1.00800           0
     63873 TIP3     8159     TIP3     H2       HT       0.417000       1.00800           0
     63874 TIP3     8160     TIP3     OH2      OT      -0.834000       15.9994           0
     63875 TIP3     8160     TIP3     H1       HT       0.417000       1.00800           0
     63876 TIP3     8160     TIP3     H2       HT       0.417000       1.00800           0
     63877 TIP3     8161     TIP3     OH2      OT      -0.834000       15.9994           0
     63878 TIP3     8161     TIP3     H1       HT       0.417000       1.00800           0
     63879 TIP3     8161     TIP3     H2       HT       0.417000       1.00800           0
     63880 TIP3     8162     TIP3     OH2      OT      -0.834000       15.9994           0
     63881 TIP3     8162     TIP3     H1       HT       0.417000       1.00800           0
     63882 TIP3     8162     TIP3     H2       HT       0.417000       1.00800           0
     63883 TIP3     8163     TIP3     OH2      OT      -0.834000       15.9994           0
     63884 TIP3     8163     TIP3     H1       HT       0.417000       1.00800           0
     63885 TIP3     8163     TIP3     H2       HT       0.417000       1.00800           0
     63886 TIP3     8164     TIP3     OH2      OT      -0.834000       15.9994           0
     63887 TIP3     8164     TIP3     H1       HT       0.417000       1.00800           0
     63888 TIP3     8164     TIP3     H2       HT       0.417000       1.00800           0
     63889 TIP3     8165     TIP3     OH2      OT      -0.834000       15.9994           0
     63890 TIP3     8165     TIP3     H1       HT       0.417000       1.00800           0
     63891 TIP3     8165     TIP3     H2       HT       0.417000       1.00800           0
     63892 TIP3     8166     TIP3     OH2      OT      -0.834000       15.9994           0
     63893 TIP3     8166     TIP3     H1       HT       0.417000       1.00800           0
     63894 TIP3     8166     TIP3     H2       HT       0.417000       1.00800           0
     63895 TIP3     8167     TIP3     OH2      OT      -0.834000       15.9994           0
     63896 TIP3     8167     TIP3     H1       HT       0.417000       1.00800           0
     63897 TIP3     8167     TIP3     H2       HT       0.417000       1.00800           0
     63898 TIP3     8168     TIP3     OH2      OT      -0.834000       15.9994           0
     63899 TIP3     8168     TIP3     H1       HT       0.417000       1.00800           0
     63900 TIP3     8168     TIP3     H2       HT       0.417000       1.00800           0
     63901 TIP3     8169     TIP3     OH2      OT      -0.834000       15.9994           0
     63902 TIP3     8169     TIP3     H1       HT       0.417000       1.00800           0
     63903 TIP3     8169     TIP3     H2       HT       0.417000       1.00800           0
     63904 TIP3     8170     TIP3     OH2      OT      -0.834000       15.9994           0
     63905 TIP3     8170     TIP3     H1       HT       0.417000       1.00800           0
     63906 TIP3     8170     TIP3     H2       HT       0.417000       1.00800           0
     63907 TIP3     8171     TIP3     OH2      OT      -0.834000       15.9994           0
     63908 TIP3     8171     TIP3     H1       HT       0.417000       1.00800           0
     63909 TIP3     8171     TIP3     H2       HT       0.417000       1.00800           0
     63910 TIP3     8172     TIP3     OH2      OT      -0.834000       15.9994           0
     63911 TIP3     8172     TIP3     H1       HT       0.417000       1.00800           0
     63912 TIP3     8172     TIP3     H2       HT       0.417000       1.00800           0
     63913 TIP3     8173     TIP3     OH2      OT      -0.834000       15.9994           0
     63914 TIP3     8173     TIP3     H1       HT       0.417000       1.00800           0
     63915 TIP3     8173     TIP3     H2       HT       0.417000       1.00800           0
     63916 TIP3     8174     TIP3     OH2      OT      -0.834000       15.9994           0
     63917 TIP3     8174     TIP3     H1       HT       0.417000       1.00800           0
     63918 TIP3     8174     TIP3     H2       HT       0.417000       1.00800           0
     63919 TIP3     8175     TIP3     OH2      OT      -0.834000       15.9994           0
     63920 TIP3     8175     TIP3     H1       HT       0.417000       1.00800           0
     63921 TIP3     8175     TIP3     H2       HT       0.417000       1.00800           0
     63922 TIP3     8176     TIP3     OH2      OT      -0.834000       15.9994           0
     63923 TIP3     8176     TIP3     H1       HT       0.417000       1.00800           0
     63924 TIP3     8176     TIP3     H2       HT       0.417000       1.00800           0
     63925 TIP3     8177     TIP3     OH2      OT      -0.834000       15.9994           0
     63926 TIP3     8177     TIP3     H1       HT       0.417000       1.00800           0
     63927 TIP3     8177     TIP3     H2       HT       0.417000       1.00800           0
     63928 TIP3     8178     TIP3     OH2      OT      -0.834000       15.9994           0
     63929 TIP3     8178     TIP3     H1       HT       0.417000       1.00800           0
     63930 TIP3     8178     TIP3     H2       HT       0.417000       1.00800           0
     63931 TIP3     8179     TIP3     OH2      OT      -0.834000       15.9994           0
     63932 TIP3     8179     TIP3     H1       HT       0.417000       1.00800           0
     63933 TIP3     8179     TIP3     H2       HT       0.417000       1.00800           0
     63934 TIP3     8180     TIP3     OH2      OT      -0.834000       15.9994           0
     63935 TIP3     8180     TIP3     H1       HT       0.417000       1.00800           0
     63936 TIP3     8180     TIP3     H2       HT       0.417000       1.00800           0
     63937 TIP3     8181     TIP3     OH2      OT      -0.834000       15.9994           0
     63938 TIP3     8181     TIP3     H1       HT       0.417000       1.00800           0
     63939 TIP3     8181     TIP3     H2       HT       0.417000       1.00800           0
     63940 TIP3     8182     TIP3     OH2      OT      -0.834000       15.9994           0
     63941 TIP3     8182     TIP3     H1       HT       0.417000       1.00800           0
     63942 TIP3     8182     TIP3     H2       HT       0.417000       1.00800           0
     63943 TIP3     8183     TIP3     OH2      OT      -0.834000       15.9994           0
     63944 TIP3     8183     TIP3     H1       HT       0.417000       1.00800           0
     63945 TIP3     8183     TIP3     H2       HT       0.417000       1.00800           0
     63946 TIP3     8184     TIP3     OH2      OT      -0.834000       15.9994           0
     63947 TIP3     8184     TIP3     H1       HT       0.417000       1.00800           0
     63948 TIP3     8184     TIP3     H2       HT       0.417000       1.00800           0
     63949 TIP3     8185     TIP3     OH2      OT      -0.834000       15.9994           0
     63950 TIP3     8185     TIP3     H1       HT       0.417000       1.00800           0
     63951 TIP3     8185     TIP3     H2       HT       0.417000       1.00800           0
     63952 TIP3     8186     TIP3     OH2      OT      -0.834000       15.9994           0
     63953 TIP3     8186     TIP3     H1       HT       0.417000       1.00800           0
     63954 TIP3     8186     TIP3     H2       HT       0.417000       1.00800           0
     63955 TIP3     8187     TIP3     OH2      OT      -0.834000       15.9994           0
     63956 TIP3     8187     TIP3     H1       HT       0.417000       1.00800           0
     63957 TIP3     8187     TIP3     H2       HT       0.417000       1.00800           0
     63958 TIP3     8188     TIP3     OH2      OT      -0.834000       15.9994           0
     63959 TIP3     8188     TIP3     H1       HT       0.417000       1.00800           0
     63960 TIP3     8188     TIP3     H2       HT       0.417000       1.00800           0
     63961 TIP3     8189     TIP3     OH2      OT      -0.834000       15.9994           0
     63962 TIP3     8189     TIP3     H1       HT       0.417000       1.00800           0
     63963 TIP3     8189     TIP3     H2       HT       0.417000       1.00800           0
     63964 TIP3     8190     TIP3     OH2      OT      -0.834000       15.9994           0
     63965 TIP3     8190     TIP3     H1       HT       0.417000       1.00800           0
     63966 TIP3     8190     TIP3     H2       HT       0.417000       1.00800           0
     63967 TIP3     8191     TIP3     OH2      OT      -0.834000       15.9994           0
     63968 TIP3     8191     TIP3     H1       HT       0.417000       1.00800           0
     63969 TIP3     8191     TIP3     H2       HT       0.417000       1.00800           0
     63970 TIP3     8192     TIP3     OH2      OT      -0.834000       15.9994           0
     63971 TIP3     8192     TIP3     H1       HT       0.417000       1.00800           0
     63972 TIP3     8192     TIP3     H2       HT       0.417000       1.00800           0
     63973 TIP3     8193     TIP3     OH2      OT      -0.834000       15.9994           0
     63974 TIP3     8193     TIP3     H1       HT       0.417000       1.00800           0
     63975 TIP3     8193     TIP3     H2       HT       0.417000       1.00800           0
     63976 TIP3     8194     TIP3     OH2      OT      -0.834000       15.9994           0
     63977 TIP3     8194     TIP3     H1       HT       0.417000       1.00800           0
     63978 TIP3     8194     TIP3     H2       HT       0.417000       1.00800           0
     63979 TIP3     8195     TIP3     OH2      OT      -0.834000       15.9994           0
     63980 TIP3     8195     TIP3     H1       HT       0.417000       1.00800           0
     63981 TIP3     8195     TIP3     H2       HT       0.417000       1.00800           0
     63982 TIP3     8196     TIP3     OH2      OT      -0.834000       15.9994           0
     63983 TIP3     8196     TIP3     H1       HT       0.417000       1.00800           0
     63984 TIP3     8196     TIP3     H2       HT       0.417000       1.00800           0
     63985 TIP3     8197     TIP3     OH2      OT      -0.834000       15.9994           0
     63986 TIP3     8197     TIP3     H1       HT       0.417000       1.00800           0
     63987 TIP3     8197     TIP3     H2       HT       0.417000       1.00800           0
     63988 TIP3     8198     TIP3     OH2      OT      -0.834000       15.9994           0
     63989 TIP3     8198     TIP3     H1       HT       0.417000       1.00800           0
     63990 TIP3     8198     TIP3     H2       HT       0.417000       1.00800           0
     63991 TIP3     8199     TIP3     OH2      OT      -0.834000       15.9994           0
     63992 TIP3     8199     TIP3     H1       HT       0.417000       1.00800           0
     63993 TIP3     8199     TIP3     H2       HT       0.417000       1.00800           0
     63994 TIP3     8200     TIP3     OH2      OT      -0.834000       15.9994           0
     63995 TIP3     8200     TIP3     H1       HT       0.417000       1.00800           0
     63996 TIP3     8200     TIP3     H2       HT       0.417000       1.00800           0
     63997 TIP3     8201     TIP3     OH2      OT      -0.834000       15.9994           0
     63998 TIP3     8201     TIP3     H1       HT       0.417000       1.00800           0
     63999 TIP3     8201     TIP3     H2       HT       0.417000       1.00800           0
     64000 TIP3     8202     TIP3     OH2      OT      -0.834000       15.9994           0
     64001 TIP3     8202     TIP3     H1       HT       0.417000       1.00800           0
     64002 TIP3     8202     TIP3     H2       HT       0.417000       1.00800           0
     64003 TIP3     8203     TIP3     OH2      OT      -0.834000       15.9994           0
     64004 TIP3     8203     TIP3     H1       HT       0.417000       1.00800           0
     64005 TIP3     8203     TIP3     H2       HT       0.417000       1.00800           0
     64006 TIP3     8204     TIP3     OH2      OT      -0.834000       15.9994           0
     64007 TIP3     8204     TIP3     H1       HT       0.417000       1.00800           0
     64008 TIP3     8204     TIP3     H2       HT       0.417000       1.00800           0
     64009 TIP3     8205     TIP3     OH2      OT      -0.834000       15.9994           0
     64010 TIP3     8205     TIP3     H1       HT       0.417000       1.00800           0
     64011 TIP3     8205     TIP3     H2       HT       0.417000       1.00800           0
     64012 TIP3     8206     TIP3     OH2      OT      -0.834000       15.9994           0
     64013 TIP3     8206     TIP3     H1       HT       0.417000       1.00800           0
     64014 TIP3     8206     TIP3     H2       HT       0.417000       1.00800           0
     64015 TIP3     8207     TIP3     OH2      OT      -0.834000       15.9994           0
     64016 TIP3     8207     TIP3     H1       HT       0.417000       1.00800           0
     64017 TIP3     8207     TIP3     H2       HT       0.417000       1.00800           0
     64018 TIP3     8208     TIP3     OH2      OT      -0.834000       15.9994           0
     64019 TIP3     8208     TIP3     H1       HT       0.417000       1.00800           0
     64020 TIP3     8208     TIP3     H2       HT       0.417000       1.00800           0
     64021 TIP3     8209     TIP3     OH2      OT      -0.834000       15.9994           0
     64022 TIP3     8209     TIP3     H1       HT       0.417000       1.00800           0
     64023 TIP3     8209     TIP3     H2       HT       0.417000       1.00800           0
     64024 TIP3     8210     TIP3     OH2      OT      -0.834000       15.9994           0
     64025 TIP3     8210     TIP3     H1       HT       0.417000       1.00800           0
     64026 TIP3     8210     TIP3     H2       HT       0.417000       1.00800           0
     64027 TIP3     8211     TIP3     OH2      OT      -0.834000       15.9994           0
     64028 TIP3     8211     TIP3     H1       HT       0.417000       1.00800           0
     64029 TIP3     8211     TIP3     H2       HT       0.417000       1.00800           0
     64030 TIP3     8212     TIP3     OH2      OT      -0.834000       15.9994           0
     64031 TIP3     8212     TIP3     H1       HT       0.417000       1.00800           0
     64032 TIP3     8212     TIP3     H2       HT       0.417000       1.00800           0
     64033 TIP3     8213     TIP3     OH2      OT      -0.834000       15.9994           0
     64034 TIP3     8213     TIP3     H1       HT       0.417000       1.00800           0
     64035 TIP3     8213     TIP3     H2       HT       0.417000       1.00800           0
     64036 TIP3     8214     TIP3     OH2      OT      -0.834000       15.9994           0
     64037 TIP3     8214     TIP3     H1       HT       0.417000       1.00800           0
     64038 TIP3     8214     TIP3     H2       HT       0.417000       1.00800           0
     64039 TIP3     8215     TIP3     OH2      OT      -0.834000       15.9994           0
     64040 TIP3     8215     TIP3     H1       HT       0.417000       1.00800           0
     64041 TIP3     8215     TIP3     H2       HT       0.417000       1.00800           0
     64042 TIP3     8216     TIP3     OH2      OT      -0.834000       15.9994           0
     64043 TIP3     8216     TIP3     H1       HT       0.417000       1.00800           0
     64044 TIP3     8216     TIP3     H2       HT       0.417000       1.00800           0
     64045 TIP3     8217     TIP3     OH2      OT      -0.834000       15.9994           0
     64046 TIP3     8217     TIP3     H1       HT       0.417000       1.00800           0
     64047 TIP3     8217     TIP3     H2       HT       0.417000       1.00800           0
     64048 TIP3     8218     TIP3     OH2      OT      -0.834000       15.9994           0
     64049 TIP3     8218     TIP3     H1       HT       0.417000       1.00800           0
     64050 TIP3     8218     TIP3     H2       HT       0.417000       1.00800           0
     64051 TIP3     8219     TIP3     OH2      OT      -0.834000       15.9994           0
     64052 TIP3     8219     TIP3     H1       HT       0.417000       1.00800           0
     64053 TIP3     8219     TIP3     H2       HT       0.417000       1.00800           0
     64054 TIP3     8220     TIP3     OH2      OT      -0.834000       15.9994           0
     64055 TIP3     8220     TIP3     H1       HT       0.417000       1.00800           0
     64056 TIP3     8220     TIP3     H2       HT       0.417000       1.00800           0
     64057 TIP3     8221     TIP3     OH2      OT      -0.834000       15.9994           0
     64058 TIP3     8221     TIP3     H1       HT       0.417000       1.00800           0
     64059 TIP3     8221     TIP3     H2       HT       0.417000       1.00800           0
     64060 TIP3     8222     TIP3     OH2      OT      -0.834000       15.9994           0
     64061 TIP3     8222     TIP3     H1       HT       0.417000       1.00800           0
     64062 TIP3     8222     TIP3     H2       HT       0.417000       1.00800           0
     64063 TIP3     8223     TIP3     OH2      OT      -0.834000       15.9994           0
     64064 TIP3     8223     TIP3     H1       HT       0.417000       1.00800           0
     64065 TIP3     8223     TIP3     H2       HT       0.417000       1.00800           0
     64066 TIP3     8224     TIP3     OH2      OT      -0.834000       15.9994           0
     64067 TIP3     8224     TIP3     H1       HT       0.417000       1.00800           0
     64068 TIP3     8224     TIP3     H2       HT       0.417000       1.00800           0
     64069 TIP3     8225     TIP3     OH2      OT      -0.834000       15.9994           0
     64070 TIP3     8225     TIP3     H1       HT       0.417000       1.00800           0
     64071 TIP3     8225     TIP3     H2       HT       0.417000       1.00800           0
     64072 TIP3     8226     TIP3     OH2      OT      -0.834000       15.9994           0
     64073 TIP3     8226     TIP3     H1       HT       0.417000       1.00800           0
     64074 TIP3     8226     TIP3     H2       HT       0.417000       1.00800           0
     64075 TIP3     8227     TIP3     OH2      OT      -0.834000       15.9994           0
     64076 TIP3     8227     TIP3     H1       HT       0.417000       1.00800           0
     64077 TIP3     8227     TIP3     H2       HT       0.417000       1.00800           0
     64078 TIP3     8228     TIP3     OH2      OT      -0.834000       15.9994           0
     64079 TIP3     8228     TIP3     H1       HT       0.417000       1.00800           0
     64080 TIP3     8228     TIP3     H2       HT       0.417000       1.00800           0
     64081 TIP3     8229     TIP3     OH2      OT      -0.834000       15.9994           0
     64082 TIP3     8229     TIP3     H1       HT       0.417000       1.00800           0
     64083 TIP3     8229     TIP3     H2       HT       0.417000       1.00800           0
     64084 TIP3     8230     TIP3     OH2      OT      -0.834000       15.9994           0
     64085 TIP3     8230     TIP3     H1       HT       0.417000       1.00800           0
     64086 TIP3     8230     TIP3     H2       HT       0.417000       1.00800           0
     64087 TIP3     8231     TIP3     OH2      OT      -0.834000       15.9994           0
     64088 TIP3     8231     TIP3     H1       HT       0.417000       1.00800           0
     64089 TIP3     8231     TIP3     H2       HT       0.417000       1.00800           0
     64090 TIP3     8232     TIP3     OH2      OT      -0.834000       15.9994           0
     64091 TIP3     8232     TIP3     H1       HT       0.417000       1.00800           0
     64092 TIP3     8232     TIP3     H2       HT       0.417000       1.00800           0
     64093 TIP3     8233     TIP3     OH2      OT      -0.834000       15.9994           0
     64094 TIP3     8233     TIP3     H1       HT       0.417000       1.00800           0
     64095 TIP3     8233     TIP3     H2       HT       0.417000       1.00800           0
     64096 TIP3     8234     TIP3     OH2      OT      -0.834000       15.9994           0
     64097 TIP3     8234     TIP3     H1       HT       0.417000       1.00800           0
     64098 TIP3     8234     TIP3     H2       HT       0.417000       1.00800           0
     64099 TIP3     8235     TIP3     OH2      OT      -0.834000       15.9994           0
     64100 TIP3     8235     TIP3     H1       HT       0.417000       1.00800           0
     64101 TIP3     8235     TIP3     H2       HT       0.417000       1.00800           0
     64102 TIP3     8236     TIP3     OH2      OT      -0.834000       15.9994           0
     64103 TIP3     8236     TIP3     H1       HT       0.417000       1.00800           0
     64104 TIP3     8236     TIP3     H2       HT       0.417000       1.00800           0
     64105 TIP3     8237     TIP3     OH2      OT      -0.834000       15.9994           0
     64106 TIP3     8237     TIP3     H1       HT       0.417000       1.00800           0
     64107 TIP3     8237     TIP3     H2       HT       0.417000       1.00800           0
     64108 TIP3     8238     TIP3     OH2      OT      -0.834000       15.9994           0
     64109 TIP3     8238     TIP3     H1       HT       0.417000       1.00800           0
     64110 TIP3     8238     TIP3     H2       HT       0.417000       1.00800           0
     64111 TIP3     8239     TIP3     OH2      OT      -0.834000       15.9994           0
     64112 TIP3     8239     TIP3     H1       HT       0.417000       1.00800           0
     64113 TIP3     8239     TIP3     H2       HT       0.417000       1.00800           0
     64114 TIP3     8240     TIP3     OH2      OT      -0.834000       15.9994           0
     64115 TIP3     8240     TIP3     H1       HT       0.417000       1.00800           0
     64116 TIP3     8240     TIP3     H2       HT       0.417000       1.00800           0
     64117 TIP3     8241     TIP3     OH2      OT      -0.834000       15.9994           0
     64118 TIP3     8241     TIP3     H1       HT       0.417000       1.00800           0
     64119 TIP3     8241     TIP3     H2       HT       0.417000       1.00800           0
     64120 TIP3     8242     TIP3     OH2      OT      -0.834000       15.9994           0
     64121 TIP3     8242     TIP3     H1       HT       0.417000       1.00800           0
     64122 TIP3     8242     TIP3     H2       HT       0.417000       1.00800           0
     64123 TIP3     8243     TIP3     OH2      OT      -0.834000       15.9994           0
     64124 TIP3     8243     TIP3     H1       HT       0.417000       1.00800           0
     64125 TIP3     8243     TIP3     H2       HT       0.417000       1.00800           0
     64126 TIP3     8244     TIP3     OH2      OT      -0.834000       15.9994           0
     64127 TIP3     8244     TIP3     H1       HT       0.417000       1.00800           0
     64128 TIP3     8244     TIP3     H2       HT       0.417000       1.00800           0
     64129 TIP3     8245     TIP3     OH2      OT      -0.834000       15.9994           0
     64130 TIP3     8245     TIP3     H1       HT       0.417000       1.00800           0
     64131 TIP3     8245     TIP3     H2       HT       0.417000       1.00800           0
     64132 TIP3     8246     TIP3     OH2      OT      -0.834000       15.9994           0
     64133 TIP3     8246     TIP3     H1       HT       0.417000       1.00800           0
     64134 TIP3     8246     TIP3     H2       HT       0.417000       1.00800           0
     64135 TIP3     8247     TIP3     OH2      OT      -0.834000       15.9994           0
     64136 TIP3     8247     TIP3     H1       HT       0.417000       1.00800           0
     64137 TIP3     8247     TIP3     H2       HT       0.417000       1.00800           0
     64138 TIP3     8248     TIP3     OH2      OT      -0.834000       15.9994           0
     64139 TIP3     8248     TIP3     H1       HT       0.417000       1.00800           0
     64140 TIP3     8248     TIP3     H2       HT       0.417000       1.00800           0
     64141 TIP3     8249     TIP3     OH2      OT      -0.834000       15.9994           0
     64142 TIP3     8249     TIP3     H1       HT       0.417000       1.00800           0
     64143 TIP3     8249     TIP3     H2       HT       0.417000       1.00800           0
     64144 TIP3     8250     TIP3     OH2      OT      -0.834000       15.9994           0
     64145 TIP3     8250     TIP3     H1       HT       0.417000       1.00800           0
     64146 TIP3     8250     TIP3     H2       HT       0.417000       1.00800           0
     64147 TIP3     8251     TIP3     OH2      OT      -0.834000       15.9994           0
     64148 TIP3     8251     TIP3     H1       HT       0.417000       1.00800           0
     64149 TIP3     8251     TIP3     H2       HT       0.417000       1.00800           0
     64150 TIP3     8252     TIP3     OH2      OT      -0.834000       15.9994           0
     64151 TIP3     8252     TIP3     H1       HT       0.417000       1.00800           0
     64152 TIP3     8252     TIP3     H2       HT       0.417000       1.00800           0
     64153 TIP3     8253     TIP3     OH2      OT      -0.834000       15.9994           0
     64154 TIP3     8253     TIP3     H1       HT       0.417000       1.00800           0
     64155 TIP3     8253     TIP3     H2       HT       0.417000       1.00800           0
     64156 TIP3     8254     TIP3     OH2      OT      -0.834000       15.9994           0
     64157 TIP3     8254     TIP3     H1       HT       0.417000       1.00800           0
     64158 TIP3     8254     TIP3     H2       HT       0.417000       1.00800           0
     64159 TIP3     8255     TIP3     OH2      OT      -0.834000       15.9994           0
     64160 TIP3     8255     TIP3     H1       HT       0.417000       1.00800           0
     64161 TIP3     8255     TIP3     H2       HT       0.417000       1.00800           0
     64162 TIP3     8256     TIP3     OH2      OT      -0.834000       15.9994           0
     64163 TIP3     8256     TIP3     H1       HT       0.417000       1.00800           0
     64164 TIP3     8256     TIP3     H2       HT       0.417000       1.00800           0
     64165 TIP3     8257     TIP3     OH2      OT      -0.834000       15.9994           0
     64166 TIP3     8257     TIP3     H1       HT       0.417000       1.00800           0
     64167 TIP3     8257     TIP3     H2       HT       0.417000       1.00800           0
     64168 TIP3     8258     TIP3     OH2      OT      -0.834000       15.9994           0
     64169 TIP3     8258     TIP3     H1       HT       0.417000       1.00800           0
     64170 TIP3     8258     TIP3     H2       HT       0.417000       1.00800           0
     64171 TIP3     8259     TIP3     OH2      OT      -0.834000       15.9994           0
     64172 TIP3     8259     TIP3     H1       HT       0.417000       1.00800           0
     64173 TIP3     8259     TIP3     H2       HT       0.417000       1.00800           0
     64174 TIP3     8260     TIP3     OH2      OT      -0.834000       15.9994           0
     64175 TIP3     8260     TIP3     H1       HT       0.417000       1.00800           0
     64176 TIP3     8260     TIP3     H2       HT       0.417000       1.00800           0
     64177 TIP3     8261     TIP3     OH2      OT      -0.834000       15.9994           0
     64178 TIP3     8261     TIP3     H1       HT       0.417000       1.00800           0
     64179 TIP3     8261     TIP3     H2       HT       0.417000       1.00800           0
     64180 TIP3     8262     TIP3     OH2      OT      -0.834000       15.9994           0
     64181 TIP3     8262     TIP3     H1       HT       0.417000       1.00800           0
     64182 TIP3     8262     TIP3     H2       HT       0.417000       1.00800           0
     64183 TIP3     8263     TIP3     OH2      OT      -0.834000       15.9994           0
     64184 TIP3     8263     TIP3     H1       HT       0.417000       1.00800           0
     64185 TIP3     8263     TIP3     H2       HT       0.417000       1.00800           0
     64186 TIP3     8264     TIP3     OH2      OT      -0.834000       15.9994           0
     64187 TIP3     8264     TIP3     H1       HT       0.417000       1.00800           0
     64188 TIP3     8264     TIP3     H2       HT       0.417000       1.00800           0
     64189 TIP3     8265     TIP3     OH2      OT      -0.834000       15.9994           0
     64190 TIP3     8265     TIP3     H1       HT       0.417000       1.00800           0
     64191 TIP3     8265     TIP3     H2       HT       0.417000       1.00800           0
     64192 TIP3     8266     TIP3     OH2      OT      -0.834000       15.9994           0
     64193 TIP3     8266     TIP3     H1       HT       0.417000       1.00800           0
     64194 TIP3     8266     TIP3     H2       HT       0.417000       1.00800           0
     64195 TIP3     8267     TIP3     OH2      OT      -0.834000       15.9994           0
     64196 TIP3     8267     TIP3     H1       HT       0.417000       1.00800           0
     64197 TIP3     8267     TIP3     H2       HT       0.417000       1.00800           0
     64198 TIP3     8268     TIP3     OH2      OT      -0.834000       15.9994           0
     64199 TIP3     8268     TIP3     H1       HT       0.417000       1.00800           0
     64200 TIP3     8268     TIP3     H2       HT       0.417000       1.00800           0
     64201 TIP3     8269     TIP3     OH2      OT      -0.834000       15.9994           0
     64202 TIP3     8269     TIP3     H1       HT       0.417000       1.00800           0
     64203 TIP3     8269     TIP3     H2       HT       0.417000       1.00800           0
     64204 TIP3     8270     TIP3     OH2      OT      -0.834000       15.9994           0
     64205 TIP3     8270     TIP3     H1       HT       0.417000       1.00800           0
     64206 TIP3     8270     TIP3     H2       HT       0.417000       1.00800           0
     64207 TIP3     8271     TIP3     OH2      OT      -0.834000       15.9994           0
     64208 TIP3     8271     TIP3     H1       HT       0.417000       1.00800           0
     64209 TIP3     8271     TIP3     H2       HT       0.417000       1.00800           0
     64210 TIP3     8272     TIP3     OH2      OT      -0.834000       15.9994           0
     64211 TIP3     8272     TIP3     H1       HT       0.417000       1.00800           0
     64212 TIP3     8272     TIP3     H2       HT       0.417000       1.00800           0
     64213 TIP3     8273     TIP3     OH2      OT      -0.834000       15.9994           0
     64214 TIP3     8273     TIP3     H1       HT       0.417000       1.00800           0
     64215 TIP3     8273     TIP3     H2       HT       0.417000       1.00800           0
     64216 TIP3     8274     TIP3     OH2      OT      -0.834000       15.9994           0
     64217 TIP3     8274     TIP3     H1       HT       0.417000       1.00800           0
     64218 TIP3     8274     TIP3     H2       HT       0.417000       1.00800           0
     64219 TIP3     8275     TIP3     OH2      OT      -0.834000       15.9994           0
     64220 TIP3     8275     TIP3     H1       HT       0.417000       1.00800           0
     64221 TIP3     8275     TIP3     H2       HT       0.417000       1.00800           0
     64222 TIP3     8276     TIP3     OH2      OT      -0.834000       15.9994           0
     64223 TIP3     8276     TIP3     H1       HT       0.417000       1.00800           0
     64224 TIP3     8276     TIP3     H2       HT       0.417000       1.00800           0
     64225 TIP3     8277     TIP3     OH2      OT      -0.834000       15.9994           0
     64226 TIP3     8277     TIP3     H1       HT       0.417000       1.00800           0
     64227 TIP3     8277     TIP3     H2       HT       0.417000       1.00800           0
     64228 TIP3     8278     TIP3     OH2      OT      -0.834000       15.9994           0
     64229 TIP3     8278     TIP3     H1       HT       0.417000       1.00800           0
     64230 TIP3     8278     TIP3     H2       HT       0.417000       1.00800           0
     64231 TIP3     8279     TIP3     OH2      OT      -0.834000       15.9994           0
     64232 TIP3     8279     TIP3     H1       HT       0.417000       1.00800           0
     64233 TIP3     8279     TIP3     H2       HT       0.417000       1.00800           0
     64234 TIP3     8280     TIP3     OH2      OT      -0.834000       15.9994           0
     64235 TIP3     8280     TIP3     H1       HT       0.417000       1.00800           0
     64236 TIP3     8280     TIP3     H2       HT       0.417000       1.00800           0
     64237 TIP3     8281     TIP3     OH2      OT      -0.834000       15.9994           0
     64238 TIP3     8281     TIP3     H1       HT       0.417000       1.00800           0
     64239 TIP3     8281     TIP3     H2       HT       0.417000       1.00800           0
     64240 TIP3     8282     TIP3     OH2      OT      -0.834000       15.9994           0
     64241 TIP3     8282     TIP3     H1       HT       0.417000       1.00800           0
     64242 TIP3     8282     TIP3     H2       HT       0.417000       1.00800           0
     64243 TIP3     8283     TIP3     OH2      OT      -0.834000       15.9994           0
     64244 TIP3     8283     TIP3     H1       HT       0.417000       1.00800           0
     64245 TIP3     8283     TIP3     H2       HT       0.417000       1.00800           0
     64246 TIP3     8284     TIP3     OH2      OT      -0.834000       15.9994           0
     64247 TIP3     8284     TIP3     H1       HT       0.417000       1.00800           0
     64248 TIP3     8284     TIP3     H2       HT       0.417000       1.00800           0
     64249 TIP3     8285     TIP3     OH2      OT      -0.834000       15.9994           0
     64250 TIP3     8285     TIP3     H1       HT       0.417000       1.00800           0
     64251 TIP3     8285     TIP3     H2       HT       0.417000       1.00800           0
     64252 TIP3     8286     TIP3     OH2      OT      -0.834000       15.9994           0
     64253 TIP3     8286     TIP3     H1       HT       0.417000       1.00800           0
     64254 TIP3     8286     TIP3     H2       HT       0.417000       1.00800           0
     64255 TIP3     8287     TIP3     OH2      OT      -0.834000       15.9994           0
     64256 TIP3     8287     TIP3     H1       HT       0.417000       1.00800           0
     64257 TIP3     8287     TIP3     H2       HT       0.417000       1.00800           0
     64258 TIP3     8288     TIP3     OH2      OT      -0.834000       15.9994           0
     64259 TIP3     8288     TIP3     H1       HT       0.417000       1.00800           0
     64260 TIP3     8288     TIP3     H2       HT       0.417000       1.00800           0
     64261 TIP3     8289     TIP3     OH2      OT      -0.834000       15.9994           0
     64262 TIP3     8289     TIP3     H1       HT       0.417000       1.00800           0
     64263 TIP3     8289     TIP3     H2       HT       0.417000       1.00800           0
     64264 TIP3     8290     TIP3     OH2      OT      -0.834000       15.9994           0
     64265 TIP3     8290     TIP3     H1       HT       0.417000       1.00800           0
     64266 TIP3     8290     TIP3     H2       HT       0.417000       1.00800           0
     64267 TIP3     8291     TIP3     OH2      OT      -0.834000       15.9994           0
     64268 TIP3     8291     TIP3     H1       HT       0.417000       1.00800           0
     64269 TIP3     8291     TIP3     H2       HT       0.417000       1.00800           0
     64270 TIP3     8292     TIP3     OH2      OT      -0.834000       15.9994           0
     64271 TIP3     8292     TIP3     H1       HT       0.417000       1.00800           0
     64272 TIP3     8292     TIP3     H2       HT       0.417000       1.00800           0
     64273 TIP3     8293     TIP3     OH2      OT      -0.834000       15.9994           0
     64274 TIP3     8293     TIP3     H1       HT       0.417000       1.00800           0
     64275 TIP3     8293     TIP3     H2       HT       0.417000       1.00800           0
     64276 TIP3     8294     TIP3     OH2      OT      -0.834000       15.9994           0
     64277 TIP3     8294     TIP3     H1       HT       0.417000       1.00800           0
     64278 TIP3     8294     TIP3     H2       HT       0.417000       1.00800           0
     64279 TIP3     8295     TIP3     OH2      OT      -0.834000       15.9994           0
     64280 TIP3     8295     TIP3     H1       HT       0.417000       1.00800           0
     64281 TIP3     8295     TIP3     H2       HT       0.417000       1.00800           0
     64282 TIP3     8296     TIP3     OH2      OT      -0.834000       15.9994           0
     64283 TIP3     8296     TIP3     H1       HT       0.417000       1.00800           0
     64284 TIP3     8296     TIP3     H2       HT       0.417000       1.00800           0
     64285 TIP3     8297     TIP3     OH2      OT      -0.834000       15.9994           0
     64286 TIP3     8297     TIP3     H1       HT       0.417000       1.00800           0
     64287 TIP3     8297     TIP3     H2       HT       0.417000       1.00800           0
     64288 TIP3     8298     TIP3     OH2      OT      -0.834000       15.9994           0
     64289 TIP3     8298     TIP3     H1       HT       0.417000       1.00800           0
     64290 TIP3     8298     TIP3     H2       HT       0.417000       1.00800           0
     64291 TIP3     8299     TIP3     OH2      OT      -0.834000       15.9994           0
     64292 TIP3     8299     TIP3     H1       HT       0.417000       1.00800           0
     64293 TIP3     8299     TIP3     H2       HT       0.417000       1.00800           0
     64294 TIP3     8300     TIP3     OH2      OT      -0.834000       15.9994           0
     64295 TIP3     8300     TIP3     H1       HT       0.417000       1.00800           0
     64296 TIP3     8300     TIP3     H2       HT       0.417000       1.00800           0
     64297 TIP3     8301     TIP3     OH2      OT      -0.834000       15.9994           0
     64298 TIP3     8301     TIP3     H1       HT       0.417000       1.00800           0
     64299 TIP3     8301     TIP3     H2       HT       0.417000       1.00800           0
     64300 TIP3     8302     TIP3     OH2      OT      -0.834000       15.9994           0
     64301 TIP3     8302     TIP3     H1       HT       0.417000       1.00800           0
     64302 TIP3     8302     TIP3     H2       HT       0.417000       1.00800           0
     64303 TIP3     8303     TIP3     OH2      OT      -0.834000       15.9994           0
     64304 TIP3     8303     TIP3     H1       HT       0.417000       1.00800           0
     64305 TIP3     8303     TIP3     H2       HT       0.417000       1.00800           0
     64306 TIP3     8304     TIP3     OH2      OT      -0.834000       15.9994           0
     64307 TIP3     8304     TIP3     H1       HT       0.417000       1.00800           0
     64308 TIP3     8304     TIP3     H2       HT       0.417000       1.00800           0
     64309 TIP3     8305     TIP3     OH2      OT      -0.834000       15.9994           0
     64310 TIP3     8305     TIP3     H1       HT       0.417000       1.00800           0
     64311 TIP3     8305     TIP3     H2       HT       0.417000       1.00800           0
     64312 TIP3     8306     TIP3     OH2      OT      -0.834000       15.9994           0
     64313 TIP3     8306     TIP3     H1       HT       0.417000       1.00800           0
     64314 TIP3     8306     TIP3     H2       HT       0.417000       1.00800           0
     64315 TIP3     8307     TIP3     OH2      OT      -0.834000       15.9994           0
     64316 TIP3     8307     TIP3     H1       HT       0.417000       1.00800           0
     64317 TIP3     8307     TIP3     H2       HT       0.417000       1.00800           0
     64318 TIP3     8308     TIP3     OH2      OT      -0.834000       15.9994           0
     64319 TIP3     8308     TIP3     H1       HT       0.417000       1.00800           0
     64320 TIP3     8308     TIP3     H2       HT       0.417000       1.00800           0
     64321 TIP3     8309     TIP3     OH2      OT      -0.834000       15.9994           0
     64322 TIP3     8309     TIP3     H1       HT       0.417000       1.00800           0
     64323 TIP3     8309     TIP3     H2       HT       0.417000       1.00800           0
     64324 TIP3     8310     TIP3     OH2      OT      -0.834000       15.9994           0
     64325 TIP3     8310     TIP3     H1       HT       0.417000       1.00800           0
     64326 TIP3     8310     TIP3     H2       HT       0.417000       1.00800           0
     64327 TIP3     8311     TIP3     OH2      OT      -0.834000       15.9994           0
     64328 TIP3     8311     TIP3     H1       HT       0.417000       1.00800           0
     64329 TIP3     8311     TIP3     H2       HT       0.417000       1.00800           0
     64330 TIP3     8312     TIP3     OH2      OT      -0.834000       15.9994           0
     64331 TIP3     8312     TIP3     H1       HT       0.417000       1.00800           0
     64332 TIP3     8312     TIP3     H2       HT       0.417000       1.00800           0
     64333 TIP3     8313     TIP3     OH2      OT      -0.834000       15.9994           0
     64334 TIP3     8313     TIP3     H1       HT       0.417000       1.00800           0
     64335 TIP3     8313     TIP3     H2       HT       0.417000       1.00800           0
     64336 TIP3     8314     TIP3     OH2      OT      -0.834000       15.9994           0
     64337 TIP3     8314     TIP3     H1       HT       0.417000       1.00800           0
     64338 TIP3     8314     TIP3     H2       HT       0.417000       1.00800           0
     64339 TIP3     8315     TIP3     OH2      OT      -0.834000       15.9994           0
     64340 TIP3     8315     TIP3     H1       HT       0.417000       1.00800           0
     64341 TIP3     8315     TIP3     H2       HT       0.417000       1.00800           0
     64342 TIP3     8316     TIP3     OH2      OT      -0.834000       15.9994           0
     64343 TIP3     8316     TIP3     H1       HT       0.417000       1.00800           0
     64344 TIP3     8316     TIP3     H2       HT       0.417000       1.00800           0
     64345 TIP3     8317     TIP3     OH2      OT      -0.834000       15.9994           0
     64346 TIP3     8317     TIP3     H1       HT       0.417000       1.00800           0
     64347 TIP3     8317     TIP3     H2       HT       0.417000       1.00800           0
     64348 TIP3     8318     TIP3     OH2      OT      -0.834000       15.9994           0
     64349 TIP3     8318     TIP3     H1       HT       0.417000       1.00800           0
     64350 TIP3     8318     TIP3     H2       HT       0.417000       1.00800           0
     64351 TIP3     8319     TIP3     OH2      OT      -0.834000       15.9994           0
     64352 TIP3     8319     TIP3     H1       HT       0.417000       1.00800           0
     64353 TIP3     8319     TIP3     H2       HT       0.417000       1.00800           0
     64354 TIP3     8320     TIP3     OH2      OT      -0.834000       15.9994           0
     64355 TIP3     8320     TIP3     H1       HT       0.417000       1.00800           0
     64356 TIP3     8320     TIP3     H2       HT       0.417000       1.00800           0
     64357 TIP3     8321     TIP3     OH2      OT      -0.834000       15.9994           0
     64358 TIP3     8321     TIP3     H1       HT       0.417000       1.00800           0
     64359 TIP3     8321     TIP3     H2       HT       0.417000       1.00800           0
     64360 TIP3     8322     TIP3     OH2      OT      -0.834000       15.9994           0
     64361 TIP3     8322     TIP3     H1       HT       0.417000       1.00800           0
     64362 TIP3     8322     TIP3     H2       HT       0.417000       1.00800           0
     64363 TIP3     8323     TIP3     OH2      OT      -0.834000       15.9994           0
     64364 TIP3     8323     TIP3     H1       HT       0.417000       1.00800           0
     64365 TIP3     8323     TIP3     H2       HT       0.417000       1.00800           0
     64366 TIP3     8324     TIP3     OH2      OT      -0.834000       15.9994           0
     64367 TIP3     8324     TIP3     H1       HT       0.417000       1.00800           0
     64368 TIP3     8324     TIP3     H2       HT       0.417000       1.00800           0
     64369 TIP3     8325     TIP3     OH2      OT      -0.834000       15.9994           0
     64370 TIP3     8325     TIP3     H1       HT       0.417000       1.00800           0
     64371 TIP3     8325     TIP3     H2       HT       0.417000       1.00800           0
     64372 TIP3     8326     TIP3     OH2      OT      -0.834000       15.9994           0
     64373 TIP3     8326     TIP3     H1       HT       0.417000       1.00800           0
     64374 TIP3     8326     TIP3     H2       HT       0.417000       1.00800           0
     64375 TIP3     8327     TIP3     OH2      OT      -0.834000       15.9994           0
     64376 TIP3     8327     TIP3     H1       HT       0.417000       1.00800           0
     64377 TIP3     8327     TIP3     H2       HT       0.417000       1.00800           0
     64378 TIP3     8328     TIP3     OH2      OT      -0.834000       15.9994           0
     64379 TIP3     8328     TIP3     H1       HT       0.417000       1.00800           0
     64380 TIP3     8328     TIP3     H2       HT       0.417000       1.00800           0
     64381 TIP3     8329     TIP3     OH2      OT      -0.834000       15.9994           0
     64382 TIP3     8329     TIP3     H1       HT       0.417000       1.00800           0
     64383 TIP3     8329     TIP3     H2       HT       0.417000       1.00800           0
     64384 TIP3     8330     TIP3     OH2      OT      -0.834000       15.9994           0
     64385 TIP3     8330     TIP3     H1       HT       0.417000       1.00800           0
     64386 TIP3     8330     TIP3     H2       HT       0.417000       1.00800           0
     64387 TIP3     8331     TIP3     OH2      OT      -0.834000       15.9994           0
     64388 TIP3     8331     TIP3     H1       HT       0.417000       1.00800           0
     64389 TIP3     8331     TIP3     H2       HT       0.417000       1.00800           0
     64390 TIP3     8332     TIP3     OH2      OT      -0.834000       15.9994           0
     64391 TIP3     8332     TIP3     H1       HT       0.417000       1.00800           0
     64392 TIP3     8332     TIP3     H2       HT       0.417000       1.00800           0
     64393 TIP3     8333     TIP3     OH2      OT      -0.834000       15.9994           0
     64394 TIP3     8333     TIP3     H1       HT       0.417000       1.00800           0
     64395 TIP3     8333     TIP3     H2       HT       0.417000       1.00800           0
     64396 TIP3     8334     TIP3     OH2      OT      -0.834000       15.9994           0
     64397 TIP3     8334     TIP3     H1       HT       0.417000       1.00800           0
     64398 TIP3     8334     TIP3     H2       HT       0.417000       1.00800           0
     64399 TIP3     8335     TIP3     OH2      OT      -0.834000       15.9994           0
     64400 TIP3     8335     TIP3     H1       HT       0.417000       1.00800           0
     64401 TIP3     8335     TIP3     H2       HT       0.417000       1.00800           0
     64402 TIP3     8336     TIP3     OH2      OT      -0.834000       15.9994           0
     64403 TIP3     8336     TIP3     H1       HT       0.417000       1.00800           0
     64404 TIP3     8336     TIP3     H2       HT       0.417000       1.00800           0
     64405 TIP3     8337     TIP3     OH2      OT      -0.834000       15.9994           0
     64406 TIP3     8337     TIP3     H1       HT       0.417000       1.00800           0
     64407 TIP3     8337     TIP3     H2       HT       0.417000       1.00800           0
     64408 TIP3     8338     TIP3     OH2      OT      -0.834000       15.9994           0
     64409 TIP3     8338     TIP3     H1       HT       0.417000       1.00800           0
     64410 TIP3     8338     TIP3     H2       HT       0.417000       1.00800           0
     64411 TIP3     8339     TIP3     OH2      OT      -0.834000       15.9994           0
     64412 TIP3     8339     TIP3     H1       HT       0.417000       1.00800           0
     64413 TIP3     8339     TIP3     H2       HT       0.417000       1.00800           0
     64414 TIP3     8340     TIP3     OH2      OT      -0.834000       15.9994           0
     64415 TIP3     8340     TIP3     H1       HT       0.417000       1.00800           0
     64416 TIP3     8340     TIP3     H2       HT       0.417000       1.00800           0
     64417 TIP3     8341     TIP3     OH2      OT      -0.834000       15.9994           0
     64418 TIP3     8341     TIP3     H1       HT       0.417000       1.00800           0
     64419 TIP3     8341     TIP3     H2       HT       0.417000       1.00800           0
     64420 TIP3     8342     TIP3     OH2      OT      -0.834000       15.9994           0
     64421 TIP3     8342     TIP3     H1       HT       0.417000       1.00800           0
     64422 TIP3     8342     TIP3     H2       HT       0.417000       1.00800           0
     64423 TIP3     8343     TIP3     OH2      OT      -0.834000       15.9994           0
     64424 TIP3     8343     TIP3     H1       HT       0.417000       1.00800           0
     64425 TIP3     8343     TIP3     H2       HT       0.417000       1.00800           0
     64426 TIP3     8344     TIP3     OH2      OT      -0.834000       15.9994           0
     64427 TIP3     8344     TIP3     H1       HT       0.417000       1.00800           0
     64428 TIP3     8344     TIP3     H2       HT       0.417000       1.00800           0
     64429 TIP3     8345     TIP3     OH2      OT      -0.834000       15.9994           0
     64430 TIP3     8345     TIP3     H1       HT       0.417000       1.00800           0
     64431 TIP3     8345     TIP3     H2       HT       0.417000       1.00800           0
     64432 TIP3     8346     TIP3     OH2      OT      -0.834000       15.9994           0
     64433 TIP3     8346     TIP3     H1       HT       0.417000       1.00800           0
     64434 TIP3     8346     TIP3     H2       HT       0.417000       1.00800           0
     64435 TIP3     8347     TIP3     OH2      OT      -0.834000       15.9994           0
     64436 TIP3     8347     TIP3     H1       HT       0.417000       1.00800           0
     64437 TIP3     8347     TIP3     H2       HT       0.417000       1.00800           0
     64438 TIP3     8348     TIP3     OH2      OT      -0.834000       15.9994           0
     64439 TIP3     8348     TIP3     H1       HT       0.417000       1.00800           0
     64440 TIP3     8348     TIP3     H2       HT       0.417000       1.00800           0
     64441 TIP3     8349     TIP3     OH2      OT      -0.834000       15.9994           0
     64442 TIP3     8349     TIP3     H1       HT       0.417000       1.00800           0
     64443 TIP3     8349     TIP3     H2       HT       0.417000       1.00800           0
     64444 TIP3     8350     TIP3     OH2      OT      -0.834000       15.9994           0
     64445 TIP3     8350     TIP3     H1       HT       0.417000       1.00800           0
     64446 TIP3     8350     TIP3     H2       HT       0.417000       1.00800           0
     64447 TIP3     8351     TIP3     OH2      OT      -0.834000       15.9994           0
     64448 TIP3     8351     TIP3     H1       HT       0.417000       1.00800           0
     64449 TIP3     8351     TIP3     H2       HT       0.417000       1.00800           0
     64450 TIP3     8352     TIP3     OH2      OT      -0.834000       15.9994           0
     64451 TIP3     8352     TIP3     H1       HT       0.417000       1.00800           0
     64452 TIP3     8352     TIP3     H2       HT       0.417000       1.00800           0
     64453 TIP3     8353     TIP3     OH2      OT      -0.834000       15.9994           0
     64454 TIP3     8353     TIP3     H1       HT       0.417000       1.00800           0
     64455 TIP3     8353     TIP3     H2       HT       0.417000       1.00800           0
     64456 TIP3     8354     TIP3     OH2      OT      -0.834000       15.9994           0
     64457 TIP3     8354     TIP3     H1       HT       0.417000       1.00800           0
     64458 TIP3     8354     TIP3     H2       HT       0.417000       1.00800           0
     64459 TIP3     8355     TIP3     OH2      OT      -0.834000       15.9994           0
     64460 TIP3     8355     TIP3     H1       HT       0.417000       1.00800           0
     64461 TIP3     8355     TIP3     H2       HT       0.417000       1.00800           0
     64462 TIP3     8356     TIP3     OH2      OT      -0.834000       15.9994           0
     64463 TIP3     8356     TIP3     H1       HT       0.417000       1.00800           0
     64464 TIP3     8356     TIP3     H2       HT       0.417000       1.00800           0
     64465 TIP3     8357     TIP3     OH2      OT      -0.834000       15.9994           0
     64466 TIP3     8357     TIP3     H1       HT       0.417000       1.00800           0
     64467 TIP3     8357     TIP3     H2       HT       0.417000       1.00800           0
     64468 TIP3     8358     TIP3     OH2      OT      -0.834000       15.9994           0
     64469 TIP3     8358     TIP3     H1       HT       0.417000       1.00800           0
     64470 TIP3     8358     TIP3     H2       HT       0.417000       1.00800           0
     64471 TIP3     8359     TIP3     OH2      OT      -0.834000       15.9994           0
     64472 TIP3     8359     TIP3     H1       HT       0.417000       1.00800           0
     64473 TIP3     8359     TIP3     H2       HT       0.417000       1.00800           0
     64474 TIP3     8360     TIP3     OH2      OT      -0.834000       15.9994           0
     64475 TIP3     8360     TIP3     H1       HT       0.417000       1.00800           0
     64476 TIP3     8360     TIP3     H2       HT       0.417000       1.00800           0
     64477 TIP3     8361     TIP3     OH2      OT      -0.834000       15.9994           0
     64478 TIP3     8361     TIP3     H1       HT       0.417000       1.00800           0
     64479 TIP3     8361     TIP3     H2       HT       0.417000       1.00800           0
     64480 TIP3     8362     TIP3     OH2      OT      -0.834000       15.9994           0
     64481 TIP3     8362     TIP3     H1       HT       0.417000       1.00800           0
     64482 TIP3     8362     TIP3     H2       HT       0.417000       1.00800           0
     64483 TIP3     8363     TIP3     OH2      OT      -0.834000       15.9994           0
     64484 TIP3     8363     TIP3     H1       HT       0.417000       1.00800           0
     64485 TIP3     8363     TIP3     H2       HT       0.417000       1.00800           0
     64486 TIP3     8364     TIP3     OH2      OT      -0.834000       15.9994           0
     64487 TIP3     8364     TIP3     H1       HT       0.417000       1.00800           0
     64488 TIP3     8364     TIP3     H2       HT       0.417000       1.00800           0
     64489 TIP3     8365     TIP3     OH2      OT      -0.834000       15.9994           0
     64490 TIP3     8365     TIP3     H1       HT       0.417000       1.00800           0
     64491 TIP3     8365     TIP3     H2       HT       0.417000       1.00800           0
     64492 TIP3     8366     TIP3     OH2      OT      -0.834000       15.9994           0
     64493 TIP3     8366     TIP3     H1       HT       0.417000       1.00800           0
     64494 TIP3     8366     TIP3     H2       HT       0.417000       1.00800           0
     64495 TIP3     8367     TIP3     OH2      OT      -0.834000       15.9994           0
     64496 TIP3     8367     TIP3     H1       HT       0.417000       1.00800           0
     64497 TIP3     8367     TIP3     H2       HT       0.417000       1.00800           0
     64498 TIP3     8368     TIP3     OH2      OT      -0.834000       15.9994           0
     64499 TIP3     8368     TIP3     H1       HT       0.417000       1.00800           0
     64500 TIP3     8368     TIP3     H2       HT       0.417000       1.00800           0
     64501 TIP3     8369     TIP3     OH2      OT      -0.834000       15.9994           0
     64502 TIP3     8369     TIP3     H1       HT       0.417000       1.00800           0
     64503 TIP3     8369     TIP3     H2       HT       0.417000       1.00800           0
     64504 TIP3     8370     TIP3     OH2      OT      -0.834000       15.9994           0
     64505 TIP3     8370     TIP3     H1       HT       0.417000       1.00800           0
     64506 TIP3     8370     TIP3     H2       HT       0.417000       1.00800           0
     64507 TIP3     8371     TIP3     OH2      OT      -0.834000       15.9994           0
     64508 TIP3     8371     TIP3     H1       HT       0.417000       1.00800           0
     64509 TIP3     8371     TIP3     H2       HT       0.417000       1.00800           0
     64510 TIP3     8372     TIP3     OH2      OT      -0.834000       15.9994           0
     64511 TIP3     8372     TIP3     H1       HT       0.417000       1.00800           0
     64512 TIP3     8372     TIP3     H2       HT       0.417000       1.00800           0
     64513 TIP3     8373     TIP3     OH2      OT      -0.834000       15.9994           0
     64514 TIP3     8373     TIP3     H1       HT       0.417000       1.00800           0
     64515 TIP3     8373     TIP3     H2       HT       0.417000       1.00800           0
     64516 TIP3     8374     TIP3     OH2      OT      -0.834000       15.9994           0
     64517 TIP3     8374     TIP3     H1       HT       0.417000       1.00800           0
     64518 TIP3     8374     TIP3     H2       HT       0.417000       1.00800           0
     64519 TIP3     8375     TIP3     OH2      OT      -0.834000       15.9994           0
     64520 TIP3     8375     TIP3     H1       HT       0.417000       1.00800           0
     64521 TIP3     8375     TIP3     H2       HT       0.417000       1.00800           0
     64522 TIP3     8376     TIP3     OH2      OT      -0.834000       15.9994           0
     64523 TIP3     8376     TIP3     H1       HT       0.417000       1.00800           0
     64524 TIP3     8376     TIP3     H2       HT       0.417000       1.00800           0
     64525 TIP3     8377     TIP3     OH2      OT      -0.834000       15.9994           0
     64526 TIP3     8377     TIP3     H1       HT       0.417000       1.00800           0
     64527 TIP3     8377     TIP3     H2       HT       0.417000       1.00800           0
     64528 TIP3     8378     TIP3     OH2      OT      -0.834000       15.9994           0
     64529 TIP3     8378     TIP3     H1       HT       0.417000       1.00800           0
     64530 TIP3     8378     TIP3     H2       HT       0.417000       1.00800           0
     64531 TIP3     8379     TIP3     OH2      OT      -0.834000       15.9994           0
     64532 TIP3     8379     TIP3     H1       HT       0.417000       1.00800           0
     64533 TIP3     8379     TIP3     H2       HT       0.417000       1.00800           0
     64534 TIP3     8380     TIP3     OH2      OT      -0.834000       15.9994           0
     64535 TIP3     8380     TIP3     H1       HT       0.417000       1.00800           0
     64536 TIP3     8380     TIP3     H2       HT       0.417000       1.00800           0
     64537 TIP3     8381     TIP3     OH2      OT      -0.834000       15.9994           0
     64538 TIP3     8381     TIP3     H1       HT       0.417000       1.00800           0
     64539 TIP3     8381     TIP3     H2       HT       0.417000       1.00800           0
     64540 TIP3     8382     TIP3     OH2      OT      -0.834000       15.9994           0
     64541 TIP3     8382     TIP3     H1       HT       0.417000       1.00800           0
     64542 TIP3     8382     TIP3     H2       HT       0.417000       1.00800           0
     64543 TIP3     8383     TIP3     OH2      OT      -0.834000       15.9994           0
     64544 TIP3     8383     TIP3     H1       HT       0.417000       1.00800           0
     64545 TIP3     8383     TIP3     H2       HT       0.417000       1.00800           0
     64546 TIP3     8384     TIP3     OH2      OT      -0.834000       15.9994           0
     64547 TIP3     8384     TIP3     H1       HT       0.417000       1.00800           0
     64548 TIP3     8384     TIP3     H2       HT       0.417000       1.00800           0
     64549 TIP3     8385     TIP3     OH2      OT      -0.834000       15.9994           0
     64550 TIP3     8385     TIP3     H1       HT       0.417000       1.00800           0
     64551 TIP3     8385     TIP3     H2       HT       0.417000       1.00800           0
     64552 TIP3     8386     TIP3     OH2      OT      -0.834000       15.9994           0
     64553 TIP3     8386     TIP3     H1       HT       0.417000       1.00800           0
     64554 TIP3     8386     TIP3     H2       HT       0.417000       1.00800           0
     64555 TIP3     8387     TIP3     OH2      OT      -0.834000       15.9994           0
     64556 TIP3     8387     TIP3     H1       HT       0.417000       1.00800           0
     64557 TIP3     8387     TIP3     H2       HT       0.417000       1.00800           0
     64558 TIP3     8388     TIP3     OH2      OT      -0.834000       15.9994           0
     64559 TIP3     8388     TIP3     H1       HT       0.417000       1.00800           0
     64560 TIP3     8388     TIP3     H2       HT       0.417000       1.00800           0
     64561 TIP3     8389     TIP3     OH2      OT      -0.834000       15.9994           0
     64562 TIP3     8389     TIP3     H1       HT       0.417000       1.00800           0
     64563 TIP3     8389     TIP3     H2       HT       0.417000       1.00800           0
     64564 TIP3     8390     TIP3     OH2      OT      -0.834000       15.9994           0
     64565 TIP3     8390     TIP3     H1       HT       0.417000       1.00800           0
     64566 TIP3     8390     TIP3     H2       HT       0.417000       1.00800           0
     64567 TIP3     8391     TIP3     OH2      OT      -0.834000       15.9994           0
     64568 TIP3     8391     TIP3     H1       HT       0.417000       1.00800           0
     64569 TIP3     8391     TIP3     H2       HT       0.417000       1.00800           0
     64570 TIP3     8392     TIP3     OH2      OT      -0.834000       15.9994           0
     64571 TIP3     8392     TIP3     H1       HT       0.417000       1.00800           0
     64572 TIP3     8392     TIP3     H2       HT       0.417000       1.00800           0
     64573 TIP3     8393     TIP3     OH2      OT      -0.834000       15.9994           0
     64574 TIP3     8393     TIP3     H1       HT       0.417000       1.00800           0
     64575 TIP3     8393     TIP3     H2       HT       0.417000       1.00800           0
     64576 TIP3     8394     TIP3     OH2      OT      -0.834000       15.9994           0
     64577 TIP3     8394     TIP3     H1       HT       0.417000       1.00800           0
     64578 TIP3     8394     TIP3     H2       HT       0.417000       1.00800           0
     64579 TIP3     8395     TIP3     OH2      OT      -0.834000       15.9994           0
     64580 TIP3     8395     TIP3     H1       HT       0.417000       1.00800           0
     64581 TIP3     8395     TIP3     H2       HT       0.417000       1.00800           0
     64582 TIP3     8396     TIP3     OH2      OT      -0.834000       15.9994           0
     64583 TIP3     8396     TIP3     H1       HT       0.417000       1.00800           0
     64584 TIP3     8396     TIP3     H2       HT       0.417000       1.00800           0
     64585 TIP3     8397     TIP3     OH2      OT      -0.834000       15.9994           0
     64586 TIP3     8397     TIP3     H1       HT       0.417000       1.00800           0
     64587 TIP3     8397     TIP3     H2       HT       0.417000       1.00800           0
     64588 TIP3     8398     TIP3     OH2      OT      -0.834000       15.9994           0
     64589 TIP3     8398     TIP3     H1       HT       0.417000       1.00800           0
     64590 TIP3     8398     TIP3     H2       HT       0.417000       1.00800           0
     64591 TIP3     8399     TIP3     OH2      OT      -0.834000       15.9994           0
     64592 TIP3     8399     TIP3     H1       HT       0.417000       1.00800           0
     64593 TIP3     8399     TIP3     H2       HT       0.417000       1.00800           0
     64594 TIP3     8400     TIP3     OH2      OT      -0.834000       15.9994           0
     64595 TIP3     8400     TIP3     H1       HT       0.417000       1.00800           0
     64596 TIP3     8400     TIP3     H2       HT       0.417000       1.00800           0
     64597 TIP3     8401     TIP3     OH2      OT      -0.834000       15.9994           0
     64598 TIP3     8401     TIP3     H1       HT       0.417000       1.00800           0
     64599 TIP3     8401     TIP3     H2       HT       0.417000       1.00800           0
     64600 TIP3     8402     TIP3     OH2      OT      -0.834000       15.9994           0
     64601 TIP3     8402     TIP3     H1       HT       0.417000       1.00800           0
     64602 TIP3     8402     TIP3     H2       HT       0.417000       1.00800           0
     64603 TIP3     8403     TIP3     OH2      OT      -0.834000       15.9994           0
     64604 TIP3     8403     TIP3     H1       HT       0.417000       1.00800           0
     64605 TIP3     8403     TIP3     H2       HT       0.417000       1.00800           0
     64606 TIP3     8404     TIP3     OH2      OT      -0.834000       15.9994           0
     64607 TIP3     8404     TIP3     H1       HT       0.417000       1.00800           0
     64608 TIP3     8404     TIP3     H2       HT       0.417000       1.00800           0
     64609 TIP3     8405     TIP3     OH2      OT      -0.834000       15.9994           0
     64610 TIP3     8405     TIP3     H1       HT       0.417000       1.00800           0
     64611 TIP3     8405     TIP3     H2       HT       0.417000       1.00800           0
     64612 TIP3     8406     TIP3     OH2      OT      -0.834000       15.9994           0
     64613 TIP3     8406     TIP3     H1       HT       0.417000       1.00800           0
     64614 TIP3     8406     TIP3     H2       HT       0.417000       1.00800           0
     64615 TIP3     8407     TIP3     OH2      OT      -0.834000       15.9994           0
     64616 TIP3     8407     TIP3     H1       HT       0.417000       1.00800           0
     64617 TIP3     8407     TIP3     H2       HT       0.417000       1.00800           0
     64618 TIP3     8408     TIP3     OH2      OT      -0.834000       15.9994           0
     64619 TIP3     8408     TIP3     H1       HT       0.417000       1.00800           0
     64620 TIP3     8408     TIP3     H2       HT       0.417000       1.00800           0
     64621 TIP3     8409     TIP3     OH2      OT      -0.834000       15.9994           0
     64622 TIP3     8409     TIP3     H1       HT       0.417000       1.00800           0
     64623 TIP3     8409     TIP3     H2       HT       0.417000       1.00800           0
     64624 TIP3     8410     TIP3     OH2      OT      -0.834000       15.9994           0
     64625 TIP3     8410     TIP3     H1       HT       0.417000       1.00800           0
     64626 TIP3     8410     TIP3     H2       HT       0.417000       1.00800           0
     64627 TIP3     8411     TIP3     OH2      OT      -0.834000       15.9994           0
     64628 TIP3     8411     TIP3     H1       HT       0.417000       1.00800           0
     64629 TIP3     8411     TIP3     H2       HT       0.417000       1.00800           0
     64630 TIP3     8412     TIP3     OH2      OT      -0.834000       15.9994           0
     64631 TIP3     8412     TIP3     H1       HT       0.417000       1.00800           0
     64632 TIP3     8412     TIP3     H2       HT       0.417000       1.00800           0
     64633 TIP3     8413     TIP3     OH2      OT      -0.834000       15.9994           0
     64634 TIP3     8413     TIP3     H1       HT       0.417000       1.00800           0
     64635 TIP3     8413     TIP3     H2       HT       0.417000       1.00800           0
     64636 TIP3     8414     TIP3     OH2      OT      -0.834000       15.9994           0
     64637 TIP3     8414     TIP3     H1       HT       0.417000       1.00800           0
     64638 TIP3     8414     TIP3     H2       HT       0.417000       1.00800           0
     64639 TIP3     8415     TIP3     OH2      OT      -0.834000       15.9994           0
     64640 TIP3     8415     TIP3     H1       HT       0.417000       1.00800           0
     64641 TIP3     8415     TIP3     H2       HT       0.417000       1.00800           0
     64642 TIP3     8416     TIP3     OH2      OT      -0.834000       15.9994           0
     64643 TIP3     8416     TIP3     H1       HT       0.417000       1.00800           0
     64644 TIP3     8416     TIP3     H2       HT       0.417000       1.00800           0
     64645 TIP3     8417     TIP3     OH2      OT      -0.834000       15.9994           0
     64646 TIP3     8417     TIP3     H1       HT       0.417000       1.00800           0
     64647 TIP3     8417     TIP3     H2       HT       0.417000       1.00800           0
     64648 TIP3     8418     TIP3     OH2      OT      -0.834000       15.9994           0
     64649 TIP3     8418     TIP3     H1       HT       0.417000       1.00800           0
     64650 TIP3     8418     TIP3     H2       HT       0.417000       1.00800           0
     64651 TIP3     8419     TIP3     OH2      OT      -0.834000       15.9994           0
     64652 TIP3     8419     TIP3     H1       HT       0.417000       1.00800           0
     64653 TIP3     8419     TIP3     H2       HT       0.417000       1.00800           0
     64654 TIP3     8420     TIP3     OH2      OT      -0.834000       15.9994           0
     64655 TIP3     8420     TIP3     H1       HT       0.417000       1.00800           0
     64656 TIP3     8420     TIP3     H2       HT       0.417000       1.00800           0
     64657 TIP3     8421     TIP3     OH2      OT      -0.834000       15.9994           0
     64658 TIP3     8421     TIP3     H1       HT       0.417000       1.00800           0
     64659 TIP3     8421     TIP3     H2       HT       0.417000       1.00800           0
     64660 TIP3     8422     TIP3     OH2      OT      -0.834000       15.9994           0
     64661 TIP3     8422     TIP3     H1       HT       0.417000       1.00800           0
     64662 TIP3     8422     TIP3     H2       HT       0.417000       1.00800           0
     64663 TIP3     8423     TIP3     OH2      OT      -0.834000       15.9994           0
     64664 TIP3     8423     TIP3     H1       HT       0.417000       1.00800           0
     64665 TIP3     8423     TIP3     H2       HT       0.417000       1.00800           0
     64666 TIP3     8424     TIP3     OH2      OT      -0.834000       15.9994           0
     64667 TIP3     8424     TIP3     H1       HT       0.417000       1.00800           0
     64668 TIP3     8424     TIP3     H2       HT       0.417000       1.00800           0
     64669 TIP3     8425     TIP3     OH2      OT      -0.834000       15.9994           0
     64670 TIP3     8425     TIP3     H1       HT       0.417000       1.00800           0
     64671 TIP3     8425     TIP3     H2       HT       0.417000       1.00800           0
     64672 TIP3     8426     TIP3     OH2      OT      -0.834000       15.9994           0
     64673 TIP3     8426     TIP3     H1       HT       0.417000       1.00800           0
     64674 TIP3     8426     TIP3     H2       HT       0.417000       1.00800           0
     64675 TIP3     8427     TIP3     OH2      OT      -0.834000       15.9994           0
     64676 TIP3     8427     TIP3     H1       HT       0.417000       1.00800           0
     64677 TIP3     8427     TIP3     H2       HT       0.417000       1.00800           0
     64678 TIP3     8428     TIP3     OH2      OT      -0.834000       15.9994           0
     64679 TIP3     8428     TIP3     H1       HT       0.417000       1.00800           0
     64680 TIP3     8428     TIP3     H2       HT       0.417000       1.00800           0
     64681 TIP3     8429     TIP3     OH2      OT      -0.834000       15.9994           0
     64682 TIP3     8429     TIP3     H1       HT       0.417000       1.00800           0
     64683 TIP3     8429     TIP3     H2       HT       0.417000       1.00800           0
     64684 TIP3     8430     TIP3     OH2      OT      -0.834000       15.9994           0
     64685 TIP3     8430     TIP3     H1       HT       0.417000       1.00800           0
     64686 TIP3     8430     TIP3     H2       HT       0.417000       1.00800           0
     64687 TIP3     8431     TIP3     OH2      OT      -0.834000       15.9994           0
     64688 TIP3     8431     TIP3     H1       HT       0.417000       1.00800           0
     64689 TIP3     8431     TIP3     H2       HT       0.417000       1.00800           0
     64690 TIP3     8432     TIP3     OH2      OT      -0.834000       15.9994           0
     64691 TIP3     8432     TIP3     H1       HT       0.417000       1.00800           0
     64692 TIP3     8432     TIP3     H2       HT       0.417000       1.00800           0
     64693 TIP3     8433     TIP3     OH2      OT      -0.834000       15.9994           0
     64694 TIP3     8433     TIP3     H1       HT       0.417000       1.00800           0
     64695 TIP3     8433     TIP3     H2       HT       0.417000       1.00800           0
     64696 TIP3     8434     TIP3     OH2      OT      -0.834000       15.9994           0
     64697 TIP3     8434     TIP3     H1       HT       0.417000       1.00800           0
     64698 TIP3     8434     TIP3     H2       HT       0.417000       1.00800           0
     64699 TIP3     8435     TIP3     OH2      OT      -0.834000       15.9994           0
     64700 TIP3     8435     TIP3     H1       HT       0.417000       1.00800           0
     64701 TIP3     8435     TIP3     H2       HT       0.417000       1.00800           0
     64702 TIP3     8436     TIP3     OH2      OT      -0.834000       15.9994           0
     64703 TIP3     8436     TIP3     H1       HT       0.417000       1.00800           0
     64704 TIP3     8436     TIP3     H2       HT       0.417000       1.00800           0
     64705 TIP3     8437     TIP3     OH2      OT      -0.834000       15.9994           0
     64706 TIP3     8437     TIP3     H1       HT       0.417000       1.00800           0
     64707 TIP3     8437     TIP3     H2       HT       0.417000       1.00800           0
     64708 TIP3     8438     TIP3     OH2      OT      -0.834000       15.9994           0
     64709 TIP3     8438     TIP3     H1       HT       0.417000       1.00800           0
     64710 TIP3     8438     TIP3     H2       HT       0.417000       1.00800           0
     64711 TIP3     8439     TIP3     OH2      OT      -0.834000       15.9994           0
     64712 TIP3     8439     TIP3     H1       HT       0.417000       1.00800           0
     64713 TIP3     8439     TIP3     H2       HT       0.417000       1.00800           0
     64714 TIP3     8440     TIP3     OH2      OT      -0.834000       15.9994           0
     64715 TIP3     8440     TIP3     H1       HT       0.417000       1.00800           0
     64716 TIP3     8440     TIP3     H2       HT       0.417000       1.00800           0
     64717 TIP3     8441     TIP3     OH2      OT      -0.834000       15.9994           0
     64718 TIP3     8441     TIP3     H1       HT       0.417000       1.00800           0
     64719 TIP3     8441     TIP3     H2       HT       0.417000       1.00800           0
     64720 TIP3     8442     TIP3     OH2      OT      -0.834000       15.9994           0
     64721 TIP3     8442     TIP3     H1       HT       0.417000       1.00800           0
     64722 TIP3     8442     TIP3     H2       HT       0.417000       1.00800           0
     64723 TIP3     8443     TIP3     OH2      OT      -0.834000       15.9994           0
     64724 TIP3     8443     TIP3     H1       HT       0.417000       1.00800           0
     64725 TIP3     8443     TIP3     H2       HT       0.417000       1.00800           0
     64726 TIP3     8444     TIP3     OH2      OT      -0.834000       15.9994           0
     64727 TIP3     8444     TIP3     H1       HT       0.417000       1.00800           0
     64728 TIP3     8444     TIP3     H2       HT       0.417000       1.00800           0
     64729 TIP3     8445     TIP3     OH2      OT      -0.834000       15.9994           0
     64730 TIP3     8445     TIP3     H1       HT       0.417000       1.00800           0
     64731 TIP3     8445     TIP3     H2       HT       0.417000       1.00800           0
     64732 TIP3     8446     TIP3     OH2      OT      -0.834000       15.9994           0
     64733 TIP3     8446     TIP3     H1       HT       0.417000       1.00800           0
     64734 TIP3     8446     TIP3     H2       HT       0.417000       1.00800           0
     64735 TIP3     8447     TIP3     OH2      OT      -0.834000       15.9994           0
     64736 TIP3     8447     TIP3     H1       HT       0.417000       1.00800           0
     64737 TIP3     8447     TIP3     H2       HT       0.417000       1.00800           0
     64738 TIP3     8448     TIP3     OH2      OT      -0.834000       15.9994           0
     64739 TIP3     8448     TIP3     H1       HT       0.417000       1.00800           0
     64740 TIP3     8448     TIP3     H2       HT       0.417000       1.00800           0
     64741 TIP3     8449     TIP3     OH2      OT      -0.834000       15.9994           0
     64742 TIP3     8449     TIP3     H1       HT       0.417000       1.00800           0
     64743 TIP3     8449     TIP3     H2       HT       0.417000       1.00800           0
     64744 TIP3     8450     TIP3     OH2      OT      -0.834000       15.9994           0
     64745 TIP3     8450     TIP3     H1       HT       0.417000       1.00800           0
     64746 TIP3     8450     TIP3     H2       HT       0.417000       1.00800           0
     64747 TIP3     8451     TIP3     OH2      OT      -0.834000       15.9994           0
     64748 TIP3     8451     TIP3     H1       HT       0.417000       1.00800           0
     64749 TIP3     8451     TIP3     H2       HT       0.417000       1.00800           0
     64750 TIP3     8452     TIP3     OH2      OT      -0.834000       15.9994           0
     64751 TIP3     8452     TIP3     H1       HT       0.417000       1.00800           0
     64752 TIP3     8452     TIP3     H2       HT       0.417000       1.00800           0
     64753 TIP3     8453     TIP3     OH2      OT      -0.834000       15.9994           0
     64754 TIP3     8453     TIP3     H1       HT       0.417000       1.00800           0
     64755 TIP3     8453     TIP3     H2       HT       0.417000       1.00800           0
     64756 TIP3     8454     TIP3     OH2      OT      -0.834000       15.9994           0
     64757 TIP3     8454     TIP3     H1       HT       0.417000       1.00800           0
     64758 TIP3     8454     TIP3     H2       HT       0.417000       1.00800           0
     64759 TIP3     8455     TIP3     OH2      OT      -0.834000       15.9994           0
     64760 TIP3     8455     TIP3     H1       HT       0.417000       1.00800           0
     64761 TIP3     8455     TIP3     H2       HT       0.417000       1.00800           0
     64762 TIP3     8456     TIP3     OH2      OT      -0.834000       15.9994           0
     64763 TIP3     8456     TIP3     H1       HT       0.417000       1.00800           0
     64764 TIP3     8456     TIP3     H2       HT       0.417000       1.00800           0
     64765 TIP3     8457     TIP3     OH2      OT      -0.834000       15.9994           0
     64766 TIP3     8457     TIP3     H1       HT       0.417000       1.00800           0
     64767 TIP3     8457     TIP3     H2       HT       0.417000       1.00800           0
     64768 TIP3     8458     TIP3     OH2      OT      -0.834000       15.9994           0
     64769 TIP3     8458     TIP3     H1       HT       0.417000       1.00800           0
     64770 TIP3     8458     TIP3     H2       HT       0.417000       1.00800           0
     64771 TIP3     8459     TIP3     OH2      OT      -0.834000       15.9994           0
     64772 TIP3     8459     TIP3     H1       HT       0.417000       1.00800           0
     64773 TIP3     8459     TIP3     H2       HT       0.417000       1.00800           0
     64774 TIP3     8460     TIP3     OH2      OT      -0.834000       15.9994           0
     64775 TIP3     8460     TIP3     H1       HT       0.417000       1.00800           0
     64776 TIP3     8460     TIP3     H2       HT       0.417000       1.00800           0
     64777 TIP3     8461     TIP3     OH2      OT      -0.834000       15.9994           0
     64778 TIP3     8461     TIP3     H1       HT       0.417000       1.00800           0
     64779 TIP3     8461     TIP3     H2       HT       0.417000       1.00800           0
     64780 TIP3     8462     TIP3     OH2      OT      -0.834000       15.9994           0
     64781 TIP3     8462     TIP3     H1       HT       0.417000       1.00800           0
     64782 TIP3     8462     TIP3     H2       HT       0.417000       1.00800           0
     64783 TIP3     8463     TIP3     OH2      OT      -0.834000       15.9994           0
     64784 TIP3     8463     TIP3     H1       HT       0.417000       1.00800           0
     64785 TIP3     8463     TIP3     H2       HT       0.417000       1.00800           0
     64786 TIP3     8464     TIP3     OH2      OT      -0.834000       15.9994           0
     64787 TIP3     8464     TIP3     H1       HT       0.417000       1.00800           0
     64788 TIP3     8464     TIP3     H2       HT       0.417000       1.00800           0
     64789 TIP3     8465     TIP3     OH2      OT      -0.834000       15.9994           0
     64790 TIP3     8465     TIP3     H1       HT       0.417000       1.00800           0
     64791 TIP3     8465     TIP3     H2       HT       0.417000       1.00800           0
     64792 TIP3     8466     TIP3     OH2      OT      -0.834000       15.9994           0
     64793 TIP3     8466     TIP3     H1       HT       0.417000       1.00800           0
     64794 TIP3     8466     TIP3     H2       HT       0.417000       1.00800           0
     64795 TIP3     8467     TIP3     OH2      OT      -0.834000       15.9994           0
     64796 TIP3     8467     TIP3     H1       HT       0.417000       1.00800           0
     64797 TIP3     8467     TIP3     H2       HT       0.417000       1.00800           0
     64798 TIP3     8468     TIP3     OH2      OT      -0.834000       15.9994           0
     64799 TIP3     8468     TIP3     H1       HT       0.417000       1.00800           0
     64800 TIP3     8468     TIP3     H2       HT       0.417000       1.00800           0
     64801 TIP3     8469     TIP3     OH2      OT      -0.834000       15.9994           0
     64802 TIP3     8469     TIP3     H1       HT       0.417000       1.00800           0
     64803 TIP3     8469     TIP3     H2       HT       0.417000       1.00800           0
     64804 TIP3     8470     TIP3     OH2      OT      -0.834000       15.9994           0
     64805 TIP3     8470     TIP3     H1       HT       0.417000       1.00800           0
     64806 TIP3     8470     TIP3     H2       HT       0.417000       1.00800           0
     64807 TIP3     8471     TIP3     OH2      OT      -0.834000       15.9994           0
     64808 TIP3     8471     TIP3     H1       HT       0.417000       1.00800           0
     64809 TIP3     8471     TIP3     H2       HT       0.417000       1.00800           0
     64810 TIP3     8472     TIP3     OH2      OT      -0.834000       15.9994           0
     64811 TIP3     8472     TIP3     H1       HT       0.417000       1.00800           0
     64812 TIP3     8472     TIP3     H2       HT       0.417000       1.00800           0
     64813 TIP3     8473     TIP3     OH2      OT      -0.834000       15.9994           0
     64814 TIP3     8473     TIP3     H1       HT       0.417000       1.00800           0
     64815 TIP3     8473     TIP3     H2       HT       0.417000       1.00800           0
     64816 TIP3     8474     TIP3     OH2      OT      -0.834000       15.9994           0
     64817 TIP3     8474     TIP3     H1       HT       0.417000       1.00800           0
     64818 TIP3     8474     TIP3     H2       HT       0.417000       1.00800           0
     64819 TIP3     8475     TIP3     OH2      OT      -0.834000       15.9994           0
     64820 TIP3     8475     TIP3     H1       HT       0.417000       1.00800           0
     64821 TIP3     8475     TIP3     H2       HT       0.417000       1.00800           0
     64822 TIP3     8476     TIP3     OH2      OT      -0.834000       15.9994           0
     64823 TIP3     8476     TIP3     H1       HT       0.417000       1.00800           0
     64824 TIP3     8476     TIP3     H2       HT       0.417000       1.00800           0
     64825 TIP3     8477     TIP3     OH2      OT      -0.834000       15.9994           0
     64826 TIP3     8477     TIP3     H1       HT       0.417000       1.00800           0
     64827 TIP3     8477     TIP3     H2       HT       0.417000       1.00800           0
     64828 TIP3     8478     TIP3     OH2      OT      -0.834000       15.9994           0
     64829 TIP3     8478     TIP3     H1       HT       0.417000       1.00800           0
     64830 TIP3     8478     TIP3     H2       HT       0.417000       1.00800           0
     64831 TIP3     8479     TIP3     OH2      OT      -0.834000       15.9994           0
     64832 TIP3     8479     TIP3     H1       HT       0.417000       1.00800           0
     64833 TIP3     8479     TIP3     H2       HT       0.417000       1.00800           0
     64834 TIP3     8480     TIP3     OH2      OT      -0.834000       15.9994           0
     64835 TIP3     8480     TIP3     H1       HT       0.417000       1.00800           0
     64836 TIP3     8480     TIP3     H2       HT       0.417000       1.00800           0
     64837 TIP3     8481     TIP3     OH2      OT      -0.834000       15.9994           0
     64838 TIP3     8481     TIP3     H1       HT       0.417000       1.00800           0
     64839 TIP3     8481     TIP3     H2       HT       0.417000       1.00800           0
     64840 TIP3     8482     TIP3     OH2      OT      -0.834000       15.9994           0
     64841 TIP3     8482     TIP3     H1       HT       0.417000       1.00800           0
     64842 TIP3     8482     TIP3     H2       HT       0.417000       1.00800           0
     64843 TIP3     8483     TIP3     OH2      OT      -0.834000       15.9994           0
     64844 TIP3     8483     TIP3     H1       HT       0.417000       1.00800           0
     64845 TIP3     8483     TIP3     H2       HT       0.417000       1.00800           0
     64846 TIP3     8484     TIP3     OH2      OT      -0.834000       15.9994           0
     64847 TIP3     8484     TIP3     H1       HT       0.417000       1.00800           0
     64848 TIP3     8484     TIP3     H2       HT       0.417000       1.00800           0
     64849 TIP3     8485     TIP3     OH2      OT      -0.834000       15.9994           0
     64850 TIP3     8485     TIP3     H1       HT       0.417000       1.00800           0
     64851 TIP3     8485     TIP3     H2       HT       0.417000       1.00800           0
     64852 TIP3     8486     TIP3     OH2      OT      -0.834000       15.9994           0
     64853 TIP3     8486     TIP3     H1       HT       0.417000       1.00800           0
     64854 TIP3     8486     TIP3     H2       HT       0.417000       1.00800           0
     64855 TIP3     8487     TIP3     OH2      OT      -0.834000       15.9994           0
     64856 TIP3     8487     TIP3     H1       HT       0.417000       1.00800           0
     64857 TIP3     8487     TIP3     H2       HT       0.417000       1.00800           0
     64858 TIP3     8488     TIP3     OH2      OT      -0.834000       15.9994           0
     64859 TIP3     8488     TIP3     H1       HT       0.417000       1.00800           0
     64860 TIP3     8488     TIP3     H2       HT       0.417000       1.00800           0
     64861 TIP3     8489     TIP3     OH2      OT      -0.834000       15.9994           0
     64862 TIP3     8489     TIP3     H1       HT       0.417000       1.00800           0
     64863 TIP3     8489     TIP3     H2       HT       0.417000       1.00800           0
     64864 TIP3     8490     TIP3     OH2      OT      -0.834000       15.9994           0
     64865 TIP3     8490     TIP3     H1       HT       0.417000       1.00800           0
     64866 TIP3     8490     TIP3     H2       HT       0.417000       1.00800           0
     64867 TIP3     8491     TIP3     OH2      OT      -0.834000       15.9994           0
     64868 TIP3     8491     TIP3     H1       HT       0.417000       1.00800           0
     64869 TIP3     8491     TIP3     H2       HT       0.417000       1.00800           0
     64870 TIP3     8492     TIP3     OH2      OT      -0.834000       15.9994           0
     64871 TIP3     8492     TIP3     H1       HT       0.417000       1.00800           0
     64872 TIP3     8492     TIP3     H2       HT       0.417000       1.00800           0
     64873 TIP3     8493     TIP3     OH2      OT      -0.834000       15.9994           0
     64874 TIP3     8493     TIP3     H1       HT       0.417000       1.00800           0
     64875 TIP3     8493     TIP3     H2       HT       0.417000       1.00800           0
     64876 TIP3     8494     TIP3     OH2      OT      -0.834000       15.9994           0
     64877 TIP3     8494     TIP3     H1       HT       0.417000       1.00800           0
     64878 TIP3     8494     TIP3     H2       HT       0.417000       1.00800           0
     64879 TIP3     8495     TIP3     OH2      OT      -0.834000       15.9994           0
     64880 TIP3     8495     TIP3     H1       HT       0.417000       1.00800           0
     64881 TIP3     8495     TIP3     H2       HT       0.417000       1.00800           0
     64882 TIP3     8496     TIP3     OH2      OT      -0.834000       15.9994           0
     64883 TIP3     8496     TIP3     H1       HT       0.417000       1.00800           0
     64884 TIP3     8496     TIP3     H2       HT       0.417000       1.00800           0
     64885 TIP3     8497     TIP3     OH2      OT      -0.834000       15.9994           0
     64886 TIP3     8497     TIP3     H1       HT       0.417000       1.00800           0
     64887 TIP3     8497     TIP3     H2       HT       0.417000       1.00800           0
     64888 TIP3     8498     TIP3     OH2      OT      -0.834000       15.9994           0
     64889 TIP3     8498     TIP3     H1       HT       0.417000       1.00800           0
     64890 TIP3     8498     TIP3     H2       HT       0.417000       1.00800           0
     64891 TIP3     8499     TIP3     OH2      OT      -0.834000       15.9994           0
     64892 TIP3     8499     TIP3     H1       HT       0.417000       1.00800           0
     64893 TIP3     8499     TIP3     H2       HT       0.417000       1.00800           0
     64894 TIP3     8500     TIP3     OH2      OT      -0.834000       15.9994           0
     64895 TIP3     8500     TIP3     H1       HT       0.417000       1.00800           0
     64896 TIP3     8500     TIP3     H2       HT       0.417000       1.00800           0
     64897 TIP3     8501     TIP3     OH2      OT      -0.834000       15.9994           0
     64898 TIP3     8501     TIP3     H1       HT       0.417000       1.00800           0
     64899 TIP3     8501     TIP3     H2       HT       0.417000       1.00800           0
     64900 TIP3     8502     TIP3     OH2      OT      -0.834000       15.9994           0
     64901 TIP3     8502     TIP3     H1       HT       0.417000       1.00800           0
     64902 TIP3     8502     TIP3     H2       HT       0.417000       1.00800           0
     64903 TIP3     8503     TIP3     OH2      OT      -0.834000       15.9994           0
     64904 TIP3     8503     TIP3     H1       HT       0.417000       1.00800           0
     64905 TIP3     8503     TIP3     H2       HT       0.417000       1.00800           0
     64906 TIP3     8504     TIP3     OH2      OT      -0.834000       15.9994           0
     64907 TIP3     8504     TIP3     H1       HT       0.417000       1.00800           0
     64908 TIP3     8504     TIP3     H2       HT       0.417000       1.00800           0
     64909 TIP3     8505     TIP3     OH2      OT      -0.834000       15.9994           0
     64910 TIP3     8505     TIP3     H1       HT       0.417000       1.00800           0
     64911 TIP3     8505     TIP3     H2       HT       0.417000       1.00800           0
     64912 TIP3     8506     TIP3     OH2      OT      -0.834000       15.9994           0
     64913 TIP3     8506     TIP3     H1       HT       0.417000       1.00800           0
     64914 TIP3     8506     TIP3     H2       HT       0.417000       1.00800           0
     64915 TIP3     8507     TIP3     OH2      OT      -0.834000       15.9994           0
     64916 TIP3     8507     TIP3     H1       HT       0.417000       1.00800           0
     64917 TIP3     8507     TIP3     H2       HT       0.417000       1.00800           0
     64918 TIP3     8508     TIP3     OH2      OT      -0.834000       15.9994           0
     64919 TIP3     8508     TIP3     H1       HT       0.417000       1.00800           0
     64920 TIP3     8508     TIP3     H2       HT       0.417000       1.00800           0
     64921 TIP3     8509     TIP3     OH2      OT      -0.834000       15.9994           0
     64922 TIP3     8509     TIP3     H1       HT       0.417000       1.00800           0
     64923 TIP3     8509     TIP3     H2       HT       0.417000       1.00800           0
     64924 TIP3     8510     TIP3     OH2      OT      -0.834000       15.9994           0
     64925 TIP3     8510     TIP3     H1       HT       0.417000       1.00800           0
     64926 TIP3     8510     TIP3     H2       HT       0.417000       1.00800           0
     64927 TIP3     8511     TIP3     OH2      OT      -0.834000       15.9994           0
     64928 TIP3     8511     TIP3     H1       HT       0.417000       1.00800           0
     64929 TIP3     8511     TIP3     H2       HT       0.417000       1.00800           0
     64930 TIP3     8512     TIP3     OH2      OT      -0.834000       15.9994           0
     64931 TIP3     8512     TIP3     H1       HT       0.417000       1.00800           0
     64932 TIP3     8512     TIP3     H2       HT       0.417000       1.00800           0
     64933 TIP3     8513     TIP3     OH2      OT      -0.834000       15.9994           0
     64934 TIP3     8513     TIP3     H1       HT       0.417000       1.00800           0
     64935 TIP3     8513     TIP3     H2       HT       0.417000       1.00800           0
     64936 TIP3     8514     TIP3     OH2      OT      -0.834000       15.9994           0
     64937 TIP3     8514     TIP3     H1       HT       0.417000       1.00800           0
     64938 TIP3     8514     TIP3     H2       HT       0.417000       1.00800           0
     64939 TIP3     8515     TIP3     OH2      OT      -0.834000       15.9994           0
     64940 TIP3     8515     TIP3     H1       HT       0.417000       1.00800           0
     64941 TIP3     8515     TIP3     H2       HT       0.417000       1.00800           0
     64942 TIP3     8516     TIP3     OH2      OT      -0.834000       15.9994           0
     64943 TIP3     8516     TIP3     H1       HT       0.417000       1.00800           0
     64944 TIP3     8516     TIP3     H2       HT       0.417000       1.00800           0
     64945 TIP3     8517     TIP3     OH2      OT      -0.834000       15.9994           0
     64946 TIP3     8517     TIP3     H1       HT       0.417000       1.00800           0
     64947 TIP3     8517     TIP3     H2       HT       0.417000       1.00800           0
     64948 TIP3     8518     TIP3     OH2      OT      -0.834000       15.9994           0
     64949 TIP3     8518     TIP3     H1       HT       0.417000       1.00800           0
     64950 TIP3     8518     TIP3     H2       HT       0.417000       1.00800           0
     64951 TIP3     8519     TIP3     OH2      OT      -0.834000       15.9994           0
     64952 TIP3     8519     TIP3     H1       HT       0.417000       1.00800           0
     64953 TIP3     8519     TIP3     H2       HT       0.417000       1.00800           0
     64954 TIP3     8520     TIP3     OH2      OT      -0.834000       15.9994           0
     64955 TIP3     8520     TIP3     H1       HT       0.417000       1.00800           0
     64956 TIP3     8520     TIP3     H2       HT       0.417000       1.00800           0
     64957 TIP3     8521     TIP3     OH2      OT      -0.834000       15.9994           0
     64958 TIP3     8521     TIP3     H1       HT       0.417000       1.00800           0
     64959 TIP3     8521     TIP3     H2       HT       0.417000       1.00800           0
     64960 TIP3     8522     TIP3     OH2      OT      -0.834000       15.9994           0
     64961 TIP3     8522     TIP3     H1       HT       0.417000       1.00800           0
     64962 TIP3     8522     TIP3     H2       HT       0.417000       1.00800           0
     64963 TIP3     8523     TIP3     OH2      OT      -0.834000       15.9994           0
     64964 TIP3     8523     TIP3     H1       HT       0.417000       1.00800           0
     64965 TIP3     8523     TIP3     H2       HT       0.417000       1.00800           0
     64966 TIP3     8524     TIP3     OH2      OT      -0.834000       15.9994           0
     64967 TIP3     8524     TIP3     H1       HT       0.417000       1.00800           0
     64968 TIP3     8524     TIP3     H2       HT       0.417000       1.00800           0
     64969 TIP3     8525     TIP3     OH2      OT      -0.834000       15.9994           0
     64970 TIP3     8525     TIP3     H1       HT       0.417000       1.00800           0
     64971 TIP3     8525     TIP3     H2       HT       0.417000       1.00800           0
     64972 TIP3     8526     TIP3     OH2      OT      -0.834000       15.9994           0
     64973 TIP3     8526     TIP3     H1       HT       0.417000       1.00800           0
     64974 TIP3     8526     TIP3     H2       HT       0.417000       1.00800           0
     64975 TIP3     8527     TIP3     OH2      OT      -0.834000       15.9994           0
     64976 TIP3     8527     TIP3     H1       HT       0.417000       1.00800           0
     64977 TIP3     8527     TIP3     H2       HT       0.417000       1.00800           0
     64978 TIP3     8528     TIP3     OH2      OT      -0.834000       15.9994           0
     64979 TIP3     8528     TIP3     H1       HT       0.417000       1.00800           0
     64980 TIP3     8528     TIP3     H2       HT       0.417000       1.00800           0
     64981 TIP3     8529     TIP3     OH2      OT      -0.834000       15.9994           0
     64982 TIP3     8529     TIP3     H1       HT       0.417000       1.00800           0
     64983 TIP3     8529     TIP3     H2       HT       0.417000       1.00800           0
     64984 TIP3     8530     TIP3     OH2      OT      -0.834000       15.9994           0
     64985 TIP3     8530     TIP3     H1       HT       0.417000       1.00800           0
     64986 TIP3     8530     TIP3     H2       HT       0.417000       1.00800           0
     64987 TIP3     8531     TIP3     OH2      OT      -0.834000       15.9994           0
     64988 TIP3     8531     TIP3     H1       HT       0.417000       1.00800           0
     64989 TIP3     8531     TIP3     H2       HT       0.417000       1.00800           0
     64990 TIP3     8532     TIP3     OH2      OT      -0.834000       15.9994           0
     64991 TIP3     8532     TIP3     H1       HT       0.417000       1.00800           0
     64992 TIP3     8532     TIP3     H2       HT       0.417000       1.00800           0
     64993 TIP3     8533     TIP3     OH2      OT      -0.834000       15.9994           0
     64994 TIP3     8533     TIP3     H1       HT       0.417000       1.00800           0
     64995 TIP3     8533     TIP3     H2       HT       0.417000       1.00800           0
     64996 TIP3     8534     TIP3     OH2      OT      -0.834000       15.9994           0
     64997 TIP3     8534     TIP3     H1       HT       0.417000       1.00800           0
     64998 TIP3     8534     TIP3     H2       HT       0.417000       1.00800           0
     64999 TIP3     8535     TIP3     OH2      OT      -0.834000       15.9994           0
     65000 TIP3     8535     TIP3     H1       HT       0.417000       1.00800           0
     65001 TIP3     8535     TIP3     H2       HT       0.417000       1.00800           0
     65002 TIP3     8536     TIP3     OH2      OT      -0.834000       15.9994           0
     65003 TIP3     8536     TIP3     H1       HT       0.417000       1.00800           0
     65004 TIP3     8536     TIP3     H2       HT       0.417000       1.00800           0
     65005 TIP3     8537     TIP3     OH2      OT      -0.834000       15.9994           0
     65006 TIP3     8537     TIP3     H1       HT       0.417000       1.00800           0
     65007 TIP3     8537     TIP3     H2       HT       0.417000       1.00800           0
     65008 TIP3     8538     TIP3     OH2      OT      -0.834000       15.9994           0
     65009 TIP3     8538     TIP3     H1       HT       0.417000       1.00800           0
     65010 TIP3     8538     TIP3     H2       HT       0.417000       1.00800           0
     65011 TIP3     8539     TIP3     OH2      OT      -0.834000       15.9994           0
     65012 TIP3     8539     TIP3     H1       HT       0.417000       1.00800           0
     65013 TIP3     8539     TIP3     H2       HT       0.417000       1.00800           0
     65014 TIP3     8540     TIP3     OH2      OT      -0.834000       15.9994           0
     65015 TIP3     8540     TIP3     H1       HT       0.417000       1.00800           0
     65016 TIP3     8540     TIP3     H2       HT       0.417000       1.00800           0
     65017 TIP3     8541     TIP3     OH2      OT      -0.834000       15.9994           0
     65018 TIP3     8541     TIP3     H1       HT       0.417000       1.00800           0
     65019 TIP3     8541     TIP3     H2       HT       0.417000       1.00800           0
     65020 TIP3     8542     TIP3     OH2      OT      -0.834000       15.9994           0
     65021 TIP3     8542     TIP3     H1       HT       0.417000       1.00800           0
     65022 TIP3     8542     TIP3     H2       HT       0.417000       1.00800           0
     65023 TIP3     8543     TIP3     OH2      OT      -0.834000       15.9994           0
     65024 TIP3     8543     TIP3     H1       HT       0.417000       1.00800           0
     65025 TIP3     8543     TIP3     H2       HT       0.417000       1.00800           0
     65026 TIP3     8544     TIP3     OH2      OT      -0.834000       15.9994           0
     65027 TIP3     8544     TIP3     H1       HT       0.417000       1.00800           0
     65028 TIP3     8544     TIP3     H2       HT       0.417000       1.00800           0
     65029 TIP3     8545     TIP3     OH2      OT      -0.834000       15.9994           0
     65030 TIP3     8545     TIP3     H1       HT       0.417000       1.00800           0
     65031 TIP3     8545     TIP3     H2       HT       0.417000       1.00800           0
     65032 TIP3     8546     TIP3     OH2      OT      -0.834000       15.9994           0
     65033 TIP3     8546     TIP3     H1       HT       0.417000       1.00800           0
     65034 TIP3     8546     TIP3     H2       HT       0.417000       1.00800           0
     65035 TIP3     8547     TIP3     OH2      OT      -0.834000       15.9994           0
     65036 TIP3     8547     TIP3     H1       HT       0.417000       1.00800           0
     65037 TIP3     8547     TIP3     H2       HT       0.417000       1.00800           0
     65038 TIP3     8548     TIP3     OH2      OT      -0.834000       15.9994           0
     65039 TIP3     8548     TIP3     H1       HT       0.417000       1.00800           0
     65040 TIP3     8548     TIP3     H2       HT       0.417000       1.00800           0
     65041 TIP3     8549     TIP3     OH2      OT      -0.834000       15.9994           0
     65042 TIP3     8549     TIP3     H1       HT       0.417000       1.00800           0
     65043 TIP3     8549     TIP3     H2       HT       0.417000       1.00800           0
     65044 TIP3     8550     TIP3     OH2      OT      -0.834000       15.9994           0
     65045 TIP3     8550     TIP3     H1       HT       0.417000       1.00800           0
     65046 TIP3     8550     TIP3     H2       HT       0.417000       1.00800           0
     65047 TIP3     8551     TIP3     OH2      OT      -0.834000       15.9994           0
     65048 TIP3     8551     TIP3     H1       HT       0.417000       1.00800           0
     65049 TIP3     8551     TIP3     H2       HT       0.417000       1.00800           0
     65050 TIP3     8552     TIP3     OH2      OT      -0.834000       15.9994           0
     65051 TIP3     8552     TIP3     H1       HT       0.417000       1.00800           0
     65052 TIP3     8552     TIP3     H2       HT       0.417000       1.00800           0
     65053 TIP3     8553     TIP3     OH2      OT      -0.834000       15.9994           0
     65054 TIP3     8553     TIP3     H1       HT       0.417000       1.00800           0
     65055 TIP3     8553     TIP3     H2       HT       0.417000       1.00800           0
     65056 TIP3     8554     TIP3     OH2      OT      -0.834000       15.9994           0
     65057 TIP3     8554     TIP3     H1       HT       0.417000       1.00800           0
     65058 TIP3     8554     TIP3     H2       HT       0.417000       1.00800           0
     65059 TIP3     8555     TIP3     OH2      OT      -0.834000       15.9994           0
     65060 TIP3     8555     TIP3     H1       HT       0.417000       1.00800           0
     65061 TIP3     8555     TIP3     H2       HT       0.417000       1.00800           0
     65062 TIP3     8556     TIP3     OH2      OT      -0.834000       15.9994           0
     65063 TIP3     8556     TIP3     H1       HT       0.417000       1.00800           0
     65064 TIP3     8556     TIP3     H2       HT       0.417000       1.00800           0
     65065 TIP3     8557     TIP3     OH2      OT      -0.834000       15.9994           0
     65066 TIP3     8557     TIP3     H1       HT       0.417000       1.00800           0
     65067 TIP3     8557     TIP3     H2       HT       0.417000       1.00800           0
     65068 TIP3     8558     TIP3     OH2      OT      -0.834000       15.9994           0
     65069 TIP3     8558     TIP3     H1       HT       0.417000       1.00800           0
     65070 TIP3     8558     TIP3     H2       HT       0.417000       1.00800           0
     65071 TIP3     8559     TIP3     OH2      OT      -0.834000       15.9994           0
     65072 TIP3     8559     TIP3     H1       HT       0.417000       1.00800           0
     65073 TIP3     8559     TIP3     H2       HT       0.417000       1.00800           0
     65074 TIP3     8560     TIP3     OH2      OT      -0.834000       15.9994           0
     65075 TIP3     8560     TIP3     H1       HT       0.417000       1.00800           0
     65076 TIP3     8560     TIP3     H2       HT       0.417000       1.00800           0
     65077 TIP3     8561     TIP3     OH2      OT      -0.834000       15.9994           0
     65078 TIP3     8561     TIP3     H1       HT       0.417000       1.00800           0
     65079 TIP3     8561     TIP3     H2       HT       0.417000       1.00800           0
     65080 TIP3     8562     TIP3     OH2      OT      -0.834000       15.9994           0
     65081 TIP3     8562     TIP3     H1       HT       0.417000       1.00800           0
     65082 TIP3     8562     TIP3     H2       HT       0.417000       1.00800           0
     65083 TIP3     8563     TIP3     OH2      OT      -0.834000       15.9994           0
     65084 TIP3     8563     TIP3     H1       HT       0.417000       1.00800           0
     65085 TIP3     8563     TIP3     H2       HT       0.417000       1.00800           0
     65086 TIP3     8564     TIP3     OH2      OT      -0.834000       15.9994           0
     65087 TIP3     8564     TIP3     H1       HT       0.417000       1.00800           0
     65088 TIP3     8564     TIP3     H2       HT       0.417000       1.00800           0
     65089 TIP3     8565     TIP3     OH2      OT      -0.834000       15.9994           0
     65090 TIP3     8565     TIP3     H1       HT       0.417000       1.00800           0
     65091 TIP3     8565     TIP3     H2       HT       0.417000       1.00800           0
     65092 TIP3     8566     TIP3     OH2      OT      -0.834000       15.9994           0
     65093 TIP3     8566     TIP3     H1       HT       0.417000       1.00800           0
     65094 TIP3     8566     TIP3     H2       HT       0.417000       1.00800           0
     65095 TIP3     8567     TIP3     OH2      OT      -0.834000       15.9994           0
     65096 TIP3     8567     TIP3     H1       HT       0.417000       1.00800           0
     65097 TIP3     8567     TIP3     H2       HT       0.417000       1.00800           0
     65098 TIP3     8568     TIP3     OH2      OT      -0.834000       15.9994           0
     65099 TIP3     8568     TIP3     H1       HT       0.417000       1.00800           0
     65100 TIP3     8568     TIP3     H2       HT       0.417000       1.00800           0
     65101 TIP3     8569     TIP3     OH2      OT      -0.834000       15.9994           0
     65102 TIP3     8569     TIP3     H1       HT       0.417000       1.00800           0
     65103 TIP3     8569     TIP3     H2       HT       0.417000       1.00800           0
     65104 TIP3     8570     TIP3     OH2      OT      -0.834000       15.9994           0
     65105 TIP3     8570     TIP3     H1       HT       0.417000       1.00800           0
     65106 TIP3     8570     TIP3     H2       HT       0.417000       1.00800           0
     65107 TIP3     8571     TIP3     OH2      OT      -0.834000       15.9994           0
     65108 TIP3     8571     TIP3     H1       HT       0.417000       1.00800           0
     65109 TIP3     8571     TIP3     H2       HT       0.417000       1.00800           0
     65110 TIP3     8572     TIP3     OH2      OT      -0.834000       15.9994           0
     65111 TIP3     8572     TIP3     H1       HT       0.417000       1.00800           0
     65112 TIP3     8572     TIP3     H2       HT       0.417000       1.00800           0
     65113 TIP3     8573     TIP3     OH2      OT      -0.834000       15.9994           0
     65114 TIP3     8573     TIP3     H1       HT       0.417000       1.00800           0
     65115 TIP3     8573     TIP3     H2       HT       0.417000       1.00800           0
     65116 TIP3     8574     TIP3     OH2      OT      -0.834000       15.9994           0
     65117 TIP3     8574     TIP3     H1       HT       0.417000       1.00800           0
     65118 TIP3     8574     TIP3     H2       HT       0.417000       1.00800           0
     65119 TIP3     8575     TIP3     OH2      OT      -0.834000       15.9994           0
     65120 TIP3     8575     TIP3     H1       HT       0.417000       1.00800           0
     65121 TIP3     8575     TIP3     H2       HT       0.417000       1.00800           0
     65122 TIP3     8576     TIP3     OH2      OT      -0.834000       15.9994           0
     65123 TIP3     8576     TIP3     H1       HT       0.417000       1.00800           0
     65124 TIP3     8576     TIP3     H2       HT       0.417000       1.00800           0
     65125 TIP3     8577     TIP3     OH2      OT      -0.834000       15.9994           0
     65126 TIP3     8577     TIP3     H1       HT       0.417000       1.00800           0
     65127 TIP3     8577     TIP3     H2       HT       0.417000       1.00800           0
     65128 TIP3     8578     TIP3     OH2      OT      -0.834000       15.9994           0
     65129 TIP3     8578     TIP3     H1       HT       0.417000       1.00800           0
     65130 TIP3     8578     TIP3     H2       HT       0.417000       1.00800           0
     65131 TIP3     8579     TIP3     OH2      OT      -0.834000       15.9994           0
     65132 TIP3     8579     TIP3     H1       HT       0.417000       1.00800           0
     65133 TIP3     8579     TIP3     H2       HT       0.417000       1.00800           0
     65134 TIP3     8580     TIP3     OH2      OT      -0.834000       15.9994           0
     65135 TIP3     8580     TIP3     H1       HT       0.417000       1.00800           0
     65136 TIP3     8580     TIP3     H2       HT       0.417000       1.00800           0
     65137 TIP3     8581     TIP3     OH2      OT      -0.834000       15.9994           0
     65138 TIP3     8581     TIP3     H1       HT       0.417000       1.00800           0
     65139 TIP3     8581     TIP3     H2       HT       0.417000       1.00800           0
     65140 TIP3     8582     TIP3     OH2      OT      -0.834000       15.9994           0
     65141 TIP3     8582     TIP3     H1       HT       0.417000       1.00800           0
     65142 TIP3     8582     TIP3     H2       HT       0.417000       1.00800           0
     65143 TIP3     8583     TIP3     OH2      OT      -0.834000       15.9994           0
     65144 TIP3     8583     TIP3     H1       HT       0.417000       1.00800           0
     65145 TIP3     8583     TIP3     H2       HT       0.417000       1.00800           0
     65146 TIP3     8584     TIP3     OH2      OT      -0.834000       15.9994           0
     65147 TIP3     8584     TIP3     H1       HT       0.417000       1.00800           0
     65148 TIP3     8584     TIP3     H2       HT       0.417000       1.00800           0
     65149 TIP3     8585     TIP3     OH2      OT      -0.834000       15.9994           0
     65150 TIP3     8585     TIP3     H1       HT       0.417000       1.00800           0
     65151 TIP3     8585     TIP3     H2       HT       0.417000       1.00800           0
     65152 TIP3     8586     TIP3     OH2      OT      -0.834000       15.9994           0
     65153 TIP3     8586     TIP3     H1       HT       0.417000       1.00800           0
     65154 TIP3     8586     TIP3     H2       HT       0.417000       1.00800           0
     65155 TIP3     8587     TIP3     OH2      OT      -0.834000       15.9994           0
     65156 TIP3     8587     TIP3     H1       HT       0.417000       1.00800           0
     65157 TIP3     8587     TIP3     H2       HT       0.417000       1.00800           0
     65158 TIP3     8588     TIP3     OH2      OT      -0.834000       15.9994           0
     65159 TIP3     8588     TIP3     H1       HT       0.417000       1.00800           0
     65160 TIP3     8588     TIP3     H2       HT       0.417000       1.00800           0
     65161 TIP3     8589     TIP3     OH2      OT      -0.834000       15.9994           0
     65162 TIP3     8589     TIP3     H1       HT       0.417000       1.00800           0
     65163 TIP3     8589     TIP3     H2       HT       0.417000       1.00800           0
     65164 TIP3     8590     TIP3     OH2      OT      -0.834000       15.9994           0
     65165 TIP3     8590     TIP3     H1       HT       0.417000       1.00800           0
     65166 TIP3     8590     TIP3     H2       HT       0.417000       1.00800           0
     65167 TIP3     8591     TIP3     OH2      OT      -0.834000       15.9994           0
     65168 TIP3     8591     TIP3     H1       HT       0.417000       1.00800           0
     65169 TIP3     8591     TIP3     H2       HT       0.417000       1.00800           0
     65170 TIP3     8592     TIP3     OH2      OT      -0.834000       15.9994           0
     65171 TIP3     8592     TIP3     H1       HT       0.417000       1.00800           0
     65172 TIP3     8592     TIP3     H2       HT       0.417000       1.00800           0
     65173 TIP3     8593     TIP3     OH2      OT      -0.834000       15.9994           0
     65174 TIP3     8593     TIP3     H1       HT       0.417000       1.00800           0
     65175 TIP3     8593     TIP3     H2       HT       0.417000       1.00800           0
     65176 TIP3     8594     TIP3     OH2      OT      -0.834000       15.9994           0
     65177 TIP3     8594     TIP3     H1       HT       0.417000       1.00800           0
     65178 TIP3     8594     TIP3     H2       HT       0.417000       1.00800           0
     65179 TIP3     8595     TIP3     OH2      OT      -0.834000       15.9994           0
     65180 TIP3     8595     TIP3     H1       HT       0.417000       1.00800           0
     65181 TIP3     8595     TIP3     H2       HT       0.417000       1.00800           0
     65182 TIP3     8596     TIP3     OH2      OT      -0.834000       15.9994           0
     65183 TIP3     8596     TIP3     H1       HT       0.417000       1.00800           0
     65184 TIP3     8596     TIP3     H2       HT       0.417000       1.00800           0
     65185 TIP3     8597     TIP3     OH2      OT      -0.834000       15.9994           0
     65186 TIP3     8597     TIP3     H1       HT       0.417000       1.00800           0
     65187 TIP3     8597     TIP3     H2       HT       0.417000       1.00800           0
     65188 TIP3     8598     TIP3     OH2      OT      -0.834000       15.9994           0
     65189 TIP3     8598     TIP3     H1       HT       0.417000       1.00800           0
     65190 TIP3     8598     TIP3     H2       HT       0.417000       1.00800           0
     65191 TIP3     8599     TIP3     OH2      OT      -0.834000       15.9994           0
     65192 TIP3     8599     TIP3     H1       HT       0.417000       1.00800           0
     65193 TIP3     8599     TIP3     H2       HT       0.417000       1.00800           0
     65194 TIP3     8600     TIP3     OH2      OT      -0.834000       15.9994           0
     65195 TIP3     8600     TIP3     H1       HT       0.417000       1.00800           0
     65196 TIP3     8600     TIP3     H2       HT       0.417000       1.00800           0
     65197 TIP3     8601     TIP3     OH2      OT      -0.834000       15.9994           0
     65198 TIP3     8601     TIP3     H1       HT       0.417000       1.00800           0
     65199 TIP3     8601     TIP3     H2       HT       0.417000       1.00800           0
     65200 TIP3     8602     TIP3     OH2      OT      -0.834000       15.9994           0
     65201 TIP3     8602     TIP3     H1       HT       0.417000       1.00800           0
     65202 TIP3     8602     TIP3     H2       HT       0.417000       1.00800           0
     65203 TIP3     8603     TIP3     OH2      OT      -0.834000       15.9994           0
     65204 TIP3     8603     TIP3     H1       HT       0.417000       1.00800           0
     65205 TIP3     8603     TIP3     H2       HT       0.417000       1.00800           0
     65206 TIP3     8604     TIP3     OH2      OT      -0.834000       15.9994           0
     65207 TIP3     8604     TIP3     H1       HT       0.417000       1.00800           0
     65208 TIP3     8604     TIP3     H2       HT       0.417000       1.00800           0
     65209 TIP3     8605     TIP3     OH2      OT      -0.834000       15.9994           0
     65210 TIP3     8605     TIP3     H1       HT       0.417000       1.00800           0
     65211 TIP3     8605     TIP3     H2       HT       0.417000       1.00800           0
     65212 TIP3     8606     TIP3     OH2      OT      -0.834000       15.9994           0
     65213 TIP3     8606     TIP3     H1       HT       0.417000       1.00800           0
     65214 TIP3     8606     TIP3     H2       HT       0.417000       1.00800           0
     65215 TIP3     8607     TIP3     OH2      OT      -0.834000       15.9994           0
     65216 TIP3     8607     TIP3     H1       HT       0.417000       1.00800           0
     65217 TIP3     8607     TIP3     H2       HT       0.417000       1.00800           0
     65218 TIP3     8608     TIP3     OH2      OT      -0.834000       15.9994           0
     65219 TIP3     8608     TIP3     H1       HT       0.417000       1.00800           0
     65220 TIP3     8608     TIP3     H2       HT       0.417000       1.00800           0
     65221 TIP3     8609     TIP3     OH2      OT      -0.834000       15.9994           0
     65222 TIP3     8609     TIP3     H1       HT       0.417000       1.00800           0
     65223 TIP3     8609     TIP3     H2       HT       0.417000       1.00800           0
     65224 TIP3     8610     TIP3     OH2      OT      -0.834000       15.9994           0
     65225 TIP3     8610     TIP3     H1       HT       0.417000       1.00800           0
     65226 TIP3     8610     TIP3     H2       HT       0.417000       1.00800           0
     65227 TIP3     8611     TIP3     OH2      OT      -0.834000       15.9994           0
     65228 TIP3     8611     TIP3     H1       HT       0.417000       1.00800           0
     65229 TIP3     8611     TIP3     H2       HT       0.417000       1.00800           0
     65230 TIP3     8612     TIP3     OH2      OT      -0.834000       15.9994           0
     65231 TIP3     8612     TIP3     H1       HT       0.417000       1.00800           0
     65232 TIP3     8612     TIP3     H2       HT       0.417000       1.00800           0
     65233 TIP3     8613     TIP3     OH2      OT      -0.834000       15.9994           0
     65234 TIP3     8613     TIP3     H1       HT       0.417000       1.00800           0
     65235 TIP3     8613     TIP3     H2       HT       0.417000       1.00800           0
     65236 TIP3     8614     TIP3     OH2      OT      -0.834000       15.9994           0
     65237 TIP3     8614     TIP3     H1       HT       0.417000       1.00800           0
     65238 TIP3     8614     TIP3     H2       HT       0.417000       1.00800           0
     65239 TIP3     8615     TIP3     OH2      OT      -0.834000       15.9994           0
     65240 TIP3     8615     TIP3     H1       HT       0.417000       1.00800           0
     65241 TIP3     8615     TIP3     H2       HT       0.417000       1.00800           0
     65242 TIP3     8616     TIP3     OH2      OT      -0.834000       15.9994           0
     65243 TIP3     8616     TIP3     H1       HT       0.417000       1.00800           0
     65244 TIP3     8616     TIP3     H2       HT       0.417000       1.00800           0
     65245 TIP3     8617     TIP3     OH2      OT      -0.834000       15.9994           0
     65246 TIP3     8617     TIP3     H1       HT       0.417000       1.00800           0
     65247 TIP3     8617     TIP3     H2       HT       0.417000       1.00800           0
     65248 TIP3     8618     TIP3     OH2      OT      -0.834000       15.9994           0
     65249 TIP3     8618     TIP3     H1       HT       0.417000       1.00800           0
     65250 TIP3     8618     TIP3     H2       HT       0.417000       1.00800           0
     65251 TIP3     8619     TIP3     OH2      OT      -0.834000       15.9994           0
     65252 TIP3     8619     TIP3     H1       HT       0.417000       1.00800           0
     65253 TIP3     8619     TIP3     H2       HT       0.417000       1.00800           0
     65254 TIP3     8620     TIP3     OH2      OT      -0.834000       15.9994           0
     65255 TIP3     8620     TIP3     H1       HT       0.417000       1.00800           0
     65256 TIP3     8620     TIP3     H2       HT       0.417000       1.00800           0
     65257 TIP3     8621     TIP3     OH2      OT      -0.834000       15.9994           0
     65258 TIP3     8621     TIP3     H1       HT       0.417000       1.00800           0
     65259 TIP3     8621     TIP3     H2       HT       0.417000       1.00800           0
     65260 TIP3     8622     TIP3     OH2      OT      -0.834000       15.9994           0
     65261 TIP3     8622     TIP3     H1       HT       0.417000       1.00800           0
     65262 TIP3     8622     TIP3     H2       HT       0.417000       1.00800           0
     65263 TIP3     8623     TIP3     OH2      OT      -0.834000       15.9994           0
     65264 TIP3     8623     TIP3     H1       HT       0.417000       1.00800           0
     65265 TIP3     8623     TIP3     H2       HT       0.417000       1.00800           0
     65266 TIP3     8624     TIP3     OH2      OT      -0.834000       15.9994           0
     65267 TIP3     8624     TIP3     H1       HT       0.417000       1.00800           0
     65268 TIP3     8624     TIP3     H2       HT       0.417000       1.00800           0
     65269 TIP3     8625     TIP3     OH2      OT      -0.834000       15.9994           0
     65270 TIP3     8625     TIP3     H1       HT       0.417000       1.00800           0
     65271 TIP3     8625     TIP3     H2       HT       0.417000       1.00800           0
     65272 TIP3     8626     TIP3     OH2      OT      -0.834000       15.9994           0
     65273 TIP3     8626     TIP3     H1       HT       0.417000       1.00800           0
     65274 TIP3     8626     TIP3     H2       HT       0.417000       1.00800           0
     65275 TIP3     8627     TIP3     OH2      OT      -0.834000       15.9994           0
     65276 TIP3     8627     TIP3     H1       HT       0.417000       1.00800           0
     65277 TIP3     8627     TIP3     H2       HT       0.417000       1.00800           0
     65278 TIP3     8628     TIP3     OH2      OT      -0.834000       15.9994           0
     65279 TIP3     8628     TIP3     H1       HT       0.417000       1.00800           0
     65280 TIP3     8628     TIP3     H2       HT       0.417000       1.00800           0
     65281 TIP3     8629     TIP3     OH2      OT      -0.834000       15.9994           0
     65282 TIP3     8629     TIP3     H1       HT       0.417000       1.00800           0
     65283 TIP3     8629     TIP3     H2       HT       0.417000       1.00800           0
     65284 TIP3     8630     TIP3     OH2      OT      -0.834000       15.9994           0
     65285 TIP3     8630     TIP3     H1       HT       0.417000       1.00800           0
     65286 TIP3     8630     TIP3     H2       HT       0.417000       1.00800           0
     65287 TIP3     8631     TIP3     OH2      OT      -0.834000       15.9994           0
     65288 TIP3     8631     TIP3     H1       HT       0.417000       1.00800           0
     65289 TIP3     8631     TIP3     H2       HT       0.417000       1.00800           0
     65290 TIP3     8632     TIP3     OH2      OT      -0.834000       15.9994           0
     65291 TIP3     8632     TIP3     H1       HT       0.417000       1.00800           0
     65292 TIP3     8632     TIP3     H2       HT       0.417000       1.00800           0
     65293 TIP3     8633     TIP3     OH2      OT      -0.834000       15.9994           0
     65294 TIP3     8633     TIP3     H1       HT       0.417000       1.00800           0
     65295 TIP3     8633     TIP3     H2       HT       0.417000       1.00800           0
     65296 TIP3     8634     TIP3     OH2      OT      -0.834000       15.9994           0
     65297 TIP3     8634     TIP3     H1       HT       0.417000       1.00800           0
     65298 TIP3     8634     TIP3     H2       HT       0.417000       1.00800           0
     65299 TIP3     8635     TIP3     OH2      OT      -0.834000       15.9994           0
     65300 TIP3     8635     TIP3     H1       HT       0.417000       1.00800           0
     65301 TIP3     8635     TIP3     H2       HT       0.417000       1.00800           0
     65302 TIP3     8636     TIP3     OH2      OT      -0.834000       15.9994           0
     65303 TIP3     8636     TIP3     H1       HT       0.417000       1.00800           0
     65304 TIP3     8636     TIP3     H2       HT       0.417000       1.00800           0
     65305 TIP3     8637     TIP3     OH2      OT      -0.834000       15.9994           0
     65306 TIP3     8637     TIP3     H1       HT       0.417000       1.00800           0
     65307 TIP3     8637     TIP3     H2       HT       0.417000       1.00800           0
     65308 TIP3     8638     TIP3     OH2      OT      -0.834000       15.9994           0
     65309 TIP3     8638     TIP3     H1       HT       0.417000       1.00800           0
     65310 TIP3     8638     TIP3     H2       HT       0.417000       1.00800           0
     65311 TIP3     8639     TIP3     OH2      OT      -0.834000       15.9994           0
     65312 TIP3     8639     TIP3     H1       HT       0.417000       1.00800           0
     65313 TIP3     8639     TIP3     H2       HT       0.417000       1.00800           0
     65314 TIP3     8640     TIP3     OH2      OT      -0.834000       15.9994           0
     65315 TIP3     8640     TIP3     H1       HT       0.417000       1.00800           0
     65316 TIP3     8640     TIP3     H2       HT       0.417000       1.00800           0
     65317 TIP3     8641     TIP3     OH2      OT      -0.834000       15.9994           0
     65318 TIP3     8641     TIP3     H1       HT       0.417000       1.00800           0
     65319 TIP3     8641     TIP3     H2       HT       0.417000       1.00800           0
     65320 TIP3     8642     TIP3     OH2      OT      -0.834000       15.9994           0
     65321 TIP3     8642     TIP3     H1       HT       0.417000       1.00800           0
     65322 TIP3     8642     TIP3     H2       HT       0.417000       1.00800           0
     65323 TIP3     8643     TIP3     OH2      OT      -0.834000       15.9994           0
     65324 TIP3     8643     TIP3     H1       HT       0.417000       1.00800           0
     65325 TIP3     8643     TIP3     H2       HT       0.417000       1.00800           0
     65326 TIP3     8644     TIP3     OH2      OT      -0.834000       15.9994           0
     65327 TIP3     8644     TIP3     H1       HT       0.417000       1.00800           0
     65328 TIP3     8644     TIP3     H2       HT       0.417000       1.00800           0
     65329 TIP3     8645     TIP3     OH2      OT      -0.834000       15.9994           0
     65330 TIP3     8645     TIP3     H1       HT       0.417000       1.00800           0
     65331 TIP3     8645     TIP3     H2       HT       0.417000       1.00800           0
     65332 TIP3     8646     TIP3     OH2      OT      -0.834000       15.9994           0
     65333 TIP3     8646     TIP3     H1       HT       0.417000       1.00800           0
     65334 TIP3     8646     TIP3     H2       HT       0.417000       1.00800           0
     65335 TIP3     8647     TIP3     OH2      OT      -0.834000       15.9994           0
     65336 TIP3     8647     TIP3     H1       HT       0.417000       1.00800           0
     65337 TIP3     8647     TIP3     H2       HT       0.417000       1.00800           0
     65338 TIP3     8648     TIP3     OH2      OT      -0.834000       15.9994           0
     65339 TIP3     8648     TIP3     H1       HT       0.417000       1.00800           0
     65340 TIP3     8648     TIP3     H2       HT       0.417000       1.00800           0
     65341 TIP3     8649     TIP3     OH2      OT      -0.834000       15.9994           0
     65342 TIP3     8649     TIP3     H1       HT       0.417000       1.00800           0
     65343 TIP3     8649     TIP3     H2       HT       0.417000       1.00800           0
     65344 TIP3     8650     TIP3     OH2      OT      -0.834000       15.9994           0
     65345 TIP3     8650     TIP3     H1       HT       0.417000       1.00800           0
     65346 TIP3     8650     TIP3     H2       HT       0.417000       1.00800           0
     65347 TIP3     8651     TIP3     OH2      OT      -0.834000       15.9994           0
     65348 TIP3     8651     TIP3     H1       HT       0.417000       1.00800           0
     65349 TIP3     8651     TIP3     H2       HT       0.417000       1.00800           0
     65350 TIP3     8652     TIP3     OH2      OT      -0.834000       15.9994           0
     65351 TIP3     8652     TIP3     H1       HT       0.417000       1.00800           0
     65352 TIP3     8652     TIP3     H2       HT       0.417000       1.00800           0
     65353 TIP3     8653     TIP3     OH2      OT      -0.834000       15.9994           0
     65354 TIP3     8653     TIP3     H1       HT       0.417000       1.00800           0
     65355 TIP3     8653     TIP3     H2       HT       0.417000       1.00800           0
     65356 TIP3     8654     TIP3     OH2      OT      -0.834000       15.9994           0
     65357 TIP3     8654     TIP3     H1       HT       0.417000       1.00800           0
     65358 TIP3     8654     TIP3     H2       HT       0.417000       1.00800           0
     65359 TIP3     8655     TIP3     OH2      OT      -0.834000       15.9994           0
     65360 TIP3     8655     TIP3     H1       HT       0.417000       1.00800           0
     65361 TIP3     8655     TIP3     H2       HT       0.417000       1.00800           0
     65362 TIP3     8656     TIP3     OH2      OT      -0.834000       15.9994           0
     65363 TIP3     8656     TIP3     H1       HT       0.417000       1.00800           0
     65364 TIP3     8656     TIP3     H2       HT       0.417000       1.00800           0
     65365 TIP3     8657     TIP3     OH2      OT      -0.834000       15.9994           0
     65366 TIP3     8657     TIP3     H1       HT       0.417000       1.00800           0
     65367 TIP3     8657     TIP3     H2       HT       0.417000       1.00800           0
     65368 TIP3     8658     TIP3     OH2      OT      -0.834000       15.9994           0
     65369 TIP3     8658     TIP3     H1       HT       0.417000       1.00800           0
     65370 TIP3     8658     TIP3     H2       HT       0.417000       1.00800           0
     65371 TIP3     8659     TIP3     OH2      OT      -0.834000       15.9994           0
     65372 TIP3     8659     TIP3     H1       HT       0.417000       1.00800           0
     65373 TIP3     8659     TIP3     H2       HT       0.417000       1.00800           0
     65374 TIP3     8660     TIP3     OH2      OT      -0.834000       15.9994           0
     65375 TIP3     8660     TIP3     H1       HT       0.417000       1.00800           0
     65376 TIP3     8660     TIP3     H2       HT       0.417000       1.00800           0
     65377 TIP3     8661     TIP3     OH2      OT      -0.834000       15.9994           0
     65378 TIP3     8661     TIP3     H1       HT       0.417000       1.00800           0
     65379 TIP3     8661     TIP3     H2       HT       0.417000       1.00800           0
     65380 TIP3     8662     TIP3     OH2      OT      -0.834000       15.9994           0
     65381 TIP3     8662     TIP3     H1       HT       0.417000       1.00800           0
     65382 TIP3     8662     TIP3     H2       HT       0.417000       1.00800           0
     65383 TIP3     8663     TIP3     OH2      OT      -0.834000       15.9994           0
     65384 TIP3     8663     TIP3     H1       HT       0.417000       1.00800           0
     65385 TIP3     8663     TIP3     H2       HT       0.417000       1.00800           0
     65386 TIP3     8664     TIP3     OH2      OT      -0.834000       15.9994           0
     65387 TIP3     8664     TIP3     H1       HT       0.417000       1.00800           0
     65388 TIP3     8664     TIP3     H2       HT       0.417000       1.00800           0
     65389 TIP3     8665     TIP3     OH2      OT      -0.834000       15.9994           0
     65390 TIP3     8665     TIP3     H1       HT       0.417000       1.00800           0
     65391 TIP3     8665     TIP3     H2       HT       0.417000       1.00800           0
     65392 TIP3     8666     TIP3     OH2      OT      -0.834000       15.9994           0
     65393 TIP3     8666     TIP3     H1       HT       0.417000       1.00800           0
     65394 TIP3     8666     TIP3     H2       HT       0.417000       1.00800           0
     65395 TIP3     8667     TIP3     OH2      OT      -0.834000       15.9994           0
     65396 TIP3     8667     TIP3     H1       HT       0.417000       1.00800           0
     65397 TIP3     8667     TIP3     H2       HT       0.417000       1.00800           0
     65398 TIP3     8668     TIP3     OH2      OT      -0.834000       15.9994           0
     65399 TIP3     8668     TIP3     H1       HT       0.417000       1.00800           0
     65400 TIP3     8668     TIP3     H2       HT       0.417000       1.00800           0
     65401 TIP3     8669     TIP3     OH2      OT      -0.834000       15.9994           0
     65402 TIP3     8669     TIP3     H1       HT       0.417000       1.00800           0
     65403 TIP3     8669     TIP3     H2       HT       0.417000       1.00800           0
     65404 TIP3     8670     TIP3     OH2      OT      -0.834000       15.9994           0
     65405 TIP3     8670     TIP3     H1       HT       0.417000       1.00800           0
     65406 TIP3     8670     TIP3     H2       HT       0.417000       1.00800           0
     65407 TIP3     8671     TIP3     OH2      OT      -0.834000       15.9994           0
     65408 TIP3     8671     TIP3     H1       HT       0.417000       1.00800           0
     65409 TIP3     8671     TIP3     H2       HT       0.417000       1.00800           0
     65410 TIP3     8672     TIP3     OH2      OT      -0.834000       15.9994           0
     65411 TIP3     8672     TIP3     H1       HT       0.417000       1.00800           0
     65412 TIP3     8672     TIP3     H2       HT       0.417000       1.00800           0
     65413 TIP3     8673     TIP3     OH2      OT      -0.834000       15.9994           0
     65414 TIP3     8673     TIP3     H1       HT       0.417000       1.00800           0
     65415 TIP3     8673     TIP3     H2       HT       0.417000       1.00800           0
     65416 TIP3     8674     TIP3     OH2      OT      -0.834000       15.9994           0
     65417 TIP3     8674     TIP3     H1       HT       0.417000       1.00800           0
     65418 TIP3     8674     TIP3     H2       HT       0.417000       1.00800           0
     65419 TIP3     8675     TIP3     OH2      OT      -0.834000       15.9994           0
     65420 TIP3     8675     TIP3     H1       HT       0.417000       1.00800           0
     65421 TIP3     8675     TIP3     H2       HT       0.417000       1.00800           0
     65422 TIP3     8676     TIP3     OH2      OT      -0.834000       15.9994           0
     65423 TIP3     8676     TIP3     H1       HT       0.417000       1.00800           0
     65424 TIP3     8676     TIP3     H2       HT       0.417000       1.00800           0
     65425 TIP3     8677     TIP3     OH2      OT      -0.834000       15.9994           0
     65426 TIP3     8677     TIP3     H1       HT       0.417000       1.00800           0
     65427 TIP3     8677     TIP3     H2       HT       0.417000       1.00800           0
     65428 TIP3     8678     TIP3     OH2      OT      -0.834000       15.9994           0
     65429 TIP3     8678     TIP3     H1       HT       0.417000       1.00800           0
     65430 TIP3     8678     TIP3     H2       HT       0.417000       1.00800           0
     65431 TIP3     8679     TIP3     OH2      OT      -0.834000       15.9994           0
     65432 TIP3     8679     TIP3     H1       HT       0.417000       1.00800           0
     65433 TIP3     8679     TIP3     H2       HT       0.417000       1.00800           0
     65434 TIP3     8680     TIP3     OH2      OT      -0.834000       15.9994           0
     65435 TIP3     8680     TIP3     H1       HT       0.417000       1.00800           0
     65436 TIP3     8680     TIP3     H2       HT       0.417000       1.00800           0
     65437 TIP3     8681     TIP3     OH2      OT      -0.834000       15.9994           0
     65438 TIP3     8681     TIP3     H1       HT       0.417000       1.00800           0
     65439 TIP3     8681     TIP3     H2       HT       0.417000       1.00800           0
     65440 TIP3     8682     TIP3     OH2      OT      -0.834000       15.9994           0
     65441 TIP3     8682     TIP3     H1       HT       0.417000       1.00800           0
     65442 TIP3     8682     TIP3     H2       HT       0.417000       1.00800           0
     65443 TIP3     8683     TIP3     OH2      OT      -0.834000       15.9994           0
     65444 TIP3     8683     TIP3     H1       HT       0.417000       1.00800           0
     65445 TIP3     8683     TIP3     H2       HT       0.417000       1.00800           0
     65446 TIP3     8684     TIP3     OH2      OT      -0.834000       15.9994           0
     65447 TIP3     8684     TIP3     H1       HT       0.417000       1.00800           0
     65448 TIP3     8684     TIP3     H2       HT       0.417000       1.00800           0
     65449 TIP3     8685     TIP3     OH2      OT      -0.834000       15.9994           0
     65450 TIP3     8685     TIP3     H1       HT       0.417000       1.00800           0
     65451 TIP3     8685     TIP3     H2       HT       0.417000       1.00800           0
     65452 TIP3     8686     TIP3     OH2      OT      -0.834000       15.9994           0
     65453 TIP3     8686     TIP3     H1       HT       0.417000       1.00800           0
     65454 TIP3     8686     TIP3     H2       HT       0.417000       1.00800           0
     65455 TIP3     8687     TIP3     OH2      OT      -0.834000       15.9994           0
     65456 TIP3     8687     TIP3     H1       HT       0.417000       1.00800           0
     65457 TIP3     8687     TIP3     H2       HT       0.417000       1.00800           0
     65458 TIP3     8688     TIP3     OH2      OT      -0.834000       15.9994           0
     65459 TIP3     8688     TIP3     H1       HT       0.417000       1.00800           0
     65460 TIP3     8688     TIP3     H2       HT       0.417000       1.00800           0
     65461 TIP3     8689     TIP3     OH2      OT      -0.834000       15.9994           0
     65462 TIP3     8689     TIP3     H1       HT       0.417000       1.00800           0
     65463 TIP3     8689     TIP3     H2       HT       0.417000       1.00800           0
     65464 TIP3     8690     TIP3     OH2      OT      -0.834000       15.9994           0
     65465 TIP3     8690     TIP3     H1       HT       0.417000       1.00800           0
     65466 TIP3     8690     TIP3     H2       HT       0.417000       1.00800           0
     65467 TIP3     8691     TIP3     OH2      OT      -0.834000       15.9994           0
     65468 TIP3     8691     TIP3     H1       HT       0.417000       1.00800           0
     65469 TIP3     8691     TIP3     H2       HT       0.417000       1.00800           0
     65470 TIP3     8692     TIP3     OH2      OT      -0.834000       15.9994           0
     65471 TIP3     8692     TIP3     H1       HT       0.417000       1.00800           0
     65472 TIP3     8692     TIP3     H2       HT       0.417000       1.00800           0
     65473 TIP3     8693     TIP3     OH2      OT      -0.834000       15.9994           0
     65474 TIP3     8693     TIP3     H1       HT       0.417000       1.00800           0
     65475 TIP3     8693     TIP3     H2       HT       0.417000       1.00800           0
     65476 TIP3     8694     TIP3     OH2      OT      -0.834000       15.9994           0
     65477 TIP3     8694     TIP3     H1       HT       0.417000       1.00800           0
     65478 TIP3     8694     TIP3     H2       HT       0.417000       1.00800           0
     65479 TIP3     8695     TIP3     OH2      OT      -0.834000       15.9994           0
     65480 TIP3     8695     TIP3     H1       HT       0.417000       1.00800           0
     65481 TIP3     8695     TIP3     H2       HT       0.417000       1.00800           0
     65482 TIP3     8696     TIP3     OH2      OT      -0.834000       15.9994           0
     65483 TIP3     8696     TIP3     H1       HT       0.417000       1.00800           0
     65484 TIP3     8696     TIP3     H2       HT       0.417000       1.00800           0
     65485 TIP3     8697     TIP3     OH2      OT      -0.834000       15.9994           0
     65486 TIP3     8697     TIP3     H1       HT       0.417000       1.00800           0
     65487 TIP3     8697     TIP3     H2       HT       0.417000       1.00800           0
     65488 TIP3     8698     TIP3     OH2      OT      -0.834000       15.9994           0
     65489 TIP3     8698     TIP3     H1       HT       0.417000       1.00800           0
     65490 TIP3     8698     TIP3     H2       HT       0.417000       1.00800           0
     65491 TIP3     8699     TIP3     OH2      OT      -0.834000       15.9994           0
     65492 TIP3     8699     TIP3     H1       HT       0.417000       1.00800           0
     65493 TIP3     8699     TIP3     H2       HT       0.417000       1.00800           0
     65494 TIP3     8700     TIP3     OH2      OT      -0.834000       15.9994           0
     65495 TIP3     8700     TIP3     H1       HT       0.417000       1.00800           0
     65496 TIP3     8700     TIP3     H2       HT       0.417000       1.00800           0
     65497 TIP3     8701     TIP3     OH2      OT      -0.834000       15.9994           0
     65498 TIP3     8701     TIP3     H1       HT       0.417000       1.00800           0
     65499 TIP3     8701     TIP3     H2       HT       0.417000       1.00800           0
     65500 TIP3     8702     TIP3     OH2      OT      -0.834000       15.9994           0
     65501 TIP3     8702     TIP3     H1       HT       0.417000       1.00800           0
     65502 TIP3     8702     TIP3     H2       HT       0.417000       1.00800           0
     65503 TIP3     8703     TIP3     OH2      OT      -0.834000       15.9994           0
     65504 TIP3     8703     TIP3     H1       HT       0.417000       1.00800           0
     65505 TIP3     8703     TIP3     H2       HT       0.417000       1.00800           0
     65506 TIP3     8704     TIP3     OH2      OT      -0.834000       15.9994           0
     65507 TIP3     8704     TIP3     H1       HT       0.417000       1.00800           0
     65508 TIP3     8704     TIP3     H2       HT       0.417000       1.00800           0
     65509 TIP3     8705     TIP3     OH2      OT      -0.834000       15.9994           0
     65510 TIP3     8705     TIP3     H1       HT       0.417000       1.00800           0
     65511 TIP3     8705     TIP3     H2       HT       0.417000       1.00800           0
     65512 TIP3     8706     TIP3     OH2      OT      -0.834000       15.9994           0
     65513 TIP3     8706     TIP3     H1       HT       0.417000       1.00800           0
     65514 TIP3     8706     TIP3     H2       HT       0.417000       1.00800           0
     65515 TIP3     8707     TIP3     OH2      OT      -0.834000       15.9994           0
     65516 TIP3     8707     TIP3     H1       HT       0.417000       1.00800           0
     65517 TIP3     8707     TIP3     H2       HT       0.417000       1.00800           0
     65518 TIP3     8708     TIP3     OH2      OT      -0.834000       15.9994           0
     65519 TIP3     8708     TIP3     H1       HT       0.417000       1.00800           0
     65520 TIP3     8708     TIP3     H2       HT       0.417000       1.00800           0
     65521 TIP3     8709     TIP3     OH2      OT      -0.834000       15.9994           0
     65522 TIP3     8709     TIP3     H1       HT       0.417000       1.00800           0
     65523 TIP3     8709     TIP3     H2       HT       0.417000       1.00800           0
     65524 TIP3     8710     TIP3     OH2      OT      -0.834000       15.9994           0
     65525 TIP3     8710     TIP3     H1       HT       0.417000       1.00800           0
     65526 TIP3     8710     TIP3     H2       HT       0.417000       1.00800           0
     65527 TIP3     8711     TIP3     OH2      OT      -0.834000       15.9994           0
     65528 TIP3     8711     TIP3     H1       HT       0.417000       1.00800           0
     65529 TIP3     8711     TIP3     H2       HT       0.417000       1.00800           0
     65530 TIP3     8712     TIP3     OH2      OT      -0.834000       15.9994           0
     65531 TIP3     8712     TIP3     H1       HT       0.417000       1.00800           0
     65532 TIP3     8712     TIP3     H2       HT       0.417000       1.00800           0
     65533 TIP3     8713     TIP3     OH2      OT      -0.834000       15.9994           0
     65534 TIP3     8713     TIP3     H1       HT       0.417000       1.00800           0
     65535 TIP3     8713     TIP3     H2       HT       0.417000       1.00800           0
     65536 TIP3     8714     TIP3     OH2      OT      -0.834000       15.9994           0
     65537 TIP3     8714     TIP3     H1       HT       0.417000       1.00800           0
     65538 TIP3     8714     TIP3     H2       HT       0.417000       1.00800           0
     65539 TIP3     8715     TIP3     OH2      OT      -0.834000       15.9994           0
     65540 TIP3     8715     TIP3     H1       HT       0.417000       1.00800           0
     65541 TIP3     8715     TIP3     H2       HT       0.417000       1.00800           0
     65542 TIP3     8716     TIP3     OH2      OT      -0.834000       15.9994           0
     65543 TIP3     8716     TIP3     H1       HT       0.417000       1.00800           0
     65544 TIP3     8716     TIP3     H2       HT       0.417000       1.00800           0
     65545 TIP3     8717     TIP3     OH2      OT      -0.834000       15.9994           0
     65546 TIP3     8717     TIP3     H1       HT       0.417000       1.00800           0
     65547 TIP3     8717     TIP3     H2       HT       0.417000       1.00800           0
     65548 TIP3     8718     TIP3     OH2      OT      -0.834000       15.9994           0
     65549 TIP3     8718     TIP3     H1       HT       0.417000       1.00800           0
     65550 TIP3     8718     TIP3     H2       HT       0.417000       1.00800           0
     65551 TIP3     8719     TIP3     OH2      OT      -0.834000       15.9994           0
     65552 TIP3     8719     TIP3     H1       HT       0.417000       1.00800           0
     65553 TIP3     8719     TIP3     H2       HT       0.417000       1.00800           0
     65554 TIP3     8720     TIP3     OH2      OT      -0.834000       15.9994           0
     65555 TIP3     8720     TIP3     H1       HT       0.417000       1.00800           0
     65556 TIP3     8720     TIP3     H2       HT       0.417000       1.00800           0
     65557 TIP3     8721     TIP3     OH2      OT      -0.834000       15.9994           0
     65558 TIP3     8721     TIP3     H1       HT       0.417000       1.00800           0
     65559 TIP3     8721     TIP3     H2       HT       0.417000       1.00800           0
     65560 TIP3     8722     TIP3     OH2      OT      -0.834000       15.9994           0
     65561 TIP3     8722     TIP3     H1       HT       0.417000       1.00800           0
     65562 TIP3     8722     TIP3     H2       HT       0.417000       1.00800           0
     65563 TIP3     8723     TIP3     OH2      OT      -0.834000       15.9994           0
     65564 TIP3     8723     TIP3     H1       HT       0.417000       1.00800           0
     65565 TIP3     8723     TIP3     H2       HT       0.417000       1.00800           0
     65566 TIP3     8724     TIP3     OH2      OT      -0.834000       15.9994           0
     65567 TIP3     8724     TIP3     H1       HT       0.417000       1.00800           0
     65568 TIP3     8724     TIP3     H2       HT       0.417000       1.00800           0
     65569 TIP3     8725     TIP3     OH2      OT      -0.834000       15.9994           0
     65570 TIP3     8725     TIP3     H1       HT       0.417000       1.00800           0
     65571 TIP3     8725     TIP3     H2       HT       0.417000       1.00800           0
     65572 TIP3     8726     TIP3     OH2      OT      -0.834000       15.9994           0
     65573 TIP3     8726     TIP3     H1       HT       0.417000       1.00800           0
     65574 TIP3     8726     TIP3     H2       HT       0.417000       1.00800           0
     65575 TIP3     8727     TIP3     OH2      OT      -0.834000       15.9994           0
     65576 TIP3     8727     TIP3     H1       HT       0.417000       1.00800           0
     65577 TIP3     8727     TIP3     H2       HT       0.417000       1.00800           0
     65578 TIP3     8728     TIP3     OH2      OT      -0.834000       15.9994           0
     65579 TIP3     8728     TIP3     H1       HT       0.417000       1.00800           0
     65580 TIP3     8728     TIP3     H2       HT       0.417000       1.00800           0
     65581 TIP3     8729     TIP3     OH2      OT      -0.834000       15.9994           0
     65582 TIP3     8729     TIP3     H1       HT       0.417000       1.00800           0
     65583 TIP3     8729     TIP3     H2       HT       0.417000       1.00800           0
     65584 TIP3     8730     TIP3     OH2      OT      -0.834000       15.9994           0
     65585 TIP3     8730     TIP3     H1       HT       0.417000       1.00800           0
     65586 TIP3     8730     TIP3     H2       HT       0.417000       1.00800           0
     65587 TIP3     8731     TIP3     OH2      OT      -0.834000       15.9994           0
     65588 TIP3     8731     TIP3     H1       HT       0.417000       1.00800           0
     65589 TIP3     8731     TIP3     H2       HT       0.417000       1.00800           0
     65590 TIP3     8732     TIP3     OH2      OT      -0.834000       15.9994           0
     65591 TIP3     8732     TIP3     H1       HT       0.417000       1.00800           0
     65592 TIP3     8732     TIP3     H2       HT       0.417000       1.00800           0
     65593 TIP3     8733     TIP3     OH2      OT      -0.834000       15.9994           0
     65594 TIP3     8733     TIP3     H1       HT       0.417000       1.00800           0
     65595 TIP3     8733     TIP3     H2       HT       0.417000       1.00800           0
     65596 TIP3     8734     TIP3     OH2      OT      -0.834000       15.9994           0
     65597 TIP3     8734     TIP3     H1       HT       0.417000       1.00800           0
     65598 TIP3     8734     TIP3     H2       HT       0.417000       1.00800           0
     65599 TIP3     8735     TIP3     OH2      OT      -0.834000       15.9994           0
     65600 TIP3     8735     TIP3     H1       HT       0.417000       1.00800           0
     65601 TIP3     8735     TIP3     H2       HT       0.417000       1.00800           0
     65602 TIP3     8736     TIP3     OH2      OT      -0.834000       15.9994           0
     65603 TIP3     8736     TIP3     H1       HT       0.417000       1.00800           0
     65604 TIP3     8736     TIP3     H2       HT       0.417000       1.00800           0
     65605 TIP3     8737     TIP3     OH2      OT      -0.834000       15.9994           0
     65606 TIP3     8737     TIP3     H1       HT       0.417000       1.00800           0
     65607 TIP3     8737     TIP3     H2       HT       0.417000       1.00800           0
     65608 TIP3     8738     TIP3     OH2      OT      -0.834000       15.9994           0
     65609 TIP3     8738     TIP3     H1       HT       0.417000       1.00800           0
     65610 TIP3     8738     TIP3     H2       HT       0.417000       1.00800           0
     65611 TIP3     8739     TIP3     OH2      OT      -0.834000       15.9994           0
     65612 TIP3     8739     TIP3     H1       HT       0.417000       1.00800           0
     65613 TIP3     8739     TIP3     H2       HT       0.417000       1.00800           0
     65614 TIP3     8740     TIP3     OH2      OT      -0.834000       15.9994           0
     65615 TIP3     8740     TIP3     H1       HT       0.417000       1.00800           0
     65616 TIP3     8740     TIP3     H2       HT       0.417000       1.00800           0
     65617 TIP3     8741     TIP3     OH2      OT      -0.834000       15.9994           0
     65618 TIP3     8741     TIP3     H1       HT       0.417000       1.00800           0
     65619 TIP3     8741     TIP3     H2       HT       0.417000       1.00800           0
     65620 TIP3     8742     TIP3     OH2      OT      -0.834000       15.9994           0
     65621 TIP3     8742     TIP3     H1       HT       0.417000       1.00800           0
     65622 TIP3     8742     TIP3     H2       HT       0.417000       1.00800           0
     65623 TIP3     8743     TIP3     OH2      OT      -0.834000       15.9994           0
     65624 TIP3     8743     TIP3     H1       HT       0.417000       1.00800           0
     65625 TIP3     8743     TIP3     H2       HT       0.417000       1.00800           0
     65626 TIP3     8744     TIP3     OH2      OT      -0.834000       15.9994           0
     65627 TIP3     8744     TIP3     H1       HT       0.417000       1.00800           0
     65628 TIP3     8744     TIP3     H2       HT       0.417000       1.00800           0
     65629 TIP3     8745     TIP3     OH2      OT      -0.834000       15.9994           0
     65630 TIP3     8745     TIP3     H1       HT       0.417000       1.00800           0
     65631 TIP3     8745     TIP3     H2       HT       0.417000       1.00800           0
     65632 TIP3     8746     TIP3     OH2      OT      -0.834000       15.9994           0
     65633 TIP3     8746     TIP3     H1       HT       0.417000       1.00800           0
     65634 TIP3     8746     TIP3     H2       HT       0.417000       1.00800           0
     65635 TIP3     8747     TIP3     OH2      OT      -0.834000       15.9994           0
     65636 TIP3     8747     TIP3     H1       HT       0.417000       1.00800           0
     65637 TIP3     8747     TIP3     H2       HT       0.417000       1.00800           0
     65638 TIP3     8748     TIP3     OH2      OT      -0.834000       15.9994           0
     65639 TIP3     8748     TIP3     H1       HT       0.417000       1.00800           0
     65640 TIP3     8748     TIP3     H2       HT       0.417000       1.00800           0
     65641 TIP3     8749     TIP3     OH2      OT      -0.834000       15.9994           0
     65642 TIP3     8749     TIP3     H1       HT       0.417000       1.00800           0
     65643 TIP3     8749     TIP3     H2       HT       0.417000       1.00800           0
     65644 TIP3     8750     TIP3     OH2      OT      -0.834000       15.9994           0
     65645 TIP3     8750     TIP3     H1       HT       0.417000       1.00800           0
     65646 TIP3     8750     TIP3     H2       HT       0.417000       1.00800           0
     65647 TIP3     8751     TIP3     OH2      OT      -0.834000       15.9994           0
     65648 TIP3     8751     TIP3     H1       HT       0.417000       1.00800           0
     65649 TIP3     8751     TIP3     H2       HT       0.417000       1.00800           0
     65650 TIP3     8752     TIP3     OH2      OT      -0.834000       15.9994           0
     65651 TIP3     8752     TIP3     H1       HT       0.417000       1.00800           0
     65652 TIP3     8752     TIP3     H2       HT       0.417000       1.00800           0
     65653 TIP3     8753     TIP3     OH2      OT      -0.834000       15.9994           0
     65654 TIP3     8753     TIP3     H1       HT       0.417000       1.00800           0
     65655 TIP3     8753     TIP3     H2       HT       0.417000       1.00800           0
     65656 TIP3     8754     TIP3     OH2      OT      -0.834000       15.9994           0
     65657 TIP3     8754     TIP3     H1       HT       0.417000       1.00800           0
     65658 TIP3     8754     TIP3     H2       HT       0.417000       1.00800           0
     65659 TIP3     8755     TIP3     OH2      OT      -0.834000       15.9994           0
     65660 TIP3     8755     TIP3     H1       HT       0.417000       1.00800           0
     65661 TIP3     8755     TIP3     H2       HT       0.417000       1.00800           0
     65662 TIP3     8756     TIP3     OH2      OT      -0.834000       15.9994           0
     65663 TIP3     8756     TIP3     H1       HT       0.417000       1.00800           0
     65664 TIP3     8756     TIP3     H2       HT       0.417000       1.00800           0
     65665 TIP3     8757     TIP3     OH2      OT      -0.834000       15.9994           0
     65666 TIP3     8757     TIP3     H1       HT       0.417000       1.00800           0
     65667 TIP3     8757     TIP3     H2       HT       0.417000       1.00800           0
     65668 TIP3     8758     TIP3     OH2      OT      -0.834000       15.9994           0
     65669 TIP3     8758     TIP3     H1       HT       0.417000       1.00800           0
     65670 TIP3     8758     TIP3     H2       HT       0.417000       1.00800           0
     65671 TIP3     8759     TIP3     OH2      OT      -0.834000       15.9994           0
     65672 TIP3     8759     TIP3     H1       HT       0.417000       1.00800           0
     65673 TIP3     8759     TIP3     H2       HT       0.417000       1.00800           0
     65674 TIP3     8760     TIP3     OH2      OT      -0.834000       15.9994           0
     65675 TIP3     8760     TIP3     H1       HT       0.417000       1.00800           0
     65676 TIP3     8760     TIP3     H2       HT       0.417000       1.00800           0
     65677 TIP3     8761     TIP3     OH2      OT      -0.834000       15.9994           0
     65678 TIP3     8761     TIP3     H1       HT       0.417000       1.00800           0
     65679 TIP3     8761     TIP3     H2       HT       0.417000       1.00800           0
     65680 TIP3     8762     TIP3     OH2      OT      -0.834000       15.9994           0
     65681 TIP3     8762     TIP3     H1       HT       0.417000       1.00800           0
     65682 TIP3     8762     TIP3     H2       HT       0.417000       1.00800           0
     65683 TIP3     8763     TIP3     OH2      OT      -0.834000       15.9994           0
     65684 TIP3     8763     TIP3     H1       HT       0.417000       1.00800           0
     65685 TIP3     8763     TIP3     H2       HT       0.417000       1.00800           0
     65686 TIP3     8764     TIP3     OH2      OT      -0.834000       15.9994           0
     65687 TIP3     8764     TIP3     H1       HT       0.417000       1.00800           0
     65688 TIP3     8764     TIP3     H2       HT       0.417000       1.00800           0
     65689 TIP3     8765     TIP3     OH2      OT      -0.834000       15.9994           0
     65690 TIP3     8765     TIP3     H1       HT       0.417000       1.00800           0
     65691 TIP3     8765     TIP3     H2       HT       0.417000       1.00800           0
     65692 TIP3     8766     TIP3     OH2      OT      -0.834000       15.9994           0
     65693 TIP3     8766     TIP3     H1       HT       0.417000       1.00800           0
     65694 TIP3     8766     TIP3     H2       HT       0.417000       1.00800           0
     65695 TIP3     8767     TIP3     OH2      OT      -0.834000       15.9994           0
     65696 TIP3     8767     TIP3     H1       HT       0.417000       1.00800           0
     65697 TIP3     8767     TIP3     H2       HT       0.417000       1.00800           0
     65698 TIP3     8768     TIP3     OH2      OT      -0.834000       15.9994           0
     65699 TIP3     8768     TIP3     H1       HT       0.417000       1.00800           0
     65700 TIP3     8768     TIP3     H2       HT       0.417000       1.00800           0
     65701 TIP3     8769     TIP3     OH2      OT      -0.834000       15.9994           0
     65702 TIP3     8769     TIP3     H1       HT       0.417000       1.00800           0
     65703 TIP3     8769     TIP3     H2       HT       0.417000       1.00800           0
     65704 TIP3     8770     TIP3     OH2      OT      -0.834000       15.9994           0
     65705 TIP3     8770     TIP3     H1       HT       0.417000       1.00800           0
     65706 TIP3     8770     TIP3     H2       HT       0.417000       1.00800           0
     65707 TIP3     8771     TIP3     OH2      OT      -0.834000       15.9994           0
     65708 TIP3     8771     TIP3     H1       HT       0.417000       1.00800           0
     65709 TIP3     8771     TIP3     H2       HT       0.417000       1.00800           0
     65710 TIP3     8772     TIP3     OH2      OT      -0.834000       15.9994           0
     65711 TIP3     8772     TIP3     H1       HT       0.417000       1.00800           0
     65712 TIP3     8772     TIP3     H2       HT       0.417000       1.00800           0
     65713 TIP3     8773     TIP3     OH2      OT      -0.834000       15.9994           0
     65714 TIP3     8773     TIP3     H1       HT       0.417000       1.00800           0
     65715 TIP3     8773     TIP3     H2       HT       0.417000       1.00800           0
     65716 TIP3     8774     TIP3     OH2      OT      -0.834000       15.9994           0
     65717 TIP3     8774     TIP3     H1       HT       0.417000       1.00800           0
     65718 TIP3     8774     TIP3     H2       HT       0.417000       1.00800           0
     65719 TIP3     8775     TIP3     OH2      OT      -0.834000       15.9994           0
     65720 TIP3     8775     TIP3     H1       HT       0.417000       1.00800           0
     65721 TIP3     8775     TIP3     H2       HT       0.417000       1.00800           0
     65722 TIP3     8776     TIP3     OH2      OT      -0.834000       15.9994           0
     65723 TIP3     8776     TIP3     H1       HT       0.417000       1.00800           0
     65724 TIP3     8776     TIP3     H2       HT       0.417000       1.00800           0
     65725 TIP3     8777     TIP3     OH2      OT      -0.834000       15.9994           0
     65726 TIP3     8777     TIP3     H1       HT       0.417000       1.00800           0
     65727 TIP3     8777     TIP3     H2       HT       0.417000       1.00800           0
     65728 TIP3     8778     TIP3     OH2      OT      -0.834000       15.9994           0
     65729 TIP3     8778     TIP3     H1       HT       0.417000       1.00800           0
     65730 TIP3     8778     TIP3     H2       HT       0.417000       1.00800           0
     65731 TIP3     8779     TIP3     OH2      OT      -0.834000       15.9994           0
     65732 TIP3     8779     TIP3     H1       HT       0.417000       1.00800           0
     65733 TIP3     8779     TIP3     H2       HT       0.417000       1.00800           0
     65734 TIP3     8780     TIP3     OH2      OT      -0.834000       15.9994           0
     65735 TIP3     8780     TIP3     H1       HT       0.417000       1.00800           0
     65736 TIP3     8780     TIP3     H2       HT       0.417000       1.00800           0
     65737 TIP3     8781     TIP3     OH2      OT      -0.834000       15.9994           0
     65738 TIP3     8781     TIP3     H1       HT       0.417000       1.00800           0
     65739 TIP3     8781     TIP3     H2       HT       0.417000       1.00800           0
     65740 TIP3     8782     TIP3     OH2      OT      -0.834000       15.9994           0
     65741 TIP3     8782     TIP3     H1       HT       0.417000       1.00800           0
     65742 TIP3     8782     TIP3     H2       HT       0.417000       1.00800           0
     65743 TIP3     8783     TIP3     OH2      OT      -0.834000       15.9994           0
     65744 TIP3     8783     TIP3     H1       HT       0.417000       1.00800           0
     65745 TIP3     8783     TIP3     H2       HT       0.417000       1.00800           0
     65746 TIP3     8784     TIP3     OH2      OT      -0.834000       15.9994           0
     65747 TIP3     8784     TIP3     H1       HT       0.417000       1.00800           0
     65748 TIP3     8784     TIP3     H2       HT       0.417000       1.00800           0
     65749 TIP3     8785     TIP3     OH2      OT      -0.834000       15.9994           0
     65750 TIP3     8785     TIP3     H1       HT       0.417000       1.00800           0
     65751 TIP3     8785     TIP3     H2       HT       0.417000       1.00800           0
     65752 TIP3     8786     TIP3     OH2      OT      -0.834000       15.9994           0
     65753 TIP3     8786     TIP3     H1       HT       0.417000       1.00800           0
     65754 TIP3     8786     TIP3     H2       HT       0.417000       1.00800           0
     65755 TIP3     8787     TIP3     OH2      OT      -0.834000       15.9994           0
     65756 TIP3     8787     TIP3     H1       HT       0.417000       1.00800           0
     65757 TIP3     8787     TIP3     H2       HT       0.417000       1.00800           0
     65758 TIP3     8788     TIP3     OH2      OT      -0.834000       15.9994           0
     65759 TIP3     8788     TIP3     H1       HT       0.417000       1.00800           0
     65760 TIP3     8788     TIP3     H2       HT       0.417000       1.00800           0
     65761 TIP3     8789     TIP3     OH2      OT      -0.834000       15.9994           0
     65762 TIP3     8789     TIP3     H1       HT       0.417000       1.00800           0
     65763 TIP3     8789     TIP3     H2       HT       0.417000       1.00800           0
     65764 TIP3     8790     TIP3     OH2      OT      -0.834000       15.9994           0
     65765 TIP3     8790     TIP3     H1       HT       0.417000       1.00800           0
     65766 TIP3     8790     TIP3     H2       HT       0.417000       1.00800           0
     65767 TIP3     8791     TIP3     OH2      OT      -0.834000       15.9994           0
     65768 TIP3     8791     TIP3     H1       HT       0.417000       1.00800           0
     65769 TIP3     8791     TIP3     H2       HT       0.417000       1.00800           0
     65770 TIP3     8792     TIP3     OH2      OT      -0.834000       15.9994           0
     65771 TIP3     8792     TIP3     H1       HT       0.417000       1.00800           0
     65772 TIP3     8792     TIP3     H2       HT       0.417000       1.00800           0
     65773 TIP3     8793     TIP3     OH2      OT      -0.834000       15.9994           0
     65774 TIP3     8793     TIP3     H1       HT       0.417000       1.00800           0
     65775 TIP3     8793     TIP3     H2       HT       0.417000       1.00800           0
     65776 TIP3     8794     TIP3     OH2      OT      -0.834000       15.9994           0
     65777 TIP3     8794     TIP3     H1       HT       0.417000       1.00800           0
     65778 TIP3     8794     TIP3     H2       HT       0.417000       1.00800           0
     65779 TIP3     8795     TIP3     OH2      OT      -0.834000       15.9994           0
     65780 TIP3     8795     TIP3     H1       HT       0.417000       1.00800           0
     65781 TIP3     8795     TIP3     H2       HT       0.417000       1.00800           0
     65782 TIP3     8796     TIP3     OH2      OT      -0.834000       15.9994           0
     65783 TIP3     8796     TIP3     H1       HT       0.417000       1.00800           0
     65784 TIP3     8796     TIP3     H2       HT       0.417000       1.00800           0
     65785 TIP3     8797     TIP3     OH2      OT      -0.834000       15.9994           0
     65786 TIP3     8797     TIP3     H1       HT       0.417000       1.00800           0
     65787 TIP3     8797     TIP3     H2       HT       0.417000       1.00800           0
     65788 TIP3     8798     TIP3     OH2      OT      -0.834000       15.9994           0
     65789 TIP3     8798     TIP3     H1       HT       0.417000       1.00800           0
     65790 TIP3     8798     TIP3     H2       HT       0.417000       1.00800           0
     65791 TIP3     8799     TIP3     OH2      OT      -0.834000       15.9994           0
     65792 TIP3     8799     TIP3     H1       HT       0.417000       1.00800           0
     65793 TIP3     8799     TIP3     H2       HT       0.417000       1.00800           0
     65794 TIP3     8800     TIP3     OH2      OT      -0.834000       15.9994           0
     65795 TIP3     8800     TIP3     H1       HT       0.417000       1.00800           0
     65796 TIP3     8800     TIP3     H2       HT       0.417000       1.00800           0
     65797 TIP3     8801     TIP3     OH2      OT      -0.834000       15.9994           0
     65798 TIP3     8801     TIP3     H1       HT       0.417000       1.00800           0
     65799 TIP3     8801     TIP3     H2       HT       0.417000       1.00800           0
     65800 TIP3     8802     TIP3     OH2      OT      -0.834000       15.9994           0
     65801 TIP3     8802     TIP3     H1       HT       0.417000       1.00800           0
     65802 TIP3     8802     TIP3     H2       HT       0.417000       1.00800           0
     65803 TIP3     8803     TIP3     OH2      OT      -0.834000       15.9994           0
     65804 TIP3     8803     TIP3     H1       HT       0.417000       1.00800           0
     65805 TIP3     8803     TIP3     H2       HT       0.417000       1.00800           0
     65806 TIP3     8804     TIP3     OH2      OT      -0.834000       15.9994           0
     65807 TIP3     8804     TIP3     H1       HT       0.417000       1.00800           0
     65808 TIP3     8804     TIP3     H2       HT       0.417000       1.00800           0
     65809 TIP3     8805     TIP3     OH2      OT      -0.834000       15.9994           0
     65810 TIP3     8805     TIP3     H1       HT       0.417000       1.00800           0
     65811 TIP3     8805     TIP3     H2       HT       0.417000       1.00800           0
     65812 TIP3     8806     TIP3     OH2      OT      -0.834000       15.9994           0
     65813 TIP3     8806     TIP3     H1       HT       0.417000       1.00800           0
     65814 TIP3     8806     TIP3     H2       HT       0.417000       1.00800           0
     65815 TIP3     8807     TIP3     OH2      OT      -0.834000       15.9994           0
     65816 TIP3     8807     TIP3     H1       HT       0.417000       1.00800           0
     65817 TIP3     8807     TIP3     H2       HT       0.417000       1.00800           0
     65818 TIP3     8808     TIP3     OH2      OT      -0.834000       15.9994           0
     65819 TIP3     8808     TIP3     H1       HT       0.417000       1.00800           0
     65820 TIP3     8808     TIP3     H2       HT       0.417000       1.00800           0
     65821 TIP3     8809     TIP3     OH2      OT      -0.834000       15.9994           0
     65822 TIP3     8809     TIP3     H1       HT       0.417000       1.00800           0
     65823 TIP3     8809     TIP3     H2       HT       0.417000       1.00800           0
     65824 TIP3     8810     TIP3     OH2      OT      -0.834000       15.9994           0
     65825 TIP3     8810     TIP3     H1       HT       0.417000       1.00800           0
     65826 TIP3     8810     TIP3     H2       HT       0.417000       1.00800           0
     65827 TIP3     8811     TIP3     OH2      OT      -0.834000       15.9994           0
     65828 TIP3     8811     TIP3     H1       HT       0.417000       1.00800           0
     65829 TIP3     8811     TIP3     H2       HT       0.417000       1.00800           0
     65830 TIP3     8812     TIP3     OH2      OT      -0.834000       15.9994           0
     65831 TIP3     8812     TIP3     H1       HT       0.417000       1.00800           0
     65832 TIP3     8812     TIP3     H2       HT       0.417000       1.00800           0
     65833 TIP3     8813     TIP3     OH2      OT      -0.834000       15.9994           0
     65834 TIP3     8813     TIP3     H1       HT       0.417000       1.00800           0
     65835 TIP3     8813     TIP3     H2       HT       0.417000       1.00800           0
     65836 TIP3     8814     TIP3     OH2      OT      -0.834000       15.9994           0
     65837 TIP3     8814     TIP3     H1       HT       0.417000       1.00800           0
     65838 TIP3     8814     TIP3     H2       HT       0.417000       1.00800           0
     65839 TIP3     8815     TIP3     OH2      OT      -0.834000       15.9994           0
     65840 TIP3     8815     TIP3     H1       HT       0.417000       1.00800           0
     65841 TIP3     8815     TIP3     H2       HT       0.417000       1.00800           0
     65842 TIP3     8816     TIP3     OH2      OT      -0.834000       15.9994           0
     65843 TIP3     8816     TIP3     H1       HT       0.417000       1.00800           0
     65844 TIP3     8816     TIP3     H2       HT       0.417000       1.00800           0
     65845 TIP3     8817     TIP3     OH2      OT      -0.834000       15.9994           0
     65846 TIP3     8817     TIP3     H1       HT       0.417000       1.00800           0
     65847 TIP3     8817     TIP3     H2       HT       0.417000       1.00800           0
     65848 TIP3     8818     TIP3     OH2      OT      -0.834000       15.9994           0
     65849 TIP3     8818     TIP3     H1       HT       0.417000       1.00800           0
     65850 TIP3     8818     TIP3     H2       HT       0.417000       1.00800           0
     65851 TIP3     8819     TIP3     OH2      OT      -0.834000       15.9994           0
     65852 TIP3     8819     TIP3     H1       HT       0.417000       1.00800           0
     65853 TIP3     8819     TIP3     H2       HT       0.417000       1.00800           0
     65854 TIP3     8820     TIP3     OH2      OT      -0.834000       15.9994           0
     65855 TIP3     8820     TIP3     H1       HT       0.417000       1.00800           0
     65856 TIP3     8820     TIP3     H2       HT       0.417000       1.00800           0
     65857 TIP3     8821     TIP3     OH2      OT      -0.834000       15.9994           0
     65858 TIP3     8821     TIP3     H1       HT       0.417000       1.00800           0
     65859 TIP3     8821     TIP3     H2       HT       0.417000       1.00800           0
     65860 TIP3     8822     TIP3     OH2      OT      -0.834000       15.9994           0
     65861 TIP3     8822     TIP3     H1       HT       0.417000       1.00800           0
     65862 TIP3     8822     TIP3     H2       HT       0.417000       1.00800           0
     65863 TIP3     8823     TIP3     OH2      OT      -0.834000       15.9994           0
     65864 TIP3     8823     TIP3     H1       HT       0.417000       1.00800           0
     65865 TIP3     8823     TIP3     H2       HT       0.417000       1.00800           0
     65866 TIP3     8824     TIP3     OH2      OT      -0.834000       15.9994           0
     65867 TIP3     8824     TIP3     H1       HT       0.417000       1.00800           0
     65868 TIP3     8824     TIP3     H2       HT       0.417000       1.00800           0
     65869 TIP3     8825     TIP3     OH2      OT      -0.834000       15.9994           0
     65870 TIP3     8825     TIP3     H1       HT       0.417000       1.00800           0
     65871 TIP3     8825     TIP3     H2       HT       0.417000       1.00800           0
     65872 TIP3     8826     TIP3     OH2      OT      -0.834000       15.9994           0
     65873 TIP3     8826     TIP3     H1       HT       0.417000       1.00800           0
     65874 TIP3     8826     TIP3     H2       HT       0.417000       1.00800           0
     65875 TIP3     8827     TIP3     OH2      OT      -0.834000       15.9994           0
     65876 TIP3     8827     TIP3     H1       HT       0.417000       1.00800           0
     65877 TIP3     8827     TIP3     H2       HT       0.417000       1.00800           0
     65878 TIP3     8828     TIP3     OH2      OT      -0.834000       15.9994           0
     65879 TIP3     8828     TIP3     H1       HT       0.417000       1.00800           0
     65880 TIP3     8828     TIP3     H2       HT       0.417000       1.00800           0
     65881 TIP3     8829     TIP3     OH2      OT      -0.834000       15.9994           0
     65882 TIP3     8829     TIP3     H1       HT       0.417000       1.00800           0
     65883 TIP3     8829     TIP3     H2       HT       0.417000       1.00800           0
     65884 TIP3     8830     TIP3     OH2      OT      -0.834000       15.9994           0
     65885 TIP3     8830     TIP3     H1       HT       0.417000       1.00800           0
     65886 TIP3     8830     TIP3     H2       HT       0.417000       1.00800           0
     65887 TIP3     8831     TIP3     OH2      OT      -0.834000       15.9994           0
     65888 TIP3     8831     TIP3     H1       HT       0.417000       1.00800           0
     65889 TIP3     8831     TIP3     H2       HT       0.417000       1.00800           0
     65890 TIP3     8832     TIP3     OH2      OT      -0.834000       15.9994           0
     65891 TIP3     8832     TIP3     H1       HT       0.417000       1.00800           0
     65892 TIP3     8832     TIP3     H2       HT       0.417000       1.00800           0
     65893 TIP3     8833     TIP3     OH2      OT      -0.834000       15.9994           0
     65894 TIP3     8833     TIP3     H1       HT       0.417000       1.00800           0
     65895 TIP3     8833     TIP3     H2       HT       0.417000       1.00800           0
     65896 TIP3     8834     TIP3     OH2      OT      -0.834000       15.9994           0
     65897 TIP3     8834     TIP3     H1       HT       0.417000       1.00800           0
     65898 TIP3     8834     TIP3     H2       HT       0.417000       1.00800           0
     65899 TIP3     8835     TIP3     OH2      OT      -0.834000       15.9994           0
     65900 TIP3     8835     TIP3     H1       HT       0.417000       1.00800           0
     65901 TIP3     8835     TIP3     H2       HT       0.417000       1.00800           0
     65902 TIP3     8836     TIP3     OH2      OT      -0.834000       15.9994           0
     65903 TIP3     8836     TIP3     H1       HT       0.417000       1.00800           0
     65904 TIP3     8836     TIP3     H2       HT       0.417000       1.00800           0
     65905 TIP3     8837     TIP3     OH2      OT      -0.834000       15.9994           0
     65906 TIP3     8837     TIP3     H1       HT       0.417000       1.00800           0
     65907 TIP3     8837     TIP3     H2       HT       0.417000       1.00800           0
     65908 TIP3     8838     TIP3     OH2      OT      -0.834000       15.9994           0
     65909 TIP3     8838     TIP3     H1       HT       0.417000       1.00800           0
     65910 TIP3     8838     TIP3     H2       HT       0.417000       1.00800           0
     65911 TIP3     8839     TIP3     OH2      OT      -0.834000       15.9994           0
     65912 TIP3     8839     TIP3     H1       HT       0.417000       1.00800           0
     65913 TIP3     8839     TIP3     H2       HT       0.417000       1.00800           0
     65914 TIP3     8840     TIP3     OH2      OT      -0.834000       15.9994           0
     65915 TIP3     8840     TIP3     H1       HT       0.417000       1.00800           0
     65916 TIP3     8840     TIP3     H2       HT       0.417000       1.00800           0
     65917 TIP3     8841     TIP3     OH2      OT      -0.834000       15.9994           0
     65918 TIP3     8841     TIP3     H1       HT       0.417000       1.00800           0
     65919 TIP3     8841     TIP3     H2       HT       0.417000       1.00800           0
     65920 TIP3     8842     TIP3     OH2      OT      -0.834000       15.9994           0
     65921 TIP3     8842     TIP3     H1       HT       0.417000       1.00800           0
     65922 TIP3     8842     TIP3     H2       HT       0.417000       1.00800           0
     65923 TIP3     8843     TIP3     OH2      OT      -0.834000       15.9994           0
     65924 TIP3     8843     TIP3     H1       HT       0.417000       1.00800           0
     65925 TIP3     8843     TIP3     H2       HT       0.417000       1.00800           0
     65926 TIP3     8844     TIP3     OH2      OT      -0.834000       15.9994           0
     65927 TIP3     8844     TIP3     H1       HT       0.417000       1.00800           0
     65928 TIP3     8844     TIP3     H2       HT       0.417000       1.00800           0
     65929 TIP3     8845     TIP3     OH2      OT      -0.834000       15.9994           0
     65930 TIP3     8845     TIP3     H1       HT       0.417000       1.00800           0
     65931 TIP3     8845     TIP3     H2       HT       0.417000       1.00800           0
     65932 TIP3     8846     TIP3     OH2      OT      -0.834000       15.9994           0
     65933 TIP3     8846     TIP3     H1       HT       0.417000       1.00800           0
     65934 TIP3     8846     TIP3     H2       HT       0.417000       1.00800           0
     65935 TIP3     8847     TIP3     OH2      OT      -0.834000       15.9994           0
     65936 TIP3     8847     TIP3     H1       HT       0.417000       1.00800           0
     65937 TIP3     8847     TIP3     H2       HT       0.417000       1.00800           0
     65938 TIP3     8848     TIP3     OH2      OT      -0.834000       15.9994           0
     65939 TIP3     8848     TIP3     H1       HT       0.417000       1.00800           0
     65940 TIP3     8848     TIP3     H2       HT       0.417000       1.00800           0
     65941 TIP3     8849     TIP3     OH2      OT      -0.834000       15.9994           0
     65942 TIP3     8849     TIP3     H1       HT       0.417000       1.00800           0
     65943 TIP3     8849     TIP3     H2       HT       0.417000       1.00800           0
     65944 TIP3     8850     TIP3     OH2      OT      -0.834000       15.9994           0
     65945 TIP3     8850     TIP3     H1       HT       0.417000       1.00800           0
     65946 TIP3     8850     TIP3     H2       HT       0.417000       1.00800           0
     65947 TIP3     8851     TIP3     OH2      OT      -0.834000       15.9994           0
     65948 TIP3     8851     TIP3     H1       HT       0.417000       1.00800           0
     65949 TIP3     8851     TIP3     H2       HT       0.417000       1.00800           0
     65950 TIP3     8852     TIP3     OH2      OT      -0.834000       15.9994           0
     65951 TIP3     8852     TIP3     H1       HT       0.417000       1.00800           0
     65952 TIP3     8852     TIP3     H2       HT       0.417000       1.00800           0
     65953 TIP3     8853     TIP3     OH2      OT      -0.834000       15.9994           0
     65954 TIP3     8853     TIP3     H1       HT       0.417000       1.00800           0
     65955 TIP3     8853     TIP3     H2       HT       0.417000       1.00800           0
     65956 TIP3     8854     TIP3     OH2      OT      -0.834000       15.9994           0
     65957 TIP3     8854     TIP3     H1       HT       0.417000       1.00800           0
     65958 TIP3     8854     TIP3     H2       HT       0.417000       1.00800           0
     65959 TIP3     8855     TIP3     OH2      OT      -0.834000       15.9994           0
     65960 TIP3     8855     TIP3     H1       HT       0.417000       1.00800           0
     65961 TIP3     8855     TIP3     H2       HT       0.417000       1.00800           0
     65962 TIP3     8856     TIP3     OH2      OT      -0.834000       15.9994           0
     65963 TIP3     8856     TIP3     H1       HT       0.417000       1.00800           0
     65964 TIP3     8856     TIP3     H2       HT       0.417000       1.00800           0
     65965 TIP3     8857     TIP3     OH2      OT      -0.834000       15.9994           0
     65966 TIP3     8857     TIP3     H1       HT       0.417000       1.00800           0
     65967 TIP3     8857     TIP3     H2       HT       0.417000       1.00800           0
     65968 TIP3     8858     TIP3     OH2      OT      -0.834000       15.9994           0
     65969 TIP3     8858     TIP3     H1       HT       0.417000       1.00800           0
     65970 TIP3     8858     TIP3     H2       HT       0.417000       1.00800           0
     65971 TIP3     8859     TIP3     OH2      OT      -0.834000       15.9994           0
     65972 TIP3     8859     TIP3     H1       HT       0.417000       1.00800           0
     65973 TIP3     8859     TIP3     H2       HT       0.417000       1.00800           0
     65974 TIP3     8860     TIP3     OH2      OT      -0.834000       15.9994           0
     65975 TIP3     8860     TIP3     H1       HT       0.417000       1.00800           0
     65976 TIP3     8860     TIP3     H2       HT       0.417000       1.00800           0
     65977 TIP3     8861     TIP3     OH2      OT      -0.834000       15.9994           0
     65978 TIP3     8861     TIP3     H1       HT       0.417000       1.00800           0
     65979 TIP3     8861     TIP3     H2       HT       0.417000       1.00800           0
     65980 TIP3     8862     TIP3     OH2      OT      -0.834000       15.9994           0
     65981 TIP3     8862     TIP3     H1       HT       0.417000       1.00800           0
     65982 TIP3     8862     TIP3     H2       HT       0.417000       1.00800           0
     65983 TIP3     8863     TIP3     OH2      OT      -0.834000       15.9994           0
     65984 TIP3     8863     TIP3     H1       HT       0.417000       1.00800           0
     65985 TIP3     8863     TIP3     H2       HT       0.417000       1.00800           0
     65986 TIP3     8864     TIP3     OH2      OT      -0.834000       15.9994           0
     65987 TIP3     8864     TIP3     H1       HT       0.417000       1.00800           0
     65988 TIP3     8864     TIP3     H2       HT       0.417000       1.00800           0
     65989 TIP3     8865     TIP3     OH2      OT      -0.834000       15.9994           0
     65990 TIP3     8865     TIP3     H1       HT       0.417000       1.00800           0
     65991 TIP3     8865     TIP3     H2       HT       0.417000       1.00800           0
     65992 TIP3     8866     TIP3     OH2      OT      -0.834000       15.9994           0
     65993 TIP3     8866     TIP3     H1       HT       0.417000       1.00800           0
     65994 TIP3     8866     TIP3     H2       HT       0.417000       1.00800           0
     65995 TIP3     8867     TIP3     OH2      OT      -0.834000       15.9994           0
     65996 TIP3     8867     TIP3     H1       HT       0.417000       1.00800           0
     65997 TIP3     8867     TIP3     H2       HT       0.417000       1.00800           0
     65998 TIP3     8868     TIP3     OH2      OT      -0.834000       15.9994           0
     65999 TIP3     8868     TIP3     H1       HT       0.417000       1.00800           0
     66000 TIP3     8868     TIP3     H2       HT       0.417000       1.00800           0
     66001 TIP3     8869     TIP3     OH2      OT      -0.834000       15.9994           0
     66002 TIP3     8869     TIP3     H1       HT       0.417000       1.00800           0
     66003 TIP3     8869     TIP3     H2       HT       0.417000       1.00800           0
     66004 TIP3     8870     TIP3     OH2      OT      -0.834000       15.9994           0
     66005 TIP3     8870     TIP3     H1       HT       0.417000       1.00800           0
     66006 TIP3     8870     TIP3     H2       HT       0.417000       1.00800           0
     66007 TIP3     8871     TIP3     OH2      OT      -0.834000       15.9994           0
     66008 TIP3     8871     TIP3     H1       HT       0.417000       1.00800           0
     66009 TIP3     8871     TIP3     H2       HT       0.417000       1.00800           0
     66010 TIP3     8872     TIP3     OH2      OT      -0.834000       15.9994           0
     66011 TIP3     8872     TIP3     H1       HT       0.417000       1.00800           0
     66012 TIP3     8872     TIP3     H2       HT       0.417000       1.00800           0
     66013 TIP3     8873     TIP3     OH2      OT      -0.834000       15.9994           0
     66014 TIP3     8873     TIP3     H1       HT       0.417000       1.00800           0
     66015 TIP3     8873     TIP3     H2       HT       0.417000       1.00800           0
     66016 TIP3     8874     TIP3     OH2      OT      -0.834000       15.9994           0
     66017 TIP3     8874     TIP3     H1       HT       0.417000       1.00800           0
     66018 TIP3     8874     TIP3     H2       HT       0.417000       1.00800           0
     66019 TIP3     8875     TIP3     OH2      OT      -0.834000       15.9994           0
     66020 TIP3     8875     TIP3     H1       HT       0.417000       1.00800           0
     66021 TIP3     8875     TIP3     H2       HT       0.417000       1.00800           0
     66022 TIP3     8876     TIP3     OH2      OT      -0.834000       15.9994           0
     66023 TIP3     8876     TIP3     H1       HT       0.417000       1.00800           0
     66024 TIP3     8876     TIP3     H2       HT       0.417000       1.00800           0
     66025 TIP3     8877     TIP3     OH2      OT      -0.834000       15.9994           0
     66026 TIP3     8877     TIP3     H1       HT       0.417000       1.00800           0
     66027 TIP3     8877     TIP3     H2       HT       0.417000       1.00800           0
     66028 TIP3     8878     TIP3     OH2      OT      -0.834000       15.9994           0
     66029 TIP3     8878     TIP3     H1       HT       0.417000       1.00800           0
     66030 TIP3     8878     TIP3     H2       HT       0.417000       1.00800           0
     66031 TIP3     8879     TIP3     OH2      OT      -0.834000       15.9994           0
     66032 TIP3     8879     TIP3     H1       HT       0.417000       1.00800           0
     66033 TIP3     8879     TIP3     H2       HT       0.417000       1.00800           0
     66034 TIP3     8880     TIP3     OH2      OT      -0.834000       15.9994           0
     66035 TIP3     8880     TIP3     H1       HT       0.417000       1.00800           0
     66036 TIP3     8880     TIP3     H2       HT       0.417000       1.00800           0
     66037 TIP3     8881     TIP3     OH2      OT      -0.834000       15.9994           0
     66038 TIP3     8881     TIP3     H1       HT       0.417000       1.00800           0
     66039 TIP3     8881     TIP3     H2       HT       0.417000       1.00800           0
     66040 TIP3     8882     TIP3     OH2      OT      -0.834000       15.9994           0
     66041 TIP3     8882     TIP3     H1       HT       0.417000       1.00800           0
     66042 TIP3     8882     TIP3     H2       HT       0.417000       1.00800           0
     66043 TIP3     8883     TIP3     OH2      OT      -0.834000       15.9994           0
     66044 TIP3     8883     TIP3     H1       HT       0.417000       1.00800           0
     66045 TIP3     8883     TIP3     H2       HT       0.417000       1.00800           0
     66046 TIP3     8884     TIP3     OH2      OT      -0.834000       15.9994           0
     66047 TIP3     8884     TIP3     H1       HT       0.417000       1.00800           0
     66048 TIP3     8884     TIP3     H2       HT       0.417000       1.00800           0
     66049 TIP3     8885     TIP3     OH2      OT      -0.834000       15.9994           0
     66050 TIP3     8885     TIP3     H1       HT       0.417000       1.00800           0
     66051 TIP3     8885     TIP3     H2       HT       0.417000       1.00800           0
     66052 TIP3     8886     TIP3     OH2      OT      -0.834000       15.9994           0
     66053 TIP3     8886     TIP3     H1       HT       0.417000       1.00800           0
     66054 TIP3     8886     TIP3     H2       HT       0.417000       1.00800           0
     66055 TIP3     8887     TIP3     OH2      OT      -0.834000       15.9994           0
     66056 TIP3     8887     TIP3     H1       HT       0.417000       1.00800           0
     66057 TIP3     8887     TIP3     H2       HT       0.417000       1.00800           0
     66058 TIP3     8888     TIP3     OH2      OT      -0.834000       15.9994           0
     66059 TIP3     8888     TIP3     H1       HT       0.417000       1.00800           0
     66060 TIP3     8888     TIP3     H2       HT       0.417000       1.00800           0
     66061 TIP3     8889     TIP3     OH2      OT      -0.834000       15.9994           0
     66062 TIP3     8889     TIP3     H1       HT       0.417000       1.00800           0
     66063 TIP3     8889     TIP3     H2       HT       0.417000       1.00800           0
     66064 TIP3     8890     TIP3     OH2      OT      -0.834000       15.9994           0
     66065 TIP3     8890     TIP3     H1       HT       0.417000       1.00800           0
     66066 TIP3     8890     TIP3     H2       HT       0.417000       1.00800           0
     66067 TIP3     8891     TIP3     OH2      OT      -0.834000       15.9994           0
     66068 TIP3     8891     TIP3     H1       HT       0.417000       1.00800           0
     66069 TIP3     8891     TIP3     H2       HT       0.417000       1.00800           0
     66070 TIP3     8892     TIP3     OH2      OT      -0.834000       15.9994           0
     66071 TIP3     8892     TIP3     H1       HT       0.417000       1.00800           0
     66072 TIP3     8892     TIP3     H2       HT       0.417000       1.00800           0
     66073 TIP3     8893     TIP3     OH2      OT      -0.834000       15.9994           0
     66074 TIP3     8893     TIP3     H1       HT       0.417000       1.00800           0
     66075 TIP3     8893     TIP3     H2       HT       0.417000       1.00800           0
     66076 TIP3     8894     TIP3     OH2      OT      -0.834000       15.9994           0
     66077 TIP3     8894     TIP3     H1       HT       0.417000       1.00800           0
     66078 TIP3     8894     TIP3     H2       HT       0.417000       1.00800           0
     66079 TIP3     8895     TIP3     OH2      OT      -0.834000       15.9994           0
     66080 TIP3     8895     TIP3     H1       HT       0.417000       1.00800           0
     66081 TIP3     8895     TIP3     H2       HT       0.417000       1.00800           0
     66082 TIP3     8896     TIP3     OH2      OT      -0.834000       15.9994           0
     66083 TIP3     8896     TIP3     H1       HT       0.417000       1.00800           0
     66084 TIP3     8896     TIP3     H2       HT       0.417000       1.00800           0
     66085 TIP3     8897     TIP3     OH2      OT      -0.834000       15.9994           0
     66086 TIP3     8897     TIP3     H1       HT       0.417000       1.00800           0
     66087 TIP3     8897     TIP3     H2       HT       0.417000       1.00800           0
     66088 TIP3     8898     TIP3     OH2      OT      -0.834000       15.9994           0
     66089 TIP3     8898     TIP3     H1       HT       0.417000       1.00800           0
     66090 TIP3     8898     TIP3     H2       HT       0.417000       1.00800           0
     66091 TIP3     8899     TIP3     OH2      OT      -0.834000       15.9994           0
     66092 TIP3     8899     TIP3     H1       HT       0.417000       1.00800           0
     66093 TIP3     8899     TIP3     H2       HT       0.417000       1.00800           0
     66094 TIP3     8900     TIP3     OH2      OT      -0.834000       15.9994           0
     66095 TIP3     8900     TIP3     H1       HT       0.417000       1.00800           0
     66096 TIP3     8900     TIP3     H2       HT       0.417000       1.00800           0
     66097 TIP3     8901     TIP3     OH2      OT      -0.834000       15.9994           0
     66098 TIP3     8901     TIP3     H1       HT       0.417000       1.00800           0
     66099 TIP3     8901     TIP3     H2       HT       0.417000       1.00800           0
     66100 TIP3     8902     TIP3     OH2      OT      -0.834000       15.9994           0
     66101 TIP3     8902     TIP3     H1       HT       0.417000       1.00800           0
     66102 TIP3     8902     TIP3     H2       HT       0.417000       1.00800           0
     66103 TIP3     8903     TIP3     OH2      OT      -0.834000       15.9994           0
     66104 TIP3     8903     TIP3     H1       HT       0.417000       1.00800           0
     66105 TIP3     8903     TIP3     H2       HT       0.417000       1.00800           0
     66106 TIP3     8904     TIP3     OH2      OT      -0.834000       15.9994           0
     66107 TIP3     8904     TIP3     H1       HT       0.417000       1.00800           0
     66108 TIP3     8904     TIP3     H2       HT       0.417000       1.00800           0
     66109 TIP3     8905     TIP3     OH2      OT      -0.834000       15.9994           0
     66110 TIP3     8905     TIP3     H1       HT       0.417000       1.00800           0
     66111 TIP3     8905     TIP3     H2       HT       0.417000       1.00800           0
     66112 TIP3     8906     TIP3     OH2      OT      -0.834000       15.9994           0
     66113 TIP3     8906     TIP3     H1       HT       0.417000       1.00800           0
     66114 TIP3     8906     TIP3     H2       HT       0.417000       1.00800           0
     66115 TIP3     8907     TIP3     OH2      OT      -0.834000       15.9994           0
     66116 TIP3     8907     TIP3     H1       HT       0.417000       1.00800           0
     66117 TIP3     8907     TIP3     H2       HT       0.417000       1.00800           0
     66118 TIP3     8908     TIP3     OH2      OT      -0.834000       15.9994           0
     66119 TIP3     8908     TIP3     H1       HT       0.417000       1.00800           0
     66120 TIP3     8908     TIP3     H2       HT       0.417000       1.00800           0
     66121 TIP3     8909     TIP3     OH2      OT      -0.834000       15.9994           0
     66122 TIP3     8909     TIP3     H1       HT       0.417000       1.00800           0
     66123 TIP3     8909     TIP3     H2       HT       0.417000       1.00800           0
     66124 TIP3     8910     TIP3     OH2      OT      -0.834000       15.9994           0
     66125 TIP3     8910     TIP3     H1       HT       0.417000       1.00800           0
     66126 TIP3     8910     TIP3     H2       HT       0.417000       1.00800           0
     66127 TIP3     8911     TIP3     OH2      OT      -0.834000       15.9994           0
     66128 TIP3     8911     TIP3     H1       HT       0.417000       1.00800           0
     66129 TIP3     8911     TIP3     H2       HT       0.417000       1.00800           0
     66130 TIP3     8912     TIP3     OH2      OT      -0.834000       15.9994           0
     66131 TIP3     8912     TIP3     H1       HT       0.417000       1.00800           0
     66132 TIP3     8912     TIP3     H2       HT       0.417000       1.00800           0
     66133 TIP3     8913     TIP3     OH2      OT      -0.834000       15.9994           0
     66134 TIP3     8913     TIP3     H1       HT       0.417000       1.00800           0
     66135 TIP3     8913     TIP3     H2       HT       0.417000       1.00800           0
     66136 TIP3     8914     TIP3     OH2      OT      -0.834000       15.9994           0
     66137 TIP3     8914     TIP3     H1       HT       0.417000       1.00800           0
     66138 TIP3     8914     TIP3     H2       HT       0.417000       1.00800           0
     66139 TIP3     8915     TIP3     OH2      OT      -0.834000       15.9994           0
     66140 TIP3     8915     TIP3     H1       HT       0.417000       1.00800           0
     66141 TIP3     8915     TIP3     H2       HT       0.417000       1.00800           0
     66142 TIP3     8916     TIP3     OH2      OT      -0.834000       15.9994           0
     66143 TIP3     8916     TIP3     H1       HT       0.417000       1.00800           0
     66144 TIP3     8916     TIP3     H2       HT       0.417000       1.00800           0
     66145 TIP3     8917     TIP3     OH2      OT      -0.834000       15.9994           0
     66146 TIP3     8917     TIP3     H1       HT       0.417000       1.00800           0
     66147 TIP3     8917     TIP3     H2       HT       0.417000       1.00800           0
     66148 TIP3     8918     TIP3     OH2      OT      -0.834000       15.9994           0
     66149 TIP3     8918     TIP3     H1       HT       0.417000       1.00800           0
     66150 TIP3     8918     TIP3     H2       HT       0.417000       1.00800           0
     66151 TIP3     8919     TIP3     OH2      OT      -0.834000       15.9994           0
     66152 TIP3     8919     TIP3     H1       HT       0.417000       1.00800           0
     66153 TIP3     8919     TIP3     H2       HT       0.417000       1.00800           0
     66154 TIP3     8920     TIP3     OH2      OT      -0.834000       15.9994           0
     66155 TIP3     8920     TIP3     H1       HT       0.417000       1.00800           0
     66156 TIP3     8920     TIP3     H2       HT       0.417000       1.00800           0
     66157 TIP3     8921     TIP3     OH2      OT      -0.834000       15.9994           0
     66158 TIP3     8921     TIP3     H1       HT       0.417000       1.00800           0
     66159 TIP3     8921     TIP3     H2       HT       0.417000       1.00800           0
     66160 TIP3     8922     TIP3     OH2      OT      -0.834000       15.9994           0
     66161 TIP3     8922     TIP3     H1       HT       0.417000       1.00800           0
     66162 TIP3     8922     TIP3     H2       HT       0.417000       1.00800           0
     66163 TIP3     8923     TIP3     OH2      OT      -0.834000       15.9994           0
     66164 TIP3     8923     TIP3     H1       HT       0.417000       1.00800           0
     66165 TIP3     8923     TIP3     H2       HT       0.417000       1.00800           0
     66166 TIP3     8924     TIP3     OH2      OT      -0.834000       15.9994           0
     66167 TIP3     8924     TIP3     H1       HT       0.417000       1.00800           0
     66168 TIP3     8924     TIP3     H2       HT       0.417000       1.00800           0
     66169 TIP3     8925     TIP3     OH2      OT      -0.834000       15.9994           0
     66170 TIP3     8925     TIP3     H1       HT       0.417000       1.00800           0
     66171 TIP3     8925     TIP3     H2       HT       0.417000       1.00800           0
     66172 TIP3     8926     TIP3     OH2      OT      -0.834000       15.9994           0
     66173 TIP3     8926     TIP3     H1       HT       0.417000       1.00800           0
     66174 TIP3     8926     TIP3     H2       HT       0.417000       1.00800           0
     66175 TIP3     8927     TIP3     OH2      OT      -0.834000       15.9994           0
     66176 TIP3     8927     TIP3     H1       HT       0.417000       1.00800           0
     66177 TIP3     8927     TIP3     H2       HT       0.417000       1.00800           0
     66178 TIP3     8928     TIP3     OH2      OT      -0.834000       15.9994           0
     66179 TIP3     8928     TIP3     H1       HT       0.417000       1.00800           0
     66180 TIP3     8928     TIP3     H2       HT       0.417000       1.00800           0
     66181 TIP3     8929     TIP3     OH2      OT      -0.834000       15.9994           0
     66182 TIP3     8929     TIP3     H1       HT       0.417000       1.00800           0
     66183 TIP3     8929     TIP3     H2       HT       0.417000       1.00800           0
     66184 TIP3     8930     TIP3     OH2      OT      -0.834000       15.9994           0
     66185 TIP3     8930     TIP3     H1       HT       0.417000       1.00800           0
     66186 TIP3     8930     TIP3     H2       HT       0.417000       1.00800           0
     66187 TIP3     8931     TIP3     OH2      OT      -0.834000       15.9994           0
     66188 TIP3     8931     TIP3     H1       HT       0.417000       1.00800           0
     66189 TIP3     8931     TIP3     H2       HT       0.417000       1.00800           0
     66190 TIP3     8932     TIP3     OH2      OT      -0.834000       15.9994           0
     66191 TIP3     8932     TIP3     H1       HT       0.417000       1.00800           0
     66192 TIP3     8932     TIP3     H2       HT       0.417000       1.00800           0
     66193 TIP3     8933     TIP3     OH2      OT      -0.834000       15.9994           0
     66194 TIP3     8933     TIP3     H1       HT       0.417000       1.00800           0
     66195 TIP3     8933     TIP3     H2       HT       0.417000       1.00800           0
     66196 TIP3     8934     TIP3     OH2      OT      -0.834000       15.9994           0
     66197 TIP3     8934     TIP3     H1       HT       0.417000       1.00800           0
     66198 TIP3     8934     TIP3     H2       HT       0.417000       1.00800           0
     66199 TIP3     8935     TIP3     OH2      OT      -0.834000       15.9994           0
     66200 TIP3     8935     TIP3     H1       HT       0.417000       1.00800           0
     66201 TIP3     8935     TIP3     H2       HT       0.417000       1.00800           0
     66202 TIP3     8936     TIP3     OH2      OT      -0.834000       15.9994           0
     66203 TIP3     8936     TIP3     H1       HT       0.417000       1.00800           0
     66204 TIP3     8936     TIP3     H2       HT       0.417000       1.00800           0
     66205 TIP3     8937     TIP3     OH2      OT      -0.834000       15.9994           0
     66206 TIP3     8937     TIP3     H1       HT       0.417000       1.00800           0
     66207 TIP3     8937     TIP3     H2       HT       0.417000       1.00800           0
     66208 TIP3     8938     TIP3     OH2      OT      -0.834000       15.9994           0
     66209 TIP3     8938     TIP3     H1       HT       0.417000       1.00800           0
     66210 TIP3     8938     TIP3     H2       HT       0.417000       1.00800           0
     66211 TIP3     8939     TIP3     OH2      OT      -0.834000       15.9994           0
     66212 TIP3     8939     TIP3     H1       HT       0.417000       1.00800           0
     66213 TIP3     8939     TIP3     H2       HT       0.417000       1.00800           0
     66214 TIP3     8940     TIP3     OH2      OT      -0.834000       15.9994           0
     66215 TIP3     8940     TIP3     H1       HT       0.417000       1.00800           0
     66216 TIP3     8940     TIP3     H2       HT       0.417000       1.00800           0
     66217 TIP3     8941     TIP3     OH2      OT      -0.834000       15.9994           0
     66218 TIP3     8941     TIP3     H1       HT       0.417000       1.00800           0
     66219 TIP3     8941     TIP3     H2       HT       0.417000       1.00800           0
     66220 TIP3     8942     TIP3     OH2      OT      -0.834000       15.9994           0
     66221 TIP3     8942     TIP3     H1       HT       0.417000       1.00800           0
     66222 TIP3     8942     TIP3     H2       HT       0.417000       1.00800           0
     66223 TIP3     8943     TIP3     OH2      OT      -0.834000       15.9994           0
     66224 TIP3     8943     TIP3     H1       HT       0.417000       1.00800           0
     66225 TIP3     8943     TIP3     H2       HT       0.417000       1.00800           0
     66226 TIP3     8944     TIP3     OH2      OT      -0.834000       15.9994           0
     66227 TIP3     8944     TIP3     H1       HT       0.417000       1.00800           0
     66228 TIP3     8944     TIP3     H2       HT       0.417000       1.00800           0
     66229 TIP3     8945     TIP3     OH2      OT      -0.834000       15.9994           0
     66230 TIP3     8945     TIP3     H1       HT       0.417000       1.00800           0
     66231 TIP3     8945     TIP3     H2       HT       0.417000       1.00800           0
     66232 TIP3     8946     TIP3     OH2      OT      -0.834000       15.9994           0
     66233 TIP3     8946     TIP3     H1       HT       0.417000       1.00800           0
     66234 TIP3     8946     TIP3     H2       HT       0.417000       1.00800           0
     66235 TIP3     8947     TIP3     OH2      OT      -0.834000       15.9994           0
     66236 TIP3     8947     TIP3     H1       HT       0.417000       1.00800           0
     66237 TIP3     8947     TIP3     H2       HT       0.417000       1.00800           0
     66238 TIP3     8948     TIP3     OH2      OT      -0.834000       15.9994           0
     66239 TIP3     8948     TIP3     H1       HT       0.417000       1.00800           0
     66240 TIP3     8948     TIP3     H2       HT       0.417000       1.00800           0
     66241 TIP3     8949     TIP3     OH2      OT      -0.834000       15.9994           0
     66242 TIP3     8949     TIP3     H1       HT       0.417000       1.00800           0
     66243 TIP3     8949     TIP3     H2       HT       0.417000       1.00800           0
     66244 TIP3     8950     TIP3     OH2      OT      -0.834000       15.9994           0
     66245 TIP3     8950     TIP3     H1       HT       0.417000       1.00800           0
     66246 TIP3     8950     TIP3     H2       HT       0.417000       1.00800           0
     66247 TIP3     8951     TIP3     OH2      OT      -0.834000       15.9994           0
     66248 TIP3     8951     TIP3     H1       HT       0.417000       1.00800           0
     66249 TIP3     8951     TIP3     H2       HT       0.417000       1.00800           0
     66250 TIP3     8952     TIP3     OH2      OT      -0.834000       15.9994           0
     66251 TIP3     8952     TIP3     H1       HT       0.417000       1.00800           0
     66252 TIP3     8952     TIP3     H2       HT       0.417000       1.00800           0
     66253 TIP3     8953     TIP3     OH2      OT      -0.834000       15.9994           0
     66254 TIP3     8953     TIP3     H1       HT       0.417000       1.00800           0
     66255 TIP3     8953     TIP3     H2       HT       0.417000       1.00800           0
     66256 TIP3     8954     TIP3     OH2      OT      -0.834000       15.9994           0
     66257 TIP3     8954     TIP3     H1       HT       0.417000       1.00800           0
     66258 TIP3     8954     TIP3     H2       HT       0.417000       1.00800           0
     66259 TIP3     8955     TIP3     OH2      OT      -0.834000       15.9994           0
     66260 TIP3     8955     TIP3     H1       HT       0.417000       1.00800           0
     66261 TIP3     8955     TIP3     H2       HT       0.417000       1.00800           0
     66262 TIP3     8956     TIP3     OH2      OT      -0.834000       15.9994           0
     66263 TIP3     8956     TIP3     H1       HT       0.417000       1.00800           0
     66264 TIP3     8956     TIP3     H2       HT       0.417000       1.00800           0
     66265 TIP3     8957     TIP3     OH2      OT      -0.834000       15.9994           0
     66266 TIP3     8957     TIP3     H1       HT       0.417000       1.00800           0
     66267 TIP3     8957     TIP3     H2       HT       0.417000       1.00800           0
     66268 TIP3     8958     TIP3     OH2      OT      -0.834000       15.9994           0
     66269 TIP3     8958     TIP3     H1       HT       0.417000       1.00800           0
     66270 TIP3     8958     TIP3     H2       HT       0.417000       1.00800           0
     66271 TIP3     8959     TIP3     OH2      OT      -0.834000       15.9994           0
     66272 TIP3     8959     TIP3     H1       HT       0.417000       1.00800           0
     66273 TIP3     8959     TIP3     H2       HT       0.417000       1.00800           0
     66274 TIP3     8960     TIP3     OH2      OT      -0.834000       15.9994           0
     66275 TIP3     8960     TIP3     H1       HT       0.417000       1.00800           0
     66276 TIP3     8960     TIP3     H2       HT       0.417000       1.00800           0
     66277 TIP3     8961     TIP3     OH2      OT      -0.834000       15.9994           0
     66278 TIP3     8961     TIP3     H1       HT       0.417000       1.00800           0
     66279 TIP3     8961     TIP3     H2       HT       0.417000       1.00800           0
     66280 TIP3     8962     TIP3     OH2      OT      -0.834000       15.9994           0
     66281 TIP3     8962     TIP3     H1       HT       0.417000       1.00800           0
     66282 TIP3     8962     TIP3     H2       HT       0.417000       1.00800           0
     66283 TIP3     8963     TIP3     OH2      OT      -0.834000       15.9994           0
     66284 TIP3     8963     TIP3     H1       HT       0.417000       1.00800           0
     66285 TIP3     8963     TIP3     H2       HT       0.417000       1.00800           0
     66286 TIP3     8964     TIP3     OH2      OT      -0.834000       15.9994           0
     66287 TIP3     8964     TIP3     H1       HT       0.417000       1.00800           0
     66288 TIP3     8964     TIP3     H2       HT       0.417000       1.00800           0
     66289 TIP3     8965     TIP3     OH2      OT      -0.834000       15.9994           0
     66290 TIP3     8965     TIP3     H1       HT       0.417000       1.00800           0
     66291 TIP3     8965     TIP3     H2       HT       0.417000       1.00800           0
     66292 TIP3     8966     TIP3     OH2      OT      -0.834000       15.9994           0
     66293 TIP3     8966     TIP3     H1       HT       0.417000       1.00800           0
     66294 TIP3     8966     TIP3     H2       HT       0.417000       1.00800           0
     66295 TIP3     8967     TIP3     OH2      OT      -0.834000       15.9994           0
     66296 TIP3     8967     TIP3     H1       HT       0.417000       1.00800           0
     66297 TIP3     8967     TIP3     H2       HT       0.417000       1.00800           0
     66298 TIP3     8968     TIP3     OH2      OT      -0.834000       15.9994           0
     66299 TIP3     8968     TIP3     H1       HT       0.417000       1.00800           0
     66300 TIP3     8968     TIP3     H2       HT       0.417000       1.00800           0
     66301 TIP3     8969     TIP3     OH2      OT      -0.834000       15.9994           0
     66302 TIP3     8969     TIP3     H1       HT       0.417000       1.00800           0
     66303 TIP3     8969     TIP3     H2       HT       0.417000       1.00800           0
     66304 TIP3     8970     TIP3     OH2      OT      -0.834000       15.9994           0
     66305 TIP3     8970     TIP3     H1       HT       0.417000       1.00800           0
     66306 TIP3     8970     TIP3     H2       HT       0.417000       1.00800           0
     66307 TIP3     8971     TIP3     OH2      OT      -0.834000       15.9994           0
     66308 TIP3     8971     TIP3     H1       HT       0.417000       1.00800           0
     66309 TIP3     8971     TIP3     H2       HT       0.417000       1.00800           0
     66310 TIP3     8972     TIP3     OH2      OT      -0.834000       15.9994           0
     66311 TIP3     8972     TIP3     H1       HT       0.417000       1.00800           0
     66312 TIP3     8972     TIP3     H2       HT       0.417000       1.00800           0
     66313 TIP3     8973     TIP3     OH2      OT      -0.834000       15.9994           0
     66314 TIP3     8973     TIP3     H1       HT       0.417000       1.00800           0
     66315 TIP3     8973     TIP3     H2       HT       0.417000       1.00800           0
     66316 TIP3     8974     TIP3     OH2      OT      -0.834000       15.9994           0
     66317 TIP3     8974     TIP3     H1       HT       0.417000       1.00800           0
     66318 TIP3     8974     TIP3     H2       HT       0.417000       1.00800           0
     66319 TIP3     8975     TIP3     OH2      OT      -0.834000       15.9994           0
     66320 TIP3     8975     TIP3     H1       HT       0.417000       1.00800           0
     66321 TIP3     8975     TIP3     H2       HT       0.417000       1.00800           0
     66322 TIP3     8976     TIP3     OH2      OT      -0.834000       15.9994           0
     66323 TIP3     8976     TIP3     H1       HT       0.417000       1.00800           0
     66324 TIP3     8976     TIP3     H2       HT       0.417000       1.00800           0
     66325 TIP3     8977     TIP3     OH2      OT      -0.834000       15.9994           0
     66326 TIP3     8977     TIP3     H1       HT       0.417000       1.00800           0
     66327 TIP3     8977     TIP3     H2       HT       0.417000       1.00800           0
     66328 TIP3     8978     TIP3     OH2      OT      -0.834000       15.9994           0
     66329 TIP3     8978     TIP3     H1       HT       0.417000       1.00800           0
     66330 TIP3     8978     TIP3     H2       HT       0.417000       1.00800           0
     66331 TIP3     8979     TIP3     OH2      OT      -0.834000       15.9994           0
     66332 TIP3     8979     TIP3     H1       HT       0.417000       1.00800           0
     66333 TIP3     8979     TIP3     H2       HT       0.417000       1.00800           0
     66334 TIP3     8980     TIP3     OH2      OT      -0.834000       15.9994           0
     66335 TIP3     8980     TIP3     H1       HT       0.417000       1.00800           0
     66336 TIP3     8980     TIP3     H2       HT       0.417000       1.00800           0
     66337 TIP3     8981     TIP3     OH2      OT      -0.834000       15.9994           0
     66338 TIP3     8981     TIP3     H1       HT       0.417000       1.00800           0
     66339 TIP3     8981     TIP3     H2       HT       0.417000       1.00800           0
     66340 TIP3     8982     TIP3     OH2      OT      -0.834000       15.9994           0
     66341 TIP3     8982     TIP3     H1       HT       0.417000       1.00800           0
     66342 TIP3     8982     TIP3     H2       HT       0.417000       1.00800           0
     66343 TIP3     8983     TIP3     OH2      OT      -0.834000       15.9994           0
     66344 TIP3     8983     TIP3     H1       HT       0.417000       1.00800           0
     66345 TIP3     8983     TIP3     H2       HT       0.417000       1.00800           0
     66346 TIP3     8984     TIP3     OH2      OT      -0.834000       15.9994           0
     66347 TIP3     8984     TIP3     H1       HT       0.417000       1.00800           0
     66348 TIP3     8984     TIP3     H2       HT       0.417000       1.00800           0
     66349 TIP3     8985     TIP3     OH2      OT      -0.834000       15.9994           0
     66350 TIP3     8985     TIP3     H1       HT       0.417000       1.00800           0
     66351 TIP3     8985     TIP3     H2       HT       0.417000       1.00800           0
     66352 TIP3     8986     TIP3     OH2      OT      -0.834000       15.9994           0
     66353 TIP3     8986     TIP3     H1       HT       0.417000       1.00800           0
     66354 TIP3     8986     TIP3     H2       HT       0.417000       1.00800           0
     66355 TIP3     8987     TIP3     OH2      OT      -0.834000       15.9994           0
     66356 TIP3     8987     TIP3     H1       HT       0.417000       1.00800           0
     66357 TIP3     8987     TIP3     H2       HT       0.417000       1.00800           0
     66358 TIP3     8988     TIP3     OH2      OT      -0.834000       15.9994           0
     66359 TIP3     8988     TIP3     H1       HT       0.417000       1.00800           0
     66360 TIP3     8988     TIP3     H2       HT       0.417000       1.00800           0
     66361 TIP3     8989     TIP3     OH2      OT      -0.834000       15.9994           0
     66362 TIP3     8989     TIP3     H1       HT       0.417000       1.00800           0
     66363 TIP3     8989     TIP3     H2       HT       0.417000       1.00800           0
     66364 TIP3     8990     TIP3     OH2      OT      -0.834000       15.9994           0
     66365 TIP3     8990     TIP3     H1       HT       0.417000       1.00800           0
     66366 TIP3     8990     TIP3     H2       HT       0.417000       1.00800           0
     66367 TIP3     8991     TIP3     OH2      OT      -0.834000       15.9994           0
     66368 TIP3     8991     TIP3     H1       HT       0.417000       1.00800           0
     66369 TIP3     8991     TIP3     H2       HT       0.417000       1.00800           0
     66370 TIP3     8992     TIP3     OH2      OT      -0.834000       15.9994           0
     66371 TIP3     8992     TIP3     H1       HT       0.417000       1.00800           0
     66372 TIP3     8992     TIP3     H2       HT       0.417000       1.00800           0
     66373 TIP3     8993     TIP3     OH2      OT      -0.834000       15.9994           0
     66374 TIP3     8993     TIP3     H1       HT       0.417000       1.00800           0
     66375 TIP3     8993     TIP3     H2       HT       0.417000       1.00800           0
     66376 TIP3     8994     TIP3     OH2      OT      -0.834000       15.9994           0
     66377 TIP3     8994     TIP3     H1       HT       0.417000       1.00800           0
     66378 TIP3     8994     TIP3     H2       HT       0.417000       1.00800           0
     66379 TIP3     8995     TIP3     OH2      OT      -0.834000       15.9994           0
     66380 TIP3     8995     TIP3     H1       HT       0.417000       1.00800           0
     66381 TIP3     8995     TIP3     H2       HT       0.417000       1.00800           0
     66382 TIP3     8996     TIP3     OH2      OT      -0.834000       15.9994           0
     66383 TIP3     8996     TIP3     H1       HT       0.417000       1.00800           0
     66384 TIP3     8996     TIP3     H2       HT       0.417000       1.00800           0
     66385 TIP3     8997     TIP3     OH2      OT      -0.834000       15.9994           0
     66386 TIP3     8997     TIP3     H1       HT       0.417000       1.00800           0
     66387 TIP3     8997     TIP3     H2       HT       0.417000       1.00800           0
     66388 TIP3     8998     TIP3     OH2      OT      -0.834000       15.9994           0
     66389 TIP3     8998     TIP3     H1       HT       0.417000       1.00800           0
     66390 TIP3     8998     TIP3     H2       HT       0.417000       1.00800           0
     66391 TIP3     8999     TIP3     OH2      OT      -0.834000       15.9994           0
     66392 TIP3     8999     TIP3     H1       HT       0.417000       1.00800           0
     66393 TIP3     8999     TIP3     H2       HT       0.417000       1.00800           0
     66394 TIP3     9000     TIP3     OH2      OT      -0.834000       15.9994           0
     66395 TIP3     9000     TIP3     H1       HT       0.417000       1.00800           0
     66396 TIP3     9000     TIP3     H2       HT       0.417000       1.00800           0
     66397 TIP3     9001     TIP3     OH2      OT      -0.834000       15.9994           0
     66398 TIP3     9001     TIP3     H1       HT       0.417000       1.00800           0
     66399 TIP3     9001     TIP3     H2       HT       0.417000       1.00800           0
     66400 TIP3     9002     TIP3     OH2      OT      -0.834000       15.9994           0
     66401 TIP3     9002     TIP3     H1       HT       0.417000       1.00800           0
     66402 TIP3     9002     TIP3     H2       HT       0.417000       1.00800           0
     66403 TIP3     9003     TIP3     OH2      OT      -0.834000       15.9994           0
     66404 TIP3     9003     TIP3     H1       HT       0.417000       1.00800           0
     66405 TIP3     9003     TIP3     H2       HT       0.417000       1.00800           0
     66406 TIP3     9004     TIP3     OH2      OT      -0.834000       15.9994           0
     66407 TIP3     9004     TIP3     H1       HT       0.417000       1.00800           0
     66408 TIP3     9004     TIP3     H2       HT       0.417000       1.00800           0
     66409 TIP3     9005     TIP3     OH2      OT      -0.834000       15.9994           0
     66410 TIP3     9005     TIP3     H1       HT       0.417000       1.00800           0
     66411 TIP3     9005     TIP3     H2       HT       0.417000       1.00800           0
     66412 TIP3     9006     TIP3     OH2      OT      -0.834000       15.9994           0
     66413 TIP3     9006     TIP3     H1       HT       0.417000       1.00800           0
     66414 TIP3     9006     TIP3     H2       HT       0.417000       1.00800           0
     66415 TIP3     9007     TIP3     OH2      OT      -0.834000       15.9994           0
     66416 TIP3     9007     TIP3     H1       HT       0.417000       1.00800           0
     66417 TIP3     9007     TIP3     H2       HT       0.417000       1.00800           0
     66418 TIP3     9008     TIP3     OH2      OT      -0.834000       15.9994           0
     66419 TIP3     9008     TIP3     H1       HT       0.417000       1.00800           0
     66420 TIP3     9008     TIP3     H2       HT       0.417000       1.00800           0
     66421 TIP3     9009     TIP3     OH2      OT      -0.834000       15.9994           0
     66422 TIP3     9009     TIP3     H1       HT       0.417000       1.00800           0
     66423 TIP3     9009     TIP3     H2       HT       0.417000       1.00800           0
     66424 TIP3     9010     TIP3     OH2      OT      -0.834000       15.9994           0
     66425 TIP3     9010     TIP3     H1       HT       0.417000       1.00800           0
     66426 TIP3     9010     TIP3     H2       HT       0.417000       1.00800           0
     66427 TIP3     9011     TIP3     OH2      OT      -0.834000       15.9994           0
     66428 TIP3     9011     TIP3     H1       HT       0.417000       1.00800           0
     66429 TIP3     9011     TIP3     H2       HT       0.417000       1.00800           0
     66430 TIP3     9012     TIP3     OH2      OT      -0.834000       15.9994           0
     66431 TIP3     9012     TIP3     H1       HT       0.417000       1.00800           0
     66432 TIP3     9012     TIP3     H2       HT       0.417000       1.00800           0
     66433 TIP3     9013     TIP3     OH2      OT      -0.834000       15.9994           0
     66434 TIP3     9013     TIP3     H1       HT       0.417000       1.00800           0
     66435 TIP3     9013     TIP3     H2       HT       0.417000       1.00800           0
     66436 TIP3     9014     TIP3     OH2      OT      -0.834000       15.9994           0
     66437 TIP3     9014     TIP3     H1       HT       0.417000       1.00800           0
     66438 TIP3     9014     TIP3     H2       HT       0.417000       1.00800           0
     66439 TIP3     9015     TIP3     OH2      OT      -0.834000       15.9994           0
     66440 TIP3     9015     TIP3     H1       HT       0.417000       1.00800           0
     66441 TIP3     9015     TIP3     H2       HT       0.417000       1.00800           0
     66442 TIP3     9016     TIP3     OH2      OT      -0.834000       15.9994           0
     66443 TIP3     9016     TIP3     H1       HT       0.417000       1.00800           0
     66444 TIP3     9016     TIP3     H2       HT       0.417000       1.00800           0
     66445 TIP3     9017     TIP3     OH2      OT      -0.834000       15.9994           0
     66446 TIP3     9017     TIP3     H1       HT       0.417000       1.00800           0
     66447 TIP3     9017     TIP3     H2       HT       0.417000       1.00800           0
     66448 TIP3     9018     TIP3     OH2      OT      -0.834000       15.9994           0
     66449 TIP3     9018     TIP3     H1       HT       0.417000       1.00800           0
     66450 TIP3     9018     TIP3     H2       HT       0.417000       1.00800           0
     66451 TIP3     9019     TIP3     OH2      OT      -0.834000       15.9994           0
     66452 TIP3     9019     TIP3     H1       HT       0.417000       1.00800           0
     66453 TIP3     9019     TIP3     H2       HT       0.417000       1.00800           0
     66454 TIP3     9020     TIP3     OH2      OT      -0.834000       15.9994           0
     66455 TIP3     9020     TIP3     H1       HT       0.417000       1.00800           0
     66456 TIP3     9020     TIP3     H2       HT       0.417000       1.00800           0
     66457 TIP3     9021     TIP3     OH2      OT      -0.834000       15.9994           0
     66458 TIP3     9021     TIP3     H1       HT       0.417000       1.00800           0
     66459 TIP3     9021     TIP3     H2       HT       0.417000       1.00800           0
     66460 TIP3     9022     TIP3     OH2      OT      -0.834000       15.9994           0
     66461 TIP3     9022     TIP3     H1       HT       0.417000       1.00800           0
     66462 TIP3     9022     TIP3     H2       HT       0.417000       1.00800           0
     66463 TIP3     9023     TIP3     OH2      OT      -0.834000       15.9994           0
     66464 TIP3     9023     TIP3     H1       HT       0.417000       1.00800           0
     66465 TIP3     9023     TIP3     H2       HT       0.417000       1.00800           0
     66466 TIP3     9024     TIP3     OH2      OT      -0.834000       15.9994           0
     66467 TIP3     9024     TIP3     H1       HT       0.417000       1.00800           0
     66468 TIP3     9024     TIP3     H2       HT       0.417000       1.00800           0
     66469 TIP3     9025     TIP3     OH2      OT      -0.834000       15.9994           0
     66470 TIP3     9025     TIP3     H1       HT       0.417000       1.00800           0
     66471 TIP3     9025     TIP3     H2       HT       0.417000       1.00800           0
     66472 TIP3     9026     TIP3     OH2      OT      -0.834000       15.9994           0
     66473 TIP3     9026     TIP3     H1       HT       0.417000       1.00800           0
     66474 TIP3     9026     TIP3     H2       HT       0.417000       1.00800           0
     66475 TIP3     9027     TIP3     OH2      OT      -0.834000       15.9994           0
     66476 TIP3     9027     TIP3     H1       HT       0.417000       1.00800           0
     66477 TIP3     9027     TIP3     H2       HT       0.417000       1.00800           0
     66478 TIP3     9028     TIP3     OH2      OT      -0.834000       15.9994           0
     66479 TIP3     9028     TIP3     H1       HT       0.417000       1.00800           0
     66480 TIP3     9028     TIP3     H2       HT       0.417000       1.00800           0
     66481 TIP3     9029     TIP3     OH2      OT      -0.834000       15.9994           0
     66482 TIP3     9029     TIP3     H1       HT       0.417000       1.00800           0
     66483 TIP3     9029     TIP3     H2       HT       0.417000       1.00800           0
     66484 TIP3     9030     TIP3     OH2      OT      -0.834000       15.9994           0
     66485 TIP3     9030     TIP3     H1       HT       0.417000       1.00800           0
     66486 TIP3     9030     TIP3     H2       HT       0.417000       1.00800           0
     66487 TIP3     9031     TIP3     OH2      OT      -0.834000       15.9994           0
     66488 TIP3     9031     TIP3     H1       HT       0.417000       1.00800           0
     66489 TIP3     9031     TIP3     H2       HT       0.417000       1.00800           0
     66490 TIP3     9032     TIP3     OH2      OT      -0.834000       15.9994           0
     66491 TIP3     9032     TIP3     H1       HT       0.417000       1.00800           0
     66492 TIP3     9032     TIP3     H2       HT       0.417000       1.00800           0
     66493 TIP3     9033     TIP3     OH2      OT      -0.834000       15.9994           0
     66494 TIP3     9033     TIP3     H1       HT       0.417000       1.00800           0
     66495 TIP3     9033     TIP3     H2       HT       0.417000       1.00800           0
     66496 TIP3     9034     TIP3     OH2      OT      -0.834000       15.9994           0
     66497 TIP3     9034     TIP3     H1       HT       0.417000       1.00800           0
     66498 TIP3     9034     TIP3     H2       HT       0.417000       1.00800           0
     66499 TIP3     9035     TIP3     OH2      OT      -0.834000       15.9994           0
     66500 TIP3     9035     TIP3     H1       HT       0.417000       1.00800           0
     66501 TIP3     9035     TIP3     H2       HT       0.417000       1.00800           0
     66502 TIP3     9036     TIP3     OH2      OT      -0.834000       15.9994           0
     66503 TIP3     9036     TIP3     H1       HT       0.417000       1.00800           0
     66504 TIP3     9036     TIP3     H2       HT       0.417000       1.00800           0
     66505 TIP3     9037     TIP3     OH2      OT      -0.834000       15.9994           0
     66506 TIP3     9037     TIP3     H1       HT       0.417000       1.00800           0
     66507 TIP3     9037     TIP3     H2       HT       0.417000       1.00800           0
     66508 TIP3     9038     TIP3     OH2      OT      -0.834000       15.9994           0
     66509 TIP3     9038     TIP3     H1       HT       0.417000       1.00800           0
     66510 TIP3     9038     TIP3     H2       HT       0.417000       1.00800           0
     66511 TIP3     9039     TIP3     OH2      OT      -0.834000       15.9994           0
     66512 TIP3     9039     TIP3     H1       HT       0.417000       1.00800           0
     66513 TIP3     9039     TIP3     H2       HT       0.417000       1.00800           0
     66514 TIP3     9040     TIP3     OH2      OT      -0.834000       15.9994           0
     66515 TIP3     9040     TIP3     H1       HT       0.417000       1.00800           0
     66516 TIP3     9040     TIP3     H2       HT       0.417000       1.00800           0
     66517 TIP3     9041     TIP3     OH2      OT      -0.834000       15.9994           0
     66518 TIP3     9041     TIP3     H1       HT       0.417000       1.00800           0
     66519 TIP3     9041     TIP3     H2       HT       0.417000       1.00800           0
     66520 TIP3     9042     TIP3     OH2      OT      -0.834000       15.9994           0
     66521 TIP3     9042     TIP3     H1       HT       0.417000       1.00800           0
     66522 TIP3     9042     TIP3     H2       HT       0.417000       1.00800           0
     66523 TIP3     9043     TIP3     OH2      OT      -0.834000       15.9994           0
     66524 TIP3     9043     TIP3     H1       HT       0.417000       1.00800           0
     66525 TIP3     9043     TIP3     H2       HT       0.417000       1.00800           0
     66526 TIP3     9044     TIP3     OH2      OT      -0.834000       15.9994           0
     66527 TIP3     9044     TIP3     H1       HT       0.417000       1.00800           0
     66528 TIP3     9044     TIP3     H2       HT       0.417000       1.00800           0
     66529 TIP3     9045     TIP3     OH2      OT      -0.834000       15.9994           0
     66530 TIP3     9045     TIP3     H1       HT       0.417000       1.00800           0
     66531 TIP3     9045     TIP3     H2       HT       0.417000       1.00800           0
     66532 TIP3     9046     TIP3     OH2      OT      -0.834000       15.9994           0
     66533 TIP3     9046     TIP3     H1       HT       0.417000       1.00800           0
     66534 TIP3     9046     TIP3     H2       HT       0.417000       1.00800           0
     66535 TIP3     9047     TIP3     OH2      OT      -0.834000       15.9994           0
     66536 TIP3     9047     TIP3     H1       HT       0.417000       1.00800           0
     66537 TIP3     9047     TIP3     H2       HT       0.417000       1.00800           0
     66538 TIP3     9048     TIP3     OH2      OT      -0.834000       15.9994           0
     66539 TIP3     9048     TIP3     H1       HT       0.417000       1.00800           0
     66540 TIP3     9048     TIP3     H2       HT       0.417000       1.00800           0
     66541 TIP3     9049     TIP3     OH2      OT      -0.834000       15.9994           0
     66542 TIP3     9049     TIP3     H1       HT       0.417000       1.00800           0
     66543 TIP3     9049     TIP3     H2       HT       0.417000       1.00800           0
     66544 TIP3     9050     TIP3     OH2      OT      -0.834000       15.9994           0
     66545 TIP3     9050     TIP3     H1       HT       0.417000       1.00800           0
     66546 TIP3     9050     TIP3     H2       HT       0.417000       1.00800           0
     66547 TIP3     9051     TIP3     OH2      OT      -0.834000       15.9994           0
     66548 TIP3     9051     TIP3     H1       HT       0.417000       1.00800           0
     66549 TIP3     9051     TIP3     H2       HT       0.417000       1.00800           0
     66550 TIP3     9052     TIP3     OH2      OT      -0.834000       15.9994           0
     66551 TIP3     9052     TIP3     H1       HT       0.417000       1.00800           0
     66552 TIP3     9052     TIP3     H2       HT       0.417000       1.00800           0
     66553 TIP3     9053     TIP3     OH2      OT      -0.834000       15.9994           0
     66554 TIP3     9053     TIP3     H1       HT       0.417000       1.00800           0
     66555 TIP3     9053     TIP3     H2       HT       0.417000       1.00800           0
     66556 TIP3     9054     TIP3     OH2      OT      -0.834000       15.9994           0
     66557 TIP3     9054     TIP3     H1       HT       0.417000       1.00800           0
     66558 TIP3     9054     TIP3     H2       HT       0.417000       1.00800           0
     66559 TIP3     9055     TIP3     OH2      OT      -0.834000       15.9994           0
     66560 TIP3     9055     TIP3     H1       HT       0.417000       1.00800           0
     66561 TIP3     9055     TIP3     H2       HT       0.417000       1.00800           0
     66562 TIP3     9056     TIP3     OH2      OT      -0.834000       15.9994           0
     66563 TIP3     9056     TIP3     H1       HT       0.417000       1.00800           0
     66564 TIP3     9056     TIP3     H2       HT       0.417000       1.00800           0
     66565 TIP3     9057     TIP3     OH2      OT      -0.834000       15.9994           0
     66566 TIP3     9057     TIP3     H1       HT       0.417000       1.00800           0
     66567 TIP3     9057     TIP3     H2       HT       0.417000       1.00800           0
     66568 TIP3     9058     TIP3     OH2      OT      -0.834000       15.9994           0
     66569 TIP3     9058     TIP3     H1       HT       0.417000       1.00800           0
     66570 TIP3     9058     TIP3     H2       HT       0.417000       1.00800           0
     66571 TIP3     9059     TIP3     OH2      OT      -0.834000       15.9994           0
     66572 TIP3     9059     TIP3     H1       HT       0.417000       1.00800           0
     66573 TIP3     9059     TIP3     H2       HT       0.417000       1.00800           0
     66574 TIP3     9060     TIP3     OH2      OT      -0.834000       15.9994           0
     66575 TIP3     9060     TIP3     H1       HT       0.417000       1.00800           0
     66576 TIP3     9060     TIP3     H2       HT       0.417000       1.00800           0
     66577 TIP3     9061     TIP3     OH2      OT      -0.834000       15.9994           0
     66578 TIP3     9061     TIP3     H1       HT       0.417000       1.00800           0
     66579 TIP3     9061     TIP3     H2       HT       0.417000       1.00800           0
     66580 TIP3     9062     TIP3     OH2      OT      -0.834000       15.9994           0
     66581 TIP3     9062     TIP3     H1       HT       0.417000       1.00800           0
     66582 TIP3     9062     TIP3     H2       HT       0.417000       1.00800           0
     66583 TIP3     9063     TIP3     OH2      OT      -0.834000       15.9994           0
     66584 TIP3     9063     TIP3     H1       HT       0.417000       1.00800           0
     66585 TIP3     9063     TIP3     H2       HT       0.417000       1.00800           0
     66586 TIP3     9064     TIP3     OH2      OT      -0.834000       15.9994           0
     66587 TIP3     9064     TIP3     H1       HT       0.417000       1.00800           0
     66588 TIP3     9064     TIP3     H2       HT       0.417000       1.00800           0
     66589 TIP3     9065     TIP3     OH2      OT      -0.834000       15.9994           0
     66590 TIP3     9065     TIP3     H1       HT       0.417000       1.00800           0
     66591 TIP3     9065     TIP3     H2       HT       0.417000       1.00800           0
     66592 TIP3     9066     TIP3     OH2      OT      -0.834000       15.9994           0
     66593 TIP3     9066     TIP3     H1       HT       0.417000       1.00800           0
     66594 TIP3     9066     TIP3     H2       HT       0.417000       1.00800           0
     66595 TIP3     9067     TIP3     OH2      OT      -0.834000       15.9994           0
     66596 TIP3     9067     TIP3     H1       HT       0.417000       1.00800           0
     66597 TIP3     9067     TIP3     H2       HT       0.417000       1.00800           0
     66598 TIP3     9068     TIP3     OH2      OT      -0.834000       15.9994           0
     66599 TIP3     9068     TIP3     H1       HT       0.417000       1.00800           0
     66600 TIP3     9068     TIP3     H2       HT       0.417000       1.00800           0
     66601 TIP3     9069     TIP3     OH2      OT      -0.834000       15.9994           0
     66602 TIP3     9069     TIP3     H1       HT       0.417000       1.00800           0
     66603 TIP3     9069     TIP3     H2       HT       0.417000       1.00800           0
     66604 TIP3     9070     TIP3     OH2      OT      -0.834000       15.9994           0
     66605 TIP3     9070     TIP3     H1       HT       0.417000       1.00800           0
     66606 TIP3     9070     TIP3     H2       HT       0.417000       1.00800           0
     66607 TIP3     9071     TIP3     OH2      OT      -0.834000       15.9994           0
     66608 TIP3     9071     TIP3     H1       HT       0.417000       1.00800           0
     66609 TIP3     9071     TIP3     H2       HT       0.417000       1.00800           0
     66610 TIP3     9072     TIP3     OH2      OT      -0.834000       15.9994           0
     66611 TIP3     9072     TIP3     H1       HT       0.417000       1.00800           0
     66612 TIP3     9072     TIP3     H2       HT       0.417000       1.00800           0
     66613 TIP3     9073     TIP3     OH2      OT      -0.834000       15.9994           0
     66614 TIP3     9073     TIP3     H1       HT       0.417000       1.00800           0
     66615 TIP3     9073     TIP3     H2       HT       0.417000       1.00800           0
     66616 TIP3     9074     TIP3     OH2      OT      -0.834000       15.9994           0
     66617 TIP3     9074     TIP3     H1       HT       0.417000       1.00800           0
     66618 TIP3     9074     TIP3     H2       HT       0.417000       1.00800           0
     66619 TIP3     9075     TIP3     OH2      OT      -0.834000       15.9994           0
     66620 TIP3     9075     TIP3     H1       HT       0.417000       1.00800           0
     66621 TIP3     9075     TIP3     H2       HT       0.417000       1.00800           0
     66622 TIP3     9076     TIP3     OH2      OT      -0.834000       15.9994           0
     66623 TIP3     9076     TIP3     H1       HT       0.417000       1.00800           0
     66624 TIP3     9076     TIP3     H2       HT       0.417000       1.00800           0
     66625 TIP3     9077     TIP3     OH2      OT      -0.834000       15.9994           0
     66626 TIP3     9077     TIP3     H1       HT       0.417000       1.00800           0
     66627 TIP3     9077     TIP3     H2       HT       0.417000       1.00800           0
     66628 TIP3     9078     TIP3     OH2      OT      -0.834000       15.9994           0
     66629 TIP3     9078     TIP3     H1       HT       0.417000       1.00800           0
     66630 TIP3     9078     TIP3     H2       HT       0.417000       1.00800           0
     66631 TIP3     9079     TIP3     OH2      OT      -0.834000       15.9994           0
     66632 TIP3     9079     TIP3     H1       HT       0.417000       1.00800           0
     66633 TIP3     9079     TIP3     H2       HT       0.417000       1.00800           0
     66634 TIP3     9080     TIP3     OH2      OT      -0.834000       15.9994           0
     66635 TIP3     9080     TIP3     H1       HT       0.417000       1.00800           0
     66636 TIP3     9080     TIP3     H2       HT       0.417000       1.00800           0
     66637 TIP3     9081     TIP3     OH2      OT      -0.834000       15.9994           0
     66638 TIP3     9081     TIP3     H1       HT       0.417000       1.00800           0
     66639 TIP3     9081     TIP3     H2       HT       0.417000       1.00800           0
     66640 TIP3     9082     TIP3     OH2      OT      -0.834000       15.9994           0
     66641 TIP3     9082     TIP3     H1       HT       0.417000       1.00800           0
     66642 TIP3     9082     TIP3     H2       HT       0.417000       1.00800           0
     66643 TIP3     9083     TIP3     OH2      OT      -0.834000       15.9994           0
     66644 TIP3     9083     TIP3     H1       HT       0.417000       1.00800           0
     66645 TIP3     9083     TIP3     H2       HT       0.417000       1.00800           0
     66646 TIP3     9084     TIP3     OH2      OT      -0.834000       15.9994           0
     66647 TIP3     9084     TIP3     H1       HT       0.417000       1.00800           0
     66648 TIP3     9084     TIP3     H2       HT       0.417000       1.00800           0
     66649 TIP3     9085     TIP3     OH2      OT      -0.834000       15.9994           0
     66650 TIP3     9085     TIP3     H1       HT       0.417000       1.00800           0
     66651 TIP3     9085     TIP3     H2       HT       0.417000       1.00800           0
     66652 TIP3     9086     TIP3     OH2      OT      -0.834000       15.9994           0
     66653 TIP3     9086     TIP3     H1       HT       0.417000       1.00800           0
     66654 TIP3     9086     TIP3     H2       HT       0.417000       1.00800           0
     66655 TIP3     9087     TIP3     OH2      OT      -0.834000       15.9994           0
     66656 TIP3     9087     TIP3     H1       HT       0.417000       1.00800           0
     66657 TIP3     9087     TIP3     H2       HT       0.417000       1.00800           0
     66658 TIP3     9088     TIP3     OH2      OT      -0.834000       15.9994           0
     66659 TIP3     9088     TIP3     H1       HT       0.417000       1.00800           0
     66660 TIP3     9088     TIP3     H2       HT       0.417000       1.00800           0
     66661 TIP3     9089     TIP3     OH2      OT      -0.834000       15.9994           0
     66662 TIP3     9089     TIP3     H1       HT       0.417000       1.00800           0
     66663 TIP3     9089     TIP3     H2       HT       0.417000       1.00800           0
     66664 TIP3     9090     TIP3     OH2      OT      -0.834000       15.9994           0
     66665 TIP3     9090     TIP3     H1       HT       0.417000       1.00800           0
     66666 TIP3     9090     TIP3     H2       HT       0.417000       1.00800           0
     66667 TIP3     9091     TIP3     OH2      OT      -0.834000       15.9994           0
     66668 TIP3     9091     TIP3     H1       HT       0.417000       1.00800           0
     66669 TIP3     9091     TIP3     H2       HT       0.417000       1.00800           0
     66670 TIP3     9092     TIP3     OH2      OT      -0.834000       15.9994           0
     66671 TIP3     9092     TIP3     H1       HT       0.417000       1.00800           0
     66672 TIP3     9092     TIP3     H2       HT       0.417000       1.00800           0
     66673 TIP3     9093     TIP3     OH2      OT      -0.834000       15.9994           0
     66674 TIP3     9093     TIP3     H1       HT       0.417000       1.00800           0
     66675 TIP3     9093     TIP3     H2       HT       0.417000       1.00800           0
     66676 TIP3     9094     TIP3     OH2      OT      -0.834000       15.9994           0
     66677 TIP3     9094     TIP3     H1       HT       0.417000       1.00800           0
     66678 TIP3     9094     TIP3     H2       HT       0.417000       1.00800           0
     66679 TIP3     9095     TIP3     OH2      OT      -0.834000       15.9994           0
     66680 TIP3     9095     TIP3     H1       HT       0.417000       1.00800           0
     66681 TIP3     9095     TIP3     H2       HT       0.417000       1.00800           0
     66682 TIP3     9096     TIP3     OH2      OT      -0.834000       15.9994           0
     66683 TIP3     9096     TIP3     H1       HT       0.417000       1.00800           0
     66684 TIP3     9096     TIP3     H2       HT       0.417000       1.00800           0
     66685 TIP3     9097     TIP3     OH2      OT      -0.834000       15.9994           0
     66686 TIP3     9097     TIP3     H1       HT       0.417000       1.00800           0
     66687 TIP3     9097     TIP3     H2       HT       0.417000       1.00800           0
     66688 TIP3     9098     TIP3     OH2      OT      -0.834000       15.9994           0
     66689 TIP3     9098     TIP3     H1       HT       0.417000       1.00800           0
     66690 TIP3     9098     TIP3     H2       HT       0.417000       1.00800           0
     66691 TIP3     9099     TIP3     OH2      OT      -0.834000       15.9994           0
     66692 TIP3     9099     TIP3     H1       HT       0.417000       1.00800           0
     66693 TIP3     9099     TIP3     H2       HT       0.417000       1.00800           0
     66694 TIP3     9100     TIP3     OH2      OT      -0.834000       15.9994           0
     66695 TIP3     9100     TIP3     H1       HT       0.417000       1.00800           0
     66696 TIP3     9100     TIP3     H2       HT       0.417000       1.00800           0
     66697 TIP3     9101     TIP3     OH2      OT      -0.834000       15.9994           0
     66698 TIP3     9101     TIP3     H1       HT       0.417000       1.00800           0
     66699 TIP3     9101     TIP3     H2       HT       0.417000       1.00800           0
     66700 TIP3     9102     TIP3     OH2      OT      -0.834000       15.9994           0
     66701 TIP3     9102     TIP3     H1       HT       0.417000       1.00800           0
     66702 TIP3     9102     TIP3     H2       HT       0.417000       1.00800           0
     66703 TIP3     9103     TIP3     OH2      OT      -0.834000       15.9994           0
     66704 TIP3     9103     TIP3     H1       HT       0.417000       1.00800           0
     66705 TIP3     9103     TIP3     H2       HT       0.417000       1.00800           0
     66706 TIP3     9104     TIP3     OH2      OT      -0.834000       15.9994           0
     66707 TIP3     9104     TIP3     H1       HT       0.417000       1.00800           0
     66708 TIP3     9104     TIP3     H2       HT       0.417000       1.00800           0
     66709 TIP3     9105     TIP3     OH2      OT      -0.834000       15.9994           0
     66710 TIP3     9105     TIP3     H1       HT       0.417000       1.00800           0
     66711 TIP3     9105     TIP3     H2       HT       0.417000       1.00800           0
     66712 TIP3     9106     TIP3     OH2      OT      -0.834000       15.9994           0
     66713 TIP3     9106     TIP3     H1       HT       0.417000       1.00800           0
     66714 TIP3     9106     TIP3     H2       HT       0.417000       1.00800           0
     66715 TIP3     9107     TIP3     OH2      OT      -0.834000       15.9994           0
     66716 TIP3     9107     TIP3     H1       HT       0.417000       1.00800           0
     66717 TIP3     9107     TIP3     H2       HT       0.417000       1.00800           0
     66718 TIP3     9108     TIP3     OH2      OT      -0.834000       15.9994           0
     66719 TIP3     9108     TIP3     H1       HT       0.417000       1.00800           0
     66720 TIP3     9108     TIP3     H2       HT       0.417000       1.00800           0
     66721 TIP3     9109     TIP3     OH2      OT      -0.834000       15.9994           0
     66722 TIP3     9109     TIP3     H1       HT       0.417000       1.00800           0
     66723 TIP3     9109     TIP3     H2       HT       0.417000       1.00800           0
     66724 TIP3     9110     TIP3     OH2      OT      -0.834000       15.9994           0
     66725 TIP3     9110     TIP3     H1       HT       0.417000       1.00800           0
     66726 TIP3     9110     TIP3     H2       HT       0.417000       1.00800           0
     66727 TIP3     9111     TIP3     OH2      OT      -0.834000       15.9994           0
     66728 TIP3     9111     TIP3     H1       HT       0.417000       1.00800           0
     66729 TIP3     9111     TIP3     H2       HT       0.417000       1.00800           0
     66730 TIP3     9112     TIP3     OH2      OT      -0.834000       15.9994           0
     66731 TIP3     9112     TIP3     H1       HT       0.417000       1.00800           0
     66732 TIP3     9112     TIP3     H2       HT       0.417000       1.00800           0
     66733 TIP3     9113     TIP3     OH2      OT      -0.834000       15.9994           0
     66734 TIP3     9113     TIP3     H1       HT       0.417000       1.00800           0
     66735 TIP3     9113     TIP3     H2       HT       0.417000       1.00800           0
     66736 TIP3     9114     TIP3     OH2      OT      -0.834000       15.9994           0
     66737 TIP3     9114     TIP3     H1       HT       0.417000       1.00800           0
     66738 TIP3     9114     TIP3     H2       HT       0.417000       1.00800           0
     66739 TIP3     9115     TIP3     OH2      OT      -0.834000       15.9994           0
     66740 TIP3     9115     TIP3     H1       HT       0.417000       1.00800           0
     66741 TIP3     9115     TIP3     H2       HT       0.417000       1.00800           0
     66742 TIP3     9116     TIP3     OH2      OT      -0.834000       15.9994           0
     66743 TIP3     9116     TIP3     H1       HT       0.417000       1.00800           0
     66744 TIP3     9116     TIP3     H2       HT       0.417000       1.00800           0
     66745 TIP3     9117     TIP3     OH2      OT      -0.834000       15.9994           0
     66746 TIP3     9117     TIP3     H1       HT       0.417000       1.00800           0
     66747 TIP3     9117     TIP3     H2       HT       0.417000       1.00800           0
     66748 TIP3     9118     TIP3     OH2      OT      -0.834000       15.9994           0
     66749 TIP3     9118     TIP3     H1       HT       0.417000       1.00800           0
     66750 TIP3     9118     TIP3     H2       HT       0.417000       1.00800           0
     66751 TIP3     9119     TIP3     OH2      OT      -0.834000       15.9994           0
     66752 TIP3     9119     TIP3     H1       HT       0.417000       1.00800           0
     66753 TIP3     9119     TIP3     H2       HT       0.417000       1.00800           0
     66754 TIP3     9120     TIP3     OH2      OT      -0.834000       15.9994           0
     66755 TIP3     9120     TIP3     H1       HT       0.417000       1.00800           0
     66756 TIP3     9120     TIP3     H2       HT       0.417000       1.00800           0
     66757 TIP3     9121     TIP3     OH2      OT      -0.834000       15.9994           0
     66758 TIP3     9121     TIP3     H1       HT       0.417000       1.00800           0
     66759 TIP3     9121     TIP3     H2       HT       0.417000       1.00800           0
     66760 TIP3     9122     TIP3     OH2      OT      -0.834000       15.9994           0
     66761 TIP3     9122     TIP3     H1       HT       0.417000       1.00800           0
     66762 TIP3     9122     TIP3     H2       HT       0.417000       1.00800           0
     66763 TIP3     9123     TIP3     OH2      OT      -0.834000       15.9994           0
     66764 TIP3     9123     TIP3     H1       HT       0.417000       1.00800           0
     66765 TIP3     9123     TIP3     H2       HT       0.417000       1.00800           0
     66766 TIP3     9124     TIP3     OH2      OT      -0.834000       15.9994           0
     66767 TIP3     9124     TIP3     H1       HT       0.417000       1.00800           0
     66768 TIP3     9124     TIP3     H2       HT       0.417000       1.00800           0
     66769 TIP3     9125     TIP3     OH2      OT      -0.834000       15.9994           0
     66770 TIP3     9125     TIP3     H1       HT       0.417000       1.00800           0
     66771 TIP3     9125     TIP3     H2       HT       0.417000       1.00800           0
     66772 TIP3     9126     TIP3     OH2      OT      -0.834000       15.9994           0
     66773 TIP3     9126     TIP3     H1       HT       0.417000       1.00800           0
     66774 TIP3     9126     TIP3     H2       HT       0.417000       1.00800           0
     66775 TIP3     9127     TIP3     OH2      OT      -0.834000       15.9994           0
     66776 TIP3     9127     TIP3     H1       HT       0.417000       1.00800           0
     66777 TIP3     9127     TIP3     H2       HT       0.417000       1.00800           0
     66778 TIP3     9128     TIP3     OH2      OT      -0.834000       15.9994           0
     66779 TIP3     9128     TIP3     H1       HT       0.417000       1.00800           0
     66780 TIP3     9128     TIP3     H2       HT       0.417000       1.00800           0
     66781 TIP3     9129     TIP3     OH2      OT      -0.834000       15.9994           0
     66782 TIP3     9129     TIP3     H1       HT       0.417000       1.00800           0
     66783 TIP3     9129     TIP3     H2       HT       0.417000       1.00800           0
     66784 TIP3     9130     TIP3     OH2      OT      -0.834000       15.9994           0
     66785 TIP3     9130     TIP3     H1       HT       0.417000       1.00800           0
     66786 TIP3     9130     TIP3     H2       HT       0.417000       1.00800           0
     66787 TIP3     9131     TIP3     OH2      OT      -0.834000       15.9994           0
     66788 TIP3     9131     TIP3     H1       HT       0.417000       1.00800           0
     66789 TIP3     9131     TIP3     H2       HT       0.417000       1.00800           0
     66790 TIP3     9132     TIP3     OH2      OT      -0.834000       15.9994           0
     66791 TIP3     9132     TIP3     H1       HT       0.417000       1.00800           0
     66792 TIP3     9132     TIP3     H2       HT       0.417000       1.00800           0
     66793 TIP3     9133     TIP3     OH2      OT      -0.834000       15.9994           0
     66794 TIP3     9133     TIP3     H1       HT       0.417000       1.00800           0
     66795 TIP3     9133     TIP3     H2       HT       0.417000       1.00800           0
     66796 TIP3     9134     TIP3     OH2      OT      -0.834000       15.9994           0
     66797 TIP3     9134     TIP3     H1       HT       0.417000       1.00800           0
     66798 TIP3     9134     TIP3     H2       HT       0.417000       1.00800           0
     66799 TIP3     9135     TIP3     OH2      OT      -0.834000       15.9994           0
     66800 TIP3     9135     TIP3     H1       HT       0.417000       1.00800           0
     66801 TIP3     9135     TIP3     H2       HT       0.417000       1.00800           0
     66802 TIP3     9136     TIP3     OH2      OT      -0.834000       15.9994           0
     66803 TIP3     9136     TIP3     H1       HT       0.417000       1.00800           0
     66804 TIP3     9136     TIP3     H2       HT       0.417000       1.00800           0
     66805 TIP3     9137     TIP3     OH2      OT      -0.834000       15.9994           0
     66806 TIP3     9137     TIP3     H1       HT       0.417000       1.00800           0
     66807 TIP3     9137     TIP3     H2       HT       0.417000       1.00800           0
     66808 TIP3     9138     TIP3     OH2      OT      -0.834000       15.9994           0
     66809 TIP3     9138     TIP3     H1       HT       0.417000       1.00800           0
     66810 TIP3     9138     TIP3     H2       HT       0.417000       1.00800           0
     66811 TIP3     9139     TIP3     OH2      OT      -0.834000       15.9994           0
     66812 TIP3     9139     TIP3     H1       HT       0.417000       1.00800           0
     66813 TIP3     9139     TIP3     H2       HT       0.417000       1.00800           0
     66814 TIP3     9140     TIP3     OH2      OT      -0.834000       15.9994           0
     66815 TIP3     9140     TIP3     H1       HT       0.417000       1.00800           0
     66816 TIP3     9140     TIP3     H2       HT       0.417000       1.00800           0
     66817 TIP3     9141     TIP3     OH2      OT      -0.834000       15.9994           0
     66818 TIP3     9141     TIP3     H1       HT       0.417000       1.00800           0
     66819 TIP3     9141     TIP3     H2       HT       0.417000       1.00800           0
     66820 TIP3     9142     TIP3     OH2      OT      -0.834000       15.9994           0
     66821 TIP3     9142     TIP3     H1       HT       0.417000       1.00800           0
     66822 TIP3     9142     TIP3     H2       HT       0.417000       1.00800           0
     66823 TIP3     9143     TIP3     OH2      OT      -0.834000       15.9994           0
     66824 TIP3     9143     TIP3     H1       HT       0.417000       1.00800           0
     66825 TIP3     9143     TIP3     H2       HT       0.417000       1.00800           0
     66826 TIP3     9144     TIP3     OH2      OT      -0.834000       15.9994           0
     66827 TIP3     9144     TIP3     H1       HT       0.417000       1.00800           0
     66828 TIP3     9144     TIP3     H2       HT       0.417000       1.00800           0
     66829 TIP3     9145     TIP3     OH2      OT      -0.834000       15.9994           0
     66830 TIP3     9145     TIP3     H1       HT       0.417000       1.00800           0
     66831 TIP3     9145     TIP3     H2       HT       0.417000       1.00800           0
     66832 TIP3     9146     TIP3     OH2      OT      -0.834000       15.9994           0
     66833 TIP3     9146     TIP3     H1       HT       0.417000       1.00800           0
     66834 TIP3     9146     TIP3     H2       HT       0.417000       1.00800           0
     66835 TIP3     9147     TIP3     OH2      OT      -0.834000       15.9994           0
     66836 TIP3     9147     TIP3     H1       HT       0.417000       1.00800           0
     66837 TIP3     9147     TIP3     H2       HT       0.417000       1.00800           0
     66838 TIP3     9148     TIP3     OH2      OT      -0.834000       15.9994           0
     66839 TIP3     9148     TIP3     H1       HT       0.417000       1.00800           0
     66840 TIP3     9148     TIP3     H2       HT       0.417000       1.00800           0
     66841 TIP3     9149     TIP3     OH2      OT      -0.834000       15.9994           0
     66842 TIP3     9149     TIP3     H1       HT       0.417000       1.00800           0
     66843 TIP3     9149     TIP3     H2       HT       0.417000       1.00800           0
     66844 TIP3     9150     TIP3     OH2      OT      -0.834000       15.9994           0
     66845 TIP3     9150     TIP3     H1       HT       0.417000       1.00800           0
     66846 TIP3     9150     TIP3     H2       HT       0.417000       1.00800           0
     66847 TIP3     9151     TIP3     OH2      OT      -0.834000       15.9994           0
     66848 TIP3     9151     TIP3     H1       HT       0.417000       1.00800           0
     66849 TIP3     9151     TIP3     H2       HT       0.417000       1.00800           0
     66850 TIP3     9152     TIP3     OH2      OT      -0.834000       15.9994           0
     66851 TIP3     9152     TIP3     H1       HT       0.417000       1.00800           0
     66852 TIP3     9152     TIP3     H2       HT       0.417000       1.00800           0
     66853 TIP3     9153     TIP3     OH2      OT      -0.834000       15.9994           0
     66854 TIP3     9153     TIP3     H1       HT       0.417000       1.00800           0
     66855 TIP3     9153     TIP3     H2       HT       0.417000       1.00800           0
     66856 TIP3     9154     TIP3     OH2      OT      -0.834000       15.9994           0
     66857 TIP3     9154     TIP3     H1       HT       0.417000       1.00800           0
     66858 TIP3     9154     TIP3     H2       HT       0.417000       1.00800           0
     66859 TIP3     9155     TIP3     OH2      OT      -0.834000       15.9994           0
     66860 TIP3     9155     TIP3     H1       HT       0.417000       1.00800           0
     66861 TIP3     9155     TIP3     H2       HT       0.417000       1.00800           0
     66862 TIP3     9156     TIP3     OH2      OT      -0.834000       15.9994           0
     66863 TIP3     9156     TIP3     H1       HT       0.417000       1.00800           0
     66864 TIP3     9156     TIP3     H2       HT       0.417000       1.00800           0
     66865 TIP3     9157     TIP3     OH2      OT      -0.834000       15.9994           0
     66866 TIP3     9157     TIP3     H1       HT       0.417000       1.00800           0
     66867 TIP3     9157     TIP3     H2       HT       0.417000       1.00800           0
     66868 TIP3     9158     TIP3     OH2      OT      -0.834000       15.9994           0
     66869 TIP3     9158     TIP3     H1       HT       0.417000       1.00800           0
     66870 TIP3     9158     TIP3     H2       HT       0.417000       1.00800           0
     66871 TIP3     9159     TIP3     OH2      OT      -0.834000       15.9994           0
     66872 TIP3     9159     TIP3     H1       HT       0.417000       1.00800           0
     66873 TIP3     9159     TIP3     H2       HT       0.417000       1.00800           0
     66874 TIP3     9160     TIP3     OH2      OT      -0.834000       15.9994           0
     66875 TIP3     9160     TIP3     H1       HT       0.417000       1.00800           0
     66876 TIP3     9160     TIP3     H2       HT       0.417000       1.00800           0
     66877 TIP3     9161     TIP3     OH2      OT      -0.834000       15.9994           0
     66878 TIP3     9161     TIP3     H1       HT       0.417000       1.00800           0
     66879 TIP3     9161     TIP3     H2       HT       0.417000       1.00800           0
     66880 TIP3     9162     TIP3     OH2      OT      -0.834000       15.9994           0
     66881 TIP3     9162     TIP3     H1       HT       0.417000       1.00800           0
     66882 TIP3     9162     TIP3     H2       HT       0.417000       1.00800           0
     66883 TIP3     9163     TIP3     OH2      OT      -0.834000       15.9994           0
     66884 TIP3     9163     TIP3     H1       HT       0.417000       1.00800           0
     66885 TIP3     9163     TIP3     H2       HT       0.417000       1.00800           0
     66886 TIP3     9164     TIP3     OH2      OT      -0.834000       15.9994           0
     66887 TIP3     9164     TIP3     H1       HT       0.417000       1.00800           0
     66888 TIP3     9164     TIP3     H2       HT       0.417000       1.00800           0
     66889 TIP3     9165     TIP3     OH2      OT      -0.834000       15.9994           0
     66890 TIP3     9165     TIP3     H1       HT       0.417000       1.00800           0
     66891 TIP3     9165     TIP3     H2       HT       0.417000       1.00800           0
     66892 TIP3     9166     TIP3     OH2      OT      -0.834000       15.9994           0
     66893 TIP3     9166     TIP3     H1       HT       0.417000       1.00800           0
     66894 TIP3     9166     TIP3     H2       HT       0.417000       1.00800           0
     66895 TIP3     9167     TIP3     OH2      OT      -0.834000       15.9994           0
     66896 TIP3     9167     TIP3     H1       HT       0.417000       1.00800           0
     66897 TIP3     9167     TIP3     H2       HT       0.417000       1.00800           0
     66898 TIP3     9168     TIP3     OH2      OT      -0.834000       15.9994           0
     66899 TIP3     9168     TIP3     H1       HT       0.417000       1.00800           0
     66900 TIP3     9168     TIP3     H2       HT       0.417000       1.00800           0
     66901 TIP3     9169     TIP3     OH2      OT      -0.834000       15.9994           0
     66902 TIP3     9169     TIP3     H1       HT       0.417000       1.00800           0
     66903 TIP3     9169     TIP3     H2       HT       0.417000       1.00800           0
     66904 TIP3     9170     TIP3     OH2      OT      -0.834000       15.9994           0
     66905 TIP3     9170     TIP3     H1       HT       0.417000       1.00800           0
     66906 TIP3     9170     TIP3     H2       HT       0.417000       1.00800           0
     66907 TIP3     9171     TIP3     OH2      OT      -0.834000       15.9994           0
     66908 TIP3     9171     TIP3     H1       HT       0.417000       1.00800           0
     66909 TIP3     9171     TIP3     H2       HT       0.417000       1.00800           0
     66910 TIP3     9172     TIP3     OH2      OT      -0.834000       15.9994           0
     66911 TIP3     9172     TIP3     H1       HT       0.417000       1.00800           0
     66912 TIP3     9172     TIP3     H2       HT       0.417000       1.00800           0
     66913 TIP3     9173     TIP3     OH2      OT      -0.834000       15.9994           0
     66914 TIP3     9173     TIP3     H1       HT       0.417000       1.00800           0
     66915 TIP3     9173     TIP3     H2       HT       0.417000       1.00800           0
     66916 TIP3     9174     TIP3     OH2      OT      -0.834000       15.9994           0
     66917 TIP3     9174     TIP3     H1       HT       0.417000       1.00800           0
     66918 TIP3     9174     TIP3     H2       HT       0.417000       1.00800           0
     66919 TIP3     9175     TIP3     OH2      OT      -0.834000       15.9994           0
     66920 TIP3     9175     TIP3     H1       HT       0.417000       1.00800           0
     66921 TIP3     9175     TIP3     H2       HT       0.417000       1.00800           0
     66922 TIP3     9176     TIP3     OH2      OT      -0.834000       15.9994           0
     66923 TIP3     9176     TIP3     H1       HT       0.417000       1.00800           0
     66924 TIP3     9176     TIP3     H2       HT       0.417000       1.00800           0
     66925 TIP3     9177     TIP3     OH2      OT      -0.834000       15.9994           0
     66926 TIP3     9177     TIP3     H1       HT       0.417000       1.00800           0
     66927 TIP3     9177     TIP3     H2       HT       0.417000       1.00800           0
     66928 TIP3     9178     TIP3     OH2      OT      -0.834000       15.9994           0
     66929 TIP3     9178     TIP3     H1       HT       0.417000       1.00800           0
     66930 TIP3     9178     TIP3     H2       HT       0.417000       1.00800           0
     66931 TIP3     9179     TIP3     OH2      OT      -0.834000       15.9994           0
     66932 TIP3     9179     TIP3     H1       HT       0.417000       1.00800           0
     66933 TIP3     9179     TIP3     H2       HT       0.417000       1.00800           0
     66934 TIP3     9180     TIP3     OH2      OT      -0.834000       15.9994           0
     66935 TIP3     9180     TIP3     H1       HT       0.417000       1.00800           0
     66936 TIP3     9180     TIP3     H2       HT       0.417000       1.00800           0
     66937 TIP3     9181     TIP3     OH2      OT      -0.834000       15.9994           0
     66938 TIP3     9181     TIP3     H1       HT       0.417000       1.00800           0
     66939 TIP3     9181     TIP3     H2       HT       0.417000       1.00800           0
     66940 TIP3     9182     TIP3     OH2      OT      -0.834000       15.9994           0
     66941 TIP3     9182     TIP3     H1       HT       0.417000       1.00800           0
     66942 TIP3     9182     TIP3     H2       HT       0.417000       1.00800           0
     66943 TIP3     9183     TIP3     OH2      OT      -0.834000       15.9994           0
     66944 TIP3     9183     TIP3     H1       HT       0.417000       1.00800           0
     66945 TIP3     9183     TIP3     H2       HT       0.417000       1.00800           0
     66946 TIP3     9184     TIP3     OH2      OT      -0.834000       15.9994           0
     66947 TIP3     9184     TIP3     H1       HT       0.417000       1.00800           0
     66948 TIP3     9184     TIP3     H2       HT       0.417000       1.00800           0
     66949 TIP3     9185     TIP3     OH2      OT      -0.834000       15.9994           0
     66950 TIP3     9185     TIP3     H1       HT       0.417000       1.00800           0
     66951 TIP3     9185     TIP3     H2       HT       0.417000       1.00800           0
     66952 TIP3     9186     TIP3     OH2      OT      -0.834000       15.9994           0
     66953 TIP3     9186     TIP3     H1       HT       0.417000       1.00800           0
     66954 TIP3     9186     TIP3     H2       HT       0.417000       1.00800           0
     66955 TIP3     9187     TIP3     OH2      OT      -0.834000       15.9994           0
     66956 TIP3     9187     TIP3     H1       HT       0.417000       1.00800           0
     66957 TIP3     9187     TIP3     H2       HT       0.417000       1.00800           0
     66958 TIP3     9188     TIP3     OH2      OT      -0.834000       15.9994           0
     66959 TIP3     9188     TIP3     H1       HT       0.417000       1.00800           0
     66960 TIP3     9188     TIP3     H2       HT       0.417000       1.00800           0
     66961 TIP3     9189     TIP3     OH2      OT      -0.834000       15.9994           0
     66962 TIP3     9189     TIP3     H1       HT       0.417000       1.00800           0
     66963 TIP3     9189     TIP3     H2       HT       0.417000       1.00800           0
     66964 TIP3     9190     TIP3     OH2      OT      -0.834000       15.9994           0
     66965 TIP3     9190     TIP3     H1       HT       0.417000       1.00800           0
     66966 TIP3     9190     TIP3     H2       HT       0.417000       1.00800           0
     66967 TIP3     9191     TIP3     OH2      OT      -0.834000       15.9994           0
     66968 TIP3     9191     TIP3     H1       HT       0.417000       1.00800           0
     66969 TIP3     9191     TIP3     H2       HT       0.417000       1.00800           0
     66970 TIP3     9192     TIP3     OH2      OT      -0.834000       15.9994           0
     66971 TIP3     9192     TIP3     H1       HT       0.417000       1.00800           0
     66972 TIP3     9192     TIP3     H2       HT       0.417000       1.00800           0
     66973 TIP3     9193     TIP3     OH2      OT      -0.834000       15.9994           0
     66974 TIP3     9193     TIP3     H1       HT       0.417000       1.00800           0
     66975 TIP3     9193     TIP3     H2       HT       0.417000       1.00800           0
     66976 TIP3     9194     TIP3     OH2      OT      -0.834000       15.9994           0
     66977 TIP3     9194     TIP3     H1       HT       0.417000       1.00800           0
     66978 TIP3     9194     TIP3     H2       HT       0.417000       1.00800           0
     66979 TIP3     9195     TIP3     OH2      OT      -0.834000       15.9994           0
     66980 TIP3     9195     TIP3     H1       HT       0.417000       1.00800           0
     66981 TIP3     9195     TIP3     H2       HT       0.417000       1.00800           0
     66982 TIP3     9196     TIP3     OH2      OT      -0.834000       15.9994           0
     66983 TIP3     9196     TIP3     H1       HT       0.417000       1.00800           0
     66984 TIP3     9196     TIP3     H2       HT       0.417000       1.00800           0
     66985 TIP3     9197     TIP3     OH2      OT      -0.834000       15.9994           0
     66986 TIP3     9197     TIP3     H1       HT       0.417000       1.00800           0
     66987 TIP3     9197     TIP3     H2       HT       0.417000       1.00800           0
     66988 TIP3     9198     TIP3     OH2      OT      -0.834000       15.9994           0
     66989 TIP3     9198     TIP3     H1       HT       0.417000       1.00800           0
     66990 TIP3     9198     TIP3     H2       HT       0.417000       1.00800           0
     66991 TIP3     9199     TIP3     OH2      OT      -0.834000       15.9994           0
     66992 TIP3     9199     TIP3     H1       HT       0.417000       1.00800           0
     66993 TIP3     9199     TIP3     H2       HT       0.417000       1.00800           0
     66994 TIP3     9200     TIP3     OH2      OT      -0.834000       15.9994           0
     66995 TIP3     9200     TIP3     H1       HT       0.417000       1.00800           0
     66996 TIP3     9200     TIP3     H2       HT       0.417000       1.00800           0
     66997 TIP3     9201     TIP3     OH2      OT      -0.834000       15.9994           0
     66998 TIP3     9201     TIP3     H1       HT       0.417000       1.00800           0
     66999 TIP3     9201     TIP3     H2       HT       0.417000       1.00800           0
     67000 TIP3     9202     TIP3     OH2      OT      -0.834000       15.9994           0
     67001 TIP3     9202     TIP3     H1       HT       0.417000       1.00800           0
     67002 TIP3     9202     TIP3     H2       HT       0.417000       1.00800           0
     67003 TIP3     9203     TIP3     OH2      OT      -0.834000       15.9994           0
     67004 TIP3     9203     TIP3     H1       HT       0.417000       1.00800           0
     67005 TIP3     9203     TIP3     H2       HT       0.417000       1.00800           0
     67006 TIP3     9204     TIP3     OH2      OT      -0.834000       15.9994           0
     67007 TIP3     9204     TIP3     H1       HT       0.417000       1.00800           0
     67008 TIP3     9204     TIP3     H2       HT       0.417000       1.00800           0
     67009 TIP3     9205     TIP3     OH2      OT      -0.834000       15.9994           0
     67010 TIP3     9205     TIP3     H1       HT       0.417000       1.00800           0
     67011 TIP3     9205     TIP3     H2       HT       0.417000       1.00800           0
     67012 TIP3     9206     TIP3     OH2      OT      -0.834000       15.9994           0
     67013 TIP3     9206     TIP3     H1       HT       0.417000       1.00800           0
     67014 TIP3     9206     TIP3     H2       HT       0.417000       1.00800           0
     67015 TIP3     9207     TIP3     OH2      OT      -0.834000       15.9994           0
     67016 TIP3     9207     TIP3     H1       HT       0.417000       1.00800           0
     67017 TIP3     9207     TIP3     H2       HT       0.417000       1.00800           0
     67018 TIP3     9208     TIP3     OH2      OT      -0.834000       15.9994           0
     67019 TIP3     9208     TIP3     H1       HT       0.417000       1.00800           0
     67020 TIP3     9208     TIP3     H2       HT       0.417000       1.00800           0
     67021 TIP3     9209     TIP3     OH2      OT      -0.834000       15.9994           0
     67022 TIP3     9209     TIP3     H1       HT       0.417000       1.00800           0
     67023 TIP3     9209     TIP3     H2       HT       0.417000       1.00800           0
     67024 TIP3     9210     TIP3     OH2      OT      -0.834000       15.9994           0
     67025 TIP3     9210     TIP3     H1       HT       0.417000       1.00800           0
     67026 TIP3     9210     TIP3     H2       HT       0.417000       1.00800           0
     67027 TIP3     9211     TIP3     OH2      OT      -0.834000       15.9994           0
     67028 TIP3     9211     TIP3     H1       HT       0.417000       1.00800           0
     67029 TIP3     9211     TIP3     H2       HT       0.417000       1.00800           0
     67030 TIP3     9212     TIP3     OH2      OT      -0.834000       15.9994           0
     67031 TIP3     9212     TIP3     H1       HT       0.417000       1.00800           0
     67032 TIP3     9212     TIP3     H2       HT       0.417000       1.00800           0
     67033 TIP3     9213     TIP3     OH2      OT      -0.834000       15.9994           0
     67034 TIP3     9213     TIP3     H1       HT       0.417000       1.00800           0
     67035 TIP3     9213     TIP3     H2       HT       0.417000       1.00800           0
     67036 TIP3     9214     TIP3     OH2      OT      -0.834000       15.9994           0
     67037 TIP3     9214     TIP3     H1       HT       0.417000       1.00800           0
     67038 TIP3     9214     TIP3     H2       HT       0.417000       1.00800           0
     67039 TIP3     9215     TIP3     OH2      OT      -0.834000       15.9994           0
     67040 TIP3     9215     TIP3     H1       HT       0.417000       1.00800           0
     67041 TIP3     9215     TIP3     H2       HT       0.417000       1.00800           0
     67042 TIP3     9216     TIP3     OH2      OT      -0.834000       15.9994           0
     67043 TIP3     9216     TIP3     H1       HT       0.417000       1.00800           0
     67044 TIP3     9216     TIP3     H2       HT       0.417000       1.00800           0
     67045 TIP3     9217     TIP3     OH2      OT      -0.834000       15.9994           0
     67046 TIP3     9217     TIP3     H1       HT       0.417000       1.00800           0
     67047 TIP3     9217     TIP3     H2       HT       0.417000       1.00800           0
     67048 TIP3     9218     TIP3     OH2      OT      -0.834000       15.9994           0
     67049 TIP3     9218     TIP3     H1       HT       0.417000       1.00800           0
     67050 TIP3     9218     TIP3     H2       HT       0.417000       1.00800           0
     67051 TIP3     9219     TIP3     OH2      OT      -0.834000       15.9994           0
     67052 TIP3     9219     TIP3     H1       HT       0.417000       1.00800           0
     67053 TIP3     9219     TIP3     H2       HT       0.417000       1.00800           0
     67054 TIP3     9220     TIP3     OH2      OT      -0.834000       15.9994           0
     67055 TIP3     9220     TIP3     H1       HT       0.417000       1.00800           0
     67056 TIP3     9220     TIP3     H2       HT       0.417000       1.00800           0
     67057 TIP3     9221     TIP3     OH2      OT      -0.834000       15.9994           0
     67058 TIP3     9221     TIP3     H1       HT       0.417000       1.00800           0
     67059 TIP3     9221     TIP3     H2       HT       0.417000       1.00800           0
     67060 TIP3     9222     TIP3     OH2      OT      -0.834000       15.9994           0
     67061 TIP3     9222     TIP3     H1       HT       0.417000       1.00800           0
     67062 TIP3     9222     TIP3     H2       HT       0.417000       1.00800           0
     67063 TIP3     9223     TIP3     OH2      OT      -0.834000       15.9994           0
     67064 TIP3     9223     TIP3     H1       HT       0.417000       1.00800           0
     67065 TIP3     9223     TIP3     H2       HT       0.417000       1.00800           0
     67066 TIP3     9224     TIP3     OH2      OT      -0.834000       15.9994           0
     67067 TIP3     9224     TIP3     H1       HT       0.417000       1.00800           0
     67068 TIP3     9224     TIP3     H2       HT       0.417000       1.00800           0
     67069 TIP3     9225     TIP3     OH2      OT      -0.834000       15.9994           0
     67070 TIP3     9225     TIP3     H1       HT       0.417000       1.00800           0
     67071 TIP3     9225     TIP3     H2       HT       0.417000       1.00800           0
     67072 TIP3     9226     TIP3     OH2      OT      -0.834000       15.9994           0
     67073 TIP3     9226     TIP3     H1       HT       0.417000       1.00800           0
     67074 TIP3     9226     TIP3     H2       HT       0.417000       1.00800           0
     67075 TIP3     9227     TIP3     OH2      OT      -0.834000       15.9994           0
     67076 TIP3     9227     TIP3     H1       HT       0.417000       1.00800           0
     67077 TIP3     9227     TIP3     H2       HT       0.417000       1.00800           0
     67078 TIP3     9228     TIP3     OH2      OT      -0.834000       15.9994           0
     67079 TIP3     9228     TIP3     H1       HT       0.417000       1.00800           0
     67080 TIP3     9228     TIP3     H2       HT       0.417000       1.00800           0
     67081 TIP3     9229     TIP3     OH2      OT      -0.834000       15.9994           0
     67082 TIP3     9229     TIP3     H1       HT       0.417000       1.00800           0
     67083 TIP3     9229     TIP3     H2       HT       0.417000       1.00800           0
     67084 TIP3     9230     TIP3     OH2      OT      -0.834000       15.9994           0
     67085 TIP3     9230     TIP3     H1       HT       0.417000       1.00800           0
     67086 TIP3     9230     TIP3     H2       HT       0.417000       1.00800           0
     67087 TIP3     9231     TIP3     OH2      OT      -0.834000       15.9994           0
     67088 TIP3     9231     TIP3     H1       HT       0.417000       1.00800           0
     67089 TIP3     9231     TIP3     H2       HT       0.417000       1.00800           0
     67090 TIP3     9232     TIP3     OH2      OT      -0.834000       15.9994           0
     67091 TIP3     9232     TIP3     H1       HT       0.417000       1.00800           0
     67092 TIP3     9232     TIP3     H2       HT       0.417000       1.00800           0
     67093 TIP3     9233     TIP3     OH2      OT      -0.834000       15.9994           0
     67094 TIP3     9233     TIP3     H1       HT       0.417000       1.00800           0
     67095 TIP3     9233     TIP3     H2       HT       0.417000       1.00800           0
     67096 TIP3     9234     TIP3     OH2      OT      -0.834000       15.9994           0
     67097 TIP3     9234     TIP3     H1       HT       0.417000       1.00800           0
     67098 TIP3     9234     TIP3     H2       HT       0.417000       1.00800           0
     67099 TIP3     9235     TIP3     OH2      OT      -0.834000       15.9994           0
     67100 TIP3     9235     TIP3     H1       HT       0.417000       1.00800           0
     67101 TIP3     9235     TIP3     H2       HT       0.417000       1.00800           0
     67102 TIP3     9236     TIP3     OH2      OT      -0.834000       15.9994           0
     67103 TIP3     9236     TIP3     H1       HT       0.417000       1.00800           0
     67104 TIP3     9236     TIP3     H2       HT       0.417000       1.00800           0
     67105 TIP3     9237     TIP3     OH2      OT      -0.834000       15.9994           0
     67106 TIP3     9237     TIP3     H1       HT       0.417000       1.00800           0
     67107 TIP3     9237     TIP3     H2       HT       0.417000       1.00800           0
     67108 TIP3     9238     TIP3     OH2      OT      -0.834000       15.9994           0
     67109 TIP3     9238     TIP3     H1       HT       0.417000       1.00800           0
     67110 TIP3     9238     TIP3     H2       HT       0.417000       1.00800           0
     67111 TIP3     9239     TIP3     OH2      OT      -0.834000       15.9994           0
     67112 TIP3     9239     TIP3     H1       HT       0.417000       1.00800           0
     67113 TIP3     9239     TIP3     H2       HT       0.417000       1.00800           0
     67114 TIP3     9240     TIP3     OH2      OT      -0.834000       15.9994           0
     67115 TIP3     9240     TIP3     H1       HT       0.417000       1.00800           0
     67116 TIP3     9240     TIP3     H2       HT       0.417000       1.00800           0
     67117 TIP3     9241     TIP3     OH2      OT      -0.834000       15.9994           0
     67118 TIP3     9241     TIP3     H1       HT       0.417000       1.00800           0
     67119 TIP3     9241     TIP3     H2       HT       0.417000       1.00800           0
     67120 TIP3     9242     TIP3     OH2      OT      -0.834000       15.9994           0
     67121 TIP3     9242     TIP3     H1       HT       0.417000       1.00800           0
     67122 TIP3     9242     TIP3     H2       HT       0.417000       1.00800           0
     67123 TIP3     9243     TIP3     OH2      OT      -0.834000       15.9994           0
     67124 TIP3     9243     TIP3     H1       HT       0.417000       1.00800           0
     67125 TIP3     9243     TIP3     H2       HT       0.417000       1.00800           0
     67126 TIP3     9244     TIP3     OH2      OT      -0.834000       15.9994           0
     67127 TIP3     9244     TIP3     H1       HT       0.417000       1.00800           0
     67128 TIP3     9244     TIP3     H2       HT       0.417000       1.00800           0
     67129 TIP3     9245     TIP3     OH2      OT      -0.834000       15.9994           0
     67130 TIP3     9245     TIP3     H1       HT       0.417000       1.00800           0
     67131 TIP3     9245     TIP3     H2       HT       0.417000       1.00800           0
     67132 TIP3     9246     TIP3     OH2      OT      -0.834000       15.9994           0
     67133 TIP3     9246     TIP3     H1       HT       0.417000       1.00800           0
     67134 TIP3     9246     TIP3     H2       HT       0.417000       1.00800           0
     67135 TIP3     9247     TIP3     OH2      OT      -0.834000       15.9994           0
     67136 TIP3     9247     TIP3     H1       HT       0.417000       1.00800           0
     67137 TIP3     9247     TIP3     H2       HT       0.417000       1.00800           0
     67138 TIP3     9248     TIP3     OH2      OT      -0.834000       15.9994           0
     67139 TIP3     9248     TIP3     H1       HT       0.417000       1.00800           0
     67140 TIP3     9248     TIP3     H2       HT       0.417000       1.00800           0
     67141 TIP3     9249     TIP3     OH2      OT      -0.834000       15.9994           0
     67142 TIP3     9249     TIP3     H1       HT       0.417000       1.00800           0
     67143 TIP3     9249     TIP3     H2       HT       0.417000       1.00800           0
     67144 TIP3     9250     TIP3     OH2      OT      -0.834000       15.9994           0
     67145 TIP3     9250     TIP3     H1       HT       0.417000       1.00800           0
     67146 TIP3     9250     TIP3     H2       HT       0.417000       1.00800           0
     67147 TIP3     9251     TIP3     OH2      OT      -0.834000       15.9994           0
     67148 TIP3     9251     TIP3     H1       HT       0.417000       1.00800           0
     67149 TIP3     9251     TIP3     H2       HT       0.417000       1.00800           0
     67150 TIP3     9252     TIP3     OH2      OT      -0.834000       15.9994           0
     67151 TIP3     9252     TIP3     H1       HT       0.417000       1.00800           0
     67152 TIP3     9252     TIP3     H2       HT       0.417000       1.00800           0
     67153 TIP3     9253     TIP3     OH2      OT      -0.834000       15.9994           0
     67154 TIP3     9253     TIP3     H1       HT       0.417000       1.00800           0
     67155 TIP3     9253     TIP3     H2       HT       0.417000       1.00800           0
     67156 TIP3     9254     TIP3     OH2      OT      -0.834000       15.9994           0
     67157 TIP3     9254     TIP3     H1       HT       0.417000       1.00800           0
     67158 TIP3     9254     TIP3     H2       HT       0.417000       1.00800           0
     67159 TIP3     9255     TIP3     OH2      OT      -0.834000       15.9994           0
     67160 TIP3     9255     TIP3     H1       HT       0.417000       1.00800           0
     67161 TIP3     9255     TIP3     H2       HT       0.417000       1.00800           0
     67162 TIP3     9256     TIP3     OH2      OT      -0.834000       15.9994           0
     67163 TIP3     9256     TIP3     H1       HT       0.417000       1.00800           0
     67164 TIP3     9256     TIP3     H2       HT       0.417000       1.00800           0
     67165 TIP3     9257     TIP3     OH2      OT      -0.834000       15.9994           0
     67166 TIP3     9257     TIP3     H1       HT       0.417000       1.00800           0
     67167 TIP3     9257     TIP3     H2       HT       0.417000       1.00800           0
     67168 TIP3     9258     TIP3     OH2      OT      -0.834000       15.9994           0
     67169 TIP3     9258     TIP3     H1       HT       0.417000       1.00800           0
     67170 TIP3     9258     TIP3     H2       HT       0.417000       1.00800           0
     67171 TIP3     9259     TIP3     OH2      OT      -0.834000       15.9994           0
     67172 TIP3     9259     TIP3     H1       HT       0.417000       1.00800           0
     67173 TIP3     9259     TIP3     H2       HT       0.417000       1.00800           0
     67174 TIP3     9260     TIP3     OH2      OT      -0.834000       15.9994           0
     67175 TIP3     9260     TIP3     H1       HT       0.417000       1.00800           0
     67176 TIP3     9260     TIP3     H2       HT       0.417000       1.00800           0
     67177 TIP3     9261     TIP3     OH2      OT      -0.834000       15.9994           0
     67178 TIP3     9261     TIP3     H1       HT       0.417000       1.00800           0
     67179 TIP3     9261     TIP3     H2       HT       0.417000       1.00800           0
     67180 TIP3     9262     TIP3     OH2      OT      -0.834000       15.9994           0
     67181 TIP3     9262     TIP3     H1       HT       0.417000       1.00800           0
     67182 TIP3     9262     TIP3     H2       HT       0.417000       1.00800           0
     67183 TIP3     9263     TIP3     OH2      OT      -0.834000       15.9994           0
     67184 TIP3     9263     TIP3     H1       HT       0.417000       1.00800           0
     67185 TIP3     9263     TIP3     H2       HT       0.417000       1.00800           0
     67186 TIP3     9264     TIP3     OH2      OT      -0.834000       15.9994           0
     67187 TIP3     9264     TIP3     H1       HT       0.417000       1.00800           0
     67188 TIP3     9264     TIP3     H2       HT       0.417000       1.00800           0
     67189 TIP3     9265     TIP3     OH2      OT      -0.834000       15.9994           0
     67190 TIP3     9265     TIP3     H1       HT       0.417000       1.00800           0
     67191 TIP3     9265     TIP3     H2       HT       0.417000       1.00800           0
     67192 TIP3     9266     TIP3     OH2      OT      -0.834000       15.9994           0
     67193 TIP3     9266     TIP3     H1       HT       0.417000       1.00800           0
     67194 TIP3     9266     TIP3     H2       HT       0.417000       1.00800           0
     67195 TIP3     9267     TIP3     OH2      OT      -0.834000       15.9994           0
     67196 TIP3     9267     TIP3     H1       HT       0.417000       1.00800           0
     67197 TIP3     9267     TIP3     H2       HT       0.417000       1.00800           0
     67198 TIP3     9268     TIP3     OH2      OT      -0.834000       15.9994           0
     67199 TIP3     9268     TIP3     H1       HT       0.417000       1.00800           0
     67200 TIP3     9268     TIP3     H2       HT       0.417000       1.00800           0
     67201 TIP3     9269     TIP3     OH2      OT      -0.834000       15.9994           0
     67202 TIP3     9269     TIP3     H1       HT       0.417000       1.00800           0
     67203 TIP3     9269     TIP3     H2       HT       0.417000       1.00800           0
     67204 TIP3     9270     TIP3     OH2      OT      -0.834000       15.9994           0
     67205 TIP3     9270     TIP3     H1       HT       0.417000       1.00800           0
     67206 TIP3     9270     TIP3     H2       HT       0.417000       1.00800           0
     67207 TIP3     9271     TIP3     OH2      OT      -0.834000       15.9994           0
     67208 TIP3     9271     TIP3     H1       HT       0.417000       1.00800           0
     67209 TIP3     9271     TIP3     H2       HT       0.417000       1.00800           0
     67210 TIP3     9272     TIP3     OH2      OT      -0.834000       15.9994           0
     67211 TIP3     9272     TIP3     H1       HT       0.417000       1.00800           0
     67212 TIP3     9272     TIP3     H2       HT       0.417000       1.00800           0
     67213 TIP3     9273     TIP3     OH2      OT      -0.834000       15.9994           0
     67214 TIP3     9273     TIP3     H1       HT       0.417000       1.00800           0
     67215 TIP3     9273     TIP3     H2       HT       0.417000       1.00800           0
     67216 TIP3     9274     TIP3     OH2      OT      -0.834000       15.9994           0
     67217 TIP3     9274     TIP3     H1       HT       0.417000       1.00800           0
     67218 TIP3     9274     TIP3     H2       HT       0.417000       1.00800           0
     67219 TIP3     9275     TIP3     OH2      OT      -0.834000       15.9994           0
     67220 TIP3     9275     TIP3     H1       HT       0.417000       1.00800           0
     67221 TIP3     9275     TIP3     H2       HT       0.417000       1.00800           0
     67222 TIP3     9276     TIP3     OH2      OT      -0.834000       15.9994           0
     67223 TIP3     9276     TIP3     H1       HT       0.417000       1.00800           0
     67224 TIP3     9276     TIP3     H2       HT       0.417000       1.00800           0
     67225 TIP3     9277     TIP3     OH2      OT      -0.834000       15.9994           0
     67226 TIP3     9277     TIP3     H1       HT       0.417000       1.00800           0
     67227 TIP3     9277     TIP3     H2       HT       0.417000       1.00800           0
     67228 TIP3     9278     TIP3     OH2      OT      -0.834000       15.9994           0
     67229 TIP3     9278     TIP3     H1       HT       0.417000       1.00800           0
     67230 TIP3     9278     TIP3     H2       HT       0.417000       1.00800           0
     67231 TIP3     9279     TIP3     OH2      OT      -0.834000       15.9994           0
     67232 TIP3     9279     TIP3     H1       HT       0.417000       1.00800           0
     67233 TIP3     9279     TIP3     H2       HT       0.417000       1.00800           0
     67234 TIP3     9280     TIP3     OH2      OT      -0.834000       15.9994           0
     67235 TIP3     9280     TIP3     H1       HT       0.417000       1.00800           0
     67236 TIP3     9280     TIP3     H2       HT       0.417000       1.00800           0
     67237 TIP3     9281     TIP3     OH2      OT      -0.834000       15.9994           0
     67238 TIP3     9281     TIP3     H1       HT       0.417000       1.00800           0
     67239 TIP3     9281     TIP3     H2       HT       0.417000       1.00800           0
     67240 TIP3     9282     TIP3     OH2      OT      -0.834000       15.9994           0
     67241 TIP3     9282     TIP3     H1       HT       0.417000       1.00800           0
     67242 TIP3     9282     TIP3     H2       HT       0.417000       1.00800           0
     67243 TIP3     9283     TIP3     OH2      OT      -0.834000       15.9994           0
     67244 TIP3     9283     TIP3     H1       HT       0.417000       1.00800           0
     67245 TIP3     9283     TIP3     H2       HT       0.417000       1.00800           0
     67246 TIP3     9284     TIP3     OH2      OT      -0.834000       15.9994           0
     67247 TIP3     9284     TIP3     H1       HT       0.417000       1.00800           0
     67248 TIP3     9284     TIP3     H2       HT       0.417000       1.00800           0
     67249 TIP3     9285     TIP3     OH2      OT      -0.834000       15.9994           0
     67250 TIP3     9285     TIP3     H1       HT       0.417000       1.00800           0
     67251 TIP3     9285     TIP3     H2       HT       0.417000       1.00800           0
     67252 TIP3     9286     TIP3     OH2      OT      -0.834000       15.9994           0
     67253 TIP3     9286     TIP3     H1       HT       0.417000       1.00800           0
     67254 TIP3     9286     TIP3     H2       HT       0.417000       1.00800           0
     67255 TIP3     9287     TIP3     OH2      OT      -0.834000       15.9994           0
     67256 TIP3     9287     TIP3     H1       HT       0.417000       1.00800           0
     67257 TIP3     9287     TIP3     H2       HT       0.417000       1.00800           0
     67258 TIP3     9288     TIP3     OH2      OT      -0.834000       15.9994           0
     67259 TIP3     9288     TIP3     H1       HT       0.417000       1.00800           0
     67260 TIP3     9288     TIP3     H2       HT       0.417000       1.00800           0
     67261 TIP3     9289     TIP3     OH2      OT      -0.834000       15.9994           0
     67262 TIP3     9289     TIP3     H1       HT       0.417000       1.00800           0
     67263 TIP3     9289     TIP3     H2       HT       0.417000       1.00800           0
     67264 TIP3     9290     TIP3     OH2      OT      -0.834000       15.9994           0
     67265 TIP3     9290     TIP3     H1       HT       0.417000       1.00800           0
     67266 TIP3     9290     TIP3     H2       HT       0.417000       1.00800           0
     67267 TIP3     9291     TIP3     OH2      OT      -0.834000       15.9994           0
     67268 TIP3     9291     TIP3     H1       HT       0.417000       1.00800           0
     67269 TIP3     9291     TIP3     H2       HT       0.417000       1.00800           0
     67270 TIP3     9292     TIP3     OH2      OT      -0.834000       15.9994           0
     67271 TIP3     9292     TIP3     H1       HT       0.417000       1.00800           0
     67272 TIP3     9292     TIP3     H2       HT       0.417000       1.00800           0
     67273 TIP3     9293     TIP3     OH2      OT      -0.834000       15.9994           0
     67274 TIP3     9293     TIP3     H1       HT       0.417000       1.00800           0
     67275 TIP3     9293     TIP3     H2       HT       0.417000       1.00800           0
     67276 TIP3     9294     TIP3     OH2      OT      -0.834000       15.9994           0
     67277 TIP3     9294     TIP3     H1       HT       0.417000       1.00800           0
     67278 TIP3     9294     TIP3     H2       HT       0.417000       1.00800           0
     67279 TIP3     9295     TIP3     OH2      OT      -0.834000       15.9994           0
     67280 TIP3     9295     TIP3     H1       HT       0.417000       1.00800           0
     67281 TIP3     9295     TIP3     H2       HT       0.417000       1.00800           0
     67282 TIP3     9296     TIP3     OH2      OT      -0.834000       15.9994           0
     67283 TIP3     9296     TIP3     H1       HT       0.417000       1.00800           0
     67284 TIP3     9296     TIP3     H2       HT       0.417000       1.00800           0
     67285 TIP3     9297     TIP3     OH2      OT      -0.834000       15.9994           0
     67286 TIP3     9297     TIP3     H1       HT       0.417000       1.00800           0
     67287 TIP3     9297     TIP3     H2       HT       0.417000       1.00800           0
     67288 TIP3     9298     TIP3     OH2      OT      -0.834000       15.9994           0
     67289 TIP3     9298     TIP3     H1       HT       0.417000       1.00800           0
     67290 TIP3     9298     TIP3     H2       HT       0.417000       1.00800           0
     67291 TIP3     9299     TIP3     OH2      OT      -0.834000       15.9994           0
     67292 TIP3     9299     TIP3     H1       HT       0.417000       1.00800           0
     67293 TIP3     9299     TIP3     H2       HT       0.417000       1.00800           0
     67294 TIP3     9300     TIP3     OH2      OT      -0.834000       15.9994           0
     67295 TIP3     9300     TIP3     H1       HT       0.417000       1.00800           0
     67296 TIP3     9300     TIP3     H2       HT       0.417000       1.00800           0
     67297 TIP3     9301     TIP3     OH2      OT      -0.834000       15.9994           0
     67298 TIP3     9301     TIP3     H1       HT       0.417000       1.00800           0
     67299 TIP3     9301     TIP3     H2       HT       0.417000       1.00800           0
     67300 TIP3     9302     TIP3     OH2      OT      -0.834000       15.9994           0
     67301 TIP3     9302     TIP3     H1       HT       0.417000       1.00800           0
     67302 TIP3     9302     TIP3     H2       HT       0.417000       1.00800           0
     67303 TIP3     9303     TIP3     OH2      OT      -0.834000       15.9994           0
     67304 TIP3     9303     TIP3     H1       HT       0.417000       1.00800           0
     67305 TIP3     9303     TIP3     H2       HT       0.417000       1.00800           0
     67306 TIP3     9304     TIP3     OH2      OT      -0.834000       15.9994           0
     67307 TIP3     9304     TIP3     H1       HT       0.417000       1.00800           0
     67308 TIP3     9304     TIP3     H2       HT       0.417000       1.00800           0
     67309 TIP3     9305     TIP3     OH2      OT      -0.834000       15.9994           0
     67310 TIP3     9305     TIP3     H1       HT       0.417000       1.00800           0
     67311 TIP3     9305     TIP3     H2       HT       0.417000       1.00800           0
     67312 TIP3     9306     TIP3     OH2      OT      -0.834000       15.9994           0
     67313 TIP3     9306     TIP3     H1       HT       0.417000       1.00800           0
     67314 TIP3     9306     TIP3     H2       HT       0.417000       1.00800           0
     67315 TIP3     9307     TIP3     OH2      OT      -0.834000       15.9994           0
     67316 TIP3     9307     TIP3     H1       HT       0.417000       1.00800           0
     67317 TIP3     9307     TIP3     H2       HT       0.417000       1.00800           0
     67318 TIP3     9308     TIP3     OH2      OT      -0.834000       15.9994           0
     67319 TIP3     9308     TIP3     H1       HT       0.417000       1.00800           0
     67320 TIP3     9308     TIP3     H2       HT       0.417000       1.00800           0
     67321 TIP3     9309     TIP3     OH2      OT      -0.834000       15.9994           0
     67322 TIP3     9309     TIP3     H1       HT       0.417000       1.00800           0
     67323 TIP3     9309     TIP3     H2       HT       0.417000       1.00800           0
     67324 TIP3     9310     TIP3     OH2      OT      -0.834000       15.9994           0
     67325 TIP3     9310     TIP3     H1       HT       0.417000       1.00800           0
     67326 TIP3     9310     TIP3     H2       HT       0.417000       1.00800           0
     67327 TIP3     9311     TIP3     OH2      OT      -0.834000       15.9994           0
     67328 TIP3     9311     TIP3     H1       HT       0.417000       1.00800           0
     67329 TIP3     9311     TIP3     H2       HT       0.417000       1.00800           0
     67330 TIP3     9312     TIP3     OH2      OT      -0.834000       15.9994           0
     67331 TIP3     9312     TIP3     H1       HT       0.417000       1.00800           0
     67332 TIP3     9312     TIP3     H2       HT       0.417000       1.00800           0
     67333 TIP3     9313     TIP3     OH2      OT      -0.834000       15.9994           0
     67334 TIP3     9313     TIP3     H1       HT       0.417000       1.00800           0
     67335 TIP3     9313     TIP3     H2       HT       0.417000       1.00800           0
     67336 TIP3     9314     TIP3     OH2      OT      -0.834000       15.9994           0
     67337 TIP3     9314     TIP3     H1       HT       0.417000       1.00800           0
     67338 TIP3     9314     TIP3     H2       HT       0.417000       1.00800           0
     67339 TIP3     9315     TIP3     OH2      OT      -0.834000       15.9994           0
     67340 TIP3     9315     TIP3     H1       HT       0.417000       1.00800           0
     67341 TIP3     9315     TIP3     H2       HT       0.417000       1.00800           0
     67342 TIP3     9316     TIP3     OH2      OT      -0.834000       15.9994           0
     67343 TIP3     9316     TIP3     H1       HT       0.417000       1.00800           0
     67344 TIP3     9316     TIP3     H2       HT       0.417000       1.00800           0
     67345 TIP3     9317     TIP3     OH2      OT      -0.834000       15.9994           0
     67346 TIP3     9317     TIP3     H1       HT       0.417000       1.00800           0
     67347 TIP3     9317     TIP3     H2       HT       0.417000       1.00800           0
     67348 TIP3     9318     TIP3     OH2      OT      -0.834000       15.9994           0
     67349 TIP3     9318     TIP3     H1       HT       0.417000       1.00800           0
     67350 TIP3     9318     TIP3     H2       HT       0.417000       1.00800           0
     67351 TIP3     9319     TIP3     OH2      OT      -0.834000       15.9994           0
     67352 TIP3     9319     TIP3     H1       HT       0.417000       1.00800           0
     67353 TIP3     9319     TIP3     H2       HT       0.417000       1.00800           0
     67354 TIP3     9320     TIP3     OH2      OT      -0.834000       15.9994           0
     67355 TIP3     9320     TIP3     H1       HT       0.417000       1.00800           0
     67356 TIP3     9320     TIP3     H2       HT       0.417000       1.00800           0
     67357 TIP3     9321     TIP3     OH2      OT      -0.834000       15.9994           0
     67358 TIP3     9321     TIP3     H1       HT       0.417000       1.00800           0
     67359 TIP3     9321     TIP3     H2       HT       0.417000       1.00800           0
     67360 TIP3     9322     TIP3     OH2      OT      -0.834000       15.9994           0
     67361 TIP3     9322     TIP3     H1       HT       0.417000       1.00800           0
     67362 TIP3     9322     TIP3     H2       HT       0.417000       1.00800           0
     67363 TIP3     9323     TIP3     OH2      OT      -0.834000       15.9994           0
     67364 TIP3     9323     TIP3     H1       HT       0.417000       1.00800           0
     67365 TIP3     9323     TIP3     H2       HT       0.417000       1.00800           0
     67366 TIP3     9324     TIP3     OH2      OT      -0.834000       15.9994           0
     67367 TIP3     9324     TIP3     H1       HT       0.417000       1.00800           0
     67368 TIP3     9324     TIP3     H2       HT       0.417000       1.00800           0
     67369 TIP3     9325     TIP3     OH2      OT      -0.834000       15.9994           0
     67370 TIP3     9325     TIP3     H1       HT       0.417000       1.00800           0
     67371 TIP3     9325     TIP3     H2       HT       0.417000       1.00800           0
     67372 TIP3     9326     TIP3     OH2      OT      -0.834000       15.9994           0
     67373 TIP3     9326     TIP3     H1       HT       0.417000       1.00800           0
     67374 TIP3     9326     TIP3     H2       HT       0.417000       1.00800           0
     67375 TIP3     9327     TIP3     OH2      OT      -0.834000       15.9994           0
     67376 TIP3     9327     TIP3     H1       HT       0.417000       1.00800           0
     67377 TIP3     9327     TIP3     H2       HT       0.417000       1.00800           0
     67378 TIP3     9328     TIP3     OH2      OT      -0.834000       15.9994           0
     67379 TIP3     9328     TIP3     H1       HT       0.417000       1.00800           0
     67380 TIP3     9328     TIP3     H2       HT       0.417000       1.00800           0
     67381 TIP3     9329     TIP3     OH2      OT      -0.834000       15.9994           0
     67382 TIP3     9329     TIP3     H1       HT       0.417000       1.00800           0
     67383 TIP3     9329     TIP3     H2       HT       0.417000       1.00800           0
     67384 TIP3     9330     TIP3     OH2      OT      -0.834000       15.9994           0
     67385 TIP3     9330     TIP3     H1       HT       0.417000       1.00800           0
     67386 TIP3     9330     TIP3     H2       HT       0.417000       1.00800           0
     67387 TIP3     9331     TIP3     OH2      OT      -0.834000       15.9994           0
     67388 TIP3     9331     TIP3     H1       HT       0.417000       1.00800           0
     67389 TIP3     9331     TIP3     H2       HT       0.417000       1.00800           0
     67390 TIP3     9332     TIP3     OH2      OT      -0.834000       15.9994           0
     67391 TIP3     9332     TIP3     H1       HT       0.417000       1.00800           0
     67392 TIP3     9332     TIP3     H2       HT       0.417000       1.00800           0
     67393 TIP3     9333     TIP3     OH2      OT      -0.834000       15.9994           0
     67394 TIP3     9333     TIP3     H1       HT       0.417000       1.00800           0
     67395 TIP3     9333     TIP3     H2       HT       0.417000       1.00800           0
     67396 TIP3     9334     TIP3     OH2      OT      -0.834000       15.9994           0
     67397 TIP3     9334     TIP3     H1       HT       0.417000       1.00800           0
     67398 TIP3     9334     TIP3     H2       HT       0.417000       1.00800           0
     67399 TIP3     9335     TIP3     OH2      OT      -0.834000       15.9994           0
     67400 TIP3     9335     TIP3     H1       HT       0.417000       1.00800           0
     67401 TIP3     9335     TIP3     H2       HT       0.417000       1.00800           0
     67402 TIP3     9336     TIP3     OH2      OT      -0.834000       15.9994           0
     67403 TIP3     9336     TIP3     H1       HT       0.417000       1.00800           0
     67404 TIP3     9336     TIP3     H2       HT       0.417000       1.00800           0
     67405 TIP3     9337     TIP3     OH2      OT      -0.834000       15.9994           0
     67406 TIP3     9337     TIP3     H1       HT       0.417000       1.00800           0
     67407 TIP3     9337     TIP3     H2       HT       0.417000       1.00800           0
     67408 TIP3     9338     TIP3     OH2      OT      -0.834000       15.9994           0
     67409 TIP3     9338     TIP3     H1       HT       0.417000       1.00800           0
     67410 TIP3     9338     TIP3     H2       HT       0.417000       1.00800           0
     67411 TIP3     9339     TIP3     OH2      OT      -0.834000       15.9994           0
     67412 TIP3     9339     TIP3     H1       HT       0.417000       1.00800           0
     67413 TIP3     9339     TIP3     H2       HT       0.417000       1.00800           0
     67414 TIP3     9340     TIP3     OH2      OT      -0.834000       15.9994           0
     67415 TIP3     9340     TIP3     H1       HT       0.417000       1.00800           0
     67416 TIP3     9340     TIP3     H2       HT       0.417000       1.00800           0
     67417 TIP3     9341     TIP3     OH2      OT      -0.834000       15.9994           0
     67418 TIP3     9341     TIP3     H1       HT       0.417000       1.00800           0
     67419 TIP3     9341     TIP3     H2       HT       0.417000       1.00800           0
     67420 TIP3     9342     TIP3     OH2      OT      -0.834000       15.9994           0
     67421 TIP3     9342     TIP3     H1       HT       0.417000       1.00800           0
     67422 TIP3     9342     TIP3     H2       HT       0.417000       1.00800           0
     67423 TIP3     9343     TIP3     OH2      OT      -0.834000       15.9994           0
     67424 TIP3     9343     TIP3     H1       HT       0.417000       1.00800           0
     67425 TIP3     9343     TIP3     H2       HT       0.417000       1.00800           0
     67426 TIP3     9344     TIP3     OH2      OT      -0.834000       15.9994           0
     67427 TIP3     9344     TIP3     H1       HT       0.417000       1.00800           0
     67428 TIP3     9344     TIP3     H2       HT       0.417000       1.00800           0
     67429 TIP3     9345     TIP3     OH2      OT      -0.834000       15.9994           0
     67430 TIP3     9345     TIP3     H1       HT       0.417000       1.00800           0
     67431 TIP3     9345     TIP3     H2       HT       0.417000       1.00800           0
     67432 TIP3     9346     TIP3     OH2      OT      -0.834000       15.9994           0
     67433 TIP3     9346     TIP3     H1       HT       0.417000       1.00800           0
     67434 TIP3     9346     TIP3     H2       HT       0.417000       1.00800           0
     67435 TIP3     9347     TIP3     OH2      OT      -0.834000       15.9994           0
     67436 TIP3     9347     TIP3     H1       HT       0.417000       1.00800           0
     67437 TIP3     9347     TIP3     H2       HT       0.417000       1.00800           0
     67438 TIP3     9348     TIP3     OH2      OT      -0.834000       15.9994           0
     67439 TIP3     9348     TIP3     H1       HT       0.417000       1.00800           0
     67440 TIP3     9348     TIP3     H2       HT       0.417000       1.00800           0
     67441 TIP3     9349     TIP3     OH2      OT      -0.834000       15.9994           0
     67442 TIP3     9349     TIP3     H1       HT       0.417000       1.00800           0
     67443 TIP3     9349     TIP3     H2       HT       0.417000       1.00800           0
     67444 TIP3     9350     TIP3     OH2      OT      -0.834000       15.9994           0
     67445 TIP3     9350     TIP3     H1       HT       0.417000       1.00800           0
     67446 TIP3     9350     TIP3     H2       HT       0.417000       1.00800           0
     67447 TIP3     9351     TIP3     OH2      OT      -0.834000       15.9994           0
     67448 TIP3     9351     TIP3     H1       HT       0.417000       1.00800           0
     67449 TIP3     9351     TIP3     H2       HT       0.417000       1.00800           0
     67450 TIP3     9352     TIP3     OH2      OT      -0.834000       15.9994           0
     67451 TIP3     9352     TIP3     H1       HT       0.417000       1.00800           0
     67452 TIP3     9352     TIP3     H2       HT       0.417000       1.00800           0
     67453 TIP3     9353     TIP3     OH2      OT      -0.834000       15.9994           0
     67454 TIP3     9353     TIP3     H1       HT       0.417000       1.00800           0
     67455 TIP3     9353     TIP3     H2       HT       0.417000       1.00800           0
     67456 TIP3     9354     TIP3     OH2      OT      -0.834000       15.9994           0
     67457 TIP3     9354     TIP3     H1       HT       0.417000       1.00800           0
     67458 TIP3     9354     TIP3     H2       HT       0.417000       1.00800           0
     67459 TIP3     9355     TIP3     OH2      OT      -0.834000       15.9994           0
     67460 TIP3     9355     TIP3     H1       HT       0.417000       1.00800           0
     67461 TIP3     9355     TIP3     H2       HT       0.417000       1.00800           0
     67462 TIP3     9356     TIP3     OH2      OT      -0.834000       15.9994           0
     67463 TIP3     9356     TIP3     H1       HT       0.417000       1.00800           0
     67464 TIP3     9356     TIP3     H2       HT       0.417000       1.00800           0
     67465 TIP3     9357     TIP3     OH2      OT      -0.834000       15.9994           0
     67466 TIP3     9357     TIP3     H1       HT       0.417000       1.00800           0
     67467 TIP3     9357     TIP3     H2       HT       0.417000       1.00800           0
     67468 TIP3     9358     TIP3     OH2      OT      -0.834000       15.9994           0
     67469 TIP3     9358     TIP3     H1       HT       0.417000       1.00800           0
     67470 TIP3     9358     TIP3     H2       HT       0.417000       1.00800           0
     67471 TIP3     9359     TIP3     OH2      OT      -0.834000       15.9994           0
     67472 TIP3     9359     TIP3     H1       HT       0.417000       1.00800           0
     67473 TIP3     9359     TIP3     H2       HT       0.417000       1.00800           0
     67474 TIP3     9360     TIP3     OH2      OT      -0.834000       15.9994           0
     67475 TIP3     9360     TIP3     H1       HT       0.417000       1.00800           0
     67476 TIP3     9360     TIP3     H2       HT       0.417000       1.00800           0
     67477 TIP3     9361     TIP3     OH2      OT      -0.834000       15.9994           0
     67478 TIP3     9361     TIP3     H1       HT       0.417000       1.00800           0
     67479 TIP3     9361     TIP3     H2       HT       0.417000       1.00800           0
     67480 TIP3     9362     TIP3     OH2      OT      -0.834000       15.9994           0
     67481 TIP3     9362     TIP3     H1       HT       0.417000       1.00800           0
     67482 TIP3     9362     TIP3     H2       HT       0.417000       1.00800           0
     67483 TIP3     9363     TIP3     OH2      OT      -0.834000       15.9994           0
     67484 TIP3     9363     TIP3     H1       HT       0.417000       1.00800           0
     67485 TIP3     9363     TIP3     H2       HT       0.417000       1.00800           0
     67486 TIP3     9364     TIP3     OH2      OT      -0.834000       15.9994           0
     67487 TIP3     9364     TIP3     H1       HT       0.417000       1.00800           0
     67488 TIP3     9364     TIP3     H2       HT       0.417000       1.00800           0
     67489 TIP3     9365     TIP3     OH2      OT      -0.834000       15.9994           0
     67490 TIP3     9365     TIP3     H1       HT       0.417000       1.00800           0
     67491 TIP3     9365     TIP3     H2       HT       0.417000       1.00800           0
     67492 TIP3     9366     TIP3     OH2      OT      -0.834000       15.9994           0
     67493 TIP3     9366     TIP3     H1       HT       0.417000       1.00800           0
     67494 TIP3     9366     TIP3     H2       HT       0.417000       1.00800           0
     67495 TIP3     9367     TIP3     OH2      OT      -0.834000       15.9994           0
     67496 TIP3     9367     TIP3     H1       HT       0.417000       1.00800           0
     67497 TIP3     9367     TIP3     H2       HT       0.417000       1.00800           0
     67498 TIP3     9368     TIP3     OH2      OT      -0.834000       15.9994           0
     67499 TIP3     9368     TIP3     H1       HT       0.417000       1.00800           0
     67500 TIP3     9368     TIP3     H2       HT       0.417000       1.00800           0
     67501 TIP3     9369     TIP3     OH2      OT      -0.834000       15.9994           0
     67502 TIP3     9369     TIP3     H1       HT       0.417000       1.00800           0
     67503 TIP3     9369     TIP3     H2       HT       0.417000       1.00800           0
     67504 TIP3     9370     TIP3     OH2      OT      -0.834000       15.9994           0
     67505 TIP3     9370     TIP3     H1       HT       0.417000       1.00800           0
     67506 TIP3     9370     TIP3     H2       HT       0.417000       1.00800           0
     67507 TIP3     9371     TIP3     OH2      OT      -0.834000       15.9994           0
     67508 TIP3     9371     TIP3     H1       HT       0.417000       1.00800           0
     67509 TIP3     9371     TIP3     H2       HT       0.417000       1.00800           0
     67510 TIP3     9372     TIP3     OH2      OT      -0.834000       15.9994           0
     67511 TIP3     9372     TIP3     H1       HT       0.417000       1.00800           0
     67512 TIP3     9372     TIP3     H2       HT       0.417000       1.00800           0
     67513 TIP3     9373     TIP3     OH2      OT      -0.834000       15.9994           0
     67514 TIP3     9373     TIP3     H1       HT       0.417000       1.00800           0
     67515 TIP3     9373     TIP3     H2       HT       0.417000       1.00800           0
     67516 TIP3     9374     TIP3     OH2      OT      -0.834000       15.9994           0
     67517 TIP3     9374     TIP3     H1       HT       0.417000       1.00800           0
     67518 TIP3     9374     TIP3     H2       HT       0.417000       1.00800           0
     67519 TIP3     9375     TIP3     OH2      OT      -0.834000       15.9994           0
     67520 TIP3     9375     TIP3     H1       HT       0.417000       1.00800           0
     67521 TIP3     9375     TIP3     H2       HT       0.417000       1.00800           0
     67522 TIP3     9376     TIP3     OH2      OT      -0.834000       15.9994           0
     67523 TIP3     9376     TIP3     H1       HT       0.417000       1.00800           0
     67524 TIP3     9376     TIP3     H2       HT       0.417000       1.00800           0
     67525 TIP3     9377     TIP3     OH2      OT      -0.834000       15.9994           0
     67526 TIP3     9377     TIP3     H1       HT       0.417000       1.00800           0
     67527 TIP3     9377     TIP3     H2       HT       0.417000       1.00800           0
     67528 TIP3     9378     TIP3     OH2      OT      -0.834000       15.9994           0
     67529 TIP3     9378     TIP3     H1       HT       0.417000       1.00800           0
     67530 TIP3     9378     TIP3     H2       HT       0.417000       1.00800           0
     67531 TIP3     9379     TIP3     OH2      OT      -0.834000       15.9994           0
     67532 TIP3     9379     TIP3     H1       HT       0.417000       1.00800           0
     67533 TIP3     9379     TIP3     H2       HT       0.417000       1.00800           0
     67534 TIP3     9380     TIP3     OH2      OT      -0.834000       15.9994           0
     67535 TIP3     9380     TIP3     H1       HT       0.417000       1.00800           0
     67536 TIP3     9380     TIP3     H2       HT       0.417000       1.00800           0
     67537 TIP3     9381     TIP3     OH2      OT      -0.834000       15.9994           0
     67538 TIP3     9381     TIP3     H1       HT       0.417000       1.00800           0
     67539 TIP3     9381     TIP3     H2       HT       0.417000       1.00800           0
     67540 TIP3     9382     TIP3     OH2      OT      -0.834000       15.9994           0
     67541 TIP3     9382     TIP3     H1       HT       0.417000       1.00800           0
     67542 TIP3     9382     TIP3     H2       HT       0.417000       1.00800           0
     67543 TIP3     9383     TIP3     OH2      OT      -0.834000       15.9994           0
     67544 TIP3     9383     TIP3     H1       HT       0.417000       1.00800           0
     67545 TIP3     9383     TIP3     H2       HT       0.417000       1.00800           0
     67546 TIP3     9384     TIP3     OH2      OT      -0.834000       15.9994           0
     67547 TIP3     9384     TIP3     H1       HT       0.417000       1.00800           0
     67548 TIP3     9384     TIP3     H2       HT       0.417000       1.00800           0
     67549 TIP3     9385     TIP3     OH2      OT      -0.834000       15.9994           0
     67550 TIP3     9385     TIP3     H1       HT       0.417000       1.00800           0
     67551 TIP3     9385     TIP3     H2       HT       0.417000       1.00800           0
     67552 TIP3     9386     TIP3     OH2      OT      -0.834000       15.9994           0
     67553 TIP3     9386     TIP3     H1       HT       0.417000       1.00800           0
     67554 TIP3     9386     TIP3     H2       HT       0.417000       1.00800           0
     67555 TIP3     9387     TIP3     OH2      OT      -0.834000       15.9994           0
     67556 TIP3     9387     TIP3     H1       HT       0.417000       1.00800           0
     67557 TIP3     9387     TIP3     H2       HT       0.417000       1.00800           0
     67558 TIP3     9388     TIP3     OH2      OT      -0.834000       15.9994           0
     67559 TIP3     9388     TIP3     H1       HT       0.417000       1.00800           0
     67560 TIP3     9388     TIP3     H2       HT       0.417000       1.00800           0
     67561 TIP3     9389     TIP3     OH2      OT      -0.834000       15.9994           0
     67562 TIP3     9389     TIP3     H1       HT       0.417000       1.00800           0
     67563 TIP3     9389     TIP3     H2       HT       0.417000       1.00800           0
     67564 TIP3     9390     TIP3     OH2      OT      -0.834000       15.9994           0
     67565 TIP3     9390     TIP3     H1       HT       0.417000       1.00800           0
     67566 TIP3     9390     TIP3     H2       HT       0.417000       1.00800           0
     67567 TIP3     9391     TIP3     OH2      OT      -0.834000       15.9994           0
     67568 TIP3     9391     TIP3     H1       HT       0.417000       1.00800           0
     67569 TIP3     9391     TIP3     H2       HT       0.417000       1.00800           0
     67570 TIP3     9392     TIP3     OH2      OT      -0.834000       15.9994           0
     67571 TIP3     9392     TIP3     H1       HT       0.417000       1.00800           0
     67572 TIP3     9392     TIP3     H2       HT       0.417000       1.00800           0
     67573 TIP3     9393     TIP3     OH2      OT      -0.834000       15.9994           0
     67574 TIP3     9393     TIP3     H1       HT       0.417000       1.00800           0
     67575 TIP3     9393     TIP3     H2       HT       0.417000       1.00800           0
     67576 TIP3     9394     TIP3     OH2      OT      -0.834000       15.9994           0
     67577 TIP3     9394     TIP3     H1       HT       0.417000       1.00800           0
     67578 TIP3     9394     TIP3     H2       HT       0.417000       1.00800           0
     67579 TIP3     9395     TIP3     OH2      OT      -0.834000       15.9994           0
     67580 TIP3     9395     TIP3     H1       HT       0.417000       1.00800           0
     67581 TIP3     9395     TIP3     H2       HT       0.417000       1.00800           0
     67582 TIP3     9396     TIP3     OH2      OT      -0.834000       15.9994           0
     67583 TIP3     9396     TIP3     H1       HT       0.417000       1.00800           0
     67584 TIP3     9396     TIP3     H2       HT       0.417000       1.00800           0
     67585 TIP3     9397     TIP3     OH2      OT      -0.834000       15.9994           0
     67586 TIP3     9397     TIP3     H1       HT       0.417000       1.00800           0
     67587 TIP3     9397     TIP3     H2       HT       0.417000       1.00800           0
     67588 TIP3     9398     TIP3     OH2      OT      -0.834000       15.9994           0
     67589 TIP3     9398     TIP3     H1       HT       0.417000       1.00800           0
     67590 TIP3     9398     TIP3     H2       HT       0.417000       1.00800           0
     67591 TIP3     9399     TIP3     OH2      OT      -0.834000       15.9994           0
     67592 TIP3     9399     TIP3     H1       HT       0.417000       1.00800           0
     67593 TIP3     9399     TIP3     H2       HT       0.417000       1.00800           0
     67594 TIP3     9400     TIP3     OH2      OT      -0.834000       15.9994           0
     67595 TIP3     9400     TIP3     H1       HT       0.417000       1.00800           0
     67596 TIP3     9400     TIP3     H2       HT       0.417000       1.00800           0
     67597 TIP3     9401     TIP3     OH2      OT      -0.834000       15.9994           0
     67598 TIP3     9401     TIP3     H1       HT       0.417000       1.00800           0
     67599 TIP3     9401     TIP3     H2       HT       0.417000       1.00800           0
     67600 TIP3     9402     TIP3     OH2      OT      -0.834000       15.9994           0
     67601 TIP3     9402     TIP3     H1       HT       0.417000       1.00800           0
     67602 TIP3     9402     TIP3     H2       HT       0.417000       1.00800           0
     67603 TIP3     9403     TIP3     OH2      OT      -0.834000       15.9994           0
     67604 TIP3     9403     TIP3     H1       HT       0.417000       1.00800           0
     67605 TIP3     9403     TIP3     H2       HT       0.417000       1.00800           0
     67606 TIP3     9404     TIP3     OH2      OT      -0.834000       15.9994           0
     67607 TIP3     9404     TIP3     H1       HT       0.417000       1.00800           0
     67608 TIP3     9404     TIP3     H2       HT       0.417000       1.00800           0
     67609 TIP3     9405     TIP3     OH2      OT      -0.834000       15.9994           0
     67610 TIP3     9405     TIP3     H1       HT       0.417000       1.00800           0
     67611 TIP3     9405     TIP3     H2       HT       0.417000       1.00800           0
     67612 TIP3     9406     TIP3     OH2      OT      -0.834000       15.9994           0
     67613 TIP3     9406     TIP3     H1       HT       0.417000       1.00800           0
     67614 TIP3     9406     TIP3     H2       HT       0.417000       1.00800           0
     67615 TIP3     9407     TIP3     OH2      OT      -0.834000       15.9994           0
     67616 TIP3     9407     TIP3     H1       HT       0.417000       1.00800           0
     67617 TIP3     9407     TIP3     H2       HT       0.417000       1.00800           0
     67618 TIP3     9408     TIP3     OH2      OT      -0.834000       15.9994           0
     67619 TIP3     9408     TIP3     H1       HT       0.417000       1.00800           0
     67620 TIP3     9408     TIP3     H2       HT       0.417000       1.00800           0
     67621 TIP3     9409     TIP3     OH2      OT      -0.834000       15.9994           0
     67622 TIP3     9409     TIP3     H1       HT       0.417000       1.00800           0
     67623 TIP3     9409     TIP3     H2       HT       0.417000       1.00800           0
     67624 TIP3     9410     TIP3     OH2      OT      -0.834000       15.9994           0
     67625 TIP3     9410     TIP3     H1       HT       0.417000       1.00800           0
     67626 TIP3     9410     TIP3     H2       HT       0.417000       1.00800           0
     67627 TIP3     9411     TIP3     OH2      OT      -0.834000       15.9994           0
     67628 TIP3     9411     TIP3     H1       HT       0.417000       1.00800           0
     67629 TIP3     9411     TIP3     H2       HT       0.417000       1.00800           0
     67630 TIP3     9412     TIP3     OH2      OT      -0.834000       15.9994           0
     67631 TIP3     9412     TIP3     H1       HT       0.417000       1.00800           0
     67632 TIP3     9412     TIP3     H2       HT       0.417000       1.00800           0
     67633 TIP3     9413     TIP3     OH2      OT      -0.834000       15.9994           0
     67634 TIP3     9413     TIP3     H1       HT       0.417000       1.00800           0
     67635 TIP3     9413     TIP3     H2       HT       0.417000       1.00800           0
     67636 TIP3     9414     TIP3     OH2      OT      -0.834000       15.9994           0
     67637 TIP3     9414     TIP3     H1       HT       0.417000       1.00800           0
     67638 TIP3     9414     TIP3     H2       HT       0.417000       1.00800           0
     67639 TIP3     9415     TIP3     OH2      OT      -0.834000       15.9994           0
     67640 TIP3     9415     TIP3     H1       HT       0.417000       1.00800           0
     67641 TIP3     9415     TIP3     H2       HT       0.417000       1.00800           0
     67642 TIP3     9416     TIP3     OH2      OT      -0.834000       15.9994           0
     67643 TIP3     9416     TIP3     H1       HT       0.417000       1.00800           0
     67644 TIP3     9416     TIP3     H2       HT       0.417000       1.00800           0
     67645 TIP3     9417     TIP3     OH2      OT      -0.834000       15.9994           0
     67646 TIP3     9417     TIP3     H1       HT       0.417000       1.00800           0
     67647 TIP3     9417     TIP3     H2       HT       0.417000       1.00800           0
     67648 TIP3     9418     TIP3     OH2      OT      -0.834000       15.9994           0
     67649 TIP3     9418     TIP3     H1       HT       0.417000       1.00800           0
     67650 TIP3     9418     TIP3     H2       HT       0.417000       1.00800           0
     67651 TIP3     9419     TIP3     OH2      OT      -0.834000       15.9994           0
     67652 TIP3     9419     TIP3     H1       HT       0.417000       1.00800           0
     67653 TIP3     9419     TIP3     H2       HT       0.417000       1.00800           0
     67654 TIP3     9420     TIP3     OH2      OT      -0.834000       15.9994           0
     67655 TIP3     9420     TIP3     H1       HT       0.417000       1.00800           0
     67656 TIP3     9420     TIP3     H2       HT       0.417000       1.00800           0
     67657 TIP3     9421     TIP3     OH2      OT      -0.834000       15.9994           0
     67658 TIP3     9421     TIP3     H1       HT       0.417000       1.00800           0
     67659 TIP3     9421     TIP3     H2       HT       0.417000       1.00800           0
     67660 TIP3     9422     TIP3     OH2      OT      -0.834000       15.9994           0
     67661 TIP3     9422     TIP3     H1       HT       0.417000       1.00800           0
     67662 TIP3     9422     TIP3     H2       HT       0.417000       1.00800           0
     67663 TIP3     9423     TIP3     OH2      OT      -0.834000       15.9994           0
     67664 TIP3     9423     TIP3     H1       HT       0.417000       1.00800           0
     67665 TIP3     9423     TIP3     H2       HT       0.417000       1.00800           0
     67666 TIP3     9424     TIP3     OH2      OT      -0.834000       15.9994           0
     67667 TIP3     9424     TIP3     H1       HT       0.417000       1.00800           0
     67668 TIP3     9424     TIP3     H2       HT       0.417000       1.00800           0
     67669 TIP3     9425     TIP3     OH2      OT      -0.834000       15.9994           0
     67670 TIP3     9425     TIP3     H1       HT       0.417000       1.00800           0
     67671 TIP3     9425     TIP3     H2       HT       0.417000       1.00800           0
     67672 TIP3     9426     TIP3     OH2      OT      -0.834000       15.9994           0
     67673 TIP3     9426     TIP3     H1       HT       0.417000       1.00800           0
     67674 TIP3     9426     TIP3     H2       HT       0.417000       1.00800           0
     67675 TIP3     9427     TIP3     OH2      OT      -0.834000       15.9994           0
     67676 TIP3     9427     TIP3     H1       HT       0.417000       1.00800           0
     67677 TIP3     9427     TIP3     H2       HT       0.417000       1.00800           0
     67678 TIP3     9428     TIP3     OH2      OT      -0.834000       15.9994           0
     67679 TIP3     9428     TIP3     H1       HT       0.417000       1.00800           0
     67680 TIP3     9428     TIP3     H2       HT       0.417000       1.00800           0
     67681 TIP3     9429     TIP3     OH2      OT      -0.834000       15.9994           0
     67682 TIP3     9429     TIP3     H1       HT       0.417000       1.00800           0
     67683 TIP3     9429     TIP3     H2       HT       0.417000       1.00800           0
     67684 TIP3     9430     TIP3     OH2      OT      -0.834000       15.9994           0
     67685 TIP3     9430     TIP3     H1       HT       0.417000       1.00800           0
     67686 TIP3     9430     TIP3     H2       HT       0.417000       1.00800           0
     67687 TIP3     9431     TIP3     OH2      OT      -0.834000       15.9994           0
     67688 TIP3     9431     TIP3     H1       HT       0.417000       1.00800           0
     67689 TIP3     9431     TIP3     H2       HT       0.417000       1.00800           0
     67690 TIP3     9432     TIP3     OH2      OT      -0.834000       15.9994           0
     67691 TIP3     9432     TIP3     H1       HT       0.417000       1.00800           0
     67692 TIP3     9432     TIP3     H2       HT       0.417000       1.00800           0
     67693 TIP3     9433     TIP3     OH2      OT      -0.834000       15.9994           0
     67694 TIP3     9433     TIP3     H1       HT       0.417000       1.00800           0
     67695 TIP3     9433     TIP3     H2       HT       0.417000       1.00800           0
     67696 TIP3     9434     TIP3     OH2      OT      -0.834000       15.9994           0
     67697 TIP3     9434     TIP3     H1       HT       0.417000       1.00800           0
     67698 TIP3     9434     TIP3     H2       HT       0.417000       1.00800           0
     67699 TIP3     9435     TIP3     OH2      OT      -0.834000       15.9994           0
     67700 TIP3     9435     TIP3     H1       HT       0.417000       1.00800           0
     67701 TIP3     9435     TIP3     H2       HT       0.417000       1.00800           0
     67702 TIP3     9436     TIP3     OH2      OT      -0.834000       15.9994           0
     67703 TIP3     9436     TIP3     H1       HT       0.417000       1.00800           0
     67704 TIP3     9436     TIP3     H2       HT       0.417000       1.00800           0
     67705 TIP3     9437     TIP3     OH2      OT      -0.834000       15.9994           0
     67706 TIP3     9437     TIP3     H1       HT       0.417000       1.00800           0
     67707 TIP3     9437     TIP3     H2       HT       0.417000       1.00800           0
     67708 TIP3     9438     TIP3     OH2      OT      -0.834000       15.9994           0
     67709 TIP3     9438     TIP3     H1       HT       0.417000       1.00800           0
     67710 TIP3     9438     TIP3     H2       HT       0.417000       1.00800           0
     67711 TIP3     9439     TIP3     OH2      OT      -0.834000       15.9994           0
     67712 TIP3     9439     TIP3     H1       HT       0.417000       1.00800           0
     67713 TIP3     9439     TIP3     H2       HT       0.417000       1.00800           0
     67714 TIP3     9440     TIP3     OH2      OT      -0.834000       15.9994           0
     67715 TIP3     9440     TIP3     H1       HT       0.417000       1.00800           0
     67716 TIP3     9440     TIP3     H2       HT       0.417000       1.00800           0
     67717 TIP3     9441     TIP3     OH2      OT      -0.834000       15.9994           0
     67718 TIP3     9441     TIP3     H1       HT       0.417000       1.00800           0
     67719 TIP3     9441     TIP3     H2       HT       0.417000       1.00800           0
     67720 TIP3     9442     TIP3     OH2      OT      -0.834000       15.9994           0
     67721 TIP3     9442     TIP3     H1       HT       0.417000       1.00800           0
     67722 TIP3     9442     TIP3     H2       HT       0.417000       1.00800           0
     67723 TIP3     9443     TIP3     OH2      OT      -0.834000       15.9994           0
     67724 TIP3     9443     TIP3     H1       HT       0.417000       1.00800           0
     67725 TIP3     9443     TIP3     H2       HT       0.417000       1.00800           0
     67726 TIP3     9444     TIP3     OH2      OT      -0.834000       15.9994           0
     67727 TIP3     9444     TIP3     H1       HT       0.417000       1.00800           0
     67728 TIP3     9444     TIP3     H2       HT       0.417000       1.00800           0
     67729 TIP3     9445     TIP3     OH2      OT      -0.834000       15.9994           0
     67730 TIP3     9445     TIP3     H1       HT       0.417000       1.00800           0
     67731 TIP3     9445     TIP3     H2       HT       0.417000       1.00800           0
     67732 TIP3     9446     TIP3     OH2      OT      -0.834000       15.9994           0
     67733 TIP3     9446     TIP3     H1       HT       0.417000       1.00800           0
     67734 TIP3     9446     TIP3     H2       HT       0.417000       1.00800           0
     67735 TIP3     9447     TIP3     OH2      OT      -0.834000       15.9994           0
     67736 TIP3     9447     TIP3     H1       HT       0.417000       1.00800           0
     67737 TIP3     9447     TIP3     H2       HT       0.417000       1.00800           0
     67738 TIP3     9448     TIP3     OH2      OT      -0.834000       15.9994           0
     67739 TIP3     9448     TIP3     H1       HT       0.417000       1.00800           0
     67740 TIP3     9448     TIP3     H2       HT       0.417000       1.00800           0
     67741 TIP3     9449     TIP3     OH2      OT      -0.834000       15.9994           0
     67742 TIP3     9449     TIP3     H1       HT       0.417000       1.00800           0
     67743 TIP3     9449     TIP3     H2       HT       0.417000       1.00800           0
     67744 TIP3     9450     TIP3     OH2      OT      -0.834000       15.9994           0
     67745 TIP3     9450     TIP3     H1       HT       0.417000       1.00800           0
     67746 TIP3     9450     TIP3     H2       HT       0.417000       1.00800           0
     67747 TIP3     9451     TIP3     OH2      OT      -0.834000       15.9994           0
     67748 TIP3     9451     TIP3     H1       HT       0.417000       1.00800           0
     67749 TIP3     9451     TIP3     H2       HT       0.417000       1.00800           0
     67750 TIP3     9452     TIP3     OH2      OT      -0.834000       15.9994           0
     67751 TIP3     9452     TIP3     H1       HT       0.417000       1.00800           0
     67752 TIP3     9452     TIP3     H2       HT       0.417000       1.00800           0
     67753 TIP3     9453     TIP3     OH2      OT      -0.834000       15.9994           0
     67754 TIP3     9453     TIP3     H1       HT       0.417000       1.00800           0
     67755 TIP3     9453     TIP3     H2       HT       0.417000       1.00800           0
     67756 TIP3     9454     TIP3     OH2      OT      -0.834000       15.9994           0
     67757 TIP3     9454     TIP3     H1       HT       0.417000       1.00800           0
     67758 TIP3     9454     TIP3     H2       HT       0.417000       1.00800           0
     67759 TIP3     9455     TIP3     OH2      OT      -0.834000       15.9994           0
     67760 TIP3     9455     TIP3     H1       HT       0.417000       1.00800           0
     67761 TIP3     9455     TIP3     H2       HT       0.417000       1.00800           0
     67762 TIP3     9456     TIP3     OH2      OT      -0.834000       15.9994           0
     67763 TIP3     9456     TIP3     H1       HT       0.417000       1.00800           0
     67764 TIP3     9456     TIP3     H2       HT       0.417000       1.00800           0
     67765 TIP3     9457     TIP3     OH2      OT      -0.834000       15.9994           0
     67766 TIP3     9457     TIP3     H1       HT       0.417000       1.00800           0
     67767 TIP3     9457     TIP3     H2       HT       0.417000       1.00800           0
     67768 TIP3     9458     TIP3     OH2      OT      -0.834000       15.9994           0
     67769 TIP3     9458     TIP3     H1       HT       0.417000       1.00800           0
     67770 TIP3     9458     TIP3     H2       HT       0.417000       1.00800           0
     67771 TIP3     9459     TIP3     OH2      OT      -0.834000       15.9994           0
     67772 TIP3     9459     TIP3     H1       HT       0.417000       1.00800           0
     67773 TIP3     9459     TIP3     H2       HT       0.417000       1.00800           0
     67774 TIP3     9460     TIP3     OH2      OT      -0.834000       15.9994           0
     67775 TIP3     9460     TIP3     H1       HT       0.417000       1.00800           0
     67776 TIP3     9460     TIP3     H2       HT       0.417000       1.00800           0
     67777 TIP3     9461     TIP3     OH2      OT      -0.834000       15.9994           0
     67778 TIP3     9461     TIP3     H1       HT       0.417000       1.00800           0
     67779 TIP3     9461     TIP3     H2       HT       0.417000       1.00800           0
     67780 TIP3     9462     TIP3     OH2      OT      -0.834000       15.9994           0
     67781 TIP3     9462     TIP3     H1       HT       0.417000       1.00800           0
     67782 TIP3     9462     TIP3     H2       HT       0.417000       1.00800           0
     67783 TIP3     9463     TIP3     OH2      OT      -0.834000       15.9994           0
     67784 TIP3     9463     TIP3     H1       HT       0.417000       1.00800           0
     67785 TIP3     9463     TIP3     H2       HT       0.417000       1.00800           0
     67786 TIP3     9464     TIP3     OH2      OT      -0.834000       15.9994           0
     67787 TIP3     9464     TIP3     H1       HT       0.417000       1.00800           0
     67788 TIP3     9464     TIP3     H2       HT       0.417000       1.00800           0
     67789 TIP3     9465     TIP3     OH2      OT      -0.834000       15.9994           0
     67790 TIP3     9465     TIP3     H1       HT       0.417000       1.00800           0
     67791 TIP3     9465     TIP3     H2       HT       0.417000       1.00800           0
     67792 TIP3     9466     TIP3     OH2      OT      -0.834000       15.9994           0
     67793 TIP3     9466     TIP3     H1       HT       0.417000       1.00800           0
     67794 TIP3     9466     TIP3     H2       HT       0.417000       1.00800           0
     67795 TIP3     9467     TIP3     OH2      OT      -0.834000       15.9994           0
     67796 TIP3     9467     TIP3     H1       HT       0.417000       1.00800           0
     67797 TIP3     9467     TIP3     H2       HT       0.417000       1.00800           0
     67798 TIP3     9468     TIP3     OH2      OT      -0.834000       15.9994           0
     67799 TIP3     9468     TIP3     H1       HT       0.417000       1.00800           0
     67800 TIP3     9468     TIP3     H2       HT       0.417000       1.00800           0
     67801 TIP3     9469     TIP3     OH2      OT      -0.834000       15.9994           0
     67802 TIP3     9469     TIP3     H1       HT       0.417000       1.00800           0
     67803 TIP3     9469     TIP3     H2       HT       0.417000       1.00800           0
     67804 TIP3     9470     TIP3     OH2      OT      -0.834000       15.9994           0
     67805 TIP3     9470     TIP3     H1       HT       0.417000       1.00800           0
     67806 TIP3     9470     TIP3     H2       HT       0.417000       1.00800           0
     67807 TIP3     9471     TIP3     OH2      OT      -0.834000       15.9994           0
     67808 TIP3     9471     TIP3     H1       HT       0.417000       1.00800           0
     67809 TIP3     9471     TIP3     H2       HT       0.417000       1.00800           0
     67810 TIP3     9472     TIP3     OH2      OT      -0.834000       15.9994           0
     67811 TIP3     9472     TIP3     H1       HT       0.417000       1.00800           0
     67812 TIP3     9472     TIP3     H2       HT       0.417000       1.00800           0
     67813 TIP3     9473     TIP3     OH2      OT      -0.834000       15.9994           0
     67814 TIP3     9473     TIP3     H1       HT       0.417000       1.00800           0
     67815 TIP3     9473     TIP3     H2       HT       0.417000       1.00800           0
     67816 TIP3     9474     TIP3     OH2      OT      -0.834000       15.9994           0
     67817 TIP3     9474     TIP3     H1       HT       0.417000       1.00800           0
     67818 TIP3     9474     TIP3     H2       HT       0.417000       1.00800           0
     67819 TIP3     9475     TIP3     OH2      OT      -0.834000       15.9994           0
     67820 TIP3     9475     TIP3     H1       HT       0.417000       1.00800           0
     67821 TIP3     9475     TIP3     H2       HT       0.417000       1.00800           0
     67822 TIP3     9476     TIP3     OH2      OT      -0.834000       15.9994           0
     67823 TIP3     9476     TIP3     H1       HT       0.417000       1.00800           0
     67824 TIP3     9476     TIP3     H2       HT       0.417000       1.00800           0
     67825 TIP3     9477     TIP3     OH2      OT      -0.834000       15.9994           0
     67826 TIP3     9477     TIP3     H1       HT       0.417000       1.00800           0
     67827 TIP3     9477     TIP3     H2       HT       0.417000       1.00800           0
     67828 TIP3     9478     TIP3     OH2      OT      -0.834000       15.9994           0
     67829 TIP3     9478     TIP3     H1       HT       0.417000       1.00800           0
     67830 TIP3     9478     TIP3     H2       HT       0.417000       1.00800           0
     67831 TIP3     9479     TIP3     OH2      OT      -0.834000       15.9994           0
     67832 TIP3     9479     TIP3     H1       HT       0.417000       1.00800           0
     67833 TIP3     9479     TIP3     H2       HT       0.417000       1.00800           0
     67834 TIP3     9480     TIP3     OH2      OT      -0.834000       15.9994           0
     67835 TIP3     9480     TIP3     H1       HT       0.417000       1.00800           0
     67836 TIP3     9480     TIP3     H2       HT       0.417000       1.00800           0
     67837 TIP3     9481     TIP3     OH2      OT      -0.834000       15.9994           0
     67838 TIP3     9481     TIP3     H1       HT       0.417000       1.00800           0
     67839 TIP3     9481     TIP3     H2       HT       0.417000       1.00800           0
     67840 TIP3     9482     TIP3     OH2      OT      -0.834000       15.9994           0
     67841 TIP3     9482     TIP3     H1       HT       0.417000       1.00800           0
     67842 TIP3     9482     TIP3     H2       HT       0.417000       1.00800           0
     67843 TIP3     9483     TIP3     OH2      OT      -0.834000       15.9994           0
     67844 TIP3     9483     TIP3     H1       HT       0.417000       1.00800           0
     67845 TIP3     9483     TIP3     H2       HT       0.417000       1.00800           0
     67846 TIP3     9484     TIP3     OH2      OT      -0.834000       15.9994           0
     67847 TIP3     9484     TIP3     H1       HT       0.417000       1.00800           0
     67848 TIP3     9484     TIP3     H2       HT       0.417000       1.00800           0
     67849 TIP3     9485     TIP3     OH2      OT      -0.834000       15.9994           0
     67850 TIP3     9485     TIP3     H1       HT       0.417000       1.00800           0
     67851 TIP3     9485     TIP3     H2       HT       0.417000       1.00800           0
     67852 TIP3     9486     TIP3     OH2      OT      -0.834000       15.9994           0
     67853 TIP3     9486     TIP3     H1       HT       0.417000       1.00800           0
     67854 TIP3     9486     TIP3     H2       HT       0.417000       1.00800           0
     67855 TIP3     9487     TIP3     OH2      OT      -0.834000       15.9994           0
     67856 TIP3     9487     TIP3     H1       HT       0.417000       1.00800           0
     67857 TIP3     9487     TIP3     H2       HT       0.417000       1.00800           0
     67858 TIP3     9488     TIP3     OH2      OT      -0.834000       15.9994           0
     67859 TIP3     9488     TIP3     H1       HT       0.417000       1.00800           0
     67860 TIP3     9488     TIP3     H2       HT       0.417000       1.00800           0
     67861 TIP3     9489     TIP3     OH2      OT      -0.834000       15.9994           0
     67862 TIP3     9489     TIP3     H1       HT       0.417000       1.00800           0
     67863 TIP3     9489     TIP3     H2       HT       0.417000       1.00800           0
     67864 TIP3     9490     TIP3     OH2      OT      -0.834000       15.9994           0
     67865 TIP3     9490     TIP3     H1       HT       0.417000       1.00800           0
     67866 TIP3     9490     TIP3     H2       HT       0.417000       1.00800           0
     67867 TIP3     9491     TIP3     OH2      OT      -0.834000       15.9994           0
     67868 TIP3     9491     TIP3     H1       HT       0.417000       1.00800           0
     67869 TIP3     9491     TIP3     H2       HT       0.417000       1.00800           0
     67870 TIP3     9492     TIP3     OH2      OT      -0.834000       15.9994           0
     67871 TIP3     9492     TIP3     H1       HT       0.417000       1.00800           0
     67872 TIP3     9492     TIP3     H2       HT       0.417000       1.00800           0
     67873 TIP3     9493     TIP3     OH2      OT      -0.834000       15.9994           0
     67874 TIP3     9493     TIP3     H1       HT       0.417000       1.00800           0
     67875 TIP3     9493     TIP3     H2       HT       0.417000       1.00800           0
     67876 TIP3     9494     TIP3     OH2      OT      -0.834000       15.9994           0
     67877 TIP3     9494     TIP3     H1       HT       0.417000       1.00800           0
     67878 TIP3     9494     TIP3     H2       HT       0.417000       1.00800           0
     67879 TIP3     9495     TIP3     OH2      OT      -0.834000       15.9994           0
     67880 TIP3     9495     TIP3     H1       HT       0.417000       1.00800           0
     67881 TIP3     9495     TIP3     H2       HT       0.417000       1.00800           0
     67882 TIP3     9496     TIP3     OH2      OT      -0.834000       15.9994           0
     67883 TIP3     9496     TIP3     H1       HT       0.417000       1.00800           0
     67884 TIP3     9496     TIP3     H2       HT       0.417000       1.00800           0
     67885 TIP3     9497     TIP3     OH2      OT      -0.834000       15.9994           0
     67886 TIP3     9497     TIP3     H1       HT       0.417000       1.00800           0
     67887 TIP3     9497     TIP3     H2       HT       0.417000       1.00800           0
     67888 TIP3     9498     TIP3     OH2      OT      -0.834000       15.9994           0
     67889 TIP3     9498     TIP3     H1       HT       0.417000       1.00800           0
     67890 TIP3     9498     TIP3     H2       HT       0.417000       1.00800           0
     67891 TIP3     9499     TIP3     OH2      OT      -0.834000       15.9994           0
     67892 TIP3     9499     TIP3     H1       HT       0.417000       1.00800           0
     67893 TIP3     9499     TIP3     H2       HT       0.417000       1.00800           0
     67894 TIP3     9500     TIP3     OH2      OT      -0.834000       15.9994           0
     67895 TIP3     9500     TIP3     H1       HT       0.417000       1.00800           0
     67896 TIP3     9500     TIP3     H2       HT       0.417000       1.00800           0
     67897 TIP3     9501     TIP3     OH2      OT      -0.834000       15.9994           0
     67898 TIP3     9501     TIP3     H1       HT       0.417000       1.00800           0
     67899 TIP3     9501     TIP3     H2       HT       0.417000       1.00800           0
     67900 TIP3     9502     TIP3     OH2      OT      -0.834000       15.9994           0
     67901 TIP3     9502     TIP3     H1       HT       0.417000       1.00800           0
     67902 TIP3     9502     TIP3     H2       HT       0.417000       1.00800           0
     67903 TIP3     9503     TIP3     OH2      OT      -0.834000       15.9994           0
     67904 TIP3     9503     TIP3     H1       HT       0.417000       1.00800           0
     67905 TIP3     9503     TIP3     H2       HT       0.417000       1.00800           0
     67906 TIP3     9504     TIP3     OH2      OT      -0.834000       15.9994           0
     67907 TIP3     9504     TIP3     H1       HT       0.417000       1.00800           0
     67908 TIP3     9504     TIP3     H2       HT       0.417000       1.00800           0
     67909 TIP3     9505     TIP3     OH2      OT      -0.834000       15.9994           0
     67910 TIP3     9505     TIP3     H1       HT       0.417000       1.00800           0
     67911 TIP3     9505     TIP3     H2       HT       0.417000       1.00800           0
     67912 TIP3     9506     TIP3     OH2      OT      -0.834000       15.9994           0
     67913 TIP3     9506     TIP3     H1       HT       0.417000       1.00800           0
     67914 TIP3     9506     TIP3     H2       HT       0.417000       1.00800           0
     67915 TIP3     9507     TIP3     OH2      OT      -0.834000       15.9994           0
     67916 TIP3     9507     TIP3     H1       HT       0.417000       1.00800           0
     67917 TIP3     9507     TIP3     H2       HT       0.417000       1.00800           0
     67918 TIP3     9508     TIP3     OH2      OT      -0.834000       15.9994           0
     67919 TIP3     9508     TIP3     H1       HT       0.417000       1.00800           0
     67920 TIP3     9508     TIP3     H2       HT       0.417000       1.00800           0
     67921 TIP3     9509     TIP3     OH2      OT      -0.834000       15.9994           0
     67922 TIP3     9509     TIP3     H1       HT       0.417000       1.00800           0
     67923 TIP3     9509     TIP3     H2       HT       0.417000       1.00800           0
     67924 TIP3     9510     TIP3     OH2      OT      -0.834000       15.9994           0
     67925 TIP3     9510     TIP3     H1       HT       0.417000       1.00800           0
     67926 TIP3     9510     TIP3     H2       HT       0.417000       1.00800           0
     67927 TIP3     9511     TIP3     OH2      OT      -0.834000       15.9994           0
     67928 TIP3     9511     TIP3     H1       HT       0.417000       1.00800           0
     67929 TIP3     9511     TIP3     H2       HT       0.417000       1.00800           0
     67930 TIP3     9512     TIP3     OH2      OT      -0.834000       15.9994           0
     67931 TIP3     9512     TIP3     H1       HT       0.417000       1.00800           0
     67932 TIP3     9512     TIP3     H2       HT       0.417000       1.00800           0
     67933 TIP3     9513     TIP3     OH2      OT      -0.834000       15.9994           0
     67934 TIP3     9513     TIP3     H1       HT       0.417000       1.00800           0
     67935 TIP3     9513     TIP3     H2       HT       0.417000       1.00800           0
     67936 TIP3     9514     TIP3     OH2      OT      -0.834000       15.9994           0
     67937 TIP3     9514     TIP3     H1       HT       0.417000       1.00800           0
     67938 TIP3     9514     TIP3     H2       HT       0.417000       1.00800           0
     67939 TIP3     9515     TIP3     OH2      OT      -0.834000       15.9994           0
     67940 TIP3     9515     TIP3     H1       HT       0.417000       1.00800           0
     67941 TIP3     9515     TIP3     H2       HT       0.417000       1.00800           0
     67942 TIP3     9516     TIP3     OH2      OT      -0.834000       15.9994           0
     67943 TIP3     9516     TIP3     H1       HT       0.417000       1.00800           0
     67944 TIP3     9516     TIP3     H2       HT       0.417000       1.00800           0
     67945 TIP3     9517     TIP3     OH2      OT      -0.834000       15.9994           0
     67946 TIP3     9517     TIP3     H1       HT       0.417000       1.00800           0
     67947 TIP3     9517     TIP3     H2       HT       0.417000       1.00800           0
     67948 TIP3     9518     TIP3     OH2      OT      -0.834000       15.9994           0
     67949 TIP3     9518     TIP3     H1       HT       0.417000       1.00800           0
     67950 TIP3     9518     TIP3     H2       HT       0.417000       1.00800           0
     67951 TIP3     9519     TIP3     OH2      OT      -0.834000       15.9994           0
     67952 TIP3     9519     TIP3     H1       HT       0.417000       1.00800           0
     67953 TIP3     9519     TIP3     H2       HT       0.417000       1.00800           0
     67954 TIP3     9520     TIP3     OH2      OT      -0.834000       15.9994           0
     67955 TIP3     9520     TIP3     H1       HT       0.417000       1.00800           0
     67956 TIP3     9520     TIP3     H2       HT       0.417000       1.00800           0
     67957 TIP3     9521     TIP3     OH2      OT      -0.834000       15.9994           0
     67958 TIP3     9521     TIP3     H1       HT       0.417000       1.00800           0
     67959 TIP3     9521     TIP3     H2       HT       0.417000       1.00800           0
     67960 TIP3     9522     TIP3     OH2      OT      -0.834000       15.9994           0
     67961 TIP3     9522     TIP3     H1       HT       0.417000       1.00800           0
     67962 TIP3     9522     TIP3     H2       HT       0.417000       1.00800           0
     67963 TIP3     9523     TIP3     OH2      OT      -0.834000       15.9994           0
     67964 TIP3     9523     TIP3     H1       HT       0.417000       1.00800           0
     67965 TIP3     9523     TIP3     H2       HT       0.417000       1.00800           0
     67966 TIP3     9524     TIP3     OH2      OT      -0.834000       15.9994           0
     67967 TIP3     9524     TIP3     H1       HT       0.417000       1.00800           0
     67968 TIP3     9524     TIP3     H2       HT       0.417000       1.00800           0
     67969 TIP3     9525     TIP3     OH2      OT      -0.834000       15.9994           0
     67970 TIP3     9525     TIP3     H1       HT       0.417000       1.00800           0
     67971 TIP3     9525     TIP3     H2       HT       0.417000       1.00800           0
     67972 TIP3     9526     TIP3     OH2      OT      -0.834000       15.9994           0
     67973 TIP3     9526     TIP3     H1       HT       0.417000       1.00800           0
     67974 TIP3     9526     TIP3     H2       HT       0.417000       1.00800           0
     67975 TIP3     9527     TIP3     OH2      OT      -0.834000       15.9994           0
     67976 TIP3     9527     TIP3     H1       HT       0.417000       1.00800           0
     67977 TIP3     9527     TIP3     H2       HT       0.417000       1.00800           0
     67978 TIP3     9528     TIP3     OH2      OT      -0.834000       15.9994           0
     67979 TIP3     9528     TIP3     H1       HT       0.417000       1.00800           0
     67980 TIP3     9528     TIP3     H2       HT       0.417000       1.00800           0
     67981 TIP3     9529     TIP3     OH2      OT      -0.834000       15.9994           0
     67982 TIP3     9529     TIP3     H1       HT       0.417000       1.00800           0
     67983 TIP3     9529     TIP3     H2       HT       0.417000       1.00800           0
     67984 TIP3     9530     TIP3     OH2      OT      -0.834000       15.9994           0
     67985 TIP3     9530     TIP3     H1       HT       0.417000       1.00800           0
     67986 TIP3     9530     TIP3     H2       HT       0.417000       1.00800           0
     67987 TIP3     9531     TIP3     OH2      OT      -0.834000       15.9994           0
     67988 TIP3     9531     TIP3     H1       HT       0.417000       1.00800           0
     67989 TIP3     9531     TIP3     H2       HT       0.417000       1.00800           0
     67990 TIP3     9532     TIP3     OH2      OT      -0.834000       15.9994           0
     67991 TIP3     9532     TIP3     H1       HT       0.417000       1.00800           0
     67992 TIP3     9532     TIP3     H2       HT       0.417000       1.00800           0
     67993 TIP3     9533     TIP3     OH2      OT      -0.834000       15.9994           0
     67994 TIP3     9533     TIP3     H1       HT       0.417000       1.00800           0
     67995 TIP3     9533     TIP3     H2       HT       0.417000       1.00800           0
     67996 TIP3     9534     TIP3     OH2      OT      -0.834000       15.9994           0
     67997 TIP3     9534     TIP3     H1       HT       0.417000       1.00800           0
     67998 TIP3     9534     TIP3     H2       HT       0.417000       1.00800           0
     67999 TIP3     9535     TIP3     OH2      OT      -0.834000       15.9994           0
     68000 TIP3     9535     TIP3     H1       HT       0.417000       1.00800           0
     68001 TIP3     9535     TIP3     H2       HT       0.417000       1.00800           0
     68002 TIP3     9536     TIP3     OH2      OT      -0.834000       15.9994           0
     68003 TIP3     9536     TIP3     H1       HT       0.417000       1.00800           0
     68004 TIP3     9536     TIP3     H2       HT       0.417000       1.00800           0
     68005 TIP3     9537     TIP3     OH2      OT      -0.834000       15.9994           0
     68006 TIP3     9537     TIP3     H1       HT       0.417000       1.00800           0
     68007 TIP3     9537     TIP3     H2       HT       0.417000       1.00800           0
     68008 TIP3     9538     TIP3     OH2      OT      -0.834000       15.9994           0
     68009 TIP3     9538     TIP3     H1       HT       0.417000       1.00800           0
     68010 TIP3     9538     TIP3     H2       HT       0.417000       1.00800           0
     68011 TIP3     9539     TIP3     OH2      OT      -0.834000       15.9994           0
     68012 TIP3     9539     TIP3     H1       HT       0.417000       1.00800           0
     68013 TIP3     9539     TIP3     H2       HT       0.417000       1.00800           0
     68014 TIP3     9540     TIP3     OH2      OT      -0.834000       15.9994           0
     68015 TIP3     9540     TIP3     H1       HT       0.417000       1.00800           0
     68016 TIP3     9540     TIP3     H2       HT       0.417000       1.00800           0
     68017 TIP3     9541     TIP3     OH2      OT      -0.834000       15.9994           0
     68018 TIP3     9541     TIP3     H1       HT       0.417000       1.00800           0
     68019 TIP3     9541     TIP3     H2       HT       0.417000       1.00800           0
     68020 TIP3     9542     TIP3     OH2      OT      -0.834000       15.9994           0
     68021 TIP3     9542     TIP3     H1       HT       0.417000       1.00800           0
     68022 TIP3     9542     TIP3     H2       HT       0.417000       1.00800           0
     68023 TIP3     9543     TIP3     OH2      OT      -0.834000       15.9994           0
     68024 TIP3     9543     TIP3     H1       HT       0.417000       1.00800           0
     68025 TIP3     9543     TIP3     H2       HT       0.417000       1.00800           0
     68026 TIP3     9544     TIP3     OH2      OT      -0.834000       15.9994           0
     68027 TIP3     9544     TIP3     H1       HT       0.417000       1.00800           0
     68028 TIP3     9544     TIP3     H2       HT       0.417000       1.00800           0
     68029 TIP3     9545     TIP3     OH2      OT      -0.834000       15.9994           0
     68030 TIP3     9545     TIP3     H1       HT       0.417000       1.00800           0
     68031 TIP3     9545     TIP3     H2       HT       0.417000       1.00800           0
     68032 TIP3     9546     TIP3     OH2      OT      -0.834000       15.9994           0
     68033 TIP3     9546     TIP3     H1       HT       0.417000       1.00800           0
     68034 TIP3     9546     TIP3     H2       HT       0.417000       1.00800           0
     68035 TIP3     9547     TIP3     OH2      OT      -0.834000       15.9994           0
     68036 TIP3     9547     TIP3     H1       HT       0.417000       1.00800           0
     68037 TIP3     9547     TIP3     H2       HT       0.417000       1.00800           0
     68038 TIP3     9548     TIP3     OH2      OT      -0.834000       15.9994           0
     68039 TIP3     9548     TIP3     H1       HT       0.417000       1.00800           0
     68040 TIP3     9548     TIP3     H2       HT       0.417000       1.00800           0
     68041 TIP3     9549     TIP3     OH2      OT      -0.834000       15.9994           0
     68042 TIP3     9549     TIP3     H1       HT       0.417000       1.00800           0
     68043 TIP3     9549     TIP3     H2       HT       0.417000       1.00800           0
     68044 TIP3     9550     TIP3     OH2      OT      -0.834000       15.9994           0
     68045 TIP3     9550     TIP3     H1       HT       0.417000       1.00800           0
     68046 TIP3     9550     TIP3     H2       HT       0.417000       1.00800           0
     68047 TIP3     9551     TIP3     OH2      OT      -0.834000       15.9994           0
     68048 TIP3     9551     TIP3     H1       HT       0.417000       1.00800           0
     68049 TIP3     9551     TIP3     H2       HT       0.417000       1.00800           0
     68050 TIP3     9552     TIP3     OH2      OT      -0.834000       15.9994           0
     68051 TIP3     9552     TIP3     H1       HT       0.417000       1.00800           0
     68052 TIP3     9552     TIP3     H2       HT       0.417000       1.00800           0
     68053 TIP3     9553     TIP3     OH2      OT      -0.834000       15.9994           0
     68054 TIP3     9553     TIP3     H1       HT       0.417000       1.00800           0
     68055 TIP3     9553     TIP3     H2       HT       0.417000       1.00800           0
     68056 TIP3     9554     TIP3     OH2      OT      -0.834000       15.9994           0
     68057 TIP3     9554     TIP3     H1       HT       0.417000       1.00800           0
     68058 TIP3     9554     TIP3     H2       HT       0.417000       1.00800           0
     68059 TIP3     9555     TIP3     OH2      OT      -0.834000       15.9994           0
     68060 TIP3     9555     TIP3     H1       HT       0.417000       1.00800           0
     68061 TIP3     9555     TIP3     H2       HT       0.417000       1.00800           0
     68062 TIP3     9556     TIP3     OH2      OT      -0.834000       15.9994           0
     68063 TIP3     9556     TIP3     H1       HT       0.417000       1.00800           0
     68064 TIP3     9556     TIP3     H2       HT       0.417000       1.00800           0
     68065 TIP3     9557     TIP3     OH2      OT      -0.834000       15.9994           0
     68066 TIP3     9557     TIP3     H1       HT       0.417000       1.00800           0
     68067 TIP3     9557     TIP3     H2       HT       0.417000       1.00800           0
     68068 TIP3     9558     TIP3     OH2      OT      -0.834000       15.9994           0
     68069 TIP3     9558     TIP3     H1       HT       0.417000       1.00800           0
     68070 TIP3     9558     TIP3     H2       HT       0.417000       1.00800           0
     68071 TIP3     9559     TIP3     OH2      OT      -0.834000       15.9994           0
     68072 TIP3     9559     TIP3     H1       HT       0.417000       1.00800           0
     68073 TIP3     9559     TIP3     H2       HT       0.417000       1.00800           0
     68074 TIP3     9560     TIP3     OH2      OT      -0.834000       15.9994           0
     68075 TIP3     9560     TIP3     H1       HT       0.417000       1.00800           0
     68076 TIP3     9560     TIP3     H2       HT       0.417000       1.00800           0
     68077 TIP3     9561     TIP3     OH2      OT      -0.834000       15.9994           0
     68078 TIP3     9561     TIP3     H1       HT       0.417000       1.00800           0
     68079 TIP3     9561     TIP3     H2       HT       0.417000       1.00800           0
     68080 TIP3     9562     TIP3     OH2      OT      -0.834000       15.9994           0
     68081 TIP3     9562     TIP3     H1       HT       0.417000       1.00800           0
     68082 TIP3     9562     TIP3     H2       HT       0.417000       1.00800           0
     68083 TIP3     9563     TIP3     OH2      OT      -0.834000       15.9994           0
     68084 TIP3     9563     TIP3     H1       HT       0.417000       1.00800           0
     68085 TIP3     9563     TIP3     H2       HT       0.417000       1.00800           0
     68086 TIP3     9564     TIP3     OH2      OT      -0.834000       15.9994           0
     68087 TIP3     9564     TIP3     H1       HT       0.417000       1.00800           0
     68088 TIP3     9564     TIP3     H2       HT       0.417000       1.00800           0
     68089 TIP3     9565     TIP3     OH2      OT      -0.834000       15.9994           0
     68090 TIP3     9565     TIP3     H1       HT       0.417000       1.00800           0
     68091 TIP3     9565     TIP3     H2       HT       0.417000       1.00800           0
     68092 TIP3     9566     TIP3     OH2      OT      -0.834000       15.9994           0
     68093 TIP3     9566     TIP3     H1       HT       0.417000       1.00800           0
     68094 TIP3     9566     TIP3     H2       HT       0.417000       1.00800           0
     68095 TIP3     9567     TIP3     OH2      OT      -0.834000       15.9994           0
     68096 TIP3     9567     TIP3     H1       HT       0.417000       1.00800           0
     68097 TIP3     9567     TIP3     H2       HT       0.417000       1.00800           0
     68098 TIP3     9568     TIP3     OH2      OT      -0.834000       15.9994           0
     68099 TIP3     9568     TIP3     H1       HT       0.417000       1.00800           0
     68100 TIP3     9568     TIP3     H2       HT       0.417000       1.00800           0
     68101 TIP3     9569     TIP3     OH2      OT      -0.834000       15.9994           0
     68102 TIP3     9569     TIP3     H1       HT       0.417000       1.00800           0
     68103 TIP3     9569     TIP3     H2       HT       0.417000       1.00800           0
     68104 TIP3     9570     TIP3     OH2      OT      -0.834000       15.9994           0
     68105 TIP3     9570     TIP3     H1       HT       0.417000       1.00800           0
     68106 TIP3     9570     TIP3     H2       HT       0.417000       1.00800           0
     68107 TIP3     9571     TIP3     OH2      OT      -0.834000       15.9994           0
     68108 TIP3     9571     TIP3     H1       HT       0.417000       1.00800           0
     68109 TIP3     9571     TIP3     H2       HT       0.417000       1.00800           0
     68110 TIP3     9572     TIP3     OH2      OT      -0.834000       15.9994           0
     68111 TIP3     9572     TIP3     H1       HT       0.417000       1.00800           0
     68112 TIP3     9572     TIP3     H2       HT       0.417000       1.00800           0
     68113 TIP3     9573     TIP3     OH2      OT      -0.834000       15.9994           0
     68114 TIP3     9573     TIP3     H1       HT       0.417000       1.00800           0
     68115 TIP3     9573     TIP3     H2       HT       0.417000       1.00800           0
     68116 TIP3     9574     TIP3     OH2      OT      -0.834000       15.9994           0
     68117 TIP3     9574     TIP3     H1       HT       0.417000       1.00800           0
     68118 TIP3     9574     TIP3     H2       HT       0.417000       1.00800           0
     68119 TIP3     9575     TIP3     OH2      OT      -0.834000       15.9994           0
     68120 TIP3     9575     TIP3     H1       HT       0.417000       1.00800           0
     68121 TIP3     9575     TIP3     H2       HT       0.417000       1.00800           0
     68122 TIP3     9576     TIP3     OH2      OT      -0.834000       15.9994           0
     68123 TIP3     9576     TIP3     H1       HT       0.417000       1.00800           0
     68124 TIP3     9576     TIP3     H2       HT       0.417000       1.00800           0
     68125 TIP3     9577     TIP3     OH2      OT      -0.834000       15.9994           0
     68126 TIP3     9577     TIP3     H1       HT       0.417000       1.00800           0
     68127 TIP3     9577     TIP3     H2       HT       0.417000       1.00800           0
     68128 TIP3     9578     TIP3     OH2      OT      -0.834000       15.9994           0
     68129 TIP3     9578     TIP3     H1       HT       0.417000       1.00800           0
     68130 TIP3     9578     TIP3     H2       HT       0.417000       1.00800           0
     68131 TIP3     9579     TIP3     OH2      OT      -0.834000       15.9994           0
     68132 TIP3     9579     TIP3     H1       HT       0.417000       1.00800           0
     68133 TIP3     9579     TIP3     H2       HT       0.417000       1.00800           0
     68134 TIP3     9580     TIP3     OH2      OT      -0.834000       15.9994           0
     68135 TIP3     9580     TIP3     H1       HT       0.417000       1.00800           0
     68136 TIP3     9580     TIP3     H2       HT       0.417000       1.00800           0
     68137 TIP3     9581     TIP3     OH2      OT      -0.834000       15.9994           0
     68138 TIP3     9581     TIP3     H1       HT       0.417000       1.00800           0
     68139 TIP3     9581     TIP3     H2       HT       0.417000       1.00800           0
     68140 TIP3     9582     TIP3     OH2      OT      -0.834000       15.9994           0
     68141 TIP3     9582     TIP3     H1       HT       0.417000       1.00800           0
     68142 TIP3     9582     TIP3     H2       HT       0.417000       1.00800           0
     68143 TIP3     9583     TIP3     OH2      OT      -0.834000       15.9994           0
     68144 TIP3     9583     TIP3     H1       HT       0.417000       1.00800           0
     68145 TIP3     9583     TIP3     H2       HT       0.417000       1.00800           0
     68146 TIP3     9584     TIP3     OH2      OT      -0.834000       15.9994           0
     68147 TIP3     9584     TIP3     H1       HT       0.417000       1.00800           0
     68148 TIP3     9584     TIP3     H2       HT       0.417000       1.00800           0
     68149 TIP3     9585     TIP3     OH2      OT      -0.834000       15.9994           0
     68150 TIP3     9585     TIP3     H1       HT       0.417000       1.00800           0
     68151 TIP3     9585     TIP3     H2       HT       0.417000       1.00800           0
     68152 TIP3     9586     TIP3     OH2      OT      -0.834000       15.9994           0
     68153 TIP3     9586     TIP3     H1       HT       0.417000       1.00800           0
     68154 TIP3     9586     TIP3     H2       HT       0.417000       1.00800           0
     68155 TIP3     9587     TIP3     OH2      OT      -0.834000       15.9994           0
     68156 TIP3     9587     TIP3     H1       HT       0.417000       1.00800           0
     68157 TIP3     9587     TIP3     H2       HT       0.417000       1.00800           0
     68158 TIP3     9588     TIP3     OH2      OT      -0.834000       15.9994           0
     68159 TIP3     9588     TIP3     H1       HT       0.417000       1.00800           0
     68160 TIP3     9588     TIP3     H2       HT       0.417000       1.00800           0
     68161 TIP3     9589     TIP3     OH2      OT      -0.834000       15.9994           0
     68162 TIP3     9589     TIP3     H1       HT       0.417000       1.00800           0
     68163 TIP3     9589     TIP3     H2       HT       0.417000       1.00800           0
     68164 TIP3     9590     TIP3     OH2      OT      -0.834000       15.9994           0
     68165 TIP3     9590     TIP3     H1       HT       0.417000       1.00800           0
     68166 TIP3     9590     TIP3     H2       HT       0.417000       1.00800           0
     68167 TIP3     9591     TIP3     OH2      OT      -0.834000       15.9994           0
     68168 TIP3     9591     TIP3     H1       HT       0.417000       1.00800           0
     68169 TIP3     9591     TIP3     H2       HT       0.417000       1.00800           0
     68170 TIP3     9592     TIP3     OH2      OT      -0.834000       15.9994           0
     68171 TIP3     9592     TIP3     H1       HT       0.417000       1.00800           0
     68172 TIP3     9592     TIP3     H2       HT       0.417000       1.00800           0
     68173 TIP3     9593     TIP3     OH2      OT      -0.834000       15.9994           0
     68174 TIP3     9593     TIP3     H1       HT       0.417000       1.00800           0
     68175 TIP3     9593     TIP3     H2       HT       0.417000       1.00800           0
     68176 TIP3     9594     TIP3     OH2      OT      -0.834000       15.9994           0
     68177 TIP3     9594     TIP3     H1       HT       0.417000       1.00800           0
     68178 TIP3     9594     TIP3     H2       HT       0.417000       1.00800           0
     68179 TIP3     9595     TIP3     OH2      OT      -0.834000       15.9994           0
     68180 TIP3     9595     TIP3     H1       HT       0.417000       1.00800           0
     68181 TIP3     9595     TIP3     H2       HT       0.417000       1.00800           0
     68182 TIP3     9596     TIP3     OH2      OT      -0.834000       15.9994           0
     68183 TIP3     9596     TIP3     H1       HT       0.417000       1.00800           0
     68184 TIP3     9596     TIP3     H2       HT       0.417000       1.00800           0
     68185 TIP3     9597     TIP3     OH2      OT      -0.834000       15.9994           0
     68186 TIP3     9597     TIP3     H1       HT       0.417000       1.00800           0
     68187 TIP3     9597     TIP3     H2       HT       0.417000       1.00800           0
     68188 TIP3     9598     TIP3     OH2      OT      -0.834000       15.9994           0
     68189 TIP3     9598     TIP3     H1       HT       0.417000       1.00800           0
     68190 TIP3     9598     TIP3     H2       HT       0.417000       1.00800           0
     68191 TIP3     9599     TIP3     OH2      OT      -0.834000       15.9994           0
     68192 TIP3     9599     TIP3     H1       HT       0.417000       1.00800           0
     68193 TIP3     9599     TIP3     H2       HT       0.417000       1.00800           0
     68194 TIP3     9600     TIP3     OH2      OT      -0.834000       15.9994           0
     68195 TIP3     9600     TIP3     H1       HT       0.417000       1.00800           0
     68196 TIP3     9600     TIP3     H2       HT       0.417000       1.00800           0
     68197 TIP3     9601     TIP3     OH2      OT      -0.834000       15.9994           0
     68198 TIP3     9601     TIP3     H1       HT       0.417000       1.00800           0
     68199 TIP3     9601     TIP3     H2       HT       0.417000       1.00800           0
     68200 TIP3     9602     TIP3     OH2      OT      -0.834000       15.9994           0
     68201 TIP3     9602     TIP3     H1       HT       0.417000       1.00800           0
     68202 TIP3     9602     TIP3     H2       HT       0.417000       1.00800           0
     68203 TIP3     9603     TIP3     OH2      OT      -0.834000       15.9994           0
     68204 TIP3     9603     TIP3     H1       HT       0.417000       1.00800           0
     68205 TIP3     9603     TIP3     H2       HT       0.417000       1.00800           0
     68206 TIP3     9604     TIP3     OH2      OT      -0.834000       15.9994           0
     68207 TIP3     9604     TIP3     H1       HT       0.417000       1.00800           0
     68208 TIP3     9604     TIP3     H2       HT       0.417000       1.00800           0
     68209 TIP3     9605     TIP3     OH2      OT      -0.834000       15.9994           0
     68210 TIP3     9605     TIP3     H1       HT       0.417000       1.00800           0
     68211 TIP3     9605     TIP3     H2       HT       0.417000       1.00800           0
     68212 TIP3     9606     TIP3     OH2      OT      -0.834000       15.9994           0
     68213 TIP3     9606     TIP3     H1       HT       0.417000       1.00800           0
     68214 TIP3     9606     TIP3     H2       HT       0.417000       1.00800           0
     68215 TIP3     9607     TIP3     OH2      OT      -0.834000       15.9994           0
     68216 TIP3     9607     TIP3     H1       HT       0.417000       1.00800           0
     68217 TIP3     9607     TIP3     H2       HT       0.417000       1.00800           0
     68218 TIP3     9608     TIP3     OH2      OT      -0.834000       15.9994           0
     68219 TIP3     9608     TIP3     H1       HT       0.417000       1.00800           0
     68220 TIP3     9608     TIP3     H2       HT       0.417000       1.00800           0
     68221 TIP3     9609     TIP3     OH2      OT      -0.834000       15.9994           0
     68222 TIP3     9609     TIP3     H1       HT       0.417000       1.00800           0
     68223 TIP3     9609     TIP3     H2       HT       0.417000       1.00800           0
     68224 TIP3     9610     TIP3     OH2      OT      -0.834000       15.9994           0
     68225 TIP3     9610     TIP3     H1       HT       0.417000       1.00800           0
     68226 TIP3     9610     TIP3     H2       HT       0.417000       1.00800           0
     68227 TIP3     9611     TIP3     OH2      OT      -0.834000       15.9994           0
     68228 TIP3     9611     TIP3     H1       HT       0.417000       1.00800           0
     68229 TIP3     9611     TIP3     H2       HT       0.417000       1.00800           0
     68230 TIP3     9612     TIP3     OH2      OT      -0.834000       15.9994           0
     68231 TIP3     9612     TIP3     H1       HT       0.417000       1.00800           0
     68232 TIP3     9612     TIP3     H2       HT       0.417000       1.00800           0
     68233 TIP3     9613     TIP3     OH2      OT      -0.834000       15.9994           0
     68234 TIP3     9613     TIP3     H1       HT       0.417000       1.00800           0
     68235 TIP3     9613     TIP3     H2       HT       0.417000       1.00800           0
     68236 TIP3     9614     TIP3     OH2      OT      -0.834000       15.9994           0
     68237 TIP3     9614     TIP3     H1       HT       0.417000       1.00800           0
     68238 TIP3     9614     TIP3     H2       HT       0.417000       1.00800           0
     68239 TIP3     9615     TIP3     OH2      OT      -0.834000       15.9994           0
     68240 TIP3     9615     TIP3     H1       HT       0.417000       1.00800           0
     68241 TIP3     9615     TIP3     H2       HT       0.417000       1.00800           0
     68242 TIP3     9616     TIP3     OH2      OT      -0.834000       15.9994           0
     68243 TIP3     9616     TIP3     H1       HT       0.417000       1.00800           0
     68244 TIP3     9616     TIP3     H2       HT       0.417000       1.00800           0
     68245 TIP3     9617     TIP3     OH2      OT      -0.834000       15.9994           0
     68246 TIP3     9617     TIP3     H1       HT       0.417000       1.00800           0
     68247 TIP3     9617     TIP3     H2       HT       0.417000       1.00800           0
     68248 TIP3     9618     TIP3     OH2      OT      -0.834000       15.9994           0
     68249 TIP3     9618     TIP3     H1       HT       0.417000       1.00800           0
     68250 TIP3     9618     TIP3     H2       HT       0.417000       1.00800           0
     68251 TIP3     9619     TIP3     OH2      OT      -0.834000       15.9994           0
     68252 TIP3     9619     TIP3     H1       HT       0.417000       1.00800           0
     68253 TIP3     9619     TIP3     H2       HT       0.417000       1.00800           0
     68254 TIP3     9620     TIP3     OH2      OT      -0.834000       15.9994           0
     68255 TIP3     9620     TIP3     H1       HT       0.417000       1.00800           0
     68256 TIP3     9620     TIP3     H2       HT       0.417000       1.00800           0
     68257 TIP3     9621     TIP3     OH2      OT      -0.834000       15.9994           0
     68258 TIP3     9621     TIP3     H1       HT       0.417000       1.00800           0
     68259 TIP3     9621     TIP3     H2       HT       0.417000       1.00800           0
     68260 TIP3     9622     TIP3     OH2      OT      -0.834000       15.9994           0
     68261 TIP3     9622     TIP3     H1       HT       0.417000       1.00800           0
     68262 TIP3     9622     TIP3     H2       HT       0.417000       1.00800           0
     68263 TIP3     9623     TIP3     OH2      OT      -0.834000       15.9994           0
     68264 TIP3     9623     TIP3     H1       HT       0.417000       1.00800           0
     68265 TIP3     9623     TIP3     H2       HT       0.417000       1.00800           0
     68266 TIP3     9624     TIP3     OH2      OT      -0.834000       15.9994           0
     68267 TIP3     9624     TIP3     H1       HT       0.417000       1.00800           0
     68268 TIP3     9624     TIP3     H2       HT       0.417000       1.00800           0
     68269 TIP3     9625     TIP3     OH2      OT      -0.834000       15.9994           0
     68270 TIP3     9625     TIP3     H1       HT       0.417000       1.00800           0
     68271 TIP3     9625     TIP3     H2       HT       0.417000       1.00800           0
     68272 TIP3     9626     TIP3     OH2      OT      -0.834000       15.9994           0
     68273 TIP3     9626     TIP3     H1       HT       0.417000       1.00800           0
     68274 TIP3     9626     TIP3     H2       HT       0.417000       1.00800           0
     68275 TIP3     9627     TIP3     OH2      OT      -0.834000       15.9994           0
     68276 TIP3     9627     TIP3     H1       HT       0.417000       1.00800           0
     68277 TIP3     9627     TIP3     H2       HT       0.417000       1.00800           0
     68278 TIP3     9628     TIP3     OH2      OT      -0.834000       15.9994           0
     68279 TIP3     9628     TIP3     H1       HT       0.417000       1.00800           0
     68280 TIP3     9628     TIP3     H2       HT       0.417000       1.00800           0
     68281 TIP3     9629     TIP3     OH2      OT      -0.834000       15.9994           0
     68282 TIP3     9629     TIP3     H1       HT       0.417000       1.00800           0
     68283 TIP3     9629     TIP3     H2       HT       0.417000       1.00800           0
     68284 TIP3     9630     TIP3     OH2      OT      -0.834000       15.9994           0
     68285 TIP3     9630     TIP3     H1       HT       0.417000       1.00800           0
     68286 TIP3     9630     TIP3     H2       HT       0.417000       1.00800           0
     68287 TIP3     9631     TIP3     OH2      OT      -0.834000       15.9994           0
     68288 TIP3     9631     TIP3     H1       HT       0.417000       1.00800           0
     68289 TIP3     9631     TIP3     H2       HT       0.417000       1.00800           0
     68290 TIP3     9632     TIP3     OH2      OT      -0.834000       15.9994           0
     68291 TIP3     9632     TIP3     H1       HT       0.417000       1.00800           0
     68292 TIP3     9632     TIP3     H2       HT       0.417000       1.00800           0
     68293 TIP3     9633     TIP3     OH2      OT      -0.834000       15.9994           0
     68294 TIP3     9633     TIP3     H1       HT       0.417000       1.00800           0
     68295 TIP3     9633     TIP3     H2       HT       0.417000       1.00800           0
     68296 TIP3     9634     TIP3     OH2      OT      -0.834000       15.9994           0
     68297 TIP3     9634     TIP3     H1       HT       0.417000       1.00800           0
     68298 TIP3     9634     TIP3     H2       HT       0.417000       1.00800           0
     68299 TIP3     9635     TIP3     OH2      OT      -0.834000       15.9994           0
     68300 TIP3     9635     TIP3     H1       HT       0.417000       1.00800           0
     68301 TIP3     9635     TIP3     H2       HT       0.417000       1.00800           0
     68302 TIP3     9636     TIP3     OH2      OT      -0.834000       15.9994           0
     68303 TIP3     9636     TIP3     H1       HT       0.417000       1.00800           0
     68304 TIP3     9636     TIP3     H2       HT       0.417000       1.00800           0
     68305 TIP3     9637     TIP3     OH2      OT      -0.834000       15.9994           0
     68306 TIP3     9637     TIP3     H1       HT       0.417000       1.00800           0
     68307 TIP3     9637     TIP3     H2       HT       0.417000       1.00800           0
     68308 TIP3     9638     TIP3     OH2      OT      -0.834000       15.9994           0
     68309 TIP3     9638     TIP3     H1       HT       0.417000       1.00800           0
     68310 TIP3     9638     TIP3     H2       HT       0.417000       1.00800           0
     68311 TIP3     9639     TIP3     OH2      OT      -0.834000       15.9994           0
     68312 TIP3     9639     TIP3     H1       HT       0.417000       1.00800           0
     68313 TIP3     9639     TIP3     H2       HT       0.417000       1.00800           0
     68314 TIP3     9640     TIP3     OH2      OT      -0.834000       15.9994           0
     68315 TIP3     9640     TIP3     H1       HT       0.417000       1.00800           0
     68316 TIP3     9640     TIP3     H2       HT       0.417000       1.00800           0
     68317 TIP3     9641     TIP3     OH2      OT      -0.834000       15.9994           0
     68318 TIP3     9641     TIP3     H1       HT       0.417000       1.00800           0
     68319 TIP3     9641     TIP3     H2       HT       0.417000       1.00800           0
     68320 TIP3     9642     TIP3     OH2      OT      -0.834000       15.9994           0
     68321 TIP3     9642     TIP3     H1       HT       0.417000       1.00800           0
     68322 TIP3     9642     TIP3     H2       HT       0.417000       1.00800           0
     68323 TIP3     9643     TIP3     OH2      OT      -0.834000       15.9994           0
     68324 TIP3     9643     TIP3     H1       HT       0.417000       1.00800           0
     68325 TIP3     9643     TIP3     H2       HT       0.417000       1.00800           0
     68326 TIP3     9644     TIP3     OH2      OT      -0.834000       15.9994           0
     68327 TIP3     9644     TIP3     H1       HT       0.417000       1.00800           0
     68328 TIP3     9644     TIP3     H2       HT       0.417000       1.00800           0
     68329 TIP3     9645     TIP3     OH2      OT      -0.834000       15.9994           0
     68330 TIP3     9645     TIP3     H1       HT       0.417000       1.00800           0
     68331 TIP3     9645     TIP3     H2       HT       0.417000       1.00800           0
     68332 TIP3     9646     TIP3     OH2      OT      -0.834000       15.9994           0
     68333 TIP3     9646     TIP3     H1       HT       0.417000       1.00800           0
     68334 TIP3     9646     TIP3     H2       HT       0.417000       1.00800           0
     68335 TIP3     9647     TIP3     OH2      OT      -0.834000       15.9994           0
     68336 TIP3     9647     TIP3     H1       HT       0.417000       1.00800           0
     68337 TIP3     9647     TIP3     H2       HT       0.417000       1.00800           0
     68338 TIP3     9648     TIP3     OH2      OT      -0.834000       15.9994           0
     68339 TIP3     9648     TIP3     H1       HT       0.417000       1.00800           0
     68340 TIP3     9648     TIP3     H2       HT       0.417000       1.00800           0
     68341 TIP3     9649     TIP3     OH2      OT      -0.834000       15.9994           0
     68342 TIP3     9649     TIP3     H1       HT       0.417000       1.00800           0
     68343 TIP3     9649     TIP3     H2       HT       0.417000       1.00800           0
     68344 TIP3     9650     TIP3     OH2      OT      -0.834000       15.9994           0
     68345 TIP3     9650     TIP3     H1       HT       0.417000       1.00800           0
     68346 TIP3     9650     TIP3     H2       HT       0.417000       1.00800           0
     68347 TIP3     9651     TIP3     OH2      OT      -0.834000       15.9994           0
     68348 TIP3     9651     TIP3     H1       HT       0.417000       1.00800           0
     68349 TIP3     9651     TIP3     H2       HT       0.417000       1.00800           0
     68350 TIP3     9652     TIP3     OH2      OT      -0.834000       15.9994           0
     68351 TIP3     9652     TIP3     H1       HT       0.417000       1.00800           0
     68352 TIP3     9652     TIP3     H2       HT       0.417000       1.00800           0
     68353 TIP3     9653     TIP3     OH2      OT      -0.834000       15.9994           0
     68354 TIP3     9653     TIP3     H1       HT       0.417000       1.00800           0
     68355 TIP3     9653     TIP3     H2       HT       0.417000       1.00800           0
     68356 TIP3     9654     TIP3     OH2      OT      -0.834000       15.9994           0
     68357 TIP3     9654     TIP3     H1       HT       0.417000       1.00800           0
     68358 TIP3     9654     TIP3     H2       HT       0.417000       1.00800           0
     68359 TIP3     9655     TIP3     OH2      OT      -0.834000       15.9994           0
     68360 TIP3     9655     TIP3     H1       HT       0.417000       1.00800           0
     68361 TIP3     9655     TIP3     H2       HT       0.417000       1.00800           0
     68362 TIP3     9656     TIP3     OH2      OT      -0.834000       15.9994           0
     68363 TIP3     9656     TIP3     H1       HT       0.417000       1.00800           0
     68364 TIP3     9656     TIP3     H2       HT       0.417000       1.00800           0
     68365 TIP3     9657     TIP3     OH2      OT      -0.834000       15.9994           0
     68366 TIP3     9657     TIP3     H1       HT       0.417000       1.00800           0
     68367 TIP3     9657     TIP3     H2       HT       0.417000       1.00800           0
     68368 TIP3     9658     TIP3     OH2      OT      -0.834000       15.9994           0
     68369 TIP3     9658     TIP3     H1       HT       0.417000       1.00800           0
     68370 TIP3     9658     TIP3     H2       HT       0.417000       1.00800           0
     68371 TIP3     9659     TIP3     OH2      OT      -0.834000       15.9994           0
     68372 TIP3     9659     TIP3     H1       HT       0.417000       1.00800           0
     68373 TIP3     9659     TIP3     H2       HT       0.417000       1.00800           0
     68374 TIP3     9660     TIP3     OH2      OT      -0.834000       15.9994           0
     68375 TIP3     9660     TIP3     H1       HT       0.417000       1.00800           0
     68376 TIP3     9660     TIP3     H2       HT       0.417000       1.00800           0
     68377 TIP3     9661     TIP3     OH2      OT      -0.834000       15.9994           0
     68378 TIP3     9661     TIP3     H1       HT       0.417000       1.00800           0
     68379 TIP3     9661     TIP3     H2       HT       0.417000       1.00800           0
     68380 TIP3     9662     TIP3     OH2      OT      -0.834000       15.9994           0
     68381 TIP3     9662     TIP3     H1       HT       0.417000       1.00800           0
     68382 TIP3     9662     TIP3     H2       HT       0.417000       1.00800           0
     68383 TIP3     9663     TIP3     OH2      OT      -0.834000       15.9994           0
     68384 TIP3     9663     TIP3     H1       HT       0.417000       1.00800           0
     68385 TIP3     9663     TIP3     H2       HT       0.417000       1.00800           0
     68386 TIP3     9664     TIP3     OH2      OT      -0.834000       15.9994           0
     68387 TIP3     9664     TIP3     H1       HT       0.417000       1.00800           0
     68388 TIP3     9664     TIP3     H2       HT       0.417000       1.00800           0
     68389 TIP3     9665     TIP3     OH2      OT      -0.834000       15.9994           0
     68390 TIP3     9665     TIP3     H1       HT       0.417000       1.00800           0
     68391 TIP3     9665     TIP3     H2       HT       0.417000       1.00800           0
     68392 TIP3     9666     TIP3     OH2      OT      -0.834000       15.9994           0
     68393 TIP3     9666     TIP3     H1       HT       0.417000       1.00800           0
     68394 TIP3     9666     TIP3     H2       HT       0.417000       1.00800           0
     68395 TIP3     9667     TIP3     OH2      OT      -0.834000       15.9994           0
     68396 TIP3     9667     TIP3     H1       HT       0.417000       1.00800           0
     68397 TIP3     9667     TIP3     H2       HT       0.417000       1.00800           0
     68398 TIP3     9668     TIP3     OH2      OT      -0.834000       15.9994           0
     68399 TIP3     9668     TIP3     H1       HT       0.417000       1.00800           0
     68400 TIP3     9668     TIP3     H2       HT       0.417000       1.00800           0
     68401 TIP3     9669     TIP3     OH2      OT      -0.834000       15.9994           0
     68402 TIP3     9669     TIP3     H1       HT       0.417000       1.00800           0
     68403 TIP3     9669     TIP3     H2       HT       0.417000       1.00800           0
     68404 TIP3     9670     TIP3     OH2      OT      -0.834000       15.9994           0
     68405 TIP3     9670     TIP3     H1       HT       0.417000       1.00800           0
     68406 TIP3     9670     TIP3     H2       HT       0.417000       1.00800           0
     68407 TIP3     9671     TIP3     OH2      OT      -0.834000       15.9994           0
     68408 TIP3     9671     TIP3     H1       HT       0.417000       1.00800           0
     68409 TIP3     9671     TIP3     H2       HT       0.417000       1.00800           0
     68410 TIP3     9672     TIP3     OH2      OT      -0.834000       15.9994           0
     68411 TIP3     9672     TIP3     H1       HT       0.417000       1.00800           0
     68412 TIP3     9672     TIP3     H2       HT       0.417000       1.00800           0
     68413 TIP3     9673     TIP3     OH2      OT      -0.834000       15.9994           0
     68414 TIP3     9673     TIP3     H1       HT       0.417000       1.00800           0
     68415 TIP3     9673     TIP3     H2       HT       0.417000       1.00800           0
     68416 TIP3     9674     TIP3     OH2      OT      -0.834000       15.9994           0
     68417 TIP3     9674     TIP3     H1       HT       0.417000       1.00800           0
     68418 TIP3     9674     TIP3     H2       HT       0.417000       1.00800           0
     68419 TIP3     9675     TIP3     OH2      OT      -0.834000       15.9994           0
     68420 TIP3     9675     TIP3     H1       HT       0.417000       1.00800           0
     68421 TIP3     9675     TIP3     H2       HT       0.417000       1.00800           0
     68422 TIP3     9676     TIP3     OH2      OT      -0.834000       15.9994           0
     68423 TIP3     9676     TIP3     H1       HT       0.417000       1.00800           0
     68424 TIP3     9676     TIP3     H2       HT       0.417000       1.00800           0
     68425 TIP3     9677     TIP3     OH2      OT      -0.834000       15.9994           0
     68426 TIP3     9677     TIP3     H1       HT       0.417000       1.00800           0
     68427 TIP3     9677     TIP3     H2       HT       0.417000       1.00800           0
     68428 TIP3     9678     TIP3     OH2      OT      -0.834000       15.9994           0
     68429 TIP3     9678     TIP3     H1       HT       0.417000       1.00800           0
     68430 TIP3     9678     TIP3     H2       HT       0.417000       1.00800           0
     68431 TIP3     9679     TIP3     OH2      OT      -0.834000       15.9994           0
     68432 TIP3     9679     TIP3     H1       HT       0.417000       1.00800           0
     68433 TIP3     9679     TIP3     H2       HT       0.417000       1.00800           0
     68434 TIP3     9680     TIP3     OH2      OT      -0.834000       15.9994           0
     68435 TIP3     9680     TIP3     H1       HT       0.417000       1.00800           0
     68436 TIP3     9680     TIP3     H2       HT       0.417000       1.00800           0
     68437 TIP3     9681     TIP3     OH2      OT      -0.834000       15.9994           0
     68438 TIP3     9681     TIP3     H1       HT       0.417000       1.00800           0
     68439 TIP3     9681     TIP3     H2       HT       0.417000       1.00800           0
     68440 TIP3     9682     TIP3     OH2      OT      -0.834000       15.9994           0
     68441 TIP3     9682     TIP3     H1       HT       0.417000       1.00800           0
     68442 TIP3     9682     TIP3     H2       HT       0.417000       1.00800           0
     68443 TIP3     9683     TIP3     OH2      OT      -0.834000       15.9994           0
     68444 TIP3     9683     TIP3     H1       HT       0.417000       1.00800           0
     68445 TIP3     9683     TIP3     H2       HT       0.417000       1.00800           0
     68446 TIP3     9684     TIP3     OH2      OT      -0.834000       15.9994           0
     68447 TIP3     9684     TIP3     H1       HT       0.417000       1.00800           0
     68448 TIP3     9684     TIP3     H2       HT       0.417000       1.00800           0
     68449 TIP3     9685     TIP3     OH2      OT      -0.834000       15.9994           0
     68450 TIP3     9685     TIP3     H1       HT       0.417000       1.00800           0
     68451 TIP3     9685     TIP3     H2       HT       0.417000       1.00800           0
     68452 TIP3     9686     TIP3     OH2      OT      -0.834000       15.9994           0
     68453 TIP3     9686     TIP3     H1       HT       0.417000       1.00800           0
     68454 TIP3     9686     TIP3     H2       HT       0.417000       1.00800           0
     68455 TIP3     9687     TIP3     OH2      OT      -0.834000       15.9994           0
     68456 TIP3     9687     TIP3     H1       HT       0.417000       1.00800           0
     68457 TIP3     9687     TIP3     H2       HT       0.417000       1.00800           0
     68458 TIP3     9688     TIP3     OH2      OT      -0.834000       15.9994           0
     68459 TIP3     9688     TIP3     H1       HT       0.417000       1.00800           0
     68460 TIP3     9688     TIP3     H2       HT       0.417000       1.00800           0
     68461 TIP3     9689     TIP3     OH2      OT      -0.834000       15.9994           0
     68462 TIP3     9689     TIP3     H1       HT       0.417000       1.00800           0
     68463 TIP3     9689     TIP3     H2       HT       0.417000       1.00800           0
     68464 TIP3     9690     TIP3     OH2      OT      -0.834000       15.9994           0
     68465 TIP3     9690     TIP3     H1       HT       0.417000       1.00800           0
     68466 TIP3     9690     TIP3     H2       HT       0.417000       1.00800           0
     68467 TIP3     9691     TIP3     OH2      OT      -0.834000       15.9994           0
     68468 TIP3     9691     TIP3     H1       HT       0.417000       1.00800           0
     68469 TIP3     9691     TIP3     H2       HT       0.417000       1.00800           0
     68470 TIP3     9692     TIP3     OH2      OT      -0.834000       15.9994           0
     68471 TIP3     9692     TIP3     H1       HT       0.417000       1.00800           0
     68472 TIP3     9692     TIP3     H2       HT       0.417000       1.00800           0
     68473 TIP3     9693     TIP3     OH2      OT      -0.834000       15.9994           0
     68474 TIP3     9693     TIP3     H1       HT       0.417000       1.00800           0
     68475 TIP3     9693     TIP3     H2       HT       0.417000       1.00800           0
     68476 TIP3     9694     TIP3     OH2      OT      -0.834000       15.9994           0
     68477 TIP3     9694     TIP3     H1       HT       0.417000       1.00800           0
     68478 TIP3     9694     TIP3     H2       HT       0.417000       1.00800           0
     68479 TIP3     9695     TIP3     OH2      OT      -0.834000       15.9994           0
     68480 TIP3     9695     TIP3     H1       HT       0.417000       1.00800           0
     68481 TIP3     9695     TIP3     H2       HT       0.417000       1.00800           0
     68482 TIP3     9696     TIP3     OH2      OT      -0.834000       15.9994           0
     68483 TIP3     9696     TIP3     H1       HT       0.417000       1.00800           0
     68484 TIP3     9696     TIP3     H2       HT       0.417000       1.00800           0
     68485 TIP3     9697     TIP3     OH2      OT      -0.834000       15.9994           0
     68486 TIP3     9697     TIP3     H1       HT       0.417000       1.00800           0
     68487 TIP3     9697     TIP3     H2       HT       0.417000       1.00800           0
     68488 TIP3     9698     TIP3     OH2      OT      -0.834000       15.9994           0
     68489 TIP3     9698     TIP3     H1       HT       0.417000       1.00800           0
     68490 TIP3     9698     TIP3     H2       HT       0.417000       1.00800           0
     68491 TIP3     9699     TIP3     OH2      OT      -0.834000       15.9994           0
     68492 TIP3     9699     TIP3     H1       HT       0.417000       1.00800           0
     68493 TIP3     9699     TIP3     H2       HT       0.417000       1.00800           0
     68494 TIP3     9700     TIP3     OH2      OT      -0.834000       15.9994           0
     68495 TIP3     9700     TIP3     H1       HT       0.417000       1.00800           0
     68496 TIP3     9700     TIP3     H2       HT       0.417000       1.00800           0
     68497 TIP3     9701     TIP3     OH2      OT      -0.834000       15.9994           0
     68498 TIP3     9701     TIP3     H1       HT       0.417000       1.00800           0
     68499 TIP3     9701     TIP3     H2       HT       0.417000       1.00800           0
     68500 TIP3     9702     TIP3     OH2      OT      -0.834000       15.9994           0
     68501 TIP3     9702     TIP3     H1       HT       0.417000       1.00800           0
     68502 TIP3     9702     TIP3     H2       HT       0.417000       1.00800           0
     68503 TIP3     9703     TIP3     OH2      OT      -0.834000       15.9994           0
     68504 TIP3     9703     TIP3     H1       HT       0.417000       1.00800           0
     68505 TIP3     9703     TIP3     H2       HT       0.417000       1.00800           0
     68506 TIP3     9704     TIP3     OH2      OT      -0.834000       15.9994           0
     68507 TIP3     9704     TIP3     H1       HT       0.417000       1.00800           0
     68508 TIP3     9704     TIP3     H2       HT       0.417000       1.00800           0
     68509 TIP3     9705     TIP3     OH2      OT      -0.834000       15.9994           0
     68510 TIP3     9705     TIP3     H1       HT       0.417000       1.00800           0
     68511 TIP3     9705     TIP3     H2       HT       0.417000       1.00800           0
     68512 TIP3     9706     TIP3     OH2      OT      -0.834000       15.9994           0
     68513 TIP3     9706     TIP3     H1       HT       0.417000       1.00800           0
     68514 TIP3     9706     TIP3     H2       HT       0.417000       1.00800           0
     68515 TIP3     9707     TIP3     OH2      OT      -0.834000       15.9994           0
     68516 TIP3     9707     TIP3     H1       HT       0.417000       1.00800           0
     68517 TIP3     9707     TIP3     H2       HT       0.417000       1.00800           0
     68518 TIP3     9708     TIP3     OH2      OT      -0.834000       15.9994           0
     68519 TIP3     9708     TIP3     H1       HT       0.417000       1.00800           0
     68520 TIP3     9708     TIP3     H2       HT       0.417000       1.00800           0
     68521 TIP3     9709     TIP3     OH2      OT      -0.834000       15.9994           0
     68522 TIP3     9709     TIP3     H1       HT       0.417000       1.00800           0
     68523 TIP3     9709     TIP3     H2       HT       0.417000       1.00800           0
     68524 TIP3     9710     TIP3     OH2      OT      -0.834000       15.9994           0
     68525 TIP3     9710     TIP3     H1       HT       0.417000       1.00800           0
     68526 TIP3     9710     TIP3     H2       HT       0.417000       1.00800           0
     68527 TIP3     9711     TIP3     OH2      OT      -0.834000       15.9994           0
     68528 TIP3     9711     TIP3     H1       HT       0.417000       1.00800           0
     68529 TIP3     9711     TIP3     H2       HT       0.417000       1.00800           0
     68530 TIP3     9712     TIP3     OH2      OT      -0.834000       15.9994           0
     68531 TIP3     9712     TIP3     H1       HT       0.417000       1.00800           0
     68532 TIP3     9712     TIP3     H2       HT       0.417000       1.00800           0
     68533 TIP3     9713     TIP3     OH2      OT      -0.834000       15.9994           0
     68534 TIP3     9713     TIP3     H1       HT       0.417000       1.00800           0
     68535 TIP3     9713     TIP3     H2       HT       0.417000       1.00800           0
     68536 TIP3     9714     TIP3     OH2      OT      -0.834000       15.9994           0
     68537 TIP3     9714     TIP3     H1       HT       0.417000       1.00800           0
     68538 TIP3     9714     TIP3     H2       HT       0.417000       1.00800           0
     68539 TIP3     9715     TIP3     OH2      OT      -0.834000       15.9994           0
     68540 TIP3     9715     TIP3     H1       HT       0.417000       1.00800           0
     68541 TIP3     9715     TIP3     H2       HT       0.417000       1.00800           0
     68542 TIP3     9716     TIP3     OH2      OT      -0.834000       15.9994           0
     68543 TIP3     9716     TIP3     H1       HT       0.417000       1.00800           0
     68544 TIP3     9716     TIP3     H2       HT       0.417000       1.00800           0
     68545 TIP3     9717     TIP3     OH2      OT      -0.834000       15.9994           0
     68546 TIP3     9717     TIP3     H1       HT       0.417000       1.00800           0
     68547 TIP3     9717     TIP3     H2       HT       0.417000       1.00800           0
     68548 TIP3     9718     TIP3     OH2      OT      -0.834000       15.9994           0
     68549 TIP3     9718     TIP3     H1       HT       0.417000       1.00800           0
     68550 TIP3     9718     TIP3     H2       HT       0.417000       1.00800           0
     68551 TIP3     9719     TIP3     OH2      OT      -0.834000       15.9994           0
     68552 TIP3     9719     TIP3     H1       HT       0.417000       1.00800           0
     68553 TIP3     9719     TIP3     H2       HT       0.417000       1.00800           0
     68554 TIP3     9720     TIP3     OH2      OT      -0.834000       15.9994           0
     68555 TIP3     9720     TIP3     H1       HT       0.417000       1.00800           0
     68556 TIP3     9720     TIP3     H2       HT       0.417000       1.00800           0
     68557 TIP3     9721     TIP3     OH2      OT      -0.834000       15.9994           0
     68558 TIP3     9721     TIP3     H1       HT       0.417000       1.00800           0
     68559 TIP3     9721     TIP3     H2       HT       0.417000       1.00800           0
     68560 TIP3     9722     TIP3     OH2      OT      -0.834000       15.9994           0
     68561 TIP3     9722     TIP3     H1       HT       0.417000       1.00800           0
     68562 TIP3     9722     TIP3     H2       HT       0.417000       1.00800           0
     68563 TIP3     9723     TIP3     OH2      OT      -0.834000       15.9994           0
     68564 TIP3     9723     TIP3     H1       HT       0.417000       1.00800           0
     68565 TIP3     9723     TIP3     H2       HT       0.417000       1.00800           0
     68566 TIP3     9724     TIP3     OH2      OT      -0.834000       15.9994           0
     68567 TIP3     9724     TIP3     H1       HT       0.417000       1.00800           0
     68568 TIP3     9724     TIP3     H2       HT       0.417000       1.00800           0
     68569 TIP3     9725     TIP3     OH2      OT      -0.834000       15.9994           0
     68570 TIP3     9725     TIP3     H1       HT       0.417000       1.00800           0
     68571 TIP3     9725     TIP3     H2       HT       0.417000       1.00800           0
     68572 TIP3     9726     TIP3     OH2      OT      -0.834000       15.9994           0
     68573 TIP3     9726     TIP3     H1       HT       0.417000       1.00800           0
     68574 TIP3     9726     TIP3     H2       HT       0.417000       1.00800           0
     68575 TIP3     9727     TIP3     OH2      OT      -0.834000       15.9994           0
     68576 TIP3     9727     TIP3     H1       HT       0.417000       1.00800           0
     68577 TIP3     9727     TIP3     H2       HT       0.417000       1.00800           0
     68578 TIP3     9728     TIP3     OH2      OT      -0.834000       15.9994           0
     68579 TIP3     9728     TIP3     H1       HT       0.417000       1.00800           0
     68580 TIP3     9728     TIP3     H2       HT       0.417000       1.00800           0
     68581 TIP3     9729     TIP3     OH2      OT      -0.834000       15.9994           0
     68582 TIP3     9729     TIP3     H1       HT       0.417000       1.00800           0
     68583 TIP3     9729     TIP3     H2       HT       0.417000       1.00800           0
     68584 TIP3     9730     TIP3     OH2      OT      -0.834000       15.9994           0
     68585 TIP3     9730     TIP3     H1       HT       0.417000       1.00800           0
     68586 TIP3     9730     TIP3     H2       HT       0.417000       1.00800           0
     68587 TIP3     9731     TIP3     OH2      OT      -0.834000       15.9994           0
     68588 TIP3     9731     TIP3     H1       HT       0.417000       1.00800           0
     68589 TIP3     9731     TIP3     H2       HT       0.417000       1.00800           0
     68590 TIP3     9732     TIP3     OH2      OT      -0.834000       15.9994           0
     68591 TIP3     9732     TIP3     H1       HT       0.417000       1.00800           0
     68592 TIP3     9732     TIP3     H2       HT       0.417000       1.00800           0
     68593 TIP3     9733     TIP3     OH2      OT      -0.834000       15.9994           0
     68594 TIP3     9733     TIP3     H1       HT       0.417000       1.00800           0
     68595 TIP3     9733     TIP3     H2       HT       0.417000       1.00800           0
     68596 TIP3     9734     TIP3     OH2      OT      -0.834000       15.9994           0
     68597 TIP3     9734     TIP3     H1       HT       0.417000       1.00800           0
     68598 TIP3     9734     TIP3     H2       HT       0.417000       1.00800           0
     68599 TIP3     9735     TIP3     OH2      OT      -0.834000       15.9994           0
     68600 TIP3     9735     TIP3     H1       HT       0.417000       1.00800           0
     68601 TIP3     9735     TIP3     H2       HT       0.417000       1.00800           0
     68602 TIP3     9736     TIP3     OH2      OT      -0.834000       15.9994           0
     68603 TIP3     9736     TIP3     H1       HT       0.417000       1.00800           0
     68604 TIP3     9736     TIP3     H2       HT       0.417000       1.00800           0
     68605 TIP3     9737     TIP3     OH2      OT      -0.834000       15.9994           0
     68606 TIP3     9737     TIP3     H1       HT       0.417000       1.00800           0
     68607 TIP3     9737     TIP3     H2       HT       0.417000       1.00800           0
     68608 TIP3     9738     TIP3     OH2      OT      -0.834000       15.9994           0
     68609 TIP3     9738     TIP3     H1       HT       0.417000       1.00800           0
     68610 TIP3     9738     TIP3     H2       HT       0.417000       1.00800           0
     68611 TIP3     9739     TIP3     OH2      OT      -0.834000       15.9994           0
     68612 TIP3     9739     TIP3     H1       HT       0.417000       1.00800           0
     68613 TIP3     9739     TIP3     H2       HT       0.417000       1.00800           0
     68614 TIP3     9740     TIP3     OH2      OT      -0.834000       15.9994           0
     68615 TIP3     9740     TIP3     H1       HT       0.417000       1.00800           0
     68616 TIP3     9740     TIP3     H2       HT       0.417000       1.00800           0
     68617 TIP3     9741     TIP3     OH2      OT      -0.834000       15.9994           0
     68618 TIP3     9741     TIP3     H1       HT       0.417000       1.00800           0
     68619 TIP3     9741     TIP3     H2       HT       0.417000       1.00800           0
     68620 TIP3     9742     TIP3     OH2      OT      -0.834000       15.9994           0
     68621 TIP3     9742     TIP3     H1       HT       0.417000       1.00800           0
     68622 TIP3     9742     TIP3     H2       HT       0.417000       1.00800           0
     68623 TIP3     9743     TIP3     OH2      OT      -0.834000       15.9994           0
     68624 TIP3     9743     TIP3     H1       HT       0.417000       1.00800           0
     68625 TIP3     9743     TIP3     H2       HT       0.417000       1.00800           0
     68626 TIP3     9744     TIP3     OH2      OT      -0.834000       15.9994           0
     68627 TIP3     9744     TIP3     H1       HT       0.417000       1.00800           0
     68628 TIP3     9744     TIP3     H2       HT       0.417000       1.00800           0
     68629 TIP3     9745     TIP3     OH2      OT      -0.834000       15.9994           0
     68630 TIP3     9745     TIP3     H1       HT       0.417000       1.00800           0
     68631 TIP3     9745     TIP3     H2       HT       0.417000       1.00800           0
     68632 TIP3     9746     TIP3     OH2      OT      -0.834000       15.9994           0
     68633 TIP3     9746     TIP3     H1       HT       0.417000       1.00800           0
     68634 TIP3     9746     TIP3     H2       HT       0.417000       1.00800           0
     68635 TIP3     9747     TIP3     OH2      OT      -0.834000       15.9994           0
     68636 TIP3     9747     TIP3     H1       HT       0.417000       1.00800           0
     68637 TIP3     9747     TIP3     H2       HT       0.417000       1.00800           0
     68638 TIP3     9748     TIP3     OH2      OT      -0.834000       15.9994           0
     68639 TIP3     9748     TIP3     H1       HT       0.417000       1.00800           0
     68640 TIP3     9748     TIP3     H2       HT       0.417000       1.00800           0
     68641 TIP3     9749     TIP3     OH2      OT      -0.834000       15.9994           0
     68642 TIP3     9749     TIP3     H1       HT       0.417000       1.00800           0
     68643 TIP3     9749     TIP3     H2       HT       0.417000       1.00800           0
     68644 TIP3     9750     TIP3     OH2      OT      -0.834000       15.9994           0
     68645 TIP3     9750     TIP3     H1       HT       0.417000       1.00800           0
     68646 TIP3     9750     TIP3     H2       HT       0.417000       1.00800           0
     68647 TIP3     9751     TIP3     OH2      OT      -0.834000       15.9994           0
     68648 TIP3     9751     TIP3     H1       HT       0.417000       1.00800           0
     68649 TIP3     9751     TIP3     H2       HT       0.417000       1.00800           0
     68650 TIP3     9752     TIP3     OH2      OT      -0.834000       15.9994           0
     68651 TIP3     9752     TIP3     H1       HT       0.417000       1.00800           0
     68652 TIP3     9752     TIP3     H2       HT       0.417000       1.00800           0
     68653 TIP3     9753     TIP3     OH2      OT      -0.834000       15.9994           0
     68654 TIP3     9753     TIP3     H1       HT       0.417000       1.00800           0
     68655 TIP3     9753     TIP3     H2       HT       0.417000       1.00800           0
     68656 TIP3     9754     TIP3     OH2      OT      -0.834000       15.9994           0
     68657 TIP3     9754     TIP3     H1       HT       0.417000       1.00800           0
     68658 TIP3     9754     TIP3     H2       HT       0.417000       1.00800           0
     68659 TIP3     9755     TIP3     OH2      OT      -0.834000       15.9994           0
     68660 TIP3     9755     TIP3     H1       HT       0.417000       1.00800           0
     68661 TIP3     9755     TIP3     H2       HT       0.417000       1.00800           0
     68662 TIP3     9756     TIP3     OH2      OT      -0.834000       15.9994           0
     68663 TIP3     9756     TIP3     H1       HT       0.417000       1.00800           0
     68664 TIP3     9756     TIP3     H2       HT       0.417000       1.00800           0
     68665 TIP3     9757     TIP3     OH2      OT      -0.834000       15.9994           0
     68666 TIP3     9757     TIP3     H1       HT       0.417000       1.00800           0
     68667 TIP3     9757     TIP3     H2       HT       0.417000       1.00800           0
     68668 TIP3     9758     TIP3     OH2      OT      -0.834000       15.9994           0
     68669 TIP3     9758     TIP3     H1       HT       0.417000       1.00800           0
     68670 TIP3     9758     TIP3     H2       HT       0.417000       1.00800           0
     68671 TIP3     9759     TIP3     OH2      OT      -0.834000       15.9994           0
     68672 TIP3     9759     TIP3     H1       HT       0.417000       1.00800           0
     68673 TIP3     9759     TIP3     H2       HT       0.417000       1.00800           0
     68674 TIP3     9760     TIP3     OH2      OT      -0.834000       15.9994           0
     68675 TIP3     9760     TIP3     H1       HT       0.417000       1.00800           0
     68676 TIP3     9760     TIP3     H2       HT       0.417000       1.00800           0
     68677 TIP3     9761     TIP3     OH2      OT      -0.834000       15.9994           0
     68678 TIP3     9761     TIP3     H1       HT       0.417000       1.00800           0
     68679 TIP3     9761     TIP3     H2       HT       0.417000       1.00800           0
     68680 TIP3     9762     TIP3     OH2      OT      -0.834000       15.9994           0
     68681 TIP3     9762     TIP3     H1       HT       0.417000       1.00800           0
     68682 TIP3     9762     TIP3     H2       HT       0.417000       1.00800           0
     68683 TIP3     9763     TIP3     OH2      OT      -0.834000       15.9994           0
     68684 TIP3     9763     TIP3     H1       HT       0.417000       1.00800           0
     68685 TIP3     9763     TIP3     H2       HT       0.417000       1.00800           0
     68686 TIP3     9764     TIP3     OH2      OT      -0.834000       15.9994           0
     68687 TIP3     9764     TIP3     H1       HT       0.417000       1.00800           0
     68688 TIP3     9764     TIP3     H2       HT       0.417000       1.00800           0
     68689 TIP3     9765     TIP3     OH2      OT      -0.834000       15.9994           0
     68690 TIP3     9765     TIP3     H1       HT       0.417000       1.00800           0
     68691 TIP3     9765     TIP3     H2       HT       0.417000       1.00800           0
     68692 TIP3     9766     TIP3     OH2      OT      -0.834000       15.9994           0
     68693 TIP3     9766     TIP3     H1       HT       0.417000       1.00800           0
     68694 TIP3     9766     TIP3     H2       HT       0.417000       1.00800           0
     68695 TIP3     9767     TIP3     OH2      OT      -0.834000       15.9994           0
     68696 TIP3     9767     TIP3     H1       HT       0.417000       1.00800           0
     68697 TIP3     9767     TIP3     H2       HT       0.417000       1.00800           0
     68698 TIP3     9768     TIP3     OH2      OT      -0.834000       15.9994           0
     68699 TIP3     9768     TIP3     H1       HT       0.417000       1.00800           0
     68700 TIP3     9768     TIP3     H2       HT       0.417000       1.00800           0
     68701 TIP3     9769     TIP3     OH2      OT      -0.834000       15.9994           0
     68702 TIP3     9769     TIP3     H1       HT       0.417000       1.00800           0
     68703 TIP3     9769     TIP3     H2       HT       0.417000       1.00800           0
     68704 TIP3     9770     TIP3     OH2      OT      -0.834000       15.9994           0
     68705 TIP3     9770     TIP3     H1       HT       0.417000       1.00800           0
     68706 TIP3     9770     TIP3     H2       HT       0.417000       1.00800           0
     68707 TIP3     9771     TIP3     OH2      OT      -0.834000       15.9994           0
     68708 TIP3     9771     TIP3     H1       HT       0.417000       1.00800           0
     68709 TIP3     9771     TIP3     H2       HT       0.417000       1.00800           0
     68710 TIP3     9772     TIP3     OH2      OT      -0.834000       15.9994           0
     68711 TIP3     9772     TIP3     H1       HT       0.417000       1.00800           0
     68712 TIP3     9772     TIP3     H2       HT       0.417000       1.00800           0
     68713 TIP3     9773     TIP3     OH2      OT      -0.834000       15.9994           0
     68714 TIP3     9773     TIP3     H1       HT       0.417000       1.00800           0
     68715 TIP3     9773     TIP3     H2       HT       0.417000       1.00800           0
     68716 TIP3     9774     TIP3     OH2      OT      -0.834000       15.9994           0
     68717 TIP3     9774     TIP3     H1       HT       0.417000       1.00800           0
     68718 TIP3     9774     TIP3     H2       HT       0.417000       1.00800           0
     68719 TIP3     9775     TIP3     OH2      OT      -0.834000       15.9994           0
     68720 TIP3     9775     TIP3     H1       HT       0.417000       1.00800           0
     68721 TIP3     9775     TIP3     H2       HT       0.417000       1.00800           0
     68722 TIP3     9776     TIP3     OH2      OT      -0.834000       15.9994           0
     68723 TIP3     9776     TIP3     H1       HT       0.417000       1.00800           0
     68724 TIP3     9776     TIP3     H2       HT       0.417000       1.00800           0
     68725 TIP3     9777     TIP3     OH2      OT      -0.834000       15.9994           0
     68726 TIP3     9777     TIP3     H1       HT       0.417000       1.00800           0
     68727 TIP3     9777     TIP3     H2       HT       0.417000       1.00800           0
     68728 TIP3     9778     TIP3     OH2      OT      -0.834000       15.9994           0
     68729 TIP3     9778     TIP3     H1       HT       0.417000       1.00800           0
     68730 TIP3     9778     TIP3     H2       HT       0.417000       1.00800           0
     68731 TIP3     9779     TIP3     OH2      OT      -0.834000       15.9994           0
     68732 TIP3     9779     TIP3     H1       HT       0.417000       1.00800           0
     68733 TIP3     9779     TIP3     H2       HT       0.417000       1.00800           0
     68734 TIP3     9780     TIP3     OH2      OT      -0.834000       15.9994           0
     68735 TIP3     9780     TIP3     H1       HT       0.417000       1.00800           0
     68736 TIP3     9780     TIP3     H2       HT       0.417000       1.00800           0
     68737 TIP3     9781     TIP3     OH2      OT      -0.834000       15.9994           0
     68738 TIP3     9781     TIP3     H1       HT       0.417000       1.00800           0
     68739 TIP3     9781     TIP3     H2       HT       0.417000       1.00800           0
     68740 TIP3     9782     TIP3     OH2      OT      -0.834000       15.9994           0
     68741 TIP3     9782     TIP3     H1       HT       0.417000       1.00800           0
     68742 TIP3     9782     TIP3     H2       HT       0.417000       1.00800           0
     68743 TIP3     9783     TIP3     OH2      OT      -0.834000       15.9994           0
     68744 TIP3     9783     TIP3     H1       HT       0.417000       1.00800           0
     68745 TIP3     9783     TIP3     H2       HT       0.417000       1.00800           0
     68746 TIP3     9784     TIP3     OH2      OT      -0.834000       15.9994           0
     68747 TIP3     9784     TIP3     H1       HT       0.417000       1.00800           0
     68748 TIP3     9784     TIP3     H2       HT       0.417000       1.00800           0
     68749 TIP3     9785     TIP3     OH2      OT      -0.834000       15.9994           0
     68750 TIP3     9785     TIP3     H1       HT       0.417000       1.00800           0
     68751 TIP3     9785     TIP3     H2       HT       0.417000       1.00800           0
     68752 TIP3     9786     TIP3     OH2      OT      -0.834000       15.9994           0
     68753 TIP3     9786     TIP3     H1       HT       0.417000       1.00800           0
     68754 TIP3     9786     TIP3     H2       HT       0.417000       1.00800           0
     68755 TIP3     9787     TIP3     OH2      OT      -0.834000       15.9994           0
     68756 TIP3     9787     TIP3     H1       HT       0.417000       1.00800           0
     68757 TIP3     9787     TIP3     H2       HT       0.417000       1.00800           0
     68758 TIP3     9788     TIP3     OH2      OT      -0.834000       15.9994           0
     68759 TIP3     9788     TIP3     H1       HT       0.417000       1.00800           0
     68760 TIP3     9788     TIP3     H2       HT       0.417000       1.00800           0
     68761 TIP3     9789     TIP3     OH2      OT      -0.834000       15.9994           0
     68762 TIP3     9789     TIP3     H1       HT       0.417000       1.00800           0
     68763 TIP3     9789     TIP3     H2       HT       0.417000       1.00800           0
     68764 TIP3     9790     TIP3     OH2      OT      -0.834000       15.9994           0
     68765 TIP3     9790     TIP3     H1       HT       0.417000       1.00800           0
     68766 TIP3     9790     TIP3     H2       HT       0.417000       1.00800           0
     68767 TIP3     9791     TIP3     OH2      OT      -0.834000       15.9994           0
     68768 TIP3     9791     TIP3     H1       HT       0.417000       1.00800           0
     68769 TIP3     9791     TIP3     H2       HT       0.417000       1.00800           0
     68770 TIP3     9792     TIP3     OH2      OT      -0.834000       15.9994           0
     68771 TIP3     9792     TIP3     H1       HT       0.417000       1.00800           0
     68772 TIP3     9792     TIP3     H2       HT       0.417000       1.00800           0
     68773 TIP3     9793     TIP3     OH2      OT      -0.834000       15.9994           0
     68774 TIP3     9793     TIP3     H1       HT       0.417000       1.00800           0
     68775 TIP3     9793     TIP3     H2       HT       0.417000       1.00800           0
     68776 TIP3     9794     TIP3     OH2      OT      -0.834000       15.9994           0
     68777 TIP3     9794     TIP3     H1       HT       0.417000       1.00800           0
     68778 TIP3     9794     TIP3     H2       HT       0.417000       1.00800           0
     68779 TIP3     9795     TIP3     OH2      OT      -0.834000       15.9994           0
     68780 TIP3     9795     TIP3     H1       HT       0.417000       1.00800           0
     68781 TIP3     9795     TIP3     H2       HT       0.417000       1.00800           0
     68782 TIP3     9796     TIP3     OH2      OT      -0.834000       15.9994           0
     68783 TIP3     9796     TIP3     H1       HT       0.417000       1.00800           0
     68784 TIP3     9796     TIP3     H2       HT       0.417000       1.00800           0
     68785 TIP3     9797     TIP3     OH2      OT      -0.834000       15.9994           0
     68786 TIP3     9797     TIP3     H1       HT       0.417000       1.00800           0
     68787 TIP3     9797     TIP3     H2       HT       0.417000       1.00800           0
     68788 TIP3     9798     TIP3     OH2      OT      -0.834000       15.9994           0
     68789 TIP3     9798     TIP3     H1       HT       0.417000       1.00800           0
     68790 TIP3     9798     TIP3     H2       HT       0.417000       1.00800           0
     68791 TIP3     9799     TIP3     OH2      OT      -0.834000       15.9994           0
     68792 TIP3     9799     TIP3     H1       HT       0.417000       1.00800           0
     68793 TIP3     9799     TIP3     H2       HT       0.417000       1.00800           0
     68794 TIP3     9800     TIP3     OH2      OT      -0.834000       15.9994           0
     68795 TIP3     9800     TIP3     H1       HT       0.417000       1.00800           0
     68796 TIP3     9800     TIP3     H2       HT       0.417000       1.00800           0
     68797 TIP3     9801     TIP3     OH2      OT      -0.834000       15.9994           0
     68798 TIP3     9801     TIP3     H1       HT       0.417000       1.00800           0
     68799 TIP3     9801     TIP3     H2       HT       0.417000       1.00800           0
     68800 TIP3     9802     TIP3     OH2      OT      -0.834000       15.9994           0
     68801 TIP3     9802     TIP3     H1       HT       0.417000       1.00800           0
     68802 TIP3     9802     TIP3     H2       HT       0.417000       1.00800           0
     68803 TIP3     9803     TIP3     OH2      OT      -0.834000       15.9994           0
     68804 TIP3     9803     TIP3     H1       HT       0.417000       1.00800           0
     68805 TIP3     9803     TIP3     H2       HT       0.417000       1.00800           0
     68806 TIP3     9804     TIP3     OH2      OT      -0.834000       15.9994           0
     68807 TIP3     9804     TIP3     H1       HT       0.417000       1.00800           0
     68808 TIP3     9804     TIP3     H2       HT       0.417000       1.00800           0
     68809 TIP3     9805     TIP3     OH2      OT      -0.834000       15.9994           0
     68810 TIP3     9805     TIP3     H1       HT       0.417000       1.00800           0
     68811 TIP3     9805     TIP3     H2       HT       0.417000       1.00800           0
     68812 TIP3     9806     TIP3     OH2      OT      -0.834000       15.9994           0
     68813 TIP3     9806     TIP3     H1       HT       0.417000       1.00800           0
     68814 TIP3     9806     TIP3     H2       HT       0.417000       1.00800           0
     68815 TIP3     9807     TIP3     OH2      OT      -0.834000       15.9994           0
     68816 TIP3     9807     TIP3     H1       HT       0.417000       1.00800           0
     68817 TIP3     9807     TIP3     H2       HT       0.417000       1.00800           0
     68818 TIP3     9808     TIP3     OH2      OT      -0.834000       15.9994           0
     68819 TIP3     9808     TIP3     H1       HT       0.417000       1.00800           0
     68820 TIP3     9808     TIP3     H2       HT       0.417000       1.00800           0
     68821 TIP3     9809     TIP3     OH2      OT      -0.834000       15.9994           0
     68822 TIP3     9809     TIP3     H1       HT       0.417000       1.00800           0
     68823 TIP3     9809     TIP3     H2       HT       0.417000       1.00800           0
     68824 TIP3     9810     TIP3     OH2      OT      -0.834000       15.9994           0
     68825 TIP3     9810     TIP3     H1       HT       0.417000       1.00800           0
     68826 TIP3     9810     TIP3     H2       HT       0.417000       1.00800           0
     68827 TIP3     9811     TIP3     OH2      OT      -0.834000       15.9994           0
     68828 TIP3     9811     TIP3     H1       HT       0.417000       1.00800           0
     68829 TIP3     9811     TIP3     H2       HT       0.417000       1.00800           0
     68830 TIP3     9812     TIP3     OH2      OT      -0.834000       15.9994           0
     68831 TIP3     9812     TIP3     H1       HT       0.417000       1.00800           0
     68832 TIP3     9812     TIP3     H2       HT       0.417000       1.00800           0
     68833 TIP3     9813     TIP3     OH2      OT      -0.834000       15.9994           0
     68834 TIP3     9813     TIP3     H1       HT       0.417000       1.00800           0
     68835 TIP3     9813     TIP3     H2       HT       0.417000       1.00800           0
     68836 TIP3     9814     TIP3     OH2      OT      -0.834000       15.9994           0
     68837 TIP3     9814     TIP3     H1       HT       0.417000       1.00800           0
     68838 TIP3     9814     TIP3     H2       HT       0.417000       1.00800           0
     68839 TIP3     9815     TIP3     OH2      OT      -0.834000       15.9994           0
     68840 TIP3     9815     TIP3     H1       HT       0.417000       1.00800           0
     68841 TIP3     9815     TIP3     H2       HT       0.417000       1.00800           0
     68842 TIP3     9816     TIP3     OH2      OT      -0.834000       15.9994           0
     68843 TIP3     9816     TIP3     H1       HT       0.417000       1.00800           0
     68844 TIP3     9816     TIP3     H2       HT       0.417000       1.00800           0
     68845 TIP3     9817     TIP3     OH2      OT      -0.834000       15.9994           0
     68846 TIP3     9817     TIP3     H1       HT       0.417000       1.00800           0
     68847 TIP3     9817     TIP3     H2       HT       0.417000       1.00800           0
     68848 TIP3     9818     TIP3     OH2      OT      -0.834000       15.9994           0
     68849 TIP3     9818     TIP3     H1       HT       0.417000       1.00800           0
     68850 TIP3     9818     TIP3     H2       HT       0.417000       1.00800           0
     68851 TIP3     9819     TIP3     OH2      OT      -0.834000       15.9994           0
     68852 TIP3     9819     TIP3     H1       HT       0.417000       1.00800           0
     68853 TIP3     9819     TIP3     H2       HT       0.417000       1.00800           0
     68854 TIP3     9820     TIP3     OH2      OT      -0.834000       15.9994           0
     68855 TIP3     9820     TIP3     H1       HT       0.417000       1.00800           0
     68856 TIP3     9820     TIP3     H2       HT       0.417000       1.00800           0
     68857 TIP3     9821     TIP3     OH2      OT      -0.834000       15.9994           0
     68858 TIP3     9821     TIP3     H1       HT       0.417000       1.00800           0
     68859 TIP3     9821     TIP3     H2       HT       0.417000       1.00800           0
     68860 TIP3     9822     TIP3     OH2      OT      -0.834000       15.9994           0
     68861 TIP3     9822     TIP3     H1       HT       0.417000       1.00800           0
     68862 TIP3     9822     TIP3     H2       HT       0.417000       1.00800           0
     68863 TIP3     9823     TIP3     OH2      OT      -0.834000       15.9994           0
     68864 TIP3     9823     TIP3     H1       HT       0.417000       1.00800           0
     68865 TIP3     9823     TIP3     H2       HT       0.417000       1.00800           0
     68866 TIP3     9824     TIP3     OH2      OT      -0.834000       15.9994           0
     68867 TIP3     9824     TIP3     H1       HT       0.417000       1.00800           0
     68868 TIP3     9824     TIP3     H2       HT       0.417000       1.00800           0
     68869 TIP3     9825     TIP3     OH2      OT      -0.834000       15.9994           0
     68870 TIP3     9825     TIP3     H1       HT       0.417000       1.00800           0
     68871 TIP3     9825     TIP3     H2       HT       0.417000       1.00800           0
     68872 TIP3     9826     TIP3     OH2      OT      -0.834000       15.9994           0
     68873 TIP3     9826     TIP3     H1       HT       0.417000       1.00800           0
     68874 TIP3     9826     TIP3     H2       HT       0.417000       1.00800           0
     68875 TIP3     9827     TIP3     OH2      OT      -0.834000       15.9994           0
     68876 TIP3     9827     TIP3     H1       HT       0.417000       1.00800           0
     68877 TIP3     9827     TIP3     H2       HT       0.417000       1.00800           0
     68878 TIP3     9828     TIP3     OH2      OT      -0.834000       15.9994           0
     68879 TIP3     9828     TIP3     H1       HT       0.417000       1.00800           0
     68880 TIP3     9828     TIP3     H2       HT       0.417000       1.00800           0
     68881 TIP3     9829     TIP3     OH2      OT      -0.834000       15.9994           0
     68882 TIP3     9829     TIP3     H1       HT       0.417000       1.00800           0
     68883 TIP3     9829     TIP3     H2       HT       0.417000       1.00800           0
     68884 TIP3     9830     TIP3     OH2      OT      -0.834000       15.9994           0
     68885 TIP3     9830     TIP3     H1       HT       0.417000       1.00800           0
     68886 TIP3     9830     TIP3     H2       HT       0.417000       1.00800           0
     68887 TIP3     9831     TIP3     OH2      OT      -0.834000       15.9994           0
     68888 TIP3     9831     TIP3     H1       HT       0.417000       1.00800           0
     68889 TIP3     9831     TIP3     H2       HT       0.417000       1.00800           0
     68890 TIP3     9832     TIP3     OH2      OT      -0.834000       15.9994           0
     68891 TIP3     9832     TIP3     H1       HT       0.417000       1.00800           0
     68892 TIP3     9832     TIP3     H2       HT       0.417000       1.00800           0
     68893 TIP3     9833     TIP3     OH2      OT      -0.834000       15.9994           0
     68894 TIP3     9833     TIP3     H1       HT       0.417000       1.00800           0
     68895 TIP3     9833     TIP3     H2       HT       0.417000       1.00800           0
     68896 TIP3     9834     TIP3     OH2      OT      -0.834000       15.9994           0
     68897 TIP3     9834     TIP3     H1       HT       0.417000       1.00800           0
     68898 TIP3     9834     TIP3     H2       HT       0.417000       1.00800           0
     68899 TIP3     9835     TIP3     OH2      OT      -0.834000       15.9994           0
     68900 TIP3     9835     TIP3     H1       HT       0.417000       1.00800           0
     68901 TIP3     9835     TIP3     H2       HT       0.417000       1.00800           0
     68902 TIP3     9836     TIP3     OH2      OT      -0.834000       15.9994           0
     68903 TIP3     9836     TIP3     H1       HT       0.417000       1.00800           0
     68904 TIP3     9836     TIP3     H2       HT       0.417000       1.00800           0
     68905 TIP3     9837     TIP3     OH2      OT      -0.834000       15.9994           0
     68906 TIP3     9837     TIP3     H1       HT       0.417000       1.00800           0
     68907 TIP3     9837     TIP3     H2       HT       0.417000       1.00800           0
     68908 TIP3     9838     TIP3     OH2      OT      -0.834000       15.9994           0
     68909 TIP3     9838     TIP3     H1       HT       0.417000       1.00800           0
     68910 TIP3     9838     TIP3     H2       HT       0.417000       1.00800           0
     68911 TIP3     9839     TIP3     OH2      OT      -0.834000       15.9994           0
     68912 TIP3     9839     TIP3     H1       HT       0.417000       1.00800           0
     68913 TIP3     9839     TIP3     H2       HT       0.417000       1.00800           0
     68914 TIP3     9840     TIP3     OH2      OT      -0.834000       15.9994           0
     68915 TIP3     9840     TIP3     H1       HT       0.417000       1.00800           0
     68916 TIP3     9840     TIP3     H2       HT       0.417000       1.00800           0
     68917 TIP3     9841     TIP3     OH2      OT      -0.834000       15.9994           0
     68918 TIP3     9841     TIP3     H1       HT       0.417000       1.00800           0
     68919 TIP3     9841     TIP3     H2       HT       0.417000       1.00800           0
     68920 TIP3     9842     TIP3     OH2      OT      -0.834000       15.9994           0
     68921 TIP3     9842     TIP3     H1       HT       0.417000       1.00800           0
     68922 TIP3     9842     TIP3     H2       HT       0.417000       1.00800           0
     68923 TIP3     9843     TIP3     OH2      OT      -0.834000       15.9994           0
     68924 TIP3     9843     TIP3     H1       HT       0.417000       1.00800           0
     68925 TIP3     9843     TIP3     H2       HT       0.417000       1.00800           0
     68926 TIP3     9844     TIP3     OH2      OT      -0.834000       15.9994           0
     68927 TIP3     9844     TIP3     H1       HT       0.417000       1.00800           0
     68928 TIP3     9844     TIP3     H2       HT       0.417000       1.00800           0
     68929 TIP3     9845     TIP3     OH2      OT      -0.834000       15.9994           0
     68930 TIP3     9845     TIP3     H1       HT       0.417000       1.00800           0
     68931 TIP3     9845     TIP3     H2       HT       0.417000       1.00800           0
     68932 TIP3     9846     TIP3     OH2      OT      -0.834000       15.9994           0
     68933 TIP3     9846     TIP3     H1       HT       0.417000       1.00800           0
     68934 TIP3     9846     TIP3     H2       HT       0.417000       1.00800           0
     68935 TIP3     9847     TIP3     OH2      OT      -0.834000       15.9994           0
     68936 TIP3     9847     TIP3     H1       HT       0.417000       1.00800           0
     68937 TIP3     9847     TIP3     H2       HT       0.417000       1.00800           0
     68938 TIP3     9848     TIP3     OH2      OT      -0.834000       15.9994           0
     68939 TIP3     9848     TIP3     H1       HT       0.417000       1.00800           0
     68940 TIP3     9848     TIP3     H2       HT       0.417000       1.00800           0
     68941 TIP3     9849     TIP3     OH2      OT      -0.834000       15.9994           0
     68942 TIP3     9849     TIP3     H1       HT       0.417000       1.00800           0
     68943 TIP3     9849     TIP3     H2       HT       0.417000       1.00800           0
     68944 TIP3     9850     TIP3     OH2      OT      -0.834000       15.9994           0
     68945 TIP3     9850     TIP3     H1       HT       0.417000       1.00800           0
     68946 TIP3     9850     TIP3     H2       HT       0.417000       1.00800           0
     68947 TIP3     9851     TIP3     OH2      OT      -0.834000       15.9994           0
     68948 TIP3     9851     TIP3     H1       HT       0.417000       1.00800           0
     68949 TIP3     9851     TIP3     H2       HT       0.417000       1.00800           0
     68950 TIP3     9852     TIP3     OH2      OT      -0.834000       15.9994           0
     68951 TIP3     9852     TIP3     H1       HT       0.417000       1.00800           0
     68952 TIP3     9852     TIP3     H2       HT       0.417000       1.00800           0
     68953 TIP3     9853     TIP3     OH2      OT      -0.834000       15.9994           0
     68954 TIP3     9853     TIP3     H1       HT       0.417000       1.00800           0
     68955 TIP3     9853     TIP3     H2       HT       0.417000       1.00800           0
     68956 TIP3     9854     TIP3     OH2      OT      -0.834000       15.9994           0
     68957 TIP3     9854     TIP3     H1       HT       0.417000       1.00800           0
     68958 TIP3     9854     TIP3     H2       HT       0.417000       1.00800           0
     68959 TIP3     9855     TIP3     OH2      OT      -0.834000       15.9994           0
     68960 TIP3     9855     TIP3     H1       HT       0.417000       1.00800           0
     68961 TIP3     9855     TIP3     H2       HT       0.417000       1.00800           0
     68962 TIP3     9856     TIP3     OH2      OT      -0.834000       15.9994           0
     68963 TIP3     9856     TIP3     H1       HT       0.417000       1.00800           0
     68964 TIP3     9856     TIP3     H2       HT       0.417000       1.00800           0
     68965 TIP3     9857     TIP3     OH2      OT      -0.834000       15.9994           0
     68966 TIP3     9857     TIP3     H1       HT       0.417000       1.00800           0
     68967 TIP3     9857     TIP3     H2       HT       0.417000       1.00800           0
     68968 TIP3     9858     TIP3     OH2      OT      -0.834000       15.9994           0
     68969 TIP3     9858     TIP3     H1       HT       0.417000       1.00800           0
     68970 TIP3     9858     TIP3     H2       HT       0.417000       1.00800           0
     68971 TIP3     9859     TIP3     OH2      OT      -0.834000       15.9994           0
     68972 TIP3     9859     TIP3     H1       HT       0.417000       1.00800           0
     68973 TIP3     9859     TIP3     H2       HT       0.417000       1.00800           0
     68974 TIP3     9860     TIP3     OH2      OT      -0.834000       15.9994           0
     68975 TIP3     9860     TIP3     H1       HT       0.417000       1.00800           0
     68976 TIP3     9860     TIP3     H2       HT       0.417000       1.00800           0
     68977 TIP3     9861     TIP3     OH2      OT      -0.834000       15.9994           0
     68978 TIP3     9861     TIP3     H1       HT       0.417000       1.00800           0
     68979 TIP3     9861     TIP3     H2       HT       0.417000       1.00800           0
     68980 TIP3     9862     TIP3     OH2      OT      -0.834000       15.9994           0
     68981 TIP3     9862     TIP3     H1       HT       0.417000       1.00800           0
     68982 TIP3     9862     TIP3     H2       HT       0.417000       1.00800           0
     68983 TIP3     9863     TIP3     OH2      OT      -0.834000       15.9994           0
     68984 TIP3     9863     TIP3     H1       HT       0.417000       1.00800           0
     68985 TIP3     9863     TIP3     H2       HT       0.417000       1.00800           0
     68986 TIP3     9864     TIP3     OH2      OT      -0.834000       15.9994           0
     68987 TIP3     9864     TIP3     H1       HT       0.417000       1.00800           0
     68988 TIP3     9864     TIP3     H2       HT       0.417000       1.00800           0
     68989 TIP3     9865     TIP3     OH2      OT      -0.834000       15.9994           0
     68990 TIP3     9865     TIP3     H1       HT       0.417000       1.00800           0
     68991 TIP3     9865     TIP3     H2       HT       0.417000       1.00800           0
     68992 TIP3     9866     TIP3     OH2      OT      -0.834000       15.9994           0
     68993 TIP3     9866     TIP3     H1       HT       0.417000       1.00800           0
     68994 TIP3     9866     TIP3     H2       HT       0.417000       1.00800           0
     68995 TIP3     9867     TIP3     OH2      OT      -0.834000       15.9994           0
     68996 TIP3     9867     TIP3     H1       HT       0.417000       1.00800           0
     68997 TIP3     9867     TIP3     H2       HT       0.417000       1.00800           0
     68998 TIP3     9868     TIP3     OH2      OT      -0.834000       15.9994           0
     68999 TIP3     9868     TIP3     H1       HT       0.417000       1.00800           0
     69000 TIP3     9868     TIP3     H2       HT       0.417000       1.00800           0
     69001 TIP3     9869     TIP3     OH2      OT      -0.834000       15.9994           0
     69002 TIP3     9869     TIP3     H1       HT       0.417000       1.00800           0
     69003 TIP3     9869     TIP3     H2       HT       0.417000       1.00800           0
     69004 TIP3     9870     TIP3     OH2      OT      -0.834000       15.9994           0
     69005 TIP3     9870     TIP3     H1       HT       0.417000       1.00800           0
     69006 TIP3     9870     TIP3     H2       HT       0.417000       1.00800           0
     69007 TIP3     9871     TIP3     OH2      OT      -0.834000       15.9994           0
     69008 TIP3     9871     TIP3     H1       HT       0.417000       1.00800           0
     69009 TIP3     9871     TIP3     H2       HT       0.417000       1.00800           0
     69010 TIP3     9872     TIP3     OH2      OT      -0.834000       15.9994           0
     69011 TIP3     9872     TIP3     H1       HT       0.417000       1.00800           0
     69012 TIP3     9872     TIP3     H2       HT       0.417000       1.00800           0
     69013 TIP3     9873     TIP3     OH2      OT      -0.834000       15.9994           0
     69014 TIP3     9873     TIP3     H1       HT       0.417000       1.00800           0
     69015 TIP3     9873     TIP3     H2       HT       0.417000       1.00800           0
     69016 TIP3     9874     TIP3     OH2      OT      -0.834000       15.9994           0
     69017 TIP3     9874     TIP3     H1       HT       0.417000       1.00800           0
     69018 TIP3     9874     TIP3     H2       HT       0.417000       1.00800           0
     69019 TIP3     9875     TIP3     OH2      OT      -0.834000       15.9994           0
     69020 TIP3     9875     TIP3     H1       HT       0.417000       1.00800           0
     69021 TIP3     9875     TIP3     H2       HT       0.417000       1.00800           0
     69022 TIP3     9876     TIP3     OH2      OT      -0.834000       15.9994           0
     69023 TIP3     9876     TIP3     H1       HT       0.417000       1.00800           0
     69024 TIP3     9876     TIP3     H2       HT       0.417000       1.00800           0
     69025 TIP3     9877     TIP3     OH2      OT      -0.834000       15.9994           0
     69026 TIP3     9877     TIP3     H1       HT       0.417000       1.00800           0
     69027 TIP3     9877     TIP3     H2       HT       0.417000       1.00800           0
     69028 TIP3     9878     TIP3     OH2      OT      -0.834000       15.9994           0
     69029 TIP3     9878     TIP3     H1       HT       0.417000       1.00800           0
     69030 TIP3     9878     TIP3     H2       HT       0.417000       1.00800           0
     69031 TIP3     9879     TIP3     OH2      OT      -0.834000       15.9994           0
     69032 TIP3     9879     TIP3     H1       HT       0.417000       1.00800           0
     69033 TIP3     9879     TIP3     H2       HT       0.417000       1.00800           0
     69034 TIP3     9880     TIP3     OH2      OT      -0.834000       15.9994           0
     69035 TIP3     9880     TIP3     H1       HT       0.417000       1.00800           0
     69036 TIP3     9880     TIP3     H2       HT       0.417000       1.00800           0
     69037 TIP3     9881     TIP3     OH2      OT      -0.834000       15.9994           0
     69038 TIP3     9881     TIP3     H1       HT       0.417000       1.00800           0
     69039 TIP3     9881     TIP3     H2       HT       0.417000       1.00800           0
     69040 TIP3     9882     TIP3     OH2      OT      -0.834000       15.9994           0
     69041 TIP3     9882     TIP3     H1       HT       0.417000       1.00800           0
     69042 TIP3     9882     TIP3     H2       HT       0.417000       1.00800           0
     69043 TIP3     9883     TIP3     OH2      OT      -0.834000       15.9994           0
     69044 TIP3     9883     TIP3     H1       HT       0.417000       1.00800           0
     69045 TIP3     9883     TIP3     H2       HT       0.417000       1.00800           0
     69046 TIP3     9884     TIP3     OH2      OT      -0.834000       15.9994           0
     69047 TIP3     9884     TIP3     H1       HT       0.417000       1.00800           0
     69048 TIP3     9884     TIP3     H2       HT       0.417000       1.00800           0
     69049 TIP3     9885     TIP3     OH2      OT      -0.834000       15.9994           0
     69050 TIP3     9885     TIP3     H1       HT       0.417000       1.00800           0
     69051 TIP3     9885     TIP3     H2       HT       0.417000       1.00800           0
     69052 TIP3     9886     TIP3     OH2      OT      -0.834000       15.9994           0
     69053 TIP3     9886     TIP3     H1       HT       0.417000       1.00800           0
     69054 TIP3     9886     TIP3     H2       HT       0.417000       1.00800           0
     69055 TIP3     9887     TIP3     OH2      OT      -0.834000       15.9994           0
     69056 TIP3     9887     TIP3     H1       HT       0.417000       1.00800           0
     69057 TIP3     9887     TIP3     H2       HT       0.417000       1.00800           0
     69058 TIP3     9888     TIP3     OH2      OT      -0.834000       15.9994           0
     69059 TIP3     9888     TIP3     H1       HT       0.417000       1.00800           0
     69060 TIP3     9888     TIP3     H2       HT       0.417000       1.00800           0
     69061 TIP3     9889     TIP3     OH2      OT      -0.834000       15.9994           0
     69062 TIP3     9889     TIP3     H1       HT       0.417000       1.00800           0
     69063 TIP3     9889     TIP3     H2       HT       0.417000       1.00800           0
     69064 TIP3     9890     TIP3     OH2      OT      -0.834000       15.9994           0
     69065 TIP3     9890     TIP3     H1       HT       0.417000       1.00800           0
     69066 TIP3     9890     TIP3     H2       HT       0.417000       1.00800           0
     69067 TIP3     9891     TIP3     OH2      OT      -0.834000       15.9994           0
     69068 TIP3     9891     TIP3     H1       HT       0.417000       1.00800           0
     69069 TIP3     9891     TIP3     H2       HT       0.417000       1.00800           0
     69070 TIP3     9892     TIP3     OH2      OT      -0.834000       15.9994           0
     69071 TIP3     9892     TIP3     H1       HT       0.417000       1.00800           0
     69072 TIP3     9892     TIP3     H2       HT       0.417000       1.00800           0
     69073 TIP3     9893     TIP3     OH2      OT      -0.834000       15.9994           0
     69074 TIP3     9893     TIP3     H1       HT       0.417000       1.00800           0
     69075 TIP3     9893     TIP3     H2       HT       0.417000       1.00800           0
     69076 TIP3     9894     TIP3     OH2      OT      -0.834000       15.9994           0
     69077 TIP3     9894     TIP3     H1       HT       0.417000       1.00800           0
     69078 TIP3     9894     TIP3     H2       HT       0.417000       1.00800           0
     69079 TIP3     9895     TIP3     OH2      OT      -0.834000       15.9994           0
     69080 TIP3     9895     TIP3     H1       HT       0.417000       1.00800           0
     69081 TIP3     9895     TIP3     H2       HT       0.417000       1.00800           0
     69082 TIP3     9896     TIP3     OH2      OT      -0.834000       15.9994           0
     69083 TIP3     9896     TIP3     H1       HT       0.417000       1.00800           0
     69084 TIP3     9896     TIP3     H2       HT       0.417000       1.00800           0
     69085 TIP3     9897     TIP3     OH2      OT      -0.834000       15.9994           0
     69086 TIP3     9897     TIP3     H1       HT       0.417000       1.00800           0
     69087 TIP3     9897     TIP3     H2       HT       0.417000       1.00800           0
     69088 TIP3     9898     TIP3     OH2      OT      -0.834000       15.9994           0
     69089 TIP3     9898     TIP3     H1       HT       0.417000       1.00800           0
     69090 TIP3     9898     TIP3     H2       HT       0.417000       1.00800           0
     69091 TIP3     9899     TIP3     OH2      OT      -0.834000       15.9994           0
     69092 TIP3     9899     TIP3     H1       HT       0.417000       1.00800           0
     69093 TIP3     9899     TIP3     H2       HT       0.417000       1.00800           0
     69094 TIP3     9900     TIP3     OH2      OT      -0.834000       15.9994           0
     69095 TIP3     9900     TIP3     H1       HT       0.417000       1.00800           0
     69096 TIP3     9900     TIP3     H2       HT       0.417000       1.00800           0
     69097 TIP3     9901     TIP3     OH2      OT      -0.834000       15.9994           0
     69098 TIP3     9901     TIP3     H1       HT       0.417000       1.00800           0
     69099 TIP3     9901     TIP3     H2       HT       0.417000       1.00800           0
     69100 TIP3     9902     TIP3     OH2      OT      -0.834000       15.9994           0
     69101 TIP3     9902     TIP3     H1       HT       0.417000       1.00800           0
     69102 TIP3     9902     TIP3     H2       HT       0.417000       1.00800           0
     69103 TIP3     9903     TIP3     OH2      OT      -0.834000       15.9994           0
     69104 TIP3     9903     TIP3     H1       HT       0.417000       1.00800           0
     69105 TIP3     9903     TIP3     H2       HT       0.417000       1.00800           0
     69106 TIP3     9904     TIP3     OH2      OT      -0.834000       15.9994           0
     69107 TIP3     9904     TIP3     H1       HT       0.417000       1.00800           0
     69108 TIP3     9904     TIP3     H2       HT       0.417000       1.00800           0
     69109 TIP3     9905     TIP3     OH2      OT      -0.834000       15.9994           0
     69110 TIP3     9905     TIP3     H1       HT       0.417000       1.00800           0
     69111 TIP3     9905     TIP3     H2       HT       0.417000       1.00800           0
     69112 TIP3     9906     TIP3     OH2      OT      -0.834000       15.9994           0
     69113 TIP3     9906     TIP3     H1       HT       0.417000       1.00800           0
     69114 TIP3     9906     TIP3     H2       HT       0.417000       1.00800           0
     69115 TIP3     9907     TIP3     OH2      OT      -0.834000       15.9994           0
     69116 TIP3     9907     TIP3     H1       HT       0.417000       1.00800           0
     69117 TIP3     9907     TIP3     H2       HT       0.417000       1.00800           0
     69118 TIP3     9908     TIP3     OH2      OT      -0.834000       15.9994           0
     69119 TIP3     9908     TIP3     H1       HT       0.417000       1.00800           0
     69120 TIP3     9908     TIP3     H2       HT       0.417000       1.00800           0
     69121 TIP3     9909     TIP3     OH2      OT      -0.834000       15.9994           0
     69122 TIP3     9909     TIP3     H1       HT       0.417000       1.00800           0
     69123 TIP3     9909     TIP3     H2       HT       0.417000       1.00800           0
     69124 TIP3     9910     TIP3     OH2      OT      -0.834000       15.9994           0
     69125 TIP3     9910     TIP3     H1       HT       0.417000       1.00800           0
     69126 TIP3     9910     TIP3     H2       HT       0.417000       1.00800           0
     69127 TIP3     9911     TIP3     OH2      OT      -0.834000       15.9994           0
     69128 TIP3     9911     TIP3     H1       HT       0.417000       1.00800           0
     69129 TIP3     9911     TIP3     H2       HT       0.417000       1.00800           0
     69130 TIP3     9912     TIP3     OH2      OT      -0.834000       15.9994           0
     69131 TIP3     9912     TIP3     H1       HT       0.417000       1.00800           0
     69132 TIP3     9912     TIP3     H2       HT       0.417000       1.00800           0
     69133 TIP3     9913     TIP3     OH2      OT      -0.834000       15.9994           0
     69134 TIP3     9913     TIP3     H1       HT       0.417000       1.00800           0
     69135 TIP3     9913     TIP3     H2       HT       0.417000       1.00800           0
     69136 TIP3     9914     TIP3     OH2      OT      -0.834000       15.9994           0
     69137 TIP3     9914     TIP3     H1       HT       0.417000       1.00800           0
     69138 TIP3     9914     TIP3     H2       HT       0.417000       1.00800           0
     69139 TIP3     9915     TIP3     OH2      OT      -0.834000       15.9994           0
     69140 TIP3     9915     TIP3     H1       HT       0.417000       1.00800           0
     69141 TIP3     9915     TIP3     H2       HT       0.417000       1.00800           0
     69142 TIP3     9916     TIP3     OH2      OT      -0.834000       15.9994           0
     69143 TIP3     9916     TIP3     H1       HT       0.417000       1.00800           0
     69144 TIP3     9916     TIP3     H2       HT       0.417000       1.00800           0
     69145 TIP3     9917     TIP3     OH2      OT      -0.834000       15.9994           0
     69146 TIP3     9917     TIP3     H1       HT       0.417000       1.00800           0
     69147 TIP3     9917     TIP3     H2       HT       0.417000       1.00800           0
     69148 TIP3     9918     TIP3     OH2      OT      -0.834000       15.9994           0
     69149 TIP3     9918     TIP3     H1       HT       0.417000       1.00800           0
     69150 TIP3     9918     TIP3     H2       HT       0.417000       1.00800           0
     69151 TIP3     9919     TIP3     OH2      OT      -0.834000       15.9994           0
     69152 TIP3     9919     TIP3     H1       HT       0.417000       1.00800           0
     69153 TIP3     9919     TIP3     H2       HT       0.417000       1.00800           0
     69154 TIP3     9920     TIP3     OH2      OT      -0.834000       15.9994           0
     69155 TIP3     9920     TIP3     H1       HT       0.417000       1.00800           0
     69156 TIP3     9920     TIP3     H2       HT       0.417000       1.00800           0
     69157 TIP3     9921     TIP3     OH2      OT      -0.834000       15.9994           0
     69158 TIP3     9921     TIP3     H1       HT       0.417000       1.00800           0
     69159 TIP3     9921     TIP3     H2       HT       0.417000       1.00800           0
     69160 TIP3     9922     TIP3     OH2      OT      -0.834000       15.9994           0
     69161 TIP3     9922     TIP3     H1       HT       0.417000       1.00800           0
     69162 TIP3     9922     TIP3     H2       HT       0.417000       1.00800           0
     69163 TIP3     9923     TIP3     OH2      OT      -0.834000       15.9994           0
     69164 TIP3     9923     TIP3     H1       HT       0.417000       1.00800           0
     69165 TIP3     9923     TIP3     H2       HT       0.417000       1.00800           0
     69166 TIP3     9924     TIP3     OH2      OT      -0.834000       15.9994           0
     69167 TIP3     9924     TIP3     H1       HT       0.417000       1.00800           0
     69168 TIP3     9924     TIP3     H2       HT       0.417000       1.00800           0
     69169 TIP3     9925     TIP3     OH2      OT      -0.834000       15.9994           0
     69170 TIP3     9925     TIP3     H1       HT       0.417000       1.00800           0
     69171 TIP3     9925     TIP3     H2       HT       0.417000       1.00800           0
     69172 TIP3     9926     TIP3     OH2      OT      -0.834000       15.9994           0
     69173 TIP3     9926     TIP3     H1       HT       0.417000       1.00800           0
     69174 TIP3     9926     TIP3     H2       HT       0.417000       1.00800           0
     69175 TIP3     9927     TIP3     OH2      OT      -0.834000       15.9994           0
     69176 TIP3     9927     TIP3     H1       HT       0.417000       1.00800           0
     69177 TIP3     9927     TIP3     H2       HT       0.417000       1.00800           0
     69178 TIP3     9928     TIP3     OH2      OT      -0.834000       15.9994           0
     69179 TIP3     9928     TIP3     H1       HT       0.417000       1.00800           0
     69180 TIP3     9928     TIP3     H2       HT       0.417000       1.00800           0
     69181 TIP3     9929     TIP3     OH2      OT      -0.834000       15.9994           0
     69182 TIP3     9929     TIP3     H1       HT       0.417000       1.00800           0
     69183 TIP3     9929     TIP3     H2       HT       0.417000       1.00800           0
     69184 TIP3     9930     TIP3     OH2      OT      -0.834000       15.9994           0
     69185 TIP3     9930     TIP3     H1       HT       0.417000       1.00800           0
     69186 TIP3     9930     TIP3     H2       HT       0.417000       1.00800           0
     69187 TIP3     9931     TIP3     OH2      OT      -0.834000       15.9994           0
     69188 TIP3     9931     TIP3     H1       HT       0.417000       1.00800           0
     69189 TIP3     9931     TIP3     H2       HT       0.417000       1.00800           0
     69190 TIP3     9932     TIP3     OH2      OT      -0.834000       15.9994           0
     69191 TIP3     9932     TIP3     H1       HT       0.417000       1.00800           0
     69192 TIP3     9932     TIP3     H2       HT       0.417000       1.00800           0
     69193 TIP3     9933     TIP3     OH2      OT      -0.834000       15.9994           0
     69194 TIP3     9933     TIP3     H1       HT       0.417000       1.00800           0
     69195 TIP3     9933     TIP3     H2       HT       0.417000       1.00800           0
     69196 TIP3     9934     TIP3     OH2      OT      -0.834000       15.9994           0
     69197 TIP3     9934     TIP3     H1       HT       0.417000       1.00800           0
     69198 TIP3     9934     TIP3     H2       HT       0.417000       1.00800           0
     69199 TIP3     9935     TIP3     OH2      OT      -0.834000       15.9994           0
     69200 TIP3     9935     TIP3     H1       HT       0.417000       1.00800           0
     69201 TIP3     9935     TIP3     H2       HT       0.417000       1.00800           0
     69202 TIP3     9936     TIP3     OH2      OT      -0.834000       15.9994           0
     69203 TIP3     9936     TIP3     H1       HT       0.417000       1.00800           0
     69204 TIP3     9936     TIP3     H2       HT       0.417000       1.00800           0
     69205 TIP3     9937     TIP3     OH2      OT      -0.834000       15.9994           0
     69206 TIP3     9937     TIP3     H1       HT       0.417000       1.00800           0
     69207 TIP3     9937     TIP3     H2       HT       0.417000       1.00800           0
     69208 TIP3     9938     TIP3     OH2      OT      -0.834000       15.9994           0
     69209 TIP3     9938     TIP3     H1       HT       0.417000       1.00800           0
     69210 TIP3     9938     TIP3     H2       HT       0.417000       1.00800           0
     69211 TIP3     9939     TIP3     OH2      OT      -0.834000       15.9994           0
     69212 TIP3     9939     TIP3     H1       HT       0.417000       1.00800           0
     69213 TIP3     9939     TIP3     H2       HT       0.417000       1.00800           0
     69214 TIP3     9940     TIP3     OH2      OT      -0.834000       15.9994           0
     69215 TIP3     9940     TIP3     H1       HT       0.417000       1.00800           0
     69216 TIP3     9940     TIP3     H2       HT       0.417000       1.00800           0
     69217 TIP3     9941     TIP3     OH2      OT      -0.834000       15.9994           0
     69218 TIP3     9941     TIP3     H1       HT       0.417000       1.00800           0
     69219 TIP3     9941     TIP3     H2       HT       0.417000       1.00800           0
     69220 TIP3     9942     TIP3     OH2      OT      -0.834000       15.9994           0
     69221 TIP3     9942     TIP3     H1       HT       0.417000       1.00800           0
     69222 TIP3     9942     TIP3     H2       HT       0.417000       1.00800           0
     69223 TIP3     9943     TIP3     OH2      OT      -0.834000       15.9994           0
     69224 TIP3     9943     TIP3     H1       HT       0.417000       1.00800           0
     69225 TIP3     9943     TIP3     H2       HT       0.417000       1.00800           0
     69226 TIP3     9944     TIP3     OH2      OT      -0.834000       15.9994           0
     69227 TIP3     9944     TIP3     H1       HT       0.417000       1.00800           0
     69228 TIP3     9944     TIP3     H2       HT       0.417000       1.00800           0
     69229 TIP3     9945     TIP3     OH2      OT      -0.834000       15.9994           0
     69230 TIP3     9945     TIP3     H1       HT       0.417000       1.00800           0
     69231 TIP3     9945     TIP3     H2       HT       0.417000       1.00800           0
     69232 TIP3     9946     TIP3     OH2      OT      -0.834000       15.9994           0
     69233 TIP3     9946     TIP3     H1       HT       0.417000       1.00800           0
     69234 TIP3     9946     TIP3     H2       HT       0.417000       1.00800           0
     69235 TIP3     9947     TIP3     OH2      OT      -0.834000       15.9994           0
     69236 TIP3     9947     TIP3     H1       HT       0.417000       1.00800           0
     69237 TIP3     9947     TIP3     H2       HT       0.417000       1.00800           0
     69238 TIP3     9948     TIP3     OH2      OT      -0.834000       15.9994           0
     69239 TIP3     9948     TIP3     H1       HT       0.417000       1.00800           0
     69240 TIP3     9948     TIP3     H2       HT       0.417000       1.00800           0
     69241 TIP3     9949     TIP3     OH2      OT      -0.834000       15.9994           0
     69242 TIP3     9949     TIP3     H1       HT       0.417000       1.00800           0
     69243 TIP3     9949     TIP3     H2       HT       0.417000       1.00800           0
     69244 TIP3     9950     TIP3     OH2      OT      -0.834000       15.9994           0
     69245 TIP3     9950     TIP3     H1       HT       0.417000       1.00800           0
     69246 TIP3     9950     TIP3     H2       HT       0.417000       1.00800           0
     69247 TIP3     9951     TIP3     OH2      OT      -0.834000       15.9994           0
     69248 TIP3     9951     TIP3     H1       HT       0.417000       1.00800           0
     69249 TIP3     9951     TIP3     H2       HT       0.417000       1.00800           0
     69250 TIP3     9952     TIP3     OH2      OT      -0.834000       15.9994           0
     69251 TIP3     9952     TIP3     H1       HT       0.417000       1.00800           0
     69252 TIP3     9952     TIP3     H2       HT       0.417000       1.00800           0
     69253 TIP3     9953     TIP3     OH2      OT      -0.834000       15.9994           0
     69254 TIP3     9953     TIP3     H1       HT       0.417000       1.00800           0
     69255 TIP3     9953     TIP3     H2       HT       0.417000       1.00800           0
     69256 TIP3     9954     TIP3     OH2      OT      -0.834000       15.9994           0
     69257 TIP3     9954     TIP3     H1       HT       0.417000       1.00800           0
     69258 TIP3     9954     TIP3     H2       HT       0.417000       1.00800           0
     69259 TIP3     9955     TIP3     OH2      OT      -0.834000       15.9994           0
     69260 TIP3     9955     TIP3     H1       HT       0.417000       1.00800           0
     69261 TIP3     9955     TIP3     H2       HT       0.417000       1.00800           0
     69262 TIP3     9956     TIP3     OH2      OT      -0.834000       15.9994           0
     69263 TIP3     9956     TIP3     H1       HT       0.417000       1.00800           0
     69264 TIP3     9956     TIP3     H2       HT       0.417000       1.00800           0
     69265 TIP3     9957     TIP3     OH2      OT      -0.834000       15.9994           0
     69266 TIP3     9957     TIP3     H1       HT       0.417000       1.00800           0
     69267 TIP3     9957     TIP3     H2       HT       0.417000       1.00800           0
     69268 TIP3     9958     TIP3     OH2      OT      -0.834000       15.9994           0
     69269 TIP3     9958     TIP3     H1       HT       0.417000       1.00800           0
     69270 TIP3     9958     TIP3     H2       HT       0.417000       1.00800           0
     69271 TIP3     9959     TIP3     OH2      OT      -0.834000       15.9994           0
     69272 TIP3     9959     TIP3     H1       HT       0.417000       1.00800           0
     69273 TIP3     9959     TIP3     H2       HT       0.417000       1.00800           0
     69274 TIP3     9960     TIP3     OH2      OT      -0.834000       15.9994           0
     69275 TIP3     9960     TIP3     H1       HT       0.417000       1.00800           0
     69276 TIP3     9960     TIP3     H2       HT       0.417000       1.00800           0
     69277 TIP3     9961     TIP3     OH2      OT      -0.834000       15.9994           0
     69278 TIP3     9961     TIP3     H1       HT       0.417000       1.00800           0
     69279 TIP3     9961     TIP3     H2       HT       0.417000       1.00800           0
     69280 TIP3     9962     TIP3     OH2      OT      -0.834000       15.9994           0
     69281 TIP3     9962     TIP3     H1       HT       0.417000       1.00800           0
     69282 TIP3     9962     TIP3     H2       HT       0.417000       1.00800           0
     69283 TIP3     9963     TIP3     OH2      OT      -0.834000       15.9994           0
     69284 TIP3     9963     TIP3     H1       HT       0.417000       1.00800           0
     69285 TIP3     9963     TIP3     H2       HT       0.417000       1.00800           0
     69286 TIP3     9964     TIP3     OH2      OT      -0.834000       15.9994           0
     69287 TIP3     9964     TIP3     H1       HT       0.417000       1.00800           0
     69288 TIP3     9964     TIP3     H2       HT       0.417000       1.00800           0
     69289 TIP3     9965     TIP3     OH2      OT      -0.834000       15.9994           0
     69290 TIP3     9965     TIP3     H1       HT       0.417000       1.00800           0
     69291 TIP3     9965     TIP3     H2       HT       0.417000       1.00800           0
     69292 TIP3     9966     TIP3     OH2      OT      -0.834000       15.9994           0
     69293 TIP3     9966     TIP3     H1       HT       0.417000       1.00800           0
     69294 TIP3     9966     TIP3     H2       HT       0.417000       1.00800           0
     69295 TIP3     9967     TIP3     OH2      OT      -0.834000       15.9994           0
     69296 TIP3     9967     TIP3     H1       HT       0.417000       1.00800           0
     69297 TIP3     9967     TIP3     H2       HT       0.417000       1.00800           0
     69298 TIP3     9968     TIP3     OH2      OT      -0.834000       15.9994           0
     69299 TIP3     9968     TIP3     H1       HT       0.417000       1.00800           0
     69300 TIP3     9968     TIP3     H2       HT       0.417000       1.00800           0
     69301 TIP3     9969     TIP3     OH2      OT      -0.834000       15.9994           0
     69302 TIP3     9969     TIP3     H1       HT       0.417000       1.00800           0
     69303 TIP3     9969     TIP3     H2       HT       0.417000       1.00800           0
     69304 TIP3     9970     TIP3     OH2      OT      -0.834000       15.9994           0
     69305 TIP3     9970     TIP3     H1       HT       0.417000       1.00800           0
     69306 TIP3     9970     TIP3     H2       HT       0.417000       1.00800           0
     69307 TIP3     9971     TIP3     OH2      OT      -0.834000       15.9994           0
     69308 TIP3     9971     TIP3     H1       HT       0.417000       1.00800           0
     69309 TIP3     9971     TIP3     H2       HT       0.417000       1.00800           0
     69310 TIP3     9972     TIP3     OH2      OT      -0.834000       15.9994           0
     69311 TIP3     9972     TIP3     H1       HT       0.417000       1.00800           0
     69312 TIP3     9972     TIP3     H2       HT       0.417000       1.00800           0
     69313 TIP3     9973     TIP3     OH2      OT      -0.834000       15.9994           0
     69314 TIP3     9973     TIP3     H1       HT       0.417000       1.00800           0
     69315 TIP3     9973     TIP3     H2       HT       0.417000       1.00800           0
     69316 TIP3     9974     TIP3     OH2      OT      -0.834000       15.9994           0
     69317 TIP3     9974     TIP3     H1       HT       0.417000       1.00800           0
     69318 TIP3     9974     TIP3     H2       HT       0.417000       1.00800           0
     69319 TIP3     9975     TIP3     OH2      OT      -0.834000       15.9994           0
     69320 TIP3     9975     TIP3     H1       HT       0.417000       1.00800           0
     69321 TIP3     9975     TIP3     H2       HT       0.417000       1.00800           0
     69322 TIP3     9976     TIP3     OH2      OT      -0.834000       15.9994           0
     69323 TIP3     9976     TIP3     H1       HT       0.417000       1.00800           0
     69324 TIP3     9976     TIP3     H2       HT       0.417000       1.00800           0
     69325 TIP3     9977     TIP3     OH2      OT      -0.834000       15.9994           0
     69326 TIP3     9977     TIP3     H1       HT       0.417000       1.00800           0
     69327 TIP3     9977     TIP3     H2       HT       0.417000       1.00800           0
     69328 TIP3     9978     TIP3     OH2      OT      -0.834000       15.9994           0
     69329 TIP3     9978     TIP3     H1       HT       0.417000       1.00800           0
     69330 TIP3     9978     TIP3     H2       HT       0.417000       1.00800           0
     69331 TIP3     9979     TIP3     OH2      OT      -0.834000       15.9994           0
     69332 TIP3     9979     TIP3     H1       HT       0.417000       1.00800           0
     69333 TIP3     9979     TIP3     H2       HT       0.417000       1.00800           0
     69334 TIP3     9980     TIP3     OH2      OT      -0.834000       15.9994           0
     69335 TIP3     9980     TIP3     H1       HT       0.417000       1.00800           0
     69336 TIP3     9980     TIP3     H2       HT       0.417000       1.00800           0
     69337 TIP3     9981     TIP3     OH2      OT      -0.834000       15.9994           0
     69338 TIP3     9981     TIP3     H1       HT       0.417000       1.00800           0
     69339 TIP3     9981     TIP3     H2       HT       0.417000       1.00800           0
     69340 TIP3     9982     TIP3     OH2      OT      -0.834000       15.9994           0
     69341 TIP3     9982     TIP3     H1       HT       0.417000       1.00800           0
     69342 TIP3     9982     TIP3     H2       HT       0.417000       1.00800           0
     69343 TIP3     9983     TIP3     OH2      OT      -0.834000       15.9994           0
     69344 TIP3     9983     TIP3     H1       HT       0.417000       1.00800           0
     69345 TIP3     9983     TIP3     H2       HT       0.417000       1.00800           0
     69346 TIP3     9984     TIP3     OH2      OT      -0.834000       15.9994           0
     69347 TIP3     9984     TIP3     H1       HT       0.417000       1.00800           0
     69348 TIP3     9984     TIP3     H2       HT       0.417000       1.00800           0
     69349 TIP3     9985     TIP3     OH2      OT      -0.834000       15.9994           0
     69350 TIP3     9985     TIP3     H1       HT       0.417000       1.00800           0
     69351 TIP3     9985     TIP3     H2       HT       0.417000       1.00800           0
     69352 TIP3     9986     TIP3     OH2      OT      -0.834000       15.9994           0
     69353 TIP3     9986     TIP3     H1       HT       0.417000       1.00800           0
     69354 TIP3     9986     TIP3     H2       HT       0.417000       1.00800           0
     69355 TIP3     9987     TIP3     OH2      OT      -0.834000       15.9994           0
     69356 TIP3     9987     TIP3     H1       HT       0.417000       1.00800           0
     69357 TIP3     9987     TIP3     H2       HT       0.417000       1.00800           0
     69358 TIP3     9988     TIP3     OH2      OT      -0.834000       15.9994           0
     69359 TIP3     9988     TIP3     H1       HT       0.417000       1.00800           0
     69360 TIP3     9988     TIP3     H2       HT       0.417000       1.00800           0
     69361 TIP3     9989     TIP3     OH2      OT      -0.834000       15.9994           0
     69362 TIP3     9989     TIP3     H1       HT       0.417000       1.00800           0
     69363 TIP3     9989     TIP3     H2       HT       0.417000       1.00800           0
     69364 TIP3     9990     TIP3     OH2      OT      -0.834000       15.9994           0
     69365 TIP3     9990     TIP3     H1       HT       0.417000       1.00800           0
     69366 TIP3     9990     TIP3     H2       HT       0.417000       1.00800           0
     69367 TIP3     9991     TIP3     OH2      OT      -0.834000       15.9994           0
     69368 TIP3     9991     TIP3     H1       HT       0.417000       1.00800           0
     69369 TIP3     9991     TIP3     H2       HT       0.417000       1.00800           0
     69370 TIP3     9992     TIP3     OH2      OT      -0.834000       15.9994           0
     69371 TIP3     9992     TIP3     H1       HT       0.417000       1.00800           0
     69372 TIP3     9992     TIP3     H2       HT       0.417000       1.00800           0
     69373 TIP3     9993     TIP3     OH2      OT      -0.834000       15.9994           0
     69374 TIP3     9993     TIP3     H1       HT       0.417000       1.00800           0
     69375 TIP3     9993     TIP3     H2       HT       0.417000       1.00800           0
     69376 TIP3     9994     TIP3     OH2      OT      -0.834000       15.9994           0
     69377 TIP3     9994     TIP3     H1       HT       0.417000       1.00800           0
     69378 TIP3     9994     TIP3     H2       HT       0.417000       1.00800           0
     69379 TIP3     9995     TIP3     OH2      OT      -0.834000       15.9994           0
     69380 TIP3     9995     TIP3     H1       HT       0.417000       1.00800           0
     69381 TIP3     9995     TIP3     H2       HT       0.417000       1.00800           0
     69382 TIP3     9996     TIP3     OH2      OT      -0.834000       15.9994           0
     69383 TIP3     9996     TIP3     H1       HT       0.417000       1.00800           0
     69384 TIP3     9996     TIP3     H2       HT       0.417000       1.00800           0
     69385 TIP3     9997     TIP3     OH2      OT      -0.834000       15.9994           0
     69386 TIP3     9997     TIP3     H1       HT       0.417000       1.00800           0
     69387 TIP3     9997     TIP3     H2       HT       0.417000       1.00800           0
     69388 TIP3     9998     TIP3     OH2      OT      -0.834000       15.9994           0
     69389 TIP3     9998     TIP3     H1       HT       0.417000       1.00800           0
     69390 TIP3     9998     TIP3     H2       HT       0.417000       1.00800           0
     69391 TIP3     9999     TIP3     OH2      OT      -0.834000       15.9994           0
     69392 TIP3     9999     TIP3     H1       HT       0.417000       1.00800           0
     69393 TIP3     9999     TIP3     H2       HT       0.417000       1.00800           0
     69394 TIP3     10000    TIP3     OH2      OT      -0.834000       15.9994           0
     69395 TIP3     10000    TIP3     H1       HT       0.417000       1.00800           0
     69396 TIP3     10000    TIP3     H2       HT       0.417000       1.00800           0
     69397 TIP3     10001    TIP3     OH2      OT      -0.834000       15.9994           0
     69398 TIP3     10001    TIP3     H1       HT       0.417000       1.00800           0
     69399 TIP3     10001    TIP3     H2       HT       0.417000       1.00800           0
     69400 TIP3     10002    TIP3     OH2      OT      -0.834000       15.9994           0
     69401 TIP3     10002    TIP3     H1       HT       0.417000       1.00800           0
     69402 TIP3     10002    TIP3     H2       HT       0.417000       1.00800           0
     69403 TIP3     10003    TIP3     OH2      OT      -0.834000       15.9994           0
     69404 TIP3     10003    TIP3     H1       HT       0.417000       1.00800           0
     69405 TIP3     10003    TIP3     H2       HT       0.417000       1.00800           0
     69406 TIP3     10004    TIP3     OH2      OT      -0.834000       15.9994           0
     69407 TIP3     10004    TIP3     H1       HT       0.417000       1.00800           0
     69408 TIP3     10004    TIP3     H2       HT       0.417000       1.00800           0
     69409 TIP3     10005    TIP3     OH2      OT      -0.834000       15.9994           0
     69410 TIP3     10005    TIP3     H1       HT       0.417000       1.00800           0
     69411 TIP3     10005    TIP3     H2       HT       0.417000       1.00800           0
     69412 TIP3     10006    TIP3     OH2      OT      -0.834000       15.9994           0
     69413 TIP3     10006    TIP3     H1       HT       0.417000       1.00800           0
     69414 TIP3     10006    TIP3     H2       HT       0.417000       1.00800           0
     69415 TIP3     10007    TIP3     OH2      OT      -0.834000       15.9994           0
     69416 TIP3     10007    TIP3     H1       HT       0.417000       1.00800           0
     69417 TIP3     10007    TIP3     H2       HT       0.417000       1.00800           0
     69418 TIP3     10008    TIP3     OH2      OT      -0.834000       15.9994           0
     69419 TIP3     10008    TIP3     H1       HT       0.417000       1.00800           0
     69420 TIP3     10008    TIP3     H2       HT       0.417000       1.00800           0
     69421 TIP3     10009    TIP3     OH2      OT      -0.834000       15.9994           0
     69422 TIP3     10009    TIP3     H1       HT       0.417000       1.00800           0
     69423 TIP3     10009    TIP3     H2       HT       0.417000       1.00800           0
     69424 TIP3     10010    TIP3     OH2      OT      -0.834000       15.9994           0
     69425 TIP3     10010    TIP3     H1       HT       0.417000       1.00800           0
     69426 TIP3     10010    TIP3     H2       HT       0.417000       1.00800           0
     69427 TIP3     10011    TIP3     OH2      OT      -0.834000       15.9994           0
     69428 TIP3     10011    TIP3     H1       HT       0.417000       1.00800           0
     69429 TIP3     10011    TIP3     H2       HT       0.417000       1.00800           0
     69430 TIP3     10012    TIP3     OH2      OT      -0.834000       15.9994           0
     69431 TIP3     10012    TIP3     H1       HT       0.417000       1.00800           0
     69432 TIP3     10012    TIP3     H2       HT       0.417000       1.00800           0
     69433 TIP3     10013    TIP3     OH2      OT      -0.834000       15.9994           0
     69434 TIP3     10013    TIP3     H1       HT       0.417000       1.00800           0
     69435 TIP3     10013    TIP3     H2       HT       0.417000       1.00800           0
     69436 TIP3     10014    TIP3     OH2      OT      -0.834000       15.9994           0
     69437 TIP3     10014    TIP3     H1       HT       0.417000       1.00800           0
     69438 TIP3     10014    TIP3     H2       HT       0.417000       1.00800           0
     69439 TIP3     10015    TIP3     OH2      OT      -0.834000       15.9994           0
     69440 TIP3     10015    TIP3     H1       HT       0.417000       1.00800           0
     69441 TIP3     10015    TIP3     H2       HT       0.417000       1.00800           0
     69442 TIP3     10016    TIP3     OH2      OT      -0.834000       15.9994           0
     69443 TIP3     10016    TIP3     H1       HT       0.417000       1.00800           0
     69444 TIP3     10016    TIP3     H2       HT       0.417000       1.00800           0
     69445 TIP3     10017    TIP3     OH2      OT      -0.834000       15.9994           0
     69446 TIP3     10017    TIP3     H1       HT       0.417000       1.00800           0
     69447 TIP3     10017    TIP3     H2       HT       0.417000       1.00800           0
     69448 TIP3     10018    TIP3     OH2      OT      -0.834000       15.9994           0
     69449 TIP3     10018    TIP3     H1       HT       0.417000       1.00800           0
     69450 TIP3     10018    TIP3     H2       HT       0.417000       1.00800           0
     69451 TIP3     10019    TIP3     OH2      OT      -0.834000       15.9994           0
     69452 TIP3     10019    TIP3     H1       HT       0.417000       1.00800           0
     69453 TIP3     10019    TIP3     H2       HT       0.417000       1.00800           0
     69454 TIP3     10020    TIP3     OH2      OT      -0.834000       15.9994           0
     69455 TIP3     10020    TIP3     H1       HT       0.417000       1.00800           0
     69456 TIP3     10020    TIP3     H2       HT       0.417000       1.00800           0
     69457 TIP3     10021    TIP3     OH2      OT      -0.834000       15.9994           0
     69458 TIP3     10021    TIP3     H1       HT       0.417000       1.00800           0
     69459 TIP3     10021    TIP3     H2       HT       0.417000       1.00800           0
     69460 TIP3     10022    TIP3     OH2      OT      -0.834000       15.9994           0
     69461 TIP3     10022    TIP3     H1       HT       0.417000       1.00800           0
     69462 TIP3     10022    TIP3     H2       HT       0.417000       1.00800           0
     69463 TIP3     10023    TIP3     OH2      OT      -0.834000       15.9994           0
     69464 TIP3     10023    TIP3     H1       HT       0.417000       1.00800           0
     69465 TIP3     10023    TIP3     H2       HT       0.417000       1.00800           0
     69466 TIP3     10024    TIP3     OH2      OT      -0.834000       15.9994           0
     69467 TIP3     10024    TIP3     H1       HT       0.417000       1.00800           0
     69468 TIP3     10024    TIP3     H2       HT       0.417000       1.00800           0
     69469 TIP3     10025    TIP3     OH2      OT      -0.834000       15.9994           0
     69470 TIP3     10025    TIP3     H1       HT       0.417000       1.00800           0
     69471 TIP3     10025    TIP3     H2       HT       0.417000       1.00800           0
     69472 TIP3     10026    TIP3     OH2      OT      -0.834000       15.9994           0
     69473 TIP3     10026    TIP3     H1       HT       0.417000       1.00800           0
     69474 TIP3     10026    TIP3     H2       HT       0.417000       1.00800           0
     69475 TIP3     10027    TIP3     OH2      OT      -0.834000       15.9994           0
     69476 TIP3     10027    TIP3     H1       HT       0.417000       1.00800           0
     69477 TIP3     10027    TIP3     H2       HT       0.417000       1.00800           0
     69478 TIP3     10028    TIP3     OH2      OT      -0.834000       15.9994           0
     69479 TIP3     10028    TIP3     H1       HT       0.417000       1.00800           0
     69480 TIP3     10028    TIP3     H2       HT       0.417000       1.00800           0
     69481 TIP3     10029    TIP3     OH2      OT      -0.834000       15.9994           0
     69482 TIP3     10029    TIP3     H1       HT       0.417000       1.00800           0
     69483 TIP3     10029    TIP3     H2       HT       0.417000       1.00800           0
     69484 TIP3     10030    TIP3     OH2      OT      -0.834000       15.9994           0
     69485 TIP3     10030    TIP3     H1       HT       0.417000       1.00800           0
     69486 TIP3     10030    TIP3     H2       HT       0.417000       1.00800           0
     69487 TIP3     10031    TIP3     OH2      OT      -0.834000       15.9994           0
     69488 TIP3     10031    TIP3     H1       HT       0.417000       1.00800           0
     69489 TIP3     10031    TIP3     H2       HT       0.417000       1.00800           0
     69490 TIP3     10032    TIP3     OH2      OT      -0.834000       15.9994           0
     69491 TIP3     10032    TIP3     H1       HT       0.417000       1.00800           0
     69492 TIP3     10032    TIP3     H2       HT       0.417000       1.00800           0
     69493 TIP3     10033    TIP3     OH2      OT      -0.834000       15.9994           0
     69494 TIP3     10033    TIP3     H1       HT       0.417000       1.00800           0
     69495 TIP3     10033    TIP3     H2       HT       0.417000       1.00800           0
     69496 TIP3     10034    TIP3     OH2      OT      -0.834000       15.9994           0
     69497 TIP3     10034    TIP3     H1       HT       0.417000       1.00800           0
     69498 TIP3     10034    TIP3     H2       HT       0.417000       1.00800           0
     69499 TIP3     10035    TIP3     OH2      OT      -0.834000       15.9994           0
     69500 TIP3     10035    TIP3     H1       HT       0.417000       1.00800           0
     69501 TIP3     10035    TIP3     H2       HT       0.417000       1.00800           0
     69502 TIP3     10036    TIP3     OH2      OT      -0.834000       15.9994           0
     69503 TIP3     10036    TIP3     H1       HT       0.417000       1.00800           0
     69504 TIP3     10036    TIP3     H2       HT       0.417000       1.00800           0
     69505 TIP3     10037    TIP3     OH2      OT      -0.834000       15.9994           0
     69506 TIP3     10037    TIP3     H1       HT       0.417000       1.00800           0
     69507 TIP3     10037    TIP3     H2       HT       0.417000       1.00800           0
     69508 TIP3     10038    TIP3     OH2      OT      -0.834000       15.9994           0
     69509 TIP3     10038    TIP3     H1       HT       0.417000       1.00800           0
     69510 TIP3     10038    TIP3     H2       HT       0.417000       1.00800           0
     69511 TIP3     10039    TIP3     OH2      OT      -0.834000       15.9994           0
     69512 TIP3     10039    TIP3     H1       HT       0.417000       1.00800           0
     69513 TIP3     10039    TIP3     H2       HT       0.417000       1.00800           0
     69514 TIP3     10040    TIP3     OH2      OT      -0.834000       15.9994           0
     69515 TIP3     10040    TIP3     H1       HT       0.417000       1.00800           0
     69516 TIP3     10040    TIP3     H2       HT       0.417000       1.00800           0
     69517 TIP3     10041    TIP3     OH2      OT      -0.834000       15.9994           0
     69518 TIP3     10041    TIP3     H1       HT       0.417000       1.00800           0
     69519 TIP3     10041    TIP3     H2       HT       0.417000       1.00800           0
     69520 TIP3     10042    TIP3     OH2      OT      -0.834000       15.9994           0
     69521 TIP3     10042    TIP3     H1       HT       0.417000       1.00800           0
     69522 TIP3     10042    TIP3     H2       HT       0.417000       1.00800           0
     69523 TIP3     10043    TIP3     OH2      OT      -0.834000       15.9994           0
     69524 TIP3     10043    TIP3     H1       HT       0.417000       1.00800           0
     69525 TIP3     10043    TIP3     H2       HT       0.417000       1.00800           0
     69526 TIP3     10044    TIP3     OH2      OT      -0.834000       15.9994           0
     69527 TIP3     10044    TIP3     H1       HT       0.417000       1.00800           0
     69528 TIP3     10044    TIP3     H2       HT       0.417000       1.00800           0
     69529 TIP3     10045    TIP3     OH2      OT      -0.834000       15.9994           0
     69530 TIP3     10045    TIP3     H1       HT       0.417000       1.00800           0
     69531 TIP3     10045    TIP3     H2       HT       0.417000       1.00800           0
     69532 TIP3     10046    TIP3     OH2      OT      -0.834000       15.9994           0
     69533 TIP3     10046    TIP3     H1       HT       0.417000       1.00800           0
     69534 TIP3     10046    TIP3     H2       HT       0.417000       1.00800           0
     69535 TIP3     10047    TIP3     OH2      OT      -0.834000       15.9994           0
     69536 TIP3     10047    TIP3     H1       HT       0.417000       1.00800           0
     69537 TIP3     10047    TIP3     H2       HT       0.417000       1.00800           0
     69538 TIP3     10048    TIP3     OH2      OT      -0.834000       15.9994           0
     69539 TIP3     10048    TIP3     H1       HT       0.417000       1.00800           0
     69540 TIP3     10048    TIP3     H2       HT       0.417000       1.00800           0
     69541 TIP3     10049    TIP3     OH2      OT      -0.834000       15.9994           0
     69542 TIP3     10049    TIP3     H1       HT       0.417000       1.00800           0
     69543 TIP3     10049    TIP3     H2       HT       0.417000       1.00800           0
     69544 TIP3     10050    TIP3     OH2      OT      -0.834000       15.9994           0
     69545 TIP3     10050    TIP3     H1       HT       0.417000       1.00800           0
     69546 TIP3     10050    TIP3     H2       HT       0.417000       1.00800           0
     69547 TIP3     10051    TIP3     OH2      OT      -0.834000       15.9994           0
     69548 TIP3     10051    TIP3     H1       HT       0.417000       1.00800           0
     69549 TIP3     10051    TIP3     H2       HT       0.417000       1.00800           0
     69550 TIP3     10052    TIP3     OH2      OT      -0.834000       15.9994           0
     69551 TIP3     10052    TIP3     H1       HT       0.417000       1.00800           0
     69552 TIP3     10052    TIP3     H2       HT       0.417000       1.00800           0
     69553 TIP3     10053    TIP3     OH2      OT      -0.834000       15.9994           0
     69554 TIP3     10053    TIP3     H1       HT       0.417000       1.00800           0
     69555 TIP3     10053    TIP3     H2       HT       0.417000       1.00800           0
     69556 TIP3     10054    TIP3     OH2      OT      -0.834000       15.9994           0
     69557 TIP3     10054    TIP3     H1       HT       0.417000       1.00800           0
     69558 TIP3     10054    TIP3     H2       HT       0.417000       1.00800           0
     69559 TIP3     10055    TIP3     OH2      OT      -0.834000       15.9994           0
     69560 TIP3     10055    TIP3     H1       HT       0.417000       1.00800           0
     69561 TIP3     10055    TIP3     H2       HT       0.417000       1.00800           0
     69562 TIP3     10056    TIP3     OH2      OT      -0.834000       15.9994           0
     69563 TIP3     10056    TIP3     H1       HT       0.417000       1.00800           0
     69564 TIP3     10056    TIP3     H2       HT       0.417000       1.00800           0
     69565 TIP3     10057    TIP3     OH2      OT      -0.834000       15.9994           0
     69566 TIP3     10057    TIP3     H1       HT       0.417000       1.00800           0
     69567 TIP3     10057    TIP3     H2       HT       0.417000       1.00800           0
     69568 TIP3     10058    TIP3     OH2      OT      -0.834000       15.9994           0
     69569 TIP3     10058    TIP3     H1       HT       0.417000       1.00800           0
     69570 TIP3     10058    TIP3     H2       HT       0.417000       1.00800           0
     69571 TIP3     10059    TIP3     OH2      OT      -0.834000       15.9994           0
     69572 TIP3     10059    TIP3     H1       HT       0.417000       1.00800           0
     69573 TIP3     10059    TIP3     H2       HT       0.417000       1.00800           0
     69574 TIP3     10060    TIP3     OH2      OT      -0.834000       15.9994           0
     69575 TIP3     10060    TIP3     H1       HT       0.417000       1.00800           0
     69576 TIP3     10060    TIP3     H2       HT       0.417000       1.00800           0
     69577 TIP3     10061    TIP3     OH2      OT      -0.834000       15.9994           0
     69578 TIP3     10061    TIP3     H1       HT       0.417000       1.00800           0
     69579 TIP3     10061    TIP3     H2       HT       0.417000       1.00800           0
     69580 TIP3     10062    TIP3     OH2      OT      -0.834000       15.9994           0
     69581 TIP3     10062    TIP3     H1       HT       0.417000       1.00800           0
     69582 TIP3     10062    TIP3     H2       HT       0.417000       1.00800           0
     69583 TIP3     10063    TIP3     OH2      OT      -0.834000       15.9994           0
     69584 TIP3     10063    TIP3     H1       HT       0.417000       1.00800           0
     69585 TIP3     10063    TIP3     H2       HT       0.417000       1.00800           0
     69586 TIP3     10064    TIP3     OH2      OT      -0.834000       15.9994           0
     69587 TIP3     10064    TIP3     H1       HT       0.417000       1.00800           0
     69588 TIP3     10064    TIP3     H2       HT       0.417000       1.00800           0
     69589 TIP3     10065    TIP3     OH2      OT      -0.834000       15.9994           0
     69590 TIP3     10065    TIP3     H1       HT       0.417000       1.00800           0
     69591 TIP3     10065    TIP3     H2       HT       0.417000       1.00800           0
     69592 TIP3     10066    TIP3     OH2      OT      -0.834000       15.9994           0
     69593 TIP3     10066    TIP3     H1       HT       0.417000       1.00800           0
     69594 TIP3     10066    TIP3     H2       HT       0.417000       1.00800           0
     69595 TIP3     10067    TIP3     OH2      OT      -0.834000       15.9994           0
     69596 TIP3     10067    TIP3     H1       HT       0.417000       1.00800           0
     69597 TIP3     10067    TIP3     H2       HT       0.417000       1.00800           0
     69598 TIP3     10068    TIP3     OH2      OT      -0.834000       15.9994           0
     69599 TIP3     10068    TIP3     H1       HT       0.417000       1.00800           0
     69600 TIP3     10068    TIP3     H2       HT       0.417000       1.00800           0
     69601 TIP3     10069    TIP3     OH2      OT      -0.834000       15.9994           0
     69602 TIP3     10069    TIP3     H1       HT       0.417000       1.00800           0
     69603 TIP3     10069    TIP3     H2       HT       0.417000       1.00800           0
     69604 TIP3     10070    TIP3     OH2      OT      -0.834000       15.9994           0
     69605 TIP3     10070    TIP3     H1       HT       0.417000       1.00800           0
     69606 TIP3     10070    TIP3     H2       HT       0.417000       1.00800           0
     69607 TIP3     10071    TIP3     OH2      OT      -0.834000       15.9994           0
     69608 TIP3     10071    TIP3     H1       HT       0.417000       1.00800           0
     69609 TIP3     10071    TIP3     H2       HT       0.417000       1.00800           0
     69610 TIP3     10072    TIP3     OH2      OT      -0.834000       15.9994           0
     69611 TIP3     10072    TIP3     H1       HT       0.417000       1.00800           0
     69612 TIP3     10072    TIP3     H2       HT       0.417000       1.00800           0
     69613 TIP3     10073    TIP3     OH2      OT      -0.834000       15.9994           0
     69614 TIP3     10073    TIP3     H1       HT       0.417000       1.00800           0
     69615 TIP3     10073    TIP3     H2       HT       0.417000       1.00800           0
     69616 TIP3     10074    TIP3     OH2      OT      -0.834000       15.9994           0
     69617 TIP3     10074    TIP3     H1       HT       0.417000       1.00800           0
     69618 TIP3     10074    TIP3     H2       HT       0.417000       1.00800           0
     69619 TIP3     10075    TIP3     OH2      OT      -0.834000       15.9994           0
     69620 TIP3     10075    TIP3     H1       HT       0.417000       1.00800           0
     69621 TIP3     10075    TIP3     H2       HT       0.417000       1.00800           0
     69622 TIP3     10076    TIP3     OH2      OT      -0.834000       15.9994           0
     69623 TIP3     10076    TIP3     H1       HT       0.417000       1.00800           0
     69624 TIP3     10076    TIP3     H2       HT       0.417000       1.00800           0
     69625 TIP3     10077    TIP3     OH2      OT      -0.834000       15.9994           0
     69626 TIP3     10077    TIP3     H1       HT       0.417000       1.00800           0
     69627 TIP3     10077    TIP3     H2       HT       0.417000       1.00800           0
     69628 TIP3     10078    TIP3     OH2      OT      -0.834000       15.9994           0
     69629 TIP3     10078    TIP3     H1       HT       0.417000       1.00800           0
     69630 TIP3     10078    TIP3     H2       HT       0.417000       1.00800           0
     69631 TIP3     10079    TIP3     OH2      OT      -0.834000       15.9994           0
     69632 TIP3     10079    TIP3     H1       HT       0.417000       1.00800           0
     69633 TIP3     10079    TIP3     H2       HT       0.417000       1.00800           0
     69634 TIP3     10080    TIP3     OH2      OT      -0.834000       15.9994           0
     69635 TIP3     10080    TIP3     H1       HT       0.417000       1.00800           0
     69636 TIP3     10080    TIP3     H2       HT       0.417000       1.00800           0
     69637 TIP3     10081    TIP3     OH2      OT      -0.834000       15.9994           0
     69638 TIP3     10081    TIP3     H1       HT       0.417000       1.00800           0
     69639 TIP3     10081    TIP3     H2       HT       0.417000       1.00800           0
     69640 TIP3     10082    TIP3     OH2      OT      -0.834000       15.9994           0
     69641 TIP3     10082    TIP3     H1       HT       0.417000       1.00800           0
     69642 TIP3     10082    TIP3     H2       HT       0.417000       1.00800           0
     69643 TIP3     10083    TIP3     OH2      OT      -0.834000       15.9994           0
     69644 TIP3     10083    TIP3     H1       HT       0.417000       1.00800           0
     69645 TIP3     10083    TIP3     H2       HT       0.417000       1.00800           0
     69646 TIP3     10084    TIP3     OH2      OT      -0.834000       15.9994           0
     69647 TIP3     10084    TIP3     H1       HT       0.417000       1.00800           0
     69648 TIP3     10084    TIP3     H2       HT       0.417000       1.00800           0
     69649 TIP3     10085    TIP3     OH2      OT      -0.834000       15.9994           0
     69650 TIP3     10085    TIP3     H1       HT       0.417000       1.00800           0
     69651 TIP3     10085    TIP3     H2       HT       0.417000       1.00800           0
     69652 TIP3     10086    TIP3     OH2      OT      -0.834000       15.9994           0
     69653 TIP3     10086    TIP3     H1       HT       0.417000       1.00800           0
     69654 TIP3     10086    TIP3     H2       HT       0.417000       1.00800           0
     69655 TIP3     10087    TIP3     OH2      OT      -0.834000       15.9994           0
     69656 TIP3     10087    TIP3     H1       HT       0.417000       1.00800           0
     69657 TIP3     10087    TIP3     H2       HT       0.417000       1.00800           0
     69658 TIP3     10088    TIP3     OH2      OT      -0.834000       15.9994           0
     69659 TIP3     10088    TIP3     H1       HT       0.417000       1.00800           0
     69660 TIP3     10088    TIP3     H2       HT       0.417000       1.00800           0
     69661 TIP3     10089    TIP3     OH2      OT      -0.834000       15.9994           0
     69662 TIP3     10089    TIP3     H1       HT       0.417000       1.00800           0
     69663 TIP3     10089    TIP3     H2       HT       0.417000       1.00800           0
     69664 TIP3     10090    TIP3     OH2      OT      -0.834000       15.9994           0
     69665 TIP3     10090    TIP3     H1       HT       0.417000       1.00800           0
     69666 TIP3     10090    TIP3     H2       HT       0.417000       1.00800           0
     69667 TIP3     10091    TIP3     OH2      OT      -0.834000       15.9994           0
     69668 TIP3     10091    TIP3     H1       HT       0.417000       1.00800           0
     69669 TIP3     10091    TIP3     H2       HT       0.417000       1.00800           0
     69670 TIP3     10092    TIP3     OH2      OT      -0.834000       15.9994           0
     69671 TIP3     10092    TIP3     H1       HT       0.417000       1.00800           0
     69672 TIP3     10092    TIP3     H2       HT       0.417000       1.00800           0
     69673 TIP3     10093    TIP3     OH2      OT      -0.834000       15.9994           0
     69674 TIP3     10093    TIP3     H1       HT       0.417000       1.00800           0
     69675 TIP3     10093    TIP3     H2       HT       0.417000       1.00800           0
     69676 TIP3     10094    TIP3     OH2      OT      -0.834000       15.9994           0
     69677 TIP3     10094    TIP3     H1       HT       0.417000       1.00800           0
     69678 TIP3     10094    TIP3     H2       HT       0.417000       1.00800           0
     69679 TIP3     10095    TIP3     OH2      OT      -0.834000       15.9994           0
     69680 TIP3     10095    TIP3     H1       HT       0.417000       1.00800           0
     69681 TIP3     10095    TIP3     H2       HT       0.417000       1.00800           0
     69682 TIP3     10096    TIP3     OH2      OT      -0.834000       15.9994           0
     69683 TIP3     10096    TIP3     H1       HT       0.417000       1.00800           0
     69684 TIP3     10096    TIP3     H2       HT       0.417000       1.00800           0
     69685 TIP3     10097    TIP3     OH2      OT      -0.834000       15.9994           0
     69686 TIP3     10097    TIP3     H1       HT       0.417000       1.00800           0
     69687 TIP3     10097    TIP3     H2       HT       0.417000       1.00800           0
     69688 TIP3     10098    TIP3     OH2      OT      -0.834000       15.9994           0
     69689 TIP3     10098    TIP3     H1       HT       0.417000       1.00800           0
     69690 TIP3     10098    TIP3     H2       HT       0.417000       1.00800           0
     69691 TIP3     10099    TIP3     OH2      OT      -0.834000       15.9994           0
     69692 TIP3     10099    TIP3     H1       HT       0.417000       1.00800           0
     69693 TIP3     10099    TIP3     H2       HT       0.417000       1.00800           0
     69694 TIP3     10100    TIP3     OH2      OT      -0.834000       15.9994           0
     69695 TIP3     10100    TIP3     H1       HT       0.417000       1.00800           0
     69696 TIP3     10100    TIP3     H2       HT       0.417000       1.00800           0
     69697 TIP3     10101    TIP3     OH2      OT      -0.834000       15.9994           0
     69698 TIP3     10101    TIP3     H1       HT       0.417000       1.00800           0
     69699 TIP3     10101    TIP3     H2       HT       0.417000       1.00800           0
     69700 TIP3     10102    TIP3     OH2      OT      -0.834000       15.9994           0
     69701 TIP3     10102    TIP3     H1       HT       0.417000       1.00800           0
     69702 TIP3     10102    TIP3     H2       HT       0.417000       1.00800           0
     69703 TIP3     10103    TIP3     OH2      OT      -0.834000       15.9994           0
     69704 TIP3     10103    TIP3     H1       HT       0.417000       1.00800           0
     69705 TIP3     10103    TIP3     H2       HT       0.417000       1.00800           0
     69706 TIP3     10104    TIP3     OH2      OT      -0.834000       15.9994           0
     69707 TIP3     10104    TIP3     H1       HT       0.417000       1.00800           0
     69708 TIP3     10104    TIP3     H2       HT       0.417000       1.00800           0
     69709 TIP3     10105    TIP3     OH2      OT      -0.834000       15.9994           0
     69710 TIP3     10105    TIP3     H1       HT       0.417000       1.00800           0
     69711 TIP3     10105    TIP3     H2       HT       0.417000       1.00800           0
     69712 TIP3     10106    TIP3     OH2      OT      -0.834000       15.9994           0
     69713 TIP3     10106    TIP3     H1       HT       0.417000       1.00800           0
     69714 TIP3     10106    TIP3     H2       HT       0.417000       1.00800           0
     69715 TIP3     10107    TIP3     OH2      OT      -0.834000       15.9994           0
     69716 TIP3     10107    TIP3     H1       HT       0.417000       1.00800           0
     69717 TIP3     10107    TIP3     H2       HT       0.417000       1.00800           0
     69718 TIP3     10108    TIP3     OH2      OT      -0.834000       15.9994           0
     69719 TIP3     10108    TIP3     H1       HT       0.417000       1.00800           0
     69720 TIP3     10108    TIP3     H2       HT       0.417000       1.00800           0
     69721 TIP3     10109    TIP3     OH2      OT      -0.834000       15.9994           0
     69722 TIP3     10109    TIP3     H1       HT       0.417000       1.00800           0
     69723 TIP3     10109    TIP3     H2       HT       0.417000       1.00800           0
     69724 TIP3     10110    TIP3     OH2      OT      -0.834000       15.9994           0
     69725 TIP3     10110    TIP3     H1       HT       0.417000       1.00800           0
     69726 TIP3     10110    TIP3     H2       HT       0.417000       1.00800           0
     69727 TIP3     10111    TIP3     OH2      OT      -0.834000       15.9994           0
     69728 TIP3     10111    TIP3     H1       HT       0.417000       1.00800           0
     69729 TIP3     10111    TIP3     H2       HT       0.417000       1.00800           0
     69730 TIP3     10112    TIP3     OH2      OT      -0.834000       15.9994           0
     69731 TIP3     10112    TIP3     H1       HT       0.417000       1.00800           0
     69732 TIP3     10112    TIP3     H2       HT       0.417000       1.00800           0
     69733 TIP3     10113    TIP3     OH2      OT      -0.834000       15.9994           0
     69734 TIP3     10113    TIP3     H1       HT       0.417000       1.00800           0
     69735 TIP3     10113    TIP3     H2       HT       0.417000       1.00800           0
     69736 TIP3     10114    TIP3     OH2      OT      -0.834000       15.9994           0
     69737 TIP3     10114    TIP3     H1       HT       0.417000       1.00800           0
     69738 TIP3     10114    TIP3     H2       HT       0.417000       1.00800           0
     69739 TIP3     10115    TIP3     OH2      OT      -0.834000       15.9994           0
     69740 TIP3     10115    TIP3     H1       HT       0.417000       1.00800           0
     69741 TIP3     10115    TIP3     H2       HT       0.417000       1.00800           0
     69742 TIP3     10116    TIP3     OH2      OT      -0.834000       15.9994           0
     69743 TIP3     10116    TIP3     H1       HT       0.417000       1.00800           0
     69744 TIP3     10116    TIP3     H2       HT       0.417000       1.00800           0
     69745 TIP3     10117    TIP3     OH2      OT      -0.834000       15.9994           0
     69746 TIP3     10117    TIP3     H1       HT       0.417000       1.00800           0
     69747 TIP3     10117    TIP3     H2       HT       0.417000       1.00800           0
     69748 TIP3     10118    TIP3     OH2      OT      -0.834000       15.9994           0
     69749 TIP3     10118    TIP3     H1       HT       0.417000       1.00800           0
     69750 TIP3     10118    TIP3     H2       HT       0.417000       1.00800           0
     69751 TIP3     10119    TIP3     OH2      OT      -0.834000       15.9994           0
     69752 TIP3     10119    TIP3     H1       HT       0.417000       1.00800           0
     69753 TIP3     10119    TIP3     H2       HT       0.417000       1.00800           0
     69754 TIP3     10120    TIP3     OH2      OT      -0.834000       15.9994           0
     69755 TIP3     10120    TIP3     H1       HT       0.417000       1.00800           0
     69756 TIP3     10120    TIP3     H2       HT       0.417000       1.00800           0
     69757 TIP3     10121    TIP3     OH2      OT      -0.834000       15.9994           0
     69758 TIP3     10121    TIP3     H1       HT       0.417000       1.00800           0
     69759 TIP3     10121    TIP3     H2       HT       0.417000       1.00800           0
     69760 TIP3     10122    TIP3     OH2      OT      -0.834000       15.9994           0
     69761 TIP3     10122    TIP3     H1       HT       0.417000       1.00800           0
     69762 TIP3     10122    TIP3     H2       HT       0.417000       1.00800           0
     69763 TIP3     10123    TIP3     OH2      OT      -0.834000       15.9994           0
     69764 TIP3     10123    TIP3     H1       HT       0.417000       1.00800           0
     69765 TIP3     10123    TIP3     H2       HT       0.417000       1.00800           0
     69766 TIP3     10124    TIP3     OH2      OT      -0.834000       15.9994           0
     69767 TIP3     10124    TIP3     H1       HT       0.417000       1.00800           0
     69768 TIP3     10124    TIP3     H2       HT       0.417000       1.00800           0
     69769 TIP3     10125    TIP3     OH2      OT      -0.834000       15.9994           0
     69770 TIP3     10125    TIP3     H1       HT       0.417000       1.00800           0
     69771 TIP3     10125    TIP3     H2       HT       0.417000       1.00800           0
     69772 TIP3     10126    TIP3     OH2      OT      -0.834000       15.9994           0
     69773 TIP3     10126    TIP3     H1       HT       0.417000       1.00800           0
     69774 TIP3     10126    TIP3     H2       HT       0.417000       1.00800           0
     69775 TIP3     10127    TIP3     OH2      OT      -0.834000       15.9994           0
     69776 TIP3     10127    TIP3     H1       HT       0.417000       1.00800           0
     69777 TIP3     10127    TIP3     H2       HT       0.417000       1.00800           0
     69778 TIP3     10128    TIP3     OH2      OT      -0.834000       15.9994           0
     69779 TIP3     10128    TIP3     H1       HT       0.417000       1.00800           0
     69780 TIP3     10128    TIP3     H2       HT       0.417000       1.00800           0
     69781 TIP3     10129    TIP3     OH2      OT      -0.834000       15.9994           0
     69782 TIP3     10129    TIP3     H1       HT       0.417000       1.00800           0
     69783 TIP3     10129    TIP3     H2       HT       0.417000       1.00800           0
     69784 TIP3     10130    TIP3     OH2      OT      -0.834000       15.9994           0
     69785 TIP3     10130    TIP3     H1       HT       0.417000       1.00800           0
     69786 TIP3     10130    TIP3     H2       HT       0.417000       1.00800           0
     69787 TIP3     10131    TIP3     OH2      OT      -0.834000       15.9994           0
     69788 TIP3     10131    TIP3     H1       HT       0.417000       1.00800           0
     69789 TIP3     10131    TIP3     H2       HT       0.417000       1.00800           0
     69790 TIP3     10132    TIP3     OH2      OT      -0.834000       15.9994           0
     69791 TIP3     10132    TIP3     H1       HT       0.417000       1.00800           0
     69792 TIP3     10132    TIP3     H2       HT       0.417000       1.00800           0
     69793 TIP3     10133    TIP3     OH2      OT      -0.834000       15.9994           0
     69794 TIP3     10133    TIP3     H1       HT       0.417000       1.00800           0
     69795 TIP3     10133    TIP3     H2       HT       0.417000       1.00800           0
     69796 TIP3     10134    TIP3     OH2      OT      -0.834000       15.9994           0
     69797 TIP3     10134    TIP3     H1       HT       0.417000       1.00800           0
     69798 TIP3     10134    TIP3     H2       HT       0.417000       1.00800           0
     69799 TIP3     10135    TIP3     OH2      OT      -0.834000       15.9994           0
     69800 TIP3     10135    TIP3     H1       HT       0.417000       1.00800           0
     69801 TIP3     10135    TIP3     H2       HT       0.417000       1.00800           0
     69802 TIP3     10136    TIP3     OH2      OT      -0.834000       15.9994           0
     69803 TIP3     10136    TIP3     H1       HT       0.417000       1.00800           0
     69804 TIP3     10136    TIP3     H2       HT       0.417000       1.00800           0
     69805 TIP3     10137    TIP3     OH2      OT      -0.834000       15.9994           0
     69806 TIP3     10137    TIP3     H1       HT       0.417000       1.00800           0
     69807 TIP3     10137    TIP3     H2       HT       0.417000       1.00800           0
     69808 TIP3     10138    TIP3     OH2      OT      -0.834000       15.9994           0
     69809 TIP3     10138    TIP3     H1       HT       0.417000       1.00800           0
     69810 TIP3     10138    TIP3     H2       HT       0.417000       1.00800           0
     69811 TIP3     10139    TIP3     OH2      OT      -0.834000       15.9994           0
     69812 TIP3     10139    TIP3     H1       HT       0.417000       1.00800           0
     69813 TIP3     10139    TIP3     H2       HT       0.417000       1.00800           0
     69814 TIP3     10140    TIP3     OH2      OT      -0.834000       15.9994           0
     69815 TIP3     10140    TIP3     H1       HT       0.417000       1.00800           0
     69816 TIP3     10140    TIP3     H2       HT       0.417000       1.00800           0
     69817 TIP3     10141    TIP3     OH2      OT      -0.834000       15.9994           0
     69818 TIP3     10141    TIP3     H1       HT       0.417000       1.00800           0
     69819 TIP3     10141    TIP3     H2       HT       0.417000       1.00800           0
     69820 TIP3     10142    TIP3     OH2      OT      -0.834000       15.9994           0
     69821 TIP3     10142    TIP3     H1       HT       0.417000       1.00800           0
     69822 TIP3     10142    TIP3     H2       HT       0.417000       1.00800           0
     69823 TIP3     10143    TIP3     OH2      OT      -0.834000       15.9994           0
     69824 TIP3     10143    TIP3     H1       HT       0.417000       1.00800           0
     69825 TIP3     10143    TIP3     H2       HT       0.417000       1.00800           0
     69826 TIP3     10144    TIP3     OH2      OT      -0.834000       15.9994           0
     69827 TIP3     10144    TIP3     H1       HT       0.417000       1.00800           0
     69828 TIP3     10144    TIP3     H2       HT       0.417000       1.00800           0
     69829 TIP3     10145    TIP3     OH2      OT      -0.834000       15.9994           0
     69830 TIP3     10145    TIP3     H1       HT       0.417000       1.00800           0
     69831 TIP3     10145    TIP3     H2       HT       0.417000       1.00800           0
     69832 TIP3     10146    TIP3     OH2      OT      -0.834000       15.9994           0
     69833 TIP3     10146    TIP3     H1       HT       0.417000       1.00800           0
     69834 TIP3     10146    TIP3     H2       HT       0.417000       1.00800           0
     69835 TIP3     10147    TIP3     OH2      OT      -0.834000       15.9994           0
     69836 TIP3     10147    TIP3     H1       HT       0.417000       1.00800           0
     69837 TIP3     10147    TIP3     H2       HT       0.417000       1.00800           0
     69838 TIP3     10148    TIP3     OH2      OT      -0.834000       15.9994           0
     69839 TIP3     10148    TIP3     H1       HT       0.417000       1.00800           0
     69840 TIP3     10148    TIP3     H2       HT       0.417000       1.00800           0
     69841 TIP3     10149    TIP3     OH2      OT      -0.834000       15.9994           0
     69842 TIP3     10149    TIP3     H1       HT       0.417000       1.00800           0
     69843 TIP3     10149    TIP3     H2       HT       0.417000       1.00800           0
     69844 TIP3     10150    TIP3     OH2      OT      -0.834000       15.9994           0
     69845 TIP3     10150    TIP3     H1       HT       0.417000       1.00800           0
     69846 TIP3     10150    TIP3     H2       HT       0.417000       1.00800           0
     69847 TIP3     10151    TIP3     OH2      OT      -0.834000       15.9994           0
     69848 TIP3     10151    TIP3     H1       HT       0.417000       1.00800           0
     69849 TIP3     10151    TIP3     H2       HT       0.417000       1.00800           0
     69850 TIP3     10152    TIP3     OH2      OT      -0.834000       15.9994           0
     69851 TIP3     10152    TIP3     H1       HT       0.417000       1.00800           0
     69852 TIP3     10152    TIP3     H2       HT       0.417000       1.00800           0
     69853 TIP3     10153    TIP3     OH2      OT      -0.834000       15.9994           0
     69854 TIP3     10153    TIP3     H1       HT       0.417000       1.00800           0
     69855 TIP3     10153    TIP3     H2       HT       0.417000       1.00800           0
     69856 TIP3     10154    TIP3     OH2      OT      -0.834000       15.9994           0
     69857 TIP3     10154    TIP3     H1       HT       0.417000       1.00800           0
     69858 TIP3     10154    TIP3     H2       HT       0.417000       1.00800           0
     69859 TIP3     10155    TIP3     OH2      OT      -0.834000       15.9994           0
     69860 TIP3     10155    TIP3     H1       HT       0.417000       1.00800           0
     69861 TIP3     10155    TIP3     H2       HT       0.417000       1.00800           0
     69862 TIP3     10156    TIP3     OH2      OT      -0.834000       15.9994           0
     69863 TIP3     10156    TIP3     H1       HT       0.417000       1.00800           0
     69864 TIP3     10156    TIP3     H2       HT       0.417000       1.00800           0
     69865 TIP3     10157    TIP3     OH2      OT      -0.834000       15.9994           0
     69866 TIP3     10157    TIP3     H1       HT       0.417000       1.00800           0
     69867 TIP3     10157    TIP3     H2       HT       0.417000       1.00800           0
     69868 TIP3     10158    TIP3     OH2      OT      -0.834000       15.9994           0
     69869 TIP3     10158    TIP3     H1       HT       0.417000       1.00800           0
     69870 TIP3     10158    TIP3     H2       HT       0.417000       1.00800           0
     69871 TIP3     10159    TIP3     OH2      OT      -0.834000       15.9994           0
     69872 TIP3     10159    TIP3     H1       HT       0.417000       1.00800           0
     69873 TIP3     10159    TIP3     H2       HT       0.417000       1.00800           0
     69874 TIP3     10160    TIP3     OH2      OT      -0.834000       15.9994           0
     69875 TIP3     10160    TIP3     H1       HT       0.417000       1.00800           0
     69876 TIP3     10160    TIP3     H2       HT       0.417000       1.00800           0
     69877 TIP3     10161    TIP3     OH2      OT      -0.834000       15.9994           0
     69878 TIP3     10161    TIP3     H1       HT       0.417000       1.00800           0
     69879 TIP3     10161    TIP3     H2       HT       0.417000       1.00800           0
     69880 TIP3     10162    TIP3     OH2      OT      -0.834000       15.9994           0
     69881 TIP3     10162    TIP3     H1       HT       0.417000       1.00800           0
     69882 TIP3     10162    TIP3     H2       HT       0.417000       1.00800           0
     69883 TIP3     10163    TIP3     OH2      OT      -0.834000       15.9994           0
     69884 TIP3     10163    TIP3     H1       HT       0.417000       1.00800           0
     69885 TIP3     10163    TIP3     H2       HT       0.417000       1.00800           0
     69886 TIP3     10164    TIP3     OH2      OT      -0.834000       15.9994           0
     69887 TIP3     10164    TIP3     H1       HT       0.417000       1.00800           0
     69888 TIP3     10164    TIP3     H2       HT       0.417000       1.00800           0
     69889 TIP3     10165    TIP3     OH2      OT      -0.834000       15.9994           0
     69890 TIP3     10165    TIP3     H1       HT       0.417000       1.00800           0
     69891 TIP3     10165    TIP3     H2       HT       0.417000       1.00800           0
     69892 TIP3     10166    TIP3     OH2      OT      -0.834000       15.9994           0
     69893 TIP3     10166    TIP3     H1       HT       0.417000       1.00800           0
     69894 TIP3     10166    TIP3     H2       HT       0.417000       1.00800           0
     69895 TIP3     10167    TIP3     OH2      OT      -0.834000       15.9994           0
     69896 TIP3     10167    TIP3     H1       HT       0.417000       1.00800           0
     69897 TIP3     10167    TIP3     H2       HT       0.417000       1.00800           0
     69898 TIP3     10168    TIP3     OH2      OT      -0.834000       15.9994           0
     69899 TIP3     10168    TIP3     H1       HT       0.417000       1.00800           0
     69900 TIP3     10168    TIP3     H2       HT       0.417000       1.00800           0
     69901 TIP3     10169    TIP3     OH2      OT      -0.834000       15.9994           0
     69902 TIP3     10169    TIP3     H1       HT       0.417000       1.00800           0
     69903 TIP3     10169    TIP3     H2       HT       0.417000       1.00800           0
     69904 TIP3     10170    TIP3     OH2      OT      -0.834000       15.9994           0
     69905 TIP3     10170    TIP3     H1       HT       0.417000       1.00800           0
     69906 TIP3     10170    TIP3     H2       HT       0.417000       1.00800           0
     69907 TIP3     10171    TIP3     OH2      OT      -0.834000       15.9994           0
     69908 TIP3     10171    TIP3     H1       HT       0.417000       1.00800           0
     69909 TIP3     10171    TIP3     H2       HT       0.417000       1.00800           0
     69910 TIP3     10172    TIP3     OH2      OT      -0.834000       15.9994           0
     69911 TIP3     10172    TIP3     H1       HT       0.417000       1.00800           0
     69912 TIP3     10172    TIP3     H2       HT       0.417000       1.00800           0
     69913 TIP3     10173    TIP3     OH2      OT      -0.834000       15.9994           0
     69914 TIP3     10173    TIP3     H1       HT       0.417000       1.00800           0
     69915 TIP3     10173    TIP3     H2       HT       0.417000       1.00800           0
     69916 TIP3     10174    TIP3     OH2      OT      -0.834000       15.9994           0
     69917 TIP3     10174    TIP3     H1       HT       0.417000       1.00800           0
     69918 TIP3     10174    TIP3     H2       HT       0.417000       1.00800           0
     69919 TIP3     10175    TIP3     OH2      OT      -0.834000       15.9994           0
     69920 TIP3     10175    TIP3     H1       HT       0.417000       1.00800           0
     69921 TIP3     10175    TIP3     H2       HT       0.417000       1.00800           0
     69922 TIP3     10176    TIP3     OH2      OT      -0.834000       15.9994           0
     69923 TIP3     10176    TIP3     H1       HT       0.417000       1.00800           0
     69924 TIP3     10176    TIP3     H2       HT       0.417000       1.00800           0
     69925 TIP3     10177    TIP3     OH2      OT      -0.834000       15.9994           0
     69926 TIP3     10177    TIP3     H1       HT       0.417000       1.00800           0
     69927 TIP3     10177    TIP3     H2       HT       0.417000       1.00800           0
     69928 TIP3     10178    TIP3     OH2      OT      -0.834000       15.9994           0
     69929 TIP3     10178    TIP3     H1       HT       0.417000       1.00800           0
     69930 TIP3     10178    TIP3     H2       HT       0.417000       1.00800           0
     69931 TIP3     10179    TIP3     OH2      OT      -0.834000       15.9994           0
     69932 TIP3     10179    TIP3     H1       HT       0.417000       1.00800           0
     69933 TIP3     10179    TIP3     H2       HT       0.417000       1.00800           0
     69934 TIP3     10180    TIP3     OH2      OT      -0.834000       15.9994           0
     69935 TIP3     10180    TIP3     H1       HT       0.417000       1.00800           0
     69936 TIP3     10180    TIP3     H2       HT       0.417000       1.00800           0
     69937 TIP3     10181    TIP3     OH2      OT      -0.834000       15.9994           0
     69938 TIP3     10181    TIP3     H1       HT       0.417000       1.00800           0
     69939 TIP3     10181    TIP3     H2       HT       0.417000       1.00800           0
     69940 TIP3     10182    TIP3     OH2      OT      -0.834000       15.9994           0
     69941 TIP3     10182    TIP3     H1       HT       0.417000       1.00800           0
     69942 TIP3     10182    TIP3     H2       HT       0.417000       1.00800           0
     69943 TIP3     10183    TIP3     OH2      OT      -0.834000       15.9994           0
     69944 TIP3     10183    TIP3     H1       HT       0.417000       1.00800           0
     69945 TIP3     10183    TIP3     H2       HT       0.417000       1.00800           0
     69946 TIP3     10184    TIP3     OH2      OT      -0.834000       15.9994           0
     69947 TIP3     10184    TIP3     H1       HT       0.417000       1.00800           0
     69948 TIP3     10184    TIP3     H2       HT       0.417000       1.00800           0
     69949 TIP3     10185    TIP3     OH2      OT      -0.834000       15.9994           0
     69950 TIP3     10185    TIP3     H1       HT       0.417000       1.00800           0
     69951 TIP3     10185    TIP3     H2       HT       0.417000       1.00800           0
     69952 TIP3     10186    TIP3     OH2      OT      -0.834000       15.9994           0
     69953 TIP3     10186    TIP3     H1       HT       0.417000       1.00800           0
     69954 TIP3     10186    TIP3     H2       HT       0.417000       1.00800           0
     69955 TIP3     10187    TIP3     OH2      OT      -0.834000       15.9994           0
     69956 TIP3     10187    TIP3     H1       HT       0.417000       1.00800           0
     69957 TIP3     10187    TIP3     H2       HT       0.417000       1.00800           0
     69958 TIP3     10188    TIP3     OH2      OT      -0.834000       15.9994           0
     69959 TIP3     10188    TIP3     H1       HT       0.417000       1.00800           0
     69960 TIP3     10188    TIP3     H2       HT       0.417000       1.00800           0
     69961 TIP3     10189    TIP3     OH2      OT      -0.834000       15.9994           0
     69962 TIP3     10189    TIP3     H1       HT       0.417000       1.00800           0
     69963 TIP3     10189    TIP3     H2       HT       0.417000       1.00800           0
     69964 TIP3     10190    TIP3     OH2      OT      -0.834000       15.9994           0
     69965 TIP3     10190    TIP3     H1       HT       0.417000       1.00800           0
     69966 TIP3     10190    TIP3     H2       HT       0.417000       1.00800           0
     69967 TIP3     10191    TIP3     OH2      OT      -0.834000       15.9994           0
     69968 TIP3     10191    TIP3     H1       HT       0.417000       1.00800           0
     69969 TIP3     10191    TIP3     H2       HT       0.417000       1.00800           0
     69970 TIP3     10192    TIP3     OH2      OT      -0.834000       15.9994           0
     69971 TIP3     10192    TIP3     H1       HT       0.417000       1.00800           0
     69972 TIP3     10192    TIP3     H2       HT       0.417000       1.00800           0
     69973 TIP3     10193    TIP3     OH2      OT      -0.834000       15.9994           0
     69974 TIP3     10193    TIP3     H1       HT       0.417000       1.00800           0
     69975 TIP3     10193    TIP3     H2       HT       0.417000       1.00800           0
     69976 TIP3     10194    TIP3     OH2      OT      -0.834000       15.9994           0
     69977 TIP3     10194    TIP3     H1       HT       0.417000       1.00800           0
     69978 TIP3     10194    TIP3     H2       HT       0.417000       1.00800           0
     69979 TIP3     10195    TIP3     OH2      OT      -0.834000       15.9994           0
     69980 TIP3     10195    TIP3     H1       HT       0.417000       1.00800           0
     69981 TIP3     10195    TIP3     H2       HT       0.417000       1.00800           0
     69982 TIP3     10196    TIP3     OH2      OT      -0.834000       15.9994           0
     69983 TIP3     10196    TIP3     H1       HT       0.417000       1.00800           0
     69984 TIP3     10196    TIP3     H2       HT       0.417000       1.00800           0
     69985 TIP3     10197    TIP3     OH2      OT      -0.834000       15.9994           0
     69986 TIP3     10197    TIP3     H1       HT       0.417000       1.00800           0
     69987 TIP3     10197    TIP3     H2       HT       0.417000       1.00800           0
     69988 TIP3     10198    TIP3     OH2      OT      -0.834000       15.9994           0
     69989 TIP3     10198    TIP3     H1       HT       0.417000       1.00800           0
     69990 TIP3     10198    TIP3     H2       HT       0.417000       1.00800           0
     69991 TIP3     10199    TIP3     OH2      OT      -0.834000       15.9994           0
     69992 TIP3     10199    TIP3     H1       HT       0.417000       1.00800           0
     69993 TIP3     10199    TIP3     H2       HT       0.417000       1.00800           0
     69994 TIP3     10200    TIP3     OH2      OT      -0.834000       15.9994           0
     69995 TIP3     10200    TIP3     H1       HT       0.417000       1.00800           0
     69996 TIP3     10200    TIP3     H2       HT       0.417000       1.00800           0
     69997 TIP3     10201    TIP3     OH2      OT      -0.834000       15.9994           0
     69998 TIP3     10201    TIP3     H1       HT       0.417000       1.00800           0
     69999 TIP3     10201    TIP3     H2       HT       0.417000       1.00800           0
     70000 TIP3     10202    TIP3     OH2      OT      -0.834000       15.9994           0
     70001 TIP3     10202    TIP3     H1       HT       0.417000       1.00800           0
     70002 TIP3     10202    TIP3     H2       HT       0.417000       1.00800           0
     70003 TIP3     10203    TIP3     OH2      OT      -0.834000       15.9994           0
     70004 TIP3     10203    TIP3     H1       HT       0.417000       1.00800           0
     70005 TIP3     10203    TIP3     H2       HT       0.417000       1.00800           0
     70006 TIP3     10204    TIP3     OH2      OT      -0.834000       15.9994           0
     70007 TIP3     10204    TIP3     H1       HT       0.417000       1.00800           0
     70008 TIP3     10204    TIP3     H2       HT       0.417000       1.00800           0
     70009 TIP3     10205    TIP3     OH2      OT      -0.834000       15.9994           0
     70010 TIP3     10205    TIP3     H1       HT       0.417000       1.00800           0
     70011 TIP3     10205    TIP3     H2       HT       0.417000       1.00800           0
     70012 TIP3     10206    TIP3     OH2      OT      -0.834000       15.9994           0
     70013 TIP3     10206    TIP3     H1       HT       0.417000       1.00800           0
     70014 TIP3     10206    TIP3     H2       HT       0.417000       1.00800           0
     70015 TIP3     10207    TIP3     OH2      OT      -0.834000       15.9994           0
     70016 TIP3     10207    TIP3     H1       HT       0.417000       1.00800           0
     70017 TIP3     10207    TIP3     H2       HT       0.417000       1.00800           0
     70018 TIP3     10208    TIP3     OH2      OT      -0.834000       15.9994           0
     70019 TIP3     10208    TIP3     H1       HT       0.417000       1.00800           0
     70020 TIP3     10208    TIP3     H2       HT       0.417000       1.00800           0
     70021 TIP3     10209    TIP3     OH2      OT      -0.834000       15.9994           0
     70022 TIP3     10209    TIP3     H1       HT       0.417000       1.00800           0
     70023 TIP3     10209    TIP3     H2       HT       0.417000       1.00800           0
     70024 TIP3     10210    TIP3     OH2      OT      -0.834000       15.9994           0
     70025 TIP3     10210    TIP3     H1       HT       0.417000       1.00800           0
     70026 TIP3     10210    TIP3     H2       HT       0.417000       1.00800           0
     70027 TIP3     10211    TIP3     OH2      OT      -0.834000       15.9994           0
     70028 TIP3     10211    TIP3     H1       HT       0.417000       1.00800           0
     70029 TIP3     10211    TIP3     H2       HT       0.417000       1.00800           0
     70030 TIP3     10212    TIP3     OH2      OT      -0.834000       15.9994           0
     70031 TIP3     10212    TIP3     H1       HT       0.417000       1.00800           0
     70032 TIP3     10212    TIP3     H2       HT       0.417000       1.00800           0
     70033 TIP3     10213    TIP3     OH2      OT      -0.834000       15.9994           0
     70034 TIP3     10213    TIP3     H1       HT       0.417000       1.00800           0
     70035 TIP3     10213    TIP3     H2       HT       0.417000       1.00800           0
     70036 TIP3     10214    TIP3     OH2      OT      -0.834000       15.9994           0
     70037 TIP3     10214    TIP3     H1       HT       0.417000       1.00800           0
     70038 TIP3     10214    TIP3     H2       HT       0.417000       1.00800           0
     70039 TIP3     10215    TIP3     OH2      OT      -0.834000       15.9994           0
     70040 TIP3     10215    TIP3     H1       HT       0.417000       1.00800           0
     70041 TIP3     10215    TIP3     H2       HT       0.417000       1.00800           0
     70042 TIP3     10216    TIP3     OH2      OT      -0.834000       15.9994           0
     70043 TIP3     10216    TIP3     H1       HT       0.417000       1.00800           0
     70044 TIP3     10216    TIP3     H2       HT       0.417000       1.00800           0
     70045 TIP3     10217    TIP3     OH2      OT      -0.834000       15.9994           0
     70046 TIP3     10217    TIP3     H1       HT       0.417000       1.00800           0
     70047 TIP3     10217    TIP3     H2       HT       0.417000       1.00800           0
     70048 TIP3     10218    TIP3     OH2      OT      -0.834000       15.9994           0
     70049 TIP3     10218    TIP3     H1       HT       0.417000       1.00800           0
     70050 TIP3     10218    TIP3     H2       HT       0.417000       1.00800           0
     70051 TIP3     10219    TIP3     OH2      OT      -0.834000       15.9994           0
     70052 TIP3     10219    TIP3     H1       HT       0.417000       1.00800           0
     70053 TIP3     10219    TIP3     H2       HT       0.417000       1.00800           0
     70054 TIP3     10220    TIP3     OH2      OT      -0.834000       15.9994           0
     70055 TIP3     10220    TIP3     H1       HT       0.417000       1.00800           0
     70056 TIP3     10220    TIP3     H2       HT       0.417000       1.00800           0
     70057 TIP3     10221    TIP3     OH2      OT      -0.834000       15.9994           0
     70058 TIP3     10221    TIP3     H1       HT       0.417000       1.00800           0
     70059 TIP3     10221    TIP3     H2       HT       0.417000       1.00800           0
     70060 TIP3     10222    TIP3     OH2      OT      -0.834000       15.9994           0
     70061 TIP3     10222    TIP3     H1       HT       0.417000       1.00800           0
     70062 TIP3     10222    TIP3     H2       HT       0.417000       1.00800           0
     70063 TIP3     10223    TIP3     OH2      OT      -0.834000       15.9994           0
     70064 TIP3     10223    TIP3     H1       HT       0.417000       1.00800           0
     70065 TIP3     10223    TIP3     H2       HT       0.417000       1.00800           0
     70066 TIP3     10224    TIP3     OH2      OT      -0.834000       15.9994           0
     70067 TIP3     10224    TIP3     H1       HT       0.417000       1.00800           0
     70068 TIP3     10224    TIP3     H2       HT       0.417000       1.00800           0
     70069 TIP3     10225    TIP3     OH2      OT      -0.834000       15.9994           0
     70070 TIP3     10225    TIP3     H1       HT       0.417000       1.00800           0
     70071 TIP3     10225    TIP3     H2       HT       0.417000       1.00800           0
     70072 TIP3     10226    TIP3     OH2      OT      -0.834000       15.9994           0
     70073 TIP3     10226    TIP3     H1       HT       0.417000       1.00800           0
     70074 TIP3     10226    TIP3     H2       HT       0.417000       1.00800           0
     70075 TIP3     10227    TIP3     OH2      OT      -0.834000       15.9994           0
     70076 TIP3     10227    TIP3     H1       HT       0.417000       1.00800           0
     70077 TIP3     10227    TIP3     H2       HT       0.417000       1.00800           0
     70078 TIP3     10228    TIP3     OH2      OT      -0.834000       15.9994           0
     70079 TIP3     10228    TIP3     H1       HT       0.417000       1.00800           0
     70080 TIP3     10228    TIP3     H2       HT       0.417000       1.00800           0
     70081 TIP3     10229    TIP3     OH2      OT      -0.834000       15.9994           0
     70082 TIP3     10229    TIP3     H1       HT       0.417000       1.00800           0
     70083 TIP3     10229    TIP3     H2       HT       0.417000       1.00800           0
     70084 TIP3     10230    TIP3     OH2      OT      -0.834000       15.9994           0
     70085 TIP3     10230    TIP3     H1       HT       0.417000       1.00800           0
     70086 TIP3     10230    TIP3     H2       HT       0.417000       1.00800           0
     70087 TIP3     10231    TIP3     OH2      OT      -0.834000       15.9994           0
     70088 TIP3     10231    TIP3     H1       HT       0.417000       1.00800           0
     70089 TIP3     10231    TIP3     H2       HT       0.417000       1.00800           0
     70090 TIP3     10232    TIP3     OH2      OT      -0.834000       15.9994           0
     70091 TIP3     10232    TIP3     H1       HT       0.417000       1.00800           0
     70092 TIP3     10232    TIP3     H2       HT       0.417000       1.00800           0
     70093 TIP3     10233    TIP3     OH2      OT      -0.834000       15.9994           0
     70094 TIP3     10233    TIP3     H1       HT       0.417000       1.00800           0
     70095 TIP3     10233    TIP3     H2       HT       0.417000       1.00800           0
     70096 TIP3     10234    TIP3     OH2      OT      -0.834000       15.9994           0
     70097 TIP3     10234    TIP3     H1       HT       0.417000       1.00800           0
     70098 TIP3     10234    TIP3     H2       HT       0.417000       1.00800           0
     70099 TIP3     10235    TIP3     OH2      OT      -0.834000       15.9994           0
     70100 TIP3     10235    TIP3     H1       HT       0.417000       1.00800           0
     70101 TIP3     10235    TIP3     H2       HT       0.417000       1.00800           0
     70102 TIP3     10236    TIP3     OH2      OT      -0.834000       15.9994           0
     70103 TIP3     10236    TIP3     H1       HT       0.417000       1.00800           0
     70104 TIP3     10236    TIP3     H2       HT       0.417000       1.00800           0
     70105 TIP3     10237    TIP3     OH2      OT      -0.834000       15.9994           0
     70106 TIP3     10237    TIP3     H1       HT       0.417000       1.00800           0
     70107 TIP3     10237    TIP3     H2       HT       0.417000       1.00800           0
     70108 TIP3     10238    TIP3     OH2      OT      -0.834000       15.9994           0
     70109 TIP3     10238    TIP3     H1       HT       0.417000       1.00800           0
     70110 TIP3     10238    TIP3     H2       HT       0.417000       1.00800           0
     70111 TIP3     10239    TIP3     OH2      OT      -0.834000       15.9994           0
     70112 TIP3     10239    TIP3     H1       HT       0.417000       1.00800           0
     70113 TIP3     10239    TIP3     H2       HT       0.417000       1.00800           0
     70114 TIP3     10240    TIP3     OH2      OT      -0.834000       15.9994           0
     70115 TIP3     10240    TIP3     H1       HT       0.417000       1.00800           0
     70116 TIP3     10240    TIP3     H2       HT       0.417000       1.00800           0
     70117 TIP3     10241    TIP3     OH2      OT      -0.834000       15.9994           0
     70118 TIP3     10241    TIP3     H1       HT       0.417000       1.00800           0
     70119 TIP3     10241    TIP3     H2       HT       0.417000       1.00800           0
     70120 TIP3     10242    TIP3     OH2      OT      -0.834000       15.9994           0
     70121 TIP3     10242    TIP3     H1       HT       0.417000       1.00800           0
     70122 TIP3     10242    TIP3     H2       HT       0.417000       1.00800           0
     70123 TIP3     10243    TIP3     OH2      OT      -0.834000       15.9994           0
     70124 TIP3     10243    TIP3     H1       HT       0.417000       1.00800           0
     70125 TIP3     10243    TIP3     H2       HT       0.417000       1.00800           0
     70126 TIP3     10244    TIP3     OH2      OT      -0.834000       15.9994           0
     70127 TIP3     10244    TIP3     H1       HT       0.417000       1.00800           0
     70128 TIP3     10244    TIP3     H2       HT       0.417000       1.00800           0
     70129 TIP3     10245    TIP3     OH2      OT      -0.834000       15.9994           0
     70130 TIP3     10245    TIP3     H1       HT       0.417000       1.00800           0
     70131 TIP3     10245    TIP3     H2       HT       0.417000       1.00800           0
     70132 TIP3     10246    TIP3     OH2      OT      -0.834000       15.9994           0
     70133 TIP3     10246    TIP3     H1       HT       0.417000       1.00800           0
     70134 TIP3     10246    TIP3     H2       HT       0.417000       1.00800           0
     70135 TIP3     10247    TIP3     OH2      OT      -0.834000       15.9994           0
     70136 TIP3     10247    TIP3     H1       HT       0.417000       1.00800           0
     70137 TIP3     10247    TIP3     H2       HT       0.417000       1.00800           0
     70138 TIP3     10248    TIP3     OH2      OT      -0.834000       15.9994           0
     70139 TIP3     10248    TIP3     H1       HT       0.417000       1.00800           0
     70140 TIP3     10248    TIP3     H2       HT       0.417000       1.00800           0
     70141 TIP3     10249    TIP3     OH2      OT      -0.834000       15.9994           0
     70142 TIP3     10249    TIP3     H1       HT       0.417000       1.00800           0
     70143 TIP3     10249    TIP3     H2       HT       0.417000       1.00800           0
     70144 TIP3     10250    TIP3     OH2      OT      -0.834000       15.9994           0
     70145 TIP3     10250    TIP3     H1       HT       0.417000       1.00800           0
     70146 TIP3     10250    TIP3     H2       HT       0.417000       1.00800           0
     70147 TIP3     10251    TIP3     OH2      OT      -0.834000       15.9994           0
     70148 TIP3     10251    TIP3     H1       HT       0.417000       1.00800           0
     70149 TIP3     10251    TIP3     H2       HT       0.417000       1.00800           0
     70150 TIP3     10252    TIP3     OH2      OT      -0.834000       15.9994           0
     70151 TIP3     10252    TIP3     H1       HT       0.417000       1.00800           0
     70152 TIP3     10252    TIP3     H2       HT       0.417000       1.00800           0
     70153 TIP3     10253    TIP3     OH2      OT      -0.834000       15.9994           0
     70154 TIP3     10253    TIP3     H1       HT       0.417000       1.00800           0
     70155 TIP3     10253    TIP3     H2       HT       0.417000       1.00800           0
     70156 TIP3     10254    TIP3     OH2      OT      -0.834000       15.9994           0
     70157 TIP3     10254    TIP3     H1       HT       0.417000       1.00800           0
     70158 TIP3     10254    TIP3     H2       HT       0.417000       1.00800           0
     70159 TIP3     10255    TIP3     OH2      OT      -0.834000       15.9994           0
     70160 TIP3     10255    TIP3     H1       HT       0.417000       1.00800           0
     70161 TIP3     10255    TIP3     H2       HT       0.417000       1.00800           0
     70162 TIP3     10256    TIP3     OH2      OT      -0.834000       15.9994           0
     70163 TIP3     10256    TIP3     H1       HT       0.417000       1.00800           0
     70164 TIP3     10256    TIP3     H2       HT       0.417000       1.00800           0
     70165 TIP3     10257    TIP3     OH2      OT      -0.834000       15.9994           0
     70166 TIP3     10257    TIP3     H1       HT       0.417000       1.00800           0
     70167 TIP3     10257    TIP3     H2       HT       0.417000       1.00800           0
     70168 TIP3     10258    TIP3     OH2      OT      -0.834000       15.9994           0
     70169 TIP3     10258    TIP3     H1       HT       0.417000       1.00800           0
     70170 TIP3     10258    TIP3     H2       HT       0.417000       1.00800           0
     70171 TIP3     10259    TIP3     OH2      OT      -0.834000       15.9994           0
     70172 TIP3     10259    TIP3     H1       HT       0.417000       1.00800           0
     70173 TIP3     10259    TIP3     H2       HT       0.417000       1.00800           0
     70174 TIP3     10260    TIP3     OH2      OT      -0.834000       15.9994           0
     70175 TIP3     10260    TIP3     H1       HT       0.417000       1.00800           0
     70176 TIP3     10260    TIP3     H2       HT       0.417000       1.00800           0
     70177 TIP3     10261    TIP3     OH2      OT      -0.834000       15.9994           0
     70178 TIP3     10261    TIP3     H1       HT       0.417000       1.00800           0
     70179 TIP3     10261    TIP3     H2       HT       0.417000       1.00800           0
     70180 TIP3     10262    TIP3     OH2      OT      -0.834000       15.9994           0
     70181 TIP3     10262    TIP3     H1       HT       0.417000       1.00800           0
     70182 TIP3     10262    TIP3     H2       HT       0.417000       1.00800           0
     70183 TIP3     10263    TIP3     OH2      OT      -0.834000       15.9994           0
     70184 TIP3     10263    TIP3     H1       HT       0.417000       1.00800           0
     70185 TIP3     10263    TIP3     H2       HT       0.417000       1.00800           0
     70186 TIP3     10264    TIP3     OH2      OT      -0.834000       15.9994           0
     70187 TIP3     10264    TIP3     H1       HT       0.417000       1.00800           0
     70188 TIP3     10264    TIP3     H2       HT       0.417000       1.00800           0
     70189 TIP3     10265    TIP3     OH2      OT      -0.834000       15.9994           0
     70190 TIP3     10265    TIP3     H1       HT       0.417000       1.00800           0
     70191 TIP3     10265    TIP3     H2       HT       0.417000       1.00800           0
     70192 TIP3     10266    TIP3     OH2      OT      -0.834000       15.9994           0
     70193 TIP3     10266    TIP3     H1       HT       0.417000       1.00800           0
     70194 TIP3     10266    TIP3     H2       HT       0.417000       1.00800           0
     70195 TIP3     10267    TIP3     OH2      OT      -0.834000       15.9994           0
     70196 TIP3     10267    TIP3     H1       HT       0.417000       1.00800           0
     70197 TIP3     10267    TIP3     H2       HT       0.417000       1.00800           0
     70198 TIP3     10268    TIP3     OH2      OT      -0.834000       15.9994           0
     70199 TIP3     10268    TIP3     H1       HT       0.417000       1.00800           0
     70200 TIP3     10268    TIP3     H2       HT       0.417000       1.00800           0
     70201 TIP3     10269    TIP3     OH2      OT      -0.834000       15.9994           0
     70202 TIP3     10269    TIP3     H1       HT       0.417000       1.00800           0
     70203 TIP3     10269    TIP3     H2       HT       0.417000       1.00800           0
     70204 TIP3     10270    TIP3     OH2      OT      -0.834000       15.9994           0
     70205 TIP3     10270    TIP3     H1       HT       0.417000       1.00800           0
     70206 TIP3     10270    TIP3     H2       HT       0.417000       1.00800           0
     70207 TIP3     10271    TIP3     OH2      OT      -0.834000       15.9994           0
     70208 TIP3     10271    TIP3     H1       HT       0.417000       1.00800           0
     70209 TIP3     10271    TIP3     H2       HT       0.417000       1.00800           0
     70210 TIP3     10272    TIP3     OH2      OT      -0.834000       15.9994           0
     70211 TIP3     10272    TIP3     H1       HT       0.417000       1.00800           0
     70212 TIP3     10272    TIP3     H2       HT       0.417000       1.00800           0
     70213 TIP3     10273    TIP3     OH2      OT      -0.834000       15.9994           0
     70214 TIP3     10273    TIP3     H1       HT       0.417000       1.00800           0
     70215 TIP3     10273    TIP3     H2       HT       0.417000       1.00800           0
     70216 TIP3     10274    TIP3     OH2      OT      -0.834000       15.9994           0
     70217 TIP3     10274    TIP3     H1       HT       0.417000       1.00800           0
     70218 TIP3     10274    TIP3     H2       HT       0.417000       1.00800           0
     70219 TIP3     10275    TIP3     OH2      OT      -0.834000       15.9994           0
     70220 TIP3     10275    TIP3     H1       HT       0.417000       1.00800           0
     70221 TIP3     10275    TIP3     H2       HT       0.417000       1.00800           0
     70222 TIP3     10276    TIP3     OH2      OT      -0.834000       15.9994           0
     70223 TIP3     10276    TIP3     H1       HT       0.417000       1.00800           0
     70224 TIP3     10276    TIP3     H2       HT       0.417000       1.00800           0
     70225 TIP3     10277    TIP3     OH2      OT      -0.834000       15.9994           0
     70226 TIP3     10277    TIP3     H1       HT       0.417000       1.00800           0
     70227 TIP3     10277    TIP3     H2       HT       0.417000       1.00800           0
     70228 TIP3     10278    TIP3     OH2      OT      -0.834000       15.9994           0
     70229 TIP3     10278    TIP3     H1       HT       0.417000       1.00800           0
     70230 TIP3     10278    TIP3     H2       HT       0.417000       1.00800           0
     70231 TIP3     10279    TIP3     OH2      OT      -0.834000       15.9994           0
     70232 TIP3     10279    TIP3     H1       HT       0.417000       1.00800           0
     70233 TIP3     10279    TIP3     H2       HT       0.417000       1.00800           0
     70234 TIP3     10280    TIP3     OH2      OT      -0.834000       15.9994           0
     70235 TIP3     10280    TIP3     H1       HT       0.417000       1.00800           0
     70236 TIP3     10280    TIP3     H2       HT       0.417000       1.00800           0
     70237 TIP3     10281    TIP3     OH2      OT      -0.834000       15.9994           0
     70238 TIP3     10281    TIP3     H1       HT       0.417000       1.00800           0
     70239 TIP3     10281    TIP3     H2       HT       0.417000       1.00800           0
     70240 TIP3     10282    TIP3     OH2      OT      -0.834000       15.9994           0
     70241 TIP3     10282    TIP3     H1       HT       0.417000       1.00800           0
     70242 TIP3     10282    TIP3     H2       HT       0.417000       1.00800           0
     70243 TIP3     10283    TIP3     OH2      OT      -0.834000       15.9994           0
     70244 TIP3     10283    TIP3     H1       HT       0.417000       1.00800           0
     70245 TIP3     10283    TIP3     H2       HT       0.417000       1.00800           0
     70246 TIP3     10284    TIP3     OH2      OT      -0.834000       15.9994           0
     70247 TIP3     10284    TIP3     H1       HT       0.417000       1.00800           0
     70248 TIP3     10284    TIP3     H2       HT       0.417000       1.00800           0
     70249 TIP3     10285    TIP3     OH2      OT      -0.834000       15.9994           0
     70250 TIP3     10285    TIP3     H1       HT       0.417000       1.00800           0
     70251 TIP3     10285    TIP3     H2       HT       0.417000       1.00800           0
     70252 TIP3     10286    TIP3     OH2      OT      -0.834000       15.9994           0
     70253 TIP3     10286    TIP3     H1       HT       0.417000       1.00800           0
     70254 TIP3     10286    TIP3     H2       HT       0.417000       1.00800           0
     70255 TIP3     10287    TIP3     OH2      OT      -0.834000       15.9994           0
     70256 TIP3     10287    TIP3     H1       HT       0.417000       1.00800           0
     70257 TIP3     10287    TIP3     H2       HT       0.417000       1.00800           0
     70258 TIP3     10288    TIP3     OH2      OT      -0.834000       15.9994           0
     70259 TIP3     10288    TIP3     H1       HT       0.417000       1.00800           0
     70260 TIP3     10288    TIP3     H2       HT       0.417000       1.00800           0
     70261 TIP3     10289    TIP3     OH2      OT      -0.834000       15.9994           0
     70262 TIP3     10289    TIP3     H1       HT       0.417000       1.00800           0
     70263 TIP3     10289    TIP3     H2       HT       0.417000       1.00800           0
     70264 TIP3     10290    TIP3     OH2      OT      -0.834000       15.9994           0
     70265 TIP3     10290    TIP3     H1       HT       0.417000       1.00800           0
     70266 TIP3     10290    TIP3     H2       HT       0.417000       1.00800           0
     70267 TIP3     10291    TIP3     OH2      OT      -0.834000       15.9994           0
     70268 TIP3     10291    TIP3     H1       HT       0.417000       1.00800           0
     70269 TIP3     10291    TIP3     H2       HT       0.417000       1.00800           0
     70270 TIP3     10292    TIP3     OH2      OT      -0.834000       15.9994           0
     70271 TIP3     10292    TIP3     H1       HT       0.417000       1.00800           0
     70272 TIP3     10292    TIP3     H2       HT       0.417000       1.00800           0
     70273 TIP3     10293    TIP3     OH2      OT      -0.834000       15.9994           0
     70274 TIP3     10293    TIP3     H1       HT       0.417000       1.00800           0
     70275 TIP3     10293    TIP3     H2       HT       0.417000       1.00800           0
     70276 TIP3     10294    TIP3     OH2      OT      -0.834000       15.9994           0
     70277 TIP3     10294    TIP3     H1       HT       0.417000       1.00800           0
     70278 TIP3     10294    TIP3     H2       HT       0.417000       1.00800           0
     70279 TIP3     10295    TIP3     OH2      OT      -0.834000       15.9994           0
     70280 TIP3     10295    TIP3     H1       HT       0.417000       1.00800           0
     70281 TIP3     10295    TIP3     H2       HT       0.417000       1.00800           0
     70282 TIP3     10296    TIP3     OH2      OT      -0.834000       15.9994           0
     70283 TIP3     10296    TIP3     H1       HT       0.417000       1.00800           0
     70284 TIP3     10296    TIP3     H2       HT       0.417000       1.00800           0
     70285 TIP3     10297    TIP3     OH2      OT      -0.834000       15.9994           0
     70286 TIP3     10297    TIP3     H1       HT       0.417000       1.00800           0
     70287 TIP3     10297    TIP3     H2       HT       0.417000       1.00800           0
     70288 TIP3     10298    TIP3     OH2      OT      -0.834000       15.9994           0
     70289 TIP3     10298    TIP3     H1       HT       0.417000       1.00800           0
     70290 TIP3     10298    TIP3     H2       HT       0.417000       1.00800           0
     70291 TIP3     10299    TIP3     OH2      OT      -0.834000       15.9994           0
     70292 TIP3     10299    TIP3     H1       HT       0.417000       1.00800           0
     70293 TIP3     10299    TIP3     H2       HT       0.417000       1.00800           0
     70294 TIP3     10300    TIP3     OH2      OT      -0.834000       15.9994           0
     70295 TIP3     10300    TIP3     H1       HT       0.417000       1.00800           0
     70296 TIP3     10300    TIP3     H2       HT       0.417000       1.00800           0
     70297 TIP3     10301    TIP3     OH2      OT      -0.834000       15.9994           0
     70298 TIP3     10301    TIP3     H1       HT       0.417000       1.00800           0
     70299 TIP3     10301    TIP3     H2       HT       0.417000       1.00800           0
     70300 TIP3     10302    TIP3     OH2      OT      -0.834000       15.9994           0
     70301 TIP3     10302    TIP3     H1       HT       0.417000       1.00800           0
     70302 TIP3     10302    TIP3     H2       HT       0.417000       1.00800           0
     70303 TIP3     10303    TIP3     OH2      OT      -0.834000       15.9994           0
     70304 TIP3     10303    TIP3     H1       HT       0.417000       1.00800           0
     70305 TIP3     10303    TIP3     H2       HT       0.417000       1.00800           0
     70306 TIP3     10304    TIP3     OH2      OT      -0.834000       15.9994           0
     70307 TIP3     10304    TIP3     H1       HT       0.417000       1.00800           0
     70308 TIP3     10304    TIP3     H2       HT       0.417000       1.00800           0
     70309 TIP3     10305    TIP3     OH2      OT      -0.834000       15.9994           0
     70310 TIP3     10305    TIP3     H1       HT       0.417000       1.00800           0
     70311 TIP3     10305    TIP3     H2       HT       0.417000       1.00800           0
     70312 TIP3     10306    TIP3     OH2      OT      -0.834000       15.9994           0
     70313 TIP3     10306    TIP3     H1       HT       0.417000       1.00800           0
     70314 TIP3     10306    TIP3     H2       HT       0.417000       1.00800           0
     70315 TIP3     10307    TIP3     OH2      OT      -0.834000       15.9994           0
     70316 TIP3     10307    TIP3     H1       HT       0.417000       1.00800           0
     70317 TIP3     10307    TIP3     H2       HT       0.417000       1.00800           0
     70318 TIP3     10308    TIP3     OH2      OT      -0.834000       15.9994           0
     70319 TIP3     10308    TIP3     H1       HT       0.417000       1.00800           0
     70320 TIP3     10308    TIP3     H2       HT       0.417000       1.00800           0
     70321 TIP3     10309    TIP3     OH2      OT      -0.834000       15.9994           0
     70322 TIP3     10309    TIP3     H1       HT       0.417000       1.00800           0
     70323 TIP3     10309    TIP3     H2       HT       0.417000       1.00800           0
     70324 TIP3     10310    TIP3     OH2      OT      -0.834000       15.9994           0
     70325 TIP3     10310    TIP3     H1       HT       0.417000       1.00800           0
     70326 TIP3     10310    TIP3     H2       HT       0.417000       1.00800           0
     70327 TIP3     10311    TIP3     OH2      OT      -0.834000       15.9994           0
     70328 TIP3     10311    TIP3     H1       HT       0.417000       1.00800           0
     70329 TIP3     10311    TIP3     H2       HT       0.417000       1.00800           0
     70330 TIP3     10312    TIP3     OH2      OT      -0.834000       15.9994           0
     70331 TIP3     10312    TIP3     H1       HT       0.417000       1.00800           0
     70332 TIP3     10312    TIP3     H2       HT       0.417000       1.00800           0
     70333 TIP3     10313    TIP3     OH2      OT      -0.834000       15.9994           0
     70334 TIP3     10313    TIP3     H1       HT       0.417000       1.00800           0
     70335 TIP3     10313    TIP3     H2       HT       0.417000       1.00800           0
     70336 TIP3     10314    TIP3     OH2      OT      -0.834000       15.9994           0
     70337 TIP3     10314    TIP3     H1       HT       0.417000       1.00800           0
     70338 TIP3     10314    TIP3     H2       HT       0.417000       1.00800           0
     70339 TIP3     10315    TIP3     OH2      OT      -0.834000       15.9994           0
     70340 TIP3     10315    TIP3     H1       HT       0.417000       1.00800           0
     70341 TIP3     10315    TIP3     H2       HT       0.417000       1.00800           0
     70342 TIP3     10316    TIP3     OH2      OT      -0.834000       15.9994           0
     70343 TIP3     10316    TIP3     H1       HT       0.417000       1.00800           0
     70344 TIP3     10316    TIP3     H2       HT       0.417000       1.00800           0
     70345 TIP3     10317    TIP3     OH2      OT      -0.834000       15.9994           0
     70346 TIP3     10317    TIP3     H1       HT       0.417000       1.00800           0
     70347 TIP3     10317    TIP3     H2       HT       0.417000       1.00800           0
     70348 TIP3     10318    TIP3     OH2      OT      -0.834000       15.9994           0
     70349 TIP3     10318    TIP3     H1       HT       0.417000       1.00800           0
     70350 TIP3     10318    TIP3     H2       HT       0.417000       1.00800           0
     70351 TIP3     10319    TIP3     OH2      OT      -0.834000       15.9994           0
     70352 TIP3     10319    TIP3     H1       HT       0.417000       1.00800           0
     70353 TIP3     10319    TIP3     H2       HT       0.417000       1.00800           0
     70354 TIP3     10320    TIP3     OH2      OT      -0.834000       15.9994           0
     70355 TIP3     10320    TIP3     H1       HT       0.417000       1.00800           0
     70356 TIP3     10320    TIP3     H2       HT       0.417000       1.00800           0
     70357 TIP3     10321    TIP3     OH2      OT      -0.834000       15.9994           0
     70358 TIP3     10321    TIP3     H1       HT       0.417000       1.00800           0
     70359 TIP3     10321    TIP3     H2       HT       0.417000       1.00800           0
     70360 TIP3     10322    TIP3     OH2      OT      -0.834000       15.9994           0
     70361 TIP3     10322    TIP3     H1       HT       0.417000       1.00800           0
     70362 TIP3     10322    TIP3     H2       HT       0.417000       1.00800           0
     70363 TIP3     10323    TIP3     OH2      OT      -0.834000       15.9994           0
     70364 TIP3     10323    TIP3     H1       HT       0.417000       1.00800           0
     70365 TIP3     10323    TIP3     H2       HT       0.417000       1.00800           0
     70366 TIP3     10324    TIP3     OH2      OT      -0.834000       15.9994           0
     70367 TIP3     10324    TIP3     H1       HT       0.417000       1.00800           0
     70368 TIP3     10324    TIP3     H2       HT       0.417000       1.00800           0
     70369 TIP3     10325    TIP3     OH2      OT      -0.834000       15.9994           0
     70370 TIP3     10325    TIP3     H1       HT       0.417000       1.00800           0
     70371 TIP3     10325    TIP3     H2       HT       0.417000       1.00800           0
     70372 TIP3     10326    TIP3     OH2      OT      -0.834000       15.9994           0
     70373 TIP3     10326    TIP3     H1       HT       0.417000       1.00800           0
     70374 TIP3     10326    TIP3     H2       HT       0.417000       1.00800           0
     70375 TIP3     10327    TIP3     OH2      OT      -0.834000       15.9994           0
     70376 TIP3     10327    TIP3     H1       HT       0.417000       1.00800           0
     70377 TIP3     10327    TIP3     H2       HT       0.417000       1.00800           0
     70378 TIP3     10328    TIP3     OH2      OT      -0.834000       15.9994           0
     70379 TIP3     10328    TIP3     H1       HT       0.417000       1.00800           0
     70380 TIP3     10328    TIP3     H2       HT       0.417000       1.00800           0
     70381 TIP3     10329    TIP3     OH2      OT      -0.834000       15.9994           0
     70382 TIP3     10329    TIP3     H1       HT       0.417000       1.00800           0
     70383 TIP3     10329    TIP3     H2       HT       0.417000       1.00800           0
     70384 TIP3     10330    TIP3     OH2      OT      -0.834000       15.9994           0
     70385 TIP3     10330    TIP3     H1       HT       0.417000       1.00800           0
     70386 TIP3     10330    TIP3     H2       HT       0.417000       1.00800           0
     70387 TIP3     10331    TIP3     OH2      OT      -0.834000       15.9994           0
     70388 TIP3     10331    TIP3     H1       HT       0.417000       1.00800           0
     70389 TIP3     10331    TIP3     H2       HT       0.417000       1.00800           0
     70390 TIP3     10332    TIP3     OH2      OT      -0.834000       15.9994           0
     70391 TIP3     10332    TIP3     H1       HT       0.417000       1.00800           0
     70392 TIP3     10332    TIP3     H2       HT       0.417000       1.00800           0
     70393 TIP3     10333    TIP3     OH2      OT      -0.834000       15.9994           0
     70394 TIP3     10333    TIP3     H1       HT       0.417000       1.00800           0
     70395 TIP3     10333    TIP3     H2       HT       0.417000       1.00800           0
     70396 TIP3     10334    TIP3     OH2      OT      -0.834000       15.9994           0
     70397 TIP3     10334    TIP3     H1       HT       0.417000       1.00800           0
     70398 TIP3     10334    TIP3     H2       HT       0.417000       1.00800           0
     70399 TIP3     10335    TIP3     OH2      OT      -0.834000       15.9994           0
     70400 TIP3     10335    TIP3     H1       HT       0.417000       1.00800           0
     70401 TIP3     10335    TIP3     H2       HT       0.417000       1.00800           0
     70402 TIP3     10336    TIP3     OH2      OT      -0.834000       15.9994           0
     70403 TIP3     10336    TIP3     H1       HT       0.417000       1.00800           0
     70404 TIP3     10336    TIP3     H2       HT       0.417000       1.00800           0
     70405 TIP3     10337    TIP3     OH2      OT      -0.834000       15.9994           0
     70406 TIP3     10337    TIP3     H1       HT       0.417000       1.00800           0
     70407 TIP3     10337    TIP3     H2       HT       0.417000       1.00800           0
     70408 TIP3     10338    TIP3     OH2      OT      -0.834000       15.9994           0
     70409 TIP3     10338    TIP3     H1       HT       0.417000       1.00800           0
     70410 TIP3     10338    TIP3     H2       HT       0.417000       1.00800           0
     70411 TIP3     10339    TIP3     OH2      OT      -0.834000       15.9994           0
     70412 TIP3     10339    TIP3     H1       HT       0.417000       1.00800           0
     70413 TIP3     10339    TIP3     H2       HT       0.417000       1.00800           0
     70414 TIP3     10340    TIP3     OH2      OT      -0.834000       15.9994           0
     70415 TIP3     10340    TIP3     H1       HT       0.417000       1.00800           0
     70416 TIP3     10340    TIP3     H2       HT       0.417000       1.00800           0
     70417 TIP3     10341    TIP3     OH2      OT      -0.834000       15.9994           0
     70418 TIP3     10341    TIP3     H1       HT       0.417000       1.00800           0
     70419 TIP3     10341    TIP3     H2       HT       0.417000       1.00800           0
     70420 TIP3     10342    TIP3     OH2      OT      -0.834000       15.9994           0
     70421 TIP3     10342    TIP3     H1       HT       0.417000       1.00800           0
     70422 TIP3     10342    TIP3     H2       HT       0.417000       1.00800           0
     70423 TIP3     10343    TIP3     OH2      OT      -0.834000       15.9994           0
     70424 TIP3     10343    TIP3     H1       HT       0.417000       1.00800           0
     70425 TIP3     10343    TIP3     H2       HT       0.417000       1.00800           0
     70426 TIP3     10344    TIP3     OH2      OT      -0.834000       15.9994           0
     70427 TIP3     10344    TIP3     H1       HT       0.417000       1.00800           0
     70428 TIP3     10344    TIP3     H2       HT       0.417000       1.00800           0
     70429 TIP3     10345    TIP3     OH2      OT      -0.834000       15.9994           0
     70430 TIP3     10345    TIP3     H1       HT       0.417000       1.00800           0
     70431 TIP3     10345    TIP3     H2       HT       0.417000       1.00800           0
     70432 TIP3     10346    TIP3     OH2      OT      -0.834000       15.9994           0
     70433 TIP3     10346    TIP3     H1       HT       0.417000       1.00800           0
     70434 TIP3     10346    TIP3     H2       HT       0.417000       1.00800           0
     70435 TIP3     10347    TIP3     OH2      OT      -0.834000       15.9994           0
     70436 TIP3     10347    TIP3     H1       HT       0.417000       1.00800           0
     70437 TIP3     10347    TIP3     H2       HT       0.417000       1.00800           0
     70438 TIP3     10348    TIP3     OH2      OT      -0.834000       15.9994           0
     70439 TIP3     10348    TIP3     H1       HT       0.417000       1.00800           0
     70440 TIP3     10348    TIP3     H2       HT       0.417000       1.00800           0
     70441 TIP3     10349    TIP3     OH2      OT      -0.834000       15.9994           0
     70442 TIP3     10349    TIP3     H1       HT       0.417000       1.00800           0
     70443 TIP3     10349    TIP3     H2       HT       0.417000       1.00800           0
     70444 TIP3     10350    TIP3     OH2      OT      -0.834000       15.9994           0
     70445 TIP3     10350    TIP3     H1       HT       0.417000       1.00800           0
     70446 TIP3     10350    TIP3     H2       HT       0.417000       1.00800           0
     70447 TIP3     10351    TIP3     OH2      OT      -0.834000       15.9994           0
     70448 TIP3     10351    TIP3     H1       HT       0.417000       1.00800           0
     70449 TIP3     10351    TIP3     H2       HT       0.417000       1.00800           0
     70450 TIP3     10352    TIP3     OH2      OT      -0.834000       15.9994           0
     70451 TIP3     10352    TIP3     H1       HT       0.417000       1.00800           0
     70452 TIP3     10352    TIP3     H2       HT       0.417000       1.00800           0
     70453 TIP3     10353    TIP3     OH2      OT      -0.834000       15.9994           0
     70454 TIP3     10353    TIP3     H1       HT       0.417000       1.00800           0
     70455 TIP3     10353    TIP3     H2       HT       0.417000       1.00800           0
     70456 TIP3     10354    TIP3     OH2      OT      -0.834000       15.9994           0
     70457 TIP3     10354    TIP3     H1       HT       0.417000       1.00800           0
     70458 TIP3     10354    TIP3     H2       HT       0.417000       1.00800           0
     70459 TIP3     10355    TIP3     OH2      OT      -0.834000       15.9994           0
     70460 TIP3     10355    TIP3     H1       HT       0.417000       1.00800           0
     70461 TIP3     10355    TIP3     H2       HT       0.417000       1.00800           0
     70462 TIP3     10356    TIP3     OH2      OT      -0.834000       15.9994           0
     70463 TIP3     10356    TIP3     H1       HT       0.417000       1.00800           0
     70464 TIP3     10356    TIP3     H2       HT       0.417000       1.00800           0
     70465 TIP3     10357    TIP3     OH2      OT      -0.834000       15.9994           0
     70466 TIP3     10357    TIP3     H1       HT       0.417000       1.00800           0
     70467 TIP3     10357    TIP3     H2       HT       0.417000       1.00800           0
     70468 TIP3     10358    TIP3     OH2      OT      -0.834000       15.9994           0
     70469 TIP3     10358    TIP3     H1       HT       0.417000       1.00800           0
     70470 TIP3     10358    TIP3     H2       HT       0.417000       1.00800           0
     70471 TIP3     10359    TIP3     OH2      OT      -0.834000       15.9994           0
     70472 TIP3     10359    TIP3     H1       HT       0.417000       1.00800           0
     70473 TIP3     10359    TIP3     H2       HT       0.417000       1.00800           0
     70474 TIP3     10360    TIP3     OH2      OT      -0.834000       15.9994           0
     70475 TIP3     10360    TIP3     H1       HT       0.417000       1.00800           0
     70476 TIP3     10360    TIP3     H2       HT       0.417000       1.00800           0
     70477 TIP3     10361    TIP3     OH2      OT      -0.834000       15.9994           0
     70478 TIP3     10361    TIP3     H1       HT       0.417000       1.00800           0
     70479 TIP3     10361    TIP3     H2       HT       0.417000       1.00800           0
     70480 TIP3     10362    TIP3     OH2      OT      -0.834000       15.9994           0
     70481 TIP3     10362    TIP3     H1       HT       0.417000       1.00800           0
     70482 TIP3     10362    TIP3     H2       HT       0.417000       1.00800           0
     70483 TIP3     10363    TIP3     OH2      OT      -0.834000       15.9994           0
     70484 TIP3     10363    TIP3     H1       HT       0.417000       1.00800           0
     70485 TIP3     10363    TIP3     H2       HT       0.417000       1.00800           0
     70486 TIP3     10364    TIP3     OH2      OT      -0.834000       15.9994           0
     70487 TIP3     10364    TIP3     H1       HT       0.417000       1.00800           0
     70488 TIP3     10364    TIP3     H2       HT       0.417000       1.00800           0
     70489 TIP3     10365    TIP3     OH2      OT      -0.834000       15.9994           0
     70490 TIP3     10365    TIP3     H1       HT       0.417000       1.00800           0
     70491 TIP3     10365    TIP3     H2       HT       0.417000       1.00800           0
     70492 TIP3     10366    TIP3     OH2      OT      -0.834000       15.9994           0
     70493 TIP3     10366    TIP3     H1       HT       0.417000       1.00800           0
     70494 TIP3     10366    TIP3     H2       HT       0.417000       1.00800           0
     70495 TIP3     10367    TIP3     OH2      OT      -0.834000       15.9994           0
     70496 TIP3     10367    TIP3     H1       HT       0.417000       1.00800           0
     70497 TIP3     10367    TIP3     H2       HT       0.417000       1.00800           0
     70498 TIP3     10368    TIP3     OH2      OT      -0.834000       15.9994           0
     70499 TIP3     10368    TIP3     H1       HT       0.417000       1.00800           0
     70500 TIP3     10368    TIP3     H2       HT       0.417000       1.00800           0
     70501 TIP3     10369    TIP3     OH2      OT      -0.834000       15.9994           0
     70502 TIP3     10369    TIP3     H1       HT       0.417000       1.00800           0
     70503 TIP3     10369    TIP3     H2       HT       0.417000       1.00800           0
     70504 TIP3     10370    TIP3     OH2      OT      -0.834000       15.9994           0
     70505 TIP3     10370    TIP3     H1       HT       0.417000       1.00800           0
     70506 TIP3     10370    TIP3     H2       HT       0.417000       1.00800           0
     70507 TIP3     10371    TIP3     OH2      OT      -0.834000       15.9994           0
     70508 TIP3     10371    TIP3     H1       HT       0.417000       1.00800           0
     70509 TIP3     10371    TIP3     H2       HT       0.417000       1.00800           0
     70510 TIP3     10372    TIP3     OH2      OT      -0.834000       15.9994           0
     70511 TIP3     10372    TIP3     H1       HT       0.417000       1.00800           0
     70512 TIP3     10372    TIP3     H2       HT       0.417000       1.00800           0
     70513 TIP3     10373    TIP3     OH2      OT      -0.834000       15.9994           0
     70514 TIP3     10373    TIP3     H1       HT       0.417000       1.00800           0
     70515 TIP3     10373    TIP3     H2       HT       0.417000       1.00800           0
     70516 TIP3     10374    TIP3     OH2      OT      -0.834000       15.9994           0
     70517 TIP3     10374    TIP3     H1       HT       0.417000       1.00800           0
     70518 TIP3     10374    TIP3     H2       HT       0.417000       1.00800           0
     70519 TIP3     10375    TIP3     OH2      OT      -0.834000       15.9994           0
     70520 TIP3     10375    TIP3     H1       HT       0.417000       1.00800           0
     70521 TIP3     10375    TIP3     H2       HT       0.417000       1.00800           0
     70522 TIP3     10376    TIP3     OH2      OT      -0.834000       15.9994           0
     70523 TIP3     10376    TIP3     H1       HT       0.417000       1.00800           0
     70524 TIP3     10376    TIP3     H2       HT       0.417000       1.00800           0
     70525 TIP3     10377    TIP3     OH2      OT      -0.834000       15.9994           0
     70526 TIP3     10377    TIP3     H1       HT       0.417000       1.00800           0
     70527 TIP3     10377    TIP3     H2       HT       0.417000       1.00800           0
     70528 TIP3     10378    TIP3     OH2      OT      -0.834000       15.9994           0
     70529 TIP3     10378    TIP3     H1       HT       0.417000       1.00800           0
     70530 TIP3     10378    TIP3     H2       HT       0.417000       1.00800           0
     70531 TIP3     10379    TIP3     OH2      OT      -0.834000       15.9994           0
     70532 TIP3     10379    TIP3     H1       HT       0.417000       1.00800           0
     70533 TIP3     10379    TIP3     H2       HT       0.417000       1.00800           0
     70534 TIP3     10380    TIP3     OH2      OT      -0.834000       15.9994           0
     70535 TIP3     10380    TIP3     H1       HT       0.417000       1.00800           0
     70536 TIP3     10380    TIP3     H2       HT       0.417000       1.00800           0
     70537 TIP3     10381    TIP3     OH2      OT      -0.834000       15.9994           0
     70538 TIP3     10381    TIP3     H1       HT       0.417000       1.00800           0
     70539 TIP3     10381    TIP3     H2       HT       0.417000       1.00800           0
     70540 TIP3     10382    TIP3     OH2      OT      -0.834000       15.9994           0
     70541 TIP3     10382    TIP3     H1       HT       0.417000       1.00800           0
     70542 TIP3     10382    TIP3     H2       HT       0.417000       1.00800           0
     70543 TIP3     10383    TIP3     OH2      OT      -0.834000       15.9994           0
     70544 TIP3     10383    TIP3     H1       HT       0.417000       1.00800           0
     70545 TIP3     10383    TIP3     H2       HT       0.417000       1.00800           0
     70546 TIP3     10384    TIP3     OH2      OT      -0.834000       15.9994           0
     70547 TIP3     10384    TIP3     H1       HT       0.417000       1.00800           0
     70548 TIP3     10384    TIP3     H2       HT       0.417000       1.00800           0
     70549 TIP3     10385    TIP3     OH2      OT      -0.834000       15.9994           0
     70550 TIP3     10385    TIP3     H1       HT       0.417000       1.00800           0
     70551 TIP3     10385    TIP3     H2       HT       0.417000       1.00800           0
     70552 TIP3     10386    TIP3     OH2      OT      -0.834000       15.9994           0
     70553 TIP3     10386    TIP3     H1       HT       0.417000       1.00800           0
     70554 TIP3     10386    TIP3     H2       HT       0.417000       1.00800           0
     70555 TIP3     10387    TIP3     OH2      OT      -0.834000       15.9994           0
     70556 TIP3     10387    TIP3     H1       HT       0.417000       1.00800           0
     70557 TIP3     10387    TIP3     H2       HT       0.417000       1.00800           0
     70558 TIP3     10388    TIP3     OH2      OT      -0.834000       15.9994           0
     70559 TIP3     10388    TIP3     H1       HT       0.417000       1.00800           0
     70560 TIP3     10388    TIP3     H2       HT       0.417000       1.00800           0
     70561 TIP3     10389    TIP3     OH2      OT      -0.834000       15.9994           0
     70562 TIP3     10389    TIP3     H1       HT       0.417000       1.00800           0
     70563 TIP3     10389    TIP3     H2       HT       0.417000       1.00800           0
     70564 TIP3     10390    TIP3     OH2      OT      -0.834000       15.9994           0
     70565 TIP3     10390    TIP3     H1       HT       0.417000       1.00800           0
     70566 TIP3     10390    TIP3     H2       HT       0.417000       1.00800           0
     70567 TIP3     10391    TIP3     OH2      OT      -0.834000       15.9994           0
     70568 TIP3     10391    TIP3     H1       HT       0.417000       1.00800           0
     70569 TIP3     10391    TIP3     H2       HT       0.417000       1.00800           0
     70570 TIP3     10392    TIP3     OH2      OT      -0.834000       15.9994           0
     70571 TIP3     10392    TIP3     H1       HT       0.417000       1.00800           0
     70572 TIP3     10392    TIP3     H2       HT       0.417000       1.00800           0
     70573 TIP3     10393    TIP3     OH2      OT      -0.834000       15.9994           0
     70574 TIP3     10393    TIP3     H1       HT       0.417000       1.00800           0
     70575 TIP3     10393    TIP3     H2       HT       0.417000       1.00800           0
     70576 TIP3     10394    TIP3     OH2      OT      -0.834000       15.9994           0
     70577 TIP3     10394    TIP3     H1       HT       0.417000       1.00800           0
     70578 TIP3     10394    TIP3     H2       HT       0.417000       1.00800           0
     70579 TIP3     10395    TIP3     OH2      OT      -0.834000       15.9994           0
     70580 TIP3     10395    TIP3     H1       HT       0.417000       1.00800           0
     70581 TIP3     10395    TIP3     H2       HT       0.417000       1.00800           0
     70582 TIP3     10396    TIP3     OH2      OT      -0.834000       15.9994           0
     70583 TIP3     10396    TIP3     H1       HT       0.417000       1.00800           0
     70584 TIP3     10396    TIP3     H2       HT       0.417000       1.00800           0
     70585 TIP3     10397    TIP3     OH2      OT      -0.834000       15.9994           0
     70586 TIP3     10397    TIP3     H1       HT       0.417000       1.00800           0
     70587 TIP3     10397    TIP3     H2       HT       0.417000       1.00800           0
     70588 TIP3     10398    TIP3     OH2      OT      -0.834000       15.9994           0
     70589 TIP3     10398    TIP3     H1       HT       0.417000       1.00800           0
     70590 TIP3     10398    TIP3     H2       HT       0.417000       1.00800           0
     70591 TIP3     10399    TIP3     OH2      OT      -0.834000       15.9994           0
     70592 TIP3     10399    TIP3     H1       HT       0.417000       1.00800           0
     70593 TIP3     10399    TIP3     H2       HT       0.417000       1.00800           0
     70594 TIP3     10400    TIP3     OH2      OT      -0.834000       15.9994           0
     70595 TIP3     10400    TIP3     H1       HT       0.417000       1.00800           0
     70596 TIP3     10400    TIP3     H2       HT       0.417000       1.00800           0
     70597 TIP3     10401    TIP3     OH2      OT      -0.834000       15.9994           0
     70598 TIP3     10401    TIP3     H1       HT       0.417000       1.00800           0
     70599 TIP3     10401    TIP3     H2       HT       0.417000       1.00800           0
     70600 TIP3     10402    TIP3     OH2      OT      -0.834000       15.9994           0
     70601 TIP3     10402    TIP3     H1       HT       0.417000       1.00800           0
     70602 TIP3     10402    TIP3     H2       HT       0.417000       1.00800           0
     70603 TIP3     10403    TIP3     OH2      OT      -0.834000       15.9994           0
     70604 TIP3     10403    TIP3     H1       HT       0.417000       1.00800           0
     70605 TIP3     10403    TIP3     H2       HT       0.417000       1.00800           0
     70606 TIP3     10404    TIP3     OH2      OT      -0.834000       15.9994           0
     70607 TIP3     10404    TIP3     H1       HT       0.417000       1.00800           0
     70608 TIP3     10404    TIP3     H2       HT       0.417000       1.00800           0
     70609 TIP3     10405    TIP3     OH2      OT      -0.834000       15.9994           0
     70610 TIP3     10405    TIP3     H1       HT       0.417000       1.00800           0
     70611 TIP3     10405    TIP3     H2       HT       0.417000       1.00800           0
     70612 TIP3     10406    TIP3     OH2      OT      -0.834000       15.9994           0
     70613 TIP3     10406    TIP3     H1       HT       0.417000       1.00800           0
     70614 TIP3     10406    TIP3     H2       HT       0.417000       1.00800           0
     70615 TIP3     10407    TIP3     OH2      OT      -0.834000       15.9994           0
     70616 TIP3     10407    TIP3     H1       HT       0.417000       1.00800           0
     70617 TIP3     10407    TIP3     H2       HT       0.417000       1.00800           0
     70618 TIP3     10408    TIP3     OH2      OT      -0.834000       15.9994           0
     70619 TIP3     10408    TIP3     H1       HT       0.417000       1.00800           0
     70620 TIP3     10408    TIP3     H2       HT       0.417000       1.00800           0
     70621 TIP3     10409    TIP3     OH2      OT      -0.834000       15.9994           0
     70622 TIP3     10409    TIP3     H1       HT       0.417000       1.00800           0
     70623 TIP3     10409    TIP3     H2       HT       0.417000       1.00800           0
     70624 TIP3     10410    TIP3     OH2      OT      -0.834000       15.9994           0
     70625 TIP3     10410    TIP3     H1       HT       0.417000       1.00800           0
     70626 TIP3     10410    TIP3     H2       HT       0.417000       1.00800           0
     70627 TIP3     10411    TIP3     OH2      OT      -0.834000       15.9994           0
     70628 TIP3     10411    TIP3     H1       HT       0.417000       1.00800           0
     70629 TIP3     10411    TIP3     H2       HT       0.417000       1.00800           0
     70630 TIP3     10412    TIP3     OH2      OT      -0.834000       15.9994           0
     70631 TIP3     10412    TIP3     H1       HT       0.417000       1.00800           0
     70632 TIP3     10412    TIP3     H2       HT       0.417000       1.00800           0
     70633 TIP3     10413    TIP3     OH2      OT      -0.834000       15.9994           0
     70634 TIP3     10413    TIP3     H1       HT       0.417000       1.00800           0
     70635 TIP3     10413    TIP3     H2       HT       0.417000       1.00800           0
     70636 TIP3     10414    TIP3     OH2      OT      -0.834000       15.9994           0
     70637 TIP3     10414    TIP3     H1       HT       0.417000       1.00800           0
     70638 TIP3     10414    TIP3     H2       HT       0.417000       1.00800           0
     70639 TIP3     10415    TIP3     OH2      OT      -0.834000       15.9994           0
     70640 TIP3     10415    TIP3     H1       HT       0.417000       1.00800           0
     70641 TIP3     10415    TIP3     H2       HT       0.417000       1.00800           0
     70642 TIP3     10416    TIP3     OH2      OT      -0.834000       15.9994           0
     70643 TIP3     10416    TIP3     H1       HT       0.417000       1.00800           0
     70644 TIP3     10416    TIP3     H2       HT       0.417000       1.00800           0
     70645 TIP3     10417    TIP3     OH2      OT      -0.834000       15.9994           0
     70646 TIP3     10417    TIP3     H1       HT       0.417000       1.00800           0
     70647 TIP3     10417    TIP3     H2       HT       0.417000       1.00800           0
     70648 TIP3     10418    TIP3     OH2      OT      -0.834000       15.9994           0
     70649 TIP3     10418    TIP3     H1       HT       0.417000       1.00800           0
     70650 TIP3     10418    TIP3     H2       HT       0.417000       1.00800           0
     70651 TIP3     10419    TIP3     OH2      OT      -0.834000       15.9994           0
     70652 TIP3     10419    TIP3     H1       HT       0.417000       1.00800           0
     70653 TIP3     10419    TIP3     H2       HT       0.417000       1.00800           0
     70654 TIP3     10420    TIP3     OH2      OT      -0.834000       15.9994           0
     70655 TIP3     10420    TIP3     H1       HT       0.417000       1.00800           0
     70656 TIP3     10420    TIP3     H2       HT       0.417000       1.00800           0
     70657 TIP3     10421    TIP3     OH2      OT      -0.834000       15.9994           0
     70658 TIP3     10421    TIP3     H1       HT       0.417000       1.00800           0
     70659 TIP3     10421    TIP3     H2       HT       0.417000       1.00800           0
     70660 TIP3     10422    TIP3     OH2      OT      -0.834000       15.9994           0
     70661 TIP3     10422    TIP3     H1       HT       0.417000       1.00800           0
     70662 TIP3     10422    TIP3     H2       HT       0.417000       1.00800           0
     70663 TIP3     10423    TIP3     OH2      OT      -0.834000       15.9994           0
     70664 TIP3     10423    TIP3     H1       HT       0.417000       1.00800           0
     70665 TIP3     10423    TIP3     H2       HT       0.417000       1.00800           0
     70666 TIP3     10424    TIP3     OH2      OT      -0.834000       15.9994           0
     70667 TIP3     10424    TIP3     H1       HT       0.417000       1.00800           0
     70668 TIP3     10424    TIP3     H2       HT       0.417000       1.00800           0
     70669 TIP3     10425    TIP3     OH2      OT      -0.834000       15.9994           0
     70670 TIP3     10425    TIP3     H1       HT       0.417000       1.00800           0
     70671 TIP3     10425    TIP3     H2       HT       0.417000       1.00800           0
     70672 TIP3     10426    TIP3     OH2      OT      -0.834000       15.9994           0
     70673 TIP3     10426    TIP3     H1       HT       0.417000       1.00800           0
     70674 TIP3     10426    TIP3     H2       HT       0.417000       1.00800           0
     70675 TIP3     10427    TIP3     OH2      OT      -0.834000       15.9994           0
     70676 TIP3     10427    TIP3     H1       HT       0.417000       1.00800           0
     70677 TIP3     10427    TIP3     H2       HT       0.417000       1.00800           0
     70678 TIP3     10428    TIP3     OH2      OT      -0.834000       15.9994           0
     70679 TIP3     10428    TIP3     H1       HT       0.417000       1.00800           0
     70680 TIP3     10428    TIP3     H2       HT       0.417000       1.00800           0
     70681 TIP3     10429    TIP3     OH2      OT      -0.834000       15.9994           0
     70682 TIP3     10429    TIP3     H1       HT       0.417000       1.00800           0
     70683 TIP3     10429    TIP3     H2       HT       0.417000       1.00800           0
     70684 TIP3     10430    TIP3     OH2      OT      -0.834000       15.9994           0
     70685 TIP3     10430    TIP3     H1       HT       0.417000       1.00800           0
     70686 TIP3     10430    TIP3     H2       HT       0.417000       1.00800           0
     70687 TIP3     10431    TIP3     OH2      OT      -0.834000       15.9994           0
     70688 TIP3     10431    TIP3     H1       HT       0.417000       1.00800           0
     70689 TIP3     10431    TIP3     H2       HT       0.417000       1.00800           0
     70690 TIP3     10432    TIP3     OH2      OT      -0.834000       15.9994           0
     70691 TIP3     10432    TIP3     H1       HT       0.417000       1.00800           0
     70692 TIP3     10432    TIP3     H2       HT       0.417000       1.00800           0
     70693 TIP3     10433    TIP3     OH2      OT      -0.834000       15.9994           0
     70694 TIP3     10433    TIP3     H1       HT       0.417000       1.00800           0
     70695 TIP3     10433    TIP3     H2       HT       0.417000       1.00800           0
     70696 TIP3     10434    TIP3     OH2      OT      -0.834000       15.9994           0
     70697 TIP3     10434    TIP3     H1       HT       0.417000       1.00800           0
     70698 TIP3     10434    TIP3     H2       HT       0.417000       1.00800           0
     70699 TIP3     10435    TIP3     OH2      OT      -0.834000       15.9994           0
     70700 TIP3     10435    TIP3     H1       HT       0.417000       1.00800           0
     70701 TIP3     10435    TIP3     H2       HT       0.417000       1.00800           0
     70702 TIP3     10436    TIP3     OH2      OT      -0.834000       15.9994           0
     70703 TIP3     10436    TIP3     H1       HT       0.417000       1.00800           0
     70704 TIP3     10436    TIP3     H2       HT       0.417000       1.00800           0
     70705 TIP3     10437    TIP3     OH2      OT      -0.834000       15.9994           0
     70706 TIP3     10437    TIP3     H1       HT       0.417000       1.00800           0
     70707 TIP3     10437    TIP3     H2       HT       0.417000       1.00800           0
     70708 TIP3     10438    TIP3     OH2      OT      -0.834000       15.9994           0
     70709 TIP3     10438    TIP3     H1       HT       0.417000       1.00800           0
     70710 TIP3     10438    TIP3     H2       HT       0.417000       1.00800           0
     70711 TIP3     10439    TIP3     OH2      OT      -0.834000       15.9994           0
     70712 TIP3     10439    TIP3     H1       HT       0.417000       1.00800           0
     70713 TIP3     10439    TIP3     H2       HT       0.417000       1.00800           0
     70714 TIP3     10440    TIP3     OH2      OT      -0.834000       15.9994           0
     70715 TIP3     10440    TIP3     H1       HT       0.417000       1.00800           0
     70716 TIP3     10440    TIP3     H2       HT       0.417000       1.00800           0
     70717 TIP3     10441    TIP3     OH2      OT      -0.834000       15.9994           0
     70718 TIP3     10441    TIP3     H1       HT       0.417000       1.00800           0
     70719 TIP3     10441    TIP3     H2       HT       0.417000       1.00800           0
     70720 TIP3     10442    TIP3     OH2      OT      -0.834000       15.9994           0
     70721 TIP3     10442    TIP3     H1       HT       0.417000       1.00800           0
     70722 TIP3     10442    TIP3     H2       HT       0.417000       1.00800           0
     70723 TIP3     10443    TIP3     OH2      OT      -0.834000       15.9994           0
     70724 TIP3     10443    TIP3     H1       HT       0.417000       1.00800           0
     70725 TIP3     10443    TIP3     H2       HT       0.417000       1.00800           0
     70726 TIP3     10444    TIP3     OH2      OT      -0.834000       15.9994           0
     70727 TIP3     10444    TIP3     H1       HT       0.417000       1.00800           0
     70728 TIP3     10444    TIP3     H2       HT       0.417000       1.00800           0
     70729 TIP3     10445    TIP3     OH2      OT      -0.834000       15.9994           0
     70730 TIP3     10445    TIP3     H1       HT       0.417000       1.00800           0
     70731 TIP3     10445    TIP3     H2       HT       0.417000       1.00800           0
     70732 TIP3     10446    TIP3     OH2      OT      -0.834000       15.9994           0
     70733 TIP3     10446    TIP3     H1       HT       0.417000       1.00800           0
     70734 TIP3     10446    TIP3     H2       HT       0.417000       1.00800           0
     70735 TIP3     10447    TIP3     OH2      OT      -0.834000       15.9994           0
     70736 TIP3     10447    TIP3     H1       HT       0.417000       1.00800           0
     70737 TIP3     10447    TIP3     H2       HT       0.417000       1.00800           0
     70738 TIP3     10448    TIP3     OH2      OT      -0.834000       15.9994           0
     70739 TIP3     10448    TIP3     H1       HT       0.417000       1.00800           0
     70740 TIP3     10448    TIP3     H2       HT       0.417000       1.00800           0
     70741 TIP3     10449    TIP3     OH2      OT      -0.834000       15.9994           0
     70742 TIP3     10449    TIP3     H1       HT       0.417000       1.00800           0
     70743 TIP3     10449    TIP3     H2       HT       0.417000       1.00800           0
     70744 TIP3     10450    TIP3     OH2      OT      -0.834000       15.9994           0
     70745 TIP3     10450    TIP3     H1       HT       0.417000       1.00800           0
     70746 TIP3     10450    TIP3     H2       HT       0.417000       1.00800           0
     70747 TIP3     10451    TIP3     OH2      OT      -0.834000       15.9994           0
     70748 TIP3     10451    TIP3     H1       HT       0.417000       1.00800           0
     70749 TIP3     10451    TIP3     H2       HT       0.417000       1.00800           0
     70750 TIP3     10452    TIP3     OH2      OT      -0.834000       15.9994           0
     70751 TIP3     10452    TIP3     H1       HT       0.417000       1.00800           0
     70752 TIP3     10452    TIP3     H2       HT       0.417000       1.00800           0
     70753 TIP3     10453    TIP3     OH2      OT      -0.834000       15.9994           0
     70754 TIP3     10453    TIP3     H1       HT       0.417000       1.00800           0
     70755 TIP3     10453    TIP3     H2       HT       0.417000       1.00800           0
     70756 TIP3     10454    TIP3     OH2      OT      -0.834000       15.9994           0
     70757 TIP3     10454    TIP3     H1       HT       0.417000       1.00800           0
     70758 TIP3     10454    TIP3     H2       HT       0.417000       1.00800           0
     70759 TIP3     10455    TIP3     OH2      OT      -0.834000       15.9994           0
     70760 TIP3     10455    TIP3     H1       HT       0.417000       1.00800           0
     70761 TIP3     10455    TIP3     H2       HT       0.417000       1.00800           0
     70762 TIP3     10456    TIP3     OH2      OT      -0.834000       15.9994           0
     70763 TIP3     10456    TIP3     H1       HT       0.417000       1.00800           0
     70764 TIP3     10456    TIP3     H2       HT       0.417000       1.00800           0
     70765 TIP3     10457    TIP3     OH2      OT      -0.834000       15.9994           0
     70766 TIP3     10457    TIP3     H1       HT       0.417000       1.00800           0
     70767 TIP3     10457    TIP3     H2       HT       0.417000       1.00800           0
     70768 TIP3     10458    TIP3     OH2      OT      -0.834000       15.9994           0
     70769 TIP3     10458    TIP3     H1       HT       0.417000       1.00800           0
     70770 TIP3     10458    TIP3     H2       HT       0.417000       1.00800           0
     70771 TIP3     10459    TIP3     OH2      OT      -0.834000       15.9994           0
     70772 TIP3     10459    TIP3     H1       HT       0.417000       1.00800           0
     70773 TIP3     10459    TIP3     H2       HT       0.417000       1.00800           0
     70774 TIP3     10460    TIP3     OH2      OT      -0.834000       15.9994           0
     70775 TIP3     10460    TIP3     H1       HT       0.417000       1.00800           0
     70776 TIP3     10460    TIP3     H2       HT       0.417000       1.00800           0
     70777 TIP3     10461    TIP3     OH2      OT      -0.834000       15.9994           0
     70778 TIP3     10461    TIP3     H1       HT       0.417000       1.00800           0
     70779 TIP3     10461    TIP3     H2       HT       0.417000       1.00800           0
     70780 TIP3     10462    TIP3     OH2      OT      -0.834000       15.9994           0
     70781 TIP3     10462    TIP3     H1       HT       0.417000       1.00800           0
     70782 TIP3     10462    TIP3     H2       HT       0.417000       1.00800           0
     70783 TIP3     10463    TIP3     OH2      OT      -0.834000       15.9994           0
     70784 TIP3     10463    TIP3     H1       HT       0.417000       1.00800           0
     70785 TIP3     10463    TIP3     H2       HT       0.417000       1.00800           0
     70786 TIP3     10464    TIP3     OH2      OT      -0.834000       15.9994           0
     70787 TIP3     10464    TIP3     H1       HT       0.417000       1.00800           0
     70788 TIP3     10464    TIP3     H2       HT       0.417000       1.00800           0
     70789 TIP3     10465    TIP3     OH2      OT      -0.834000       15.9994           0
     70790 TIP3     10465    TIP3     H1       HT       0.417000       1.00800           0
     70791 TIP3     10465    TIP3     H2       HT       0.417000       1.00800           0
     70792 TIP3     10466    TIP3     OH2      OT      -0.834000       15.9994           0
     70793 TIP3     10466    TIP3     H1       HT       0.417000       1.00800           0
     70794 TIP3     10466    TIP3     H2       HT       0.417000       1.00800           0
     70795 TIP3     10467    TIP3     OH2      OT      -0.834000       15.9994           0
     70796 TIP3     10467    TIP3     H1       HT       0.417000       1.00800           0
     70797 TIP3     10467    TIP3     H2       HT       0.417000       1.00800           0
     70798 TIP3     10468    TIP3     OH2      OT      -0.834000       15.9994           0
     70799 TIP3     10468    TIP3     H1       HT       0.417000       1.00800           0
     70800 TIP3     10468    TIP3     H2       HT       0.417000       1.00800           0
     70801 TIP3     10469    TIP3     OH2      OT      -0.834000       15.9994           0
     70802 TIP3     10469    TIP3     H1       HT       0.417000       1.00800           0
     70803 TIP3     10469    TIP3     H2       HT       0.417000       1.00800           0
     70804 TIP3     10470    TIP3     OH2      OT      -0.834000       15.9994           0
     70805 TIP3     10470    TIP3     H1       HT       0.417000       1.00800           0
     70806 TIP3     10470    TIP3     H2       HT       0.417000       1.00800           0
     70807 TIP3     10471    TIP3     OH2      OT      -0.834000       15.9994           0
     70808 TIP3     10471    TIP3     H1       HT       0.417000       1.00800           0
     70809 TIP3     10471    TIP3     H2       HT       0.417000       1.00800           0
     70810 TIP3     10472    TIP3     OH2      OT      -0.834000       15.9994           0
     70811 TIP3     10472    TIP3     H1       HT       0.417000       1.00800           0
     70812 TIP3     10472    TIP3     H2       HT       0.417000       1.00800           0
     70813 TIP3     10473    TIP3     OH2      OT      -0.834000       15.9994           0
     70814 TIP3     10473    TIP3     H1       HT       0.417000       1.00800           0
     70815 TIP3     10473    TIP3     H2       HT       0.417000       1.00800           0
     70816 TIP3     10474    TIP3     OH2      OT      -0.834000       15.9994           0
     70817 TIP3     10474    TIP3     H1       HT       0.417000       1.00800           0
     70818 TIP3     10474    TIP3     H2       HT       0.417000       1.00800           0
     70819 TIP3     10475    TIP3     OH2      OT      -0.834000       15.9994           0
     70820 TIP3     10475    TIP3     H1       HT       0.417000       1.00800           0
     70821 TIP3     10475    TIP3     H2       HT       0.417000       1.00800           0
     70822 TIP3     10476    TIP3     OH2      OT      -0.834000       15.9994           0
     70823 TIP3     10476    TIP3     H1       HT       0.417000       1.00800           0
     70824 TIP3     10476    TIP3     H2       HT       0.417000       1.00800           0
     70825 TIP3     10477    TIP3     OH2      OT      -0.834000       15.9994           0
     70826 TIP3     10477    TIP3     H1       HT       0.417000       1.00800           0
     70827 TIP3     10477    TIP3     H2       HT       0.417000       1.00800           0
     70828 TIP3     10478    TIP3     OH2      OT      -0.834000       15.9994           0
     70829 TIP3     10478    TIP3     H1       HT       0.417000       1.00800           0
     70830 TIP3     10478    TIP3     H2       HT       0.417000       1.00800           0
     70831 TIP3     10479    TIP3     OH2      OT      -0.834000       15.9994           0
     70832 TIP3     10479    TIP3     H1       HT       0.417000       1.00800           0
     70833 TIP3     10479    TIP3     H2       HT       0.417000       1.00800           0
     70834 TIP3     10480    TIP3     OH2      OT      -0.834000       15.9994           0
     70835 TIP3     10480    TIP3     H1       HT       0.417000       1.00800           0
     70836 TIP3     10480    TIP3     H2       HT       0.417000       1.00800           0
     70837 TIP3     10481    TIP3     OH2      OT      -0.834000       15.9994           0
     70838 TIP3     10481    TIP3     H1       HT       0.417000       1.00800           0
     70839 TIP3     10481    TIP3     H2       HT       0.417000       1.00800           0
     70840 TIP3     10482    TIP3     OH2      OT      -0.834000       15.9994           0
     70841 TIP3     10482    TIP3     H1       HT       0.417000       1.00800           0
     70842 TIP3     10482    TIP3     H2       HT       0.417000       1.00800           0
     70843 TIP3     10483    TIP3     OH2      OT      -0.834000       15.9994           0
     70844 TIP3     10483    TIP3     H1       HT       0.417000       1.00800           0
     70845 TIP3     10483    TIP3     H2       HT       0.417000       1.00800           0
     70846 TIP3     10484    TIP3     OH2      OT      -0.834000       15.9994           0
     70847 TIP3     10484    TIP3     H1       HT       0.417000       1.00800           0
     70848 TIP3     10484    TIP3     H2       HT       0.417000       1.00800           0
     70849 TIP3     10485    TIP3     OH2      OT      -0.834000       15.9994           0
     70850 TIP3     10485    TIP3     H1       HT       0.417000       1.00800           0
     70851 TIP3     10485    TIP3     H2       HT       0.417000       1.00800           0
     70852 TIP3     10486    TIP3     OH2      OT      -0.834000       15.9994           0
     70853 TIP3     10486    TIP3     H1       HT       0.417000       1.00800           0
     70854 TIP3     10486    TIP3     H2       HT       0.417000       1.00800           0
     70855 TIP3     10487    TIP3     OH2      OT      -0.834000       15.9994           0
     70856 TIP3     10487    TIP3     H1       HT       0.417000       1.00800           0
     70857 TIP3     10487    TIP3     H2       HT       0.417000       1.00800           0
     70858 TIP3     10488    TIP3     OH2      OT      -0.834000       15.9994           0
     70859 TIP3     10488    TIP3     H1       HT       0.417000       1.00800           0
     70860 TIP3     10488    TIP3     H2       HT       0.417000       1.00800           0
     70861 TIP3     10489    TIP3     OH2      OT      -0.834000       15.9994           0
     70862 TIP3     10489    TIP3     H1       HT       0.417000       1.00800           0
     70863 TIP3     10489    TIP3     H2       HT       0.417000       1.00800           0
     70864 TIP3     10490    TIP3     OH2      OT      -0.834000       15.9994           0
     70865 TIP3     10490    TIP3     H1       HT       0.417000       1.00800           0
     70866 TIP3     10490    TIP3     H2       HT       0.417000       1.00800           0
     70867 TIP3     10491    TIP3     OH2      OT      -0.834000       15.9994           0
     70868 TIP3     10491    TIP3     H1       HT       0.417000       1.00800           0
     70869 TIP3     10491    TIP3     H2       HT       0.417000       1.00800           0
     70870 TIP3     10492    TIP3     OH2      OT      -0.834000       15.9994           0
     70871 TIP3     10492    TIP3     H1       HT       0.417000       1.00800           0
     70872 TIP3     10492    TIP3     H2       HT       0.417000       1.00800           0
     70873 TIP3     10493    TIP3     OH2      OT      -0.834000       15.9994           0
     70874 TIP3     10493    TIP3     H1       HT       0.417000       1.00800           0
     70875 TIP3     10493    TIP3     H2       HT       0.417000       1.00800           0
     70876 TIP3     10494    TIP3     OH2      OT      -0.834000       15.9994           0
     70877 TIP3     10494    TIP3     H1       HT       0.417000       1.00800           0
     70878 TIP3     10494    TIP3     H2       HT       0.417000       1.00800           0
     70879 TIP3     10495    TIP3     OH2      OT      -0.834000       15.9994           0
     70880 TIP3     10495    TIP3     H1       HT       0.417000       1.00800           0
     70881 TIP3     10495    TIP3     H2       HT       0.417000       1.00800           0
     70882 TIP3     10496    TIP3     OH2      OT      -0.834000       15.9994           0
     70883 TIP3     10496    TIP3     H1       HT       0.417000       1.00800           0
     70884 TIP3     10496    TIP3     H2       HT       0.417000       1.00800           0
     70885 TIP3     10497    TIP3     OH2      OT      -0.834000       15.9994           0
     70886 TIP3     10497    TIP3     H1       HT       0.417000       1.00800           0
     70887 TIP3     10497    TIP3     H2       HT       0.417000       1.00800           0
     70888 TIP3     10498    TIP3     OH2      OT      -0.834000       15.9994           0
     70889 TIP3     10498    TIP3     H1       HT       0.417000       1.00800           0
     70890 TIP3     10498    TIP3     H2       HT       0.417000       1.00800           0
     70891 TIP3     10499    TIP3     OH2      OT      -0.834000       15.9994           0
     70892 TIP3     10499    TIP3     H1       HT       0.417000       1.00800           0
     70893 TIP3     10499    TIP3     H2       HT       0.417000       1.00800           0
     70894 TIP3     10500    TIP3     OH2      OT      -0.834000       15.9994           0
     70895 TIP3     10500    TIP3     H1       HT       0.417000       1.00800           0
     70896 TIP3     10500    TIP3     H2       HT       0.417000       1.00800           0
     70897 TIP3     10501    TIP3     OH2      OT      -0.834000       15.9994           0
     70898 TIP3     10501    TIP3     H1       HT       0.417000       1.00800           0
     70899 TIP3     10501    TIP3     H2       HT       0.417000       1.00800           0
     70900 TIP3     10502    TIP3     OH2      OT      -0.834000       15.9994           0
     70901 TIP3     10502    TIP3     H1       HT       0.417000       1.00800           0
     70902 TIP3     10502    TIP3     H2       HT       0.417000       1.00800           0
     70903 TIP3     10503    TIP3     OH2      OT      -0.834000       15.9994           0
     70904 TIP3     10503    TIP3     H1       HT       0.417000       1.00800           0
     70905 TIP3     10503    TIP3     H2       HT       0.417000       1.00800           0
     70906 TIP3     10504    TIP3     OH2      OT      -0.834000       15.9994           0
     70907 TIP3     10504    TIP3     H1       HT       0.417000       1.00800           0
     70908 TIP3     10504    TIP3     H2       HT       0.417000       1.00800           0
     70909 TIP3     10505    TIP3     OH2      OT      -0.834000       15.9994           0
     70910 TIP3     10505    TIP3     H1       HT       0.417000       1.00800           0
     70911 TIP3     10505    TIP3     H2       HT       0.417000       1.00800           0
     70912 TIP3     10506    TIP3     OH2      OT      -0.834000       15.9994           0
     70913 TIP3     10506    TIP3     H1       HT       0.417000       1.00800           0
     70914 TIP3     10506    TIP3     H2       HT       0.417000       1.00800           0
     70915 TIP3     10507    TIP3     OH2      OT      -0.834000       15.9994           0
     70916 TIP3     10507    TIP3     H1       HT       0.417000       1.00800           0
     70917 TIP3     10507    TIP3     H2       HT       0.417000       1.00800           0
     70918 TIP3     10508    TIP3     OH2      OT      -0.834000       15.9994           0
     70919 TIP3     10508    TIP3     H1       HT       0.417000       1.00800           0
     70920 TIP3     10508    TIP3     H2       HT       0.417000       1.00800           0
     70921 TIP3     10509    TIP3     OH2      OT      -0.834000       15.9994           0
     70922 TIP3     10509    TIP3     H1       HT       0.417000       1.00800           0
     70923 TIP3     10509    TIP3     H2       HT       0.417000       1.00800           0
     70924 TIP3     10510    TIP3     OH2      OT      -0.834000       15.9994           0
     70925 TIP3     10510    TIP3     H1       HT       0.417000       1.00800           0
     70926 TIP3     10510    TIP3     H2       HT       0.417000       1.00800           0
     70927 TIP3     10511    TIP3     OH2      OT      -0.834000       15.9994           0
     70928 TIP3     10511    TIP3     H1       HT       0.417000       1.00800           0
     70929 TIP3     10511    TIP3     H2       HT       0.417000       1.00800           0
     70930 TIP3     10512    TIP3     OH2      OT      -0.834000       15.9994           0
     70931 TIP3     10512    TIP3     H1       HT       0.417000       1.00800           0
     70932 TIP3     10512    TIP3     H2       HT       0.417000       1.00800           0
     70933 TIP3     10513    TIP3     OH2      OT      -0.834000       15.9994           0
     70934 TIP3     10513    TIP3     H1       HT       0.417000       1.00800           0
     70935 TIP3     10513    TIP3     H2       HT       0.417000       1.00800           0
     70936 TIP3     10514    TIP3     OH2      OT      -0.834000       15.9994           0
     70937 TIP3     10514    TIP3     H1       HT       0.417000       1.00800           0
     70938 TIP3     10514    TIP3     H2       HT       0.417000       1.00800           0
     70939 TIP3     10515    TIP3     OH2      OT      -0.834000       15.9994           0
     70940 TIP3     10515    TIP3     H1       HT       0.417000       1.00800           0
     70941 TIP3     10515    TIP3     H2       HT       0.417000       1.00800           0
     70942 TIP3     10516    TIP3     OH2      OT      -0.834000       15.9994           0
     70943 TIP3     10516    TIP3     H1       HT       0.417000       1.00800           0
     70944 TIP3     10516    TIP3     H2       HT       0.417000       1.00800           0
     70945 TIP3     10517    TIP3     OH2      OT      -0.834000       15.9994           0
     70946 TIP3     10517    TIP3     H1       HT       0.417000       1.00800           0
     70947 TIP3     10517    TIP3     H2       HT       0.417000       1.00800           0
     70948 TIP3     10518    TIP3     OH2      OT      -0.834000       15.9994           0
     70949 TIP3     10518    TIP3     H1       HT       0.417000       1.00800           0
     70950 TIP3     10518    TIP3     H2       HT       0.417000       1.00800           0
     70951 TIP3     10519    TIP3     OH2      OT      -0.834000       15.9994           0
     70952 TIP3     10519    TIP3     H1       HT       0.417000       1.00800           0
     70953 TIP3     10519    TIP3     H2       HT       0.417000       1.00800           0
     70954 TIP3     10520    TIP3     OH2      OT      -0.834000       15.9994           0
     70955 TIP3     10520    TIP3     H1       HT       0.417000       1.00800           0
     70956 TIP3     10520    TIP3     H2       HT       0.417000       1.00800           0
     70957 TIP3     10521    TIP3     OH2      OT      -0.834000       15.9994           0
     70958 TIP3     10521    TIP3     H1       HT       0.417000       1.00800           0
     70959 TIP3     10521    TIP3     H2       HT       0.417000       1.00800           0
     70960 TIP3     10522    TIP3     OH2      OT      -0.834000       15.9994           0
     70961 TIP3     10522    TIP3     H1       HT       0.417000       1.00800           0
     70962 TIP3     10522    TIP3     H2       HT       0.417000       1.00800           0
     70963 TIP3     10523    TIP3     OH2      OT      -0.834000       15.9994           0
     70964 TIP3     10523    TIP3     H1       HT       0.417000       1.00800           0
     70965 TIP3     10523    TIP3     H2       HT       0.417000       1.00800           0
     70966 TIP3     10524    TIP3     OH2      OT      -0.834000       15.9994           0
     70967 TIP3     10524    TIP3     H1       HT       0.417000       1.00800           0
     70968 TIP3     10524    TIP3     H2       HT       0.417000       1.00800           0
     70969 TIP3     10525    TIP3     OH2      OT      -0.834000       15.9994           0
     70970 TIP3     10525    TIP3     H1       HT       0.417000       1.00800           0
     70971 TIP3     10525    TIP3     H2       HT       0.417000       1.00800           0
     70972 TIP3     10526    TIP3     OH2      OT      -0.834000       15.9994           0
     70973 TIP3     10526    TIP3     H1       HT       0.417000       1.00800           0
     70974 TIP3     10526    TIP3     H2       HT       0.417000       1.00800           0
     70975 TIP3     10527    TIP3     OH2      OT      -0.834000       15.9994           0
     70976 TIP3     10527    TIP3     H1       HT       0.417000       1.00800           0
     70977 TIP3     10527    TIP3     H2       HT       0.417000       1.00800           0
     70978 TIP3     10528    TIP3     OH2      OT      -0.834000       15.9994           0
     70979 TIP3     10528    TIP3     H1       HT       0.417000       1.00800           0
     70980 TIP3     10528    TIP3     H2       HT       0.417000       1.00800           0
     70981 TIP3     10529    TIP3     OH2      OT      -0.834000       15.9994           0
     70982 TIP3     10529    TIP3     H1       HT       0.417000       1.00800           0
     70983 TIP3     10529    TIP3     H2       HT       0.417000       1.00800           0
     70984 TIP3     10530    TIP3     OH2      OT      -0.834000       15.9994           0
     70985 TIP3     10530    TIP3     H1       HT       0.417000       1.00800           0
     70986 TIP3     10530    TIP3     H2       HT       0.417000       1.00800           0
     70987 TIP3     10531    TIP3     OH2      OT      -0.834000       15.9994           0
     70988 TIP3     10531    TIP3     H1       HT       0.417000       1.00800           0
     70989 TIP3     10531    TIP3     H2       HT       0.417000       1.00800           0
     70990 TIP3     10532    TIP3     OH2      OT      -0.834000       15.9994           0
     70991 TIP3     10532    TIP3     H1       HT       0.417000       1.00800           0
     70992 TIP3     10532    TIP3     H2       HT       0.417000       1.00800           0
     70993 TIP3     10533    TIP3     OH2      OT      -0.834000       15.9994           0
     70994 TIP3     10533    TIP3     H1       HT       0.417000       1.00800           0
     70995 TIP3     10533    TIP3     H2       HT       0.417000       1.00800           0
     70996 TIP3     10534    TIP3     OH2      OT      -0.834000       15.9994           0
     70997 TIP3     10534    TIP3     H1       HT       0.417000       1.00800           0
     70998 TIP3     10534    TIP3     H2       HT       0.417000       1.00800           0
     70999 TIP3     10535    TIP3     OH2      OT      -0.834000       15.9994           0
     71000 TIP3     10535    TIP3     H1       HT       0.417000       1.00800           0
     71001 TIP3     10535    TIP3     H2       HT       0.417000       1.00800           0
     71002 TIP3     10536    TIP3     OH2      OT      -0.834000       15.9994           0
     71003 TIP3     10536    TIP3     H1       HT       0.417000       1.00800           0
     71004 TIP3     10536    TIP3     H2       HT       0.417000       1.00800           0
     71005 TIP3     10537    TIP3     OH2      OT      -0.834000       15.9994           0
     71006 TIP3     10537    TIP3     H1       HT       0.417000       1.00800           0
     71007 TIP3     10537    TIP3     H2       HT       0.417000       1.00800           0
     71008 TIP3     10538    TIP3     OH2      OT      -0.834000       15.9994           0
     71009 TIP3     10538    TIP3     H1       HT       0.417000       1.00800           0
     71010 TIP3     10538    TIP3     H2       HT       0.417000       1.00800           0
     71011 TIP3     10539    TIP3     OH2      OT      -0.834000       15.9994           0
     71012 TIP3     10539    TIP3     H1       HT       0.417000       1.00800           0
     71013 TIP3     10539    TIP3     H2       HT       0.417000       1.00800           0
     71014 TIP3     10540    TIP3     OH2      OT      -0.834000       15.9994           0
     71015 TIP3     10540    TIP3     H1       HT       0.417000       1.00800           0
     71016 TIP3     10540    TIP3     H2       HT       0.417000       1.00800           0
     71017 TIP3     10541    TIP3     OH2      OT      -0.834000       15.9994           0
     71018 TIP3     10541    TIP3     H1       HT       0.417000       1.00800           0
     71019 TIP3     10541    TIP3     H2       HT       0.417000       1.00800           0
     71020 TIP3     10542    TIP3     OH2      OT      -0.834000       15.9994           0
     71021 TIP3     10542    TIP3     H1       HT       0.417000       1.00800           0
     71022 TIP3     10542    TIP3     H2       HT       0.417000       1.00800           0
     71023 TIP3     10543    TIP3     OH2      OT      -0.834000       15.9994           0
     71024 TIP3     10543    TIP3     H1       HT       0.417000       1.00800           0
     71025 TIP3     10543    TIP3     H2       HT       0.417000       1.00800           0
     71026 TIP3     10544    TIP3     OH2      OT      -0.834000       15.9994           0
     71027 TIP3     10544    TIP3     H1       HT       0.417000       1.00800           0
     71028 TIP3     10544    TIP3     H2       HT       0.417000       1.00800           0
     71029 TIP3     10545    TIP3     OH2      OT      -0.834000       15.9994           0
     71030 TIP3     10545    TIP3     H1       HT       0.417000       1.00800           0
     71031 TIP3     10545    TIP3     H2       HT       0.417000       1.00800           0
     71032 TIP3     10546    TIP3     OH2      OT      -0.834000       15.9994           0
     71033 TIP3     10546    TIP3     H1       HT       0.417000       1.00800           0
     71034 TIP3     10546    TIP3     H2       HT       0.417000       1.00800           0
     71035 TIP3     10547    TIP3     OH2      OT      -0.834000       15.9994           0
     71036 TIP3     10547    TIP3     H1       HT       0.417000       1.00800           0
     71037 TIP3     10547    TIP3     H2       HT       0.417000       1.00800           0
     71038 TIP3     10548    TIP3     OH2      OT      -0.834000       15.9994           0
     71039 TIP3     10548    TIP3     H1       HT       0.417000       1.00800           0
     71040 TIP3     10548    TIP3     H2       HT       0.417000       1.00800           0
     71041 TIP3     10549    TIP3     OH2      OT      -0.834000       15.9994           0
     71042 TIP3     10549    TIP3     H1       HT       0.417000       1.00800           0
     71043 TIP3     10549    TIP3     H2       HT       0.417000       1.00800           0
     71044 TIP3     10550    TIP3     OH2      OT      -0.834000       15.9994           0
     71045 TIP3     10550    TIP3     H1       HT       0.417000       1.00800           0
     71046 TIP3     10550    TIP3     H2       HT       0.417000       1.00800           0
     71047 TIP3     10551    TIP3     OH2      OT      -0.834000       15.9994           0
     71048 TIP3     10551    TIP3     H1       HT       0.417000       1.00800           0
     71049 TIP3     10551    TIP3     H2       HT       0.417000       1.00800           0
     71050 TIP3     10552    TIP3     OH2      OT      -0.834000       15.9994           0
     71051 TIP3     10552    TIP3     H1       HT       0.417000       1.00800           0
     71052 TIP3     10552    TIP3     H2       HT       0.417000       1.00800           0
     71053 TIP3     10553    TIP3     OH2      OT      -0.834000       15.9994           0
     71054 TIP3     10553    TIP3     H1       HT       0.417000       1.00800           0
     71055 TIP3     10553    TIP3     H2       HT       0.417000       1.00800           0
     71056 TIP3     10554    TIP3     OH2      OT      -0.834000       15.9994           0
     71057 TIP3     10554    TIP3     H1       HT       0.417000       1.00800           0
     71058 TIP3     10554    TIP3     H2       HT       0.417000       1.00800           0
     71059 TIP3     10555    TIP3     OH2      OT      -0.834000       15.9994           0
     71060 TIP3     10555    TIP3     H1       HT       0.417000       1.00800           0
     71061 TIP3     10555    TIP3     H2       HT       0.417000       1.00800           0
     71062 TIP3     10556    TIP3     OH2      OT      -0.834000       15.9994           0
     71063 TIP3     10556    TIP3     H1       HT       0.417000       1.00800           0
     71064 TIP3     10556    TIP3     H2       HT       0.417000       1.00800           0
     71065 TIP3     10557    TIP3     OH2      OT      -0.834000       15.9994           0
     71066 TIP3     10557    TIP3     H1       HT       0.417000       1.00800           0
     71067 TIP3     10557    TIP3     H2       HT       0.417000       1.00800           0
     71068 TIP3     10558    TIP3     OH2      OT      -0.834000       15.9994           0
     71069 TIP3     10558    TIP3     H1       HT       0.417000       1.00800           0
     71070 TIP3     10558    TIP3     H2       HT       0.417000       1.00800           0
     71071 TIP3     10559    TIP3     OH2      OT      -0.834000       15.9994           0
     71072 TIP3     10559    TIP3     H1       HT       0.417000       1.00800           0
     71073 TIP3     10559    TIP3     H2       HT       0.417000       1.00800           0
     71074 TIP3     10560    TIP3     OH2      OT      -0.834000       15.9994           0
     71075 TIP3     10560    TIP3     H1       HT       0.417000       1.00800           0
     71076 TIP3     10560    TIP3     H2       HT       0.417000       1.00800           0
     71077 TIP3     10561    TIP3     OH2      OT      -0.834000       15.9994           0
     71078 TIP3     10561    TIP3     H1       HT       0.417000       1.00800           0
     71079 TIP3     10561    TIP3     H2       HT       0.417000       1.00800           0
     71080 TIP3     10562    TIP3     OH2      OT      -0.834000       15.9994           0
     71081 TIP3     10562    TIP3     H1       HT       0.417000       1.00800           0
     71082 TIP3     10562    TIP3     H2       HT       0.417000       1.00800           0
     71083 TIP3     10563    TIP3     OH2      OT      -0.834000       15.9994           0
     71084 TIP3     10563    TIP3     H1       HT       0.417000       1.00800           0
     71085 TIP3     10563    TIP3     H2       HT       0.417000       1.00800           0
     71086 TIP3     10564    TIP3     OH2      OT      -0.834000       15.9994           0
     71087 TIP3     10564    TIP3     H1       HT       0.417000       1.00800           0
     71088 TIP3     10564    TIP3     H2       HT       0.417000       1.00800           0
     71089 TIP3     10565    TIP3     OH2      OT      -0.834000       15.9994           0
     71090 TIP3     10565    TIP3     H1       HT       0.417000       1.00800           0
     71091 TIP3     10565    TIP3     H2       HT       0.417000       1.00800           0
     71092 TIP3     10566    TIP3     OH2      OT      -0.834000       15.9994           0
     71093 TIP3     10566    TIP3     H1       HT       0.417000       1.00800           0
     71094 TIP3     10566    TIP3     H2       HT       0.417000       1.00800           0
     71095 TIP3     10567    TIP3     OH2      OT      -0.834000       15.9994           0
     71096 TIP3     10567    TIP3     H1       HT       0.417000       1.00800           0
     71097 TIP3     10567    TIP3     H2       HT       0.417000       1.00800           0
     71098 TIP3     10568    TIP3     OH2      OT      -0.834000       15.9994           0
     71099 TIP3     10568    TIP3     H1       HT       0.417000       1.00800           0
     71100 TIP3     10568    TIP3     H2       HT       0.417000       1.00800           0
     71101 TIP3     10569    TIP3     OH2      OT      -0.834000       15.9994           0
     71102 TIP3     10569    TIP3     H1       HT       0.417000       1.00800           0
     71103 TIP3     10569    TIP3     H2       HT       0.417000       1.00800           0
     71104 TIP3     10570    TIP3     OH2      OT      -0.834000       15.9994           0
     71105 TIP3     10570    TIP3     H1       HT       0.417000       1.00800           0
     71106 TIP3     10570    TIP3     H2       HT       0.417000       1.00800           0
     71107 TIP3     10571    TIP3     OH2      OT      -0.834000       15.9994           0
     71108 TIP3     10571    TIP3     H1       HT       0.417000       1.00800           0
     71109 TIP3     10571    TIP3     H2       HT       0.417000       1.00800           0
     71110 TIP3     10572    TIP3     OH2      OT      -0.834000       15.9994           0
     71111 TIP3     10572    TIP3     H1       HT       0.417000       1.00800           0
     71112 TIP3     10572    TIP3     H2       HT       0.417000       1.00800           0
     71113 TIP3     10573    TIP3     OH2      OT      -0.834000       15.9994           0
     71114 TIP3     10573    TIP3     H1       HT       0.417000       1.00800           0
     71115 TIP3     10573    TIP3     H2       HT       0.417000       1.00800           0
     71116 TIP3     10574    TIP3     OH2      OT      -0.834000       15.9994           0
     71117 TIP3     10574    TIP3     H1       HT       0.417000       1.00800           0
     71118 TIP3     10574    TIP3     H2       HT       0.417000       1.00800           0
     71119 TIP3     10575    TIP3     OH2      OT      -0.834000       15.9994           0
     71120 TIP3     10575    TIP3     H1       HT       0.417000       1.00800           0
     71121 TIP3     10575    TIP3     H2       HT       0.417000       1.00800           0
     71122 TIP3     10576    TIP3     OH2      OT      -0.834000       15.9994           0
     71123 TIP3     10576    TIP3     H1       HT       0.417000       1.00800           0
     71124 TIP3     10576    TIP3     H2       HT       0.417000       1.00800           0
     71125 TIP3     10577    TIP3     OH2      OT      -0.834000       15.9994           0
     71126 TIP3     10577    TIP3     H1       HT       0.417000       1.00800           0
     71127 TIP3     10577    TIP3     H2       HT       0.417000       1.00800           0
     71128 TIP3     10578    TIP3     OH2      OT      -0.834000       15.9994           0
     71129 TIP3     10578    TIP3     H1       HT       0.417000       1.00800           0
     71130 TIP3     10578    TIP3     H2       HT       0.417000       1.00800           0
     71131 TIP3     10579    TIP3     OH2      OT      -0.834000       15.9994           0
     71132 TIP3     10579    TIP3     H1       HT       0.417000       1.00800           0
     71133 TIP3     10579    TIP3     H2       HT       0.417000       1.00800           0
     71134 TIP3     10580    TIP3     OH2      OT      -0.834000       15.9994           0
     71135 TIP3     10580    TIP3     H1       HT       0.417000       1.00800           0
     71136 TIP3     10580    TIP3     H2       HT       0.417000       1.00800           0
     71137 TIP3     10581    TIP3     OH2      OT      -0.834000       15.9994           0
     71138 TIP3     10581    TIP3     H1       HT       0.417000       1.00800           0
     71139 TIP3     10581    TIP3     H2       HT       0.417000       1.00800           0
     71140 TIP3     10582    TIP3     OH2      OT      -0.834000       15.9994           0
     71141 TIP3     10582    TIP3     H1       HT       0.417000       1.00800           0
     71142 TIP3     10582    TIP3     H2       HT       0.417000       1.00800           0
     71143 TIP3     10583    TIP3     OH2      OT      -0.834000       15.9994           0
     71144 TIP3     10583    TIP3     H1       HT       0.417000       1.00800           0
     71145 TIP3     10583    TIP3     H2       HT       0.417000       1.00800           0
     71146 TIP3     10584    TIP3     OH2      OT      -0.834000       15.9994           0
     71147 TIP3     10584    TIP3     H1       HT       0.417000       1.00800           0
     71148 TIP3     10584    TIP3     H2       HT       0.417000       1.00800           0
     71149 TIP3     10585    TIP3     OH2      OT      -0.834000       15.9994           0
     71150 TIP3     10585    TIP3     H1       HT       0.417000       1.00800           0
     71151 TIP3     10585    TIP3     H2       HT       0.417000       1.00800           0
     71152 TIP3     10586    TIP3     OH2      OT      -0.834000       15.9994           0
     71153 TIP3     10586    TIP3     H1       HT       0.417000       1.00800           0
     71154 TIP3     10586    TIP3     H2       HT       0.417000       1.00800           0
     71155 TIP3     10587    TIP3     OH2      OT      -0.834000       15.9994           0
     71156 TIP3     10587    TIP3     H1       HT       0.417000       1.00800           0
     71157 TIP3     10587    TIP3     H2       HT       0.417000       1.00800           0
     71158 TIP3     10588    TIP3     OH2      OT      -0.834000       15.9994           0
     71159 TIP3     10588    TIP3     H1       HT       0.417000       1.00800           0
     71160 TIP3     10588    TIP3     H2       HT       0.417000       1.00800           0
     71161 TIP3     10589    TIP3     OH2      OT      -0.834000       15.9994           0
     71162 TIP3     10589    TIP3     H1       HT       0.417000       1.00800           0
     71163 TIP3     10589    TIP3     H2       HT       0.417000       1.00800           0
     71164 TIP3     10590    TIP3     OH2      OT      -0.834000       15.9994           0
     71165 TIP3     10590    TIP3     H1       HT       0.417000       1.00800           0
     71166 TIP3     10590    TIP3     H2       HT       0.417000       1.00800           0
     71167 TIP3     10591    TIP3     OH2      OT      -0.834000       15.9994           0
     71168 TIP3     10591    TIP3     H1       HT       0.417000       1.00800           0
     71169 TIP3     10591    TIP3     H2       HT       0.417000       1.00800           0
     71170 TIP3     10592    TIP3     OH2      OT      -0.834000       15.9994           0
     71171 TIP3     10592    TIP3     H1       HT       0.417000       1.00800           0
     71172 TIP3     10592    TIP3     H2       HT       0.417000       1.00800           0
     71173 TIP3     10593    TIP3     OH2      OT      -0.834000       15.9994           0
     71174 TIP3     10593    TIP3     H1       HT       0.417000       1.00800           0
     71175 TIP3     10593    TIP3     H2       HT       0.417000       1.00800           0
     71176 TIP3     10594    TIP3     OH2      OT      -0.834000       15.9994           0
     71177 TIP3     10594    TIP3     H1       HT       0.417000       1.00800           0
     71178 TIP3     10594    TIP3     H2       HT       0.417000       1.00800           0
     71179 TIP3     10595    TIP3     OH2      OT      -0.834000       15.9994           0
     71180 TIP3     10595    TIP3     H1       HT       0.417000       1.00800           0
     71181 TIP3     10595    TIP3     H2       HT       0.417000       1.00800           0
     71182 TIP3     10596    TIP3     OH2      OT      -0.834000       15.9994           0
     71183 TIP3     10596    TIP3     H1       HT       0.417000       1.00800           0
     71184 TIP3     10596    TIP3     H2       HT       0.417000       1.00800           0
     71185 TIP3     10597    TIP3     OH2      OT      -0.834000       15.9994           0
     71186 TIP3     10597    TIP3     H1       HT       0.417000       1.00800           0
     71187 TIP3     10597    TIP3     H2       HT       0.417000       1.00800           0
     71188 TIP3     10598    TIP3     OH2      OT      -0.834000       15.9994           0
     71189 TIP3     10598    TIP3     H1       HT       0.417000       1.00800           0
     71190 TIP3     10598    TIP3     H2       HT       0.417000       1.00800           0
     71191 TIP3     10599    TIP3     OH2      OT      -0.834000       15.9994           0
     71192 TIP3     10599    TIP3     H1       HT       0.417000       1.00800           0
     71193 TIP3     10599    TIP3     H2       HT       0.417000       1.00800           0
     71194 TIP3     10600    TIP3     OH2      OT      -0.834000       15.9994           0
     71195 TIP3     10600    TIP3     H1       HT       0.417000       1.00800           0
     71196 TIP3     10600    TIP3     H2       HT       0.417000       1.00800           0
     71197 TIP3     10601    TIP3     OH2      OT      -0.834000       15.9994           0
     71198 TIP3     10601    TIP3     H1       HT       0.417000       1.00800           0
     71199 TIP3     10601    TIP3     H2       HT       0.417000       1.00800           0
     71200 TIP3     10602    TIP3     OH2      OT      -0.834000       15.9994           0
     71201 TIP3     10602    TIP3     H1       HT       0.417000       1.00800           0
     71202 TIP3     10602    TIP3     H2       HT       0.417000       1.00800           0
     71203 TIP3     10603    TIP3     OH2      OT      -0.834000       15.9994           0
     71204 TIP3     10603    TIP3     H1       HT       0.417000       1.00800           0
     71205 TIP3     10603    TIP3     H2       HT       0.417000       1.00800           0
     71206 TIP3     10604    TIP3     OH2      OT      -0.834000       15.9994           0
     71207 TIP3     10604    TIP3     H1       HT       0.417000       1.00800           0
     71208 TIP3     10604    TIP3     H2       HT       0.417000       1.00800           0
     71209 TIP3     10605    TIP3     OH2      OT      -0.834000       15.9994           0
     71210 TIP3     10605    TIP3     H1       HT       0.417000       1.00800           0
     71211 TIP3     10605    TIP3     H2       HT       0.417000       1.00800           0
     71212 TIP3     10606    TIP3     OH2      OT      -0.834000       15.9994           0
     71213 TIP3     10606    TIP3     H1       HT       0.417000       1.00800           0
     71214 TIP3     10606    TIP3     H2       HT       0.417000       1.00800           0
     71215 TIP3     10607    TIP3     OH2      OT      -0.834000       15.9994           0
     71216 TIP3     10607    TIP3     H1       HT       0.417000       1.00800           0
     71217 TIP3     10607    TIP3     H2       HT       0.417000       1.00800           0
     71218 TIP3     10608    TIP3     OH2      OT      -0.834000       15.9994           0
     71219 TIP3     10608    TIP3     H1       HT       0.417000       1.00800           0
     71220 TIP3     10608    TIP3     H2       HT       0.417000       1.00800           0
     71221 TIP3     10609    TIP3     OH2      OT      -0.834000       15.9994           0
     71222 TIP3     10609    TIP3     H1       HT       0.417000       1.00800           0
     71223 TIP3     10609    TIP3     H2       HT       0.417000       1.00800           0
     71224 TIP3     10610    TIP3     OH2      OT      -0.834000       15.9994           0
     71225 TIP3     10610    TIP3     H1       HT       0.417000       1.00800           0
     71226 TIP3     10610    TIP3     H2       HT       0.417000       1.00800           0
     71227 TIP3     10611    TIP3     OH2      OT      -0.834000       15.9994           0
     71228 TIP3     10611    TIP3     H1       HT       0.417000       1.00800           0
     71229 TIP3     10611    TIP3     H2       HT       0.417000       1.00800           0
     71230 TIP3     10612    TIP3     OH2      OT      -0.834000       15.9994           0
     71231 TIP3     10612    TIP3     H1       HT       0.417000       1.00800           0
     71232 TIP3     10612    TIP3     H2       HT       0.417000       1.00800           0
     71233 TIP3     10613    TIP3     OH2      OT      -0.834000       15.9994           0
     71234 TIP3     10613    TIP3     H1       HT       0.417000       1.00800           0
     71235 TIP3     10613    TIP3     H2       HT       0.417000       1.00800           0
     71236 TIP3     10614    TIP3     OH2      OT      -0.834000       15.9994           0
     71237 TIP3     10614    TIP3     H1       HT       0.417000       1.00800           0
     71238 TIP3     10614    TIP3     H2       HT       0.417000       1.00800           0
     71239 TIP3     10615    TIP3     OH2      OT      -0.834000       15.9994           0
     71240 TIP3     10615    TIP3     H1       HT       0.417000       1.00800           0
     71241 TIP3     10615    TIP3     H2       HT       0.417000       1.00800           0
     71242 TIP3     10616    TIP3     OH2      OT      -0.834000       15.9994           0
     71243 TIP3     10616    TIP3     H1       HT       0.417000       1.00800           0
     71244 TIP3     10616    TIP3     H2       HT       0.417000       1.00800           0
     71245 TIP3     10617    TIP3     OH2      OT      -0.834000       15.9994           0
     71246 TIP3     10617    TIP3     H1       HT       0.417000       1.00800           0
     71247 TIP3     10617    TIP3     H2       HT       0.417000       1.00800           0
     71248 TIP3     10618    TIP3     OH2      OT      -0.834000       15.9994           0
     71249 TIP3     10618    TIP3     H1       HT       0.417000       1.00800           0
     71250 TIP3     10618    TIP3     H2       HT       0.417000       1.00800           0
     71251 TIP3     10619    TIP3     OH2      OT      -0.834000       15.9994           0
     71252 TIP3     10619    TIP3     H1       HT       0.417000       1.00800           0
     71253 TIP3     10619    TIP3     H2       HT       0.417000       1.00800           0
     71254 TIP3     10620    TIP3     OH2      OT      -0.834000       15.9994           0
     71255 TIP3     10620    TIP3     H1       HT       0.417000       1.00800           0
     71256 TIP3     10620    TIP3     H2       HT       0.417000       1.00800           0
     71257 TIP3     10621    TIP3     OH2      OT      -0.834000       15.9994           0
     71258 TIP3     10621    TIP3     H1       HT       0.417000       1.00800           0
     71259 TIP3     10621    TIP3     H2       HT       0.417000       1.00800           0
     71260 TIP3     10622    TIP3     OH2      OT      -0.834000       15.9994           0
     71261 TIP3     10622    TIP3     H1       HT       0.417000       1.00800           0
     71262 TIP3     10622    TIP3     H2       HT       0.417000       1.00800           0
     71263 TIP3     10623    TIP3     OH2      OT      -0.834000       15.9994           0
     71264 TIP3     10623    TIP3     H1       HT       0.417000       1.00800           0
     71265 TIP3     10623    TIP3     H2       HT       0.417000       1.00800           0
     71266 TIP3     10624    TIP3     OH2      OT      -0.834000       15.9994           0
     71267 TIP3     10624    TIP3     H1       HT       0.417000       1.00800           0
     71268 TIP3     10624    TIP3     H2       HT       0.417000       1.00800           0
     71269 TIP3     10625    TIP3     OH2      OT      -0.834000       15.9994           0
     71270 TIP3     10625    TIP3     H1       HT       0.417000       1.00800           0
     71271 TIP3     10625    TIP3     H2       HT       0.417000       1.00800           0
     71272 TIP3     10626    TIP3     OH2      OT      -0.834000       15.9994           0
     71273 TIP3     10626    TIP3     H1       HT       0.417000       1.00800           0
     71274 TIP3     10626    TIP3     H2       HT       0.417000       1.00800           0
     71275 TIP3     10627    TIP3     OH2      OT      -0.834000       15.9994           0
     71276 TIP3     10627    TIP3     H1       HT       0.417000       1.00800           0
     71277 TIP3     10627    TIP3     H2       HT       0.417000       1.00800           0
     71278 TIP3     10628    TIP3     OH2      OT      -0.834000       15.9994           0
     71279 TIP3     10628    TIP3     H1       HT       0.417000       1.00800           0
     71280 TIP3     10628    TIP3     H2       HT       0.417000       1.00800           0
     71281 TIP3     10629    TIP3     OH2      OT      -0.834000       15.9994           0
     71282 TIP3     10629    TIP3     H1       HT       0.417000       1.00800           0
     71283 TIP3     10629    TIP3     H2       HT       0.417000       1.00800           0
     71284 TIP3     10630    TIP3     OH2      OT      -0.834000       15.9994           0
     71285 TIP3     10630    TIP3     H1       HT       0.417000       1.00800           0
     71286 TIP3     10630    TIP3     H2       HT       0.417000       1.00800           0
     71287 TIP3     10631    TIP3     OH2      OT      -0.834000       15.9994           0
     71288 TIP3     10631    TIP3     H1       HT       0.417000       1.00800           0
     71289 TIP3     10631    TIP3     H2       HT       0.417000       1.00800           0
     71290 TIP3     10632    TIP3     OH2      OT      -0.834000       15.9994           0
     71291 TIP3     10632    TIP3     H1       HT       0.417000       1.00800           0
     71292 TIP3     10632    TIP3     H2       HT       0.417000       1.00800           0
     71293 TIP3     10633    TIP3     OH2      OT      -0.834000       15.9994           0
     71294 TIP3     10633    TIP3     H1       HT       0.417000       1.00800           0
     71295 TIP3     10633    TIP3     H2       HT       0.417000       1.00800           0
     71296 TIP3     10634    TIP3     OH2      OT      -0.834000       15.9994           0
     71297 TIP3     10634    TIP3     H1       HT       0.417000       1.00800           0
     71298 TIP3     10634    TIP3     H2       HT       0.417000       1.00800           0
     71299 TIP3     10635    TIP3     OH2      OT      -0.834000       15.9994           0
     71300 TIP3     10635    TIP3     H1       HT       0.417000       1.00800           0
     71301 TIP3     10635    TIP3     H2       HT       0.417000       1.00800           0
     71302 TIP3     10636    TIP3     OH2      OT      -0.834000       15.9994           0
     71303 TIP3     10636    TIP3     H1       HT       0.417000       1.00800           0
     71304 TIP3     10636    TIP3     H2       HT       0.417000       1.00800           0
     71305 TIP3     10637    TIP3     OH2      OT      -0.834000       15.9994           0
     71306 TIP3     10637    TIP3     H1       HT       0.417000       1.00800           0
     71307 TIP3     10637    TIP3     H2       HT       0.417000       1.00800           0
     71308 TIP3     10638    TIP3     OH2      OT      -0.834000       15.9994           0
     71309 TIP3     10638    TIP3     H1       HT       0.417000       1.00800           0
     71310 TIP3     10638    TIP3     H2       HT       0.417000       1.00800           0
     71311 TIP3     10639    TIP3     OH2      OT      -0.834000       15.9994           0
     71312 TIP3     10639    TIP3     H1       HT       0.417000       1.00800           0
     71313 TIP3     10639    TIP3     H2       HT       0.417000       1.00800           0
     71314 TIP3     10640    TIP3     OH2      OT      -0.834000       15.9994           0
     71315 TIP3     10640    TIP3     H1       HT       0.417000       1.00800           0
     71316 TIP3     10640    TIP3     H2       HT       0.417000       1.00800           0
     71317 TIP3     10641    TIP3     OH2      OT      -0.834000       15.9994           0
     71318 TIP3     10641    TIP3     H1       HT       0.417000       1.00800           0
     71319 TIP3     10641    TIP3     H2       HT       0.417000       1.00800           0
     71320 TIP3     10642    TIP3     OH2      OT      -0.834000       15.9994           0
     71321 TIP3     10642    TIP3     H1       HT       0.417000       1.00800           0
     71322 TIP3     10642    TIP3     H2       HT       0.417000       1.00800           0
     71323 TIP3     10643    TIP3     OH2      OT      -0.834000       15.9994           0
     71324 TIP3     10643    TIP3     H1       HT       0.417000       1.00800           0
     71325 TIP3     10643    TIP3     H2       HT       0.417000       1.00800           0
     71326 TIP3     10644    TIP3     OH2      OT      -0.834000       15.9994           0
     71327 TIP3     10644    TIP3     H1       HT       0.417000       1.00800           0
     71328 TIP3     10644    TIP3     H2       HT       0.417000       1.00800           0
     71329 TIP3     10645    TIP3     OH2      OT      -0.834000       15.9994           0
     71330 TIP3     10645    TIP3     H1       HT       0.417000       1.00800           0
     71331 TIP3     10645    TIP3     H2       HT       0.417000       1.00800           0
     71332 TIP3     10646    TIP3     OH2      OT      -0.834000       15.9994           0
     71333 TIP3     10646    TIP3     H1       HT       0.417000       1.00800           0
     71334 TIP3     10646    TIP3     H2       HT       0.417000       1.00800           0
     71335 TIP3     10647    TIP3     OH2      OT      -0.834000       15.9994           0
     71336 TIP3     10647    TIP3     H1       HT       0.417000       1.00800           0
     71337 TIP3     10647    TIP3     H2       HT       0.417000       1.00800           0
     71338 TIP3     10648    TIP3     OH2      OT      -0.834000       15.9994           0
     71339 TIP3     10648    TIP3     H1       HT       0.417000       1.00800           0
     71340 TIP3     10648    TIP3     H2       HT       0.417000       1.00800           0
     71341 TIP3     10649    TIP3     OH2      OT      -0.834000       15.9994           0
     71342 TIP3     10649    TIP3     H1       HT       0.417000       1.00800           0
     71343 TIP3     10649    TIP3     H2       HT       0.417000       1.00800           0
     71344 TIP3     10650    TIP3     OH2      OT      -0.834000       15.9994           0
     71345 TIP3     10650    TIP3     H1       HT       0.417000       1.00800           0
     71346 TIP3     10650    TIP3     H2       HT       0.417000       1.00800           0
     71347 TIP3     10651    TIP3     OH2      OT      -0.834000       15.9994           0
     71348 TIP3     10651    TIP3     H1       HT       0.417000       1.00800           0
     71349 TIP3     10651    TIP3     H2       HT       0.417000       1.00800           0
     71350 TIP3     10652    TIP3     OH2      OT      -0.834000       15.9994           0
     71351 TIP3     10652    TIP3     H1       HT       0.417000       1.00800           0
     71352 TIP3     10652    TIP3     H2       HT       0.417000       1.00800           0
     71353 TIP3     10653    TIP3     OH2      OT      -0.834000       15.9994           0
     71354 TIP3     10653    TIP3     H1       HT       0.417000       1.00800           0
     71355 TIP3     10653    TIP3     H2       HT       0.417000       1.00800           0
     71356 TIP3     10654    TIP3     OH2      OT      -0.834000       15.9994           0
     71357 TIP3     10654    TIP3     H1       HT       0.417000       1.00800           0
     71358 TIP3     10654    TIP3     H2       HT       0.417000       1.00800           0
     71359 TIP3     10655    TIP3     OH2      OT      -0.834000       15.9994           0
     71360 TIP3     10655    TIP3     H1       HT       0.417000       1.00800           0
     71361 TIP3     10655    TIP3     H2       HT       0.417000       1.00800           0
     71362 TIP3     10656    TIP3     OH2      OT      -0.834000       15.9994           0
     71363 TIP3     10656    TIP3     H1       HT       0.417000       1.00800           0
     71364 TIP3     10656    TIP3     H2       HT       0.417000       1.00800           0
     71365 TIP3     10657    TIP3     OH2      OT      -0.834000       15.9994           0
     71366 TIP3     10657    TIP3     H1       HT       0.417000       1.00800           0
     71367 TIP3     10657    TIP3     H2       HT       0.417000       1.00800           0
     71368 TIP3     10658    TIP3     OH2      OT      -0.834000       15.9994           0
     71369 TIP3     10658    TIP3     H1       HT       0.417000       1.00800           0
     71370 TIP3     10658    TIP3     H2       HT       0.417000       1.00800           0
     71371 TIP3     10659    TIP3     OH2      OT      -0.834000       15.9994           0
     71372 TIP3     10659    TIP3     H1       HT       0.417000       1.00800           0
     71373 TIP3     10659    TIP3     H2       HT       0.417000       1.00800           0
     71374 TIP3     10660    TIP3     OH2      OT      -0.834000       15.9994           0
     71375 TIP3     10660    TIP3     H1       HT       0.417000       1.00800           0
     71376 TIP3     10660    TIP3     H2       HT       0.417000       1.00800           0
     71377 TIP3     10661    TIP3     OH2      OT      -0.834000       15.9994           0
     71378 TIP3     10661    TIP3     H1       HT       0.417000       1.00800           0
     71379 TIP3     10661    TIP3     H2       HT       0.417000       1.00800           0
     71380 TIP3     10662    TIP3     OH2      OT      -0.834000       15.9994           0
     71381 TIP3     10662    TIP3     H1       HT       0.417000       1.00800           0
     71382 TIP3     10662    TIP3     H2       HT       0.417000       1.00800           0
     71383 TIP3     10663    TIP3     OH2      OT      -0.834000       15.9994           0
     71384 TIP3     10663    TIP3     H1       HT       0.417000       1.00800           0
     71385 TIP3     10663    TIP3     H2       HT       0.417000       1.00800           0
     71386 TIP3     10664    TIP3     OH2      OT      -0.834000       15.9994           0
     71387 TIP3     10664    TIP3     H1       HT       0.417000       1.00800           0
     71388 TIP3     10664    TIP3     H2       HT       0.417000       1.00800           0
     71389 TIP3     10665    TIP3     OH2      OT      -0.834000       15.9994           0
     71390 TIP3     10665    TIP3     H1       HT       0.417000       1.00800           0
     71391 TIP3     10665    TIP3     H2       HT       0.417000       1.00800           0
     71392 TIP3     10666    TIP3     OH2      OT      -0.834000       15.9994           0
     71393 TIP3     10666    TIP3     H1       HT       0.417000       1.00800           0
     71394 TIP3     10666    TIP3     H2       HT       0.417000       1.00800           0
     71395 TIP3     10667    TIP3     OH2      OT      -0.834000       15.9994           0
     71396 TIP3     10667    TIP3     H1       HT       0.417000       1.00800           0
     71397 TIP3     10667    TIP3     H2       HT       0.417000       1.00800           0
     71398 TIP3     10668    TIP3     OH2      OT      -0.834000       15.9994           0
     71399 TIP3     10668    TIP3     H1       HT       0.417000       1.00800           0
     71400 TIP3     10668    TIP3     H2       HT       0.417000       1.00800           0
     71401 TIP3     10669    TIP3     OH2      OT      -0.834000       15.9994           0
     71402 TIP3     10669    TIP3     H1       HT       0.417000       1.00800           0
     71403 TIP3     10669    TIP3     H2       HT       0.417000       1.00800           0
     71404 TIP3     10670    TIP3     OH2      OT      -0.834000       15.9994           0
     71405 TIP3     10670    TIP3     H1       HT       0.417000       1.00800           0
     71406 TIP3     10670    TIP3     H2       HT       0.417000       1.00800           0
     71407 TIP3     10671    TIP3     OH2      OT      -0.834000       15.9994           0
     71408 TIP3     10671    TIP3     H1       HT       0.417000       1.00800           0
     71409 TIP3     10671    TIP3     H2       HT       0.417000       1.00800           0
     71410 TIP3     10672    TIP3     OH2      OT      -0.834000       15.9994           0
     71411 TIP3     10672    TIP3     H1       HT       0.417000       1.00800           0
     71412 TIP3     10672    TIP3     H2       HT       0.417000       1.00800           0
     71413 TIP3     10673    TIP3     OH2      OT      -0.834000       15.9994           0
     71414 TIP3     10673    TIP3     H1       HT       0.417000       1.00800           0
     71415 TIP3     10673    TIP3     H2       HT       0.417000       1.00800           0
     71416 TIP3     10674    TIP3     OH2      OT      -0.834000       15.9994           0
     71417 TIP3     10674    TIP3     H1       HT       0.417000       1.00800           0
     71418 TIP3     10674    TIP3     H2       HT       0.417000       1.00800           0
     71419 TIP3     10675    TIP3     OH2      OT      -0.834000       15.9994           0
     71420 TIP3     10675    TIP3     H1       HT       0.417000       1.00800           0
     71421 TIP3     10675    TIP3     H2       HT       0.417000       1.00800           0
     71422 TIP3     10676    TIP3     OH2      OT      -0.834000       15.9994           0
     71423 TIP3     10676    TIP3     H1       HT       0.417000       1.00800           0
     71424 TIP3     10676    TIP3     H2       HT       0.417000       1.00800           0
     71425 TIP3     10677    TIP3     OH2      OT      -0.834000       15.9994           0
     71426 TIP3     10677    TIP3     H1       HT       0.417000       1.00800           0
     71427 TIP3     10677    TIP3     H2       HT       0.417000       1.00800           0
     71428 TIP3     10678    TIP3     OH2      OT      -0.834000       15.9994           0
     71429 TIP3     10678    TIP3     H1       HT       0.417000       1.00800           0
     71430 TIP3     10678    TIP3     H2       HT       0.417000       1.00800           0
     71431 TIP3     10679    TIP3     OH2      OT      -0.834000       15.9994           0
     71432 TIP3     10679    TIP3     H1       HT       0.417000       1.00800           0
     71433 TIP3     10679    TIP3     H2       HT       0.417000       1.00800           0
     71434 TIP3     10680    TIP3     OH2      OT      -0.834000       15.9994           0
     71435 TIP3     10680    TIP3     H1       HT       0.417000       1.00800           0
     71436 TIP3     10680    TIP3     H2       HT       0.417000       1.00800           0
     71437 TIP3     10681    TIP3     OH2      OT      -0.834000       15.9994           0
     71438 TIP3     10681    TIP3     H1       HT       0.417000       1.00800           0
     71439 TIP3     10681    TIP3     H2       HT       0.417000       1.00800           0
     71440 TIP3     10682    TIP3     OH2      OT      -0.834000       15.9994           0
     71441 TIP3     10682    TIP3     H1       HT       0.417000       1.00800           0
     71442 TIP3     10682    TIP3     H2       HT       0.417000       1.00800           0
     71443 TIP3     10683    TIP3     OH2      OT      -0.834000       15.9994           0
     71444 TIP3     10683    TIP3     H1       HT       0.417000       1.00800           0
     71445 TIP3     10683    TIP3     H2       HT       0.417000       1.00800           0
     71446 TIP3     10684    TIP3     OH2      OT      -0.834000       15.9994           0
     71447 TIP3     10684    TIP3     H1       HT       0.417000       1.00800           0
     71448 TIP3     10684    TIP3     H2       HT       0.417000       1.00800           0
     71449 TIP3     10685    TIP3     OH2      OT      -0.834000       15.9994           0
     71450 TIP3     10685    TIP3     H1       HT       0.417000       1.00800           0
     71451 TIP3     10685    TIP3     H2       HT       0.417000       1.00800           0
     71452 TIP3     10686    TIP3     OH2      OT      -0.834000       15.9994           0
     71453 TIP3     10686    TIP3     H1       HT       0.417000       1.00800           0
     71454 TIP3     10686    TIP3     H2       HT       0.417000       1.00800           0
     71455 TIP3     10687    TIP3     OH2      OT      -0.834000       15.9994           0
     71456 TIP3     10687    TIP3     H1       HT       0.417000       1.00800           0
     71457 TIP3     10687    TIP3     H2       HT       0.417000       1.00800           0
     71458 TIP3     10688    TIP3     OH2      OT      -0.834000       15.9994           0
     71459 TIP3     10688    TIP3     H1       HT       0.417000       1.00800           0
     71460 TIP3     10688    TIP3     H2       HT       0.417000       1.00800           0
     71461 TIP3     10689    TIP3     OH2      OT      -0.834000       15.9994           0
     71462 TIP3     10689    TIP3     H1       HT       0.417000       1.00800           0
     71463 TIP3     10689    TIP3     H2       HT       0.417000       1.00800           0
     71464 TIP3     10690    TIP3     OH2      OT      -0.834000       15.9994           0
     71465 TIP3     10690    TIP3     H1       HT       0.417000       1.00800           0
     71466 TIP3     10690    TIP3     H2       HT       0.417000       1.00800           0
     71467 TIP3     10691    TIP3     OH2      OT      -0.834000       15.9994           0
     71468 TIP3     10691    TIP3     H1       HT       0.417000       1.00800           0
     71469 TIP3     10691    TIP3     H2       HT       0.417000       1.00800           0
     71470 TIP3     10692    TIP3     OH2      OT      -0.834000       15.9994           0
     71471 TIP3     10692    TIP3     H1       HT       0.417000       1.00800           0
     71472 TIP3     10692    TIP3     H2       HT       0.417000       1.00800           0
     71473 TIP3     10693    TIP3     OH2      OT      -0.834000       15.9994           0
     71474 TIP3     10693    TIP3     H1       HT       0.417000       1.00800           0
     71475 TIP3     10693    TIP3     H2       HT       0.417000       1.00800           0
     71476 TIP3     10694    TIP3     OH2      OT      -0.834000       15.9994           0
     71477 TIP3     10694    TIP3     H1       HT       0.417000       1.00800           0
     71478 TIP3     10694    TIP3     H2       HT       0.417000       1.00800           0
     71479 TIP3     10695    TIP3     OH2      OT      -0.834000       15.9994           0
     71480 TIP3     10695    TIP3     H1       HT       0.417000       1.00800           0
     71481 TIP3     10695    TIP3     H2       HT       0.417000       1.00800           0
     71482 TIP3     10696    TIP3     OH2      OT      -0.834000       15.9994           0
     71483 TIP3     10696    TIP3     H1       HT       0.417000       1.00800           0
     71484 TIP3     10696    TIP3     H2       HT       0.417000       1.00800           0
     71485 TIP3     10697    TIP3     OH2      OT      -0.834000       15.9994           0
     71486 TIP3     10697    TIP3     H1       HT       0.417000       1.00800           0
     71487 TIP3     10697    TIP3     H2       HT       0.417000       1.00800           0
     71488 TIP3     10698    TIP3     OH2      OT      -0.834000       15.9994           0
     71489 TIP3     10698    TIP3     H1       HT       0.417000       1.00800           0
     71490 TIP3     10698    TIP3     H2       HT       0.417000       1.00800           0
     71491 TIP3     10699    TIP3     OH2      OT      -0.834000       15.9994           0
     71492 TIP3     10699    TIP3     H1       HT       0.417000       1.00800           0
     71493 TIP3     10699    TIP3     H2       HT       0.417000       1.00800           0
     71494 TIP3     10700    TIP3     OH2      OT      -0.834000       15.9994           0
     71495 TIP3     10700    TIP3     H1       HT       0.417000       1.00800           0
     71496 TIP3     10700    TIP3     H2       HT       0.417000       1.00800           0
     71497 TIP3     10701    TIP3     OH2      OT      -0.834000       15.9994           0
     71498 TIP3     10701    TIP3     H1       HT       0.417000       1.00800           0
     71499 TIP3     10701    TIP3     H2       HT       0.417000       1.00800           0
     71500 TIP3     10702    TIP3     OH2      OT      -0.834000       15.9994           0
     71501 TIP3     10702    TIP3     H1       HT       0.417000       1.00800           0
     71502 TIP3     10702    TIP3     H2       HT       0.417000       1.00800           0
     71503 TIP3     10703    TIP3     OH2      OT      -0.834000       15.9994           0
     71504 TIP3     10703    TIP3     H1       HT       0.417000       1.00800           0
     71505 TIP3     10703    TIP3     H2       HT       0.417000       1.00800           0
     71506 TIP3     10704    TIP3     OH2      OT      -0.834000       15.9994           0
     71507 TIP3     10704    TIP3     H1       HT       0.417000       1.00800           0
     71508 TIP3     10704    TIP3     H2       HT       0.417000       1.00800           0
     71509 TIP3     10705    TIP3     OH2      OT      -0.834000       15.9994           0
     71510 TIP3     10705    TIP3     H1       HT       0.417000       1.00800           0
     71511 TIP3     10705    TIP3     H2       HT       0.417000       1.00800           0
     71512 TIP3     10706    TIP3     OH2      OT      -0.834000       15.9994           0
     71513 TIP3     10706    TIP3     H1       HT       0.417000       1.00800           0
     71514 TIP3     10706    TIP3     H2       HT       0.417000       1.00800           0
     71515 TIP3     10707    TIP3     OH2      OT      -0.834000       15.9994           0
     71516 TIP3     10707    TIP3     H1       HT       0.417000       1.00800           0
     71517 TIP3     10707    TIP3     H2       HT       0.417000       1.00800           0
     71518 TIP3     10708    TIP3     OH2      OT      -0.834000       15.9994           0
     71519 TIP3     10708    TIP3     H1       HT       0.417000       1.00800           0
     71520 TIP3     10708    TIP3     H2       HT       0.417000       1.00800           0
     71521 TIP3     10709    TIP3     OH2      OT      -0.834000       15.9994           0
     71522 TIP3     10709    TIP3     H1       HT       0.417000       1.00800           0
     71523 TIP3     10709    TIP3     H2       HT       0.417000       1.00800           0
     71524 TIP3     10710    TIP3     OH2      OT      -0.834000       15.9994           0
     71525 TIP3     10710    TIP3     H1       HT       0.417000       1.00800           0
     71526 TIP3     10710    TIP3     H2       HT       0.417000       1.00800           0
     71527 TIP3     10711    TIP3     OH2      OT      -0.834000       15.9994           0
     71528 TIP3     10711    TIP3     H1       HT       0.417000       1.00800           0
     71529 TIP3     10711    TIP3     H2       HT       0.417000       1.00800           0
     71530 TIP3     10712    TIP3     OH2      OT      -0.834000       15.9994           0
     71531 TIP3     10712    TIP3     H1       HT       0.417000       1.00800           0
     71532 TIP3     10712    TIP3     H2       HT       0.417000       1.00800           0
     71533 TIP3     10713    TIP3     OH2      OT      -0.834000       15.9994           0
     71534 TIP3     10713    TIP3     H1       HT       0.417000       1.00800           0
     71535 TIP3     10713    TIP3     H2       HT       0.417000       1.00800           0
     71536 TIP3     10714    TIP3     OH2      OT      -0.834000       15.9994           0
     71537 TIP3     10714    TIP3     H1       HT       0.417000       1.00800           0
     71538 TIP3     10714    TIP3     H2       HT       0.417000       1.00800           0
     71539 TIP3     10715    TIP3     OH2      OT      -0.834000       15.9994           0
     71540 TIP3     10715    TIP3     H1       HT       0.417000       1.00800           0
     71541 TIP3     10715    TIP3     H2       HT       0.417000       1.00800           0
     71542 TIP3     10716    TIP3     OH2      OT      -0.834000       15.9994           0
     71543 TIP3     10716    TIP3     H1       HT       0.417000       1.00800           0
     71544 TIP3     10716    TIP3     H2       HT       0.417000       1.00800           0
     71545 TIP3     10717    TIP3     OH2      OT      -0.834000       15.9994           0
     71546 TIP3     10717    TIP3     H1       HT       0.417000       1.00800           0
     71547 TIP3     10717    TIP3     H2       HT       0.417000       1.00800           0
     71548 TIP3     10718    TIP3     OH2      OT      -0.834000       15.9994           0
     71549 TIP3     10718    TIP3     H1       HT       0.417000       1.00800           0
     71550 TIP3     10718    TIP3     H2       HT       0.417000       1.00800           0
     71551 TIP3     10719    TIP3     OH2      OT      -0.834000       15.9994           0
     71552 TIP3     10719    TIP3     H1       HT       0.417000       1.00800           0
     71553 TIP3     10719    TIP3     H2       HT       0.417000       1.00800           0
     71554 TIP3     10720    TIP3     OH2      OT      -0.834000       15.9994           0
     71555 TIP3     10720    TIP3     H1       HT       0.417000       1.00800           0
     71556 TIP3     10720    TIP3     H2       HT       0.417000       1.00800           0
     71557 TIP3     10721    TIP3     OH2      OT      -0.834000       15.9994           0
     71558 TIP3     10721    TIP3     H1       HT       0.417000       1.00800           0
     71559 TIP3     10721    TIP3     H2       HT       0.417000       1.00800           0
     71560 TIP3     10722    TIP3     OH2      OT      -0.834000       15.9994           0
     71561 TIP3     10722    TIP3     H1       HT       0.417000       1.00800           0
     71562 TIP3     10722    TIP3     H2       HT       0.417000       1.00800           0
     71563 TIP3     10723    TIP3     OH2      OT      -0.834000       15.9994           0
     71564 TIP3     10723    TIP3     H1       HT       0.417000       1.00800           0
     71565 TIP3     10723    TIP3     H2       HT       0.417000       1.00800           0
     71566 TIP3     10724    TIP3     OH2      OT      -0.834000       15.9994           0
     71567 TIP3     10724    TIP3     H1       HT       0.417000       1.00800           0
     71568 TIP3     10724    TIP3     H2       HT       0.417000       1.00800           0
     71569 TIP3     10725    TIP3     OH2      OT      -0.834000       15.9994           0
     71570 TIP3     10725    TIP3     H1       HT       0.417000       1.00800           0
     71571 TIP3     10725    TIP3     H2       HT       0.417000       1.00800           0
     71572 TIP3     10726    TIP3     OH2      OT      -0.834000       15.9994           0
     71573 TIP3     10726    TIP3     H1       HT       0.417000       1.00800           0
     71574 TIP3     10726    TIP3     H2       HT       0.417000       1.00800           0
     71575 TIP3     10727    TIP3     OH2      OT      -0.834000       15.9994           0
     71576 TIP3     10727    TIP3     H1       HT       0.417000       1.00800           0
     71577 TIP3     10727    TIP3     H2       HT       0.417000       1.00800           0
     71578 TIP3     10728    TIP3     OH2      OT      -0.834000       15.9994           0
     71579 TIP3     10728    TIP3     H1       HT       0.417000       1.00800           0
     71580 TIP3     10728    TIP3     H2       HT       0.417000       1.00800           0
     71581 TIP3     10729    TIP3     OH2      OT      -0.834000       15.9994           0
     71582 TIP3     10729    TIP3     H1       HT       0.417000       1.00800           0
     71583 TIP3     10729    TIP3     H2       HT       0.417000       1.00800           0
     71584 TIP3     10730    TIP3     OH2      OT      -0.834000       15.9994           0
     71585 TIP3     10730    TIP3     H1       HT       0.417000       1.00800           0
     71586 TIP3     10730    TIP3     H2       HT       0.417000       1.00800           0
     71587 TIP3     10731    TIP3     OH2      OT      -0.834000       15.9994           0
     71588 TIP3     10731    TIP3     H1       HT       0.417000       1.00800           0
     71589 TIP3     10731    TIP3     H2       HT       0.417000       1.00800           0
     71590 TIP3     10732    TIP3     OH2      OT      -0.834000       15.9994           0
     71591 TIP3     10732    TIP3     H1       HT       0.417000       1.00800           0
     71592 TIP3     10732    TIP3     H2       HT       0.417000       1.00800           0
     71593 TIP3     10733    TIP3     OH2      OT      -0.834000       15.9994           0
     71594 TIP3     10733    TIP3     H1       HT       0.417000       1.00800           0
     71595 TIP3     10733    TIP3     H2       HT       0.417000       1.00800           0
     71596 TIP3     10734    TIP3     OH2      OT      -0.834000       15.9994           0
     71597 TIP3     10734    TIP3     H1       HT       0.417000       1.00800           0
     71598 TIP3     10734    TIP3     H2       HT       0.417000       1.00800           0
     71599 TIP3     10735    TIP3     OH2      OT      -0.834000       15.9994           0
     71600 TIP3     10735    TIP3     H1       HT       0.417000       1.00800           0
     71601 TIP3     10735    TIP3     H2       HT       0.417000       1.00800           0
     71602 TIP3     10736    TIP3     OH2      OT      -0.834000       15.9994           0
     71603 TIP3     10736    TIP3     H1       HT       0.417000       1.00800           0
     71604 TIP3     10736    TIP3     H2       HT       0.417000       1.00800           0
     71605 TIP3     10737    TIP3     OH2      OT      -0.834000       15.9994           0
     71606 TIP3     10737    TIP3     H1       HT       0.417000       1.00800           0
     71607 TIP3     10737    TIP3     H2       HT       0.417000       1.00800           0
     71608 TIP3     10738    TIP3     OH2      OT      -0.834000       15.9994           0
     71609 TIP3     10738    TIP3     H1       HT       0.417000       1.00800           0
     71610 TIP3     10738    TIP3     H2       HT       0.417000       1.00800           0
     71611 TIP3     10739    TIP3     OH2      OT      -0.834000       15.9994           0
     71612 TIP3     10739    TIP3     H1       HT       0.417000       1.00800           0
     71613 TIP3     10739    TIP3     H2       HT       0.417000       1.00800           0
     71614 TIP3     10740    TIP3     OH2      OT      -0.834000       15.9994           0
     71615 TIP3     10740    TIP3     H1       HT       0.417000       1.00800           0
     71616 TIP3     10740    TIP3     H2       HT       0.417000       1.00800           0
     71617 TIP3     10741    TIP3     OH2      OT      -0.834000       15.9994           0
     71618 TIP3     10741    TIP3     H1       HT       0.417000       1.00800           0
     71619 TIP3     10741    TIP3     H2       HT       0.417000       1.00800           0
     71620 TIP3     10742    TIP3     OH2      OT      -0.834000       15.9994           0
     71621 TIP3     10742    TIP3     H1       HT       0.417000       1.00800           0
     71622 TIP3     10742    TIP3     H2       HT       0.417000       1.00800           0
     71623 TIP3     10743    TIP3     OH2      OT      -0.834000       15.9994           0
     71624 TIP3     10743    TIP3     H1       HT       0.417000       1.00800           0
     71625 TIP3     10743    TIP3     H2       HT       0.417000       1.00800           0
     71626 TIP3     10744    TIP3     OH2      OT      -0.834000       15.9994           0
     71627 TIP3     10744    TIP3     H1       HT       0.417000       1.00800           0
     71628 TIP3     10744    TIP3     H2       HT       0.417000       1.00800           0
     71629 TIP3     10745    TIP3     OH2      OT      -0.834000       15.9994           0
     71630 TIP3     10745    TIP3     H1       HT       0.417000       1.00800           0
     71631 TIP3     10745    TIP3     H2       HT       0.417000       1.00800           0
     71632 TIP3     10746    TIP3     OH2      OT      -0.834000       15.9994           0
     71633 TIP3     10746    TIP3     H1       HT       0.417000       1.00800           0
     71634 TIP3     10746    TIP3     H2       HT       0.417000       1.00800           0
     71635 TIP3     10747    TIP3     OH2      OT      -0.834000       15.9994           0
     71636 TIP3     10747    TIP3     H1       HT       0.417000       1.00800           0
     71637 TIP3     10747    TIP3     H2       HT       0.417000       1.00800           0
     71638 TIP3     10748    TIP3     OH2      OT      -0.834000       15.9994           0
     71639 TIP3     10748    TIP3     H1       HT       0.417000       1.00800           0
     71640 TIP3     10748    TIP3     H2       HT       0.417000       1.00800           0
     71641 TIP3     10749    TIP3     OH2      OT      -0.834000       15.9994           0
     71642 TIP3     10749    TIP3     H1       HT       0.417000       1.00800           0
     71643 TIP3     10749    TIP3     H2       HT       0.417000       1.00800           0
     71644 TIP3     10750    TIP3     OH2      OT      -0.834000       15.9994           0
     71645 TIP3     10750    TIP3     H1       HT       0.417000       1.00800           0
     71646 TIP3     10750    TIP3     H2       HT       0.417000       1.00800           0
     71647 TIP3     10751    TIP3     OH2      OT      -0.834000       15.9994           0
     71648 TIP3     10751    TIP3     H1       HT       0.417000       1.00800           0
     71649 TIP3     10751    TIP3     H2       HT       0.417000       1.00800           0
     71650 TIP3     10752    TIP3     OH2      OT      -0.834000       15.9994           0
     71651 TIP3     10752    TIP3     H1       HT       0.417000       1.00800           0
     71652 TIP3     10752    TIP3     H2       HT       0.417000       1.00800           0
     71653 TIP3     10753    TIP3     OH2      OT      -0.834000       15.9994           0
     71654 TIP3     10753    TIP3     H1       HT       0.417000       1.00800           0
     71655 TIP3     10753    TIP3     H2       HT       0.417000       1.00800           0
     71656 TIP3     10754    TIP3     OH2      OT      -0.834000       15.9994           0
     71657 TIP3     10754    TIP3     H1       HT       0.417000       1.00800           0
     71658 TIP3     10754    TIP3     H2       HT       0.417000       1.00800           0
     71659 TIP3     10755    TIP3     OH2      OT      -0.834000       15.9994           0
     71660 TIP3     10755    TIP3     H1       HT       0.417000       1.00800           0
     71661 TIP3     10755    TIP3     H2       HT       0.417000       1.00800           0
     71662 TIP3     10756    TIP3     OH2      OT      -0.834000       15.9994           0
     71663 TIP3     10756    TIP3     H1       HT       0.417000       1.00800           0
     71664 TIP3     10756    TIP3     H2       HT       0.417000       1.00800           0
     71665 TIP3     10757    TIP3     OH2      OT      -0.834000       15.9994           0
     71666 TIP3     10757    TIP3     H1       HT       0.417000       1.00800           0
     71667 TIP3     10757    TIP3     H2       HT       0.417000       1.00800           0
     71668 TIP3     10758    TIP3     OH2      OT      -0.834000       15.9994           0
     71669 TIP3     10758    TIP3     H1       HT       0.417000       1.00800           0
     71670 TIP3     10758    TIP3     H2       HT       0.417000       1.00800           0
     71671 TIP3     10759    TIP3     OH2      OT      -0.834000       15.9994           0
     71672 TIP3     10759    TIP3     H1       HT       0.417000       1.00800           0
     71673 TIP3     10759    TIP3     H2       HT       0.417000       1.00800           0
     71674 TIP3     10760    TIP3     OH2      OT      -0.834000       15.9994           0
     71675 TIP3     10760    TIP3     H1       HT       0.417000       1.00800           0
     71676 TIP3     10760    TIP3     H2       HT       0.417000       1.00800           0
     71677 TIP3     10761    TIP3     OH2      OT      -0.834000       15.9994           0
     71678 TIP3     10761    TIP3     H1       HT       0.417000       1.00800           0
     71679 TIP3     10761    TIP3     H2       HT       0.417000       1.00800           0
     71680 TIP3     10762    TIP3     OH2      OT      -0.834000       15.9994           0
     71681 TIP3     10762    TIP3     H1       HT       0.417000       1.00800           0
     71682 TIP3     10762    TIP3     H2       HT       0.417000       1.00800           0
     71683 TIP3     10763    TIP3     OH2      OT      -0.834000       15.9994           0
     71684 TIP3     10763    TIP3     H1       HT       0.417000       1.00800           0
     71685 TIP3     10763    TIP3     H2       HT       0.417000       1.00800           0
     71686 TIP3     10764    TIP3     OH2      OT      -0.834000       15.9994           0
     71687 TIP3     10764    TIP3     H1       HT       0.417000       1.00800           0
     71688 TIP3     10764    TIP3     H2       HT       0.417000       1.00800           0
     71689 TIP3     10765    TIP3     OH2      OT      -0.834000       15.9994           0
     71690 TIP3     10765    TIP3     H1       HT       0.417000       1.00800           0
     71691 TIP3     10765    TIP3     H2       HT       0.417000       1.00800           0
     71692 TIP3     10766    TIP3     OH2      OT      -0.834000       15.9994           0
     71693 TIP3     10766    TIP3     H1       HT       0.417000       1.00800           0
     71694 TIP3     10766    TIP3     H2       HT       0.417000       1.00800           0
     71695 TIP3     10767    TIP3     OH2      OT      -0.834000       15.9994           0
     71696 TIP3     10767    TIP3     H1       HT       0.417000       1.00800           0
     71697 TIP3     10767    TIP3     H2       HT       0.417000       1.00800           0
     71698 TIP3     10768    TIP3     OH2      OT      -0.834000       15.9994           0
     71699 TIP3     10768    TIP3     H1       HT       0.417000       1.00800           0
     71700 TIP3     10768    TIP3     H2       HT       0.417000       1.00800           0
     71701 TIP3     10769    TIP3     OH2      OT      -0.834000       15.9994           0
     71702 TIP3     10769    TIP3     H1       HT       0.417000       1.00800           0
     71703 TIP3     10769    TIP3     H2       HT       0.417000       1.00800           0
     71704 TIP3     10770    TIP3     OH2      OT      -0.834000       15.9994           0
     71705 TIP3     10770    TIP3     H1       HT       0.417000       1.00800           0
     71706 TIP3     10770    TIP3     H2       HT       0.417000       1.00800           0
     71707 TIP3     10771    TIP3     OH2      OT      -0.834000       15.9994           0
     71708 TIP3     10771    TIP3     H1       HT       0.417000       1.00800           0
     71709 TIP3     10771    TIP3     H2       HT       0.417000       1.00800           0
     71710 TIP3     10772    TIP3     OH2      OT      -0.834000       15.9994           0
     71711 TIP3     10772    TIP3     H1       HT       0.417000       1.00800           0
     71712 TIP3     10772    TIP3     H2       HT       0.417000       1.00800           0
     71713 TIP3     10773    TIP3     OH2      OT      -0.834000       15.9994           0
     71714 TIP3     10773    TIP3     H1       HT       0.417000       1.00800           0
     71715 TIP3     10773    TIP3     H2       HT       0.417000       1.00800           0
     71716 TIP3     10774    TIP3     OH2      OT      -0.834000       15.9994           0
     71717 TIP3     10774    TIP3     H1       HT       0.417000       1.00800           0
     71718 TIP3     10774    TIP3     H2       HT       0.417000       1.00800           0
     71719 TIP3     10775    TIP3     OH2      OT      -0.834000       15.9994           0
     71720 TIP3     10775    TIP3     H1       HT       0.417000       1.00800           0
     71721 TIP3     10775    TIP3     H2       HT       0.417000       1.00800           0
     71722 TIP3     10776    TIP3     OH2      OT      -0.834000       15.9994           0
     71723 TIP3     10776    TIP3     H1       HT       0.417000       1.00800           0
     71724 TIP3     10776    TIP3     H2       HT       0.417000       1.00800           0
     71725 TIP3     10777    TIP3     OH2      OT      -0.834000       15.9994           0
     71726 TIP3     10777    TIP3     H1       HT       0.417000       1.00800           0
     71727 TIP3     10777    TIP3     H2       HT       0.417000       1.00800           0
     71728 TIP3     10778    TIP3     OH2      OT      -0.834000       15.9994           0
     71729 TIP3     10778    TIP3     H1       HT       0.417000       1.00800           0
     71730 TIP3     10778    TIP3     H2       HT       0.417000       1.00800           0
     71731 TIP3     10779    TIP3     OH2      OT      -0.834000       15.9994           0
     71732 TIP3     10779    TIP3     H1       HT       0.417000       1.00800           0
     71733 TIP3     10779    TIP3     H2       HT       0.417000       1.00800           0
     71734 TIP3     10780    TIP3     OH2      OT      -0.834000       15.9994           0
     71735 TIP3     10780    TIP3     H1       HT       0.417000       1.00800           0
     71736 TIP3     10780    TIP3     H2       HT       0.417000       1.00800           0
     71737 TIP3     10781    TIP3     OH2      OT      -0.834000       15.9994           0
     71738 TIP3     10781    TIP3     H1       HT       0.417000       1.00800           0
     71739 TIP3     10781    TIP3     H2       HT       0.417000       1.00800           0
     71740 TIP3     10782    TIP3     OH2      OT      -0.834000       15.9994           0
     71741 TIP3     10782    TIP3     H1       HT       0.417000       1.00800           0
     71742 TIP3     10782    TIP3     H2       HT       0.417000       1.00800           0
     71743 TIP3     10783    TIP3     OH2      OT      -0.834000       15.9994           0
     71744 TIP3     10783    TIP3     H1       HT       0.417000       1.00800           0
     71745 TIP3     10783    TIP3     H2       HT       0.417000       1.00800           0
     71746 TIP3     10784    TIP3     OH2      OT      -0.834000       15.9994           0
     71747 TIP3     10784    TIP3     H1       HT       0.417000       1.00800           0
     71748 TIP3     10784    TIP3     H2       HT       0.417000       1.00800           0
     71749 TIP3     10785    TIP3     OH2      OT      -0.834000       15.9994           0
     71750 TIP3     10785    TIP3     H1       HT       0.417000       1.00800           0
     71751 TIP3     10785    TIP3     H2       HT       0.417000       1.00800           0
     71752 TIP3     10786    TIP3     OH2      OT      -0.834000       15.9994           0
     71753 TIP3     10786    TIP3     H1       HT       0.417000       1.00800           0
     71754 TIP3     10786    TIP3     H2       HT       0.417000       1.00800           0
     71755 TIP3     10787    TIP3     OH2      OT      -0.834000       15.9994           0
     71756 TIP3     10787    TIP3     H1       HT       0.417000       1.00800           0
     71757 TIP3     10787    TIP3     H2       HT       0.417000       1.00800           0
     71758 TIP3     10788    TIP3     OH2      OT      -0.834000       15.9994           0
     71759 TIP3     10788    TIP3     H1       HT       0.417000       1.00800           0
     71760 TIP3     10788    TIP3     H2       HT       0.417000       1.00800           0
     71761 TIP3     10789    TIP3     OH2      OT      -0.834000       15.9994           0
     71762 TIP3     10789    TIP3     H1       HT       0.417000       1.00800           0
     71763 TIP3     10789    TIP3     H2       HT       0.417000       1.00800           0
     71764 TIP3     10790    TIP3     OH2      OT      -0.834000       15.9994           0
     71765 TIP3     10790    TIP3     H1       HT       0.417000       1.00800           0
     71766 TIP3     10790    TIP3     H2       HT       0.417000       1.00800           0
     71767 TIP3     10791    TIP3     OH2      OT      -0.834000       15.9994           0
     71768 TIP3     10791    TIP3     H1       HT       0.417000       1.00800           0
     71769 TIP3     10791    TIP3     H2       HT       0.417000       1.00800           0
     71770 TIP3     10792    TIP3     OH2      OT      -0.834000       15.9994           0
     71771 TIP3     10792    TIP3     H1       HT       0.417000       1.00800           0
     71772 TIP3     10792    TIP3     H2       HT       0.417000       1.00800           0
     71773 TIP3     10793    TIP3     OH2      OT      -0.834000       15.9994           0
     71774 TIP3     10793    TIP3     H1       HT       0.417000       1.00800           0
     71775 TIP3     10793    TIP3     H2       HT       0.417000       1.00800           0
     71776 TIP3     10794    TIP3     OH2      OT      -0.834000       15.9994           0
     71777 TIP3     10794    TIP3     H1       HT       0.417000       1.00800           0
     71778 TIP3     10794    TIP3     H2       HT       0.417000       1.00800           0
     71779 TIP3     10795    TIP3     OH2      OT      -0.834000       15.9994           0
     71780 TIP3     10795    TIP3     H1       HT       0.417000       1.00800           0
     71781 TIP3     10795    TIP3     H2       HT       0.417000       1.00800           0
     71782 TIP3     10796    TIP3     OH2      OT      -0.834000       15.9994           0
     71783 TIP3     10796    TIP3     H1       HT       0.417000       1.00800           0
     71784 TIP3     10796    TIP3     H2       HT       0.417000       1.00800           0
     71785 TIP3     10797    TIP3     OH2      OT      -0.834000       15.9994           0
     71786 TIP3     10797    TIP3     H1       HT       0.417000       1.00800           0
     71787 TIP3     10797    TIP3     H2       HT       0.417000       1.00800           0
     71788 TIP3     10798    TIP3     OH2      OT      -0.834000       15.9994           0
     71789 TIP3     10798    TIP3     H1       HT       0.417000       1.00800           0
     71790 TIP3     10798    TIP3     H2       HT       0.417000       1.00800           0
     71791 TIP3     10799    TIP3     OH2      OT      -0.834000       15.9994           0
     71792 TIP3     10799    TIP3     H1       HT       0.417000       1.00800           0
     71793 TIP3     10799    TIP3     H2       HT       0.417000       1.00800           0
     71794 TIP3     10800    TIP3     OH2      OT      -0.834000       15.9994           0
     71795 TIP3     10800    TIP3     H1       HT       0.417000       1.00800           0
     71796 TIP3     10800    TIP3     H2       HT       0.417000       1.00800           0
     71797 TIP3     10801    TIP3     OH2      OT      -0.834000       15.9994           0
     71798 TIP3     10801    TIP3     H1       HT       0.417000       1.00800           0
     71799 TIP3     10801    TIP3     H2       HT       0.417000       1.00800           0
     71800 TIP3     10802    TIP3     OH2      OT      -0.834000       15.9994           0
     71801 TIP3     10802    TIP3     H1       HT       0.417000       1.00800           0
     71802 TIP3     10802    TIP3     H2       HT       0.417000       1.00800           0
     71803 TIP3     10803    TIP3     OH2      OT      -0.834000       15.9994           0
     71804 TIP3     10803    TIP3     H1       HT       0.417000       1.00800           0
     71805 TIP3     10803    TIP3     H2       HT       0.417000       1.00800           0
     71806 TIP3     10804    TIP3     OH2      OT      -0.834000       15.9994           0
     71807 TIP3     10804    TIP3     H1       HT       0.417000       1.00800           0
     71808 TIP3     10804    TIP3     H2       HT       0.417000       1.00800           0
     71809 TIP3     10805    TIP3     OH2      OT      -0.834000       15.9994           0
     71810 TIP3     10805    TIP3     H1       HT       0.417000       1.00800           0
     71811 TIP3     10805    TIP3     H2       HT       0.417000       1.00800           0
     71812 TIP3     10806    TIP3     OH2      OT      -0.834000       15.9994           0
     71813 TIP3     10806    TIP3     H1       HT       0.417000       1.00800           0
     71814 TIP3     10806    TIP3     H2       HT       0.417000       1.00800           0
     71815 TIP3     10807    TIP3     OH2      OT      -0.834000       15.9994           0
     71816 TIP3     10807    TIP3     H1       HT       0.417000       1.00800           0
     71817 TIP3     10807    TIP3     H2       HT       0.417000       1.00800           0
     71818 TIP3     10808    TIP3     OH2      OT      -0.834000       15.9994           0
     71819 TIP3     10808    TIP3     H1       HT       0.417000       1.00800           0
     71820 TIP3     10808    TIP3     H2       HT       0.417000       1.00800           0
     71821 TIP3     10809    TIP3     OH2      OT      -0.834000       15.9994           0
     71822 TIP3     10809    TIP3     H1       HT       0.417000       1.00800           0
     71823 TIP3     10809    TIP3     H2       HT       0.417000       1.00800           0
     71824 TIP3     10810    TIP3     OH2      OT      -0.834000       15.9994           0
     71825 TIP3     10810    TIP3     H1       HT       0.417000       1.00800           0
     71826 TIP3     10810    TIP3     H2       HT       0.417000       1.00800           0
     71827 TIP3     10811    TIP3     OH2      OT      -0.834000       15.9994           0
     71828 TIP3     10811    TIP3     H1       HT       0.417000       1.00800           0
     71829 TIP3     10811    TIP3     H2       HT       0.417000       1.00800           0
     71830 TIP3     10812    TIP3     OH2      OT      -0.834000       15.9994           0
     71831 TIP3     10812    TIP3     H1       HT       0.417000       1.00800           0
     71832 TIP3     10812    TIP3     H2       HT       0.417000       1.00800           0
     71833 TIP3     10813    TIP3     OH2      OT      -0.834000       15.9994           0
     71834 TIP3     10813    TIP3     H1       HT       0.417000       1.00800           0
     71835 TIP3     10813    TIP3     H2       HT       0.417000       1.00800           0
     71836 TIP3     10814    TIP3     OH2      OT      -0.834000       15.9994           0
     71837 TIP3     10814    TIP3     H1       HT       0.417000       1.00800           0
     71838 TIP3     10814    TIP3     H2       HT       0.417000       1.00800           0
     71839 TIP3     10815    TIP3     OH2      OT      -0.834000       15.9994           0
     71840 TIP3     10815    TIP3     H1       HT       0.417000       1.00800           0
     71841 TIP3     10815    TIP3     H2       HT       0.417000       1.00800           0
     71842 TIP3     10816    TIP3     OH2      OT      -0.834000       15.9994           0
     71843 TIP3     10816    TIP3     H1       HT       0.417000       1.00800           0
     71844 TIP3     10816    TIP3     H2       HT       0.417000       1.00800           0
     71845 TIP3     10817    TIP3     OH2      OT      -0.834000       15.9994           0
     71846 TIP3     10817    TIP3     H1       HT       0.417000       1.00800           0
     71847 TIP3     10817    TIP3     H2       HT       0.417000       1.00800           0
     71848 TIP3     10818    TIP3     OH2      OT      -0.834000       15.9994           0
     71849 TIP3     10818    TIP3     H1       HT       0.417000       1.00800           0
     71850 TIP3     10818    TIP3     H2       HT       0.417000       1.00800           0
     71851 TIP3     10819    TIP3     OH2      OT      -0.834000       15.9994           0
     71852 TIP3     10819    TIP3     H1       HT       0.417000       1.00800           0
     71853 TIP3     10819    TIP3     H2       HT       0.417000       1.00800           0
     71854 TIP3     10820    TIP3     OH2      OT      -0.834000       15.9994           0
     71855 TIP3     10820    TIP3     H1       HT       0.417000       1.00800           0
     71856 TIP3     10820    TIP3     H2       HT       0.417000       1.00800           0
     71857 TIP3     10821    TIP3     OH2      OT      -0.834000       15.9994           0
     71858 TIP3     10821    TIP3     H1       HT       0.417000       1.00800           0
     71859 TIP3     10821    TIP3     H2       HT       0.417000       1.00800           0
     71860 TIP3     10822    TIP3     OH2      OT      -0.834000       15.9994           0
     71861 TIP3     10822    TIP3     H1       HT       0.417000       1.00800           0
     71862 TIP3     10822    TIP3     H2       HT       0.417000       1.00800           0
     71863 TIP3     10823    TIP3     OH2      OT      -0.834000       15.9994           0
     71864 TIP3     10823    TIP3     H1       HT       0.417000       1.00800           0
     71865 TIP3     10823    TIP3     H2       HT       0.417000       1.00800           0
     71866 TIP3     10824    TIP3     OH2      OT      -0.834000       15.9994           0
     71867 TIP3     10824    TIP3     H1       HT       0.417000       1.00800           0
     71868 TIP3     10824    TIP3     H2       HT       0.417000       1.00800           0
     71869 TIP3     10825    TIP3     OH2      OT      -0.834000       15.9994           0
     71870 TIP3     10825    TIP3     H1       HT       0.417000       1.00800           0
     71871 TIP3     10825    TIP3     H2       HT       0.417000       1.00800           0
     71872 TIP3     10826    TIP3     OH2      OT      -0.834000       15.9994           0
     71873 TIP3     10826    TIP3     H1       HT       0.417000       1.00800           0
     71874 TIP3     10826    TIP3     H2       HT       0.417000       1.00800           0
     71875 TIP3     10827    TIP3     OH2      OT      -0.834000       15.9994           0
     71876 TIP3     10827    TIP3     H1       HT       0.417000       1.00800           0
     71877 TIP3     10827    TIP3     H2       HT       0.417000       1.00800           0
     71878 TIP3     10828    TIP3     OH2      OT      -0.834000       15.9994           0
     71879 TIP3     10828    TIP3     H1       HT       0.417000       1.00800           0
     71880 TIP3     10828    TIP3     H2       HT       0.417000       1.00800           0
     71881 TIP3     10829    TIP3     OH2      OT      -0.834000       15.9994           0
     71882 TIP3     10829    TIP3     H1       HT       0.417000       1.00800           0
     71883 TIP3     10829    TIP3     H2       HT       0.417000       1.00800           0
     71884 TIP3     10830    TIP3     OH2      OT      -0.834000       15.9994           0
     71885 TIP3     10830    TIP3     H1       HT       0.417000       1.00800           0
     71886 TIP3     10830    TIP3     H2       HT       0.417000       1.00800           0
     71887 TIP3     10831    TIP3     OH2      OT      -0.834000       15.9994           0
     71888 TIP3     10831    TIP3     H1       HT       0.417000       1.00800           0
     71889 TIP3     10831    TIP3     H2       HT       0.417000       1.00800           0
     71890 TIP3     10832    TIP3     OH2      OT      -0.834000       15.9994           0
     71891 TIP3     10832    TIP3     H1       HT       0.417000       1.00800           0
     71892 TIP3     10832    TIP3     H2       HT       0.417000       1.00800           0
     71893 TIP3     10833    TIP3     OH2      OT      -0.834000       15.9994           0
     71894 TIP3     10833    TIP3     H1       HT       0.417000       1.00800           0
     71895 TIP3     10833    TIP3     H2       HT       0.417000       1.00800           0
     71896 TIP3     10834    TIP3     OH2      OT      -0.834000       15.9994           0
     71897 TIP3     10834    TIP3     H1       HT       0.417000       1.00800           0
     71898 TIP3     10834    TIP3     H2       HT       0.417000       1.00800           0
     71899 TIP3     10835    TIP3     OH2      OT      -0.834000       15.9994           0
     71900 TIP3     10835    TIP3     H1       HT       0.417000       1.00800           0
     71901 TIP3     10835    TIP3     H2       HT       0.417000       1.00800           0
     71902 TIP3     10836    TIP3     OH2      OT      -0.834000       15.9994           0
     71903 TIP3     10836    TIP3     H1       HT       0.417000       1.00800           0
     71904 TIP3     10836    TIP3     H2       HT       0.417000       1.00800           0
     71905 TIP3     10837    TIP3     OH2      OT      -0.834000       15.9994           0
     71906 TIP3     10837    TIP3     H1       HT       0.417000       1.00800           0
     71907 TIP3     10837    TIP3     H2       HT       0.417000       1.00800           0
     71908 TIP3     10838    TIP3     OH2      OT      -0.834000       15.9994           0
     71909 TIP3     10838    TIP3     H1       HT       0.417000       1.00800           0
     71910 TIP3     10838    TIP3     H2       HT       0.417000       1.00800           0
     71911 TIP3     10839    TIP3     OH2      OT      -0.834000       15.9994           0
     71912 TIP3     10839    TIP3     H1       HT       0.417000       1.00800           0
     71913 TIP3     10839    TIP3     H2       HT       0.417000       1.00800           0
     71914 TIP3     10840    TIP3     OH2      OT      -0.834000       15.9994           0
     71915 TIP3     10840    TIP3     H1       HT       0.417000       1.00800           0
     71916 TIP3     10840    TIP3     H2       HT       0.417000       1.00800           0
     71917 TIP3     10841    TIP3     OH2      OT      -0.834000       15.9994           0
     71918 TIP3     10841    TIP3     H1       HT       0.417000       1.00800           0
     71919 TIP3     10841    TIP3     H2       HT       0.417000       1.00800           0
     71920 TIP3     10842    TIP3     OH2      OT      -0.834000       15.9994           0
     71921 TIP3     10842    TIP3     H1       HT       0.417000       1.00800           0
     71922 TIP3     10842    TIP3     H2       HT       0.417000       1.00800           0
     71923 TIP3     10843    TIP3     OH2      OT      -0.834000       15.9994           0
     71924 TIP3     10843    TIP3     H1       HT       0.417000       1.00800           0
     71925 TIP3     10843    TIP3     H2       HT       0.417000       1.00800           0
     71926 TIP3     10844    TIP3     OH2      OT      -0.834000       15.9994           0
     71927 TIP3     10844    TIP3     H1       HT       0.417000       1.00800           0
     71928 TIP3     10844    TIP3     H2       HT       0.417000       1.00800           0
     71929 TIP3     10845    TIP3     OH2      OT      -0.834000       15.9994           0
     71930 TIP3     10845    TIP3     H1       HT       0.417000       1.00800           0
     71931 TIP3     10845    TIP3     H2       HT       0.417000       1.00800           0
     71932 TIP3     10846    TIP3     OH2      OT      -0.834000       15.9994           0
     71933 TIP3     10846    TIP3     H1       HT       0.417000       1.00800           0
     71934 TIP3     10846    TIP3     H2       HT       0.417000       1.00800           0
     71935 TIP3     10847    TIP3     OH2      OT      -0.834000       15.9994           0
     71936 TIP3     10847    TIP3     H1       HT       0.417000       1.00800           0
     71937 TIP3     10847    TIP3     H2       HT       0.417000       1.00800           0
     71938 TIP3     10848    TIP3     OH2      OT      -0.834000       15.9994           0
     71939 TIP3     10848    TIP3     H1       HT       0.417000       1.00800           0
     71940 TIP3     10848    TIP3     H2       HT       0.417000       1.00800           0
     71941 TIP3     10849    TIP3     OH2      OT      -0.834000       15.9994           0
     71942 TIP3     10849    TIP3     H1       HT       0.417000       1.00800           0
     71943 TIP3     10849    TIP3     H2       HT       0.417000       1.00800           0
     71944 TIP3     10850    TIP3     OH2      OT      -0.834000       15.9994           0
     71945 TIP3     10850    TIP3     H1       HT       0.417000       1.00800           0
     71946 TIP3     10850    TIP3     H2       HT       0.417000       1.00800           0
     71947 TIP3     10851    TIP3     OH2      OT      -0.834000       15.9994           0
     71948 TIP3     10851    TIP3     H1       HT       0.417000       1.00800           0
     71949 TIP3     10851    TIP3     H2       HT       0.417000       1.00800           0
     71950 TIP3     10852    TIP3     OH2      OT      -0.834000       15.9994           0
     71951 TIP3     10852    TIP3     H1       HT       0.417000       1.00800           0
     71952 TIP3     10852    TIP3     H2       HT       0.417000       1.00800           0
     71953 TIP3     10853    TIP3     OH2      OT      -0.834000       15.9994           0
     71954 TIP3     10853    TIP3     H1       HT       0.417000       1.00800           0
     71955 TIP3     10853    TIP3     H2       HT       0.417000       1.00800           0
     71956 TIP3     10854    TIP3     OH2      OT      -0.834000       15.9994           0
     71957 TIP3     10854    TIP3     H1       HT       0.417000       1.00800           0
     71958 TIP3     10854    TIP3     H2       HT       0.417000       1.00800           0
     71959 TIP3     10855    TIP3     OH2      OT      -0.834000       15.9994           0
     71960 TIP3     10855    TIP3     H1       HT       0.417000       1.00800           0
     71961 TIP3     10855    TIP3     H2       HT       0.417000       1.00800           0
     71962 TIP3     10856    TIP3     OH2      OT      -0.834000       15.9994           0
     71963 TIP3     10856    TIP3     H1       HT       0.417000       1.00800           0
     71964 TIP3     10856    TIP3     H2       HT       0.417000       1.00800           0
     71965 TIP3     10857    TIP3     OH2      OT      -0.834000       15.9994           0
     71966 TIP3     10857    TIP3     H1       HT       0.417000       1.00800           0
     71967 TIP3     10857    TIP3     H2       HT       0.417000       1.00800           0
     71968 TIP3     10858    TIP3     OH2      OT      -0.834000       15.9994           0
     71969 TIP3     10858    TIP3     H1       HT       0.417000       1.00800           0
     71970 TIP3     10858    TIP3     H2       HT       0.417000       1.00800           0
     71971 TIP3     10859    TIP3     OH2      OT      -0.834000       15.9994           0
     71972 TIP3     10859    TIP3     H1       HT       0.417000       1.00800           0
     71973 TIP3     10859    TIP3     H2       HT       0.417000       1.00800           0
     71974 TIP3     10860    TIP3     OH2      OT      -0.834000       15.9994           0
     71975 TIP3     10860    TIP3     H1       HT       0.417000       1.00800           0
     71976 TIP3     10860    TIP3     H2       HT       0.417000       1.00800           0
     71977 TIP3     10861    TIP3     OH2      OT      -0.834000       15.9994           0
     71978 TIP3     10861    TIP3     H1       HT       0.417000       1.00800           0
     71979 TIP3     10861    TIP3     H2       HT       0.417000       1.00800           0
     71980 TIP3     10862    TIP3     OH2      OT      -0.834000       15.9994           0
     71981 TIP3     10862    TIP3     H1       HT       0.417000       1.00800           0
     71982 TIP3     10862    TIP3     H2       HT       0.417000       1.00800           0
     71983 TIP3     10863    TIP3     OH2      OT      -0.834000       15.9994           0
     71984 TIP3     10863    TIP3     H1       HT       0.417000       1.00800           0
     71985 TIP3     10863    TIP3     H2       HT       0.417000       1.00800           0
     71986 TIP3     10864    TIP3     OH2      OT      -0.834000       15.9994           0
     71987 TIP3     10864    TIP3     H1       HT       0.417000       1.00800           0
     71988 TIP3     10864    TIP3     H2       HT       0.417000       1.00800           0
     71989 TIP3     10865    TIP3     OH2      OT      -0.834000       15.9994           0
     71990 TIP3     10865    TIP3     H1       HT       0.417000       1.00800           0
     71991 TIP3     10865    TIP3     H2       HT       0.417000       1.00800           0
     71992 TIP3     10866    TIP3     OH2      OT      -0.834000       15.9994           0
     71993 TIP3     10866    TIP3     H1       HT       0.417000       1.00800           0
     71994 TIP3     10866    TIP3     H2       HT       0.417000       1.00800           0
     71995 TIP3     10867    TIP3     OH2      OT      -0.834000       15.9994           0
     71996 TIP3     10867    TIP3     H1       HT       0.417000       1.00800           0
     71997 TIP3     10867    TIP3     H2       HT       0.417000       1.00800           0
     71998 TIP3     10868    TIP3     OH2      OT      -0.834000       15.9994           0
     71999 TIP3     10868    TIP3     H1       HT       0.417000       1.00800           0
     72000 TIP3     10868    TIP3     H2       HT       0.417000       1.00800           0
     72001 TIP3     10869    TIP3     OH2      OT      -0.834000       15.9994           0
     72002 TIP3     10869    TIP3     H1       HT       0.417000       1.00800           0
     72003 TIP3     10869    TIP3     H2       HT       0.417000       1.00800           0
     72004 TIP3     10870    TIP3     OH2      OT      -0.834000       15.9994           0
     72005 TIP3     10870    TIP3     H1       HT       0.417000       1.00800           0
     72006 TIP3     10870    TIP3     H2       HT       0.417000       1.00800           0
     72007 TIP3     10871    TIP3     OH2      OT      -0.834000       15.9994           0
     72008 TIP3     10871    TIP3     H1       HT       0.417000       1.00800           0
     72009 TIP3     10871    TIP3     H2       HT       0.417000       1.00800           0
     72010 TIP3     10872    TIP3     OH2      OT      -0.834000       15.9994           0
     72011 TIP3     10872    TIP3     H1       HT       0.417000       1.00800           0
     72012 TIP3     10872    TIP3     H2       HT       0.417000       1.00800           0
     72013 TIP3     10873    TIP3     OH2      OT      -0.834000       15.9994           0
     72014 TIP3     10873    TIP3     H1       HT       0.417000       1.00800           0
     72015 TIP3     10873    TIP3     H2       HT       0.417000       1.00800           0
     72016 TIP3     10874    TIP3     OH2      OT      -0.834000       15.9994           0
     72017 TIP3     10874    TIP3     H1       HT       0.417000       1.00800           0
     72018 TIP3     10874    TIP3     H2       HT       0.417000       1.00800           0
     72019 TIP3     10875    TIP3     OH2      OT      -0.834000       15.9994           0
     72020 TIP3     10875    TIP3     H1       HT       0.417000       1.00800           0
     72021 TIP3     10875    TIP3     H2       HT       0.417000       1.00800           0
     72022 TIP3     10876    TIP3     OH2      OT      -0.834000       15.9994           0
     72023 TIP3     10876    TIP3     H1       HT       0.417000       1.00800           0
     72024 TIP3     10876    TIP3     H2       HT       0.417000       1.00800           0
     72025 TIP3     10877    TIP3     OH2      OT      -0.834000       15.9994           0
     72026 TIP3     10877    TIP3     H1       HT       0.417000       1.00800           0
     72027 TIP3     10877    TIP3     H2       HT       0.417000       1.00800           0
     72028 TIP3     10878    TIP3     OH2      OT      -0.834000       15.9994           0
     72029 TIP3     10878    TIP3     H1       HT       0.417000       1.00800           0
     72030 TIP3     10878    TIP3     H2       HT       0.417000       1.00800           0
     72031 TIP3     10879    TIP3     OH2      OT      -0.834000       15.9994           0
     72032 TIP3     10879    TIP3     H1       HT       0.417000       1.00800           0
     72033 TIP3     10879    TIP3     H2       HT       0.417000       1.00800           0
     72034 TIP3     10880    TIP3     OH2      OT      -0.834000       15.9994           0
     72035 TIP3     10880    TIP3     H1       HT       0.417000       1.00800           0
     72036 TIP3     10880    TIP3     H2       HT       0.417000       1.00800           0
     72037 TIP3     10881    TIP3     OH2      OT      -0.834000       15.9994           0
     72038 TIP3     10881    TIP3     H1       HT       0.417000       1.00800           0
     72039 TIP3     10881    TIP3     H2       HT       0.417000       1.00800           0
     72040 TIP3     10882    TIP3     OH2      OT      -0.834000       15.9994           0
     72041 TIP3     10882    TIP3     H1       HT       0.417000       1.00800           0
     72042 TIP3     10882    TIP3     H2       HT       0.417000       1.00800           0
     72043 TIP3     10883    TIP3     OH2      OT      -0.834000       15.9994           0
     72044 TIP3     10883    TIP3     H1       HT       0.417000       1.00800           0
     72045 TIP3     10883    TIP3     H2       HT       0.417000       1.00800           0
     72046 TIP3     10884    TIP3     OH2      OT      -0.834000       15.9994           0
     72047 TIP3     10884    TIP3     H1       HT       0.417000       1.00800           0
     72048 TIP3     10884    TIP3     H2       HT       0.417000       1.00800           0
     72049 TIP3     10885    TIP3     OH2      OT      -0.834000       15.9994           0
     72050 TIP3     10885    TIP3     H1       HT       0.417000       1.00800           0
     72051 TIP3     10885    TIP3     H2       HT       0.417000       1.00800           0
     72052 TIP3     10886    TIP3     OH2      OT      -0.834000       15.9994           0
     72053 TIP3     10886    TIP3     H1       HT       0.417000       1.00800           0
     72054 TIP3     10886    TIP3     H2       HT       0.417000       1.00800           0
     72055 TIP3     10887    TIP3     OH2      OT      -0.834000       15.9994           0
     72056 TIP3     10887    TIP3     H1       HT       0.417000       1.00800           0
     72057 TIP3     10887    TIP3     H2       HT       0.417000       1.00800           0
     72058 TIP3     10888    TIP3     OH2      OT      -0.834000       15.9994           0
     72059 TIP3     10888    TIP3     H1       HT       0.417000       1.00800           0
     72060 TIP3     10888    TIP3     H2       HT       0.417000       1.00800           0
     72061 TIP3     10889    TIP3     OH2      OT      -0.834000       15.9994           0
     72062 TIP3     10889    TIP3     H1       HT       0.417000       1.00800           0
     72063 TIP3     10889    TIP3     H2       HT       0.417000       1.00800           0
     72064 TIP3     10890    TIP3     OH2      OT      -0.834000       15.9994           0
     72065 TIP3     10890    TIP3     H1       HT       0.417000       1.00800           0
     72066 TIP3     10890    TIP3     H2       HT       0.417000       1.00800           0
     72067 TIP3     10891    TIP3     OH2      OT      -0.834000       15.9994           0
     72068 TIP3     10891    TIP3     H1       HT       0.417000       1.00800           0
     72069 TIP3     10891    TIP3     H2       HT       0.417000       1.00800           0
     72070 TIP3     10892    TIP3     OH2      OT      -0.834000       15.9994           0
     72071 TIP3     10892    TIP3     H1       HT       0.417000       1.00800           0
     72072 TIP3     10892    TIP3     H2       HT       0.417000       1.00800           0
     72073 TIP3     10893    TIP3     OH2      OT      -0.834000       15.9994           0
     72074 TIP3     10893    TIP3     H1       HT       0.417000       1.00800           0
     72075 TIP3     10893    TIP3     H2       HT       0.417000       1.00800           0
     72076 TIP3     10894    TIP3     OH2      OT      -0.834000       15.9994           0
     72077 TIP3     10894    TIP3     H1       HT       0.417000       1.00800           0
     72078 TIP3     10894    TIP3     H2       HT       0.417000       1.00800           0
     72079 TIP3     10895    TIP3     OH2      OT      -0.834000       15.9994           0
     72080 TIP3     10895    TIP3     H1       HT       0.417000       1.00800           0
     72081 TIP3     10895    TIP3     H2       HT       0.417000       1.00800           0
     72082 TIP3     10896    TIP3     OH2      OT      -0.834000       15.9994           0
     72083 TIP3     10896    TIP3     H1       HT       0.417000       1.00800           0
     72084 TIP3     10896    TIP3     H2       HT       0.417000       1.00800           0
     72085 TIP3     10897    TIP3     OH2      OT      -0.834000       15.9994           0
     72086 TIP3     10897    TIP3     H1       HT       0.417000       1.00800           0
     72087 TIP3     10897    TIP3     H2       HT       0.417000       1.00800           0
     72088 TIP3     10898    TIP3     OH2      OT      -0.834000       15.9994           0
     72089 TIP3     10898    TIP3     H1       HT       0.417000       1.00800           0
     72090 TIP3     10898    TIP3     H2       HT       0.417000       1.00800           0
     72091 TIP3     10899    TIP3     OH2      OT      -0.834000       15.9994           0
     72092 TIP3     10899    TIP3     H1       HT       0.417000       1.00800           0
     72093 TIP3     10899    TIP3     H2       HT       0.417000       1.00800           0
     72094 TIP3     10900    TIP3     OH2      OT      -0.834000       15.9994           0
     72095 TIP3     10900    TIP3     H1       HT       0.417000       1.00800           0
     72096 TIP3     10900    TIP3     H2       HT       0.417000       1.00800           0
     72097 TIP3     10901    TIP3     OH2      OT      -0.834000       15.9994           0
     72098 TIP3     10901    TIP3     H1       HT       0.417000       1.00800           0
     72099 TIP3     10901    TIP3     H2       HT       0.417000       1.00800           0
     72100 TIP3     10902    TIP3     OH2      OT      -0.834000       15.9994           0
     72101 TIP3     10902    TIP3     H1       HT       0.417000       1.00800           0
     72102 TIP3     10902    TIP3     H2       HT       0.417000       1.00800           0
     72103 TIP3     10903    TIP3     OH2      OT      -0.834000       15.9994           0
     72104 TIP3     10903    TIP3     H1       HT       0.417000       1.00800           0
     72105 TIP3     10903    TIP3     H2       HT       0.417000       1.00800           0
     72106 TIP3     10904    TIP3     OH2      OT      -0.834000       15.9994           0
     72107 TIP3     10904    TIP3     H1       HT       0.417000       1.00800           0
     72108 TIP3     10904    TIP3     H2       HT       0.417000       1.00800           0
     72109 TIP3     10905    TIP3     OH2      OT      -0.834000       15.9994           0
     72110 TIP3     10905    TIP3     H1       HT       0.417000       1.00800           0
     72111 TIP3     10905    TIP3     H2       HT       0.417000       1.00800           0
     72112 TIP3     10906    TIP3     OH2      OT      -0.834000       15.9994           0
     72113 TIP3     10906    TIP3     H1       HT       0.417000       1.00800           0
     72114 TIP3     10906    TIP3     H2       HT       0.417000       1.00800           0
     72115 TIP3     10907    TIP3     OH2      OT      -0.834000       15.9994           0
     72116 TIP3     10907    TIP3     H1       HT       0.417000       1.00800           0
     72117 TIP3     10907    TIP3     H2       HT       0.417000       1.00800           0
     72118 TIP3     10908    TIP3     OH2      OT      -0.834000       15.9994           0
     72119 TIP3     10908    TIP3     H1       HT       0.417000       1.00800           0
     72120 TIP3     10908    TIP3     H2       HT       0.417000       1.00800           0
     72121 TIP3     10909    TIP3     OH2      OT      -0.834000       15.9994           0
     72122 TIP3     10909    TIP3     H1       HT       0.417000       1.00800           0
     72123 TIP3     10909    TIP3     H2       HT       0.417000       1.00800           0
     72124 TIP3     10910    TIP3     OH2      OT      -0.834000       15.9994           0
     72125 TIP3     10910    TIP3     H1       HT       0.417000       1.00800           0
     72126 TIP3     10910    TIP3     H2       HT       0.417000       1.00800           0
     72127 TIP3     10911    TIP3     OH2      OT      -0.834000       15.9994           0
     72128 TIP3     10911    TIP3     H1       HT       0.417000       1.00800           0
     72129 TIP3     10911    TIP3     H2       HT       0.417000       1.00800           0
     72130 TIP3     10912    TIP3     OH2      OT      -0.834000       15.9994           0
     72131 TIP3     10912    TIP3     H1       HT       0.417000       1.00800           0
     72132 TIP3     10912    TIP3     H2       HT       0.417000       1.00800           0
     72133 TIP3     10913    TIP3     OH2      OT      -0.834000       15.9994           0
     72134 TIP3     10913    TIP3     H1       HT       0.417000       1.00800           0
     72135 TIP3     10913    TIP3     H2       HT       0.417000       1.00800           0
     72136 TIP3     10914    TIP3     OH2      OT      -0.834000       15.9994           0
     72137 TIP3     10914    TIP3     H1       HT       0.417000       1.00800           0
     72138 TIP3     10914    TIP3     H2       HT       0.417000       1.00800           0
     72139 TIP3     10915    TIP3     OH2      OT      -0.834000       15.9994           0
     72140 TIP3     10915    TIP3     H1       HT       0.417000       1.00800           0
     72141 TIP3     10915    TIP3     H2       HT       0.417000       1.00800           0
     72142 TIP3     10916    TIP3     OH2      OT      -0.834000       15.9994           0
     72143 TIP3     10916    TIP3     H1       HT       0.417000       1.00800           0
     72144 TIP3     10916    TIP3     H2       HT       0.417000       1.00800           0
     72145 TIP3     10917    TIP3     OH2      OT      -0.834000       15.9994           0
     72146 TIP3     10917    TIP3     H1       HT       0.417000       1.00800           0
     72147 TIP3     10917    TIP3     H2       HT       0.417000       1.00800           0
     72148 TIP3     10918    TIP3     OH2      OT      -0.834000       15.9994           0
     72149 TIP3     10918    TIP3     H1       HT       0.417000       1.00800           0
     72150 TIP3     10918    TIP3     H2       HT       0.417000       1.00800           0
     72151 TIP3     10919    TIP3     OH2      OT      -0.834000       15.9994           0
     72152 TIP3     10919    TIP3     H1       HT       0.417000       1.00800           0
     72153 TIP3     10919    TIP3     H2       HT       0.417000       1.00800           0
     72154 TIP3     10920    TIP3     OH2      OT      -0.834000       15.9994           0
     72155 TIP3     10920    TIP3     H1       HT       0.417000       1.00800           0
     72156 TIP3     10920    TIP3     H2       HT       0.417000       1.00800           0
     72157 TIP3     10921    TIP3     OH2      OT      -0.834000       15.9994           0
     72158 TIP3     10921    TIP3     H1       HT       0.417000       1.00800           0
     72159 TIP3     10921    TIP3     H2       HT       0.417000       1.00800           0
     72160 TIP3     10922    TIP3     OH2      OT      -0.834000       15.9994           0
     72161 TIP3     10922    TIP3     H1       HT       0.417000       1.00800           0
     72162 TIP3     10922    TIP3     H2       HT       0.417000       1.00800           0
     72163 TIP3     10923    TIP3     OH2      OT      -0.834000       15.9994           0
     72164 TIP3     10923    TIP3     H1       HT       0.417000       1.00800           0
     72165 TIP3     10923    TIP3     H2       HT       0.417000       1.00800           0
     72166 TIP3     10924    TIP3     OH2      OT      -0.834000       15.9994           0
     72167 TIP3     10924    TIP3     H1       HT       0.417000       1.00800           0
     72168 TIP3     10924    TIP3     H2       HT       0.417000       1.00800           0
     72169 TIP3     10925    TIP3     OH2      OT      -0.834000       15.9994           0
     72170 TIP3     10925    TIP3     H1       HT       0.417000       1.00800           0
     72171 TIP3     10925    TIP3     H2       HT       0.417000       1.00800           0
     72172 TIP3     10926    TIP3     OH2      OT      -0.834000       15.9994           0
     72173 TIP3     10926    TIP3     H1       HT       0.417000       1.00800           0
     72174 TIP3     10926    TIP3     H2       HT       0.417000       1.00800           0
     72175 TIP3     10927    TIP3     OH2      OT      -0.834000       15.9994           0
     72176 TIP3     10927    TIP3     H1       HT       0.417000       1.00800           0
     72177 TIP3     10927    TIP3     H2       HT       0.417000       1.00800           0
     72178 TIP3     10928    TIP3     OH2      OT      -0.834000       15.9994           0
     72179 TIP3     10928    TIP3     H1       HT       0.417000       1.00800           0
     72180 TIP3     10928    TIP3     H2       HT       0.417000       1.00800           0
     72181 TIP3     10929    TIP3     OH2      OT      -0.834000       15.9994           0
     72182 TIP3     10929    TIP3     H1       HT       0.417000       1.00800           0
     72183 TIP3     10929    TIP3     H2       HT       0.417000       1.00800           0
     72184 TIP3     10930    TIP3     OH2      OT      -0.834000       15.9994           0
     72185 TIP3     10930    TIP3     H1       HT       0.417000       1.00800           0
     72186 TIP3     10930    TIP3     H2       HT       0.417000       1.00800           0
     72187 TIP3     10931    TIP3     OH2      OT      -0.834000       15.9994           0
     72188 TIP3     10931    TIP3     H1       HT       0.417000       1.00800           0
     72189 TIP3     10931    TIP3     H2       HT       0.417000       1.00800           0
     72190 TIP3     10932    TIP3     OH2      OT      -0.834000       15.9994           0
     72191 TIP3     10932    TIP3     H1       HT       0.417000       1.00800           0
     72192 TIP3     10932    TIP3     H2       HT       0.417000       1.00800           0
     72193 TIP3     10933    TIP3     OH2      OT      -0.834000       15.9994           0
     72194 TIP3     10933    TIP3     H1       HT       0.417000       1.00800           0
     72195 TIP3     10933    TIP3     H2       HT       0.417000       1.00800           0
     72196 TIP3     10934    TIP3     OH2      OT      -0.834000       15.9994           0
     72197 TIP3     10934    TIP3     H1       HT       0.417000       1.00800           0
     72198 TIP3     10934    TIP3     H2       HT       0.417000       1.00800           0
     72199 TIP3     10935    TIP3     OH2      OT      -0.834000       15.9994           0
     72200 TIP3     10935    TIP3     H1       HT       0.417000       1.00800           0
     72201 TIP3     10935    TIP3     H2       HT       0.417000       1.00800           0
     72202 TIP3     10936    TIP3     OH2      OT      -0.834000       15.9994           0
     72203 TIP3     10936    TIP3     H1       HT       0.417000       1.00800           0
     72204 TIP3     10936    TIP3     H2       HT       0.417000       1.00800           0
     72205 TIP3     10937    TIP3     OH2      OT      -0.834000       15.9994           0
     72206 TIP3     10937    TIP3     H1       HT       0.417000       1.00800           0
     72207 TIP3     10937    TIP3     H2       HT       0.417000       1.00800           0
     72208 TIP3     10938    TIP3     OH2      OT      -0.834000       15.9994           0
     72209 TIP3     10938    TIP3     H1       HT       0.417000       1.00800           0
     72210 TIP3     10938    TIP3     H2       HT       0.417000       1.00800           0
     72211 TIP3     10939    TIP3     OH2      OT      -0.834000       15.9994           0
     72212 TIP3     10939    TIP3     H1       HT       0.417000       1.00800           0
     72213 TIP3     10939    TIP3     H2       HT       0.417000       1.00800           0
     72214 TIP3     10940    TIP3     OH2      OT      -0.834000       15.9994           0
     72215 TIP3     10940    TIP3     H1       HT       0.417000       1.00800           0
     72216 TIP3     10940    TIP3     H2       HT       0.417000       1.00800           0
     72217 TIP3     10941    TIP3     OH2      OT      -0.834000       15.9994           0
     72218 TIP3     10941    TIP3     H1       HT       0.417000       1.00800           0
     72219 TIP3     10941    TIP3     H2       HT       0.417000       1.00800           0
     72220 TIP3     10942    TIP3     OH2      OT      -0.834000       15.9994           0
     72221 TIP3     10942    TIP3     H1       HT       0.417000       1.00800           0
     72222 TIP3     10942    TIP3     H2       HT       0.417000       1.00800           0
     72223 TIP3     10943    TIP3     OH2      OT      -0.834000       15.9994           0
     72224 TIP3     10943    TIP3     H1       HT       0.417000       1.00800           0
     72225 TIP3     10943    TIP3     H2       HT       0.417000       1.00800           0
     72226 TIP3     10944    TIP3     OH2      OT      -0.834000       15.9994           0
     72227 TIP3     10944    TIP3     H1       HT       0.417000       1.00800           0
     72228 TIP3     10944    TIP3     H2       HT       0.417000       1.00800           0
     72229 TIP3     10945    TIP3     OH2      OT      -0.834000       15.9994           0
     72230 TIP3     10945    TIP3     H1       HT       0.417000       1.00800           0
     72231 TIP3     10945    TIP3     H2       HT       0.417000       1.00800           0
     72232 TIP3     10946    TIP3     OH2      OT      -0.834000       15.9994           0
     72233 TIP3     10946    TIP3     H1       HT       0.417000       1.00800           0
     72234 TIP3     10946    TIP3     H2       HT       0.417000       1.00800           0
     72235 TIP3     10947    TIP3     OH2      OT      -0.834000       15.9994           0
     72236 TIP3     10947    TIP3     H1       HT       0.417000       1.00800           0
     72237 TIP3     10947    TIP3     H2       HT       0.417000       1.00800           0
     72238 TIP3     10948    TIP3     OH2      OT      -0.834000       15.9994           0
     72239 TIP3     10948    TIP3     H1       HT       0.417000       1.00800           0
     72240 TIP3     10948    TIP3     H2       HT       0.417000       1.00800           0
     72241 TIP3     10949    TIP3     OH2      OT      -0.834000       15.9994           0
     72242 TIP3     10949    TIP3     H1       HT       0.417000       1.00800           0
     72243 TIP3     10949    TIP3     H2       HT       0.417000       1.00800           0
     72244 TIP3     10950    TIP3     OH2      OT      -0.834000       15.9994           0
     72245 TIP3     10950    TIP3     H1       HT       0.417000       1.00800           0
     72246 TIP3     10950    TIP3     H2       HT       0.417000       1.00800           0
     72247 TIP3     10951    TIP3     OH2      OT      -0.834000       15.9994           0
     72248 TIP3     10951    TIP3     H1       HT       0.417000       1.00800           0
     72249 TIP3     10951    TIP3     H2       HT       0.417000       1.00800           0
     72250 TIP3     10952    TIP3     OH2      OT      -0.834000       15.9994           0
     72251 TIP3     10952    TIP3     H1       HT       0.417000       1.00800           0
     72252 TIP3     10952    TIP3     H2       HT       0.417000       1.00800           0
     72253 TIP3     10953    TIP3     OH2      OT      -0.834000       15.9994           0
     72254 TIP3     10953    TIP3     H1       HT       0.417000       1.00800           0
     72255 TIP3     10953    TIP3     H2       HT       0.417000       1.00800           0
     72256 TIP3     10954    TIP3     OH2      OT      -0.834000       15.9994           0
     72257 TIP3     10954    TIP3     H1       HT       0.417000       1.00800           0
     72258 TIP3     10954    TIP3     H2       HT       0.417000       1.00800           0
     72259 TIP3     10955    TIP3     OH2      OT      -0.834000       15.9994           0
     72260 TIP3     10955    TIP3     H1       HT       0.417000       1.00800           0
     72261 TIP3     10955    TIP3     H2       HT       0.417000       1.00800           0
     72262 TIP3     10956    TIP3     OH2      OT      -0.834000       15.9994           0
     72263 TIP3     10956    TIP3     H1       HT       0.417000       1.00800           0
     72264 TIP3     10956    TIP3     H2       HT       0.417000       1.00800           0
     72265 TIP3     10957    TIP3     OH2      OT      -0.834000       15.9994           0
     72266 TIP3     10957    TIP3     H1       HT       0.417000       1.00800           0
     72267 TIP3     10957    TIP3     H2       HT       0.417000       1.00800           0
     72268 TIP3     10958    TIP3     OH2      OT      -0.834000       15.9994           0
     72269 TIP3     10958    TIP3     H1       HT       0.417000       1.00800           0
     72270 TIP3     10958    TIP3     H2       HT       0.417000       1.00800           0
     72271 TIP3     10959    TIP3     OH2      OT      -0.834000       15.9994           0
     72272 TIP3     10959    TIP3     H1       HT       0.417000       1.00800           0
     72273 TIP3     10959    TIP3     H2       HT       0.417000       1.00800           0
     72274 TIP3     10960    TIP3     OH2      OT      -0.834000       15.9994           0
     72275 TIP3     10960    TIP3     H1       HT       0.417000       1.00800           0
     72276 TIP3     10960    TIP3     H2       HT       0.417000       1.00800           0
     72277 TIP3     10961    TIP3     OH2      OT      -0.834000       15.9994           0
     72278 TIP3     10961    TIP3     H1       HT       0.417000       1.00800           0
     72279 TIP3     10961    TIP3     H2       HT       0.417000       1.00800           0
     72280 TIP3     10962    TIP3     OH2      OT      -0.834000       15.9994           0
     72281 TIP3     10962    TIP3     H1       HT       0.417000       1.00800           0
     72282 TIP3     10962    TIP3     H2       HT       0.417000       1.00800           0
     72283 TIP3     10963    TIP3     OH2      OT      -0.834000       15.9994           0
     72284 TIP3     10963    TIP3     H1       HT       0.417000       1.00800           0
     72285 TIP3     10963    TIP3     H2       HT       0.417000       1.00800           0
     72286 TIP3     10964    TIP3     OH2      OT      -0.834000       15.9994           0
     72287 TIP3     10964    TIP3     H1       HT       0.417000       1.00800           0
     72288 TIP3     10964    TIP3     H2       HT       0.417000       1.00800           0
     72289 TIP3     10965    TIP3     OH2      OT      -0.834000       15.9994           0
     72290 TIP3     10965    TIP3     H1       HT       0.417000       1.00800           0
     72291 TIP3     10965    TIP3     H2       HT       0.417000       1.00800           0
     72292 TIP3     10966    TIP3     OH2      OT      -0.834000       15.9994           0
     72293 TIP3     10966    TIP3     H1       HT       0.417000       1.00800           0
     72294 TIP3     10966    TIP3     H2       HT       0.417000       1.00800           0
     72295 TIP3     10967    TIP3     OH2      OT      -0.834000       15.9994           0
     72296 TIP3     10967    TIP3     H1       HT       0.417000       1.00800           0
     72297 TIP3     10967    TIP3     H2       HT       0.417000       1.00800           0
     72298 TIP3     10968    TIP3     OH2      OT      -0.834000       15.9994           0
     72299 TIP3     10968    TIP3     H1       HT       0.417000       1.00800           0
     72300 TIP3     10968    TIP3     H2       HT       0.417000       1.00800           0
     72301 TIP3     10969    TIP3     OH2      OT      -0.834000       15.9994           0
     72302 TIP3     10969    TIP3     H1       HT       0.417000       1.00800           0
     72303 TIP3     10969    TIP3     H2       HT       0.417000       1.00800           0
     72304 TIP3     10970    TIP3     OH2      OT      -0.834000       15.9994           0
     72305 TIP3     10970    TIP3     H1       HT       0.417000       1.00800           0
     72306 TIP3     10970    TIP3     H2       HT       0.417000       1.00800           0
     72307 TIP3     10971    TIP3     OH2      OT      -0.834000       15.9994           0
     72308 TIP3     10971    TIP3     H1       HT       0.417000       1.00800           0
     72309 TIP3     10971    TIP3     H2       HT       0.417000       1.00800           0
     72310 TIP3     10972    TIP3     OH2      OT      -0.834000       15.9994           0
     72311 TIP3     10972    TIP3     H1       HT       0.417000       1.00800           0
     72312 TIP3     10972    TIP3     H2       HT       0.417000       1.00800           0
     72313 TIP3     10973    TIP3     OH2      OT      -0.834000       15.9994           0
     72314 TIP3     10973    TIP3     H1       HT       0.417000       1.00800           0
     72315 TIP3     10973    TIP3     H2       HT       0.417000       1.00800           0
     72316 TIP3     10974    TIP3     OH2      OT      -0.834000       15.9994           0
     72317 TIP3     10974    TIP3     H1       HT       0.417000       1.00800           0
     72318 TIP3     10974    TIP3     H2       HT       0.417000       1.00800           0
     72319 TIP3     10975    TIP3     OH2      OT      -0.834000       15.9994           0
     72320 TIP3     10975    TIP3     H1       HT       0.417000       1.00800           0
     72321 TIP3     10975    TIP3     H2       HT       0.417000       1.00800           0
     72322 TIP3     10976    TIP3     OH2      OT      -0.834000       15.9994           0
     72323 TIP3     10976    TIP3     H1       HT       0.417000       1.00800           0
     72324 TIP3     10976    TIP3     H2       HT       0.417000       1.00800           0
     72325 TIP3     10977    TIP3     OH2      OT      -0.834000       15.9994           0
     72326 TIP3     10977    TIP3     H1       HT       0.417000       1.00800           0
     72327 TIP3     10977    TIP3     H2       HT       0.417000       1.00800           0
     72328 TIP3     10978    TIP3     OH2      OT      -0.834000       15.9994           0
     72329 TIP3     10978    TIP3     H1       HT       0.417000       1.00800           0
     72330 TIP3     10978    TIP3     H2       HT       0.417000       1.00800           0
     72331 TIP3     10979    TIP3     OH2      OT      -0.834000       15.9994           0
     72332 TIP3     10979    TIP3     H1       HT       0.417000       1.00800           0
     72333 TIP3     10979    TIP3     H2       HT       0.417000       1.00800           0
     72334 TIP3     10980    TIP3     OH2      OT      -0.834000       15.9994           0
     72335 TIP3     10980    TIP3     H1       HT       0.417000       1.00800           0
     72336 TIP3     10980    TIP3     H2       HT       0.417000       1.00800           0
     72337 TIP3     10981    TIP3     OH2      OT      -0.834000       15.9994           0
     72338 TIP3     10981    TIP3     H1       HT       0.417000       1.00800           0
     72339 TIP3     10981    TIP3     H2       HT       0.417000       1.00800           0
     72340 TIP3     10982    TIP3     OH2      OT      -0.834000       15.9994           0
     72341 TIP3     10982    TIP3     H1       HT       0.417000       1.00800           0
     72342 TIP3     10982    TIP3     H2       HT       0.417000       1.00800           0
     72343 TIP3     10983    TIP3     OH2      OT      -0.834000       15.9994           0
     72344 TIP3     10983    TIP3     H1       HT       0.417000       1.00800           0
     72345 TIP3     10983    TIP3     H2       HT       0.417000       1.00800           0
     72346 TIP3     10984    TIP3     OH2      OT      -0.834000       15.9994           0
     72347 TIP3     10984    TIP3     H1       HT       0.417000       1.00800           0
     72348 TIP3     10984    TIP3     H2       HT       0.417000       1.00800           0
     72349 TIP3     10985    TIP3     OH2      OT      -0.834000       15.9994           0
     72350 TIP3     10985    TIP3     H1       HT       0.417000       1.00800           0
     72351 TIP3     10985    TIP3     H2       HT       0.417000       1.00800           0
     72352 TIP3     10986    TIP3     OH2      OT      -0.834000       15.9994           0
     72353 TIP3     10986    TIP3     H1       HT       0.417000       1.00800           0
     72354 TIP3     10986    TIP3     H2       HT       0.417000       1.00800           0
     72355 TIP3     10987    TIP3     OH2      OT      -0.834000       15.9994           0
     72356 TIP3     10987    TIP3     H1       HT       0.417000       1.00800           0
     72357 TIP3     10987    TIP3     H2       HT       0.417000       1.00800           0
     72358 TIP3     10988    TIP3     OH2      OT      -0.834000       15.9994           0
     72359 TIP3     10988    TIP3     H1       HT       0.417000       1.00800           0
     72360 TIP3     10988    TIP3     H2       HT       0.417000       1.00800           0
     72361 TIP3     10989    TIP3     OH2      OT      -0.834000       15.9994           0
     72362 TIP3     10989    TIP3     H1       HT       0.417000       1.00800           0
     72363 TIP3     10989    TIP3     H2       HT       0.417000       1.00800           0
     72364 TIP3     10990    TIP3     OH2      OT      -0.834000       15.9994           0
     72365 TIP3     10990    TIP3     H1       HT       0.417000       1.00800           0
     72366 TIP3     10990    TIP3     H2       HT       0.417000       1.00800           0
     72367 TIP3     10991    TIP3     OH2      OT      -0.834000       15.9994           0
     72368 TIP3     10991    TIP3     H1       HT       0.417000       1.00800           0
     72369 TIP3     10991    TIP3     H2       HT       0.417000       1.00800           0
     72370 TIP3     10992    TIP3     OH2      OT      -0.834000       15.9994           0
     72371 TIP3     10992    TIP3     H1       HT       0.417000       1.00800           0
     72372 TIP3     10992    TIP3     H2       HT       0.417000       1.00800           0
     72373 TIP3     10993    TIP3     OH2      OT      -0.834000       15.9994           0
     72374 TIP3     10993    TIP3     H1       HT       0.417000       1.00800           0
     72375 TIP3     10993    TIP3     H2       HT       0.417000       1.00800           0
     72376 TIP3     10994    TIP3     OH2      OT      -0.834000       15.9994           0
     72377 TIP3     10994    TIP3     H1       HT       0.417000       1.00800           0
     72378 TIP3     10994    TIP3     H2       HT       0.417000       1.00800           0
     72379 TIP3     10995    TIP3     OH2      OT      -0.834000       15.9994           0
     72380 TIP3     10995    TIP3     H1       HT       0.417000       1.00800           0
     72381 TIP3     10995    TIP3     H2       HT       0.417000       1.00800           0
     72382 TIP3     10996    TIP3     OH2      OT      -0.834000       15.9994           0
     72383 TIP3     10996    TIP3     H1       HT       0.417000       1.00800           0
     72384 TIP3     10996    TIP3     H2       HT       0.417000       1.00800           0
     72385 TIP3     10997    TIP3     OH2      OT      -0.834000       15.9994           0
     72386 TIP3     10997    TIP3     H1       HT       0.417000       1.00800           0
     72387 TIP3     10997    TIP3     H2       HT       0.417000       1.00800           0
     72388 TIP3     10998    TIP3     OH2      OT      -0.834000       15.9994           0
     72389 TIP3     10998    TIP3     H1       HT       0.417000       1.00800           0
     72390 TIP3     10998    TIP3     H2       HT       0.417000       1.00800           0
     72391 TIP3     10999    TIP3     OH2      OT      -0.834000       15.9994           0
     72392 TIP3     10999    TIP3     H1       HT       0.417000       1.00800           0
     72393 TIP3     10999    TIP3     H2       HT       0.417000       1.00800           0
     72394 TIP3     11000    TIP3     OH2      OT      -0.834000       15.9994           0
     72395 TIP3     11000    TIP3     H1       HT       0.417000       1.00800           0
     72396 TIP3     11000    TIP3     H2       HT       0.417000       1.00800           0
     72397 TIP3     11001    TIP3     OH2      OT      -0.834000       15.9994           0
     72398 TIP3     11001    TIP3     H1       HT       0.417000       1.00800           0
     72399 TIP3     11001    TIP3     H2       HT       0.417000       1.00800           0
     72400 TIP3     11002    TIP3     OH2      OT      -0.834000       15.9994           0
     72401 TIP3     11002    TIP3     H1       HT       0.417000       1.00800           0
     72402 TIP3     11002    TIP3     H2       HT       0.417000       1.00800           0
     72403 TIP3     11003    TIP3     OH2      OT      -0.834000       15.9994           0
     72404 TIP3     11003    TIP3     H1       HT       0.417000       1.00800           0
     72405 TIP3     11003    TIP3     H2       HT       0.417000       1.00800           0
     72406 TIP3     11004    TIP3     OH2      OT      -0.834000       15.9994           0
     72407 TIP3     11004    TIP3     H1       HT       0.417000       1.00800           0
     72408 TIP3     11004    TIP3     H2       HT       0.417000       1.00800           0
     72409 TIP3     11005    TIP3     OH2      OT      -0.834000       15.9994           0
     72410 TIP3     11005    TIP3     H1       HT       0.417000       1.00800           0
     72411 TIP3     11005    TIP3     H2       HT       0.417000       1.00800           0
     72412 TIP3     11006    TIP3     OH2      OT      -0.834000       15.9994           0
     72413 TIP3     11006    TIP3     H1       HT       0.417000       1.00800           0
     72414 TIP3     11006    TIP3     H2       HT       0.417000       1.00800           0
     72415 TIP3     11007    TIP3     OH2      OT      -0.834000       15.9994           0
     72416 TIP3     11007    TIP3     H1       HT       0.417000       1.00800           0
     72417 TIP3     11007    TIP3     H2       HT       0.417000       1.00800           0
     72418 TIP3     11008    TIP3     OH2      OT      -0.834000       15.9994           0
     72419 TIP3     11008    TIP3     H1       HT       0.417000       1.00800           0
     72420 TIP3     11008    TIP3     H2       HT       0.417000       1.00800           0
     72421 TIP3     11009    TIP3     OH2      OT      -0.834000       15.9994           0
     72422 TIP3     11009    TIP3     H1       HT       0.417000       1.00800           0
     72423 TIP3     11009    TIP3     H2       HT       0.417000       1.00800           0
     72424 TIP3     11010    TIP3     OH2      OT      -0.834000       15.9994           0
     72425 TIP3     11010    TIP3     H1       HT       0.417000       1.00800           0
     72426 TIP3     11010    TIP3     H2       HT       0.417000       1.00800           0
     72427 TIP3     11011    TIP3     OH2      OT      -0.834000       15.9994           0
     72428 TIP3     11011    TIP3     H1       HT       0.417000       1.00800           0
     72429 TIP3     11011    TIP3     H2       HT       0.417000       1.00800           0
     72430 TIP3     11012    TIP3     OH2      OT      -0.834000       15.9994           0
     72431 TIP3     11012    TIP3     H1       HT       0.417000       1.00800           0
     72432 TIP3     11012    TIP3     H2       HT       0.417000       1.00800           0
     72433 TIP3     11013    TIP3     OH2      OT      -0.834000       15.9994           0
     72434 TIP3     11013    TIP3     H1       HT       0.417000       1.00800           0
     72435 TIP3     11013    TIP3     H2       HT       0.417000       1.00800           0
     72436 TIP3     11014    TIP3     OH2      OT      -0.834000       15.9994           0
     72437 TIP3     11014    TIP3     H1       HT       0.417000       1.00800           0
     72438 TIP3     11014    TIP3     H2       HT       0.417000       1.00800           0
     72439 TIP3     11015    TIP3     OH2      OT      -0.834000       15.9994           0
     72440 TIP3     11015    TIP3     H1       HT       0.417000       1.00800           0
     72441 TIP3     11015    TIP3     H2       HT       0.417000       1.00800           0
     72442 TIP3     11016    TIP3     OH2      OT      -0.834000       15.9994           0
     72443 TIP3     11016    TIP3     H1       HT       0.417000       1.00800           0
     72444 TIP3     11016    TIP3     H2       HT       0.417000       1.00800           0
     72445 TIP3     11017    TIP3     OH2      OT      -0.834000       15.9994           0
     72446 TIP3     11017    TIP3     H1       HT       0.417000       1.00800           0
     72447 TIP3     11017    TIP3     H2       HT       0.417000       1.00800           0
     72448 TIP3     11018    TIP3     OH2      OT      -0.834000       15.9994           0
     72449 TIP3     11018    TIP3     H1       HT       0.417000       1.00800           0
     72450 TIP3     11018    TIP3     H2       HT       0.417000       1.00800           0
     72451 TIP3     11019    TIP3     OH2      OT      -0.834000       15.9994           0
     72452 TIP3     11019    TIP3     H1       HT       0.417000       1.00800           0
     72453 TIP3     11019    TIP3     H2       HT       0.417000       1.00800           0
     72454 TIP3     11020    TIP3     OH2      OT      -0.834000       15.9994           0
     72455 TIP3     11020    TIP3     H1       HT       0.417000       1.00800           0
     72456 TIP3     11020    TIP3     H2       HT       0.417000       1.00800           0
     72457 TIP3     11021    TIP3     OH2      OT      -0.834000       15.9994           0
     72458 TIP3     11021    TIP3     H1       HT       0.417000       1.00800           0
     72459 TIP3     11021    TIP3     H2       HT       0.417000       1.00800           0
     72460 TIP3     11022    TIP3     OH2      OT      -0.834000       15.9994           0
     72461 TIP3     11022    TIP3     H1       HT       0.417000       1.00800           0
     72462 TIP3     11022    TIP3     H2       HT       0.417000       1.00800           0
     72463 TIP3     11023    TIP3     OH2      OT      -0.834000       15.9994           0
     72464 TIP3     11023    TIP3     H1       HT       0.417000       1.00800           0
     72465 TIP3     11023    TIP3     H2       HT       0.417000       1.00800           0
     72466 TIP3     11024    TIP3     OH2      OT      -0.834000       15.9994           0
     72467 TIP3     11024    TIP3     H1       HT       0.417000       1.00800           0
     72468 TIP3     11024    TIP3     H2       HT       0.417000       1.00800           0
     72469 TIP3     11025    TIP3     OH2      OT      -0.834000       15.9994           0
     72470 TIP3     11025    TIP3     H1       HT       0.417000       1.00800           0
     72471 TIP3     11025    TIP3     H2       HT       0.417000       1.00800           0
     72472 TIP3     11026    TIP3     OH2      OT      -0.834000       15.9994           0
     72473 TIP3     11026    TIP3     H1       HT       0.417000       1.00800           0
     72474 TIP3     11026    TIP3     H2       HT       0.417000       1.00800           0
     72475 TIP3     11027    TIP3     OH2      OT      -0.834000       15.9994           0
     72476 TIP3     11027    TIP3     H1       HT       0.417000       1.00800           0
     72477 TIP3     11027    TIP3     H2       HT       0.417000       1.00800           0
     72478 TIP3     11028    TIP3     OH2      OT      -0.834000       15.9994           0
     72479 TIP3     11028    TIP3     H1       HT       0.417000       1.00800           0
     72480 TIP3     11028    TIP3     H2       HT       0.417000       1.00800           0
     72481 TIP3     11029    TIP3     OH2      OT      -0.834000       15.9994           0
     72482 TIP3     11029    TIP3     H1       HT       0.417000       1.00800           0
     72483 TIP3     11029    TIP3     H2       HT       0.417000       1.00800           0
     72484 TIP3     11030    TIP3     OH2      OT      -0.834000       15.9994           0
     72485 TIP3     11030    TIP3     H1       HT       0.417000       1.00800           0
     72486 TIP3     11030    TIP3     H2       HT       0.417000       1.00800           0
     72487 TIP3     11031    TIP3     OH2      OT      -0.834000       15.9994           0
     72488 TIP3     11031    TIP3     H1       HT       0.417000       1.00800           0
     72489 TIP3     11031    TIP3     H2       HT       0.417000       1.00800           0
     72490 TIP3     11032    TIP3     OH2      OT      -0.834000       15.9994           0
     72491 TIP3     11032    TIP3     H1       HT       0.417000       1.00800           0
     72492 TIP3     11032    TIP3     H2       HT       0.417000       1.00800           0
     72493 TIP3     11033    TIP3     OH2      OT      -0.834000       15.9994           0
     72494 TIP3     11033    TIP3     H1       HT       0.417000       1.00800           0
     72495 TIP3     11033    TIP3     H2       HT       0.417000       1.00800           0
     72496 TIP3     11034    TIP3     OH2      OT      -0.834000       15.9994           0
     72497 TIP3     11034    TIP3     H1       HT       0.417000       1.00800           0
     72498 TIP3     11034    TIP3     H2       HT       0.417000       1.00800           0
     72499 TIP3     11035    TIP3     OH2      OT      -0.834000       15.9994           0
     72500 TIP3     11035    TIP3     H1       HT       0.417000       1.00800           0
     72501 TIP3     11035    TIP3     H2       HT       0.417000       1.00800           0
     72502 TIP3     11036    TIP3     OH2      OT      -0.834000       15.9994           0
     72503 TIP3     11036    TIP3     H1       HT       0.417000       1.00800           0
     72504 TIP3     11036    TIP3     H2       HT       0.417000       1.00800           0
     72505 TIP3     11037    TIP3     OH2      OT      -0.834000       15.9994           0
     72506 TIP3     11037    TIP3     H1       HT       0.417000       1.00800           0
     72507 TIP3     11037    TIP3     H2       HT       0.417000       1.00800           0
     72508 TIP3     11038    TIP3     OH2      OT      -0.834000       15.9994           0
     72509 TIP3     11038    TIP3     H1       HT       0.417000       1.00800           0
     72510 TIP3     11038    TIP3     H2       HT       0.417000       1.00800           0
     72511 TIP3     11039    TIP3     OH2      OT      -0.834000       15.9994           0
     72512 TIP3     11039    TIP3     H1       HT       0.417000       1.00800           0
     72513 TIP3     11039    TIP3     H2       HT       0.417000       1.00800           0
     72514 TIP3     11040    TIP3     OH2      OT      -0.834000       15.9994           0
     72515 TIP3     11040    TIP3     H1       HT       0.417000       1.00800           0
     72516 TIP3     11040    TIP3     H2       HT       0.417000       1.00800           0
     72517 TIP3     11041    TIP3     OH2      OT      -0.834000       15.9994           0
     72518 TIP3     11041    TIP3     H1       HT       0.417000       1.00800           0
     72519 TIP3     11041    TIP3     H2       HT       0.417000       1.00800           0
     72520 TIP3     11042    TIP3     OH2      OT      -0.834000       15.9994           0
     72521 TIP3     11042    TIP3     H1       HT       0.417000       1.00800           0
     72522 TIP3     11042    TIP3     H2       HT       0.417000       1.00800           0
     72523 TIP3     11043    TIP3     OH2      OT      -0.834000       15.9994           0
     72524 TIP3     11043    TIP3     H1       HT       0.417000       1.00800           0
     72525 TIP3     11043    TIP3     H2       HT       0.417000       1.00800           0
     72526 TIP3     11044    TIP3     OH2      OT      -0.834000       15.9994           0
     72527 TIP3     11044    TIP3     H1       HT       0.417000       1.00800           0
     72528 TIP3     11044    TIP3     H2       HT       0.417000       1.00800           0
     72529 TIP3     11045    TIP3     OH2      OT      -0.834000       15.9994           0
     72530 TIP3     11045    TIP3     H1       HT       0.417000       1.00800           0
     72531 TIP3     11045    TIP3     H2       HT       0.417000       1.00800           0
     72532 TIP3     11046    TIP3     OH2      OT      -0.834000       15.9994           0
     72533 TIP3     11046    TIP3     H1       HT       0.417000       1.00800           0
     72534 TIP3     11046    TIP3     H2       HT       0.417000       1.00800           0
     72535 TIP3     11047    TIP3     OH2      OT      -0.834000       15.9994           0
     72536 TIP3     11047    TIP3     H1       HT       0.417000       1.00800           0
     72537 TIP3     11047    TIP3     H2       HT       0.417000       1.00800           0
     72538 TIP3     11048    TIP3     OH2      OT      -0.834000       15.9994           0
     72539 TIP3     11048    TIP3     H1       HT       0.417000       1.00800           0
     72540 TIP3     11048    TIP3     H2       HT       0.417000       1.00800           0
     72541 TIP3     11049    TIP3     OH2      OT      -0.834000       15.9994           0
     72542 TIP3     11049    TIP3     H1       HT       0.417000       1.00800           0
     72543 TIP3     11049    TIP3     H2       HT       0.417000       1.00800           0
     72544 TIP3     11050    TIP3     OH2      OT      -0.834000       15.9994           0
     72545 TIP3     11050    TIP3     H1       HT       0.417000       1.00800           0
     72546 TIP3     11050    TIP3     H2       HT       0.417000       1.00800           0
     72547 TIP3     11051    TIP3     OH2      OT      -0.834000       15.9994           0
     72548 TIP3     11051    TIP3     H1       HT       0.417000       1.00800           0
     72549 TIP3     11051    TIP3     H2       HT       0.417000       1.00800           0
     72550 TIP3     11052    TIP3     OH2      OT      -0.834000       15.9994           0
     72551 TIP3     11052    TIP3     H1       HT       0.417000       1.00800           0
     72552 TIP3     11052    TIP3     H2       HT       0.417000       1.00800           0
     72553 TIP3     11053    TIP3     OH2      OT      -0.834000       15.9994           0
     72554 TIP3     11053    TIP3     H1       HT       0.417000       1.00800           0
     72555 TIP3     11053    TIP3     H2       HT       0.417000       1.00800           0
     72556 TIP3     11054    TIP3     OH2      OT      -0.834000       15.9994           0
     72557 TIP3     11054    TIP3     H1       HT       0.417000       1.00800           0
     72558 TIP3     11054    TIP3     H2       HT       0.417000       1.00800           0
     72559 TIP3     11055    TIP3     OH2      OT      -0.834000       15.9994           0
     72560 TIP3     11055    TIP3     H1       HT       0.417000       1.00800           0
     72561 TIP3     11055    TIP3     H2       HT       0.417000       1.00800           0
     72562 TIP3     11056    TIP3     OH2      OT      -0.834000       15.9994           0
     72563 TIP3     11056    TIP3     H1       HT       0.417000       1.00800           0
     72564 TIP3     11056    TIP3     H2       HT       0.417000       1.00800           0
     72565 TIP3     11057    TIP3     OH2      OT      -0.834000       15.9994           0
     72566 TIP3     11057    TIP3     H1       HT       0.417000       1.00800           0
     72567 TIP3     11057    TIP3     H2       HT       0.417000       1.00800           0
     72568 TIP3     11058    TIP3     OH2      OT      -0.834000       15.9994           0
     72569 TIP3     11058    TIP3     H1       HT       0.417000       1.00800           0
     72570 TIP3     11058    TIP3     H2       HT       0.417000       1.00800           0
     72571 TIP3     11059    TIP3     OH2      OT      -0.834000       15.9994           0
     72572 TIP3     11059    TIP3     H1       HT       0.417000       1.00800           0
     72573 TIP3     11059    TIP3     H2       HT       0.417000       1.00800           0
     72574 TIP3     11060    TIP3     OH2      OT      -0.834000       15.9994           0
     72575 TIP3     11060    TIP3     H1       HT       0.417000       1.00800           0
     72576 TIP3     11060    TIP3     H2       HT       0.417000       1.00800           0
     72577 TIP3     11061    TIP3     OH2      OT      -0.834000       15.9994           0
     72578 TIP3     11061    TIP3     H1       HT       0.417000       1.00800           0
     72579 TIP3     11061    TIP3     H2       HT       0.417000       1.00800           0
     72580 TIP3     11062    TIP3     OH2      OT      -0.834000       15.9994           0
     72581 TIP3     11062    TIP3     H1       HT       0.417000       1.00800           0
     72582 TIP3     11062    TIP3     H2       HT       0.417000       1.00800           0
     72583 TIP3     11063    TIP3     OH2      OT      -0.834000       15.9994           0
     72584 TIP3     11063    TIP3     H1       HT       0.417000       1.00800           0
     72585 TIP3     11063    TIP3     H2       HT       0.417000       1.00800           0
     72586 TIP3     11064    TIP3     OH2      OT      -0.834000       15.9994           0
     72587 TIP3     11064    TIP3     H1       HT       0.417000       1.00800           0
     72588 TIP3     11064    TIP3     H2       HT       0.417000       1.00800           0
     72589 TIP3     11065    TIP3     OH2      OT      -0.834000       15.9994           0
     72590 TIP3     11065    TIP3     H1       HT       0.417000       1.00800           0
     72591 TIP3     11065    TIP3     H2       HT       0.417000       1.00800           0
     72592 TIP3     11066    TIP3     OH2      OT      -0.834000       15.9994           0
     72593 TIP3     11066    TIP3     H1       HT       0.417000       1.00800           0
     72594 TIP3     11066    TIP3     H2       HT       0.417000       1.00800           0
     72595 TIP3     11067    TIP3     OH2      OT      -0.834000       15.9994           0
     72596 TIP3     11067    TIP3     H1       HT       0.417000       1.00800           0
     72597 TIP3     11067    TIP3     H2       HT       0.417000       1.00800           0
     72598 TIP3     11068    TIP3     OH2      OT      -0.834000       15.9994           0
     72599 TIP3     11068    TIP3     H1       HT       0.417000       1.00800           0
     72600 TIP3     11068    TIP3     H2       HT       0.417000       1.00800           0
     72601 TIP3     11069    TIP3     OH2      OT      -0.834000       15.9994           0
     72602 TIP3     11069    TIP3     H1       HT       0.417000       1.00800           0
     72603 TIP3     11069    TIP3     H2       HT       0.417000       1.00800           0
     72604 TIP3     11070    TIP3     OH2      OT      -0.834000       15.9994           0
     72605 TIP3     11070    TIP3     H1       HT       0.417000       1.00800           0
     72606 TIP3     11070    TIP3     H2       HT       0.417000       1.00800           0
     72607 TIP3     11071    TIP3     OH2      OT      -0.834000       15.9994           0
     72608 TIP3     11071    TIP3     H1       HT       0.417000       1.00800           0
     72609 TIP3     11071    TIP3     H2       HT       0.417000       1.00800           0
     72610 TIP3     11072    TIP3     OH2      OT      -0.834000       15.9994           0
     72611 TIP3     11072    TIP3     H1       HT       0.417000       1.00800           0
     72612 TIP3     11072    TIP3     H2       HT       0.417000       1.00800           0
     72613 TIP3     11073    TIP3     OH2      OT      -0.834000       15.9994           0
     72614 TIP3     11073    TIP3     H1       HT       0.417000       1.00800           0
     72615 TIP3     11073    TIP3     H2       HT       0.417000       1.00800           0
     72616 TIP3     11074    TIP3     OH2      OT      -0.834000       15.9994           0
     72617 TIP3     11074    TIP3     H1       HT       0.417000       1.00800           0
     72618 TIP3     11074    TIP3     H2       HT       0.417000       1.00800           0
     72619 TIP3     11075    TIP3     OH2      OT      -0.834000       15.9994           0
     72620 TIP3     11075    TIP3     H1       HT       0.417000       1.00800           0
     72621 TIP3     11075    TIP3     H2       HT       0.417000       1.00800           0
     72622 TIP3     11076    TIP3     OH2      OT      -0.834000       15.9994           0
     72623 TIP3     11076    TIP3     H1       HT       0.417000       1.00800           0
     72624 TIP3     11076    TIP3     H2       HT       0.417000       1.00800           0
     72625 TIP3     11077    TIP3     OH2      OT      -0.834000       15.9994           0
     72626 TIP3     11077    TIP3     H1       HT       0.417000       1.00800           0
     72627 TIP3     11077    TIP3     H2       HT       0.417000       1.00800           0
     72628 TIP3     11078    TIP3     OH2      OT      -0.834000       15.9994           0
     72629 TIP3     11078    TIP3     H1       HT       0.417000       1.00800           0
     72630 TIP3     11078    TIP3     H2       HT       0.417000       1.00800           0
     72631 TIP3     11079    TIP3     OH2      OT      -0.834000       15.9994           0
     72632 TIP3     11079    TIP3     H1       HT       0.417000       1.00800           0
     72633 TIP3     11079    TIP3     H2       HT       0.417000       1.00800           0
     72634 TIP3     11080    TIP3     OH2      OT      -0.834000       15.9994           0
     72635 TIP3     11080    TIP3     H1       HT       0.417000       1.00800           0
     72636 TIP3     11080    TIP3     H2       HT       0.417000       1.00800           0
     72637 TIP3     11081    TIP3     OH2      OT      -0.834000       15.9994           0
     72638 TIP3     11081    TIP3     H1       HT       0.417000       1.00800           0
     72639 TIP3     11081    TIP3     H2       HT       0.417000       1.00800           0
     72640 TIP3     11082    TIP3     OH2      OT      -0.834000       15.9994           0
     72641 TIP3     11082    TIP3     H1       HT       0.417000       1.00800           0
     72642 TIP3     11082    TIP3     H2       HT       0.417000       1.00800           0
     72643 TIP3     11083    TIP3     OH2      OT      -0.834000       15.9994           0
     72644 TIP3     11083    TIP3     H1       HT       0.417000       1.00800           0
     72645 TIP3     11083    TIP3     H2       HT       0.417000       1.00800           0
     72646 TIP3     11084    TIP3     OH2      OT      -0.834000       15.9994           0
     72647 TIP3     11084    TIP3     H1       HT       0.417000       1.00800           0
     72648 TIP3     11084    TIP3     H2       HT       0.417000       1.00800           0
     72649 TIP3     11085    TIP3     OH2      OT      -0.834000       15.9994           0
     72650 TIP3     11085    TIP3     H1       HT       0.417000       1.00800           0
     72651 TIP3     11085    TIP3     H2       HT       0.417000       1.00800           0
     72652 TIP3     11086    TIP3     OH2      OT      -0.834000       15.9994           0
     72653 TIP3     11086    TIP3     H1       HT       0.417000       1.00800           0
     72654 TIP3     11086    TIP3     H2       HT       0.417000       1.00800           0
     72655 TIP3     11087    TIP3     OH2      OT      -0.834000       15.9994           0
     72656 TIP3     11087    TIP3     H1       HT       0.417000       1.00800           0
     72657 TIP3     11087    TIP3     H2       HT       0.417000       1.00800           0
     72658 TIP3     11088    TIP3     OH2      OT      -0.834000       15.9994           0
     72659 TIP3     11088    TIP3     H1       HT       0.417000       1.00800           0
     72660 TIP3     11088    TIP3     H2       HT       0.417000       1.00800           0
     72661 TIP3     11089    TIP3     OH2      OT      -0.834000       15.9994           0
     72662 TIP3     11089    TIP3     H1       HT       0.417000       1.00800           0
     72663 TIP3     11089    TIP3     H2       HT       0.417000       1.00800           0
     72664 TIP3     11090    TIP3     OH2      OT      -0.834000       15.9994           0
     72665 TIP3     11090    TIP3     H1       HT       0.417000       1.00800           0
     72666 TIP3     11090    TIP3     H2       HT       0.417000       1.00800           0
     72667 TIP3     11091    TIP3     OH2      OT      -0.834000       15.9994           0
     72668 TIP3     11091    TIP3     H1       HT       0.417000       1.00800           0
     72669 TIP3     11091    TIP3     H2       HT       0.417000       1.00800           0
     72670 TIP3     11092    TIP3     OH2      OT      -0.834000       15.9994           0
     72671 TIP3     11092    TIP3     H1       HT       0.417000       1.00800           0
     72672 TIP3     11092    TIP3     H2       HT       0.417000       1.00800           0
     72673 TIP3     11093    TIP3     OH2      OT      -0.834000       15.9994           0
     72674 TIP3     11093    TIP3     H1       HT       0.417000       1.00800           0
     72675 TIP3     11093    TIP3     H2       HT       0.417000       1.00800           0
     72676 TIP3     11094    TIP3     OH2      OT      -0.834000       15.9994           0
     72677 TIP3     11094    TIP3     H1       HT       0.417000       1.00800           0
     72678 TIP3     11094    TIP3     H2       HT       0.417000       1.00800           0
     72679 TIP3     11095    TIP3     OH2      OT      -0.834000       15.9994           0
     72680 TIP3     11095    TIP3     H1       HT       0.417000       1.00800           0
     72681 TIP3     11095    TIP3     H2       HT       0.417000       1.00800           0
     72682 TIP3     11096    TIP3     OH2      OT      -0.834000       15.9994           0
     72683 TIP3     11096    TIP3     H1       HT       0.417000       1.00800           0
     72684 TIP3     11096    TIP3     H2       HT       0.417000       1.00800           0
     72685 TIP3     11097    TIP3     OH2      OT      -0.834000       15.9994           0
     72686 TIP3     11097    TIP3     H1       HT       0.417000       1.00800           0
     72687 TIP3     11097    TIP3     H2       HT       0.417000       1.00800           0
     72688 TIP3     11098    TIP3     OH2      OT      -0.834000       15.9994           0
     72689 TIP3     11098    TIP3     H1       HT       0.417000       1.00800           0
     72690 TIP3     11098    TIP3     H2       HT       0.417000       1.00800           0
     72691 TIP3     11099    TIP3     OH2      OT      -0.834000       15.9994           0
     72692 TIP3     11099    TIP3     H1       HT       0.417000       1.00800           0
     72693 TIP3     11099    TIP3     H2       HT       0.417000       1.00800           0
     72694 TIP3     11100    TIP3     OH2      OT      -0.834000       15.9994           0
     72695 TIP3     11100    TIP3     H1       HT       0.417000       1.00800           0
     72696 TIP3     11100    TIP3     H2       HT       0.417000       1.00800           0
     72697 TIP3     11101    TIP3     OH2      OT      -0.834000       15.9994           0
     72698 TIP3     11101    TIP3     H1       HT       0.417000       1.00800           0
     72699 TIP3     11101    TIP3     H2       HT       0.417000       1.00800           0
     72700 TIP3     11102    TIP3     OH2      OT      -0.834000       15.9994           0
     72701 TIP3     11102    TIP3     H1       HT       0.417000       1.00800           0
     72702 TIP3     11102    TIP3     H2       HT       0.417000       1.00800           0
     72703 TIP3     11103    TIP3     OH2      OT      -0.834000       15.9994           0
     72704 TIP3     11103    TIP3     H1       HT       0.417000       1.00800           0
     72705 TIP3     11103    TIP3     H2       HT       0.417000       1.00800           0
     72706 TIP3     11104    TIP3     OH2      OT      -0.834000       15.9994           0
     72707 TIP3     11104    TIP3     H1       HT       0.417000       1.00800           0
     72708 TIP3     11104    TIP3     H2       HT       0.417000       1.00800           0
     72709 TIP3     11105    TIP3     OH2      OT      -0.834000       15.9994           0
     72710 TIP3     11105    TIP3     H1       HT       0.417000       1.00800           0
     72711 TIP3     11105    TIP3     H2       HT       0.417000       1.00800           0
     72712 TIP3     11106    TIP3     OH2      OT      -0.834000       15.9994           0
     72713 TIP3     11106    TIP3     H1       HT       0.417000       1.00800           0
     72714 TIP3     11106    TIP3     H2       HT       0.417000       1.00800           0
     72715 TIP3     11107    TIP3     OH2      OT      -0.834000       15.9994           0
     72716 TIP3     11107    TIP3     H1       HT       0.417000       1.00800           0
     72717 TIP3     11107    TIP3     H2       HT       0.417000       1.00800           0
     72718 TIP3     11108    TIP3     OH2      OT      -0.834000       15.9994           0
     72719 TIP3     11108    TIP3     H1       HT       0.417000       1.00800           0
     72720 TIP3     11108    TIP3     H2       HT       0.417000       1.00800           0
     72721 TIP3     11109    TIP3     OH2      OT      -0.834000       15.9994           0
     72722 TIP3     11109    TIP3     H1       HT       0.417000       1.00800           0
     72723 TIP3     11109    TIP3     H2       HT       0.417000       1.00800           0
     72724 TIP3     11110    TIP3     OH2      OT      -0.834000       15.9994           0
     72725 TIP3     11110    TIP3     H1       HT       0.417000       1.00800           0
     72726 TIP3     11110    TIP3     H2       HT       0.417000       1.00800           0
     72727 TIP3     11111    TIP3     OH2      OT      -0.834000       15.9994           0
     72728 TIP3     11111    TIP3     H1       HT       0.417000       1.00800           0
     72729 TIP3     11111    TIP3     H2       HT       0.417000       1.00800           0
     72730 TIP3     11112    TIP3     OH2      OT      -0.834000       15.9994           0
     72731 TIP3     11112    TIP3     H1       HT       0.417000       1.00800           0
     72732 TIP3     11112    TIP3     H2       HT       0.417000       1.00800           0
     72733 TIP3     11113    TIP3     OH2      OT      -0.834000       15.9994           0
     72734 TIP3     11113    TIP3     H1       HT       0.417000       1.00800           0
     72735 TIP3     11113    TIP3     H2       HT       0.417000       1.00800           0
     72736 TIP3     11114    TIP3     OH2      OT      -0.834000       15.9994           0
     72737 TIP3     11114    TIP3     H1       HT       0.417000       1.00800           0
     72738 TIP3     11114    TIP3     H2       HT       0.417000       1.00800           0
     72739 TIP3     11115    TIP3     OH2      OT      -0.834000       15.9994           0
     72740 TIP3     11115    TIP3     H1       HT       0.417000       1.00800           0
     72741 TIP3     11115    TIP3     H2       HT       0.417000       1.00800           0
     72742 TIP3     11116    TIP3     OH2      OT      -0.834000       15.9994           0
     72743 TIP3     11116    TIP3     H1       HT       0.417000       1.00800           0
     72744 TIP3     11116    TIP3     H2       HT       0.417000       1.00800           0
     72745 TIP3     11117    TIP3     OH2      OT      -0.834000       15.9994           0
     72746 TIP3     11117    TIP3     H1       HT       0.417000       1.00800           0
     72747 TIP3     11117    TIP3     H2       HT       0.417000       1.00800           0
     72748 TIP3     11118    TIP3     OH2      OT      -0.834000       15.9994           0
     72749 TIP3     11118    TIP3     H1       HT       0.417000       1.00800           0
     72750 TIP3     11118    TIP3     H2       HT       0.417000       1.00800           0
     72751 TIP3     11119    TIP3     OH2      OT      -0.834000       15.9994           0
     72752 TIP3     11119    TIP3     H1       HT       0.417000       1.00800           0
     72753 TIP3     11119    TIP3     H2       HT       0.417000       1.00800           0
     72754 TIP3     11120    TIP3     OH2      OT      -0.834000       15.9994           0
     72755 TIP3     11120    TIP3     H1       HT       0.417000       1.00800           0
     72756 TIP3     11120    TIP3     H2       HT       0.417000       1.00800           0
     72757 TIP3     11121    TIP3     OH2      OT      -0.834000       15.9994           0
     72758 TIP3     11121    TIP3     H1       HT       0.417000       1.00800           0
     72759 TIP3     11121    TIP3     H2       HT       0.417000       1.00800           0
     72760 TIP3     11122    TIP3     OH2      OT      -0.834000       15.9994           0
     72761 TIP3     11122    TIP3     H1       HT       0.417000       1.00800           0
     72762 TIP3     11122    TIP3     H2       HT       0.417000       1.00800           0
     72763 TIP3     11123    TIP3     OH2      OT      -0.834000       15.9994           0
     72764 TIP3     11123    TIP3     H1       HT       0.417000       1.00800           0
     72765 TIP3     11123    TIP3     H2       HT       0.417000       1.00800           0
     72766 TIP3     11124    TIP3     OH2      OT      -0.834000       15.9994           0
     72767 TIP3     11124    TIP3     H1       HT       0.417000       1.00800           0
     72768 TIP3     11124    TIP3     H2       HT       0.417000       1.00800           0
     72769 TIP3     11125    TIP3     OH2      OT      -0.834000       15.9994           0
     72770 TIP3     11125    TIP3     H1       HT       0.417000       1.00800           0
     72771 TIP3     11125    TIP3     H2       HT       0.417000       1.00800           0
     72772 TIP3     11126    TIP3     OH2      OT      -0.834000       15.9994           0
     72773 TIP3     11126    TIP3     H1       HT       0.417000       1.00800           0
     72774 TIP3     11126    TIP3     H2       HT       0.417000       1.00800           0
     72775 TIP3     11127    TIP3     OH2      OT      -0.834000       15.9994           0
     72776 TIP3     11127    TIP3     H1       HT       0.417000       1.00800           0
     72777 TIP3     11127    TIP3     H2       HT       0.417000       1.00800           0
     72778 TIP3     11128    TIP3     OH2      OT      -0.834000       15.9994           0
     72779 TIP3     11128    TIP3     H1       HT       0.417000       1.00800           0
     72780 TIP3     11128    TIP3     H2       HT       0.417000       1.00800           0
     72781 TIP3     11129    TIP3     OH2      OT      -0.834000       15.9994           0
     72782 TIP3     11129    TIP3     H1       HT       0.417000       1.00800           0
     72783 TIP3     11129    TIP3     H2       HT       0.417000       1.00800           0
     72784 TIP3     11130    TIP3     OH2      OT      -0.834000       15.9994           0
     72785 TIP3     11130    TIP3     H1       HT       0.417000       1.00800           0
     72786 TIP3     11130    TIP3     H2       HT       0.417000       1.00800           0
     72787 TIP3     11131    TIP3     OH2      OT      -0.834000       15.9994           0
     72788 TIP3     11131    TIP3     H1       HT       0.417000       1.00800           0
     72789 TIP3     11131    TIP3     H2       HT       0.417000       1.00800           0
     72790 TIP3     11132    TIP3     OH2      OT      -0.834000       15.9994           0
     72791 TIP3     11132    TIP3     H1       HT       0.417000       1.00800           0
     72792 TIP3     11132    TIP3     H2       HT       0.417000       1.00800           0
     72793 TIP3     11133    TIP3     OH2      OT      -0.834000       15.9994           0
     72794 TIP3     11133    TIP3     H1       HT       0.417000       1.00800           0
     72795 TIP3     11133    TIP3     H2       HT       0.417000       1.00800           0
     72796 TIP3     11134    TIP3     OH2      OT      -0.834000       15.9994           0
     72797 TIP3     11134    TIP3     H1       HT       0.417000       1.00800           0
     72798 TIP3     11134    TIP3     H2       HT       0.417000       1.00800           0
     72799 TIP3     11135    TIP3     OH2      OT      -0.834000       15.9994           0
     72800 TIP3     11135    TIP3     H1       HT       0.417000       1.00800           0
     72801 TIP3     11135    TIP3     H2       HT       0.417000       1.00800           0
     72802 TIP3     11136    TIP3     OH2      OT      -0.834000       15.9994           0
     72803 TIP3     11136    TIP3     H1       HT       0.417000       1.00800           0
     72804 TIP3     11136    TIP3     H2       HT       0.417000       1.00800           0
     72805 TIP3     11137    TIP3     OH2      OT      -0.834000       15.9994           0
     72806 TIP3     11137    TIP3     H1       HT       0.417000       1.00800           0
     72807 TIP3     11137    TIP3     H2       HT       0.417000       1.00800           0
     72808 TIP3     11138    TIP3     OH2      OT      -0.834000       15.9994           0
     72809 TIP3     11138    TIP3     H1       HT       0.417000       1.00800           0
     72810 TIP3     11138    TIP3     H2       HT       0.417000       1.00800           0
     72811 TIP3     11139    TIP3     OH2      OT      -0.834000       15.9994           0
     72812 TIP3     11139    TIP3     H1       HT       0.417000       1.00800           0
     72813 TIP3     11139    TIP3     H2       HT       0.417000       1.00800           0
     72814 TIP3     11140    TIP3     OH2      OT      -0.834000       15.9994           0
     72815 TIP3     11140    TIP3     H1       HT       0.417000       1.00800           0
     72816 TIP3     11140    TIP3     H2       HT       0.417000       1.00800           0
     72817 TIP3     11141    TIP3     OH2      OT      -0.834000       15.9994           0
     72818 TIP3     11141    TIP3     H1       HT       0.417000       1.00800           0
     72819 TIP3     11141    TIP3     H2       HT       0.417000       1.00800           0
     72820 TIP3     11142    TIP3     OH2      OT      -0.834000       15.9994           0
     72821 TIP3     11142    TIP3     H1       HT       0.417000       1.00800           0
     72822 TIP3     11142    TIP3     H2       HT       0.417000       1.00800           0
     72823 TIP3     11143    TIP3     OH2      OT      -0.834000       15.9994           0
     72824 TIP3     11143    TIP3     H1       HT       0.417000       1.00800           0
     72825 TIP3     11143    TIP3     H2       HT       0.417000       1.00800           0
     72826 TIP3     11144    TIP3     OH2      OT      -0.834000       15.9994           0
     72827 TIP3     11144    TIP3     H1       HT       0.417000       1.00800           0
     72828 TIP3     11144    TIP3     H2       HT       0.417000       1.00800           0
     72829 TIP3     11145    TIP3     OH2      OT      -0.834000       15.9994           0
     72830 TIP3     11145    TIP3     H1       HT       0.417000       1.00800           0
     72831 TIP3     11145    TIP3     H2       HT       0.417000       1.00800           0
     72832 TIP3     11146    TIP3     OH2      OT      -0.834000       15.9994           0
     72833 TIP3     11146    TIP3     H1       HT       0.417000       1.00800           0
     72834 TIP3     11146    TIP3     H2       HT       0.417000       1.00800           0
     72835 TIP3     11147    TIP3     OH2      OT      -0.834000       15.9994           0
     72836 TIP3     11147    TIP3     H1       HT       0.417000       1.00800           0
     72837 TIP3     11147    TIP3     H2       HT       0.417000       1.00800           0
     72838 TIP3     11148    TIP3     OH2      OT      -0.834000       15.9994           0
     72839 TIP3     11148    TIP3     H1       HT       0.417000       1.00800           0
     72840 TIP3     11148    TIP3     H2       HT       0.417000       1.00800           0
     72841 TIP3     11149    TIP3     OH2      OT      -0.834000       15.9994           0
     72842 TIP3     11149    TIP3     H1       HT       0.417000       1.00800           0
     72843 TIP3     11149    TIP3     H2       HT       0.417000       1.00800           0
     72844 TIP3     11150    TIP3     OH2      OT      -0.834000       15.9994           0
     72845 TIP3     11150    TIP3     H1       HT       0.417000       1.00800           0
     72846 TIP3     11150    TIP3     H2       HT       0.417000       1.00800           0
     72847 TIP3     11151    TIP3     OH2      OT      -0.834000       15.9994           0
     72848 TIP3     11151    TIP3     H1       HT       0.417000       1.00800           0
     72849 TIP3     11151    TIP3     H2       HT       0.417000       1.00800           0
     72850 TIP3     11152    TIP3     OH2      OT      -0.834000       15.9994           0
     72851 TIP3     11152    TIP3     H1       HT       0.417000       1.00800           0
     72852 TIP3     11152    TIP3     H2       HT       0.417000       1.00800           0
     72853 TIP3     11153    TIP3     OH2      OT      -0.834000       15.9994           0
     72854 TIP3     11153    TIP3     H1       HT       0.417000       1.00800           0
     72855 TIP3     11153    TIP3     H2       HT       0.417000       1.00800           0
     72856 TIP3     11154    TIP3     OH2      OT      -0.834000       15.9994           0
     72857 TIP3     11154    TIP3     H1       HT       0.417000       1.00800           0
     72858 TIP3     11154    TIP3     H2       HT       0.417000       1.00800           0
     72859 TIP3     11155    TIP3     OH2      OT      -0.834000       15.9994           0
     72860 TIP3     11155    TIP3     H1       HT       0.417000       1.00800           0
     72861 TIP3     11155    TIP3     H2       HT       0.417000       1.00800           0
     72862 TIP3     11156    TIP3     OH2      OT      -0.834000       15.9994           0
     72863 TIP3     11156    TIP3     H1       HT       0.417000       1.00800           0
     72864 TIP3     11156    TIP3     H2       HT       0.417000       1.00800           0
     72865 TIP3     11157    TIP3     OH2      OT      -0.834000       15.9994           0
     72866 TIP3     11157    TIP3     H1       HT       0.417000       1.00800           0
     72867 TIP3     11157    TIP3     H2       HT       0.417000       1.00800           0
     72868 TIP3     11158    TIP3     OH2      OT      -0.834000       15.9994           0
     72869 TIP3     11158    TIP3     H1       HT       0.417000       1.00800           0
     72870 TIP3     11158    TIP3     H2       HT       0.417000       1.00800           0
     72871 TIP3     11159    TIP3     OH2      OT      -0.834000       15.9994           0
     72872 TIP3     11159    TIP3     H1       HT       0.417000       1.00800           0
     72873 TIP3     11159    TIP3     H2       HT       0.417000       1.00800           0
     72874 TIP3     11160    TIP3     OH2      OT      -0.834000       15.9994           0
     72875 TIP3     11160    TIP3     H1       HT       0.417000       1.00800           0
     72876 TIP3     11160    TIP3     H2       HT       0.417000       1.00800           0
     72877 TIP3     11161    TIP3     OH2      OT      -0.834000       15.9994           0
     72878 TIP3     11161    TIP3     H1       HT       0.417000       1.00800           0
     72879 TIP3     11161    TIP3     H2       HT       0.417000       1.00800           0
     72880 TIP3     11162    TIP3     OH2      OT      -0.834000       15.9994           0
     72881 TIP3     11162    TIP3     H1       HT       0.417000       1.00800           0
     72882 TIP3     11162    TIP3     H2       HT       0.417000       1.00800           0
     72883 TIP3     11163    TIP3     OH2      OT      -0.834000       15.9994           0
     72884 TIP3     11163    TIP3     H1       HT       0.417000       1.00800           0
     72885 TIP3     11163    TIP3     H2       HT       0.417000       1.00800           0
     72886 TIP3     11164    TIP3     OH2      OT      -0.834000       15.9994           0
     72887 TIP3     11164    TIP3     H1       HT       0.417000       1.00800           0
     72888 TIP3     11164    TIP3     H2       HT       0.417000       1.00800           0
     72889 TIP3     11165    TIP3     OH2      OT      -0.834000       15.9994           0
     72890 TIP3     11165    TIP3     H1       HT       0.417000       1.00800           0
     72891 TIP3     11165    TIP3     H2       HT       0.417000       1.00800           0
     72892 TIP3     11166    TIP3     OH2      OT      -0.834000       15.9994           0
     72893 TIP3     11166    TIP3     H1       HT       0.417000       1.00800           0
     72894 TIP3     11166    TIP3     H2       HT       0.417000       1.00800           0
     72895 TIP3     11167    TIP3     OH2      OT      -0.834000       15.9994           0
     72896 TIP3     11167    TIP3     H1       HT       0.417000       1.00800           0
     72897 TIP3     11167    TIP3     H2       HT       0.417000       1.00800           0
     72898 TIP3     11168    TIP3     OH2      OT      -0.834000       15.9994           0
     72899 TIP3     11168    TIP3     H1       HT       0.417000       1.00800           0
     72900 TIP3     11168    TIP3     H2       HT       0.417000       1.00800           0
     72901 TIP3     11169    TIP3     OH2      OT      -0.834000       15.9994           0
     72902 TIP3     11169    TIP3     H1       HT       0.417000       1.00800           0
     72903 TIP3     11169    TIP3     H2       HT       0.417000       1.00800           0
     72904 TIP3     11170    TIP3     OH2      OT      -0.834000       15.9994           0
     72905 TIP3     11170    TIP3     H1       HT       0.417000       1.00800           0
     72906 TIP3     11170    TIP3     H2       HT       0.417000       1.00800           0
     72907 TIP3     11171    TIP3     OH2      OT      -0.834000       15.9994           0
     72908 TIP3     11171    TIP3     H1       HT       0.417000       1.00800           0
     72909 TIP3     11171    TIP3     H2       HT       0.417000       1.00800           0
     72910 TIP3     11172    TIP3     OH2      OT      -0.834000       15.9994           0
     72911 TIP3     11172    TIP3     H1       HT       0.417000       1.00800           0
     72912 TIP3     11172    TIP3     H2       HT       0.417000       1.00800           0
     72913 TIP3     11173    TIP3     OH2      OT      -0.834000       15.9994           0
     72914 TIP3     11173    TIP3     H1       HT       0.417000       1.00800           0
     72915 TIP3     11173    TIP3     H2       HT       0.417000       1.00800           0
     72916 TIP3     11174    TIP3     OH2      OT      -0.834000       15.9994           0
     72917 TIP3     11174    TIP3     H1       HT       0.417000       1.00800           0
     72918 TIP3     11174    TIP3     H2       HT       0.417000       1.00800           0
     72919 TIP3     11175    TIP3     OH2      OT      -0.834000       15.9994           0
     72920 TIP3     11175    TIP3     H1       HT       0.417000       1.00800           0
     72921 TIP3     11175    TIP3     H2       HT       0.417000       1.00800           0
     72922 TIP3     11176    TIP3     OH2      OT      -0.834000       15.9994           0
     72923 TIP3     11176    TIP3     H1       HT       0.417000       1.00800           0
     72924 TIP3     11176    TIP3     H2       HT       0.417000       1.00800           0
     72925 TIP3     11177    TIP3     OH2      OT      -0.834000       15.9994           0
     72926 TIP3     11177    TIP3     H1       HT       0.417000       1.00800           0
     72927 TIP3     11177    TIP3     H2       HT       0.417000       1.00800           0
     72928 TIP3     11178    TIP3     OH2      OT      -0.834000       15.9994           0
     72929 TIP3     11178    TIP3     H1       HT       0.417000       1.00800           0
     72930 TIP3     11178    TIP3     H2       HT       0.417000       1.00800           0
     72931 TIP3     11179    TIP3     OH2      OT      -0.834000       15.9994           0
     72932 TIP3     11179    TIP3     H1       HT       0.417000       1.00800           0
     72933 TIP3     11179    TIP3     H2       HT       0.417000       1.00800           0
     72934 TIP3     11180    TIP3     OH2      OT      -0.834000       15.9994           0
     72935 TIP3     11180    TIP3     H1       HT       0.417000       1.00800           0
     72936 TIP3     11180    TIP3     H2       HT       0.417000       1.00800           0
     72937 TIP3     11181    TIP3     OH2      OT      -0.834000       15.9994           0
     72938 TIP3     11181    TIP3     H1       HT       0.417000       1.00800           0
     72939 TIP3     11181    TIP3     H2       HT       0.417000       1.00800           0
     72940 TIP3     11182    TIP3     OH2      OT      -0.834000       15.9994           0
     72941 TIP3     11182    TIP3     H1       HT       0.417000       1.00800           0
     72942 TIP3     11182    TIP3     H2       HT       0.417000       1.00800           0
     72943 TIP3     11183    TIP3     OH2      OT      -0.834000       15.9994           0
     72944 TIP3     11183    TIP3     H1       HT       0.417000       1.00800           0
     72945 TIP3     11183    TIP3     H2       HT       0.417000       1.00800           0
     72946 TIP3     11184    TIP3     OH2      OT      -0.834000       15.9994           0
     72947 TIP3     11184    TIP3     H1       HT       0.417000       1.00800           0
     72948 TIP3     11184    TIP3     H2       HT       0.417000       1.00800           0
     72949 TIP3     11185    TIP3     OH2      OT      -0.834000       15.9994           0
     72950 TIP3     11185    TIP3     H1       HT       0.417000       1.00800           0
     72951 TIP3     11185    TIP3     H2       HT       0.417000       1.00800           0
     72952 TIP3     11186    TIP3     OH2      OT      -0.834000       15.9994           0
     72953 TIP3     11186    TIP3     H1       HT       0.417000       1.00800           0
     72954 TIP3     11186    TIP3     H2       HT       0.417000       1.00800           0
     72955 TIP3     11187    TIP3     OH2      OT      -0.834000       15.9994           0
     72956 TIP3     11187    TIP3     H1       HT       0.417000       1.00800           0
     72957 TIP3     11187    TIP3     H2       HT       0.417000       1.00800           0
     72958 TIP3     11188    TIP3     OH2      OT      -0.834000       15.9994           0
     72959 TIP3     11188    TIP3     H1       HT       0.417000       1.00800           0
     72960 TIP3     11188    TIP3     H2       HT       0.417000       1.00800           0
     72961 TIP3     11189    TIP3     OH2      OT      -0.834000       15.9994           0
     72962 TIP3     11189    TIP3     H1       HT       0.417000       1.00800           0
     72963 TIP3     11189    TIP3     H2       HT       0.417000       1.00800           0
     72964 TIP3     11190    TIP3     OH2      OT      -0.834000       15.9994           0
     72965 TIP3     11190    TIP3     H1       HT       0.417000       1.00800           0
     72966 TIP3     11190    TIP3     H2       HT       0.417000       1.00800           0
     72967 TIP3     11191    TIP3     OH2      OT      -0.834000       15.9994           0
     72968 TIP3     11191    TIP3     H1       HT       0.417000       1.00800           0
     72969 TIP3     11191    TIP3     H2       HT       0.417000       1.00800           0
     72970 TIP3     11192    TIP3     OH2      OT      -0.834000       15.9994           0
     72971 TIP3     11192    TIP3     H1       HT       0.417000       1.00800           0
     72972 TIP3     11192    TIP3     H2       HT       0.417000       1.00800           0
     72973 TIP3     11193    TIP3     OH2      OT      -0.834000       15.9994           0
     72974 TIP3     11193    TIP3     H1       HT       0.417000       1.00800           0
     72975 TIP3     11193    TIP3     H2       HT       0.417000       1.00800           0
     72976 TIP3     11194    TIP3     OH2      OT      -0.834000       15.9994           0
     72977 TIP3     11194    TIP3     H1       HT       0.417000       1.00800           0
     72978 TIP3     11194    TIP3     H2       HT       0.417000       1.00800           0
     72979 TIP3     11195    TIP3     OH2      OT      -0.834000       15.9994           0
     72980 TIP3     11195    TIP3     H1       HT       0.417000       1.00800           0
     72981 TIP3     11195    TIP3     H2       HT       0.417000       1.00800           0
     72982 TIP3     11196    TIP3     OH2      OT      -0.834000       15.9994           0
     72983 TIP3     11196    TIP3     H1       HT       0.417000       1.00800           0
     72984 TIP3     11196    TIP3     H2       HT       0.417000       1.00800           0
     72985 TIP3     11197    TIP3     OH2      OT      -0.834000       15.9994           0
     72986 TIP3     11197    TIP3     H1       HT       0.417000       1.00800           0
     72987 TIP3     11197    TIP3     H2       HT       0.417000       1.00800           0
     72988 TIP3     11198    TIP3     OH2      OT      -0.834000       15.9994           0
     72989 TIP3     11198    TIP3     H1       HT       0.417000       1.00800           0
     72990 TIP3     11198    TIP3     H2       HT       0.417000       1.00800           0
     72991 TIP3     11199    TIP3     OH2      OT      -0.834000       15.9994           0
     72992 TIP3     11199    TIP3     H1       HT       0.417000       1.00800           0
     72993 TIP3     11199    TIP3     H2       HT       0.417000       1.00800           0
     72994 TIP3     11200    TIP3     OH2      OT      -0.834000       15.9994           0
     72995 TIP3     11200    TIP3     H1       HT       0.417000       1.00800           0
     72996 TIP3     11200    TIP3     H2       HT       0.417000       1.00800           0
     72997 TIP3     11201    TIP3     OH2      OT      -0.834000       15.9994           0
     72998 TIP3     11201    TIP3     H1       HT       0.417000       1.00800           0
     72999 TIP3     11201    TIP3     H2       HT       0.417000       1.00800           0
     73000 TIP3     11202    TIP3     OH2      OT      -0.834000       15.9994           0
     73001 TIP3     11202    TIP3     H1       HT       0.417000       1.00800           0
     73002 TIP3     11202    TIP3     H2       HT       0.417000       1.00800           0
     73003 TIP3     11203    TIP3     OH2      OT      -0.834000       15.9994           0
     73004 TIP3     11203    TIP3     H1       HT       0.417000       1.00800           0
     73005 TIP3     11203    TIP3     H2       HT       0.417000       1.00800           0
     73006 TIP3     11204    TIP3     OH2      OT      -0.834000       15.9994           0
     73007 TIP3     11204    TIP3     H1       HT       0.417000       1.00800           0
     73008 TIP3     11204    TIP3     H2       HT       0.417000       1.00800           0
     73009 TIP3     11205    TIP3     OH2      OT      -0.834000       15.9994           0
     73010 TIP3     11205    TIP3     H1       HT       0.417000       1.00800           0
     73011 TIP3     11205    TIP3     H2       HT       0.417000       1.00800           0
     73012 TIP3     11206    TIP3     OH2      OT      -0.834000       15.9994           0
     73013 TIP3     11206    TIP3     H1       HT       0.417000       1.00800           0
     73014 TIP3     11206    TIP3     H2       HT       0.417000       1.00800           0
     73015 TIP3     11207    TIP3     OH2      OT      -0.834000       15.9994           0
     73016 TIP3     11207    TIP3     H1       HT       0.417000       1.00800           0
     73017 TIP3     11207    TIP3     H2       HT       0.417000       1.00800           0
     73018 TIP3     11208    TIP3     OH2      OT      -0.834000       15.9994           0
     73019 TIP3     11208    TIP3     H1       HT       0.417000       1.00800           0
     73020 TIP3     11208    TIP3     H2       HT       0.417000       1.00800           0
     73021 TIP3     11209    TIP3     OH2      OT      -0.834000       15.9994           0
     73022 TIP3     11209    TIP3     H1       HT       0.417000       1.00800           0
     73023 TIP3     11209    TIP3     H2       HT       0.417000       1.00800           0
     73024 TIP3     11210    TIP3     OH2      OT      -0.834000       15.9994           0
     73025 TIP3     11210    TIP3     H1       HT       0.417000       1.00800           0
     73026 TIP3     11210    TIP3     H2       HT       0.417000       1.00800           0
     73027 TIP3     11211    TIP3     OH2      OT      -0.834000       15.9994           0
     73028 TIP3     11211    TIP3     H1       HT       0.417000       1.00800           0
     73029 TIP3     11211    TIP3     H2       HT       0.417000       1.00800           0
     73030 TIP3     11212    TIP3     OH2      OT      -0.834000       15.9994           0
     73031 TIP3     11212    TIP3     H1       HT       0.417000       1.00800           0
     73032 TIP3     11212    TIP3     H2       HT       0.417000       1.00800           0
     73033 TIP3     11213    TIP3     OH2      OT      -0.834000       15.9994           0
     73034 TIP3     11213    TIP3     H1       HT       0.417000       1.00800           0
     73035 TIP3     11213    TIP3     H2       HT       0.417000       1.00800           0
     73036 TIP3     11214    TIP3     OH2      OT      -0.834000       15.9994           0
     73037 TIP3     11214    TIP3     H1       HT       0.417000       1.00800           0
     73038 TIP3     11214    TIP3     H2       HT       0.417000       1.00800           0
     73039 TIP3     11215    TIP3     OH2      OT      -0.834000       15.9994           0
     73040 TIP3     11215    TIP3     H1       HT       0.417000       1.00800           0
     73041 TIP3     11215    TIP3     H2       HT       0.417000       1.00800           0
     73042 TIP3     11216    TIP3     OH2      OT      -0.834000       15.9994           0
     73043 TIP3     11216    TIP3     H1       HT       0.417000       1.00800           0
     73044 TIP3     11216    TIP3     H2       HT       0.417000       1.00800           0
     73045 TIP3     11217    TIP3     OH2      OT      -0.834000       15.9994           0
     73046 TIP3     11217    TIP3     H1       HT       0.417000       1.00800           0
     73047 TIP3     11217    TIP3     H2       HT       0.417000       1.00800           0
     73048 TIP3     11218    TIP3     OH2      OT      -0.834000       15.9994           0
     73049 TIP3     11218    TIP3     H1       HT       0.417000       1.00800           0
     73050 TIP3     11218    TIP3     H2       HT       0.417000       1.00800           0
     73051 TIP3     11219    TIP3     OH2      OT      -0.834000       15.9994           0
     73052 TIP3     11219    TIP3     H1       HT       0.417000       1.00800           0
     73053 TIP3     11219    TIP3     H2       HT       0.417000       1.00800           0
     73054 TIP3     11220    TIP3     OH2      OT      -0.834000       15.9994           0
     73055 TIP3     11220    TIP3     H1       HT       0.417000       1.00800           0
     73056 TIP3     11220    TIP3     H2       HT       0.417000       1.00800           0
     73057 TIP3     11221    TIP3     OH2      OT      -0.834000       15.9994           0
     73058 TIP3     11221    TIP3     H1       HT       0.417000       1.00800           0
     73059 TIP3     11221    TIP3     H2       HT       0.417000       1.00800           0
     73060 TIP3     11222    TIP3     OH2      OT      -0.834000       15.9994           0
     73061 TIP3     11222    TIP3     H1       HT       0.417000       1.00800           0
     73062 TIP3     11222    TIP3     H2       HT       0.417000       1.00800           0
     73063 TIP3     11223    TIP3     OH2      OT      -0.834000       15.9994           0
     73064 TIP3     11223    TIP3     H1       HT       0.417000       1.00800           0
     73065 TIP3     11223    TIP3     H2       HT       0.417000       1.00800           0
     73066 TIP3     11224    TIP3     OH2      OT      -0.834000       15.9994           0
     73067 TIP3     11224    TIP3     H1       HT       0.417000       1.00800           0
     73068 TIP3     11224    TIP3     H2       HT       0.417000       1.00800           0
     73069 TIP3     11225    TIP3     OH2      OT      -0.834000       15.9994           0
     73070 TIP3     11225    TIP3     H1       HT       0.417000       1.00800           0
     73071 TIP3     11225    TIP3     H2       HT       0.417000       1.00800           0
     73072 TIP3     11226    TIP3     OH2      OT      -0.834000       15.9994           0
     73073 TIP3     11226    TIP3     H1       HT       0.417000       1.00800           0
     73074 TIP3     11226    TIP3     H2       HT       0.417000       1.00800           0
     73075 TIP3     11227    TIP3     OH2      OT      -0.834000       15.9994           0
     73076 TIP3     11227    TIP3     H1       HT       0.417000       1.00800           0
     73077 TIP3     11227    TIP3     H2       HT       0.417000       1.00800           0
     73078 TIP3     11228    TIP3     OH2      OT      -0.834000       15.9994           0
     73079 TIP3     11228    TIP3     H1       HT       0.417000       1.00800           0
     73080 TIP3     11228    TIP3     H2       HT       0.417000       1.00800           0
     73081 TIP3     11229    TIP3     OH2      OT      -0.834000       15.9994           0
     73082 TIP3     11229    TIP3     H1       HT       0.417000       1.00800           0
     73083 TIP3     11229    TIP3     H2       HT       0.417000       1.00800           0
     73084 TIP3     11230    TIP3     OH2      OT      -0.834000       15.9994           0
     73085 TIP3     11230    TIP3     H1       HT       0.417000       1.00800           0
     73086 TIP3     11230    TIP3     H2       HT       0.417000       1.00800           0
     73087 TIP3     11231    TIP3     OH2      OT      -0.834000       15.9994           0
     73088 TIP3     11231    TIP3     H1       HT       0.417000       1.00800           0
     73089 TIP3     11231    TIP3     H2       HT       0.417000       1.00800           0
     73090 TIP3     11232    TIP3     OH2      OT      -0.834000       15.9994           0
     73091 TIP3     11232    TIP3     H1       HT       0.417000       1.00800           0
     73092 TIP3     11232    TIP3     H2       HT       0.417000       1.00800           0
     73093 TIP3     11233    TIP3     OH2      OT      -0.834000       15.9994           0
     73094 TIP3     11233    TIP3     H1       HT       0.417000       1.00800           0
     73095 TIP3     11233    TIP3     H2       HT       0.417000       1.00800           0
     73096 TIP3     11234    TIP3     OH2      OT      -0.834000       15.9994           0
     73097 TIP3     11234    TIP3     H1       HT       0.417000       1.00800           0
     73098 TIP3     11234    TIP3     H2       HT       0.417000       1.00800           0
     73099 TIP3     11235    TIP3     OH2      OT      -0.834000       15.9994           0
     73100 TIP3     11235    TIP3     H1       HT       0.417000       1.00800           0
     73101 TIP3     11235    TIP3     H2       HT       0.417000       1.00800           0
     73102 TIP3     11236    TIP3     OH2      OT      -0.834000       15.9994           0
     73103 TIP3     11236    TIP3     H1       HT       0.417000       1.00800           0
     73104 TIP3     11236    TIP3     H2       HT       0.417000       1.00800           0
     73105 TIP3     11237    TIP3     OH2      OT      -0.834000       15.9994           0
     73106 TIP3     11237    TIP3     H1       HT       0.417000       1.00800           0
     73107 TIP3     11237    TIP3     H2       HT       0.417000       1.00800           0
     73108 TIP3     11238    TIP3     OH2      OT      -0.834000       15.9994           0
     73109 TIP3     11238    TIP3     H1       HT       0.417000       1.00800           0
     73110 TIP3     11238    TIP3     H2       HT       0.417000       1.00800           0
     73111 TIP3     11239    TIP3     OH2      OT      -0.834000       15.9994           0
     73112 TIP3     11239    TIP3     H1       HT       0.417000       1.00800           0
     73113 TIP3     11239    TIP3     H2       HT       0.417000       1.00800           0
     73114 TIP3     11240    TIP3     OH2      OT      -0.834000       15.9994           0
     73115 TIP3     11240    TIP3     H1       HT       0.417000       1.00800           0
     73116 TIP3     11240    TIP3     H2       HT       0.417000       1.00800           0
     73117 TIP3     11241    TIP3     OH2      OT      -0.834000       15.9994           0
     73118 TIP3     11241    TIP3     H1       HT       0.417000       1.00800           0
     73119 TIP3     11241    TIP3     H2       HT       0.417000       1.00800           0
     73120 TIP3     11242    TIP3     OH2      OT      -0.834000       15.9994           0
     73121 TIP3     11242    TIP3     H1       HT       0.417000       1.00800           0
     73122 TIP3     11242    TIP3     H2       HT       0.417000       1.00800           0
     73123 TIP3     11243    TIP3     OH2      OT      -0.834000       15.9994           0
     73124 TIP3     11243    TIP3     H1       HT       0.417000       1.00800           0
     73125 TIP3     11243    TIP3     H2       HT       0.417000       1.00800           0
     73126 TIP3     11244    TIP3     OH2      OT      -0.834000       15.9994           0
     73127 TIP3     11244    TIP3     H1       HT       0.417000       1.00800           0
     73128 TIP3     11244    TIP3     H2       HT       0.417000       1.00800           0
     73129 TIP3     11245    TIP3     OH2      OT      -0.834000       15.9994           0
     73130 TIP3     11245    TIP3     H1       HT       0.417000       1.00800           0
     73131 TIP3     11245    TIP3     H2       HT       0.417000       1.00800           0
     73132 TIP3     11246    TIP3     OH2      OT      -0.834000       15.9994           0
     73133 TIP3     11246    TIP3     H1       HT       0.417000       1.00800           0
     73134 TIP3     11246    TIP3     H2       HT       0.417000       1.00800           0
     73135 TIP3     11247    TIP3     OH2      OT      -0.834000       15.9994           0
     73136 TIP3     11247    TIP3     H1       HT       0.417000       1.00800           0
     73137 TIP3     11247    TIP3     H2       HT       0.417000       1.00800           0
     73138 TIP3     11248    TIP3     OH2      OT      -0.834000       15.9994           0
     73139 TIP3     11248    TIP3     H1       HT       0.417000       1.00800           0
     73140 TIP3     11248    TIP3     H2       HT       0.417000       1.00800           0
     73141 TIP3     11249    TIP3     OH2      OT      -0.834000       15.9994           0
     73142 TIP3     11249    TIP3     H1       HT       0.417000       1.00800           0
     73143 TIP3     11249    TIP3     H2       HT       0.417000       1.00800           0
     73144 TIP3     11250    TIP3     OH2      OT      -0.834000       15.9994           0
     73145 TIP3     11250    TIP3     H1       HT       0.417000       1.00800           0
     73146 TIP3     11250    TIP3     H2       HT       0.417000       1.00800           0
     73147 TIP3     11251    TIP3     OH2      OT      -0.834000       15.9994           0
     73148 TIP3     11251    TIP3     H1       HT       0.417000       1.00800           0
     73149 TIP3     11251    TIP3     H2       HT       0.417000       1.00800           0
     73150 TIP3     11252    TIP3     OH2      OT      -0.834000       15.9994           0
     73151 TIP3     11252    TIP3     H1       HT       0.417000       1.00800           0
     73152 TIP3     11252    TIP3     H2       HT       0.417000       1.00800           0
     73153 TIP3     11253    TIP3     OH2      OT      -0.834000       15.9994           0
     73154 TIP3     11253    TIP3     H1       HT       0.417000       1.00800           0
     73155 TIP3     11253    TIP3     H2       HT       0.417000       1.00800           0
     73156 TIP3     11254    TIP3     OH2      OT      -0.834000       15.9994           0
     73157 TIP3     11254    TIP3     H1       HT       0.417000       1.00800           0
     73158 TIP3     11254    TIP3     H2       HT       0.417000       1.00800           0
     73159 TIP3     11255    TIP3     OH2      OT      -0.834000       15.9994           0
     73160 TIP3     11255    TIP3     H1       HT       0.417000       1.00800           0
     73161 TIP3     11255    TIP3     H2       HT       0.417000       1.00800           0
     73162 TIP3     11256    TIP3     OH2      OT      -0.834000       15.9994           0
     73163 TIP3     11256    TIP3     H1       HT       0.417000       1.00800           0
     73164 TIP3     11256    TIP3     H2       HT       0.417000       1.00800           0
     73165 TIP3     11257    TIP3     OH2      OT      -0.834000       15.9994           0
     73166 TIP3     11257    TIP3     H1       HT       0.417000       1.00800           0
     73167 TIP3     11257    TIP3     H2       HT       0.417000       1.00800           0
     73168 TIP3     11258    TIP3     OH2      OT      -0.834000       15.9994           0
     73169 TIP3     11258    TIP3     H1       HT       0.417000       1.00800           0
     73170 TIP3     11258    TIP3     H2       HT       0.417000       1.00800           0
     73171 TIP3     11259    TIP3     OH2      OT      -0.834000       15.9994           0
     73172 TIP3     11259    TIP3     H1       HT       0.417000       1.00800           0
     73173 TIP3     11259    TIP3     H2       HT       0.417000       1.00800           0
     73174 TIP3     11260    TIP3     OH2      OT      -0.834000       15.9994           0
     73175 TIP3     11260    TIP3     H1       HT       0.417000       1.00800           0
     73176 TIP3     11260    TIP3     H2       HT       0.417000       1.00800           0
     73177 TIP3     11261    TIP3     OH2      OT      -0.834000       15.9994           0
     73178 TIP3     11261    TIP3     H1       HT       0.417000       1.00800           0
     73179 TIP3     11261    TIP3     H2       HT       0.417000       1.00800           0
     73180 TIP3     11262    TIP3     OH2      OT      -0.834000       15.9994           0
     73181 TIP3     11262    TIP3     H1       HT       0.417000       1.00800           0
     73182 TIP3     11262    TIP3     H2       HT       0.417000       1.00800           0
     73183 TIP3     11263    TIP3     OH2      OT      -0.834000       15.9994           0
     73184 TIP3     11263    TIP3     H1       HT       0.417000       1.00800           0
     73185 TIP3     11263    TIP3     H2       HT       0.417000       1.00800           0
     73186 TIP3     11264    TIP3     OH2      OT      -0.834000       15.9994           0
     73187 TIP3     11264    TIP3     H1       HT       0.417000       1.00800           0
     73188 TIP3     11264    TIP3     H2       HT       0.417000       1.00800           0
     73189 TIP3     11265    TIP3     OH2      OT      -0.834000       15.9994           0
     73190 TIP3     11265    TIP3     H1       HT       0.417000       1.00800           0
     73191 TIP3     11265    TIP3     H2       HT       0.417000       1.00800           0
     73192 TIP3     11266    TIP3     OH2      OT      -0.834000       15.9994           0
     73193 TIP3     11266    TIP3     H1       HT       0.417000       1.00800           0
     73194 TIP3     11266    TIP3     H2       HT       0.417000       1.00800           0
     73195 TIP3     11267    TIP3     OH2      OT      -0.834000       15.9994           0
     73196 TIP3     11267    TIP3     H1       HT       0.417000       1.00800           0
     73197 TIP3     11267    TIP3     H2       HT       0.417000       1.00800           0
     73198 TIP3     11268    TIP3     OH2      OT      -0.834000       15.9994           0
     73199 TIP3     11268    TIP3     H1       HT       0.417000       1.00800           0
     73200 TIP3     11268    TIP3     H2       HT       0.417000       1.00800           0
     73201 TIP3     11269    TIP3     OH2      OT      -0.834000       15.9994           0
     73202 TIP3     11269    TIP3     H1       HT       0.417000       1.00800           0
     73203 TIP3     11269    TIP3     H2       HT       0.417000       1.00800           0
     73204 TIP3     11270    TIP3     OH2      OT      -0.834000       15.9994           0
     73205 TIP3     11270    TIP3     H1       HT       0.417000       1.00800           0
     73206 TIP3     11270    TIP3     H2       HT       0.417000       1.00800           0
     73207 TIP3     11271    TIP3     OH2      OT      -0.834000       15.9994           0
     73208 TIP3     11271    TIP3     H1       HT       0.417000       1.00800           0
     73209 TIP3     11271    TIP3     H2       HT       0.417000       1.00800           0
     73210 TIP3     11272    TIP3     OH2      OT      -0.834000       15.9994           0
     73211 TIP3     11272    TIP3     H1       HT       0.417000       1.00800           0
     73212 TIP3     11272    TIP3     H2       HT       0.417000       1.00800           0
     73213 TIP3     11273    TIP3     OH2      OT      -0.834000       15.9994           0
     73214 TIP3     11273    TIP3     H1       HT       0.417000       1.00800           0
     73215 TIP3     11273    TIP3     H2       HT       0.417000       1.00800           0
     73216 TIP3     11274    TIP3     OH2      OT      -0.834000       15.9994           0
     73217 TIP3     11274    TIP3     H1       HT       0.417000       1.00800           0
     73218 TIP3     11274    TIP3     H2       HT       0.417000       1.00800           0
     73219 TIP3     11275    TIP3     OH2      OT      -0.834000       15.9994           0
     73220 TIP3     11275    TIP3     H1       HT       0.417000       1.00800           0
     73221 TIP3     11275    TIP3     H2       HT       0.417000       1.00800           0
     73222 TIP3     11276    TIP3     OH2      OT      -0.834000       15.9994           0
     73223 TIP3     11276    TIP3     H1       HT       0.417000       1.00800           0
     73224 TIP3     11276    TIP3     H2       HT       0.417000       1.00800           0
     73225 TIP3     11277    TIP3     OH2      OT      -0.834000       15.9994           0
     73226 TIP3     11277    TIP3     H1       HT       0.417000       1.00800           0
     73227 TIP3     11277    TIP3     H2       HT       0.417000       1.00800           0
     73228 TIP3     11278    TIP3     OH2      OT      -0.834000       15.9994           0
     73229 TIP3     11278    TIP3     H1       HT       0.417000       1.00800           0
     73230 TIP3     11278    TIP3     H2       HT       0.417000       1.00800           0
     73231 TIP3     11279    TIP3     OH2      OT      -0.834000       15.9994           0
     73232 TIP3     11279    TIP3     H1       HT       0.417000       1.00800           0
     73233 TIP3     11279    TIP3     H2       HT       0.417000       1.00800           0
     73234 TIP3     11280    TIP3     OH2      OT      -0.834000       15.9994           0
     73235 TIP3     11280    TIP3     H1       HT       0.417000       1.00800           0
     73236 TIP3     11280    TIP3     H2       HT       0.417000       1.00800           0
     73237 TIP3     11281    TIP3     OH2      OT      -0.834000       15.9994           0
     73238 TIP3     11281    TIP3     H1       HT       0.417000       1.00800           0
     73239 TIP3     11281    TIP3     H2       HT       0.417000       1.00800           0
     73240 TIP3     11282    TIP3     OH2      OT      -0.834000       15.9994           0
     73241 TIP3     11282    TIP3     H1       HT       0.417000       1.00800           0
     73242 TIP3     11282    TIP3     H2       HT       0.417000       1.00800           0
     73243 TIP3     11283    TIP3     OH2      OT      -0.834000       15.9994           0
     73244 TIP3     11283    TIP3     H1       HT       0.417000       1.00800           0
     73245 TIP3     11283    TIP3     H2       HT       0.417000       1.00800           0
     73246 TIP3     11284    TIP3     OH2      OT      -0.834000       15.9994           0
     73247 TIP3     11284    TIP3     H1       HT       0.417000       1.00800           0
     73248 TIP3     11284    TIP3     H2       HT       0.417000       1.00800           0
     73249 TIP3     11285    TIP3     OH2      OT      -0.834000       15.9994           0
     73250 TIP3     11285    TIP3     H1       HT       0.417000       1.00800           0
     73251 TIP3     11285    TIP3     H2       HT       0.417000       1.00800           0
     73252 TIP3     11286    TIP3     OH2      OT      -0.834000       15.9994           0
     73253 TIP3     11286    TIP3     H1       HT       0.417000       1.00800           0
     73254 TIP3     11286    TIP3     H2       HT       0.417000       1.00800           0
     73255 TIP3     11287    TIP3     OH2      OT      -0.834000       15.9994           0
     73256 TIP3     11287    TIP3     H1       HT       0.417000       1.00800           0
     73257 TIP3     11287    TIP3     H2       HT       0.417000       1.00800           0
     73258 TIP3     11288    TIP3     OH2      OT      -0.834000       15.9994           0
     73259 TIP3     11288    TIP3     H1       HT       0.417000       1.00800           0
     73260 TIP3     11288    TIP3     H2       HT       0.417000       1.00800           0
     73261 TIP3     11289    TIP3     OH2      OT      -0.834000       15.9994           0
     73262 TIP3     11289    TIP3     H1       HT       0.417000       1.00800           0
     73263 TIP3     11289    TIP3     H2       HT       0.417000       1.00800           0
     73264 TIP3     11290    TIP3     OH2      OT      -0.834000       15.9994           0
     73265 TIP3     11290    TIP3     H1       HT       0.417000       1.00800           0
     73266 TIP3     11290    TIP3     H2       HT       0.417000       1.00800           0
     73267 TIP3     11291    TIP3     OH2      OT      -0.834000       15.9994           0
     73268 TIP3     11291    TIP3     H1       HT       0.417000       1.00800           0
     73269 TIP3     11291    TIP3     H2       HT       0.417000       1.00800           0
     73270 TIP3     11292    TIP3     OH2      OT      -0.834000       15.9994           0
     73271 TIP3     11292    TIP3     H1       HT       0.417000       1.00800           0
     73272 TIP3     11292    TIP3     H2       HT       0.417000       1.00800           0
     73273 TIP3     11293    TIP3     OH2      OT      -0.834000       15.9994           0
     73274 TIP3     11293    TIP3     H1       HT       0.417000       1.00800           0
     73275 TIP3     11293    TIP3     H2       HT       0.417000       1.00800           0
     73276 TIP3     11294    TIP3     OH2      OT      -0.834000       15.9994           0
     73277 TIP3     11294    TIP3     H1       HT       0.417000       1.00800           0
     73278 TIP3     11294    TIP3     H2       HT       0.417000       1.00800           0
     73279 TIP3     11295    TIP3     OH2      OT      -0.834000       15.9994           0
     73280 TIP3     11295    TIP3     H1       HT       0.417000       1.00800           0
     73281 TIP3     11295    TIP3     H2       HT       0.417000       1.00800           0
     73282 TIP3     11296    TIP3     OH2      OT      -0.834000       15.9994           0
     73283 TIP3     11296    TIP3     H1       HT       0.417000       1.00800           0
     73284 TIP3     11296    TIP3     H2       HT       0.417000       1.00800           0
     73285 TIP3     11297    TIP3     OH2      OT      -0.834000       15.9994           0
     73286 TIP3     11297    TIP3     H1       HT       0.417000       1.00800           0
     73287 TIP3     11297    TIP3     H2       HT       0.417000       1.00800           0
     73288 TIP3     11298    TIP3     OH2      OT      -0.834000       15.9994           0
     73289 TIP3     11298    TIP3     H1       HT       0.417000       1.00800           0
     73290 TIP3     11298    TIP3     H2       HT       0.417000       1.00800           0
     73291 TIP3     11299    TIP3     OH2      OT      -0.834000       15.9994           0
     73292 TIP3     11299    TIP3     H1       HT       0.417000       1.00800           0
     73293 TIP3     11299    TIP3     H2       HT       0.417000       1.00800           0
     73294 TIP3     11300    TIP3     OH2      OT      -0.834000       15.9994           0
     73295 TIP3     11300    TIP3     H1       HT       0.417000       1.00800           0
     73296 TIP3     11300    TIP3     H2       HT       0.417000       1.00800           0
     73297 TIP3     11301    TIP3     OH2      OT      -0.834000       15.9994           0
     73298 TIP3     11301    TIP3     H1       HT       0.417000       1.00800           0
     73299 TIP3     11301    TIP3     H2       HT       0.417000       1.00800           0
     73300 TIP3     11302    TIP3     OH2      OT      -0.834000       15.9994           0
     73301 TIP3     11302    TIP3     H1       HT       0.417000       1.00800           0
     73302 TIP3     11302    TIP3     H2       HT       0.417000       1.00800           0
     73303 TIP3     11303    TIP3     OH2      OT      -0.834000       15.9994           0
     73304 TIP3     11303    TIP3     H1       HT       0.417000       1.00800           0
     73305 TIP3     11303    TIP3     H2       HT       0.417000       1.00800           0
     73306 TIP3     11304    TIP3     OH2      OT      -0.834000       15.9994           0
     73307 TIP3     11304    TIP3     H1       HT       0.417000       1.00800           0
     73308 TIP3     11304    TIP3     H2       HT       0.417000       1.00800           0
     73309 TIP3     11305    TIP3     OH2      OT      -0.834000       15.9994           0
     73310 TIP3     11305    TIP3     H1       HT       0.417000       1.00800           0
     73311 TIP3     11305    TIP3     H2       HT       0.417000       1.00800           0
     73312 TIP3     11306    TIP3     OH2      OT      -0.834000       15.9994           0
     73313 TIP3     11306    TIP3     H1       HT       0.417000       1.00800           0
     73314 TIP3     11306    TIP3     H2       HT       0.417000       1.00800           0
     73315 TIP3     11307    TIP3     OH2      OT      -0.834000       15.9994           0
     73316 TIP3     11307    TIP3     H1       HT       0.417000       1.00800           0
     73317 TIP3     11307    TIP3     H2       HT       0.417000       1.00800           0
     73318 TIP3     11308    TIP3     OH2      OT      -0.834000       15.9994           0
     73319 TIP3     11308    TIP3     H1       HT       0.417000       1.00800           0
     73320 TIP3     11308    TIP3     H2       HT       0.417000       1.00800           0
     73321 TIP3     11309    TIP3     OH2      OT      -0.834000       15.9994           0
     73322 TIP3     11309    TIP3     H1       HT       0.417000       1.00800           0
     73323 TIP3     11309    TIP3     H2       HT       0.417000       1.00800           0
     73324 TIP3     11310    TIP3     OH2      OT      -0.834000       15.9994           0
     73325 TIP3     11310    TIP3     H1       HT       0.417000       1.00800           0
     73326 TIP3     11310    TIP3     H2       HT       0.417000       1.00800           0
     73327 TIP3     11311    TIP3     OH2      OT      -0.834000       15.9994           0
     73328 TIP3     11311    TIP3     H1       HT       0.417000       1.00800           0
     73329 TIP3     11311    TIP3     H2       HT       0.417000       1.00800           0
     73330 TIP3     11312    TIP3     OH2      OT      -0.834000       15.9994           0
     73331 TIP3     11312    TIP3     H1       HT       0.417000       1.00800           0
     73332 TIP3     11312    TIP3     H2       HT       0.417000       1.00800           0
     73333 TIP3     11313    TIP3     OH2      OT      -0.834000       15.9994           0
     73334 TIP3     11313    TIP3     H1       HT       0.417000       1.00800           0
     73335 TIP3     11313    TIP3     H2       HT       0.417000       1.00800           0
     73336 TIP3     11314    TIP3     OH2      OT      -0.834000       15.9994           0
     73337 TIP3     11314    TIP3     H1       HT       0.417000       1.00800           0
     73338 TIP3     11314    TIP3     H2       HT       0.417000       1.00800           0
     73339 TIP3     11315    TIP3     OH2      OT      -0.834000       15.9994           0
     73340 TIP3     11315    TIP3     H1       HT       0.417000       1.00800           0
     73341 TIP3     11315    TIP3     H2       HT       0.417000       1.00800           0
     73342 TIP3     11316    TIP3     OH2      OT      -0.834000       15.9994           0
     73343 TIP3     11316    TIP3     H1       HT       0.417000       1.00800           0
     73344 TIP3     11316    TIP3     H2       HT       0.417000       1.00800           0
     73345 TIP3     11317    TIP3     OH2      OT      -0.834000       15.9994           0
     73346 TIP3     11317    TIP3     H1       HT       0.417000       1.00800           0
     73347 TIP3     11317    TIP3     H2       HT       0.417000       1.00800           0
     73348 TIP3     11318    TIP3     OH2      OT      -0.834000       15.9994           0
     73349 TIP3     11318    TIP3     H1       HT       0.417000       1.00800           0
     73350 TIP3     11318    TIP3     H2       HT       0.417000       1.00800           0
     73351 TIP3     11319    TIP3     OH2      OT      -0.834000       15.9994           0
     73352 TIP3     11319    TIP3     H1       HT       0.417000       1.00800           0
     73353 TIP3     11319    TIP3     H2       HT       0.417000       1.00800           0
     73354 TIP3     11320    TIP3     OH2      OT      -0.834000       15.9994           0
     73355 TIP3     11320    TIP3     H1       HT       0.417000       1.00800           0
     73356 TIP3     11320    TIP3     H2       HT       0.417000       1.00800           0
     73357 TIP3     11321    TIP3     OH2      OT      -0.834000       15.9994           0
     73358 TIP3     11321    TIP3     H1       HT       0.417000       1.00800           0
     73359 TIP3     11321    TIP3     H2       HT       0.417000       1.00800           0
     73360 TIP3     11322    TIP3     OH2      OT      -0.834000       15.9994           0
     73361 TIP3     11322    TIP3     H1       HT       0.417000       1.00800           0
     73362 TIP3     11322    TIP3     H2       HT       0.417000       1.00800           0
     73363 TIP3     11323    TIP3     OH2      OT      -0.834000       15.9994           0
     73364 TIP3     11323    TIP3     H1       HT       0.417000       1.00800           0
     73365 TIP3     11323    TIP3     H2       HT       0.417000       1.00800           0
     73366 TIP3     11324    TIP3     OH2      OT      -0.834000       15.9994           0
     73367 TIP3     11324    TIP3     H1       HT       0.417000       1.00800           0
     73368 TIP3     11324    TIP3     H2       HT       0.417000       1.00800           0
     73369 TIP3     11325    TIP3     OH2      OT      -0.834000       15.9994           0
     73370 TIP3     11325    TIP3     H1       HT       0.417000       1.00800           0
     73371 TIP3     11325    TIP3     H2       HT       0.417000       1.00800           0
     73372 TIP3     11326    TIP3     OH2      OT      -0.834000       15.9994           0
     73373 TIP3     11326    TIP3     H1       HT       0.417000       1.00800           0
     73374 TIP3     11326    TIP3     H2       HT       0.417000       1.00800           0
     73375 TIP3     11327    TIP3     OH2      OT      -0.834000       15.9994           0
     73376 TIP3     11327    TIP3     H1       HT       0.417000       1.00800           0
     73377 TIP3     11327    TIP3     H2       HT       0.417000       1.00800           0
     73378 TIP3     11328    TIP3     OH2      OT      -0.834000       15.9994           0
     73379 TIP3     11328    TIP3     H1       HT       0.417000       1.00800           0
     73380 TIP3     11328    TIP3     H2       HT       0.417000       1.00800           0
     73381 TIP3     11329    TIP3     OH2      OT      -0.834000       15.9994           0
     73382 TIP3     11329    TIP3     H1       HT       0.417000       1.00800           0
     73383 TIP3     11329    TIP3     H2       HT       0.417000       1.00800           0
     73384 TIP3     11330    TIP3     OH2      OT      -0.834000       15.9994           0
     73385 TIP3     11330    TIP3     H1       HT       0.417000       1.00800           0
     73386 TIP3     11330    TIP3     H2       HT       0.417000       1.00800           0
     73387 TIP3     11331    TIP3     OH2      OT      -0.834000       15.9994           0
     73388 TIP3     11331    TIP3     H1       HT       0.417000       1.00800           0
     73389 TIP3     11331    TIP3     H2       HT       0.417000       1.00800           0
     73390 TIP3     11332    TIP3     OH2      OT      -0.834000       15.9994           0
     73391 TIP3     11332    TIP3     H1       HT       0.417000       1.00800           0
     73392 TIP3     11332    TIP3     H2       HT       0.417000       1.00800           0
     73393 TIP3     11333    TIP3     OH2      OT      -0.834000       15.9994           0
     73394 TIP3     11333    TIP3     H1       HT       0.417000       1.00800           0
     73395 TIP3     11333    TIP3     H2       HT       0.417000       1.00800           0
     73396 TIP3     11334    TIP3     OH2      OT      -0.834000       15.9994           0
     73397 TIP3     11334    TIP3     H1       HT       0.417000       1.00800           0
     73398 TIP3     11334    TIP3     H2       HT       0.417000       1.00800           0
     73399 TIP3     11335    TIP3     OH2      OT      -0.834000       15.9994           0
     73400 TIP3     11335    TIP3     H1       HT       0.417000       1.00800           0
     73401 TIP3     11335    TIP3     H2       HT       0.417000       1.00800           0
     73402 TIP3     11336    TIP3     OH2      OT      -0.834000       15.9994           0
     73403 TIP3     11336    TIP3     H1       HT       0.417000       1.00800           0
     73404 TIP3     11336    TIP3     H2       HT       0.417000       1.00800           0
     73405 TIP3     11337    TIP3     OH2      OT      -0.834000       15.9994           0
     73406 TIP3     11337    TIP3     H1       HT       0.417000       1.00800           0
     73407 TIP3     11337    TIP3     H2       HT       0.417000       1.00800           0
     73408 TIP3     11338    TIP3     OH2      OT      -0.834000       15.9994           0
     73409 TIP3     11338    TIP3     H1       HT       0.417000       1.00800           0
     73410 TIP3     11338    TIP3     H2       HT       0.417000       1.00800           0
     73411 TIP3     11339    TIP3     OH2      OT      -0.834000       15.9994           0
     73412 TIP3     11339    TIP3     H1       HT       0.417000       1.00800           0
     73413 TIP3     11339    TIP3     H2       HT       0.417000       1.00800           0
     73414 TIP3     11340    TIP3     OH2      OT      -0.834000       15.9994           0
     73415 TIP3     11340    TIP3     H1       HT       0.417000       1.00800           0
     73416 TIP3     11340    TIP3     H2       HT       0.417000       1.00800           0
     73417 TIP3     11341    TIP3     OH2      OT      -0.834000       15.9994           0
     73418 TIP3     11341    TIP3     H1       HT       0.417000       1.00800           0
     73419 TIP3     11341    TIP3     H2       HT       0.417000       1.00800           0
     73420 TIP3     11342    TIP3     OH2      OT      -0.834000       15.9994           0
     73421 TIP3     11342    TIP3     H1       HT       0.417000       1.00800           0
     73422 TIP3     11342    TIP3     H2       HT       0.417000       1.00800           0
     73423 TIP3     11343    TIP3     OH2      OT      -0.834000       15.9994           0
     73424 TIP3     11343    TIP3     H1       HT       0.417000       1.00800           0
     73425 TIP3     11343    TIP3     H2       HT       0.417000       1.00800           0
     73426 TIP3     11344    TIP3     OH2      OT      -0.834000       15.9994           0
     73427 TIP3     11344    TIP3     H1       HT       0.417000       1.00800           0
     73428 TIP3     11344    TIP3     H2       HT       0.417000       1.00800           0
     73429 TIP3     11345    TIP3     OH2      OT      -0.834000       15.9994           0
     73430 TIP3     11345    TIP3     H1       HT       0.417000       1.00800           0
     73431 TIP3     11345    TIP3     H2       HT       0.417000       1.00800           0
     73432 TIP3     11346    TIP3     OH2      OT      -0.834000       15.9994           0
     73433 TIP3     11346    TIP3     H1       HT       0.417000       1.00800           0
     73434 TIP3     11346    TIP3     H2       HT       0.417000       1.00800           0
     73435 TIP3     11347    TIP3     OH2      OT      -0.834000       15.9994           0
     73436 TIP3     11347    TIP3     H1       HT       0.417000       1.00800           0
     73437 TIP3     11347    TIP3     H2       HT       0.417000       1.00800           0
     73438 TIP3     11348    TIP3     OH2      OT      -0.834000       15.9994           0
     73439 TIP3     11348    TIP3     H1       HT       0.417000       1.00800           0
     73440 TIP3     11348    TIP3     H2       HT       0.417000       1.00800           0
     73441 TIP3     11349    TIP3     OH2      OT      -0.834000       15.9994           0
     73442 TIP3     11349    TIP3     H1       HT       0.417000       1.00800           0
     73443 TIP3     11349    TIP3     H2       HT       0.417000       1.00800           0
     73444 TIP3     11350    TIP3     OH2      OT      -0.834000       15.9994           0
     73445 TIP3     11350    TIP3     H1       HT       0.417000       1.00800           0
     73446 TIP3     11350    TIP3     H2       HT       0.417000       1.00800           0
     73447 TIP3     11351    TIP3     OH2      OT      -0.834000       15.9994           0
     73448 TIP3     11351    TIP3     H1       HT       0.417000       1.00800           0
     73449 TIP3     11351    TIP3     H2       HT       0.417000       1.00800           0
     73450 TIP3     11352    TIP3     OH2      OT      -0.834000       15.9994           0
     73451 TIP3     11352    TIP3     H1       HT       0.417000       1.00800           0
     73452 TIP3     11352    TIP3     H2       HT       0.417000       1.00800           0
     73453 TIP3     11353    TIP3     OH2      OT      -0.834000       15.9994           0
     73454 TIP3     11353    TIP3     H1       HT       0.417000       1.00800           0
     73455 TIP3     11353    TIP3     H2       HT       0.417000       1.00800           0
     73456 TIP3     11354    TIP3     OH2      OT      -0.834000       15.9994           0
     73457 TIP3     11354    TIP3     H1       HT       0.417000       1.00800           0
     73458 TIP3     11354    TIP3     H2       HT       0.417000       1.00800           0
     73459 TIP3     11355    TIP3     OH2      OT      -0.834000       15.9994           0
     73460 TIP3     11355    TIP3     H1       HT       0.417000       1.00800           0
     73461 TIP3     11355    TIP3     H2       HT       0.417000       1.00800           0
     73462 TIP3     11356    TIP3     OH2      OT      -0.834000       15.9994           0
     73463 TIP3     11356    TIP3     H1       HT       0.417000       1.00800           0
     73464 TIP3     11356    TIP3     H2       HT       0.417000       1.00800           0
     73465 TIP3     11357    TIP3     OH2      OT      -0.834000       15.9994           0
     73466 TIP3     11357    TIP3     H1       HT       0.417000       1.00800           0
     73467 TIP3     11357    TIP3     H2       HT       0.417000       1.00800           0
     73468 TIP3     11358    TIP3     OH2      OT      -0.834000       15.9994           0
     73469 TIP3     11358    TIP3     H1       HT       0.417000       1.00800           0
     73470 TIP3     11358    TIP3     H2       HT       0.417000       1.00800           0
     73471 TIP3     11359    TIP3     OH2      OT      -0.834000       15.9994           0
     73472 TIP3     11359    TIP3     H1       HT       0.417000       1.00800           0
     73473 TIP3     11359    TIP3     H2       HT       0.417000       1.00800           0
     73474 TIP3     11360    TIP3     OH2      OT      -0.834000       15.9994           0
     73475 TIP3     11360    TIP3     H1       HT       0.417000       1.00800           0
     73476 TIP3     11360    TIP3     H2       HT       0.417000       1.00800           0
     73477 TIP3     11361    TIP3     OH2      OT      -0.834000       15.9994           0
     73478 TIP3     11361    TIP3     H1       HT       0.417000       1.00800           0
     73479 TIP3     11361    TIP3     H2       HT       0.417000       1.00800           0
     73480 TIP3     11362    TIP3     OH2      OT      -0.834000       15.9994           0
     73481 TIP3     11362    TIP3     H1       HT       0.417000       1.00800           0
     73482 TIP3     11362    TIP3     H2       HT       0.417000       1.00800           0
     73483 TIP3     11363    TIP3     OH2      OT      -0.834000       15.9994           0
     73484 TIP3     11363    TIP3     H1       HT       0.417000       1.00800           0
     73485 TIP3     11363    TIP3     H2       HT       0.417000       1.00800           0
     73486 TIP3     11364    TIP3     OH2      OT      -0.834000       15.9994           0
     73487 TIP3     11364    TIP3     H1       HT       0.417000       1.00800           0
     73488 TIP3     11364    TIP3     H2       HT       0.417000       1.00800           0
     73489 TIP3     11365    TIP3     OH2      OT      -0.834000       15.9994           0
     73490 TIP3     11365    TIP3     H1       HT       0.417000       1.00800           0
     73491 TIP3     11365    TIP3     H2       HT       0.417000       1.00800           0
     73492 TIP3     11366    TIP3     OH2      OT      -0.834000       15.9994           0
     73493 TIP3     11366    TIP3     H1       HT       0.417000       1.00800           0
     73494 TIP3     11366    TIP3     H2       HT       0.417000       1.00800           0
     73495 TIP3     11367    TIP3     OH2      OT      -0.834000       15.9994           0
     73496 TIP3     11367    TIP3     H1       HT       0.417000       1.00800           0
     73497 TIP3     11367    TIP3     H2       HT       0.417000       1.00800           0
     73498 TIP3     11368    TIP3     OH2      OT      -0.834000       15.9994           0
     73499 TIP3     11368    TIP3     H1       HT       0.417000       1.00800           0
     73500 TIP3     11368    TIP3     H2       HT       0.417000       1.00800           0
     73501 TIP3     11369    TIP3     OH2      OT      -0.834000       15.9994           0
     73502 TIP3     11369    TIP3     H1       HT       0.417000       1.00800           0
     73503 TIP3     11369    TIP3     H2       HT       0.417000       1.00800           0
     73504 TIP3     11370    TIP3     OH2      OT      -0.834000       15.9994           0
     73505 TIP3     11370    TIP3     H1       HT       0.417000       1.00800           0
     73506 TIP3     11370    TIP3     H2       HT       0.417000       1.00800           0
     73507 TIP3     11371    TIP3     OH2      OT      -0.834000       15.9994           0
     73508 TIP3     11371    TIP3     H1       HT       0.417000       1.00800           0
     73509 TIP3     11371    TIP3     H2       HT       0.417000       1.00800           0
     73510 TIP3     11372    TIP3     OH2      OT      -0.834000       15.9994           0
     73511 TIP3     11372    TIP3     H1       HT       0.417000       1.00800           0
     73512 TIP3     11372    TIP3     H2       HT       0.417000       1.00800           0
     73513 TIP3     11373    TIP3     OH2      OT      -0.834000       15.9994           0
     73514 TIP3     11373    TIP3     H1       HT       0.417000       1.00800           0
     73515 TIP3     11373    TIP3     H2       HT       0.417000       1.00800           0
     73516 TIP3     11374    TIP3     OH2      OT      -0.834000       15.9994           0
     73517 TIP3     11374    TIP3     H1       HT       0.417000       1.00800           0
     73518 TIP3     11374    TIP3     H2       HT       0.417000       1.00800           0
     73519 TIP3     11375    TIP3     OH2      OT      -0.834000       15.9994           0
     73520 TIP3     11375    TIP3     H1       HT       0.417000       1.00800           0
     73521 TIP3     11375    TIP3     H2       HT       0.417000       1.00800           0
     73522 TIP3     11376    TIP3     OH2      OT      -0.834000       15.9994           0
     73523 TIP3     11376    TIP3     H1       HT       0.417000       1.00800           0
     73524 TIP3     11376    TIP3     H2       HT       0.417000       1.00800           0
     73525 TIP3     11377    TIP3     OH2      OT      -0.834000       15.9994           0
     73526 TIP3     11377    TIP3     H1       HT       0.417000       1.00800           0
     73527 TIP3     11377    TIP3     H2       HT       0.417000       1.00800           0
     73528 TIP3     11378    TIP3     OH2      OT      -0.834000       15.9994           0
     73529 TIP3     11378    TIP3     H1       HT       0.417000       1.00800           0
     73530 TIP3     11378    TIP3     H2       HT       0.417000       1.00800           0
     73531 TIP3     11379    TIP3     OH2      OT      -0.834000       15.9994           0
     73532 TIP3     11379    TIP3     H1       HT       0.417000       1.00800           0
     73533 TIP3     11379    TIP3     H2       HT       0.417000       1.00800           0
     73534 TIP3     11380    TIP3     OH2      OT      -0.834000       15.9994           0
     73535 TIP3     11380    TIP3     H1       HT       0.417000       1.00800           0
     73536 TIP3     11380    TIP3     H2       HT       0.417000       1.00800           0
     73537 TIP3     11381    TIP3     OH2      OT      -0.834000       15.9994           0
     73538 TIP3     11381    TIP3     H1       HT       0.417000       1.00800           0
     73539 TIP3     11381    TIP3     H2       HT       0.417000       1.00800           0
     73540 TIP3     11382    TIP3     OH2      OT      -0.834000       15.9994           0
     73541 TIP3     11382    TIP3     H1       HT       0.417000       1.00800           0
     73542 TIP3     11382    TIP3     H2       HT       0.417000       1.00800           0
     73543 TIP3     11383    TIP3     OH2      OT      -0.834000       15.9994           0
     73544 TIP3     11383    TIP3     H1       HT       0.417000       1.00800           0
     73545 TIP3     11383    TIP3     H2       HT       0.417000       1.00800           0
     73546 TIP3     11384    TIP3     OH2      OT      -0.834000       15.9994           0
     73547 TIP3     11384    TIP3     H1       HT       0.417000       1.00800           0
     73548 TIP3     11384    TIP3     H2       HT       0.417000       1.00800           0
     73549 TIP3     11385    TIP3     OH2      OT      -0.834000       15.9994           0
     73550 TIP3     11385    TIP3     H1       HT       0.417000       1.00800           0
     73551 TIP3     11385    TIP3     H2       HT       0.417000       1.00800           0
     73552 TIP3     11386    TIP3     OH2      OT      -0.834000       15.9994           0
     73553 TIP3     11386    TIP3     H1       HT       0.417000       1.00800           0
     73554 TIP3     11386    TIP3     H2       HT       0.417000       1.00800           0
     73555 TIP3     11387    TIP3     OH2      OT      -0.834000       15.9994           0
     73556 TIP3     11387    TIP3     H1       HT       0.417000       1.00800           0
     73557 TIP3     11387    TIP3     H2       HT       0.417000       1.00800           0
     73558 TIP3     11388    TIP3     OH2      OT      -0.834000       15.9994           0
     73559 TIP3     11388    TIP3     H1       HT       0.417000       1.00800           0
     73560 TIP3     11388    TIP3     H2       HT       0.417000       1.00800           0
     73561 TIP3     11389    TIP3     OH2      OT      -0.834000       15.9994           0
     73562 TIP3     11389    TIP3     H1       HT       0.417000       1.00800           0
     73563 TIP3     11389    TIP3     H2       HT       0.417000       1.00800           0
     73564 TIP3     11390    TIP3     OH2      OT      -0.834000       15.9994           0
     73565 TIP3     11390    TIP3     H1       HT       0.417000       1.00800           0
     73566 TIP3     11390    TIP3     H2       HT       0.417000       1.00800           0
     73567 TIP3     11391    TIP3     OH2      OT      -0.834000       15.9994           0
     73568 TIP3     11391    TIP3     H1       HT       0.417000       1.00800           0
     73569 TIP3     11391    TIP3     H2       HT       0.417000       1.00800           0
     73570 TIP3     11392    TIP3     OH2      OT      -0.834000       15.9994           0
     73571 TIP3     11392    TIP3     H1       HT       0.417000       1.00800           0
     73572 TIP3     11392    TIP3     H2       HT       0.417000       1.00800           0
     73573 TIP3     11393    TIP3     OH2      OT      -0.834000       15.9994           0
     73574 TIP3     11393    TIP3     H1       HT       0.417000       1.00800           0
     73575 TIP3     11393    TIP3     H2       HT       0.417000       1.00800           0
     73576 TIP3     11394    TIP3     OH2      OT      -0.834000       15.9994           0
     73577 TIP3     11394    TIP3     H1       HT       0.417000       1.00800           0
     73578 TIP3     11394    TIP3     H2       HT       0.417000       1.00800           0
     73579 TIP3     11395    TIP3     OH2      OT      -0.834000       15.9994           0
     73580 TIP3     11395    TIP3     H1       HT       0.417000       1.00800           0
     73581 TIP3     11395    TIP3     H2       HT       0.417000       1.00800           0
     73582 TIP3     11396    TIP3     OH2      OT      -0.834000       15.9994           0
     73583 TIP3     11396    TIP3     H1       HT       0.417000       1.00800           0
     73584 TIP3     11396    TIP3     H2       HT       0.417000       1.00800           0
     73585 TIP3     11397    TIP3     OH2      OT      -0.834000       15.9994           0
     73586 TIP3     11397    TIP3     H1       HT       0.417000       1.00800           0
     73587 TIP3     11397    TIP3     H2       HT       0.417000       1.00800           0
     73588 TIP3     11398    TIP3     OH2      OT      -0.834000       15.9994           0
     73589 TIP3     11398    TIP3     H1       HT       0.417000       1.00800           0
     73590 TIP3     11398    TIP3     H2       HT       0.417000       1.00800           0
     73591 TIP3     11399    TIP3     OH2      OT      -0.834000       15.9994           0
     73592 TIP3     11399    TIP3     H1       HT       0.417000       1.00800           0
     73593 TIP3     11399    TIP3     H2       HT       0.417000       1.00800           0
     73594 TIP3     11400    TIP3     OH2      OT      -0.834000       15.9994           0
     73595 TIP3     11400    TIP3     H1       HT       0.417000       1.00800           0
     73596 TIP3     11400    TIP3     H2       HT       0.417000       1.00800           0
     73597 TIP3     11401    TIP3     OH2      OT      -0.834000       15.9994           0
     73598 TIP3     11401    TIP3     H1       HT       0.417000       1.00800           0
     73599 TIP3     11401    TIP3     H2       HT       0.417000       1.00800           0
     73600 TIP3     11402    TIP3     OH2      OT      -0.834000       15.9994           0
     73601 TIP3     11402    TIP3     H1       HT       0.417000       1.00800           0
     73602 TIP3     11402    TIP3     H2       HT       0.417000       1.00800           0
     73603 TIP3     11403    TIP3     OH2      OT      -0.834000       15.9994           0
     73604 TIP3     11403    TIP3     H1       HT       0.417000       1.00800           0
     73605 TIP3     11403    TIP3     H2       HT       0.417000       1.00800           0
     73606 TIP3     11404    TIP3     OH2      OT      -0.834000       15.9994           0
     73607 TIP3     11404    TIP3     H1       HT       0.417000       1.00800           0
     73608 TIP3     11404    TIP3     H2       HT       0.417000       1.00800           0
     73609 TIP3     11405    TIP3     OH2      OT      -0.834000       15.9994           0
     73610 TIP3     11405    TIP3     H1       HT       0.417000       1.00800           0
     73611 TIP3     11405    TIP3     H2       HT       0.417000       1.00800           0
     73612 TIP3     11406    TIP3     OH2      OT      -0.834000       15.9994           0
     73613 TIP3     11406    TIP3     H1       HT       0.417000       1.00800           0
     73614 TIP3     11406    TIP3     H2       HT       0.417000       1.00800           0
     73615 TIP3     11407    TIP3     OH2      OT      -0.834000       15.9994           0
     73616 TIP3     11407    TIP3     H1       HT       0.417000       1.00800           0
     73617 TIP3     11407    TIP3     H2       HT       0.417000       1.00800           0
     73618 TIP3     11408    TIP3     OH2      OT      -0.834000       15.9994           0
     73619 TIP3     11408    TIP3     H1       HT       0.417000       1.00800           0
     73620 TIP3     11408    TIP3     H2       HT       0.417000       1.00800           0
     73621 TIP3     11409    TIP3     OH2      OT      -0.834000       15.9994           0
     73622 TIP3     11409    TIP3     H1       HT       0.417000       1.00800           0
     73623 TIP3     11409    TIP3     H2       HT       0.417000       1.00800           0
     73624 TIP3     11410    TIP3     OH2      OT      -0.834000       15.9994           0
     73625 TIP3     11410    TIP3     H1       HT       0.417000       1.00800           0
     73626 TIP3     11410    TIP3     H2       HT       0.417000       1.00800           0
     73627 TIP3     11411    TIP3     OH2      OT      -0.834000       15.9994           0
     73628 TIP3     11411    TIP3     H1       HT       0.417000       1.00800           0
     73629 TIP3     11411    TIP3     H2       HT       0.417000       1.00800           0
     73630 TIP3     11412    TIP3     OH2      OT      -0.834000       15.9994           0
     73631 TIP3     11412    TIP3     H1       HT       0.417000       1.00800           0
     73632 TIP3     11412    TIP3     H2       HT       0.417000       1.00800           0
     73633 TIP3     11413    TIP3     OH2      OT      -0.834000       15.9994           0
     73634 TIP3     11413    TIP3     H1       HT       0.417000       1.00800           0
     73635 TIP3     11413    TIP3     H2       HT       0.417000       1.00800           0
     73636 TIP3     11414    TIP3     OH2      OT      -0.834000       15.9994           0
     73637 TIP3     11414    TIP3     H1       HT       0.417000       1.00800           0
     73638 TIP3     11414    TIP3     H2       HT       0.417000       1.00800           0
     73639 TIP3     11415    TIP3     OH2      OT      -0.834000       15.9994           0
     73640 TIP3     11415    TIP3     H1       HT       0.417000       1.00800           0
     73641 TIP3     11415    TIP3     H2       HT       0.417000       1.00800           0
     73642 TIP3     11416    TIP3     OH2      OT      -0.834000       15.9994           0
     73643 TIP3     11416    TIP3     H1       HT       0.417000       1.00800           0
     73644 TIP3     11416    TIP3     H2       HT       0.417000       1.00800           0
     73645 TIP3     11417    TIP3     OH2      OT      -0.834000       15.9994           0
     73646 TIP3     11417    TIP3     H1       HT       0.417000       1.00800           0
     73647 TIP3     11417    TIP3     H2       HT       0.417000       1.00800           0
     73648 TIP3     11418    TIP3     OH2      OT      -0.834000       15.9994           0
     73649 TIP3     11418    TIP3     H1       HT       0.417000       1.00800           0
     73650 TIP3     11418    TIP3     H2       HT       0.417000       1.00800           0
     73651 TIP3     11419    TIP3     OH2      OT      -0.834000       15.9994           0
     73652 TIP3     11419    TIP3     H1       HT       0.417000       1.00800           0
     73653 TIP3     11419    TIP3     H2       HT       0.417000       1.00800           0
     73654 TIP3     11420    TIP3     OH2      OT      -0.834000       15.9994           0
     73655 TIP3     11420    TIP3     H1       HT       0.417000       1.00800           0
     73656 TIP3     11420    TIP3     H2       HT       0.417000       1.00800           0
     73657 TIP3     11421    TIP3     OH2      OT      -0.834000       15.9994           0
     73658 TIP3     11421    TIP3     H1       HT       0.417000       1.00800           0
     73659 TIP3     11421    TIP3     H2       HT       0.417000       1.00800           0
     73660 TIP3     11422    TIP3     OH2      OT      -0.834000       15.9994           0
     73661 TIP3     11422    TIP3     H1       HT       0.417000       1.00800           0
     73662 TIP3     11422    TIP3     H2       HT       0.417000       1.00800           0
     73663 TIP3     11423    TIP3     OH2      OT      -0.834000       15.9994           0
     73664 TIP3     11423    TIP3     H1       HT       0.417000       1.00800           0
     73665 TIP3     11423    TIP3     H2       HT       0.417000       1.00800           0
     73666 TIP3     11424    TIP3     OH2      OT      -0.834000       15.9994           0
     73667 TIP3     11424    TIP3     H1       HT       0.417000       1.00800           0
     73668 TIP3     11424    TIP3     H2       HT       0.417000       1.00800           0
     73669 TIP3     11425    TIP3     OH2      OT      -0.834000       15.9994           0
     73670 TIP3     11425    TIP3     H1       HT       0.417000       1.00800           0
     73671 TIP3     11425    TIP3     H2       HT       0.417000       1.00800           0
     73672 TIP3     11426    TIP3     OH2      OT      -0.834000       15.9994           0
     73673 TIP3     11426    TIP3     H1       HT       0.417000       1.00800           0
     73674 TIP3     11426    TIP3     H2       HT       0.417000       1.00800           0
     73675 TIP3     11427    TIP3     OH2      OT      -0.834000       15.9994           0
     73676 TIP3     11427    TIP3     H1       HT       0.417000       1.00800           0
     73677 TIP3     11427    TIP3     H2       HT       0.417000       1.00800           0
     73678 TIP3     11428    TIP3     OH2      OT      -0.834000       15.9994           0
     73679 TIP3     11428    TIP3     H1       HT       0.417000       1.00800           0
     73680 TIP3     11428    TIP3     H2       HT       0.417000       1.00800           0
     73681 TIP3     11429    TIP3     OH2      OT      -0.834000       15.9994           0
     73682 TIP3     11429    TIP3     H1       HT       0.417000       1.00800           0
     73683 TIP3     11429    TIP3     H2       HT       0.417000       1.00800           0
     73684 TIP3     11430    TIP3     OH2      OT      -0.834000       15.9994           0
     73685 TIP3     11430    TIP3     H1       HT       0.417000       1.00800           0
     73686 TIP3     11430    TIP3     H2       HT       0.417000       1.00800           0
     73687 TIP3     11431    TIP3     OH2      OT      -0.834000       15.9994           0
     73688 TIP3     11431    TIP3     H1       HT       0.417000       1.00800           0
     73689 TIP3     11431    TIP3     H2       HT       0.417000       1.00800           0
     73690 TIP3     11432    TIP3     OH2      OT      -0.834000       15.9994           0
     73691 TIP3     11432    TIP3     H1       HT       0.417000       1.00800           0
     73692 TIP3     11432    TIP3     H2       HT       0.417000       1.00800           0
     73693 TIP3     11433    TIP3     OH2      OT      -0.834000       15.9994           0
     73694 TIP3     11433    TIP3     H1       HT       0.417000       1.00800           0
     73695 TIP3     11433    TIP3     H2       HT       0.417000       1.00800           0
     73696 TIP3     11434    TIP3     OH2      OT      -0.834000       15.9994           0
     73697 TIP3     11434    TIP3     H1       HT       0.417000       1.00800           0
     73698 TIP3     11434    TIP3     H2       HT       0.417000       1.00800           0
     73699 TIP3     11435    TIP3     OH2      OT      -0.834000       15.9994           0
     73700 TIP3     11435    TIP3     H1       HT       0.417000       1.00800           0
     73701 TIP3     11435    TIP3     H2       HT       0.417000       1.00800           0
     73702 TIP3     11436    TIP3     OH2      OT      -0.834000       15.9994           0
     73703 TIP3     11436    TIP3     H1       HT       0.417000       1.00800           0
     73704 TIP3     11436    TIP3     H2       HT       0.417000       1.00800           0
     73705 TIP3     11437    TIP3     OH2      OT      -0.834000       15.9994           0
     73706 TIP3     11437    TIP3     H1       HT       0.417000       1.00800           0
     73707 TIP3     11437    TIP3     H2       HT       0.417000       1.00800           0
     73708 TIP3     11438    TIP3     OH2      OT      -0.834000       15.9994           0
     73709 TIP3     11438    TIP3     H1       HT       0.417000       1.00800           0
     73710 TIP3     11438    TIP3     H2       HT       0.417000       1.00800           0
     73711 TIP3     11439    TIP3     OH2      OT      -0.834000       15.9994           0
     73712 TIP3     11439    TIP3     H1       HT       0.417000       1.00800           0
     73713 TIP3     11439    TIP3     H2       HT       0.417000       1.00800           0
     73714 TIP3     11440    TIP3     OH2      OT      -0.834000       15.9994           0
     73715 TIP3     11440    TIP3     H1       HT       0.417000       1.00800           0
     73716 TIP3     11440    TIP3     H2       HT       0.417000       1.00800           0
     73717 TIP3     11441    TIP3     OH2      OT      -0.834000       15.9994           0
     73718 TIP3     11441    TIP3     H1       HT       0.417000       1.00800           0
     73719 TIP3     11441    TIP3     H2       HT       0.417000       1.00800           0
     73720 TIP3     11442    TIP3     OH2      OT      -0.834000       15.9994           0
     73721 TIP3     11442    TIP3     H1       HT       0.417000       1.00800           0
     73722 TIP3     11442    TIP3     H2       HT       0.417000       1.00800           0
     73723 TIP3     11443    TIP3     OH2      OT      -0.834000       15.9994           0
     73724 TIP3     11443    TIP3     H1       HT       0.417000       1.00800           0
     73725 TIP3     11443    TIP3     H2       HT       0.417000       1.00800           0
     73726 TIP3     11444    TIP3     OH2      OT      -0.834000       15.9994           0
     73727 TIP3     11444    TIP3     H1       HT       0.417000       1.00800           0
     73728 TIP3     11444    TIP3     H2       HT       0.417000       1.00800           0
     73729 TIP3     11445    TIP3     OH2      OT      -0.834000       15.9994           0
     73730 TIP3     11445    TIP3     H1       HT       0.417000       1.00800           0
     73731 TIP3     11445    TIP3     H2       HT       0.417000       1.00800           0
     73732 TIP3     11446    TIP3     OH2      OT      -0.834000       15.9994           0
     73733 TIP3     11446    TIP3     H1       HT       0.417000       1.00800           0
     73734 TIP3     11446    TIP3     H2       HT       0.417000       1.00800           0
     73735 TIP3     11447    TIP3     OH2      OT      -0.834000       15.9994           0
     73736 TIP3     11447    TIP3     H1       HT       0.417000       1.00800           0
     73737 TIP3     11447    TIP3     H2       HT       0.417000       1.00800           0
     73738 TIP3     11448    TIP3     OH2      OT      -0.834000       15.9994           0
     73739 TIP3     11448    TIP3     H1       HT       0.417000       1.00800           0
     73740 TIP3     11448    TIP3     H2       HT       0.417000       1.00800           0
     73741 TIP3     11449    TIP3     OH2      OT      -0.834000       15.9994           0
     73742 TIP3     11449    TIP3     H1       HT       0.417000       1.00800           0
     73743 TIP3     11449    TIP3     H2       HT       0.417000       1.00800           0
     73744 TIP3     11450    TIP3     OH2      OT      -0.834000       15.9994           0
     73745 TIP3     11450    TIP3     H1       HT       0.417000       1.00800           0
     73746 TIP3     11450    TIP3     H2       HT       0.417000       1.00800           0
     73747 TIP3     11451    TIP3     OH2      OT      -0.834000       15.9994           0
     73748 TIP3     11451    TIP3     H1       HT       0.417000       1.00800           0
     73749 TIP3     11451    TIP3     H2       HT       0.417000       1.00800           0
     73750 TIP3     11452    TIP3     OH2      OT      -0.834000       15.9994           0
     73751 TIP3     11452    TIP3     H1       HT       0.417000       1.00800           0
     73752 TIP3     11452    TIP3     H2       HT       0.417000       1.00800           0
     73753 TIP3     11453    TIP3     OH2      OT      -0.834000       15.9994           0
     73754 TIP3     11453    TIP3     H1       HT       0.417000       1.00800           0
     73755 TIP3     11453    TIP3     H2       HT       0.417000       1.00800           0
     73756 TIP3     11454    TIP3     OH2      OT      -0.834000       15.9994           0
     73757 TIP3     11454    TIP3     H1       HT       0.417000       1.00800           0
     73758 TIP3     11454    TIP3     H2       HT       0.417000       1.00800           0
     73759 TIP3     11455    TIP3     OH2      OT      -0.834000       15.9994           0
     73760 TIP3     11455    TIP3     H1       HT       0.417000       1.00800           0
     73761 TIP3     11455    TIP3     H2       HT       0.417000       1.00800           0
     73762 TIP3     11456    TIP3     OH2      OT      -0.834000       15.9994           0
     73763 TIP3     11456    TIP3     H1       HT       0.417000       1.00800           0
     73764 TIP3     11456    TIP3     H2       HT       0.417000       1.00800           0
     73765 TIP3     11457    TIP3     OH2      OT      -0.834000       15.9994           0
     73766 TIP3     11457    TIP3     H1       HT       0.417000       1.00800           0
     73767 TIP3     11457    TIP3     H2       HT       0.417000       1.00800           0
     73768 TIP3     11458    TIP3     OH2      OT      -0.834000       15.9994           0
     73769 TIP3     11458    TIP3     H1       HT       0.417000       1.00800           0
     73770 TIP3     11458    TIP3     H2       HT       0.417000       1.00800           0
     73771 TIP3     11459    TIP3     OH2      OT      -0.834000       15.9994           0
     73772 TIP3     11459    TIP3     H1       HT       0.417000       1.00800           0
     73773 TIP3     11459    TIP3     H2       HT       0.417000       1.00800           0
     73774 TIP3     11460    TIP3     OH2      OT      -0.834000       15.9994           0
     73775 TIP3     11460    TIP3     H1       HT       0.417000       1.00800           0
     73776 TIP3     11460    TIP3     H2       HT       0.417000       1.00800           0
     73777 TIP3     11461    TIP3     OH2      OT      -0.834000       15.9994           0
     73778 TIP3     11461    TIP3     H1       HT       0.417000       1.00800           0
     73779 TIP3     11461    TIP3     H2       HT       0.417000       1.00800           0
     73780 TIP3     11462    TIP3     OH2      OT      -0.834000       15.9994           0
     73781 TIP3     11462    TIP3     H1       HT       0.417000       1.00800           0
     73782 TIP3     11462    TIP3     H2       HT       0.417000       1.00800           0
     73783 TIP3     11463    TIP3     OH2      OT      -0.834000       15.9994           0
     73784 TIP3     11463    TIP3     H1       HT       0.417000       1.00800           0
     73785 TIP3     11463    TIP3     H2       HT       0.417000       1.00800           0
     73786 TIP3     11464    TIP3     OH2      OT      -0.834000       15.9994           0
     73787 TIP3     11464    TIP3     H1       HT       0.417000       1.00800           0
     73788 TIP3     11464    TIP3     H2       HT       0.417000       1.00800           0
     73789 TIP3     11465    TIP3     OH2      OT      -0.834000       15.9994           0
     73790 TIP3     11465    TIP3     H1       HT       0.417000       1.00800           0
     73791 TIP3     11465    TIP3     H2       HT       0.417000       1.00800           0
     73792 TIP3     11466    TIP3     OH2      OT      -0.834000       15.9994           0
     73793 TIP3     11466    TIP3     H1       HT       0.417000       1.00800           0
     73794 TIP3     11466    TIP3     H2       HT       0.417000       1.00800           0
     73795 TIP3     11467    TIP3     OH2      OT      -0.834000       15.9994           0
     73796 TIP3     11467    TIP3     H1       HT       0.417000       1.00800           0
     73797 TIP3     11467    TIP3     H2       HT       0.417000       1.00800           0
     73798 TIP3     11468    TIP3     OH2      OT      -0.834000       15.9994           0
     73799 TIP3     11468    TIP3     H1       HT       0.417000       1.00800           0
     73800 TIP3     11468    TIP3     H2       HT       0.417000       1.00800           0
     73801 TIP3     11469    TIP3     OH2      OT      -0.834000       15.9994           0
     73802 TIP3     11469    TIP3     H1       HT       0.417000       1.00800           0
     73803 TIP3     11469    TIP3     H2       HT       0.417000       1.00800           0
     73804 TIP3     11470    TIP3     OH2      OT      -0.834000       15.9994           0
     73805 TIP3     11470    TIP3     H1       HT       0.417000       1.00800           0
     73806 TIP3     11470    TIP3     H2       HT       0.417000       1.00800           0
     73807 TIP3     11471    TIP3     OH2      OT      -0.834000       15.9994           0
     73808 TIP3     11471    TIP3     H1       HT       0.417000       1.00800           0
     73809 TIP3     11471    TIP3     H2       HT       0.417000       1.00800           0
     73810 TIP3     11472    TIP3     OH2      OT      -0.834000       15.9994           0
     73811 TIP3     11472    TIP3     H1       HT       0.417000       1.00800           0
     73812 TIP3     11472    TIP3     H2       HT       0.417000       1.00800           0
     73813 TIP3     11473    TIP3     OH2      OT      -0.834000       15.9994           0
     73814 TIP3     11473    TIP3     H1       HT       0.417000       1.00800           0
     73815 TIP3     11473    TIP3     H2       HT       0.417000       1.00800           0
     73816 TIP3     11474    TIP3     OH2      OT      -0.834000       15.9994           0
     73817 TIP3     11474    TIP3     H1       HT       0.417000       1.00800           0
     73818 TIP3     11474    TIP3     H2       HT       0.417000       1.00800           0
     73819 TIP3     11475    TIP3     OH2      OT      -0.834000       15.9994           0
     73820 TIP3     11475    TIP3     H1       HT       0.417000       1.00800           0
     73821 TIP3     11475    TIP3     H2       HT       0.417000       1.00800           0
     73822 TIP3     11476    TIP3     OH2      OT      -0.834000       15.9994           0
     73823 TIP3     11476    TIP3     H1       HT       0.417000       1.00800           0
     73824 TIP3     11476    TIP3     H2       HT       0.417000       1.00800           0
     73825 TIP3     11477    TIP3     OH2      OT      -0.834000       15.9994           0
     73826 TIP3     11477    TIP3     H1       HT       0.417000       1.00800           0
     73827 TIP3     11477    TIP3     H2       HT       0.417000       1.00800           0
     73828 TIP3     11478    TIP3     OH2      OT      -0.834000       15.9994           0
     73829 TIP3     11478    TIP3     H1       HT       0.417000       1.00800           0
     73830 TIP3     11478    TIP3     H2       HT       0.417000       1.00800           0
     73831 TIP3     11479    TIP3     OH2      OT      -0.834000       15.9994           0
     73832 TIP3     11479    TIP3     H1       HT       0.417000       1.00800           0
     73833 TIP3     11479    TIP3     H2       HT       0.417000       1.00800           0
     73834 TIP3     11480    TIP3     OH2      OT      -0.834000       15.9994           0
     73835 TIP3     11480    TIP3     H1       HT       0.417000       1.00800           0
     73836 TIP3     11480    TIP3     H2       HT       0.417000       1.00800           0
     73837 TIP3     11481    TIP3     OH2      OT      -0.834000       15.9994           0
     73838 TIP3     11481    TIP3     H1       HT       0.417000       1.00800           0
     73839 TIP3     11481    TIP3     H2       HT       0.417000       1.00800           0
     73840 TIP3     11482    TIP3     OH2      OT      -0.834000       15.9994           0
     73841 TIP3     11482    TIP3     H1       HT       0.417000       1.00800           0
     73842 TIP3     11482    TIP3     H2       HT       0.417000       1.00800           0
     73843 TIP3     11483    TIP3     OH2      OT      -0.834000       15.9994           0
     73844 TIP3     11483    TIP3     H1       HT       0.417000       1.00800           0
     73845 TIP3     11483    TIP3     H2       HT       0.417000       1.00800           0
     73846 TIP3     11484    TIP3     OH2      OT      -0.834000       15.9994           0
     73847 TIP3     11484    TIP3     H1       HT       0.417000       1.00800           0
     73848 TIP3     11484    TIP3     H2       HT       0.417000       1.00800           0
     73849 TIP3     11485    TIP3     OH2      OT      -0.834000       15.9994           0
     73850 TIP3     11485    TIP3     H1       HT       0.417000       1.00800           0
     73851 TIP3     11485    TIP3     H2       HT       0.417000       1.00800           0
     73852 TIP3     11486    TIP3     OH2      OT      -0.834000       15.9994           0
     73853 TIP3     11486    TIP3     H1       HT       0.417000       1.00800           0
     73854 TIP3     11486    TIP3     H2       HT       0.417000       1.00800           0
     73855 TIP3     11487    TIP3     OH2      OT      -0.834000       15.9994           0
     73856 TIP3     11487    TIP3     H1       HT       0.417000       1.00800           0
     73857 TIP3     11487    TIP3     H2       HT       0.417000       1.00800           0
     73858 TIP3     11488    TIP3     OH2      OT      -0.834000       15.9994           0
     73859 TIP3     11488    TIP3     H1       HT       0.417000       1.00800           0
     73860 TIP3     11488    TIP3     H2       HT       0.417000       1.00800           0
     73861 TIP3     11489    TIP3     OH2      OT      -0.834000       15.9994           0
     73862 TIP3     11489    TIP3     H1       HT       0.417000       1.00800           0
     73863 TIP3     11489    TIP3     H2       HT       0.417000       1.00800           0
     73864 TIP3     11490    TIP3     OH2      OT      -0.834000       15.9994           0
     73865 TIP3     11490    TIP3     H1       HT       0.417000       1.00800           0
     73866 TIP3     11490    TIP3     H2       HT       0.417000       1.00800           0
     73867 TIP3     11491    TIP3     OH2      OT      -0.834000       15.9994           0
     73868 TIP3     11491    TIP3     H1       HT       0.417000       1.00800           0
     73869 TIP3     11491    TIP3     H2       HT       0.417000       1.00800           0
     73870 TIP3     11492    TIP3     OH2      OT      -0.834000       15.9994           0
     73871 TIP3     11492    TIP3     H1       HT       0.417000       1.00800           0
     73872 TIP3     11492    TIP3     H2       HT       0.417000       1.00800           0
     73873 TIP3     11493    TIP3     OH2      OT      -0.834000       15.9994           0
     73874 TIP3     11493    TIP3     H1       HT       0.417000       1.00800           0
     73875 TIP3     11493    TIP3     H2       HT       0.417000       1.00800           0
     73876 TIP3     11494    TIP3     OH2      OT      -0.834000       15.9994           0
     73877 TIP3     11494    TIP3     H1       HT       0.417000       1.00800           0
     73878 TIP3     11494    TIP3     H2       HT       0.417000       1.00800           0
     73879 TIP3     11495    TIP3     OH2      OT      -0.834000       15.9994           0
     73880 TIP3     11495    TIP3     H1       HT       0.417000       1.00800           0
     73881 TIP3     11495    TIP3     H2       HT       0.417000       1.00800           0
     73882 TIP3     11496    TIP3     OH2      OT      -0.834000       15.9994           0
     73883 TIP3     11496    TIP3     H1       HT       0.417000       1.00800           0
     73884 TIP3     11496    TIP3     H2       HT       0.417000       1.00800           0
     73885 TIP3     11497    TIP3     OH2      OT      -0.834000       15.9994           0
     73886 TIP3     11497    TIP3     H1       HT       0.417000       1.00800           0
     73887 TIP3     11497    TIP3     H2       HT       0.417000       1.00800           0
     73888 TIP3     11498    TIP3     OH2      OT      -0.834000       15.9994           0
     73889 TIP3     11498    TIP3     H1       HT       0.417000       1.00800           0
     73890 TIP3     11498    TIP3     H2       HT       0.417000       1.00800           0
     73891 TIP3     11499    TIP3     OH2      OT      -0.834000       15.9994           0
     73892 TIP3     11499    TIP3     H1       HT       0.417000       1.00800           0
     73893 TIP3     11499    TIP3     H2       HT       0.417000       1.00800           0
     73894 TIP3     11500    TIP3     OH2      OT      -0.834000       15.9994           0
     73895 TIP3     11500    TIP3     H1       HT       0.417000       1.00800           0
     73896 TIP3     11500    TIP3     H2       HT       0.417000       1.00800           0
     73897 TIP3     11501    TIP3     OH2      OT      -0.834000       15.9994           0
     73898 TIP3     11501    TIP3     H1       HT       0.417000       1.00800           0
     73899 TIP3     11501    TIP3     H2       HT       0.417000       1.00800           0
     73900 TIP3     11502    TIP3     OH2      OT      -0.834000       15.9994           0
     73901 TIP3     11502    TIP3     H1       HT       0.417000       1.00800           0
     73902 TIP3     11502    TIP3     H2       HT       0.417000       1.00800           0
     73903 TIP3     11503    TIP3     OH2      OT      -0.834000       15.9994           0
     73904 TIP3     11503    TIP3     H1       HT       0.417000       1.00800           0
     73905 TIP3     11503    TIP3     H2       HT       0.417000       1.00800           0
     73906 TIP3     11504    TIP3     OH2      OT      -0.834000       15.9994           0
     73907 TIP3     11504    TIP3     H1       HT       0.417000       1.00800           0
     73908 TIP3     11504    TIP3     H2       HT       0.417000       1.00800           0
     73909 TIP3     11505    TIP3     OH2      OT      -0.834000       15.9994           0
     73910 TIP3     11505    TIP3     H1       HT       0.417000       1.00800           0
     73911 TIP3     11505    TIP3     H2       HT       0.417000       1.00800           0
     73912 TIP3     11506    TIP3     OH2      OT      -0.834000       15.9994           0
     73913 TIP3     11506    TIP3     H1       HT       0.417000       1.00800           0
     73914 TIP3     11506    TIP3     H2       HT       0.417000       1.00800           0
     73915 TIP3     11507    TIP3     OH2      OT      -0.834000       15.9994           0
     73916 TIP3     11507    TIP3     H1       HT       0.417000       1.00800           0
     73917 TIP3     11507    TIP3     H2       HT       0.417000       1.00800           0
     73918 TIP3     11508    TIP3     OH2      OT      -0.834000       15.9994           0
     73919 TIP3     11508    TIP3     H1       HT       0.417000       1.00800           0
     73920 TIP3     11508    TIP3     H2       HT       0.417000       1.00800           0
     73921 TIP3     11509    TIP3     OH2      OT      -0.834000       15.9994           0
     73922 TIP3     11509    TIP3     H1       HT       0.417000       1.00800           0
     73923 TIP3     11509    TIP3     H2       HT       0.417000       1.00800           0
     73924 TIP3     11510    TIP3     OH2      OT      -0.834000       15.9994           0
     73925 TIP3     11510    TIP3     H1       HT       0.417000       1.00800           0
     73926 TIP3     11510    TIP3     H2       HT       0.417000       1.00800           0
     73927 TIP3     11511    TIP3     OH2      OT      -0.834000       15.9994           0
     73928 TIP3     11511    TIP3     H1       HT       0.417000       1.00800           0
     73929 TIP3     11511    TIP3     H2       HT       0.417000       1.00800           0
     73930 TIP3     11512    TIP3     OH2      OT      -0.834000       15.9994           0
     73931 TIP3     11512    TIP3     H1       HT       0.417000       1.00800           0
     73932 TIP3     11512    TIP3     H2       HT       0.417000       1.00800           0
     73933 TIP3     11513    TIP3     OH2      OT      -0.834000       15.9994           0
     73934 TIP3     11513    TIP3     H1       HT       0.417000       1.00800           0
     73935 TIP3     11513    TIP3     H2       HT       0.417000       1.00800           0
     73936 TIP3     11514    TIP3     OH2      OT      -0.834000       15.9994           0
     73937 TIP3     11514    TIP3     H1       HT       0.417000       1.00800           0
     73938 TIP3     11514    TIP3     H2       HT       0.417000       1.00800           0
     73939 TIP3     11515    TIP3     OH2      OT      -0.834000       15.9994           0
     73940 TIP3     11515    TIP3     H1       HT       0.417000       1.00800           0
     73941 TIP3     11515    TIP3     H2       HT       0.417000       1.00800           0
     73942 TIP3     11516    TIP3     OH2      OT      -0.834000       15.9994           0
     73943 TIP3     11516    TIP3     H1       HT       0.417000       1.00800           0
     73944 TIP3     11516    TIP3     H2       HT       0.417000       1.00800           0
     73945 TIP3     11517    TIP3     OH2      OT      -0.834000       15.9994           0
     73946 TIP3     11517    TIP3     H1       HT       0.417000       1.00800           0
     73947 TIP3     11517    TIP3     H2       HT       0.417000       1.00800           0
     73948 TIP3     11518    TIP3     OH2      OT      -0.834000       15.9994           0
     73949 TIP3     11518    TIP3     H1       HT       0.417000       1.00800           0
     73950 TIP3     11518    TIP3     H2       HT       0.417000       1.00800           0
     73951 TIP3     11519    TIP3     OH2      OT      -0.834000       15.9994           0
     73952 TIP3     11519    TIP3     H1       HT       0.417000       1.00800           0
     73953 TIP3     11519    TIP3     H2       HT       0.417000       1.00800           0
     73954 TIP3     11520    TIP3     OH2      OT      -0.834000       15.9994           0
     73955 TIP3     11520    TIP3     H1       HT       0.417000       1.00800           0
     73956 TIP3     11520    TIP3     H2       HT       0.417000       1.00800           0
     73957 TIP3     11521    TIP3     OH2      OT      -0.834000       15.9994           0
     73958 TIP3     11521    TIP3     H1       HT       0.417000       1.00800           0
     73959 TIP3     11521    TIP3     H2       HT       0.417000       1.00800           0
     73960 TIP3     11522    TIP3     OH2      OT      -0.834000       15.9994           0
     73961 TIP3     11522    TIP3     H1       HT       0.417000       1.00800           0
     73962 TIP3     11522    TIP3     H2       HT       0.417000       1.00800           0
     73963 TIP3     11523    TIP3     OH2      OT      -0.834000       15.9994           0
     73964 TIP3     11523    TIP3     H1       HT       0.417000       1.00800           0
     73965 TIP3     11523    TIP3     H2       HT       0.417000       1.00800           0
     73966 TIP3     11524    TIP3     OH2      OT      -0.834000       15.9994           0
     73967 TIP3     11524    TIP3     H1       HT       0.417000       1.00800           0
     73968 TIP3     11524    TIP3     H2       HT       0.417000       1.00800           0
     73969 TIP3     11525    TIP3     OH2      OT      -0.834000       15.9994           0
     73970 TIP3     11525    TIP3     H1       HT       0.417000       1.00800           0
     73971 TIP3     11525    TIP3     H2       HT       0.417000       1.00800           0
     73972 TIP3     11526    TIP3     OH2      OT      -0.834000       15.9994           0
     73973 TIP3     11526    TIP3     H1       HT       0.417000       1.00800           0
     73974 TIP3     11526    TIP3     H2       HT       0.417000       1.00800           0
     73975 TIP3     11527    TIP3     OH2      OT      -0.834000       15.9994           0
     73976 TIP3     11527    TIP3     H1       HT       0.417000       1.00800           0
     73977 TIP3     11527    TIP3     H2       HT       0.417000       1.00800           0
     73978 TIP3     11528    TIP3     OH2      OT      -0.834000       15.9994           0
     73979 TIP3     11528    TIP3     H1       HT       0.417000       1.00800           0
     73980 TIP3     11528    TIP3     H2       HT       0.417000       1.00800           0
     73981 TIP3     11529    TIP3     OH2      OT      -0.834000       15.9994           0
     73982 TIP3     11529    TIP3     H1       HT       0.417000       1.00800           0
     73983 TIP3     11529    TIP3     H2       HT       0.417000       1.00800           0
     73984 TIP3     11530    TIP3     OH2      OT      -0.834000       15.9994           0
     73985 TIP3     11530    TIP3     H1       HT       0.417000       1.00800           0
     73986 TIP3     11530    TIP3     H2       HT       0.417000       1.00800           0
     73987 TIP3     11531    TIP3     OH2      OT      -0.834000       15.9994           0
     73988 TIP3     11531    TIP3     H1       HT       0.417000       1.00800           0
     73989 TIP3     11531    TIP3     H2       HT       0.417000       1.00800           0
     73990 TIP3     11532    TIP3     OH2      OT      -0.834000       15.9994           0
     73991 TIP3     11532    TIP3     H1       HT       0.417000       1.00800           0
     73992 TIP3     11532    TIP3     H2       HT       0.417000       1.00800           0
     73993 TIP3     11533    TIP3     OH2      OT      -0.834000       15.9994           0
     73994 TIP3     11533    TIP3     H1       HT       0.417000       1.00800           0
     73995 TIP3     11533    TIP3     H2       HT       0.417000       1.00800           0
     73996 TIP3     11534    TIP3     OH2      OT      -0.834000       15.9994           0
     73997 TIP3     11534    TIP3     H1       HT       0.417000       1.00800           0
     73998 TIP3     11534    TIP3     H2       HT       0.417000       1.00800           0
     73999 TIP3     11535    TIP3     OH2      OT      -0.834000       15.9994           0
     74000 TIP3     11535    TIP3     H1       HT       0.417000       1.00800           0
     74001 TIP3     11535    TIP3     H2       HT       0.417000       1.00800           0
     74002 TIP3     11536    TIP3     OH2      OT      -0.834000       15.9994           0
     74003 TIP3     11536    TIP3     H1       HT       0.417000       1.00800           0
     74004 TIP3     11536    TIP3     H2       HT       0.417000       1.00800           0
     74005 TIP3     11537    TIP3     OH2      OT      -0.834000       15.9994           0
     74006 TIP3     11537    TIP3     H1       HT       0.417000       1.00800           0
     74007 TIP3     11537    TIP3     H2       HT       0.417000       1.00800           0
     74008 TIP3     11538    TIP3     OH2      OT      -0.834000       15.9994           0
     74009 TIP3     11538    TIP3     H1       HT       0.417000       1.00800           0
     74010 TIP3     11538    TIP3     H2       HT       0.417000       1.00800           0
     74011 TIP3     11539    TIP3     OH2      OT      -0.834000       15.9994           0
     74012 TIP3     11539    TIP3     H1       HT       0.417000       1.00800           0
     74013 TIP3     11539    TIP3     H2       HT       0.417000       1.00800           0
     74014 TIP3     11540    TIP3     OH2      OT      -0.834000       15.9994           0
     74015 TIP3     11540    TIP3     H1       HT       0.417000       1.00800           0
     74016 TIP3     11540    TIP3     H2       HT       0.417000       1.00800           0
     74017 TIP3     11541    TIP3     OH2      OT      -0.834000       15.9994           0
     74018 TIP3     11541    TIP3     H1       HT       0.417000       1.00800           0
     74019 TIP3     11541    TIP3     H2       HT       0.417000       1.00800           0
     74020 TIP3     11542    TIP3     OH2      OT      -0.834000       15.9994           0
     74021 TIP3     11542    TIP3     H1       HT       0.417000       1.00800           0
     74022 TIP3     11542    TIP3     H2       HT       0.417000       1.00800           0
     74023 TIP3     11543    TIP3     OH2      OT      -0.834000       15.9994           0
     74024 TIP3     11543    TIP3     H1       HT       0.417000       1.00800           0
     74025 TIP3     11543    TIP3     H2       HT       0.417000       1.00800           0
     74026 TIP3     11544    TIP3     OH2      OT      -0.834000       15.9994           0
     74027 TIP3     11544    TIP3     H1       HT       0.417000       1.00800           0
     74028 TIP3     11544    TIP3     H2       HT       0.417000       1.00800           0
     74029 TIP3     11545    TIP3     OH2      OT      -0.834000       15.9994           0
     74030 TIP3     11545    TIP3     H1       HT       0.417000       1.00800           0
     74031 TIP3     11545    TIP3     H2       HT       0.417000       1.00800           0
     74032 TIP3     11546    TIP3     OH2      OT      -0.834000       15.9994           0
     74033 TIP3     11546    TIP3     H1       HT       0.417000       1.00800           0
     74034 TIP3     11546    TIP3     H2       HT       0.417000       1.00800           0
     74035 TIP3     11547    TIP3     OH2      OT      -0.834000       15.9994           0
     74036 TIP3     11547    TIP3     H1       HT       0.417000       1.00800           0
     74037 TIP3     11547    TIP3     H2       HT       0.417000       1.00800           0
     74038 TIP3     11548    TIP3     OH2      OT      -0.834000       15.9994           0
     74039 TIP3     11548    TIP3     H1       HT       0.417000       1.00800           0
     74040 TIP3     11548    TIP3     H2       HT       0.417000       1.00800           0
     74041 TIP3     11549    TIP3     OH2      OT      -0.834000       15.9994           0
     74042 TIP3     11549    TIP3     H1       HT       0.417000       1.00800           0
     74043 TIP3     11549    TIP3     H2       HT       0.417000       1.00800           0
     74044 TIP3     11550    TIP3     OH2      OT      -0.834000       15.9994           0
     74045 TIP3     11550    TIP3     H1       HT       0.417000       1.00800           0
     74046 TIP3     11550    TIP3     H2       HT       0.417000       1.00800           0
     74047 TIP3     11551    TIP3     OH2      OT      -0.834000       15.9994           0
     74048 TIP3     11551    TIP3     H1       HT       0.417000       1.00800           0
     74049 TIP3     11551    TIP3     H2       HT       0.417000       1.00800           0
     74050 TIP3     11552    TIP3     OH2      OT      -0.834000       15.9994           0
     74051 TIP3     11552    TIP3     H1       HT       0.417000       1.00800           0
     74052 TIP3     11552    TIP3     H2       HT       0.417000       1.00800           0
     74053 TIP3     11553    TIP3     OH2      OT      -0.834000       15.9994           0
     74054 TIP3     11553    TIP3     H1       HT       0.417000       1.00800           0
     74055 TIP3     11553    TIP3     H2       HT       0.417000       1.00800           0
     74056 TIP3     11554    TIP3     OH2      OT      -0.834000       15.9994           0
     74057 TIP3     11554    TIP3     H1       HT       0.417000       1.00800           0
     74058 TIP3     11554    TIP3     H2       HT       0.417000       1.00800           0
     74059 TIP3     11555    TIP3     OH2      OT      -0.834000       15.9994           0
     74060 TIP3     11555    TIP3     H1       HT       0.417000       1.00800           0
     74061 TIP3     11555    TIP3     H2       HT       0.417000       1.00800           0
     74062 TIP3     11556    TIP3     OH2      OT      -0.834000       15.9994           0
     74063 TIP3     11556    TIP3     H1       HT       0.417000       1.00800           0
     74064 TIP3     11556    TIP3     H2       HT       0.417000       1.00800           0
     74065 TIP3     11557    TIP3     OH2      OT      -0.834000       15.9994           0
     74066 TIP3     11557    TIP3     H1       HT       0.417000       1.00800           0
     74067 TIP3     11557    TIP3     H2       HT       0.417000       1.00800           0
     74068 TIP3     11558    TIP3     OH2      OT      -0.834000       15.9994           0
     74069 TIP3     11558    TIP3     H1       HT       0.417000       1.00800           0
     74070 TIP3     11558    TIP3     H2       HT       0.417000       1.00800           0
     74071 TIP3     11559    TIP3     OH2      OT      -0.834000       15.9994           0
     74072 TIP3     11559    TIP3     H1       HT       0.417000       1.00800           0
     74073 TIP3     11559    TIP3     H2       HT       0.417000       1.00800           0
     74074 TIP3     11560    TIP3     OH2      OT      -0.834000       15.9994           0
     74075 TIP3     11560    TIP3     H1       HT       0.417000       1.00800           0
     74076 TIP3     11560    TIP3     H2       HT       0.417000       1.00800           0
     74077 TIP3     11561    TIP3     OH2      OT      -0.834000       15.9994           0
     74078 TIP3     11561    TIP3     H1       HT       0.417000       1.00800           0
     74079 TIP3     11561    TIP3     H2       HT       0.417000       1.00800           0
     74080 TIP3     11562    TIP3     OH2      OT      -0.834000       15.9994           0
     74081 TIP3     11562    TIP3     H1       HT       0.417000       1.00800           0
     74082 TIP3     11562    TIP3     H2       HT       0.417000       1.00800           0
     74083 TIP3     11563    TIP3     OH2      OT      -0.834000       15.9994           0
     74084 TIP3     11563    TIP3     H1       HT       0.417000       1.00800           0
     74085 TIP3     11563    TIP3     H2       HT       0.417000       1.00800           0
     74086 TIP3     11564    TIP3     OH2      OT      -0.834000       15.9994           0
     74087 TIP3     11564    TIP3     H1       HT       0.417000       1.00800           0
     74088 TIP3     11564    TIP3     H2       HT       0.417000       1.00800           0
     74089 TIP3     11565    TIP3     OH2      OT      -0.834000       15.9994           0
     74090 TIP3     11565    TIP3     H1       HT       0.417000       1.00800           0
     74091 TIP3     11565    TIP3     H2       HT       0.417000       1.00800           0
     74092 TIP3     11566    TIP3     OH2      OT      -0.834000       15.9994           0
     74093 TIP3     11566    TIP3     H1       HT       0.417000       1.00800           0
     74094 TIP3     11566    TIP3     H2       HT       0.417000       1.00800           0
     74095 TIP3     11567    TIP3     OH2      OT      -0.834000       15.9994           0
     74096 TIP3     11567    TIP3     H1       HT       0.417000       1.00800           0
     74097 TIP3     11567    TIP3     H2       HT       0.417000       1.00800           0
     74098 TIP3     11568    TIP3     OH2      OT      -0.834000       15.9994           0
     74099 TIP3     11568    TIP3     H1       HT       0.417000       1.00800           0
     74100 TIP3     11568    TIP3     H2       HT       0.417000       1.00800           0
     74101 TIP3     11569    TIP3     OH2      OT      -0.834000       15.9994           0
     74102 TIP3     11569    TIP3     H1       HT       0.417000       1.00800           0
     74103 TIP3     11569    TIP3     H2       HT       0.417000       1.00800           0
     74104 TIP3     11570    TIP3     OH2      OT      -0.834000       15.9994           0
     74105 TIP3     11570    TIP3     H1       HT       0.417000       1.00800           0
     74106 TIP3     11570    TIP3     H2       HT       0.417000       1.00800           0
     74107 TIP3     11571    TIP3     OH2      OT      -0.834000       15.9994           0
     74108 TIP3     11571    TIP3     H1       HT       0.417000       1.00800           0
     74109 TIP3     11571    TIP3     H2       HT       0.417000       1.00800           0
     74110 TIP3     11572    TIP3     OH2      OT      -0.834000       15.9994           0
     74111 TIP3     11572    TIP3     H1       HT       0.417000       1.00800           0
     74112 TIP3     11572    TIP3     H2       HT       0.417000       1.00800           0
     74113 TIP3     11573    TIP3     OH2      OT      -0.834000       15.9994           0
     74114 TIP3     11573    TIP3     H1       HT       0.417000       1.00800           0
     74115 TIP3     11573    TIP3     H2       HT       0.417000       1.00800           0
     74116 TIP3     11574    TIP3     OH2      OT      -0.834000       15.9994           0
     74117 TIP3     11574    TIP3     H1       HT       0.417000       1.00800           0
     74118 TIP3     11574    TIP3     H2       HT       0.417000       1.00800           0
     74119 TIP3     11575    TIP3     OH2      OT      -0.834000       15.9994           0
     74120 TIP3     11575    TIP3     H1       HT       0.417000       1.00800           0
     74121 TIP3     11575    TIP3     H2       HT       0.417000       1.00800           0
     74122 TIP3     11576    TIP3     OH2      OT      -0.834000       15.9994           0
     74123 TIP3     11576    TIP3     H1       HT       0.417000       1.00800           0
     74124 TIP3     11576    TIP3     H2       HT       0.417000       1.00800           0
     74125 TIP3     11577    TIP3     OH2      OT      -0.834000       15.9994           0
     74126 TIP3     11577    TIP3     H1       HT       0.417000       1.00800           0
     74127 TIP3     11577    TIP3     H2       HT       0.417000       1.00800           0
     74128 TIP3     11578    TIP3     OH2      OT      -0.834000       15.9994           0
     74129 TIP3     11578    TIP3     H1       HT       0.417000       1.00800           0
     74130 TIP3     11578    TIP3     H2       HT       0.417000       1.00800           0
     74131 TIP3     11579    TIP3     OH2      OT      -0.834000       15.9994           0
     74132 TIP3     11579    TIP3     H1       HT       0.417000       1.00800           0
     74133 TIP3     11579    TIP3     H2       HT       0.417000       1.00800           0
     74134 TIP3     11580    TIP3     OH2      OT      -0.834000       15.9994           0
     74135 TIP3     11580    TIP3     H1       HT       0.417000       1.00800           0
     74136 TIP3     11580    TIP3     H2       HT       0.417000       1.00800           0
     74137 TIP3     11581    TIP3     OH2      OT      -0.834000       15.9994           0
     74138 TIP3     11581    TIP3     H1       HT       0.417000       1.00800           0
     74139 TIP3     11581    TIP3     H2       HT       0.417000       1.00800           0
     74140 TIP3     11582    TIP3     OH2      OT      -0.834000       15.9994           0
     74141 TIP3     11582    TIP3     H1       HT       0.417000       1.00800           0
     74142 TIP3     11582    TIP3     H2       HT       0.417000       1.00800           0
     74143 TIP3     11583    TIP3     OH2      OT      -0.834000       15.9994           0
     74144 TIP3     11583    TIP3     H1       HT       0.417000       1.00800           0
     74145 TIP3     11583    TIP3     H2       HT       0.417000       1.00800           0
     74146 TIP3     11584    TIP3     OH2      OT      -0.834000       15.9994           0
     74147 TIP3     11584    TIP3     H1       HT       0.417000       1.00800           0
     74148 TIP3     11584    TIP3     H2       HT       0.417000       1.00800           0
     74149 TIP3     11585    TIP3     OH2      OT      -0.834000       15.9994           0
     74150 TIP3     11585    TIP3     H1       HT       0.417000       1.00800           0
     74151 TIP3     11585    TIP3     H2       HT       0.417000       1.00800           0
     74152 TIP3     11586    TIP3     OH2      OT      -0.834000       15.9994           0
     74153 TIP3     11586    TIP3     H1       HT       0.417000       1.00800           0
     74154 TIP3     11586    TIP3     H2       HT       0.417000       1.00800           0
     74155 TIP3     11587    TIP3     OH2      OT      -0.834000       15.9994           0
     74156 TIP3     11587    TIP3     H1       HT       0.417000       1.00800           0
     74157 TIP3     11587    TIP3     H2       HT       0.417000       1.00800           0
     74158 TIP3     11588    TIP3     OH2      OT      -0.834000       15.9994           0
     74159 TIP3     11588    TIP3     H1       HT       0.417000       1.00800           0
     74160 TIP3     11588    TIP3     H2       HT       0.417000       1.00800           0
     74161 TIP3     11589    TIP3     OH2      OT      -0.834000       15.9994           0
     74162 TIP3     11589    TIP3     H1       HT       0.417000       1.00800           0
     74163 TIP3     11589    TIP3     H2       HT       0.417000       1.00800           0
     74164 TIP3     11590    TIP3     OH2      OT      -0.834000       15.9994           0
     74165 TIP3     11590    TIP3     H1       HT       0.417000       1.00800           0
     74166 TIP3     11590    TIP3     H2       HT       0.417000       1.00800           0
     74167 TIP3     11591    TIP3     OH2      OT      -0.834000       15.9994           0
     74168 TIP3     11591    TIP3     H1       HT       0.417000       1.00800           0
     74169 TIP3     11591    TIP3     H2       HT       0.417000       1.00800           0
     74170 TIP3     11592    TIP3     OH2      OT      -0.834000       15.9994           0
     74171 TIP3     11592    TIP3     H1       HT       0.417000       1.00800           0
     74172 TIP3     11592    TIP3     H2       HT       0.417000       1.00800           0
     74173 TIP3     11593    TIP3     OH2      OT      -0.834000       15.9994           0
     74174 TIP3     11593    TIP3     H1       HT       0.417000       1.00800           0
     74175 TIP3     11593    TIP3     H2       HT       0.417000       1.00800           0
     74176 TIP3     11594    TIP3     OH2      OT      -0.834000       15.9994           0
     74177 TIP3     11594    TIP3     H1       HT       0.417000       1.00800           0
     74178 TIP3     11594    TIP3     H2       HT       0.417000       1.00800           0
     74179 TIP3     11595    TIP3     OH2      OT      -0.834000       15.9994           0
     74180 TIP3     11595    TIP3     H1       HT       0.417000       1.00800           0
     74181 TIP3     11595    TIP3     H2       HT       0.417000       1.00800           0
     74182 TIP3     11596    TIP3     OH2      OT      -0.834000       15.9994           0
     74183 TIP3     11596    TIP3     H1       HT       0.417000       1.00800           0
     74184 TIP3     11596    TIP3     H2       HT       0.417000       1.00800           0
     74185 TIP3     11597    TIP3     OH2      OT      -0.834000       15.9994           0
     74186 TIP3     11597    TIP3     H1       HT       0.417000       1.00800           0
     74187 TIP3     11597    TIP3     H2       HT       0.417000       1.00800           0
     74188 TIP3     11598    TIP3     OH2      OT      -0.834000       15.9994           0
     74189 TIP3     11598    TIP3     H1       HT       0.417000       1.00800           0
     74190 TIP3     11598    TIP3     H2       HT       0.417000       1.00800           0
     74191 TIP3     11599    TIP3     OH2      OT      -0.834000       15.9994           0
     74192 TIP3     11599    TIP3     H1       HT       0.417000       1.00800           0
     74193 TIP3     11599    TIP3     H2       HT       0.417000       1.00800           0
     74194 TIP3     11600    TIP3     OH2      OT      -0.834000       15.9994           0
     74195 TIP3     11600    TIP3     H1       HT       0.417000       1.00800           0
     74196 TIP3     11600    TIP3     H2       HT       0.417000       1.00800           0
     74197 TIP3     11601    TIP3     OH2      OT      -0.834000       15.9994           0
     74198 TIP3     11601    TIP3     H1       HT       0.417000       1.00800           0
     74199 TIP3     11601    TIP3     H2       HT       0.417000       1.00800           0
     74200 TIP3     11602    TIP3     OH2      OT      -0.834000       15.9994           0
     74201 TIP3     11602    TIP3     H1       HT       0.417000       1.00800           0
     74202 TIP3     11602    TIP3     H2       HT       0.417000       1.00800           0
     74203 TIP3     11603    TIP3     OH2      OT      -0.834000       15.9994           0
     74204 TIP3     11603    TIP3     H1       HT       0.417000       1.00800           0
     74205 TIP3     11603    TIP3     H2       HT       0.417000       1.00800           0
     74206 TIP3     11604    TIP3     OH2      OT      -0.834000       15.9994           0
     74207 TIP3     11604    TIP3     H1       HT       0.417000       1.00800           0
     74208 TIP3     11604    TIP3     H2       HT       0.417000       1.00800           0
     74209 TIP3     11605    TIP3     OH2      OT      -0.834000       15.9994           0
     74210 TIP3     11605    TIP3     H1       HT       0.417000       1.00800           0
     74211 TIP3     11605    TIP3     H2       HT       0.417000       1.00800           0
     74212 TIP3     11606    TIP3     OH2      OT      -0.834000       15.9994           0
     74213 TIP3     11606    TIP3     H1       HT       0.417000       1.00800           0
     74214 TIP3     11606    TIP3     H2       HT       0.417000       1.00800           0
     74215 TIP3     11607    TIP3     OH2      OT      -0.834000       15.9994           0
     74216 TIP3     11607    TIP3     H1       HT       0.417000       1.00800           0
     74217 TIP3     11607    TIP3     H2       HT       0.417000       1.00800           0
     74218 TIP3     11608    TIP3     OH2      OT      -0.834000       15.9994           0
     74219 TIP3     11608    TIP3     H1       HT       0.417000       1.00800           0
     74220 TIP3     11608    TIP3     H2       HT       0.417000       1.00800           0
     74221 TIP3     11609    TIP3     OH2      OT      -0.834000       15.9994           0
     74222 TIP3     11609    TIP3     H1       HT       0.417000       1.00800           0
     74223 TIP3     11609    TIP3     H2       HT       0.417000       1.00800           0
     74224 TIP3     11610    TIP3     OH2      OT      -0.834000       15.9994           0
     74225 TIP3     11610    TIP3     H1       HT       0.417000       1.00800           0
     74226 TIP3     11610    TIP3     H2       HT       0.417000       1.00800           0
     74227 TIP3     11611    TIP3     OH2      OT      -0.834000       15.9994           0
     74228 TIP3     11611    TIP3     H1       HT       0.417000       1.00800           0
     74229 TIP3     11611    TIP3     H2       HT       0.417000       1.00800           0
     74230 TIP3     11612    TIP3     OH2      OT      -0.834000       15.9994           0
     74231 TIP3     11612    TIP3     H1       HT       0.417000       1.00800           0
     74232 TIP3     11612    TIP3     H2       HT       0.417000       1.00800           0
     74233 TIP3     11613    TIP3     OH2      OT      -0.834000       15.9994           0
     74234 TIP3     11613    TIP3     H1       HT       0.417000       1.00800           0
     74235 TIP3     11613    TIP3     H2       HT       0.417000       1.00800           0
     74236 TIP3     11614    TIP3     OH2      OT      -0.834000       15.9994           0
     74237 TIP3     11614    TIP3     H1       HT       0.417000       1.00800           0
     74238 TIP3     11614    TIP3     H2       HT       0.417000       1.00800           0
     74239 TIP3     11615    TIP3     OH2      OT      -0.834000       15.9994           0
     74240 TIP3     11615    TIP3     H1       HT       0.417000       1.00800           0
     74241 TIP3     11615    TIP3     H2       HT       0.417000       1.00800           0
     74242 TIP3     11616    TIP3     OH2      OT      -0.834000       15.9994           0
     74243 TIP3     11616    TIP3     H1       HT       0.417000       1.00800           0
     74244 TIP3     11616    TIP3     H2       HT       0.417000       1.00800           0
     74245 TIP3     11617    TIP3     OH2      OT      -0.834000       15.9994           0
     74246 TIP3     11617    TIP3     H1       HT       0.417000       1.00800           0
     74247 TIP3     11617    TIP3     H2       HT       0.417000       1.00800           0
     74248 TIP3     11618    TIP3     OH2      OT      -0.834000       15.9994           0
     74249 TIP3     11618    TIP3     H1       HT       0.417000       1.00800           0
     74250 TIP3     11618    TIP3     H2       HT       0.417000       1.00800           0
     74251 TIP3     11619    TIP3     OH2      OT      -0.834000       15.9994           0
     74252 TIP3     11619    TIP3     H1       HT       0.417000       1.00800           0
     74253 TIP3     11619    TIP3     H2       HT       0.417000       1.00800           0
     74254 TIP3     11620    TIP3     OH2      OT      -0.834000       15.9994           0
     74255 TIP3     11620    TIP3     H1       HT       0.417000       1.00800           0
     74256 TIP3     11620    TIP3     H2       HT       0.417000       1.00800           0
     74257 TIP3     11621    TIP3     OH2      OT      -0.834000       15.9994           0
     74258 TIP3     11621    TIP3     H1       HT       0.417000       1.00800           0
     74259 TIP3     11621    TIP3     H2       HT       0.417000       1.00800           0
     74260 TIP3     11622    TIP3     OH2      OT      -0.834000       15.9994           0
     74261 TIP3     11622    TIP3     H1       HT       0.417000       1.00800           0
     74262 TIP3     11622    TIP3     H2       HT       0.417000       1.00800           0
     74263 TIP3     11623    TIP3     OH2      OT      -0.834000       15.9994           0
     74264 TIP3     11623    TIP3     H1       HT       0.417000       1.00800           0
     74265 TIP3     11623    TIP3     H2       HT       0.417000       1.00800           0
     74266 TIP3     11624    TIP3     OH2      OT      -0.834000       15.9994           0
     74267 TIP3     11624    TIP3     H1       HT       0.417000       1.00800           0
     74268 TIP3     11624    TIP3     H2       HT       0.417000       1.00800           0
     74269 TIP3     11625    TIP3     OH2      OT      -0.834000       15.9994           0
     74270 TIP3     11625    TIP3     H1       HT       0.417000       1.00800           0
     74271 TIP3     11625    TIP3     H2       HT       0.417000       1.00800           0
     74272 TIP3     11626    TIP3     OH2      OT      -0.834000       15.9994           0
     74273 TIP3     11626    TIP3     H1       HT       0.417000       1.00800           0
     74274 TIP3     11626    TIP3     H2       HT       0.417000       1.00800           0
     74275 TIP3     11627    TIP3     OH2      OT      -0.834000       15.9994           0
     74276 TIP3     11627    TIP3     H1       HT       0.417000       1.00800           0
     74277 TIP3     11627    TIP3     H2       HT       0.417000       1.00800           0
     74278 TIP3     11628    TIP3     OH2      OT      -0.834000       15.9994           0
     74279 TIP3     11628    TIP3     H1       HT       0.417000       1.00800           0
     74280 TIP3     11628    TIP3     H2       HT       0.417000       1.00800           0
     74281 TIP3     11629    TIP3     OH2      OT      -0.834000       15.9994           0
     74282 TIP3     11629    TIP3     H1       HT       0.417000       1.00800           0
     74283 TIP3     11629    TIP3     H2       HT       0.417000       1.00800           0
     74284 TIP3     11630    TIP3     OH2      OT      -0.834000       15.9994           0
     74285 TIP3     11630    TIP3     H1       HT       0.417000       1.00800           0
     74286 TIP3     11630    TIP3     H2       HT       0.417000       1.00800           0
     74287 TIP3     11631    TIP3     OH2      OT      -0.834000       15.9994           0
     74288 TIP3     11631    TIP3     H1       HT       0.417000       1.00800           0
     74289 TIP3     11631    TIP3     H2       HT       0.417000       1.00800           0
     74290 TIP3     11632    TIP3     OH2      OT      -0.834000       15.9994           0
     74291 TIP3     11632    TIP3     H1       HT       0.417000       1.00800           0
     74292 TIP3     11632    TIP3     H2       HT       0.417000       1.00800           0
     74293 TIP3     11633    TIP3     OH2      OT      -0.834000       15.9994           0
     74294 TIP3     11633    TIP3     H1       HT       0.417000       1.00800           0
     74295 TIP3     11633    TIP3     H2       HT       0.417000       1.00800           0
     74296 TIP3     11634    TIP3     OH2      OT      -0.834000       15.9994           0
     74297 TIP3     11634    TIP3     H1       HT       0.417000       1.00800           0
     74298 TIP3     11634    TIP3     H2       HT       0.417000       1.00800           0
     74299 TIP3     11635    TIP3     OH2      OT      -0.834000       15.9994           0
     74300 TIP3     11635    TIP3     H1       HT       0.417000       1.00800           0
     74301 TIP3     11635    TIP3     H2       HT       0.417000       1.00800           0
     74302 TIP3     11636    TIP3     OH2      OT      -0.834000       15.9994           0
     74303 TIP3     11636    TIP3     H1       HT       0.417000       1.00800           0
     74304 TIP3     11636    TIP3     H2       HT       0.417000       1.00800           0
     74305 TIP3     11637    TIP3     OH2      OT      -0.834000       15.9994           0
     74306 TIP3     11637    TIP3     H1       HT       0.417000       1.00800           0
     74307 TIP3     11637    TIP3     H2       HT       0.417000       1.00800           0
     74308 TIP3     11638    TIP3     OH2      OT      -0.834000       15.9994           0
     74309 TIP3     11638    TIP3     H1       HT       0.417000       1.00800           0
     74310 TIP3     11638    TIP3     H2       HT       0.417000       1.00800           0
     74311 TIP3     11639    TIP3     OH2      OT      -0.834000       15.9994           0
     74312 TIP3     11639    TIP3     H1       HT       0.417000       1.00800           0
     74313 TIP3     11639    TIP3     H2       HT       0.417000       1.00800           0
     74314 TIP3     11640    TIP3     OH2      OT      -0.834000       15.9994           0
     74315 TIP3     11640    TIP3     H1       HT       0.417000       1.00800           0
     74316 TIP3     11640    TIP3     H2       HT       0.417000       1.00800           0
     74317 TIP3     11641    TIP3     OH2      OT      -0.834000       15.9994           0
     74318 TIP3     11641    TIP3     H1       HT       0.417000       1.00800           0
     74319 TIP3     11641    TIP3     H2       HT       0.417000       1.00800           0
     74320 TIP3     11642    TIP3     OH2      OT      -0.834000       15.9994           0
     74321 TIP3     11642    TIP3     H1       HT       0.417000       1.00800           0
     74322 TIP3     11642    TIP3     H2       HT       0.417000       1.00800           0
     74323 TIP3     11643    TIP3     OH2      OT      -0.834000       15.9994           0
     74324 TIP3     11643    TIP3     H1       HT       0.417000       1.00800           0
     74325 TIP3     11643    TIP3     H2       HT       0.417000       1.00800           0
     74326 TIP3     11644    TIP3     OH2      OT      -0.834000       15.9994           0
     74327 TIP3     11644    TIP3     H1       HT       0.417000       1.00800           0
     74328 TIP3     11644    TIP3     H2       HT       0.417000       1.00800           0
     74329 TIP3     11645    TIP3     OH2      OT      -0.834000       15.9994           0
     74330 TIP3     11645    TIP3     H1       HT       0.417000       1.00800           0
     74331 TIP3     11645    TIP3     H2       HT       0.417000       1.00800           0
     74332 TIP3     11646    TIP3     OH2      OT      -0.834000       15.9994           0
     74333 TIP3     11646    TIP3     H1       HT       0.417000       1.00800           0
     74334 TIP3     11646    TIP3     H2       HT       0.417000       1.00800           0
     74335 TIP3     11647    TIP3     OH2      OT      -0.834000       15.9994           0
     74336 TIP3     11647    TIP3     H1       HT       0.417000       1.00800           0
     74337 TIP3     11647    TIP3     H2       HT       0.417000       1.00800           0
     74338 TIP3     11648    TIP3     OH2      OT      -0.834000       15.9994           0
     74339 TIP3     11648    TIP3     H1       HT       0.417000       1.00800           0
     74340 TIP3     11648    TIP3     H2       HT       0.417000       1.00800           0
     74341 TIP3     11649    TIP3     OH2      OT      -0.834000       15.9994           0
     74342 TIP3     11649    TIP3     H1       HT       0.417000       1.00800           0
     74343 TIP3     11649    TIP3     H2       HT       0.417000       1.00800           0
     74344 TIP3     11650    TIP3     OH2      OT      -0.834000       15.9994           0
     74345 TIP3     11650    TIP3     H1       HT       0.417000       1.00800           0
     74346 TIP3     11650    TIP3     H2       HT       0.417000       1.00800           0
     74347 TIP3     11651    TIP3     OH2      OT      -0.834000       15.9994           0
     74348 TIP3     11651    TIP3     H1       HT       0.417000       1.00800           0
     74349 TIP3     11651    TIP3     H2       HT       0.417000       1.00800           0
     74350 TIP3     11652    TIP3     OH2      OT      -0.834000       15.9994           0
     74351 TIP3     11652    TIP3     H1       HT       0.417000       1.00800           0
     74352 TIP3     11652    TIP3     H2       HT       0.417000       1.00800           0
     74353 TIP3     11653    TIP3     OH2      OT      -0.834000       15.9994           0
     74354 TIP3     11653    TIP3     H1       HT       0.417000       1.00800           0
     74355 TIP3     11653    TIP3     H2       HT       0.417000       1.00800           0
     74356 TIP3     11654    TIP3     OH2      OT      -0.834000       15.9994           0
     74357 TIP3     11654    TIP3     H1       HT       0.417000       1.00800           0
     74358 TIP3     11654    TIP3     H2       HT       0.417000       1.00800           0
     74359 TIP3     11655    TIP3     OH2      OT      -0.834000       15.9994           0
     74360 TIP3     11655    TIP3     H1       HT       0.417000       1.00800           0
     74361 TIP3     11655    TIP3     H2       HT       0.417000       1.00800           0
     74362 TIP3     11656    TIP3     OH2      OT      -0.834000       15.9994           0
     74363 TIP3     11656    TIP3     H1       HT       0.417000       1.00800           0
     74364 TIP3     11656    TIP3     H2       HT       0.417000       1.00800           0
     74365 TIP3     11657    TIP3     OH2      OT      -0.834000       15.9994           0
     74366 TIP3     11657    TIP3     H1       HT       0.417000       1.00800           0
     74367 TIP3     11657    TIP3     H2       HT       0.417000       1.00800           0
     74368 TIP3     11658    TIP3     OH2      OT      -0.834000       15.9994           0
     74369 TIP3     11658    TIP3     H1       HT       0.417000       1.00800           0
     74370 TIP3     11658    TIP3     H2       HT       0.417000       1.00800           0
     74371 TIP3     11659    TIP3     OH2      OT      -0.834000       15.9994           0
     74372 TIP3     11659    TIP3     H1       HT       0.417000       1.00800           0
     74373 TIP3     11659    TIP3     H2       HT       0.417000       1.00800           0
     74374 TIP3     11660    TIP3     OH2      OT      -0.834000       15.9994           0
     74375 TIP3     11660    TIP3     H1       HT       0.417000       1.00800           0
     74376 TIP3     11660    TIP3     H2       HT       0.417000       1.00800           0
     74377 TIP3     11661    TIP3     OH2      OT      -0.834000       15.9994           0
     74378 TIP3     11661    TIP3     H1       HT       0.417000       1.00800           0
     74379 TIP3     11661    TIP3     H2       HT       0.417000       1.00800           0
     74380 TIP3     11662    TIP3     OH2      OT      -0.834000       15.9994           0
     74381 TIP3     11662    TIP3     H1       HT       0.417000       1.00800           0
     74382 TIP3     11662    TIP3     H2       HT       0.417000       1.00800           0
     74383 TIP3     11663    TIP3     OH2      OT      -0.834000       15.9994           0
     74384 TIP3     11663    TIP3     H1       HT       0.417000       1.00800           0
     74385 TIP3     11663    TIP3     H2       HT       0.417000       1.00800           0
     74386 TIP3     11664    TIP3     OH2      OT      -0.834000       15.9994           0
     74387 TIP3     11664    TIP3     H1       HT       0.417000       1.00800           0
     74388 TIP3     11664    TIP3     H2       HT       0.417000       1.00800           0
     74389 TIP3     11665    TIP3     OH2      OT      -0.834000       15.9994           0
     74390 TIP3     11665    TIP3     H1       HT       0.417000       1.00800           0
     74391 TIP3     11665    TIP3     H2       HT       0.417000       1.00800           0
     74392 TIP3     11666    TIP3     OH2      OT      -0.834000       15.9994           0
     74393 TIP3     11666    TIP3     H1       HT       0.417000       1.00800           0
     74394 TIP3     11666    TIP3     H2       HT       0.417000       1.00800           0
     74395 TIP3     11667    TIP3     OH2      OT      -0.834000       15.9994           0
     74396 TIP3     11667    TIP3     H1       HT       0.417000       1.00800           0
     74397 TIP3     11667    TIP3     H2       HT       0.417000       1.00800           0
     74398 TIP3     11668    TIP3     OH2      OT      -0.834000       15.9994           0
     74399 TIP3     11668    TIP3     H1       HT       0.417000       1.00800           0
     74400 TIP3     11668    TIP3     H2       HT       0.417000       1.00800           0
     74401 TIP3     11669    TIP3     OH2      OT      -0.834000       15.9994           0
     74402 TIP3     11669    TIP3     H1       HT       0.417000       1.00800           0
     74403 TIP3     11669    TIP3     H2       HT       0.417000       1.00800           0
     74404 TIP3     11670    TIP3     OH2      OT      -0.834000       15.9994           0
     74405 TIP3     11670    TIP3     H1       HT       0.417000       1.00800           0
     74406 TIP3     11670    TIP3     H2       HT       0.417000       1.00800           0
     74407 TIP3     11671    TIP3     OH2      OT      -0.834000       15.9994           0
     74408 TIP3     11671    TIP3     H1       HT       0.417000       1.00800           0
     74409 TIP3     11671    TIP3     H2       HT       0.417000       1.00800           0
     74410 TIP3     11672    TIP3     OH2      OT      -0.834000       15.9994           0
     74411 TIP3     11672    TIP3     H1       HT       0.417000       1.00800           0
     74412 TIP3     11672    TIP3     H2       HT       0.417000       1.00800           0
     74413 TIP3     11673    TIP3     OH2      OT      -0.834000       15.9994           0
     74414 TIP3     11673    TIP3     H1       HT       0.417000       1.00800           0
     74415 TIP3     11673    TIP3     H2       HT       0.417000       1.00800           0
     74416 TIP3     11674    TIP3     OH2      OT      -0.834000       15.9994           0
     74417 TIP3     11674    TIP3     H1       HT       0.417000       1.00800           0
     74418 TIP3     11674    TIP3     H2       HT       0.417000       1.00800           0
     74419 TIP3     11675    TIP3     OH2      OT      -0.834000       15.9994           0
     74420 TIP3     11675    TIP3     H1       HT       0.417000       1.00800           0
     74421 TIP3     11675    TIP3     H2       HT       0.417000       1.00800           0
     74422 TIP3     11676    TIP3     OH2      OT      -0.834000       15.9994           0
     74423 TIP3     11676    TIP3     H1       HT       0.417000       1.00800           0
     74424 TIP3     11676    TIP3     H2       HT       0.417000       1.00800           0
     74425 TIP3     11677    TIP3     OH2      OT      -0.834000       15.9994           0
     74426 TIP3     11677    TIP3     H1       HT       0.417000       1.00800           0
     74427 TIP3     11677    TIP3     H2       HT       0.417000       1.00800           0
     74428 TIP3     11678    TIP3     OH2      OT      -0.834000       15.9994           0
     74429 TIP3     11678    TIP3     H1       HT       0.417000       1.00800           0
     74430 TIP3     11678    TIP3     H2       HT       0.417000       1.00800           0
     74431 TIP3     11679    TIP3     OH2      OT      -0.834000       15.9994           0
     74432 TIP3     11679    TIP3     H1       HT       0.417000       1.00800           0
     74433 TIP3     11679    TIP3     H2       HT       0.417000       1.00800           0
     74434 TIP3     11680    TIP3     OH2      OT      -0.834000       15.9994           0
     74435 TIP3     11680    TIP3     H1       HT       0.417000       1.00800           0
     74436 TIP3     11680    TIP3     H2       HT       0.417000       1.00800           0
     74437 TIP3     11681    TIP3     OH2      OT      -0.834000       15.9994           0
     74438 TIP3     11681    TIP3     H1       HT       0.417000       1.00800           0
     74439 TIP3     11681    TIP3     H2       HT       0.417000       1.00800           0
     74440 TIP3     11682    TIP3     OH2      OT      -0.834000       15.9994           0
     74441 TIP3     11682    TIP3     H1       HT       0.417000       1.00800           0
     74442 TIP3     11682    TIP3     H2       HT       0.417000       1.00800           0
     74443 TIP3     11683    TIP3     OH2      OT      -0.834000       15.9994           0
     74444 TIP3     11683    TIP3     H1       HT       0.417000       1.00800           0
     74445 TIP3     11683    TIP3     H2       HT       0.417000       1.00800           0
     74446 TIP3     11684    TIP3     OH2      OT      -0.834000       15.9994           0
     74447 TIP3     11684    TIP3     H1       HT       0.417000       1.00800           0
     74448 TIP3     11684    TIP3     H2       HT       0.417000       1.00800           0
     74449 TIP3     11685    TIP3     OH2      OT      -0.834000       15.9994           0
     74450 TIP3     11685    TIP3     H1       HT       0.417000       1.00800           0
     74451 TIP3     11685    TIP3     H2       HT       0.417000       1.00800           0
     74452 TIP3     11686    TIP3     OH2      OT      -0.834000       15.9994           0
     74453 TIP3     11686    TIP3     H1       HT       0.417000       1.00800           0
     74454 TIP3     11686    TIP3     H2       HT       0.417000       1.00800           0
     74455 TIP3     11687    TIP3     OH2      OT      -0.834000       15.9994           0
     74456 TIP3     11687    TIP3     H1       HT       0.417000       1.00800           0
     74457 TIP3     11687    TIP3     H2       HT       0.417000       1.00800           0
     74458 TIP3     11688    TIP3     OH2      OT      -0.834000       15.9994           0
     74459 TIP3     11688    TIP3     H1       HT       0.417000       1.00800           0
     74460 TIP3     11688    TIP3     H2       HT       0.417000       1.00800           0
     74461 TIP3     11689    TIP3     OH2      OT      -0.834000       15.9994           0
     74462 TIP3     11689    TIP3     H1       HT       0.417000       1.00800           0
     74463 TIP3     11689    TIP3     H2       HT       0.417000       1.00800           0
     74464 TIP3     11690    TIP3     OH2      OT      -0.834000       15.9994           0
     74465 TIP3     11690    TIP3     H1       HT       0.417000       1.00800           0
     74466 TIP3     11690    TIP3     H2       HT       0.417000       1.00800           0
     74467 TIP3     11691    TIP3     OH2      OT      -0.834000       15.9994           0
     74468 TIP3     11691    TIP3     H1       HT       0.417000       1.00800           0
     74469 TIP3     11691    TIP3     H2       HT       0.417000       1.00800           0
     74470 TIP3     11692    TIP3     OH2      OT      -0.834000       15.9994           0
     74471 TIP3     11692    TIP3     H1       HT       0.417000       1.00800           0
     74472 TIP3     11692    TIP3     H2       HT       0.417000       1.00800           0
     74473 TIP3     11693    TIP3     OH2      OT      -0.834000       15.9994           0
     74474 TIP3     11693    TIP3     H1       HT       0.417000       1.00800           0
     74475 TIP3     11693    TIP3     H2       HT       0.417000       1.00800           0
     74476 TIP3     11694    TIP3     OH2      OT      -0.834000       15.9994           0
     74477 TIP3     11694    TIP3     H1       HT       0.417000       1.00800           0
     74478 TIP3     11694    TIP3     H2       HT       0.417000       1.00800           0
     74479 TIP3     11695    TIP3     OH2      OT      -0.834000       15.9994           0
     74480 TIP3     11695    TIP3     H1       HT       0.417000       1.00800           0
     74481 TIP3     11695    TIP3     H2       HT       0.417000       1.00800           0
     74482 TIP3     11696    TIP3     OH2      OT      -0.834000       15.9994           0
     74483 TIP3     11696    TIP3     H1       HT       0.417000       1.00800           0
     74484 TIP3     11696    TIP3     H2       HT       0.417000       1.00800           0
     74485 TIP3     11697    TIP3     OH2      OT      -0.834000       15.9994           0
     74486 TIP3     11697    TIP3     H1       HT       0.417000       1.00800           0
     74487 TIP3     11697    TIP3     H2       HT       0.417000       1.00800           0
     74488 TIP3     11698    TIP3     OH2      OT      -0.834000       15.9994           0
     74489 TIP3     11698    TIP3     H1       HT       0.417000       1.00800           0
     74490 TIP3     11698    TIP3     H2       HT       0.417000       1.00800           0
     74491 TIP3     11699    TIP3     OH2      OT      -0.834000       15.9994           0
     74492 TIP3     11699    TIP3     H1       HT       0.417000       1.00800           0
     74493 TIP3     11699    TIP3     H2       HT       0.417000       1.00800           0
     74494 TIP3     11700    TIP3     OH2      OT      -0.834000       15.9994           0
     74495 TIP3     11700    TIP3     H1       HT       0.417000       1.00800           0
     74496 TIP3     11700    TIP3     H2       HT       0.417000       1.00800           0
     74497 TIP3     11701    TIP3     OH2      OT      -0.834000       15.9994           0
     74498 TIP3     11701    TIP3     H1       HT       0.417000       1.00800           0
     74499 TIP3     11701    TIP3     H2       HT       0.417000       1.00800           0
     74500 TIP3     11702    TIP3     OH2      OT      -0.834000       15.9994           0
     74501 TIP3     11702    TIP3     H1       HT       0.417000       1.00800           0
     74502 TIP3     11702    TIP3     H2       HT       0.417000       1.00800           0
     74503 TIP3     11703    TIP3     OH2      OT      -0.834000       15.9994           0
     74504 TIP3     11703    TIP3     H1       HT       0.417000       1.00800           0
     74505 TIP3     11703    TIP3     H2       HT       0.417000       1.00800           0
     74506 TIP3     11704    TIP3     OH2      OT      -0.834000       15.9994           0
     74507 TIP3     11704    TIP3     H1       HT       0.417000       1.00800           0
     74508 TIP3     11704    TIP3     H2       HT       0.417000       1.00800           0
     74509 TIP3     11705    TIP3     OH2      OT      -0.834000       15.9994           0
     74510 TIP3     11705    TIP3     H1       HT       0.417000       1.00800           0
     74511 TIP3     11705    TIP3     H2       HT       0.417000       1.00800           0
     74512 TIP3     11706    TIP3     OH2      OT      -0.834000       15.9994           0
     74513 TIP3     11706    TIP3     H1       HT       0.417000       1.00800           0
     74514 TIP3     11706    TIP3     H2       HT       0.417000       1.00800           0
     74515 TIP3     11707    TIP3     OH2      OT      -0.834000       15.9994           0
     74516 TIP3     11707    TIP3     H1       HT       0.417000       1.00800           0
     74517 TIP3     11707    TIP3     H2       HT       0.417000       1.00800           0
     74518 TIP3     11708    TIP3     OH2      OT      -0.834000       15.9994           0
     74519 TIP3     11708    TIP3     H1       HT       0.417000       1.00800           0
     74520 TIP3     11708    TIP3     H2       HT       0.417000       1.00800           0
     74521 TIP3     11709    TIP3     OH2      OT      -0.834000       15.9994           0
     74522 TIP3     11709    TIP3     H1       HT       0.417000       1.00800           0
     74523 TIP3     11709    TIP3     H2       HT       0.417000       1.00800           0
     74524 TIP3     11710    TIP3     OH2      OT      -0.834000       15.9994           0
     74525 TIP3     11710    TIP3     H1       HT       0.417000       1.00800           0
     74526 TIP3     11710    TIP3     H2       HT       0.417000       1.00800           0
     74527 TIP3     11711    TIP3     OH2      OT      -0.834000       15.9994           0
     74528 TIP3     11711    TIP3     H1       HT       0.417000       1.00800           0
     74529 TIP3     11711    TIP3     H2       HT       0.417000       1.00800           0
     74530 TIP3     11712    TIP3     OH2      OT      -0.834000       15.9994           0
     74531 TIP3     11712    TIP3     H1       HT       0.417000       1.00800           0
     74532 TIP3     11712    TIP3     H2       HT       0.417000       1.00800           0
     74533 TIP3     11713    TIP3     OH2      OT      -0.834000       15.9994           0
     74534 TIP3     11713    TIP3     H1       HT       0.417000       1.00800           0
     74535 TIP3     11713    TIP3     H2       HT       0.417000       1.00800           0
     74536 TIP3     11714    TIP3     OH2      OT      -0.834000       15.9994           0
     74537 TIP3     11714    TIP3     H1       HT       0.417000       1.00800           0
     74538 TIP3     11714    TIP3     H2       HT       0.417000       1.00800           0
     74539 TIP3     11715    TIP3     OH2      OT      -0.834000       15.9994           0
     74540 TIP3     11715    TIP3     H1       HT       0.417000       1.00800           0
     74541 TIP3     11715    TIP3     H2       HT       0.417000       1.00800           0
     74542 TIP3     11716    TIP3     OH2      OT      -0.834000       15.9994           0
     74543 TIP3     11716    TIP3     H1       HT       0.417000       1.00800           0
     74544 TIP3     11716    TIP3     H2       HT       0.417000       1.00800           0
     74545 TIP3     11717    TIP3     OH2      OT      -0.834000       15.9994           0
     74546 TIP3     11717    TIP3     H1       HT       0.417000       1.00800           0
     74547 TIP3     11717    TIP3     H2       HT       0.417000       1.00800           0
     74548 TIP3     11718    TIP3     OH2      OT      -0.834000       15.9994           0
     74549 TIP3     11718    TIP3     H1       HT       0.417000       1.00800           0
     74550 TIP3     11718    TIP3     H2       HT       0.417000       1.00800           0
     74551 TIP3     11719    TIP3     OH2      OT      -0.834000       15.9994           0
     74552 TIP3     11719    TIP3     H1       HT       0.417000       1.00800           0
     74553 TIP3     11719    TIP3     H2       HT       0.417000       1.00800           0
     74554 TIP3     11720    TIP3     OH2      OT      -0.834000       15.9994           0
     74555 TIP3     11720    TIP3     H1       HT       0.417000       1.00800           0
     74556 TIP3     11720    TIP3     H2       HT       0.417000       1.00800           0
     74557 TIP3     11721    TIP3     OH2      OT      -0.834000       15.9994           0
     74558 TIP3     11721    TIP3     H1       HT       0.417000       1.00800           0
     74559 TIP3     11721    TIP3     H2       HT       0.417000       1.00800           0
     74560 TIP3     11722    TIP3     OH2      OT      -0.834000       15.9994           0
     74561 TIP3     11722    TIP3     H1       HT       0.417000       1.00800           0
     74562 TIP3     11722    TIP3     H2       HT       0.417000       1.00800           0
     74563 TIP3     11723    TIP3     OH2      OT      -0.834000       15.9994           0
     74564 TIP3     11723    TIP3     H1       HT       0.417000       1.00800           0
     74565 TIP3     11723    TIP3     H2       HT       0.417000       1.00800           0
     74566 TIP3     11724    TIP3     OH2      OT      -0.834000       15.9994           0
     74567 TIP3     11724    TIP3     H1       HT       0.417000       1.00800           0
     74568 TIP3     11724    TIP3     H2       HT       0.417000       1.00800           0
     74569 TIP3     11725    TIP3     OH2      OT      -0.834000       15.9994           0
     74570 TIP3     11725    TIP3     H1       HT       0.417000       1.00800           0
     74571 TIP3     11725    TIP3     H2       HT       0.417000       1.00800           0
     74572 TIP3     11726    TIP3     OH2      OT      -0.834000       15.9994           0
     74573 TIP3     11726    TIP3     H1       HT       0.417000       1.00800           0
     74574 TIP3     11726    TIP3     H2       HT       0.417000       1.00800           0
     74575 TIP3     11727    TIP3     OH2      OT      -0.834000       15.9994           0
     74576 TIP3     11727    TIP3     H1       HT       0.417000       1.00800           0
     74577 TIP3     11727    TIP3     H2       HT       0.417000       1.00800           0
     74578 TIP3     11728    TIP3     OH2      OT      -0.834000       15.9994           0
     74579 TIP3     11728    TIP3     H1       HT       0.417000       1.00800           0
     74580 TIP3     11728    TIP3     H2       HT       0.417000       1.00800           0
     74581 TIP3     11729    TIP3     OH2      OT      -0.834000       15.9994           0
     74582 TIP3     11729    TIP3     H1       HT       0.417000       1.00800           0
     74583 TIP3     11729    TIP3     H2       HT       0.417000       1.00800           0
     74584 TIP3     11730    TIP3     OH2      OT      -0.834000       15.9994           0
     74585 TIP3     11730    TIP3     H1       HT       0.417000       1.00800           0
     74586 TIP3     11730    TIP3     H2       HT       0.417000       1.00800           0
     74587 TIP3     11731    TIP3     OH2      OT      -0.834000       15.9994           0
     74588 TIP3     11731    TIP3     H1       HT       0.417000       1.00800           0
     74589 TIP3     11731    TIP3     H2       HT       0.417000       1.00800           0
     74590 TIP3     11732    TIP3     OH2      OT      -0.834000       15.9994           0
     74591 TIP3     11732    TIP3     H1       HT       0.417000       1.00800           0
     74592 TIP3     11732    TIP3     H2       HT       0.417000       1.00800           0
     74593 TIP3     11733    TIP3     OH2      OT      -0.834000       15.9994           0
     74594 TIP3     11733    TIP3     H1       HT       0.417000       1.00800           0
     74595 TIP3     11733    TIP3     H2       HT       0.417000       1.00800           0
     74596 TIP3     11734    TIP3     OH2      OT      -0.834000       15.9994           0
     74597 TIP3     11734    TIP3     H1       HT       0.417000       1.00800           0
     74598 TIP3     11734    TIP3     H2       HT       0.417000       1.00800           0
     74599 TIP3     11735    TIP3     OH2      OT      -0.834000       15.9994           0
     74600 TIP3     11735    TIP3     H1       HT       0.417000       1.00800           0
     74601 TIP3     11735    TIP3     H2       HT       0.417000       1.00800           0
     74602 TIP3     11736    TIP3     OH2      OT      -0.834000       15.9994           0
     74603 TIP3     11736    TIP3     H1       HT       0.417000       1.00800           0
     74604 TIP3     11736    TIP3     H2       HT       0.417000       1.00800           0
     74605 TIP3     11737    TIP3     OH2      OT      -0.834000       15.9994           0
     74606 TIP3     11737    TIP3     H1       HT       0.417000       1.00800           0
     74607 TIP3     11737    TIP3     H2       HT       0.417000       1.00800           0
     74608 TIP3     11738    TIP3     OH2      OT      -0.834000       15.9994           0
     74609 TIP3     11738    TIP3     H1       HT       0.417000       1.00800           0
     74610 TIP3     11738    TIP3     H2       HT       0.417000       1.00800           0
     74611 TIP3     11739    TIP3     OH2      OT      -0.834000       15.9994           0
     74612 TIP3     11739    TIP3     H1       HT       0.417000       1.00800           0
     74613 TIP3     11739    TIP3     H2       HT       0.417000       1.00800           0
     74614 TIP3     11740    TIP3     OH2      OT      -0.834000       15.9994           0
     74615 TIP3     11740    TIP3     H1       HT       0.417000       1.00800           0
     74616 TIP3     11740    TIP3     H2       HT       0.417000       1.00800           0
     74617 TIP3     11741    TIP3     OH2      OT      -0.834000       15.9994           0
     74618 TIP3     11741    TIP3     H1       HT       0.417000       1.00800           0
     74619 TIP3     11741    TIP3     H2       HT       0.417000       1.00800           0
     74620 TIP3     11742    TIP3     OH2      OT      -0.834000       15.9994           0
     74621 TIP3     11742    TIP3     H1       HT       0.417000       1.00800           0
     74622 TIP3     11742    TIP3     H2       HT       0.417000       1.00800           0
     74623 TIP3     11743    TIP3     OH2      OT      -0.834000       15.9994           0
     74624 TIP3     11743    TIP3     H1       HT       0.417000       1.00800           0
     74625 TIP3     11743    TIP3     H2       HT       0.417000       1.00800           0
     74626 TIP3     11744    TIP3     OH2      OT      -0.834000       15.9994           0
     74627 TIP3     11744    TIP3     H1       HT       0.417000       1.00800           0
     74628 TIP3     11744    TIP3     H2       HT       0.417000       1.00800           0
     74629 TIP3     11745    TIP3     OH2      OT      -0.834000       15.9994           0
     74630 TIP3     11745    TIP3     H1       HT       0.417000       1.00800           0
     74631 TIP3     11745    TIP3     H2       HT       0.417000       1.00800           0
     74632 TIP3     11746    TIP3     OH2      OT      -0.834000       15.9994           0
     74633 TIP3     11746    TIP3     H1       HT       0.417000       1.00800           0
     74634 TIP3     11746    TIP3     H2       HT       0.417000       1.00800           0
     74635 TIP3     11747    TIP3     OH2      OT      -0.834000       15.9994           0
     74636 TIP3     11747    TIP3     H1       HT       0.417000       1.00800           0
     74637 TIP3     11747    TIP3     H2       HT       0.417000       1.00800           0
     74638 TIP3     11748    TIP3     OH2      OT      -0.834000       15.9994           0
     74639 TIP3     11748    TIP3     H1       HT       0.417000       1.00800           0
     74640 TIP3     11748    TIP3     H2       HT       0.417000       1.00800           0
     74641 TIP3     11749    TIP3     OH2      OT      -0.834000       15.9994           0
     74642 TIP3     11749    TIP3     H1       HT       0.417000       1.00800           0
     74643 TIP3     11749    TIP3     H2       HT       0.417000       1.00800           0
     74644 TIP3     11750    TIP3     OH2      OT      -0.834000       15.9994           0
     74645 TIP3     11750    TIP3     H1       HT       0.417000       1.00800           0
     74646 TIP3     11750    TIP3     H2       HT       0.417000       1.00800           0
     74647 TIP3     11751    TIP3     OH2      OT      -0.834000       15.9994           0
     74648 TIP3     11751    TIP3     H1       HT       0.417000       1.00800           0
     74649 TIP3     11751    TIP3     H2       HT       0.417000       1.00800           0
     74650 TIP3     11752    TIP3     OH2      OT      -0.834000       15.9994           0
     74651 TIP3     11752    TIP3     H1       HT       0.417000       1.00800           0
     74652 TIP3     11752    TIP3     H2       HT       0.417000       1.00800           0
     74653 TIP3     11753    TIP3     OH2      OT      -0.834000       15.9994           0
     74654 TIP3     11753    TIP3     H1       HT       0.417000       1.00800           0
     74655 TIP3     11753    TIP3     H2       HT       0.417000       1.00800           0
     74656 TIP3     11754    TIP3     OH2      OT      -0.834000       15.9994           0
     74657 TIP3     11754    TIP3     H1       HT       0.417000       1.00800           0
     74658 TIP3     11754    TIP3     H2       HT       0.417000       1.00800           0
     74659 TIP3     11755    TIP3     OH2      OT      -0.834000       15.9994           0
     74660 TIP3     11755    TIP3     H1       HT       0.417000       1.00800           0
     74661 TIP3     11755    TIP3     H2       HT       0.417000       1.00800           0
     74662 TIP3     11756    TIP3     OH2      OT      -0.834000       15.9994           0
     74663 TIP3     11756    TIP3     H1       HT       0.417000       1.00800           0
     74664 TIP3     11756    TIP3     H2       HT       0.417000       1.00800           0
     74665 TIP3     11757    TIP3     OH2      OT      -0.834000       15.9994           0
     74666 TIP3     11757    TIP3     H1       HT       0.417000       1.00800           0
     74667 TIP3     11757    TIP3     H2       HT       0.417000       1.00800           0
     74668 TIP3     11758    TIP3     OH2      OT      -0.834000       15.9994           0
     74669 TIP3     11758    TIP3     H1       HT       0.417000       1.00800           0
     74670 TIP3     11758    TIP3     H2       HT       0.417000       1.00800           0
     74671 TIP3     11759    TIP3     OH2      OT      -0.834000       15.9994           0
     74672 TIP3     11759    TIP3     H1       HT       0.417000       1.00800           0
     74673 TIP3     11759    TIP3     H2       HT       0.417000       1.00800           0
     74674 TIP3     11760    TIP3     OH2      OT      -0.834000       15.9994           0
     74675 TIP3     11760    TIP3     H1       HT       0.417000       1.00800           0
     74676 TIP3     11760    TIP3     H2       HT       0.417000       1.00800           0
     74677 TIP3     11761    TIP3     OH2      OT      -0.834000       15.9994           0
     74678 TIP3     11761    TIP3     H1       HT       0.417000       1.00800           0
     74679 TIP3     11761    TIP3     H2       HT       0.417000       1.00800           0
     74680 TIP3     11762    TIP3     OH2      OT      -0.834000       15.9994           0
     74681 TIP3     11762    TIP3     H1       HT       0.417000       1.00800           0
     74682 TIP3     11762    TIP3     H2       HT       0.417000       1.00800           0
     74683 TIP3     11763    TIP3     OH2      OT      -0.834000       15.9994           0
     74684 TIP3     11763    TIP3     H1       HT       0.417000       1.00800           0
     74685 TIP3     11763    TIP3     H2       HT       0.417000       1.00800           0
     74686 TIP3     11764    TIP3     OH2      OT      -0.834000       15.9994           0
     74687 TIP3     11764    TIP3     H1       HT       0.417000       1.00800           0
     74688 TIP3     11764    TIP3     H2       HT       0.417000       1.00800           0
     74689 TIP3     11765    TIP3     OH2      OT      -0.834000       15.9994           0
     74690 TIP3     11765    TIP3     H1       HT       0.417000       1.00800           0
     74691 TIP3     11765    TIP3     H2       HT       0.417000       1.00800           0
     74692 TIP3     11766    TIP3     OH2      OT      -0.834000       15.9994           0
     74693 TIP3     11766    TIP3     H1       HT       0.417000       1.00800           0
     74694 TIP3     11766    TIP3     H2       HT       0.417000       1.00800           0
     74695 TIP3     11767    TIP3     OH2      OT      -0.834000       15.9994           0
     74696 TIP3     11767    TIP3     H1       HT       0.417000       1.00800           0
     74697 TIP3     11767    TIP3     H2       HT       0.417000       1.00800           0
     74698 TIP3     11768    TIP3     OH2      OT      -0.834000       15.9994           0
     74699 TIP3     11768    TIP3     H1       HT       0.417000       1.00800           0
     74700 TIP3     11768    TIP3     H2       HT       0.417000       1.00800           0
     74701 TIP3     11769    TIP3     OH2      OT      -0.834000       15.9994           0
     74702 TIP3     11769    TIP3     H1       HT       0.417000       1.00800           0
     74703 TIP3     11769    TIP3     H2       HT       0.417000       1.00800           0
     74704 TIP3     11770    TIP3     OH2      OT      -0.834000       15.9994           0
     74705 TIP3     11770    TIP3     H1       HT       0.417000       1.00800           0
     74706 TIP3     11770    TIP3     H2       HT       0.417000       1.00800           0
     74707 TIP3     11771    TIP3     OH2      OT      -0.834000       15.9994           0
     74708 TIP3     11771    TIP3     H1       HT       0.417000       1.00800           0
     74709 TIP3     11771    TIP3     H2       HT       0.417000       1.00800           0
     74710 TIP3     11772    TIP3     OH2      OT      -0.834000       15.9994           0
     74711 TIP3     11772    TIP3     H1       HT       0.417000       1.00800           0
     74712 TIP3     11772    TIP3     H2       HT       0.417000       1.00800           0
     74713 TIP3     11773    TIP3     OH2      OT      -0.834000       15.9994           0
     74714 TIP3     11773    TIP3     H1       HT       0.417000       1.00800           0
     74715 TIP3     11773    TIP3     H2       HT       0.417000       1.00800           0
     74716 TIP3     11774    TIP3     OH2      OT      -0.834000       15.9994           0
     74717 TIP3     11774    TIP3     H1       HT       0.417000       1.00800           0
     74718 TIP3     11774    TIP3     H2       HT       0.417000       1.00800           0
     74719 TIP3     11775    TIP3     OH2      OT      -0.834000       15.9994           0
     74720 TIP3     11775    TIP3     H1       HT       0.417000       1.00800           0
     74721 TIP3     11775    TIP3     H2       HT       0.417000       1.00800           0
     74722 TIP3     11776    TIP3     OH2      OT      -0.834000       15.9994           0
     74723 TIP3     11776    TIP3     H1       HT       0.417000       1.00800           0
     74724 TIP3     11776    TIP3     H2       HT       0.417000       1.00800           0
     74725 TIP3     11777    TIP3     OH2      OT      -0.834000       15.9994           0
     74726 TIP3     11777    TIP3     H1       HT       0.417000       1.00800           0
     74727 TIP3     11777    TIP3     H2       HT       0.417000       1.00800           0
     74728 TIP3     11778    TIP3     OH2      OT      -0.834000       15.9994           0
     74729 TIP3     11778    TIP3     H1       HT       0.417000       1.00800           0
     74730 TIP3     11778    TIP3     H2       HT       0.417000       1.00800           0
     74731 TIP3     11779    TIP3     OH2      OT      -0.834000       15.9994           0
     74732 TIP3     11779    TIP3     H1       HT       0.417000       1.00800           0
     74733 TIP3     11779    TIP3     H2       HT       0.417000       1.00800           0
     74734 TIP3     11780    TIP3     OH2      OT      -0.834000       15.9994           0
     74735 TIP3     11780    TIP3     H1       HT       0.417000       1.00800           0
     74736 TIP3     11780    TIP3     H2       HT       0.417000       1.00800           0
     74737 TIP3     11781    TIP3     OH2      OT      -0.834000       15.9994           0
     74738 TIP3     11781    TIP3     H1       HT       0.417000       1.00800           0
     74739 TIP3     11781    TIP3     H2       HT       0.417000       1.00800           0
     74740 TIP3     11782    TIP3     OH2      OT      -0.834000       15.9994           0
     74741 TIP3     11782    TIP3     H1       HT       0.417000       1.00800           0
     74742 TIP3     11782    TIP3     H2       HT       0.417000       1.00800           0
     74743 TIP3     11783    TIP3     OH2      OT      -0.834000       15.9994           0
     74744 TIP3     11783    TIP3     H1       HT       0.417000       1.00800           0
     74745 TIP3     11783    TIP3     H2       HT       0.417000       1.00800           0
     74746 TIP3     11784    TIP3     OH2      OT      -0.834000       15.9994           0
     74747 TIP3     11784    TIP3     H1       HT       0.417000       1.00800           0
     74748 TIP3     11784    TIP3     H2       HT       0.417000       1.00800           0
     74749 TIP3     11785    TIP3     OH2      OT      -0.834000       15.9994           0
     74750 TIP3     11785    TIP3     H1       HT       0.417000       1.00800           0
     74751 TIP3     11785    TIP3     H2       HT       0.417000       1.00800           0
     74752 TIP3     11786    TIP3     OH2      OT      -0.834000       15.9994           0
     74753 TIP3     11786    TIP3     H1       HT       0.417000       1.00800           0
     74754 TIP3     11786    TIP3     H2       HT       0.417000       1.00800           0
     74755 TIP3     11787    TIP3     OH2      OT      -0.834000       15.9994           0
     74756 TIP3     11787    TIP3     H1       HT       0.417000       1.00800           0
     74757 TIP3     11787    TIP3     H2       HT       0.417000       1.00800           0
     74758 TIP3     11788    TIP3     OH2      OT      -0.834000       15.9994           0
     74759 TIP3     11788    TIP3     H1       HT       0.417000       1.00800           0
     74760 TIP3     11788    TIP3     H2       HT       0.417000       1.00800           0
     74761 TIP3     11789    TIP3     OH2      OT      -0.834000       15.9994           0
     74762 TIP3     11789    TIP3     H1       HT       0.417000       1.00800           0
     74763 TIP3     11789    TIP3     H2       HT       0.417000       1.00800           0
     74764 TIP3     11790    TIP3     OH2      OT      -0.834000       15.9994           0
     74765 TIP3     11790    TIP3     H1       HT       0.417000       1.00800           0
     74766 TIP3     11790    TIP3     H2       HT       0.417000       1.00800           0
     74767 TIP3     11791    TIP3     OH2      OT      -0.834000       15.9994           0
     74768 TIP3     11791    TIP3     H1       HT       0.417000       1.00800           0
     74769 TIP3     11791    TIP3     H2       HT       0.417000       1.00800           0
     74770 TIP3     11792    TIP3     OH2      OT      -0.834000       15.9994           0
     74771 TIP3     11792    TIP3     H1       HT       0.417000       1.00800           0
     74772 TIP3     11792    TIP3     H2       HT       0.417000       1.00800           0
     74773 TIP3     11793    TIP3     OH2      OT      -0.834000       15.9994           0
     74774 TIP3     11793    TIP3     H1       HT       0.417000       1.00800           0
     74775 TIP3     11793    TIP3     H2       HT       0.417000       1.00800           0
     74776 TIP3     11794    TIP3     OH2      OT      -0.834000       15.9994           0
     74777 TIP3     11794    TIP3     H1       HT       0.417000       1.00800           0
     74778 TIP3     11794    TIP3     H2       HT       0.417000       1.00800           0
     74779 TIP3     11795    TIP3     OH2      OT      -0.834000       15.9994           0
     74780 TIP3     11795    TIP3     H1       HT       0.417000       1.00800           0
     74781 TIP3     11795    TIP3     H2       HT       0.417000       1.00800           0
     74782 TIP3     11796    TIP3     OH2      OT      -0.834000       15.9994           0
     74783 TIP3     11796    TIP3     H1       HT       0.417000       1.00800           0
     74784 TIP3     11796    TIP3     H2       HT       0.417000       1.00800           0
     74785 TIP3     11797    TIP3     OH2      OT      -0.834000       15.9994           0
     74786 TIP3     11797    TIP3     H1       HT       0.417000       1.00800           0
     74787 TIP3     11797    TIP3     H2       HT       0.417000       1.00800           0
     74788 TIP3     11798    TIP3     OH2      OT      -0.834000       15.9994           0
     74789 TIP3     11798    TIP3     H1       HT       0.417000       1.00800           0
     74790 TIP3     11798    TIP3     H2       HT       0.417000       1.00800           0
     74791 TIP3     11799    TIP3     OH2      OT      -0.834000       15.9994           0
     74792 TIP3     11799    TIP3     H1       HT       0.417000       1.00800           0
     74793 TIP3     11799    TIP3     H2       HT       0.417000       1.00800           0
     74794 TIP3     11800    TIP3     OH2      OT      -0.834000       15.9994           0
     74795 TIP3     11800    TIP3     H1       HT       0.417000       1.00800           0
     74796 TIP3     11800    TIP3     H2       HT       0.417000       1.00800           0
     74797 TIP3     11801    TIP3     OH2      OT      -0.834000       15.9994           0
     74798 TIP3     11801    TIP3     H1       HT       0.417000       1.00800           0
     74799 TIP3     11801    TIP3     H2       HT       0.417000       1.00800           0
     74800 TIP3     11802    TIP3     OH2      OT      -0.834000       15.9994           0
     74801 TIP3     11802    TIP3     H1       HT       0.417000       1.00800           0
     74802 TIP3     11802    TIP3     H2       HT       0.417000       1.00800           0
     74803 TIP3     11803    TIP3     OH2      OT      -0.834000       15.9994           0
     74804 TIP3     11803    TIP3     H1       HT       0.417000       1.00800           0
     74805 TIP3     11803    TIP3     H2       HT       0.417000       1.00800           0
     74806 TIP3     11804    TIP3     OH2      OT      -0.834000       15.9994           0
     74807 TIP3     11804    TIP3     H1       HT       0.417000       1.00800           0
     74808 TIP3     11804    TIP3     H2       HT       0.417000       1.00800           0
     74809 TIP3     11805    TIP3     OH2      OT      -0.834000       15.9994           0
     74810 TIP3     11805    TIP3     H1       HT       0.417000       1.00800           0
     74811 TIP3     11805    TIP3     H2       HT       0.417000       1.00800           0
     74812 TIP3     11806    TIP3     OH2      OT      -0.834000       15.9994           0
     74813 TIP3     11806    TIP3     H1       HT       0.417000       1.00800           0
     74814 TIP3     11806    TIP3     H2       HT       0.417000       1.00800           0
     74815 TIP3     11807    TIP3     OH2      OT      -0.834000       15.9994           0
     74816 TIP3     11807    TIP3     H1       HT       0.417000       1.00800           0
     74817 TIP3     11807    TIP3     H2       HT       0.417000       1.00800           0
     74818 TIP3     11808    TIP3     OH2      OT      -0.834000       15.9994           0
     74819 TIP3     11808    TIP3     H1       HT       0.417000       1.00800           0
     74820 TIP3     11808    TIP3     H2       HT       0.417000       1.00800           0
     74821 TIP3     11809    TIP3     OH2      OT      -0.834000       15.9994           0
     74822 TIP3     11809    TIP3     H1       HT       0.417000       1.00800           0
     74823 TIP3     11809    TIP3     H2       HT       0.417000       1.00800           0
     74824 TIP3     11810    TIP3     OH2      OT      -0.834000       15.9994           0
     74825 TIP3     11810    TIP3     H1       HT       0.417000       1.00800           0
     74826 TIP3     11810    TIP3     H2       HT       0.417000       1.00800           0
     74827 TIP3     11811    TIP3     OH2      OT      -0.834000       15.9994           0
     74828 TIP3     11811    TIP3     H1       HT       0.417000       1.00800           0
     74829 TIP3     11811    TIP3     H2       HT       0.417000       1.00800           0
     74830 TIP3     11812    TIP3     OH2      OT      -0.834000       15.9994           0
     74831 TIP3     11812    TIP3     H1       HT       0.417000       1.00800           0
     74832 TIP3     11812    TIP3     H2       HT       0.417000       1.00800           0
     74833 TIP3     11813    TIP3     OH2      OT      -0.834000       15.9994           0
     74834 TIP3     11813    TIP3     H1       HT       0.417000       1.00800           0
     74835 TIP3     11813    TIP3     H2       HT       0.417000       1.00800           0
     74836 TIP3     11814    TIP3     OH2      OT      -0.834000       15.9994           0
     74837 TIP3     11814    TIP3     H1       HT       0.417000       1.00800           0
     74838 TIP3     11814    TIP3     H2       HT       0.417000       1.00800           0
     74839 TIP3     11815    TIP3     OH2      OT      -0.834000       15.9994           0
     74840 TIP3     11815    TIP3     H1       HT       0.417000       1.00800           0
     74841 TIP3     11815    TIP3     H2       HT       0.417000       1.00800           0
     74842 TIP3     11816    TIP3     OH2      OT      -0.834000       15.9994           0
     74843 TIP3     11816    TIP3     H1       HT       0.417000       1.00800           0
     74844 TIP3     11816    TIP3     H2       HT       0.417000       1.00800           0
     74845 TIP3     11817    TIP3     OH2      OT      -0.834000       15.9994           0
     74846 TIP3     11817    TIP3     H1       HT       0.417000       1.00800           0
     74847 TIP3     11817    TIP3     H2       HT       0.417000       1.00800           0
     74848 TIP3     11818    TIP3     OH2      OT      -0.834000       15.9994           0
     74849 TIP3     11818    TIP3     H1       HT       0.417000       1.00800           0
     74850 TIP3     11818    TIP3     H2       HT       0.417000       1.00800           0
     74851 TIP3     11819    TIP3     OH2      OT      -0.834000       15.9994           0
     74852 TIP3     11819    TIP3     H1       HT       0.417000       1.00800           0
     74853 TIP3     11819    TIP3     H2       HT       0.417000       1.00800           0
     74854 TIP3     11820    TIP3     OH2      OT      -0.834000       15.9994           0
     74855 TIP3     11820    TIP3     H1       HT       0.417000       1.00800           0
     74856 TIP3     11820    TIP3     H2       HT       0.417000       1.00800           0
     74857 TIP3     11821    TIP3     OH2      OT      -0.834000       15.9994           0
     74858 TIP3     11821    TIP3     H1       HT       0.417000       1.00800           0
     74859 TIP3     11821    TIP3     H2       HT       0.417000       1.00800           0
     74860 TIP3     11822    TIP3     OH2      OT      -0.834000       15.9994           0
     74861 TIP3     11822    TIP3     H1       HT       0.417000       1.00800           0
     74862 TIP3     11822    TIP3     H2       HT       0.417000       1.00800           0
     74863 TIP3     11823    TIP3     OH2      OT      -0.834000       15.9994           0
     74864 TIP3     11823    TIP3     H1       HT       0.417000       1.00800           0
     74865 TIP3     11823    TIP3     H2       HT       0.417000       1.00800           0
     74866 TIP3     11824    TIP3     OH2      OT      -0.834000       15.9994           0
     74867 TIP3     11824    TIP3     H1       HT       0.417000       1.00800           0
     74868 TIP3     11824    TIP3     H2       HT       0.417000       1.00800           0
     74869 TIP3     11825    TIP3     OH2      OT      -0.834000       15.9994           0
     74870 TIP3     11825    TIP3     H1       HT       0.417000       1.00800           0
     74871 TIP3     11825    TIP3     H2       HT       0.417000       1.00800           0
     74872 TIP3     11826    TIP3     OH2      OT      -0.834000       15.9994           0
     74873 TIP3     11826    TIP3     H1       HT       0.417000       1.00800           0
     74874 TIP3     11826    TIP3     H2       HT       0.417000       1.00800           0
     74875 TIP3     11827    TIP3     OH2      OT      -0.834000       15.9994           0
     74876 TIP3     11827    TIP3     H1       HT       0.417000       1.00800           0
     74877 TIP3     11827    TIP3     H2       HT       0.417000       1.00800           0
     74878 TIP3     11828    TIP3     OH2      OT      -0.834000       15.9994           0
     74879 TIP3     11828    TIP3     H1       HT       0.417000       1.00800           0
     74880 TIP3     11828    TIP3     H2       HT       0.417000       1.00800           0
     74881 TIP3     11829    TIP3     OH2      OT      -0.834000       15.9994           0
     74882 TIP3     11829    TIP3     H1       HT       0.417000       1.00800           0
     74883 TIP3     11829    TIP3     H2       HT       0.417000       1.00800           0
     74884 TIP3     11830    TIP3     OH2      OT      -0.834000       15.9994           0
     74885 TIP3     11830    TIP3     H1       HT       0.417000       1.00800           0
     74886 TIP3     11830    TIP3     H2       HT       0.417000       1.00800           0
     74887 TIP3     11831    TIP3     OH2      OT      -0.834000       15.9994           0
     74888 TIP3     11831    TIP3     H1       HT       0.417000       1.00800           0
     74889 TIP3     11831    TIP3     H2       HT       0.417000       1.00800           0
     74890 TIP3     11832    TIP3     OH2      OT      -0.834000       15.9994           0
     74891 TIP3     11832    TIP3     H1       HT       0.417000       1.00800           0
     74892 TIP3     11832    TIP3     H2       HT       0.417000       1.00800           0
     74893 TIP3     11833    TIP3     OH2      OT      -0.834000       15.9994           0
     74894 TIP3     11833    TIP3     H1       HT       0.417000       1.00800           0
     74895 TIP3     11833    TIP3     H2       HT       0.417000       1.00800           0
     74896 TIP3     11834    TIP3     OH2      OT      -0.834000       15.9994           0
     74897 TIP3     11834    TIP3     H1       HT       0.417000       1.00800           0
     74898 TIP3     11834    TIP3     H2       HT       0.417000       1.00800           0
     74899 TIP3     11835    TIP3     OH2      OT      -0.834000       15.9994           0
     74900 TIP3     11835    TIP3     H1       HT       0.417000       1.00800           0
     74901 TIP3     11835    TIP3     H2       HT       0.417000       1.00800           0
     74902 TIP3     11836    TIP3     OH2      OT      -0.834000       15.9994           0
     74903 TIP3     11836    TIP3     H1       HT       0.417000       1.00800           0
     74904 TIP3     11836    TIP3     H2       HT       0.417000       1.00800           0
     74905 TIP3     11837    TIP3     OH2      OT      -0.834000       15.9994           0
     74906 TIP3     11837    TIP3     H1       HT       0.417000       1.00800           0
     74907 TIP3     11837    TIP3     H2       HT       0.417000       1.00800           0
     74908 TIP3     11838    TIP3     OH2      OT      -0.834000       15.9994           0
     74909 TIP3     11838    TIP3     H1       HT       0.417000       1.00800           0
     74910 TIP3     11838    TIP3     H2       HT       0.417000       1.00800           0
     74911 TIP3     11839    TIP3     OH2      OT      -0.834000       15.9994           0
     74912 TIP3     11839    TIP3     H1       HT       0.417000       1.00800           0
     74913 TIP3     11839    TIP3     H2       HT       0.417000       1.00800           0
     74914 TIP3     11840    TIP3     OH2      OT      -0.834000       15.9994           0
     74915 TIP3     11840    TIP3     H1       HT       0.417000       1.00800           0
     74916 TIP3     11840    TIP3     H2       HT       0.417000       1.00800           0
     74917 TIP3     11841    TIP3     OH2      OT      -0.834000       15.9994           0
     74918 TIP3     11841    TIP3     H1       HT       0.417000       1.00800           0
     74919 TIP3     11841    TIP3     H2       HT       0.417000       1.00800           0
     74920 TIP3     11842    TIP3     OH2      OT      -0.834000       15.9994           0
     74921 TIP3     11842    TIP3     H1       HT       0.417000       1.00800           0
     74922 TIP3     11842    TIP3     H2       HT       0.417000       1.00800           0
     74923 TIP3     11843    TIP3     OH2      OT      -0.834000       15.9994           0
     74924 TIP3     11843    TIP3     H1       HT       0.417000       1.00800           0
     74925 TIP3     11843    TIP3     H2       HT       0.417000       1.00800           0
     74926 TIP3     11844    TIP3     OH2      OT      -0.834000       15.9994           0
     74927 TIP3     11844    TIP3     H1       HT       0.417000       1.00800           0
     74928 TIP3     11844    TIP3     H2       HT       0.417000       1.00800           0
     74929 TIP3     11845    TIP3     OH2      OT      -0.834000       15.9994           0
     74930 TIP3     11845    TIP3     H1       HT       0.417000       1.00800           0
     74931 TIP3     11845    TIP3     H2       HT       0.417000       1.00800           0
     74932 TIP3     11846    TIP3     OH2      OT      -0.834000       15.9994           0
     74933 TIP3     11846    TIP3     H1       HT       0.417000       1.00800           0
     74934 TIP3     11846    TIP3     H2       HT       0.417000       1.00800           0
     74935 TIP3     11847    TIP3     OH2      OT      -0.834000       15.9994           0
     74936 TIP3     11847    TIP3     H1       HT       0.417000       1.00800           0
     74937 TIP3     11847    TIP3     H2       HT       0.417000       1.00800           0
     74938 TIP3     11848    TIP3     OH2      OT      -0.834000       15.9994           0
     74939 TIP3     11848    TIP3     H1       HT       0.417000       1.00800           0
     74940 TIP3     11848    TIP3     H2       HT       0.417000       1.00800           0
     74941 TIP3     11849    TIP3     OH2      OT      -0.834000       15.9994           0
     74942 TIP3     11849    TIP3     H1       HT       0.417000       1.00800           0
     74943 TIP3     11849    TIP3     H2       HT       0.417000       1.00800           0
     74944 TIP3     11850    TIP3     OH2      OT      -0.834000       15.9994           0
     74945 TIP3     11850    TIP3     H1       HT       0.417000       1.00800           0
     74946 TIP3     11850    TIP3     H2       HT       0.417000       1.00800           0
     74947 TIP3     11851    TIP3     OH2      OT      -0.834000       15.9994           0
     74948 TIP3     11851    TIP3     H1       HT       0.417000       1.00800           0
     74949 TIP3     11851    TIP3     H2       HT       0.417000       1.00800           0
     74950 TIP3     11852    TIP3     OH2      OT      -0.834000       15.9994           0
     74951 TIP3     11852    TIP3     H1       HT       0.417000       1.00800           0
     74952 TIP3     11852    TIP3     H2       HT       0.417000       1.00800           0
     74953 TIP3     11853    TIP3     OH2      OT      -0.834000       15.9994           0
     74954 TIP3     11853    TIP3     H1       HT       0.417000       1.00800           0
     74955 TIP3     11853    TIP3     H2       HT       0.417000       1.00800           0
     74956 TIP3     11854    TIP3     OH2      OT      -0.834000       15.9994           0
     74957 TIP3     11854    TIP3     H1       HT       0.417000       1.00800           0
     74958 TIP3     11854    TIP3     H2       HT       0.417000       1.00800           0
     74959 TIP3     11855    TIP3     OH2      OT      -0.834000       15.9994           0
     74960 TIP3     11855    TIP3     H1       HT       0.417000       1.00800           0
     74961 TIP3     11855    TIP3     H2       HT       0.417000       1.00800           0
     74962 TIP3     11856    TIP3     OH2      OT      -0.834000       15.9994           0
     74963 TIP3     11856    TIP3     H1       HT       0.417000       1.00800           0
     74964 TIP3     11856    TIP3     H2       HT       0.417000       1.00800           0
     74965 TIP3     11857    TIP3     OH2      OT      -0.834000       15.9994           0
     74966 TIP3     11857    TIP3     H1       HT       0.417000       1.00800           0
     74967 TIP3     11857    TIP3     H2       HT       0.417000       1.00800           0
     74968 TIP3     11858    TIP3     OH2      OT      -0.834000       15.9994           0
     74969 TIP3     11858    TIP3     H1       HT       0.417000       1.00800           0
     74970 TIP3     11858    TIP3     H2       HT       0.417000       1.00800           0
     74971 TIP3     11859    TIP3     OH2      OT      -0.834000       15.9994           0
     74972 TIP3     11859    TIP3     H1       HT       0.417000       1.00800           0
     74973 TIP3     11859    TIP3     H2       HT       0.417000       1.00800           0
     74974 TIP3     11860    TIP3     OH2      OT      -0.834000       15.9994           0
     74975 TIP3     11860    TIP3     H1       HT       0.417000       1.00800           0
     74976 TIP3     11860    TIP3     H2       HT       0.417000       1.00800           0
     74977 TIP3     11861    TIP3     OH2      OT      -0.834000       15.9994           0
     74978 TIP3     11861    TIP3     H1       HT       0.417000       1.00800           0
     74979 TIP3     11861    TIP3     H2       HT       0.417000       1.00800           0
     74980 TIP3     11862    TIP3     OH2      OT      -0.834000       15.9994           0
     74981 TIP3     11862    TIP3     H1       HT       0.417000       1.00800           0
     74982 TIP3     11862    TIP3     H2       HT       0.417000       1.00800           0
     74983 TIP3     11863    TIP3     OH2      OT      -0.834000       15.9994           0
     74984 TIP3     11863    TIP3     H1       HT       0.417000       1.00800           0
     74985 TIP3     11863    TIP3     H2       HT       0.417000       1.00800           0
     74986 TIP3     11864    TIP3     OH2      OT      -0.834000       15.9994           0
     74987 TIP3     11864    TIP3     H1       HT       0.417000       1.00800           0
     74988 TIP3     11864    TIP3     H2       HT       0.417000       1.00800           0
     74989 TIP3     11865    TIP3     OH2      OT      -0.834000       15.9994           0
     74990 TIP3     11865    TIP3     H1       HT       0.417000       1.00800           0
     74991 TIP3     11865    TIP3     H2       HT       0.417000       1.00800           0
     74992 TIP3     11866    TIP3     OH2      OT      -0.834000       15.9994           0
     74993 TIP3     11866    TIP3     H1       HT       0.417000       1.00800           0
     74994 TIP3     11866    TIP3     H2       HT       0.417000       1.00800           0
     74995 TIP3     11867    TIP3     OH2      OT      -0.834000       15.9994           0
     74996 TIP3     11867    TIP3     H1       HT       0.417000       1.00800           0
     74997 TIP3     11867    TIP3     H2       HT       0.417000       1.00800           0
     74998 TIP3     11868    TIP3     OH2      OT      -0.834000       15.9994           0
     74999 TIP3     11868    TIP3     H1       HT       0.417000       1.00800           0
     75000 TIP3     11868    TIP3     H2       HT       0.417000       1.00800           0
     75001 TIP3     11869    TIP3     OH2      OT      -0.834000       15.9994           0
     75002 TIP3     11869    TIP3     H1       HT       0.417000       1.00800           0
     75003 TIP3     11869    TIP3     H2       HT       0.417000       1.00800           0
     75004 TIP3     11870    TIP3     OH2      OT      -0.834000       15.9994           0
     75005 TIP3     11870    TIP3     H1       HT       0.417000       1.00800           0
     75006 TIP3     11870    TIP3     H2       HT       0.417000       1.00800           0
     75007 TIP3     11871    TIP3     OH2      OT      -0.834000       15.9994           0
     75008 TIP3     11871    TIP3     H1       HT       0.417000       1.00800           0
     75009 TIP3     11871    TIP3     H2       HT       0.417000       1.00800           0
     75010 TIP3     11872    TIP3     OH2      OT      -0.834000       15.9994           0
     75011 TIP3     11872    TIP3     H1       HT       0.417000       1.00800           0
     75012 TIP3     11872    TIP3     H2       HT       0.417000       1.00800           0
     75013 TIP3     11873    TIP3     OH2      OT      -0.834000       15.9994           0
     75014 TIP3     11873    TIP3     H1       HT       0.417000       1.00800           0
     75015 TIP3     11873    TIP3     H2       HT       0.417000       1.00800           0
     75016 TIP3     11874    TIP3     OH2      OT      -0.834000       15.9994           0
     75017 TIP3     11874    TIP3     H1       HT       0.417000       1.00800           0
     75018 TIP3     11874    TIP3     H2       HT       0.417000       1.00800           0
     75019 TIP3     11875    TIP3     OH2      OT      -0.834000       15.9994           0
     75020 TIP3     11875    TIP3     H1       HT       0.417000       1.00800           0
     75021 TIP3     11875    TIP3     H2       HT       0.417000       1.00800           0
     75022 TIP3     11876    TIP3     OH2      OT      -0.834000       15.9994           0
     75023 TIP3     11876    TIP3     H1       HT       0.417000       1.00800           0
     75024 TIP3     11876    TIP3     H2       HT       0.417000       1.00800           0
     75025 TIP3     11877    TIP3     OH2      OT      -0.834000       15.9994           0
     75026 TIP3     11877    TIP3     H1       HT       0.417000       1.00800           0
     75027 TIP3     11877    TIP3     H2       HT       0.417000       1.00800           0
     75028 TIP3     11878    TIP3     OH2      OT      -0.834000       15.9994           0
     75029 TIP3     11878    TIP3     H1       HT       0.417000       1.00800           0
     75030 TIP3     11878    TIP3     H2       HT       0.417000       1.00800           0
     75031 TIP3     11879    TIP3     OH2      OT      -0.834000       15.9994           0
     75032 TIP3     11879    TIP3     H1       HT       0.417000       1.00800           0
     75033 TIP3     11879    TIP3     H2       HT       0.417000       1.00800           0
     75034 TIP3     11880    TIP3     OH2      OT      -0.834000       15.9994           0
     75035 TIP3     11880    TIP3     H1       HT       0.417000       1.00800           0
     75036 TIP3     11880    TIP3     H2       HT       0.417000       1.00800           0
     75037 TIP3     11881    TIP3     OH2      OT      -0.834000       15.9994           0
     75038 TIP3     11881    TIP3     H1       HT       0.417000       1.00800           0
     75039 TIP3     11881    TIP3     H2       HT       0.417000       1.00800           0
     75040 TIP3     11882    TIP3     OH2      OT      -0.834000       15.9994           0
     75041 TIP3     11882    TIP3     H1       HT       0.417000       1.00800           0
     75042 TIP3     11882    TIP3     H2       HT       0.417000       1.00800           0
     75043 TIP3     11883    TIP3     OH2      OT      -0.834000       15.9994           0
     75044 TIP3     11883    TIP3     H1       HT       0.417000       1.00800           0
     75045 TIP3     11883    TIP3     H2       HT       0.417000       1.00800           0
     75046 TIP3     11884    TIP3     OH2      OT      -0.834000       15.9994           0
     75047 TIP3     11884    TIP3     H1       HT       0.417000       1.00800           0
     75048 TIP3     11884    TIP3     H2       HT       0.417000       1.00800           0
     75049 TIP3     11885    TIP3     OH2      OT      -0.834000       15.9994           0
     75050 TIP3     11885    TIP3     H1       HT       0.417000       1.00800           0
     75051 TIP3     11885    TIP3     H2       HT       0.417000       1.00800           0
     75052 TIP3     11886    TIP3     OH2      OT      -0.834000       15.9994           0
     75053 TIP3     11886    TIP3     H1       HT       0.417000       1.00800           0
     75054 TIP3     11886    TIP3     H2       HT       0.417000       1.00800           0
     75055 TIP3     11887    TIP3     OH2      OT      -0.834000       15.9994           0
     75056 TIP3     11887    TIP3     H1       HT       0.417000       1.00800           0
     75057 TIP3     11887    TIP3     H2       HT       0.417000       1.00800           0
     75058 TIP3     11888    TIP3     OH2      OT      -0.834000       15.9994           0
     75059 TIP3     11888    TIP3     H1       HT       0.417000       1.00800           0
     75060 TIP3     11888    TIP3     H2       HT       0.417000       1.00800           0
     75061 TIP3     11889    TIP3     OH2      OT      -0.834000       15.9994           0
     75062 TIP3     11889    TIP3     H1       HT       0.417000       1.00800           0
     75063 TIP3     11889    TIP3     H2       HT       0.417000       1.00800           0
     75064 TIP3     11890    TIP3     OH2      OT      -0.834000       15.9994           0
     75065 TIP3     11890    TIP3     H1       HT       0.417000       1.00800           0
     75066 TIP3     11890    TIP3     H2       HT       0.417000       1.00800           0
     75067 TIP3     11891    TIP3     OH2      OT      -0.834000       15.9994           0
     75068 TIP3     11891    TIP3     H1       HT       0.417000       1.00800           0
     75069 TIP3     11891    TIP3     H2       HT       0.417000       1.00800           0
     75070 TIP3     11892    TIP3     OH2      OT      -0.834000       15.9994           0
     75071 TIP3     11892    TIP3     H1       HT       0.417000       1.00800           0
     75072 TIP3     11892    TIP3     H2       HT       0.417000       1.00800           0
     75073 TIP3     11893    TIP3     OH2      OT      -0.834000       15.9994           0
     75074 TIP3     11893    TIP3     H1       HT       0.417000       1.00800           0
     75075 TIP3     11893    TIP3     H2       HT       0.417000       1.00800           0
     75076 TIP3     11894    TIP3     OH2      OT      -0.834000       15.9994           0
     75077 TIP3     11894    TIP3     H1       HT       0.417000       1.00800           0
     75078 TIP3     11894    TIP3     H2       HT       0.417000       1.00800           0
     75079 TIP3     11895    TIP3     OH2      OT      -0.834000       15.9994           0
     75080 TIP3     11895    TIP3     H1       HT       0.417000       1.00800           0
     75081 TIP3     11895    TIP3     H2       HT       0.417000       1.00800           0
     75082 TIP3     11896    TIP3     OH2      OT      -0.834000       15.9994           0
     75083 TIP3     11896    TIP3     H1       HT       0.417000       1.00800           0
     75084 TIP3     11896    TIP3     H2       HT       0.417000       1.00800           0
     75085 TIP3     11897    TIP3     OH2      OT      -0.834000       15.9994           0
     75086 TIP3     11897    TIP3     H1       HT       0.417000       1.00800           0
     75087 TIP3     11897    TIP3     H2       HT       0.417000       1.00800           0
     75088 TIP3     11898    TIP3     OH2      OT      -0.834000       15.9994           0
     75089 TIP3     11898    TIP3     H1       HT       0.417000       1.00800           0
     75090 TIP3     11898    TIP3     H2       HT       0.417000       1.00800           0
     75091 TIP3     11899    TIP3     OH2      OT      -0.834000       15.9994           0
     75092 TIP3     11899    TIP3     H1       HT       0.417000       1.00800           0
     75093 TIP3     11899    TIP3     H2       HT       0.417000       1.00800           0
     75094 TIP3     11900    TIP3     OH2      OT      -0.834000       15.9994           0
     75095 TIP3     11900    TIP3     H1       HT       0.417000       1.00800           0
     75096 TIP3     11900    TIP3     H2       HT       0.417000       1.00800           0
     75097 TIP3     11901    TIP3     OH2      OT      -0.834000       15.9994           0
     75098 TIP3     11901    TIP3     H1       HT       0.417000       1.00800           0
     75099 TIP3     11901    TIP3     H2       HT       0.417000       1.00800           0
     75100 TIP3     11902    TIP3     OH2      OT      -0.834000       15.9994           0
     75101 TIP3     11902    TIP3     H1       HT       0.417000       1.00800           0
     75102 TIP3     11902    TIP3     H2       HT       0.417000       1.00800           0
     75103 TIP3     11903    TIP3     OH2      OT      -0.834000       15.9994           0
     75104 TIP3     11903    TIP3     H1       HT       0.417000       1.00800           0
     75105 TIP3     11903    TIP3     H2       HT       0.417000       1.00800           0
     75106 TIP3     11904    TIP3     OH2      OT      -0.834000       15.9994           0
     75107 TIP3     11904    TIP3     H1       HT       0.417000       1.00800           0
     75108 TIP3     11904    TIP3     H2       HT       0.417000       1.00800           0
     75109 TIP3     11905    TIP3     OH2      OT      -0.834000       15.9994           0
     75110 TIP3     11905    TIP3     H1       HT       0.417000       1.00800           0
     75111 TIP3     11905    TIP3     H2       HT       0.417000       1.00800           0
     75112 TIP3     11906    TIP3     OH2      OT      -0.834000       15.9994           0
     75113 TIP3     11906    TIP3     H1       HT       0.417000       1.00800           0
     75114 TIP3     11906    TIP3     H2       HT       0.417000       1.00800           0
     75115 TIP3     11907    TIP3     OH2      OT      -0.834000       15.9994           0
     75116 TIP3     11907    TIP3     H1       HT       0.417000       1.00800           0
     75117 TIP3     11907    TIP3     H2       HT       0.417000       1.00800           0
     75118 TIP3     11908    TIP3     OH2      OT      -0.834000       15.9994           0
     75119 TIP3     11908    TIP3     H1       HT       0.417000       1.00800           0
     75120 TIP3     11908    TIP3     H2       HT       0.417000       1.00800           0
     75121 TIP3     11909    TIP3     OH2      OT      -0.834000       15.9994           0
     75122 TIP3     11909    TIP3     H1       HT       0.417000       1.00800           0
     75123 TIP3     11909    TIP3     H2       HT       0.417000       1.00800           0
     75124 TIP3     11910    TIP3     OH2      OT      -0.834000       15.9994           0
     75125 TIP3     11910    TIP3     H1       HT       0.417000       1.00800           0
     75126 TIP3     11910    TIP3     H2       HT       0.417000       1.00800           0
     75127 TIP3     11911    TIP3     OH2      OT      -0.834000       15.9994           0
     75128 TIP3     11911    TIP3     H1       HT       0.417000       1.00800           0
     75129 TIP3     11911    TIP3     H2       HT       0.417000       1.00800           0
     75130 TIP3     11912    TIP3     OH2      OT      -0.834000       15.9994           0
     75131 TIP3     11912    TIP3     H1       HT       0.417000       1.00800           0
     75132 TIP3     11912    TIP3     H2       HT       0.417000       1.00800           0
     75133 TIP3     11913    TIP3     OH2      OT      -0.834000       15.9994           0
     75134 TIP3     11913    TIP3     H1       HT       0.417000       1.00800           0
     75135 TIP3     11913    TIP3     H2       HT       0.417000       1.00800           0
     75136 TIP3     11914    TIP3     OH2      OT      -0.834000       15.9994           0
     75137 TIP3     11914    TIP3     H1       HT       0.417000       1.00800           0
     75138 TIP3     11914    TIP3     H2       HT       0.417000       1.00800           0
     75139 TIP3     11915    TIP3     OH2      OT      -0.834000       15.9994           0
     75140 TIP3     11915    TIP3     H1       HT       0.417000       1.00800           0
     75141 TIP3     11915    TIP3     H2       HT       0.417000       1.00800           0
     75142 TIP3     11916    TIP3     OH2      OT      -0.834000       15.9994           0
     75143 TIP3     11916    TIP3     H1       HT       0.417000       1.00800           0
     75144 TIP3     11916    TIP3     H2       HT       0.417000       1.00800           0
     75145 TIP3     11917    TIP3     OH2      OT      -0.834000       15.9994           0
     75146 TIP3     11917    TIP3     H1       HT       0.417000       1.00800           0
     75147 TIP3     11917    TIP3     H2       HT       0.417000       1.00800           0
     75148 TIP3     11918    TIP3     OH2      OT      -0.834000       15.9994           0
     75149 TIP3     11918    TIP3     H1       HT       0.417000       1.00800           0
     75150 TIP3     11918    TIP3     H2       HT       0.417000       1.00800           0
     75151 TIP3     11919    TIP3     OH2      OT      -0.834000       15.9994           0
     75152 TIP3     11919    TIP3     H1       HT       0.417000       1.00800           0
     75153 TIP3     11919    TIP3     H2       HT       0.417000       1.00800           0
     75154 TIP3     11920    TIP3     OH2      OT      -0.834000       15.9994           0
     75155 TIP3     11920    TIP3     H1       HT       0.417000       1.00800           0
     75156 TIP3     11920    TIP3     H2       HT       0.417000       1.00800           0
     75157 TIP3     11921    TIP3     OH2      OT      -0.834000       15.9994           0
     75158 TIP3     11921    TIP3     H1       HT       0.417000       1.00800           0
     75159 TIP3     11921    TIP3     H2       HT       0.417000       1.00800           0
     75160 TIP3     11922    TIP3     OH2      OT      -0.834000       15.9994           0
     75161 TIP3     11922    TIP3     H1       HT       0.417000       1.00800           0
     75162 TIP3     11922    TIP3     H2       HT       0.417000       1.00800           0
     75163 TIP3     11923    TIP3     OH2      OT      -0.834000       15.9994           0
     75164 TIP3     11923    TIP3     H1       HT       0.417000       1.00800           0
     75165 TIP3     11923    TIP3     H2       HT       0.417000       1.00800           0
     75166 TIP3     11924    TIP3     OH2      OT      -0.834000       15.9994           0
     75167 TIP3     11924    TIP3     H1       HT       0.417000       1.00800           0
     75168 TIP3     11924    TIP3     H2       HT       0.417000       1.00800           0
     75169 TIP3     11925    TIP3     OH2      OT      -0.834000       15.9994           0
     75170 TIP3     11925    TIP3     H1       HT       0.417000       1.00800           0
     75171 TIP3     11925    TIP3     H2       HT       0.417000       1.00800           0
     75172 TIP3     11926    TIP3     OH2      OT      -0.834000       15.9994           0
     75173 TIP3     11926    TIP3     H1       HT       0.417000       1.00800           0
     75174 TIP3     11926    TIP3     H2       HT       0.417000       1.00800           0
     75175 TIP3     11927    TIP3     OH2      OT      -0.834000       15.9994           0
     75176 TIP3     11927    TIP3     H1       HT       0.417000       1.00800           0
     75177 TIP3     11927    TIP3     H2       HT       0.417000       1.00800           0
     75178 TIP3     11928    TIP3     OH2      OT      -0.834000       15.9994           0
     75179 TIP3     11928    TIP3     H1       HT       0.417000       1.00800           0
     75180 TIP3     11928    TIP3     H2       HT       0.417000       1.00800           0
     75181 TIP3     11929    TIP3     OH2      OT      -0.834000       15.9994           0
     75182 TIP3     11929    TIP3     H1       HT       0.417000       1.00800           0
     75183 TIP3     11929    TIP3     H2       HT       0.417000       1.00800           0
     75184 TIP3     11930    TIP3     OH2      OT      -0.834000       15.9994           0
     75185 TIP3     11930    TIP3     H1       HT       0.417000       1.00800           0
     75186 TIP3     11930    TIP3     H2       HT       0.417000       1.00800           0
     75187 TIP3     11931    TIP3     OH2      OT      -0.834000       15.9994           0
     75188 TIP3     11931    TIP3     H1       HT       0.417000       1.00800           0
     75189 TIP3     11931    TIP3     H2       HT       0.417000       1.00800           0
     75190 TIP3     11932    TIP3     OH2      OT      -0.834000       15.9994           0
     75191 TIP3     11932    TIP3     H1       HT       0.417000       1.00800           0
     75192 TIP3     11932    TIP3     H2       HT       0.417000       1.00800           0
     75193 TIP3     11933    TIP3     OH2      OT      -0.834000       15.9994           0
     75194 TIP3     11933    TIP3     H1       HT       0.417000       1.00800           0
     75195 TIP3     11933    TIP3     H2       HT       0.417000       1.00800           0
     75196 TIP3     11934    TIP3     OH2      OT      -0.834000       15.9994           0
     75197 TIP3     11934    TIP3     H1       HT       0.417000       1.00800           0
     75198 TIP3     11934    TIP3     H2       HT       0.417000       1.00800           0
     75199 TIP3     11935    TIP3     OH2      OT      -0.834000       15.9994           0
     75200 TIP3     11935    TIP3     H1       HT       0.417000       1.00800           0
     75201 TIP3     11935    TIP3     H2       HT       0.417000       1.00800           0
     75202 TIP3     11936    TIP3     OH2      OT      -0.834000       15.9994           0
     75203 TIP3     11936    TIP3     H1       HT       0.417000       1.00800           0
     75204 TIP3     11936    TIP3     H2       HT       0.417000       1.00800           0
     75205 TIP3     11937    TIP3     OH2      OT      -0.834000       15.9994           0
     75206 TIP3     11937    TIP3     H1       HT       0.417000       1.00800           0
     75207 TIP3     11937    TIP3     H2       HT       0.417000       1.00800           0
     75208 TIP3     11938    TIP3     OH2      OT      -0.834000       15.9994           0
     75209 TIP3     11938    TIP3     H1       HT       0.417000       1.00800           0
     75210 TIP3     11938    TIP3     H2       HT       0.417000       1.00800           0
     75211 TIP3     11939    TIP3     OH2      OT      -0.834000       15.9994           0
     75212 TIP3     11939    TIP3     H1       HT       0.417000       1.00800           0
     75213 TIP3     11939    TIP3     H2       HT       0.417000       1.00800           0
     75214 TIP3     11940    TIP3     OH2      OT      -0.834000       15.9994           0
     75215 TIP3     11940    TIP3     H1       HT       0.417000       1.00800           0
     75216 TIP3     11940    TIP3     H2       HT       0.417000       1.00800           0
     75217 TIP3     11941    TIP3     OH2      OT      -0.834000       15.9994           0
     75218 TIP3     11941    TIP3     H1       HT       0.417000       1.00800           0
     75219 TIP3     11941    TIP3     H2       HT       0.417000       1.00800           0
     75220 TIP3     11942    TIP3     OH2      OT      -0.834000       15.9994           0
     75221 TIP3     11942    TIP3     H1       HT       0.417000       1.00800           0
     75222 TIP3     11942    TIP3     H2       HT       0.417000       1.00800           0
     75223 TIP3     11943    TIP3     OH2      OT      -0.834000       15.9994           0
     75224 TIP3     11943    TIP3     H1       HT       0.417000       1.00800           0
     75225 TIP3     11943    TIP3     H2       HT       0.417000       1.00800           0
     75226 TIP3     11944    TIP3     OH2      OT      -0.834000       15.9994           0
     75227 TIP3     11944    TIP3     H1       HT       0.417000       1.00800           0
     75228 TIP3     11944    TIP3     H2       HT       0.417000       1.00800           0
     75229 TIP3     11945    TIP3     OH2      OT      -0.834000       15.9994           0
     75230 TIP3     11945    TIP3     H1       HT       0.417000       1.00800           0
     75231 TIP3     11945    TIP3     H2       HT       0.417000       1.00800           0
     75232 TIP3     11946    TIP3     OH2      OT      -0.834000       15.9994           0
     75233 TIP3     11946    TIP3     H1       HT       0.417000       1.00800           0
     75234 TIP3     11946    TIP3     H2       HT       0.417000       1.00800           0
     75235 TIP3     11947    TIP3     OH2      OT      -0.834000       15.9994           0
     75236 TIP3     11947    TIP3     H1       HT       0.417000       1.00800           0
     75237 TIP3     11947    TIP3     H2       HT       0.417000       1.00800           0
     75238 TIP3     11948    TIP3     OH2      OT      -0.834000       15.9994           0
     75239 TIP3     11948    TIP3     H1       HT       0.417000       1.00800           0
     75240 TIP3     11948    TIP3     H2       HT       0.417000       1.00800           0
     75241 TIP3     11949    TIP3     OH2      OT      -0.834000       15.9994           0
     75242 TIP3     11949    TIP3     H1       HT       0.417000       1.00800           0
     75243 TIP3     11949    TIP3     H2       HT       0.417000       1.00800           0
     75244 TIP3     11950    TIP3     OH2      OT      -0.834000       15.9994           0
     75245 TIP3     11950    TIP3     H1       HT       0.417000       1.00800           0
     75246 TIP3     11950    TIP3     H2       HT       0.417000       1.00800           0
     75247 TIP3     11951    TIP3     OH2      OT      -0.834000       15.9994           0
     75248 TIP3     11951    TIP3     H1       HT       0.417000       1.00800           0
     75249 TIP3     11951    TIP3     H2       HT       0.417000       1.00800           0
     75250 TIP3     11952    TIP3     OH2      OT      -0.834000       15.9994           0
     75251 TIP3     11952    TIP3     H1       HT       0.417000       1.00800           0
     75252 TIP3     11952    TIP3     H2       HT       0.417000       1.00800           0
     75253 TIP3     11953    TIP3     OH2      OT      -0.834000       15.9994           0
     75254 TIP3     11953    TIP3     H1       HT       0.417000       1.00800           0
     75255 TIP3     11953    TIP3     H2       HT       0.417000       1.00800           0
     75256 TIP3     11954    TIP3     OH2      OT      -0.834000       15.9994           0
     75257 TIP3     11954    TIP3     H1       HT       0.417000       1.00800           0
     75258 TIP3     11954    TIP3     H2       HT       0.417000       1.00800           0
     75259 TIP3     11955    TIP3     OH2      OT      -0.834000       15.9994           0
     75260 TIP3     11955    TIP3     H1       HT       0.417000       1.00800           0
     75261 TIP3     11955    TIP3     H2       HT       0.417000       1.00800           0
     75262 TIP3     11956    TIP3     OH2      OT      -0.834000       15.9994           0
     75263 TIP3     11956    TIP3     H1       HT       0.417000       1.00800           0
     75264 TIP3     11956    TIP3     H2       HT       0.417000       1.00800           0
     75265 TIP3     11957    TIP3     OH2      OT      -0.834000       15.9994           0
     75266 TIP3     11957    TIP3     H1       HT       0.417000       1.00800           0
     75267 TIP3     11957    TIP3     H2       HT       0.417000       1.00800           0
     75268 TIP3     11958    TIP3     OH2      OT      -0.834000       15.9994           0
     75269 TIP3     11958    TIP3     H1       HT       0.417000       1.00800           0
     75270 TIP3     11958    TIP3     H2       HT       0.417000       1.00800           0
     75271 TIP3     11959    TIP3     OH2      OT      -0.834000       15.9994           0
     75272 TIP3     11959    TIP3     H1       HT       0.417000       1.00800           0
     75273 TIP3     11959    TIP3     H2       HT       0.417000       1.00800           0
     75274 TIP3     11960    TIP3     OH2      OT      -0.834000       15.9994           0
     75275 TIP3     11960    TIP3     H1       HT       0.417000       1.00800           0
     75276 TIP3     11960    TIP3     H2       HT       0.417000       1.00800           0
     75277 TIP3     11961    TIP3     OH2      OT      -0.834000       15.9994           0
     75278 TIP3     11961    TIP3     H1       HT       0.417000       1.00800           0
     75279 TIP3     11961    TIP3     H2       HT       0.417000       1.00800           0
     75280 TIP3     11962    TIP3     OH2      OT      -0.834000       15.9994           0
     75281 TIP3     11962    TIP3     H1       HT       0.417000       1.00800           0
     75282 TIP3     11962    TIP3     H2       HT       0.417000       1.00800           0
     75283 TIP3     11963    TIP3     OH2      OT      -0.834000       15.9994           0
     75284 TIP3     11963    TIP3     H1       HT       0.417000       1.00800           0
     75285 TIP3     11963    TIP3     H2       HT       0.417000       1.00800           0
     75286 TIP3     11964    TIP3     OH2      OT      -0.834000       15.9994           0
     75287 TIP3     11964    TIP3     H1       HT       0.417000       1.00800           0
     75288 TIP3     11964    TIP3     H2       HT       0.417000       1.00800           0
     75289 TIP3     11965    TIP3     OH2      OT      -0.834000       15.9994           0
     75290 TIP3     11965    TIP3     H1       HT       0.417000       1.00800           0
     75291 TIP3     11965    TIP3     H2       HT       0.417000       1.00800           0
     75292 TIP3     11966    TIP3     OH2      OT      -0.834000       15.9994           0
     75293 TIP3     11966    TIP3     H1       HT       0.417000       1.00800           0
     75294 TIP3     11966    TIP3     H2       HT       0.417000       1.00800           0
     75295 TIP3     11967    TIP3     OH2      OT      -0.834000       15.9994           0
     75296 TIP3     11967    TIP3     H1       HT       0.417000       1.00800           0
     75297 TIP3     11967    TIP3     H2       HT       0.417000       1.00800           0
     75298 TIP3     11968    TIP3     OH2      OT      -0.834000       15.9994           0
     75299 TIP3     11968    TIP3     H1       HT       0.417000       1.00800           0
     75300 TIP3     11968    TIP3     H2       HT       0.417000       1.00800           0
     75301 TIP3     11969    TIP3     OH2      OT      -0.834000       15.9994           0
     75302 TIP3     11969    TIP3     H1       HT       0.417000       1.00800           0
     75303 TIP3     11969    TIP3     H2       HT       0.417000       1.00800           0
     75304 TIP3     11970    TIP3     OH2      OT      -0.834000       15.9994           0
     75305 TIP3     11970    TIP3     H1       HT       0.417000       1.00800           0
     75306 TIP3     11970    TIP3     H2       HT       0.417000       1.00800           0
     75307 TIP3     11971    TIP3     OH2      OT      -0.834000       15.9994           0
     75308 TIP3     11971    TIP3     H1       HT       0.417000       1.00800           0
     75309 TIP3     11971    TIP3     H2       HT       0.417000       1.00800           0
     75310 TIP3     11972    TIP3     OH2      OT      -0.834000       15.9994           0
     75311 TIP3     11972    TIP3     H1       HT       0.417000       1.00800           0
     75312 TIP3     11972    TIP3     H2       HT       0.417000       1.00800           0
     75313 TIP3     11973    TIP3     OH2      OT      -0.834000       15.9994           0
     75314 TIP3     11973    TIP3     H1       HT       0.417000       1.00800           0
     75315 TIP3     11973    TIP3     H2       HT       0.417000       1.00800           0
     75316 TIP3     11974    TIP3     OH2      OT      -0.834000       15.9994           0
     75317 TIP3     11974    TIP3     H1       HT       0.417000       1.00800           0
     75318 TIP3     11974    TIP3     H2       HT       0.417000       1.00800           0
     75319 TIP3     11975    TIP3     OH2      OT      -0.834000       15.9994           0
     75320 TIP3     11975    TIP3     H1       HT       0.417000       1.00800           0
     75321 TIP3     11975    TIP3     H2       HT       0.417000       1.00800           0
     75322 TIP3     11976    TIP3     OH2      OT      -0.834000       15.9994           0
     75323 TIP3     11976    TIP3     H1       HT       0.417000       1.00800           0
     75324 TIP3     11976    TIP3     H2       HT       0.417000       1.00800           0
     75325 TIP3     11977    TIP3     OH2      OT      -0.834000       15.9994           0
     75326 TIP3     11977    TIP3     H1       HT       0.417000       1.00800           0
     75327 TIP3     11977    TIP3     H2       HT       0.417000       1.00800           0
     75328 TIP3     11978    TIP3     OH2      OT      -0.834000       15.9994           0
     75329 TIP3     11978    TIP3     H1       HT       0.417000       1.00800           0
     75330 TIP3     11978    TIP3     H2       HT       0.417000       1.00800           0
     75331 TIP3     11979    TIP3     OH2      OT      -0.834000       15.9994           0
     75332 TIP3     11979    TIP3     H1       HT       0.417000       1.00800           0
     75333 TIP3     11979    TIP3     H2       HT       0.417000       1.00800           0
     75334 TIP3     11980    TIP3     OH2      OT      -0.834000       15.9994           0
     75335 TIP3     11980    TIP3     H1       HT       0.417000       1.00800           0
     75336 TIP3     11980    TIP3     H2       HT       0.417000       1.00800           0
     75337 TIP3     11981    TIP3     OH2      OT      -0.834000       15.9994           0
     75338 TIP3     11981    TIP3     H1       HT       0.417000       1.00800           0
     75339 TIP3     11981    TIP3     H2       HT       0.417000       1.00800           0
     75340 TIP3     11982    TIP3     OH2      OT      -0.834000       15.9994           0
     75341 TIP3     11982    TIP3     H1       HT       0.417000       1.00800           0
     75342 TIP3     11982    TIP3     H2       HT       0.417000       1.00800           0
     75343 TIP3     11983    TIP3     OH2      OT      -0.834000       15.9994           0
     75344 TIP3     11983    TIP3     H1       HT       0.417000       1.00800           0
     75345 TIP3     11983    TIP3     H2       HT       0.417000       1.00800           0
     75346 TIP3     11984    TIP3     OH2      OT      -0.834000       15.9994           0
     75347 TIP3     11984    TIP3     H1       HT       0.417000       1.00800           0
     75348 TIP3     11984    TIP3     H2       HT       0.417000       1.00800           0
     75349 TIP3     11985    TIP3     OH2      OT      -0.834000       15.9994           0
     75350 TIP3     11985    TIP3     H1       HT       0.417000       1.00800           0
     75351 TIP3     11985    TIP3     H2       HT       0.417000       1.00800           0
     75352 TIP3     11986    TIP3     OH2      OT      -0.834000       15.9994           0
     75353 TIP3     11986    TIP3     H1       HT       0.417000       1.00800           0
     75354 TIP3     11986    TIP3     H2       HT       0.417000       1.00800           0
     75355 TIP3     11987    TIP3     OH2      OT      -0.834000       15.9994           0
     75356 TIP3     11987    TIP3     H1       HT       0.417000       1.00800           0
     75357 TIP3     11987    TIP3     H2       HT       0.417000       1.00800           0
     75358 TIP3     11988    TIP3     OH2      OT      -0.834000       15.9994           0
     75359 TIP3     11988    TIP3     H1       HT       0.417000       1.00800           0
     75360 TIP3     11988    TIP3     H2       HT       0.417000       1.00800           0
     75361 TIP3     11989    TIP3     OH2      OT      -0.834000       15.9994           0
     75362 TIP3     11989    TIP3     H1       HT       0.417000       1.00800           0
     75363 TIP3     11989    TIP3     H2       HT       0.417000       1.00800           0
     75364 TIP3     11990    TIP3     OH2      OT      -0.834000       15.9994           0
     75365 TIP3     11990    TIP3     H1       HT       0.417000       1.00800           0
     75366 TIP3     11990    TIP3     H2       HT       0.417000       1.00800           0
     75367 TIP3     11991    TIP3     OH2      OT      -0.834000       15.9994           0
     75368 TIP3     11991    TIP3     H1       HT       0.417000       1.00800           0
     75369 TIP3     11991    TIP3     H2       HT       0.417000       1.00800           0
     75370 TIP3     11992    TIP3     OH2      OT      -0.834000       15.9994           0
     75371 TIP3     11992    TIP3     H1       HT       0.417000       1.00800           0
     75372 TIP3     11992    TIP3     H2       HT       0.417000       1.00800           0
     75373 TIP3     11993    TIP3     OH2      OT      -0.834000       15.9994           0
     75374 TIP3     11993    TIP3     H1       HT       0.417000       1.00800           0
     75375 TIP3     11993    TIP3     H2       HT       0.417000       1.00800           0
     75376 TIP3     11994    TIP3     OH2      OT      -0.834000       15.9994           0
     75377 TIP3     11994    TIP3     H1       HT       0.417000       1.00800           0
     75378 TIP3     11994    TIP3     H2       HT       0.417000       1.00800           0
     75379 TIP3     11995    TIP3     OH2      OT      -0.834000       15.9994           0
     75380 TIP3     11995    TIP3     H1       HT       0.417000       1.00800           0
     75381 TIP3     11995    TIP3     H2       HT       0.417000       1.00800           0
     75382 TIP3     11996    TIP3     OH2      OT      -0.834000       15.9994           0
     75383 TIP3     11996    TIP3     H1       HT       0.417000       1.00800           0
     75384 TIP3     11996    TIP3     H2       HT       0.417000       1.00800           0
     75385 TIP3     11997    TIP3     OH2      OT      -0.834000       15.9994           0
     75386 TIP3     11997    TIP3     H1       HT       0.417000       1.00800           0
     75387 TIP3     11997    TIP3     H2       HT       0.417000       1.00800           0
     75388 TIP3     11998    TIP3     OH2      OT      -0.834000       15.9994           0
     75389 TIP3     11998    TIP3     H1       HT       0.417000       1.00800           0
     75390 TIP3     11998    TIP3     H2       HT       0.417000       1.00800           0
     75391 TIP3     11999    TIP3     OH2      OT      -0.834000       15.9994           0
     75392 TIP3     11999    TIP3     H1       HT       0.417000       1.00800           0
     75393 TIP3     11999    TIP3     H2       HT       0.417000       1.00800           0
     75394 TIP3     12000    TIP3     OH2      OT      -0.834000       15.9994           0
     75395 TIP3     12000    TIP3     H1       HT       0.417000       1.00800           0
     75396 TIP3     12000    TIP3     H2       HT       0.417000       1.00800           0
     75397 TIP3     12001    TIP3     OH2      OT      -0.834000       15.9994           0
     75398 TIP3     12001    TIP3     H1       HT       0.417000       1.00800           0
     75399 TIP3     12001    TIP3     H2       HT       0.417000       1.00800           0
     75400 TIP3     12002    TIP3     OH2      OT      -0.834000       15.9994           0
     75401 TIP3     12002    TIP3     H1       HT       0.417000       1.00800           0
     75402 TIP3     12002    TIP3     H2       HT       0.417000       1.00800           0
     75403 TIP3     12003    TIP3     OH2      OT      -0.834000       15.9994           0
     75404 TIP3     12003    TIP3     H1       HT       0.417000       1.00800           0
     75405 TIP3     12003    TIP3     H2       HT       0.417000       1.00800           0
     75406 TIP3     12004    TIP3     OH2      OT      -0.834000       15.9994           0
     75407 TIP3     12004    TIP3     H1       HT       0.417000       1.00800           0
     75408 TIP3     12004    TIP3     H2       HT       0.417000       1.00800           0
     75409 TIP3     12005    TIP3     OH2      OT      -0.834000       15.9994           0
     75410 TIP3     12005    TIP3     H1       HT       0.417000       1.00800           0
     75411 TIP3     12005    TIP3     H2       HT       0.417000       1.00800           0
     75412 TIP3     12006    TIP3     OH2      OT      -0.834000       15.9994           0
     75413 TIP3     12006    TIP3     H1       HT       0.417000       1.00800           0
     75414 TIP3     12006    TIP3     H2       HT       0.417000       1.00800           0
     75415 TIP3     12007    TIP3     OH2      OT      -0.834000       15.9994           0
     75416 TIP3     12007    TIP3     H1       HT       0.417000       1.00800           0
     75417 TIP3     12007    TIP3     H2       HT       0.417000       1.00800           0
     75418 TIP3     12008    TIP3     OH2      OT      -0.834000       15.9994           0
     75419 TIP3     12008    TIP3     H1       HT       0.417000       1.00800           0
     75420 TIP3     12008    TIP3     H2       HT       0.417000       1.00800           0
     75421 TIP3     12009    TIP3     OH2      OT      -0.834000       15.9994           0
     75422 TIP3     12009    TIP3     H1       HT       0.417000       1.00800           0
     75423 TIP3     12009    TIP3     H2       HT       0.417000       1.00800           0
     75424 TIP3     12010    TIP3     OH2      OT      -0.834000       15.9994           0
     75425 TIP3     12010    TIP3     H1       HT       0.417000       1.00800           0
     75426 TIP3     12010    TIP3     H2       HT       0.417000       1.00800           0
     75427 TIP3     12011    TIP3     OH2      OT      -0.834000       15.9994           0
     75428 TIP3     12011    TIP3     H1       HT       0.417000       1.00800           0
     75429 TIP3     12011    TIP3     H2       HT       0.417000       1.00800           0
     75430 TIP3     12012    TIP3     OH2      OT      -0.834000       15.9994           0
     75431 TIP3     12012    TIP3     H1       HT       0.417000       1.00800           0
     75432 TIP3     12012    TIP3     H2       HT       0.417000       1.00800           0
     75433 TIP3     12013    TIP3     OH2      OT      -0.834000       15.9994           0
     75434 TIP3     12013    TIP3     H1       HT       0.417000       1.00800           0
     75435 TIP3     12013    TIP3     H2       HT       0.417000       1.00800           0
     75436 TIP3     12014    TIP3     OH2      OT      -0.834000       15.9994           0
     75437 TIP3     12014    TIP3     H1       HT       0.417000       1.00800           0
     75438 TIP3     12014    TIP3     H2       HT       0.417000       1.00800           0
     75439 TIP3     12015    TIP3     OH2      OT      -0.834000       15.9994           0
     75440 TIP3     12015    TIP3     H1       HT       0.417000       1.00800           0
     75441 TIP3     12015    TIP3     H2       HT       0.417000       1.00800           0
     75442 TIP3     12016    TIP3     OH2      OT      -0.834000       15.9994           0
     75443 TIP3     12016    TIP3     H1       HT       0.417000       1.00800           0
     75444 TIP3     12016    TIP3     H2       HT       0.417000       1.00800           0
     75445 TIP3     12017    TIP3     OH2      OT      -0.834000       15.9994           0
     75446 TIP3     12017    TIP3     H1       HT       0.417000       1.00800           0
     75447 TIP3     12017    TIP3     H2       HT       0.417000       1.00800           0
     75448 TIP3     12018    TIP3     OH2      OT      -0.834000       15.9994           0
     75449 TIP3     12018    TIP3     H1       HT       0.417000       1.00800           0
     75450 TIP3     12018    TIP3     H2       HT       0.417000       1.00800           0
     75451 TIP3     12019    TIP3     OH2      OT      -0.834000       15.9994           0
     75452 TIP3     12019    TIP3     H1       HT       0.417000       1.00800           0
     75453 TIP3     12019    TIP3     H2       HT       0.417000       1.00800           0
     75454 TIP3     12020    TIP3     OH2      OT      -0.834000       15.9994           0
     75455 TIP3     12020    TIP3     H1       HT       0.417000       1.00800           0
     75456 TIP3     12020    TIP3     H2       HT       0.417000       1.00800           0
     75457 TIP3     12021    TIP3     OH2      OT      -0.834000       15.9994           0
     75458 TIP3     12021    TIP3     H1       HT       0.417000       1.00800           0
     75459 TIP3     12021    TIP3     H2       HT       0.417000       1.00800           0
     75460 TIP3     12022    TIP3     OH2      OT      -0.834000       15.9994           0
     75461 TIP3     12022    TIP3     H1       HT       0.417000       1.00800           0
     75462 TIP3     12022    TIP3     H2       HT       0.417000       1.00800           0
     75463 TIP3     12023    TIP3     OH2      OT      -0.834000       15.9994           0
     75464 TIP3     12023    TIP3     H1       HT       0.417000       1.00800           0
     75465 TIP3     12023    TIP3     H2       HT       0.417000       1.00800           0
     75466 TIP3     12024    TIP3     OH2      OT      -0.834000       15.9994           0
     75467 TIP3     12024    TIP3     H1       HT       0.417000       1.00800           0
     75468 TIP3     12024    TIP3     H2       HT       0.417000       1.00800           0
     75469 TIP3     12025    TIP3     OH2      OT      -0.834000       15.9994           0
     75470 TIP3     12025    TIP3     H1       HT       0.417000       1.00800           0
     75471 TIP3     12025    TIP3     H2       HT       0.417000       1.00800           0
     75472 TIP3     12026    TIP3     OH2      OT      -0.834000       15.9994           0
     75473 TIP3     12026    TIP3     H1       HT       0.417000       1.00800           0
     75474 TIP3     12026    TIP3     H2       HT       0.417000       1.00800           0
     75475 TIP3     12027    TIP3     OH2      OT      -0.834000       15.9994           0
     75476 TIP3     12027    TIP3     H1       HT       0.417000       1.00800           0
     75477 TIP3     12027    TIP3     H2       HT       0.417000       1.00800           0
     75478 TIP3     12028    TIP3     OH2      OT      -0.834000       15.9994           0
     75479 TIP3     12028    TIP3     H1       HT       0.417000       1.00800           0
     75480 TIP3     12028    TIP3     H2       HT       0.417000       1.00800           0
     75481 TIP3     12029    TIP3     OH2      OT      -0.834000       15.9994           0
     75482 TIP3     12029    TIP3     H1       HT       0.417000       1.00800           0
     75483 TIP3     12029    TIP3     H2       HT       0.417000       1.00800           0
     75484 TIP3     12030    TIP3     OH2      OT      -0.834000       15.9994           0
     75485 TIP3     12030    TIP3     H1       HT       0.417000       1.00800           0
     75486 TIP3     12030    TIP3     H2       HT       0.417000       1.00800           0
     75487 TIP3     12031    TIP3     OH2      OT      -0.834000       15.9994           0
     75488 TIP3     12031    TIP3     H1       HT       0.417000       1.00800           0
     75489 TIP3     12031    TIP3     H2       HT       0.417000       1.00800           0
     75490 TIP3     12032    TIP3     OH2      OT      -0.834000       15.9994           0
     75491 TIP3     12032    TIP3     H1       HT       0.417000       1.00800           0
     75492 TIP3     12032    TIP3     H2       HT       0.417000       1.00800           0
     75493 TIP3     12033    TIP3     OH2      OT      -0.834000       15.9994           0
     75494 TIP3     12033    TIP3     H1       HT       0.417000       1.00800           0
     75495 TIP3     12033    TIP3     H2       HT       0.417000       1.00800           0
     75496 TIP3     12034    TIP3     OH2      OT      -0.834000       15.9994           0
     75497 TIP3     12034    TIP3     H1       HT       0.417000       1.00800           0
     75498 TIP3     12034    TIP3     H2       HT       0.417000       1.00800           0
     75499 TIP3     12035    TIP3     OH2      OT      -0.834000       15.9994           0
     75500 TIP3     12035    TIP3     H1       HT       0.417000       1.00800           0
     75501 TIP3     12035    TIP3     H2       HT       0.417000       1.00800           0
     75502 TIP3     12036    TIP3     OH2      OT      -0.834000       15.9994           0
     75503 TIP3     12036    TIP3     H1       HT       0.417000       1.00800           0
     75504 TIP3     12036    TIP3     H2       HT       0.417000       1.00800           0
     75505 TIP3     12037    TIP3     OH2      OT      -0.834000       15.9994           0
     75506 TIP3     12037    TIP3     H1       HT       0.417000       1.00800           0
     75507 TIP3     12037    TIP3     H2       HT       0.417000       1.00800           0
     75508 TIP3     12038    TIP3     OH2      OT      -0.834000       15.9994           0
     75509 TIP3     12038    TIP3     H1       HT       0.417000       1.00800           0
     75510 TIP3     12038    TIP3     H2       HT       0.417000       1.00800           0
     75511 TIP3     12039    TIP3     OH2      OT      -0.834000       15.9994           0
     75512 TIP3     12039    TIP3     H1       HT       0.417000       1.00800           0
     75513 TIP3     12039    TIP3     H2       HT       0.417000       1.00800           0
     75514 TIP3     12040    TIP3     OH2      OT      -0.834000       15.9994           0
     75515 TIP3     12040    TIP3     H1       HT       0.417000       1.00800           0
     75516 TIP3     12040    TIP3     H2       HT       0.417000       1.00800           0
     75517 TIP3     12041    TIP3     OH2      OT      -0.834000       15.9994           0
     75518 TIP3     12041    TIP3     H1       HT       0.417000       1.00800           0
     75519 TIP3     12041    TIP3     H2       HT       0.417000       1.00800           0
     75520 TIP3     12042    TIP3     OH2      OT      -0.834000       15.9994           0
     75521 TIP3     12042    TIP3     H1       HT       0.417000       1.00800           0
     75522 TIP3     12042    TIP3     H2       HT       0.417000       1.00800           0
     75523 TIP3     12043    TIP3     OH2      OT      -0.834000       15.9994           0
     75524 TIP3     12043    TIP3     H1       HT       0.417000       1.00800           0
     75525 TIP3     12043    TIP3     H2       HT       0.417000       1.00800           0
     75526 TIP3     12044    TIP3     OH2      OT      -0.834000       15.9994           0
     75527 TIP3     12044    TIP3     H1       HT       0.417000       1.00800           0
     75528 TIP3     12044    TIP3     H2       HT       0.417000       1.00800           0
     75529 TIP3     12045    TIP3     OH2      OT      -0.834000       15.9994           0
     75530 TIP3     12045    TIP3     H1       HT       0.417000       1.00800           0
     75531 TIP3     12045    TIP3     H2       HT       0.417000       1.00800           0
     75532 TIP3     12046    TIP3     OH2      OT      -0.834000       15.9994           0
     75533 TIP3     12046    TIP3     H1       HT       0.417000       1.00800           0
     75534 TIP3     12046    TIP3     H2       HT       0.417000       1.00800           0
     75535 TIP3     12047    TIP3     OH2      OT      -0.834000       15.9994           0
     75536 TIP3     12047    TIP3     H1       HT       0.417000       1.00800           0
     75537 TIP3     12047    TIP3     H2       HT       0.417000       1.00800           0
     75538 TIP3     12048    TIP3     OH2      OT      -0.834000       15.9994           0
     75539 TIP3     12048    TIP3     H1       HT       0.417000       1.00800           0
     75540 TIP3     12048    TIP3     H2       HT       0.417000       1.00800           0
     75541 TIP3     12049    TIP3     OH2      OT      -0.834000       15.9994           0
     75542 TIP3     12049    TIP3     H1       HT       0.417000       1.00800           0
     75543 TIP3     12049    TIP3     H2       HT       0.417000       1.00800           0
     75544 TIP3     12050    TIP3     OH2      OT      -0.834000       15.9994           0
     75545 TIP3     12050    TIP3     H1       HT       0.417000       1.00800           0
     75546 TIP3     12050    TIP3     H2       HT       0.417000       1.00800           0
     75547 TIP3     12051    TIP3     OH2      OT      -0.834000       15.9994           0
     75548 TIP3     12051    TIP3     H1       HT       0.417000       1.00800           0
     75549 TIP3     12051    TIP3     H2       HT       0.417000       1.00800           0
     75550 TIP3     12052    TIP3     OH2      OT      -0.834000       15.9994           0
     75551 TIP3     12052    TIP3     H1       HT       0.417000       1.00800           0
     75552 TIP3     12052    TIP3     H2       HT       0.417000       1.00800           0
     75553 TIP3     12053    TIP3     OH2      OT      -0.834000       15.9994           0
     75554 TIP3     12053    TIP3     H1       HT       0.417000       1.00800           0
     75555 TIP3     12053    TIP3     H2       HT       0.417000       1.00800           0
     75556 TIP3     12054    TIP3     OH2      OT      -0.834000       15.9994           0
     75557 TIP3     12054    TIP3     H1       HT       0.417000       1.00800           0
     75558 TIP3     12054    TIP3     H2       HT       0.417000       1.00800           0
     75559 TIP3     12055    TIP3     OH2      OT      -0.834000       15.9994           0
     75560 TIP3     12055    TIP3     H1       HT       0.417000       1.00800           0
     75561 TIP3     12055    TIP3     H2       HT       0.417000       1.00800           0
     75562 TIP3     12056    TIP3     OH2      OT      -0.834000       15.9994           0
     75563 TIP3     12056    TIP3     H1       HT       0.417000       1.00800           0
     75564 TIP3     12056    TIP3     H2       HT       0.417000       1.00800           0
     75565 TIP3     12057    TIP3     OH2      OT      -0.834000       15.9994           0
     75566 TIP3     12057    TIP3     H1       HT       0.417000       1.00800           0
     75567 TIP3     12057    TIP3     H2       HT       0.417000       1.00800           0
     75568 TIP3     12058    TIP3     OH2      OT      -0.834000       15.9994           0
     75569 TIP3     12058    TIP3     H1       HT       0.417000       1.00800           0
     75570 TIP3     12058    TIP3     H2       HT       0.417000       1.00800           0
     75571 TIP3     12059    TIP3     OH2      OT      -0.834000       15.9994           0
     75572 TIP3     12059    TIP3     H1       HT       0.417000       1.00800           0
     75573 TIP3     12059    TIP3     H2       HT       0.417000       1.00800           0
     75574 TIP3     12060    TIP3     OH2      OT      -0.834000       15.9994           0
     75575 TIP3     12060    TIP3     H1       HT       0.417000       1.00800           0
     75576 TIP3     12060    TIP3     H2       HT       0.417000       1.00800           0
     75577 TIP3     12061    TIP3     OH2      OT      -0.834000       15.9994           0
     75578 TIP3     12061    TIP3     H1       HT       0.417000       1.00800           0
     75579 TIP3     12061    TIP3     H2       HT       0.417000       1.00800           0
     75580 TIP3     12062    TIP3     OH2      OT      -0.834000       15.9994           0
     75581 TIP3     12062    TIP3     H1       HT       0.417000       1.00800           0
     75582 TIP3     12062    TIP3     H2       HT       0.417000       1.00800           0
     75583 TIP3     12063    TIP3     OH2      OT      -0.834000       15.9994           0
     75584 TIP3     12063    TIP3     H1       HT       0.417000       1.00800           0
     75585 TIP3     12063    TIP3     H2       HT       0.417000       1.00800           0
     75586 TIP3     12064    TIP3     OH2      OT      -0.834000       15.9994           0
     75587 TIP3     12064    TIP3     H1       HT       0.417000       1.00800           0
     75588 TIP3     12064    TIP3     H2       HT       0.417000       1.00800           0
     75589 TIP3     12065    TIP3     OH2      OT      -0.834000       15.9994           0
     75590 TIP3     12065    TIP3     H1       HT       0.417000       1.00800           0
     75591 TIP3     12065    TIP3     H2       HT       0.417000       1.00800           0
     75592 TIP3     12066    TIP3     OH2      OT      -0.834000       15.9994           0
     75593 TIP3     12066    TIP3     H1       HT       0.417000       1.00800           0
     75594 TIP3     12066    TIP3     H2       HT       0.417000       1.00800           0
     75595 TIP3     12067    TIP3     OH2      OT      -0.834000       15.9994           0
     75596 TIP3     12067    TIP3     H1       HT       0.417000       1.00800           0
     75597 TIP3     12067    TIP3     H2       HT       0.417000       1.00800           0
     75598 TIP3     12068    TIP3     OH2      OT      -0.834000       15.9994           0
     75599 TIP3     12068    TIP3     H1       HT       0.417000       1.00800           0
     75600 TIP3     12068    TIP3     H2       HT       0.417000       1.00800           0
     75601 TIP3     12069    TIP3     OH2      OT      -0.834000       15.9994           0
     75602 TIP3     12069    TIP3     H1       HT       0.417000       1.00800           0
     75603 TIP3     12069    TIP3     H2       HT       0.417000       1.00800           0
     75604 TIP3     12070    TIP3     OH2      OT      -0.834000       15.9994           0
     75605 TIP3     12070    TIP3     H1       HT       0.417000       1.00800           0
     75606 TIP3     12070    TIP3     H2       HT       0.417000       1.00800           0
     75607 TIP3     12071    TIP3     OH2      OT      -0.834000       15.9994           0
     75608 TIP3     12071    TIP3     H1       HT       0.417000       1.00800           0
     75609 TIP3     12071    TIP3     H2       HT       0.417000       1.00800           0
     75610 TIP3     12072    TIP3     OH2      OT      -0.834000       15.9994           0
     75611 TIP3     12072    TIP3     H1       HT       0.417000       1.00800           0
     75612 TIP3     12072    TIP3     H2       HT       0.417000       1.00800           0
     75613 TIP3     12073    TIP3     OH2      OT      -0.834000       15.9994           0
     75614 TIP3     12073    TIP3     H1       HT       0.417000       1.00800           0
     75615 TIP3     12073    TIP3     H2       HT       0.417000       1.00800           0
     75616 TIP3     12074    TIP3     OH2      OT      -0.834000       15.9994           0
     75617 TIP3     12074    TIP3     H1       HT       0.417000       1.00800           0
     75618 TIP3     12074    TIP3     H2       HT       0.417000       1.00800           0
     75619 TIP3     12075    TIP3     OH2      OT      -0.834000       15.9994           0
     75620 TIP3     12075    TIP3     H1       HT       0.417000       1.00800           0
     75621 TIP3     12075    TIP3     H2       HT       0.417000       1.00800           0
     75622 TIP3     12076    TIP3     OH2      OT      -0.834000       15.9994           0
     75623 TIP3     12076    TIP3     H1       HT       0.417000       1.00800           0
     75624 TIP3     12076    TIP3     H2       HT       0.417000       1.00800           0
     75625 TIP3     12077    TIP3     OH2      OT      -0.834000       15.9994           0
     75626 TIP3     12077    TIP3     H1       HT       0.417000       1.00800           0
     75627 TIP3     12077    TIP3     H2       HT       0.417000       1.00800           0
     75628 TIP3     12078    TIP3     OH2      OT      -0.834000       15.9994           0
     75629 TIP3     12078    TIP3     H1       HT       0.417000       1.00800           0
     75630 TIP3     12078    TIP3     H2       HT       0.417000       1.00800           0
     75631 TIP3     12079    TIP3     OH2      OT      -0.834000       15.9994           0
     75632 TIP3     12079    TIP3     H1       HT       0.417000       1.00800           0
     75633 TIP3     12079    TIP3     H2       HT       0.417000       1.00800           0
     75634 TIP3     12080    TIP3     OH2      OT      -0.834000       15.9994           0
     75635 TIP3     12080    TIP3     H1       HT       0.417000       1.00800           0
     75636 TIP3     12080    TIP3     H2       HT       0.417000       1.00800           0
     75637 TIP3     12081    TIP3     OH2      OT      -0.834000       15.9994           0
     75638 TIP3     12081    TIP3     H1       HT       0.417000       1.00800           0
     75639 TIP3     12081    TIP3     H2       HT       0.417000       1.00800           0
     75640 TIP3     12082    TIP3     OH2      OT      -0.834000       15.9994           0
     75641 TIP3     12082    TIP3     H1       HT       0.417000       1.00800           0
     75642 TIP3     12082    TIP3     H2       HT       0.417000       1.00800           0
     75643 TIP3     12083    TIP3     OH2      OT      -0.834000       15.9994           0
     75644 TIP3     12083    TIP3     H1       HT       0.417000       1.00800           0
     75645 TIP3     12083    TIP3     H2       HT       0.417000       1.00800           0
     75646 TIP3     12084    TIP3     OH2      OT      -0.834000       15.9994           0
     75647 TIP3     12084    TIP3     H1       HT       0.417000       1.00800           0
     75648 TIP3     12084    TIP3     H2       HT       0.417000       1.00800           0
     75649 TIP3     12085    TIP3     OH2      OT      -0.834000       15.9994           0
     75650 TIP3     12085    TIP3     H1       HT       0.417000       1.00800           0
     75651 TIP3     12085    TIP3     H2       HT       0.417000       1.00800           0
     75652 TIP3     12086    TIP3     OH2      OT      -0.834000       15.9994           0
     75653 TIP3     12086    TIP3     H1       HT       0.417000       1.00800           0
     75654 TIP3     12086    TIP3     H2       HT       0.417000       1.00800           0
     75655 TIP3     12087    TIP3     OH2      OT      -0.834000       15.9994           0
     75656 TIP3     12087    TIP3     H1       HT       0.417000       1.00800           0
     75657 TIP3     12087    TIP3     H2       HT       0.417000       1.00800           0
     75658 TIP3     12088    TIP3     OH2      OT      -0.834000       15.9994           0
     75659 TIP3     12088    TIP3     H1       HT       0.417000       1.00800           0
     75660 TIP3     12088    TIP3     H2       HT       0.417000       1.00800           0
     75661 TIP3     12089    TIP3     OH2      OT      -0.834000       15.9994           0
     75662 TIP3     12089    TIP3     H1       HT       0.417000       1.00800           0
     75663 TIP3     12089    TIP3     H2       HT       0.417000       1.00800           0
     75664 TIP3     12090    TIP3     OH2      OT      -0.834000       15.9994           0
     75665 TIP3     12090    TIP3     H1       HT       0.417000       1.00800           0
     75666 TIP3     12090    TIP3     H2       HT       0.417000       1.00800           0
     75667 TIP3     12091    TIP3     OH2      OT      -0.834000       15.9994           0
     75668 TIP3     12091    TIP3     H1       HT       0.417000       1.00800           0
     75669 TIP3     12091    TIP3     H2       HT       0.417000       1.00800           0
     75670 TIP3     12092    TIP3     OH2      OT      -0.834000       15.9994           0
     75671 TIP3     12092    TIP3     H1       HT       0.417000       1.00800           0
     75672 TIP3     12092    TIP3     H2       HT       0.417000       1.00800           0
     75673 TIP3     12093    TIP3     OH2      OT      -0.834000       15.9994           0
     75674 TIP3     12093    TIP3     H1       HT       0.417000       1.00800           0
     75675 TIP3     12093    TIP3     H2       HT       0.417000       1.00800           0
     75676 TIP3     12094    TIP3     OH2      OT      -0.834000       15.9994           0
     75677 TIP3     12094    TIP3     H1       HT       0.417000       1.00800           0
     75678 TIP3     12094    TIP3     H2       HT       0.417000       1.00800           0
     75679 TIP3     12095    TIP3     OH2      OT      -0.834000       15.9994           0
     75680 TIP3     12095    TIP3     H1       HT       0.417000       1.00800           0
     75681 TIP3     12095    TIP3     H2       HT       0.417000       1.00800           0
     75682 TIP3     12096    TIP3     OH2      OT      -0.834000       15.9994           0
     75683 TIP3     12096    TIP3     H1       HT       0.417000       1.00800           0
     75684 TIP3     12096    TIP3     H2       HT       0.417000       1.00800           0
     75685 TIP3     12097    TIP3     OH2      OT      -0.834000       15.9994           0
     75686 TIP3     12097    TIP3     H1       HT       0.417000       1.00800           0
     75687 TIP3     12097    TIP3     H2       HT       0.417000       1.00800           0
     75688 TIP3     12098    TIP3     OH2      OT      -0.834000       15.9994           0
     75689 TIP3     12098    TIP3     H1       HT       0.417000       1.00800           0
     75690 TIP3     12098    TIP3     H2       HT       0.417000       1.00800           0
     75691 TIP3     12099    TIP3     OH2      OT      -0.834000       15.9994           0
     75692 TIP3     12099    TIP3     H1       HT       0.417000       1.00800           0
     75693 TIP3     12099    TIP3     H2       HT       0.417000       1.00800           0
     75694 TIP3     12100    TIP3     OH2      OT      -0.834000       15.9994           0
     75695 TIP3     12100    TIP3     H1       HT       0.417000       1.00800           0
     75696 TIP3     12100    TIP3     H2       HT       0.417000       1.00800           0
     75697 TIP3     12101    TIP3     OH2      OT      -0.834000       15.9994           0
     75698 TIP3     12101    TIP3     H1       HT       0.417000       1.00800           0
     75699 TIP3     12101    TIP3     H2       HT       0.417000       1.00800           0
     75700 TIP3     12102    TIP3     OH2      OT      -0.834000       15.9994           0
     75701 TIP3     12102    TIP3     H1       HT       0.417000       1.00800           0
     75702 TIP3     12102    TIP3     H2       HT       0.417000       1.00800           0
     75703 TIP3     12103    TIP3     OH2      OT      -0.834000       15.9994           0
     75704 TIP3     12103    TIP3     H1       HT       0.417000       1.00800           0
     75705 TIP3     12103    TIP3     H2       HT       0.417000       1.00800           0
     75706 TIP3     12104    TIP3     OH2      OT      -0.834000       15.9994           0
     75707 TIP3     12104    TIP3     H1       HT       0.417000       1.00800           0
     75708 TIP3     12104    TIP3     H2       HT       0.417000       1.00800           0
     75709 TIP3     12105    TIP3     OH2      OT      -0.834000       15.9994           0
     75710 TIP3     12105    TIP3     H1       HT       0.417000       1.00800           0
     75711 TIP3     12105    TIP3     H2       HT       0.417000       1.00800           0
     75712 TIP3     12106    TIP3     OH2      OT      -0.834000       15.9994           0
     75713 TIP3     12106    TIP3     H1       HT       0.417000       1.00800           0
     75714 TIP3     12106    TIP3     H2       HT       0.417000       1.00800           0
     75715 TIP3     12107    TIP3     OH2      OT      -0.834000       15.9994           0
     75716 TIP3     12107    TIP3     H1       HT       0.417000       1.00800           0
     75717 TIP3     12107    TIP3     H2       HT       0.417000       1.00800           0
     75718 TIP3     12108    TIP3     OH2      OT      -0.834000       15.9994           0
     75719 TIP3     12108    TIP3     H1       HT       0.417000       1.00800           0
     75720 TIP3     12108    TIP3     H2       HT       0.417000       1.00800           0
     75721 TIP3     12109    TIP3     OH2      OT      -0.834000       15.9994           0
     75722 TIP3     12109    TIP3     H1       HT       0.417000       1.00800           0
     75723 TIP3     12109    TIP3     H2       HT       0.417000       1.00800           0
     75724 TIP3     12110    TIP3     OH2      OT      -0.834000       15.9994           0
     75725 TIP3     12110    TIP3     H1       HT       0.417000       1.00800           0
     75726 TIP3     12110    TIP3     H2       HT       0.417000       1.00800           0
     75727 TIP3     12111    TIP3     OH2      OT      -0.834000       15.9994           0
     75728 TIP3     12111    TIP3     H1       HT       0.417000       1.00800           0
     75729 TIP3     12111    TIP3     H2       HT       0.417000       1.00800           0
     75730 TIP3     12112    TIP3     OH2      OT      -0.834000       15.9994           0
     75731 TIP3     12112    TIP3     H1       HT       0.417000       1.00800           0
     75732 TIP3     12112    TIP3     H2       HT       0.417000       1.00800           0
     75733 TIP3     12113    TIP3     OH2      OT      -0.834000       15.9994           0
     75734 TIP3     12113    TIP3     H1       HT       0.417000       1.00800           0
     75735 TIP3     12113    TIP3     H2       HT       0.417000       1.00800           0
     75736 TIP3     12114    TIP3     OH2      OT      -0.834000       15.9994           0
     75737 TIP3     12114    TIP3     H1       HT       0.417000       1.00800           0
     75738 TIP3     12114    TIP3     H2       HT       0.417000       1.00800           0
     75739 TIP3     12115    TIP3     OH2      OT      -0.834000       15.9994           0
     75740 TIP3     12115    TIP3     H1       HT       0.417000       1.00800           0
     75741 TIP3     12115    TIP3     H2       HT       0.417000       1.00800           0
     75742 TIP3     12116    TIP3     OH2      OT      -0.834000       15.9994           0
     75743 TIP3     12116    TIP3     H1       HT       0.417000       1.00800           0
     75744 TIP3     12116    TIP3     H2       HT       0.417000       1.00800           0
     75745 TIP3     12117    TIP3     OH2      OT      -0.834000       15.9994           0
     75746 TIP3     12117    TIP3     H1       HT       0.417000       1.00800           0
     75747 TIP3     12117    TIP3     H2       HT       0.417000       1.00800           0
     75748 TIP3     12118    TIP3     OH2      OT      -0.834000       15.9994           0
     75749 TIP3     12118    TIP3     H1       HT       0.417000       1.00800           0
     75750 TIP3     12118    TIP3     H2       HT       0.417000       1.00800           0
     75751 TIP3     12119    TIP3     OH2      OT      -0.834000       15.9994           0
     75752 TIP3     12119    TIP3     H1       HT       0.417000       1.00800           0
     75753 TIP3     12119    TIP3     H2       HT       0.417000       1.00800           0
     75754 TIP3     12120    TIP3     OH2      OT      -0.834000       15.9994           0
     75755 TIP3     12120    TIP3     H1       HT       0.417000       1.00800           0
     75756 TIP3     12120    TIP3     H2       HT       0.417000       1.00800           0
     75757 TIP3     12121    TIP3     OH2      OT      -0.834000       15.9994           0
     75758 TIP3     12121    TIP3     H1       HT       0.417000       1.00800           0
     75759 TIP3     12121    TIP3     H2       HT       0.417000       1.00800           0
     75760 TIP3     12122    TIP3     OH2      OT      -0.834000       15.9994           0
     75761 TIP3     12122    TIP3     H1       HT       0.417000       1.00800           0
     75762 TIP3     12122    TIP3     H2       HT       0.417000       1.00800           0
     75763 TIP3     12123    TIP3     OH2      OT      -0.834000       15.9994           0
     75764 TIP3     12123    TIP3     H1       HT       0.417000       1.00800           0
     75765 TIP3     12123    TIP3     H2       HT       0.417000       1.00800           0
     75766 TIP3     12124    TIP3     OH2      OT      -0.834000       15.9994           0
     75767 TIP3     12124    TIP3     H1       HT       0.417000       1.00800           0
     75768 TIP3     12124    TIP3     H2       HT       0.417000       1.00800           0
     75769 TIP3     12125    TIP3     OH2      OT      -0.834000       15.9994           0
     75770 TIP3     12125    TIP3     H1       HT       0.417000       1.00800           0
     75771 TIP3     12125    TIP3     H2       HT       0.417000       1.00800           0
     75772 TIP3     12126    TIP3     OH2      OT      -0.834000       15.9994           0
     75773 TIP3     12126    TIP3     H1       HT       0.417000       1.00800           0
     75774 TIP3     12126    TIP3     H2       HT       0.417000       1.00800           0
     75775 TIP3     12127    TIP3     OH2      OT      -0.834000       15.9994           0
     75776 TIP3     12127    TIP3     H1       HT       0.417000       1.00800           0
     75777 TIP3     12127    TIP3     H2       HT       0.417000       1.00800           0
     75778 TIP3     12128    TIP3     OH2      OT      -0.834000       15.9994           0
     75779 TIP3     12128    TIP3     H1       HT       0.417000       1.00800           0
     75780 TIP3     12128    TIP3     H2       HT       0.417000       1.00800           0
     75781 TIP3     12129    TIP3     OH2      OT      -0.834000       15.9994           0
     75782 TIP3     12129    TIP3     H1       HT       0.417000       1.00800           0
     75783 TIP3     12129    TIP3     H2       HT       0.417000       1.00800           0
     75784 TIP3     12130    TIP3     OH2      OT      -0.834000       15.9994           0
     75785 TIP3     12130    TIP3     H1       HT       0.417000       1.00800           0
     75786 TIP3     12130    TIP3     H2       HT       0.417000       1.00800           0
     75787 TIP3     12131    TIP3     OH2      OT      -0.834000       15.9994           0
     75788 TIP3     12131    TIP3     H1       HT       0.417000       1.00800           0
     75789 TIP3     12131    TIP3     H2       HT       0.417000       1.00800           0
     75790 TIP3     12132    TIP3     OH2      OT      -0.834000       15.9994           0
     75791 TIP3     12132    TIP3     H1       HT       0.417000       1.00800           0
     75792 TIP3     12132    TIP3     H2       HT       0.417000       1.00800           0
     75793 TIP3     12133    TIP3     OH2      OT      -0.834000       15.9994           0
     75794 TIP3     12133    TIP3     H1       HT       0.417000       1.00800           0
     75795 TIP3     12133    TIP3     H2       HT       0.417000       1.00800           0
     75796 TIP3     12134    TIP3     OH2      OT      -0.834000       15.9994           0
     75797 TIP3     12134    TIP3     H1       HT       0.417000       1.00800           0
     75798 TIP3     12134    TIP3     H2       HT       0.417000       1.00800           0
     75799 TIP3     12135    TIP3     OH2      OT      -0.834000       15.9994           0
     75800 TIP3     12135    TIP3     H1       HT       0.417000       1.00800           0
     75801 TIP3     12135    TIP3     H2       HT       0.417000       1.00800           0
     75802 TIP3     12136    TIP3     OH2      OT      -0.834000       15.9994           0
     75803 TIP3     12136    TIP3     H1       HT       0.417000       1.00800           0
     75804 TIP3     12136    TIP3     H2       HT       0.417000       1.00800           0
     75805 TIP3     12137    TIP3     OH2      OT      -0.834000       15.9994           0
     75806 TIP3     12137    TIP3     H1       HT       0.417000       1.00800           0
     75807 TIP3     12137    TIP3     H2       HT       0.417000       1.00800           0
     75808 TIP3     12138    TIP3     OH2      OT      -0.834000       15.9994           0
     75809 TIP3     12138    TIP3     H1       HT       0.417000       1.00800           0
     75810 TIP3     12138    TIP3     H2       HT       0.417000       1.00800           0
     75811 TIP3     12139    TIP3     OH2      OT      -0.834000       15.9994           0
     75812 TIP3     12139    TIP3     H1       HT       0.417000       1.00800           0
     75813 TIP3     12139    TIP3     H2       HT       0.417000       1.00800           0
     75814 TIP3     12140    TIP3     OH2      OT      -0.834000       15.9994           0
     75815 TIP3     12140    TIP3     H1       HT       0.417000       1.00800           0
     75816 TIP3     12140    TIP3     H2       HT       0.417000       1.00800           0
     75817 TIP3     12141    TIP3     OH2      OT      -0.834000       15.9994           0
     75818 TIP3     12141    TIP3     H1       HT       0.417000       1.00800           0
     75819 TIP3     12141    TIP3     H2       HT       0.417000       1.00800           0
     75820 TIP3     12142    TIP3     OH2      OT      -0.834000       15.9994           0
     75821 TIP3     12142    TIP3     H1       HT       0.417000       1.00800           0
     75822 TIP3     12142    TIP3     H2       HT       0.417000       1.00800           0
     75823 TIP3     12143    TIP3     OH2      OT      -0.834000       15.9994           0
     75824 TIP3     12143    TIP3     H1       HT       0.417000       1.00800           0
     75825 TIP3     12143    TIP3     H2       HT       0.417000       1.00800           0
     75826 TIP3     12144    TIP3     OH2      OT      -0.834000       15.9994           0
     75827 TIP3     12144    TIP3     H1       HT       0.417000       1.00800           0
     75828 TIP3     12144    TIP3     H2       HT       0.417000       1.00800           0
     75829 TIP3     12145    TIP3     OH2      OT      -0.834000       15.9994           0
     75830 TIP3     12145    TIP3     H1       HT       0.417000       1.00800           0
     75831 TIP3     12145    TIP3     H2       HT       0.417000       1.00800           0
     75832 TIP3     12146    TIP3     OH2      OT      -0.834000       15.9994           0
     75833 TIP3     12146    TIP3     H1       HT       0.417000       1.00800           0
     75834 TIP3     12146    TIP3     H2       HT       0.417000       1.00800           0
     75835 TIP3     12147    TIP3     OH2      OT      -0.834000       15.9994           0
     75836 TIP3     12147    TIP3     H1       HT       0.417000       1.00800           0
     75837 TIP3     12147    TIP3     H2       HT       0.417000       1.00800           0
     75838 TIP3     12148    TIP3     OH2      OT      -0.834000       15.9994           0
     75839 TIP3     12148    TIP3     H1       HT       0.417000       1.00800           0
     75840 TIP3     12148    TIP3     H2       HT       0.417000       1.00800           0
     75841 TIP3     12149    TIP3     OH2      OT      -0.834000       15.9994           0
     75842 TIP3     12149    TIP3     H1       HT       0.417000       1.00800           0
     75843 TIP3     12149    TIP3     H2       HT       0.417000       1.00800           0
     75844 TIP3     12150    TIP3     OH2      OT      -0.834000       15.9994           0
     75845 TIP3     12150    TIP3     H1       HT       0.417000       1.00800           0
     75846 TIP3     12150    TIP3     H2       HT       0.417000       1.00800           0
     75847 TIP3     12151    TIP3     OH2      OT      -0.834000       15.9994           0
     75848 TIP3     12151    TIP3     H1       HT       0.417000       1.00800           0
     75849 TIP3     12151    TIP3     H2       HT       0.417000       1.00800           0
     75850 TIP3     12152    TIP3     OH2      OT      -0.834000       15.9994           0
     75851 TIP3     12152    TIP3     H1       HT       0.417000       1.00800           0
     75852 TIP3     12152    TIP3     H2       HT       0.417000       1.00800           0
     75853 TIP3     12153    TIP3     OH2      OT      -0.834000       15.9994           0
     75854 TIP3     12153    TIP3     H1       HT       0.417000       1.00800           0
     75855 TIP3     12153    TIP3     H2       HT       0.417000       1.00800           0
     75856 TIP3     12154    TIP3     OH2      OT      -0.834000       15.9994           0
     75857 TIP3     12154    TIP3     H1       HT       0.417000       1.00800           0
     75858 TIP3     12154    TIP3     H2       HT       0.417000       1.00800           0
     75859 TIP3     12155    TIP3     OH2      OT      -0.834000       15.9994           0
     75860 TIP3     12155    TIP3     H1       HT       0.417000       1.00800           0
     75861 TIP3     12155    TIP3     H2       HT       0.417000       1.00800           0
     75862 TIP3     12156    TIP3     OH2      OT      -0.834000       15.9994           0
     75863 TIP3     12156    TIP3     H1       HT       0.417000       1.00800           0
     75864 TIP3     12156    TIP3     H2       HT       0.417000       1.00800           0
     75865 TIP3     12157    TIP3     OH2      OT      -0.834000       15.9994           0
     75866 TIP3     12157    TIP3     H1       HT       0.417000       1.00800           0
     75867 TIP3     12157    TIP3     H2       HT       0.417000       1.00800           0
     75868 TIP3     12158    TIP3     OH2      OT      -0.834000       15.9994           0
     75869 TIP3     12158    TIP3     H1       HT       0.417000       1.00800           0
     75870 TIP3     12158    TIP3     H2       HT       0.417000       1.00800           0
     75871 TIP3     12159    TIP3     OH2      OT      -0.834000       15.9994           0
     75872 TIP3     12159    TIP3     H1       HT       0.417000       1.00800           0
     75873 TIP3     12159    TIP3     H2       HT       0.417000       1.00800           0
     75874 TIP3     12160    TIP3     OH2      OT      -0.834000       15.9994           0
     75875 TIP3     12160    TIP3     H1       HT       0.417000       1.00800           0
     75876 TIP3     12160    TIP3     H2       HT       0.417000       1.00800           0
     75877 TIP3     12161    TIP3     OH2      OT      -0.834000       15.9994           0
     75878 TIP3     12161    TIP3     H1       HT       0.417000       1.00800           0
     75879 TIP3     12161    TIP3     H2       HT       0.417000       1.00800           0
     75880 TIP3     12162    TIP3     OH2      OT      -0.834000       15.9994           0
     75881 TIP3     12162    TIP3     H1       HT       0.417000       1.00800           0
     75882 TIP3     12162    TIP3     H2       HT       0.417000       1.00800           0
     75883 TIP3     12163    TIP3     OH2      OT      -0.834000       15.9994           0
     75884 TIP3     12163    TIP3     H1       HT       0.417000       1.00800           0
     75885 TIP3     12163    TIP3     H2       HT       0.417000       1.00800           0
     75886 TIP3     12164    TIP3     OH2      OT      -0.834000       15.9994           0
     75887 TIP3     12164    TIP3     H1       HT       0.417000       1.00800           0
     75888 TIP3     12164    TIP3     H2       HT       0.417000       1.00800           0
     75889 TIP3     12165    TIP3     OH2      OT      -0.834000       15.9994           0
     75890 TIP3     12165    TIP3     H1       HT       0.417000       1.00800           0
     75891 TIP3     12165    TIP3     H2       HT       0.417000       1.00800           0
     75892 TIP3     12166    TIP3     OH2      OT      -0.834000       15.9994           0
     75893 TIP3     12166    TIP3     H1       HT       0.417000       1.00800           0
     75894 TIP3     12166    TIP3     H2       HT       0.417000       1.00800           0
     75895 TIP3     12167    TIP3     OH2      OT      -0.834000       15.9994           0
     75896 TIP3     12167    TIP3     H1       HT       0.417000       1.00800           0
     75897 TIP3     12167    TIP3     H2       HT       0.417000       1.00800           0
     75898 TIP3     12168    TIP3     OH2      OT      -0.834000       15.9994           0
     75899 TIP3     12168    TIP3     H1       HT       0.417000       1.00800           0
     75900 TIP3     12168    TIP3     H2       HT       0.417000       1.00800           0
     75901 TIP3     12169    TIP3     OH2      OT      -0.834000       15.9994           0
     75902 TIP3     12169    TIP3     H1       HT       0.417000       1.00800           0
     75903 TIP3     12169    TIP3     H2       HT       0.417000       1.00800           0
     75904 TIP3     12170    TIP3     OH2      OT      -0.834000       15.9994           0
     75905 TIP3     12170    TIP3     H1       HT       0.417000       1.00800           0
     75906 TIP3     12170    TIP3     H2       HT       0.417000       1.00800           0
     75907 TIP3     12171    TIP3     OH2      OT      -0.834000       15.9994           0
     75908 TIP3     12171    TIP3     H1       HT       0.417000       1.00800           0
     75909 TIP3     12171    TIP3     H2       HT       0.417000       1.00800           0
     75910 TIP3     12172    TIP3     OH2      OT      -0.834000       15.9994           0
     75911 TIP3     12172    TIP3     H1       HT       0.417000       1.00800           0
     75912 TIP3     12172    TIP3     H2       HT       0.417000       1.00800           0
     75913 TIP3     12173    TIP3     OH2      OT      -0.834000       15.9994           0
     75914 TIP3     12173    TIP3     H1       HT       0.417000       1.00800           0
     75915 TIP3     12173    TIP3     H2       HT       0.417000       1.00800           0
     75916 TIP3     12174    TIP3     OH2      OT      -0.834000       15.9994           0
     75917 TIP3     12174    TIP3     H1       HT       0.417000       1.00800           0
     75918 TIP3     12174    TIP3     H2       HT       0.417000       1.00800           0
     75919 TIP3     12175    TIP3     OH2      OT      -0.834000       15.9994           0
     75920 TIP3     12175    TIP3     H1       HT       0.417000       1.00800           0
     75921 TIP3     12175    TIP3     H2       HT       0.417000       1.00800           0
     75922 TIP3     12176    TIP3     OH2      OT      -0.834000       15.9994           0
     75923 TIP3     12176    TIP3     H1       HT       0.417000       1.00800           0
     75924 TIP3     12176    TIP3     H2       HT       0.417000       1.00800           0
     75925 TIP3     12177    TIP3     OH2      OT      -0.834000       15.9994           0
     75926 TIP3     12177    TIP3     H1       HT       0.417000       1.00800           0
     75927 TIP3     12177    TIP3     H2       HT       0.417000       1.00800           0
     75928 TIP3     12178    TIP3     OH2      OT      -0.834000       15.9994           0
     75929 TIP3     12178    TIP3     H1       HT       0.417000       1.00800           0
     75930 TIP3     12178    TIP3     H2       HT       0.417000       1.00800           0
     75931 TIP3     12179    TIP3     OH2      OT      -0.834000       15.9994           0
     75932 TIP3     12179    TIP3     H1       HT       0.417000       1.00800           0
     75933 TIP3     12179    TIP3     H2       HT       0.417000       1.00800           0
     75934 TIP3     12180    TIP3     OH2      OT      -0.834000       15.9994           0
     75935 TIP3     12180    TIP3     H1       HT       0.417000       1.00800           0
     75936 TIP3     12180    TIP3     H2       HT       0.417000       1.00800           0
     75937 TIP3     12181    TIP3     OH2      OT      -0.834000       15.9994           0
     75938 TIP3     12181    TIP3     H1       HT       0.417000       1.00800           0
     75939 TIP3     12181    TIP3     H2       HT       0.417000       1.00800           0
     75940 TIP3     12182    TIP3     OH2      OT      -0.834000       15.9994           0
     75941 TIP3     12182    TIP3     H1       HT       0.417000       1.00800           0
     75942 TIP3     12182    TIP3     H2       HT       0.417000       1.00800           0
     75943 TIP3     12183    TIP3     OH2      OT      -0.834000       15.9994           0
     75944 TIP3     12183    TIP3     H1       HT       0.417000       1.00800           0
     75945 TIP3     12183    TIP3     H2       HT       0.417000       1.00800           0
     75946 TIP3     12184    TIP3     OH2      OT      -0.834000       15.9994           0
     75947 TIP3     12184    TIP3     H1       HT       0.417000       1.00800           0
     75948 TIP3     12184    TIP3     H2       HT       0.417000       1.00800           0
     75949 TIP3     12185    TIP3     OH2      OT      -0.834000       15.9994           0
     75950 TIP3     12185    TIP3     H1       HT       0.417000       1.00800           0
     75951 TIP3     12185    TIP3     H2       HT       0.417000       1.00800           0
     75952 TIP3     12186    TIP3     OH2      OT      -0.834000       15.9994           0
     75953 TIP3     12186    TIP3     H1       HT       0.417000       1.00800           0
     75954 TIP3     12186    TIP3     H2       HT       0.417000       1.00800           0
     75955 TIP3     12187    TIP3     OH2      OT      -0.834000       15.9994           0
     75956 TIP3     12187    TIP3     H1       HT       0.417000       1.00800           0
     75957 TIP3     12187    TIP3     H2       HT       0.417000       1.00800           0
     75958 TIP3     12188    TIP3     OH2      OT      -0.834000       15.9994           0
     75959 TIP3     12188    TIP3     H1       HT       0.417000       1.00800           0
     75960 TIP3     12188    TIP3     H2       HT       0.417000       1.00800           0
     75961 TIP3     12189    TIP3     OH2      OT      -0.834000       15.9994           0
     75962 TIP3     12189    TIP3     H1       HT       0.417000       1.00800           0
     75963 TIP3     12189    TIP3     H2       HT       0.417000       1.00800           0
     75964 TIP3     12190    TIP3     OH2      OT      -0.834000       15.9994           0
     75965 TIP3     12190    TIP3     H1       HT       0.417000       1.00800           0
     75966 TIP3     12190    TIP3     H2       HT       0.417000       1.00800           0
     75967 TIP3     12191    TIP3     OH2      OT      -0.834000       15.9994           0
     75968 TIP3     12191    TIP3     H1       HT       0.417000       1.00800           0
     75969 TIP3     12191    TIP3     H2       HT       0.417000       1.00800           0
     75970 TIP3     12192    TIP3     OH2      OT      -0.834000       15.9994           0
     75971 TIP3     12192    TIP3     H1       HT       0.417000       1.00800           0
     75972 TIP3     12192    TIP3     H2       HT       0.417000       1.00800           0
     75973 TIP3     12193    TIP3     OH2      OT      -0.834000       15.9994           0
     75974 TIP3     12193    TIP3     H1       HT       0.417000       1.00800           0
     75975 TIP3     12193    TIP3     H2       HT       0.417000       1.00800           0
     75976 TIP3     12194    TIP3     OH2      OT      -0.834000       15.9994           0
     75977 TIP3     12194    TIP3     H1       HT       0.417000       1.00800           0
     75978 TIP3     12194    TIP3     H2       HT       0.417000       1.00800           0
     75979 TIP3     12195    TIP3     OH2      OT      -0.834000       15.9994           0
     75980 TIP3     12195    TIP3     H1       HT       0.417000       1.00800           0
     75981 TIP3     12195    TIP3     H2       HT       0.417000       1.00800           0
     75982 TIP3     12196    TIP3     OH2      OT      -0.834000       15.9994           0
     75983 TIP3     12196    TIP3     H1       HT       0.417000       1.00800           0
     75984 TIP3     12196    TIP3     H2       HT       0.417000       1.00800           0
     75985 TIP3     12197    TIP3     OH2      OT      -0.834000       15.9994           0
     75986 TIP3     12197    TIP3     H1       HT       0.417000       1.00800           0
     75987 TIP3     12197    TIP3     H2       HT       0.417000       1.00800           0
     75988 TIP3     12198    TIP3     OH2      OT      -0.834000       15.9994           0
     75989 TIP3     12198    TIP3     H1       HT       0.417000       1.00800           0
     75990 TIP3     12198    TIP3     H2       HT       0.417000       1.00800           0
     75991 TIP3     12199    TIP3     OH2      OT      -0.834000       15.9994           0
     75992 TIP3     12199    TIP3     H1       HT       0.417000       1.00800           0
     75993 TIP3     12199    TIP3     H2       HT       0.417000       1.00800           0
     75994 TIP3     12200    TIP3     OH2      OT      -0.834000       15.9994           0
     75995 TIP3     12200    TIP3     H1       HT       0.417000       1.00800           0
     75996 TIP3     12200    TIP3     H2       HT       0.417000       1.00800           0
     75997 TIP3     12201    TIP3     OH2      OT      -0.834000       15.9994           0
     75998 TIP3     12201    TIP3     H1       HT       0.417000       1.00800           0
     75999 TIP3     12201    TIP3     H2       HT       0.417000       1.00800           0
     76000 TIP3     12202    TIP3     OH2      OT      -0.834000       15.9994           0
     76001 TIP3     12202    TIP3     H1       HT       0.417000       1.00800           0
     76002 TIP3     12202    TIP3     H2       HT       0.417000       1.00800           0
     76003 TIP3     12203    TIP3     OH2      OT      -0.834000       15.9994           0
     76004 TIP3     12203    TIP3     H1       HT       0.417000       1.00800           0
     76005 TIP3     12203    TIP3     H2       HT       0.417000       1.00800           0
     76006 TIP3     12204    TIP3     OH2      OT      -0.834000       15.9994           0
     76007 TIP3     12204    TIP3     H1       HT       0.417000       1.00800           0
     76008 TIP3     12204    TIP3     H2       HT       0.417000       1.00800           0
     76009 TIP3     12205    TIP3     OH2      OT      -0.834000       15.9994           0
     76010 TIP3     12205    TIP3     H1       HT       0.417000       1.00800           0
     76011 TIP3     12205    TIP3     H2       HT       0.417000       1.00800           0
     76012 TIP3     12206    TIP3     OH2      OT      -0.834000       15.9994           0
     76013 TIP3     12206    TIP3     H1       HT       0.417000       1.00800           0
     76014 TIP3     12206    TIP3     H2       HT       0.417000       1.00800           0
     76015 TIP3     12207    TIP3     OH2      OT      -0.834000       15.9994           0
     76016 TIP3     12207    TIP3     H1       HT       0.417000       1.00800           0
     76017 TIP3     12207    TIP3     H2       HT       0.417000       1.00800           0
     76018 TIP3     12208    TIP3     OH2      OT      -0.834000       15.9994           0
     76019 TIP3     12208    TIP3     H1       HT       0.417000       1.00800           0
     76020 TIP3     12208    TIP3     H2       HT       0.417000       1.00800           0
     76021 TIP3     12209    TIP3     OH2      OT      -0.834000       15.9994           0
     76022 TIP3     12209    TIP3     H1       HT       0.417000       1.00800           0
     76023 TIP3     12209    TIP3     H2       HT       0.417000       1.00800           0
     76024 TIP3     12210    TIP3     OH2      OT      -0.834000       15.9994           0
     76025 TIP3     12210    TIP3     H1       HT       0.417000       1.00800           0
     76026 TIP3     12210    TIP3     H2       HT       0.417000       1.00800           0
     76027 TIP3     12211    TIP3     OH2      OT      -0.834000       15.9994           0
     76028 TIP3     12211    TIP3     H1       HT       0.417000       1.00800           0
     76029 TIP3     12211    TIP3     H2       HT       0.417000       1.00800           0
     76030 TIP3     12212    TIP3     OH2      OT      -0.834000       15.9994           0
     76031 TIP3     12212    TIP3     H1       HT       0.417000       1.00800           0
     76032 TIP3     12212    TIP3     H2       HT       0.417000       1.00800           0
     76033 TIP3     12213    TIP3     OH2      OT      -0.834000       15.9994           0
     76034 TIP3     12213    TIP3     H1       HT       0.417000       1.00800           0
     76035 TIP3     12213    TIP3     H2       HT       0.417000       1.00800           0
     76036 TIP3     12214    TIP3     OH2      OT      -0.834000       15.9994           0
     76037 TIP3     12214    TIP3     H1       HT       0.417000       1.00800           0
     76038 TIP3     12214    TIP3     H2       HT       0.417000       1.00800           0
     76039 TIP3     12215    TIP3     OH2      OT      -0.834000       15.9994           0
     76040 TIP3     12215    TIP3     H1       HT       0.417000       1.00800           0
     76041 TIP3     12215    TIP3     H2       HT       0.417000       1.00800           0
     76042 TIP3     12216    TIP3     OH2      OT      -0.834000       15.9994           0
     76043 TIP3     12216    TIP3     H1       HT       0.417000       1.00800           0
     76044 TIP3     12216    TIP3     H2       HT       0.417000       1.00800           0
     76045 TIP3     12217    TIP3     OH2      OT      -0.834000       15.9994           0
     76046 TIP3     12217    TIP3     H1       HT       0.417000       1.00800           0
     76047 TIP3     12217    TIP3     H2       HT       0.417000       1.00800           0
     76048 TIP3     12218    TIP3     OH2      OT      -0.834000       15.9994           0
     76049 TIP3     12218    TIP3     H1       HT       0.417000       1.00800           0
     76050 TIP3     12218    TIP3     H2       HT       0.417000       1.00800           0
     76051 TIP3     12219    TIP3     OH2      OT      -0.834000       15.9994           0
     76052 TIP3     12219    TIP3     H1       HT       0.417000       1.00800           0
     76053 TIP3     12219    TIP3     H2       HT       0.417000       1.00800           0
     76054 TIP3     12220    TIP3     OH2      OT      -0.834000       15.9994           0
     76055 TIP3     12220    TIP3     H1       HT       0.417000       1.00800           0
     76056 TIP3     12220    TIP3     H2       HT       0.417000       1.00800           0
     76057 TIP3     12221    TIP3     OH2      OT      -0.834000       15.9994           0
     76058 TIP3     12221    TIP3     H1       HT       0.417000       1.00800           0
     76059 TIP3     12221    TIP3     H2       HT       0.417000       1.00800           0
     76060 TIP3     12222    TIP3     OH2      OT      -0.834000       15.9994           0
     76061 TIP3     12222    TIP3     H1       HT       0.417000       1.00800           0
     76062 TIP3     12222    TIP3     H2       HT       0.417000       1.00800           0
     76063 TIP3     12223    TIP3     OH2      OT      -0.834000       15.9994           0
     76064 TIP3     12223    TIP3     H1       HT       0.417000       1.00800           0
     76065 TIP3     12223    TIP3     H2       HT       0.417000       1.00800           0
     76066 TIP3     12224    TIP3     OH2      OT      -0.834000       15.9994           0
     76067 TIP3     12224    TIP3     H1       HT       0.417000       1.00800           0
     76068 TIP3     12224    TIP3     H2       HT       0.417000       1.00800           0
     76069 TIP3     12225    TIP3     OH2      OT      -0.834000       15.9994           0
     76070 TIP3     12225    TIP3     H1       HT       0.417000       1.00800           0
     76071 TIP3     12225    TIP3     H2       HT       0.417000       1.00800           0
     76072 TIP3     12226    TIP3     OH2      OT      -0.834000       15.9994           0
     76073 TIP3     12226    TIP3     H1       HT       0.417000       1.00800           0
     76074 TIP3     12226    TIP3     H2       HT       0.417000       1.00800           0
     76075 TIP3     12227    TIP3     OH2      OT      -0.834000       15.9994           0
     76076 TIP3     12227    TIP3     H1       HT       0.417000       1.00800           0
     76077 TIP3     12227    TIP3     H2       HT       0.417000       1.00800           0
     76078 TIP3     12228    TIP3     OH2      OT      -0.834000       15.9994           0
     76079 TIP3     12228    TIP3     H1       HT       0.417000       1.00800           0
     76080 TIP3     12228    TIP3     H2       HT       0.417000       1.00800           0
     76081 TIP3     12229    TIP3     OH2      OT      -0.834000       15.9994           0
     76082 TIP3     12229    TIP3     H1       HT       0.417000       1.00800           0
     76083 TIP3     12229    TIP3     H2       HT       0.417000       1.00800           0
     76084 TIP3     12230    TIP3     OH2      OT      -0.834000       15.9994           0
     76085 TIP3     12230    TIP3     H1       HT       0.417000       1.00800           0
     76086 TIP3     12230    TIP3     H2       HT       0.417000       1.00800           0
     76087 TIP3     12231    TIP3     OH2      OT      -0.834000       15.9994           0
     76088 TIP3     12231    TIP3     H1       HT       0.417000       1.00800           0
     76089 TIP3     12231    TIP3     H2       HT       0.417000       1.00800           0
     76090 TIP3     12232    TIP3     OH2      OT      -0.834000       15.9994           0
     76091 TIP3     12232    TIP3     H1       HT       0.417000       1.00800           0
     76092 TIP3     12232    TIP3     H2       HT       0.417000       1.00800           0
     76093 TIP3     12233    TIP3     OH2      OT      -0.834000       15.9994           0
     76094 TIP3     12233    TIP3     H1       HT       0.417000       1.00800           0
     76095 TIP3     12233    TIP3     H2       HT       0.417000       1.00800           0
     76096 TIP3     12234    TIP3     OH2      OT      -0.834000       15.9994           0
     76097 TIP3     12234    TIP3     H1       HT       0.417000       1.00800           0
     76098 TIP3     12234    TIP3     H2       HT       0.417000       1.00800           0
     76099 TIP3     12235    TIP3     OH2      OT      -0.834000       15.9994           0
     76100 TIP3     12235    TIP3     H1       HT       0.417000       1.00800           0
     76101 TIP3     12235    TIP3     H2       HT       0.417000       1.00800           0
     76102 TIP3     12236    TIP3     OH2      OT      -0.834000       15.9994           0
     76103 TIP3     12236    TIP3     H1       HT       0.417000       1.00800           0
     76104 TIP3     12236    TIP3     H2       HT       0.417000       1.00800           0
     76105 TIP3     12237    TIP3     OH2      OT      -0.834000       15.9994           0
     76106 TIP3     12237    TIP3     H1       HT       0.417000       1.00800           0
     76107 TIP3     12237    TIP3     H2       HT       0.417000       1.00800           0
     76108 TIP3     12238    TIP3     OH2      OT      -0.834000       15.9994           0
     76109 TIP3     12238    TIP3     H1       HT       0.417000       1.00800           0
     76110 TIP3     12238    TIP3     H2       HT       0.417000       1.00800           0
     76111 TIP3     12239    TIP3     OH2      OT      -0.834000       15.9994           0
     76112 TIP3     12239    TIP3     H1       HT       0.417000       1.00800           0
     76113 TIP3     12239    TIP3     H2       HT       0.417000       1.00800           0
     76114 TIP3     12240    TIP3     OH2      OT      -0.834000       15.9994           0
     76115 TIP3     12240    TIP3     H1       HT       0.417000       1.00800           0
     76116 TIP3     12240    TIP3     H2       HT       0.417000       1.00800           0
     76117 TIP3     12241    TIP3     OH2      OT      -0.834000       15.9994           0
     76118 TIP3     12241    TIP3     H1       HT       0.417000       1.00800           0
     76119 TIP3     12241    TIP3     H2       HT       0.417000       1.00800           0
     76120 TIP3     12242    TIP3     OH2      OT      -0.834000       15.9994           0
     76121 TIP3     12242    TIP3     H1       HT       0.417000       1.00800           0
     76122 TIP3     12242    TIP3     H2       HT       0.417000       1.00800           0
     76123 TIP3     12243    TIP3     OH2      OT      -0.834000       15.9994           0
     76124 TIP3     12243    TIP3     H1       HT       0.417000       1.00800           0
     76125 TIP3     12243    TIP3     H2       HT       0.417000       1.00800           0
     76126 TIP3     12244    TIP3     OH2      OT      -0.834000       15.9994           0
     76127 TIP3     12244    TIP3     H1       HT       0.417000       1.00800           0
     76128 TIP3     12244    TIP3     H2       HT       0.417000       1.00800           0
     76129 TIP3     12245    TIP3     OH2      OT      -0.834000       15.9994           0
     76130 TIP3     12245    TIP3     H1       HT       0.417000       1.00800           0
     76131 TIP3     12245    TIP3     H2       HT       0.417000       1.00800           0
     76132 TIP3     12246    TIP3     OH2      OT      -0.834000       15.9994           0
     76133 TIP3     12246    TIP3     H1       HT       0.417000       1.00800           0
     76134 TIP3     12246    TIP3     H2       HT       0.417000       1.00800           0
     76135 TIP3     12247    TIP3     OH2      OT      -0.834000       15.9994           0
     76136 TIP3     12247    TIP3     H1       HT       0.417000       1.00800           0
     76137 TIP3     12247    TIP3     H2       HT       0.417000       1.00800           0
     76138 TIP3     12248    TIP3     OH2      OT      -0.834000       15.9994           0
     76139 TIP3     12248    TIP3     H1       HT       0.417000       1.00800           0
     76140 TIP3     12248    TIP3     H2       HT       0.417000       1.00800           0
     76141 TIP3     12249    TIP3     OH2      OT      -0.834000       15.9994           0
     76142 TIP3     12249    TIP3     H1       HT       0.417000       1.00800           0
     76143 TIP3     12249    TIP3     H2       HT       0.417000       1.00800           0
     76144 TIP3     12250    TIP3     OH2      OT      -0.834000       15.9994           0
     76145 TIP3     12250    TIP3     H1       HT       0.417000       1.00800           0
     76146 TIP3     12250    TIP3     H2       HT       0.417000       1.00800           0
     76147 TIP3     12251    TIP3     OH2      OT      -0.834000       15.9994           0
     76148 TIP3     12251    TIP3     H1       HT       0.417000       1.00800           0
     76149 TIP3     12251    TIP3     H2       HT       0.417000       1.00800           0
     76150 TIP3     12252    TIP3     OH2      OT      -0.834000       15.9994           0
     76151 TIP3     12252    TIP3     H1       HT       0.417000       1.00800           0
     76152 TIP3     12252    TIP3     H2       HT       0.417000       1.00800           0
     76153 TIP3     12253    TIP3     OH2      OT      -0.834000       15.9994           0
     76154 TIP3     12253    TIP3     H1       HT       0.417000       1.00800           0
     76155 TIP3     12253    TIP3     H2       HT       0.417000       1.00800           0
     76156 TIP3     12254    TIP3     OH2      OT      -0.834000       15.9994           0
     76157 TIP3     12254    TIP3     H1       HT       0.417000       1.00800           0
     76158 TIP3     12254    TIP3     H2       HT       0.417000       1.00800           0
     76159 TIP3     12255    TIP3     OH2      OT      -0.834000       15.9994           0
     76160 TIP3     12255    TIP3     H1       HT       0.417000       1.00800           0
     76161 TIP3     12255    TIP3     H2       HT       0.417000       1.00800           0
     76162 TIP3     12256    TIP3     OH2      OT      -0.834000       15.9994           0
     76163 TIP3     12256    TIP3     H1       HT       0.417000       1.00800           0
     76164 TIP3     12256    TIP3     H2       HT       0.417000       1.00800           0
     76165 TIP3     12257    TIP3     OH2      OT      -0.834000       15.9994           0
     76166 TIP3     12257    TIP3     H1       HT       0.417000       1.00800           0
     76167 TIP3     12257    TIP3     H2       HT       0.417000       1.00800           0
     76168 TIP3     12258    TIP3     OH2      OT      -0.834000       15.9994           0
     76169 TIP3     12258    TIP3     H1       HT       0.417000       1.00800           0
     76170 TIP3     12258    TIP3     H2       HT       0.417000       1.00800           0
     76171 TIP3     12259    TIP3     OH2      OT      -0.834000       15.9994           0
     76172 TIP3     12259    TIP3     H1       HT       0.417000       1.00800           0
     76173 TIP3     12259    TIP3     H2       HT       0.417000       1.00800           0
     76174 TIP3     12260    TIP3     OH2      OT      -0.834000       15.9994           0
     76175 TIP3     12260    TIP3     H1       HT       0.417000       1.00800           0
     76176 TIP3     12260    TIP3     H2       HT       0.417000       1.00800           0
     76177 TIP3     12261    TIP3     OH2      OT      -0.834000       15.9994           0
     76178 TIP3     12261    TIP3     H1       HT       0.417000       1.00800           0
     76179 TIP3     12261    TIP3     H2       HT       0.417000       1.00800           0
     76180 TIP3     12262    TIP3     OH2      OT      -0.834000       15.9994           0
     76181 TIP3     12262    TIP3     H1       HT       0.417000       1.00800           0
     76182 TIP3     12262    TIP3     H2       HT       0.417000       1.00800           0
     76183 TIP3     12263    TIP3     OH2      OT      -0.834000       15.9994           0
     76184 TIP3     12263    TIP3     H1       HT       0.417000       1.00800           0
     76185 TIP3     12263    TIP3     H2       HT       0.417000       1.00800           0
     76186 TIP3     12264    TIP3     OH2      OT      -0.834000       15.9994           0
     76187 TIP3     12264    TIP3     H1       HT       0.417000       1.00800           0
     76188 TIP3     12264    TIP3     H2       HT       0.417000       1.00800           0
     76189 TIP3     12265    TIP3     OH2      OT      -0.834000       15.9994           0
     76190 TIP3     12265    TIP3     H1       HT       0.417000       1.00800           0
     76191 TIP3     12265    TIP3     H2       HT       0.417000       1.00800           0
     76192 TIP3     12266    TIP3     OH2      OT      -0.834000       15.9994           0
     76193 TIP3     12266    TIP3     H1       HT       0.417000       1.00800           0
     76194 TIP3     12266    TIP3     H2       HT       0.417000       1.00800           0
     76195 TIP3     12267    TIP3     OH2      OT      -0.834000       15.9994           0
     76196 TIP3     12267    TIP3     H1       HT       0.417000       1.00800           0
     76197 TIP3     12267    TIP3     H2       HT       0.417000       1.00800           0
     76198 TIP3     12268    TIP3     OH2      OT      -0.834000       15.9994           0
     76199 TIP3     12268    TIP3     H1       HT       0.417000       1.00800           0
     76200 TIP3     12268    TIP3     H2       HT       0.417000       1.00800           0
     76201 TIP3     12269    TIP3     OH2      OT      -0.834000       15.9994           0
     76202 TIP3     12269    TIP3     H1       HT       0.417000       1.00800           0
     76203 TIP3     12269    TIP3     H2       HT       0.417000       1.00800           0
     76204 TIP3     12270    TIP3     OH2      OT      -0.834000       15.9994           0
     76205 TIP3     12270    TIP3     H1       HT       0.417000       1.00800           0
     76206 TIP3     12270    TIP3     H2       HT       0.417000       1.00800           0
     76207 TIP3     12271    TIP3     OH2      OT      -0.834000       15.9994           0
     76208 TIP3     12271    TIP3     H1       HT       0.417000       1.00800           0
     76209 TIP3     12271    TIP3     H2       HT       0.417000       1.00800           0
     76210 TIP3     12272    TIP3     OH2      OT      -0.834000       15.9994           0
     76211 TIP3     12272    TIP3     H1       HT       0.417000       1.00800           0
     76212 TIP3     12272    TIP3     H2       HT       0.417000       1.00800           0
     76213 TIP3     12273    TIP3     OH2      OT      -0.834000       15.9994           0
     76214 TIP3     12273    TIP3     H1       HT       0.417000       1.00800           0
     76215 TIP3     12273    TIP3     H2       HT       0.417000       1.00800           0
     76216 TIP3     12274    TIP3     OH2      OT      -0.834000       15.9994           0
     76217 TIP3     12274    TIP3     H1       HT       0.417000       1.00800           0
     76218 TIP3     12274    TIP3     H2       HT       0.417000       1.00800           0
     76219 TIP3     12275    TIP3     OH2      OT      -0.834000       15.9994           0
     76220 TIP3     12275    TIP3     H1       HT       0.417000       1.00800           0
     76221 TIP3     12275    TIP3     H2       HT       0.417000       1.00800           0
     76222 TIP3     12276    TIP3     OH2      OT      -0.834000       15.9994           0
     76223 TIP3     12276    TIP3     H1       HT       0.417000       1.00800           0
     76224 TIP3     12276    TIP3     H2       HT       0.417000       1.00800           0
     76225 TIP3     12277    TIP3     OH2      OT      -0.834000       15.9994           0
     76226 TIP3     12277    TIP3     H1       HT       0.417000       1.00800           0
     76227 TIP3     12277    TIP3     H2       HT       0.417000       1.00800           0
     76228 TIP3     12278    TIP3     OH2      OT      -0.834000       15.9994           0
     76229 TIP3     12278    TIP3     H1       HT       0.417000       1.00800           0
     76230 TIP3     12278    TIP3     H2       HT       0.417000       1.00800           0
     76231 TIP3     12279    TIP3     OH2      OT      -0.834000       15.9994           0
     76232 TIP3     12279    TIP3     H1       HT       0.417000       1.00800           0
     76233 TIP3     12279    TIP3     H2       HT       0.417000       1.00800           0
     76234 TIP3     12280    TIP3     OH2      OT      -0.834000       15.9994           0
     76235 TIP3     12280    TIP3     H1       HT       0.417000       1.00800           0
     76236 TIP3     12280    TIP3     H2       HT       0.417000       1.00800           0
     76237 TIP3     12281    TIP3     OH2      OT      -0.834000       15.9994           0
     76238 TIP3     12281    TIP3     H1       HT       0.417000       1.00800           0
     76239 TIP3     12281    TIP3     H2       HT       0.417000       1.00800           0
     76240 TIP3     12282    TIP3     OH2      OT      -0.834000       15.9994           0
     76241 TIP3     12282    TIP3     H1       HT       0.417000       1.00800           0
     76242 TIP3     12282    TIP3     H2       HT       0.417000       1.00800           0
     76243 TIP3     12283    TIP3     OH2      OT      -0.834000       15.9994           0
     76244 TIP3     12283    TIP3     H1       HT       0.417000       1.00800           0
     76245 TIP3     12283    TIP3     H2       HT       0.417000       1.00800           0
     76246 TIP3     12284    TIP3     OH2      OT      -0.834000       15.9994           0
     76247 TIP3     12284    TIP3     H1       HT       0.417000       1.00800           0
     76248 TIP3     12284    TIP3     H2       HT       0.417000       1.00800           0
     76249 TIP3     12285    TIP3     OH2      OT      -0.834000       15.9994           0
     76250 TIP3     12285    TIP3     H1       HT       0.417000       1.00800           0
     76251 TIP3     12285    TIP3     H2       HT       0.417000       1.00800           0
     76252 TIP3     12286    TIP3     OH2      OT      -0.834000       15.9994           0
     76253 TIP3     12286    TIP3     H1       HT       0.417000       1.00800           0
     76254 TIP3     12286    TIP3     H2       HT       0.417000       1.00800           0
     76255 TIP3     12287    TIP3     OH2      OT      -0.834000       15.9994           0
     76256 TIP3     12287    TIP3     H1       HT       0.417000       1.00800           0
     76257 TIP3     12287    TIP3     H2       HT       0.417000       1.00800           0
     76258 TIP3     12288    TIP3     OH2      OT      -0.834000       15.9994           0
     76259 TIP3     12288    TIP3     H1       HT       0.417000       1.00800           0
     76260 TIP3     12288    TIP3     H2       HT       0.417000       1.00800           0
     76261 TIP3     12289    TIP3     OH2      OT      -0.834000       15.9994           0
     76262 TIP3     12289    TIP3     H1       HT       0.417000       1.00800           0
     76263 TIP3     12289    TIP3     H2       HT       0.417000       1.00800           0
     76264 TIP3     12290    TIP3     OH2      OT      -0.834000       15.9994           0
     76265 TIP3     12290    TIP3     H1       HT       0.417000       1.00800           0
     76266 TIP3     12290    TIP3     H2       HT       0.417000       1.00800           0
     76267 TIP3     12291    TIP3     OH2      OT      -0.834000       15.9994           0
     76268 TIP3     12291    TIP3     H1       HT       0.417000       1.00800           0
     76269 TIP3     12291    TIP3     H2       HT       0.417000       1.00800           0
     76270 TIP3     12292    TIP3     OH2      OT      -0.834000       15.9994           0
     76271 TIP3     12292    TIP3     H1       HT       0.417000       1.00800           0
     76272 TIP3     12292    TIP3     H2       HT       0.417000       1.00800           0
     76273 TIP3     12293    TIP3     OH2      OT      -0.834000       15.9994           0
     76274 TIP3     12293    TIP3     H1       HT       0.417000       1.00800           0
     76275 TIP3     12293    TIP3     H2       HT       0.417000       1.00800           0
     76276 TIP3     12294    TIP3     OH2      OT      -0.834000       15.9994           0
     76277 TIP3     12294    TIP3     H1       HT       0.417000       1.00800           0
     76278 TIP3     12294    TIP3     H2       HT       0.417000       1.00800           0
     76279 TIP3     12295    TIP3     OH2      OT      -0.834000       15.9994           0
     76280 TIP3     12295    TIP3     H1       HT       0.417000       1.00800           0
     76281 TIP3     12295    TIP3     H2       HT       0.417000       1.00800           0
     76282 TIP3     12296    TIP3     OH2      OT      -0.834000       15.9994           0
     76283 TIP3     12296    TIP3     H1       HT       0.417000       1.00800           0
     76284 TIP3     12296    TIP3     H2       HT       0.417000       1.00800           0
     76285 TIP3     12297    TIP3     OH2      OT      -0.834000       15.9994           0
     76286 TIP3     12297    TIP3     H1       HT       0.417000       1.00800           0
     76287 TIP3     12297    TIP3     H2       HT       0.417000       1.00800           0
     76288 TIP3     12298    TIP3     OH2      OT      -0.834000       15.9994           0
     76289 TIP3     12298    TIP3     H1       HT       0.417000       1.00800           0
     76290 TIP3     12298    TIP3     H2       HT       0.417000       1.00800           0
     76291 TIP3     12299    TIP3     OH2      OT      -0.834000       15.9994           0
     76292 TIP3     12299    TIP3     H1       HT       0.417000       1.00800           0
     76293 TIP3     12299    TIP3     H2       HT       0.417000       1.00800           0
     76294 TIP3     12300    TIP3     OH2      OT      -0.834000       15.9994           0
     76295 TIP3     12300    TIP3     H1       HT       0.417000       1.00800           0
     76296 TIP3     12300    TIP3     H2       HT       0.417000       1.00800           0
     76297 TIP3     12301    TIP3     OH2      OT      -0.834000       15.9994           0
     76298 TIP3     12301    TIP3     H1       HT       0.417000       1.00800           0
     76299 TIP3     12301    TIP3     H2       HT       0.417000       1.00800           0
     76300 TIP3     12302    TIP3     OH2      OT      -0.834000       15.9994           0
     76301 TIP3     12302    TIP3     H1       HT       0.417000       1.00800           0
     76302 TIP3     12302    TIP3     H2       HT       0.417000       1.00800           0
     76303 TIP3     12303    TIP3     OH2      OT      -0.834000       15.9994           0
     76304 TIP3     12303    TIP3     H1       HT       0.417000       1.00800           0
     76305 TIP3     12303    TIP3     H2       HT       0.417000       1.00800           0
     76306 TIP3     12304    TIP3     OH2      OT      -0.834000       15.9994           0
     76307 TIP3     12304    TIP3     H1       HT       0.417000       1.00800           0
     76308 TIP3     12304    TIP3     H2       HT       0.417000       1.00800           0
     76309 TIP3     12305    TIP3     OH2      OT      -0.834000       15.9994           0
     76310 TIP3     12305    TIP3     H1       HT       0.417000       1.00800           0
     76311 TIP3     12305    TIP3     H2       HT       0.417000       1.00800           0
     76312 TIP3     12306    TIP3     OH2      OT      -0.834000       15.9994           0
     76313 TIP3     12306    TIP3     H1       HT       0.417000       1.00800           0
     76314 TIP3     12306    TIP3     H2       HT       0.417000       1.00800           0
     76315 TIP3     12307    TIP3     OH2      OT      -0.834000       15.9994           0
     76316 TIP3     12307    TIP3     H1       HT       0.417000       1.00800           0
     76317 TIP3     12307    TIP3     H2       HT       0.417000       1.00800           0
     76318 TIP3     12308    TIP3     OH2      OT      -0.834000       15.9994           0
     76319 TIP3     12308    TIP3     H1       HT       0.417000       1.00800           0
     76320 TIP3     12308    TIP3     H2       HT       0.417000       1.00800           0
     76321 TIP3     12309    TIP3     OH2      OT      -0.834000       15.9994           0
     76322 TIP3     12309    TIP3     H1       HT       0.417000       1.00800           0
     76323 TIP3     12309    TIP3     H2       HT       0.417000       1.00800           0
     76324 TIP3     12310    TIP3     OH2      OT      -0.834000       15.9994           0
     76325 TIP3     12310    TIP3     H1       HT       0.417000       1.00800           0
     76326 TIP3     12310    TIP3     H2       HT       0.417000       1.00800           0
     76327 TIP3     12311    TIP3     OH2      OT      -0.834000       15.9994           0
     76328 TIP3     12311    TIP3     H1       HT       0.417000       1.00800           0
     76329 TIP3     12311    TIP3     H2       HT       0.417000       1.00800           0
     76330 TIP3     12312    TIP3     OH2      OT      -0.834000       15.9994           0
     76331 TIP3     12312    TIP3     H1       HT       0.417000       1.00800           0
     76332 TIP3     12312    TIP3     H2       HT       0.417000       1.00800           0
     76333 TIP3     12313    TIP3     OH2      OT      -0.834000       15.9994           0
     76334 TIP3     12313    TIP3     H1       HT       0.417000       1.00800           0
     76335 TIP3     12313    TIP3     H2       HT       0.417000       1.00800           0
     76336 TIP3     12314    TIP3     OH2      OT      -0.834000       15.9994           0
     76337 TIP3     12314    TIP3     H1       HT       0.417000       1.00800           0
     76338 TIP3     12314    TIP3     H2       HT       0.417000       1.00800           0
     76339 TIP3     12315    TIP3     OH2      OT      -0.834000       15.9994           0
     76340 TIP3     12315    TIP3     H1       HT       0.417000       1.00800           0
     76341 TIP3     12315    TIP3     H2       HT       0.417000       1.00800           0
     76342 TIP3     12316    TIP3     OH2      OT      -0.834000       15.9994           0
     76343 TIP3     12316    TIP3     H1       HT       0.417000       1.00800           0
     76344 TIP3     12316    TIP3     H2       HT       0.417000       1.00800           0
     76345 TIP3     12317    TIP3     OH2      OT      -0.834000       15.9994           0
     76346 TIP3     12317    TIP3     H1       HT       0.417000       1.00800           0
     76347 TIP3     12317    TIP3     H2       HT       0.417000       1.00800           0
     76348 TIP3     12318    TIP3     OH2      OT      -0.834000       15.9994           0
     76349 TIP3     12318    TIP3     H1       HT       0.417000       1.00800           0
     76350 TIP3     12318    TIP3     H2       HT       0.417000       1.00800           0
     76351 TIP3     12319    TIP3     OH2      OT      -0.834000       15.9994           0
     76352 TIP3     12319    TIP3     H1       HT       0.417000       1.00800           0
     76353 TIP3     12319    TIP3     H2       HT       0.417000       1.00800           0
     76354 TIP3     12320    TIP3     OH2      OT      -0.834000       15.9994           0
     76355 TIP3     12320    TIP3     H1       HT       0.417000       1.00800           0
     76356 TIP3     12320    TIP3     H2       HT       0.417000       1.00800           0
     76357 TIP3     12321    TIP3     OH2      OT      -0.834000       15.9994           0
     76358 TIP3     12321    TIP3     H1       HT       0.417000       1.00800           0
     76359 TIP3     12321    TIP3     H2       HT       0.417000       1.00800           0
     76360 TIP3     12322    TIP3     OH2      OT      -0.834000       15.9994           0
     76361 TIP3     12322    TIP3     H1       HT       0.417000       1.00800           0
     76362 TIP3     12322    TIP3     H2       HT       0.417000       1.00800           0
     76363 TIP3     12323    TIP3     OH2      OT      -0.834000       15.9994           0
     76364 TIP3     12323    TIP3     H1       HT       0.417000       1.00800           0
     76365 TIP3     12323    TIP3     H2       HT       0.417000       1.00800           0
     76366 TIP3     12324    TIP3     OH2      OT      -0.834000       15.9994           0
     76367 TIP3     12324    TIP3     H1       HT       0.417000       1.00800           0
     76368 TIP3     12324    TIP3     H2       HT       0.417000       1.00800           0
     76369 TIP3     12325    TIP3     OH2      OT      -0.834000       15.9994           0
     76370 TIP3     12325    TIP3     H1       HT       0.417000       1.00800           0
     76371 TIP3     12325    TIP3     H2       HT       0.417000       1.00800           0
     76372 TIP3     12326    TIP3     OH2      OT      -0.834000       15.9994           0
     76373 TIP3     12326    TIP3     H1       HT       0.417000       1.00800           0
     76374 TIP3     12326    TIP3     H2       HT       0.417000       1.00800           0
     76375 TIP3     12327    TIP3     OH2      OT      -0.834000       15.9994           0
     76376 TIP3     12327    TIP3     H1       HT       0.417000       1.00800           0
     76377 TIP3     12327    TIP3     H2       HT       0.417000       1.00800           0
     76378 TIP3     12328    TIP3     OH2      OT      -0.834000       15.9994           0
     76379 TIP3     12328    TIP3     H1       HT       0.417000       1.00800           0
     76380 TIP3     12328    TIP3     H2       HT       0.417000       1.00800           0
     76381 TIP3     12329    TIP3     OH2      OT      -0.834000       15.9994           0
     76382 TIP3     12329    TIP3     H1       HT       0.417000       1.00800           0
     76383 TIP3     12329    TIP3     H2       HT       0.417000       1.00800           0
     76384 TIP3     12330    TIP3     OH2      OT      -0.834000       15.9994           0
     76385 TIP3     12330    TIP3     H1       HT       0.417000       1.00800           0
     76386 TIP3     12330    TIP3     H2       HT       0.417000       1.00800           0
     76387 TIP3     12331    TIP3     OH2      OT      -0.834000       15.9994           0
     76388 TIP3     12331    TIP3     H1       HT       0.417000       1.00800           0
     76389 TIP3     12331    TIP3     H2       HT       0.417000       1.00800           0
     76390 TIP3     12332    TIP3     OH2      OT      -0.834000       15.9994           0
     76391 TIP3     12332    TIP3     H1       HT       0.417000       1.00800           0
     76392 TIP3     12332    TIP3     H2       HT       0.417000       1.00800           0
     76393 TIP3     12333    TIP3     OH2      OT      -0.834000       15.9994           0
     76394 TIP3     12333    TIP3     H1       HT       0.417000       1.00800           0
     76395 TIP3     12333    TIP3     H2       HT       0.417000       1.00800           0
     76396 TIP3     12334    TIP3     OH2      OT      -0.834000       15.9994           0
     76397 TIP3     12334    TIP3     H1       HT       0.417000       1.00800           0
     76398 TIP3     12334    TIP3     H2       HT       0.417000       1.00800           0
     76399 TIP3     12335    TIP3     OH2      OT      -0.834000       15.9994           0
     76400 TIP3     12335    TIP3     H1       HT       0.417000       1.00800           0
     76401 TIP3     12335    TIP3     H2       HT       0.417000       1.00800           0
     76402 TIP3     12336    TIP3     OH2      OT      -0.834000       15.9994           0
     76403 TIP3     12336    TIP3     H1       HT       0.417000       1.00800           0
     76404 TIP3     12336    TIP3     H2       HT       0.417000       1.00800           0
     76405 TIP3     12337    TIP3     OH2      OT      -0.834000       15.9994           0
     76406 TIP3     12337    TIP3     H1       HT       0.417000       1.00800           0
     76407 TIP3     12337    TIP3     H2       HT       0.417000       1.00800           0
     76408 TIP3     12338    TIP3     OH2      OT      -0.834000       15.9994           0
     76409 TIP3     12338    TIP3     H1       HT       0.417000       1.00800           0
     76410 TIP3     12338    TIP3     H2       HT       0.417000       1.00800           0
     76411 TIP3     12339    TIP3     OH2      OT      -0.834000       15.9994           0
     76412 TIP3     12339    TIP3     H1       HT       0.417000       1.00800           0
     76413 TIP3     12339    TIP3     H2       HT       0.417000       1.00800           0
     76414 TIP3     12340    TIP3     OH2      OT      -0.834000       15.9994           0
     76415 TIP3     12340    TIP3     H1       HT       0.417000       1.00800           0
     76416 TIP3     12340    TIP3     H2       HT       0.417000       1.00800           0
     76417 TIP3     12341    TIP3     OH2      OT      -0.834000       15.9994           0
     76418 TIP3     12341    TIP3     H1       HT       0.417000       1.00800           0
     76419 TIP3     12341    TIP3     H2       HT       0.417000       1.00800           0
     76420 TIP3     12342    TIP3     OH2      OT      -0.834000       15.9994           0
     76421 TIP3     12342    TIP3     H1       HT       0.417000       1.00800           0
     76422 TIP3     12342    TIP3     H2       HT       0.417000       1.00800           0
     76423 TIP3     12343    TIP3     OH2      OT      -0.834000       15.9994           0
     76424 TIP3     12343    TIP3     H1       HT       0.417000       1.00800           0
     76425 TIP3     12343    TIP3     H2       HT       0.417000       1.00800           0
     76426 TIP3     12344    TIP3     OH2      OT      -0.834000       15.9994           0
     76427 TIP3     12344    TIP3     H1       HT       0.417000       1.00800           0
     76428 TIP3     12344    TIP3     H2       HT       0.417000       1.00800           0
     76429 TIP3     12345    TIP3     OH2      OT      -0.834000       15.9994           0
     76430 TIP3     12345    TIP3     H1       HT       0.417000       1.00800           0
     76431 TIP3     12345    TIP3     H2       HT       0.417000       1.00800           0
     76432 TIP3     12346    TIP3     OH2      OT      -0.834000       15.9994           0
     76433 TIP3     12346    TIP3     H1       HT       0.417000       1.00800           0
     76434 TIP3     12346    TIP3     H2       HT       0.417000       1.00800           0
     76435 TIP3     12347    TIP3     OH2      OT      -0.834000       15.9994           0
     76436 TIP3     12347    TIP3     H1       HT       0.417000       1.00800           0
     76437 TIP3     12347    TIP3     H2       HT       0.417000       1.00800           0
     76438 TIP3     12348    TIP3     OH2      OT      -0.834000       15.9994           0
     76439 TIP3     12348    TIP3     H1       HT       0.417000       1.00800           0
     76440 TIP3     12348    TIP3     H2       HT       0.417000       1.00800           0
     76441 TIP3     12349    TIP3     OH2      OT      -0.834000       15.9994           0
     76442 TIP3     12349    TIP3     H1       HT       0.417000       1.00800           0
     76443 TIP3     12349    TIP3     H2       HT       0.417000       1.00800           0
     76444 TIP3     12350    TIP3     OH2      OT      -0.834000       15.9994           0
     76445 TIP3     12350    TIP3     H1       HT       0.417000       1.00800           0
     76446 TIP3     12350    TIP3     H2       HT       0.417000       1.00800           0
     76447 TIP3     12351    TIP3     OH2      OT      -0.834000       15.9994           0
     76448 TIP3     12351    TIP3     H1       HT       0.417000       1.00800           0
     76449 TIP3     12351    TIP3     H2       HT       0.417000       1.00800           0
     76450 TIP3     12352    TIP3     OH2      OT      -0.834000       15.9994           0
     76451 TIP3     12352    TIP3     H1       HT       0.417000       1.00800           0
     76452 TIP3     12352    TIP3     H2       HT       0.417000       1.00800           0
     76453 TIP3     12353    TIP3     OH2      OT      -0.834000       15.9994           0
     76454 TIP3     12353    TIP3     H1       HT       0.417000       1.00800           0
     76455 TIP3     12353    TIP3     H2       HT       0.417000       1.00800           0
     76456 TIP3     12354    TIP3     OH2      OT      -0.834000       15.9994           0
     76457 TIP3     12354    TIP3     H1       HT       0.417000       1.00800           0
     76458 TIP3     12354    TIP3     H2       HT       0.417000       1.00800           0
     76459 TIP3     12355    TIP3     OH2      OT      -0.834000       15.9994           0
     76460 TIP3     12355    TIP3     H1       HT       0.417000       1.00800           0
     76461 TIP3     12355    TIP3     H2       HT       0.417000       1.00800           0
     76462 TIP3     12356    TIP3     OH2      OT      -0.834000       15.9994           0
     76463 TIP3     12356    TIP3     H1       HT       0.417000       1.00800           0
     76464 TIP3     12356    TIP3     H2       HT       0.417000       1.00800           0
     76465 TIP3     12357    TIP3     OH2      OT      -0.834000       15.9994           0
     76466 TIP3     12357    TIP3     H1       HT       0.417000       1.00800           0
     76467 TIP3     12357    TIP3     H2       HT       0.417000       1.00800           0
     76468 TIP3     12358    TIP3     OH2      OT      -0.834000       15.9994           0
     76469 TIP3     12358    TIP3     H1       HT       0.417000       1.00800           0
     76470 TIP3     12358    TIP3     H2       HT       0.417000       1.00800           0
     76471 TIP3     12359    TIP3     OH2      OT      -0.834000       15.9994           0
     76472 TIP3     12359    TIP3     H1       HT       0.417000       1.00800           0
     76473 TIP3     12359    TIP3     H2       HT       0.417000       1.00800           0
     76474 TIP3     12360    TIP3     OH2      OT      -0.834000       15.9994           0
     76475 TIP3     12360    TIP3     H1       HT       0.417000       1.00800           0
     76476 TIP3     12360    TIP3     H2       HT       0.417000       1.00800           0
     76477 TIP3     12361    TIP3     OH2      OT      -0.834000       15.9994           0
     76478 TIP3     12361    TIP3     H1       HT       0.417000       1.00800           0
     76479 TIP3     12361    TIP3     H2       HT       0.417000       1.00800           0
     76480 TIP3     12362    TIP3     OH2      OT      -0.834000       15.9994           0
     76481 TIP3     12362    TIP3     H1       HT       0.417000       1.00800           0
     76482 TIP3     12362    TIP3     H2       HT       0.417000       1.00800           0
     76483 TIP3     12363    TIP3     OH2      OT      -0.834000       15.9994           0
     76484 TIP3     12363    TIP3     H1       HT       0.417000       1.00800           0
     76485 TIP3     12363    TIP3     H2       HT       0.417000       1.00800           0
     76486 TIP3     12364    TIP3     OH2      OT      -0.834000       15.9994           0
     76487 TIP3     12364    TIP3     H1       HT       0.417000       1.00800           0
     76488 TIP3     12364    TIP3     H2       HT       0.417000       1.00800           0
     76489 TIP3     12365    TIP3     OH2      OT      -0.834000       15.9994           0
     76490 TIP3     12365    TIP3     H1       HT       0.417000       1.00800           0
     76491 TIP3     12365    TIP3     H2       HT       0.417000       1.00800           0
     76492 TIP3     12366    TIP3     OH2      OT      -0.834000       15.9994           0
     76493 TIP3     12366    TIP3     H1       HT       0.417000       1.00800           0
     76494 TIP3     12366    TIP3     H2       HT       0.417000       1.00800           0
     76495 TIP3     12367    TIP3     OH2      OT      -0.834000       15.9994           0
     76496 TIP3     12367    TIP3     H1       HT       0.417000       1.00800           0
     76497 TIP3     12367    TIP3     H2       HT       0.417000       1.00800           0
     76498 TIP3     12368    TIP3     OH2      OT      -0.834000       15.9994           0
     76499 TIP3     12368    TIP3     H1       HT       0.417000       1.00800           0
     76500 TIP3     12368    TIP3     H2       HT       0.417000       1.00800           0
     76501 TIP3     12369    TIP3     OH2      OT      -0.834000       15.9994           0
     76502 TIP3     12369    TIP3     H1       HT       0.417000       1.00800           0
     76503 TIP3     12369    TIP3     H2       HT       0.417000       1.00800           0
     76504 TIP3     12370    TIP3     OH2      OT      -0.834000       15.9994           0
     76505 TIP3     12370    TIP3     H1       HT       0.417000       1.00800           0
     76506 TIP3     12370    TIP3     H2       HT       0.417000       1.00800           0
     76507 TIP3     12371    TIP3     OH2      OT      -0.834000       15.9994           0
     76508 TIP3     12371    TIP3     H1       HT       0.417000       1.00800           0
     76509 TIP3     12371    TIP3     H2       HT       0.417000       1.00800           0
     76510 TIP3     12372    TIP3     OH2      OT      -0.834000       15.9994           0
     76511 TIP3     12372    TIP3     H1       HT       0.417000       1.00800           0
     76512 TIP3     12372    TIP3     H2       HT       0.417000       1.00800           0
     76513 TIP3     12373    TIP3     OH2      OT      -0.834000       15.9994           0
     76514 TIP3     12373    TIP3     H1       HT       0.417000       1.00800           0
     76515 TIP3     12373    TIP3     H2       HT       0.417000       1.00800           0
     76516 TIP3     12374    TIP3     OH2      OT      -0.834000       15.9994           0
     76517 TIP3     12374    TIP3     H1       HT       0.417000       1.00800           0
     76518 TIP3     12374    TIP3     H2       HT       0.417000       1.00800           0
     76519 TIP3     12375    TIP3     OH2      OT      -0.834000       15.9994           0
     76520 TIP3     12375    TIP3     H1       HT       0.417000       1.00800           0
     76521 TIP3     12375    TIP3     H2       HT       0.417000       1.00800           0
     76522 TIP3     12376    TIP3     OH2      OT      -0.834000       15.9994           0
     76523 TIP3     12376    TIP3     H1       HT       0.417000       1.00800           0
     76524 TIP3     12376    TIP3     H2       HT       0.417000       1.00800           0
     76525 TIP3     12377    TIP3     OH2      OT      -0.834000       15.9994           0
     76526 TIP3     12377    TIP3     H1       HT       0.417000       1.00800           0
     76527 TIP3     12377    TIP3     H2       HT       0.417000       1.00800           0
     76528 TIP3     12378    TIP3     OH2      OT      -0.834000       15.9994           0
     76529 TIP3     12378    TIP3     H1       HT       0.417000       1.00800           0
     76530 TIP3     12378    TIP3     H2       HT       0.417000       1.00800           0
     76531 TIP3     12379    TIP3     OH2      OT      -0.834000       15.9994           0
     76532 TIP3     12379    TIP3     H1       HT       0.417000       1.00800           0
     76533 TIP3     12379    TIP3     H2       HT       0.417000       1.00800           0
     76534 TIP3     12380    TIP3     OH2      OT      -0.834000       15.9994           0
     76535 TIP3     12380    TIP3     H1       HT       0.417000       1.00800           0
     76536 TIP3     12380    TIP3     H2       HT       0.417000       1.00800           0
     76537 TIP3     12381    TIP3     OH2      OT      -0.834000       15.9994           0
     76538 TIP3     12381    TIP3     H1       HT       0.417000       1.00800           0
     76539 TIP3     12381    TIP3     H2       HT       0.417000       1.00800           0
     76540 TIP3     12382    TIP3     OH2      OT      -0.834000       15.9994           0
     76541 TIP3     12382    TIP3     H1       HT       0.417000       1.00800           0
     76542 TIP3     12382    TIP3     H2       HT       0.417000       1.00800           0
     76543 TIP3     12383    TIP3     OH2      OT      -0.834000       15.9994           0
     76544 TIP3     12383    TIP3     H1       HT       0.417000       1.00800           0
     76545 TIP3     12383    TIP3     H2       HT       0.417000       1.00800           0
     76546 TIP3     12384    TIP3     OH2      OT      -0.834000       15.9994           0
     76547 TIP3     12384    TIP3     H1       HT       0.417000       1.00800           0
     76548 TIP3     12384    TIP3     H2       HT       0.417000       1.00800           0
     76549 TIP3     12385    TIP3     OH2      OT      -0.834000       15.9994           0
     76550 TIP3     12385    TIP3     H1       HT       0.417000       1.00800           0
     76551 TIP3     12385    TIP3     H2       HT       0.417000       1.00800           0
     76552 TIP3     12386    TIP3     OH2      OT      -0.834000       15.9994           0
     76553 TIP3     12386    TIP3     H1       HT       0.417000       1.00800           0
     76554 TIP3     12386    TIP3     H2       HT       0.417000       1.00800           0
     76555 TIP3     12387    TIP3     OH2      OT      -0.834000       15.9994           0
     76556 TIP3     12387    TIP3     H1       HT       0.417000       1.00800           0
     76557 TIP3     12387    TIP3     H2       HT       0.417000       1.00800           0
     76558 TIP3     12388    TIP3     OH2      OT      -0.834000       15.9994           0
     76559 TIP3     12388    TIP3     H1       HT       0.417000       1.00800           0
     76560 TIP3     12388    TIP3     H2       HT       0.417000       1.00800           0
     76561 TIP3     12389    TIP3     OH2      OT      -0.834000       15.9994           0
     76562 TIP3     12389    TIP3     H1       HT       0.417000       1.00800           0
     76563 TIP3     12389    TIP3     H2       HT       0.417000       1.00800           0
     76564 TIP3     12390    TIP3     OH2      OT      -0.834000       15.9994           0
     76565 TIP3     12390    TIP3     H1       HT       0.417000       1.00800           0
     76566 TIP3     12390    TIP3     H2       HT       0.417000       1.00800           0
     76567 TIP3     12391    TIP3     OH2      OT      -0.834000       15.9994           0
     76568 TIP3     12391    TIP3     H1       HT       0.417000       1.00800           0
     76569 TIP3     12391    TIP3     H2       HT       0.417000       1.00800           0
     76570 TIP3     12392    TIP3     OH2      OT      -0.834000       15.9994           0
     76571 TIP3     12392    TIP3     H1       HT       0.417000       1.00800           0
     76572 TIP3     12392    TIP3     H2       HT       0.417000       1.00800           0
     76573 TIP3     12393    TIP3     OH2      OT      -0.834000       15.9994           0
     76574 TIP3     12393    TIP3     H1       HT       0.417000       1.00800           0
     76575 TIP3     12393    TIP3     H2       HT       0.417000       1.00800           0
     76576 TIP3     12394    TIP3     OH2      OT      -0.834000       15.9994           0
     76577 TIP3     12394    TIP3     H1       HT       0.417000       1.00800           0
     76578 TIP3     12394    TIP3     H2       HT       0.417000       1.00800           0
     76579 TIP3     12395    TIP3     OH2      OT      -0.834000       15.9994           0
     76580 TIP3     12395    TIP3     H1       HT       0.417000       1.00800           0
     76581 TIP3     12395    TIP3     H2       HT       0.417000       1.00800           0
     76582 TIP3     12396    TIP3     OH2      OT      -0.834000       15.9994           0
     76583 TIP3     12396    TIP3     H1       HT       0.417000       1.00800           0
     76584 TIP3     12396    TIP3     H2       HT       0.417000       1.00800           0
     76585 TIP3     12397    TIP3     OH2      OT      -0.834000       15.9994           0
     76586 TIP3     12397    TIP3     H1       HT       0.417000       1.00800           0
     76587 TIP3     12397    TIP3     H2       HT       0.417000       1.00800           0
     76588 TIP3     12398    TIP3     OH2      OT      -0.834000       15.9994           0
     76589 TIP3     12398    TIP3     H1       HT       0.417000       1.00800           0
     76590 TIP3     12398    TIP3     H2       HT       0.417000       1.00800           0
     76591 TIP3     12399    TIP3     OH2      OT      -0.834000       15.9994           0
     76592 TIP3     12399    TIP3     H1       HT       0.417000       1.00800           0
     76593 TIP3     12399    TIP3     H2       HT       0.417000       1.00800           0
     76594 TIP3     12400    TIP3     OH2      OT      -0.834000       15.9994           0
     76595 TIP3     12400    TIP3     H1       HT       0.417000       1.00800           0
     76596 TIP3     12400    TIP3     H2       HT       0.417000       1.00800           0
     76597 TIP3     12401    TIP3     OH2      OT      -0.834000       15.9994           0
     76598 TIP3     12401    TIP3     H1       HT       0.417000       1.00800           0
     76599 TIP3     12401    TIP3     H2       HT       0.417000       1.00800           0
     76600 TIP3     12402    TIP3     OH2      OT      -0.834000       15.9994           0
     76601 TIP3     12402    TIP3     H1       HT       0.417000       1.00800           0
     76602 TIP3     12402    TIP3     H2       HT       0.417000       1.00800           0
     76603 TIP3     12403    TIP3     OH2      OT      -0.834000       15.9994           0
     76604 TIP3     12403    TIP3     H1       HT       0.417000       1.00800           0
     76605 TIP3     12403    TIP3     H2       HT       0.417000       1.00800           0
     76606 TIP3     12404    TIP3     OH2      OT      -0.834000       15.9994           0
     76607 TIP3     12404    TIP3     H1       HT       0.417000       1.00800           0
     76608 TIP3     12404    TIP3     H2       HT       0.417000       1.00800           0
     76609 TIP3     12405    TIP3     OH2      OT      -0.834000       15.9994           0
     76610 TIP3     12405    TIP3     H1       HT       0.417000       1.00800           0
     76611 TIP3     12405    TIP3     H2       HT       0.417000       1.00800           0
     76612 TIP3     12406    TIP3     OH2      OT      -0.834000       15.9994           0
     76613 TIP3     12406    TIP3     H1       HT       0.417000       1.00800           0
     76614 TIP3     12406    TIP3     H2       HT       0.417000       1.00800           0
     76615 TIP3     12407    TIP3     OH2      OT      -0.834000       15.9994           0
     76616 TIP3     12407    TIP3     H1       HT       0.417000       1.00800           0
     76617 TIP3     12407    TIP3     H2       HT       0.417000       1.00800           0
     76618 TIP3     12408    TIP3     OH2      OT      -0.834000       15.9994           0
     76619 TIP3     12408    TIP3     H1       HT       0.417000       1.00800           0
     76620 TIP3     12408    TIP3     H2       HT       0.417000       1.00800           0
     76621 TIP3     12409    TIP3     OH2      OT      -0.834000       15.9994           0
     76622 TIP3     12409    TIP3     H1       HT       0.417000       1.00800           0
     76623 TIP3     12409    TIP3     H2       HT       0.417000       1.00800           0
     76624 TIP3     12410    TIP3     OH2      OT      -0.834000       15.9994           0
     76625 TIP3     12410    TIP3     H1       HT       0.417000       1.00800           0
     76626 TIP3     12410    TIP3     H2       HT       0.417000       1.00800           0
     76627 TIP3     12411    TIP3     OH2      OT      -0.834000       15.9994           0
     76628 TIP3     12411    TIP3     H1       HT       0.417000       1.00800           0
     76629 TIP3     12411    TIP3     H2       HT       0.417000       1.00800           0
     76630 TIP3     12412    TIP3     OH2      OT      -0.834000       15.9994           0
     76631 TIP3     12412    TIP3     H1       HT       0.417000       1.00800           0
     76632 TIP3     12412    TIP3     H2       HT       0.417000       1.00800           0
     76633 TIP3     12413    TIP3     OH2      OT      -0.834000       15.9994           0
     76634 TIP3     12413    TIP3     H1       HT       0.417000       1.00800           0
     76635 TIP3     12413    TIP3     H2       HT       0.417000       1.00800           0
     76636 TIP3     12414    TIP3     OH2      OT      -0.834000       15.9994           0
     76637 TIP3     12414    TIP3     H1       HT       0.417000       1.00800           0
     76638 TIP3     12414    TIP3     H2       HT       0.417000       1.00800           0
     76639 TIP3     12415    TIP3     OH2      OT      -0.834000       15.9994           0
     76640 TIP3     12415    TIP3     H1       HT       0.417000       1.00800           0
     76641 TIP3     12415    TIP3     H2       HT       0.417000       1.00800           0
     76642 TIP3     12416    TIP3     OH2      OT      -0.834000       15.9994           0
     76643 TIP3     12416    TIP3     H1       HT       0.417000       1.00800           0
     76644 TIP3     12416    TIP3     H2       HT       0.417000       1.00800           0
     76645 TIP3     12417    TIP3     OH2      OT      -0.834000       15.9994           0
     76646 TIP3     12417    TIP3     H1       HT       0.417000       1.00800           0
     76647 TIP3     12417    TIP3     H2       HT       0.417000       1.00800           0
     76648 TIP3     12418    TIP3     OH2      OT      -0.834000       15.9994           0
     76649 TIP3     12418    TIP3     H1       HT       0.417000       1.00800           0
     76650 TIP3     12418    TIP3     H2       HT       0.417000       1.00800           0
     76651 TIP3     12419    TIP3     OH2      OT      -0.834000       15.9994           0
     76652 TIP3     12419    TIP3     H1       HT       0.417000       1.00800           0
     76653 TIP3     12419    TIP3     H2       HT       0.417000       1.00800           0
     76654 TIP3     12420    TIP3     OH2      OT      -0.834000       15.9994           0
     76655 TIP3     12420    TIP3     H1       HT       0.417000       1.00800           0
     76656 TIP3     12420    TIP3     H2       HT       0.417000       1.00800           0
     76657 TIP3     12421    TIP3     OH2      OT      -0.834000       15.9994           0
     76658 TIP3     12421    TIP3     H1       HT       0.417000       1.00800           0
     76659 TIP3     12421    TIP3     H2       HT       0.417000       1.00800           0
     76660 TIP3     12422    TIP3     OH2      OT      -0.834000       15.9994           0
     76661 TIP3     12422    TIP3     H1       HT       0.417000       1.00800           0
     76662 TIP3     12422    TIP3     H2       HT       0.417000       1.00800           0
     76663 TIP3     12423    TIP3     OH2      OT      -0.834000       15.9994           0
     76664 TIP3     12423    TIP3     H1       HT       0.417000       1.00800           0
     76665 TIP3     12423    TIP3     H2       HT       0.417000       1.00800           0
     76666 TIP3     12424    TIP3     OH2      OT      -0.834000       15.9994           0
     76667 TIP3     12424    TIP3     H1       HT       0.417000       1.00800           0
     76668 TIP3     12424    TIP3     H2       HT       0.417000       1.00800           0
     76669 TIP3     12425    TIP3     OH2      OT      -0.834000       15.9994           0
     76670 TIP3     12425    TIP3     H1       HT       0.417000       1.00800           0
     76671 TIP3     12425    TIP3     H2       HT       0.417000       1.00800           0
     76672 TIP3     12426    TIP3     OH2      OT      -0.834000       15.9994           0
     76673 TIP3     12426    TIP3     H1       HT       0.417000       1.00800           0
     76674 TIP3     12426    TIP3     H2       HT       0.417000       1.00800           0
     76675 TIP3     12427    TIP3     OH2      OT      -0.834000       15.9994           0
     76676 TIP3     12427    TIP3     H1       HT       0.417000       1.00800           0
     76677 TIP3     12427    TIP3     H2       HT       0.417000       1.00800           0
     76678 TIP3     12428    TIP3     OH2      OT      -0.834000       15.9994           0
     76679 TIP3     12428    TIP3     H1       HT       0.417000       1.00800           0
     76680 TIP3     12428    TIP3     H2       HT       0.417000       1.00800           0
     76681 TIP3     12429    TIP3     OH2      OT      -0.834000       15.9994           0
     76682 TIP3     12429    TIP3     H1       HT       0.417000       1.00800           0
     76683 TIP3     12429    TIP3     H2       HT       0.417000       1.00800           0
     76684 TIP3     12430    TIP3     OH2      OT      -0.834000       15.9994           0
     76685 TIP3     12430    TIP3     H1       HT       0.417000       1.00800           0
     76686 TIP3     12430    TIP3     H2       HT       0.417000       1.00800           0
     76687 TIP3     12431    TIP3     OH2      OT      -0.834000       15.9994           0
     76688 TIP3     12431    TIP3     H1       HT       0.417000       1.00800           0
     76689 TIP3     12431    TIP3     H2       HT       0.417000       1.00800           0
     76690 TIP3     12432    TIP3     OH2      OT      -0.834000       15.9994           0
     76691 TIP3     12432    TIP3     H1       HT       0.417000       1.00800           0
     76692 TIP3     12432    TIP3     H2       HT       0.417000       1.00800           0
     76693 TIP3     12433    TIP3     OH2      OT      -0.834000       15.9994           0
     76694 TIP3     12433    TIP3     H1       HT       0.417000       1.00800           0
     76695 TIP3     12433    TIP3     H2       HT       0.417000       1.00800           0
     76696 TIP3     12434    TIP3     OH2      OT      -0.834000       15.9994           0
     76697 TIP3     12434    TIP3     H1       HT       0.417000       1.00800           0
     76698 TIP3     12434    TIP3     H2       HT       0.417000       1.00800           0
     76699 TIP3     12435    TIP3     OH2      OT      -0.834000       15.9994           0
     76700 TIP3     12435    TIP3     H1       HT       0.417000       1.00800           0
     76701 TIP3     12435    TIP3     H2       HT       0.417000       1.00800           0
     76702 TIP3     12436    TIP3     OH2      OT      -0.834000       15.9994           0
     76703 TIP3     12436    TIP3     H1       HT       0.417000       1.00800           0
     76704 TIP3     12436    TIP3     H2       HT       0.417000       1.00800           0
     76705 TIP3     12437    TIP3     OH2      OT      -0.834000       15.9994           0
     76706 TIP3     12437    TIP3     H1       HT       0.417000       1.00800           0
     76707 TIP3     12437    TIP3     H2       HT       0.417000       1.00800           0
     76708 TIP3     12438    TIP3     OH2      OT      -0.834000       15.9994           0
     76709 TIP3     12438    TIP3     H1       HT       0.417000       1.00800           0
     76710 TIP3     12438    TIP3     H2       HT       0.417000       1.00800           0
     76711 TIP3     12439    TIP3     OH2      OT      -0.834000       15.9994           0
     76712 TIP3     12439    TIP3     H1       HT       0.417000       1.00800           0
     76713 TIP3     12439    TIP3     H2       HT       0.417000       1.00800           0
     76714 TIP3     12440    TIP3     OH2      OT      -0.834000       15.9994           0
     76715 TIP3     12440    TIP3     H1       HT       0.417000       1.00800           0
     76716 TIP3     12440    TIP3     H2       HT       0.417000       1.00800           0
     76717 TIP3     12441    TIP3     OH2      OT      -0.834000       15.9994           0
     76718 TIP3     12441    TIP3     H1       HT       0.417000       1.00800           0
     76719 TIP3     12441    TIP3     H2       HT       0.417000       1.00800           0
     76720 TIP3     12442    TIP3     OH2      OT      -0.834000       15.9994           0
     76721 TIP3     12442    TIP3     H1       HT       0.417000       1.00800           0
     76722 TIP3     12442    TIP3     H2       HT       0.417000       1.00800           0
     76723 TIP3     12443    TIP3     OH2      OT      -0.834000       15.9994           0
     76724 TIP3     12443    TIP3     H1       HT       0.417000       1.00800           0
     76725 TIP3     12443    TIP3     H2       HT       0.417000       1.00800           0
     76726 TIP3     12444    TIP3     OH2      OT      -0.834000       15.9994           0
     76727 TIP3     12444    TIP3     H1       HT       0.417000       1.00800           0
     76728 TIP3     12444    TIP3     H2       HT       0.417000       1.00800           0
     76729 TIP3     12445    TIP3     OH2      OT      -0.834000       15.9994           0
     76730 TIP3     12445    TIP3     H1       HT       0.417000       1.00800           0
     76731 TIP3     12445    TIP3     H2       HT       0.417000       1.00800           0
     76732 TIP3     12446    TIP3     OH2      OT      -0.834000       15.9994           0
     76733 TIP3     12446    TIP3     H1       HT       0.417000       1.00800           0
     76734 TIP3     12446    TIP3     H2       HT       0.417000       1.00800           0
     76735 TIP3     12447    TIP3     OH2      OT      -0.834000       15.9994           0
     76736 TIP3     12447    TIP3     H1       HT       0.417000       1.00800           0
     76737 TIP3     12447    TIP3     H2       HT       0.417000       1.00800           0
     76738 TIP3     12448    TIP3     OH2      OT      -0.834000       15.9994           0
     76739 TIP3     12448    TIP3     H1       HT       0.417000       1.00800           0
     76740 TIP3     12448    TIP3     H2       HT       0.417000       1.00800           0
     76741 TIP3     12449    TIP3     OH2      OT      -0.834000       15.9994           0
     76742 TIP3     12449    TIP3     H1       HT       0.417000       1.00800           0
     76743 TIP3     12449    TIP3     H2       HT       0.417000       1.00800           0
     76744 TIP3     12450    TIP3     OH2      OT      -0.834000       15.9994           0
     76745 TIP3     12450    TIP3     H1       HT       0.417000       1.00800           0
     76746 TIP3     12450    TIP3     H2       HT       0.417000       1.00800           0
     76747 TIP3     12451    TIP3     OH2      OT      -0.834000       15.9994           0
     76748 TIP3     12451    TIP3     H1       HT       0.417000       1.00800           0
     76749 TIP3     12451    TIP3     H2       HT       0.417000       1.00800           0
     76750 TIP3     12452    TIP3     OH2      OT      -0.834000       15.9994           0
     76751 TIP3     12452    TIP3     H1       HT       0.417000       1.00800           0
     76752 TIP3     12452    TIP3     H2       HT       0.417000       1.00800           0
     76753 TIP3     12453    TIP3     OH2      OT      -0.834000       15.9994           0
     76754 TIP3     12453    TIP3     H1       HT       0.417000       1.00800           0
     76755 TIP3     12453    TIP3     H2       HT       0.417000       1.00800           0
     76756 TIP3     12454    TIP3     OH2      OT      -0.834000       15.9994           0
     76757 TIP3     12454    TIP3     H1       HT       0.417000       1.00800           0
     76758 TIP3     12454    TIP3     H2       HT       0.417000       1.00800           0
     76759 TIP3     12455    TIP3     OH2      OT      -0.834000       15.9994           0
     76760 TIP3     12455    TIP3     H1       HT       0.417000       1.00800           0
     76761 TIP3     12455    TIP3     H2       HT       0.417000       1.00800           0
     76762 TIP3     12456    TIP3     OH2      OT      -0.834000       15.9994           0
     76763 TIP3     12456    TIP3     H1       HT       0.417000       1.00800           0
     76764 TIP3     12456    TIP3     H2       HT       0.417000       1.00800           0
     76765 TIP3     12457    TIP3     OH2      OT      -0.834000       15.9994           0
     76766 TIP3     12457    TIP3     H1       HT       0.417000       1.00800           0
     76767 TIP3     12457    TIP3     H2       HT       0.417000       1.00800           0
     76768 TIP3     12458    TIP3     OH2      OT      -0.834000       15.9994           0
     76769 TIP3     12458    TIP3     H1       HT       0.417000       1.00800           0
     76770 TIP3     12458    TIP3     H2       HT       0.417000       1.00800           0
     76771 TIP3     12459    TIP3     OH2      OT      -0.834000       15.9994           0
     76772 TIP3     12459    TIP3     H1       HT       0.417000       1.00800           0
     76773 TIP3     12459    TIP3     H2       HT       0.417000       1.00800           0
     76774 TIP3     12460    TIP3     OH2      OT      -0.834000       15.9994           0
     76775 TIP3     12460    TIP3     H1       HT       0.417000       1.00800           0
     76776 TIP3     12460    TIP3     H2       HT       0.417000       1.00800           0
     76777 TIP3     12461    TIP3     OH2      OT      -0.834000       15.9994           0
     76778 TIP3     12461    TIP3     H1       HT       0.417000       1.00800           0
     76779 TIP3     12461    TIP3     H2       HT       0.417000       1.00800           0
     76780 TIP3     12462    TIP3     OH2      OT      -0.834000       15.9994           0
     76781 TIP3     12462    TIP3     H1       HT       0.417000       1.00800           0
     76782 TIP3     12462    TIP3     H2       HT       0.417000       1.00800           0
     76783 TIP3     12463    TIP3     OH2      OT      -0.834000       15.9994           0
     76784 TIP3     12463    TIP3     H1       HT       0.417000       1.00800           0
     76785 TIP3     12463    TIP3     H2       HT       0.417000       1.00800           0
     76786 TIP3     12464    TIP3     OH2      OT      -0.834000       15.9994           0
     76787 TIP3     12464    TIP3     H1       HT       0.417000       1.00800           0
     76788 TIP3     12464    TIP3     H2       HT       0.417000       1.00800           0
     76789 TIP3     12465    TIP3     OH2      OT      -0.834000       15.9994           0
     76790 TIP3     12465    TIP3     H1       HT       0.417000       1.00800           0
     76791 TIP3     12465    TIP3     H2       HT       0.417000       1.00800           0
     76792 TIP3     12466    TIP3     OH2      OT      -0.834000       15.9994           0
     76793 TIP3     12466    TIP3     H1       HT       0.417000       1.00800           0
     76794 TIP3     12466    TIP3     H2       HT       0.417000       1.00800           0
     76795 TIP3     12467    TIP3     OH2      OT      -0.834000       15.9994           0
     76796 TIP3     12467    TIP3     H1       HT       0.417000       1.00800           0
     76797 TIP3     12467    TIP3     H2       HT       0.417000       1.00800           0
     76798 TIP3     12468    TIP3     OH2      OT      -0.834000       15.9994           0
     76799 TIP3     12468    TIP3     H1       HT       0.417000       1.00800           0
     76800 TIP3     12468    TIP3     H2       HT       0.417000       1.00800           0
     76801 TIP3     12469    TIP3     OH2      OT      -0.834000       15.9994           0
     76802 TIP3     12469    TIP3     H1       HT       0.417000       1.00800           0
     76803 TIP3     12469    TIP3     H2       HT       0.417000       1.00800           0
     76804 TIP3     12470    TIP3     OH2      OT      -0.834000       15.9994           0
     76805 TIP3     12470    TIP3     H1       HT       0.417000       1.00800           0
     76806 TIP3     12470    TIP3     H2       HT       0.417000       1.00800           0
     76807 TIP3     12471    TIP3     OH2      OT      -0.834000       15.9994           0
     76808 TIP3     12471    TIP3     H1       HT       0.417000       1.00800           0
     76809 TIP3     12471    TIP3     H2       HT       0.417000       1.00800           0
     76810 TIP3     12472    TIP3     OH2      OT      -0.834000       15.9994           0
     76811 TIP3     12472    TIP3     H1       HT       0.417000       1.00800           0
     76812 TIP3     12472    TIP3     H2       HT       0.417000       1.00800           0
     76813 TIP3     12473    TIP3     OH2      OT      -0.834000       15.9994           0
     76814 TIP3     12473    TIP3     H1       HT       0.417000       1.00800           0
     76815 TIP3     12473    TIP3     H2       HT       0.417000       1.00800           0
     76816 TIP3     12474    TIP3     OH2      OT      -0.834000       15.9994           0
     76817 TIP3     12474    TIP3     H1       HT       0.417000       1.00800           0
     76818 TIP3     12474    TIP3     H2       HT       0.417000       1.00800           0
     76819 TIP3     12475    TIP3     OH2      OT      -0.834000       15.9994           0
     76820 TIP3     12475    TIP3     H1       HT       0.417000       1.00800           0
     76821 TIP3     12475    TIP3     H2       HT       0.417000       1.00800           0
     76822 TIP3     12476    TIP3     OH2      OT      -0.834000       15.9994           0
     76823 TIP3     12476    TIP3     H1       HT       0.417000       1.00800           0
     76824 TIP3     12476    TIP3     H2       HT       0.417000       1.00800           0
     76825 TIP3     12477    TIP3     OH2      OT      -0.834000       15.9994           0
     76826 TIP3     12477    TIP3     H1       HT       0.417000       1.00800           0
     76827 TIP3     12477    TIP3     H2       HT       0.417000       1.00800           0
     76828 TIP3     12478    TIP3     OH2      OT      -0.834000       15.9994           0
     76829 TIP3     12478    TIP3     H1       HT       0.417000       1.00800           0
     76830 TIP3     12478    TIP3     H2       HT       0.417000       1.00800           0
     76831 TIP3     12479    TIP3     OH2      OT      -0.834000       15.9994           0
     76832 TIP3     12479    TIP3     H1       HT       0.417000       1.00800           0
     76833 TIP3     12479    TIP3     H2       HT       0.417000       1.00800           0
     76834 TIP3     12480    TIP3     OH2      OT      -0.834000       15.9994           0
     76835 TIP3     12480    TIP3     H1       HT       0.417000       1.00800           0
     76836 TIP3     12480    TIP3     H2       HT       0.417000       1.00800           0
     76837 TIP3     12481    TIP3     OH2      OT      -0.834000       15.9994           0
     76838 TIP3     12481    TIP3     H1       HT       0.417000       1.00800           0
     76839 TIP3     12481    TIP3     H2       HT       0.417000       1.00800           0
     76840 TIP3     12482    TIP3     OH2      OT      -0.834000       15.9994           0
     76841 TIP3     12482    TIP3     H1       HT       0.417000       1.00800           0
     76842 TIP3     12482    TIP3     H2       HT       0.417000       1.00800           0
     76843 TIP3     12483    TIP3     OH2      OT      -0.834000       15.9994           0
     76844 TIP3     12483    TIP3     H1       HT       0.417000       1.00800           0
     76845 TIP3     12483    TIP3     H2       HT       0.417000       1.00800           0
     76846 TIP3     12484    TIP3     OH2      OT      -0.834000       15.9994           0
     76847 TIP3     12484    TIP3     H1       HT       0.417000       1.00800           0
     76848 TIP3     12484    TIP3     H2       HT       0.417000       1.00800           0
     76849 TIP3     12485    TIP3     OH2      OT      -0.834000       15.9994           0
     76850 TIP3     12485    TIP3     H1       HT       0.417000       1.00800           0
     76851 TIP3     12485    TIP3     H2       HT       0.417000       1.00800           0
     76852 TIP3     12486    TIP3     OH2      OT      -0.834000       15.9994           0
     76853 TIP3     12486    TIP3     H1       HT       0.417000       1.00800           0
     76854 TIP3     12486    TIP3     H2       HT       0.417000       1.00800           0
     76855 TIP3     12487    TIP3     OH2      OT      -0.834000       15.9994           0
     76856 TIP3     12487    TIP3     H1       HT       0.417000       1.00800           0
     76857 TIP3     12487    TIP3     H2       HT       0.417000       1.00800           0
     76858 TIP3     12488    TIP3     OH2      OT      -0.834000       15.9994           0
     76859 TIP3     12488    TIP3     H1       HT       0.417000       1.00800           0
     76860 TIP3     12488    TIP3     H2       HT       0.417000       1.00800           0
     76861 TIP3     12489    TIP3     OH2      OT      -0.834000       15.9994           0
     76862 TIP3     12489    TIP3     H1       HT       0.417000       1.00800           0
     76863 TIP3     12489    TIP3     H2       HT       0.417000       1.00800           0
     76864 TIP3     12490    TIP3     OH2      OT      -0.834000       15.9994           0
     76865 TIP3     12490    TIP3     H1       HT       0.417000       1.00800           0
     76866 TIP3     12490    TIP3     H2       HT       0.417000       1.00800           0
     76867 TIP3     12491    TIP3     OH2      OT      -0.834000       15.9994           0
     76868 TIP3     12491    TIP3     H1       HT       0.417000       1.00800           0
     76869 TIP3     12491    TIP3     H2       HT       0.417000       1.00800           0
     76870 TIP3     12492    TIP3     OH2      OT      -0.834000       15.9994           0
     76871 TIP3     12492    TIP3     H1       HT       0.417000       1.00800           0
     76872 TIP3     12492    TIP3     H2       HT       0.417000       1.00800           0
     76873 TIP3     12493    TIP3     OH2      OT      -0.834000       15.9994           0
     76874 TIP3     12493    TIP3     H1       HT       0.417000       1.00800           0
     76875 TIP3     12493    TIP3     H2       HT       0.417000       1.00800           0
     76876 TIP3     12494    TIP3     OH2      OT      -0.834000       15.9994           0
     76877 TIP3     12494    TIP3     H1       HT       0.417000       1.00800           0
     76878 TIP3     12494    TIP3     H2       HT       0.417000       1.00800           0
     76879 TIP3     12495    TIP3     OH2      OT      -0.834000       15.9994           0
     76880 TIP3     12495    TIP3     H1       HT       0.417000       1.00800           0
     76881 TIP3     12495    TIP3     H2       HT       0.417000       1.00800           0
     76882 TIP3     12496    TIP3     OH2      OT      -0.834000       15.9994           0
     76883 TIP3     12496    TIP3     H1       HT       0.417000       1.00800           0
     76884 TIP3     12496    TIP3     H2       HT       0.417000       1.00800           0
     76885 TIP3     12497    TIP3     OH2      OT      -0.834000       15.9994           0
     76886 TIP3     12497    TIP3     H1       HT       0.417000       1.00800           0
     76887 TIP3     12497    TIP3     H2       HT       0.417000       1.00800           0
     76888 TIP3     12498    TIP3     OH2      OT      -0.834000       15.9994           0
     76889 TIP3     12498    TIP3     H1       HT       0.417000       1.00800           0
     76890 TIP3     12498    TIP3     H2       HT       0.417000       1.00800           0
     76891 TIP3     12499    TIP3     OH2      OT      -0.834000       15.9994           0
     76892 TIP3     12499    TIP3     H1       HT       0.417000       1.00800           0
     76893 TIP3     12499    TIP3     H2       HT       0.417000       1.00800           0
     76894 TIP3     12500    TIP3     OH2      OT      -0.834000       15.9994           0
     76895 TIP3     12500    TIP3     H1       HT       0.417000       1.00800           0
     76896 TIP3     12500    TIP3     H2       HT       0.417000       1.00800           0
     76897 TIP3     12501    TIP3     OH2      OT      -0.834000       15.9994           0
     76898 TIP3     12501    TIP3     H1       HT       0.417000       1.00800           0
     76899 TIP3     12501    TIP3     H2       HT       0.417000       1.00800           0
     76900 TIP3     12502    TIP3     OH2      OT      -0.834000       15.9994           0
     76901 TIP3     12502    TIP3     H1       HT       0.417000       1.00800           0
     76902 TIP3     12502    TIP3     H2       HT       0.417000       1.00800           0
     76903 TIP3     12503    TIP3     OH2      OT      -0.834000       15.9994           0
     76904 TIP3     12503    TIP3     H1       HT       0.417000       1.00800           0
     76905 TIP3     12503    TIP3     H2       HT       0.417000       1.00800           0
     76906 TIP3     12504    TIP3     OH2      OT      -0.834000       15.9994           0
     76907 TIP3     12504    TIP3     H1       HT       0.417000       1.00800           0
     76908 TIP3     12504    TIP3     H2       HT       0.417000       1.00800           0
     76909 TIP3     12505    TIP3     OH2      OT      -0.834000       15.9994           0
     76910 TIP3     12505    TIP3     H1       HT       0.417000       1.00800           0
     76911 TIP3     12505    TIP3     H2       HT       0.417000       1.00800           0
     76912 TIP3     12506    TIP3     OH2      OT      -0.834000       15.9994           0
     76913 TIP3     12506    TIP3     H1       HT       0.417000       1.00800           0
     76914 TIP3     12506    TIP3     H2       HT       0.417000       1.00800           0
     76915 TIP3     12507    TIP3     OH2      OT      -0.834000       15.9994           0
     76916 TIP3     12507    TIP3     H1       HT       0.417000       1.00800           0
     76917 TIP3     12507    TIP3     H2       HT       0.417000       1.00800           0
     76918 TIP3     12508    TIP3     OH2      OT      -0.834000       15.9994           0
     76919 TIP3     12508    TIP3     H1       HT       0.417000       1.00800           0
     76920 TIP3     12508    TIP3     H2       HT       0.417000       1.00800           0
     76921 TIP3     12509    TIP3     OH2      OT      -0.834000       15.9994           0
     76922 TIP3     12509    TIP3     H1       HT       0.417000       1.00800           0
     76923 TIP3     12509    TIP3     H2       HT       0.417000       1.00800           0
     76924 TIP3     12510    TIP3     OH2      OT      -0.834000       15.9994           0
     76925 TIP3     12510    TIP3     H1       HT       0.417000       1.00800           0
     76926 TIP3     12510    TIP3     H2       HT       0.417000       1.00800           0
     76927 TIP3     12511    TIP3     OH2      OT      -0.834000       15.9994           0
     76928 TIP3     12511    TIP3     H1       HT       0.417000       1.00800           0
     76929 TIP3     12511    TIP3     H2       HT       0.417000       1.00800           0
     76930 TIP3     12512    TIP3     OH2      OT      -0.834000       15.9994           0
     76931 TIP3     12512    TIP3     H1       HT       0.417000       1.00800           0
     76932 TIP3     12512    TIP3     H2       HT       0.417000       1.00800           0
     76933 TIP3     12513    TIP3     OH2      OT      -0.834000       15.9994           0
     76934 TIP3     12513    TIP3     H1       HT       0.417000       1.00800           0
     76935 TIP3     12513    TIP3     H2       HT       0.417000       1.00800           0
     76936 TIP3     12514    TIP3     OH2      OT      -0.834000       15.9994           0
     76937 TIP3     12514    TIP3     H1       HT       0.417000       1.00800           0
     76938 TIP3     12514    TIP3     H2       HT       0.417000       1.00800           0
     76939 TIP3     12515    TIP3     OH2      OT      -0.834000       15.9994           0
     76940 TIP3     12515    TIP3     H1       HT       0.417000       1.00800           0
     76941 TIP3     12515    TIP3     H2       HT       0.417000       1.00800           0
     76942 TIP3     12516    TIP3     OH2      OT      -0.834000       15.9994           0
     76943 TIP3     12516    TIP3     H1       HT       0.417000       1.00800           0
     76944 TIP3     12516    TIP3     H2       HT       0.417000       1.00800           0
     76945 TIP3     12517    TIP3     OH2      OT      -0.834000       15.9994           0
     76946 TIP3     12517    TIP3     H1       HT       0.417000       1.00800           0
     76947 TIP3     12517    TIP3     H2       HT       0.417000       1.00800           0
     76948 TIP3     12518    TIP3     OH2      OT      -0.834000       15.9994           0
     76949 TIP3     12518    TIP3     H1       HT       0.417000       1.00800           0
     76950 TIP3     12518    TIP3     H2       HT       0.417000       1.00800           0
     76951 TIP3     12519    TIP3     OH2      OT      -0.834000       15.9994           0
     76952 TIP3     12519    TIP3     H1       HT       0.417000       1.00800           0
     76953 TIP3     12519    TIP3     H2       HT       0.417000       1.00800           0
     76954 TIP3     12520    TIP3     OH2      OT      -0.834000       15.9994           0
     76955 TIP3     12520    TIP3     H1       HT       0.417000       1.00800           0
     76956 TIP3     12520    TIP3     H2       HT       0.417000       1.00800           0
     76957 TIP3     12521    TIP3     OH2      OT      -0.834000       15.9994           0
     76958 TIP3     12521    TIP3     H1       HT       0.417000       1.00800           0
     76959 TIP3     12521    TIP3     H2       HT       0.417000       1.00800           0
     76960 TIP3     12522    TIP3     OH2      OT      -0.834000       15.9994           0
     76961 TIP3     12522    TIP3     H1       HT       0.417000       1.00800           0
     76962 TIP3     12522    TIP3     H2       HT       0.417000       1.00800           0
     76963 TIP3     12523    TIP3     OH2      OT      -0.834000       15.9994           0
     76964 TIP3     12523    TIP3     H1       HT       0.417000       1.00800           0
     76965 TIP3     12523    TIP3     H2       HT       0.417000       1.00800           0
     76966 TIP3     12524    TIP3     OH2      OT      -0.834000       15.9994           0
     76967 TIP3     12524    TIP3     H1       HT       0.417000       1.00800           0
     76968 TIP3     12524    TIP3     H2       HT       0.417000       1.00800           0
     76969 TIP3     12525    TIP3     OH2      OT      -0.834000       15.9994           0
     76970 TIP3     12525    TIP3     H1       HT       0.417000       1.00800           0
     76971 TIP3     12525    TIP3     H2       HT       0.417000       1.00800           0
     76972 TIP3     12526    TIP3     OH2      OT      -0.834000       15.9994           0
     76973 TIP3     12526    TIP3     H1       HT       0.417000       1.00800           0
     76974 TIP3     12526    TIP3     H2       HT       0.417000       1.00800           0
     76975 TIP3     12527    TIP3     OH2      OT      -0.834000       15.9994           0
     76976 TIP3     12527    TIP3     H1       HT       0.417000       1.00800           0
     76977 TIP3     12527    TIP3     H2       HT       0.417000       1.00800           0
     76978 TIP3     12528    TIP3     OH2      OT      -0.834000       15.9994           0
     76979 TIP3     12528    TIP3     H1       HT       0.417000       1.00800           0
     76980 TIP3     12528    TIP3     H2       HT       0.417000       1.00800           0
     76981 TIP3     12529    TIP3     OH2      OT      -0.834000       15.9994           0
     76982 TIP3     12529    TIP3     H1       HT       0.417000       1.00800           0
     76983 TIP3     12529    TIP3     H2       HT       0.417000       1.00800           0
     76984 TIP3     12530    TIP3     OH2      OT      -0.834000       15.9994           0
     76985 TIP3     12530    TIP3     H1       HT       0.417000       1.00800           0
     76986 TIP3     12530    TIP3     H2       HT       0.417000       1.00800           0
     76987 TIP3     12531    TIP3     OH2      OT      -0.834000       15.9994           0
     76988 TIP3     12531    TIP3     H1       HT       0.417000       1.00800           0
     76989 TIP3     12531    TIP3     H2       HT       0.417000       1.00800           0
     76990 TIP3     12532    TIP3     OH2      OT      -0.834000       15.9994           0
     76991 TIP3     12532    TIP3     H1       HT       0.417000       1.00800           0
     76992 TIP3     12532    TIP3     H2       HT       0.417000       1.00800           0
     76993 TIP3     12533    TIP3     OH2      OT      -0.834000       15.9994           0
     76994 TIP3     12533    TIP3     H1       HT       0.417000       1.00800           0
     76995 TIP3     12533    TIP3     H2       HT       0.417000       1.00800           0
     76996 TIP3     12534    TIP3     OH2      OT      -0.834000       15.9994           0
     76997 TIP3     12534    TIP3     H1       HT       0.417000       1.00800           0
     76998 TIP3     12534    TIP3     H2       HT       0.417000       1.00800           0
     76999 TIP3     12535    TIP3     OH2      OT      -0.834000       15.9994           0
     77000 TIP3     12535    TIP3     H1       HT       0.417000       1.00800           0
     77001 TIP3     12535    TIP3     H2       HT       0.417000       1.00800           0
     77002 TIP3     12536    TIP3     OH2      OT      -0.834000       15.9994           0
     77003 TIP3     12536    TIP3     H1       HT       0.417000       1.00800           0
     77004 TIP3     12536    TIP3     H2       HT       0.417000       1.00800           0
     77005 TIP3     12537    TIP3     OH2      OT      -0.834000       15.9994           0
     77006 TIP3     12537    TIP3     H1       HT       0.417000       1.00800           0
     77007 TIP3     12537    TIP3     H2       HT       0.417000       1.00800           0
     77008 TIP3     12538    TIP3     OH2      OT      -0.834000       15.9994           0
     77009 TIP3     12538    TIP3     H1       HT       0.417000       1.00800           0
     77010 TIP3     12538    TIP3     H2       HT       0.417000       1.00800           0
     77011 TIP3     12539    TIP3     OH2      OT      -0.834000       15.9994           0
     77012 TIP3     12539    TIP3     H1       HT       0.417000       1.00800           0
     77013 TIP3     12539    TIP3     H2       HT       0.417000       1.00800           0
     77014 TIP3     12540    TIP3     OH2      OT      -0.834000       15.9994           0
     77015 TIP3     12540    TIP3     H1       HT       0.417000       1.00800           0
     77016 TIP3     12540    TIP3     H2       HT       0.417000       1.00800           0
     77017 TIP3     12541    TIP3     OH2      OT      -0.834000       15.9994           0
     77018 TIP3     12541    TIP3     H1       HT       0.417000       1.00800           0
     77019 TIP3     12541    TIP3     H2       HT       0.417000       1.00800           0
     77020 TIP3     12542    TIP3     OH2      OT      -0.834000       15.9994           0
     77021 TIP3     12542    TIP3     H1       HT       0.417000       1.00800           0
     77022 TIP3     12542    TIP3     H2       HT       0.417000       1.00800           0
     77023 TIP3     12543    TIP3     OH2      OT      -0.834000       15.9994           0
     77024 TIP3     12543    TIP3     H1       HT       0.417000       1.00800           0
     77025 TIP3     12543    TIP3     H2       HT       0.417000       1.00800           0
     77026 TIP3     12544    TIP3     OH2      OT      -0.834000       15.9994           0
     77027 TIP3     12544    TIP3     H1       HT       0.417000       1.00800           0
     77028 TIP3     12544    TIP3     H2       HT       0.417000       1.00800           0
     77029 TIP3     12545    TIP3     OH2      OT      -0.834000       15.9994           0
     77030 TIP3     12545    TIP3     H1       HT       0.417000       1.00800           0
     77031 TIP3     12545    TIP3     H2       HT       0.417000       1.00800           0
     77032 TIP3     12546    TIP3     OH2      OT      -0.834000       15.9994           0
     77033 TIP3     12546    TIP3     H1       HT       0.417000       1.00800           0
     77034 TIP3     12546    TIP3     H2       HT       0.417000       1.00800           0
     77035 TIP3     12547    TIP3     OH2      OT      -0.834000       15.9994           0
     77036 TIP3     12547    TIP3     H1       HT       0.417000       1.00800           0
     77037 TIP3     12547    TIP3     H2       HT       0.417000       1.00800           0
     77038 TIP3     12548    TIP3     OH2      OT      -0.834000       15.9994           0
     77039 TIP3     12548    TIP3     H1       HT       0.417000       1.00800           0
     77040 TIP3     12548    TIP3     H2       HT       0.417000       1.00800           0
     77041 TIP3     12549    TIP3     OH2      OT      -0.834000       15.9994           0
     77042 TIP3     12549    TIP3     H1       HT       0.417000       1.00800           0
     77043 TIP3     12549    TIP3     H2       HT       0.417000       1.00800           0
     77044 TIP3     12550    TIP3     OH2      OT      -0.834000       15.9994           0
     77045 TIP3     12550    TIP3     H1       HT       0.417000       1.00800           0
     77046 TIP3     12550    TIP3     H2       HT       0.417000       1.00800           0
     77047 TIP3     12551    TIP3     OH2      OT      -0.834000       15.9994           0
     77048 TIP3     12551    TIP3     H1       HT       0.417000       1.00800           0
     77049 TIP3     12551    TIP3     H2       HT       0.417000       1.00800           0
     77050 TIP3     12552    TIP3     OH2      OT      -0.834000       15.9994           0
     77051 TIP3     12552    TIP3     H1       HT       0.417000       1.00800           0
     77052 TIP3     12552    TIP3     H2       HT       0.417000       1.00800           0
     77053 TIP3     12553    TIP3     OH2      OT      -0.834000       15.9994           0
     77054 TIP3     12553    TIP3     H1       HT       0.417000       1.00800           0
     77055 TIP3     12553    TIP3     H2       HT       0.417000       1.00800           0
     77056 TIP3     12554    TIP3     OH2      OT      -0.834000       15.9994           0
     77057 TIP3     12554    TIP3     H1       HT       0.417000       1.00800           0
     77058 TIP3     12554    TIP3     H2       HT       0.417000       1.00800           0
     77059 TIP3     12555    TIP3     OH2      OT      -0.834000       15.9994           0
     77060 TIP3     12555    TIP3     H1       HT       0.417000       1.00800           0
     77061 TIP3     12555    TIP3     H2       HT       0.417000       1.00800           0
     77062 TIP3     12556    TIP3     OH2      OT      -0.834000       15.9994           0
     77063 TIP3     12556    TIP3     H1       HT       0.417000       1.00800           0
     77064 TIP3     12556    TIP3     H2       HT       0.417000       1.00800           0
     77065 TIP3     12557    TIP3     OH2      OT      -0.834000       15.9994           0
     77066 TIP3     12557    TIP3     H1       HT       0.417000       1.00800           0
     77067 TIP3     12557    TIP3     H2       HT       0.417000       1.00800           0
     77068 TIP3     12558    TIP3     OH2      OT      -0.834000       15.9994           0
     77069 TIP3     12558    TIP3     H1       HT       0.417000       1.00800           0
     77070 TIP3     12558    TIP3     H2       HT       0.417000       1.00800           0
     77071 TIP3     12559    TIP3     OH2      OT      -0.834000       15.9994           0
     77072 TIP3     12559    TIP3     H1       HT       0.417000       1.00800           0
     77073 TIP3     12559    TIP3     H2       HT       0.417000       1.00800           0
     77074 TIP3     12560    TIP3     OH2      OT      -0.834000       15.9994           0
     77075 TIP3     12560    TIP3     H1       HT       0.417000       1.00800           0
     77076 TIP3     12560    TIP3     H2       HT       0.417000       1.00800           0
     77077 TIP3     12561    TIP3     OH2      OT      -0.834000       15.9994           0
     77078 TIP3     12561    TIP3     H1       HT       0.417000       1.00800           0
     77079 TIP3     12561    TIP3     H2       HT       0.417000       1.00800           0
     77080 TIP3     12562    TIP3     OH2      OT      -0.834000       15.9994           0
     77081 TIP3     12562    TIP3     H1       HT       0.417000       1.00800           0
     77082 TIP3     12562    TIP3     H2       HT       0.417000       1.00800           0
     77083 TIP3     12563    TIP3     OH2      OT      -0.834000       15.9994           0
     77084 TIP3     12563    TIP3     H1       HT       0.417000       1.00800           0
     77085 TIP3     12563    TIP3     H2       HT       0.417000       1.00800           0
     77086 TIP3     12564    TIP3     OH2      OT      -0.834000       15.9994           0
     77087 TIP3     12564    TIP3     H1       HT       0.417000       1.00800           0
     77088 TIP3     12564    TIP3     H2       HT       0.417000       1.00800           0
     77089 TIP3     12565    TIP3     OH2      OT      -0.834000       15.9994           0
     77090 TIP3     12565    TIP3     H1       HT       0.417000       1.00800           0
     77091 TIP3     12565    TIP3     H2       HT       0.417000       1.00800           0
     77092 TIP3     12566    TIP3     OH2      OT      -0.834000       15.9994           0
     77093 TIP3     12566    TIP3     H1       HT       0.417000       1.00800           0
     77094 TIP3     12566    TIP3     H2       HT       0.417000       1.00800           0
     77095 TIP3     12567    TIP3     OH2      OT      -0.834000       15.9994           0
     77096 TIP3     12567    TIP3     H1       HT       0.417000       1.00800           0
     77097 TIP3     12567    TIP3     H2       HT       0.417000       1.00800           0
     77098 TIP3     12568    TIP3     OH2      OT      -0.834000       15.9994           0
     77099 TIP3     12568    TIP3     H1       HT       0.417000       1.00800           0
     77100 TIP3     12568    TIP3     H2       HT       0.417000       1.00800           0
     77101 TIP3     12569    TIP3     OH2      OT      -0.834000       15.9994           0
     77102 TIP3     12569    TIP3     H1       HT       0.417000       1.00800           0
     77103 TIP3     12569    TIP3     H2       HT       0.417000       1.00800           0
     77104 TIP3     12570    TIP3     OH2      OT      -0.834000       15.9994           0
     77105 TIP3     12570    TIP3     H1       HT       0.417000       1.00800           0
     77106 TIP3     12570    TIP3     H2       HT       0.417000       1.00800           0
     77107 TIP3     12571    TIP3     OH2      OT      -0.834000       15.9994           0
     77108 TIP3     12571    TIP3     H1       HT       0.417000       1.00800           0
     77109 TIP3     12571    TIP3     H2       HT       0.417000       1.00800           0
     77110 TIP3     12572    TIP3     OH2      OT      -0.834000       15.9994           0
     77111 TIP3     12572    TIP3     H1       HT       0.417000       1.00800           0
     77112 TIP3     12572    TIP3     H2       HT       0.417000       1.00800           0
     77113 TIP3     12573    TIP3     OH2      OT      -0.834000       15.9994           0
     77114 TIP3     12573    TIP3     H1       HT       0.417000       1.00800           0
     77115 TIP3     12573    TIP3     H2       HT       0.417000       1.00800           0
     77116 TIP3     12574    TIP3     OH2      OT      -0.834000       15.9994           0
     77117 TIP3     12574    TIP3     H1       HT       0.417000       1.00800           0
     77118 TIP3     12574    TIP3     H2       HT       0.417000       1.00800           0
     77119 TIP3     12575    TIP3     OH2      OT      -0.834000       15.9994           0
     77120 TIP3     12575    TIP3     H1       HT       0.417000       1.00800           0
     77121 TIP3     12575    TIP3     H2       HT       0.417000       1.00800           0
     77122 TIP3     12576    TIP3     OH2      OT      -0.834000       15.9994           0
     77123 TIP3     12576    TIP3     H1       HT       0.417000       1.00800           0
     77124 TIP3     12576    TIP3     H2       HT       0.417000       1.00800           0
     77125 TIP3     12577    TIP3     OH2      OT      -0.834000       15.9994           0
     77126 TIP3     12577    TIP3     H1       HT       0.417000       1.00800           0
     77127 TIP3     12577    TIP3     H2       HT       0.417000       1.00800           0
     77128 TIP3     12578    TIP3     OH2      OT      -0.834000       15.9994           0
     77129 TIP3     12578    TIP3     H1       HT       0.417000       1.00800           0
     77130 TIP3     12578    TIP3     H2       HT       0.417000       1.00800           0
     77131 TIP3     12579    TIP3     OH2      OT      -0.834000       15.9994           0
     77132 TIP3     12579    TIP3     H1       HT       0.417000       1.00800           0
     77133 TIP3     12579    TIP3     H2       HT       0.417000       1.00800           0
     77134 TIP3     12580    TIP3     OH2      OT      -0.834000       15.9994           0
     77135 TIP3     12580    TIP3     H1       HT       0.417000       1.00800           0
     77136 TIP3     12580    TIP3     H2       HT       0.417000       1.00800           0
     77137 TIP3     12581    TIP3     OH2      OT      -0.834000       15.9994           0
     77138 TIP3     12581    TIP3     H1       HT       0.417000       1.00800           0
     77139 TIP3     12581    TIP3     H2       HT       0.417000       1.00800           0
     77140 TIP3     12582    TIP3     OH2      OT      -0.834000       15.9994           0
     77141 TIP3     12582    TIP3     H1       HT       0.417000       1.00800           0
     77142 TIP3     12582    TIP3     H2       HT       0.417000       1.00800           0
     77143 TIP3     12583    TIP3     OH2      OT      -0.834000       15.9994           0
     77144 TIP3     12583    TIP3     H1       HT       0.417000       1.00800           0
     77145 TIP3     12583    TIP3     H2       HT       0.417000       1.00800           0
     77146 TIP3     12584    TIP3     OH2      OT      -0.834000       15.9994           0
     77147 TIP3     12584    TIP3     H1       HT       0.417000       1.00800           0
     77148 TIP3     12584    TIP3     H2       HT       0.417000       1.00800           0
     77149 TIP3     12585    TIP3     OH2      OT      -0.834000       15.9994           0
     77150 TIP3     12585    TIP3     H1       HT       0.417000       1.00800           0
     77151 TIP3     12585    TIP3     H2       HT       0.417000       1.00800           0
     77152 TIP3     12586    TIP3     OH2      OT      -0.834000       15.9994           0
     77153 TIP3     12586    TIP3     H1       HT       0.417000       1.00800           0
     77154 TIP3     12586    TIP3     H2       HT       0.417000       1.00800           0
     77155 TIP3     12587    TIP3     OH2      OT      -0.834000       15.9994           0
     77156 TIP3     12587    TIP3     H1       HT       0.417000       1.00800           0
     77157 TIP3     12587    TIP3     H2       HT       0.417000       1.00800           0
     77158 TIP3     12588    TIP3     OH2      OT      -0.834000       15.9994           0
     77159 TIP3     12588    TIP3     H1       HT       0.417000       1.00800           0
     77160 TIP3     12588    TIP3     H2       HT       0.417000       1.00800           0
     77161 TIP3     12589    TIP3     OH2      OT      -0.834000       15.9994           0
     77162 TIP3     12589    TIP3     H1       HT       0.417000       1.00800           0
     77163 TIP3     12589    TIP3     H2       HT       0.417000       1.00800           0
     77164 TIP3     12590    TIP3     OH2      OT      -0.834000       15.9994           0
     77165 TIP3     12590    TIP3     H1       HT       0.417000       1.00800           0
     77166 TIP3     12590    TIP3     H2       HT       0.417000       1.00800           0
     77167 TIP3     12591    TIP3     OH2      OT      -0.834000       15.9994           0
     77168 TIP3     12591    TIP3     H1       HT       0.417000       1.00800           0
     77169 TIP3     12591    TIP3     H2       HT       0.417000       1.00800           0
     77170 TIP3     12592    TIP3     OH2      OT      -0.834000       15.9994           0
     77171 TIP3     12592    TIP3     H1       HT       0.417000       1.00800           0
     77172 TIP3     12592    TIP3     H2       HT       0.417000       1.00800           0
     77173 TIP3     12593    TIP3     OH2      OT      -0.834000       15.9994           0
     77174 TIP3     12593    TIP3     H1       HT       0.417000       1.00800           0
     77175 TIP3     12593    TIP3     H2       HT       0.417000       1.00800           0
     77176 TIP3     12594    TIP3     OH2      OT      -0.834000       15.9994           0
     77177 TIP3     12594    TIP3     H1       HT       0.417000       1.00800           0
     77178 TIP3     12594    TIP3     H2       HT       0.417000       1.00800           0
     77179 TIP3     12595    TIP3     OH2      OT      -0.834000       15.9994           0
     77180 TIP3     12595    TIP3     H1       HT       0.417000       1.00800           0
     77181 TIP3     12595    TIP3     H2       HT       0.417000       1.00800           0
     77182 TIP3     12596    TIP3     OH2      OT      -0.834000       15.9994           0
     77183 TIP3     12596    TIP3     H1       HT       0.417000       1.00800           0
     77184 TIP3     12596    TIP3     H2       HT       0.417000       1.00800           0
     77185 TIP3     12597    TIP3     OH2      OT      -0.834000       15.9994           0
     77186 TIP3     12597    TIP3     H1       HT       0.417000       1.00800           0
     77187 TIP3     12597    TIP3     H2       HT       0.417000       1.00800           0
     77188 TIP3     12598    TIP3     OH2      OT      -0.834000       15.9994           0
     77189 TIP3     12598    TIP3     H1       HT       0.417000       1.00800           0
     77190 TIP3     12598    TIP3     H2       HT       0.417000       1.00800           0
     77191 TIP3     12599    TIP3     OH2      OT      -0.834000       15.9994           0
     77192 TIP3     12599    TIP3     H1       HT       0.417000       1.00800           0
     77193 TIP3     12599    TIP3     H2       HT       0.417000       1.00800           0
     77194 TIP3     12600    TIP3     OH2      OT      -0.834000       15.9994           0
     77195 TIP3     12600    TIP3     H1       HT       0.417000       1.00800           0
     77196 TIP3     12600    TIP3     H2       HT       0.417000       1.00800           0
     77197 TIP3     12601    TIP3     OH2      OT      -0.834000       15.9994           0
     77198 TIP3     12601    TIP3     H1       HT       0.417000       1.00800           0
     77199 TIP3     12601    TIP3     H2       HT       0.417000       1.00800           0
     77200 TIP3     12602    TIP3     OH2      OT      -0.834000       15.9994           0
     77201 TIP3     12602    TIP3     H1       HT       0.417000       1.00800           0
     77202 TIP3     12602    TIP3     H2       HT       0.417000       1.00800           0
     77203 TIP3     12603    TIP3     OH2      OT      -0.834000       15.9994           0
     77204 TIP3     12603    TIP3     H1       HT       0.417000       1.00800           0
     77205 TIP3     12603    TIP3     H2       HT       0.417000       1.00800           0
     77206 TIP3     12604    TIP3     OH2      OT      -0.834000       15.9994           0
     77207 TIP3     12604    TIP3     H1       HT       0.417000       1.00800           0
     77208 TIP3     12604    TIP3     H2       HT       0.417000       1.00800           0
     77209 TIP3     12605    TIP3     OH2      OT      -0.834000       15.9994           0
     77210 TIP3     12605    TIP3     H1       HT       0.417000       1.00800           0
     77211 TIP3     12605    TIP3     H2       HT       0.417000       1.00800           0
     77212 TIP3     12606    TIP3     OH2      OT      -0.834000       15.9994           0
     77213 TIP3     12606    TIP3     H1       HT       0.417000       1.00800           0
     77214 TIP3     12606    TIP3     H2       HT       0.417000       1.00800           0
     77215 TIP3     12607    TIP3     OH2      OT      -0.834000       15.9994           0
     77216 TIP3     12607    TIP3     H1       HT       0.417000       1.00800           0
     77217 TIP3     12607    TIP3     H2       HT       0.417000       1.00800           0
     77218 TIP3     12608    TIP3     OH2      OT      -0.834000       15.9994           0
     77219 TIP3     12608    TIP3     H1       HT       0.417000       1.00800           0
     77220 TIP3     12608    TIP3     H2       HT       0.417000       1.00800           0
     77221 TIP3     12609    TIP3     OH2      OT      -0.834000       15.9994           0
     77222 TIP3     12609    TIP3     H1       HT       0.417000       1.00800           0
     77223 TIP3     12609    TIP3     H2       HT       0.417000       1.00800           0
     77224 TIP3     12610    TIP3     OH2      OT      -0.834000       15.9994           0
     77225 TIP3     12610    TIP3     H1       HT       0.417000       1.00800           0
     77226 TIP3     12610    TIP3     H2       HT       0.417000       1.00800           0
     77227 TIP3     12611    TIP3     OH2      OT      -0.834000       15.9994           0
     77228 TIP3     12611    TIP3     H1       HT       0.417000       1.00800           0
     77229 TIP3     12611    TIP3     H2       HT       0.417000       1.00800           0
     77230 TIP3     12612    TIP3     OH2      OT      -0.834000       15.9994           0
     77231 TIP3     12612    TIP3     H1       HT       0.417000       1.00800           0
     77232 TIP3     12612    TIP3     H2       HT       0.417000       1.00800           0
     77233 TIP3     12613    TIP3     OH2      OT      -0.834000       15.9994           0
     77234 TIP3     12613    TIP3     H1       HT       0.417000       1.00800           0
     77235 TIP3     12613    TIP3     H2       HT       0.417000       1.00800           0
     77236 TIP3     12614    TIP3     OH2      OT      -0.834000       15.9994           0
     77237 TIP3     12614    TIP3     H1       HT       0.417000       1.00800           0
     77238 TIP3     12614    TIP3     H2       HT       0.417000       1.00800           0
     77239 TIP3     12615    TIP3     OH2      OT      -0.834000       15.9994           0
     77240 TIP3     12615    TIP3     H1       HT       0.417000       1.00800           0
     77241 TIP3     12615    TIP3     H2       HT       0.417000       1.00800           0
     77242 TIP3     12616    TIP3     OH2      OT      -0.834000       15.9994           0
     77243 TIP3     12616    TIP3     H1       HT       0.417000       1.00800           0
     77244 TIP3     12616    TIP3     H2       HT       0.417000       1.00800           0
     77245 TIP3     12617    TIP3     OH2      OT      -0.834000       15.9994           0
     77246 TIP3     12617    TIP3     H1       HT       0.417000       1.00800           0
     77247 TIP3     12617    TIP3     H2       HT       0.417000       1.00800           0
     77248 TIP3     12618    TIP3     OH2      OT      -0.834000       15.9994           0
     77249 TIP3     12618    TIP3     H1       HT       0.417000       1.00800           0
     77250 TIP3     12618    TIP3     H2       HT       0.417000       1.00800           0
     77251 TIP3     12619    TIP3     OH2      OT      -0.834000       15.9994           0
     77252 TIP3     12619    TIP3     H1       HT       0.417000       1.00800           0
     77253 TIP3     12619    TIP3     H2       HT       0.417000       1.00800           0
     77254 TIP3     12620    TIP3     OH2      OT      -0.834000       15.9994           0
     77255 TIP3     12620    TIP3     H1       HT       0.417000       1.00800           0
     77256 TIP3     12620    TIP3     H2       HT       0.417000       1.00800           0
     77257 TIP3     12621    TIP3     OH2      OT      -0.834000       15.9994           0
     77258 TIP3     12621    TIP3     H1       HT       0.417000       1.00800           0
     77259 TIP3     12621    TIP3     H2       HT       0.417000       1.00800           0
     77260 TIP3     12622    TIP3     OH2      OT      -0.834000       15.9994           0
     77261 TIP3     12622    TIP3     H1       HT       0.417000       1.00800           0
     77262 TIP3     12622    TIP3     H2       HT       0.417000       1.00800           0
     77263 TIP3     12623    TIP3     OH2      OT      -0.834000       15.9994           0
     77264 TIP3     12623    TIP3     H1       HT       0.417000       1.00800           0
     77265 TIP3     12623    TIP3     H2       HT       0.417000       1.00800           0
     77266 TIP3     12624    TIP3     OH2      OT      -0.834000       15.9994           0
     77267 TIP3     12624    TIP3     H1       HT       0.417000       1.00800           0
     77268 TIP3     12624    TIP3     H2       HT       0.417000       1.00800           0
     77269 TIP3     12625    TIP3     OH2      OT      -0.834000       15.9994           0
     77270 TIP3     12625    TIP3     H1       HT       0.417000       1.00800           0
     77271 TIP3     12625    TIP3     H2       HT       0.417000       1.00800           0
     77272 TIP3     12626    TIP3     OH2      OT      -0.834000       15.9994           0
     77273 TIP3     12626    TIP3     H1       HT       0.417000       1.00800           0
     77274 TIP3     12626    TIP3     H2       HT       0.417000       1.00800           0
     77275 TIP3     12627    TIP3     OH2      OT      -0.834000       15.9994           0
     77276 TIP3     12627    TIP3     H1       HT       0.417000       1.00800           0
     77277 TIP3     12627    TIP3     H2       HT       0.417000       1.00800           0
     77278 TIP3     12628    TIP3     OH2      OT      -0.834000       15.9994           0
     77279 TIP3     12628    TIP3     H1       HT       0.417000       1.00800           0
     77280 TIP3     12628    TIP3     H2       HT       0.417000       1.00800           0
     77281 TIP3     12629    TIP3     OH2      OT      -0.834000       15.9994           0
     77282 TIP3     12629    TIP3     H1       HT       0.417000       1.00800           0
     77283 TIP3     12629    TIP3     H2       HT       0.417000       1.00800           0
     77284 TIP3     12630    TIP3     OH2      OT      -0.834000       15.9994           0
     77285 TIP3     12630    TIP3     H1       HT       0.417000       1.00800           0
     77286 TIP3     12630    TIP3     H2       HT       0.417000       1.00800           0
     77287 TIP3     12631    TIP3     OH2      OT      -0.834000       15.9994           0
     77288 TIP3     12631    TIP3     H1       HT       0.417000       1.00800           0
     77289 TIP3     12631    TIP3     H2       HT       0.417000       1.00800           0
     77290 TIP3     12632    TIP3     OH2      OT      -0.834000       15.9994           0
     77291 TIP3     12632    TIP3     H1       HT       0.417000       1.00800           0
     77292 TIP3     12632    TIP3     H2       HT       0.417000       1.00800           0
     77293 TIP3     12633    TIP3     OH2      OT      -0.834000       15.9994           0
     77294 TIP3     12633    TIP3     H1       HT       0.417000       1.00800           0
     77295 TIP3     12633    TIP3     H2       HT       0.417000       1.00800           0
     77296 TIP3     12634    TIP3     OH2      OT      -0.834000       15.9994           0
     77297 TIP3     12634    TIP3     H1       HT       0.417000       1.00800           0
     77298 TIP3     12634    TIP3     H2       HT       0.417000       1.00800           0
     77299 TIP3     12635    TIP3     OH2      OT      -0.834000       15.9994           0
     77300 TIP3     12635    TIP3     H1       HT       0.417000       1.00800           0
     77301 TIP3     12635    TIP3     H2       HT       0.417000       1.00800           0
     77302 TIP3     12636    TIP3     OH2      OT      -0.834000       15.9994           0
     77303 TIP3     12636    TIP3     H1       HT       0.417000       1.00800           0
     77304 TIP3     12636    TIP3     H2       HT       0.417000       1.00800           0
     77305 TIP3     12637    TIP3     OH2      OT      -0.834000       15.9994           0
     77306 TIP3     12637    TIP3     H1       HT       0.417000       1.00800           0
     77307 TIP3     12637    TIP3     H2       HT       0.417000       1.00800           0
     77308 TIP3     12638    TIP3     OH2      OT      -0.834000       15.9994           0
     77309 TIP3     12638    TIP3     H1       HT       0.417000       1.00800           0
     77310 TIP3     12638    TIP3     H2       HT       0.417000       1.00800           0
     77311 TIP3     12639    TIP3     OH2      OT      -0.834000       15.9994           0
     77312 TIP3     12639    TIP3     H1       HT       0.417000       1.00800           0
     77313 TIP3     12639    TIP3     H2       HT       0.417000       1.00800           0
     77314 TIP3     12640    TIP3     OH2      OT      -0.834000       15.9994           0
     77315 TIP3     12640    TIP3     H1       HT       0.417000       1.00800           0
     77316 TIP3     12640    TIP3     H2       HT       0.417000       1.00800           0
     77317 TIP3     12641    TIP3     OH2      OT      -0.834000       15.9994           0
     77318 TIP3     12641    TIP3     H1       HT       0.417000       1.00800           0
     77319 TIP3     12641    TIP3     H2       HT       0.417000       1.00800           0
     77320 TIP3     12642    TIP3     OH2      OT      -0.834000       15.9994           0
     77321 TIP3     12642    TIP3     H1       HT       0.417000       1.00800           0
     77322 TIP3     12642    TIP3     H2       HT       0.417000       1.00800           0
     77323 TIP3     12643    TIP3     OH2      OT      -0.834000       15.9994           0
     77324 TIP3     12643    TIP3     H1       HT       0.417000       1.00800           0
     77325 TIP3     12643    TIP3     H2       HT       0.417000       1.00800           0
     77326 TIP3     12644    TIP3     OH2      OT      -0.834000       15.9994           0
     77327 TIP3     12644    TIP3     H1       HT       0.417000       1.00800           0
     77328 TIP3     12644    TIP3     H2       HT       0.417000       1.00800           0
     77329 TIP3     12645    TIP3     OH2      OT      -0.834000       15.9994           0
     77330 TIP3     12645    TIP3     H1       HT       0.417000       1.00800           0
     77331 TIP3     12645    TIP3     H2       HT       0.417000       1.00800           0
     77332 TIP3     12646    TIP3     OH2      OT      -0.834000       15.9994           0
     77333 TIP3     12646    TIP3     H1       HT       0.417000       1.00800           0
     77334 TIP3     12646    TIP3     H2       HT       0.417000       1.00800           0
     77335 TIP3     12647    TIP3     OH2      OT      -0.834000       15.9994           0
     77336 TIP3     12647    TIP3     H1       HT       0.417000       1.00800           0
     77337 TIP3     12647    TIP3     H2       HT       0.417000       1.00800           0
     77338 TIP3     12648    TIP3     OH2      OT      -0.834000       15.9994           0
     77339 TIP3     12648    TIP3     H1       HT       0.417000       1.00800           0
     77340 TIP3     12648    TIP3     H2       HT       0.417000       1.00800           0
     77341 TIP3     12649    TIP3     OH2      OT      -0.834000       15.9994           0
     77342 TIP3     12649    TIP3     H1       HT       0.417000       1.00800           0
     77343 TIP3     12649    TIP3     H2       HT       0.417000       1.00800           0
     77344 TIP3     12650    TIP3     OH2      OT      -0.834000       15.9994           0
     77345 TIP3     12650    TIP3     H1       HT       0.417000       1.00800           0
     77346 TIP3     12650    TIP3     H2       HT       0.417000       1.00800           0
     77347 TIP3     12651    TIP3     OH2      OT      -0.834000       15.9994           0
     77348 TIP3     12651    TIP3     H1       HT       0.417000       1.00800           0
     77349 TIP3     12651    TIP3     H2       HT       0.417000       1.00800           0
     77350 TIP3     12652    TIP3     OH2      OT      -0.834000       15.9994           0
     77351 TIP3     12652    TIP3     H1       HT       0.417000       1.00800           0
     77352 TIP3     12652    TIP3     H2       HT       0.417000       1.00800           0
     77353 TIP3     12653    TIP3     OH2      OT      -0.834000       15.9994           0
     77354 TIP3     12653    TIP3     H1       HT       0.417000       1.00800           0
     77355 TIP3     12653    TIP3     H2       HT       0.417000       1.00800           0
     77356 TIP3     12654    TIP3     OH2      OT      -0.834000       15.9994           0
     77357 TIP3     12654    TIP3     H1       HT       0.417000       1.00800           0
     77358 TIP3     12654    TIP3     H2       HT       0.417000       1.00800           0
     77359 TIP3     12655    TIP3     OH2      OT      -0.834000       15.9994           0
     77360 TIP3     12655    TIP3     H1       HT       0.417000       1.00800           0
     77361 TIP3     12655    TIP3     H2       HT       0.417000       1.00800           0
     77362 TIP3     12656    TIP3     OH2      OT      -0.834000       15.9994           0
     77363 TIP3     12656    TIP3     H1       HT       0.417000       1.00800           0
     77364 TIP3     12656    TIP3     H2       HT       0.417000       1.00800           0
     77365 TIP3     12657    TIP3     OH2      OT      -0.834000       15.9994           0
     77366 TIP3     12657    TIP3     H1       HT       0.417000       1.00800           0
     77367 TIP3     12657    TIP3     H2       HT       0.417000       1.00800           0
     77368 TIP3     12658    TIP3     OH2      OT      -0.834000       15.9994           0
     77369 TIP3     12658    TIP3     H1       HT       0.417000       1.00800           0
     77370 TIP3     12658    TIP3     H2       HT       0.417000       1.00800           0
     77371 TIP3     12659    TIP3     OH2      OT      -0.834000       15.9994           0
     77372 TIP3     12659    TIP3     H1       HT       0.417000       1.00800           0
     77373 TIP3     12659    TIP3     H2       HT       0.417000       1.00800           0
     77374 TIP3     12660    TIP3     OH2      OT      -0.834000       15.9994           0
     77375 TIP3     12660    TIP3     H1       HT       0.417000       1.00800           0
     77376 TIP3     12660    TIP3     H2       HT       0.417000       1.00800           0
     77377 TIP3     12661    TIP3     OH2      OT      -0.834000       15.9994           0
     77378 TIP3     12661    TIP3     H1       HT       0.417000       1.00800           0
     77379 TIP3     12661    TIP3     H2       HT       0.417000       1.00800           0
     77380 TIP3     12662    TIP3     OH2      OT      -0.834000       15.9994           0
     77381 TIP3     12662    TIP3     H1       HT       0.417000       1.00800           0
     77382 TIP3     12662    TIP3     H2       HT       0.417000       1.00800           0
     77383 TIP3     12663    TIP3     OH2      OT      -0.834000       15.9994           0
     77384 TIP3     12663    TIP3     H1       HT       0.417000       1.00800           0
     77385 TIP3     12663    TIP3     H2       HT       0.417000       1.00800           0
     77386 TIP3     12664    TIP3     OH2      OT      -0.834000       15.9994           0
     77387 TIP3     12664    TIP3     H1       HT       0.417000       1.00800           0
     77388 TIP3     12664    TIP3     H2       HT       0.417000       1.00800           0
     77389 TIP3     12665    TIP3     OH2      OT      -0.834000       15.9994           0
     77390 TIP3     12665    TIP3     H1       HT       0.417000       1.00800           0
     77391 TIP3     12665    TIP3     H2       HT       0.417000       1.00800           0
     77392 TIP3     12666    TIP3     OH2      OT      -0.834000       15.9994           0
     77393 TIP3     12666    TIP3     H1       HT       0.417000       1.00800           0
     77394 TIP3     12666    TIP3     H2       HT       0.417000       1.00800           0
     77395 TIP3     12667    TIP3     OH2      OT      -0.834000       15.9994           0
     77396 TIP3     12667    TIP3     H1       HT       0.417000       1.00800           0
     77397 TIP3     12667    TIP3     H2       HT       0.417000       1.00800           0
     77398 TIP3     12668    TIP3     OH2      OT      -0.834000       15.9994           0
     77399 TIP3     12668    TIP3     H1       HT       0.417000       1.00800           0
     77400 TIP3     12668    TIP3     H2       HT       0.417000       1.00800           0
     77401 TIP3     12669    TIP3     OH2      OT      -0.834000       15.9994           0
     77402 TIP3     12669    TIP3     H1       HT       0.417000       1.00800           0
     77403 TIP3     12669    TIP3     H2       HT       0.417000       1.00800           0
     77404 TIP3     12670    TIP3     OH2      OT      -0.834000       15.9994           0
     77405 TIP3     12670    TIP3     H1       HT       0.417000       1.00800           0
     77406 TIP3     12670    TIP3     H2       HT       0.417000       1.00800           0
     77407 TIP3     12671    TIP3     OH2      OT      -0.834000       15.9994           0
     77408 TIP3     12671    TIP3     H1       HT       0.417000       1.00800           0
     77409 TIP3     12671    TIP3     H2       HT       0.417000       1.00800           0
     77410 TIP3     12672    TIP3     OH2      OT      -0.834000       15.9994           0
     77411 TIP3     12672    TIP3     H1       HT       0.417000       1.00800           0
     77412 TIP3     12672    TIP3     H2       HT       0.417000       1.00800           0
     77413 TIP3     12673    TIP3     OH2      OT      -0.834000       15.9994           0
     77414 TIP3     12673    TIP3     H1       HT       0.417000       1.00800           0
     77415 TIP3     12673    TIP3     H2       HT       0.417000       1.00800           0
     77416 TIP3     12674    TIP3     OH2      OT      -0.834000       15.9994           0
     77417 TIP3     12674    TIP3     H1       HT       0.417000       1.00800           0
     77418 TIP3     12674    TIP3     H2       HT       0.417000       1.00800           0
     77419 TIP3     12675    TIP3     OH2      OT      -0.834000       15.9994           0
     77420 TIP3     12675    TIP3     H1       HT       0.417000       1.00800           0
     77421 TIP3     12675    TIP3     H2       HT       0.417000       1.00800           0
     77422 TIP3     12676    TIP3     OH2      OT      -0.834000       15.9994           0
     77423 TIP3     12676    TIP3     H1       HT       0.417000       1.00800           0
     77424 TIP3     12676    TIP3     H2       HT       0.417000       1.00800           0
     77425 TIP3     12677    TIP3     OH2      OT      -0.834000       15.9994           0
     77426 TIP3     12677    TIP3     H1       HT       0.417000       1.00800           0
     77427 TIP3     12677    TIP3     H2       HT       0.417000       1.00800           0
     77428 TIP3     12678    TIP3     OH2      OT      -0.834000       15.9994           0
     77429 TIP3     12678    TIP3     H1       HT       0.417000       1.00800           0
     77430 TIP3     12678    TIP3     H2       HT       0.417000       1.00800           0
     77431 TIP3     12679    TIP3     OH2      OT      -0.834000       15.9994           0
     77432 TIP3     12679    TIP3     H1       HT       0.417000       1.00800           0
     77433 TIP3     12679    TIP3     H2       HT       0.417000       1.00800           0
     77434 TIP3     12680    TIP3     OH2      OT      -0.834000       15.9994           0
     77435 TIP3     12680    TIP3     H1       HT       0.417000       1.00800           0
     77436 TIP3     12680    TIP3     H2       HT       0.417000       1.00800           0
     77437 TIP3     12681    TIP3     OH2      OT      -0.834000       15.9994           0
     77438 TIP3     12681    TIP3     H1       HT       0.417000       1.00800           0
     77439 TIP3     12681    TIP3     H2       HT       0.417000       1.00800           0
     77440 TIP3     12682    TIP3     OH2      OT      -0.834000       15.9994           0
     77441 TIP3     12682    TIP3     H1       HT       0.417000       1.00800           0
     77442 TIP3     12682    TIP3     H2       HT       0.417000       1.00800           0
     77443 TIP3     12683    TIP3     OH2      OT      -0.834000       15.9994           0
     77444 TIP3     12683    TIP3     H1       HT       0.417000       1.00800           0
     77445 TIP3     12683    TIP3     H2       HT       0.417000       1.00800           0
     77446 TIP3     12684    TIP3     OH2      OT      -0.834000       15.9994           0
     77447 TIP3     12684    TIP3     H1       HT       0.417000       1.00800           0
     77448 TIP3     12684    TIP3     H2       HT       0.417000       1.00800           0
     77449 TIP3     12685    TIP3     OH2      OT      -0.834000       15.9994           0
     77450 TIP3     12685    TIP3     H1       HT       0.417000       1.00800           0
     77451 TIP3     12685    TIP3     H2       HT       0.417000       1.00800           0
     77452 TIP3     12686    TIP3     OH2      OT      -0.834000       15.9994           0
     77453 TIP3     12686    TIP3     H1       HT       0.417000       1.00800           0
     77454 TIP3     12686    TIP3     H2       HT       0.417000       1.00800           0
     77455 TIP3     12687    TIP3     OH2      OT      -0.834000       15.9994           0
     77456 TIP3     12687    TIP3     H1       HT       0.417000       1.00800           0
     77457 TIP3     12687    TIP3     H2       HT       0.417000       1.00800           0
     77458 TIP3     12688    TIP3     OH2      OT      -0.834000       15.9994           0
     77459 TIP3     12688    TIP3     H1       HT       0.417000       1.00800           0
     77460 TIP3     12688    TIP3     H2       HT       0.417000       1.00800           0
     77461 TIP3     12689    TIP3     OH2      OT      -0.834000       15.9994           0
     77462 TIP3     12689    TIP3     H1       HT       0.417000       1.00800           0
     77463 TIP3     12689    TIP3     H2       HT       0.417000       1.00800           0
     77464 TIP3     12690    TIP3     OH2      OT      -0.834000       15.9994           0
     77465 TIP3     12690    TIP3     H1       HT       0.417000       1.00800           0
     77466 TIP3     12690    TIP3     H2       HT       0.417000       1.00800           0
     77467 TIP3     12691    TIP3     OH2      OT      -0.834000       15.9994           0
     77468 TIP3     12691    TIP3     H1       HT       0.417000       1.00800           0
     77469 TIP3     12691    TIP3     H2       HT       0.417000       1.00800           0
     77470 TIP3     12692    TIP3     OH2      OT      -0.834000       15.9994           0
     77471 TIP3     12692    TIP3     H1       HT       0.417000       1.00800           0
     77472 TIP3     12692    TIP3     H2       HT       0.417000       1.00800           0
     77473 TIP3     12693    TIP3     OH2      OT      -0.834000       15.9994           0
     77474 TIP3     12693    TIP3     H1       HT       0.417000       1.00800           0
     77475 TIP3     12693    TIP3     H2       HT       0.417000       1.00800           0
     77476 TIP3     12694    TIP3     OH2      OT      -0.834000       15.9994           0
     77477 TIP3     12694    TIP3     H1       HT       0.417000       1.00800           0
     77478 TIP3     12694    TIP3     H2       HT       0.417000       1.00800           0
     77479 TIP3     12695    TIP3     OH2      OT      -0.834000       15.9994           0
     77480 TIP3     12695    TIP3     H1       HT       0.417000       1.00800           0
     77481 TIP3     12695    TIP3     H2       HT       0.417000       1.00800           0
     77482 TIP3     12696    TIP3     OH2      OT      -0.834000       15.9994           0
     77483 TIP3     12696    TIP3     H1       HT       0.417000       1.00800           0
     77484 TIP3     12696    TIP3     H2       HT       0.417000       1.00800           0
     77485 TIP3     12697    TIP3     OH2      OT      -0.834000       15.9994           0
     77486 TIP3     12697    TIP3     H1       HT       0.417000       1.00800           0
     77487 TIP3     12697    TIP3     H2       HT       0.417000       1.00800           0
     77488 TIP3     12698    TIP3     OH2      OT      -0.834000       15.9994           0
     77489 TIP3     12698    TIP3     H1       HT       0.417000       1.00800           0
     77490 TIP3     12698    TIP3     H2       HT       0.417000       1.00800           0
     77491 TIP3     12699    TIP3     OH2      OT      -0.834000       15.9994           0
     77492 TIP3     12699    TIP3     H1       HT       0.417000       1.00800           0
     77493 TIP3     12699    TIP3     H2       HT       0.417000       1.00800           0
     77494 TIP3     12700    TIP3     OH2      OT      -0.834000       15.9994           0
     77495 TIP3     12700    TIP3     H1       HT       0.417000       1.00800           0
     77496 TIP3     12700    TIP3     H2       HT       0.417000       1.00800           0
     77497 TIP3     12701    TIP3     OH2      OT      -0.834000       15.9994           0
     77498 TIP3     12701    TIP3     H1       HT       0.417000       1.00800           0
     77499 TIP3     12701    TIP3     H2       HT       0.417000       1.00800           0
     77500 TIP3     12702    TIP3     OH2      OT      -0.834000       15.9994           0
     77501 TIP3     12702    TIP3     H1       HT       0.417000       1.00800           0
     77502 TIP3     12702    TIP3     H2       HT       0.417000       1.00800           0
     77503 TIP3     12703    TIP3     OH2      OT      -0.834000       15.9994           0
     77504 TIP3     12703    TIP3     H1       HT       0.417000       1.00800           0
     77505 TIP3     12703    TIP3     H2       HT       0.417000       1.00800           0
     77506 TIP3     12704    TIP3     OH2      OT      -0.834000       15.9994           0
     77507 TIP3     12704    TIP3     H1       HT       0.417000       1.00800           0
     77508 TIP3     12704    TIP3     H2       HT       0.417000       1.00800           0
     77509 TIP3     12705    TIP3     OH2      OT      -0.834000       15.9994           0
     77510 TIP3     12705    TIP3     H1       HT       0.417000       1.00800           0
     77511 TIP3     12705    TIP3     H2       HT       0.417000       1.00800           0
     77512 TIP3     12706    TIP3     OH2      OT      -0.834000       15.9994           0
     77513 TIP3     12706    TIP3     H1       HT       0.417000       1.00800           0
     77514 TIP3     12706    TIP3     H2       HT       0.417000       1.00800           0
     77515 TIP3     12707    TIP3     OH2      OT      -0.834000       15.9994           0
     77516 TIP3     12707    TIP3     H1       HT       0.417000       1.00800           0
     77517 TIP3     12707    TIP3     H2       HT       0.417000       1.00800           0
     77518 TIP3     12708    TIP3     OH2      OT      -0.834000       15.9994           0
     77519 TIP3     12708    TIP3     H1       HT       0.417000       1.00800           0
     77520 TIP3     12708    TIP3     H2       HT       0.417000       1.00800           0
     77521 TIP3     12709    TIP3     OH2      OT      -0.834000       15.9994           0
     77522 TIP3     12709    TIP3     H1       HT       0.417000       1.00800           0
     77523 TIP3     12709    TIP3     H2       HT       0.417000       1.00800           0
     77524 TIP3     12710    TIP3     OH2      OT      -0.834000       15.9994           0
     77525 TIP3     12710    TIP3     H1       HT       0.417000       1.00800           0
     77526 TIP3     12710    TIP3     H2       HT       0.417000       1.00800           0
     77527 TIP3     12711    TIP3     OH2      OT      -0.834000       15.9994           0
     77528 TIP3     12711    TIP3     H1       HT       0.417000       1.00800           0
     77529 TIP3     12711    TIP3     H2       HT       0.417000       1.00800           0
     77530 TIP3     12712    TIP3     OH2      OT      -0.834000       15.9994           0
     77531 TIP3     12712    TIP3     H1       HT       0.417000       1.00800           0
     77532 TIP3     12712    TIP3     H2       HT       0.417000       1.00800           0
     77533 TIP3     12713    TIP3     OH2      OT      -0.834000       15.9994           0
     77534 TIP3     12713    TIP3     H1       HT       0.417000       1.00800           0
     77535 TIP3     12713    TIP3     H2       HT       0.417000       1.00800           0
     77536 TIP3     12714    TIP3     OH2      OT      -0.834000       15.9994           0
     77537 TIP3     12714    TIP3     H1       HT       0.417000       1.00800           0
     77538 TIP3     12714    TIP3     H2       HT       0.417000       1.00800           0
     77539 TIP3     12715    TIP3     OH2      OT      -0.834000       15.9994           0
     77540 TIP3     12715    TIP3     H1       HT       0.417000       1.00800           0
     77541 TIP3     12715    TIP3     H2       HT       0.417000       1.00800           0
     77542 TIP3     12716    TIP3     OH2      OT      -0.834000       15.9994           0
     77543 TIP3     12716    TIP3     H1       HT       0.417000       1.00800           0
     77544 TIP3     12716    TIP3     H2       HT       0.417000       1.00800           0
     77545 TIP3     12717    TIP3     OH2      OT      -0.834000       15.9994           0
     77546 TIP3     12717    TIP3     H1       HT       0.417000       1.00800           0
     77547 TIP3     12717    TIP3     H2       HT       0.417000       1.00800           0
     77548 TIP3     12718    TIP3     OH2      OT      -0.834000       15.9994           0
     77549 TIP3     12718    TIP3     H1       HT       0.417000       1.00800           0
     77550 TIP3     12718    TIP3     H2       HT       0.417000       1.00800           0
     77551 TIP3     12719    TIP3     OH2      OT      -0.834000       15.9994           0
     77552 TIP3     12719    TIP3     H1       HT       0.417000       1.00800           0
     77553 TIP3     12719    TIP3     H2       HT       0.417000       1.00800           0
     77554 TIP3     12720    TIP3     OH2      OT      -0.834000       15.9994           0
     77555 TIP3     12720    TIP3     H1       HT       0.417000       1.00800           0
     77556 TIP3     12720    TIP3     H2       HT       0.417000       1.00800           0
     77557 TIP3     12721    TIP3     OH2      OT      -0.834000       15.9994           0
     77558 TIP3     12721    TIP3     H1       HT       0.417000       1.00800           0
     77559 TIP3     12721    TIP3     H2       HT       0.417000       1.00800           0
     77560 TIP3     12722    TIP3     OH2      OT      -0.834000       15.9994           0
     77561 TIP3     12722    TIP3     H1       HT       0.417000       1.00800           0
     77562 TIP3     12722    TIP3     H2       HT       0.417000       1.00800           0
     77563 TIP3     12723    TIP3     OH2      OT      -0.834000       15.9994           0
     77564 TIP3     12723    TIP3     H1       HT       0.417000       1.00800           0
     77565 TIP3     12723    TIP3     H2       HT       0.417000       1.00800           0
     77566 TIP3     12724    TIP3     OH2      OT      -0.834000       15.9994           0
     77567 TIP3     12724    TIP3     H1       HT       0.417000       1.00800           0
     77568 TIP3     12724    TIP3     H2       HT       0.417000       1.00800           0
     77569 TIP3     12725    TIP3     OH2      OT      -0.834000       15.9994           0
     77570 TIP3     12725    TIP3     H1       HT       0.417000       1.00800           0
     77571 TIP3     12725    TIP3     H2       HT       0.417000       1.00800           0
     77572 TIP3     12726    TIP3     OH2      OT      -0.834000       15.9994           0
     77573 TIP3     12726    TIP3     H1       HT       0.417000       1.00800           0
     77574 TIP3     12726    TIP3     H2       HT       0.417000       1.00800           0
     77575 TIP3     12727    TIP3     OH2      OT      -0.834000       15.9994           0
     77576 TIP3     12727    TIP3     H1       HT       0.417000       1.00800           0
     77577 TIP3     12727    TIP3     H2       HT       0.417000       1.00800           0
     77578 TIP3     12728    TIP3     OH2      OT      -0.834000       15.9994           0
     77579 TIP3     12728    TIP3     H1       HT       0.417000       1.00800           0
     77580 TIP3     12728    TIP3     H2       HT       0.417000       1.00800           0
     77581 TIP3     12729    TIP3     OH2      OT      -0.834000       15.9994           0
     77582 TIP3     12729    TIP3     H1       HT       0.417000       1.00800           0
     77583 TIP3     12729    TIP3     H2       HT       0.417000       1.00800           0
     77584 TIP3     12730    TIP3     OH2      OT      -0.834000       15.9994           0
     77585 TIP3     12730    TIP3     H1       HT       0.417000       1.00800           0
     77586 TIP3     12730    TIP3     H2       HT       0.417000       1.00800           0
     77587 TIP3     12731    TIP3     OH2      OT      -0.834000       15.9994           0
     77588 TIP3     12731    TIP3     H1       HT       0.417000       1.00800           0
     77589 TIP3     12731    TIP3     H2       HT       0.417000       1.00800           0
     77590 TIP3     12732    TIP3     OH2      OT      -0.834000       15.9994           0
     77591 TIP3     12732    TIP3     H1       HT       0.417000       1.00800           0
     77592 TIP3     12732    TIP3     H2       HT       0.417000       1.00800           0
     77593 TIP3     12733    TIP3     OH2      OT      -0.834000       15.9994           0
     77594 TIP3     12733    TIP3     H1       HT       0.417000       1.00800           0
     77595 TIP3     12733    TIP3     H2       HT       0.417000       1.00800           0
     77596 TIP3     12734    TIP3     OH2      OT      -0.834000       15.9994           0
     77597 TIP3     12734    TIP3     H1       HT       0.417000       1.00800           0
     77598 TIP3     12734    TIP3     H2       HT       0.417000       1.00800           0
     77599 TIP3     12735    TIP3     OH2      OT      -0.834000       15.9994           0
     77600 TIP3     12735    TIP3     H1       HT       0.417000       1.00800           0
     77601 TIP3     12735    TIP3     H2       HT       0.417000       1.00800           0
     77602 TIP3     12736    TIP3     OH2      OT      -0.834000       15.9994           0
     77603 TIP3     12736    TIP3     H1       HT       0.417000       1.00800           0
     77604 TIP3     12736    TIP3     H2       HT       0.417000       1.00800           0
     77605 TIP3     12737    TIP3     OH2      OT      -0.834000       15.9994           0
     77606 TIP3     12737    TIP3     H1       HT       0.417000       1.00800           0
     77607 TIP3     12737    TIP3     H2       HT       0.417000       1.00800           0
     77608 TIP3     12738    TIP3     OH2      OT      -0.834000       15.9994           0
     77609 TIP3     12738    TIP3     H1       HT       0.417000       1.00800           0
     77610 TIP3     12738    TIP3     H2       HT       0.417000       1.00800           0
     77611 TIP3     12739    TIP3     OH2      OT      -0.834000       15.9994           0
     77612 TIP3     12739    TIP3     H1       HT       0.417000       1.00800           0
     77613 TIP3     12739    TIP3     H2       HT       0.417000       1.00800           0
     77614 TIP3     12740    TIP3     OH2      OT      -0.834000       15.9994           0
     77615 TIP3     12740    TIP3     H1       HT       0.417000       1.00800           0
     77616 TIP3     12740    TIP3     H2       HT       0.417000       1.00800           0
     77617 TIP3     12741    TIP3     OH2      OT      -0.834000       15.9994           0
     77618 TIP3     12741    TIP3     H1       HT       0.417000       1.00800           0
     77619 TIP3     12741    TIP3     H2       HT       0.417000       1.00800           0
     77620 TIP3     12742    TIP3     OH2      OT      -0.834000       15.9994           0
     77621 TIP3     12742    TIP3     H1       HT       0.417000       1.00800           0
     77622 TIP3     12742    TIP3     H2       HT       0.417000       1.00800           0
     77623 TIP3     12743    TIP3     OH2      OT      -0.834000       15.9994           0
     77624 TIP3     12743    TIP3     H1       HT       0.417000       1.00800           0
     77625 TIP3     12743    TIP3     H2       HT       0.417000       1.00800           0
     77626 TIP3     12744    TIP3     OH2      OT      -0.834000       15.9994           0
     77627 TIP3     12744    TIP3     H1       HT       0.417000       1.00800           0
     77628 TIP3     12744    TIP3     H2       HT       0.417000       1.00800           0
     77629 TIP3     12745    TIP3     OH2      OT      -0.834000       15.9994           0
     77630 TIP3     12745    TIP3     H1       HT       0.417000       1.00800           0
     77631 TIP3     12745    TIP3     H2       HT       0.417000       1.00800           0
     77632 TIP3     12746    TIP3     OH2      OT      -0.834000       15.9994           0
     77633 TIP3     12746    TIP3     H1       HT       0.417000       1.00800           0
     77634 TIP3     12746    TIP3     H2       HT       0.417000       1.00800           0
     77635 TIP3     12747    TIP3     OH2      OT      -0.834000       15.9994           0
     77636 TIP3     12747    TIP3     H1       HT       0.417000       1.00800           0
     77637 TIP3     12747    TIP3     H2       HT       0.417000       1.00800           0
     77638 TIP3     12748    TIP3     OH2      OT      -0.834000       15.9994           0
     77639 TIP3     12748    TIP3     H1       HT       0.417000       1.00800           0
     77640 TIP3     12748    TIP3     H2       HT       0.417000       1.00800           0
     77641 TIP3     12749    TIP3     OH2      OT      -0.834000       15.9994           0
     77642 TIP3     12749    TIP3     H1       HT       0.417000       1.00800           0
     77643 TIP3     12749    TIP3     H2       HT       0.417000       1.00800           0
     77644 TIP3     12750    TIP3     OH2      OT      -0.834000       15.9994           0
     77645 TIP3     12750    TIP3     H1       HT       0.417000       1.00800           0
     77646 TIP3     12750    TIP3     H2       HT       0.417000       1.00800           0
     77647 TIP3     12751    TIP3     OH2      OT      -0.834000       15.9994           0
     77648 TIP3     12751    TIP3     H1       HT       0.417000       1.00800           0
     77649 TIP3     12751    TIP3     H2       HT       0.417000       1.00800           0
     77650 TIP3     12752    TIP3     OH2      OT      -0.834000       15.9994           0
     77651 TIP3     12752    TIP3     H1       HT       0.417000       1.00800           0
     77652 TIP3     12752    TIP3     H2       HT       0.417000       1.00800           0
     77653 TIP3     12753    TIP3     OH2      OT      -0.834000       15.9994           0
     77654 TIP3     12753    TIP3     H1       HT       0.417000       1.00800           0
     77655 TIP3     12753    TIP3     H2       HT       0.417000       1.00800           0
     77656 TIP3     12754    TIP3     OH2      OT      -0.834000       15.9994           0
     77657 TIP3     12754    TIP3     H1       HT       0.417000       1.00800           0
     77658 TIP3     12754    TIP3     H2       HT       0.417000       1.00800           0
     77659 TIP3     12755    TIP3     OH2      OT      -0.834000       15.9994           0
     77660 TIP3     12755    TIP3     H1       HT       0.417000       1.00800           0
     77661 TIP3     12755    TIP3     H2       HT       0.417000       1.00800           0
     77662 TIP3     12756    TIP3     OH2      OT      -0.834000       15.9994           0
     77663 TIP3     12756    TIP3     H1       HT       0.417000       1.00800           0
     77664 TIP3     12756    TIP3     H2       HT       0.417000       1.00800           0
     77665 TIP3     12757    TIP3     OH2      OT      -0.834000       15.9994           0
     77666 TIP3     12757    TIP3     H1       HT       0.417000       1.00800           0
     77667 TIP3     12757    TIP3     H2       HT       0.417000       1.00800           0
     77668 TIP3     12758    TIP3     OH2      OT      -0.834000       15.9994           0
     77669 TIP3     12758    TIP3     H1       HT       0.417000       1.00800           0
     77670 TIP3     12758    TIP3     H2       HT       0.417000       1.00800           0
     77671 TIP3     12759    TIP3     OH2      OT      -0.834000       15.9994           0
     77672 TIP3     12759    TIP3     H1       HT       0.417000       1.00800           0
     77673 TIP3     12759    TIP3     H2       HT       0.417000       1.00800           0
     77674 TIP3     12760    TIP3     OH2      OT      -0.834000       15.9994           0
     77675 TIP3     12760    TIP3     H1       HT       0.417000       1.00800           0
     77676 TIP3     12760    TIP3     H2       HT       0.417000       1.00800           0
     77677 TIP3     12761    TIP3     OH2      OT      -0.834000       15.9994           0
     77678 TIP3     12761    TIP3     H1       HT       0.417000       1.00800           0
     77679 TIP3     12761    TIP3     H2       HT       0.417000       1.00800           0
     77680 TIP3     12762    TIP3     OH2      OT      -0.834000       15.9994           0
     77681 TIP3     12762    TIP3     H1       HT       0.417000       1.00800           0
     77682 TIP3     12762    TIP3     H2       HT       0.417000       1.00800           0
     77683 TIP3     12763    TIP3     OH2      OT      -0.834000       15.9994           0
     77684 TIP3     12763    TIP3     H1       HT       0.417000       1.00800           0
     77685 TIP3     12763    TIP3     H2       HT       0.417000       1.00800           0
     77686 TIP3     12764    TIP3     OH2      OT      -0.834000       15.9994           0
     77687 TIP3     12764    TIP3     H1       HT       0.417000       1.00800           0
     77688 TIP3     12764    TIP3     H2       HT       0.417000       1.00800           0
     77689 TIP3     12765    TIP3     OH2      OT      -0.834000       15.9994           0
     77690 TIP3     12765    TIP3     H1       HT       0.417000       1.00800           0
     77691 TIP3     12765    TIP3     H2       HT       0.417000       1.00800           0
     77692 TIP3     12766    TIP3     OH2      OT      -0.834000       15.9994           0
     77693 TIP3     12766    TIP3     H1       HT       0.417000       1.00800           0
     77694 TIP3     12766    TIP3     H2       HT       0.417000       1.00800           0
     77695 TIP3     12767    TIP3     OH2      OT      -0.834000       15.9994           0
     77696 TIP3     12767    TIP3     H1       HT       0.417000       1.00800           0
     77697 TIP3     12767    TIP3     H2       HT       0.417000       1.00800           0
     77698 TIP3     12768    TIP3     OH2      OT      -0.834000       15.9994           0
     77699 TIP3     12768    TIP3     H1       HT       0.417000       1.00800           0
     77700 TIP3     12768    TIP3     H2       HT       0.417000       1.00800           0
     77701 TIP3     12769    TIP3     OH2      OT      -0.834000       15.9994           0
     77702 TIP3     12769    TIP3     H1       HT       0.417000       1.00800           0
     77703 TIP3     12769    TIP3     H2       HT       0.417000       1.00800           0
     77704 TIP3     12770    TIP3     OH2      OT      -0.834000       15.9994           0
     77705 TIP3     12770    TIP3     H1       HT       0.417000       1.00800           0
     77706 TIP3     12770    TIP3     H2       HT       0.417000       1.00800           0
     77707 TIP3     12771    TIP3     OH2      OT      -0.834000       15.9994           0
     77708 TIP3     12771    TIP3     H1       HT       0.417000       1.00800           0
     77709 TIP3     12771    TIP3     H2       HT       0.417000       1.00800           0
     77710 TIP3     12772    TIP3     OH2      OT      -0.834000       15.9994           0
     77711 TIP3     12772    TIP3     H1       HT       0.417000       1.00800           0
     77712 TIP3     12772    TIP3     H2       HT       0.417000       1.00800           0
     77713 TIP3     12773    TIP3     OH2      OT      -0.834000       15.9994           0
     77714 TIP3     12773    TIP3     H1       HT       0.417000       1.00800           0
     77715 TIP3     12773    TIP3     H2       HT       0.417000       1.00800           0
     77716 TIP3     12774    TIP3     OH2      OT      -0.834000       15.9994           0
     77717 TIP3     12774    TIP3     H1       HT       0.417000       1.00800           0
     77718 TIP3     12774    TIP3     H2       HT       0.417000       1.00800           0
     77719 TIP3     12775    TIP3     OH2      OT      -0.834000       15.9994           0
     77720 TIP3     12775    TIP3     H1       HT       0.417000       1.00800           0
     77721 TIP3     12775    TIP3     H2       HT       0.417000       1.00800           0
     77722 TIP3     12776    TIP3     OH2      OT      -0.834000       15.9994           0
     77723 TIP3     12776    TIP3     H1       HT       0.417000       1.00800           0
     77724 TIP3     12776    TIP3     H2       HT       0.417000       1.00800           0
     77725 TIP3     12777    TIP3     OH2      OT      -0.834000       15.9994           0
     77726 TIP3     12777    TIP3     H1       HT       0.417000       1.00800           0
     77727 TIP3     12777    TIP3     H2       HT       0.417000       1.00800           0
     77728 TIP3     12778    TIP3     OH2      OT      -0.834000       15.9994           0
     77729 TIP3     12778    TIP3     H1       HT       0.417000       1.00800           0
     77730 TIP3     12778    TIP3     H2       HT       0.417000       1.00800           0
     77731 TIP3     12779    TIP3     OH2      OT      -0.834000       15.9994           0
     77732 TIP3     12779    TIP3     H1       HT       0.417000       1.00800           0
     77733 TIP3     12779    TIP3     H2       HT       0.417000       1.00800           0
     77734 TIP3     12780    TIP3     OH2      OT      -0.834000       15.9994           0
     77735 TIP3     12780    TIP3     H1       HT       0.417000       1.00800           0
     77736 TIP3     12780    TIP3     H2       HT       0.417000       1.00800           0
     77737 TIP3     12781    TIP3     OH2      OT      -0.834000       15.9994           0
     77738 TIP3     12781    TIP3     H1       HT       0.417000       1.00800           0
     77739 TIP3     12781    TIP3     H2       HT       0.417000       1.00800           0
     77740 TIP3     12782    TIP3     OH2      OT      -0.834000       15.9994           0
     77741 TIP3     12782    TIP3     H1       HT       0.417000       1.00800           0
     77742 TIP3     12782    TIP3     H2       HT       0.417000       1.00800           0
     77743 TIP3     12783    TIP3     OH2      OT      -0.834000       15.9994           0
     77744 TIP3     12783    TIP3     H1       HT       0.417000       1.00800           0
     77745 TIP3     12783    TIP3     H2       HT       0.417000       1.00800           0
     77746 TIP3     12784    TIP3     OH2      OT      -0.834000       15.9994           0
     77747 TIP3     12784    TIP3     H1       HT       0.417000       1.00800           0
     77748 TIP3     12784    TIP3     H2       HT       0.417000       1.00800           0
     77749 TIP3     12785    TIP3     OH2      OT      -0.834000       15.9994           0
     77750 TIP3     12785    TIP3     H1       HT       0.417000       1.00800           0
     77751 TIP3     12785    TIP3     H2       HT       0.417000       1.00800           0
     77752 TIP3     12786    TIP3     OH2      OT      -0.834000       15.9994           0
     77753 TIP3     12786    TIP3     H1       HT       0.417000       1.00800           0
     77754 TIP3     12786    TIP3     H2       HT       0.417000       1.00800           0
     77755 TIP3     12787    TIP3     OH2      OT      -0.834000       15.9994           0
     77756 TIP3     12787    TIP3     H1       HT       0.417000       1.00800           0
     77757 TIP3     12787    TIP3     H2       HT       0.417000       1.00800           0
     77758 TIP3     12788    TIP3     OH2      OT      -0.834000       15.9994           0
     77759 TIP3     12788    TIP3     H1       HT       0.417000       1.00800           0
     77760 TIP3     12788    TIP3     H2       HT       0.417000       1.00800           0
     77761 TIP3     12789    TIP3     OH2      OT      -0.834000       15.9994           0
     77762 TIP3     12789    TIP3     H1       HT       0.417000       1.00800           0
     77763 TIP3     12789    TIP3     H2       HT       0.417000       1.00800           0
     77764 TIP3     12790    TIP3     OH2      OT      -0.834000       15.9994           0
     77765 TIP3     12790    TIP3     H1       HT       0.417000       1.00800           0
     77766 TIP3     12790    TIP3     H2       HT       0.417000       1.00800           0
     77767 TIP3     12791    TIP3     OH2      OT      -0.834000       15.9994           0
     77768 TIP3     12791    TIP3     H1       HT       0.417000       1.00800           0
     77769 TIP3     12791    TIP3     H2       HT       0.417000       1.00800           0
     77770 TIP3     12792    TIP3     OH2      OT      -0.834000       15.9994           0
     77771 TIP3     12792    TIP3     H1       HT       0.417000       1.00800           0
     77772 TIP3     12792    TIP3     H2       HT       0.417000       1.00800           0
     77773 TIP3     12793    TIP3     OH2      OT      -0.834000       15.9994           0
     77774 TIP3     12793    TIP3     H1       HT       0.417000       1.00800           0
     77775 TIP3     12793    TIP3     H2       HT       0.417000       1.00800           0
     77776 TIP3     12794    TIP3     OH2      OT      -0.834000       15.9994           0
     77777 TIP3     12794    TIP3     H1       HT       0.417000       1.00800           0
     77778 TIP3     12794    TIP3     H2       HT       0.417000       1.00800           0
     77779 TIP3     12795    TIP3     OH2      OT      -0.834000       15.9994           0
     77780 TIP3     12795    TIP3     H1       HT       0.417000       1.00800           0
     77781 TIP3     12795    TIP3     H2       HT       0.417000       1.00800           0
     77782 TIP3     12796    TIP3     OH2      OT      -0.834000       15.9994           0
     77783 TIP3     12796    TIP3     H1       HT       0.417000       1.00800           0
     77784 TIP3     12796    TIP3     H2       HT       0.417000       1.00800           0
     77785 TIP3     12797    TIP3     OH2      OT      -0.834000       15.9994           0
     77786 TIP3     12797    TIP3     H1       HT       0.417000       1.00800           0
     77787 TIP3     12797    TIP3     H2       HT       0.417000       1.00800           0
     77788 TIP3     12798    TIP3     OH2      OT      -0.834000       15.9994           0
     77789 TIP3     12798    TIP3     H1       HT       0.417000       1.00800           0
     77790 TIP3     12798    TIP3     H2       HT       0.417000       1.00800           0
     77791 TIP3     12799    TIP3     OH2      OT      -0.834000       15.9994           0
     77792 TIP3     12799    TIP3     H1       HT       0.417000       1.00800           0
     77793 TIP3     12799    TIP3     H2       HT       0.417000       1.00800           0
     77794 TIP3     12800    TIP3     OH2      OT      -0.834000       15.9994           0
     77795 TIP3     12800    TIP3     H1       HT       0.417000       1.00800           0
     77796 TIP3     12800    TIP3     H2       HT       0.417000       1.00800           0
     77797 TIP3     12801    TIP3     OH2      OT      -0.834000       15.9994           0
     77798 TIP3     12801    TIP3     H1       HT       0.417000       1.00800           0
     77799 TIP3     12801    TIP3     H2       HT       0.417000       1.00800           0
     77800 TIP3     12802    TIP3     OH2      OT      -0.834000       15.9994           0
     77801 TIP3     12802    TIP3     H1       HT       0.417000       1.00800           0
     77802 TIP3     12802    TIP3     H2       HT       0.417000       1.00800           0
     77803 TIP3     12803    TIP3     OH2      OT      -0.834000       15.9994           0
     77804 TIP3     12803    TIP3     H1       HT       0.417000       1.00800           0
     77805 TIP3     12803    TIP3     H2       HT       0.417000       1.00800           0
     77806 TIP3     12804    TIP3     OH2      OT      -0.834000       15.9994           0
     77807 TIP3     12804    TIP3     H1       HT       0.417000       1.00800           0
     77808 TIP3     12804    TIP3     H2       HT       0.417000       1.00800           0
     77809 TIP3     12805    TIP3     OH2      OT      -0.834000       15.9994           0
     77810 TIP3     12805    TIP3     H1       HT       0.417000       1.00800           0
     77811 TIP3     12805    TIP3     H2       HT       0.417000       1.00800           0
     77812 TIP3     12806    TIP3     OH2      OT      -0.834000       15.9994           0
     77813 TIP3     12806    TIP3     H1       HT       0.417000       1.00800           0
     77814 TIP3     12806    TIP3     H2       HT       0.417000       1.00800           0
     77815 TIP3     12807    TIP3     OH2      OT      -0.834000       15.9994           0
     77816 TIP3     12807    TIP3     H1       HT       0.417000       1.00800           0
     77817 TIP3     12807    TIP3     H2       HT       0.417000       1.00800           0
     77818 TIP3     12808    TIP3     OH2      OT      -0.834000       15.9994           0
     77819 TIP3     12808    TIP3     H1       HT       0.417000       1.00800           0
     77820 TIP3     12808    TIP3     H2       HT       0.417000       1.00800           0
     77821 TIP3     12809    TIP3     OH2      OT      -0.834000       15.9994           0
     77822 TIP3     12809    TIP3     H1       HT       0.417000       1.00800           0
     77823 TIP3     12809    TIP3     H2       HT       0.417000       1.00800           0
     77824 TIP3     12810    TIP3     OH2      OT      -0.834000       15.9994           0
     77825 TIP3     12810    TIP3     H1       HT       0.417000       1.00800           0
     77826 TIP3     12810    TIP3     H2       HT       0.417000       1.00800           0
     77827 TIP3     12811    TIP3     OH2      OT      -0.834000       15.9994           0
     77828 TIP3     12811    TIP3     H1       HT       0.417000       1.00800           0
     77829 TIP3     12811    TIP3     H2       HT       0.417000       1.00800           0
     77830 TIP3     12812    TIP3     OH2      OT      -0.834000       15.9994           0
     77831 TIP3     12812    TIP3     H1       HT       0.417000       1.00800           0
     77832 TIP3     12812    TIP3     H2       HT       0.417000       1.00800           0
     77833 TIP3     12813    TIP3     OH2      OT      -0.834000       15.9994           0
     77834 TIP3     12813    TIP3     H1       HT       0.417000       1.00800           0
     77835 TIP3     12813    TIP3     H2       HT       0.417000       1.00800           0
     77836 TIP3     12814    TIP3     OH2      OT      -0.834000       15.9994           0
     77837 TIP3     12814    TIP3     H1       HT       0.417000       1.00800           0
     77838 TIP3     12814    TIP3     H2       HT       0.417000       1.00800           0
     77839 TIP3     12815    TIP3     OH2      OT      -0.834000       15.9994           0
     77840 TIP3     12815    TIP3     H1       HT       0.417000       1.00800           0
     77841 TIP3     12815    TIP3     H2       HT       0.417000       1.00800           0
     77842 TIP3     12816    TIP3     OH2      OT      -0.834000       15.9994           0
     77843 TIP3     12816    TIP3     H1       HT       0.417000       1.00800           0
     77844 TIP3     12816    TIP3     H2       HT       0.417000       1.00800           0
     77845 TIP3     12817    TIP3     OH2      OT      -0.834000       15.9994           0
     77846 TIP3     12817    TIP3     H1       HT       0.417000       1.00800           0
     77847 TIP3     12817    TIP3     H2       HT       0.417000       1.00800           0
     77848 TIP3     12818    TIP3     OH2      OT      -0.834000       15.9994           0
     77849 TIP3     12818    TIP3     H1       HT       0.417000       1.00800           0
     77850 TIP3     12818    TIP3     H2       HT       0.417000       1.00800           0
     77851 TIP3     12819    TIP3     OH2      OT      -0.834000       15.9994           0
     77852 TIP3     12819    TIP3     H1       HT       0.417000       1.00800           0
     77853 TIP3     12819    TIP3     H2       HT       0.417000       1.00800           0
     77854 TIP3     12820    TIP3     OH2      OT      -0.834000       15.9994           0
     77855 TIP3     12820    TIP3     H1       HT       0.417000       1.00800           0
     77856 TIP3     12820    TIP3     H2       HT       0.417000       1.00800           0
     77857 TIP3     12821    TIP3     OH2      OT      -0.834000       15.9994           0
     77858 TIP3     12821    TIP3     H1       HT       0.417000       1.00800           0
     77859 TIP3     12821    TIP3     H2       HT       0.417000       1.00800           0
     77860 TIP3     12822    TIP3     OH2      OT      -0.834000       15.9994           0
     77861 TIP3     12822    TIP3     H1       HT       0.417000       1.00800           0
     77862 TIP3     12822    TIP3     H2       HT       0.417000       1.00800           0
     77863 TIP3     12823    TIP3     OH2      OT      -0.834000       15.9994           0
     77864 TIP3     12823    TIP3     H1       HT       0.417000       1.00800           0
     77865 TIP3     12823    TIP3     H2       HT       0.417000       1.00800           0
     77866 TIP3     12824    TIP3     OH2      OT      -0.834000       15.9994           0
     77867 TIP3     12824    TIP3     H1       HT       0.417000       1.00800           0
     77868 TIP3     12824    TIP3     H2       HT       0.417000       1.00800           0
     77869 TIP3     12825    TIP3     OH2      OT      -0.834000       15.9994           0
     77870 TIP3     12825    TIP3     H1       HT       0.417000       1.00800           0
     77871 TIP3     12825    TIP3     H2       HT       0.417000       1.00800           0
     77872 TIP3     12826    TIP3     OH2      OT      -0.834000       15.9994           0
     77873 TIP3     12826    TIP3     H1       HT       0.417000       1.00800           0
     77874 TIP3     12826    TIP3     H2       HT       0.417000       1.00800           0
     77875 TIP3     12827    TIP3     OH2      OT      -0.834000       15.9994           0
     77876 TIP3     12827    TIP3     H1       HT       0.417000       1.00800           0
     77877 TIP3     12827    TIP3     H2       HT       0.417000       1.00800           0
     77878 TIP3     12828    TIP3     OH2      OT      -0.834000       15.9994           0
     77879 TIP3     12828    TIP3     H1       HT       0.417000       1.00800           0
     77880 TIP3     12828    TIP3     H2       HT       0.417000       1.00800           0
     77881 TIP3     12829    TIP3     OH2      OT      -0.834000       15.9994           0
     77882 TIP3     12829    TIP3     H1       HT       0.417000       1.00800           0
     77883 TIP3     12829    TIP3     H2       HT       0.417000       1.00800           0
     77884 TIP3     12830    TIP3     OH2      OT      -0.834000       15.9994           0
     77885 TIP3     12830    TIP3     H1       HT       0.417000       1.00800           0
     77886 TIP3     12830    TIP3     H2       HT       0.417000       1.00800           0
     77887 TIP3     12831    TIP3     OH2      OT      -0.834000       15.9994           0
     77888 TIP3     12831    TIP3     H1       HT       0.417000       1.00800           0
     77889 TIP3     12831    TIP3     H2       HT       0.417000       1.00800           0
     77890 TIP3     12832    TIP3     OH2      OT      -0.834000       15.9994           0
     77891 TIP3     12832    TIP3     H1       HT       0.417000       1.00800           0
     77892 TIP3     12832    TIP3     H2       HT       0.417000       1.00800           0
     77893 TIP3     12833    TIP3     OH2      OT      -0.834000       15.9994           0
     77894 TIP3     12833    TIP3     H1       HT       0.417000       1.00800           0
     77895 TIP3     12833    TIP3     H2       HT       0.417000       1.00800           0
     77896 TIP3     12834    TIP3     OH2      OT      -0.834000       15.9994           0
     77897 TIP3     12834    TIP3     H1       HT       0.417000       1.00800           0
     77898 TIP3     12834    TIP3     H2       HT       0.417000       1.00800           0
     77899 TIP3     12835    TIP3     OH2      OT      -0.834000       15.9994           0
     77900 TIP3     12835    TIP3     H1       HT       0.417000       1.00800           0
     77901 TIP3     12835    TIP3     H2       HT       0.417000       1.00800           0
     77902 TIP3     12836    TIP3     OH2      OT      -0.834000       15.9994           0
     77903 TIP3     12836    TIP3     H1       HT       0.417000       1.00800           0
     77904 TIP3     12836    TIP3     H2       HT       0.417000       1.00800           0
     77905 TIP3     12837    TIP3     OH2      OT      -0.834000       15.9994           0
     77906 TIP3     12837    TIP3     H1       HT       0.417000       1.00800           0
     77907 TIP3     12837    TIP3     H2       HT       0.417000       1.00800           0
     77908 TIP3     12838    TIP3     OH2      OT      -0.834000       15.9994           0
     77909 TIP3     12838    TIP3     H1       HT       0.417000       1.00800           0
     77910 TIP3     12838    TIP3     H2       HT       0.417000       1.00800           0
     77911 TIP3     12839    TIP3     OH2      OT      -0.834000       15.9994           0
     77912 TIP3     12839    TIP3     H1       HT       0.417000       1.00800           0
     77913 TIP3     12839    TIP3     H2       HT       0.417000       1.00800           0
     77914 TIP3     12840    TIP3     OH2      OT      -0.834000       15.9994           0
     77915 TIP3     12840    TIP3     H1       HT       0.417000       1.00800           0
     77916 TIP3     12840    TIP3     H2       HT       0.417000       1.00800           0
     77917 TIP3     12841    TIP3     OH2      OT      -0.834000       15.9994           0
     77918 TIP3     12841    TIP3     H1       HT       0.417000       1.00800           0
     77919 TIP3     12841    TIP3     H2       HT       0.417000       1.00800           0
     77920 TIP3     12842    TIP3     OH2      OT      -0.834000       15.9994           0
     77921 TIP3     12842    TIP3     H1       HT       0.417000       1.00800           0
     77922 TIP3     12842    TIP3     H2       HT       0.417000       1.00800           0
     77923 TIP3     12843    TIP3     OH2      OT      -0.834000       15.9994           0
     77924 TIP3     12843    TIP3     H1       HT       0.417000       1.00800           0
     77925 TIP3     12843    TIP3     H2       HT       0.417000       1.00800           0
     77926 TIP3     12844    TIP3     OH2      OT      -0.834000       15.9994           0
     77927 TIP3     12844    TIP3     H1       HT       0.417000       1.00800           0
     77928 TIP3     12844    TIP3     H2       HT       0.417000       1.00800           0
     77929 TIP3     12845    TIP3     OH2      OT      -0.834000       15.9994           0
     77930 TIP3     12845    TIP3     H1       HT       0.417000       1.00800           0
     77931 TIP3     12845    TIP3     H2       HT       0.417000       1.00800           0
     77932 TIP3     12846    TIP3     OH2      OT      -0.834000       15.9994           0
     77933 TIP3     12846    TIP3     H1       HT       0.417000       1.00800           0
     77934 TIP3     12846    TIP3     H2       HT       0.417000       1.00800           0
     77935 TIP3     12847    TIP3     OH2      OT      -0.834000       15.9994           0
     77936 TIP3     12847    TIP3     H1       HT       0.417000       1.00800           0
     77937 TIP3     12847    TIP3     H2       HT       0.417000       1.00800           0
     77938 TIP3     12848    TIP3     OH2      OT      -0.834000       15.9994           0
     77939 TIP3     12848    TIP3     H1       HT       0.417000       1.00800           0
     77940 TIP3     12848    TIP3     H2       HT       0.417000       1.00800           0
     77941 TIP3     12849    TIP3     OH2      OT      -0.834000       15.9994           0
     77942 TIP3     12849    TIP3     H1       HT       0.417000       1.00800           0
     77943 TIP3     12849    TIP3     H2       HT       0.417000       1.00800           0
     77944 TIP3     12850    TIP3     OH2      OT      -0.834000       15.9994           0
     77945 TIP3     12850    TIP3     H1       HT       0.417000       1.00800           0
     77946 TIP3     12850    TIP3     H2       HT       0.417000       1.00800           0
     77947 TIP3     12851    TIP3     OH2      OT      -0.834000       15.9994           0
     77948 TIP3     12851    TIP3     H1       HT       0.417000       1.00800           0
     77949 TIP3     12851    TIP3     H2       HT       0.417000       1.00800           0
     77950 TIP3     12852    TIP3     OH2      OT      -0.834000       15.9994           0
     77951 TIP3     12852    TIP3     H1       HT       0.417000       1.00800           0
     77952 TIP3     12852    TIP3     H2       HT       0.417000       1.00800           0
     77953 TIP3     12853    TIP3     OH2      OT      -0.834000       15.9994           0
     77954 TIP3     12853    TIP3     H1       HT       0.417000       1.00800           0
     77955 TIP3     12853    TIP3     H2       HT       0.417000       1.00800           0
     77956 TIP3     12854    TIP3     OH2      OT      -0.834000       15.9994           0
     77957 TIP3     12854    TIP3     H1       HT       0.417000       1.00800           0
     77958 TIP3     12854    TIP3     H2       HT       0.417000       1.00800           0
     77959 TIP3     12855    TIP3     OH2      OT      -0.834000       15.9994           0
     77960 TIP3     12855    TIP3     H1       HT       0.417000       1.00800           0
     77961 TIP3     12855    TIP3     H2       HT       0.417000       1.00800           0
     77962 TIP3     12856    TIP3     OH2      OT      -0.834000       15.9994           0
     77963 TIP3     12856    TIP3     H1       HT       0.417000       1.00800           0
     77964 TIP3     12856    TIP3     H2       HT       0.417000       1.00800           0
     77965 TIP3     12857    TIP3     OH2      OT      -0.834000       15.9994           0
     77966 TIP3     12857    TIP3     H1       HT       0.417000       1.00800           0
     77967 TIP3     12857    TIP3     H2       HT       0.417000       1.00800           0
     77968 TIP3     12858    TIP3     OH2      OT      -0.834000       15.9994           0
     77969 TIP3     12858    TIP3     H1       HT       0.417000       1.00800           0
     77970 TIP3     12858    TIP3     H2       HT       0.417000       1.00800           0
     77971 TIP3     12859    TIP3     OH2      OT      -0.834000       15.9994           0
     77972 TIP3     12859    TIP3     H1       HT       0.417000       1.00800           0
     77973 TIP3     12859    TIP3     H2       HT       0.417000       1.00800           0
     77974 TIP3     12860    TIP3     OH2      OT      -0.834000       15.9994           0
     77975 TIP3     12860    TIP3     H1       HT       0.417000       1.00800           0
     77976 TIP3     12860    TIP3     H2       HT       0.417000       1.00800           0
     77977 TIP3     12861    TIP3     OH2      OT      -0.834000       15.9994           0
     77978 TIP3     12861    TIP3     H1       HT       0.417000       1.00800           0
     77979 TIP3     12861    TIP3     H2       HT       0.417000       1.00800           0
     77980 TIP3     12862    TIP3     OH2      OT      -0.834000       15.9994           0
     77981 TIP3     12862    TIP3     H1       HT       0.417000       1.00800           0
     77982 TIP3     12862    TIP3     H2       HT       0.417000       1.00800           0
     77983 TIP3     12863    TIP3     OH2      OT      -0.834000       15.9994           0
     77984 TIP3     12863    TIP3     H1       HT       0.417000       1.00800           0
     77985 TIP3     12863    TIP3     H2       HT       0.417000       1.00800           0
     77986 TIP3     12864    TIP3     OH2      OT      -0.834000       15.9994           0
     77987 TIP3     12864    TIP3     H1       HT       0.417000       1.00800           0
     77988 TIP3     12864    TIP3     H2       HT       0.417000       1.00800           0
     77989 TIP3     12865    TIP3     OH2      OT      -0.834000       15.9994           0
     77990 TIP3     12865    TIP3     H1       HT       0.417000       1.00800           0
     77991 TIP3     12865    TIP3     H2       HT       0.417000       1.00800           0
     77992 TIP3     12866    TIP3     OH2      OT      -0.834000       15.9994           0
     77993 TIP3     12866    TIP3     H1       HT       0.417000       1.00800           0
     77994 TIP3     12866    TIP3     H2       HT       0.417000       1.00800           0
     77995 TIP3     12867    TIP3     OH2      OT      -0.834000       15.9994           0
     77996 TIP3     12867    TIP3     H1       HT       0.417000       1.00800           0
     77997 TIP3     12867    TIP3     H2       HT       0.417000       1.00800           0
     77998 TIP3     12868    TIP3     OH2      OT      -0.834000       15.9994           0
     77999 TIP3     12868    TIP3     H1       HT       0.417000       1.00800           0
     78000 TIP3     12868    TIP3     H2       HT       0.417000       1.00800           0
     78001 TIP3     12869    TIP3     OH2      OT      -0.834000       15.9994           0
     78002 TIP3     12869    TIP3     H1       HT       0.417000       1.00800           0
     78003 TIP3     12869    TIP3     H2       HT       0.417000       1.00800           0
     78004 TIP3     12870    TIP3     OH2      OT      -0.834000       15.9994           0
     78005 TIP3     12870    TIP3     H1       HT       0.417000       1.00800           0
     78006 TIP3     12870    TIP3     H2       HT       0.417000       1.00800           0
     78007 TIP3     12871    TIP3     OH2      OT      -0.834000       15.9994           0
     78008 TIP3     12871    TIP3     H1       HT       0.417000       1.00800           0
     78009 TIP3     12871    TIP3     H2       HT       0.417000       1.00800           0
     78010 TIP3     12872    TIP3     OH2      OT      -0.834000       15.9994           0
     78011 TIP3     12872    TIP3     H1       HT       0.417000       1.00800           0
     78012 TIP3     12872    TIP3     H2       HT       0.417000       1.00800           0
     78013 TIP3     12873    TIP3     OH2      OT      -0.834000       15.9994           0
     78014 TIP3     12873    TIP3     H1       HT       0.417000       1.00800           0
     78015 TIP3     12873    TIP3     H2       HT       0.417000       1.00800           0
     78016 TIP3     12874    TIP3     OH2      OT      -0.834000       15.9994           0
     78017 TIP3     12874    TIP3     H1       HT       0.417000       1.00800           0
     78018 TIP3     12874    TIP3     H2       HT       0.417000       1.00800           0
     78019 TIP3     12875    TIP3     OH2      OT      -0.834000       15.9994           0
     78020 TIP3     12875    TIP3     H1       HT       0.417000       1.00800           0
     78021 TIP3     12875    TIP3     H2       HT       0.417000       1.00800           0
     78022 TIP3     12876    TIP3     OH2      OT      -0.834000       15.9994           0
     78023 TIP3     12876    TIP3     H1       HT       0.417000       1.00800           0
     78024 TIP3     12876    TIP3     H2       HT       0.417000       1.00800           0
     78025 TIP3     12877    TIP3     OH2      OT      -0.834000       15.9994           0
     78026 TIP3     12877    TIP3     H1       HT       0.417000       1.00800           0
     78027 TIP3     12877    TIP3     H2       HT       0.417000       1.00800           0
     78028 TIP3     12878    TIP3     OH2      OT      -0.834000       15.9994           0
     78029 TIP3     12878    TIP3     H1       HT       0.417000       1.00800           0
     78030 TIP3     12878    TIP3     H2       HT       0.417000       1.00800           0
     78031 TIP3     12879    TIP3     OH2      OT      -0.834000       15.9994           0
     78032 TIP3     12879    TIP3     H1       HT       0.417000       1.00800           0
     78033 TIP3     12879    TIP3     H2       HT       0.417000       1.00800           0
     78034 TIP3     12880    TIP3     OH2      OT      -0.834000       15.9994           0
     78035 TIP3     12880    TIP3     H1       HT       0.417000       1.00800           0
     78036 TIP3     12880    TIP3     H2       HT       0.417000       1.00800           0
     78037 TIP3     12881    TIP3     OH2      OT      -0.834000       15.9994           0
     78038 TIP3     12881    TIP3     H1       HT       0.417000       1.00800           0
     78039 TIP3     12881    TIP3     H2       HT       0.417000       1.00800           0
     78040 TIP3     12882    TIP3     OH2      OT      -0.834000       15.9994           0
     78041 TIP3     12882    TIP3     H1       HT       0.417000       1.00800           0
     78042 TIP3     12882    TIP3     H2       HT       0.417000       1.00800           0
     78043 TIP3     12883    TIP3     OH2      OT      -0.834000       15.9994           0
     78044 TIP3     12883    TIP3     H1       HT       0.417000       1.00800           0
     78045 TIP3     12883    TIP3     H2       HT       0.417000       1.00800           0
     78046 TIP3     12884    TIP3     OH2      OT      -0.834000       15.9994           0
     78047 TIP3     12884    TIP3     H1       HT       0.417000       1.00800           0
     78048 TIP3     12884    TIP3     H2       HT       0.417000       1.00800           0
     78049 TIP3     12885    TIP3     OH2      OT      -0.834000       15.9994           0
     78050 TIP3     12885    TIP3     H1       HT       0.417000       1.00800           0
     78051 TIP3     12885    TIP3     H2       HT       0.417000       1.00800           0
     78052 TIP3     12886    TIP3     OH2      OT      -0.834000       15.9994           0
     78053 TIP3     12886    TIP3     H1       HT       0.417000       1.00800           0
     78054 TIP3     12886    TIP3     H2       HT       0.417000       1.00800           0
     78055 TIP3     12887    TIP3     OH2      OT      -0.834000       15.9994           0
     78056 TIP3     12887    TIP3     H1       HT       0.417000       1.00800           0
     78057 TIP3     12887    TIP3     H2       HT       0.417000       1.00800           0
     78058 TIP3     12888    TIP3     OH2      OT      -0.834000       15.9994           0
     78059 TIP3     12888    TIP3     H1       HT       0.417000       1.00800           0
     78060 TIP3     12888    TIP3     H2       HT       0.417000       1.00800           0
     78061 TIP3     12889    TIP3     OH2      OT      -0.834000       15.9994           0
     78062 TIP3     12889    TIP3     H1       HT       0.417000       1.00800           0
     78063 TIP3     12889    TIP3     H2       HT       0.417000       1.00800           0
     78064 TIP3     12890    TIP3     OH2      OT      -0.834000       15.9994           0
     78065 TIP3     12890    TIP3     H1       HT       0.417000       1.00800           0
     78066 TIP3     12890    TIP3     H2       HT       0.417000       1.00800           0
     78067 TIP3     12891    TIP3     OH2      OT      -0.834000       15.9994           0
     78068 TIP3     12891    TIP3     H1       HT       0.417000       1.00800           0
     78069 TIP3     12891    TIP3     H2       HT       0.417000       1.00800           0
     78070 TIP3     12892    TIP3     OH2      OT      -0.834000       15.9994           0
     78071 TIP3     12892    TIP3     H1       HT       0.417000       1.00800           0
     78072 TIP3     12892    TIP3     H2       HT       0.417000       1.00800           0
     78073 TIP3     12893    TIP3     OH2      OT      -0.834000       15.9994           0
     78074 TIP3     12893    TIP3     H1       HT       0.417000       1.00800           0
     78075 TIP3     12893    TIP3     H2       HT       0.417000       1.00800           0
     78076 TIP3     12894    TIP3     OH2      OT      -0.834000       15.9994           0
     78077 TIP3     12894    TIP3     H1       HT       0.417000       1.00800           0
     78078 TIP3     12894    TIP3     H2       HT       0.417000       1.00800           0
     78079 TIP3     12895    TIP3     OH2      OT      -0.834000       15.9994           0
     78080 TIP3     12895    TIP3     H1       HT       0.417000       1.00800           0
     78081 TIP3     12895    TIP3     H2       HT       0.417000       1.00800           0
     78082 TIP3     12896    TIP3     OH2      OT      -0.834000       15.9994           0
     78083 TIP3     12896    TIP3     H1       HT       0.417000       1.00800           0
     78084 TIP3     12896    TIP3     H2       HT       0.417000       1.00800           0
     78085 TIP3     12897    TIP3     OH2      OT      -0.834000       15.9994           0
     78086 TIP3     12897    TIP3     H1       HT       0.417000       1.00800           0
     78087 TIP3     12897    TIP3     H2       HT       0.417000       1.00800           0
     78088 TIP3     12898    TIP3     OH2      OT      -0.834000       15.9994           0
     78089 TIP3     12898    TIP3     H1       HT       0.417000       1.00800           0
     78090 TIP3     12898    TIP3     H2       HT       0.417000       1.00800           0
     78091 TIP3     12899    TIP3     OH2      OT      -0.834000       15.9994           0
     78092 TIP3     12899    TIP3     H1       HT       0.417000       1.00800           0
     78093 TIP3     12899    TIP3     H2       HT       0.417000       1.00800           0
     78094 TIP3     12900    TIP3     OH2      OT      -0.834000       15.9994           0
     78095 TIP3     12900    TIP3     H1       HT       0.417000       1.00800           0
     78096 TIP3     12900    TIP3     H2       HT       0.417000       1.00800           0
     78097 TIP3     12901    TIP3     OH2      OT      -0.834000       15.9994           0
     78098 TIP3     12901    TIP3     H1       HT       0.417000       1.00800           0
     78099 TIP3     12901    TIP3     H2       HT       0.417000       1.00800           0
     78100 TIP3     12902    TIP3     OH2      OT      -0.834000       15.9994           0
     78101 TIP3     12902    TIP3     H1       HT       0.417000       1.00800           0
     78102 TIP3     12902    TIP3     H2       HT       0.417000       1.00800           0
     78103 TIP3     12903    TIP3     OH2      OT      -0.834000       15.9994           0
     78104 TIP3     12903    TIP3     H1       HT       0.417000       1.00800           0
     78105 TIP3     12903    TIP3     H2       HT       0.417000       1.00800           0
     78106 TIP3     12904    TIP3     OH2      OT      -0.834000       15.9994           0
     78107 TIP3     12904    TIP3     H1       HT       0.417000       1.00800           0
     78108 TIP3     12904    TIP3     H2       HT       0.417000       1.00800           0
     78109 TIP3     12905    TIP3     OH2      OT      -0.834000       15.9994           0
     78110 TIP3     12905    TIP3     H1       HT       0.417000       1.00800           0
     78111 TIP3     12905    TIP3     H2       HT       0.417000       1.00800           0
     78112 TIP3     12906    TIP3     OH2      OT      -0.834000       15.9994           0
     78113 TIP3     12906    TIP3     H1       HT       0.417000       1.00800           0
     78114 TIP3     12906    TIP3     H2       HT       0.417000       1.00800           0
     78115 TIP3     12907    TIP3     OH2      OT      -0.834000       15.9994           0
     78116 TIP3     12907    TIP3     H1       HT       0.417000       1.00800           0
     78117 TIP3     12907    TIP3     H2       HT       0.417000       1.00800           0
     78118 TIP3     12908    TIP3     OH2      OT      -0.834000       15.9994           0
     78119 TIP3     12908    TIP3     H1       HT       0.417000       1.00800           0
     78120 TIP3     12908    TIP3     H2       HT       0.417000       1.00800           0
     78121 TIP3     12909    TIP3     OH2      OT      -0.834000       15.9994           0
     78122 TIP3     12909    TIP3     H1       HT       0.417000       1.00800           0
     78123 TIP3     12909    TIP3     H2       HT       0.417000       1.00800           0
     78124 TIP3     12910    TIP3     OH2      OT      -0.834000       15.9994           0
     78125 TIP3     12910    TIP3     H1       HT       0.417000       1.00800           0
     78126 TIP3     12910    TIP3     H2       HT       0.417000       1.00800           0
     78127 TIP3     12911    TIP3     OH2      OT      -0.834000       15.9994           0
     78128 TIP3     12911    TIP3     H1       HT       0.417000       1.00800           0
     78129 TIP3     12911    TIP3     H2       HT       0.417000       1.00800           0
     78130 TIP3     12912    TIP3     OH2      OT      -0.834000       15.9994           0
     78131 TIP3     12912    TIP3     H1       HT       0.417000       1.00800           0
     78132 TIP3     12912    TIP3     H2       HT       0.417000       1.00800           0
     78133 TIP3     12913    TIP3     OH2      OT      -0.834000       15.9994           0
     78134 TIP3     12913    TIP3     H1       HT       0.417000       1.00800           0
     78135 TIP3     12913    TIP3     H2       HT       0.417000       1.00800           0
     78136 TIP3     12914    TIP3     OH2      OT      -0.834000       15.9994           0
     78137 TIP3     12914    TIP3     H1       HT       0.417000       1.00800           0
     78138 TIP3     12914    TIP3     H2       HT       0.417000       1.00800           0
     78139 TIP3     12915    TIP3     OH2      OT      -0.834000       15.9994           0
     78140 TIP3     12915    TIP3     H1       HT       0.417000       1.00800           0
     78141 TIP3     12915    TIP3     H2       HT       0.417000       1.00800           0
     78142 TIP3     12916    TIP3     OH2      OT      -0.834000       15.9994           0
     78143 TIP3     12916    TIP3     H1       HT       0.417000       1.00800           0
     78144 TIP3     12916    TIP3     H2       HT       0.417000       1.00800           0
     78145 TIP3     12917    TIP3     OH2      OT      -0.834000       15.9994           0
     78146 TIP3     12917    TIP3     H1       HT       0.417000       1.00800           0
     78147 TIP3     12917    TIP3     H2       HT       0.417000       1.00800           0
     78148 TIP3     12918    TIP3     OH2      OT      -0.834000       15.9994           0
     78149 TIP3     12918    TIP3     H1       HT       0.417000       1.00800           0
     78150 TIP3     12918    TIP3     H2       HT       0.417000       1.00800           0
     78151 TIP3     12919    TIP3     OH2      OT      -0.834000       15.9994           0
     78152 TIP3     12919    TIP3     H1       HT       0.417000       1.00800           0
     78153 TIP3     12919    TIP3     H2       HT       0.417000       1.00800           0
     78154 TIP3     12920    TIP3     OH2      OT      -0.834000       15.9994           0
     78155 TIP3     12920    TIP3     H1       HT       0.417000       1.00800           0
     78156 TIP3     12920    TIP3     H2       HT       0.417000       1.00800           0
     78157 TIP3     12921    TIP3     OH2      OT      -0.834000       15.9994           0
     78158 TIP3     12921    TIP3     H1       HT       0.417000       1.00800           0
     78159 TIP3     12921    TIP3     H2       HT       0.417000       1.00800           0
     78160 TIP3     12922    TIP3     OH2      OT      -0.834000       15.9994           0
     78161 TIP3     12922    TIP3     H1       HT       0.417000       1.00800           0
     78162 TIP3     12922    TIP3     H2       HT       0.417000       1.00800           0
     78163 TIP3     12923    TIP3     OH2      OT      -0.834000       15.9994           0
     78164 TIP3     12923    TIP3     H1       HT       0.417000       1.00800           0
     78165 TIP3     12923    TIP3     H2       HT       0.417000       1.00800           0
     78166 TIP3     12924    TIP3     OH2      OT      -0.834000       15.9994           0
     78167 TIP3     12924    TIP3     H1       HT       0.417000       1.00800           0
     78168 TIP3     12924    TIP3     H2       HT       0.417000       1.00800           0
     78169 TIP3     12925    TIP3     OH2      OT      -0.834000       15.9994           0
     78170 TIP3     12925    TIP3     H1       HT       0.417000       1.00800           0
     78171 TIP3     12925    TIP3     H2       HT       0.417000       1.00800           0
     78172 TIP3     12926    TIP3     OH2      OT      -0.834000       15.9994           0
     78173 TIP3     12926    TIP3     H1       HT       0.417000       1.00800           0
     78174 TIP3     12926    TIP3     H2       HT       0.417000       1.00800           0
     78175 TIP3     12927    TIP3     OH2      OT      -0.834000       15.9994           0
     78176 TIP3     12927    TIP3     H1       HT       0.417000       1.00800           0
     78177 TIP3     12927    TIP3     H2       HT       0.417000       1.00800           0
     78178 TIP3     12928    TIP3     OH2      OT      -0.834000       15.9994           0
     78179 TIP3     12928    TIP3     H1       HT       0.417000       1.00800           0
     78180 TIP3     12928    TIP3     H2       HT       0.417000       1.00800           0
     78181 TIP3     12929    TIP3     OH2      OT      -0.834000       15.9994           0
     78182 TIP3     12929    TIP3     H1       HT       0.417000       1.00800           0
     78183 TIP3     12929    TIP3     H2       HT       0.417000       1.00800           0
     78184 TIP3     12930    TIP3     OH2      OT      -0.834000       15.9994           0
     78185 TIP3     12930    TIP3     H1       HT       0.417000       1.00800           0
     78186 TIP3     12930    TIP3     H2       HT       0.417000       1.00800           0
     78187 TIP3     12931    TIP3     OH2      OT      -0.834000       15.9994           0
     78188 TIP3     12931    TIP3     H1       HT       0.417000       1.00800           0
     78189 TIP3     12931    TIP3     H2       HT       0.417000       1.00800           0
     78190 TIP3     12932    TIP3     OH2      OT      -0.834000       15.9994           0
     78191 TIP3     12932    TIP3     H1       HT       0.417000       1.00800           0
     78192 TIP3     12932    TIP3     H2       HT       0.417000       1.00800           0
     78193 TIP3     12933    TIP3     OH2      OT      -0.834000       15.9994           0
     78194 TIP3     12933    TIP3     H1       HT       0.417000       1.00800           0
     78195 TIP3     12933    TIP3     H2       HT       0.417000       1.00800           0
     78196 TIP3     12934    TIP3     OH2      OT      -0.834000       15.9994           0
     78197 TIP3     12934    TIP3     H1       HT       0.417000       1.00800           0
     78198 TIP3     12934    TIP3     H2       HT       0.417000       1.00800           0
     78199 TIP3     12935    TIP3     OH2      OT      -0.834000       15.9994           0
     78200 TIP3     12935    TIP3     H1       HT       0.417000       1.00800           0
     78201 TIP3     12935    TIP3     H2       HT       0.417000       1.00800           0
     78202 TIP3     12936    TIP3     OH2      OT      -0.834000       15.9994           0
     78203 TIP3     12936    TIP3     H1       HT       0.417000       1.00800           0
     78204 TIP3     12936    TIP3     H2       HT       0.417000       1.00800           0
     78205 TIP3     12937    TIP3     OH2      OT      -0.834000       15.9994           0
     78206 TIP3     12937    TIP3     H1       HT       0.417000       1.00800           0
     78207 TIP3     12937    TIP3     H2       HT       0.417000       1.00800           0
     78208 TIP3     12938    TIP3     OH2      OT      -0.834000       15.9994           0
     78209 TIP3     12938    TIP3     H1       HT       0.417000       1.00800           0
     78210 TIP3     12938    TIP3     H2       HT       0.417000       1.00800           0
     78211 TIP3     12939    TIP3     OH2      OT      -0.834000       15.9994           0
     78212 TIP3     12939    TIP3     H1       HT       0.417000       1.00800           0
     78213 TIP3     12939    TIP3     H2       HT       0.417000       1.00800           0
     78214 TIP3     12940    TIP3     OH2      OT      -0.834000       15.9994           0
     78215 TIP3     12940    TIP3     H1       HT       0.417000       1.00800           0
     78216 TIP3     12940    TIP3     H2       HT       0.417000       1.00800           0
     78217 TIP3     12941    TIP3     OH2      OT      -0.834000       15.9994           0
     78218 TIP3     12941    TIP3     H1       HT       0.417000       1.00800           0
     78219 TIP3     12941    TIP3     H2       HT       0.417000       1.00800           0
     78220 TIP3     12942    TIP3     OH2      OT      -0.834000       15.9994           0
     78221 TIP3     12942    TIP3     H1       HT       0.417000       1.00800           0
     78222 TIP3     12942    TIP3     H2       HT       0.417000       1.00800           0
     78223 TIP3     12943    TIP3     OH2      OT      -0.834000       15.9994           0
     78224 TIP3     12943    TIP3     H1       HT       0.417000       1.00800           0
     78225 TIP3     12943    TIP3     H2       HT       0.417000       1.00800           0
     78226 TIP3     12944    TIP3     OH2      OT      -0.834000       15.9994           0
     78227 TIP3     12944    TIP3     H1       HT       0.417000       1.00800           0
     78228 TIP3     12944    TIP3     H2       HT       0.417000       1.00800           0
     78229 TIP3     12945    TIP3     OH2      OT      -0.834000       15.9994           0
     78230 TIP3     12945    TIP3     H1       HT       0.417000       1.00800           0
     78231 TIP3     12945    TIP3     H2       HT       0.417000       1.00800           0
     78232 TIP3     12946    TIP3     OH2      OT      -0.834000       15.9994           0
     78233 TIP3     12946    TIP3     H1       HT       0.417000       1.00800           0
     78234 TIP3     12946    TIP3     H2       HT       0.417000       1.00800           0
     78235 TIP3     12947    TIP3     OH2      OT      -0.834000       15.9994           0
     78236 TIP3     12947    TIP3     H1       HT       0.417000       1.00800           0
     78237 TIP3     12947    TIP3     H2       HT       0.417000       1.00800           0
     78238 TIP3     12948    TIP3     OH2      OT      -0.834000       15.9994           0
     78239 TIP3     12948    TIP3     H1       HT       0.417000       1.00800           0
     78240 TIP3     12948    TIP3     H2       HT       0.417000       1.00800           0
     78241 TIP3     12949    TIP3     OH2      OT      -0.834000       15.9994           0
     78242 TIP3     12949    TIP3     H1       HT       0.417000       1.00800           0
     78243 TIP3     12949    TIP3     H2       HT       0.417000       1.00800           0
     78244 TIP3     12950    TIP3     OH2      OT      -0.834000       15.9994           0
     78245 TIP3     12950    TIP3     H1       HT       0.417000       1.00800           0
     78246 TIP3     12950    TIP3     H2       HT       0.417000       1.00800           0
     78247 TIP3     12951    TIP3     OH2      OT      -0.834000       15.9994           0
     78248 TIP3     12951    TIP3     H1       HT       0.417000       1.00800           0
     78249 TIP3     12951    TIP3     H2       HT       0.417000       1.00800           0
     78250 TIP3     12952    TIP3     OH2      OT      -0.834000       15.9994           0
     78251 TIP3     12952    TIP3     H1       HT       0.417000       1.00800           0
     78252 TIP3     12952    TIP3     H2       HT       0.417000       1.00800           0
     78253 TIP3     12953    TIP3     OH2      OT      -0.834000       15.9994           0
     78254 TIP3     12953    TIP3     H1       HT       0.417000       1.00800           0
     78255 TIP3     12953    TIP3     H2       HT       0.417000       1.00800           0
     78256 TIP3     12954    TIP3     OH2      OT      -0.834000       15.9994           0
     78257 TIP3     12954    TIP3     H1       HT       0.417000       1.00800           0
     78258 TIP3     12954    TIP3     H2       HT       0.417000       1.00800           0
     78259 TIP3     12955    TIP3     OH2      OT      -0.834000       15.9994           0
     78260 TIP3     12955    TIP3     H1       HT       0.417000       1.00800           0
     78261 TIP3     12955    TIP3     H2       HT       0.417000       1.00800           0
     78262 TIP3     12956    TIP3     OH2      OT      -0.834000       15.9994           0
     78263 TIP3     12956    TIP3     H1       HT       0.417000       1.00800           0
     78264 TIP3     12956    TIP3     H2       HT       0.417000       1.00800           0
     78265 TIP3     12957    TIP3     OH2      OT      -0.834000       15.9994           0
     78266 TIP3     12957    TIP3     H1       HT       0.417000       1.00800           0
     78267 TIP3     12957    TIP3     H2       HT       0.417000       1.00800           0
     78268 TIP3     12958    TIP3     OH2      OT      -0.834000       15.9994           0
     78269 TIP3     12958    TIP3     H1       HT       0.417000       1.00800           0
     78270 TIP3     12958    TIP3     H2       HT       0.417000       1.00800           0
     78271 TIP3     12959    TIP3     OH2      OT      -0.834000       15.9994           0
     78272 TIP3     12959    TIP3     H1       HT       0.417000       1.00800           0
     78273 TIP3     12959    TIP3     H2       HT       0.417000       1.00800           0
     78274 TIP3     12960    TIP3     OH2      OT      -0.834000       15.9994           0
     78275 TIP3     12960    TIP3     H1       HT       0.417000       1.00800           0
     78276 TIP3     12960    TIP3     H2       HT       0.417000       1.00800           0
     78277 TIP3     12961    TIP3     OH2      OT      -0.834000       15.9994           0
     78278 TIP3     12961    TIP3     H1       HT       0.417000       1.00800           0
     78279 TIP3     12961    TIP3     H2       HT       0.417000       1.00800           0
     78280 TIP3     12962    TIP3     OH2      OT      -0.834000       15.9994           0
     78281 TIP3     12962    TIP3     H1       HT       0.417000       1.00800           0
     78282 TIP3     12962    TIP3     H2       HT       0.417000       1.00800           0
     78283 TIP3     12963    TIP3     OH2      OT      -0.834000       15.9994           0
     78284 TIP3     12963    TIP3     H1       HT       0.417000       1.00800           0
     78285 TIP3     12963    TIP3     H2       HT       0.417000       1.00800           0
     78286 TIP3     12964    TIP3     OH2      OT      -0.834000       15.9994           0
     78287 TIP3     12964    TIP3     H1       HT       0.417000       1.00800           0
     78288 TIP3     12964    TIP3     H2       HT       0.417000       1.00800           0
     78289 TIP3     12965    TIP3     OH2      OT      -0.834000       15.9994           0
     78290 TIP3     12965    TIP3     H1       HT       0.417000       1.00800           0
     78291 TIP3     12965    TIP3     H2       HT       0.417000       1.00800           0
     78292 TIP3     12966    TIP3     OH2      OT      -0.834000       15.9994           0
     78293 TIP3     12966    TIP3     H1       HT       0.417000       1.00800           0
     78294 TIP3     12966    TIP3     H2       HT       0.417000       1.00800           0
     78295 TIP3     12967    TIP3     OH2      OT      -0.834000       15.9994           0
     78296 TIP3     12967    TIP3     H1       HT       0.417000       1.00800           0
     78297 TIP3     12967    TIP3     H2       HT       0.417000       1.00800           0
     78298 TIP3     12968    TIP3     OH2      OT      -0.834000       15.9994           0
     78299 TIP3     12968    TIP3     H1       HT       0.417000       1.00800           0
     78300 TIP3     12968    TIP3     H2       HT       0.417000       1.00800           0
     78301 TIP3     12969    TIP3     OH2      OT      -0.834000       15.9994           0
     78302 TIP3     12969    TIP3     H1       HT       0.417000       1.00800           0
     78303 TIP3     12969    TIP3     H2       HT       0.417000       1.00800           0
     78304 TIP3     12970    TIP3     OH2      OT      -0.834000       15.9994           0
     78305 TIP3     12970    TIP3     H1       HT       0.417000       1.00800           0
     78306 TIP3     12970    TIP3     H2       HT       0.417000       1.00800           0
     78307 TIP3     12971    TIP3     OH2      OT      -0.834000       15.9994           0
     78308 TIP3     12971    TIP3     H1       HT       0.417000       1.00800           0
     78309 TIP3     12971    TIP3     H2       HT       0.417000       1.00800           0
     78310 TIP3     12972    TIP3     OH2      OT      -0.834000       15.9994           0
     78311 TIP3     12972    TIP3     H1       HT       0.417000       1.00800           0
     78312 TIP3     12972    TIP3     H2       HT       0.417000       1.00800           0
     78313 TIP3     12973    TIP3     OH2      OT      -0.834000       15.9994           0
     78314 TIP3     12973    TIP3     H1       HT       0.417000       1.00800           0
     78315 TIP3     12973    TIP3     H2       HT       0.417000       1.00800           0
     78316 TIP3     12974    TIP3     OH2      OT      -0.834000       15.9994           0
     78317 TIP3     12974    TIP3     H1       HT       0.417000       1.00800           0
     78318 TIP3     12974    TIP3     H2       HT       0.417000       1.00800           0
     78319 TIP3     12975    TIP3     OH2      OT      -0.834000       15.9994           0
     78320 TIP3     12975    TIP3     H1       HT       0.417000       1.00800           0
     78321 TIP3     12975    TIP3     H2       HT       0.417000       1.00800           0
     78322 TIP3     12976    TIP3     OH2      OT      -0.834000       15.9994           0
     78323 TIP3     12976    TIP3     H1       HT       0.417000       1.00800           0
     78324 TIP3     12976    TIP3     H2       HT       0.417000       1.00800           0
     78325 TIP3     12977    TIP3     OH2      OT      -0.834000       15.9994           0
     78326 TIP3     12977    TIP3     H1       HT       0.417000       1.00800           0
     78327 TIP3     12977    TIP3     H2       HT       0.417000       1.00800           0
     78328 TIP3     12978    TIP3     OH2      OT      -0.834000       15.9994           0
     78329 TIP3     12978    TIP3     H1       HT       0.417000       1.00800           0
     78330 TIP3     12978    TIP3     H2       HT       0.417000       1.00800           0
     78331 TIP3     12979    TIP3     OH2      OT      -0.834000       15.9994           0
     78332 TIP3     12979    TIP3     H1       HT       0.417000       1.00800           0
     78333 TIP3     12979    TIP3     H2       HT       0.417000       1.00800           0
     78334 TIP3     12980    TIP3     OH2      OT      -0.834000       15.9994           0
     78335 TIP3     12980    TIP3     H1       HT       0.417000       1.00800           0
     78336 TIP3     12980    TIP3     H2       HT       0.417000       1.00800           0
     78337 TIP3     12981    TIP3     OH2      OT      -0.834000       15.9994           0
     78338 TIP3     12981    TIP3     H1       HT       0.417000       1.00800           0
     78339 TIP3     12981    TIP3     H2       HT       0.417000       1.00800           0
     78340 TIP3     12982    TIP3     OH2      OT      -0.834000       15.9994           0
     78341 TIP3     12982    TIP3     H1       HT       0.417000       1.00800           0
     78342 TIP3     12982    TIP3     H2       HT       0.417000       1.00800           0
     78343 TIP3     12983    TIP3     OH2      OT      -0.834000       15.9994           0
     78344 TIP3     12983    TIP3     H1       HT       0.417000       1.00800           0
     78345 TIP3     12983    TIP3     H2       HT       0.417000       1.00800           0
     78346 TIP3     12984    TIP3     OH2      OT      -0.834000       15.9994           0
     78347 TIP3     12984    TIP3     H1       HT       0.417000       1.00800           0
     78348 TIP3     12984    TIP3     H2       HT       0.417000       1.00800           0
     78349 TIP3     12985    TIP3     OH2      OT      -0.834000       15.9994           0
     78350 TIP3     12985    TIP3     H1       HT       0.417000       1.00800           0
     78351 TIP3     12985    TIP3     H2       HT       0.417000       1.00800           0
     78352 TIP3     12986    TIP3     OH2      OT      -0.834000       15.9994           0
     78353 TIP3     12986    TIP3     H1       HT       0.417000       1.00800           0
     78354 TIP3     12986    TIP3     H2       HT       0.417000       1.00800           0
     78355 TIP3     12987    TIP3     OH2      OT      -0.834000       15.9994           0
     78356 TIP3     12987    TIP3     H1       HT       0.417000       1.00800           0
     78357 TIP3     12987    TIP3     H2       HT       0.417000       1.00800           0
     78358 TIP3     12988    TIP3     OH2      OT      -0.834000       15.9994           0
     78359 TIP3     12988    TIP3     H1       HT       0.417000       1.00800           0
     78360 TIP3     12988    TIP3     H2       HT       0.417000       1.00800           0
     78361 TIP3     12989    TIP3     OH2      OT      -0.834000       15.9994           0
     78362 TIP3     12989    TIP3     H1       HT       0.417000       1.00800           0
     78363 TIP3     12989    TIP3     H2       HT       0.417000       1.00800           0
     78364 TIP3     12990    TIP3     OH2      OT      -0.834000       15.9994           0
     78365 TIP3     12990    TIP3     H1       HT       0.417000       1.00800           0
     78366 TIP3     12990    TIP3     H2       HT       0.417000       1.00800           0
     78367 TIP3     12991    TIP3     OH2      OT      -0.834000       15.9994           0
     78368 TIP3     12991    TIP3     H1       HT       0.417000       1.00800           0
     78369 TIP3     12991    TIP3     H2       HT       0.417000       1.00800           0
     78370 TIP3     12992    TIP3     OH2      OT      -0.834000       15.9994           0
     78371 TIP3     12992    TIP3     H1       HT       0.417000       1.00800           0
     78372 TIP3     12992    TIP3     H2       HT       0.417000       1.00800           0
     78373 TIP3     12993    TIP3     OH2      OT      -0.834000       15.9994           0
     78374 TIP3     12993    TIP3     H1       HT       0.417000       1.00800           0
     78375 TIP3     12993    TIP3     H2       HT       0.417000       1.00800           0
     78376 TIP3     12994    TIP3     OH2      OT      -0.834000       15.9994           0
     78377 TIP3     12994    TIP3     H1       HT       0.417000       1.00800           0
     78378 TIP3     12994    TIP3     H2       HT       0.417000       1.00800           0
     78379 TIP3     12995    TIP3     OH2      OT      -0.834000       15.9994           0
     78380 TIP3     12995    TIP3     H1       HT       0.417000       1.00800           0
     78381 TIP3     12995    TIP3     H2       HT       0.417000       1.00800           0
     78382 TIP3     12996    TIP3     OH2      OT      -0.834000       15.9994           0
     78383 TIP3     12996    TIP3     H1       HT       0.417000       1.00800           0
     78384 TIP3     12996    TIP3     H2       HT       0.417000       1.00800           0
     78385 TIP3     12997    TIP3     OH2      OT      -0.834000       15.9994           0
     78386 TIP3     12997    TIP3     H1       HT       0.417000       1.00800           0
     78387 TIP3     12997    TIP3     H2       HT       0.417000       1.00800           0
     78388 TIP3     12998    TIP3     OH2      OT      -0.834000       15.9994           0
     78389 TIP3     12998    TIP3     H1       HT       0.417000       1.00800           0
     78390 TIP3     12998    TIP3     H2       HT       0.417000       1.00800           0
     78391 TIP3     12999    TIP3     OH2      OT      -0.834000       15.9994           0
     78392 TIP3     12999    TIP3     H1       HT       0.417000       1.00800           0
     78393 TIP3     12999    TIP3     H2       HT       0.417000       1.00800           0
     78394 TIP3     13000    TIP3     OH2      OT      -0.834000       15.9994           0
     78395 TIP3     13000    TIP3     H1       HT       0.417000       1.00800           0
     78396 TIP3     13000    TIP3     H2       HT       0.417000       1.00800           0
     78397 TIP3     13001    TIP3     OH2      OT      -0.834000       15.9994           0
     78398 TIP3     13001    TIP3     H1       HT       0.417000       1.00800           0
     78399 TIP3     13001    TIP3     H2       HT       0.417000       1.00800           0
     78400 TIP3     13002    TIP3     OH2      OT      -0.834000       15.9994           0
     78401 TIP3     13002    TIP3     H1       HT       0.417000       1.00800           0
     78402 TIP3     13002    TIP3     H2       HT       0.417000       1.00800           0
     78403 TIP3     13003    TIP3     OH2      OT      -0.834000       15.9994           0
     78404 TIP3     13003    TIP3     H1       HT       0.417000       1.00800           0
     78405 TIP3     13003    TIP3     H2       HT       0.417000       1.00800           0
     78406 TIP3     13004    TIP3     OH2      OT      -0.834000       15.9994           0
     78407 TIP3     13004    TIP3     H1       HT       0.417000       1.00800           0
     78408 TIP3     13004    TIP3     H2       HT       0.417000       1.00800           0
     78409 TIP3     13005    TIP3     OH2      OT      -0.834000       15.9994           0
     78410 TIP3     13005    TIP3     H1       HT       0.417000       1.00800           0
     78411 TIP3     13005    TIP3     H2       HT       0.417000       1.00800           0
     78412 TIP3     13006    TIP3     OH2      OT      -0.834000       15.9994           0
     78413 TIP3     13006    TIP3     H1       HT       0.417000       1.00800           0
     78414 TIP3     13006    TIP3     H2       HT       0.417000       1.00800           0
     78415 TIP3     13007    TIP3     OH2      OT      -0.834000       15.9994           0
     78416 TIP3     13007    TIP3     H1       HT       0.417000       1.00800           0
     78417 TIP3     13007    TIP3     H2       HT       0.417000       1.00800           0
     78418 TIP3     13008    TIP3     OH2      OT      -0.834000       15.9994           0
     78419 TIP3     13008    TIP3     H1       HT       0.417000       1.00800           0
     78420 TIP3     13008    TIP3     H2       HT       0.417000       1.00800           0
     78421 TIP3     13009    TIP3     OH2      OT      -0.834000       15.9994           0
     78422 TIP3     13009    TIP3     H1       HT       0.417000       1.00800           0
     78423 TIP3     13009    TIP3     H2       HT       0.417000       1.00800           0
     78424 TIP3     13010    TIP3     OH2      OT      -0.834000       15.9994           0
     78425 TIP3     13010    TIP3     H1       HT       0.417000       1.00800           0
     78426 TIP3     13010    TIP3     H2       HT       0.417000       1.00800           0
     78427 TIP3     13011    TIP3     OH2      OT      -0.834000       15.9994           0
     78428 TIP3     13011    TIP3     H1       HT       0.417000       1.00800           0
     78429 TIP3     13011    TIP3     H2       HT       0.417000       1.00800           0
     78430 TIP3     13012    TIP3     OH2      OT      -0.834000       15.9994           0
     78431 TIP3     13012    TIP3     H1       HT       0.417000       1.00800           0
     78432 TIP3     13012    TIP3     H2       HT       0.417000       1.00800           0
     78433 TIP3     13013    TIP3     OH2      OT      -0.834000       15.9994           0
     78434 TIP3     13013    TIP3     H1       HT       0.417000       1.00800           0
     78435 TIP3     13013    TIP3     H2       HT       0.417000       1.00800           0
     78436 TIP3     13014    TIP3     OH2      OT      -0.834000       15.9994           0
     78437 TIP3     13014    TIP3     H1       HT       0.417000       1.00800           0
     78438 TIP3     13014    TIP3     H2       HT       0.417000       1.00800           0
     78439 TIP3     13015    TIP3     OH2      OT      -0.834000       15.9994           0
     78440 TIP3     13015    TIP3     H1       HT       0.417000       1.00800           0
     78441 TIP3     13015    TIP3     H2       HT       0.417000       1.00800           0
     78442 TIP3     13016    TIP3     OH2      OT      -0.834000       15.9994           0
     78443 TIP3     13016    TIP3     H1       HT       0.417000       1.00800           0
     78444 TIP3     13016    TIP3     H2       HT       0.417000       1.00800           0
     78445 TIP3     13017    TIP3     OH2      OT      -0.834000       15.9994           0
     78446 TIP3     13017    TIP3     H1       HT       0.417000       1.00800           0
     78447 TIP3     13017    TIP3     H2       HT       0.417000       1.00800           0
     78448 TIP3     13018    TIP3     OH2      OT      -0.834000       15.9994           0
     78449 TIP3     13018    TIP3     H1       HT       0.417000       1.00800           0
     78450 TIP3     13018    TIP3     H2       HT       0.417000       1.00800           0
     78451 TIP3     13019    TIP3     OH2      OT      -0.834000       15.9994           0
     78452 TIP3     13019    TIP3     H1       HT       0.417000       1.00800           0
     78453 TIP3     13019    TIP3     H2       HT       0.417000       1.00800           0
     78454 TIP3     13020    TIP3     OH2      OT      -0.834000       15.9994           0
     78455 TIP3     13020    TIP3     H1       HT       0.417000       1.00800           0
     78456 TIP3     13020    TIP3     H2       HT       0.417000       1.00800           0
     78457 TIP3     13021    TIP3     OH2      OT      -0.834000       15.9994           0
     78458 TIP3     13021    TIP3     H1       HT       0.417000       1.00800           0
     78459 TIP3     13021    TIP3     H2       HT       0.417000       1.00800           0
     78460 TIP3     13022    TIP3     OH2      OT      -0.834000       15.9994           0
     78461 TIP3     13022    TIP3     H1       HT       0.417000       1.00800           0
     78462 TIP3     13022    TIP3     H2       HT       0.417000       1.00800           0
     78463 TIP3     13023    TIP3     OH2      OT      -0.834000       15.9994           0
     78464 TIP3     13023    TIP3     H1       HT       0.417000       1.00800           0
     78465 TIP3     13023    TIP3     H2       HT       0.417000       1.00800           0
     78466 TIP3     13024    TIP3     OH2      OT      -0.834000       15.9994           0
     78467 TIP3     13024    TIP3     H1       HT       0.417000       1.00800           0
     78468 TIP3     13024    TIP3     H2       HT       0.417000       1.00800           0
     78469 TIP3     13025    TIP3     OH2      OT      -0.834000       15.9994           0
     78470 TIP3     13025    TIP3     H1       HT       0.417000       1.00800           0
     78471 TIP3     13025    TIP3     H2       HT       0.417000       1.00800           0
     78472 TIP3     13026    TIP3     OH2      OT      -0.834000       15.9994           0
     78473 TIP3     13026    TIP3     H1       HT       0.417000       1.00800           0
     78474 TIP3     13026    TIP3     H2       HT       0.417000       1.00800           0
     78475 TIP3     13027    TIP3     OH2      OT      -0.834000       15.9994           0
     78476 TIP3     13027    TIP3     H1       HT       0.417000       1.00800           0
     78477 TIP3     13027    TIP3     H2       HT       0.417000       1.00800           0
     78478 TIP3     13028    TIP3     OH2      OT      -0.834000       15.9994           0
     78479 TIP3     13028    TIP3     H1       HT       0.417000       1.00800           0
     78480 TIP3     13028    TIP3     H2       HT       0.417000       1.00800           0
     78481 TIP3     13029    TIP3     OH2      OT      -0.834000       15.9994           0
     78482 TIP3     13029    TIP3     H1       HT       0.417000       1.00800           0
     78483 TIP3     13029    TIP3     H2       HT       0.417000       1.00800           0
     78484 TIP3     13030    TIP3     OH2      OT      -0.834000       15.9994           0
     78485 TIP3     13030    TIP3     H1       HT       0.417000       1.00800           0
     78486 TIP3     13030    TIP3     H2       HT       0.417000       1.00800           0
     78487 TIP3     13031    TIP3     OH2      OT      -0.834000       15.9994           0
     78488 TIP3     13031    TIP3     H1       HT       0.417000       1.00800           0
     78489 TIP3     13031    TIP3     H2       HT       0.417000       1.00800           0
     78490 TIP3     13032    TIP3     OH2      OT      -0.834000       15.9994           0
     78491 TIP3     13032    TIP3     H1       HT       0.417000       1.00800           0
     78492 TIP3     13032    TIP3     H2       HT       0.417000       1.00800           0
     78493 TIP3     13033    TIP3     OH2      OT      -0.834000       15.9994           0
     78494 TIP3     13033    TIP3     H1       HT       0.417000       1.00800           0
     78495 TIP3     13033    TIP3     H2       HT       0.417000       1.00800           0
     78496 TIP3     13034    TIP3     OH2      OT      -0.834000       15.9994           0
     78497 TIP3     13034    TIP3     H1       HT       0.417000       1.00800           0
     78498 TIP3     13034    TIP3     H2       HT       0.417000       1.00800           0
     78499 TIP3     13035    TIP3     OH2      OT      -0.834000       15.9994           0
     78500 TIP3     13035    TIP3     H1       HT       0.417000       1.00800           0
     78501 TIP3     13035    TIP3     H2       HT       0.417000       1.00800           0
     78502 TIP3     13036    TIP3     OH2      OT      -0.834000       15.9994           0
     78503 TIP3     13036    TIP3     H1       HT       0.417000       1.00800           0
     78504 TIP3     13036    TIP3     H2       HT       0.417000       1.00800           0
     78505 TIP3     13037    TIP3     OH2      OT      -0.834000       15.9994           0
     78506 TIP3     13037    TIP3     H1       HT       0.417000       1.00800           0
     78507 TIP3     13037    TIP3     H2       HT       0.417000       1.00800           0
     78508 TIP3     13038    TIP3     OH2      OT      -0.834000       15.9994           0
     78509 TIP3     13038    TIP3     H1       HT       0.417000       1.00800           0
     78510 TIP3     13038    TIP3     H2       HT       0.417000       1.00800           0
     78511 TIP3     13039    TIP3     OH2      OT      -0.834000       15.9994           0
     78512 TIP3     13039    TIP3     H1       HT       0.417000       1.00800           0
     78513 TIP3     13039    TIP3     H2       HT       0.417000       1.00800           0
     78514 TIP3     13040    TIP3     OH2      OT      -0.834000       15.9994           0
     78515 TIP3     13040    TIP3     H1       HT       0.417000       1.00800           0
     78516 TIP3     13040    TIP3     H2       HT       0.417000       1.00800           0
     78517 TIP3     13041    TIP3     OH2      OT      -0.834000       15.9994           0
     78518 TIP3     13041    TIP3     H1       HT       0.417000       1.00800           0
     78519 TIP3     13041    TIP3     H2       HT       0.417000       1.00800           0
     78520 TIP3     13042    TIP3     OH2      OT      -0.834000       15.9994           0
     78521 TIP3     13042    TIP3     H1       HT       0.417000       1.00800           0
     78522 TIP3     13042    TIP3     H2       HT       0.417000       1.00800           0
     78523 TIP3     13043    TIP3     OH2      OT      -0.834000       15.9994           0
     78524 TIP3     13043    TIP3     H1       HT       0.417000       1.00800           0
     78525 TIP3     13043    TIP3     H2       HT       0.417000       1.00800           0
     78526 TIP3     13044    TIP3     OH2      OT      -0.834000       15.9994           0
     78527 TIP3     13044    TIP3     H1       HT       0.417000       1.00800           0
     78528 TIP3     13044    TIP3     H2       HT       0.417000       1.00800           0
     78529 TIP3     13045    TIP3     OH2      OT      -0.834000       15.9994           0
     78530 TIP3     13045    TIP3     H1       HT       0.417000       1.00800           0
     78531 TIP3     13045    TIP3     H2       HT       0.417000       1.00800           0
     78532 TIP3     13046    TIP3     OH2      OT      -0.834000       15.9994           0
     78533 TIP3     13046    TIP3     H1       HT       0.417000       1.00800           0
     78534 TIP3     13046    TIP3     H2       HT       0.417000       1.00800           0
     78535 TIP3     13047    TIP3     OH2      OT      -0.834000       15.9994           0
     78536 TIP3     13047    TIP3     H1       HT       0.417000       1.00800           0
     78537 TIP3     13047    TIP3     H2       HT       0.417000       1.00800           0
     78538 TIP3     13048    TIP3     OH2      OT      -0.834000       15.9994           0
     78539 TIP3     13048    TIP3     H1       HT       0.417000       1.00800           0
     78540 TIP3     13048    TIP3     H2       HT       0.417000       1.00800           0
     78541 TIP3     13049    TIP3     OH2      OT      -0.834000       15.9994           0
     78542 TIP3     13049    TIP3     H1       HT       0.417000       1.00800           0
     78543 TIP3     13049    TIP3     H2       HT       0.417000       1.00800           0
     78544 TIP3     13050    TIP3     OH2      OT      -0.834000       15.9994           0
     78545 TIP3     13050    TIP3     H1       HT       0.417000       1.00800           0
     78546 TIP3     13050    TIP3     H2       HT       0.417000       1.00800           0
     78547 TIP3     13051    TIP3     OH2      OT      -0.834000       15.9994           0
     78548 TIP3     13051    TIP3     H1       HT       0.417000       1.00800           0
     78549 TIP3     13051    TIP3     H2       HT       0.417000       1.00800           0
     78550 TIP3     13052    TIP3     OH2      OT      -0.834000       15.9994           0
     78551 TIP3     13052    TIP3     H1       HT       0.417000       1.00800           0
     78552 TIP3     13052    TIP3     H2       HT       0.417000       1.00800           0
     78553 TIP3     13053    TIP3     OH2      OT      -0.834000       15.9994           0
     78554 TIP3     13053    TIP3     H1       HT       0.417000       1.00800           0
     78555 TIP3     13053    TIP3     H2       HT       0.417000       1.00800           0
     78556 TIP3     13054    TIP3     OH2      OT      -0.834000       15.9994           0
     78557 TIP3     13054    TIP3     H1       HT       0.417000       1.00800           0
     78558 TIP3     13054    TIP3     H2       HT       0.417000       1.00800           0
     78559 TIP3     13055    TIP3     OH2      OT      -0.834000       15.9994           0
     78560 TIP3     13055    TIP3     H1       HT       0.417000       1.00800           0
     78561 TIP3     13055    TIP3     H2       HT       0.417000       1.00800           0
     78562 TIP3     13056    TIP3     OH2      OT      -0.834000       15.9994           0
     78563 TIP3     13056    TIP3     H1       HT       0.417000       1.00800           0
     78564 TIP3     13056    TIP3     H2       HT       0.417000       1.00800           0
     78565 TIP3     13057    TIP3     OH2      OT      -0.834000       15.9994           0
     78566 TIP3     13057    TIP3     H1       HT       0.417000       1.00800           0
     78567 TIP3     13057    TIP3     H2       HT       0.417000       1.00800           0
     78568 TIP3     13058    TIP3     OH2      OT      -0.834000       15.9994           0
     78569 TIP3     13058    TIP3     H1       HT       0.417000       1.00800           0
     78570 TIP3     13058    TIP3     H2       HT       0.417000       1.00800           0
     78571 TIP3     13059    TIP3     OH2      OT      -0.834000       15.9994           0
     78572 TIP3     13059    TIP3     H1       HT       0.417000       1.00800           0
     78573 TIP3     13059    TIP3     H2       HT       0.417000       1.00800           0
     78574 TIP3     13060    TIP3     OH2      OT      -0.834000       15.9994           0
     78575 TIP3     13060    TIP3     H1       HT       0.417000       1.00800           0
     78576 TIP3     13060    TIP3     H2       HT       0.417000       1.00800           0
     78577 TIP3     13061    TIP3     OH2      OT      -0.834000       15.9994           0
     78578 TIP3     13061    TIP3     H1       HT       0.417000       1.00800           0
     78579 TIP3     13061    TIP3     H2       HT       0.417000       1.00800           0
     78580 TIP3     13062    TIP3     OH2      OT      -0.834000       15.9994           0
     78581 TIP3     13062    TIP3     H1       HT       0.417000       1.00800           0
     78582 TIP3     13062    TIP3     H2       HT       0.417000       1.00800           0
     78583 TIP3     13063    TIP3     OH2      OT      -0.834000       15.9994           0
     78584 TIP3     13063    TIP3     H1       HT       0.417000       1.00800           0
     78585 TIP3     13063    TIP3     H2       HT       0.417000       1.00800           0
     78586 TIP3     13064    TIP3     OH2      OT      -0.834000       15.9994           0
     78587 TIP3     13064    TIP3     H1       HT       0.417000       1.00800           0
     78588 TIP3     13064    TIP3     H2       HT       0.417000       1.00800           0
     78589 TIP3     13065    TIP3     OH2      OT      -0.834000       15.9994           0
     78590 TIP3     13065    TIP3     H1       HT       0.417000       1.00800           0
     78591 TIP3     13065    TIP3     H2       HT       0.417000       1.00800           0
     78592 TIP3     13066    TIP3     OH2      OT      -0.834000       15.9994           0
     78593 TIP3     13066    TIP3     H1       HT       0.417000       1.00800           0
     78594 TIP3     13066    TIP3     H2       HT       0.417000       1.00800           0
     78595 TIP3     13067    TIP3     OH2      OT      -0.834000       15.9994           0
     78596 TIP3     13067    TIP3     H1       HT       0.417000       1.00800           0
     78597 TIP3     13067    TIP3     H2       HT       0.417000       1.00800           0
     78598 TIP3     13068    TIP3     OH2      OT      -0.834000       15.9994           0
     78599 TIP3     13068    TIP3     H1       HT       0.417000       1.00800           0
     78600 TIP3     13068    TIP3     H2       HT       0.417000       1.00800           0
     78601 TIP3     13069    TIP3     OH2      OT      -0.834000       15.9994           0
     78602 TIP3     13069    TIP3     H1       HT       0.417000       1.00800           0
     78603 TIP3     13069    TIP3     H2       HT       0.417000       1.00800           0
     78604 TIP3     13070    TIP3     OH2      OT      -0.834000       15.9994           0
     78605 TIP3     13070    TIP3     H1       HT       0.417000       1.00800           0
     78606 TIP3     13070    TIP3     H2       HT       0.417000       1.00800           0
     78607 TIP3     13071    TIP3     OH2      OT      -0.834000       15.9994           0
     78608 TIP3     13071    TIP3     H1       HT       0.417000       1.00800           0
     78609 TIP3     13071    TIP3     H2       HT       0.417000       1.00800           0
     78610 TIP3     13072    TIP3     OH2      OT      -0.834000       15.9994           0
     78611 TIP3     13072    TIP3     H1       HT       0.417000       1.00800           0
     78612 TIP3     13072    TIP3     H2       HT       0.417000       1.00800           0
     78613 TIP3     13073    TIP3     OH2      OT      -0.834000       15.9994           0
     78614 TIP3     13073    TIP3     H1       HT       0.417000       1.00800           0
     78615 TIP3     13073    TIP3     H2       HT       0.417000       1.00800           0
     78616 TIP3     13074    TIP3     OH2      OT      -0.834000       15.9994           0
     78617 TIP3     13074    TIP3     H1       HT       0.417000       1.00800           0
     78618 TIP3     13074    TIP3     H2       HT       0.417000       1.00800           0
     78619 TIP3     13075    TIP3     OH2      OT      -0.834000       15.9994           0
     78620 TIP3     13075    TIP3     H1       HT       0.417000       1.00800           0
     78621 TIP3     13075    TIP3     H2       HT       0.417000       1.00800           0
     78622 TIP3     13076    TIP3     OH2      OT      -0.834000       15.9994           0
     78623 TIP3     13076    TIP3     H1       HT       0.417000       1.00800           0
     78624 TIP3     13076    TIP3     H2       HT       0.417000       1.00800           0
     78625 TIP3     13077    TIP3     OH2      OT      -0.834000       15.9994           0
     78626 TIP3     13077    TIP3     H1       HT       0.417000       1.00800           0
     78627 TIP3     13077    TIP3     H2       HT       0.417000       1.00800           0
     78628 TIP3     13078    TIP3     OH2      OT      -0.834000       15.9994           0
     78629 TIP3     13078    TIP3     H1       HT       0.417000       1.00800           0
     78630 TIP3     13078    TIP3     H2       HT       0.417000       1.00800           0
     78631 TIP3     13079    TIP3     OH2      OT      -0.834000       15.9994           0
     78632 TIP3     13079    TIP3     H1       HT       0.417000       1.00800           0
     78633 TIP3     13079    TIP3     H2       HT       0.417000       1.00800           0
     78634 TIP3     13080    TIP3     OH2      OT      -0.834000       15.9994           0
     78635 TIP3     13080    TIP3     H1       HT       0.417000       1.00800           0
     78636 TIP3     13080    TIP3     H2       HT       0.417000       1.00800           0
     78637 TIP3     13081    TIP3     OH2      OT      -0.834000       15.9994           0
     78638 TIP3     13081    TIP3     H1       HT       0.417000       1.00800           0
     78639 TIP3     13081    TIP3     H2       HT       0.417000       1.00800           0
     78640 TIP3     13082    TIP3     OH2      OT      -0.834000       15.9994           0
     78641 TIP3     13082    TIP3     H1       HT       0.417000       1.00800           0
     78642 TIP3     13082    TIP3     H2       HT       0.417000       1.00800           0
     78643 TIP3     13083    TIP3     OH2      OT      -0.834000       15.9994           0
     78644 TIP3     13083    TIP3     H1       HT       0.417000       1.00800           0
     78645 TIP3     13083    TIP3     H2       HT       0.417000       1.00800           0
     78646 TIP3     13084    TIP3     OH2      OT      -0.834000       15.9994           0
     78647 TIP3     13084    TIP3     H1       HT       0.417000       1.00800           0
     78648 TIP3     13084    TIP3     H2       HT       0.417000       1.00800           0
     78649 TIP3     13085    TIP3     OH2      OT      -0.834000       15.9994           0
     78650 TIP3     13085    TIP3     H1       HT       0.417000       1.00800           0
     78651 TIP3     13085    TIP3     H2       HT       0.417000       1.00800           0
     78652 TIP3     13086    TIP3     OH2      OT      -0.834000       15.9994           0
     78653 TIP3     13086    TIP3     H1       HT       0.417000       1.00800           0
     78654 TIP3     13086    TIP3     H2       HT       0.417000       1.00800           0
     78655 TIP3     13087    TIP3     OH2      OT      -0.834000       15.9994           0
     78656 TIP3     13087    TIP3     H1       HT       0.417000       1.00800           0
     78657 TIP3     13087    TIP3     H2       HT       0.417000       1.00800           0
     78658 TIP3     13088    TIP3     OH2      OT      -0.834000       15.9994           0
     78659 TIP3     13088    TIP3     H1       HT       0.417000       1.00800           0
     78660 TIP3     13088    TIP3     H2       HT       0.417000       1.00800           0
     78661 TIP3     13089    TIP3     OH2      OT      -0.834000       15.9994           0
     78662 TIP3     13089    TIP3     H1       HT       0.417000       1.00800           0
     78663 TIP3     13089    TIP3     H2       HT       0.417000       1.00800           0
     78664 TIP3     13090    TIP3     OH2      OT      -0.834000       15.9994           0
     78665 TIP3     13090    TIP3     H1       HT       0.417000       1.00800           0
     78666 TIP3     13090    TIP3     H2       HT       0.417000       1.00800           0
     78667 TIP3     13091    TIP3     OH2      OT      -0.834000       15.9994           0
     78668 TIP3     13091    TIP3     H1       HT       0.417000       1.00800           0
     78669 TIP3     13091    TIP3     H2       HT       0.417000       1.00800           0
     78670 TIP3     13092    TIP3     OH2      OT      -0.834000       15.9994           0
     78671 TIP3     13092    TIP3     H1       HT       0.417000       1.00800           0
     78672 TIP3     13092    TIP3     H2       HT       0.417000       1.00800           0
     78673 TIP3     13093    TIP3     OH2      OT      -0.834000       15.9994           0
     78674 TIP3     13093    TIP3     H1       HT       0.417000       1.00800           0
     78675 TIP3     13093    TIP3     H2       HT       0.417000       1.00800           0
     78676 TIP3     13094    TIP3     OH2      OT      -0.834000       15.9994           0
     78677 TIP3     13094    TIP3     H1       HT       0.417000       1.00800           0
     78678 TIP3     13094    TIP3     H2       HT       0.417000       1.00800           0
     78679 TIP3     13095    TIP3     OH2      OT      -0.834000       15.9994           0
     78680 TIP3     13095    TIP3     H1       HT       0.417000       1.00800           0
     78681 TIP3     13095    TIP3     H2       HT       0.417000       1.00800           0
     78682 TIP3     13096    TIP3     OH2      OT      -0.834000       15.9994           0
     78683 TIP3     13096    TIP3     H1       HT       0.417000       1.00800           0
     78684 TIP3     13096    TIP3     H2       HT       0.417000       1.00800           0
     78685 TIP3     13097    TIP3     OH2      OT      -0.834000       15.9994           0
     78686 TIP3     13097    TIP3     H1       HT       0.417000       1.00800           0
     78687 TIP3     13097    TIP3     H2       HT       0.417000       1.00800           0
     78688 TIP3     13098    TIP3     OH2      OT      -0.834000       15.9994           0
     78689 TIP3     13098    TIP3     H1       HT       0.417000       1.00800           0
     78690 TIP3     13098    TIP3     H2       HT       0.417000       1.00800           0
     78691 TIP3     13099    TIP3     OH2      OT      -0.834000       15.9994           0
     78692 TIP3     13099    TIP3     H1       HT       0.417000       1.00800           0
     78693 TIP3     13099    TIP3     H2       HT       0.417000       1.00800           0
     78694 TIP3     13100    TIP3     OH2      OT      -0.834000       15.9994           0
     78695 TIP3     13100    TIP3     H1       HT       0.417000       1.00800           0
     78696 TIP3     13100    TIP3     H2       HT       0.417000       1.00800           0
     78697 TIP3     13101    TIP3     OH2      OT      -0.834000       15.9994           0
     78698 TIP3     13101    TIP3     H1       HT       0.417000       1.00800           0
     78699 TIP3     13101    TIP3     H2       HT       0.417000       1.00800           0
     78700 TIP3     13102    TIP3     OH2      OT      -0.834000       15.9994           0
     78701 TIP3     13102    TIP3     H1       HT       0.417000       1.00800           0
     78702 TIP3     13102    TIP3     H2       HT       0.417000       1.00800           0
     78703 TIP3     13103    TIP3     OH2      OT      -0.834000       15.9994           0
     78704 TIP3     13103    TIP3     H1       HT       0.417000       1.00800           0
     78705 TIP3     13103    TIP3     H2       HT       0.417000       1.00800           0
     78706 TIP3     13104    TIP3     OH2      OT      -0.834000       15.9994           0
     78707 TIP3     13104    TIP3     H1       HT       0.417000       1.00800           0
     78708 TIP3     13104    TIP3     H2       HT       0.417000       1.00800           0
     78709 TIP3     13105    TIP3     OH2      OT      -0.834000       15.9994           0
     78710 TIP3     13105    TIP3     H1       HT       0.417000       1.00800           0
     78711 TIP3     13105    TIP3     H2       HT       0.417000       1.00800           0
     78712 TIP3     13106    TIP3     OH2      OT      -0.834000       15.9994           0
     78713 TIP3     13106    TIP3     H1       HT       0.417000       1.00800           0
     78714 TIP3     13106    TIP3     H2       HT       0.417000       1.00800           0
     78715 TIP3     13107    TIP3     OH2      OT      -0.834000       15.9994           0
     78716 TIP3     13107    TIP3     H1       HT       0.417000       1.00800           0
     78717 TIP3     13107    TIP3     H2       HT       0.417000       1.00800           0
     78718 TIP3     13108    TIP3     OH2      OT      -0.834000       15.9994           0
     78719 TIP3     13108    TIP3     H1       HT       0.417000       1.00800           0
     78720 TIP3     13108    TIP3     H2       HT       0.417000       1.00800           0
     78721 TIP3     13109    TIP3     OH2      OT      -0.834000       15.9994           0
     78722 TIP3     13109    TIP3     H1       HT       0.417000       1.00800           0
     78723 TIP3     13109    TIP3     H2       HT       0.417000       1.00800           0
     78724 TIP3     13110    TIP3     OH2      OT      -0.834000       15.9994           0
     78725 TIP3     13110    TIP3     H1       HT       0.417000       1.00800           0
     78726 TIP3     13110    TIP3     H2       HT       0.417000       1.00800           0
     78727 TIP3     13111    TIP3     OH2      OT      -0.834000       15.9994           0
     78728 TIP3     13111    TIP3     H1       HT       0.417000       1.00800           0
     78729 TIP3     13111    TIP3     H2       HT       0.417000       1.00800           0
     78730 TIP3     13112    TIP3     OH2      OT      -0.834000       15.9994           0
     78731 TIP3     13112    TIP3     H1       HT       0.417000       1.00800           0
     78732 TIP3     13112    TIP3     H2       HT       0.417000       1.00800           0
     78733 TIP3     13113    TIP3     OH2      OT      -0.834000       15.9994           0
     78734 TIP3     13113    TIP3     H1       HT       0.417000       1.00800           0
     78735 TIP3     13113    TIP3     H2       HT       0.417000       1.00800           0
     78736 TIP3     13114    TIP3     OH2      OT      -0.834000       15.9994           0
     78737 TIP3     13114    TIP3     H1       HT       0.417000       1.00800           0
     78738 TIP3     13114    TIP3     H2       HT       0.417000       1.00800           0
     78739 TIP3     13115    TIP3     OH2      OT      -0.834000       15.9994           0
     78740 TIP3     13115    TIP3     H1       HT       0.417000       1.00800           0
     78741 TIP3     13115    TIP3     H2       HT       0.417000       1.00800           0
     78742 TIP3     13116    TIP3     OH2      OT      -0.834000       15.9994           0
     78743 TIP3     13116    TIP3     H1       HT       0.417000       1.00800           0
     78744 TIP3     13116    TIP3     H2       HT       0.417000       1.00800           0
     78745 TIP3     13117    TIP3     OH2      OT      -0.834000       15.9994           0
     78746 TIP3     13117    TIP3     H1       HT       0.417000       1.00800           0
     78747 TIP3     13117    TIP3     H2       HT       0.417000       1.00800           0
     78748 TIP3     13118    TIP3     OH2      OT      -0.834000       15.9994           0
     78749 TIP3     13118    TIP3     H1       HT       0.417000       1.00800           0
     78750 TIP3     13118    TIP3     H2       HT       0.417000       1.00800           0
     78751 TIP3     13119    TIP3     OH2      OT      -0.834000       15.9994           0
     78752 TIP3     13119    TIP3     H1       HT       0.417000       1.00800           0
     78753 TIP3     13119    TIP3     H2       HT       0.417000       1.00800           0
     78754 TIP3     13120    TIP3     OH2      OT      -0.834000       15.9994           0
     78755 TIP3     13120    TIP3     H1       HT       0.417000       1.00800           0
     78756 TIP3     13120    TIP3     H2       HT       0.417000       1.00800           0
     78757 TIP3     13121    TIP3     OH2      OT      -0.834000       15.9994           0
     78758 TIP3     13121    TIP3     H1       HT       0.417000       1.00800           0
     78759 TIP3     13121    TIP3     H2       HT       0.417000       1.00800           0
     78760 TIP3     13122    TIP3     OH2      OT      -0.834000       15.9994           0
     78761 TIP3     13122    TIP3     H1       HT       0.417000       1.00800           0
     78762 TIP3     13122    TIP3     H2       HT       0.417000       1.00800           0
     78763 TIP3     13123    TIP3     OH2      OT      -0.834000       15.9994           0
     78764 TIP3     13123    TIP3     H1       HT       0.417000       1.00800           0
     78765 TIP3     13123    TIP3     H2       HT       0.417000       1.00800           0
     78766 TIP3     13124    TIP3     OH2      OT      -0.834000       15.9994           0
     78767 TIP3     13124    TIP3     H1       HT       0.417000       1.00800           0
     78768 TIP3     13124    TIP3     H2       HT       0.417000       1.00800           0
     78769 TIP3     13125    TIP3     OH2      OT      -0.834000       15.9994           0
     78770 TIP3     13125    TIP3     H1       HT       0.417000       1.00800           0
     78771 TIP3     13125    TIP3     H2       HT       0.417000       1.00800           0
     78772 TIP3     13126    TIP3     OH2      OT      -0.834000       15.9994           0
     78773 TIP3     13126    TIP3     H1       HT       0.417000       1.00800           0
     78774 TIP3     13126    TIP3     H2       HT       0.417000       1.00800           0
     78775 TIP3     13127    TIP3     OH2      OT      -0.834000       15.9994           0
     78776 TIP3     13127    TIP3     H1       HT       0.417000       1.00800           0
     78777 TIP3     13127    TIP3     H2       HT       0.417000       1.00800           0
     78778 TIP3     13128    TIP3     OH2      OT      -0.834000       15.9994           0
     78779 TIP3     13128    TIP3     H1       HT       0.417000       1.00800           0
     78780 TIP3     13128    TIP3     H2       HT       0.417000       1.00800           0
     78781 TIP3     13129    TIP3     OH2      OT      -0.834000       15.9994           0
     78782 TIP3     13129    TIP3     H1       HT       0.417000       1.00800           0
     78783 TIP3     13129    TIP3     H2       HT       0.417000       1.00800           0
     78784 TIP3     13130    TIP3     OH2      OT      -0.834000       15.9994           0
     78785 TIP3     13130    TIP3     H1       HT       0.417000       1.00800           0
     78786 TIP3     13130    TIP3     H2       HT       0.417000       1.00800           0
     78787 TIP3     13131    TIP3     OH2      OT      -0.834000       15.9994           0
     78788 TIP3     13131    TIP3     H1       HT       0.417000       1.00800           0
     78789 TIP3     13131    TIP3     H2       HT       0.417000       1.00800           0
     78790 TIP3     13132    TIP3     OH2      OT      -0.834000       15.9994           0
     78791 TIP3     13132    TIP3     H1       HT       0.417000       1.00800           0
     78792 TIP3     13132    TIP3     H2       HT       0.417000       1.00800           0
     78793 TIP3     13133    TIP3     OH2      OT      -0.834000       15.9994           0
     78794 TIP3     13133    TIP3     H1       HT       0.417000       1.00800           0
     78795 TIP3     13133    TIP3     H2       HT       0.417000       1.00800           0
     78796 TIP3     13134    TIP3     OH2      OT      -0.834000       15.9994           0
     78797 TIP3     13134    TIP3     H1       HT       0.417000       1.00800           0
     78798 TIP3     13134    TIP3     H2       HT       0.417000       1.00800           0
     78799 TIP3     13135    TIP3     OH2      OT      -0.834000       15.9994           0
     78800 TIP3     13135    TIP3     H1       HT       0.417000       1.00800           0
     78801 TIP3     13135    TIP3     H2       HT       0.417000       1.00800           0
     78802 TIP3     13136    TIP3     OH2      OT      -0.834000       15.9994           0
     78803 TIP3     13136    TIP3     H1       HT       0.417000       1.00800           0
     78804 TIP3     13136    TIP3     H2       HT       0.417000       1.00800           0
     78805 TIP3     13137    TIP3     OH2      OT      -0.834000       15.9994           0
     78806 TIP3     13137    TIP3     H1       HT       0.417000       1.00800           0
     78807 TIP3     13137    TIP3     H2       HT       0.417000       1.00800           0
     78808 TIP3     13138    TIP3     OH2      OT      -0.834000       15.9994           0
     78809 TIP3     13138    TIP3     H1       HT       0.417000       1.00800           0
     78810 TIP3     13138    TIP3     H2       HT       0.417000       1.00800           0
     78811 TIP3     13139    TIP3     OH2      OT      -0.834000       15.9994           0
     78812 TIP3     13139    TIP3     H1       HT       0.417000       1.00800           0
     78813 TIP3     13139    TIP3     H2       HT       0.417000       1.00800           0
     78814 TIP3     13140    TIP3     OH2      OT      -0.834000       15.9994           0
     78815 TIP3     13140    TIP3     H1       HT       0.417000       1.00800           0
     78816 TIP3     13140    TIP3     H2       HT       0.417000       1.00800           0
     78817 TIP3     13141    TIP3     OH2      OT      -0.834000       15.9994           0
     78818 TIP3     13141    TIP3     H1       HT       0.417000       1.00800           0
     78819 TIP3     13141    TIP3     H2       HT       0.417000       1.00800           0
     78820 TIP3     13142    TIP3     OH2      OT      -0.834000       15.9994           0
     78821 TIP3     13142    TIP3     H1       HT       0.417000       1.00800           0
     78822 TIP3     13142    TIP3     H2       HT       0.417000       1.00800           0
     78823 TIP3     13143    TIP3     OH2      OT      -0.834000       15.9994           0
     78824 TIP3     13143    TIP3     H1       HT       0.417000       1.00800           0
     78825 TIP3     13143    TIP3     H2       HT       0.417000       1.00800           0
     78826 TIP3     13144    TIP3     OH2      OT      -0.834000       15.9994           0
     78827 TIP3     13144    TIP3     H1       HT       0.417000       1.00800           0
     78828 TIP3     13144    TIP3     H2       HT       0.417000       1.00800           0
     78829 TIP3     13145    TIP3     OH2      OT      -0.834000       15.9994           0
     78830 TIP3     13145    TIP3     H1       HT       0.417000       1.00800           0
     78831 TIP3     13145    TIP3     H2       HT       0.417000       1.00800           0
     78832 TIP3     13146    TIP3     OH2      OT      -0.834000       15.9994           0
     78833 TIP3     13146    TIP3     H1       HT       0.417000       1.00800           0
     78834 TIP3     13146    TIP3     H2       HT       0.417000       1.00800           0
     78835 TIP3     13147    TIP3     OH2      OT      -0.834000       15.9994           0
     78836 TIP3     13147    TIP3     H1       HT       0.417000       1.00800           0
     78837 TIP3     13147    TIP3     H2       HT       0.417000       1.00800           0
     78838 TIP3     13148    TIP3     OH2      OT      -0.834000       15.9994           0
     78839 TIP3     13148    TIP3     H1       HT       0.417000       1.00800           0
     78840 TIP3     13148    TIP3     H2       HT       0.417000       1.00800           0
     78841 TIP3     13149    TIP3     OH2      OT      -0.834000       15.9994           0
     78842 TIP3     13149    TIP3     H1       HT       0.417000       1.00800           0
     78843 TIP3     13149    TIP3     H2       HT       0.417000       1.00800           0
     78844 TIP3     13150    TIP3     OH2      OT      -0.834000       15.9994           0
     78845 TIP3     13150    TIP3     H1       HT       0.417000       1.00800           0
     78846 TIP3     13150    TIP3     H2       HT       0.417000       1.00800           0
     78847 TIP3     13151    TIP3     OH2      OT      -0.834000       15.9994           0
     78848 TIP3     13151    TIP3     H1       HT       0.417000       1.00800           0
     78849 TIP3     13151    TIP3     H2       HT       0.417000       1.00800           0
     78850 TIP3     13152    TIP3     OH2      OT      -0.834000       15.9994           0
     78851 TIP3     13152    TIP3     H1       HT       0.417000       1.00800           0
     78852 TIP3     13152    TIP3     H2       HT       0.417000       1.00800           0
     78853 TIP3     13153    TIP3     OH2      OT      -0.834000       15.9994           0
     78854 TIP3     13153    TIP3     H1       HT       0.417000       1.00800           0
     78855 TIP3     13153    TIP3     H2       HT       0.417000       1.00800           0
     78856 TIP3     13154    TIP3     OH2      OT      -0.834000       15.9994           0
     78857 TIP3     13154    TIP3     H1       HT       0.417000       1.00800           0
     78858 TIP3     13154    TIP3     H2       HT       0.417000       1.00800           0
     78859 TIP3     13155    TIP3     OH2      OT      -0.834000       15.9994           0
     78860 TIP3     13155    TIP3     H1       HT       0.417000       1.00800           0
     78861 TIP3     13155    TIP3     H2       HT       0.417000       1.00800           0
     78862 TIP3     13156    TIP3     OH2      OT      -0.834000       15.9994           0
     78863 TIP3     13156    TIP3     H1       HT       0.417000       1.00800           0
     78864 TIP3     13156    TIP3     H2       HT       0.417000       1.00800           0
     78865 TIP3     13157    TIP3     OH2      OT      -0.834000       15.9994           0
     78866 TIP3     13157    TIP3     H1       HT       0.417000       1.00800           0
     78867 TIP3     13157    TIP3     H2       HT       0.417000       1.00800           0
     78868 TIP3     13158    TIP3     OH2      OT      -0.834000       15.9994           0
     78869 TIP3     13158    TIP3     H1       HT       0.417000       1.00800           0
     78870 TIP3     13158    TIP3     H2       HT       0.417000       1.00800           0
     78871 TIP3     13159    TIP3     OH2      OT      -0.834000       15.9994           0
     78872 TIP3     13159    TIP3     H1       HT       0.417000       1.00800           0
     78873 TIP3     13159    TIP3     H2       HT       0.417000       1.00800           0
     78874 TIP3     13160    TIP3     OH2      OT      -0.834000       15.9994           0
     78875 TIP3     13160    TIP3     H1       HT       0.417000       1.00800           0
     78876 TIP3     13160    TIP3     H2       HT       0.417000       1.00800           0
     78877 TIP3     13161    TIP3     OH2      OT      -0.834000       15.9994           0
     78878 TIP3     13161    TIP3     H1       HT       0.417000       1.00800           0
     78879 TIP3     13161    TIP3     H2       HT       0.417000       1.00800           0
     78880 TIP3     13162    TIP3     OH2      OT      -0.834000       15.9994           0
     78881 TIP3     13162    TIP3     H1       HT       0.417000       1.00800           0
     78882 TIP3     13162    TIP3     H2       HT       0.417000       1.00800           0
     78883 TIP3     13163    TIP3     OH2      OT      -0.834000       15.9994           0
     78884 TIP3     13163    TIP3     H1       HT       0.417000       1.00800           0
     78885 TIP3     13163    TIP3     H2       HT       0.417000       1.00800           0
     78886 TIP3     13164    TIP3     OH2      OT      -0.834000       15.9994           0
     78887 TIP3     13164    TIP3     H1       HT       0.417000       1.00800           0
     78888 TIP3     13164    TIP3     H2       HT       0.417000       1.00800           0
     78889 TIP3     13165    TIP3     OH2      OT      -0.834000       15.9994           0
     78890 TIP3     13165    TIP3     H1       HT       0.417000       1.00800           0
     78891 TIP3     13165    TIP3     H2       HT       0.417000       1.00800           0
     78892 TIP3     13166    TIP3     OH2      OT      -0.834000       15.9994           0
     78893 TIP3     13166    TIP3     H1       HT       0.417000       1.00800           0
     78894 TIP3     13166    TIP3     H2       HT       0.417000       1.00800           0
     78895 TIP3     13167    TIP3     OH2      OT      -0.834000       15.9994           0
     78896 TIP3     13167    TIP3     H1       HT       0.417000       1.00800           0
     78897 TIP3     13167    TIP3     H2       HT       0.417000       1.00800           0
     78898 TIP3     13168    TIP3     OH2      OT      -0.834000       15.9994           0
     78899 TIP3     13168    TIP3     H1       HT       0.417000       1.00800           0
     78900 TIP3     13168    TIP3     H2       HT       0.417000       1.00800           0
     78901 TIP3     13169    TIP3     OH2      OT      -0.834000       15.9994           0
     78902 TIP3     13169    TIP3     H1       HT       0.417000       1.00800           0
     78903 TIP3     13169    TIP3     H2       HT       0.417000       1.00800           0
     78904 TIP3     13170    TIP3     OH2      OT      -0.834000       15.9994           0
     78905 TIP3     13170    TIP3     H1       HT       0.417000       1.00800           0
     78906 TIP3     13170    TIP3     H2       HT       0.417000       1.00800           0
     78907 IONS     1        POT      POT      POT      1.00000        39.0983           0
     78908 IONS     2        POT      POT      POT      1.00000        39.0983           0
     78909 IONS     3        POT      POT      POT      1.00000        39.0983           0
     78910 IONS     4        POT      POT      POT      1.00000        39.0983           0
     78911 IONS     5        POT      POT      POT      1.00000        39.0983           0
     78912 IONS     6        POT      POT      POT      1.00000        39.0983           0
     78913 IONS     7        POT      POT      POT      1.00000        39.0983           0
     78914 IONS     8        POT      POT      POT      1.00000        39.0983           0
     78915 IONS     9        POT      POT      POT      1.00000        39.0983           0
     78916 IONS     10       POT      POT      POT      1.00000        39.0983           0
     78917 IONS     11       POT      POT      POT      1.00000        39.0983           0
     78918 IONS     12       POT      POT      POT      1.00000        39.0983           0
     78919 IONS     13       POT      POT      POT      1.00000        39.0983           0
     78920 IONS     14       POT      POT      POT      1.00000        39.0983           0
     78921 IONS     15       POT      POT      POT      1.00000        39.0983           0
     78922 IONS     16       POT      POT      POT      1.00000        39.0983           0
     78923 IONS     17       POT      POT      POT      1.00000        39.0983           0
     78924 IONS     18       POT      POT      POT      1.00000        39.0983           0
     78925 IONS     19       POT      POT      POT      1.00000        39.0983           0
     78926 IONS     20       POT      POT      POT      1.00000        39.0983           0
     78927 IONS     21       POT      POT      POT      1.00000        39.0983           0
     78928 IONS     22       POT      POT      POT      1.00000        39.0983           0
     78929 IONS     23       POT      POT      POT      1.00000        39.0983           0
     78930 IONS     24       POT      POT      POT      1.00000        39.0983           0
     78931 IONS     25       POT      POT      POT      1.00000        39.0983           0
     78932 IONS     26       POT      POT      POT      1.00000        39.0983           0
     78933 IONS     27       POT      POT      POT      1.00000        39.0983           0
     78934 IONS     28       POT      POT      POT      1.00000        39.0983           0
     78935 IONS     29       POT      POT      POT      1.00000        39.0983           0
     78936 IONS     30       POT      POT      POT      1.00000        39.0983           0
     78937 IONS     31       POT      POT      POT      1.00000        39.0983           0
     78938 IONS     32       POT      POT      POT      1.00000        39.0983           0
     78939 IONS     33       POT      POT      POT      1.00000        39.0983           0
     78940 IONS     34       POT      POT      POT      1.00000        39.0983           0
     78941 IONS     35       CLA      CLA      CLA     -1.00000        35.4500           0
     78942 IONS     36       CLA      CLA      CLA     -1.00000        35.4500           0
     78943 IONS     37       CLA      CLA      CLA     -1.00000        35.4500           0
     78944 IONS     38       CLA      CLA      CLA     -1.00000        35.4500           0
     78945 IONS     39       CLA      CLA      CLA     -1.00000        35.4500           0
     78946 IONS     40       CLA      CLA      CLA     -1.00000        35.4500           0
     78947 IONS     41       CLA      CLA      CLA     -1.00000        35.4500           0
     78948 IONS     42       CLA      CLA      CLA     -1.00000        35.4500           0
     78949 IONS     43       CLA      CLA      CLA     -1.00000        35.4500           0
     78950 IONS     44       CLA      CLA      CLA     -1.00000        35.4500           0
     78951 IONS     45       CLA      CLA      CLA     -1.00000        35.4500           0
     78952 IONS     46       CLA      CLA      CLA     -1.00000        35.4500           0
     78953 IONS     47       CLA      CLA      CLA     -1.00000        35.4500           0
     78954 IONS     48       CLA      CLA      CLA     -1.00000        35.4500           0
     78955 IONS     49       CLA      CLA      CLA     -1.00000        35.4500           0
     78956 IONS     50       CLA      CLA      CLA     -1.00000        35.4500           0
     78957 IONS     51       CLA      CLA      CLA     -1.00000        35.4500           0
     78958 IONS     52       CLA      CLA      CLA     -1.00000        35.4500           0
     78959 IONS     53       CLA      CLA      CLA     -1.00000        35.4500           0
     78960 IONS     54       CLA      CLA      CLA     -1.00000        35.4500           0
     78961 IONS     55       CLA      CLA      CLA     -1.00000        35.4500           0
     78962 IONS     56       CLA      CLA      CLA     -1.00000        35.4500           0
     78963 IONS     57       CLA      CLA      CLA     -1.00000        35.4500           0
     78964 IONS     58       CLA      CLA      CLA     -1.00000        35.4500           0
     78965 IONS     59       CLA      CLA      CLA     -1.00000        35.4500           0
     78966 IONS     60       CLA      CLA      CLA     -1.00000        35.4500           0
     78967 IONS     61       CLA      CLA      CLA     -1.00000        35.4500           0
     78968 IONS     62       CLA      CLA      CLA     -1.00000        35.4500           0
     78969 IONS     63       CLA      CLA      CLA     -1.00000        35.4500           0
     78970 IONS     64       CLA      CLA      CLA     -1.00000        35.4500           0
     78971 IONS     65       CLA      CLA      CLA     -1.00000        35.4500           0
     78972 IONS     66       CLA      CLA      CLA     -1.00000        35.4500           0
     78973 IONS     67       CLA      CLA      CLA     -1.00000        35.4500           0
     78974 IONS     68       CLA      CLA      CLA     -1.00000        35.4500           0

     78612 !NBOND: bonds
         1         5         1         9         1        13         5         6
         5         7         5         8         9        10         9        11
         9        12        13        14        13        15        13        16
         1         2         2         3         2         4         2        17
        17        18        17        19        17        23        24        25
        23        20        20        24        20        21        20        22
        25        26        25        27        25        28        28        29
        28        36        28        30        36        37        36        38
        36        39        30        31        31        33        31        32
        33        34        33        35        33        45        45        46
        45        47        45        48        48        49        48        50
        48        51        51        52        51        53        51        54
        54        55        54        56        54        57        57        58
        57        59        57        60        60        61        60        62
        60        63        63        64        63        65        65        66
        65        67        67        68        67        69        67        70
        70        71        70        72        70        73        73        74
        73        75        73        76        76        77        76        78
        76        79        79        80        79        81        79        82
        82        83        82        84        82        85        85        86
        85        87        85        88        88        89        88        90
        88        91        39        40        40        42        40        41
        42        43        42        44        42        92        92        93
        92        94        92        95        95        96        95        97
        95        98        98        99        98       100        98       101
       101       102       101       103       101       104       104       105
       104       106       104       107       107       108       107       109
       107       110       110       111       110       112       110       113
       113       114       113       115       113       116       116       117
       116       118       116       119       119       120       119       121
       119       122       122       123       122       124       122       125
       125       126       125       127       125       128       128       129
       128       130       128       131       131       132       131       133
       131       134       135       139       135       143       135       147
       139       140       139       141       139       142       143       144
       143       145       143       146       147       148       147       149
       147       150       135       136       136       137       136       138
       136       151       151       152       151       153       151       157
       158       159       157       154       154       158       154       155
       154       156       159       160       159       161       159       162
       162       163       162       170       162       164       170       171
       170       172       170       173       164       165       165       167
       165       166       167       168       167       169       167       179
       179       180       179       181       179       182       182       183
       182       184       182       185       185       186       185       187
       185       188       188       189       188       190       188       191
       191       192       191       193       191       194       194       195
       194       196       194       197       197       198       197       199
       199       200       199       201       201       202       201       203
       201       204       204       205       204       206       204       207
       207       208       207       209       207       210       210       211
       210       212       210       213       213       214       213       215
       213       216       216       217       216       218       216       219
       219       220       219       221       219       222       222       223
       222       224       222       225       173       174       174       176
       174       175       176       177       176       178       176       226
       226       227       226       228       226       229       229       230
       229       231       229       232       232       233       232       234
       232       235       235       236       235       237       235       238
       238       239       238       240       238       241       241       242
       241       243       241       244       244       245       244       246
       244       247       247       248       247       249       247       250
       250       251       250       252       250       253       253       254
       253       255       253       256       256       257       256       258
       256       259       259       260       259       261       259       262
       262       263       262       264       262       265       265       266
       265       267       265       268       269       273       269       277
       269       281       273       274       273       275       273       276
       277       278       277       279       277       280       281       282
       281       283       281       284       269       270       270       271
       270       272       270       285       285       286       285       287
       285       291       292       293       291       288       288       292
       288       289       288       290       293       294       293       295
       293       296       296       297       296       304       296       298
       304       305       304       306       304       307       298       299
       299       301       299       300       301       302       301       303
       301       313       313       314       313       315       313       316
       316       317       316       318       316       319       319       320
       319       321       319       322       322       323       322       324
       322       325       325       326       325       327       325       328
       328       329       328       330       328       331       331       332
       331       333       333       334       333       335       335       336
       335       337       335       338       338       339       338       340
       338       341       341       342       341       343       341       344
       344       345       344       346       344       347       347       348
       347       349       347       350       350       351       350       352
       350       353       353       354       353       355       353       356
       356       357       356       358       356       359       307       308
       308       310       308       309       310       311       310       312
       310       360       360       361       360       362       360       363
       363       364       363       365       363       366       366       367
       366       368       366       369       369       370       369       371
       369       372       372       373       372       374       372       375
       375       376       375       377       375       378       378       379
       378       380       378       381       381       382       381       383
       381       384       384       385       384       386       384       387
       387       388       387       389       387       390       390       391
       390       392       390       393       393       394       393       395
       393       396       396       397       396       398       396       399
       399       400       399       401       399       402       403       407
       403       411       403       415       407       408       407       409
       407       410       411       412       411       413       411       414
       415       416       415       417       415       418       403       404
       404       405       404       406       404       419       419       420
       419       421       419       425       426       427       425       422
       422       426       422       423       422       424       427       428
       427       429       427       430       430       431       430       438
       430       432       438       439       438       440       438       441
       432       433       433       435       433       434       435       436
       435       437       435       447       447       448       447       449
       447       450       450       451       450       452       450       453
       453       454       453       455       453       456       456       457
       456       458       456       459       459       460       459       461
       459       462       462       463       462       464       462       465
       465       466       465       467       467       468       467       469
       469       470       469       471       469       472       472       473
       472       474       472       475       475       476       475       477
       475       478       478       479       478       480       478       481
       481       482       481       483       481       484       484       485
       484       486       484       487       487       488       487       489
       487       490       490       491       490       492       490       493
       441       442       442       444       442       443       444       445
       444       446       444       494       494       495       494       496
       494       497       497       498       497       499       497       500
       500       501       500       502       500       503       503       504
       503       505       503       506       506       507       506       508
       506       509       509       510       509       511       509       512
       512       513       512       514       512       515       515       516
       515       517       515       518       518       519       518       520
       518       521       521       522       521       523       521       524
       524       525       524       526       524       527       527       528
       527       529       527       530       530       531       530       532
       530       533       533       534       533       535       533       536
       537       541       537       545       537       549       541       542
       541       543       541       544       545       546       545       547
       545       548       549       550       549       551       549       552
       537       538       538       539       538       540       538       553
       553       554       553       555       553       559       560       561
       559       556       556       560       556       557       556       558
       561       562       561       563       561       564       564       565
       564       572       564       566       572       573       572       574
       572       575       566       567       567       569       567       568
       569       570       569       571       569       581       581       582
       581       583       581       584       584       585       584       586
       584       587       587       588       587       589       587       590
       590       591       590       592       590       593       593       594
       593       595       593       596       596       597       596       598
       596       599       599       600       599       601       601       602
       601       603       603       604       603       605       603       606
       606       607       606       608       606       609       609       610
       609       611       609       612       612       613       612       614
       612       615       615       616       615       617       615       618
       618       619       618       620       618       621       621       622
       621       623       621       624       624       625       624       626
       624       627       575       576       576       578       576       577
       578       579       578       580       578       628       628       629
       628       630       628       631       631       632       631       633
       631       634       634       635       634       636       634       637
       637       638       637       639       637       640       640       641
       640       642       640       643       643       644       643       645
       643       646       646       647       646       648       646       649
       649       650       649       651       649       652       652       653
       652       654       652       655       655       656       655       657
       655       658       658       659       658       660       658       661
       661       662       661       663       661       664       664       665
       664       666       664       667       667       668       667       669
       667       670       671       675       671       679       671       683
       675       676       675       677       675       678       679       680
       679       681       679       682       683       684       683       685
       683       686       671       672       672       673       672       674
       672       687       687       688       687       689       687       693
       694       695       693       690       690       694       690       691
       690       692       695       696       695       697       695       698
       698       699       698       706       698       700       706       707
       706       708       706       709       700       701       701       703
       701       702       703       704       703       705       703       715
       715       716       715       717       715       718       718       719
       718       720       718       721       721       722       721       723
       721       724       724       725       724       726       724       727
       727       728       727       729       727       730       730       731
       730       732       730       733       733       734       733       735
       735       736       735       737       737       738       737       739
       737       740       740       741       740       742       740       743
       743       744       743       745       743       746       746       747
       746       748       746       749       749       750       749       751
       749       752       752       753       752       754       752       755
       755       756       755       757       755       758       758       759
       758       760       758       761       709       710       710       712
       710       711       712       713       712       714       712       762
       762       763       762       764       762       765       765       766
       765       767       765       768       768       769       768       770
       768       771       771       772       771       773       771       774
       774       775       774       776       774       777       777       778
       777       779       777       780       780       781       780       782
       780       783       783       784       783       785       783       786
       786       787       786       788       786       789       789       790
       789       791       789       792       792       793       792       794
       792       795       795       796       795       797       795       798
       798       799       798       800       798       801       801       802
       801       803       801       804       805       809       805       813
       805       817       809       810       809       811       809       812
       813       814       813       815       813       816       817       818
       817       819       817       820       805       806       806       807
       806       808       806       821       821       822       821       823
       821       827       828       829       827       824       824       828
       824       825       824       826       829       830       829       831
       829       832       832       833       832       840       832       834
       840       841       840       842       840       843       834       835
       835       837       835       836       837       838       837       839
       837       849       849       850       849       851       849       852
       852       853       852       854       852       855       855       856
       855       857       855       858       858       859       858       860
       858       861       861       862       861       863       861       864
       864       865       864       866       864       867       867       868
       867       869       869       870       869       871       871       872
       871       873       871       874       874       875       874       876
       874       877       877       878       877       879       877       880
       880       881       880       882       880       883       883       884
       883       885       883       886       886       887       886       888
       886       889       889       890       889       891       889       892
       892       893       892       894       892       895       843       844
       844       846       844       845       846       847       846       848
       846       896       896       897       896       898       896       899
       899       900       899       901       899       902       902       903
       902       904       902       905       905       906       905       907
       905       908       908       909       908       910       908       911
       911       912       911       913       911       914       914       915
       914       916       914       917       917       918       917       919
       917       920       920       921       920       922       920       923
       923       924       923       925       923       926       926       927
       926       928       926       929       929       930       929       931
       929       932       932       933       932       934       932       935
       935       936       935       937       935       938       939       943
       939       947       939       951       943       944       943       945
       943       946       947       948       947       949       947       950
       951       952       951       953       951       954       939       940
       940       941       940       942       940       955       955       956
       955       957       955       961       962       963       961       958
       958       962       958       959       958       960       963       964
       963       965       963       966       966       967       966       974
       966       968       974       975       974       976       974       977
       968       969       969       971       969       970       971       972
       971       973       971       983       983       984       983       985
       983       986       986       987       986       988       986       989
       989       990       989       991       989       992       992       993
       992       994       992       995       995       996       995       997
       995       998       998       999       998      1000       998      1001
      1001      1002      1001      1003      1003      1004      1003      1005
      1005      1006      1005      1007      1005      1008      1008      1009
      1008      1010      1008      1011      1011      1012      1011      1013
      1011      1014      1014      1015      1014      1016      1014      1017
      1017      1018      1017      1019      1017      1020      1020      1021
      1020      1022      1020      1023      1023      1024      1023      1025
      1023      1026      1026      1027      1026      1028      1026      1029
       977       978       978       980       978       979       980       981
       980       982       980      1030      1030      1031      1030      1032
      1030      1033      1033      1034      1033      1035      1033      1036
      1036      1037      1036      1038      1036      1039      1039      1040
      1039      1041      1039      1042      1042      1043      1042      1044
      1042      1045      1045      1046      1045      1047      1045      1048
      1048      1049      1048      1050      1048      1051      1051      1052
      1051      1053      1051      1054      1054      1055      1054      1056
      1054      1057      1057      1058      1057      1059      1057      1060
      1060      1061      1060      1062      1060      1063      1063      1064
      1063      1065      1063      1066      1066      1067      1066      1068
      1066      1069      1069      1070      1069      1071      1069      1072
      1073      1077      1073      1081      1073      1085      1077      1078
      1077      1079      1077      1080      1081      1082      1081      1083
      1081      1084      1085      1086      1085      1087      1085      1088
      1073      1074      1074      1075      1074      1076      1074      1089
      1089      1090      1089      1091      1089      1095      1096      1097
      1095      1092      1092      1096      1092      1093      1092      1094
      1097      1098      1097      1099      1097      1100      1100      1101
      1100      1108      1100      1102      1108      1109      1108      1110
      1108      1111      1102      1103      1103      1105      1103      1104
      1105      1106      1105      1107      1105      1117      1117      1118
      1117      1119      1117      1120      1120      1121      1120      1122
      1120      1123      1123      1124      1123      1125      1123      1126
      1126      1127      1126      1128      1126      1129      1129      1130
      1129      1131      1129      1132      1132      1133      1132      1134
      1132      1135      1135      1136      1135      1137      1137      1138
      1137      1139      1139      1140      1139      1141      1139      1142
      1142      1143      1142      1144      1142      1145      1145      1146
      1145      1147      1145      1148      1148      1149      1148      1150
      1148      1151      1151      1152      1151      1153      1151      1154
      1154      1155      1154      1156      1154      1157      1157      1158
      1157      1159      1157      1160      1160      1161      1160      1162
      1160      1163      1111      1112      1112      1114      1112      1113
      1114      1115      1114      1116      1114      1164      1164      1165
      1164      1166      1164      1167      1167      1168      1167      1169
      1167      1170      1170      1171      1170      1172      1170      1173
      1173      1174      1173      1175      1173      1176      1176      1177
      1176      1178      1176      1179      1179      1180      1179      1181
      1179      1182      1182      1183      1182      1184      1182      1185
      1185      1186      1185      1187      1185      1188      1188      1189
      1188      1190      1188      1191      1191      1192      1191      1193
      1191      1194      1194      1195      1194      1196      1194      1197
      1197      1198      1197      1199      1197      1200      1200      1201
      1200      1202      1200      1203      1203      1204      1203      1205
      1203      1206      1207      1211      1207      1215      1207      1219
      1211      1212      1211      1213      1211      1214      1215      1216
      1215      1217      1215      1218      1219      1220      1219      1221
      1219      1222      1207      1208      1208      1209      1208      1210
      1208      1223      1223      1224      1223      1225      1223      1229
      1230      1231      1229      1226      1226      1230      1226      1227
      1226      1228      1231      1232      1231      1233      1231      1234
      1234      1235      1234      1242      1234      1236      1242      1243
      1242      1244      1242      1245      1236      1237      1237      1239
      1237      1238      1239      1240      1239      1241      1239      1251
      1251      1252      1251      1253      1251      1254      1254      1255
      1254      1256      1254      1257      1257      1258      1257      1259
      1257      1260      1260      1261      1260      1262      1260      1263
      1263      1264      1263      1265      1263      1266      1266      1267
      1266      1268      1266      1269      1269      1270      1269      1271
      1271      1272      1271      1273      1273      1274      1273      1275
      1273      1276      1276      1277      1276      1278      1276      1279
      1279      1280      1279      1281      1279      1282      1282      1283
      1282      1284      1282      1285      1285      1286      1285      1287
      1285      1288      1288      1289      1288      1290      1288      1291
      1291      1292      1291      1293      1291      1294      1294      1295
      1294      1296      1294      1297      1245      1246      1246      1248
      1246      1247      1248      1249      1248      1250      1248      1298
      1298      1299      1298      1300      1298      1301      1301      1302
      1301      1303      1301      1304      1304      1305      1304      1306
      1304      1307      1307      1308      1307      1309      1307      1310
      1310      1311      1310      1312      1310      1313      1313      1314
      1313      1315      1313      1316      1316      1317      1316      1318
      1316      1319      1319      1320      1319      1321      1319      1322
      1322      1323      1322      1324      1322      1325      1325      1326
      1325      1327      1325      1328      1328      1329      1328      1330
      1328      1331      1331      1332      1331      1333      1331      1334
      1334      1335      1334      1336      1334      1337      1337      1338
      1337      1339      1337      1340      1341      1345      1341      1349
      1341      1353      1345      1346      1345      1347      1345      1348
      1349      1350      1349      1351      1349      1352      1353      1354
      1353      1355      1353      1356      1341      1342      1342      1343
      1342      1344      1342      1357      1357      1358      1357      1359
      1357      1363      1364      1365      1363      1360      1360      1364
      1360      1361      1360      1362      1365      1366      1365      1367
      1365      1368      1368      1369      1368      1376      1368      1370
      1376      1377      1376      1378      1376      1379      1370      1371
      1371      1373      1371      1372      1373      1374      1373      1375
      1373      1385      1385      1386      1385      1387      1385      1388
      1388      1389      1388      1390      1388      1391      1391      1392
      1391      1393      1391      1394      1394      1395      1394      1396
      1394      1397      1397      1398      1397      1399      1397      1400
      1400      1401      1400      1402      1400      1403      1403      1404
      1403      1405      1405      1406      1405      1407      1407      1408
      1407      1409      1407      1410      1410      1411      1410      1412
      1410      1413      1413      1414      1413      1415      1413      1416
      1416      1417      1416      1418      1416      1419      1419      1420
      1419      1421      1419      1422      1422      1423      1422      1424
      1422      1425      1425      1426      1425      1427      1425      1428
      1428      1429      1428      1430      1428      1431      1379      1380
      1380      1382      1380      1381      1382      1383      1382      1384
      1382      1432      1432      1433      1432      1434      1432      1435
      1435      1436      1435      1437      1435      1438      1438      1439
      1438      1440      1438      1441      1441      1442      1441      1443
      1441      1444      1444      1445      1444      1446      1444      1447
      1447      1448      1447      1449      1447      1450      1450      1451
      1450      1452      1450      1453      1453      1454      1453      1455
      1453      1456      1456      1457      1456      1458      1456      1459
      1459      1460      1459      1461      1459      1462      1462      1463
      1462      1464      1462      1465      1465      1466      1465      1467
      1465      1468      1468      1469      1468      1470      1468      1471
      1471      1472      1471      1473      1471      1474      1475      1479
      1475      1483      1475      1487      1479      1480      1479      1481
      1479      1482      1483      1484      1483      1485      1483      1486
      1487      1488      1487      1489      1487      1490      1475      1476
      1476      1477      1476      1478      1476      1491      1491      1492
      1491      1493      1491      1497      1498      1499      1497      1494
      1494      1498      1494      1495      1494      1496      1499      1500
      1499      1501      1499      1502      1502      1503      1502      1510
      1502      1504      1510      1511      1510      1512      1510      1513
      1504      1505      1505      1507      1505      1506      1507      1508
      1507      1509      1507      1519      1519      1520      1519      1521
      1519      1522      1522      1523      1522      1524      1522      1525
      1525      1526      1525      1527      1525      1528      1528      1529
      1528      1530      1528      1531      1531      1532      1531      1533
      1531      1534      1534      1535      1534      1536      1534      1537
      1537      1538      1537      1539      1539      1540      1539      1541
      1541      1542      1541      1543      1541      1544      1544      1545
      1544      1546      1544      1547      1547      1548      1547      1549
      1547      1550      1550      1551      1550      1552      1550      1553
      1553      1554      1553      1555      1553      1556      1556      1557
      1556      1558      1556      1559      1559      1560      1559      1561
      1559      1562      1562      1563      1562      1564      1562      1565
      1513      1514      1514      1516      1514      1515      1516      1517
      1516      1518      1516      1566      1566      1567      1566      1568
      1566      1569      1569      1570      1569      1571      1569      1572
      1572      1573      1572      1574      1572      1575      1575      1576
      1575      1577      1575      1578      1578      1579      1578      1580
      1578      1581      1581      1582      1581      1583      1581      1584
      1584      1585      1584      1586      1584      1587      1587      1588
      1587      1589      1587      1590      1590      1591      1590      1592
      1590      1593      1593      1594      1593      1595      1593      1596
      1596      1597      1596      1598      1596      1599      1599      1600
      1599      1601      1599      1602      1602      1603      1602      1604
      1602      1605      1605      1606      1605      1607      1605      1608
      1609      1613      1609      1617      1609      1621      1613      1614
      1613      1615      1613      1616      1617      1618      1617      1619
      1617      1620      1621      1622      1621      1623      1621      1624
      1609      1610      1610      1611      1610      1612      1610      1625
      1625      1626      1625      1627      1625      1631      1632      1633
      1631      1628      1628      1632      1628      1629      1628      1630
      1633      1634      1633      1635      1633      1636      1636      1637
      1636      1644      1636      1638      1644      1645      1644      1646
      1644      1647      1638      1639      1639      1641      1639      1640
      1641      1642      1641      1643      1641      1653      1653      1654
      1653      1655      1653      1656      1656      1657      1656      1658
      1656      1659      1659      1660      1659      1661      1659      1662
      1662      1663      1662      1664      1662      1665      1665      1666
      1665      1667      1665      1668      1668      1669      1668      1670
      1668      1671      1671      1672      1671      1673      1673      1674
      1673      1675      1675      1676      1675      1677      1675      1678
      1678      1679      1678      1680      1678      1681      1681      1682
      1681      1683      1681      1684      1684      1685      1684      1686
      1684      1687      1687      1688      1687      1689      1687      1690
      1690      1691      1690      1692      1690      1693      1693      1694
      1693      1695      1693      1696      1696      1697      1696      1698
      1696      1699      1647      1648      1648      1650      1648      1649
      1650      1651      1650      1652      1650      1700      1700      1701
      1700      1702      1700      1703      1703      1704      1703      1705
      1703      1706      1706      1707      1706      1708      1706      1709
      1709      1710      1709      1711      1709      1712      1712      1713
      1712      1714      1712      1715      1715      1716      1715      1717
      1715      1718      1718      1719      1718      1720      1718      1721
      1721      1722      1721      1723      1721      1724      1724      1725
      1724      1726      1724      1727      1727      1728      1727      1729
      1727      1730      1730      1731      1730      1732      1730      1733
      1733      1734      1733      1735      1733      1736      1736      1737
      1736      1738      1736      1739      1739      1740      1739      1741
      1739      1742      1743      1747      1743      1751      1743      1755
      1747      1748      1747      1749      1747      1750      1751      1752
      1751      1753      1751      1754      1755      1756      1755      1757
      1755      1758      1743      1744      1744      1745      1744      1746
      1744      1759      1759      1760      1759      1761      1759      1765
      1766      1767      1765      1762      1762      1766      1762      1763
      1762      1764      1767      1768      1767      1769      1767      1770
      1770      1771      1770      1778      1770      1772      1778      1779
      1778      1780      1778      1781      1772      1773      1773      1775
      1773      1774      1775      1776      1775      1777      1775      1787
      1787      1788      1787      1789      1787      1790      1790      1791
      1790      1792      1790      1793      1793      1794      1793      1795
      1793      1796      1796      1797      1796      1798      1796      1799
      1799      1800      1799      1801      1799      1802      1802      1803
      1802      1804      1802      1805      1805      1806      1805      1807
      1807      1808      1807      1809      1809      1810      1809      1811
      1809      1812      1812      1813      1812      1814      1812      1815
      1815      1816      1815      1817      1815      1818      1818      1819
      1818      1820      1818      1821      1821      1822      1821      1823
      1821      1824      1824      1825      1824      1826      1824      1827
      1827      1828      1827      1829      1827      1830      1830      1831
      1830      1832      1830      1833      1781      1782      1782      1784
      1782      1783      1784      1785      1784      1786      1784      1834
      1834      1835      1834      1836      1834      1837      1837      1838
      1837      1839      1837      1840      1840      1841      1840      1842
      1840      1843      1843      1844      1843      1845      1843      1846
      1846      1847      1846      1848      1846      1849      1849      1850
      1849      1851      1849      1852      1852      1853      1852      1854
      1852      1855      1855      1856      1855      1857      1855      1858
      1858      1859      1858      1860      1858      1861      1861      1862
      1861      1863      1861      1864      1864      1865      1864      1866
      1864      1867      1867      1868      1867      1869      1867      1870
      1870      1871      1870      1872      1870      1873      1873      1874
      1873      1875      1873      1876      1877      1881      1877      1885
      1877      1889      1881      1882      1881      1883      1881      1884
      1885      1886      1885      1887      1885      1888      1889      1890
      1889      1891      1889      1892      1877      1878      1878      1879
      1878      1880      1878      1893      1893      1894      1893      1895
      1893      1899      1900      1901      1899      1896      1896      1900
      1896      1897      1896      1898      1901      1902      1901      1903
      1901      1904      1904      1905      1904      1912      1904      1906
      1912      1913      1912      1914      1912      1915      1906      1907
      1907      1909      1907      1908      1909      1910      1909      1911
      1909      1921      1921      1922      1921      1923      1921      1924
      1924      1925      1924      1926      1924      1927      1927      1928
      1927      1929      1927      1930      1930      1931      1930      1932
      1930      1933      1933      1934      1933      1935      1933      1936
      1936      1937      1936      1938      1936      1939      1939      1940
      1939      1941      1941      1942      1941      1943      1943      1944
      1943      1945      1943      1946      1946      1947      1946      1948
      1946      1949      1949      1950      1949      1951      1949      1952
      1952      1953      1952      1954      1952      1955      1955      1956
      1955      1957      1955      1958      1958      1959      1958      1960
      1958      1961      1961      1962      1961      1963      1961      1964
      1964      1965      1964      1966      1964      1967      1915      1916
      1916      1918      1916      1917      1918      1919      1918      1920
      1918      1968      1968      1969      1968      1970      1968      1971
      1971      1972      1971      1973      1971      1974      1974      1975
      1974      1976      1974      1977      1977      1978      1977      1979
      1977      1980      1980      1981      1980      1982      1980      1983
      1983      1984      1983      1985      1983      1986      1986      1987
      1986      1988      1986      1989      1989      1990      1989      1991
      1989      1992      1992      1993      1992      1994      1992      1995
      1995      1996      1995      1997      1995      1998      1998      1999
      1998      2000      1998      2001      2001      2002      2001      2003
      2001      2004      2004      2005      2004      2006      2004      2007
      2007      2008      2007      2009      2007      2010      2011      2015
      2011      2019      2011      2023      2015      2016      2015      2017
      2015      2018      2019      2020      2019      2021      2019      2022
      2023      2024      2023      2025      2023      2026      2011      2012
      2012      2013      2012      2014      2012      2027      2027      2028
      2027      2029      2027      2033      2034      2035      2033      2030
      2030      2034      2030      2031      2030      2032      2035      2036
      2035      2037      2035      2038      2038      2039      2038      2046
      2038      2040      2046      2047      2046      2048      2046      2049
      2040      2041      2041      2043      2041      2042      2043      2044
      2043      2045      2043      2055      2055      2056      2055      2057
      2055      2058      2058      2059      2058      2060      2058      2061
      2061      2062      2061      2063      2061      2064      2064      2065
      2064      2066      2064      2067      2067      2068      2067      2069
      2067      2070      2070      2071      2070      2072      2070      2073
      2073      2074      2073      2075      2075      2076      2075      2077
      2077      2078      2077      2079      2077      2080      2080      2081
      2080      2082      2080      2083      2083      2084      2083      2085
      2083      2086      2086      2087      2086      2088      2086      2089
      2089      2090      2089      2091      2089      2092      2092      2093
      2092      2094      2092      2095      2095      2096      2095      2097
      2095      2098      2098      2099      2098      2100      2098      2101
      2049      2050      2050      2052      2050      2051      2052      2053
      2052      2054      2052      2102      2102      2103      2102      2104
      2102      2105      2105      2106      2105      2107      2105      2108
      2108      2109      2108      2110      2108      2111      2111      2112
      2111      2113      2111      2114      2114      2115      2114      2116
      2114      2117      2117      2118      2117      2119      2117      2120
      2120      2121      2120      2122      2120      2123      2123      2124
      2123      2125      2123      2126      2126      2127      2126      2128
      2126      2129      2129      2130      2129      2131      2129      2132
      2132      2133      2132      2134      2132      2135      2135      2136
      2135      2137      2135      2138      2138      2139      2138      2140
      2138      2141      2141      2142      2141      2143      2141      2144
      2145      2149      2145      2153      2145      2157      2149      2150
      2149      2151      2149      2152      2153      2154      2153      2155
      2153      2156      2157      2158      2157      2159      2157      2160
      2145      2146      2146      2147      2146      2148      2146      2161
      2161      2162      2161      2163      2161      2167      2168      2169
      2167      2164      2164      2168      2164      2165      2164      2166
      2169      2170      2169      2171      2169      2172      2172      2173
      2172      2180      2172      2174      2180      2181      2180      2182
      2180      2183      2174      2175      2175      2177      2175      2176
      2177      2178      2177      2179      2177      2189      2189      2190
      2189      2191      2189      2192      2192      2193      2192      2194
      2192      2195      2195      2196      2195      2197      2195      2198
      2198      2199      2198      2200      2198      2201      2201      2202
      2201      2203      2201      2204      2204      2205      2204      2206
      2204      2207      2207      2208      2207      2209      2209      2210
      2209      2211      2211      2212      2211      2213      2211      2214
      2214      2215      2214      2216      2214      2217      2217      2218
      2217      2219      2217      2220      2220      2221      2220      2222
      2220      2223      2223      2224      2223      2225      2223      2226
      2226      2227      2226      2228      2226      2229      2229      2230
      2229      2231      2229      2232      2232      2233      2232      2234
      2232      2235      2183      2184      2184      2186      2184      2185
      2186      2187      2186      2188      2186      2236      2236      2237
      2236      2238      2236      2239      2239      2240      2239      2241
      2239      2242      2242      2243      2242      2244      2242      2245
      2245      2246      2245      2247      2245      2248      2248      2249
      2248      2250      2248      2251      2251      2252      2251      2253
      2251      2254      2254      2255      2254      2256      2254      2257
      2257      2258      2257      2259      2257      2260      2260      2261
      2260      2262      2260      2263      2263      2264      2263      2265
      2263      2266      2266      2267      2266      2268      2266      2269
      2269      2270      2269      2271      2269      2272      2272      2273
      2272      2274      2272      2275      2275      2276      2275      2277
      2275      2278      2279      2283      2279      2287      2279      2291
      2283      2284      2283      2285      2283      2286      2287      2288
      2287      2289      2287      2290      2291      2292      2291      2293
      2291      2294      2279      2280      2280      2281      2280      2282
      2280      2295      2295      2296      2295      2297      2295      2301
      2302      2303      2301      2298      2298      2302      2298      2299
      2298      2300      2303      2304      2303      2305      2303      2306
      2306      2307      2306      2314      2306      2308      2314      2315
      2314      2316      2314      2317      2308      2309      2309      2311
      2309      2310      2311      2312      2311      2313      2311      2323
      2323      2324      2323      2325      2323      2326      2326      2327
      2326      2328      2326      2329      2329      2330      2329      2331
      2329      2332      2332      2333      2332      2334      2332      2335
      2335      2336      2335      2337      2335      2338      2338      2339
      2338      2340      2338      2341      2341      2342      2341      2343
      2343      2344      2343      2345      2345      2346      2345      2347
      2345      2348      2348      2349      2348      2350      2348      2351
      2351      2352      2351      2353      2351      2354      2354      2355
      2354      2356      2354      2357      2357      2358      2357      2359
      2357      2360      2360      2361      2360      2362      2360      2363
      2363      2364      2363      2365      2363      2366      2366      2367
      2366      2368      2366      2369      2317      2318      2318      2320
      2318      2319      2320      2321      2320      2322      2320      2370
      2370      2371      2370      2372      2370      2373      2373      2374
      2373      2375      2373      2376      2376      2377      2376      2378
      2376      2379      2379      2380      2379      2381      2379      2382
      2382      2383      2382      2384      2382      2385      2385      2386
      2385      2387      2385      2388      2388      2389      2388      2390
      2388      2391      2391      2392      2391      2393      2391      2394
      2394      2395      2394      2396      2394      2397      2397      2398
      2397      2399      2397      2400      2400      2401      2400      2402
      2400      2403      2403      2404      2403      2405      2403      2406
      2406      2407      2406      2408      2406      2409      2409      2410
      2409      2411      2409      2412      2413      2417      2413      2421
      2413      2425      2417      2418      2417      2419      2417      2420
      2421      2422      2421      2423      2421      2424      2425      2426
      2425      2427      2425      2428      2413      2414      2414      2415
      2414      2416      2414      2429      2429      2430      2429      2431
      2429      2435      2436      2437      2435      2432      2432      2436
      2432      2433      2432      2434      2437      2438      2437      2439
      2437      2440      2440      2441      2440      2448      2440      2442
      2448      2449      2448      2450      2448      2451      2442      2443
      2443      2445      2443      2444      2445      2446      2445      2447
      2445      2457      2457      2458      2457      2459      2457      2460
      2460      2461      2460      2462      2460      2463      2463      2464
      2463      2465      2463      2466      2466      2467      2466      2468
      2466      2469      2469      2470      2469      2471      2469      2472
      2472      2473      2472      2474      2472      2475      2475      2476
      2475      2477      2477      2478      2477      2479      2479      2480
      2479      2481      2479      2482      2482      2483      2482      2484
      2482      2485      2485      2486      2485      2487      2485      2488
      2488      2489      2488      2490      2488      2491      2491      2492
      2491      2493      2491      2494      2494      2495      2494      2496
      2494      2497      2497      2498      2497      2499      2497      2500
      2500      2501      2500      2502      2500      2503      2451      2452
      2452      2454      2452      2453      2454      2455      2454      2456
      2454      2504      2504      2505      2504      2506      2504      2507
      2507      2508      2507      2509      2507      2510      2510      2511
      2510      2512      2510      2513      2513      2514      2513      2515
      2513      2516      2516      2517      2516      2518      2516      2519
      2519      2520      2519      2521      2519      2522      2522      2523
      2522      2524      2522      2525      2525      2526      2525      2527
      2525      2528      2528      2529      2528      2530      2528      2531
      2531      2532      2531      2533      2531      2534      2534      2535
      2534      2536      2534      2537      2537      2538      2537      2539
      2537      2540      2540      2541      2540      2542      2540      2543
      2543      2544      2543      2545      2543      2546      2547      2551
      2547      2555      2547      2559      2551      2552      2551      2553
      2551      2554      2555      2556      2555      2557      2555      2558
      2559      2560      2559      2561      2559      2562      2547      2548
      2548      2549      2548      2550      2548      2563      2563      2564
      2563      2565      2563      2569      2570      2571      2569      2566
      2566      2570      2566      2567      2566      2568      2571      2572
      2571      2573      2571      2574      2574      2575      2574      2582
      2574      2576      2582      2583      2582      2584      2582      2585
      2576      2577      2577      2579      2577      2578      2579      2580
      2579      2581      2579      2591      2591      2592      2591      2593
      2591      2594      2594      2595      2594      2596      2594      2597
      2597      2598      2597      2599      2597      2600      2600      2601
      2600      2602      2600      2603      2603      2604      2603      2605
      2603      2606      2606      2607      2606      2608      2606      2609
      2609      2610      2609      2611      2611      2612      2611      2613
      2613      2614      2613      2615      2613      2616      2616      2617
      2616      2618      2616      2619      2619      2620      2619      2621
      2619      2622      2622      2623      2622      2624      2622      2625
      2625      2626      2625      2627      2625      2628      2628      2629
      2628      2630      2628      2631      2631      2632      2631      2633
      2631      2634      2634      2635      2634      2636      2634      2637
      2585      2586      2586      2588      2586      2587      2588      2589
      2588      2590      2588      2638      2638      2639      2638      2640
      2638      2641      2641      2642      2641      2643      2641      2644
      2644      2645      2644      2646      2644      2647      2647      2648
      2647      2649      2647      2650      2650      2651      2650      2652
      2650      2653      2653      2654      2653      2655      2653      2656
      2656      2657      2656      2658      2656      2659      2659      2660
      2659      2661      2659      2662      2662      2663      2662      2664
      2662      2665      2665      2666      2665      2667      2665      2668
      2668      2669      2668      2670      2668      2671      2671      2672
      2671      2673      2671      2674      2674      2675      2674      2676
      2674      2677      2677      2678      2677      2679      2677      2680
      2681      2685      2681      2689      2681      2693      2685      2686
      2685      2687      2685      2688      2689      2690      2689      2691
      2689      2692      2693      2694      2693      2695      2693      2696
      2681      2682      2682      2683      2682      2684      2682      2697
      2697      2698      2697      2699      2697      2703      2704      2705
      2703      2700      2700      2704      2700      2701      2700      2702
      2705      2706      2705      2707      2705      2708      2708      2709
      2708      2716      2708      2710      2716      2717      2716      2718
      2716      2719      2710      2711      2711      2713      2711      2712
      2713      2714      2713      2715      2713      2725      2725      2726
      2725      2727      2725      2728      2728      2729      2728      2730
      2728      2731      2731      2732      2731      2733      2731      2734
      2734      2735      2734      2736      2734      2737      2737      2738
      2737      2739      2737      2740      2740      2741      2740      2742
      2740      2743      2743      2744      2743      2745      2745      2746
      2745      2747      2747      2748      2747      2749      2747      2750
      2750      2751      2750      2752      2750      2753      2753      2754
      2753      2755      2753      2756      2756      2757      2756      2758
      2756      2759      2759      2760      2759      2761      2759      2762
      2762      2763      2762      2764      2762      2765      2765      2766
      2765      2767      2765      2768      2768      2769      2768      2770
      2768      2771      2719      2720      2720      2722      2720      2721
      2722      2723      2722      2724      2722      2772      2772      2773
      2772      2774      2772      2775      2775      2776      2775      2777
      2775      2778      2778      2779      2778      2780      2778      2781
      2781      2782      2781      2783      2781      2784      2784      2785
      2784      2786      2784      2787      2787      2788      2787      2789
      2787      2790      2790      2791      2790      2792      2790      2793
      2793      2794      2793      2795      2793      2796      2796      2797
      2796      2798      2796      2799      2799      2800      2799      2801
      2799      2802      2802      2803      2802      2804      2802      2805
      2805      2806      2805      2807      2805      2808      2808      2809
      2808      2810      2808      2811      2811      2812      2811      2813
      2811      2814      2815      2819      2815      2823      2815      2827
      2819      2820      2819      2821      2819      2822      2823      2824
      2823      2825      2823      2826      2827      2828      2827      2829
      2827      2830      2815      2816      2816      2817      2816      2818
      2816      2831      2831      2832      2831      2833      2831      2837
      2838      2839      2837      2834      2834      2838      2834      2835
      2834      2836      2839      2840      2839      2841      2839      2842
      2842      2843      2842      2850      2842      2844      2850      2851
      2850      2852      2850      2853      2844      2845      2845      2847
      2845      2846      2847      2848      2847      2849      2847      2859
      2859      2860      2859      2861      2859      2862      2862      2863
      2862      2864      2862      2865      2865      2866      2865      2867
      2865      2868      2868      2869      2868      2870      2868      2871
      2871      2872      2871      2873      2871      2874      2874      2875
      2874      2876      2874      2877      2877      2878      2877      2879
      2879      2880      2879      2881      2881      2882      2881      2883
      2881      2884      2884      2885      2884      2886      2884      2887
      2887      2888      2887      2889      2887      2890      2890      2891
      2890      2892      2890      2893      2893      2894      2893      2895
      2893      2896      2896      2897      2896      2898      2896      2899
      2899      2900      2899      2901      2899      2902      2902      2903
      2902      2904      2902      2905      2853      2854      2854      2856
      2854      2855      2856      2857      2856      2858      2856      2906
      2906      2907      2906      2908      2906      2909      2909      2910
      2909      2911      2909      2912      2912      2913      2912      2914
      2912      2915      2915      2916      2915      2917      2915      2918
      2918      2919      2918      2920      2918      2921      2921      2922
      2921      2923      2921      2924      2924      2925      2924      2926
      2924      2927      2927      2928      2927      2929      2927      2930
      2930      2931      2930      2932      2930      2933      2933      2934
      2933      2935      2933      2936      2936      2937      2936      2938
      2936      2939      2939      2940      2939      2941      2939      2942
      2942      2943      2942      2944      2942      2945      2945      2946
      2945      2947      2945      2948      2949      2953      2949      2957
      2949      2961      2953      2954      2953      2955      2953      2956
      2957      2958      2957      2959      2957      2960      2961      2962
      2961      2963      2961      2964      2949      2950      2950      2951
      2950      2952      2950      2965      2965      2966      2965      2967
      2965      2971      2972      2973      2971      2968      2968      2972
      2968      2969      2968      2970      2973      2974      2973      2975
      2973      2976      2976      2977      2976      2984      2976      2978
      2984      2985      2984      2986      2984      2987      2978      2979
      2979      2981      2979      2980      2981      2982      2981      2983
      2981      2993      2993      2994      2993      2995      2993      2996
      2996      2997      2996      2998      2996      2999      2999      3000
      2999      3001      2999      3002      3002      3003      3002      3004
      3002      3005      3005      3006      3005      3007      3005      3008
      3008      3009      3008      3010      3008      3011      3011      3012
      3011      3013      3013      3014      3013      3015      3015      3016
      3015      3017      3015      3018      3018      3019      3018      3020
      3018      3021      3021      3022      3021      3023      3021      3024
      3024      3025      3024      3026      3024      3027      3027      3028
      3027      3029      3027      3030      3030      3031      3030      3032
      3030      3033      3033      3034      3033      3035      3033      3036
      3036      3037      3036      3038      3036      3039      2987      2988
      2988      2990      2988      2989      2990      2991      2990      2992
      2990      3040      3040      3041      3040      3042      3040      3043
      3043      3044      3043      3045      3043      3046      3046      3047
      3046      3048      3046      3049      3049      3050      3049      3051
      3049      3052      3052      3053      3052      3054      3052      3055
      3055      3056      3055      3057      3055      3058      3058      3059
      3058      3060      3058      3061      3061      3062      3061      3063
      3061      3064      3064      3065      3064      3066      3064      3067
      3067      3068      3067      3069      3067      3070      3070      3071
      3070      3072      3070      3073      3073      3074      3073      3075
      3073      3076      3076      3077      3076      3078      3076      3079
      3079      3080      3079      3081      3079      3082      3083      3087
      3083      3091      3083      3095      3087      3088      3087      3089
      3087      3090      3091      3092      3091      3093      3091      3094
      3095      3096      3095      3097      3095      3098      3083      3084
      3084      3085      3084      3086      3084      3099      3099      3100
      3099      3101      3099      3105      3106      3107      3105      3102
      3102      3106      3102      3103      3102      3104      3107      3108
      3107      3109      3107      3110      3110      3111      3110      3118
      3110      3112      3118      3119      3118      3120      3118      3121
      3112      3113      3113      3115      3113      3114      3115      3116
      3115      3117      3115      3127      3127      3128      3127      3129
      3127      3130      3130      3131      3130      3132      3130      3133
      3133      3134      3133      3135      3133      3136      3136      3137
      3136      3138      3136      3139      3139      3140      3139      3141
      3139      3142      3142      3143      3142      3144      3142      3145
      3145      3146      3145      3147      3147      3148      3147      3149
      3149      3150      3149      3151      3149      3152      3152      3153
      3152      3154      3152      3155      3155      3156      3155      3157
      3155      3158      3158      3159      3158      3160      3158      3161
      3161      3162      3161      3163      3161      3164      3164      3165
      3164      3166      3164      3167      3167      3168      3167      3169
      3167      3170      3170      3171      3170      3172      3170      3173
      3121      3122      3122      3124      3122      3123      3124      3125
      3124      3126      3124      3174      3174      3175      3174      3176
      3174      3177      3177      3178      3177      3179      3177      3180
      3180      3181      3180      3182      3180      3183      3183      3184
      3183      3185      3183      3186      3186      3187      3186      3188
      3186      3189      3189      3190      3189      3191      3189      3192
      3192      3193      3192      3194      3192      3195      3195      3196
      3195      3197      3195      3198      3198      3199      3198      3200
      3198      3201      3201      3202      3201      3203      3201      3204
      3204      3205      3204      3206      3204      3207      3207      3208
      3207      3209      3207      3210      3210      3211      3210      3212
      3210      3213      3213      3214      3213      3215      3213      3216
      3217      3221      3217      3225      3217      3229      3221      3222
      3221      3223      3221      3224      3225      3226      3225      3227
      3225      3228      3229      3230      3229      3231      3229      3232
      3217      3218      3218      3219      3218      3220      3218      3233
      3233      3234      3233      3235      3233      3239      3240      3241
      3239      3236      3236      3240      3236      3237      3236      3238
      3241      3242      3241      3243      3241      3244      3244      3245
      3244      3252      3244      3246      3252      3253      3252      3254
      3252      3255      3246      3247      3247      3249      3247      3248
      3249      3250      3249      3251      3249      3261      3261      3262
      3261      3263      3261      3264      3264      3265      3264      3266
      3264      3267      3267      3268      3267      3269      3267      3270
      3270      3271      3270      3272      3270      3273      3273      3274
      3273      3275      3273      3276      3276      3277      3276      3278
      3276      3279      3279      3280      3279      3281      3281      3282
      3281      3283      3283      3284      3283      3285      3283      3286
      3286      3287      3286      3288      3286      3289      3289      3290
      3289      3291      3289      3292      3292      3293      3292      3294
      3292      3295      3295      3296      3295      3297      3295      3298
      3298      3299      3298      3300      3298      3301      3301      3302
      3301      3303      3301      3304      3304      3305      3304      3306
      3304      3307      3255      3256      3256      3258      3256      3257
      3258      3259      3258      3260      3258      3308      3308      3309
      3308      3310      3308      3311      3311      3312      3311      3313
      3311      3314      3314      3315      3314      3316      3314      3317
      3317      3318      3317      3319      3317      3320      3320      3321
      3320      3322      3320      3323      3323      3324      3323      3325
      3323      3326      3326      3327      3326      3328      3326      3329
      3329      3330      3329      3331      3329      3332      3332      3333
      3332      3334      3332      3335      3335      3336      3335      3337
      3335      3338      3338      3339      3338      3340      3338      3341
      3341      3342      3341      3343      3341      3344      3344      3345
      3344      3346      3344      3347      3347      3348      3347      3349
      3347      3350      3351      3355      3351      3359      3351      3363
      3355      3356      3355      3357      3355      3358      3359      3360
      3359      3361      3359      3362      3363      3364      3363      3365
      3363      3366      3351      3352      3352      3353      3352      3354
      3352      3367      3367      3368      3367      3369      3367      3373
      3374      3375      3373      3370      3370      3374      3370      3371
      3370      3372      3375      3376      3375      3377      3375      3378
      3378      3379      3378      3386      3378      3380      3386      3387
      3386      3388      3386      3389      3380      3381      3381      3383
      3381      3382      3383      3384      3383      3385      3383      3395
      3395      3396      3395      3397      3395      3398      3398      3399
      3398      3400      3398      3401      3401      3402      3401      3403
      3401      3404      3404      3405      3404      3406      3404      3407
      3407      3408      3407      3409      3407      3410      3410      3411
      3410      3412      3410      3413      3413      3414      3413      3415
      3415      3416      3415      3417      3417      3418      3417      3419
      3417      3420      3420      3421      3420      3422      3420      3423
      3423      3424      3423      3425      3423      3426      3426      3427
      3426      3428      3426      3429      3429      3430      3429      3431
      3429      3432      3432      3433      3432      3434      3432      3435
      3435      3436      3435      3437      3435      3438      3438      3439
      3438      3440      3438      3441      3389      3390      3390      3392
      3390      3391      3392      3393      3392      3394      3392      3442
      3442      3443      3442      3444      3442      3445      3445      3446
      3445      3447      3445      3448      3448      3449      3448      3450
      3448      3451      3451      3452      3451      3453      3451      3454
      3454      3455      3454      3456      3454      3457      3457      3458
      3457      3459      3457      3460      3460      3461      3460      3462
      3460      3463      3463      3464      3463      3465      3463      3466
      3466      3467      3466      3468      3466      3469      3469      3470
      3469      3471      3469      3472      3472      3473      3472      3474
      3472      3475      3475      3476      3475      3477      3475      3478
      3478      3479      3478      3480      3478      3481      3481      3482
      3481      3483      3481      3484      3485      3489      3485      3493
      3485      3497      3489      3490      3489      3491      3489      3492
      3493      3494      3493      3495      3493      3496      3497      3498
      3497      3499      3497      3500      3485      3486      3486      3487
      3486      3488      3486      3501      3501      3502      3501      3503
      3501      3507      3508      3509      3507      3504      3504      3508
      3504      3505      3504      3506      3509      3510      3509      3511
      3509      3512      3512      3513      3512      3520      3512      3514
      3520      3521      3520      3522      3520      3523      3514      3515
      3515      3517      3515      3516      3517      3518      3517      3519
      3517      3529      3529      3530      3529      3531      3529      3532
      3532      3533      3532      3534      3532      3535      3535      3536
      3535      3537      3535      3538      3538      3539      3538      3540
      3538      3541      3541      3542      3541      3543      3541      3544
      3544      3545      3544      3546      3544      3547      3547      3548
      3547      3549      3549      3550      3549      3551      3551      3552
      3551      3553      3551      3554      3554      3555      3554      3556
      3554      3557      3557      3558      3557      3559      3557      3560
      3560      3561      3560      3562      3560      3563      3563      3564
      3563      3565      3563      3566      3566      3567      3566      3568
      3566      3569      3569      3570      3569      3571      3569      3572
      3572      3573      3572      3574      3572      3575      3523      3524
      3524      3526      3524      3525      3526      3527      3526      3528
      3526      3576      3576      3577      3576      3578      3576      3579
      3579      3580      3579      3581      3579      3582      3582      3583
      3582      3584      3582      3585      3585      3586      3585      3587
      3585      3588      3588      3589      3588      3590      3588      3591
      3591      3592      3591      3593      3591      3594      3594      3595
      3594      3596      3594      3597      3597      3598      3597      3599
      3597      3600      3600      3601      3600      3602      3600      3603
      3603      3604      3603      3605      3603      3606      3606      3607
      3606      3608      3606      3609      3609      3610      3609      3611
      3609      3612      3612      3613      3612      3614      3612      3615
      3615      3616      3615      3617      3615      3618      3619      3623
      3619      3627      3619      3631      3623      3624      3623      3625
      3623      3626      3627      3628      3627      3629      3627      3630
      3631      3632      3631      3633      3631      3634      3619      3620
      3620      3621      3620      3622      3620      3635      3635      3636
      3635      3637      3635      3641      3642      3643      3641      3638
      3638      3642      3638      3639      3638      3640      3643      3644
      3643      3645      3643      3646      3646      3647      3646      3654
      3646      3648      3654      3655      3654      3656      3654      3657
      3648      3649      3649      3651      3649      3650      3651      3652
      3651      3653      3651      3663      3663      3664      3663      3665
      3663      3666      3666      3667      3666      3668      3666      3669
      3669      3670      3669      3671      3669      3672      3672      3673
      3672      3674      3672      3675      3675      3676      3675      3677
      3675      3678      3678      3679      3678      3680      3678      3681
      3681      3682      3681      3683      3683      3684      3683      3685
      3685      3686      3685      3687      3685      3688      3688      3689
      3688      3690      3688      3691      3691      3692      3691      3693
      3691      3694      3694      3695      3694      3696      3694      3697
      3697      3698      3697      3699      3697      3700      3700      3701
      3700      3702      3700      3703      3703      3704      3703      3705
      3703      3706      3706      3707      3706      3708      3706      3709
      3657      3658      3658      3660      3658      3659      3660      3661
      3660      3662      3660      3710      3710      3711      3710      3712
      3710      3713      3713      3714      3713      3715      3713      3716
      3716      3717      3716      3718      3716      3719      3719      3720
      3719      3721      3719      3722      3722      3723      3722      3724
      3722      3725      3725      3726      3725      3727      3725      3728
      3728      3729      3728      3730      3728      3731      3731      3732
      3731      3733      3731      3734      3734      3735      3734      3736
      3734      3737      3737      3738      3737      3739      3737      3740
      3740      3741      3740      3742      3740      3743      3743      3744
      3743      3745      3743      3746      3746      3747      3746      3748
      3746      3749      3749      3750      3749      3751      3749      3752
      3753      3757      3753      3761      3753      3765      3757      3758
      3757      3759      3757      3760      3761      3762      3761      3763
      3761      3764      3765      3766      3765      3767      3765      3768
      3753      3754      3754      3755      3754      3756      3754      3769
      3769      3770      3769      3771      3769      3775      3776      3777
      3775      3772      3772      3776      3772      3773      3772      3774
      3777      3778      3777      3779      3777      3780      3780      3781
      3780      3788      3780      3782      3788      3789      3788      3790
      3788      3791      3782      3783      3783      3785      3783      3784
      3785      3786      3785      3787      3785      3797      3797      3798
      3797      3799      3797      3800      3800      3801      3800      3802
      3800      3803      3803      3804      3803      3805      3803      3806
      3806      3807      3806      3808      3806      3809      3809      3810
      3809      3811      3809      3812      3812      3813      3812      3814
      3812      3815      3815      3816      3815      3817      3817      3818
      3817      3819      3819      3820      3819      3821      3819      3822
      3822      3823      3822      3824      3822      3825      3825      3826
      3825      3827      3825      3828      3828      3829      3828      3830
      3828      3831      3831      3832      3831      3833      3831      3834
      3834      3835      3834      3836      3834      3837      3837      3838
      3837      3839      3837      3840      3840      3841      3840      3842
      3840      3843      3791      3792      3792      3794      3792      3793
      3794      3795      3794      3796      3794      3844      3844      3845
      3844      3846      3844      3847      3847      3848      3847      3849
      3847      3850      3850      3851      3850      3852      3850      3853
      3853      3854      3853      3855      3853      3856      3856      3857
      3856      3858      3856      3859      3859      3860      3859      3861
      3859      3862      3862      3863      3862      3864      3862      3865
      3865      3866      3865      3867      3865      3868      3868      3869
      3868      3870      3868      3871      3871      3872      3871      3873
      3871      3874      3874      3875      3874      3876      3874      3877
      3877      3878      3877      3879      3877      3880      3880      3881
      3880      3882      3880      3883      3883      3884      3883      3885
      3883      3886      3887      3891      3887      3895      3887      3899
      3891      3892      3891      3893      3891      3894      3895      3896
      3895      3897      3895      3898      3899      3900      3899      3901
      3899      3902      3887      3888      3888      3889      3888      3890
      3888      3903      3903      3904      3903      3905      3903      3909
      3910      3911      3909      3906      3906      3910      3906      3907
      3906      3908      3911      3912      3911      3913      3911      3914
      3914      3915      3914      3922      3914      3916      3922      3923
      3922      3924      3922      3925      3916      3917      3917      3919
      3917      3918      3919      3920      3919      3921      3919      3931
      3931      3932      3931      3933      3931      3934      3934      3935
      3934      3936      3934      3937      3937      3938      3937      3939
      3937      3940      3940      3941      3940      3942      3940      3943
      3943      3944      3943      3945      3943      3946      3946      3947
      3946      3948      3946      3949      3949      3950      3949      3951
      3951      3952      3951      3953      3953      3954      3953      3955
      3953      3956      3956      3957      3956      3958      3956      3959
      3959      3960      3959      3961      3959      3962      3962      3963
      3962      3964      3962      3965      3965      3966      3965      3967
      3965      3968      3968      3969      3968      3970      3968      3971
      3971      3972      3971      3973      3971      3974      3974      3975
      3974      3976      3974      3977      3925      3926      3926      3928
      3926      3927      3928      3929      3928      3930      3928      3978
      3978      3979      3978      3980      3978      3981      3981      3982
      3981      3983      3981      3984      3984      3985      3984      3986
      3984      3987      3987      3988      3987      3989      3987      3990
      3990      3991      3990      3992      3990      3993      3993      3994
      3993      3995      3993      3996      3996      3997      3996      3998
      3996      3999      3999      4000      3999      4001      3999      4002
      4002      4003      4002      4004      4002      4005      4005      4006
      4005      4007      4005      4008      4008      4009      4008      4010
      4008      4011      4011      4012      4011      4013      4011      4014
      4014      4015      4014      4016      4014      4017      4017      4018
      4017      4019      4017      4020      4021      4025      4021      4029
      4021      4033      4025      4026      4025      4027      4025      4028
      4029      4030      4029      4031      4029      4032      4033      4034
      4033      4035      4033      4036      4021      4022      4022      4023
      4022      4024      4022      4037      4037      4038      4037      4039
      4037      4043      4044      4045      4043      4040      4040      4044
      4040      4041      4040      4042      4045      4046      4045      4047
      4045      4048      4048      4049      4048      4056      4048      4050
      4056      4057      4056      4058      4056      4059      4050      4051
      4051      4053      4051      4052      4053      4054      4053      4055
      4053      4065      4065      4066      4065      4067      4065      4068
      4068      4069      4068      4070      4068      4071      4071      4072
      4071      4073      4071      4074      4074      4075      4074      4076
      4074      4077      4077      4078      4077      4079      4077      4080
      4080      4081      4080      4082      4080      4083      4083      4084
      4083      4085      4085      4086      4085      4087      4087      4088
      4087      4089      4087      4090      4090      4091      4090      4092
      4090      4093      4093      4094      4093      4095      4093      4096
      4096      4097      4096      4098      4096      4099      4099      4100
      4099      4101      4099      4102      4102      4103      4102      4104
      4102      4105      4105      4106      4105      4107      4105      4108
      4108      4109      4108      4110      4108      4111      4059      4060
      4060      4062      4060      4061      4062      4063      4062      4064
      4062      4112      4112      4113      4112      4114      4112      4115
      4115      4116      4115      4117      4115      4118      4118      4119
      4118      4120      4118      4121      4121      4122      4121      4123
      4121      4124      4124      4125      4124      4126      4124      4127
      4127      4128      4127      4129      4127      4130      4130      4131
      4130      4132      4130      4133      4133      4134      4133      4135
      4133      4136      4136      4137      4136      4138      4136      4139
      4139      4140      4139      4141      4139      4142      4142      4143
      4142      4144      4142      4145      4145      4146      4145      4147
      4145      4148      4148      4149      4148      4150      4148      4151
      4151      4152      4151      4153      4151      4154      4155      4159
      4155      4163      4155      4167      4159      4160      4159      4161
      4159      4162      4163      4164      4163      4165      4163      4166
      4167      4168      4167      4169      4167      4170      4155      4156
      4156      4157      4156      4158      4156      4171      4171      4172
      4171      4173      4171      4177      4178      4179      4177      4174
      4174      4178      4174      4175      4174      4176      4179      4180
      4179      4181      4179      4182      4182      4183      4182      4190
      4182      4184      4190      4191      4190      4192      4190      4193
      4184      4185      4185      4187      4185      4186      4187      4188
      4187      4189      4187      4199      4199      4200      4199      4201
      4199      4202      4202      4203      4202      4204      4202      4205
      4205      4206      4205      4207      4205      4208      4208      4209
      4208      4210      4208      4211      4211      4212      4211      4213
      4211      4214      4214      4215      4214      4216      4214      4217
      4217      4218      4217      4219      4219      4220      4219      4221
      4221      4222      4221      4223      4221      4224      4224      4225
      4224      4226      4224      4227      4227      4228      4227      4229
      4227      4230      4230      4231      4230      4232      4230      4233
      4233      4234      4233      4235      4233      4236      4236      4237
      4236      4238      4236      4239      4239      4240      4239      4241
      4239      4242      4242      4243      4242      4244      4242      4245
      4193      4194      4194      4196      4194      4195      4196      4197
      4196      4198      4196      4246      4246      4247      4246      4248
      4246      4249      4249      4250      4249      4251      4249      4252
      4252      4253      4252      4254      4252      4255      4255      4256
      4255      4257      4255      4258      4258      4259      4258      4260
      4258      4261      4261      4262      4261      4263      4261      4264
      4264      4265      4264      4266      4264      4267      4267      4268
      4267      4269      4267      4270      4270      4271      4270      4272
      4270      4273      4273      4274      4273      4275      4273      4276
      4276      4277      4276      4278      4276      4279      4279      4280
      4279      4281      4279      4282      4282      4283      4282      4284
      4282      4285      4285      4286      4285      4287      4285      4288
      4289      4293      4289      4297      4289      4301      4293      4294
      4293      4295      4293      4296      4297      4298      4297      4299
      4297      4300      4301      4302      4301      4303      4301      4304
      4289      4290      4290      4291      4290      4292      4290      4305
      4305      4306      4305      4307      4305      4311      4312      4313
      4311      4308      4308      4312      4308      4309      4308      4310
      4313      4314      4313      4315      4313      4316      4316      4317
      4316      4324      4316      4318      4324      4325      4324      4326
      4324      4327      4318      4319      4319      4321      4319      4320
      4321      4322      4321      4323      4321      4333      4333      4334
      4333      4335      4333      4336      4336      4337      4336      4338
      4336      4339      4339      4340      4339      4341      4339      4342
      4342      4343      4342      4344      4342      4345      4345      4346
      4345      4347      4345      4348      4348      4349      4348      4350
      4348      4351      4351      4352      4351      4353      4353      4354
      4353      4355      4355      4356      4355      4357      4355      4358
      4358      4359      4358      4360      4358      4361      4361      4362
      4361      4363      4361      4364      4364      4365      4364      4366
      4364      4367      4367      4368      4367      4369      4367      4370
      4370      4371      4370      4372      4370      4373      4373      4374
      4373      4375      4373      4376      4376      4377      4376      4378
      4376      4379      4327      4328      4328      4330      4328      4329
      4330      4331      4330      4332      4330      4380      4380      4381
      4380      4382      4380      4383      4383      4384      4383      4385
      4383      4386      4386      4387      4386      4388      4386      4389
      4389      4390      4389      4391      4389      4392      4392      4393
      4392      4394      4392      4395      4395      4396      4395      4397
      4395      4398      4398      4399      4398      4400      4398      4401
      4401      4402      4401      4403      4401      4404      4404      4405
      4404      4406      4404      4407      4407      4408      4407      4409
      4407      4410      4410      4411      4410      4412      4410      4413
      4413      4414      4413      4415      4413      4416      4416      4417
      4416      4418      4416      4419      4419      4420      4419      4421
      4419      4422      4423      4427      4423      4431      4423      4435
      4427      4428      4427      4429      4427      4430      4431      4432
      4431      4433      4431      4434      4435      4436      4435      4437
      4435      4438      4423      4424      4424      4425      4424      4426
      4424      4439      4439      4440      4439      4441      4439      4445
      4446      4447      4445      4442      4442      4446      4442      4443
      4442      4444      4447      4448      4447      4449      4447      4450
      4450      4451      4450      4458      4450      4452      4458      4459
      4458      4460      4458      4461      4452      4453      4453      4455
      4453      4454      4455      4456      4455      4457      4455      4467
      4467      4468      4467      4469      4467      4470      4470      4471
      4470      4472      4470      4473      4473      4474      4473      4475
      4473      4476      4476      4477      4476      4478      4476      4479
      4479      4480      4479      4481      4479      4482      4482      4483
      4482      4484      4482      4485      4485      4486      4485      4487
      4487      4488      4487      4489      4489      4490      4489      4491
      4489      4492      4492      4493      4492      4494      4492      4495
      4495      4496      4495      4497      4495      4498      4498      4499
      4498      4500      4498      4501      4501      4502      4501      4503
      4501      4504      4504      4505      4504      4506      4504      4507
      4507      4508      4507      4509      4507      4510      4510      4511
      4510      4512      4510      4513      4461      4462      4462      4464
      4462      4463      4464      4465      4464      4466      4464      4514
      4514      4515      4514      4516      4514      4517      4517      4518
      4517      4519      4517      4520      4520      4521      4520      4522
      4520      4523      4523      4524      4523      4525      4523      4526
      4526      4527      4526      4528      4526      4529      4529      4530
      4529      4531      4529      4532      4532      4533      4532      4534
      4532      4535      4535      4536      4535      4537      4535      4538
      4538      4539      4538      4540      4538      4541      4541      4542
      4541      4543      4541      4544      4544      4545      4544      4546
      4544      4547      4547      4548      4547      4549      4547      4550
      4550      4551      4550      4552      4550      4553      4553      4554
      4553      4555      4553      4556      4557      4561      4557      4565
      4557      4569      4561      4562      4561      4563      4561      4564
      4565      4566      4565      4567      4565      4568      4569      4570
      4569      4571      4569      4572      4557      4558      4558      4559
      4558      4560      4558      4573      4573      4574      4573      4575
      4573      4579      4580      4581      4579      4576      4576      4580
      4576      4577      4576      4578      4581      4582      4581      4583
      4581      4584      4584      4585      4584      4592      4584      4586
      4592      4593      4592      4594      4592      4595      4586      4587
      4587      4589      4587      4588      4589      4590      4589      4591
      4589      4601      4601      4602      4601      4603      4601      4604
      4604      4605      4604      4606      4604      4607      4607      4608
      4607      4609      4607      4610      4610      4611      4610      4612
      4610      4613      4613      4614      4613      4615      4613      4616
      4616      4617      4616      4618      4616      4619      4619      4620
      4619      4621      4621      4622      4621      4623      4623      4624
      4623      4625      4623      4626      4626      4627      4626      4628
      4626      4629      4629      4630      4629      4631      4629      4632
      4632      4633      4632      4634      4632      4635      4635      4636
      4635      4637      4635      4638      4638      4639      4638      4640
      4638      4641      4641      4642      4641      4643      4641      4644
      4644      4645      4644      4646      4644      4647      4595      4596
      4596      4598      4596      4597      4598      4599      4598      4600
      4598      4648      4648      4649      4648      4650      4648      4651
      4651      4652      4651      4653      4651      4654      4654      4655
      4654      4656      4654      4657      4657      4658      4657      4659
      4657      4660      4660      4661      4660      4662      4660      4663
      4663      4664      4663      4665      4663      4666      4666      4667
      4666      4668      4666      4669      4669      4670      4669      4671
      4669      4672      4672      4673      4672      4674      4672      4675
      4675      4676      4675      4677      4675      4678      4678      4679
      4678      4680      4678      4681      4681      4682      4681      4683
      4681      4684      4684      4685      4684      4686      4684      4687
      4687      4688      4687      4689      4687      4690      4691      4695
      4691      4699      4691      4703      4695      4696      4695      4697
      4695      4698      4699      4700      4699      4701      4699      4702
      4703      4704      4703      4705      4703      4706      4691      4692
      4692      4693      4692      4694      4692      4707      4707      4708
      4707      4709      4707      4713      4714      4715      4713      4710
      4710      4714      4710      4711      4710      4712      4715      4716
      4715      4717      4715      4718      4718      4719      4718      4726
      4718      4720      4726      4727      4726      4728      4726      4729
      4720      4721      4721      4723      4721      4722      4723      4724
      4723      4725      4723      4735      4735      4736      4735      4737
      4735      4738      4738      4739      4738      4740      4738      4741
      4741      4742      4741      4743      4741      4744      4744      4745
      4744      4746      4744      4747      4747      4748      4747      4749
      4747      4750      4750      4751      4750      4752      4750      4753
      4753      4754      4753      4755      4755      4756      4755      4757
      4757      4758      4757      4759      4757      4760      4760      4761
      4760      4762      4760      4763      4763      4764      4763      4765
      4763      4766      4766      4767      4766      4768      4766      4769
      4769      4770      4769      4771      4769      4772      4772      4773
      4772      4774      4772      4775      4775      4776      4775      4777
      4775      4778      4778      4779      4778      4780      4778      4781
      4729      4730      4730      4732      4730      4731      4732      4733
      4732      4734      4732      4782      4782      4783      4782      4784
      4782      4785      4785      4786      4785      4787      4785      4788
      4788      4789      4788      4790      4788      4791      4791      4792
      4791      4793      4791      4794      4794      4795      4794      4796
      4794      4797      4797      4798      4797      4799      4797      4800
      4800      4801      4800      4802      4800      4803      4803      4804
      4803      4805      4803      4806      4806      4807      4806      4808
      4806      4809      4809      4810      4809      4811      4809      4812
      4812      4813      4812      4814      4812      4815      4815      4816
      4815      4817      4815      4818      4818      4819      4818      4820
      4818      4821      4821      4822      4821      4823      4821      4824
      4825      4829      4825      4833      4825      4837      4829      4830
      4829      4831      4829      4832      4833      4834      4833      4835
      4833      4836      4837      4838      4837      4839      4837      4840
      4825      4826      4826      4827      4826      4828      4826      4841
      4841      4842      4841      4843      4841      4847      4848      4849
      4847      4844      4844      4848      4844      4845      4844      4846
      4849      4850      4849      4851      4849      4852      4852      4853
      4852      4860      4852      4854      4860      4861      4860      4862
      4860      4863      4854      4855      4855      4857      4855      4856
      4857      4858      4857      4859      4857      4869      4869      4870
      4869      4871      4869      4872      4872      4873      4872      4874
      4872      4875      4875      4876      4875      4877      4875      4878
      4878      4879      4878      4880      4878      4881      4881      4882
      4881      4883      4881      4884      4884      4885      4884      4886
      4884      4887      4887      4888      4887      4889      4889      4890
      4889      4891      4891      4892      4891      4893      4891      4894
      4894      4895      4894      4896      4894      4897      4897      4898
      4897      4899      4897      4900      4900      4901      4900      4902
      4900      4903      4903      4904      4903      4905      4903      4906
      4906      4907      4906      4908      4906      4909      4909      4910
      4909      4911      4909      4912      4912      4913      4912      4914
      4912      4915      4863      4864      4864      4866      4864      4865
      4866      4867      4866      4868      4866      4916      4916      4917
      4916      4918      4916      4919      4919      4920      4919      4921
      4919      4922      4922      4923      4922      4924      4922      4925
      4925      4926      4925      4927      4925      4928      4928      4929
      4928      4930      4928      4931      4931      4932      4931      4933
      4931      4934      4934      4935      4934      4936      4934      4937
      4937      4938      4937      4939      4937      4940      4940      4941
      4940      4942      4940      4943      4943      4944      4943      4945
      4943      4946      4946      4947      4946      4948      4946      4949
      4949      4950      4949      4951      4949      4952      4952      4953
      4952      4954      4952      4955      4955      4956      4955      4957
      4955      4958      4959      4963      4959      4967      4959      4971
      4963      4964      4963      4965      4963      4966      4967      4968
      4967      4969      4967      4970      4971      4972      4971      4973
      4971      4974      4959      4960      4960      4961      4960      4962
      4960      4975      4975      4976      4975      4977      4975      4981
      4982      4983      4981      4978      4978      4982      4978      4979
      4978      4980      4983      4984      4983      4985      4983      4986
      4986      4987      4986      4994      4986      4988      4994      4995
      4994      4996      4994      4997      4988      4989      4989      4991
      4989      4990      4991      4992      4991      4993      4991      5003
      5003      5004      5003      5005      5003      5006      5006      5007
      5006      5008      5006      5009      5009      5010      5009      5011
      5009      5012      5012      5013      5012      5014      5012      5015
      5015      5016      5015      5017      5015      5018      5018      5019
      5018      5020      5018      5021      5021      5022      5021      5023
      5023      5024      5023      5025      5025      5026      5025      5027
      5025      5028      5028      5029      5028      5030      5028      5031
      5031      5032      5031      5033      5031      5034      5034      5035
      5034      5036      5034      5037      5037      5038      5037      5039
      5037      5040      5040      5041      5040      5042      5040      5043
      5043      5044      5043      5045      5043      5046      5046      5047
      5046      5048      5046      5049      4997      4998      4998      5000
      4998      4999      5000      5001      5000      5002      5000      5050
      5050      5051      5050      5052      5050      5053      5053      5054
      5053      5055      5053      5056      5056      5057      5056      5058
      5056      5059      5059      5060      5059      5061      5059      5062
      5062      5063      5062      5064      5062      5065      5065      5066
      5065      5067      5065      5068      5068      5069      5068      5070
      5068      5071      5071      5072      5071      5073      5071      5074
      5074      5075      5074      5076      5074      5077      5077      5078
      5077      5079      5077      5080      5080      5081      5080      5082
      5080      5083      5083      5084      5083      5085      5083      5086
      5086      5087      5086      5088      5086      5089      5089      5090
      5089      5091      5089      5092      5093      5097      5093      5101
      5093      5105      5097      5098      5097      5099      5097      5100
      5101      5102      5101      5103      5101      5104      5105      5106
      5105      5107      5105      5108      5093      5094      5094      5095
      5094      5096      5094      5109      5109      5110      5109      5111
      5109      5115      5116      5117      5115      5112      5112      5116
      5112      5113      5112      5114      5117      5118      5117      5119
      5117      5120      5120      5121      5120      5128      5120      5122
      5128      5129      5128      5130      5128      5131      5122      5123
      5123      5125      5123      5124      5125      5126      5125      5127
      5125      5137      5137      5138      5137      5139      5137      5140
      5140      5141      5140      5142      5140      5143      5143      5144
      5143      5145      5143      5146      5146      5147      5146      5148
      5146      5149      5149      5150      5149      5151      5149      5152
      5152      5153      5152      5154      5152      5155      5155      5156
      5155      5157      5157      5158      5157      5159      5159      5160
      5159      5161      5159      5162      5162      5163      5162      5164
      5162      5165      5165      5166      5165      5167      5165      5168
      5168      5169      5168      5170      5168      5171      5171      5172
      5171      5173      5171      5174      5174      5175      5174      5176
      5174      5177      5177      5178      5177      5179      5177      5180
      5180      5181      5180      5182      5180      5183      5131      5132
      5132      5134      5132      5133      5134      5135      5134      5136
      5134      5184      5184      5185      5184      5186      5184      5187
      5187      5188      5187      5189      5187      5190      5190      5191
      5190      5192      5190      5193      5193      5194      5193      5195
      5193      5196      5196      5197      5196      5198      5196      5199
      5199      5200      5199      5201      5199      5202      5202      5203
      5202      5204      5202      5205      5205      5206      5205      5207
      5205      5208      5208      5209      5208      5210      5208      5211
      5211      5212      5211      5213      5211      5214      5214      5215
      5214      5216      5214      5217      5217      5218      5217      5219
      5217      5220      5220      5221      5220      5222      5220      5223
      5223      5224      5223      5225      5223      5226      5227      5231
      5227      5235      5227      5239      5231      5232      5231      5233
      5231      5234      5235      5236      5235      5237      5235      5238
      5239      5240      5239      5241      5239      5242      5227      5228
      5228      5229      5228      5230      5228      5243      5243      5244
      5243      5245      5243      5249      5250      5251      5249      5246
      5246      5250      5246      5247      5246      5248      5251      5252
      5251      5253      5251      5254      5254      5255      5254      5262
      5254      5256      5262      5263      5262      5264      5262      5265
      5256      5257      5257      5259      5257      5258      5259      5260
      5259      5261      5259      5271      5271      5272      5271      5273
      5271      5274      5274      5275      5274      5276      5274      5277
      5277      5278      5277      5279      5277      5280      5280      5281
      5280      5282      5280      5283      5283      5284      5283      5285
      5283      5286      5286      5287      5286      5288      5286      5289
      5289      5290      5289      5291      5291      5292      5291      5293
      5293      5294      5293      5295      5293      5296      5296      5297
      5296      5298      5296      5299      5299      5300      5299      5301
      5299      5302      5302      5303      5302      5304      5302      5305
      5305      5306      5305      5307      5305      5308      5308      5309
      5308      5310      5308      5311      5311      5312      5311      5313
      5311      5314      5314      5315      5314      5316      5314      5317
      5265      5266      5266      5268      5266      5267      5268      5269
      5268      5270      5268      5318      5318      5319      5318      5320
      5318      5321      5321      5322      5321      5323      5321      5324
      5324      5325      5324      5326      5324      5327      5327      5328
      5327      5329      5327      5330      5330      5331      5330      5332
      5330      5333      5333      5334      5333      5335      5333      5336
      5336      5337      5336      5338      5336      5339      5339      5340
      5339      5341      5339      5342      5342      5343      5342      5344
      5342      5345      5345      5346      5345      5347      5345      5348
      5348      5349      5348      5350      5348      5351      5351      5352
      5351      5353      5351      5354      5354      5355      5354      5356
      5354      5357      5357      5358      5357      5359      5357      5360
      5361      5365      5361      5369      5361      5373      5365      5366
      5365      5367      5365      5368      5369      5370      5369      5371
      5369      5372      5373      5374      5373      5375      5373      5376
      5361      5362      5362      5363      5362      5364      5362      5377
      5377      5378      5377      5379      5377      5383      5384      5385
      5383      5380      5380      5384      5380      5381      5380      5382
      5385      5386      5385      5387      5385      5388      5388      5389
      5388      5396      5388      5390      5396      5397      5396      5398
      5396      5399      5390      5391      5391      5393      5391      5392
      5393      5394      5393      5395      5393      5405      5405      5406
      5405      5407      5405      5408      5408      5409      5408      5410
      5408      5411      5411      5412      5411      5413      5411      5414
      5414      5415      5414      5416      5414      5417      5417      5418
      5417      5419      5417      5420      5420      5421      5420      5422
      5420      5423      5423      5424      5423      5425      5425      5426
      5425      5427      5427      5428      5427      5429      5427      5430
      5430      5431      5430      5432      5430      5433      5433      5434
      5433      5435      5433      5436      5436      5437      5436      5438
      5436      5439      5439      5440      5439      5441      5439      5442
      5442      5443      5442      5444      5442      5445      5445      5446
      5445      5447      5445      5448      5448      5449      5448      5450
      5448      5451      5399      5400      5400      5402      5400      5401
      5402      5403      5402      5404      5402      5452      5452      5453
      5452      5454      5452      5455      5455      5456      5455      5457
      5455      5458      5458      5459      5458      5460      5458      5461
      5461      5462      5461      5463      5461      5464      5464      5465
      5464      5466      5464      5467      5467      5468      5467      5469
      5467      5470      5470      5471      5470      5472      5470      5473
      5473      5474      5473      5475      5473      5476      5476      5477
      5476      5478      5476      5479      5479      5480      5479      5481
      5479      5482      5482      5483      5482      5484      5482      5485
      5485      5486      5485      5487      5485      5488      5488      5489
      5488      5490      5488      5491      5491      5492      5491      5493
      5491      5494      5495      5499      5495      5503      5495      5507
      5499      5500      5499      5501      5499      5502      5503      5504
      5503      5505      5503      5506      5507      5508      5507      5509
      5507      5510      5495      5496      5496      5497      5496      5498
      5496      5511      5511      5512      5511      5513      5511      5517
      5518      5519      5517      5514      5514      5518      5514      5515
      5514      5516      5519      5520      5519      5521      5519      5522
      5522      5523      5522      5530      5522      5524      5530      5531
      5530      5532      5530      5533      5524      5525      5525      5527
      5525      5526      5527      5528      5527      5529      5527      5539
      5539      5540      5539      5541      5539      5542      5542      5543
      5542      5544      5542      5545      5545      5546      5545      5547
      5545      5548      5548      5549      5548      5550      5548      5551
      5551      5552      5551      5553      5551      5554      5554      5555
      5554      5556      5554      5557      5557      5558      5557      5559
      5559      5560      5559      5561      5561      5562      5561      5563
      5561      5564      5564      5565      5564      5566      5564      5567
      5567      5568      5567      5569      5567      5570      5570      5571
      5570      5572      5570      5573      5573      5574      5573      5575
      5573      5576      5576      5577      5576      5578      5576      5579
      5579      5580      5579      5581      5579      5582      5582      5583
      5582      5584      5582      5585      5533      5534      5534      5536
      5534      5535      5536      5537      5536      5538      5536      5586
      5586      5587      5586      5588      5586      5589      5589      5590
      5589      5591      5589      5592      5592      5593      5592      5594
      5592      5595      5595      5596      5595      5597      5595      5598
      5598      5599      5598      5600      5598      5601      5601      5602
      5601      5603      5601      5604      5604      5605      5604      5606
      5604      5607      5607      5608      5607      5609      5607      5610
      5610      5611      5610      5612      5610      5613      5613      5614
      5613      5615      5613      5616      5616      5617      5616      5618
      5616      5619      5619      5620      5619      5621      5619      5622
      5622      5623      5622      5624      5622      5625      5625      5626
      5625      5627      5625      5628      5629      5633      5629      5637
      5629      5641      5633      5634      5633      5635      5633      5636
      5637      5638      5637      5639      5637      5640      5641      5642
      5641      5643      5641      5644      5629      5630      5630      5631
      5630      5632      5630      5645      5645      5646      5645      5647
      5645      5651      5652      5653      5651      5648      5648      5652
      5648      5649      5648      5650      5653      5654      5653      5655
      5653      5656      5656      5657      5656      5664      5656      5658
      5664      5665      5664      5666      5664      5667      5658      5659
      5659      5661      5659      5660      5661      5662      5661      5663
      5661      5673      5673      5674      5673      5675      5673      5676
      5676      5677      5676      5678      5676      5679      5679      5680
      5679      5681      5679      5682      5682      5683      5682      5684
      5682      5685      5685      5686      5685      5687      5685      5688
      5688      5689      5688      5690      5688      5691      5691      5692
      5691      5693      5693      5694      5693      5695      5695      5696
      5695      5697      5695      5698      5698      5699      5698      5700
      5698      5701      5701      5702      5701      5703      5701      5704
      5704      5705      5704      5706      5704      5707      5707      5708
      5707      5709      5707      5710      5710      5711      5710      5712
      5710      5713      5713      5714      5713      5715      5713      5716
      5716      5717      5716      5718      5716      5719      5667      5668
      5668      5670      5668      5669      5670      5671      5670      5672
      5670      5720      5720      5721      5720      5722      5720      5723
      5723      5724      5723      5725      5723      5726      5726      5727
      5726      5728      5726      5729      5729      5730      5729      5731
      5729      5732      5732      5733      5732      5734      5732      5735
      5735      5736      5735      5737      5735      5738      5738      5739
      5738      5740      5738      5741      5741      5742      5741      5743
      5741      5744      5744      5745      5744      5746      5744      5747
      5747      5748      5747      5749      5747      5750      5750      5751
      5750      5752      5750      5753      5753      5754      5753      5755
      5753      5756      5756      5757      5756      5758      5756      5759
      5759      5760      5759      5761      5759      5762      5763      5767
      5763      5771      5763      5775      5767      5768      5767      5769
      5767      5770      5771      5772      5771      5773      5771      5774
      5775      5776      5775      5777      5775      5778      5763      5764
      5764      5765      5764      5766      5764      5779      5779      5780
      5779      5781      5779      5785      5786      5787      5785      5782
      5782      5786      5782      5783      5782      5784      5787      5788
      5787      5789      5787      5790      5790      5791      5790      5798
      5790      5792      5798      5799      5798      5800      5798      5801
      5792      5793      5793      5795      5793      5794      5795      5796
      5795      5797      5795      5807      5807      5808      5807      5809
      5807      5810      5810      5811      5810      5812      5810      5813
      5813      5814      5813      5815      5813      5816      5816      5817
      5816      5818      5816      5819      5819      5820      5819      5821
      5819      5822      5822      5823      5822      5824      5822      5825
      5825      5826      5825      5827      5827      5828      5827      5829
      5829      5830      5829      5831      5829      5832      5832      5833
      5832      5834      5832      5835      5835      5836      5835      5837
      5835      5838      5838      5839      5838      5840      5838      5841
      5841      5842      5841      5843      5841      5844      5844      5845
      5844      5846      5844      5847      5847      5848      5847      5849
      5847      5850      5850      5851      5850      5852      5850      5853
      5801      5802      5802      5804      5802      5803      5804      5805
      5804      5806      5804      5854      5854      5855      5854      5856
      5854      5857      5857      5858      5857      5859      5857      5860
      5860      5861      5860      5862      5860      5863      5863      5864
      5863      5865      5863      5866      5866      5867      5866      5868
      5866      5869      5869      5870      5869      5871      5869      5872
      5872      5873      5872      5874      5872      5875      5875      5876
      5875      5877      5875      5878      5878      5879      5878      5880
      5878      5881      5881      5882      5881      5883      5881      5884
      5884      5885      5884      5886      5884      5887      5887      5888
      5887      5889      5887      5890      5890      5891      5890      5892
      5890      5893      5893      5894      5893      5895      5893      5896
      5897      5901      5897      5905      5897      5909      5901      5902
      5901      5903      5901      5904      5905      5906      5905      5907
      5905      5908      5909      5910      5909      5911      5909      5912
      5897      5898      5898      5899      5898      5900      5898      5913
      5913      5914      5913      5915      5913      5919      5920      5921
      5919      5916      5916      5920      5916      5917      5916      5918
      5921      5922      5921      5923      5921      5924      5924      5925
      5924      5932      5924      5926      5932      5933      5932      5934
      5932      5935      5926      5927      5927      5929      5927      5928
      5929      5930      5929      5931      5929      5941      5941      5942
      5941      5943      5941      5944      5944      5945      5944      5946
      5944      5947      5947      5948      5947      5949      5947      5950
      5950      5951      5950      5952      5950      5953      5953      5954
      5953      5955      5953      5956      5956      5957      5956      5958
      5956      5959      5959      5960      5959      5961      5961      5962
      5961      5963      5963      5964      5963      5965      5963      5966
      5966      5967      5966      5968      5966      5969      5969      5970
      5969      5971      5969      5972      5972      5973      5972      5974
      5972      5975      5975      5976      5975      5977      5975      5978
      5978      5979      5978      5980      5978      5981      5981      5982
      5981      5983      5981      5984      5984      5985      5984      5986
      5984      5987      5935      5936      5936      5938      5936      5937
      5938      5939      5938      5940      5938      5988      5988      5989
      5988      5990      5988      5991      5991      5992      5991      5993
      5991      5994      5994      5995      5994      5996      5994      5997
      5997      5998      5997      5999      5997      6000      6000      6001
      6000      6002      6000      6003      6003      6004      6003      6005
      6003      6006      6006      6007      6006      6008      6006      6009
      6009      6010      6009      6011      6009      6012      6012      6013
      6012      6014      6012      6015      6015      6016      6015      6017
      6015      6018      6018      6019      6018      6020      6018      6021
      6021      6022      6021      6023      6021      6024      6024      6025
      6024      6026      6024      6027      6027      6028      6027      6029
      6027      6030      6031      6035      6031      6039      6031      6043
      6035      6036      6035      6037      6035      6038      6039      6040
      6039      6041      6039      6042      6043      6044      6043      6045
      6043      6046      6031      6032      6032      6033      6032      6034
      6032      6047      6047      6048      6047      6049      6047      6053
      6054      6055      6053      6050      6050      6054      6050      6051
      6050      6052      6055      6056      6055      6057      6055      6058
      6058      6059      6058      6066      6058      6060      6066      6067
      6066      6068      6066      6069      6060      6061      6061      6063
      6061      6062      6063      6064      6063      6065      6063      6075
      6075      6076      6075      6077      6075      6078      6078      6079
      6078      6080      6078      6081      6081      6082      6081      6083
      6081      6084      6084      6085      6084      6086      6084      6087
      6087      6088      6087      6089      6087      6090      6090      6091
      6090      6092      6090      6093      6093      6094      6093      6095
      6095      6096      6095      6097      6097      6098      6097      6099
      6097      6100      6100      6101      6100      6102      6100      6103
      6103      6104      6103      6105      6103      6106      6106      6107
      6106      6108      6106      6109      6109      6110      6109      6111
      6109      6112      6112      6113      6112      6114      6112      6115
      6115      6116      6115      6117      6115      6118      6118      6119
      6118      6120      6118      6121      6069      6070      6070      6072
      6070      6071      6072      6073      6072      6074      6072      6122
      6122      6123      6122      6124      6122      6125      6125      6126
      6125      6127      6125      6128      6128      6129      6128      6130
      6128      6131      6131      6132      6131      6133      6131      6134
      6134      6135      6134      6136      6134      6137      6137      6138
      6137      6139      6137      6140      6140      6141      6140      6142
      6140      6143      6143      6144      6143      6145      6143      6146
      6146      6147      6146      6148      6146      6149      6149      6150
      6149      6151      6149      6152      6152      6153      6152      6154
      6152      6155      6155      6156      6155      6157      6155      6158
      6158      6159      6158      6160      6158      6161      6161      6162
      6161      6163      6161      6164      6165      6169      6165      6173
      6165      6177      6169      6170      6169      6171      6169      6172
      6173      6174      6173      6175      6173      6176      6177      6178
      6177      6179      6177      6180      6165      6166      6166      6167
      6166      6168      6166      6181      6181      6182      6181      6183
      6181      6187      6188      6189      6187      6184      6184      6188
      6184      6185      6184      6186      6189      6190      6189      6191
      6189      6192      6192      6193      6192      6200      6192      6194
      6200      6201      6200      6202      6200      6203      6194      6195
      6195      6197      6195      6196      6197      6198      6197      6199
      6197      6209      6209      6210      6209      6211      6209      6212
      6212      6213      6212      6214      6212      6215      6215      6216
      6215      6217      6215      6218      6218      6219      6218      6220
      6218      6221      6221      6222      6221      6223      6221      6224
      6224      6225      6224      6226      6224      6227      6227      6228
      6227      6229      6229      6230      6229      6231      6231      6232
      6231      6233      6231      6234      6234      6235      6234      6236
      6234      6237      6237      6238      6237      6239      6237      6240
      6240      6241      6240      6242      6240      6243      6243      6244
      6243      6245      6243      6246      6246      6247      6246      6248
      6246      6249      6249      6250      6249      6251      6249      6252
      6252      6253      6252      6254      6252      6255      6203      6204
      6204      6206      6204      6205      6206      6207      6206      6208
      6206      6256      6256      6257      6256      6258      6256      6259
      6259      6260      6259      6261      6259      6262      6262      6263
      6262      6264      6262      6265      6265      6266      6265      6267
      6265      6268      6268      6269      6268      6270      6268      6271
      6271      6272      6271      6273      6271      6274      6274      6275
      6274      6276      6274      6277      6277      6278      6277      6279
      6277      6280      6280      6281      6280      6282      6280      6283
      6283      6284      6283      6285      6283      6286      6286      6287
      6286      6288      6286      6289      6289      6290      6289      6291
      6289      6292      6292      6293      6292      6294      6292      6295
      6295      6296      6295      6297      6295      6298      6299      6303
      6299      6307      6299      6311      6303      6304      6303      6305
      6303      6306      6307      6308      6307      6309      6307      6310
      6311      6312      6311      6313      6311      6314      6299      6300
      6300      6301      6300      6302      6300      6315      6315      6316
      6315      6317      6315      6321      6322      6323      6321      6318
      6318      6322      6318      6319      6318      6320      6323      6324
      6323      6325      6323      6326      6326      6327      6326      6334
      6326      6328      6334      6335      6334      6336      6334      6337
      6328      6329      6329      6331      6329      6330      6331      6332
      6331      6333      6331      6343      6343      6344      6343      6345
      6343      6346      6346      6347      6346      6348      6346      6349
      6349      6350      6349      6351      6349      6352      6352      6353
      6352      6354      6352      6355      6355      6356      6355      6357
      6355      6358      6358      6359      6358      6360      6358      6361
      6361      6362      6361      6363      6363      6364      6363      6365
      6365      6366      6365      6367      6365      6368      6368      6369
      6368      6370      6368      6371      6371      6372      6371      6373
      6371      6374      6374      6375      6374      6376      6374      6377
      6377      6378      6377      6379      6377      6380      6380      6381
      6380      6382      6380      6383      6383      6384      6383      6385
      6383      6386      6386      6387      6386      6388      6386      6389
      6337      6338      6338      6340      6338      6339      6340      6341
      6340      6342      6340      6390      6390      6391      6390      6392
      6390      6393      6393      6394      6393      6395      6393      6396
      6396      6397      6396      6398      6396      6399      6399      6400
      6399      6401      6399      6402      6402      6403      6402      6404
      6402      6405      6405      6406      6405      6407      6405      6408
      6408      6409      6408      6410      6408      6411      6411      6412
      6411      6413      6411      6414      6414      6415      6414      6416
      6414      6417      6417      6418      6417      6419      6417      6420
      6420      6421      6420      6422      6420      6423      6423      6424
      6423      6425      6423      6426      6426      6427      6426      6428
      6426      6429      6429      6430      6429      6431      6429      6432
      6433      6437      6433      6441      6433      6445      6437      6438
      6437      6439      6437      6440      6441      6442      6441      6443
      6441      6444      6445      6446      6445      6447      6445      6448
      6433      6434      6434      6435      6434      6436      6434      6449
      6449      6450      6449      6451      6449      6455      6456      6457
      6455      6452      6452      6456      6452      6453      6452      6454
      6457      6458      6457      6459      6457      6460      6460      6461
      6460      6468      6460      6462      6468      6469      6468      6470
      6468      6471      6462      6463      6463      6465      6463      6464
      6465      6466      6465      6467      6465      6477      6477      6478
      6477      6479      6477      6480      6480      6481      6480      6482
      6480      6483      6483      6484      6483      6485      6483      6486
      6486      6487      6486      6488      6486      6489      6489      6490
      6489      6491      6489      6492      6492      6493      6492      6494
      6492      6495      6495      6496      6495      6497      6497      6498
      6497      6499      6499      6500      6499      6501      6499      6502
      6502      6503      6502      6504      6502      6505      6505      6506
      6505      6507      6505      6508      6508      6509      6508      6510
      6508      6511      6511      6512      6511      6513      6511      6514
      6514      6515      6514      6516      6514      6517      6517      6518
      6517      6519      6517      6520      6520      6521      6520      6522
      6520      6523      6471      6472      6472      6474      6472      6473
      6474      6475      6474      6476      6474      6524      6524      6525
      6524      6526      6524      6527      6527      6528      6527      6529
      6527      6530      6530      6531      6530      6532      6530      6533
      6533      6534      6533      6535      6533      6536      6536      6537
      6536      6538      6536      6539      6539      6540      6539      6541
      6539      6542      6542      6543      6542      6544      6542      6545
      6545      6546      6545      6547      6545      6548      6548      6549
      6548      6550      6548      6551      6551      6552      6551      6553
      6551      6554      6554      6555      6554      6556      6554      6557
      6557      6558      6557      6559      6557      6560      6560      6561
      6560      6562      6560      6563      6563      6564      6563      6565
      6563      6566      6567      6571      6567      6575      6567      6579
      6571      6572      6571      6573      6571      6574      6575      6576
      6575      6577      6575      6578      6579      6580      6579      6581
      6579      6582      6567      6568      6568      6569      6568      6570
      6568      6583      6583      6584      6583      6585      6583      6589
      6590      6591      6589      6586      6586      6590      6586      6587
      6586      6588      6591      6592      6591      6593      6591      6594
      6594      6595      6594      6602      6594      6596      6602      6603
      6602      6604      6602      6605      6596      6597      6597      6599
      6597      6598      6599      6600      6599      6601      6599      6611
      6611      6612      6611      6613      6611      6614      6614      6615
      6614      6616      6614      6617      6617      6618      6617      6619
      6617      6620      6620      6621      6620      6622      6620      6623
      6623      6624      6623      6625      6623      6626      6626      6627
      6626      6628      6626      6629      6629      6630      6629      6631
      6631      6632      6631      6633      6633      6634      6633      6635
      6633      6636      6636      6637      6636      6638      6636      6639
      6639      6640      6639      6641      6639      6642      6642      6643
      6642      6644      6642      6645      6645      6646      6645      6647
      6645      6648      6648      6649      6648      6650      6648      6651
      6651      6652      6651      6653      6651      6654      6654      6655
      6654      6656      6654      6657      6605      6606      6606      6608
      6606      6607      6608      6609      6608      6610      6608      6658
      6658      6659      6658      6660      6658      6661      6661      6662
      6661      6663      6661      6664      6664      6665      6664      6666
      6664      6667      6667      6668      6667      6669      6667      6670
      6670      6671      6670      6672      6670      6673      6673      6674
      6673      6675      6673      6676      6676      6677      6676      6678
      6676      6679      6679      6680      6679      6681      6679      6682
      6682      6683      6682      6684      6682      6685      6685      6686
      6685      6687      6685      6688      6688      6689      6688      6690
      6688      6691      6691      6692      6691      6693      6691      6694
      6694      6695      6694      6696      6694      6697      6697      6698
      6697      6699      6697      6700      6701      6705      6701      6709
      6701      6713      6705      6706      6705      6707      6705      6708
      6709      6710      6709      6711      6709      6712      6713      6714
      6713      6715      6713      6716      6701      6702      6702      6703
      6702      6704      6702      6717      6717      6718      6717      6719
      6717      6723      6724      6725      6723      6720      6720      6724
      6720      6721      6720      6722      6725      6726      6725      6727
      6725      6728      6728      6729      6728      6736      6728      6730
      6736      6737      6736      6738      6736      6739      6730      6731
      6731      6733      6731      6732      6733      6734      6733      6735
      6733      6745      6745      6746      6745      6747      6745      6748
      6748      6749      6748      6750      6748      6751      6751      6752
      6751      6753      6751      6754      6754      6755      6754      6756
      6754      6757      6757      6758      6757      6759      6757      6760
      6760      6761      6760      6762      6760      6763      6763      6764
      6763      6765      6765      6766      6765      6767      6767      6768
      6767      6769      6767      6770      6770      6771      6770      6772
      6770      6773      6773      6774      6773      6775      6773      6776
      6776      6777      6776      6778      6776      6779      6779      6780
      6779      6781      6779      6782      6782      6783      6782      6784
      6782      6785      6785      6786      6785      6787      6785      6788
      6788      6789      6788      6790      6788      6791      6739      6740
      6740      6742      6740      6741      6742      6743      6742      6744
      6742      6792      6792      6793      6792      6794      6792      6795
      6795      6796      6795      6797      6795      6798      6798      6799
      6798      6800      6798      6801      6801      6802      6801      6803
      6801      6804      6804      6805      6804      6806      6804      6807
      6807      6808      6807      6809      6807      6810      6810      6811
      6810      6812      6810      6813      6813      6814      6813      6815
      6813      6816      6816      6817      6816      6818      6816      6819
      6819      6820      6819      6821      6819      6822      6822      6823
      6822      6824      6822      6825      6825      6826      6825      6827
      6825      6828      6828      6829      6828      6830      6828      6831
      6831      6832      6831      6833      6831      6834      6835      6839
      6835      6843      6835      6847      6839      6840      6839      6841
      6839      6842      6843      6844      6843      6845      6843      6846
      6847      6848      6847      6849      6847      6850      6835      6836
      6836      6837      6836      6838      6836      6851      6851      6852
      6851      6853      6851      6857      6858      6859      6857      6854
      6854      6858      6854      6855      6854      6856      6859      6860
      6859      6861      6859      6862      6862      6863      6862      6870
      6862      6864      6870      6871      6870      6872      6870      6873
      6864      6865      6865      6867      6865      6866      6867      6868
      6867      6869      6867      6879      6879      6880      6879      6881
      6879      6882      6882      6883      6882      6884      6882      6885
      6885      6886      6885      6887      6885      6888      6888      6889
      6888      6890      6888      6891      6891      6892      6891      6893
      6891      6894      6894      6895      6894      6896      6894      6897
      6897      6898      6897      6899      6899      6900      6899      6901
      6901      6902      6901      6903      6901      6904      6904      6905
      6904      6906      6904      6907      6907      6908      6907      6909
      6907      6910      6910      6911      6910      6912      6910      6913
      6913      6914      6913      6915      6913      6916      6916      6917
      6916      6918      6916      6919      6919      6920      6919      6921
      6919      6922      6922      6923      6922      6924      6922      6925
      6873      6874      6874      6876      6874      6875      6876      6877
      6876      6878      6876      6926      6926      6927      6926      6928
      6926      6929      6929      6930      6929      6931      6929      6932
      6932      6933      6932      6934      6932      6935      6935      6936
      6935      6937      6935      6938      6938      6939      6938      6940
      6938      6941      6941      6942      6941      6943      6941      6944
      6944      6945      6944      6946      6944      6947      6947      6948
      6947      6949      6947      6950      6950      6951      6950      6952
      6950      6953      6953      6954      6953      6955      6953      6956
      6956      6957      6956      6958      6956      6959      6959      6960
      6959      6961      6959      6962      6962      6963      6962      6964
      6962      6965      6965      6966      6965      6967      6965      6968
      6969      6973      6969      6977      6969      6981      6973      6974
      6973      6975      6973      6976      6977      6978      6977      6979
      6977      6980      6981      6982      6981      6983      6981      6984
      6969      6970      6970      6971      6970      6972      6970      6985
      6985      6986      6985      6987      6985      6991      6992      6993
      6991      6988      6988      6992      6988      6989      6988      6990
      6993      6994      6993      6995      6993      6996      6996      6997
      6996      7004      6996      6998      7004      7005      7004      7006
      7004      7007      6998      6999      6999      7001      6999      7000
      7001      7002      7001      7003      7001      7013      7013      7014
      7013      7015      7013      7016      7016      7017      7016      7018
      7016      7019      7019      7020      7019      7021      7019      7022
      7022      7023      7022      7024      7022      7025      7025      7026
      7025      7027      7025      7028      7028      7029      7028      7030
      7028      7031      7031      7032      7031      7033      7033      7034
      7033      7035      7035      7036      7035      7037      7035      7038
      7038      7039      7038      7040      7038      7041      7041      7042
      7041      7043      7041      7044      7044      7045      7044      7046
      7044      7047      7047      7048      7047      7049      7047      7050
      7050      7051      7050      7052      7050      7053      7053      7054
      7053      7055      7053      7056      7056      7057      7056      7058
      7056      7059      7007      7008      7008      7010      7008      7009
      7010      7011      7010      7012      7010      7060      7060      7061
      7060      7062      7060      7063      7063      7064      7063      7065
      7063      7066      7066      7067      7066      7068      7066      7069
      7069      7070      7069      7071      7069      7072      7072      7073
      7072      7074      7072      7075      7075      7076      7075      7077
      7075      7078      7078      7079      7078      7080      7078      7081
      7081      7082      7081      7083      7081      7084      7084      7085
      7084      7086      7084      7087      7087      7088      7087      7089
      7087      7090      7090      7091      7090      7092      7090      7093
      7093      7094      7093      7095      7093      7096      7096      7097
      7096      7098      7096      7099      7099      7100      7099      7101
      7099      7102      7103      7107      7103      7111      7103      7115
      7107      7108      7107      7109      7107      7110      7111      7112
      7111      7113      7111      7114      7115      7116      7115      7117
      7115      7118      7103      7104      7104      7105      7104      7106
      7104      7119      7119      7120      7119      7121      7119      7125
      7126      7127      7125      7122      7122      7126      7122      7123
      7122      7124      7127      7128      7127      7129      7127      7130
      7130      7131      7130      7138      7130      7132      7138      7139
      7138      7140      7138      7141      7132      7133      7133      7135
      7133      7134      7135      7136      7135      7137      7135      7147
      7147      7148      7147      7149      7147      7150      7150      7151
      7150      7152      7150      7153      7153      7154      7153      7155
      7153      7156      7156      7157      7156      7158      7156      7159
      7159      7160      7159      7161      7159      7162      7162      7163
      7162      7164      7162      7165      7165      7166      7165      7167
      7167      7168      7167      7169      7169      7170      7169      7171
      7169      7172      7172      7173      7172      7174      7172      7175
      7175      7176      7175      7177      7175      7178      7178      7179
      7178      7180      7178      7181      7181      7182      7181      7183
      7181      7184      7184      7185      7184      7186      7184      7187
      7187      7188      7187      7189      7187      7190      7190      7191
      7190      7192      7190      7193      7141      7142      7142      7144
      7142      7143      7144      7145      7144      7146      7144      7194
      7194      7195      7194      7196      7194      7197      7197      7198
      7197      7199      7197      7200      7200      7201      7200      7202
      7200      7203      7203      7204      7203      7205      7203      7206
      7206      7207      7206      7208      7206      7209      7209      7210
      7209      7211      7209      7212      7212      7213      7212      7214
      7212      7215      7215      7216      7215      7217      7215      7218
      7218      7219      7218      7220      7218      7221      7221      7222
      7221      7223      7221      7224      7224      7225      7224      7226
      7224      7227      7227      7228      7227      7229      7227      7230
      7230      7231      7230      7232      7230      7233      7233      7234
      7233      7235      7233      7236      7237      7241      7237      7245
      7237      7249      7241      7242      7241      7243      7241      7244
      7245      7246      7245      7247      7245      7248      7249      7250
      7249      7251      7249      7252      7237      7238      7238      7239
      7238      7240      7238      7253      7253      7254      7253      7255
      7253      7259      7260      7261      7259      7256      7256      7260
      7256      7257      7256      7258      7261      7262      7261      7263
      7261      7264      7264      7265      7264      7272      7264      7266
      7272      7273      7272      7274      7272      7275      7266      7267
      7267      7269      7267      7268      7269      7270      7269      7271
      7269      7281      7281      7282      7281      7283      7281      7284
      7284      7285      7284      7286      7284      7287      7287      7288
      7287      7289      7287      7290      7290      7291      7290      7292
      7290      7293      7293      7294      7293      7295      7293      7296
      7296      7297      7296      7298      7296      7299      7299      7300
      7299      7301      7301      7302      7301      7303      7303      7304
      7303      7305      7303      7306      7306      7307      7306      7308
      7306      7309      7309      7310      7309      7311      7309      7312
      7312      7313      7312      7314      7312      7315      7315      7316
      7315      7317      7315      7318      7318      7319      7318      7320
      7318      7321      7321      7322      7321      7323      7321      7324
      7324      7325      7324      7326      7324      7327      7275      7276
      7276      7278      7276      7277      7278      7279      7278      7280
      7278      7328      7328      7329      7328      7330      7328      7331
      7331      7332      7331      7333      7331      7334      7334      7335
      7334      7336      7334      7337      7337      7338      7337      7339
      7337      7340      7340      7341      7340      7342      7340      7343
      7343      7344      7343      7345      7343      7346      7346      7347
      7346      7348      7346      7349      7349      7350      7349      7351
      7349      7352      7352      7353      7352      7354      7352      7355
      7355      7356      7355      7357      7355      7358      7358      7359
      7358      7360      7358      7361      7361      7362      7361      7363
      7361      7364      7364      7365      7364      7366      7364      7367
      7367      7368      7367      7369      7367      7370      7371      7375
      7371      7379      7371      7383      7375      7376      7375      7377
      7375      7378      7379      7380      7379      7381      7379      7382
      7383      7384      7383      7385      7383      7386      7371      7372
      7372      7373      7372      7374      7372      7387      7387      7388
      7387      7389      7387      7393      7394      7395      7393      7390
      7390      7394      7390      7391      7390      7392      7395      7396
      7395      7397      7395      7398      7398      7399      7398      7406
      7398      7400      7406      7407      7406      7408      7406      7409
      7400      7401      7401      7403      7401      7402      7403      7404
      7403      7405      7403      7415      7415      7416      7415      7417
      7415      7418      7418      7419      7418      7420      7418      7421
      7421      7422      7421      7423      7421      7424      7424      7425
      7424      7426      7424      7427      7427      7428      7427      7429
      7427      7430      7430      7431      7430      7432      7430      7433
      7433      7434      7433      7435      7435      7436      7435      7437
      7437      7438      7437      7439      7437      7440      7440      7441
      7440      7442      7440      7443      7443      7444      7443      7445
      7443      7446      7446      7447      7446      7448      7446      7449
      7449      7450      7449      7451      7449      7452      7452      7453
      7452      7454      7452      7455      7455      7456      7455      7457
      7455      7458      7458      7459      7458      7460      7458      7461
      7409      7410      7410      7412      7410      7411      7412      7413
      7412      7414      7412      7462      7462      7463      7462      7464
      7462      7465      7465      7466      7465      7467      7465      7468
      7468      7469      7468      7470      7468      7471      7471      7472
      7471      7473      7471      7474      7474      7475      7474      7476
      7474      7477      7477      7478      7477      7479      7477      7480
      7480      7481      7480      7482      7480      7483      7483      7484
      7483      7485      7483      7486      7486      7487      7486      7488
      7486      7489      7489      7490      7489      7491      7489      7492
      7492      7493      7492      7494      7492      7495      7495      7496
      7495      7497      7495      7498      7498      7499      7498      7500
      7498      7501      7501      7502      7501      7503      7501      7504
      7505      7509      7505      7513      7505      7517      7509      7510
      7509      7511      7509      7512      7513      7514      7513      7515
      7513      7516      7517      7518      7517      7519      7517      7520
      7505      7506      7506      7507      7506      7508      7506      7521
      7521      7522      7521      7523      7521      7527      7528      7529
      7527      7524      7524      7528      7524      7525      7524      7526
      7529      7530      7529      7531      7529      7532      7532      7533
      7532      7540      7532      7534      7540      7541      7540      7542
      7540      7543      7534      7535      7535      7537      7535      7536
      7537      7538      7537      7539      7537      7549      7549      7550
      7549      7551      7549      7552      7552      7553      7552      7554
      7552      7555      7555      7556      7555      7557      7555      7558
      7558      7559      7558      7560      7558      7561      7561      7562
      7561      7563      7561      7564      7564      7565      7564      7566
      7564      7567      7567      7568      7567      7569      7569      7570
      7569      7571      7571      7572      7571      7573      7571      7574
      7574      7575      7574      7576      7574      7577      7577      7578
      7577      7579      7577      7580      7580      7581      7580      7582
      7580      7583      7583      7584      7583      7585      7583      7586
      7586      7587      7586      7588      7586      7589      7589      7590
      7589      7591      7589      7592      7592      7593      7592      7594
      7592      7595      7543      7544      7544      7546      7544      7545
      7546      7547      7546      7548      7546      7596      7596      7597
      7596      7598      7596      7599      7599      7600      7599      7601
      7599      7602      7602      7603      7602      7604      7602      7605
      7605      7606      7605      7607      7605      7608      7608      7609
      7608      7610      7608      7611      7611      7612      7611      7613
      7611      7614      7614      7615      7614      7616      7614      7617
      7617      7618      7617      7619      7617      7620      7620      7621
      7620      7622      7620      7623      7623      7624      7623      7625
      7623      7626      7626      7627      7626      7628      7626      7629
      7629      7630      7629      7631      7629      7632      7632      7633
      7632      7634      7632      7635      7635      7636      7635      7637
      7635      7638      7639      7643      7639      7647      7639      7651
      7643      7644      7643      7645      7643      7646      7647      7648
      7647      7649      7647      7650      7651      7652      7651      7653
      7651      7654      7639      7640      7640      7641      7640      7642
      7640      7655      7655      7656      7655      7657      7655      7661
      7662      7663      7661      7658      7658      7662      7658      7659
      7658      7660      7663      7664      7663      7665      7663      7666
      7666      7667      7666      7674      7666      7668      7674      7675
      7674      7676      7674      7677      7668      7669      7669      7671
      7669      7670      7671      7672      7671      7673      7671      7683
      7683      7684      7683      7685      7683      7686      7686      7687
      7686      7688      7686      7689      7689      7690      7689      7691
      7689      7692      7692      7693      7692      7694      7692      7695
      7695      7696      7695      7697      7695      7698      7698      7699
      7698      7700      7698      7701      7701      7702      7701      7703
      7703      7704      7703      7705      7705      7706      7705      7707
      7705      7708      7708      7709      7708      7710      7708      7711
      7711      7712      7711      7713      7711      7714      7714      7715
      7714      7716      7714      7717      7717      7718      7717      7719
      7717      7720      7720      7721      7720      7722      7720      7723
      7723      7724      7723      7725      7723      7726      7726      7727
      7726      7728      7726      7729      7677      7678      7678      7680
      7678      7679      7680      7681      7680      7682      7680      7730
      7730      7731      7730      7732      7730      7733      7733      7734
      7733      7735      7733      7736      7736      7737      7736      7738
      7736      7739      7739      7740      7739      7741      7739      7742
      7742      7743      7742      7744      7742      7745      7745      7746
      7745      7747      7745      7748      7748      7749      7748      7750
      7748      7751      7751      7752      7751      7753      7751      7754
      7754      7755      7754      7756      7754      7757      7757      7758
      7757      7759      7757      7760      7760      7761      7760      7762
      7760      7763      7763      7764      7763      7765      7763      7766
      7766      7767      7766      7768      7766      7769      7769      7770
      7769      7771      7769      7772      7773      7777      7773      7781
      7773      7785      7777      7778      7777      7779      7777      7780
      7781      7782      7781      7783      7781      7784      7785      7786
      7785      7787      7785      7788      7773      7774      7774      7775
      7774      7776      7774      7789      7789      7790      7789      7791
      7789      7795      7796      7797      7795      7792      7792      7796
      7792      7793      7792      7794      7797      7798      7797      7799
      7797      7800      7800      7801      7800      7808      7800      7802
      7808      7809      7808      7810      7808      7811      7802      7803
      7803      7805      7803      7804      7805      7806      7805      7807
      7805      7817      7817      7818      7817      7819      7817      7820
      7820      7821      7820      7822      7820      7823      7823      7824
      7823      7825      7823      7826      7826      7827      7826      7828
      7826      7829      7829      7830      7829      7831      7829      7832
      7832      7833      7832      7834      7832      7835      7835      7836
      7835      7837      7837      7838      7837      7839      7839      7840
      7839      7841      7839      7842      7842      7843      7842      7844
      7842      7845      7845      7846      7845      7847      7845      7848
      7848      7849      7848      7850      7848      7851      7851      7852
      7851      7853      7851      7854      7854      7855      7854      7856
      7854      7857      7857      7858      7857      7859      7857      7860
      7860      7861      7860      7862      7860      7863      7811      7812
      7812      7814      7812      7813      7814      7815      7814      7816
      7814      7864      7864      7865      7864      7866      7864      7867
      7867      7868      7867      7869      7867      7870      7870      7871
      7870      7872      7870      7873      7873      7874      7873      7875
      7873      7876      7876      7877      7876      7878      7876      7879
      7879      7880      7879      7881      7879      7882      7882      7883
      7882      7884      7882      7885      7885      7886      7885      7887
      7885      7888      7888      7889      7888      7890      7888      7891
      7891      7892      7891      7893      7891      7894      7894      7895
      7894      7896      7894      7897      7897      7898      7897      7899
      7897      7900      7900      7901      7900      7902      7900      7903
      7903      7904      7903      7905      7903      7906      7907      7911
      7907      7915      7907      7919      7911      7912      7911      7913
      7911      7914      7915      7916      7915      7917      7915      7918
      7919      7920      7919      7921      7919      7922      7907      7908
      7908      7909      7908      7910      7908      7923      7923      7924
      7923      7925      7923      7929      7930      7931      7929      7926
      7926      7930      7926      7927      7926      7928      7931      7932
      7931      7933      7931      7934      7934      7935      7934      7942
      7934      7936      7942      7943      7942      7944      7942      7945
      7936      7937      7937      7939      7937      7938      7939      7940
      7939      7941      7939      7951      7951      7952      7951      7953
      7951      7954      7954      7955      7954      7956      7954      7957
      7957      7958      7957      7959      7957      7960      7960      7961
      7960      7962      7960      7963      7963      7964      7963      7965
      7963      7966      7966      7967      7966      7968      7966      7969
      7969      7970      7969      7971      7971      7972      7971      7973
      7973      7974      7973      7975      7973      7976      7976      7977
      7976      7978      7976      7979      7979      7980      7979      7981
      7979      7982      7982      7983      7982      7984      7982      7985
      7985      7986      7985      7987      7985      7988      7988      7989
      7988      7990      7988      7991      7991      7992      7991      7993
      7991      7994      7994      7995      7994      7996      7994      7997
      7945      7946      7946      7948      7946      7947      7948      7949
      7948      7950      7948      7998      7998      7999      7998      8000
      7998      8001      8001      8002      8001      8003      8001      8004
      8004      8005      8004      8006      8004      8007      8007      8008
      8007      8009      8007      8010      8010      8011      8010      8012
      8010      8013      8013      8014      8013      8015      8013      8016
      8016      8017      8016      8018      8016      8019      8019      8020
      8019      8021      8019      8022      8022      8023      8022      8024
      8022      8025      8025      8026      8025      8027      8025      8028
      8028      8029      8028      8030      8028      8031      8031      8032
      8031      8033      8031      8034      8034      8035      8034      8036
      8034      8037      8037      8038      8037      8039      8037      8040
      8041      8045      8041      8049      8041      8053      8045      8046
      8045      8047      8045      8048      8049      8050      8049      8051
      8049      8052      8053      8054      8053      8055      8053      8056
      8041      8042      8042      8043      8042      8044      8042      8057
      8057      8058      8057      8059      8057      8063      8064      8065
      8063      8060      8060      8064      8060      8061      8060      8062
      8065      8066      8065      8067      8065      8068      8068      8069
      8068      8076      8068      8070      8076      8077      8076      8078
      8076      8079      8070      8071      8071      8073      8071      8072
      8073      8074      8073      8075      8073      8085      8085      8086
      8085      8087      8085      8088      8088      8089      8088      8090
      8088      8091      8091      8092      8091      8093      8091      8094
      8094      8095      8094      8096      8094      8097      8097      8098
      8097      8099      8097      8100      8100      8101      8100      8102
      8100      8103      8103      8104      8103      8105      8105      8106
      8105      8107      8107      8108      8107      8109      8107      8110
      8110      8111      8110      8112      8110      8113      8113      8114
      8113      8115      8113      8116      8116      8117      8116      8118
      8116      8119      8119      8120      8119      8121      8119      8122
      8122      8123      8122      8124      8122      8125      8125      8126
      8125      8127      8125      8128      8128      8129      8128      8130
      8128      8131      8079      8080      8080      8082      8080      8081
      8082      8083      8082      8084      8082      8132      8132      8133
      8132      8134      8132      8135      8135      8136      8135      8137
      8135      8138      8138      8139      8138      8140      8138      8141
      8141      8142      8141      8143      8141      8144      8144      8145
      8144      8146      8144      8147      8147      8148      8147      8149
      8147      8150      8150      8151      8150      8152      8150      8153
      8153      8154      8153      8155      8153      8156      8156      8157
      8156      8158      8156      8159      8159      8160      8159      8161
      8159      8162      8162      8163      8162      8164      8162      8165
      8165      8166      8165      8167      8165      8168      8168      8169
      8168      8170      8168      8171      8171      8172      8171      8173
      8171      8174      8175      8179      8175      8183      8175      8187
      8179      8180      8179      8181      8179      8182      8183      8184
      8183      8185      8183      8186      8187      8188      8187      8189
      8187      8190      8175      8176      8176      8177      8176      8178
      8176      8191      8191      8192      8191      8193      8191      8197
      8198      8199      8197      8194      8194      8198      8194      8195
      8194      8196      8199      8200      8199      8201      8199      8202
      8202      8203      8202      8210      8202      8204      8210      8211
      8210      8212      8210      8213      8204      8205      8205      8207
      8205      8206      8207      8208      8207      8209      8207      8219
      8219      8220      8219      8221      8219      8222      8222      8223
      8222      8224      8222      8225      8225      8226      8225      8227
      8225      8228      8228      8229      8228      8230      8228      8231
      8231      8232      8231      8233      8231      8234      8234      8235
      8234      8236      8234      8237      8237      8238      8237      8239
      8239      8240      8239      8241      8241      8242      8241      8243
      8241      8244      8244      8245      8244      8246      8244      8247
      8247      8248      8247      8249      8247      8250      8250      8251
      8250      8252      8250      8253      8253      8254      8253      8255
      8253      8256      8256      8257      8256      8258      8256      8259
      8259      8260      8259      8261      8259      8262      8262      8263
      8262      8264      8262      8265      8213      8214      8214      8216
      8214      8215      8216      8217      8216      8218      8216      8266
      8266      8267      8266      8268      8266      8269      8269      8270
      8269      8271      8269      8272      8272      8273      8272      8274
      8272      8275      8275      8276      8275      8277      8275      8278
      8278      8279      8278      8280      8278      8281      8281      8282
      8281      8283      8281      8284      8284      8285      8284      8286
      8284      8287      8287      8288      8287      8289      8287      8290
      8290      8291      8290      8292      8290      8293      8293      8294
      8293      8295      8293      8296      8296      8297      8296      8298
      8296      8299      8299      8300      8299      8301      8299      8302
      8302      8303      8302      8304      8302      8305      8305      8306
      8305      8307      8305      8308      8309      8313      8309      8317
      8309      8321      8313      8314      8313      8315      8313      8316
      8317      8318      8317      8319      8317      8320      8321      8322
      8321      8323      8321      8324      8309      8310      8310      8311
      8310      8312      8310      8325      8325      8326      8325      8327
      8325      8331      8332      8333      8331      8328      8328      8332
      8328      8329      8328      8330      8333      8334      8333      8335
      8333      8336      8336      8337      8336      8344      8336      8338
      8344      8345      8344      8346      8344      8347      8338      8339
      8339      8341      8339      8340      8341      8342      8341      8343
      8341      8353      8353      8354      8353      8355      8353      8356
      8356      8357      8356      8358      8356      8359      8359      8360
      8359      8361      8359      8362      8362      8363      8362      8364
      8362      8365      8365      8366      8365      8367      8365      8368
      8368      8369      8368      8370      8368      8371      8371      8372
      8371      8373      8373      8374      8373      8375      8375      8376
      8375      8377      8375      8378      8378      8379      8378      8380
      8378      8381      8381      8382      8381      8383      8381      8384
      8384      8385      8384      8386      8384      8387      8387      8388
      8387      8389      8387      8390      8390      8391      8390      8392
      8390      8393      8393      8394      8393      8395      8393      8396
      8396      8397      8396      8398      8396      8399      8347      8348
      8348      8350      8348      8349      8350      8351      8350      8352
      8350      8400      8400      8401      8400      8402      8400      8403
      8403      8404      8403      8405      8403      8406      8406      8407
      8406      8408      8406      8409      8409      8410      8409      8411
      8409      8412      8412      8413      8412      8414      8412      8415
      8415      8416      8415      8417      8415      8418      8418      8419
      8418      8420      8418      8421      8421      8422      8421      8423
      8421      8424      8424      8425      8424      8426      8424      8427
      8427      8428      8427      8429      8427      8430      8430      8431
      8430      8432      8430      8433      8433      8434      8433      8435
      8433      8436      8436      8437      8436      8438      8436      8439
      8439      8440      8439      8441      8439      8442      8443      8447
      8443      8451      8443      8455      8447      8448      8447      8449
      8447      8450      8451      8452      8451      8453      8451      8454
      8455      8456      8455      8457      8455      8458      8443      8444
      8444      8445      8444      8446      8444      8459      8459      8460
      8459      8461      8459      8465      8466      8467      8465      8462
      8462      8466      8462      8463      8462      8464      8467      8468
      8467      8469      8467      8470      8470      8471      8470      8478
      8470      8472      8478      8479      8478      8480      8478      8481
      8472      8473      8473      8475      8473      8474      8475      8476
      8475      8477      8475      8487      8487      8488      8487      8489
      8487      8490      8490      8491      8490      8492      8490      8493
      8493      8494      8493      8495      8493      8496      8496      8497
      8496      8498      8496      8499      8499      8500      8499      8501
      8499      8502      8502      8503      8502      8504      8502      8505
      8505      8506      8505      8507      8507      8508      8507      8509
      8509      8510      8509      8511      8509      8512      8512      8513
      8512      8514      8512      8515      8515      8516      8515      8517
      8515      8518      8518      8519      8518      8520      8518      8521
      8521      8522      8521      8523      8521      8524      8524      8525
      8524      8526      8524      8527      8527      8528      8527      8529
      8527      8530      8530      8531      8530      8532      8530      8533
      8481      8482      8482      8484      8482      8483      8484      8485
      8484      8486      8484      8534      8534      8535      8534      8536
      8534      8537      8537      8538      8537      8539      8537      8540
      8540      8541      8540      8542      8540      8543      8543      8544
      8543      8545      8543      8546      8546      8547      8546      8548
      8546      8549      8549      8550      8549      8551      8549      8552
      8552      8553      8552      8554      8552      8555      8555      8556
      8555      8557      8555      8558      8558      8559      8558      8560
      8558      8561      8561      8562      8561      8563      8561      8564
      8564      8565      8564      8566      8564      8567      8567      8568
      8567      8569      8567      8570      8570      8571      8570      8572
      8570      8573      8573      8574      8573      8575      8573      8576
      8577      8581      8577      8585      8577      8589      8581      8582
      8581      8583      8581      8584      8585      8586      8585      8587
      8585      8588      8589      8590      8589      8591      8589      8592
      8577      8578      8578      8579      8578      8580      8578      8593
      8593      8594      8593      8595      8593      8599      8600      8601
      8599      8596      8596      8600      8596      8597      8596      8598
      8601      8602      8601      8603      8601      8604      8604      8605
      8604      8612      8604      8606      8612      8613      8612      8614
      8612      8615      8606      8607      8607      8609      8607      8608
      8609      8610      8609      8611      8609      8621      8621      8622
      8621      8623      8621      8624      8624      8625      8624      8626
      8624      8627      8627      8628      8627      8629      8627      8630
      8630      8631      8630      8632      8630      8633      8633      8634
      8633      8635      8633      8636      8636      8637      8636      8638
      8636      8639      8639      8640      8639      8641      8641      8642
      8641      8643      8643      8644      8643      8645      8643      8646
      8646      8647      8646      8648      8646      8649      8649      8650
      8649      8651      8649      8652      8652      8653      8652      8654
      8652      8655      8655      8656      8655      8657      8655      8658
      8658      8659      8658      8660      8658      8661      8661      8662
      8661      8663      8661      8664      8664      8665      8664      8666
      8664      8667      8615      8616      8616      8618      8616      8617
      8618      8619      8618      8620      8618      8668      8668      8669
      8668      8670      8668      8671      8671      8672      8671      8673
      8671      8674      8674      8675      8674      8676      8674      8677
      8677      8678      8677      8679      8677      8680      8680      8681
      8680      8682      8680      8683      8683      8684      8683      8685
      8683      8686      8686      8687      8686      8688      8686      8689
      8689      8690      8689      8691      8689      8692      8692      8693
      8692      8694      8692      8695      8695      8696      8695      8697
      8695      8698      8698      8699      8698      8700      8698      8701
      8701      8702      8701      8703      8701      8704      8704      8705
      8704      8706      8704      8707      8707      8708      8707      8709
      8707      8710      8711      8715      8711      8719      8711      8723
      8715      8716      8715      8717      8715      8718      8719      8720
      8719      8721      8719      8722      8723      8724      8723      8725
      8723      8726      8711      8712      8712      8713      8712      8714
      8712      8727      8727      8728      8727      8729      8727      8733
      8734      8735      8733      8730      8730      8734      8730      8731
      8730      8732      8735      8736      8735      8737      8735      8738
      8738      8739      8738      8746      8738      8740      8746      8747
      8746      8748      8746      8749      8740      8741      8741      8743
      8741      8742      8743      8744      8743      8745      8743      8755
      8755      8756      8755      8757      8755      8758      8758      8759
      8758      8760      8758      8761      8761      8762      8761      8763
      8761      8764      8764      8765      8764      8766      8764      8767
      8767      8768      8767      8769      8767      8770      8770      8771
      8770      8772      8770      8773      8773      8774      8773      8775
      8775      8776      8775      8777      8777      8778      8777      8779
      8777      8780      8780      8781      8780      8782      8780      8783
      8783      8784      8783      8785      8783      8786      8786      8787
      8786      8788      8786      8789      8789      8790      8789      8791
      8789      8792      8792      8793      8792      8794      8792      8795
      8795      8796      8795      8797      8795      8798      8798      8799
      8798      8800      8798      8801      8749      8750      8750      8752
      8750      8751      8752      8753      8752      8754      8752      8802
      8802      8803      8802      8804      8802      8805      8805      8806
      8805      8807      8805      8808      8808      8809      8808      8810
      8808      8811      8811      8812      8811      8813      8811      8814
      8814      8815      8814      8816      8814      8817      8817      8818
      8817      8819      8817      8820      8820      8821      8820      8822
      8820      8823      8823      8824      8823      8825      8823      8826
      8826      8827      8826      8828      8826      8829      8829      8830
      8829      8831      8829      8832      8832      8833      8832      8834
      8832      8835      8835      8836      8835      8837      8835      8838
      8838      8839      8838      8840      8838      8841      8841      8842
      8841      8843      8841      8844      8845      8849      8845      8853
      8845      8857      8849      8850      8849      8851      8849      8852
      8853      8854      8853      8855      8853      8856      8857      8858
      8857      8859      8857      8860      8845      8846      8846      8847
      8846      8848      8846      8861      8861      8862      8861      8863
      8861      8867      8868      8869      8867      8864      8864      8868
      8864      8865      8864      8866      8869      8870      8869      8871
      8869      8872      8872      8873      8872      8880      8872      8874
      8880      8881      8880      8882      8880      8883      8874      8875
      8875      8877      8875      8876      8877      8878      8877      8879
      8877      8889      8889      8890      8889      8891      8889      8892
      8892      8893      8892      8894      8892      8895      8895      8896
      8895      8897      8895      8898      8898      8899      8898      8900
      8898      8901      8901      8902      8901      8903      8901      8904
      8904      8905      8904      8906      8904      8907      8907      8908
      8907      8909      8909      8910      8909      8911      8911      8912
      8911      8913      8911      8914      8914      8915      8914      8916
      8914      8917      8917      8918      8917      8919      8917      8920
      8920      8921      8920      8922      8920      8923      8923      8924
      8923      8925      8923      8926      8926      8927      8926      8928
      8926      8929      8929      8930      8929      8931      8929      8932
      8932      8933      8932      8934      8932      8935      8883      8884
      8884      8886      8884      8885      8886      8887      8886      8888
      8886      8936      8936      8937      8936      8938      8936      8939
      8939      8940      8939      8941      8939      8942      8942      8943
      8942      8944      8942      8945      8945      8946      8945      8947
      8945      8948      8948      8949      8948      8950      8948      8951
      8951      8952      8951      8953      8951      8954      8954      8955
      8954      8956      8954      8957      8957      8958      8957      8959
      8957      8960      8960      8961      8960      8962      8960      8963
      8963      8964      8963      8965      8963      8966      8966      8967
      8966      8968      8966      8969      8969      8970      8969      8971
      8969      8972      8972      8973      8972      8974      8972      8975
      8975      8976      8975      8977      8975      8978      8979      8983
      8979      8987      8979      8991      8983      8984      8983      8985
      8983      8986      8987      8988      8987      8989      8987      8990
      8991      8992      8991      8993      8991      8994      8979      8980
      8980      8981      8980      8982      8980      8995      8995      8996
      8995      8997      8995      9001      9002      9003      9001      8998
      8998      9002      8998      8999      8998      9000      9003      9004
      9003      9005      9003      9006      9006      9007      9006      9014
      9006      9008      9014      9015      9014      9016      9014      9017
      9008      9009      9009      9011      9009      9010      9011      9012
      9011      9013      9011      9023      9023      9024      9023      9025
      9023      9026      9026      9027      9026      9028      9026      9029
      9029      9030      9029      9031      9029      9032      9032      9033
      9032      9034      9032      9035      9035      9036      9035      9037
      9035      9038      9038      9039      9038      9040      9038      9041
      9041      9042      9041      9043      9043      9044      9043      9045
      9045      9046      9045      9047      9045      9048      9048      9049
      9048      9050      9048      9051      9051      9052      9051      9053
      9051      9054      9054      9055      9054      9056      9054      9057
      9057      9058      9057      9059      9057      9060      9060      9061
      9060      9062      9060      9063      9063      9064      9063      9065
      9063      9066      9066      9067      9066      9068      9066      9069
      9017      9018      9018      9020      9018      9019      9020      9021
      9020      9022      9020      9070      9070      9071      9070      9072
      9070      9073      9073      9074      9073      9075      9073      9076
      9076      9077      9076      9078      9076      9079      9079      9080
      9079      9081      9079      9082      9082      9083      9082      9084
      9082      9085      9085      9086      9085      9087      9085      9088
      9088      9089      9088      9090      9088      9091      9091      9092
      9091      9093      9091      9094      9094      9095      9094      9096
      9094      9097      9097      9098      9097      9099      9097      9100
      9100      9101      9100      9102      9100      9103      9103      9104
      9103      9105      9103      9106      9106      9107      9106      9108
      9106      9109      9109      9110      9109      9111      9109      9112
      9113      9117      9113      9121      9113      9125      9117      9118
      9117      9119      9117      9120      9121      9122      9121      9123
      9121      9124      9125      9126      9125      9127      9125      9128
      9113      9114      9114      9115      9114      9116      9114      9129
      9129      9130      9129      9131      9129      9135      9136      9137
      9135      9132      9132      9136      9132      9133      9132      9134
      9137      9138      9137      9139      9137      9140      9140      9141
      9140      9148      9140      9142      9148      9149      9148      9150
      9148      9151      9142      9143      9143      9145      9143      9144
      9145      9146      9145      9147      9145      9157      9157      9158
      9157      9159      9157      9160      9160      9161      9160      9162
      9160      9163      9163      9164      9163      9165      9163      9166
      9166      9167      9166      9168      9166      9169      9169      9170
      9169      9171      9169      9172      9172      9173      9172      9174
      9172      9175      9175      9176      9175      9177      9177      9178
      9177      9179      9179      9180      9179      9181      9179      9182
      9182      9183      9182      9184      9182      9185      9185      9186
      9185      9187      9185      9188      9188      9189      9188      9190
      9188      9191      9191      9192      9191      9193      9191      9194
      9194      9195      9194      9196      9194      9197      9197      9198
      9197      9199      9197      9200      9200      9201      9200      9202
      9200      9203      9151      9152      9152      9154      9152      9153
      9154      9155      9154      9156      9154      9204      9204      9205
      9204      9206      9204      9207      9207      9208      9207      9209
      9207      9210      9210      9211      9210      9212      9210      9213
      9213      9214      9213      9215      9213      9216      9216      9217
      9216      9218      9216      9219      9219      9220      9219      9221
      9219      9222      9222      9223      9222      9224      9222      9225
      9225      9226      9225      9227      9225      9228      9228      9229
      9228      9230      9228      9231      9231      9232      9231      9233
      9231      9234      9234      9235      9234      9236      9234      9237
      9237      9238      9237      9239      9237      9240      9240      9241
      9240      9242      9240      9243      9243      9244      9243      9245
      9243      9246      9247      9251      9247      9255      9247      9259
      9251      9252      9251      9253      9251      9254      9255      9256
      9255      9257      9255      9258      9259      9260      9259      9261
      9259      9262      9247      9248      9248      9249      9248      9250
      9248      9263      9263      9264      9263      9265      9263      9269
      9270      9271      9269      9266      9266      9270      9266      9267
      9266      9268      9271      9272      9271      9273      9271      9274
      9274      9275      9274      9282      9274      9276      9282      9283
      9282      9284      9282      9285      9276      9277      9277      9279
      9277      9278      9279      9280      9279      9281      9279      9291
      9291      9292      9291      9293      9291      9294      9294      9295
      9294      9296      9294      9297      9297      9298      9297      9299
      9297      9300      9300      9301      9300      9302      9300      9303
      9303      9304      9303      9305      9303      9306      9306      9307
      9306      9308      9306      9309      9309      9310      9309      9311
      9311      9312      9311      9313      9313      9314      9313      9315
      9313      9316      9316      9317      9316      9318      9316      9319
      9319      9320      9319      9321      9319      9322      9322      9323
      9322      9324      9322      9325      9325      9326      9325      9327
      9325      9328      9328      9329      9328      9330      9328      9331
      9331      9332      9331      9333      9331      9334      9334      9335
      9334      9336      9334      9337      9285      9286      9286      9288
      9286      9287      9288      9289      9288      9290      9288      9338
      9338      9339      9338      9340      9338      9341      9341      9342
      9341      9343      9341      9344      9344      9345      9344      9346
      9344      9347      9347      9348      9347      9349      9347      9350
      9350      9351      9350      9352      9350      9353      9353      9354
      9353      9355      9353      9356      9356      9357      9356      9358
      9356      9359      9359      9360      9359      9361      9359      9362
      9362      9363      9362      9364      9362      9365      9365      9366
      9365      9367      9365      9368      9368      9369      9368      9370
      9368      9371      9371      9372      9371      9373      9371      9374
      9374      9375      9374      9376      9374      9377      9377      9378
      9377      9379      9377      9380      9381      9385      9381      9389
      9381      9393      9385      9386      9385      9387      9385      9388
      9389      9390      9389      9391      9389      9392      9393      9394
      9393      9395      9393      9396      9381      9382      9382      9383
      9382      9384      9382      9397      9397      9398      9397      9399
      9397      9403      9404      9405      9403      9400      9400      9404
      9400      9401      9400      9402      9405      9406      9405      9407
      9405      9408      9408      9409      9408      9416      9408      9410
      9416      9417      9416      9418      9416      9419      9410      9411
      9411      9413      9411      9412      9413      9414      9413      9415
      9413      9425      9425      9426      9425      9427      9425      9428
      9428      9429      9428      9430      9428      9431      9431      9432
      9431      9433      9431      9434      9434      9435      9434      9436
      9434      9437      9437      9438      9437      9439      9437      9440
      9440      9441      9440      9442      9440      9443      9443      9444
      9443      9445      9445      9446      9445      9447      9447      9448
      9447      9449      9447      9450      9450      9451      9450      9452
      9450      9453      9453      9454      9453      9455      9453      9456
      9456      9457      9456      9458      9456      9459      9459      9460
      9459      9461      9459      9462      9462      9463      9462      9464
      9462      9465      9465      9466      9465      9467      9465      9468
      9468      9469      9468      9470      9468      9471      9419      9420
      9420      9422      9420      9421      9422      9423      9422      9424
      9422      9472      9472      9473      9472      9474      9472      9475
      9475      9476      9475      9477      9475      9478      9478      9479
      9478      9480      9478      9481      9481      9482      9481      9483
      9481      9484      9484      9485      9484      9486      9484      9487
      9487      9488      9487      9489      9487      9490      9490      9491
      9490      9492      9490      9493      9493      9494      9493      9495
      9493      9496      9496      9497      9496      9498      9496      9499
      9499      9500      9499      9501      9499      9502      9502      9503
      9502      9504      9502      9505      9505      9506      9505      9507
      9505      9508      9508      9509      9508      9510      9508      9511
      9511      9512      9511      9513      9511      9514      9515      9519
      9515      9523      9515      9527      9519      9520      9519      9521
      9519      9522      9523      9524      9523      9525      9523      9526
      9527      9528      9527      9529      9527      9530      9515      9516
      9516      9517      9516      9518      9516      9531      9531      9532
      9531      9533      9531      9537      9538      9539      9537      9534
      9534      9538      9534      9535      9534      9536      9539      9540
      9539      9541      9539      9542      9542      9543      9542      9550
      9542      9544      9550      9551      9550      9552      9550      9553
      9544      9545      9545      9547      9545      9546      9547      9548
      9547      9549      9547      9559      9559      9560      9559      9561
      9559      9562      9562      9563      9562      9564      9562      9565
      9565      9566      9565      9567      9565      9568      9568      9569
      9568      9570      9568      9571      9571      9572      9571      9573
      9571      9574      9574      9575      9574      9576      9574      9577
      9577      9578      9577      9579      9579      9580      9579      9581
      9581      9582      9581      9583      9581      9584      9584      9585
      9584      9586      9584      9587      9587      9588      9587      9589
      9587      9590      9590      9591      9590      9592      9590      9593
      9593      9594      9593      9595      9593      9596      9596      9597
      9596      9598      9596      9599      9599      9600      9599      9601
      9599      9602      9602      9603      9602      9604      9602      9605
      9553      9554      9554      9556      9554      9555      9556      9557
      9556      9558      9556      9606      9606      9607      9606      9608
      9606      9609      9609      9610      9609      9611      9609      9612
      9612      9613      9612      9614      9612      9615      9615      9616
      9615      9617      9615      9618      9618      9619      9618      9620
      9618      9621      9621      9622      9621      9623      9621      9624
      9624      9625      9624      9626      9624      9627      9627      9628
      9627      9629      9627      9630      9630      9631      9630      9632
      9630      9633      9633      9634      9633      9635      9633      9636
      9636      9637      9636      9638      9636      9639      9639      9640
      9639      9641      9639      9642      9642      9643      9642      9644
      9642      9645      9645      9646      9645      9647      9645      9648
      9649      9653      9649      9657      9649      9661      9653      9654
      9653      9655      9653      9656      9657      9658      9657      9659
      9657      9660      9661      9662      9661      9663      9661      9664
      9649      9650      9650      9651      9650      9652      9650      9665
      9665      9666      9665      9667      9665      9671      9672      9673
      9671      9668      9668      9672      9668      9669      9668      9670
      9673      9674      9673      9675      9673      9676      9676      9677
      9676      9684      9676      9678      9684      9685      9684      9686
      9684      9687      9678      9679      9679      9681      9679      9680
      9681      9682      9681      9683      9681      9693      9693      9694
      9693      9695      9693      9696      9696      9697      9696      9698
      9696      9699      9699      9700      9699      9701      9699      9702
      9702      9703      9702      9704      9702      9705      9705      9706
      9705      9707      9705      9708      9708      9709      9708      9710
      9708      9711      9711      9712      9711      9713      9713      9714
      9713      9715      9715      9716      9715      9717      9715      9718
      9718      9719      9718      9720      9718      9721      9721      9722
      9721      9723      9721      9724      9724      9725      9724      9726
      9724      9727      9727      9728      9727      9729      9727      9730
      9730      9731      9730      9732      9730      9733      9733      9734
      9733      9735      9733      9736      9736      9737      9736      9738
      9736      9739      9687      9688      9688      9690      9688      9689
      9690      9691      9690      9692      9690      9740      9740      9741
      9740      9742      9740      9743      9743      9744      9743      9745
      9743      9746      9746      9747      9746      9748      9746      9749
      9749      9750      9749      9751      9749      9752      9752      9753
      9752      9754      9752      9755      9755      9756      9755      9757
      9755      9758      9758      9759      9758      9760      9758      9761
      9761      9762      9761      9763      9761      9764      9764      9765
      9764      9766      9764      9767      9767      9768      9767      9769
      9767      9770      9770      9771      9770      9772      9770      9773
      9773      9774      9773      9775      9773      9776      9776      9777
      9776      9778      9776      9779      9779      9780      9779      9781
      9779      9782      9783      9787      9783      9791      9783      9795
      9787      9788      9787      9789      9787      9790      9791      9792
      9791      9793      9791      9794      9795      9796      9795      9797
      9795      9798      9783      9784      9784      9785      9784      9786
      9784      9799      9799      9800      9799      9801      9799      9805
      9806      9807      9805      9802      9802      9806      9802      9803
      9802      9804      9807      9808      9807      9809      9807      9810
      9810      9811      9810      9818      9810      9812      9818      9819
      9818      9820      9818      9821      9812      9813      9813      9815
      9813      9814      9815      9816      9815      9817      9815      9827
      9827      9828      9827      9829      9827      9830      9830      9831
      9830      9832      9830      9833      9833      9834      9833      9835
      9833      9836      9836      9837      9836      9838      9836      9839
      9839      9840      9839      9841      9839      9842      9842      9843
      9842      9844      9842      9845      9845      9846      9845      9847
      9847      9848      9847      9849      9849      9850      9849      9851
      9849      9852      9852      9853      9852      9854      9852      9855
      9855      9856      9855      9857      9855      9858      9858      9859
      9858      9860      9858      9861      9861      9862      9861      9863
      9861      9864      9864      9865      9864      9866      9864      9867
      9867      9868      9867      9869      9867      9870      9870      9871
      9870      9872      9870      9873      9821      9822      9822      9824
      9822      9823      9824      9825      9824      9826      9824      9874
      9874      9875      9874      9876      9874      9877      9877      9878
      9877      9879      9877      9880      9880      9881      9880      9882
      9880      9883      9883      9884      9883      9885      9883      9886
      9886      9887      9886      9888      9886      9889      9889      9890
      9889      9891      9889      9892      9892      9893      9892      9894
      9892      9895      9895      9896      9895      9897      9895      9898
      9898      9899      9898      9900      9898      9901      9901      9902
      9901      9903      9901      9904      9904      9905      9904      9906
      9904      9907      9907      9908      9907      9909      9907      9910
      9910      9911      9910      9912      9910      9913      9913      9914
      9913      9915      9913      9916      9917      9921      9917      9925
      9917      9929      9921      9922      9921      9923      9921      9924
      9925      9926      9925      9927      9925      9928      9929      9930
      9929      9931      9929      9932      9917      9918      9918      9919
      9918      9920      9918      9933      9933      9934      9933      9935
      9933      9939      9940      9941      9939      9936      9936      9940
      9936      9937      9936      9938      9941      9942      9941      9943
      9941      9944      9944      9945      9944      9952      9944      9946
      9952      9953      9952      9954      9952      9955      9946      9947
      9947      9949      9947      9948      9949      9950      9949      9951
      9949      9961      9961      9962      9961      9963      9961      9964
      9964      9965      9964      9966      9964      9967      9967      9968
      9967      9969      9967      9970      9970      9971      9970      9972
      9970      9973      9973      9974      9973      9975      9973      9976
      9976      9977      9976      9978      9976      9979      9979      9980
      9979      9981      9981      9982      9981      9983      9983      9984
      9983      9985      9983      9986      9986      9987      9986      9988
      9986      9989      9989      9990      9989      9991      9989      9992
      9992      9993      9992      9994      9992      9995      9995      9996
      9995      9997      9995      9998      9998      9999      9998     10000
      9998     10001     10001     10002     10001     10003     10001     10004
     10004     10005     10004     10006     10004     10007      9955      9956
      9956      9958      9956      9957      9958      9959      9958      9960
      9958     10008     10008     10009     10008     10010     10008     10011
     10011     10012     10011     10013     10011     10014     10014     10015
     10014     10016     10014     10017     10017     10018     10017     10019
     10017     10020     10020     10021     10020     10022     10020     10023
     10023     10024     10023     10025     10023     10026     10026     10027
     10026     10028     10026     10029     10029     10030     10029     10031
     10029     10032     10032     10033     10032     10034     10032     10035
     10035     10036     10035     10037     10035     10038     10038     10039
     10038     10040     10038     10041     10041     10042     10041     10043
     10041     10044     10044     10045     10044     10046     10044     10047
     10047     10048     10047     10049     10047     10050     10051     10055
     10051     10059     10051     10063     10055     10056     10055     10057
     10055     10058     10059     10060     10059     10061     10059     10062
     10063     10064     10063     10065     10063     10066     10051     10052
     10052     10053     10052     10054     10052     10067     10067     10068
     10067     10069     10067     10073     10074     10075     10073     10070
     10070     10074     10070     10071     10070     10072     10075     10076
     10075     10077     10075     10078     10078     10079     10078     10086
     10078     10080     10086     10087     10086     10088     10086     10089
     10080     10081     10081     10083     10081     10082     10083     10084
     10083     10085     10083     10095     10095     10096     10095     10097
     10095     10098     10098     10099     10098     10100     10098     10101
     10101     10102     10101     10103     10101     10104     10104     10105
     10104     10106     10104     10107     10107     10108     10107     10109
     10107     10110     10110     10111     10110     10112     10110     10113
     10113     10114     10113     10115     10115     10116     10115     10117
     10117     10118     10117     10119     10117     10120     10120     10121
     10120     10122     10120     10123     10123     10124     10123     10125
     10123     10126     10126     10127     10126     10128     10126     10129
     10129     10130     10129     10131     10129     10132     10132     10133
     10132     10134     10132     10135     10135     10136     10135     10137
     10135     10138     10138     10139     10138     10140     10138     10141
     10089     10090     10090     10092     10090     10091     10092     10093
     10092     10094     10092     10142     10142     10143     10142     10144
     10142     10145     10145     10146     10145     10147     10145     10148
     10148     10149     10148     10150     10148     10151     10151     10152
     10151     10153     10151     10154     10154     10155     10154     10156
     10154     10157     10157     10158     10157     10159     10157     10160
     10160     10161     10160     10162     10160     10163     10163     10164
     10163     10165     10163     10166     10166     10167     10166     10168
     10166     10169     10169     10170     10169     10171     10169     10172
     10172     10173     10172     10174     10172     10175     10175     10176
     10175     10177     10175     10178     10178     10179     10178     10180
     10178     10181     10181     10182     10181     10183     10181     10184
     10185     10189     10185     10193     10185     10197     10189     10190
     10189     10191     10189     10192     10193     10194     10193     10195
     10193     10196     10197     10198     10197     10199     10197     10200
     10185     10186     10186     10187     10186     10188     10186     10201
     10201     10202     10201     10203     10201     10207     10208     10209
     10207     10204     10204     10208     10204     10205     10204     10206
     10209     10210     10209     10211     10209     10212     10212     10213
     10212     10220     10212     10214     10220     10221     10220     10222
     10220     10223     10214     10215     10215     10217     10215     10216
     10217     10218     10217     10219     10217     10229     10229     10230
     10229     10231     10229     10232     10232     10233     10232     10234
     10232     10235     10235     10236     10235     10237     10235     10238
     10238     10239     10238     10240     10238     10241     10241     10242
     10241     10243     10241     10244     10244     10245     10244     10246
     10244     10247     10247     10248     10247     10249     10249     10250
     10249     10251     10251     10252     10251     10253     10251     10254
     10254     10255     10254     10256     10254     10257     10257     10258
     10257     10259     10257     10260     10260     10261     10260     10262
     10260     10263     10263     10264     10263     10265     10263     10266
     10266     10267     10266     10268     10266     10269     10269     10270
     10269     10271     10269     10272     10272     10273     10272     10274
     10272     10275     10223     10224     10224     10226     10224     10225
     10226     10227     10226     10228     10226     10276     10276     10277
     10276     10278     10276     10279     10279     10280     10279     10281
     10279     10282     10282     10283     10282     10284     10282     10285
     10285     10286     10285     10287     10285     10288     10288     10289
     10288     10290     10288     10291     10291     10292     10291     10293
     10291     10294     10294     10295     10294     10296     10294     10297
     10297     10298     10297     10299     10297     10300     10300     10301
     10300     10302     10300     10303     10303     10304     10303     10305
     10303     10306     10306     10307     10306     10308     10306     10309
     10309     10310     10309     10311     10309     10312     10312     10313
     10312     10314     10312     10315     10315     10316     10315     10317
     10315     10318     10319     10323     10319     10327     10319     10331
     10323     10324     10323     10325     10323     10326     10327     10328
     10327     10329     10327     10330     10331     10332     10331     10333
     10331     10334     10319     10320     10320     10321     10320     10322
     10320     10335     10335     10336     10335     10337     10335     10341
     10342     10343     10341     10338     10338     10342     10338     10339
     10338     10340     10343     10344     10343     10345     10343     10346
     10346     10347     10346     10354     10346     10348     10354     10355
     10354     10356     10354     10357     10348     10349     10349     10351
     10349     10350     10351     10352     10351     10353     10351     10363
     10363     10364     10363     10365     10363     10366     10366     10367
     10366     10368     10366     10369     10369     10370     10369     10371
     10369     10372     10372     10373     10372     10374     10372     10375
     10375     10376     10375     10377     10375     10378     10378     10379
     10378     10380     10378     10381     10381     10382     10381     10383
     10383     10384     10383     10385     10385     10386     10385     10387
     10385     10388     10388     10389     10388     10390     10388     10391
     10391     10392     10391     10393     10391     10394     10394     10395
     10394     10396     10394     10397     10397     10398     10397     10399
     10397     10400     10400     10401     10400     10402     10400     10403
     10403     10404     10403     10405     10403     10406     10406     10407
     10406     10408     10406     10409     10357     10358     10358     10360
     10358     10359     10360     10361     10360     10362     10360     10410
     10410     10411     10410     10412     10410     10413     10413     10414
     10413     10415     10413     10416     10416     10417     10416     10418
     10416     10419     10419     10420     10419     10421     10419     10422
     10422     10423     10422     10424     10422     10425     10425     10426
     10425     10427     10425     10428     10428     10429     10428     10430
     10428     10431     10431     10432     10431     10433     10431     10434
     10434     10435     10434     10436     10434     10437     10437     10438
     10437     10439     10437     10440     10440     10441     10440     10442
     10440     10443     10443     10444     10443     10445     10443     10446
     10446     10447     10446     10448     10446     10449     10449     10450
     10449     10451     10449     10452     10453     10457     10453     10461
     10453     10465     10457     10458     10457     10459     10457     10460
     10461     10462     10461     10463     10461     10464     10465     10466
     10465     10467     10465     10468     10453     10454     10454     10455
     10454     10456     10454     10469     10469     10470     10469     10471
     10469     10475     10476     10477     10475     10472     10472     10476
     10472     10473     10472     10474     10477     10478     10477     10479
     10477     10480     10480     10481     10480     10488     10480     10482
     10488     10489     10488     10490     10488     10491     10482     10483
     10483     10485     10483     10484     10485     10486     10485     10487
     10485     10497     10497     10498     10497     10499     10497     10500
     10500     10501     10500     10502     10500     10503     10503     10504
     10503     10505     10503     10506     10506     10507     10506     10508
     10506     10509     10509     10510     10509     10511     10509     10512
     10512     10513     10512     10514     10512     10515     10515     10516
     10515     10517     10517     10518     10517     10519     10519     10520
     10519     10521     10519     10522     10522     10523     10522     10524
     10522     10525     10525     10526     10525     10527     10525     10528
     10528     10529     10528     10530     10528     10531     10531     10532
     10531     10533     10531     10534     10534     10535     10534     10536
     10534     10537     10537     10538     10537     10539     10537     10540
     10540     10541     10540     10542     10540     10543     10491     10492
     10492     10494     10492     10493     10494     10495     10494     10496
     10494     10544     10544     10545     10544     10546     10544     10547
     10547     10548     10547     10549     10547     10550     10550     10551
     10550     10552     10550     10553     10553     10554     10553     10555
     10553     10556     10556     10557     10556     10558     10556     10559
     10559     10560     10559     10561     10559     10562     10562     10563
     10562     10564     10562     10565     10565     10566     10565     10567
     10565     10568     10568     10569     10568     10570     10568     10571
     10571     10572     10571     10573     10571     10574     10574     10575
     10574     10576     10574     10577     10577     10578     10577     10579
     10577     10580     10580     10581     10580     10582     10580     10583
     10583     10584     10583     10585     10583     10586     10587     10591
     10587     10595     10587     10599     10591     10592     10591     10593
     10591     10594     10595     10596     10595     10597     10595     10598
     10599     10600     10599     10601     10599     10602     10587     10588
     10588     10589     10588     10590     10588     10603     10603     10604
     10603     10605     10603     10609     10610     10611     10609     10606
     10606     10610     10606     10607     10606     10608     10611     10612
     10611     10613     10611     10614     10614     10615     10614     10622
     10614     10616     10622     10623     10622     10624     10622     10625
     10616     10617     10617     10619     10617     10618     10619     10620
     10619     10621     10619     10631     10631     10632     10631     10633
     10631     10634     10634     10635     10634     10636     10634     10637
     10637     10638     10637     10639     10637     10640     10640     10641
     10640     10642     10640     10643     10643     10644     10643     10645
     10643     10646     10646     10647     10646     10648     10646     10649
     10649     10650     10649     10651     10651     10652     10651     10653
     10653     10654     10653     10655     10653     10656     10656     10657
     10656     10658     10656     10659     10659     10660     10659     10661
     10659     10662     10662     10663     10662     10664     10662     10665
     10665     10666     10665     10667     10665     10668     10668     10669
     10668     10670     10668     10671     10671     10672     10671     10673
     10671     10674     10674     10675     10674     10676     10674     10677
     10625     10626     10626     10628     10626     10627     10628     10629
     10628     10630     10628     10678     10678     10679     10678     10680
     10678     10681     10681     10682     10681     10683     10681     10684
     10684     10685     10684     10686     10684     10687     10687     10688
     10687     10689     10687     10690     10690     10691     10690     10692
     10690     10693     10693     10694     10693     10695     10693     10696
     10696     10697     10696     10698     10696     10699     10699     10700
     10699     10701     10699     10702     10702     10703     10702     10704
     10702     10705     10705     10706     10705     10707     10705     10708
     10708     10709     10708     10710     10708     10711     10711     10712
     10711     10713     10711     10714     10714     10715     10714     10716
     10714     10717     10717     10718     10717     10719     10717     10720
     10721     10725     10721     10729     10721     10733     10725     10726
     10725     10727     10725     10728     10729     10730     10729     10731
     10729     10732     10733     10734     10733     10735     10733     10736
     10721     10722     10722     10723     10722     10724     10722     10737
     10737     10738     10737     10739     10737     10743     10744     10745
     10743     10740     10740     10744     10740     10741     10740     10742
     10745     10746     10745     10747     10745     10748     10748     10749
     10748     10756     10748     10750     10756     10757     10756     10758
     10756     10759     10750     10751     10751     10753     10751     10752
     10753     10754     10753     10755     10753     10765     10765     10766
     10765     10767     10765     10768     10768     10769     10768     10770
     10768     10771     10771     10772     10771     10773     10771     10774
     10774     10775     10774     10776     10774     10777     10777     10778
     10777     10779     10777     10780     10780     10781     10780     10782
     10780     10783     10783     10784     10783     10785     10785     10786
     10785     10787     10787     10788     10787     10789     10787     10790
     10790     10791     10790     10792     10790     10793     10793     10794
     10793     10795     10793     10796     10796     10797     10796     10798
     10796     10799     10799     10800     10799     10801     10799     10802
     10802     10803     10802     10804     10802     10805     10805     10806
     10805     10807     10805     10808     10808     10809     10808     10810
     10808     10811     10759     10760     10760     10762     10760     10761
     10762     10763     10762     10764     10762     10812     10812     10813
     10812     10814     10812     10815     10815     10816     10815     10817
     10815     10818     10818     10819     10818     10820     10818     10821
     10821     10822     10821     10823     10821     10824     10824     10825
     10824     10826     10824     10827     10827     10828     10827     10829
     10827     10830     10830     10831     10830     10832     10830     10833
     10833     10834     10833     10835     10833     10836     10836     10837
     10836     10838     10836     10839     10839     10840     10839     10841
     10839     10842     10842     10843     10842     10844     10842     10845
     10845     10846     10845     10847     10845     10848     10848     10849
     10848     10850     10848     10851     10851     10852     10851     10853
     10851     10854     10855     10859     10855     10863     10855     10867
     10859     10860     10859     10861     10859     10862     10863     10864
     10863     10865     10863     10866     10867     10868     10867     10869
     10867     10870     10855     10856     10856     10857     10856     10858
     10856     10871     10871     10872     10871     10873     10871     10877
     10878     10879     10877     10874     10874     10878     10874     10875
     10874     10876     10879     10880     10879     10881     10879     10882
     10882     10883     10882     10890     10882     10884     10890     10891
     10890     10892     10890     10893     10884     10885     10885     10887
     10885     10886     10887     10888     10887     10889     10887     10899
     10899     10900     10899     10901     10899     10902     10902     10903
     10902     10904     10902     10905     10905     10906     10905     10907
     10905     10908     10908     10909     10908     10910     10908     10911
     10911     10912     10911     10913     10911     10914     10914     10915
     10914     10916     10914     10917     10917     10918     10917     10919
     10919     10920     10919     10921     10921     10922     10921     10923
     10921     10924     10924     10925     10924     10926     10924     10927
     10927     10928     10927     10929     10927     10930     10930     10931
     10930     10932     10930     10933     10933     10934     10933     10935
     10933     10936     10936     10937     10936     10938     10936     10939
     10939     10940     10939     10941     10939     10942     10942     10943
     10942     10944     10942     10945     10893     10894     10894     10896
     10894     10895     10896     10897     10896     10898     10896     10946
     10946     10947     10946     10948     10946     10949     10949     10950
     10949     10951     10949     10952     10952     10953     10952     10954
     10952     10955     10955     10956     10955     10957     10955     10958
     10958     10959     10958     10960     10958     10961     10961     10962
     10961     10963     10961     10964     10964     10965     10964     10966
     10964     10967     10967     10968     10967     10969     10967     10970
     10970     10971     10970     10972     10970     10973     10973     10974
     10973     10975     10973     10976     10976     10977     10976     10978
     10976     10979     10979     10980     10979     10981     10979     10982
     10982     10983     10982     10984     10982     10985     10985     10986
     10985     10987     10985     10988     10989     10993     10989     10997
     10989     11001     10993     10994     10993     10995     10993     10996
     10997     10998     10997     10999     10997     11000     11001     11002
     11001     11003     11001     11004     10989     10990     10990     10991
     10990     10992     10990     11005     11005     11006     11005     11007
     11005     11011     11012     11013     11011     11008     11008     11012
     11008     11009     11008     11010     11013     11014     11013     11015
     11013     11016     11016     11017     11016     11024     11016     11018
     11024     11025     11024     11026     11024     11027     11018     11019
     11019     11021     11019     11020     11021     11022     11021     11023
     11021     11033     11033     11034     11033     11035     11033     11036
     11036     11037     11036     11038     11036     11039     11039     11040
     11039     11041     11039     11042     11042     11043     11042     11044
     11042     11045     11045     11046     11045     11047     11045     11048
     11048     11049     11048     11050     11048     11051     11051     11052
     11051     11053     11053     11054     11053     11055     11055     11056
     11055     11057     11055     11058     11058     11059     11058     11060
     11058     11061     11061     11062     11061     11063     11061     11064
     11064     11065     11064     11066     11064     11067     11067     11068
     11067     11069     11067     11070     11070     11071     11070     11072
     11070     11073     11073     11074     11073     11075     11073     11076
     11076     11077     11076     11078     11076     11079     11027     11028
     11028     11030     11028     11029     11030     11031     11030     11032
     11030     11080     11080     11081     11080     11082     11080     11083
     11083     11084     11083     11085     11083     11086     11086     11087
     11086     11088     11086     11089     11089     11090     11089     11091
     11089     11092     11092     11093     11092     11094     11092     11095
     11095     11096     11095     11097     11095     11098     11098     11099
     11098     11100     11098     11101     11101     11102     11101     11103
     11101     11104     11104     11105     11104     11106     11104     11107
     11107     11108     11107     11109     11107     11110     11110     11111
     11110     11112     11110     11113     11113     11114     11113     11115
     11113     11116     11116     11117     11116     11118     11116     11119
     11119     11120     11119     11121     11119     11122     11123     11127
     11123     11131     11123     11135     11127     11128     11127     11129
     11127     11130     11131     11132     11131     11133     11131     11134
     11135     11136     11135     11137     11135     11138     11123     11124
     11124     11125     11124     11126     11124     11139     11139     11140
     11139     11141     11139     11145     11146     11147     11145     11142
     11142     11146     11142     11143     11142     11144     11147     11148
     11147     11149     11147     11150     11150     11151     11150     11158
     11150     11152     11158     11159     11158     11160     11158     11161
     11152     11153     11153     11155     11153     11154     11155     11156
     11155     11157     11155     11167     11167     11168     11167     11169
     11167     11170     11170     11171     11170     11172     11170     11173
     11173     11174     11173     11175     11173     11176     11176     11177
     11176     11178     11176     11179     11179     11180     11179     11181
     11179     11182     11182     11183     11182     11184     11182     11185
     11185     11186     11185     11187     11187     11188     11187     11189
     11189     11190     11189     11191     11189     11192     11192     11193
     11192     11194     11192     11195     11195     11196     11195     11197
     11195     11198     11198     11199     11198     11200     11198     11201
     11201     11202     11201     11203     11201     11204     11204     11205
     11204     11206     11204     11207     11207     11208     11207     11209
     11207     11210     11210     11211     11210     11212     11210     11213
     11161     11162     11162     11164     11162     11163     11164     11165
     11164     11166     11164     11214     11214     11215     11214     11216
     11214     11217     11217     11218     11217     11219     11217     11220
     11220     11221     11220     11222     11220     11223     11223     11224
     11223     11225     11223     11226     11226     11227     11226     11228
     11226     11229     11229     11230     11229     11231     11229     11232
     11232     11233     11232     11234     11232     11235     11235     11236
     11235     11237     11235     11238     11238     11239     11238     11240
     11238     11241     11241     11242     11241     11243     11241     11244
     11244     11245     11244     11246     11244     11247     11247     11248
     11247     11249     11247     11250     11250     11251     11250     11252
     11250     11253     11253     11254     11253     11255     11253     11256
     11257     11261     11257     11265     11257     11269     11261     11262
     11261     11263     11261     11264     11265     11266     11265     11267
     11265     11268     11269     11270     11269     11271     11269     11272
     11257     11258     11258     11259     11258     11260     11258     11273
     11273     11274     11273     11275     11273     11279     11280     11281
     11279     11276     11276     11280     11276     11277     11276     11278
     11281     11282     11281     11283     11281     11284     11284     11285
     11284     11292     11284     11286     11292     11293     11292     11294
     11292     11295     11286     11287     11287     11289     11287     11288
     11289     11290     11289     11291     11289     11301     11301     11302
     11301     11303     11301     11304     11304     11305     11304     11306
     11304     11307     11307     11308     11307     11309     11307     11310
     11310     11311     11310     11312     11310     11313     11313     11314
     11313     11315     11313     11316     11316     11317     11316     11318
     11316     11319     11319     11320     11319     11321     11321     11322
     11321     11323     11323     11324     11323     11325     11323     11326
     11326     11327     11326     11328     11326     11329     11329     11330
     11329     11331     11329     11332     11332     11333     11332     11334
     11332     11335     11335     11336     11335     11337     11335     11338
     11338     11339     11338     11340     11338     11341     11341     11342
     11341     11343     11341     11344     11344     11345     11344     11346
     11344     11347     11295     11296     11296     11298     11296     11297
     11298     11299     11298     11300     11298     11348     11348     11349
     11348     11350     11348     11351     11351     11352     11351     11353
     11351     11354     11354     11355     11354     11356     11354     11357
     11357     11358     11357     11359     11357     11360     11360     11361
     11360     11362     11360     11363     11363     11364     11363     11365
     11363     11366     11366     11367     11366     11368     11366     11369
     11369     11370     11369     11371     11369     11372     11372     11373
     11372     11374     11372     11375     11375     11376     11375     11377
     11375     11378     11378     11379     11378     11380     11378     11381
     11381     11382     11381     11383     11381     11384     11384     11385
     11384     11386     11384     11387     11387     11388     11387     11389
     11387     11390     11391     11395     11391     11399     11391     11403
     11395     11396     11395     11397     11395     11398     11399     11400
     11399     11401     11399     11402     11403     11404     11403     11405
     11403     11406     11391     11392     11392     11393     11392     11394
     11392     11407     11407     11408     11407     11409     11407     11413
     11414     11415     11413     11410     11410     11414     11410     11411
     11410     11412     11415     11416     11415     11417     11415     11418
     11418     11419     11418     11426     11418     11420     11426     11427
     11426     11428     11426     11429     11420     11421     11421     11423
     11421     11422     11423     11424     11423     11425     11423     11435
     11435     11436     11435     11437     11435     11438     11438     11439
     11438     11440     11438     11441     11441     11442     11441     11443
     11441     11444     11444     11445     11444     11446     11444     11447
     11447     11448     11447     11449     11447     11450     11450     11451
     11450     11452     11450     11453     11453     11454     11453     11455
     11455     11456     11455     11457     11457     11458     11457     11459
     11457     11460     11460     11461     11460     11462     11460     11463
     11463     11464     11463     11465     11463     11466     11466     11467
     11466     11468     11466     11469     11469     11470     11469     11471
     11469     11472     11472     11473     11472     11474     11472     11475
     11475     11476     11475     11477     11475     11478     11478     11479
     11478     11480     11478     11481     11429     11430     11430     11432
     11430     11431     11432     11433     11432     11434     11432     11482
     11482     11483     11482     11484     11482     11485     11485     11486
     11485     11487     11485     11488     11488     11489     11488     11490
     11488     11491     11491     11492     11491     11493     11491     11494
     11494     11495     11494     11496     11494     11497     11497     11498
     11497     11499     11497     11500     11500     11501     11500     11502
     11500     11503     11503     11504     11503     11505     11503     11506
     11506     11507     11506     11508     11506     11509     11509     11510
     11509     11511     11509     11512     11512     11513     11512     11514
     11512     11515     11515     11516     11515     11517     11515     11518
     11518     11519     11518     11520     11518     11521     11521     11522
     11521     11523     11521     11524     11525     11529     11525     11533
     11525     11537     11529     11530     11529     11531     11529     11532
     11533     11534     11533     11535     11533     11536     11537     11538
     11537     11539     11537     11540     11525     11526     11526     11527
     11526     11528     11526     11541     11541     11542     11541     11543
     11541     11547     11548     11549     11547     11544     11544     11548
     11544     11545     11544     11546     11549     11550     11549     11551
     11549     11552     11552     11553     11552     11560     11552     11554
     11560     11561     11560     11562     11560     11563     11554     11555
     11555     11557     11555     11556     11557     11558     11557     11559
     11557     11569     11569     11570     11569     11571     11569     11572
     11572     11573     11572     11574     11572     11575     11575     11576
     11575     11577     11575     11578     11578     11579     11578     11580
     11578     11581     11581     11582     11581     11583     11581     11584
     11584     11585     11584     11586     11584     11587     11587     11588
     11587     11589     11589     11590     11589     11591     11591     11592
     11591     11593     11591     11594     11594     11595     11594     11596
     11594     11597     11597     11598     11597     11599     11597     11600
     11600     11601     11600     11602     11600     11603     11603     11604
     11603     11605     11603     11606     11606     11607     11606     11608
     11606     11609     11609     11610     11609     11611     11609     11612
     11612     11613     11612     11614     11612     11615     11563     11564
     11564     11566     11564     11565     11566     11567     11566     11568
     11566     11616     11616     11617     11616     11618     11616     11619
     11619     11620     11619     11621     11619     11622     11622     11623
     11622     11624     11622     11625     11625     11626     11625     11627
     11625     11628     11628     11629     11628     11630     11628     11631
     11631     11632     11631     11633     11631     11634     11634     11635
     11634     11636     11634     11637     11637     11638     11637     11639
     11637     11640     11640     11641     11640     11642     11640     11643
     11643     11644     11643     11645     11643     11646     11646     11647
     11646     11648     11646     11649     11649     11650     11649     11651
     11649     11652     11652     11653     11652     11654     11652     11655
     11655     11656     11655     11657     11655     11658     11659     11663
     11659     11667     11659     11671     11663     11664     11663     11665
     11663     11666     11667     11668     11667     11669     11667     11670
     11671     11672     11671     11673     11671     11674     11659     11660
     11660     11661     11660     11662     11660     11675     11675     11676
     11675     11677     11675     11681     11682     11683     11681     11678
     11678     11682     11678     11679     11678     11680     11683     11684
     11683     11685     11683     11686     11686     11687     11686     11694
     11686     11688     11694     11695     11694     11696     11694     11697
     11688     11689     11689     11691     11689     11690     11691     11692
     11691     11693     11691     11703     11703     11704     11703     11705
     11703     11706     11706     11707     11706     11708     11706     11709
     11709     11710     11709     11711     11709     11712     11712     11713
     11712     11714     11712     11715     11715     11716     11715     11717
     11715     11718     11718     11719     11718     11720     11718     11721
     11721     11722     11721     11723     11723     11724     11723     11725
     11725     11726     11725     11727     11725     11728     11728     11729
     11728     11730     11728     11731     11731     11732     11731     11733
     11731     11734     11734     11735     11734     11736     11734     11737
     11737     11738     11737     11739     11737     11740     11740     11741
     11740     11742     11740     11743     11743     11744     11743     11745
     11743     11746     11746     11747     11746     11748     11746     11749
     11697     11698     11698     11700     11698     11699     11700     11701
     11700     11702     11700     11750     11750     11751     11750     11752
     11750     11753     11753     11754     11753     11755     11753     11756
     11756     11757     11756     11758     11756     11759     11759     11760
     11759     11761     11759     11762     11762     11763     11762     11764
     11762     11765     11765     11766     11765     11767     11765     11768
     11768     11769     11768     11770     11768     11771     11771     11772
     11771     11773     11771     11774     11774     11775     11774     11776
     11774     11777     11777     11778     11777     11779     11777     11780
     11780     11781     11780     11782     11780     11783     11783     11784
     11783     11785     11783     11786     11786     11787     11786     11788
     11786     11789     11789     11790     11789     11791     11789     11792
     11793     11797     11793     11801     11793     11805     11797     11798
     11797     11799     11797     11800     11801     11802     11801     11803
     11801     11804     11805     11806     11805     11807     11805     11808
     11793     11794     11794     11795     11794     11796     11794     11809
     11809     11810     11809     11811     11809     11815     11816     11817
     11815     11812     11812     11816     11812     11813     11812     11814
     11817     11818     11817     11819     11817     11820     11820     11821
     11820     11828     11820     11822     11828     11829     11828     11830
     11828     11831     11822     11823     11823     11825     11823     11824
     11825     11826     11825     11827     11825     11837     11837     11838
     11837     11839     11837     11840     11840     11841     11840     11842
     11840     11843     11843     11844     11843     11845     11843     11846
     11846     11847     11846     11848     11846     11849     11849     11850
     11849     11851     11849     11852     11852     11853     11852     11854
     11852     11855     11855     11856     11855     11857     11857     11858
     11857     11859     11859     11860     11859     11861     11859     11862
     11862     11863     11862     11864     11862     11865     11865     11866
     11865     11867     11865     11868     11868     11869     11868     11870
     11868     11871     11871     11872     11871     11873     11871     11874
     11874     11875     11874     11876     11874     11877     11877     11878
     11877     11879     11877     11880     11880     11881     11880     11882
     11880     11883     11831     11832     11832     11834     11832     11833
     11834     11835     11834     11836     11834     11884     11884     11885
     11884     11886     11884     11887     11887     11888     11887     11889
     11887     11890     11890     11891     11890     11892     11890     11893
     11893     11894     11893     11895     11893     11896     11896     11897
     11896     11898     11896     11899     11899     11900     11899     11901
     11899     11902     11902     11903     11902     11904     11902     11905
     11905     11906     11905     11907     11905     11908     11908     11909
     11908     11910     11908     11911     11911     11912     11911     11913
     11911     11914     11914     11915     11914     11916     11914     11917
     11917     11918     11917     11919     11917     11920     11920     11921
     11920     11922     11920     11923     11923     11924     11923     11925
     11923     11926     11927     11931     11927     11935     11927     11939
     11931     11932     11931     11933     11931     11934     11935     11936
     11935     11937     11935     11938     11939     11940     11939     11941
     11939     11942     11927     11928     11928     11929     11928     11930
     11928     11943     11943     11944     11943     11945     11943     11949
     11950     11951     11949     11946     11946     11950     11946     11947
     11946     11948     11951     11952     11951     11953     11951     11954
     11954     11955     11954     11962     11954     11956     11962     11963
     11962     11964     11962     11965     11956     11957     11957     11959
     11957     11958     11959     11960     11959     11961     11959     11971
     11971     11972     11971     11973     11971     11974     11974     11975
     11974     11976     11974     11977     11977     11978     11977     11979
     11977     11980     11980     11981     11980     11982     11980     11983
     11983     11984     11983     11985     11983     11986     11986     11987
     11986     11988     11986     11989     11989     11990     11989     11991
     11991     11992     11991     11993     11993     11994     11993     11995
     11993     11996     11996     11997     11996     11998     11996     11999
     11999     12000     11999     12001     11999     12002     12002     12003
     12002     12004     12002     12005     12005     12006     12005     12007
     12005     12008     12008     12009     12008     12010     12008     12011
     12011     12012     12011     12013     12011     12014     12014     12015
     12014     12016     12014     12017     11965     11966     11966     11968
     11966     11967     11968     11969     11968     11970     11968     12018
     12018     12019     12018     12020     12018     12021     12021     12022
     12021     12023     12021     12024     12024     12025     12024     12026
     12024     12027     12027     12028     12027     12029     12027     12030
     12030     12031     12030     12032     12030     12033     12033     12034
     12033     12035     12033     12036     12036     12037     12036     12038
     12036     12039     12039     12040     12039     12041     12039     12042
     12042     12043     12042     12044     12042     12045     12045     12046
     12045     12047     12045     12048     12048     12049     12048     12050
     12048     12051     12051     12052     12051     12053     12051     12054
     12054     12055     12054     12056     12054     12057     12057     12058
     12057     12059     12057     12060     12061     12065     12061     12069
     12061     12073     12065     12066     12065     12067     12065     12068
     12069     12070     12069     12071     12069     12072     12073     12074
     12073     12075     12073     12076     12061     12062     12062     12063
     12062     12064     12062     12077     12077     12078     12077     12079
     12077     12083     12084     12085     12083     12080     12080     12084
     12080     12081     12080     12082     12085     12086     12085     12087
     12085     12088     12088     12089     12088     12096     12088     12090
     12096     12097     12096     12098     12096     12099     12090     12091
     12091     12093     12091     12092     12093     12094     12093     12095
     12093     12105     12105     12106     12105     12107     12105     12108
     12108     12109     12108     12110     12108     12111     12111     12112
     12111     12113     12111     12114     12114     12115     12114     12116
     12114     12117     12117     12118     12117     12119     12117     12120
     12120     12121     12120     12122     12120     12123     12123     12124
     12123     12125     12125     12126     12125     12127     12127     12128
     12127     12129     12127     12130     12130     12131     12130     12132
     12130     12133     12133     12134     12133     12135     12133     12136
     12136     12137     12136     12138     12136     12139     12139     12140
     12139     12141     12139     12142     12142     12143     12142     12144
     12142     12145     12145     12146     12145     12147     12145     12148
     12148     12149     12148     12150     12148     12151     12099     12100
     12100     12102     12100     12101     12102     12103     12102     12104
     12102     12152     12152     12153     12152     12154     12152     12155
     12155     12156     12155     12157     12155     12158     12158     12159
     12158     12160     12158     12161     12161     12162     12161     12163
     12161     12164     12164     12165     12164     12166     12164     12167
     12167     12168     12167     12169     12167     12170     12170     12171
     12170     12172     12170     12173     12173     12174     12173     12175
     12173     12176     12176     12177     12176     12178     12176     12179
     12179     12180     12179     12181     12179     12182     12182     12183
     12182     12184     12182     12185     12185     12186     12185     12187
     12185     12188     12188     12189     12188     12190     12188     12191
     12191     12192     12191     12193     12191     12194     12195     12199
     12195     12203     12195     12207     12199     12200     12199     12201
     12199     12202     12203     12204     12203     12205     12203     12206
     12207     12208     12207     12209     12207     12210     12195     12196
     12196     12197     12196     12198     12196     12211     12211     12212
     12211     12213     12211     12217     12218     12219     12217     12214
     12214     12218     12214     12215     12214     12216     12219     12220
     12219     12221     12219     12222     12222     12223     12222     12230
     12222     12224     12230     12231     12230     12232     12230     12233
     12224     12225     12225     12227     12225     12226     12227     12228
     12227     12229     12227     12239     12239     12240     12239     12241
     12239     12242     12242     12243     12242     12244     12242     12245
     12245     12246     12245     12247     12245     12248     12248     12249
     12248     12250     12248     12251     12251     12252     12251     12253
     12251     12254     12254     12255     12254     12256     12254     12257
     12257     12258     12257     12259     12259     12260     12259     12261
     12261     12262     12261     12263     12261     12264     12264     12265
     12264     12266     12264     12267     12267     12268     12267     12269
     12267     12270     12270     12271     12270     12272     12270     12273
     12273     12274     12273     12275     12273     12276     12276     12277
     12276     12278     12276     12279     12279     12280     12279     12281
     12279     12282     12282     12283     12282     12284     12282     12285
     12233     12234     12234     12236     12234     12235     12236     12237
     12236     12238     12236     12286     12286     12287     12286     12288
     12286     12289     12289     12290     12289     12291     12289     12292
     12292     12293     12292     12294     12292     12295     12295     12296
     12295     12297     12295     12298     12298     12299     12298     12300
     12298     12301     12301     12302     12301     12303     12301     12304
     12304     12305     12304     12306     12304     12307     12307     12308
     12307     12309     12307     12310     12310     12311     12310     12312
     12310     12313     12313     12314     12313     12315     12313     12316
     12316     12317     12316     12318     12316     12319     12319     12320
     12319     12321     12319     12322     12322     12323     12322     12324
     12322     12325     12325     12326     12325     12327     12325     12328
     12329     12333     12329     12337     12329     12341     12333     12334
     12333     12335     12333     12336     12337     12338     12337     12339
     12337     12340     12341     12342     12341     12343     12341     12344
     12329     12330     12330     12331     12330     12332     12330     12345
     12345     12346     12345     12347     12345     12351     12352     12353
     12351     12348     12348     12352     12348     12349     12348     12350
     12353     12354     12353     12355     12353     12356     12356     12357
     12356     12364     12356     12358     12364     12365     12364     12366
     12364     12367     12358     12359     12359     12361     12359     12360
     12361     12362     12361     12363     12361     12373     12373     12374
     12373     12375     12373     12376     12376     12377     12376     12378
     12376     12379     12379     12380     12379     12381     12379     12382
     12382     12383     12382     12384     12382     12385     12385     12386
     12385     12387     12385     12388     12388     12389     12388     12390
     12388     12391     12391     12392     12391     12393     12393     12394
     12393     12395     12395     12396     12395     12397     12395     12398
     12398     12399     12398     12400     12398     12401     12401     12402
     12401     12403     12401     12404     12404     12405     12404     12406
     12404     12407     12407     12408     12407     12409     12407     12410
     12410     12411     12410     12412     12410     12413     12413     12414
     12413     12415     12413     12416     12416     12417     12416     12418
     12416     12419     12367     12368     12368     12370     12368     12369
     12370     12371     12370     12372     12370     12420     12420     12421
     12420     12422     12420     12423     12423     12424     12423     12425
     12423     12426     12426     12427     12426     12428     12426     12429
     12429     12430     12429     12431     12429     12432     12432     12433
     12432     12434     12432     12435     12435     12436     12435     12437
     12435     12438     12438     12439     12438     12440     12438     12441
     12441     12442     12441     12443     12441     12444     12444     12445
     12444     12446     12444     12447     12447     12448     12447     12449
     12447     12450     12450     12451     12450     12452     12450     12453
     12453     12454     12453     12455     12453     12456     12456     12457
     12456     12458     12456     12459     12459     12460     12459     12461
     12459     12462     12463     12467     12463     12471     12463     12475
     12467     12468     12467     12469     12467     12470     12471     12472
     12471     12473     12471     12474     12475     12476     12475     12477
     12475     12478     12463     12464     12464     12465     12464     12466
     12464     12479     12479     12480     12479     12481     12479     12485
     12486     12487     12485     12482     12482     12486     12482     12483
     12482     12484     12487     12488     12487     12489     12487     12490
     12490     12491     12490     12498     12490     12492     12498     12499
     12498     12500     12498     12501     12492     12493     12493     12495
     12493     12494     12495     12496     12495     12497     12495     12507
     12507     12508     12507     12509     12507     12510     12510     12511
     12510     12512     12510     12513     12513     12514     12513     12515
     12513     12516     12516     12517     12516     12518     12516     12519
     12519     12520     12519     12521     12519     12522     12522     12523
     12522     12524     12522     12525     12525     12526     12525     12527
     12527     12528     12527     12529     12529     12530     12529     12531
     12529     12532     12532     12533     12532     12534     12532     12535
     12535     12536     12535     12537     12535     12538     12538     12539
     12538     12540     12538     12541     12541     12542     12541     12543
     12541     12544     12544     12545     12544     12546     12544     12547
     12547     12548     12547     12549     12547     12550     12550     12551
     12550     12552     12550     12553     12501     12502     12502     12504
     12502     12503     12504     12505     12504     12506     12504     12554
     12554     12555     12554     12556     12554     12557     12557     12558
     12557     12559     12557     12560     12560     12561     12560     12562
     12560     12563     12563     12564     12563     12565     12563     12566
     12566     12567     12566     12568     12566     12569     12569     12570
     12569     12571     12569     12572     12572     12573     12572     12574
     12572     12575     12575     12576     12575     12577     12575     12578
     12578     12579     12578     12580     12578     12581     12581     12582
     12581     12583     12581     12584     12584     12585     12584     12586
     12584     12587     12587     12588     12587     12589     12587     12590
     12590     12591     12590     12592     12590     12593     12593     12594
     12593     12595     12593     12596     12597     12601     12597     12605
     12597     12609     12601     12602     12601     12603     12601     12604
     12605     12606     12605     12607     12605     12608     12609     12610
     12609     12611     12609     12612     12597     12598     12598     12599
     12598     12600     12598     12613     12613     12614     12613     12615
     12613     12619     12620     12621     12619     12616     12616     12620
     12616     12617     12616     12618     12621     12622     12621     12623
     12621     12624     12624     12625     12624     12632     12624     12626
     12632     12633     12632     12634     12632     12635     12626     12627
     12627     12629     12627     12628     12629     12630     12629     12631
     12629     12641     12641     12642     12641     12643     12641     12644
     12644     12645     12644     12646     12644     12647     12647     12648
     12647     12649     12647     12650     12650     12651     12650     12652
     12650     12653     12653     12654     12653     12655     12653     12656
     12656     12657     12656     12658     12656     12659     12659     12660
     12659     12661     12661     12662     12661     12663     12663     12664
     12663     12665     12663     12666     12666     12667     12666     12668
     12666     12669     12669     12670     12669     12671     12669     12672
     12672     12673     12672     12674     12672     12675     12675     12676
     12675     12677     12675     12678     12678     12679     12678     12680
     12678     12681     12681     12682     12681     12683     12681     12684
     12684     12685     12684     12686     12684     12687     12635     12636
     12636     12638     12636     12637     12638     12639     12638     12640
     12638     12688     12688     12689     12688     12690     12688     12691
     12691     12692     12691     12693     12691     12694     12694     12695
     12694     12696     12694     12697     12697     12698     12697     12699
     12697     12700     12700     12701     12700     12702     12700     12703
     12703     12704     12703     12705     12703     12706     12706     12707
     12706     12708     12706     12709     12709     12710     12709     12711
     12709     12712     12712     12713     12712     12714     12712     12715
     12715     12716     12715     12717     12715     12718     12718     12719
     12718     12720     12718     12721     12721     12722     12721     12723
     12721     12724     12724     12725     12724     12726     12724     12727
     12727     12728     12727     12729     12727     12730     12731     12735
     12731     12739     12731     12743     12735     12736     12735     12737
     12735     12738     12739     12740     12739     12741     12739     12742
     12743     12744     12743     12745     12743     12746     12731     12732
     12732     12733     12732     12734     12732     12747     12747     12748
     12747     12749     12747     12753     12754     12755     12753     12750
     12750     12754     12750     12751     12750     12752     12755     12756
     12755     12757     12755     12758     12758     12759     12758     12766
     12758     12760     12766     12767     12766     12768     12766     12769
     12760     12761     12761     12763     12761     12762     12763     12764
     12763     12765     12763     12775     12775     12776     12775     12777
     12775     12778     12778     12779     12778     12780     12778     12781
     12781     12782     12781     12783     12781     12784     12784     12785
     12784     12786     12784     12787     12787     12788     12787     12789
     12787     12790     12790     12791     12790     12792     12790     12793
     12793     12794     12793     12795     12795     12796     12795     12797
     12797     12798     12797     12799     12797     12800     12800     12801
     12800     12802     12800     12803     12803     12804     12803     12805
     12803     12806     12806     12807     12806     12808     12806     12809
     12809     12810     12809     12811     12809     12812     12812     12813
     12812     12814     12812     12815     12815     12816     12815     12817
     12815     12818     12818     12819     12818     12820     12818     12821
     12769     12770     12770     12772     12770     12771     12772     12773
     12772     12774     12772     12822     12822     12823     12822     12824
     12822     12825     12825     12826     12825     12827     12825     12828
     12828     12829     12828     12830     12828     12831     12831     12832
     12831     12833     12831     12834     12834     12835     12834     12836
     12834     12837     12837     12838     12837     12839     12837     12840
     12840     12841     12840     12842     12840     12843     12843     12844
     12843     12845     12843     12846     12846     12847     12846     12848
     12846     12849     12849     12850     12849     12851     12849     12852
     12852     12853     12852     12854     12852     12855     12855     12856
     12855     12857     12855     12858     12858     12859     12858     12860
     12858     12861     12861     12862     12861     12863     12861     12864
     12865     12869     12865     12873     12865     12877     12869     12870
     12869     12871     12869     12872     12873     12874     12873     12875
     12873     12876     12877     12878     12877     12879     12877     12880
     12865     12866     12866     12867     12866     12868     12866     12881
     12881     12882     12881     12883     12881     12887     12888     12889
     12887     12884     12884     12888     12884     12885     12884     12886
     12889     12890     12889     12891     12889     12892     12892     12893
     12892     12900     12892     12894     12900     12901     12900     12902
     12900     12903     12894     12895     12895     12897     12895     12896
     12897     12898     12897     12899     12897     12909     12909     12910
     12909     12911     12909     12912     12912     12913     12912     12914
     12912     12915     12915     12916     12915     12917     12915     12918
     12918     12919     12918     12920     12918     12921     12921     12922
     12921     12923     12921     12924     12924     12925     12924     12926
     12924     12927     12927     12928     12927     12929     12929     12930
     12929     12931     12931     12932     12931     12933     12931     12934
     12934     12935     12934     12936     12934     12937     12937     12938
     12937     12939     12937     12940     12940     12941     12940     12942
     12940     12943     12943     12944     12943     12945     12943     12946
     12946     12947     12946     12948     12946     12949     12949     12950
     12949     12951     12949     12952     12952     12953     12952     12954
     12952     12955     12903     12904     12904     12906     12904     12905
     12906     12907     12906     12908     12906     12956     12956     12957
     12956     12958     12956     12959     12959     12960     12959     12961
     12959     12962     12962     12963     12962     12964     12962     12965
     12965     12966     12965     12967     12965     12968     12968     12969
     12968     12970     12968     12971     12971     12972     12971     12973
     12971     12974     12974     12975     12974     12976     12974     12977
     12977     12978     12977     12979     12977     12980     12980     12981
     12980     12982     12980     12983     12983     12984     12983     12985
     12983     12986     12986     12987     12986     12988     12986     12989
     12989     12990     12989     12991     12989     12992     12992     12993
     12992     12994     12992     12995     12995     12996     12995     12997
     12995     12998     12999     13003     12999     13007     12999     13011
     13003     13004     13003     13005     13003     13006     13007     13008
     13007     13009     13007     13010     13011     13012     13011     13013
     13011     13014     12999     13000     13000     13001     13000     13002
     13000     13015     13015     13016     13015     13017     13015     13021
     13022     13023     13021     13018     13018     13022     13018     13019
     13018     13020     13023     13024     13023     13025     13023     13026
     13026     13027     13026     13034     13026     13028     13034     13035
     13034     13036     13034     13037     13028     13029     13029     13031
     13029     13030     13031     13032     13031     13033     13031     13043
     13043     13044     13043     13045     13043     13046     13046     13047
     13046     13048     13046     13049     13049     13050     13049     13051
     13049     13052     13052     13053     13052     13054     13052     13055
     13055     13056     13055     13057     13055     13058     13058     13059
     13058     13060     13058     13061     13061     13062     13061     13063
     13063     13064     13063     13065     13065     13066     13065     13067
     13065     13068     13068     13069     13068     13070     13068     13071
     13071     13072     13071     13073     13071     13074     13074     13075
     13074     13076     13074     13077     13077     13078     13077     13079
     13077     13080     13080     13081     13080     13082     13080     13083
     13083     13084     13083     13085     13083     13086     13086     13087
     13086     13088     13086     13089     13037     13038     13038     13040
     13038     13039     13040     13041     13040     13042     13040     13090
     13090     13091     13090     13092     13090     13093     13093     13094
     13093     13095     13093     13096     13096     13097     13096     13098
     13096     13099     13099     13100     13099     13101     13099     13102
     13102     13103     13102     13104     13102     13105     13105     13106
     13105     13107     13105     13108     13108     13109     13108     13110
     13108     13111     13111     13112     13111     13113     13111     13114
     13114     13115     13114     13116     13114     13117     13117     13118
     13117     13119     13117     13120     13120     13121     13120     13122
     13120     13123     13123     13124     13123     13125     13123     13126
     13126     13127     13126     13128     13126     13129     13129     13130
     13129     13131     13129     13132     13133     13137     13133     13141
     13133     13145     13137     13138     13137     13139     13137     13140
     13141     13142     13141     13143     13141     13144     13145     13146
     13145     13147     13145     13148     13133     13134     13134     13135
     13134     13136     13134     13149     13149     13150     13149     13151
     13149     13155     13156     13157     13155     13152     13152     13156
     13152     13153     13152     13154     13157     13158     13157     13159
     13157     13160     13160     13161     13160     13168     13160     13162
     13168     13169     13168     13170     13168     13171     13162     13163
     13163     13165     13163     13164     13165     13166     13165     13167
     13165     13177     13177     13178     13177     13179     13177     13180
     13180     13181     13180     13182     13180     13183     13183     13184
     13183     13185     13183     13186     13186     13187     13186     13188
     13186     13189     13189     13190     13189     13191     13189     13192
     13192     13193     13192     13194     13192     13195     13195     13196
     13195     13197     13197     13198     13197     13199     13199     13200
     13199     13201     13199     13202     13202     13203     13202     13204
     13202     13205     13205     13206     13205     13207     13205     13208
     13208     13209     13208     13210     13208     13211     13211     13212
     13211     13213     13211     13214     13214     13215     13214     13216
     13214     13217     13217     13218     13217     13219     13217     13220
     13220     13221     13220     13222     13220     13223     13171     13172
     13172     13174     13172     13173     13174     13175     13174     13176
     13174     13224     13224     13225     13224     13226     13224     13227
     13227     13228     13227     13229     13227     13230     13230     13231
     13230     13232     13230     13233     13233     13234     13233     13235
     13233     13236     13236     13237     13236     13238     13236     13239
     13239     13240     13239     13241     13239     13242     13242     13243
     13242     13244     13242     13245     13245     13246     13245     13247
     13245     13248     13248     13249     13248     13250     13248     13251
     13251     13252     13251     13253     13251     13254     13254     13255
     13254     13256     13254     13257     13257     13258     13257     13259
     13257     13260     13260     13261     13260     13262     13260     13263
     13263     13264     13263     13265     13263     13266     13267     13271
     13267     13275     13267     13279     13271     13272     13271     13273
     13271     13274     13275     13276     13275     13277     13275     13278
     13279     13280     13279     13281     13279     13282     13267     13268
     13268     13269     13268     13270     13268     13283     13283     13284
     13283     13285     13283     13289     13290     13291     13289     13286
     13286     13290     13286     13287     13286     13288     13291     13292
     13291     13293     13291     13294     13294     13295     13294     13302
     13294     13296     13302     13303     13302     13304     13302     13305
     13296     13297     13297     13299     13297     13298     13299     13300
     13299     13301     13299     13311     13311     13312     13311     13313
     13311     13314     13314     13315     13314     13316     13314     13317
     13317     13318     13317     13319     13317     13320     13320     13321
     13320     13322     13320     13323     13323     13324     13323     13325
     13323     13326     13326     13327     13326     13328     13326     13329
     13329     13330     13329     13331     13331     13332     13331     13333
     13333     13334     13333     13335     13333     13336     13336     13337
     13336     13338     13336     13339     13339     13340     13339     13341
     13339     13342     13342     13343     13342     13344     13342     13345
     13345     13346     13345     13347     13345     13348     13348     13349
     13348     13350     13348     13351     13351     13352     13351     13353
     13351     13354     13354     13355     13354     13356     13354     13357
     13305     13306     13306     13308     13306     13307     13308     13309
     13308     13310     13308     13358     13358     13359     13358     13360
     13358     13361     13361     13362     13361     13363     13361     13364
     13364     13365     13364     13366     13364     13367     13367     13368
     13367     13369     13367     13370     13370     13371     13370     13372
     13370     13373     13373     13374     13373     13375     13373     13376
     13376     13377     13376     13378     13376     13379     13379     13380
     13379     13381     13379     13382     13382     13383     13382     13384
     13382     13385     13385     13386     13385     13387     13385     13388
     13388     13389     13388     13390     13388     13391     13391     13392
     13391     13393     13391     13394     13394     13395     13394     13396
     13394     13397     13397     13398     13397     13399     13397     13400
     13401     13405     13401     13409     13401     13413     13405     13406
     13405     13407     13405     13408     13409     13410     13409     13411
     13409     13412     13413     13414     13413     13415     13413     13416
     13401     13402     13402     13403     13402     13404     13402     13417
     13417     13418     13417     13419     13417     13423     13424     13425
     13423     13420     13420     13424     13420     13421     13420     13422
     13425     13426     13425     13427     13425     13428     13428     13429
     13428     13436     13428     13430     13436     13437     13436     13438
     13436     13439     13430     13431     13431     13433     13431     13432
     13433     13434     13433     13435     13433     13445     13445     13446
     13445     13447     13445     13448     13448     13449     13448     13450
     13448     13451     13451     13452     13451     13453     13451     13454
     13454     13455     13454     13456     13454     13457     13457     13458
     13457     13459     13457     13460     13460     13461     13460     13462
     13460     13463     13463     13464     13463     13465     13465     13466
     13465     13467     13467     13468     13467     13469     13467     13470
     13470     13471     13470     13472     13470     13473     13473     13474
     13473     13475     13473     13476     13476     13477     13476     13478
     13476     13479     13479     13480     13479     13481     13479     13482
     13482     13483     13482     13484     13482     13485     13485     13486
     13485     13487     13485     13488     13488     13489     13488     13490
     13488     13491     13439     13440     13440     13442     13440     13441
     13442     13443     13442     13444     13442     13492     13492     13493
     13492     13494     13492     13495     13495     13496     13495     13497
     13495     13498     13498     13499     13498     13500     13498     13501
     13501     13502     13501     13503     13501     13504     13504     13505
     13504     13506     13504     13507     13507     13508     13507     13509
     13507     13510     13510     13511     13510     13512     13510     13513
     13513     13514     13513     13515     13513     13516     13516     13517
     13516     13518     13516     13519     13519     13520     13519     13521
     13519     13522     13522     13523     13522     13524     13522     13525
     13525     13526     13525     13527     13525     13528     13528     13529
     13528     13530     13528     13531     13531     13532     13531     13533
     13531     13534     13535     13539     13535     13543     13535     13547
     13539     13540     13539     13541     13539     13542     13543     13544
     13543     13545     13543     13546     13547     13548     13547     13549
     13547     13550     13535     13536     13536     13537     13536     13538
     13536     13551     13551     13552     13551     13553     13551     13557
     13558     13559     13557     13554     13554     13558     13554     13555
     13554     13556     13559     13560     13559     13561     13559     13562
     13562     13563     13562     13570     13562     13564     13570     13571
     13570     13572     13570     13573     13564     13565     13565     13567
     13565     13566     13567     13568     13567     13569     13567     13579
     13579     13580     13579     13581     13579     13582     13582     13583
     13582     13584     13582     13585     13585     13586     13585     13587
     13585     13588     13588     13589     13588     13590     13588     13591
     13591     13592     13591     13593     13591     13594     13594     13595
     13594     13596     13594     13597     13597     13598     13597     13599
     13599     13600     13599     13601     13601     13602     13601     13603
     13601     13604     13604     13605     13604     13606     13604     13607
     13607     13608     13607     13609     13607     13610     13610     13611
     13610     13612     13610     13613     13613     13614     13613     13615
     13613     13616     13616     13617     13616     13618     13616     13619
     13619     13620     13619     13621     13619     13622     13622     13623
     13622     13624     13622     13625     13573     13574     13574     13576
     13574     13575     13576     13577     13576     13578     13576     13626
     13626     13627     13626     13628     13626     13629     13629     13630
     13629     13631     13629     13632     13632     13633     13632     13634
     13632     13635     13635     13636     13635     13637     13635     13638
     13638     13639     13638     13640     13638     13641     13641     13642
     13641     13643     13641     13644     13644     13645     13644     13646
     13644     13647     13647     13648     13647     13649     13647     13650
     13650     13651     13650     13652     13650     13653     13653     13654
     13653     13655     13653     13656     13656     13657     13656     13658
     13656     13659     13659     13660     13659     13661     13659     13662
     13662     13663     13662     13664     13662     13665     13665     13666
     13665     13667     13665     13668     13669     13673     13669     13677
     13669     13681     13673     13674     13673     13675     13673     13676
     13677     13678     13677     13679     13677     13680     13681     13682
     13681     13683     13681     13684     13669     13670     13670     13671
     13670     13672     13670     13685     13685     13686     13685     13687
     13685     13691     13692     13693     13691     13688     13688     13692
     13688     13689     13688     13690     13693     13694     13693     13695
     13693     13696     13696     13697     13696     13704     13696     13698
     13704     13705     13704     13706     13704     13707     13698     13699
     13699     13701     13699     13700     13701     13702     13701     13703
     13701     13713     13713     13714     13713     13715     13713     13716
     13716     13717     13716     13718     13716     13719     13719     13720
     13719     13721     13719     13722     13722     13723     13722     13724
     13722     13725     13725     13726     13725     13727     13725     13728
     13728     13729     13728     13730     13728     13731     13731     13732
     13731     13733     13733     13734     13733     13735     13735     13736
     13735     13737     13735     13738     13738     13739     13738     13740
     13738     13741     13741     13742     13741     13743     13741     13744
     13744     13745     13744     13746     13744     13747     13747     13748
     13747     13749     13747     13750     13750     13751     13750     13752
     13750     13753     13753     13754     13753     13755     13753     13756
     13756     13757     13756     13758     13756     13759     13707     13708
     13708     13710     13708     13709     13710     13711     13710     13712
     13710     13760     13760     13761     13760     13762     13760     13763
     13763     13764     13763     13765     13763     13766     13766     13767
     13766     13768     13766     13769     13769     13770     13769     13771
     13769     13772     13772     13773     13772     13774     13772     13775
     13775     13776     13775     13777     13775     13778     13778     13779
     13778     13780     13778     13781     13781     13782     13781     13783
     13781     13784     13784     13785     13784     13786     13784     13787
     13787     13788     13787     13789     13787     13790     13790     13791
     13790     13792     13790     13793     13793     13794     13793     13795
     13793     13796     13796     13797     13796     13798     13796     13799
     13799     13800     13799     13801     13799     13802     13803     13807
     13803     13811     13803     13815     13807     13808     13807     13809
     13807     13810     13811     13812     13811     13813     13811     13814
     13815     13816     13815     13817     13815     13818     13803     13804
     13804     13805     13804     13806     13804     13819     13819     13820
     13819     13821     13819     13825     13826     13827     13825     13822
     13822     13826     13822     13823     13822     13824     13827     13828
     13827     13829     13827     13830     13830     13831     13830     13838
     13830     13832     13838     13839     13838     13840     13838     13841
     13832     13833     13833     13835     13833     13834     13835     13836
     13835     13837     13835     13847     13847     13848     13847     13849
     13847     13850     13850     13851     13850     13852     13850     13853
     13853     13854     13853     13855     13853     13856     13856     13857
     13856     13858     13856     13859     13859     13860     13859     13861
     13859     13862     13862     13863     13862     13864     13862     13865
     13865     13866     13865     13867     13867     13868     13867     13869
     13869     13870     13869     13871     13869     13872     13872     13873
     13872     13874     13872     13875     13875     13876     13875     13877
     13875     13878     13878     13879     13878     13880     13878     13881
     13881     13882     13881     13883     13881     13884     13884     13885
     13884     13886     13884     13887     13887     13888     13887     13889
     13887     13890     13890     13891     13890     13892     13890     13893
     13841     13842     13842     13844     13842     13843     13844     13845
     13844     13846     13844     13894     13894     13895     13894     13896
     13894     13897     13897     13898     13897     13899     13897     13900
     13900     13901     13900     13902     13900     13903     13903     13904
     13903     13905     13903     13906     13906     13907     13906     13908
     13906     13909     13909     13910     13909     13911     13909     13912
     13912     13913     13912     13914     13912     13915     13915     13916
     13915     13917     13915     13918     13918     13919     13918     13920
     13918     13921     13921     13922     13921     13923     13921     13924
     13924     13925     13924     13926     13924     13927     13927     13928
     13927     13929     13927     13930     13930     13931     13930     13932
     13930     13933     13933     13934     13933     13935     13933     13936
     13937     13941     13937     13945     13937     13949     13941     13942
     13941     13943     13941     13944     13945     13946     13945     13947
     13945     13948     13949     13950     13949     13951     13949     13952
     13937     13938     13938     13939     13938     13940     13938     13953
     13953     13954     13953     13955     13953     13959     13960     13961
     13959     13956     13956     13960     13956     13957     13956     13958
     13961     13962     13961     13963     13961     13964     13964     13965
     13964     13972     13964     13966     13972     13973     13972     13974
     13972     13975     13966     13967     13967     13969     13967     13968
     13969     13970     13969     13971     13969     13981     13981     13982
     13981     13983     13981     13984     13984     13985     13984     13986
     13984     13987     13987     13988     13987     13989     13987     13990
     13990     13991     13990     13992     13990     13993     13993     13994
     13993     13995     13993     13996     13996     13997     13996     13998
     13996     13999     13999     14000     13999     14001     14001     14002
     14001     14003     14003     14004     14003     14005     14003     14006
     14006     14007     14006     14008     14006     14009     14009     14010
     14009     14011     14009     14012     14012     14013     14012     14014
     14012     14015     14015     14016     14015     14017     14015     14018
     14018     14019     14018     14020     14018     14021     14021     14022
     14021     14023     14021     14024     14024     14025     14024     14026
     14024     14027     13975     13976     13976     13978     13976     13977
     13978     13979     13978     13980     13978     14028     14028     14029
     14028     14030     14028     14031     14031     14032     14031     14033
     14031     14034     14034     14035     14034     14036     14034     14037
     14037     14038     14037     14039     14037     14040     14040     14041
     14040     14042     14040     14043     14043     14044     14043     14045
     14043     14046     14046     14047     14046     14048     14046     14049
     14049     14050     14049     14051     14049     14052     14052     14053
     14052     14054     14052     14055     14055     14056     14055     14057
     14055     14058     14058     14059     14058     14060     14058     14061
     14061     14062     14061     14063     14061     14064     14064     14065
     14064     14066     14064     14067     14067     14068     14067     14069
     14067     14070     14071     14075     14071     14079     14071     14083
     14075     14076     14075     14077     14075     14078     14079     14080
     14079     14081     14079     14082     14083     14084     14083     14085
     14083     14086     14071     14072     14072     14073     14072     14074
     14072     14087     14087     14088     14087     14089     14087     14093
     14094     14095     14093     14090     14090     14094     14090     14091
     14090     14092     14095     14096     14095     14097     14095     14098
     14098     14099     14098     14106     14098     14100     14106     14107
     14106     14108     14106     14109     14100     14101     14101     14103
     14101     14102     14103     14104     14103     14105     14103     14115
     14115     14116     14115     14117     14115     14118     14118     14119
     14118     14120     14118     14121     14121     14122     14121     14123
     14121     14124     14124     14125     14124     14126     14124     14127
     14127     14128     14127     14129     14127     14130     14130     14131
     14130     14132     14130     14133     14133     14134     14133     14135
     14135     14136     14135     14137     14137     14138     14137     14139
     14137     14140     14140     14141     14140     14142     14140     14143
     14143     14144     14143     14145     14143     14146     14146     14147
     14146     14148     14146     14149     14149     14150     14149     14151
     14149     14152     14152     14153     14152     14154     14152     14155
     14155     14156     14155     14157     14155     14158     14158     14159
     14158     14160     14158     14161     14109     14110     14110     14112
     14110     14111     14112     14113     14112     14114     14112     14162
     14162     14163     14162     14164     14162     14165     14165     14166
     14165     14167     14165     14168     14168     14169     14168     14170
     14168     14171     14171     14172     14171     14173     14171     14174
     14174     14175     14174     14176     14174     14177     14177     14178
     14177     14179     14177     14180     14180     14181     14180     14182
     14180     14183     14183     14184     14183     14185     14183     14186
     14186     14187     14186     14188     14186     14189     14189     14190
     14189     14191     14189     14192     14192     14193     14192     14194
     14192     14195     14195     14196     14195     14197     14195     14198
     14198     14199     14198     14200     14198     14201     14201     14202
     14201     14203     14201     14204     14205     14209     14205     14213
     14205     14217     14209     14210     14209     14211     14209     14212
     14213     14214     14213     14215     14213     14216     14217     14218
     14217     14219     14217     14220     14205     14206     14206     14207
     14206     14208     14206     14221     14221     14222     14221     14223
     14221     14227     14228     14229     14227     14224     14224     14228
     14224     14225     14224     14226     14229     14230     14229     14231
     14229     14232     14232     14233     14232     14240     14232     14234
     14240     14241     14240     14242     14240     14243     14234     14235
     14235     14237     14235     14236     14237     14238     14237     14239
     14237     14249     14249     14250     14249     14251     14249     14252
     14252     14253     14252     14254     14252     14255     14255     14256
     14255     14257     14255     14258     14258     14259     14258     14260
     14258     14261     14261     14262     14261     14263     14261     14264
     14264     14265     14264     14266     14264     14267     14267     14268
     14267     14269     14269     14270     14269     14271     14271     14272
     14271     14273     14271     14274     14274     14275     14274     14276
     14274     14277     14277     14278     14277     14279     14277     14280
     14280     14281     14280     14282     14280     14283     14283     14284
     14283     14285     14283     14286     14286     14287     14286     14288
     14286     14289     14289     14290     14289     14291     14289     14292
     14292     14293     14292     14294     14292     14295     14243     14244
     14244     14246     14244     14245     14246     14247     14246     14248
     14246     14296     14296     14297     14296     14298     14296     14299
     14299     14300     14299     14301     14299     14302     14302     14303
     14302     14304     14302     14305     14305     14306     14305     14307
     14305     14308     14308     14309     14308     14310     14308     14311
     14311     14312     14311     14313     14311     14314     14314     14315
     14314     14316     14314     14317     14317     14318     14317     14319
     14317     14320     14320     14321     14320     14322     14320     14323
     14323     14324     14323     14325     14323     14326     14326     14327
     14326     14328     14326     14329     14329     14330     14329     14331
     14329     14332     14332     14333     14332     14334     14332     14335
     14335     14336     14335     14337     14335     14338     14339     14343
     14339     14347     14339     14351     14343     14344     14343     14345
     14343     14346     14347     14348     14347     14349     14347     14350
     14351     14352     14351     14353     14351     14354     14339     14340
     14340     14341     14340     14342     14340     14355     14355     14356
     14355     14357     14355     14361     14362     14363     14361     14358
     14358     14362     14358     14359     14358     14360     14363     14364
     14363     14365     14363     14366     14366     14367     14366     14374
     14366     14368     14374     14375     14374     14376     14374     14377
     14368     14369     14369     14371     14369     14370     14371     14372
     14371     14373     14371     14383     14383     14384     14383     14385
     14383     14386     14386     14387     14386     14388     14386     14389
     14389     14390     14389     14391     14389     14392     14392     14393
     14392     14394     14392     14395     14395     14396     14395     14397
     14395     14398     14398     14399     14398     14400     14398     14401
     14401     14402     14401     14403     14403     14404     14403     14405
     14405     14406     14405     14407     14405     14408     14408     14409
     14408     14410     14408     14411     14411     14412     14411     14413
     14411     14414     14414     14415     14414     14416     14414     14417
     14417     14418     14417     14419     14417     14420     14420     14421
     14420     14422     14420     14423     14423     14424     14423     14425
     14423     14426     14426     14427     14426     14428     14426     14429
     14377     14378     14378     14380     14378     14379     14380     14381
     14380     14382     14380     14430     14430     14431     14430     14432
     14430     14433     14433     14434     14433     14435     14433     14436
     14436     14437     14436     14438     14436     14439     14439     14440
     14439     14441     14439     14442     14442     14443     14442     14444
     14442     14445     14445     14446     14445     14447     14445     14448
     14448     14449     14448     14450     14448     14451     14451     14452
     14451     14453     14451     14454     14454     14455     14454     14456
     14454     14457     14457     14458     14457     14459     14457     14460
     14460     14461     14460     14462     14460     14463     14463     14464
     14463     14465     14463     14466     14466     14467     14466     14468
     14466     14469     14469     14470     14469     14471     14469     14472
     14473     14477     14473     14481     14473     14485     14477     14478
     14477     14479     14477     14480     14481     14482     14481     14483
     14481     14484     14485     14486     14485     14487     14485     14488
     14473     14474     14474     14475     14474     14476     14474     14489
     14489     14490     14489     14491     14489     14495     14496     14497
     14495     14492     14492     14496     14492     14493     14492     14494
     14497     14498     14497     14499     14497     14500     14500     14501
     14500     14508     14500     14502     14508     14509     14508     14510
     14508     14511     14502     14503     14503     14505     14503     14504
     14505     14506     14505     14507     14505     14517     14517     14518
     14517     14519     14517     14520     14520     14521     14520     14522
     14520     14523     14523     14524     14523     14525     14523     14526
     14526     14527     14526     14528     14526     14529     14529     14530
     14529     14531     14529     14532     14532     14533     14532     14534
     14532     14535     14535     14536     14535     14537     14537     14538
     14537     14539     14539     14540     14539     14541     14539     14542
     14542     14543     14542     14544     14542     14545     14545     14546
     14545     14547     14545     14548     14548     14549     14548     14550
     14548     14551     14551     14552     14551     14553     14551     14554
     14554     14555     14554     14556     14554     14557     14557     14558
     14557     14559     14557     14560     14560     14561     14560     14562
     14560     14563     14511     14512     14512     14514     14512     14513
     14514     14515     14514     14516     14514     14564     14564     14565
     14564     14566     14564     14567     14567     14568     14567     14569
     14567     14570     14570     14571     14570     14572     14570     14573
     14573     14574     14573     14575     14573     14576     14576     14577
     14576     14578     14576     14579     14579     14580     14579     14581
     14579     14582     14582     14583     14582     14584     14582     14585
     14585     14586     14585     14587     14585     14588     14588     14589
     14588     14590     14588     14591     14591     14592     14591     14593
     14591     14594     14594     14595     14594     14596     14594     14597
     14597     14598     14597     14599     14597     14600     14600     14601
     14600     14602     14600     14603     14603     14604     14603     14605
     14603     14606     14607     14611     14607     14615     14607     14619
     14611     14612     14611     14613     14611     14614     14615     14616
     14615     14617     14615     14618     14619     14620     14619     14621
     14619     14622     14607     14608     14608     14609     14608     14610
     14608     14623     14623     14624     14623     14625     14623     14629
     14630     14631     14629     14626     14626     14630     14626     14627
     14626     14628     14631     14632     14631     14633     14631     14634
     14634     14635     14634     14642     14634     14636     14642     14643
     14642     14644     14642     14645     14636     14637     14637     14639
     14637     14638     14639     14640     14639     14641     14639     14651
     14651     14652     14651     14653     14651     14654     14654     14655
     14654     14656     14654     14657     14657     14658     14657     14659
     14657     14660     14660     14661     14660     14662     14660     14663
     14663     14664     14663     14665     14663     14666     14666     14667
     14666     14668     14666     14669     14669     14670     14669     14671
     14671     14672     14671     14673     14673     14674     14673     14675
     14673     14676     14676     14677     14676     14678     14676     14679
     14679     14680     14679     14681     14679     14682     14682     14683
     14682     14684     14682     14685     14685     14686     14685     14687
     14685     14688     14688     14689     14688     14690     14688     14691
     14691     14692     14691     14693     14691     14694     14694     14695
     14694     14696     14694     14697     14645     14646     14646     14648
     14646     14647     14648     14649     14648     14650     14648     14698
     14698     14699     14698     14700     14698     14701     14701     14702
     14701     14703     14701     14704     14704     14705     14704     14706
     14704     14707     14707     14708     14707     14709     14707     14710
     14710     14711     14710     14712     14710     14713     14713     14714
     14713     14715     14713     14716     14716     14717     14716     14718
     14716     14719     14719     14720     14719     14721     14719     14722
     14722     14723     14722     14724     14722     14725     14725     14726
     14725     14727     14725     14728     14728     14729     14728     14730
     14728     14731     14731     14732     14731     14733     14731     14734
     14734     14735     14734     14736     14734     14737     14737     14738
     14737     14739     14737     14740     14741     14745     14741     14749
     14741     14753     14745     14746     14745     14747     14745     14748
     14749     14750     14749     14751     14749     14752     14753     14754
     14753     14755     14753     14756     14741     14742     14742     14743
     14742     14744     14742     14757     14757     14758     14757     14759
     14757     14763     14764     14765     14763     14760     14760     14764
     14760     14761     14760     14762     14765     14766     14765     14767
     14765     14768     14768     14769     14768     14776     14768     14770
     14776     14777     14776     14778     14776     14779     14770     14771
     14771     14773     14771     14772     14773     14774     14773     14775
     14773     14785     14785     14786     14785     14787     14785     14788
     14788     14789     14788     14790     14788     14791     14791     14792
     14791     14793     14791     14794     14794     14795     14794     14796
     14794     14797     14797     14798     14797     14799     14797     14800
     14800     14801     14800     14802     14800     14803     14803     14804
     14803     14805     14805     14806     14805     14807     14807     14808
     14807     14809     14807     14810     14810     14811     14810     14812
     14810     14813     14813     14814     14813     14815     14813     14816
     14816     14817     14816     14818     14816     14819     14819     14820
     14819     14821     14819     14822     14822     14823     14822     14824
     14822     14825     14825     14826     14825     14827     14825     14828
     14828     14829     14828     14830     14828     14831     14779     14780
     14780     14782     14780     14781     14782     14783     14782     14784
     14782     14832     14832     14833     14832     14834     14832     14835
     14835     14836     14835     14837     14835     14838     14838     14839
     14838     14840     14838     14841     14841     14842     14841     14843
     14841     14844     14844     14845     14844     14846     14844     14847
     14847     14848     14847     14849     14847     14850     14850     14851
     14850     14852     14850     14853     14853     14854     14853     14855
     14853     14856     14856     14857     14856     14858     14856     14859
     14859     14860     14859     14861     14859     14862     14862     14863
     14862     14864     14862     14865     14865     14866     14865     14867
     14865     14868     14868     14869     14868     14870     14868     14871
     14871     14872     14871     14873     14871     14874     14875     14879
     14875     14883     14875     14887     14879     14880     14879     14881
     14879     14882     14883     14884     14883     14885     14883     14886
     14887     14888     14887     14889     14887     14890     14875     14876
     14876     14877     14876     14878     14876     14891     14891     14892
     14891     14893     14891     14897     14898     14899     14897     14894
     14894     14898     14894     14895     14894     14896     14899     14900
     14899     14901     14899     14902     14902     14903     14902     14910
     14902     14904     14910     14911     14910     14912     14910     14913
     14904     14905     14905     14907     14905     14906     14907     14908
     14907     14909     14907     14919     14919     14920     14919     14921
     14919     14922     14922     14923     14922     14924     14922     14925
     14925     14926     14925     14927     14925     14928     14928     14929
     14928     14930     14928     14931     14931     14932     14931     14933
     14931     14934     14934     14935     14934     14936     14934     14937
     14937     14938     14937     14939     14939     14940     14939     14941
     14941     14942     14941     14943     14941     14944     14944     14945
     14944     14946     14944     14947     14947     14948     14947     14949
     14947     14950     14950     14951     14950     14952     14950     14953
     14953     14954     14953     14955     14953     14956     14956     14957
     14956     14958     14956     14959     14959     14960     14959     14961
     14959     14962     14962     14963     14962     14964     14962     14965
     14913     14914     14914     14916     14914     14915     14916     14917
     14916     14918     14916     14966     14966     14967     14966     14968
     14966     14969     14969     14970     14969     14971     14969     14972
     14972     14973     14972     14974     14972     14975     14975     14976
     14975     14977     14975     14978     14978     14979     14978     14980
     14978     14981     14981     14982     14981     14983     14981     14984
     14984     14985     14984     14986     14984     14987     14987     14988
     14987     14989     14987     14990     14990     14991     14990     14992
     14990     14993     14993     14994     14993     14995     14993     14996
     14996     14997     14996     14998     14996     14999     14999     15000
     14999     15001     14999     15002     15002     15003     15002     15004
     15002     15005     15005     15006     15005     15007     15005     15008
     15009     15013     15009     15017     15009     15021     15013     15014
     15013     15015     15013     15016     15017     15018     15017     15019
     15017     15020     15021     15022     15021     15023     15021     15024
     15009     15010     15010     15011     15010     15012     15010     15025
     15025     15026     15025     15027     15025     15031     15032     15033
     15031     15028     15028     15032     15028     15029     15028     15030
     15033     15034     15033     15035     15033     15036     15036     15037
     15036     15044     15036     15038     15044     15045     15044     15046
     15044     15047     15038     15039     15039     15041     15039     15040
     15041     15042     15041     15043     15041     15053     15053     15054
     15053     15055     15053     15056     15056     15057     15056     15058
     15056     15059     15059     15060     15059     15061     15059     15062
     15062     15063     15062     15064     15062     15065     15065     15066
     15065     15067     15065     15068     15068     15069     15068     15070
     15068     15071     15071     15072     15071     15073     15073     15074
     15073     15075     15075     15076     15075     15077     15075     15078
     15078     15079     15078     15080     15078     15081     15081     15082
     15081     15083     15081     15084     15084     15085     15084     15086
     15084     15087     15087     15088     15087     15089     15087     15090
     15090     15091     15090     15092     15090     15093     15093     15094
     15093     15095     15093     15096     15096     15097     15096     15098
     15096     15099     15047     15048     15048     15050     15048     15049
     15050     15051     15050     15052     15050     15100     15100     15101
     15100     15102     15100     15103     15103     15104     15103     15105
     15103     15106     15106     15107     15106     15108     15106     15109
     15109     15110     15109     15111     15109     15112     15112     15113
     15112     15114     15112     15115     15115     15116     15115     15117
     15115     15118     15118     15119     15118     15120     15118     15121
     15121     15122     15121     15123     15121     15124     15124     15125
     15124     15126     15124     15127     15127     15128     15127     15129
     15127     15130     15130     15131     15130     15132     15130     15133
     15133     15134     15133     15135     15133     15136     15136     15137
     15136     15138     15136     15139     15139     15140     15139     15141
     15139     15142     15143     15147     15143     15151     15143     15155
     15147     15148     15147     15149     15147     15150     15151     15152
     15151     15153     15151     15154     15155     15156     15155     15157
     15155     15158     15143     15144     15144     15145     15144     15146
     15144     15159     15159     15160     15159     15161     15159     15165
     15166     15167     15165     15162     15162     15166     15162     15163
     15162     15164     15167     15168     15167     15169     15167     15170
     15170     15171     15170     15178     15170     15172     15178     15179
     15178     15180     15178     15181     15172     15173     15173     15175
     15173     15174     15175     15176     15175     15177     15175     15187
     15187     15188     15187     15189     15187     15190     15190     15191
     15190     15192     15190     15193     15193     15194     15193     15195
     15193     15196     15196     15197     15196     15198     15196     15199
     15199     15200     15199     15201     15199     15202     15202     15203
     15202     15204     15202     15205     15205     15206     15205     15207
     15207     15208     15207     15209     15209     15210     15209     15211
     15209     15212     15212     15213     15212     15214     15212     15215
     15215     15216     15215     15217     15215     15218     15218     15219
     15218     15220     15218     15221     15221     15222     15221     15223
     15221     15224     15224     15225     15224     15226     15224     15227
     15227     15228     15227     15229     15227     15230     15230     15231
     15230     15232     15230     15233     15181     15182     15182     15184
     15182     15183     15184     15185     15184     15186     15184     15234
     15234     15235     15234     15236     15234     15237     15237     15238
     15237     15239     15237     15240     15240     15241     15240     15242
     15240     15243     15243     15244     15243     15245     15243     15246
     15246     15247     15246     15248     15246     15249     15249     15250
     15249     15251     15249     15252     15252     15253     15252     15254
     15252     15255     15255     15256     15255     15257     15255     15258
     15258     15259     15258     15260     15258     15261     15261     15262
     15261     15263     15261     15264     15264     15265     15264     15266
     15264     15267     15267     15268     15267     15269     15267     15270
     15270     15271     15270     15272     15270     15273     15273     15274
     15273     15275     15273     15276     15277     15281     15277     15285
     15277     15289     15281     15282     15281     15283     15281     15284
     15285     15286     15285     15287     15285     15288     15289     15290
     15289     15291     15289     15292     15277     15278     15278     15279
     15278     15280     15278     15293     15293     15294     15293     15295
     15293     15299     15300     15301     15299     15296     15296     15300
     15296     15297     15296     15298     15301     15302     15301     15303
     15301     15304     15304     15305     15304     15312     15304     15306
     15312     15313     15312     15314     15312     15315     15306     15307
     15307     15309     15307     15308     15309     15310     15309     15311
     15309     15321     15321     15322     15321     15323     15321     15324
     15324     15325     15324     15326     15324     15327     15327     15328
     15327     15329     15327     15330     15330     15331     15330     15332
     15330     15333     15333     15334     15333     15335     15333     15336
     15336     15337     15336     15338     15336     15339     15339     15340
     15339     15341     15341     15342     15341     15343     15343     15344
     15343     15345     15343     15346     15346     15347     15346     15348
     15346     15349     15349     15350     15349     15351     15349     15352
     15352     15353     15352     15354     15352     15355     15355     15356
     15355     15357     15355     15358     15358     15359     15358     15360
     15358     15361     15361     15362     15361     15363     15361     15364
     15364     15365     15364     15366     15364     15367     15315     15316
     15316     15318     15316     15317     15318     15319     15318     15320
     15318     15368     15368     15369     15368     15370     15368     15371
     15371     15372     15371     15373     15371     15374     15374     15375
     15374     15376     15374     15377     15377     15378     15377     15379
     15377     15380     15380     15381     15380     15382     15380     15383
     15383     15384     15383     15385     15383     15386     15386     15387
     15386     15388     15386     15389     15389     15390     15389     15391
     15389     15392     15392     15393     15392     15394     15392     15395
     15395     15396     15395     15397     15395     15398     15398     15399
     15398     15400     15398     15401     15401     15402     15401     15403
     15401     15404     15404     15405     15404     15406     15404     15407
     15407     15408     15407     15409     15407     15410     15411     15415
     15411     15419     15411     15423     15415     15416     15415     15417
     15415     15418     15419     15420     15419     15421     15419     15422
     15423     15424     15423     15425     15423     15426     15411     15412
     15412     15413     15412     15414     15412     15427     15427     15428
     15427     15429     15427     15433     15434     15435     15433     15430
     15430     15434     15430     15431     15430     15432     15435     15436
     15435     15437     15435     15438     15438     15439     15438     15446
     15438     15440     15446     15447     15446     15448     15446     15449
     15440     15441     15441     15443     15441     15442     15443     15444
     15443     15445     15443     15455     15455     15456     15455     15457
     15455     15458     15458     15459     15458     15460     15458     15461
     15461     15462     15461     15463     15461     15464     15464     15465
     15464     15466     15464     15467     15467     15468     15467     15469
     15467     15470     15470     15471     15470     15472     15470     15473
     15473     15474     15473     15475     15475     15476     15475     15477
     15477     15478     15477     15479     15477     15480     15480     15481
     15480     15482     15480     15483     15483     15484     15483     15485
     15483     15486     15486     15487     15486     15488     15486     15489
     15489     15490     15489     15491     15489     15492     15492     15493
     15492     15494     15492     15495     15495     15496     15495     15497
     15495     15498     15498     15499     15498     15500     15498     15501
     15449     15450     15450     15452     15450     15451     15452     15453
     15452     15454     15452     15502     15502     15503     15502     15504
     15502     15505     15505     15506     15505     15507     15505     15508
     15508     15509     15508     15510     15508     15511     15511     15512
     15511     15513     15511     15514     15514     15515     15514     15516
     15514     15517     15517     15518     15517     15519     15517     15520
     15520     15521     15520     15522     15520     15523     15523     15524
     15523     15525     15523     15526     15526     15527     15526     15528
     15526     15529     15529     15530     15529     15531     15529     15532
     15532     15533     15532     15534     15532     15535     15535     15536
     15535     15537     15535     15538     15538     15539     15538     15540
     15538     15541     15541     15542     15541     15543     15541     15544
     15545     15549     15545     15553     15545     15557     15549     15550
     15549     15551     15549     15552     15553     15554     15553     15555
     15553     15556     15557     15558     15557     15559     15557     15560
     15545     15546     15546     15547     15546     15548     15546     15561
     15561     15562     15561     15563     15561     15567     15568     15569
     15567     15564     15564     15568     15564     15565     15564     15566
     15569     15570     15569     15571     15569     15572     15572     15573
     15572     15580     15572     15574     15580     15581     15580     15582
     15580     15583     15574     15575     15575     15577     15575     15576
     15577     15578     15577     15579     15577     15589     15589     15590
     15589     15591     15589     15592     15592     15593     15592     15594
     15592     15595     15595     15596     15595     15597     15595     15598
     15598     15599     15598     15600     15598     15601     15601     15602
     15601     15603     15601     15604     15604     15605     15604     15606
     15604     15607     15607     15608     15607     15609     15609     15610
     15609     15611     15611     15612     15611     15613     15611     15614
     15614     15615     15614     15616     15614     15617     15617     15618
     15617     15619     15617     15620     15620     15621     15620     15622
     15620     15623     15623     15624     15623     15625     15623     15626
     15626     15627     15626     15628     15626     15629     15629     15630
     15629     15631     15629     15632     15632     15633     15632     15634
     15632     15635     15583     15584     15584     15586     15584     15585
     15586     15587     15586     15588     15586     15636     15636     15637
     15636     15638     15636     15639     15639     15640     15639     15641
     15639     15642     15642     15643     15642     15644     15642     15645
     15645     15646     15645     15647     15645     15648     15648     15649
     15648     15650     15648     15651     15651     15652     15651     15653
     15651     15654     15654     15655     15654     15656     15654     15657
     15657     15658     15657     15659     15657     15660     15660     15661
     15660     15662     15660     15663     15663     15664     15663     15665
     15663     15666     15666     15667     15666     15668     15666     15669
     15669     15670     15669     15671     15669     15672     15672     15673
     15672     15674     15672     15675     15675     15676     15675     15677
     15675     15678     15679     15683     15679     15687     15679     15691
     15683     15684     15683     15685     15683     15686     15687     15688
     15687     15689     15687     15690     15691     15692     15691     15693
     15691     15694     15679     15680     15680     15681     15680     15682
     15680     15695     15695     15696     15695     15697     15695     15701
     15702     15703     15701     15698     15698     15702     15698     15699
     15698     15700     15703     15704     15703     15705     15703     15706
     15706     15707     15706     15714     15706     15708     15714     15715
     15714     15716     15714     15717     15708     15709     15709     15711
     15709     15710     15711     15712     15711     15713     15711     15723
     15723     15724     15723     15725     15723     15726     15726     15727
     15726     15728     15726     15729     15729     15730     15729     15731
     15729     15732     15732     15733     15732     15734     15732     15735
     15735     15736     15735     15737     15735     15738     15738     15739
     15738     15740     15738     15741     15741     15742     15741     15743
     15743     15744     15743     15745     15745     15746     15745     15747
     15745     15748     15748     15749     15748     15750     15748     15751
     15751     15752     15751     15753     15751     15754     15754     15755
     15754     15756     15754     15757     15757     15758     15757     15759
     15757     15760     15760     15761     15760     15762     15760     15763
     15763     15764     15763     15765     15763     15766     15766     15767
     15766     15768     15766     15769     15717     15718     15718     15720
     15718     15719     15720     15721     15720     15722     15720     15770
     15770     15771     15770     15772     15770     15773     15773     15774
     15773     15775     15773     15776     15776     15777     15776     15778
     15776     15779     15779     15780     15779     15781     15779     15782
     15782     15783     15782     15784     15782     15785     15785     15786
     15785     15787     15785     15788     15788     15789     15788     15790
     15788     15791     15791     15792     15791     15793     15791     15794
     15794     15795     15794     15796     15794     15797     15797     15798
     15797     15799     15797     15800     15800     15801     15800     15802
     15800     15803     15803     15804     15803     15805     15803     15806
     15806     15807     15806     15808     15806     15809     15809     15810
     15809     15811     15809     15812     15813     15817     15813     15821
     15813     15825     15817     15818     15817     15819     15817     15820
     15821     15822     15821     15823     15821     15824     15825     15826
     15825     15827     15825     15828     15813     15814     15814     15815
     15814     15816     15814     15829     15829     15830     15829     15831
     15829     15835     15836     15837     15835     15832     15832     15836
     15832     15833     15832     15834     15837     15838     15837     15839
     15837     15840     15840     15841     15840     15848     15840     15842
     15848     15849     15848     15850     15848     15851     15842     15843
     15843     15845     15843     15844     15845     15846     15845     15847
     15845     15857     15857     15858     15857     15859     15857     15860
     15860     15861     15860     15862     15860     15863     15863     15864
     15863     15865     15863     15866     15866     15867     15866     15868
     15866     15869     15869     15870     15869     15871     15869     15872
     15872     15873     15872     15874     15872     15875     15875     15876
     15875     15877     15877     15878     15877     15879     15879     15880
     15879     15881     15879     15882     15882     15883     15882     15884
     15882     15885     15885     15886     15885     15887     15885     15888
     15888     15889     15888     15890     15888     15891     15891     15892
     15891     15893     15891     15894     15894     15895     15894     15896
     15894     15897     15897     15898     15897     15899     15897     15900
     15900     15901     15900     15902     15900     15903     15851     15852
     15852     15854     15852     15853     15854     15855     15854     15856
     15854     15904     15904     15905     15904     15906     15904     15907
     15907     15908     15907     15909     15907     15910     15910     15911
     15910     15912     15910     15913     15913     15914     15913     15915
     15913     15916     15916     15917     15916     15918     15916     15919
     15919     15920     15919     15921     15919     15922     15922     15923
     15922     15924     15922     15925     15925     15926     15925     15927
     15925     15928     15928     15929     15928     15930     15928     15931
     15931     15932     15931     15933     15931     15934     15934     15935
     15934     15936     15934     15937     15937     15938     15937     15939
     15937     15940     15940     15941     15940     15942     15940     15943
     15943     15944     15943     15945     15943     15946     15947     15951
     15947     15955     15947     15959     15951     15952     15951     15953
     15951     15954     15955     15956     15955     15957     15955     15958
     15959     15960     15959     15961     15959     15962     15947     15948
     15948     15949     15948     15950     15948     15963     15963     15964
     15963     15965     15963     15969     15970     15971     15969     15966
     15966     15970     15966     15967     15966     15968     15971     15972
     15971     15973     15971     15974     15974     15975     15974     15982
     15974     15976     15982     15983     15982     15984     15982     15985
     15976     15977     15977     15979     15977     15978     15979     15980
     15979     15981     15979     15991     15991     15992     15991     15993
     15991     15994     15994     15995     15994     15996     15994     15997
     15997     15998     15997     15999     15997     16000     16000     16001
     16000     16002     16000     16003     16003     16004     16003     16005
     16003     16006     16006     16007     16006     16008     16006     16009
     16009     16010     16009     16011     16011     16012     16011     16013
     16013     16014     16013     16015     16013     16016     16016     16017
     16016     16018     16016     16019     16019     16020     16019     16021
     16019     16022     16022     16023     16022     16024     16022     16025
     16025     16026     16025     16027     16025     16028     16028     16029
     16028     16030     16028     16031     16031     16032     16031     16033
     16031     16034     16034     16035     16034     16036     16034     16037
     15985     15986     15986     15988     15986     15987     15988     15989
     15988     15990     15988     16038     16038     16039     16038     16040
     16038     16041     16041     16042     16041     16043     16041     16044
     16044     16045     16044     16046     16044     16047     16047     16048
     16047     16049     16047     16050     16050     16051     16050     16052
     16050     16053     16053     16054     16053     16055     16053     16056
     16056     16057     16056     16058     16056     16059     16059     16060
     16059     16061     16059     16062     16062     16063     16062     16064
     16062     16065     16065     16066     16065     16067     16065     16068
     16068     16069     16068     16070     16068     16071     16071     16072
     16071     16073     16071     16074     16074     16075     16074     16076
     16074     16077     16077     16078     16077     16079     16077     16080
     16081     16085     16081     16089     16081     16093     16085     16086
     16085     16087     16085     16088     16089     16090     16089     16091
     16089     16092     16093     16094     16093     16095     16093     16096
     16081     16082     16082     16083     16082     16084     16082     16097
     16097     16098     16097     16099     16097     16103     16104     16105
     16103     16100     16100     16104     16100     16101     16100     16102
     16105     16106     16105     16107     16105     16108     16108     16109
     16108     16116     16108     16110     16116     16117     16116     16118
     16116     16119     16110     16111     16111     16113     16111     16112
     16113     16114     16113     16115     16113     16125     16125     16126
     16125     16127     16125     16128     16128     16129     16128     16130
     16128     16131     16131     16132     16131     16133     16131     16134
     16134     16135     16134     16136     16134     16137     16137     16138
     16137     16139     16137     16140     16140     16141     16140     16142
     16140     16143     16143     16144     16143     16145     16145     16146
     16145     16147     16147     16148     16147     16149     16147     16150
     16150     16151     16150     16152     16150     16153     16153     16154
     16153     16155     16153     16156     16156     16157     16156     16158
     16156     16159     16159     16160     16159     16161     16159     16162
     16162     16163     16162     16164     16162     16165     16165     16166
     16165     16167     16165     16168     16168     16169     16168     16170
     16168     16171     16119     16120     16120     16122     16120     16121
     16122     16123     16122     16124     16122     16172     16172     16173
     16172     16174     16172     16175     16175     16176     16175     16177
     16175     16178     16178     16179     16178     16180     16178     16181
     16181     16182     16181     16183     16181     16184     16184     16185
     16184     16186     16184     16187     16187     16188     16187     16189
     16187     16190     16190     16191     16190     16192     16190     16193
     16193     16194     16193     16195     16193     16196     16196     16197
     16196     16198     16196     16199     16199     16200     16199     16201
     16199     16202     16202     16203     16202     16204     16202     16205
     16205     16206     16205     16207     16205     16208     16208     16209
     16208     16210     16208     16211     16211     16212     16211     16213
     16211     16214     16215     16219     16215     16223     16215     16227
     16219     16220     16219     16221     16219     16222     16223     16224
     16223     16225     16223     16226     16227     16228     16227     16229
     16227     16230     16215     16216     16216     16217     16216     16218
     16216     16231     16231     16232     16231     16233     16231     16237
     16238     16239     16237     16234     16234     16238     16234     16235
     16234     16236     16239     16240     16239     16241     16239     16242
     16242     16243     16242     16250     16242     16244     16250     16251
     16250     16252     16250     16253     16244     16245     16245     16247
     16245     16246     16247     16248     16247     16249     16247     16259
     16259     16260     16259     16261     16259     16262     16262     16263
     16262     16264     16262     16265     16265     16266     16265     16267
     16265     16268     16268     16269     16268     16270     16268     16271
     16271     16272     16271     16273     16271     16274     16274     16275
     16274     16276     16274     16277     16277     16278     16277     16279
     16279     16280     16279     16281     16281     16282     16281     16283
     16281     16284     16284     16285     16284     16286     16284     16287
     16287     16288     16287     16289     16287     16290     16290     16291
     16290     16292     16290     16293     16293     16294     16293     16295
     16293     16296     16296     16297     16296     16298     16296     16299
     16299     16300     16299     16301     16299     16302     16302     16303
     16302     16304     16302     16305     16253     16254     16254     16256
     16254     16255     16256     16257     16256     16258     16256     16306
     16306     16307     16306     16308     16306     16309     16309     16310
     16309     16311     16309     16312     16312     16313     16312     16314
     16312     16315     16315     16316     16315     16317     16315     16318
     16318     16319     16318     16320     16318     16321     16321     16322
     16321     16323     16321     16324     16324     16325     16324     16326
     16324     16327     16327     16328     16327     16329     16327     16330
     16330     16331     16330     16332     16330     16333     16333     16334
     16333     16335     16333     16336     16336     16337     16336     16338
     16336     16339     16339     16340     16339     16341     16339     16342
     16342     16343     16342     16344     16342     16345     16345     16346
     16345     16347     16345     16348     16349     16353     16349     16357
     16349     16361     16353     16354     16353     16355     16353     16356
     16357     16358     16357     16359     16357     16360     16361     16362
     16361     16363     16361     16364     16349     16350     16350     16351
     16350     16352     16350     16365     16365     16366     16365     16367
     16365     16371     16372     16373     16371     16368     16368     16372
     16368     16369     16368     16370     16373     16374     16373     16375
     16373     16376     16376     16377     16376     16384     16376     16378
     16384     16385     16384     16386     16384     16387     16378     16379
     16379     16381     16379     16380     16381     16382     16381     16383
     16381     16393     16393     16394     16393     16395     16393     16396
     16396     16397     16396     16398     16396     16399     16399     16400
     16399     16401     16399     16402     16402     16403     16402     16404
     16402     16405     16405     16406     16405     16407     16405     16408
     16408     16409     16408     16410     16408     16411     16411     16412
     16411     16413     16413     16414     16413     16415     16415     16416
     16415     16417     16415     16418     16418     16419     16418     16420
     16418     16421     16421     16422     16421     16423     16421     16424
     16424     16425     16424     16426     16424     16427     16427     16428
     16427     16429     16427     16430     16430     16431     16430     16432
     16430     16433     16433     16434     16433     16435     16433     16436
     16436     16437     16436     16438     16436     16439     16387     16388
     16388     16390     16388     16389     16390     16391     16390     16392
     16390     16440     16440     16441     16440     16442     16440     16443
     16443     16444     16443     16445     16443     16446     16446     16447
     16446     16448     16446     16449     16449     16450     16449     16451
     16449     16452     16452     16453     16452     16454     16452     16455
     16455     16456     16455     16457     16455     16458     16458     16459
     16458     16460     16458     16461     16461     16462     16461     16463
     16461     16464     16464     16465     16464     16466     16464     16467
     16467     16468     16467     16469     16467     16470     16470     16471
     16470     16472     16470     16473     16473     16474     16473     16475
     16473     16476     16476     16477     16476     16478     16476     16479
     16479     16480     16479     16481     16479     16482     16483     16487
     16483     16491     16483     16495     16487     16488     16487     16489
     16487     16490     16491     16492     16491     16493     16491     16494
     16495     16496     16495     16497     16495     16498     16483     16484
     16484     16485     16484     16486     16484     16499     16499     16500
     16499     16501     16499     16505     16506     16507     16505     16502
     16502     16506     16502     16503     16502     16504     16507     16508
     16507     16509     16507     16510     16510     16511     16510     16518
     16510     16512     16518     16519     16518     16520     16518     16521
     16512     16513     16513     16515     16513     16514     16515     16516
     16515     16517     16515     16527     16527     16528     16527     16529
     16527     16530     16530     16531     16530     16532     16530     16533
     16533     16534     16533     16535     16533     16536     16536     16537
     16536     16538     16536     16539     16539     16540     16539     16541
     16539     16542     16542     16543     16542     16544     16542     16545
     16545     16546     16545     16547     16547     16548     16547     16549
     16549     16550     16549     16551     16549     16552     16552     16553
     16552     16554     16552     16555     16555     16556     16555     16557
     16555     16558     16558     16559     16558     16560     16558     16561
     16561     16562     16561     16563     16561     16564     16564     16565
     16564     16566     16564     16567     16567     16568     16567     16569
     16567     16570     16570     16571     16570     16572     16570     16573
     16521     16522     16522     16524     16522     16523     16524     16525
     16524     16526     16524     16574     16574     16575     16574     16576
     16574     16577     16577     16578     16577     16579     16577     16580
     16580     16581     16580     16582     16580     16583     16583     16584
     16583     16585     16583     16586     16586     16587     16586     16588
     16586     16589     16589     16590     16589     16591     16589     16592
     16592     16593     16592     16594     16592     16595     16595     16596
     16595     16597     16595     16598     16598     16599     16598     16600
     16598     16601     16601     16602     16601     16603     16601     16604
     16604     16605     16604     16606     16604     16607     16607     16608
     16607     16609     16607     16610     16610     16611     16610     16612
     16610     16613     16613     16614     16613     16615     16613     16616
     16617     16621     16617     16625     16617     16629     16621     16622
     16621     16623     16621     16624     16625     16626     16625     16627
     16625     16628     16629     16630     16629     16631     16629     16632
     16617     16618     16618     16619     16618     16620     16618     16633
     16633     16634     16633     16635     16633     16639     16640     16641
     16639     16636     16636     16640     16636     16637     16636     16638
     16641     16642     16641     16643     16641     16644     16644     16645
     16644     16652     16644     16646     16652     16653     16652     16654
     16652     16655     16646     16647     16647     16649     16647     16648
     16649     16650     16649     16651     16649     16661     16661     16662
     16661     16663     16661     16664     16664     16665     16664     16666
     16664     16667     16667     16668     16667     16669     16667     16670
     16670     16671     16670     16672     16670     16673     16673     16674
     16673     16675     16673     16676     16676     16677     16676     16678
     16676     16679     16679     16680     16679     16681     16681     16682
     16681     16683     16683     16684     16683     16685     16683     16686
     16686     16687     16686     16688     16686     16689     16689     16690
     16689     16691     16689     16692     16692     16693     16692     16694
     16692     16695     16695     16696     16695     16697     16695     16698
     16698     16699     16698     16700     16698     16701     16701     16702
     16701     16703     16701     16704     16704     16705     16704     16706
     16704     16707     16655     16656     16656     16658     16656     16657
     16658     16659     16658     16660     16658     16708     16708     16709
     16708     16710     16708     16711     16711     16712     16711     16713
     16711     16714     16714     16715     16714     16716     16714     16717
     16717     16718     16717     16719     16717     16720     16720     16721
     16720     16722     16720     16723     16723     16724     16723     16725
     16723     16726     16726     16727     16726     16728     16726     16729
     16729     16730     16729     16731     16729     16732     16732     16733
     16732     16734     16732     16735     16735     16736     16735     16737
     16735     16738     16738     16739     16738     16740     16738     16741
     16741     16742     16741     16743     16741     16744     16744     16745
     16744     16746     16744     16747     16747     16748     16747     16749
     16747     16750     16751     16755     16751     16759     16751     16763
     16755     16756     16755     16757     16755     16758     16759     16760
     16759     16761     16759     16762     16763     16764     16763     16765
     16763     16766     16751     16752     16752     16753     16752     16754
     16752     16767     16767     16768     16767     16769     16767     16773
     16774     16775     16773     16770     16770     16774     16770     16771
     16770     16772     16775     16776     16775     16777     16775     16778
     16778     16779     16778     16786     16778     16780     16786     16787
     16786     16788     16786     16789     16780     16781     16781     16783
     16781     16782     16783     16784     16783     16785     16783     16795
     16795     16796     16795     16797     16795     16798     16798     16799
     16798     16800     16798     16801     16801     16802     16801     16803
     16801     16804     16804     16805     16804     16806     16804     16807
     16807     16808     16807     16809     16807     16810     16810     16811
     16810     16812     16810     16813     16813     16814     16813     16815
     16815     16816     16815     16817     16817     16818     16817     16819
     16817     16820     16820     16821     16820     16822     16820     16823
     16823     16824     16823     16825     16823     16826     16826     16827
     16826     16828     16826     16829     16829     16830     16829     16831
     16829     16832     16832     16833     16832     16834     16832     16835
     16835     16836     16835     16837     16835     16838     16838     16839
     16838     16840     16838     16841     16789     16790     16790     16792
     16790     16791     16792     16793     16792     16794     16792     16842
     16842     16843     16842     16844     16842     16845     16845     16846
     16845     16847     16845     16848     16848     16849     16848     16850
     16848     16851     16851     16852     16851     16853     16851     16854
     16854     16855     16854     16856     16854     16857     16857     16858
     16857     16859     16857     16860     16860     16861     16860     16862
     16860     16863     16863     16864     16863     16865     16863     16866
     16866     16867     16866     16868     16866     16869     16869     16870
     16869     16871     16869     16872     16872     16873     16872     16874
     16872     16875     16875     16876     16875     16877     16875     16878
     16878     16879     16878     16880     16878     16881     16881     16882
     16881     16883     16881     16884     16885     16889     16885     16893
     16885     16897     16889     16890     16889     16891     16889     16892
     16893     16894     16893     16895     16893     16896     16897     16898
     16897     16899     16897     16900     16885     16886     16886     16887
     16886     16888     16886     16901     16901     16902     16901     16903
     16901     16907     16908     16909     16907     16904     16904     16908
     16904     16905     16904     16906     16909     16910     16909     16911
     16909     16912     16912     16913     16912     16920     16912     16914
     16920     16921     16920     16922     16920     16923     16914     16915
     16915     16917     16915     16916     16917     16918     16917     16919
     16917     16929     16929     16930     16929     16931     16929     16932
     16932     16933     16932     16934     16932     16935     16935     16936
     16935     16937     16935     16938     16938     16939     16938     16940
     16938     16941     16941     16942     16941     16943     16941     16944
     16944     16945     16944     16946     16944     16947     16947     16948
     16947     16949     16949     16950     16949     16951     16951     16952
     16951     16953     16951     16954     16954     16955     16954     16956
     16954     16957     16957     16958     16957     16959     16957     16960
     16960     16961     16960     16962     16960     16963     16963     16964
     16963     16965     16963     16966     16966     16967     16966     16968
     16966     16969     16969     16970     16969     16971     16969     16972
     16972     16973     16972     16974     16972     16975     16923     16924
     16924     16926     16924     16925     16926     16927     16926     16928
     16926     16976     16976     16977     16976     16978     16976     16979
     16979     16980     16979     16981     16979     16982     16982     16983
     16982     16984     16982     16985     16985     16986     16985     16987
     16985     16988     16988     16989     16988     16990     16988     16991
     16991     16992     16991     16993     16991     16994     16994     16995
     16994     16996     16994     16997     16997     16998     16997     16999
     16997     17000     17000     17001     17000     17002     17000     17003
     17003     17004     17003     17005     17003     17006     17006     17007
     17006     17008     17006     17009     17009     17010     17009     17011
     17009     17012     17012     17013     17012     17014     17012     17015
     17015     17016     17015     17017     17015     17018     17019     17023
     17019     17027     17019     17031     17023     17024     17023     17025
     17023     17026     17027     17028     17027     17029     17027     17030
     17031     17032     17031     17033     17031     17034     17019     17020
     17020     17021     17020     17022     17020     17035     17035     17036
     17035     17037     17035     17041     17042     17043     17041     17038
     17038     17042     17038     17039     17038     17040     17043     17044
     17043     17045     17043     17046     17046     17047     17046     17054
     17046     17048     17054     17055     17054     17056     17054     17057
     17048     17049     17049     17051     17049     17050     17051     17052
     17051     17053     17051     17063     17063     17064     17063     17065
     17063     17066     17066     17067     17066     17068     17066     17069
     17069     17070     17069     17071     17069     17072     17072     17073
     17072     17074     17072     17075     17075     17076     17075     17077
     17075     17078     17078     17079     17078     17080     17078     17081
     17081     17082     17081     17083     17083     17084     17083     17085
     17085     17086     17085     17087     17085     17088     17088     17089
     17088     17090     17088     17091     17091     17092     17091     17093
     17091     17094     17094     17095     17094     17096     17094     17097
     17097     17098     17097     17099     17097     17100     17100     17101
     17100     17102     17100     17103     17103     17104     17103     17105
     17103     17106     17106     17107     17106     17108     17106     17109
     17057     17058     17058     17060     17058     17059     17060     17061
     17060     17062     17060     17110     17110     17111     17110     17112
     17110     17113     17113     17114     17113     17115     17113     17116
     17116     17117     17116     17118     17116     17119     17119     17120
     17119     17121     17119     17122     17122     17123     17122     17124
     17122     17125     17125     17126     17125     17127     17125     17128
     17128     17129     17128     17130     17128     17131     17131     17132
     17131     17133     17131     17134     17134     17135     17134     17136
     17134     17137     17137     17138     17137     17139     17137     17140
     17140     17141     17140     17142     17140     17143     17143     17144
     17143     17145     17143     17146     17146     17147     17146     17148
     17146     17149     17149     17150     17149     17151     17149     17152
     17153     17157     17153     17161     17153     17165     17157     17158
     17157     17159     17157     17160     17161     17162     17161     17163
     17161     17164     17165     17166     17165     17167     17165     17168
     17153     17154     17154     17155     17154     17156     17154     17169
     17169     17170     17169     17171     17169     17175     17176     17177
     17175     17172     17172     17176     17172     17173     17172     17174
     17177     17178     17177     17179     17177     17180     17180     17181
     17180     17188     17180     17182     17188     17189     17188     17190
     17188     17191     17182     17183     17183     17185     17183     17184
     17185     17186     17185     17187     17185     17197     17197     17198
     17197     17199     17197     17200     17200     17201     17200     17202
     17200     17203     17203     17204     17203     17205     17203     17206
     17206     17207     17206     17208     17206     17209     17209     17210
     17209     17211     17209     17212     17212     17213     17212     17214
     17212     17215     17215     17216     17215     17217     17217     17218
     17217     17219     17219     17220     17219     17221     17219     17222
     17222     17223     17222     17224     17222     17225     17225     17226
     17225     17227     17225     17228     17228     17229     17228     17230
     17228     17231     17231     17232     17231     17233     17231     17234
     17234     17235     17234     17236     17234     17237     17237     17238
     17237     17239     17237     17240     17240     17241     17240     17242
     17240     17243     17191     17192     17192     17194     17192     17193
     17194     17195     17194     17196     17194     17244     17244     17245
     17244     17246     17244     17247     17247     17248     17247     17249
     17247     17250     17250     17251     17250     17252     17250     17253
     17253     17254     17253     17255     17253     17256     17256     17257
     17256     17258     17256     17259     17259     17260     17259     17261
     17259     17262     17262     17263     17262     17264     17262     17265
     17265     17266     17265     17267     17265     17268     17268     17269
     17268     17270     17268     17271     17271     17272     17271     17273
     17271     17274     17274     17275     17274     17276     17274     17277
     17277     17278     17277     17279     17277     17280     17280     17281
     17280     17282     17280     17283     17283     17284     17283     17285
     17283     17286     17287     17291     17287     17295     17287     17299
     17291     17292     17291     17293     17291     17294     17295     17296
     17295     17297     17295     17298     17299     17300     17299     17301
     17299     17302     17287     17288     17288     17289     17288     17290
     17288     17303     17303     17304     17303     17305     17303     17309
     17310     17311     17309     17306     17306     17310     17306     17307
     17306     17308     17311     17312     17311     17313     17311     17314
     17314     17315     17314     17322     17314     17316     17322     17323
     17322     17324     17322     17325     17316     17317     17317     17319
     17317     17318     17319     17320     17319     17321     17319     17331
     17331     17332     17331     17333     17331     17334     17334     17335
     17334     17336     17334     17337     17337     17338     17337     17339
     17337     17340     17340     17341     17340     17342     17340     17343
     17343     17344     17343     17345     17343     17346     17346     17347
     17346     17348     17346     17349     17349     17350     17349     17351
     17351     17352     17351     17353     17353     17354     17353     17355
     17353     17356     17356     17357     17356     17358     17356     17359
     17359     17360     17359     17361     17359     17362     17362     17363
     17362     17364     17362     17365     17365     17366     17365     17367
     17365     17368     17368     17369     17368     17370     17368     17371
     17371     17372     17371     17373     17371     17374     17374     17375
     17374     17376     17374     17377     17325     17326     17326     17328
     17326     17327     17328     17329     17328     17330     17328     17378
     17378     17379     17378     17380     17378     17381     17381     17382
     17381     17383     17381     17384     17384     17385     17384     17386
     17384     17387     17387     17388     17387     17389     17387     17390
     17390     17391     17390     17392     17390     17393     17393     17394
     17393     17395     17393     17396     17396     17397     17396     17398
     17396     17399     17399     17400     17399     17401     17399     17402
     17402     17403     17402     17404     17402     17405     17405     17406
     17405     17407     17405     17408     17408     17409     17408     17410
     17408     17411     17411     17412     17411     17413     17411     17414
     17414     17415     17414     17416     17414     17417     17417     17418
     17417     17419     17417     17420     17421     17425     17421     17429
     17421     17433     17425     17426     17425     17427     17425     17428
     17429     17430     17429     17431     17429     17432     17433     17434
     17433     17435     17433     17436     17421     17422     17422     17423
     17422     17424     17422     17437     17437     17438     17437     17439
     17437     17443     17444     17445     17443     17440     17440     17444
     17440     17441     17440     17442     17445     17446     17445     17447
     17445     17448     17448     17449     17448     17456     17448     17450
     17456     17457     17456     17458     17456     17459     17450     17451
     17451     17453     17451     17452     17453     17454     17453     17455
     17453     17465     17465     17466     17465     17467     17465     17468
     17468     17469     17468     17470     17468     17471     17471     17472
     17471     17473     17471     17474     17474     17475     17474     17476
     17474     17477     17477     17478     17477     17479     17477     17480
     17480     17481     17480     17482     17480     17483     17483     17484
     17483     17485     17485     17486     17485     17487     17487     17488
     17487     17489     17487     17490     17490     17491     17490     17492
     17490     17493     17493     17494     17493     17495     17493     17496
     17496     17497     17496     17498     17496     17499     17499     17500
     17499     17501     17499     17502     17502     17503     17502     17504
     17502     17505     17505     17506     17505     17507     17505     17508
     17508     17509     17508     17510     17508     17511     17459     17460
     17460     17462     17460     17461     17462     17463     17462     17464
     17462     17512     17512     17513     17512     17514     17512     17515
     17515     17516     17515     17517     17515     17518     17518     17519
     17518     17520     17518     17521     17521     17522     17521     17523
     17521     17524     17524     17525     17524     17526     17524     17527
     17527     17528     17527     17529     17527     17530     17530     17531
     17530     17532     17530     17533     17533     17534     17533     17535
     17533     17536     17536     17537     17536     17538     17536     17539
     17539     17540     17539     17541     17539     17542     17542     17543
     17542     17544     17542     17545     17545     17546     17545     17547
     17545     17548     17548     17549     17548     17550     17548     17551
     17551     17552     17551     17553     17551     17554     17555     17559
     17555     17563     17555     17567     17559     17560     17559     17561
     17559     17562     17563     17564     17563     17565     17563     17566
     17567     17568     17567     17569     17567     17570     17555     17556
     17556     17557     17556     17558     17556     17571     17571     17572
     17571     17573     17571     17577     17578     17579     17577     17574
     17574     17578     17574     17575     17574     17576     17579     17580
     17579     17581     17579     17582     17582     17583     17582     17590
     17582     17584     17590     17591     17590     17592     17590     17593
     17584     17585     17585     17587     17585     17586     17587     17588
     17587     17589     17587     17599     17599     17600     17599     17601
     17599     17602     17602     17603     17602     17604     17602     17605
     17605     17606     17605     17607     17605     17608     17608     17609
     17608     17610     17608     17611     17611     17612     17611     17613
     17611     17614     17614     17615     17614     17616     17614     17617
     17617     17618     17617     17619     17619     17620     17619     17621
     17621     17622     17621     17623     17621     17624     17624     17625
     17624     17626     17624     17627     17627     17628     17627     17629
     17627     17630     17630     17631     17630     17632     17630     17633
     17633     17634     17633     17635     17633     17636     17636     17637
     17636     17638     17636     17639     17639     17640     17639     17641
     17639     17642     17642     17643     17642     17644     17642     17645
     17593     17594     17594     17596     17594     17595     17596     17597
     17596     17598     17596     17646     17646     17647     17646     17648
     17646     17649     17649     17650     17649     17651     17649     17652
     17652     17653     17652     17654     17652     17655     17655     17656
     17655     17657     17655     17658     17658     17659     17658     17660
     17658     17661     17661     17662     17661     17663     17661     17664
     17664     17665     17664     17666     17664     17667     17667     17668
     17667     17669     17667     17670     17670     17671     17670     17672
     17670     17673     17673     17674     17673     17675     17673     17676
     17676     17677     17676     17678     17676     17679     17679     17680
     17679     17681     17679     17682     17682     17683     17682     17684
     17682     17685     17685     17686     17685     17687     17685     17688
     17689     17693     17689     17697     17689     17701     17693     17694
     17693     17695     17693     17696     17697     17698     17697     17699
     17697     17700     17701     17702     17701     17703     17701     17704
     17689     17690     17690     17691     17690     17692     17690     17705
     17705     17706     17705     17707     17705     17711     17712     17713
     17711     17708     17708     17712     17708     17709     17708     17710
     17713     17714     17713     17715     17713     17716     17716     17717
     17716     17724     17716     17718     17724     17725     17724     17726
     17724     17727     17718     17719     17719     17721     17719     17720
     17721     17722     17721     17723     17721     17733     17733     17734
     17733     17735     17733     17736     17736     17737     17736     17738
     17736     17739     17739     17740     17739     17741     17739     17742
     17742     17743     17742     17744     17742     17745     17745     17746
     17745     17747     17745     17748     17748     17749     17748     17750
     17748     17751     17751     17752     17751     17753     17753     17754
     17753     17755     17755     17756     17755     17757     17755     17758
     17758     17759     17758     17760     17758     17761     17761     17762
     17761     17763     17761     17764     17764     17765     17764     17766
     17764     17767     17767     17768     17767     17769     17767     17770
     17770     17771     17770     17772     17770     17773     17773     17774
     17773     17775     17773     17776     17776     17777     17776     17778
     17776     17779     17727     17728     17728     17730     17728     17729
     17730     17731     17730     17732     17730     17780     17780     17781
     17780     17782     17780     17783     17783     17784     17783     17785
     17783     17786     17786     17787     17786     17788     17786     17789
     17789     17790     17789     17791     17789     17792     17792     17793
     17792     17794     17792     17795     17795     17796     17795     17797
     17795     17798     17798     17799     17798     17800     17798     17801
     17801     17802     17801     17803     17801     17804     17804     17805
     17804     17806     17804     17807     17807     17808     17807     17809
     17807     17810     17810     17811     17810     17812     17810     17813
     17813     17814     17813     17815     17813     17816     17816     17817
     17816     17818     17816     17819     17819     17820     17819     17821
     17819     17822     17823     17827     17823     17831     17823     17835
     17827     17828     17827     17829     17827     17830     17831     17832
     17831     17833     17831     17834     17835     17836     17835     17837
     17835     17838     17823     17824     17824     17825     17824     17826
     17824     17839     17839     17840     17839     17841     17839     17845
     17846     17847     17845     17842     17842     17846     17842     17843
     17842     17844     17847     17848     17847     17849     17847     17850
     17850     17851     17850     17858     17850     17852     17858     17859
     17858     17860     17858     17861     17852     17853     17853     17855
     17853     17854     17855     17856     17855     17857     17855     17867
     17867     17868     17867     17869     17867     17870     17870     17871
     17870     17872     17870     17873     17873     17874     17873     17875
     17873     17876     17876     17877     17876     17878     17876     17879
     17879     17880     17879     17881     17879     17882     17882     17883
     17882     17884     17882     17885     17885     17886     17885     17887
     17887     17888     17887     17889     17889     17890     17889     17891
     17889     17892     17892     17893     17892     17894     17892     17895
     17895     17896     17895     17897     17895     17898     17898     17899
     17898     17900     17898     17901     17901     17902     17901     17903
     17901     17904     17904     17905     17904     17906     17904     17907
     17907     17908     17907     17909     17907     17910     17910     17911
     17910     17912     17910     17913     17861     17862     17862     17864
     17862     17863     17864     17865     17864     17866     17864     17914
     17914     17915     17914     17916     17914     17917     17917     17918
     17917     17919     17917     17920     17920     17921     17920     17922
     17920     17923     17923     17924     17923     17925     17923     17926
     17926     17927     17926     17928     17926     17929     17929     17930
     17929     17931     17929     17932     17932     17933     17932     17934
     17932     17935     17935     17936     17935     17937     17935     17938
     17938     17939     17938     17940     17938     17941     17941     17942
     17941     17943     17941     17944     17944     17945     17944     17946
     17944     17947     17947     17948     17947     17949     17947     17950
     17950     17951     17950     17952     17950     17953     17953     17954
     17953     17955     17953     17956     17957     17961     17957     17965
     17957     17969     17961     17962     17961     17963     17961     17964
     17965     17966     17965     17967     17965     17968     17969     17970
     17969     17971     17969     17972     17957     17958     17958     17959
     17958     17960     17958     17973     17973     17974     17973     17975
     17973     17979     17980     17981     17979     17976     17976     17980
     17976     17977     17976     17978     17981     17982     17981     17983
     17981     17984     17984     17985     17984     17992     17984     17986
     17992     17993     17992     17994     17992     17995     17986     17987
     17987     17989     17987     17988     17989     17990     17989     17991
     17989     18001     18001     18002     18001     18003     18001     18004
     18004     18005     18004     18006     18004     18007     18007     18008
     18007     18009     18007     18010     18010     18011     18010     18012
     18010     18013     18013     18014     18013     18015     18013     18016
     18016     18017     18016     18018     18016     18019     18019     18020
     18019     18021     18021     18022     18021     18023     18023     18024
     18023     18025     18023     18026     18026     18027     18026     18028
     18026     18029     18029     18030     18029     18031     18029     18032
     18032     18033     18032     18034     18032     18035     18035     18036
     18035     18037     18035     18038     18038     18039     18038     18040
     18038     18041     18041     18042     18041     18043     18041     18044
     18044     18045     18044     18046     18044     18047     17995     17996
     17996     17998     17996     17997     17998     17999     17998     18000
     17998     18048     18048     18049     18048     18050     18048     18051
     18051     18052     18051     18053     18051     18054     18054     18055
     18054     18056     18054     18057     18057     18058     18057     18059
     18057     18060     18060     18061     18060     18062     18060     18063
     18063     18064     18063     18065     18063     18066     18066     18067
     18066     18068     18066     18069     18069     18070     18069     18071
     18069     18072     18072     18073     18072     18074     18072     18075
     18075     18076     18075     18077     18075     18078     18078     18079
     18078     18080     18078     18081     18081     18082     18081     18083
     18081     18084     18084     18085     18084     18086     18084     18087
     18087     18088     18087     18089     18087     18090     18091     18095
     18091     18099     18091     18103     18095     18096     18095     18097
     18095     18098     18099     18100     18099     18101     18099     18102
     18103     18104     18103     18105     18103     18106     18091     18092
     18092     18093     18092     18094     18092     18107     18107     18108
     18107     18109     18107     18113     18114     18115     18113     18110
     18110     18114     18110     18111     18110     18112     18115     18116
     18115     18117     18115     18118     18118     18119     18118     18126
     18118     18120     18126     18127     18126     18128     18126     18129
     18120     18121     18121     18123     18121     18122     18123     18124
     18123     18125     18123     18135     18135     18136     18135     18137
     18135     18138     18138     18139     18138     18140     18138     18141
     18141     18142     18141     18143     18141     18144     18144     18145
     18144     18146     18144     18147     18147     18148     18147     18149
     18147     18150     18150     18151     18150     18152     18150     18153
     18153     18154     18153     18155     18155     18156     18155     18157
     18157     18158     18157     18159     18157     18160     18160     18161
     18160     18162     18160     18163     18163     18164     18163     18165
     18163     18166     18166     18167     18166     18168     18166     18169
     18169     18170     18169     18171     18169     18172     18172     18173
     18172     18174     18172     18175     18175     18176     18175     18177
     18175     18178     18178     18179     18178     18180     18178     18181
     18129     18130     18130     18132     18130     18131     18132     18133
     18132     18134     18132     18182     18182     18183     18182     18184
     18182     18185     18185     18186     18185     18187     18185     18188
     18188     18189     18188     18190     18188     18191     18191     18192
     18191     18193     18191     18194     18194     18195     18194     18196
     18194     18197     18197     18198     18197     18199     18197     18200
     18200     18201     18200     18202     18200     18203     18203     18204
     18203     18205     18203     18206     18206     18207     18206     18208
     18206     18209     18209     18210     18209     18211     18209     18212
     18212     18213     18212     18214     18212     18215     18215     18216
     18215     18217     18215     18218     18218     18219     18218     18220
     18218     18221     18221     18222     18221     18223     18221     18224
     18225     18229     18225     18233     18225     18237     18229     18230
     18229     18231     18229     18232     18233     18234     18233     18235
     18233     18236     18237     18238     18237     18239     18237     18240
     18225     18226     18226     18227     18226     18228     18226     18241
     18241     18242     18241     18243     18241     18247     18248     18249
     18247     18244     18244     18248     18244     18245     18244     18246
     18249     18250     18249     18251     18249     18252     18252     18253
     18252     18260     18252     18254     18260     18261     18260     18262
     18260     18263     18254     18255     18255     18257     18255     18256
     18257     18258     18257     18259     18257     18269     18269     18270
     18269     18271     18269     18272     18272     18273     18272     18274
     18272     18275     18275     18276     18275     18277     18275     18278
     18278     18279     18278     18280     18278     18281     18281     18282
     18281     18283     18281     18284     18284     18285     18284     18286
     18284     18287     18287     18288     18287     18289     18289     18290
     18289     18291     18291     18292     18291     18293     18291     18294
     18294     18295     18294     18296     18294     18297     18297     18298
     18297     18299     18297     18300     18300     18301     18300     18302
     18300     18303     18303     18304     18303     18305     18303     18306
     18306     18307     18306     18308     18306     18309     18309     18310
     18309     18311     18309     18312     18312     18313     18312     18314
     18312     18315     18263     18264     18264     18266     18264     18265
     18266     18267     18266     18268     18266     18316     18316     18317
     18316     18318     18316     18319     18319     18320     18319     18321
     18319     18322     18322     18323     18322     18324     18322     18325
     18325     18326     18325     18327     18325     18328     18328     18329
     18328     18330     18328     18331     18331     18332     18331     18333
     18331     18334     18334     18335     18334     18336     18334     18337
     18337     18338     18337     18339     18337     18340     18340     18341
     18340     18342     18340     18343     18343     18344     18343     18345
     18343     18346     18346     18347     18346     18348     18346     18349
     18349     18350     18349     18351     18349     18352     18352     18353
     18352     18354     18352     18355     18355     18356     18355     18357
     18355     18358     18359     18363     18359     18367     18359     18371
     18363     18364     18363     18365     18363     18366     18367     18368
     18367     18369     18367     18370     18371     18372     18371     18373
     18371     18374     18359     18360     18360     18361     18360     18362
     18360     18375     18375     18376     18375     18377     18375     18381
     18382     18383     18381     18378     18378     18382     18378     18379
     18378     18380     18383     18384     18383     18385     18383     18386
     18386     18387     18386     18394     18386     18388     18394     18395
     18394     18396     18394     18397     18388     18389     18389     18391
     18389     18390     18391     18392     18391     18393     18391     18403
     18403     18404     18403     18405     18403     18406     18406     18407
     18406     18408     18406     18409     18409     18410     18409     18411
     18409     18412     18412     18413     18412     18414     18412     18415
     18415     18416     18415     18417     18415     18418     18418     18419
     18418     18420     18418     18421     18421     18422     18421     18423
     18423     18424     18423     18425     18425     18426     18425     18427
     18425     18428     18428     18429     18428     18430     18428     18431
     18431     18432     18431     18433     18431     18434     18434     18435
     18434     18436     18434     18437     18437     18438     18437     18439
     18437     18440     18440     18441     18440     18442     18440     18443
     18443     18444     18443     18445     18443     18446     18446     18447
     18446     18448     18446     18449     18397     18398     18398     18400
     18398     18399     18400     18401     18400     18402     18400     18450
     18450     18451     18450     18452     18450     18453     18453     18454
     18453     18455     18453     18456     18456     18457     18456     18458
     18456     18459     18459     18460     18459     18461     18459     18462
     18462     18463     18462     18464     18462     18465     18465     18466
     18465     18467     18465     18468     18468     18469     18468     18470
     18468     18471     18471     18472     18471     18473     18471     18474
     18474     18475     18474     18476     18474     18477     18477     18478
     18477     18479     18477     18480     18480     18481     18480     18482
     18480     18483     18483     18484     18483     18485     18483     18486
     18486     18487     18486     18488     18486     18489     18489     18490
     18489     18491     18489     18492     18493     18497     18493     18501
     18493     18505     18497     18498     18497     18499     18497     18500
     18501     18502     18501     18503     18501     18504     18505     18506
     18505     18507     18505     18508     18493     18494     18494     18495
     18494     18496     18494     18509     18509     18510     18509     18511
     18509     18515     18516     18517     18515     18512     18512     18516
     18512     18513     18512     18514     18517     18518     18517     18519
     18517     18520     18520     18521     18520     18528     18520     18522
     18528     18529     18528     18530     18528     18531     18522     18523
     18523     18525     18523     18524     18525     18526     18525     18527
     18525     18537     18537     18538     18537     18539     18537     18540
     18540     18541     18540     18542     18540     18543     18543     18544
     18543     18545     18543     18546     18546     18547     18546     18548
     18546     18549     18549     18550     18549     18551     18549     18552
     18552     18553     18552     18554     18552     18555     18555     18556
     18555     18557     18557     18558     18557     18559     18559     18560
     18559     18561     18559     18562     18562     18563     18562     18564
     18562     18565     18565     18566     18565     18567     18565     18568
     18568     18569     18568     18570     18568     18571     18571     18572
     18571     18573     18571     18574     18574     18575     18574     18576
     18574     18577     18577     18578     18577     18579     18577     18580
     18580     18581     18580     18582     18580     18583     18531     18532
     18532     18534     18532     18533     18534     18535     18534     18536
     18534     18584     18584     18585     18584     18586     18584     18587
     18587     18588     18587     18589     18587     18590     18590     18591
     18590     18592     18590     18593     18593     18594     18593     18595
     18593     18596     18596     18597     18596     18598     18596     18599
     18599     18600     18599     18601     18599     18602     18602     18603
     18602     18604     18602     18605     18605     18606     18605     18607
     18605     18608     18608     18609     18608     18610     18608     18611
     18611     18612     18611     18613     18611     18614     18614     18615
     18614     18616     18614     18617     18617     18618     18617     18619
     18617     18620     18620     18621     18620     18622     18620     18623
     18623     18624     18623     18625     18623     18626     18627     18631
     18627     18635     18627     18639     18631     18632     18631     18633
     18631     18634     18635     18636     18635     18637     18635     18638
     18639     18640     18639     18641     18639     18642     18627     18628
     18628     18629     18628     18630     18628     18643     18643     18644
     18643     18645     18643     18649     18650     18651     18649     18646
     18646     18650     18646     18647     18646     18648     18651     18652
     18651     18653     18651     18654     18654     18655     18654     18662
     18654     18656     18662     18663     18662     18664     18662     18665
     18656     18657     18657     18659     18657     18658     18659     18660
     18659     18661     18659     18671     18671     18672     18671     18673
     18671     18674     18674     18675     18674     18676     18674     18677
     18677     18678     18677     18679     18677     18680     18680     18681
     18680     18682     18680     18683     18683     18684     18683     18685
     18683     18686     18686     18687     18686     18688     18686     18689
     18689     18690     18689     18691     18691     18692     18691     18693
     18693     18694     18693     18695     18693     18696     18696     18697
     18696     18698     18696     18699     18699     18700     18699     18701
     18699     18702     18702     18703     18702     18704     18702     18705
     18705     18706     18705     18707     18705     18708     18708     18709
     18708     18710     18708     18711     18711     18712     18711     18713
     18711     18714     18714     18715     18714     18716     18714     18717
     18665     18666     18666     18668     18666     18667     18668     18669
     18668     18670     18668     18718     18718     18719     18718     18720
     18718     18721     18721     18722     18721     18723     18721     18724
     18724     18725     18724     18726     18724     18727     18727     18728
     18727     18729     18727     18730     18730     18731     18730     18732
     18730     18733     18733     18734     18733     18735     18733     18736
     18736     18737     18736     18738     18736     18739     18739     18740
     18739     18741     18739     18742     18742     18743     18742     18744
     18742     18745     18745     18746     18745     18747     18745     18748
     18748     18749     18748     18750     18748     18751     18751     18752
     18751     18753     18751     18754     18754     18755     18754     18756
     18754     18757     18757     18758     18757     18759     18757     18760
     18761     18765     18761     18769     18761     18773     18765     18766
     18765     18767     18765     18768     18769     18770     18769     18771
     18769     18772     18773     18774     18773     18775     18773     18776
     18761     18762     18762     18763     18762     18764     18762     18777
     18777     18778     18777     18779     18777     18783     18784     18785
     18783     18780     18780     18784     18780     18781     18780     18782
     18785     18786     18785     18787     18785     18788     18788     18789
     18788     18796     18788     18790     18796     18797     18796     18798
     18796     18799     18790     18791     18791     18793     18791     18792
     18793     18794     18793     18795     18793     18805     18805     18806
     18805     18807     18805     18808     18808     18809     18808     18810
     18808     18811     18811     18812     18811     18813     18811     18814
     18814     18815     18814     18816     18814     18817     18817     18818
     18817     18819     18817     18820     18820     18821     18820     18822
     18820     18823     18823     18824     18823     18825     18825     18826
     18825     18827     18827     18828     18827     18829     18827     18830
     18830     18831     18830     18832     18830     18833     18833     18834
     18833     18835     18833     18836     18836     18837     18836     18838
     18836     18839     18839     18840     18839     18841     18839     18842
     18842     18843     18842     18844     18842     18845     18845     18846
     18845     18847     18845     18848     18848     18849     18848     18850
     18848     18851     18799     18800     18800     18802     18800     18801
     18802     18803     18802     18804     18802     18852     18852     18853
     18852     18854     18852     18855     18855     18856     18855     18857
     18855     18858     18858     18859     18858     18860     18858     18861
     18861     18862     18861     18863     18861     18864     18864     18865
     18864     18866     18864     18867     18867     18868     18867     18869
     18867     18870     18870     18871     18870     18872     18870     18873
     18873     18874     18873     18875     18873     18876     18876     18877
     18876     18878     18876     18879     18879     18880     18879     18881
     18879     18882     18882     18883     18882     18884     18882     18885
     18885     18886     18885     18887     18885     18888     18888     18889
     18888     18890     18888     18891     18891     18892     18891     18893
     18891     18894     18895     18899     18895     18903     18895     18907
     18899     18900     18899     18901     18899     18902     18903     18904
     18903     18905     18903     18906     18907     18908     18907     18909
     18907     18910     18895     18896     18896     18897     18896     18898
     18896     18911     18911     18912     18911     18913     18911     18917
     18918     18919     18917     18914     18914     18918     18914     18915
     18914     18916     18919     18920     18919     18921     18919     18922
     18922     18923     18922     18930     18922     18924     18930     18931
     18930     18932     18930     18933     18924     18925     18925     18927
     18925     18926     18927     18928     18927     18929     18927     18939
     18939     18940     18939     18941     18939     18942     18942     18943
     18942     18944     18942     18945     18945     18946     18945     18947
     18945     18948     18948     18949     18948     18950     18948     18951
     18951     18952     18951     18953     18951     18954     18954     18955
     18954     18956     18954     18957     18957     18958     18957     18959
     18959     18960     18959     18961     18961     18962     18961     18963
     18961     18964     18964     18965     18964     18966     18964     18967
     18967     18968     18967     18969     18967     18970     18970     18971
     18970     18972     18970     18973     18973     18974     18973     18975
     18973     18976     18976     18977     18976     18978     18976     18979
     18979     18980     18979     18981     18979     18982     18982     18983
     18982     18984     18982     18985     18933     18934     18934     18936
     18934     18935     18936     18937     18936     18938     18936     18986
     18986     18987     18986     18988     18986     18989     18989     18990
     18989     18991     18989     18992     18992     18993     18992     18994
     18992     18995     18995     18996     18995     18997     18995     18998
     18998     18999     18998     19000     18998     19001     19001     19002
     19001     19003     19001     19004     19004     19005     19004     19006
     19004     19007     19007     19008     19007     19009     19007     19010
     19010     19011     19010     19012     19010     19013     19013     19014
     19013     19015     19013     19016     19016     19017     19016     19018
     19016     19019     19019     19020     19019     19021     19019     19022
     19022     19023     19022     19024     19022     19025     19025     19026
     19025     19027     19025     19028     19029     19033     19029     19037
     19029     19041     19033     19034     19033     19035     19033     19036
     19037     19038     19037     19039     19037     19040     19041     19042
     19041     19043     19041     19044     19029     19030     19030     19031
     19030     19032     19030     19045     19045     19046     19045     19047
     19045     19051     19052     19053     19051     19048     19048     19052
     19048     19049     19048     19050     19053     19054     19053     19055
     19053     19056     19056     19057     19056     19064     19056     19058
     19064     19065     19064     19066     19064     19067     19058     19059
     19059     19061     19059     19060     19061     19062     19061     19063
     19061     19073     19073     19074     19073     19075     19073     19076
     19076     19077     19076     19078     19076     19079     19079     19080
     19079     19081     19079     19082     19082     19083     19082     19084
     19082     19085     19085     19086     19085     19087     19085     19088
     19088     19089     19088     19090     19088     19091     19091     19092
     19091     19093     19093     19094     19093     19095     19095     19096
     19095     19097     19095     19098     19098     19099     19098     19100
     19098     19101     19101     19102     19101     19103     19101     19104
     19104     19105     19104     19106     19104     19107     19107     19108
     19107     19109     19107     19110     19110     19111     19110     19112
     19110     19113     19113     19114     19113     19115     19113     19116
     19116     19117     19116     19118     19116     19119     19067     19068
     19068     19070     19068     19069     19070     19071     19070     19072
     19070     19120     19120     19121     19120     19122     19120     19123
     19123     19124     19123     19125     19123     19126     19126     19127
     19126     19128     19126     19129     19129     19130     19129     19131
     19129     19132     19132     19133     19132     19134     19132     19135
     19135     19136     19135     19137     19135     19138     19138     19139
     19138     19140     19138     19141     19141     19142     19141     19143
     19141     19144     19144     19145     19144     19146     19144     19147
     19147     19148     19147     19149     19147     19150     19150     19151
     19150     19152     19150     19153     19153     19154     19153     19155
     19153     19156     19156     19157     19156     19158     19156     19159
     19159     19160     19159     19161     19159     19162     19163     19167
     19163     19171     19163     19175     19167     19168     19167     19169
     19167     19170     19171     19172     19171     19173     19171     19174
     19175     19176     19175     19177     19175     19178     19163     19164
     19164     19165     19164     19166     19164     19179     19179     19180
     19179     19181     19179     19185     19186     19187     19185     19182
     19182     19186     19182     19183     19182     19184     19187     19188
     19187     19189     19187     19190     19190     19191     19190     19198
     19190     19192     19198     19199     19198     19200     19198     19201
     19192     19193     19193     19195     19193     19194     19195     19196
     19195     19197     19195     19207     19207     19208     19207     19209
     19207     19210     19210     19211     19210     19212     19210     19213
     19213     19214     19213     19215     19213     19216     19216     19217
     19216     19218     19216     19219     19219     19220     19219     19221
     19219     19222     19222     19223     19222     19224     19222     19225
     19225     19226     19225     19227     19227     19228     19227     19229
     19229     19230     19229     19231     19229     19232     19232     19233
     19232     19234     19232     19235     19235     19236     19235     19237
     19235     19238     19238     19239     19238     19240     19238     19241
     19241     19242     19241     19243     19241     19244     19244     19245
     19244     19246     19244     19247     19247     19248     19247     19249
     19247     19250     19250     19251     19250     19252     19250     19253
     19201     19202     19202     19204     19202     19203     19204     19205
     19204     19206     19204     19254     19254     19255     19254     19256
     19254     19257     19257     19258     19257     19259     19257     19260
     19260     19261     19260     19262     19260     19263     19263     19264
     19263     19265     19263     19266     19266     19267     19266     19268
     19266     19269     19269     19270     19269     19271     19269     19272
     19272     19273     19272     19274     19272     19275     19275     19276
     19275     19277     19275     19278     19278     19279     19278     19280
     19278     19281     19281     19282     19281     19283     19281     19284
     19284     19285     19284     19286     19284     19287     19287     19288
     19287     19289     19287     19290     19290     19291     19290     19292
     19290     19293     19293     19294     19293     19295     19293     19296
     19297     19301     19297     19305     19297     19309     19301     19302
     19301     19303     19301     19304     19305     19306     19305     19307
     19305     19308     19309     19310     19309     19311     19309     19312
     19297     19298     19298     19299     19298     19300     19298     19313
     19313     19314     19313     19315     19313     19319     19320     19321
     19319     19316     19316     19320     19316     19317     19316     19318
     19321     19322     19321     19323     19321     19324     19324     19325
     19324     19332     19324     19326     19332     19333     19332     19334
     19332     19335     19326     19327     19327     19329     19327     19328
     19329     19330     19329     19331     19329     19341     19341     19342
     19341     19343     19341     19344     19344     19345     19344     19346
     19344     19347     19347     19348     19347     19349     19347     19350
     19350     19351     19350     19352     19350     19353     19353     19354
     19353     19355     19353     19356     19356     19357     19356     19358
     19356     19359     19359     19360     19359     19361     19361     19362
     19361     19363     19363     19364     19363     19365     19363     19366
     19366     19367     19366     19368     19366     19369     19369     19370
     19369     19371     19369     19372     19372     19373     19372     19374
     19372     19375     19375     19376     19375     19377     19375     19378
     19378     19379     19378     19380     19378     19381     19381     19382
     19381     19383     19381     19384     19384     19385     19384     19386
     19384     19387     19335     19336     19336     19338     19336     19337
     19338     19339     19338     19340     19338     19388     19388     19389
     19388     19390     19388     19391     19391     19392     19391     19393
     19391     19394     19394     19395     19394     19396     19394     19397
     19397     19398     19397     19399     19397     19400     19400     19401
     19400     19402     19400     19403     19403     19404     19403     19405
     19403     19406     19406     19407     19406     19408     19406     19409
     19409     19410     19409     19411     19409     19412     19412     19413
     19412     19414     19412     19415     19415     19416     19415     19417
     19415     19418     19418     19419     19418     19420     19418     19421
     19421     19422     19421     19423     19421     19424     19424     19425
     19424     19426     19424     19427     19427     19428     19427     19429
     19427     19430     19431     19435     19431     19439     19431     19443
     19435     19436     19435     19437     19435     19438     19439     19440
     19439     19441     19439     19442     19443     19444     19443     19445
     19443     19446     19431     19432     19432     19433     19432     19434
     19432     19447     19447     19448     19447     19449     19447     19453
     19454     19455     19453     19450     19450     19454     19450     19451
     19450     19452     19455     19456     19455     19457     19455     19458
     19458     19459     19458     19466     19458     19460     19466     19467
     19466     19468     19466     19469     19460     19461     19461     19463
     19461     19462     19463     19464     19463     19465     19463     19475
     19475     19476     19475     19477     19475     19478     19478     19479
     19478     19480     19478     19481     19481     19482     19481     19483
     19481     19484     19484     19485     19484     19486     19484     19487
     19487     19488     19487     19489     19487     19490     19490     19491
     19490     19492     19490     19493     19493     19494     19493     19495
     19495     19496     19495     19497     19497     19498     19497     19499
     19497     19500     19500     19501     19500     19502     19500     19503
     19503     19504     19503     19505     19503     19506     19506     19507
     19506     19508     19506     19509     19509     19510     19509     19511
     19509     19512     19512     19513     19512     19514     19512     19515
     19515     19516     19515     19517     19515     19518     19518     19519
     19518     19520     19518     19521     19469     19470     19470     19472
     19470     19471     19472     19473     19472     19474     19472     19522
     19522     19523     19522     19524     19522     19525     19525     19526
     19525     19527     19525     19528     19528     19529     19528     19530
     19528     19531     19531     19532     19531     19533     19531     19534
     19534     19535     19534     19536     19534     19537     19537     19538
     19537     19539     19537     19540     19540     19541     19540     19542
     19540     19543     19543     19544     19543     19545     19543     19546
     19546     19547     19546     19548     19546     19549     19549     19550
     19549     19551     19549     19552     19552     19553     19552     19554
     19552     19555     19555     19556     19555     19557     19555     19558
     19558     19559     19558     19560     19558     19561     19561     19562
     19561     19563     19561     19564     19565     19569     19565     19573
     19565     19577     19569     19570     19569     19571     19569     19572
     19573     19574     19573     19575     19573     19576     19577     19578
     19577     19579     19577     19580     19565     19566     19566     19567
     19566     19568     19566     19581     19581     19582     19581     19583
     19581     19587     19588     19589     19587     19584     19584     19588
     19584     19585     19584     19586     19589     19590     19589     19591
     19589     19592     19592     19593     19592     19600     19592     19594
     19600     19601     19600     19602     19600     19603     19594     19595
     19595     19597     19595     19596     19597     19598     19597     19599
     19597     19609     19609     19610     19609     19611     19609     19612
     19612     19613     19612     19614     19612     19615     19615     19616
     19615     19617     19615     19618     19618     19619     19618     19620
     19618     19621     19621     19622     19621     19623     19621     19624
     19624     19625     19624     19626     19624     19627     19627     19628
     19627     19629     19629     19630     19629     19631     19631     19632
     19631     19633     19631     19634     19634     19635     19634     19636
     19634     19637     19637     19638     19637     19639     19637     19640
     19640     19641     19640     19642     19640     19643     19643     19644
     19643     19645     19643     19646     19646     19647     19646     19648
     19646     19649     19649     19650     19649     19651     19649     19652
     19652     19653     19652     19654     19652     19655     19603     19604
     19604     19606     19604     19605     19606     19607     19606     19608
     19606     19656     19656     19657     19656     19658     19656     19659
     19659     19660     19659     19661     19659     19662     19662     19663
     19662     19664     19662     19665     19665     19666     19665     19667
     19665     19668     19668     19669     19668     19670     19668     19671
     19671     19672     19671     19673     19671     19674     19674     19675
     19674     19676     19674     19677     19677     19678     19677     19679
     19677     19680     19680     19681     19680     19682     19680     19683
     19683     19684     19683     19685     19683     19686     19686     19687
     19686     19688     19686     19689     19689     19690     19689     19691
     19689     19692     19692     19693     19692     19694     19692     19695
     19695     19696     19695     19697     19695     19698     19699     19703
     19699     19707     19699     19711     19703     19704     19703     19705
     19703     19706     19707     19708     19707     19709     19707     19710
     19711     19712     19711     19713     19711     19714     19699     19700
     19700     19701     19700     19702     19700     19715     19715     19716
     19715     19717     19715     19721     19722     19723     19721     19718
     19718     19722     19718     19719     19718     19720     19723     19724
     19723     19725     19723     19726     19726     19727     19726     19734
     19726     19728     19734     19735     19734     19736     19734     19737
     19728     19729     19729     19731     19729     19730     19731     19732
     19731     19733     19731     19743     19743     19744     19743     19745
     19743     19746     19746     19747     19746     19748     19746     19749
     19749     19750     19749     19751     19749     19752     19752     19753
     19752     19754     19752     19755     19755     19756     19755     19757
     19755     19758     19758     19759     19758     19760     19758     19761
     19761     19762     19761     19763     19763     19764     19763     19765
     19765     19766     19765     19767     19765     19768     19768     19769
     19768     19770     19768     19771     19771     19772     19771     19773
     19771     19774     19774     19775     19774     19776     19774     19777
     19777     19778     19777     19779     19777     19780     19780     19781
     19780     19782     19780     19783     19783     19784     19783     19785
     19783     19786     19786     19787     19786     19788     19786     19789
     19737     19738     19738     19740     19738     19739     19740     19741
     19740     19742     19740     19790     19790     19791     19790     19792
     19790     19793     19793     19794     19793     19795     19793     19796
     19796     19797     19796     19798     19796     19799     19799     19800
     19799     19801     19799     19802     19802     19803     19802     19804
     19802     19805     19805     19806     19805     19807     19805     19808
     19808     19809     19808     19810     19808     19811     19811     19812
     19811     19813     19811     19814     19814     19815     19814     19816
     19814     19817     19817     19818     19817     19819     19817     19820
     19820     19821     19820     19822     19820     19823     19823     19824
     19823     19825     19823     19826     19826     19827     19826     19828
     19826     19829     19829     19830     19829     19831     19829     19832
     19833     19837     19833     19841     19833     19845     19837     19838
     19837     19839     19837     19840     19841     19842     19841     19843
     19841     19844     19845     19846     19845     19847     19845     19848
     19833     19834     19834     19835     19834     19836     19834     19849
     19849     19850     19849     19851     19849     19855     19856     19857
     19855     19852     19852     19856     19852     19853     19852     19854
     19857     19858     19857     19859     19857     19860     19860     19861
     19860     19868     19860     19862     19868     19869     19868     19870
     19868     19871     19862     19863     19863     19865     19863     19864
     19865     19866     19865     19867     19865     19877     19877     19878
     19877     19879     19877     19880     19880     19881     19880     19882
     19880     19883     19883     19884     19883     19885     19883     19886
     19886     19887     19886     19888     19886     19889     19889     19890
     19889     19891     19889     19892     19892     19893     19892     19894
     19892     19895     19895     19896     19895     19897     19897     19898
     19897     19899     19899     19900     19899     19901     19899     19902
     19902     19903     19902     19904     19902     19905     19905     19906
     19905     19907     19905     19908     19908     19909     19908     19910
     19908     19911     19911     19912     19911     19913     19911     19914
     19914     19915     19914     19916     19914     19917     19917     19918
     19917     19919     19917     19920     19920     19921     19920     19922
     19920     19923     19871     19872     19872     19874     19872     19873
     19874     19875     19874     19876     19874     19924     19924     19925
     19924     19926     19924     19927     19927     19928     19927     19929
     19927     19930     19930     19931     19930     19932     19930     19933
     19933     19934     19933     19935     19933     19936     19936     19937
     19936     19938     19936     19939     19939     19940     19939     19941
     19939     19942     19942     19943     19942     19944     19942     19945
     19945     19946     19945     19947     19945     19948     19948     19949
     19948     19950     19948     19951     19951     19952     19951     19953
     19951     19954     19954     19955     19954     19956     19954     19957
     19957     19958     19957     19959     19957     19960     19960     19961
     19960     19962     19960     19963     19963     19964     19963     19965
     19963     19966     19967     19971     19967     19975     19967     19979
     19971     19972     19971     19973     19971     19974     19975     19976
     19975     19977     19975     19978     19979     19980     19979     19981
     19979     19982     19967     19968     19968     19969     19968     19970
     19968     19983     19983     19984     19983     19985     19983     19989
     19990     19991     19989     19986     19986     19990     19986     19987
     19986     19988     19991     19992     19991     19993     19991     19994
     19994     19995     19994     20002     19994     19996     20002     20003
     20002     20004     20002     20005     19996     19997     19997     19999
     19997     19998     19999     20000     19999     20001     19999     20011
     20011     20012     20011     20013     20011     20014     20014     20015
     20014     20016     20014     20017     20017     20018     20017     20019
     20017     20020     20020     20021     20020     20022     20020     20023
     20023     20024     20023     20025     20023     20026     20026     20027
     20026     20028     20026     20029     20029     20030     20029     20031
     20031     20032     20031     20033     20033     20034     20033     20035
     20033     20036     20036     20037     20036     20038     20036     20039
     20039     20040     20039     20041     20039     20042     20042     20043
     20042     20044     20042     20045     20045     20046     20045     20047
     20045     20048     20048     20049     20048     20050     20048     20051
     20051     20052     20051     20053     20051     20054     20054     20055
     20054     20056     20054     20057     20005     20006     20006     20008
     20006     20007     20008     20009     20008     20010     20008     20058
     20058     20059     20058     20060     20058     20061     20061     20062
     20061     20063     20061     20064     20064     20065     20064     20066
     20064     20067     20067     20068     20067     20069     20067     20070
     20070     20071     20070     20072     20070     20073     20073     20074
     20073     20075     20073     20076     20076     20077     20076     20078
     20076     20079     20079     20080     20079     20081     20079     20082
     20082     20083     20082     20084     20082     20085     20085     20086
     20085     20087     20085     20088     20088     20089     20088     20090
     20088     20091     20091     20092     20091     20093     20091     20094
     20094     20095     20094     20096     20094     20097     20097     20098
     20097     20099     20097     20100     20101     20105     20101     20109
     20101     20113     20105     20106     20105     20107     20105     20108
     20109     20110     20109     20111     20109     20112     20113     20114
     20113     20115     20113     20116     20101     20102     20102     20103
     20102     20104     20102     20117     20117     20118     20117     20119
     20117     20123     20124     20125     20123     20120     20120     20124
     20120     20121     20120     20122     20125     20126     20125     20127
     20125     20128     20128     20129     20128     20136     20128     20130
     20136     20137     20136     20138     20136     20139     20130     20131
     20131     20133     20131     20132     20133     20134     20133     20135
     20133     20145     20145     20146     20145     20147     20145     20148
     20148     20149     20148     20150     20148     20151     20151     20152
     20151     20153     20151     20154     20154     20155     20154     20156
     20154     20157     20157     20158     20157     20159     20157     20160
     20160     20161     20160     20162     20160     20163     20163     20164
     20163     20165     20165     20166     20165     20167     20167     20168
     20167     20169     20167     20170     20170     20171     20170     20172
     20170     20173     20173     20174     20173     20175     20173     20176
     20176     20177     20176     20178     20176     20179     20179     20180
     20179     20181     20179     20182     20182     20183     20182     20184
     20182     20185     20185     20186     20185     20187     20185     20188
     20188     20189     20188     20190     20188     20191     20139     20140
     20140     20142     20140     20141     20142     20143     20142     20144
     20142     20192     20192     20193     20192     20194     20192     20195
     20195     20196     20195     20197     20195     20198     20198     20199
     20198     20200     20198     20201     20201     20202     20201     20203
     20201     20204     20204     20205     20204     20206     20204     20207
     20207     20208     20207     20209     20207     20210     20210     20211
     20210     20212     20210     20213     20213     20214     20213     20215
     20213     20216     20216     20217     20216     20218     20216     20219
     20219     20220     20219     20221     20219     20222     20222     20223
     20222     20224     20222     20225     20225     20226     20225     20227
     20225     20228     20228     20229     20228     20230     20228     20231
     20231     20232     20231     20233     20231     20234     20235     20239
     20235     20243     20235     20247     20239     20240     20239     20241
     20239     20242     20243     20244     20243     20245     20243     20246
     20247     20248     20247     20249     20247     20250     20235     20236
     20236     20237     20236     20238     20236     20251     20251     20252
     20251     20253     20251     20257     20258     20259     20257     20254
     20254     20258     20254     20255     20254     20256     20259     20260
     20259     20261     20259     20262     20262     20263     20262     20270
     20262     20264     20270     20271     20270     20272     20270     20273
     20264     20265     20265     20267     20265     20266     20267     20268
     20267     20269     20267     20279     20279     20280     20279     20281
     20279     20282     20282     20283     20282     20284     20282     20285
     20285     20286     20285     20287     20285     20288     20288     20289
     20288     20290     20288     20291     20291     20292     20291     20293
     20291     20294     20294     20295     20294     20296     20294     20297
     20297     20298     20297     20299     20299     20300     20299     20301
     20301     20302     20301     20303     20301     20304     20304     20305
     20304     20306     20304     20307     20307     20308     20307     20309
     20307     20310     20310     20311     20310     20312     20310     20313
     20313     20314     20313     20315     20313     20316     20316     20317
     20316     20318     20316     20319     20319     20320     20319     20321
     20319     20322     20322     20323     20322     20324     20322     20325
     20273     20274     20274     20276     20274     20275     20276     20277
     20276     20278     20276     20326     20326     20327     20326     20328
     20326     20329     20329     20330     20329     20331     20329     20332
     20332     20333     20332     20334     20332     20335     20335     20336
     20335     20337     20335     20338     20338     20339     20338     20340
     20338     20341     20341     20342     20341     20343     20341     20344
     20344     20345     20344     20346     20344     20347     20347     20348
     20347     20349     20347     20350     20350     20351     20350     20352
     20350     20353     20353     20354     20353     20355     20353     20356
     20356     20357     20356     20358     20356     20359     20359     20360
     20359     20361     20359     20362     20362     20363     20362     20364
     20362     20365     20365     20366     20365     20367     20365     20368
     20369     20373     20369     20377     20369     20381     20373     20374
     20373     20375     20373     20376     20377     20378     20377     20379
     20377     20380     20381     20382     20381     20383     20381     20384
     20369     20370     20370     20371     20370     20372     20370     20385
     20385     20386     20385     20387     20385     20391     20392     20393
     20391     20388     20388     20392     20388     20389     20388     20390
     20393     20394     20393     20395     20393     20396     20396     20397
     20396     20404     20396     20398     20404     20405     20404     20406
     20404     20407     20398     20399     20399     20401     20399     20400
     20401     20402     20401     20403     20401     20413     20413     20414
     20413     20415     20413     20416     20416     20417     20416     20418
     20416     20419     20419     20420     20419     20421     20419     20422
     20422     20423     20422     20424     20422     20425     20425     20426
     20425     20427     20425     20428     20428     20429     20428     20430
     20428     20431     20431     20432     20431     20433     20433     20434
     20433     20435     20435     20436     20435     20437     20435     20438
     20438     20439     20438     20440     20438     20441     20441     20442
     20441     20443     20441     20444     20444     20445     20444     20446
     20444     20447     20447     20448     20447     20449     20447     20450
     20450     20451     20450     20452     20450     20453     20453     20454
     20453     20455     20453     20456     20456     20457     20456     20458
     20456     20459     20407     20408     20408     20410     20408     20409
     20410     20411     20410     20412     20410     20460     20460     20461
     20460     20462     20460     20463     20463     20464     20463     20465
     20463     20466     20466     20467     20466     20468     20466     20469
     20469     20470     20469     20471     20469     20472     20472     20473
     20472     20474     20472     20475     20475     20476     20475     20477
     20475     20478     20478     20479     20478     20480     20478     20481
     20481     20482     20481     20483     20481     20484     20484     20485
     20484     20486     20484     20487     20487     20488     20487     20489
     20487     20490     20490     20491     20490     20492     20490     20493
     20493     20494     20493     20495     20493     20496     20496     20497
     20496     20498     20496     20499     20499     20500     20499     20501
     20499     20502     20503     20507     20503     20511     20503     20515
     20507     20508     20507     20509     20507     20510     20511     20512
     20511     20513     20511     20514     20515     20516     20515     20517
     20515     20518     20503     20504     20504     20505     20504     20506
     20504     20519     20519     20520     20519     20521     20519     20525
     20526     20527     20525     20522     20522     20526     20522     20523
     20522     20524     20527     20528     20527     20529     20527     20530
     20530     20531     20530     20538     20530     20532     20538     20539
     20538     20540     20538     20541     20532     20533     20533     20535
     20533     20534     20535     20536     20535     20537     20535     20547
     20547     20548     20547     20549     20547     20550     20550     20551
     20550     20552     20550     20553     20553     20554     20553     20555
     20553     20556     20556     20557     20556     20558     20556     20559
     20559     20560     20559     20561     20559     20562     20562     20563
     20562     20564     20562     20565     20565     20566     20565     20567
     20567     20568     20567     20569     20569     20570     20569     20571
     20569     20572     20572     20573     20572     20574     20572     20575
     20575     20576     20575     20577     20575     20578     20578     20579
     20578     20580     20578     20581     20581     20582     20581     20583
     20581     20584     20584     20585     20584     20586     20584     20587
     20587     20588     20587     20589     20587     20590     20590     20591
     20590     20592     20590     20593     20541     20542     20542     20544
     20542     20543     20544     20545     20544     20546     20544     20594
     20594     20595     20594     20596     20594     20597     20597     20598
     20597     20599     20597     20600     20600     20601     20600     20602
     20600     20603     20603     20604     20603     20605     20603     20606
     20606     20607     20606     20608     20606     20609     20609     20610
     20609     20611     20609     20612     20612     20613     20612     20614
     20612     20615     20615     20616     20615     20617     20615     20618
     20618     20619     20618     20620     20618     20621     20621     20622
     20621     20623     20621     20624     20624     20625     20624     20626
     20624     20627     20627     20628     20627     20629     20627     20630
     20630     20631     20630     20632     20630     20633     20633     20634
     20633     20635     20633     20636     20637     20641     20637     20645
     20637     20649     20641     20642     20641     20643     20641     20644
     20645     20646     20645     20647     20645     20648     20649     20650
     20649     20651     20649     20652     20637     20638     20638     20639
     20638     20640     20638     20653     20653     20654     20653     20655
     20653     20659     20660     20661     20659     20656     20656     20660
     20656     20657     20656     20658     20661     20662     20661     20663
     20661     20664     20664     20665     20664     20672     20664     20666
     20672     20673     20672     20674     20672     20675     20666     20667
     20667     20669     20667     20668     20669     20670     20669     20671
     20669     20681     20681     20682     20681     20683     20681     20684
     20684     20685     20684     20686     20684     20687     20687     20688
     20687     20689     20687     20690     20690     20691     20690     20692
     20690     20693     20693     20694     20693     20695     20693     20696
     20696     20697     20696     20698     20696     20699     20699     20700
     20699     20701     20701     20702     20701     20703     20703     20704
     20703     20705     20703     20706     20706     20707     20706     20708
     20706     20709     20709     20710     20709     20711     20709     20712
     20712     20713     20712     20714     20712     20715     20715     20716
     20715     20717     20715     20718     20718     20719     20718     20720
     20718     20721     20721     20722     20721     20723     20721     20724
     20724     20725     20724     20726     20724     20727     20675     20676
     20676     20678     20676     20677     20678     20679     20678     20680
     20678     20728     20728     20729     20728     20730     20728     20731
     20731     20732     20731     20733     20731     20734     20734     20735
     20734     20736     20734     20737     20737     20738     20737     20739
     20737     20740     20740     20741     20740     20742     20740     20743
     20743     20744     20743     20745     20743     20746     20746     20747
     20746     20748     20746     20749     20749     20750     20749     20751
     20749     20752     20752     20753     20752     20754     20752     20755
     20755     20756     20755     20757     20755     20758     20758     20759
     20758     20760     20758     20761     20761     20762     20761     20763
     20761     20764     20764     20765     20764     20766     20764     20767
     20767     20768     20767     20769     20767     20770     20771     20775
     20771     20779     20771     20783     20775     20776     20775     20777
     20775     20778     20779     20780     20779     20781     20779     20782
     20783     20784     20783     20785     20783     20786     20771     20772
     20772     20773     20772     20774     20772     20787     20787     20788
     20787     20789     20787     20793     20794     20795     20793     20790
     20790     20794     20790     20791     20790     20792     20795     20796
     20795     20797     20795     20798     20798     20799     20798     20806
     20798     20800     20806     20807     20806     20808     20806     20809
     20800     20801     20801     20803     20801     20802     20803     20804
     20803     20805     20803     20815     20815     20816     20815     20817
     20815     20818     20818     20819     20818     20820     20818     20821
     20821     20822     20821     20823     20821     20824     20824     20825
     20824     20826     20824     20827     20827     20828     20827     20829
     20827     20830     20830     20831     20830     20832     20830     20833
     20833     20834     20833     20835     20835     20836     20835     20837
     20837     20838     20837     20839     20837     20840     20840     20841
     20840     20842     20840     20843     20843     20844     20843     20845
     20843     20846     20846     20847     20846     20848     20846     20849
     20849     20850     20849     20851     20849     20852     20852     20853
     20852     20854     20852     20855     20855     20856     20855     20857
     20855     20858     20858     20859     20858     20860     20858     20861
     20809     20810     20810     20812     20810     20811     20812     20813
     20812     20814     20812     20862     20862     20863     20862     20864
     20862     20865     20865     20866     20865     20867     20865     20868
     20868     20869     20868     20870     20868     20871     20871     20872
     20871     20873     20871     20874     20874     20875     20874     20876
     20874     20877     20877     20878     20877     20879     20877     20880
     20880     20881     20880     20882     20880     20883     20883     20884
     20883     20885     20883     20886     20886     20887     20886     20888
     20886     20889     20889     20890     20889     20891     20889     20892
     20892     20893     20892     20894     20892     20895     20895     20896
     20895     20897     20895     20898     20898     20899     20898     20900
     20898     20901     20901     20902     20901     20903     20901     20904
     20905     20909     20905     20913     20905     20917     20909     20910
     20909     20911     20909     20912     20913     20914     20913     20915
     20913     20916     20917     20918     20917     20919     20917     20920
     20905     20906     20906     20907     20906     20908     20906     20921
     20921     20922     20921     20923     20921     20927     20928     20929
     20927     20924     20924     20928     20924     20925     20924     20926
     20929     20930     20929     20931     20929     20932     20932     20933
     20932     20940     20932     20934     20940     20941     20940     20942
     20940     20943     20934     20935     20935     20937     20935     20936
     20937     20938     20937     20939     20937     20949     20949     20950
     20949     20951     20949     20952     20952     20953     20952     20954
     20952     20955     20955     20956     20955     20957     20955     20958
     20958     20959     20958     20960     20958     20961     20961     20962
     20961     20963     20961     20964     20964     20965     20964     20966
     20964     20967     20967     20968     20967     20969     20969     20970
     20969     20971     20971     20972     20971     20973     20971     20974
     20974     20975     20974     20976     20974     20977     20977     20978
     20977     20979     20977     20980     20980     20981     20980     20982
     20980     20983     20983     20984     20983     20985     20983     20986
     20986     20987     20986     20988     20986     20989     20989     20990
     20989     20991     20989     20992     20992     20993     20992     20994
     20992     20995     20943     20944     20944     20946     20944     20945
     20946     20947     20946     20948     20946     20996     20996     20997
     20996     20998     20996     20999     20999     21000     20999     21001
     20999     21002     21002     21003     21002     21004     21002     21005
     21005     21006     21005     21007     21005     21008     21008     21009
     21008     21010     21008     21011     21011     21012     21011     21013
     21011     21014     21014     21015     21014     21016     21014     21017
     21017     21018     21017     21019     21017     21020     21020     21021
     21020     21022     21020     21023     21023     21024     21023     21025
     21023     21026     21026     21027     21026     21028     21026     21029
     21029     21030     21029     21031     21029     21032     21032     21033
     21032     21034     21032     21035     21035     21036     21035     21037
     21035     21038     21039     21043     21039     21047     21039     21051
     21043     21044     21043     21045     21043     21046     21047     21048
     21047     21049     21047     21050     21051     21052     21051     21053
     21051     21054     21039     21040     21040     21041     21040     21042
     21040     21055     21055     21056     21055     21057     21055     21061
     21062     21063     21061     21058     21058     21062     21058     21059
     21058     21060     21063     21064     21063     21065     21063     21066
     21066     21067     21066     21074     21066     21068     21074     21075
     21074     21076     21074     21077     21068     21069     21069     21071
     21069     21070     21071     21072     21071     21073     21071     21083
     21083     21084     21083     21085     21083     21086     21086     21087
     21086     21088     21086     21089     21089     21090     21089     21091
     21089     21092     21092     21093     21092     21094     21092     21095
     21095     21096     21095     21097     21095     21098     21098     21099
     21098     21100     21098     21101     21101     21102     21101     21103
     21103     21104     21103     21105     21105     21106     21105     21107
     21105     21108     21108     21109     21108     21110     21108     21111
     21111     21112     21111     21113     21111     21114     21114     21115
     21114     21116     21114     21117     21117     21118     21117     21119
     21117     21120     21120     21121     21120     21122     21120     21123
     21123     21124     21123     21125     21123     21126     21126     21127
     21126     21128     21126     21129     21077     21078     21078     21080
     21078     21079     21080     21081     21080     21082     21080     21130
     21130     21131     21130     21132     21130     21133     21133     21134
     21133     21135     21133     21136     21136     21137     21136     21138
     21136     21139     21139     21140     21139     21141     21139     21142
     21142     21143     21142     21144     21142     21145     21145     21146
     21145     21147     21145     21148     21148     21149     21148     21150
     21148     21151     21151     21152     21151     21153     21151     21154
     21154     21155     21154     21156     21154     21157     21157     21158
     21157     21159     21157     21160     21160     21161     21160     21162
     21160     21163     21163     21164     21163     21165     21163     21166
     21166     21167     21166     21168     21166     21169     21169     21170
     21169     21171     21169     21172     21173     21177     21173     21181
     21173     21185     21177     21178     21177     21179     21177     21180
     21181     21182     21181     21183     21181     21184     21185     21186
     21185     21187     21185     21188     21173     21174     21174     21175
     21174     21176     21174     21189     21189     21190     21189     21191
     21189     21195     21196     21197     21195     21192     21192     21196
     21192     21193     21192     21194     21197     21198     21197     21199
     21197     21200     21200     21201     21200     21208     21200     21202
     21208     21209     21208     21210     21208     21211     21202     21203
     21203     21205     21203     21204     21205     21206     21205     21207
     21205     21217     21217     21218     21217     21219     21217     21220
     21220     21221     21220     21222     21220     21223     21223     21224
     21223     21225     21223     21226     21226     21227     21226     21228
     21226     21229     21229     21230     21229     21231     21229     21232
     21232     21233     21232     21234     21232     21235     21235     21236
     21235     21237     21237     21238     21237     21239     21239     21240
     21239     21241     21239     21242     21242     21243     21242     21244
     21242     21245     21245     21246     21245     21247     21245     21248
     21248     21249     21248     21250     21248     21251     21251     21252
     21251     21253     21251     21254     21254     21255     21254     21256
     21254     21257     21257     21258     21257     21259     21257     21260
     21260     21261     21260     21262     21260     21263     21211     21212
     21212     21214     21212     21213     21214     21215     21214     21216
     21214     21264     21264     21265     21264     21266     21264     21267
     21267     21268     21267     21269     21267     21270     21270     21271
     21270     21272     21270     21273     21273     21274     21273     21275
     21273     21276     21276     21277     21276     21278     21276     21279
     21279     21280     21279     21281     21279     21282     21282     21283
     21282     21284     21282     21285     21285     21286     21285     21287
     21285     21288     21288     21289     21288     21290     21288     21291
     21291     21292     21291     21293     21291     21294     21294     21295
     21294     21296     21294     21297     21297     21298     21297     21299
     21297     21300     21300     21301     21300     21302     21300     21303
     21303     21304     21303     21305     21303     21306     21307     21311
     21307     21315     21307     21319     21311     21312     21311     21313
     21311     21314     21315     21316     21315     21317     21315     21318
     21319     21320     21319     21321     21319     21322     21307     21308
     21308     21309     21308     21310     21308     21323     21323     21324
     21323     21325     21323     21329     21330     21331     21329     21326
     21326     21330     21326     21327     21326     21328     21331     21332
     21331     21333     21331     21334     21334     21335     21334     21342
     21334     21336     21342     21343     21342     21344     21342     21345
     21336     21337     21337     21339     21337     21338     21339     21340
     21339     21341     21339     21351     21351     21352     21351     21353
     21351     21354     21354     21355     21354     21356     21354     21357
     21357     21358     21357     21359     21357     21360     21360     21361
     21360     21362     21360     21363     21363     21364     21363     21365
     21363     21366     21366     21367     21366     21368     21366     21369
     21369     21370     21369     21371     21371     21372     21371     21373
     21373     21374     21373     21375     21373     21376     21376     21377
     21376     21378     21376     21379     21379     21380     21379     21381
     21379     21382     21382     21383     21382     21384     21382     21385
     21385     21386     21385     21387     21385     21388     21388     21389
     21388     21390     21388     21391     21391     21392     21391     21393
     21391     21394     21394     21395     21394     21396     21394     21397
     21345     21346     21346     21348     21346     21347     21348     21349
     21348     21350     21348     21398     21398     21399     21398     21400
     21398     21401     21401     21402     21401     21403     21401     21404
     21404     21405     21404     21406     21404     21407     21407     21408
     21407     21409     21407     21410     21410     21411     21410     21412
     21410     21413     21413     21414     21413     21415     21413     21416
     21416     21417     21416     21418     21416     21419     21419     21420
     21419     21421     21419     21422     21422     21423     21422     21424
     21422     21425     21425     21426     21425     21427     21425     21428
     21428     21429     21428     21430     21428     21431     21431     21432
     21431     21433     21431     21434     21434     21435     21434     21436
     21434     21437     21437     21438     21437     21439     21437     21440
     21441     21445     21441     21449     21441     21453     21445     21446
     21445     21447     21445     21448     21449     21450     21449     21451
     21449     21452     21453     21454     21453     21455     21453     21456
     21441     21442     21442     21443     21442     21444     21442     21457
     21457     21458     21457     21459     21457     21463     21464     21465
     21463     21460     21460     21464     21460     21461     21460     21462
     21465     21466     21465     21467     21465     21468     21468     21469
     21468     21476     21468     21470     21476     21477     21476     21478
     21476     21479     21470     21471     21471     21473     21471     21472
     21473     21474     21473     21475     21473     21485     21485     21486
     21485     21487     21485     21488     21488     21489     21488     21490
     21488     21491     21491     21492     21491     21493     21491     21494
     21494     21495     21494     21496     21494     21497     21497     21498
     21497     21499     21497     21500     21500     21501     21500     21502
     21500     21503     21503     21504     21503     21505     21505     21506
     21505     21507     21507     21508     21507     21509     21507     21510
     21510     21511     21510     21512     21510     21513     21513     21514
     21513     21515     21513     21516     21516     21517     21516     21518
     21516     21519     21519     21520     21519     21521     21519     21522
     21522     21523     21522     21524     21522     21525     21525     21526
     21525     21527     21525     21528     21528     21529     21528     21530
     21528     21531     21479     21480     21480     21482     21480     21481
     21482     21483     21482     21484     21482     21532     21532     21533
     21532     21534     21532     21535     21535     21536     21535     21537
     21535     21538     21538     21539     21538     21540     21538     21541
     21541     21542     21541     21543     21541     21544     21544     21545
     21544     21546     21544     21547     21547     21548     21547     21549
     21547     21550     21550     21551     21550     21552     21550     21553
     21553     21554     21553     21555     21553     21556     21556     21557
     21556     21558     21556     21559     21559     21560     21559     21561
     21559     21562     21562     21563     21562     21564     21562     21565
     21565     21566     21565     21567     21565     21568     21568     21569
     21568     21570     21568     21571     21571     21572     21571     21573
     21571     21574     21575     21579     21575     21583     21575     21587
     21579     21580     21579     21581     21579     21582     21583     21584
     21583     21585     21583     21586     21587     21588     21587     21589
     21587     21590     21575     21576     21576     21577     21576     21578
     21576     21591     21591     21592     21591     21593     21591     21597
     21598     21599     21597     21594     21594     21598     21594     21595
     21594     21596     21599     21600     21599     21601     21599     21602
     21602     21603     21602     21610     21602     21604     21610     21611
     21610     21612     21610     21613     21604     21605     21605     21607
     21605     21606     21607     21608     21607     21609     21607     21619
     21619     21620     21619     21621     21619     21622     21622     21623
     21622     21624     21622     21625     21625     21626     21625     21627
     21625     21628     21628     21629     21628     21630     21628     21631
     21631     21632     21631     21633     21631     21634     21634     21635
     21634     21636     21634     21637     21637     21638     21637     21639
     21639     21640     21639     21641     21641     21642     21641     21643
     21641     21644     21644     21645     21644     21646     21644     21647
     21647     21648     21647     21649     21647     21650     21650     21651
     21650     21652     21650     21653     21653     21654     21653     21655
     21653     21656     21656     21657     21656     21658     21656     21659
     21659     21660     21659     21661     21659     21662     21662     21663
     21662     21664     21662     21665     21613     21614     21614     21616
     21614     21615     21616     21617     21616     21618     21616     21666
     21666     21667     21666     21668     21666     21669     21669     21670
     21669     21671     21669     21672     21672     21673     21672     21674
     21672     21675     21675     21676     21675     21677     21675     21678
     21678     21679     21678     21680     21678     21681     21681     21682
     21681     21683     21681     21684     21684     21685     21684     21686
     21684     21687     21687     21688     21687     21689     21687     21690
     21690     21691     21690     21692     21690     21693     21693     21694
     21693     21695     21693     21696     21696     21697     21696     21698
     21696     21699     21699     21700     21699     21701     21699     21702
     21702     21703     21702     21704     21702     21705     21705     21706
     21705     21707     21705     21708     21709     21713     21709     21717
     21709     21721     21713     21714     21713     21715     21713     21716
     21717     21718     21717     21719     21717     21720     21721     21722
     21721     21723     21721     21724     21709     21710     21710     21711
     21710     21712     21710     21725     21725     21726     21725     21727
     21725     21731     21732     21733     21731     21728     21728     21732
     21728     21729     21728     21730     21733     21734     21733     21735
     21733     21736     21736     21737     21736     21744     21736     21738
     21744     21745     21744     21746     21744     21747     21738     21739
     21739     21741     21739     21740     21741     21742     21741     21743
     21741     21753     21753     21754     21753     21755     21753     21756
     21756     21757     21756     21758     21756     21759     21759     21760
     21759     21761     21759     21762     21762     21763     21762     21764
     21762     21765     21765     21766     21765     21767     21765     21768
     21768     21769     21768     21770     21768     21771     21771     21772
     21771     21773     21773     21774     21773     21775     21775     21776
     21775     21777     21775     21778     21778     21779     21778     21780
     21778     21781     21781     21782     21781     21783     21781     21784
     21784     21785     21784     21786     21784     21787     21787     21788
     21787     21789     21787     21790     21790     21791     21790     21792
     21790     21793     21793     21794     21793     21795     21793     21796
     21796     21797     21796     21798     21796     21799     21747     21748
     21748     21750     21748     21749     21750     21751     21750     21752
     21750     21800     21800     21801     21800     21802     21800     21803
     21803     21804     21803     21805     21803     21806     21806     21807
     21806     21808     21806     21809     21809     21810     21809     21811
     21809     21812     21812     21813     21812     21814     21812     21815
     21815     21816     21815     21817     21815     21818     21818     21819
     21818     21820     21818     21821     21821     21822     21821     21823
     21821     21824     21824     21825     21824     21826     21824     21827
     21827     21828     21827     21829     21827     21830     21830     21831
     21830     21832     21830     21833     21833     21834     21833     21835
     21833     21836     21836     21837     21836     21838     21836     21839
     21839     21840     21839     21841     21839     21842     21843     21847
     21843     21851     21843     21855     21847     21848     21847     21849
     21847     21850     21851     21852     21851     21853     21851     21854
     21855     21856     21855     21857     21855     21858     21843     21844
     21844     21845     21844     21846     21844     21859     21859     21860
     21859     21861     21859     21865     21866     21867     21865     21862
     21862     21866     21862     21863     21862     21864     21867     21868
     21867     21869     21867     21870     21870     21871     21870     21878
     21870     21872     21878     21879     21878     21880     21878     21881
     21872     21873     21873     21875     21873     21874     21875     21876
     21875     21877     21875     21887     21887     21888     21887     21889
     21887     21890     21890     21891     21890     21892     21890     21893
     21893     21894     21893     21895     21893     21896     21896     21897
     21896     21898     21896     21899     21899     21900     21899     21901
     21899     21902     21902     21903     21902     21904     21902     21905
     21905     21906     21905     21907     21907     21908     21907     21909
     21909     21910     21909     21911     21909     21912     21912     21913
     21912     21914     21912     21915     21915     21916     21915     21917
     21915     21918     21918     21919     21918     21920     21918     21921
     21921     21922     21921     21923     21921     21924     21924     21925
     21924     21926     21924     21927     21927     21928     21927     21929
     21927     21930     21930     21931     21930     21932     21930     21933
     21881     21882     21882     21884     21882     21883     21884     21885
     21884     21886     21884     21934     21934     21935     21934     21936
     21934     21937     21937     21938     21937     21939     21937     21940
     21940     21941     21940     21942     21940     21943     21943     21944
     21943     21945     21943     21946     21946     21947     21946     21948
     21946     21949     21949     21950     21949     21951     21949     21952
     21952     21953     21952     21954     21952     21955     21955     21956
     21955     21957     21955     21958     21958     21959     21958     21960
     21958     21961     21961     21962     21961     21963     21961     21964
     21964     21965     21964     21966     21964     21967     21967     21968
     21967     21969     21967     21970     21970     21971     21970     21972
     21970     21973     21973     21974     21973     21975     21973     21976
     21977     21981     21977     21985     21977     21989     21981     21982
     21981     21983     21981     21984     21985     21986     21985     21987
     21985     21988     21989     21990     21989     21991     21989     21992
     21977     21978     21978     21979     21978     21980     21978     21993
     21993     21994     21993     21995     21993     21999     22000     22001
     21999     21996     21996     22000     21996     21997     21996     21998
     22001     22002     22001     22003     22001     22004     22004     22005
     22004     22012     22004     22006     22012     22013     22012     22014
     22012     22015     22006     22007     22007     22009     22007     22008
     22009     22010     22009     22011     22009     22021     22021     22022
     22021     22023     22021     22024     22024     22025     22024     22026
     22024     22027     22027     22028     22027     22029     22027     22030
     22030     22031     22030     22032     22030     22033     22033     22034
     22033     22035     22033     22036     22036     22037     22036     22038
     22036     22039     22039     22040     22039     22041     22041     22042
     22041     22043     22043     22044     22043     22045     22043     22046
     22046     22047     22046     22048     22046     22049     22049     22050
     22049     22051     22049     22052     22052     22053     22052     22054
     22052     22055     22055     22056     22055     22057     22055     22058
     22058     22059     22058     22060     22058     22061     22061     22062
     22061     22063     22061     22064     22064     22065     22064     22066
     22064     22067     22015     22016     22016     22018     22016     22017
     22018     22019     22018     22020     22018     22068     22068     22069
     22068     22070     22068     22071     22071     22072     22071     22073
     22071     22074     22074     22075     22074     22076     22074     22077
     22077     22078     22077     22079     22077     22080     22080     22081
     22080     22082     22080     22083     22083     22084     22083     22085
     22083     22086     22086     22087     22086     22088     22086     22089
     22089     22090     22089     22091     22089     22092     22092     22093
     22092     22094     22092     22095     22095     22096     22095     22097
     22095     22098     22098     22099     22098     22100     22098     22101
     22101     22102     22101     22103     22101     22104     22104     22105
     22104     22106     22104     22107     22107     22108     22107     22109
     22107     22110     22111     22115     22111     22119     22111     22123
     22115     22116     22115     22117     22115     22118     22119     22120
     22119     22121     22119     22122     22123     22124     22123     22125
     22123     22126     22111     22112     22112     22113     22112     22114
     22112     22127     22127     22128     22127     22129     22127     22133
     22134     22135     22133     22130     22130     22134     22130     22131
     22130     22132     22135     22136     22135     22137     22135     22138
     22138     22139     22138     22146     22138     22140     22146     22147
     22146     22148     22146     22149     22140     22141     22141     22143
     22141     22142     22143     22144     22143     22145     22143     22155
     22155     22156     22155     22157     22155     22158     22158     22159
     22158     22160     22158     22161     22161     22162     22161     22163
     22161     22164     22164     22165     22164     22166     22164     22167
     22167     22168     22167     22169     22167     22170     22170     22171
     22170     22172     22170     22173     22173     22174     22173     22175
     22175     22176     22175     22177     22177     22178     22177     22179
     22177     22180     22180     22181     22180     22182     22180     22183
     22183     22184     22183     22185     22183     22186     22186     22187
     22186     22188     22186     22189     22189     22190     22189     22191
     22189     22192     22192     22193     22192     22194     22192     22195
     22195     22196     22195     22197     22195     22198     22198     22199
     22198     22200     22198     22201     22149     22150     22150     22152
     22150     22151     22152     22153     22152     22154     22152     22202
     22202     22203     22202     22204     22202     22205     22205     22206
     22205     22207     22205     22208     22208     22209     22208     22210
     22208     22211     22211     22212     22211     22213     22211     22214
     22214     22215     22214     22216     22214     22217     22217     22218
     22217     22219     22217     22220     22220     22221     22220     22222
     22220     22223     22223     22224     22223     22225     22223     22226
     22226     22227     22226     22228     22226     22229     22229     22230
     22229     22231     22229     22232     22232     22233     22232     22234
     22232     22235     22235     22236     22235     22237     22235     22238
     22238     22239     22238     22240     22238     22241     22241     22242
     22241     22243     22241     22244     22245     22249     22245     22253
     22245     22257     22249     22250     22249     22251     22249     22252
     22253     22254     22253     22255     22253     22256     22257     22258
     22257     22259     22257     22260     22245     22246     22246     22247
     22246     22248     22246     22261     22261     22262     22261     22263
     22261     22267     22268     22269     22267     22264     22264     22268
     22264     22265     22264     22266     22269     22270     22269     22271
     22269     22272     22272     22273     22272     22280     22272     22274
     22280     22281     22280     22282     22280     22283     22274     22275
     22275     22277     22275     22276     22277     22278     22277     22279
     22277     22289     22289     22290     22289     22291     22289     22292
     22292     22293     22292     22294     22292     22295     22295     22296
     22295     22297     22295     22298     22298     22299     22298     22300
     22298     22301     22301     22302     22301     22303     22301     22304
     22304     22305     22304     22306     22304     22307     22307     22308
     22307     22309     22309     22310     22309     22311     22311     22312
     22311     22313     22311     22314     22314     22315     22314     22316
     22314     22317     22317     22318     22317     22319     22317     22320
     22320     22321     22320     22322     22320     22323     22323     22324
     22323     22325     22323     22326     22326     22327     22326     22328
     22326     22329     22329     22330     22329     22331     22329     22332
     22332     22333     22332     22334     22332     22335     22283     22284
     22284     22286     22284     22285     22286     22287     22286     22288
     22286     22336     22336     22337     22336     22338     22336     22339
     22339     22340     22339     22341     22339     22342     22342     22343
     22342     22344     22342     22345     22345     22346     22345     22347
     22345     22348     22348     22349     22348     22350     22348     22351
     22351     22352     22351     22353     22351     22354     22354     22355
     22354     22356     22354     22357     22357     22358     22357     22359
     22357     22360     22360     22361     22360     22362     22360     22363
     22363     22364     22363     22365     22363     22366     22366     22367
     22366     22368     22366     22369     22369     22370     22369     22371
     22369     22372     22372     22373     22372     22374     22372     22375
     22375     22376     22375     22377     22375     22378     22379     22383
     22379     22387     22379     22391     22383     22384     22383     22385
     22383     22386     22387     22388     22387     22389     22387     22390
     22391     22392     22391     22393     22391     22394     22379     22380
     22380     22381     22380     22382     22380     22395     22395     22396
     22395     22397     22395     22401     22402     22403     22401     22398
     22398     22402     22398     22399     22398     22400     22403     22404
     22403     22405     22403     22406     22406     22407     22406     22414
     22406     22408     22414     22415     22414     22416     22414     22417
     22408     22409     22409     22411     22409     22410     22411     22412
     22411     22413     22411     22423     22423     22424     22423     22425
     22423     22426     22426     22427     22426     22428     22426     22429
     22429     22430     22429     22431     22429     22432     22432     22433
     22432     22434     22432     22435     22435     22436     22435     22437
     22435     22438     22438     22439     22438     22440     22438     22441
     22441     22442     22441     22443     22443     22444     22443     22445
     22445     22446     22445     22447     22445     22448     22448     22449
     22448     22450     22448     22451     22451     22452     22451     22453
     22451     22454     22454     22455     22454     22456     22454     22457
     22457     22458     22457     22459     22457     22460     22460     22461
     22460     22462     22460     22463     22463     22464     22463     22465
     22463     22466     22466     22467     22466     22468     22466     22469
     22417     22418     22418     22420     22418     22419     22420     22421
     22420     22422     22420     22470     22470     22471     22470     22472
     22470     22473     22473     22474     22473     22475     22473     22476
     22476     22477     22476     22478     22476     22479     22479     22480
     22479     22481     22479     22482     22482     22483     22482     22484
     22482     22485     22485     22486     22485     22487     22485     22488
     22488     22489     22488     22490     22488     22491     22491     22492
     22491     22493     22491     22494     22494     22495     22494     22496
     22494     22497     22497     22498     22497     22499     22497     22500
     22500     22501     22500     22502     22500     22503     22503     22504
     22503     22505     22503     22506     22506     22507     22506     22508
     22506     22509     22509     22510     22509     22511     22509     22512
     22513     22517     22513     22521     22513     22525     22517     22518
     22517     22519     22517     22520     22521     22522     22521     22523
     22521     22524     22525     22526     22525     22527     22525     22528
     22513     22514     22514     22515     22514     22516     22514     22529
     22529     22530     22529     22531     22529     22535     22536     22537
     22535     22532     22532     22536     22532     22533     22532     22534
     22537     22538     22537     22539     22537     22540     22540     22541
     22540     22548     22540     22542     22548     22549     22548     22550
     22548     22551     22542     22543     22543     22545     22543     22544
     22545     22546     22545     22547     22545     22557     22557     22558
     22557     22559     22557     22560     22560     22561     22560     22562
     22560     22563     22563     22564     22563     22565     22563     22566
     22566     22567     22566     22568     22566     22569     22569     22570
     22569     22571     22569     22572     22572     22573     22572     22574
     22572     22575     22575     22576     22575     22577     22577     22578
     22577     22579     22579     22580     22579     22581     22579     22582
     22582     22583     22582     22584     22582     22585     22585     22586
     22585     22587     22585     22588     22588     22589     22588     22590
     22588     22591     22591     22592     22591     22593     22591     22594
     22594     22595     22594     22596     22594     22597     22597     22598
     22597     22599     22597     22600     22600     22601     22600     22602
     22600     22603     22551     22552     22552     22554     22552     22553
     22554     22555     22554     22556     22554     22604     22604     22605
     22604     22606     22604     22607     22607     22608     22607     22609
     22607     22610     22610     22611     22610     22612     22610     22613
     22613     22614     22613     22615     22613     22616     22616     22617
     22616     22618     22616     22619     22619     22620     22619     22621
     22619     22622     22622     22623     22622     22624     22622     22625
     22625     22626     22625     22627     22625     22628     22628     22629
     22628     22630     22628     22631     22631     22632     22631     22633
     22631     22634     22634     22635     22634     22636     22634     22637
     22637     22638     22637     22639     22637     22640     22640     22641
     22640     22642     22640     22643     22643     22644     22643     22645
     22643     22646     22647     22651     22647     22655     22647     22659
     22651     22652     22651     22653     22651     22654     22655     22656
     22655     22657     22655     22658     22659     22660     22659     22661
     22659     22662     22647     22648     22648     22649     22648     22650
     22648     22663     22663     22664     22663     22665     22663     22669
     22670     22671     22669     22666     22666     22670     22666     22667
     22666     22668     22671     22672     22671     22673     22671     22674
     22674     22675     22674     22682     22674     22676     22682     22683
     22682     22684     22682     22685     22676     22677     22677     22679
     22677     22678     22679     22680     22679     22681     22679     22691
     22691     22692     22691     22693     22691     22694     22694     22695
     22694     22696     22694     22697     22697     22698     22697     22699
     22697     22700     22700     22701     22700     22702     22700     22703
     22703     22704     22703     22705     22703     22706     22706     22707
     22706     22708     22706     22709     22709     22710     22709     22711
     22711     22712     22711     22713     22713     22714     22713     22715
     22713     22716     22716     22717     22716     22718     22716     22719
     22719     22720     22719     22721     22719     22722     22722     22723
     22722     22724     22722     22725     22725     22726     22725     22727
     22725     22728     22728     22729     22728     22730     22728     22731
     22731     22732     22731     22733     22731     22734     22734     22735
     22734     22736     22734     22737     22685     22686     22686     22688
     22686     22687     22688     22689     22688     22690     22688     22738
     22738     22739     22738     22740     22738     22741     22741     22742
     22741     22743     22741     22744     22744     22745     22744     22746
     22744     22747     22747     22748     22747     22749     22747     22750
     22750     22751     22750     22752     22750     22753     22753     22754
     22753     22755     22753     22756     22756     22757     22756     22758
     22756     22759     22759     22760     22759     22761     22759     22762
     22762     22763     22762     22764     22762     22765     22765     22766
     22765     22767     22765     22768     22768     22769     22768     22770
     22768     22771     22771     22772     22771     22773     22771     22774
     22774     22775     22774     22776     22774     22777     22777     22778
     22777     22779     22777     22780     22781     22785     22781     22789
     22781     22793     22785     22786     22785     22787     22785     22788
     22789     22790     22789     22791     22789     22792     22793     22794
     22793     22795     22793     22796     22781     22782     22782     22783
     22782     22784     22782     22797     22797     22798     22797     22799
     22797     22803     22804     22805     22803     22800     22800     22804
     22800     22801     22800     22802     22805     22806     22805     22807
     22805     22808     22808     22809     22808     22816     22808     22810
     22816     22817     22816     22818     22816     22819     22810     22811
     22811     22813     22811     22812     22813     22814     22813     22815
     22813     22825     22825     22826     22825     22827     22825     22828
     22828     22829     22828     22830     22828     22831     22831     22832
     22831     22833     22831     22834     22834     22835     22834     22836
     22834     22837     22837     22838     22837     22839     22837     22840
     22840     22841     22840     22842     22840     22843     22843     22844
     22843     22845     22845     22846     22845     22847     22847     22848
     22847     22849     22847     22850     22850     22851     22850     22852
     22850     22853     22853     22854     22853     22855     22853     22856
     22856     22857     22856     22858     22856     22859     22859     22860
     22859     22861     22859     22862     22862     22863     22862     22864
     22862     22865     22865     22866     22865     22867     22865     22868
     22868     22869     22868     22870     22868     22871     22819     22820
     22820     22822     22820     22821     22822     22823     22822     22824
     22822     22872     22872     22873     22872     22874     22872     22875
     22875     22876     22875     22877     22875     22878     22878     22879
     22878     22880     22878     22881     22881     22882     22881     22883
     22881     22884     22884     22885     22884     22886     22884     22887
     22887     22888     22887     22889     22887     22890     22890     22891
     22890     22892     22890     22893     22893     22894     22893     22895
     22893     22896     22896     22897     22896     22898     22896     22899
     22899     22900     22899     22901     22899     22902     22902     22903
     22902     22904     22902     22905     22905     22906     22905     22907
     22905     22908     22908     22909     22908     22910     22908     22911
     22911     22912     22911     22913     22911     22914     22915     22919
     22915     22923     22915     22927     22919     22920     22919     22921
     22919     22922     22923     22924     22923     22925     22923     22926
     22927     22928     22927     22929     22927     22930     22915     22916
     22916     22917     22916     22918     22916     22931     22931     22932
     22931     22933     22931     22937     22938     22939     22937     22934
     22934     22938     22934     22935     22934     22936     22939     22940
     22939     22941     22939     22942     22942     22943     22942     22950
     22942     22944     22950     22951     22950     22952     22950     22953
     22944     22945     22945     22947     22945     22946     22947     22948
     22947     22949     22947     22959     22959     22960     22959     22961
     22959     22962     22962     22963     22962     22964     22962     22965
     22965     22966     22965     22967     22965     22968     22968     22969
     22968     22970     22968     22971     22971     22972     22971     22973
     22971     22974     22974     22975     22974     22976     22974     22977
     22977     22978     22977     22979     22979     22980     22979     22981
     22981     22982     22981     22983     22981     22984     22984     22985
     22984     22986     22984     22987     22987     22988     22987     22989
     22987     22990     22990     22991     22990     22992     22990     22993
     22993     22994     22993     22995     22993     22996     22996     22997
     22996     22998     22996     22999     22999     23000     22999     23001
     22999     23002     23002     23003     23002     23004     23002     23005
     22953     22954     22954     22956     22954     22955     22956     22957
     22956     22958     22956     23006     23006     23007     23006     23008
     23006     23009     23009     23010     23009     23011     23009     23012
     23012     23013     23012     23014     23012     23015     23015     23016
     23015     23017     23015     23018     23018     23019     23018     23020
     23018     23021     23021     23022     23021     23023     23021     23024
     23024     23025     23024     23026     23024     23027     23027     23028
     23027     23029     23027     23030     23030     23031     23030     23032
     23030     23033     23033     23034     23033     23035     23033     23036
     23036     23037     23036     23038     23036     23039     23039     23040
     23039     23041     23039     23042     23042     23043     23042     23044
     23042     23045     23045     23046     23045     23047     23045     23048
     23049     23053     23049     23057     23049     23061     23053     23054
     23053     23055     23053     23056     23057     23058     23057     23059
     23057     23060     23061     23062     23061     23063     23061     23064
     23049     23050     23050     23051     23050     23052     23050     23065
     23065     23066     23065     23067     23065     23071     23072     23073
     23071     23068     23068     23072     23068     23069     23068     23070
     23073     23074     23073     23075     23073     23076     23076     23077
     23076     23084     23076     23078     23084     23085     23084     23086
     23084     23087     23078     23079     23079     23081     23079     23080
     23081     23082     23081     23083     23081     23093     23093     23094
     23093     23095     23093     23096     23096     23097     23096     23098
     23096     23099     23099     23100     23099     23101     23099     23102
     23102     23103     23102     23104     23102     23105     23105     23106
     23105     23107     23105     23108     23108     23109     23108     23110
     23108     23111     23111     23112     23111     23113     23113     23114
     23113     23115     23115     23116     23115     23117     23115     23118
     23118     23119     23118     23120     23118     23121     23121     23122
     23121     23123     23121     23124     23124     23125     23124     23126
     23124     23127     23127     23128     23127     23129     23127     23130
     23130     23131     23130     23132     23130     23133     23133     23134
     23133     23135     23133     23136     23136     23137     23136     23138
     23136     23139     23087     23088     23088     23090     23088     23089
     23090     23091     23090     23092     23090     23140     23140     23141
     23140     23142     23140     23143     23143     23144     23143     23145
     23143     23146     23146     23147     23146     23148     23146     23149
     23149     23150     23149     23151     23149     23152     23152     23153
     23152     23154     23152     23155     23155     23156     23155     23157
     23155     23158     23158     23159     23158     23160     23158     23161
     23161     23162     23161     23163     23161     23164     23164     23165
     23164     23166     23164     23167     23167     23168     23167     23169
     23167     23170     23170     23171     23170     23172     23170     23173
     23173     23174     23173     23175     23173     23176     23176     23177
     23176     23178     23176     23179     23179     23180     23179     23181
     23179     23182     23183     23187     23183     23191     23183     23195
     23187     23188     23187     23189     23187     23190     23191     23192
     23191     23193     23191     23194     23195     23196     23195     23197
     23195     23198     23183     23184     23184     23185     23184     23186
     23184     23199     23199     23200     23199     23201     23199     23205
     23206     23207     23205     23202     23202     23206     23202     23203
     23202     23204     23207     23208     23207     23209     23207     23210
     23210     23211     23210     23218     23210     23212     23218     23219
     23218     23220     23218     23221     23212     23213     23213     23215
     23213     23214     23215     23216     23215     23217     23215     23227
     23227     23228     23227     23229     23227     23230     23230     23231
     23230     23232     23230     23233     23233     23234     23233     23235
     23233     23236     23236     23237     23236     23238     23236     23239
     23239     23240     23239     23241     23239     23242     23242     23243
     23242     23244     23242     23245     23245     23246     23245     23247
     23247     23248     23247     23249     23249     23250     23249     23251
     23249     23252     23252     23253     23252     23254     23252     23255
     23255     23256     23255     23257     23255     23258     23258     23259
     23258     23260     23258     23261     23261     23262     23261     23263
     23261     23264     23264     23265     23264     23266     23264     23267
     23267     23268     23267     23269     23267     23270     23270     23271
     23270     23272     23270     23273     23221     23222     23222     23224
     23222     23223     23224     23225     23224     23226     23224     23274
     23274     23275     23274     23276     23274     23277     23277     23278
     23277     23279     23277     23280     23280     23281     23280     23282
     23280     23283     23283     23284     23283     23285     23283     23286
     23286     23287     23286     23288     23286     23289     23289     23290
     23289     23291     23289     23292     23292     23293     23292     23294
     23292     23295     23295     23296     23295     23297     23295     23298
     23298     23299     23298     23300     23298     23301     23301     23302
     23301     23303     23301     23304     23304     23305     23304     23306
     23304     23307     23307     23308     23307     23309     23307     23310
     23310     23311     23310     23312     23310     23313     23313     23314
     23313     23315     23313     23316     23317     23321     23317     23325
     23317     23329     23321     23322     23321     23323     23321     23324
     23325     23326     23325     23327     23325     23328     23329     23330
     23329     23331     23329     23332     23317     23318     23318     23319
     23318     23320     23318     23333     23333     23334     23333     23335
     23333     23339     23340     23341     23339     23336     23336     23340
     23336     23337     23336     23338     23341     23342     23341     23343
     23341     23344     23344     23345     23344     23352     23344     23346
     23352     23353     23352     23354     23352     23355     23346     23347
     23347     23349     23347     23348     23349     23350     23349     23351
     23349     23361     23361     23362     23361     23363     23361     23364
     23364     23365     23364     23366     23364     23367     23367     23368
     23367     23369     23367     23370     23370     23371     23370     23372
     23370     23373     23373     23374     23373     23375     23373     23376
     23376     23377     23376     23378     23376     23379     23379     23380
     23379     23381     23381     23382     23381     23383     23383     23384
     23383     23385     23383     23386     23386     23387     23386     23388
     23386     23389     23389     23390     23389     23391     23389     23392
     23392     23393     23392     23394     23392     23395     23395     23396
     23395     23397     23395     23398     23398     23399     23398     23400
     23398     23401     23401     23402     23401     23403     23401     23404
     23404     23405     23404     23406     23404     23407     23355     23356
     23356     23358     23356     23357     23358     23359     23358     23360
     23358     23408     23408     23409     23408     23410     23408     23411
     23411     23412     23411     23413     23411     23414     23414     23415
     23414     23416     23414     23417     23417     23418     23417     23419
     23417     23420     23420     23421     23420     23422     23420     23423
     23423     23424     23423     23425     23423     23426     23426     23427
     23426     23428     23426     23429     23429     23430     23429     23431
     23429     23432     23432     23433     23432     23434     23432     23435
     23435     23436     23435     23437     23435     23438     23438     23439
     23438     23440     23438     23441     23441     23442     23441     23443
     23441     23444     23444     23445     23444     23446     23444     23447
     23447     23448     23447     23449     23447     23450     23451     23455
     23451     23459     23451     23463     23455     23456     23455     23457
     23455     23458     23459     23460     23459     23461     23459     23462
     23463     23464     23463     23465     23463     23466     23451     23452
     23452     23453     23452     23454     23452     23467     23467     23468
     23467     23469     23467     23473     23474     23475     23473     23470
     23470     23474     23470     23471     23470     23472     23475     23476
     23475     23477     23475     23478     23478     23479     23478     23486
     23478     23480     23486     23487     23486     23488     23486     23489
     23480     23481     23481     23483     23481     23482     23483     23484
     23483     23485     23483     23495     23495     23496     23495     23497
     23495     23498     23498     23499     23498     23500     23498     23501
     23501     23502     23501     23503     23501     23504     23504     23505
     23504     23506     23504     23507     23507     23508     23507     23509
     23507     23510     23510     23511     23510     23512     23510     23513
     23513     23514     23513     23515     23515     23516     23515     23517
     23517     23518     23517     23519     23517     23520     23520     23521
     23520     23522     23520     23523     23523     23524     23523     23525
     23523     23526     23526     23527     23526     23528     23526     23529
     23529     23530     23529     23531     23529     23532     23532     23533
     23532     23534     23532     23535     23535     23536     23535     23537
     23535     23538     23538     23539     23538     23540     23538     23541
     23489     23490     23490     23492     23490     23491     23492     23493
     23492     23494     23492     23542     23542     23543     23542     23544
     23542     23545     23545     23546     23545     23547     23545     23548
     23548     23549     23548     23550     23548     23551     23551     23552
     23551     23553     23551     23554     23554     23555     23554     23556
     23554     23557     23557     23558     23557     23559     23557     23560
     23560     23561     23560     23562     23560     23563     23563     23564
     23563     23565     23563     23566     23566     23567     23566     23568
     23566     23569     23569     23570     23569     23571     23569     23572
     23572     23573     23572     23574     23572     23575     23575     23576
     23575     23577     23575     23578     23578     23579     23578     23580
     23578     23581     23581     23582     23581     23583     23581     23584
     23585     23589     23585     23593     23585     23597     23589     23590
     23589     23591     23589     23592     23593     23594     23593     23595
     23593     23596     23597     23598     23597     23599     23597     23600
     23585     23586     23586     23587     23586     23588     23586     23601
     23601     23602     23601     23603     23601     23607     23608     23609
     23607     23604     23604     23608     23604     23605     23604     23606
     23609     23610     23609     23611     23609     23612     23612     23613
     23612     23620     23612     23614     23620     23621     23620     23622
     23620     23623     23614     23615     23615     23617     23615     23616
     23617     23618     23617     23619     23617     23629     23629     23630
     23629     23631     23629     23632     23632     23633     23632     23634
     23632     23635     23635     23636     23635     23637     23635     23638
     23638     23639     23638     23640     23638     23641     23641     23642
     23641     23643     23641     23644     23644     23645     23644     23646
     23644     23647     23647     23648     23647     23649     23649     23650
     23649     23651     23651     23652     23651     23653     23651     23654
     23654     23655     23654     23656     23654     23657     23657     23658
     23657     23659     23657     23660     23660     23661     23660     23662
     23660     23663     23663     23664     23663     23665     23663     23666
     23666     23667     23666     23668     23666     23669     23669     23670
     23669     23671     23669     23672     23672     23673     23672     23674
     23672     23675     23623     23624     23624     23626     23624     23625
     23626     23627     23626     23628     23626     23676     23676     23677
     23676     23678     23676     23679     23679     23680     23679     23681
     23679     23682     23682     23683     23682     23684     23682     23685
     23685     23686     23685     23687     23685     23688     23688     23689
     23688     23690     23688     23691     23691     23692     23691     23693
     23691     23694     23694     23695     23694     23696     23694     23697
     23697     23698     23697     23699     23697     23700     23700     23701
     23700     23702     23700     23703     23703     23704     23703     23705
     23703     23706     23706     23707     23706     23708     23706     23709
     23709     23710     23709     23711     23709     23712     23712     23713
     23712     23714     23712     23715     23715     23716     23715     23717
     23715     23718     23719     23723     23719     23727     23719     23731
     23723     23724     23723     23725     23723     23726     23727     23728
     23727     23729     23727     23730     23731     23732     23731     23733
     23731     23734     23719     23720     23720     23721     23720     23722
     23720     23735     23735     23736     23735     23737     23735     23741
     23742     23743     23741     23738     23738     23742     23738     23739
     23738     23740     23743     23744     23743     23745     23743     23746
     23746     23747     23746     23754     23746     23748     23754     23755
     23754     23756     23754     23757     23748     23749     23749     23751
     23749     23750     23751     23752     23751     23753     23751     23763
     23763     23764     23763     23765     23763     23766     23766     23767
     23766     23768     23766     23769     23769     23770     23769     23771
     23769     23772     23772     23773     23772     23774     23772     23775
     23775     23776     23775     23777     23775     23778     23778     23779
     23778     23780     23778     23781     23781     23782     23781     23783
     23783     23784     23783     23785     23785     23786     23785     23787
     23785     23788     23788     23789     23788     23790     23788     23791
     23791     23792     23791     23793     23791     23794     23794     23795
     23794     23796     23794     23797     23797     23798     23797     23799
     23797     23800     23800     23801     23800     23802     23800     23803
     23803     23804     23803     23805     23803     23806     23806     23807
     23806     23808     23806     23809     23757     23758     23758     23760
     23758     23759     23760     23761     23760     23762     23760     23810
     23810     23811     23810     23812     23810     23813     23813     23814
     23813     23815     23813     23816     23816     23817     23816     23818
     23816     23819     23819     23820     23819     23821     23819     23822
     23822     23823     23822     23824     23822     23825     23825     23826
     23825     23827     23825     23828     23828     23829     23828     23830
     23828     23831     23831     23832     23831     23833     23831     23834
     23834     23835     23834     23836     23834     23837     23837     23838
     23837     23839     23837     23840     23840     23841     23840     23842
     23840     23843     23843     23844     23843     23845     23843     23846
     23846     23847     23846     23848     23846     23849     23849     23850
     23849     23851     23849     23852     23853     23857     23853     23861
     23853     23865     23857     23858     23857     23859     23857     23860
     23861     23862     23861     23863     23861     23864     23865     23866
     23865     23867     23865     23868     23853     23854     23854     23855
     23854     23856     23854     23869     23869     23870     23869     23871
     23869     23875     23876     23877     23875     23872     23872     23876
     23872     23873     23872     23874     23877     23878     23877     23879
     23877     23880     23880     23881     23880     23888     23880     23882
     23888     23889     23888     23890     23888     23891     23882     23883
     23883     23885     23883     23884     23885     23886     23885     23887
     23885     23897     23897     23898     23897     23899     23897     23900
     23900     23901     23900     23902     23900     23903     23903     23904
     23903     23905     23903     23906     23906     23907     23906     23908
     23906     23909     23909     23910     23909     23911     23909     23912
     23912     23913     23912     23914     23912     23915     23915     23916
     23915     23917     23917     23918     23917     23919     23919     23920
     23919     23921     23919     23922     23922     23923     23922     23924
     23922     23925     23925     23926     23925     23927     23925     23928
     23928     23929     23928     23930     23928     23931     23931     23932
     23931     23933     23931     23934     23934     23935     23934     23936
     23934     23937     23937     23938     23937     23939     23937     23940
     23940     23941     23940     23942     23940     23943     23891     23892
     23892     23894     23892     23893     23894     23895     23894     23896
     23894     23944     23944     23945     23944     23946     23944     23947
     23947     23948     23947     23949     23947     23950     23950     23951
     23950     23952     23950     23953     23953     23954     23953     23955
     23953     23956     23956     23957     23956     23958     23956     23959
     23959     23960     23959     23961     23959     23962     23962     23963
     23962     23964     23962     23965     23965     23966     23965     23967
     23965     23968     23968     23969     23968     23970     23968     23971
     23971     23972     23971     23973     23971     23974     23974     23975
     23974     23976     23974     23977     23977     23978     23977     23979
     23977     23980     23980     23981     23980     23982     23980     23983
     23983     23984     23983     23985     23983     23986     23987     23991
     23987     23995     23987     23999     23991     23992     23991     23993
     23991     23994     23995     23996     23995     23997     23995     23998
     23999     24000     23999     24001     23999     24002     23987     23988
     23988     23989     23988     23990     23988     24003     24003     24004
     24003     24005     24003     24009     24010     24011     24009     24006
     24006     24010     24006     24007     24006     24008     24011     24012
     24011     24013     24011     24014     24014     24015     24014     24022
     24014     24016     24022     24023     24022     24024     24022     24025
     24016     24017     24017     24019     24017     24018     24019     24020
     24019     24021     24019     24031     24031     24032     24031     24033
     24031     24034     24034     24035     24034     24036     24034     24037
     24037     24038     24037     24039     24037     24040     24040     24041
     24040     24042     24040     24043     24043     24044     24043     24045
     24043     24046     24046     24047     24046     24048     24046     24049
     24049     24050     24049     24051     24051     24052     24051     24053
     24053     24054     24053     24055     24053     24056     24056     24057
     24056     24058     24056     24059     24059     24060     24059     24061
     24059     24062     24062     24063     24062     24064     24062     24065
     24065     24066     24065     24067     24065     24068     24068     24069
     24068     24070     24068     24071     24071     24072     24071     24073
     24071     24074     24074     24075     24074     24076     24074     24077
     24025     24026     24026     24028     24026     24027     24028     24029
     24028     24030     24028     24078     24078     24079     24078     24080
     24078     24081     24081     24082     24081     24083     24081     24084
     24084     24085     24084     24086     24084     24087     24087     24088
     24087     24089     24087     24090     24090     24091     24090     24092
     24090     24093     24093     24094     24093     24095     24093     24096
     24096     24097     24096     24098     24096     24099     24099     24100
     24099     24101     24099     24102     24102     24103     24102     24104
     24102     24105     24105     24106     24105     24107     24105     24108
     24108     24109     24108     24110     24108     24111     24111     24112
     24111     24113     24111     24114     24114     24115     24114     24116
     24114     24117     24117     24118     24117     24119     24117     24120
     24121     24125     24121     24129     24121     24133     24125     24126
     24125     24127     24125     24128     24129     24130     24129     24131
     24129     24132     24133     24134     24133     24135     24133     24136
     24121     24122     24122     24123     24122     24124     24122     24137
     24137     24138     24137     24139     24137     24143     24144     24145
     24143     24140     24140     24144     24140     24141     24140     24142
     24145     24146     24145     24147     24145     24148     24148     24149
     24148     24156     24148     24150     24156     24157     24156     24158
     24156     24159     24150     24151     24151     24153     24151     24152
     24153     24154     24153     24155     24153     24165     24165     24166
     24165     24167     24165     24168     24168     24169     24168     24170
     24168     24171     24171     24172     24171     24173     24171     24174
     24174     24175     24174     24176     24174     24177     24177     24178
     24177     24179     24177     24180     24180     24181     24180     24182
     24180     24183     24183     24184     24183     24185     24185     24186
     24185     24187     24187     24188     24187     24189     24187     24190
     24190     24191     24190     24192     24190     24193     24193     24194
     24193     24195     24193     24196     24196     24197     24196     24198
     24196     24199     24199     24200     24199     24201     24199     24202
     24202     24203     24202     24204     24202     24205     24205     24206
     24205     24207     24205     24208     24208     24209     24208     24210
     24208     24211     24159     24160     24160     24162     24160     24161
     24162     24163     24162     24164     24162     24212     24212     24213
     24212     24214     24212     24215     24215     24216     24215     24217
     24215     24218     24218     24219     24218     24220     24218     24221
     24221     24222     24221     24223     24221     24224     24224     24225
     24224     24226     24224     24227     24227     24228     24227     24229
     24227     24230     24230     24231     24230     24232     24230     24233
     24233     24234     24233     24235     24233     24236     24236     24237
     24236     24238     24236     24239     24239     24240     24239     24241
     24239     24242     24242     24243     24242     24244     24242     24245
     24245     24246     24245     24247     24245     24248     24248     24249
     24248     24250     24248     24251     24251     24252     24251     24253
     24251     24254     24255     24259     24255     24263     24255     24267
     24259     24260     24259     24261     24259     24262     24263     24264
     24263     24265     24263     24266     24267     24268     24267     24269
     24267     24270     24255     24256     24256     24257     24256     24258
     24256     24271     24271     24272     24271     24273     24271     24277
     24278     24279     24277     24274     24274     24278     24274     24275
     24274     24276     24279     24280     24279     24281     24279     24282
     24282     24283     24282     24290     24282     24284     24290     24291
     24290     24292     24290     24293     24284     24285     24285     24287
     24285     24286     24287     24288     24287     24289     24287     24299
     24299     24300     24299     24301     24299     24302     24302     24303
     24302     24304     24302     24305     24305     24306     24305     24307
     24305     24308     24308     24309     24308     24310     24308     24311
     24311     24312     24311     24313     24311     24314     24314     24315
     24314     24316     24314     24317     24317     24318     24317     24319
     24319     24320     24319     24321     24321     24322     24321     24323
     24321     24324     24324     24325     24324     24326     24324     24327
     24327     24328     24327     24329     24327     24330     24330     24331
     24330     24332     24330     24333     24333     24334     24333     24335
     24333     24336     24336     24337     24336     24338     24336     24339
     24339     24340     24339     24341     24339     24342     24342     24343
     24342     24344     24342     24345     24293     24294     24294     24296
     24294     24295     24296     24297     24296     24298     24296     24346
     24346     24347     24346     24348     24346     24349     24349     24350
     24349     24351     24349     24352     24352     24353     24352     24354
     24352     24355     24355     24356     24355     24357     24355     24358
     24358     24359     24358     24360     24358     24361     24361     24362
     24361     24363     24361     24364     24364     24365     24364     24366
     24364     24367     24367     24368     24367     24369     24367     24370
     24370     24371     24370     24372     24370     24373     24373     24374
     24373     24375     24373     24376     24376     24377     24376     24378
     24376     24379     24379     24380     24379     24381     24379     24382
     24382     24383     24382     24384     24382     24385     24385     24386
     24385     24387     24385     24388     24389     24393     24389     24397
     24389     24401     24393     24394     24393     24395     24393     24396
     24397     24398     24397     24399     24397     24400     24401     24402
     24401     24403     24401     24404     24389     24390     24390     24391
     24390     24392     24390     24405     24405     24406     24405     24407
     24405     24411     24412     24413     24411     24408     24408     24412
     24408     24409     24408     24410     24413     24414     24413     24415
     24413     24416     24416     24417     24416     24424     24416     24418
     24424     24425     24424     24426     24424     24427     24418     24419
     24419     24421     24419     24420     24421     24422     24421     24423
     24421     24433     24433     24434     24433     24435     24433     24436
     24436     24437     24436     24438     24436     24439     24439     24440
     24439     24441     24439     24442     24442     24443     24442     24444
     24442     24445     24445     24446     24445     24447     24445     24448
     24448     24449     24448     24450     24448     24451     24451     24452
     24451     24453     24453     24454     24453     24455     24455     24456
     24455     24457     24455     24458     24458     24459     24458     24460
     24458     24461     24461     24462     24461     24463     24461     24464
     24464     24465     24464     24466     24464     24467     24467     24468
     24467     24469     24467     24470     24470     24471     24470     24472
     24470     24473     24473     24474     24473     24475     24473     24476
     24476     24477     24476     24478     24476     24479     24427     24428
     24428     24430     24428     24429     24430     24431     24430     24432
     24430     24480     24480     24481     24480     24482     24480     24483
     24483     24484     24483     24485     24483     24486     24486     24487
     24486     24488     24486     24489     24489     24490     24489     24491
     24489     24492     24492     24493     24492     24494     24492     24495
     24495     24496     24495     24497     24495     24498     24498     24499
     24498     24500     24498     24501     24501     24502     24501     24503
     24501     24504     24504     24505     24504     24506     24504     24507
     24507     24508     24507     24509     24507     24510     24510     24511
     24510     24512     24510     24513     24513     24514     24513     24515
     24513     24516     24516     24517     24516     24518     24516     24519
     24519     24520     24519     24521     24519     24522     24523     24527
     24523     24531     24523     24535     24527     24528     24527     24529
     24527     24530     24531     24532     24531     24533     24531     24534
     24535     24536     24535     24537     24535     24538     24523     24524
     24524     24525     24524     24526     24524     24539     24539     24540
     24539     24541     24539     24545     24546     24547     24545     24542
     24542     24546     24542     24543     24542     24544     24547     24548
     24547     24549     24547     24550     24550     24551     24550     24558
     24550     24552     24558     24559     24558     24560     24558     24561
     24552     24553     24553     24555     24553     24554     24555     24556
     24555     24557     24555     24567     24567     24568     24567     24569
     24567     24570     24570     24571     24570     24572     24570     24573
     24573     24574     24573     24575     24573     24576     24576     24577
     24576     24578     24576     24579     24579     24580     24579     24581
     24579     24582     24582     24583     24582     24584     24582     24585
     24585     24586     24585     24587     24587     24588     24587     24589
     24589     24590     24589     24591     24589     24592     24592     24593
     24592     24594     24592     24595     24595     24596     24595     24597
     24595     24598     24598     24599     24598     24600     24598     24601
     24601     24602     24601     24603     24601     24604     24604     24605
     24604     24606     24604     24607     24607     24608     24607     24609
     24607     24610     24610     24611     24610     24612     24610     24613
     24561     24562     24562     24564     24562     24563     24564     24565
     24564     24566     24564     24614     24614     24615     24614     24616
     24614     24617     24617     24618     24617     24619     24617     24620
     24620     24621     24620     24622     24620     24623     24623     24624
     24623     24625     24623     24626     24626     24627     24626     24628
     24626     24629     24629     24630     24629     24631     24629     24632
     24632     24633     24632     24634     24632     24635     24635     24636
     24635     24637     24635     24638     24638     24639     24638     24640
     24638     24641     24641     24642     24641     24643     24641     24644
     24644     24645     24644     24646     24644     24647     24647     24648
     24647     24649     24647     24650     24650     24651     24650     24652
     24650     24653     24653     24654     24653     24655     24653     24656
     24657     24661     24657     24665     24657     24669     24661     24662
     24661     24663     24661     24664     24665     24666     24665     24667
     24665     24668     24669     24670     24669     24671     24669     24672
     24657     24658     24658     24659     24658     24660     24658     24673
     24673     24674     24673     24675     24673     24679     24680     24681
     24679     24676     24676     24680     24676     24677     24676     24678
     24681     24682     24681     24683     24681     24684     24684     24685
     24684     24692     24684     24686     24692     24693     24692     24694
     24692     24695     24686     24687     24687     24689     24687     24688
     24689     24690     24689     24691     24689     24701     24701     24702
     24701     24703     24701     24704     24704     24705     24704     24706
     24704     24707     24707     24708     24707     24709     24707     24710
     24710     24711     24710     24712     24710     24713     24713     24714
     24713     24715     24713     24716     24716     24717     24716     24718
     24716     24719     24719     24720     24719     24721     24721     24722
     24721     24723     24723     24724     24723     24725     24723     24726
     24726     24727     24726     24728     24726     24729     24729     24730
     24729     24731     24729     24732     24732     24733     24732     24734
     24732     24735     24735     24736     24735     24737     24735     24738
     24738     24739     24738     24740     24738     24741     24741     24742
     24741     24743     24741     24744     24744     24745     24744     24746
     24744     24747     24695     24696     24696     24698     24696     24697
     24698     24699     24698     24700     24698     24748     24748     24749
     24748     24750     24748     24751     24751     24752     24751     24753
     24751     24754     24754     24755     24754     24756     24754     24757
     24757     24758     24757     24759     24757     24760     24760     24761
     24760     24762     24760     24763     24763     24764     24763     24765
     24763     24766     24766     24767     24766     24768     24766     24769
     24769     24770     24769     24771     24769     24772     24772     24773
     24772     24774     24772     24775     24775     24776     24775     24777
     24775     24778     24778     24779     24778     24780     24778     24781
     24781     24782     24781     24783     24781     24784     24784     24785
     24784     24786     24784     24787     24787     24788     24787     24789
     24787     24790     24791     24795     24791     24799     24791     24803
     24795     24796     24795     24797     24795     24798     24799     24800
     24799     24801     24799     24802     24803     24804     24803     24805
     24803     24806     24791     24792     24792     24793     24792     24794
     24792     24807     24807     24808     24807     24809     24807     24813
     24814     24815     24813     24810     24810     24814     24810     24811
     24810     24812     24815     24816     24815     24817     24815     24818
     24818     24819     24818     24826     24818     24820     24826     24827
     24826     24828     24826     24829     24820     24821     24821     24823
     24821     24822     24823     24824     24823     24825     24823     24835
     24835     24836     24835     24837     24835     24838     24838     24839
     24838     24840     24838     24841     24841     24842     24841     24843
     24841     24844     24844     24845     24844     24846     24844     24847
     24847     24848     24847     24849     24847     24850     24850     24851
     24850     24852     24850     24853     24853     24854     24853     24855
     24855     24856     24855     24857     24857     24858     24857     24859
     24857     24860     24860     24861     24860     24862     24860     24863
     24863     24864     24863     24865     24863     24866     24866     24867
     24866     24868     24866     24869     24869     24870     24869     24871
     24869     24872     24872     24873     24872     24874     24872     24875
     24875     24876     24875     24877     24875     24878     24878     24879
     24878     24880     24878     24881     24829     24830     24830     24832
     24830     24831     24832     24833     24832     24834     24832     24882
     24882     24883     24882     24884     24882     24885     24885     24886
     24885     24887     24885     24888     24888     24889     24888     24890
     24888     24891     24891     24892     24891     24893     24891     24894
     24894     24895     24894     24896     24894     24897     24897     24898
     24897     24899     24897     24900     24900     24901     24900     24902
     24900     24903     24903     24904     24903     24905     24903     24906
     24906     24907     24906     24908     24906     24909     24909     24910
     24909     24911     24909     24912     24912     24913     24912     24914
     24912     24915     24915     24916     24915     24917     24915     24918
     24918     24919     24918     24920     24918     24921     24921     24922
     24921     24923     24921     24924     24925     24929     24925     24933
     24925     24937     24929     24930     24929     24931     24929     24932
     24933     24934     24933     24935     24933     24936     24937     24938
     24937     24939     24937     24940     24925     24926     24926     24927
     24926     24928     24926     24941     24941     24942     24941     24943
     24941     24947     24948     24949     24947     24944     24944     24948
     24944     24945     24944     24946     24949     24950     24949     24951
     24949     24952     24952     24953     24952     24960     24952     24954
     24960     24961     24960     24962     24960     24963     24954     24955
     24955     24957     24955     24956     24957     24958     24957     24959
     24957     24969     24969     24970     24969     24971     24969     24972
     24972     24973     24972     24974     24972     24975     24975     24976
     24975     24977     24975     24978     24978     24979     24978     24980
     24978     24981     24981     24982     24981     24983     24981     24984
     24984     24985     24984     24986     24984     24987     24987     24988
     24987     24989     24989     24990     24989     24991     24991     24992
     24991     24993     24991     24994     24994     24995     24994     24996
     24994     24997     24997     24998     24997     24999     24997     25000
     25000     25001     25000     25002     25000     25003     25003     25004
     25003     25005     25003     25006     25006     25007     25006     25008
     25006     25009     25009     25010     25009     25011     25009     25012
     25012     25013     25012     25014     25012     25015     24963     24964
     24964     24966     24964     24965     24966     24967     24966     24968
     24966     25016     25016     25017     25016     25018     25016     25019
     25019     25020     25019     25021     25019     25022     25022     25023
     25022     25024     25022     25025     25025     25026     25025     25027
     25025     25028     25028     25029     25028     25030     25028     25031
     25031     25032     25031     25033     25031     25034     25034     25035
     25034     25036     25034     25037     25037     25038     25037     25039
     25037     25040     25040     25041     25040     25042     25040     25043
     25043     25044     25043     25045     25043     25046     25046     25047
     25046     25048     25046     25049     25049     25050     25049     25051
     25049     25052     25052     25053     25052     25054     25052     25055
     25055     25056     25055     25057     25055     25058     25059     25063
     25059     25067     25059     25071     25063     25064     25063     25065
     25063     25066     25067     25068     25067     25069     25067     25070
     25071     25072     25071     25073     25071     25074     25059     25060
     25060     25061     25060     25062     25060     25075     25075     25076
     25075     25077     25075     25081     25082     25083     25081     25078
     25078     25082     25078     25079     25078     25080     25083     25084
     25083     25085     25083     25086     25086     25087     25086     25094
     25086     25088     25094     25095     25094     25096     25094     25097
     25088     25089     25089     25091     25089     25090     25091     25092
     25091     25093     25091     25103     25103     25104     25103     25105
     25103     25106     25106     25107     25106     25108     25106     25109
     25109     25110     25109     25111     25109     25112     25112     25113
     25112     25114     25112     25115     25115     25116     25115     25117
     25115     25118     25118     25119     25118     25120     25118     25121
     25121     25122     25121     25123     25123     25124     25123     25125
     25125     25126     25125     25127     25125     25128     25128     25129
     25128     25130     25128     25131     25131     25132     25131     25133
     25131     25134     25134     25135     25134     25136     25134     25137
     25137     25138     25137     25139     25137     25140     25140     25141
     25140     25142     25140     25143     25143     25144     25143     25145
     25143     25146     25146     25147     25146     25148     25146     25149
     25097     25098     25098     25100     25098     25099     25100     25101
     25100     25102     25100     25150     25150     25151     25150     25152
     25150     25153     25153     25154     25153     25155     25153     25156
     25156     25157     25156     25158     25156     25159     25159     25160
     25159     25161     25159     25162     25162     25163     25162     25164
     25162     25165     25165     25166     25165     25167     25165     25168
     25168     25169     25168     25170     25168     25171     25171     25172
     25171     25173     25171     25174     25174     25175     25174     25176
     25174     25177     25177     25178     25177     25179     25177     25180
     25180     25181     25180     25182     25180     25183     25183     25184
     25183     25185     25183     25186     25186     25187     25186     25188
     25186     25189     25189     25190     25189     25191     25189     25192
     25193     25197     25193     25201     25193     25205     25197     25198
     25197     25199     25197     25200     25201     25202     25201     25203
     25201     25204     25205     25206     25205     25207     25205     25208
     25193     25194     25194     25195     25194     25196     25194     25209
     25209     25210     25209     25211     25209     25215     25216     25217
     25215     25212     25212     25216     25212     25213     25212     25214
     25217     25218     25217     25219     25217     25220     25220     25221
     25220     25228     25220     25222     25228     25229     25228     25230
     25228     25231     25222     25223     25223     25225     25223     25224
     25225     25226     25225     25227     25225     25237     25237     25238
     25237     25239     25237     25240     25240     25241     25240     25242
     25240     25243     25243     25244     25243     25245     25243     25246
     25246     25247     25246     25248     25246     25249     25249     25250
     25249     25251     25249     25252     25252     25253     25252     25254
     25252     25255     25255     25256     25255     25257     25257     25258
     25257     25259     25259     25260     25259     25261     25259     25262
     25262     25263     25262     25264     25262     25265     25265     25266
     25265     25267     25265     25268     25268     25269     25268     25270
     25268     25271     25271     25272     25271     25273     25271     25274
     25274     25275     25274     25276     25274     25277     25277     25278
     25277     25279     25277     25280     25280     25281     25280     25282
     25280     25283     25231     25232     25232     25234     25232     25233
     25234     25235     25234     25236     25234     25284     25284     25285
     25284     25286     25284     25287     25287     25288     25287     25289
     25287     25290     25290     25291     25290     25292     25290     25293
     25293     25294     25293     25295     25293     25296     25296     25297
     25296     25298     25296     25299     25299     25300     25299     25301
     25299     25302     25302     25303     25302     25304     25302     25305
     25305     25306     25305     25307     25305     25308     25308     25309
     25308     25310     25308     25311     25311     25312     25311     25313
     25311     25314     25314     25315     25314     25316     25314     25317
     25317     25318     25317     25319     25317     25320     25320     25321
     25320     25322     25320     25323     25323     25324     25323     25325
     25323     25326     25327     25331     25327     25335     25327     25339
     25331     25332     25331     25333     25331     25334     25335     25336
     25335     25337     25335     25338     25339     25340     25339     25341
     25339     25342     25327     25328     25328     25329     25328     25330
     25328     25343     25343     25344     25343     25345     25343     25349
     25350     25351     25349     25346     25346     25350     25346     25347
     25346     25348     25351     25352     25351     25353     25351     25354
     25354     25355     25354     25362     25354     25356     25362     25363
     25362     25364     25362     25365     25356     25357     25357     25359
     25357     25358     25359     25360     25359     25361     25359     25371
     25371     25372     25371     25373     25371     25374     25374     25375
     25374     25376     25374     25377     25377     25378     25377     25379
     25377     25380     25380     25381     25380     25382     25380     25383
     25383     25384     25383     25385     25383     25386     25386     25387
     25386     25388     25386     25389     25389     25390     25389     25391
     25391     25392     25391     25393     25393     25394     25393     25395
     25393     25396     25396     25397     25396     25398     25396     25399
     25399     25400     25399     25401     25399     25402     25402     25403
     25402     25404     25402     25405     25405     25406     25405     25407
     25405     25408     25408     25409     25408     25410     25408     25411
     25411     25412     25411     25413     25411     25414     25414     25415
     25414     25416     25414     25417     25365     25366     25366     25368
     25366     25367     25368     25369     25368     25370     25368     25418
     25418     25419     25418     25420     25418     25421     25421     25422
     25421     25423     25421     25424     25424     25425     25424     25426
     25424     25427     25427     25428     25427     25429     25427     25430
     25430     25431     25430     25432     25430     25433     25433     25434
     25433     25435     25433     25436     25436     25437     25436     25438
     25436     25439     25439     25440     25439     25441     25439     25442
     25442     25443     25442     25444     25442     25445     25445     25446
     25445     25447     25445     25448     25448     25449     25448     25450
     25448     25451     25451     25452     25451     25453     25451     25454
     25454     25455     25454     25456     25454     25457     25457     25458
     25457     25459     25457     25460     25461     25465     25461     25469
     25461     25473     25465     25466     25465     25467     25465     25468
     25469     25470     25469     25471     25469     25472     25473     25474
     25473     25475     25473     25476     25461     25462     25462     25463
     25462     25464     25462     25477     25477     25478     25477     25479
     25477     25483     25484     25485     25483     25480     25480     25484
     25480     25481     25480     25482     25485     25486     25485     25487
     25485     25488     25488     25489     25488     25496     25488     25490
     25496     25497     25496     25498     25496     25499     25490     25491
     25491     25493     25491     25492     25493     25494     25493     25495
     25493     25505     25505     25506     25505     25507     25505     25508
     25508     25509     25508     25510     25508     25511     25511     25512
     25511     25513     25511     25514     25514     25515     25514     25516
     25514     25517     25517     25518     25517     25519     25517     25520
     25520     25521     25520     25522     25520     25523     25523     25524
     25523     25525     25525     25526     25525     25527     25527     25528
     25527     25529     25527     25530     25530     25531     25530     25532
     25530     25533     25533     25534     25533     25535     25533     25536
     25536     25537     25536     25538     25536     25539     25539     25540
     25539     25541     25539     25542     25542     25543     25542     25544
     25542     25545     25545     25546     25545     25547     25545     25548
     25548     25549     25548     25550     25548     25551     25499     25500
     25500     25502     25500     25501     25502     25503     25502     25504
     25502     25552     25552     25553     25552     25554     25552     25555
     25555     25556     25555     25557     25555     25558     25558     25559
     25558     25560     25558     25561     25561     25562     25561     25563
     25561     25564     25564     25565     25564     25566     25564     25567
     25567     25568     25567     25569     25567     25570     25570     25571
     25570     25572     25570     25573     25573     25574     25573     25575
     25573     25576     25576     25577     25576     25578     25576     25579
     25579     25580     25579     25581     25579     25582     25582     25583
     25582     25584     25582     25585     25585     25586     25585     25587
     25585     25588     25588     25589     25588     25590     25588     25591
     25591     25592     25591     25593     25591     25594     25595     25599
     25595     25603     25595     25607     25599     25600     25599     25601
     25599     25602     25603     25604     25603     25605     25603     25606
     25607     25608     25607     25609     25607     25610     25595     25596
     25596     25597     25596     25598     25596     25611     25611     25612
     25611     25613     25611     25617     25618     25619     25617     25614
     25614     25618     25614     25615     25614     25616     25619     25620
     25619     25621     25619     25622     25622     25623     25622     25630
     25622     25624     25630     25631     25630     25632     25630     25633
     25624     25625     25625     25627     25625     25626     25627     25628
     25627     25629     25627     25639     25639     25640     25639     25641
     25639     25642     25642     25643     25642     25644     25642     25645
     25645     25646     25645     25647     25645     25648     25648     25649
     25648     25650     25648     25651     25651     25652     25651     25653
     25651     25654     25654     25655     25654     25656     25654     25657
     25657     25658     25657     25659     25659     25660     25659     25661
     25661     25662     25661     25663     25661     25664     25664     25665
     25664     25666     25664     25667     25667     25668     25667     25669
     25667     25670     25670     25671     25670     25672     25670     25673
     25673     25674     25673     25675     25673     25676     25676     25677
     25676     25678     25676     25679     25679     25680     25679     25681
     25679     25682     25682     25683     25682     25684     25682     25685
     25633     25634     25634     25636     25634     25635     25636     25637
     25636     25638     25636     25686     25686     25687     25686     25688
     25686     25689     25689     25690     25689     25691     25689     25692
     25692     25693     25692     25694     25692     25695     25695     25696
     25695     25697     25695     25698     25698     25699     25698     25700
     25698     25701     25701     25702     25701     25703     25701     25704
     25704     25705     25704     25706     25704     25707     25707     25708
     25707     25709     25707     25710     25710     25711     25710     25712
     25710     25713     25713     25714     25713     25715     25713     25716
     25716     25717     25716     25718     25716     25719     25719     25720
     25719     25721     25719     25722     25722     25723     25722     25724
     25722     25725     25725     25726     25725     25727     25725     25728
     25729     25733     25729     25737     25729     25741     25733     25734
     25733     25735     25733     25736     25737     25738     25737     25739
     25737     25740     25741     25742     25741     25743     25741     25744
     25729     25730     25730     25731     25730     25732     25730     25745
     25745     25746     25745     25747     25745     25751     25752     25753
     25751     25748     25748     25752     25748     25749     25748     25750
     25753     25754     25753     25755     25753     25756     25756     25757
     25756     25764     25756     25758     25764     25765     25764     25766
     25764     25767     25758     25759     25759     25761     25759     25760
     25761     25762     25761     25763     25761     25773     25773     25774
     25773     25775     25773     25776     25776     25777     25776     25778
     25776     25779     25779     25780     25779     25781     25779     25782
     25782     25783     25782     25784     25782     25785     25785     25786
     25785     25787     25785     25788     25788     25789     25788     25790
     25788     25791     25791     25792     25791     25793     25793     25794
     25793     25795     25795     25796     25795     25797     25795     25798
     25798     25799     25798     25800     25798     25801     25801     25802
     25801     25803     25801     25804     25804     25805     25804     25806
     25804     25807     25807     25808     25807     25809     25807     25810
     25810     25811     25810     25812     25810     25813     25813     25814
     25813     25815     25813     25816     25816     25817     25816     25818
     25816     25819     25767     25768     25768     25770     25768     25769
     25770     25771     25770     25772     25770     25820     25820     25821
     25820     25822     25820     25823     25823     25824     25823     25825
     25823     25826     25826     25827     25826     25828     25826     25829
     25829     25830     25829     25831     25829     25832     25832     25833
     25832     25834     25832     25835     25835     25836     25835     25837
     25835     25838     25838     25839     25838     25840     25838     25841
     25841     25842     25841     25843     25841     25844     25844     25845
     25844     25846     25844     25847     25847     25848     25847     25849
     25847     25850     25850     25851     25850     25852     25850     25853
     25853     25854     25853     25855     25853     25856     25856     25857
     25856     25858     25856     25859     25859     25860     25859     25861
     25859     25862     25863     25867     25863     25871     25863     25875
     25867     25868     25867     25869     25867     25870     25871     25872
     25871     25873     25871     25874     25875     25876     25875     25877
     25875     25878     25863     25864     25864     25865     25864     25866
     25864     25879     25879     25880     25879     25881     25879     25885
     25886     25887     25885     25882     25882     25886     25882     25883
     25882     25884     25887     25888     25887     25889     25887     25890
     25890     25891     25890     25898     25890     25892     25898     25899
     25898     25900     25898     25901     25892     25893     25893     25895
     25893     25894     25895     25896     25895     25897     25895     25907
     25907     25908     25907     25909     25907     25910     25910     25911
     25910     25912     25910     25913     25913     25914     25913     25915
     25913     25916     25916     25917     25916     25918     25916     25919
     25919     25920     25919     25921     25919     25922     25922     25923
     25922     25924     25922     25925     25925     25926     25925     25927
     25927     25928     25927     25929     25929     25930     25929     25931
     25929     25932     25932     25933     25932     25934     25932     25935
     25935     25936     25935     25937     25935     25938     25938     25939
     25938     25940     25938     25941     25941     25942     25941     25943
     25941     25944     25944     25945     25944     25946     25944     25947
     25947     25948     25947     25949     25947     25950     25950     25951
     25950     25952     25950     25953     25901     25902     25902     25904
     25902     25903     25904     25905     25904     25906     25904     25954
     25954     25955     25954     25956     25954     25957     25957     25958
     25957     25959     25957     25960     25960     25961     25960     25962
     25960     25963     25963     25964     25963     25965     25963     25966
     25966     25967     25966     25968     25966     25969     25969     25970
     25969     25971     25969     25972     25972     25973     25972     25974
     25972     25975     25975     25976     25975     25977     25975     25978
     25978     25979     25978     25980     25978     25981     25981     25982
     25981     25983     25981     25984     25984     25985     25984     25986
     25984     25987     25987     25988     25987     25989     25987     25990
     25990     25991     25990     25992     25990     25993     25993     25994
     25993     25995     25993     25996     25997     26001     25997     26005
     25997     26009     26001     26002     26001     26003     26001     26004
     26005     26006     26005     26007     26005     26008     26009     26010
     26009     26011     26009     26012     25997     25998     25998     25999
     25998     26000     25998     26013     26013     26014     26013     26015
     26013     26019     26020     26021     26019     26016     26016     26020
     26016     26017     26016     26018     26021     26022     26021     26023
     26021     26024     26024     26025     26024     26032     26024     26026
     26032     26033     26032     26034     26032     26035     26026     26027
     26027     26029     26027     26028     26029     26030     26029     26031
     26029     26041     26041     26042     26041     26043     26041     26044
     26044     26045     26044     26046     26044     26047     26047     26048
     26047     26049     26047     26050     26050     26051     26050     26052
     26050     26053     26053     26054     26053     26055     26053     26056
     26056     26057     26056     26058     26056     26059     26059     26060
     26059     26061     26061     26062     26061     26063     26063     26064
     26063     26065     26063     26066     26066     26067     26066     26068
     26066     26069     26069     26070     26069     26071     26069     26072
     26072     26073     26072     26074     26072     26075     26075     26076
     26075     26077     26075     26078     26078     26079     26078     26080
     26078     26081     26081     26082     26081     26083     26081     26084
     26084     26085     26084     26086     26084     26087     26035     26036
     26036     26038     26036     26037     26038     26039     26038     26040
     26038     26088     26088     26089     26088     26090     26088     26091
     26091     26092     26091     26093     26091     26094     26094     26095
     26094     26096     26094     26097     26097     26098     26097     26099
     26097     26100     26100     26101     26100     26102     26100     26103
     26103     26104     26103     26105     26103     26106     26106     26107
     26106     26108     26106     26109     26109     26110     26109     26111
     26109     26112     26112     26113     26112     26114     26112     26115
     26115     26116     26115     26117     26115     26118     26118     26119
     26118     26120     26118     26121     26121     26122     26121     26123
     26121     26124     26124     26125     26124     26126     26124     26127
     26127     26128     26127     26129     26127     26130     26131     26135
     26131     26139     26131     26143     26135     26136     26135     26137
     26135     26138     26139     26140     26139     26141     26139     26142
     26143     26144     26143     26145     26143     26146     26131     26132
     26132     26133     26132     26134     26132     26147     26147     26148
     26147     26149     26147     26153     26154     26155     26153     26150
     26150     26154     26150     26151     26150     26152     26155     26156
     26155     26157     26155     26158     26158     26159     26158     26166
     26158     26160     26166     26167     26166     26168     26166     26169
     26160     26161     26161     26163     26161     26162     26163     26164
     26163     26165     26163     26175     26175     26176     26175     26177
     26175     26178     26178     26179     26178     26180     26178     26181
     26181     26182     26181     26183     26181     26184     26184     26185
     26184     26186     26184     26187     26187     26188     26187     26189
     26187     26190     26190     26191     26190     26192     26190     26193
     26193     26194     26193     26195     26195     26196     26195     26197
     26197     26198     26197     26199     26197     26200     26200     26201
     26200     26202     26200     26203     26203     26204     26203     26205
     26203     26206     26206     26207     26206     26208     26206     26209
     26209     26210     26209     26211     26209     26212     26212     26213
     26212     26214     26212     26215     26215     26216     26215     26217
     26215     26218     26218     26219     26218     26220     26218     26221
     26169     26170     26170     26172     26170     26171     26172     26173
     26172     26174     26172     26222     26222     26223     26222     26224
     26222     26225     26225     26226     26225     26227     26225     26228
     26228     26229     26228     26230     26228     26231     26231     26232
     26231     26233     26231     26234     26234     26235     26234     26236
     26234     26237     26237     26238     26237     26239     26237     26240
     26240     26241     26240     26242     26240     26243     26243     26244
     26243     26245     26243     26246     26246     26247     26246     26248
     26246     26249     26249     26250     26249     26251     26249     26252
     26252     26253     26252     26254     26252     26255     26255     26256
     26255     26257     26255     26258     26258     26259     26258     26260
     26258     26261     26261     26262     26261     26263     26261     26264
     26265     26269     26265     26273     26265     26277     26269     26270
     26269     26271     26269     26272     26273     26274     26273     26275
     26273     26276     26277     26278     26277     26279     26277     26280
     26265     26266     26266     26267     26266     26268     26266     26281
     26281     26282     26281     26283     26281     26287     26288     26289
     26287     26284     26284     26288     26284     26285     26284     26286
     26289     26290     26289     26291     26289     26292     26292     26293
     26292     26300     26292     26294     26300     26301     26300     26302
     26300     26303     26294     26295     26295     26297     26295     26296
     26297     26298     26297     26299     26297     26309     26309     26310
     26309     26311     26309     26312     26312     26313     26312     26314
     26312     26315     26315     26316     26315     26317     26315     26318
     26318     26319     26318     26320     26318     26321     26321     26322
     26321     26323     26321     26324     26324     26325     26324     26326
     26324     26327     26327     26328     26327     26329     26329     26330
     26329     26331     26331     26332     26331     26333     26331     26334
     26334     26335     26334     26336     26334     26337     26337     26338
     26337     26339     26337     26340     26340     26341     26340     26342
     26340     26343     26343     26344     26343     26345     26343     26346
     26346     26347     26346     26348     26346     26349     26349     26350
     26349     26351     26349     26352     26352     26353     26352     26354
     26352     26355     26303     26304     26304     26306     26304     26305
     26306     26307     26306     26308     26306     26356     26356     26357
     26356     26358     26356     26359     26359     26360     26359     26361
     26359     26362     26362     26363     26362     26364     26362     26365
     26365     26366     26365     26367     26365     26368     26368     26369
     26368     26370     26368     26371     26371     26372     26371     26373
     26371     26374     26374     26375     26374     26376     26374     26377
     26377     26378     26377     26379     26377     26380     26380     26381
     26380     26382     26380     26383     26383     26384     26383     26385
     26383     26386     26386     26387     26386     26388     26386     26389
     26389     26390     26389     26391     26389     26392     26392     26393
     26392     26394     26392     26395     26395     26396     26395     26397
     26395     26398     26399     26403     26399     26407     26399     26411
     26403     26404     26403     26405     26403     26406     26407     26408
     26407     26409     26407     26410     26411     26412     26411     26413
     26411     26414     26399     26400     26400     26401     26400     26402
     26400     26415     26415     26416     26415     26417     26415     26421
     26422     26423     26421     26418     26418     26422     26418     26419
     26418     26420     26423     26424     26423     26425     26423     26426
     26426     26427     26426     26434     26426     26428     26434     26435
     26434     26436     26434     26437     26428     26429     26429     26431
     26429     26430     26431     26432     26431     26433     26431     26443
     26443     26444     26443     26445     26443     26446     26446     26447
     26446     26448     26446     26449     26449     26450     26449     26451
     26449     26452     26452     26453     26452     26454     26452     26455
     26455     26456     26455     26457     26455     26458     26458     26459
     26458     26460     26458     26461     26461     26462     26461     26463
     26463     26464     26463     26465     26465     26466     26465     26467
     26465     26468     26468     26469     26468     26470     26468     26471
     26471     26472     26471     26473     26471     26474     26474     26475
     26474     26476     26474     26477     26477     26478     26477     26479
     26477     26480     26480     26481     26480     26482     26480     26483
     26483     26484     26483     26485     26483     26486     26486     26487
     26486     26488     26486     26489     26437     26438     26438     26440
     26438     26439     26440     26441     26440     26442     26440     26490
     26490     26491     26490     26492     26490     26493     26493     26494
     26493     26495     26493     26496     26496     26497     26496     26498
     26496     26499     26499     26500     26499     26501     26499     26502
     26502     26503     26502     26504     26502     26505     26505     26506
     26505     26507     26505     26508     26508     26509     26508     26510
     26508     26511     26511     26512     26511     26513     26511     26514
     26514     26515     26514     26516     26514     26517     26517     26518
     26517     26519     26517     26520     26520     26521     26520     26522
     26520     26523     26523     26524     26523     26525     26523     26526
     26526     26527     26526     26528     26526     26529     26529     26530
     26529     26531     26529     26532     26533     26537     26533     26541
     26533     26545     26537     26538     26537     26539     26537     26540
     26541     26542     26541     26543     26541     26544     26545     26546
     26545     26547     26545     26548     26533     26534     26534     26535
     26534     26536     26534     26549     26549     26550     26549     26551
     26549     26555     26556     26557     26555     26552     26552     26556
     26552     26553     26552     26554     26557     26558     26557     26559
     26557     26560     26560     26561     26560     26568     26560     26562
     26568     26569     26568     26570     26568     26571     26562     26563
     26563     26565     26563     26564     26565     26566     26565     26567
     26565     26577     26577     26578     26577     26579     26577     26580
     26580     26581     26580     26582     26580     26583     26583     26584
     26583     26585     26583     26586     26586     26587     26586     26588
     26586     26589     26589     26590     26589     26591     26589     26592
     26592     26593     26592     26594     26592     26595     26595     26596
     26595     26597     26597     26598     26597     26599     26599     26600
     26599     26601     26599     26602     26602     26603     26602     26604
     26602     26605     26605     26606     26605     26607     26605     26608
     26608     26609     26608     26610     26608     26611     26611     26612
     26611     26613     26611     26614     26614     26615     26614     26616
     26614     26617     26617     26618     26617     26619     26617     26620
     26620     26621     26620     26622     26620     26623     26571     26572
     26572     26574     26572     26573     26574     26575     26574     26576
     26574     26624     26624     26625     26624     26626     26624     26627
     26627     26628     26627     26629     26627     26630     26630     26631
     26630     26632     26630     26633     26633     26634     26633     26635
     26633     26636     26636     26637     26636     26638     26636     26639
     26639     26640     26639     26641     26639     26642     26642     26643
     26642     26644     26642     26645     26645     26646     26645     26647
     26645     26648     26648     26649     26648     26650     26648     26651
     26651     26652     26651     26653     26651     26654     26654     26655
     26654     26656     26654     26657     26657     26658     26657     26659
     26657     26660     26660     26661     26660     26662     26660     26663
     26663     26664     26663     26665     26663     26666     26667     26671
     26667     26675     26667     26679     26671     26672     26671     26673
     26671     26674     26675     26676     26675     26677     26675     26678
     26679     26680     26679     26681     26679     26682     26667     26668
     26668     26669     26668     26670     26668     26683     26683     26684
     26683     26685     26683     26689     26690     26691     26689     26686
     26686     26690     26686     26687     26686     26688     26691     26692
     26691     26693     26691     26694     26694     26695     26694     26702
     26694     26696     26702     26703     26702     26704     26702     26705
     26696     26697     26697     26699     26697     26698     26699     26700
     26699     26701     26699     26711     26711     26712     26711     26713
     26711     26714     26714     26715     26714     26716     26714     26717
     26717     26718     26717     26719     26717     26720     26720     26721
     26720     26722     26720     26723     26723     26724     26723     26725
     26723     26726     26726     26727     26726     26728     26726     26729
     26729     26730     26729     26731     26731     26732     26731     26733
     26733     26734     26733     26735     26733     26736     26736     26737
     26736     26738     26736     26739     26739     26740     26739     26741
     26739     26742     26742     26743     26742     26744     26742     26745
     26745     26746     26745     26747     26745     26748     26748     26749
     26748     26750     26748     26751     26751     26752     26751     26753
     26751     26754     26754     26755     26754     26756     26754     26757
     26705     26706     26706     26708     26706     26707     26708     26709
     26708     26710     26708     26758     26758     26759     26758     26760
     26758     26761     26761     26762     26761     26763     26761     26764
     26764     26765     26764     26766     26764     26767     26767     26768
     26767     26769     26767     26770     26770     26771     26770     26772
     26770     26773     26773     26774     26773     26775     26773     26776
     26776     26777     26776     26778     26776     26779     26779     26780
     26779     26781     26779     26782     26782     26783     26782     26784
     26782     26785     26785     26786     26785     26787     26785     26788
     26788     26789     26788     26790     26788     26791     26791     26792
     26791     26793     26791     26794     26794     26795     26794     26796
     26794     26797     26797     26798     26797     26799     26797     26800
     26801     26805     26801     26809     26801     26813     26805     26806
     26805     26807     26805     26808     26809     26810     26809     26811
     26809     26812     26813     26814     26813     26815     26813     26816
     26801     26802     26802     26803     26802     26804     26802     26817
     26817     26818     26817     26819     26817     26823     26824     26825
     26823     26820     26820     26824     26820     26821     26820     26822
     26825     26826     26825     26827     26825     26828     26828     26829
     26828     26836     26828     26830     26836     26837     26836     26838
     26836     26839     26830     26831     26831     26833     26831     26832
     26833     26834     26833     26835     26833     26845     26845     26846
     26845     26847     26845     26848     26848     26849     26848     26850
     26848     26851     26851     26852     26851     26853     26851     26854
     26854     26855     26854     26856     26854     26857     26857     26858
     26857     26859     26857     26860     26860     26861     26860     26862
     26860     26863     26863     26864     26863     26865     26865     26866
     26865     26867     26867     26868     26867     26869     26867     26870
     26870     26871     26870     26872     26870     26873     26873     26874
     26873     26875     26873     26876     26876     26877     26876     26878
     26876     26879     26879     26880     26879     26881     26879     26882
     26882     26883     26882     26884     26882     26885     26885     26886
     26885     26887     26885     26888     26888     26889     26888     26890
     26888     26891     26839     26840     26840     26842     26840     26841
     26842     26843     26842     26844     26842     26892     26892     26893
     26892     26894     26892     26895     26895     26896     26895     26897
     26895     26898     26898     26899     26898     26900     26898     26901
     26901     26902     26901     26903     26901     26904     26904     26905
     26904     26906     26904     26907     26907     26908     26907     26909
     26907     26910     26910     26911     26910     26912     26910     26913
     26913     26914     26913     26915     26913     26916     26916     26917
     26916     26918     26916     26919     26919     26920     26919     26921
     26919     26922     26922     26923     26922     26924     26922     26925
     26925     26926     26925     26927     26925     26928     26928     26929
     26928     26930     26928     26931     26931     26932     26931     26933
     26931     26934     26935     26939     26935     26943     26935     26947
     26939     26940     26939     26941     26939     26942     26943     26944
     26943     26945     26943     26946     26947     26948     26947     26949
     26947     26950     26935     26936     26936     26937     26936     26938
     26936     26951     26951     26952     26951     26953     26951     26957
     26958     26959     26957     26954     26954     26958     26954     26955
     26954     26956     26959     26960     26959     26961     26959     26962
     26962     26963     26962     26970     26962     26964     26970     26971
     26970     26972     26970     26973     26964     26965     26965     26967
     26965     26966     26967     26968     26967     26969     26967     26979
     26979     26980     26979     26981     26979     26982     26982     26983
     26982     26984     26982     26985     26985     26986     26985     26987
     26985     26988     26988     26989     26988     26990     26988     26991
     26991     26992     26991     26993     26991     26994     26994     26995
     26994     26996     26994     26997     26997     26998     26997     26999
     26999     27000     26999     27001     27001     27002     27001     27003
     27001     27004     27004     27005     27004     27006     27004     27007
     27007     27008     27007     27009     27007     27010     27010     27011
     27010     27012     27010     27013     27013     27014     27013     27015
     27013     27016     27016     27017     27016     27018     27016     27019
     27019     27020     27019     27021     27019     27022     27022     27023
     27022     27024     27022     27025     26973     26974     26974     26976
     26974     26975     26976     26977     26976     26978     26976     27026
     27026     27027     27026     27028     27026     27029     27029     27030
     27029     27031     27029     27032     27032     27033     27032     27034
     27032     27035     27035     27036     27035     27037     27035     27038
     27038     27039     27038     27040     27038     27041     27041     27042
     27041     27043     27041     27044     27044     27045     27044     27046
     27044     27047     27047     27048     27047     27049     27047     27050
     27050     27051     27050     27052     27050     27053     27053     27054
     27053     27055     27053     27056     27056     27057     27056     27058
     27056     27059     27059     27060     27059     27061     27059     27062
     27062     27063     27062     27064     27062     27065     27065     27066
     27065     27067     27065     27068     27069     27073     27069     27077
     27069     27081     27073     27074     27073     27075     27073     27076
     27077     27078     27077     27079     27077     27080     27081     27082
     27081     27083     27081     27084     27069     27070     27070     27071
     27070     27072     27070     27085     27085     27086     27085     27087
     27085     27091     27092     27093     27091     27088     27088     27092
     27088     27089     27088     27090     27093     27094     27093     27095
     27093     27096     27096     27097     27096     27104     27096     27098
     27104     27105     27104     27106     27104     27107     27098     27099
     27099     27101     27099     27100     27101     27102     27101     27103
     27101     27113     27113     27114     27113     27115     27113     27116
     27116     27117     27116     27118     27116     27119     27119     27120
     27119     27121     27119     27122     27122     27123     27122     27124
     27122     27125     27125     27126     27125     27127     27125     27128
     27128     27129     27128     27130     27128     27131     27131     27132
     27131     27133     27133     27134     27133     27135     27135     27136
     27135     27137     27135     27138     27138     27139     27138     27140
     27138     27141     27141     27142     27141     27143     27141     27144
     27144     27145     27144     27146     27144     27147     27147     27148
     27147     27149     27147     27150     27150     27151     27150     27152
     27150     27153     27153     27154     27153     27155     27153     27156
     27156     27157     27156     27158     27156     27159     27107     27108
     27108     27110     27108     27109     27110     27111     27110     27112
     27110     27160     27160     27161     27160     27162     27160     27163
     27163     27164     27163     27165     27163     27166     27166     27167
     27166     27168     27166     27169     27169     27170     27169     27171
     27169     27172     27172     27173     27172     27174     27172     27175
     27175     27176     27175     27177     27175     27178     27178     27179
     27178     27180     27178     27181     27181     27182     27181     27183
     27181     27184     27184     27185     27184     27186     27184     27187
     27187     27188     27187     27189     27187     27190     27190     27191
     27190     27192     27190     27193     27193     27194     27193     27195
     27193     27196     27196     27197     27196     27198     27196     27199
     27199     27200     27199     27201     27199     27202     27203     27207
     27203     27211     27203     27215     27207     27208     27207     27209
     27207     27210     27211     27212     27211     27213     27211     27214
     27215     27216     27215     27217     27215     27218     27203     27204
     27204     27205     27204     27206     27204     27219     27219     27220
     27219     27221     27219     27225     27226     27227     27225     27222
     27222     27226     27222     27223     27222     27224     27227     27228
     27227     27229     27227     27230     27230     27231     27230     27238
     27230     27232     27238     27239     27238     27240     27238     27241
     27232     27233     27233     27235     27233     27234     27235     27236
     27235     27237     27235     27247     27247     27248     27247     27249
     27247     27250     27250     27251     27250     27252     27250     27253
     27253     27254     27253     27255     27253     27256     27256     27257
     27256     27258     27256     27259     27259     27260     27259     27261
     27259     27262     27262     27263     27262     27264     27262     27265
     27265     27266     27265     27267     27267     27268     27267     27269
     27269     27270     27269     27271     27269     27272     27272     27273
     27272     27274     27272     27275     27275     27276     27275     27277
     27275     27278     27278     27279     27278     27280     27278     27281
     27281     27282     27281     27283     27281     27284     27284     27285
     27284     27286     27284     27287     27287     27288     27287     27289
     27287     27290     27290     27291     27290     27292     27290     27293
     27241     27242     27242     27244     27242     27243     27244     27245
     27244     27246     27244     27294     27294     27295     27294     27296
     27294     27297     27297     27298     27297     27299     27297     27300
     27300     27301     27300     27302     27300     27303     27303     27304
     27303     27305     27303     27306     27306     27307     27306     27308
     27306     27309     27309     27310     27309     27311     27309     27312
     27312     27313     27312     27314     27312     27315     27315     27316
     27315     27317     27315     27318     27318     27319     27318     27320
     27318     27321     27321     27322     27321     27323     27321     27324
     27324     27325     27324     27326     27324     27327     27327     27328
     27327     27329     27327     27330     27330     27331     27330     27332
     27330     27333     27333     27334     27333     27335     27333     27336
     27337     27341     27337     27345     27337     27349     27341     27342
     27341     27343     27341     27344     27345     27346     27345     27347
     27345     27348     27349     27350     27349     27351     27349     27352
     27337     27338     27338     27339     27338     27340     27338     27353
     27353     27354     27353     27355     27353     27359     27360     27361
     27359     27356     27356     27360     27356     27357     27356     27358
     27361     27362     27361     27363     27361     27364     27364     27365
     27364     27372     27364     27366     27372     27373     27372     27374
     27372     27375     27366     27367     27367     27369     27367     27368
     27369     27370     27369     27371     27369     27381     27381     27382
     27381     27383     27381     27384     27384     27385     27384     27386
     27384     27387     27387     27388     27387     27389     27387     27390
     27390     27391     27390     27392     27390     27393     27393     27394
     27393     27395     27393     27396     27396     27397     27396     27398
     27396     27399     27399     27400     27399     27401     27401     27402
     27401     27403     27403     27404     27403     27405     27403     27406
     27406     27407     27406     27408     27406     27409     27409     27410
     27409     27411     27409     27412     27412     27413     27412     27414
     27412     27415     27415     27416     27415     27417     27415     27418
     27418     27419     27418     27420     27418     27421     27421     27422
     27421     27423     27421     27424     27424     27425     27424     27426
     27424     27427     27375     27376     27376     27378     27376     27377
     27378     27379     27378     27380     27378     27428     27428     27429
     27428     27430     27428     27431     27431     27432     27431     27433
     27431     27434     27434     27435     27434     27436     27434     27437
     27437     27438     27437     27439     27437     27440     27440     27441
     27440     27442     27440     27443     27443     27444     27443     27445
     27443     27446     27446     27447     27446     27448     27446     27449
     27449     27450     27449     27451     27449     27452     27452     27453
     27452     27454     27452     27455     27455     27456     27455     27457
     27455     27458     27458     27459     27458     27460     27458     27461
     27461     27462     27461     27463     27461     27464     27464     27465
     27464     27466     27464     27467     27467     27468     27467     27469
     27467     27470     27471     27475     27471     27479     27471     27483
     27475     27476     27475     27477     27475     27478     27479     27480
     27479     27481     27479     27482     27483     27484     27483     27485
     27483     27486     27471     27472     27472     27473     27472     27474
     27472     27487     27487     27488     27487     27489     27487     27493
     27494     27495     27493     27490     27490     27494     27490     27491
     27490     27492     27495     27496     27495     27497     27495     27498
     27498     27499     27498     27506     27498     27500     27506     27507
     27506     27508     27506     27509     27500     27501     27501     27503
     27501     27502     27503     27504     27503     27505     27503     27515
     27515     27516     27515     27517     27515     27518     27518     27519
     27518     27520     27518     27521     27521     27522     27521     27523
     27521     27524     27524     27525     27524     27526     27524     27527
     27527     27528     27527     27529     27527     27530     27530     27531
     27530     27532     27530     27533     27533     27534     27533     27535
     27535     27536     27535     27537     27537     27538     27537     27539
     27537     27540     27540     27541     27540     27542     27540     27543
     27543     27544     27543     27545     27543     27546     27546     27547
     27546     27548     27546     27549     27549     27550     27549     27551
     27549     27552     27552     27553     27552     27554     27552     27555
     27555     27556     27555     27557     27555     27558     27558     27559
     27558     27560     27558     27561     27509     27510     27510     27512
     27510     27511     27512     27513     27512     27514     27512     27562
     27562     27563     27562     27564     27562     27565     27565     27566
     27565     27567     27565     27568     27568     27569     27568     27570
     27568     27571     27571     27572     27571     27573     27571     27574
     27574     27575     27574     27576     27574     27577     27577     27578
     27577     27579     27577     27580     27580     27581     27580     27582
     27580     27583     27583     27584     27583     27585     27583     27586
     27586     27587     27586     27588     27586     27589     27589     27590
     27589     27591     27589     27592     27592     27593     27592     27594
     27592     27595     27595     27596     27595     27597     27595     27598
     27598     27599     27598     27600     27598     27601     27601     27602
     27601     27603     27601     27604     27605     27609     27605     27613
     27605     27617     27609     27610     27609     27611     27609     27612
     27613     27614     27613     27615     27613     27616     27617     27618
     27617     27619     27617     27620     27605     27606     27606     27607
     27606     27608     27606     27621     27621     27622     27621     27623
     27621     27627     27628     27629     27627     27624     27624     27628
     27624     27625     27624     27626     27629     27630     27629     27631
     27629     27632     27632     27633     27632     27640     27632     27634
     27640     27641     27640     27642     27640     27643     27634     27635
     27635     27637     27635     27636     27637     27638     27637     27639
     27637     27649     27649     27650     27649     27651     27649     27652
     27652     27653     27652     27654     27652     27655     27655     27656
     27655     27657     27655     27658     27658     27659     27658     27660
     27658     27661     27661     27662     27661     27663     27661     27664
     27664     27665     27664     27666     27664     27667     27667     27668
     27667     27669     27669     27670     27669     27671     27671     27672
     27671     27673     27671     27674     27674     27675     27674     27676
     27674     27677     27677     27678     27677     27679     27677     27680
     27680     27681     27680     27682     27680     27683     27683     27684
     27683     27685     27683     27686     27686     27687     27686     27688
     27686     27689     27689     27690     27689     27691     27689     27692
     27692     27693     27692     27694     27692     27695     27643     27644
     27644     27646     27644     27645     27646     27647     27646     27648
     27646     27696     27696     27697     27696     27698     27696     27699
     27699     27700     27699     27701     27699     27702     27702     27703
     27702     27704     27702     27705     27705     27706     27705     27707
     27705     27708     27708     27709     27708     27710     27708     27711
     27711     27712     27711     27713     27711     27714     27714     27715
     27714     27716     27714     27717     27717     27718     27717     27719
     27717     27720     27720     27721     27720     27722     27720     27723
     27723     27724     27723     27725     27723     27726     27726     27727
     27726     27728     27726     27729     27729     27730     27729     27731
     27729     27732     27732     27733     27732     27734     27732     27735
     27735     27736     27735     27737     27735     27738     27739     27743
     27739     27747     27739     27751     27743     27744     27743     27745
     27743     27746     27747     27748     27747     27749     27747     27750
     27751     27752     27751     27753     27751     27754     27739     27740
     27740     27741     27740     27742     27740     27755     27755     27756
     27755     27757     27755     27761     27762     27763     27761     27758
     27758     27762     27758     27759     27758     27760     27763     27764
     27763     27765     27763     27766     27766     27767     27766     27774
     27766     27768     27774     27775     27774     27776     27774     27777
     27768     27769     27769     27771     27769     27770     27771     27772
     27771     27773     27771     27783     27783     27784     27783     27785
     27783     27786     27786     27787     27786     27788     27786     27789
     27789     27790     27789     27791     27789     27792     27792     27793
     27792     27794     27792     27795     27795     27796     27795     27797
     27795     27798     27798     27799     27798     27800     27798     27801
     27801     27802     27801     27803     27803     27804     27803     27805
     27805     27806     27805     27807     27805     27808     27808     27809
     27808     27810     27808     27811     27811     27812     27811     27813
     27811     27814     27814     27815     27814     27816     27814     27817
     27817     27818     27817     27819     27817     27820     27820     27821
     27820     27822     27820     27823     27823     27824     27823     27825
     27823     27826     27826     27827     27826     27828     27826     27829
     27777     27778     27778     27780     27778     27779     27780     27781
     27780     27782     27780     27830     27830     27831     27830     27832
     27830     27833     27833     27834     27833     27835     27833     27836
     27836     27837     27836     27838     27836     27839     27839     27840
     27839     27841     27839     27842     27842     27843     27842     27844
     27842     27845     27845     27846     27845     27847     27845     27848
     27848     27849     27848     27850     27848     27851     27851     27852
     27851     27853     27851     27854     27854     27855     27854     27856
     27854     27857     27857     27858     27857     27859     27857     27860
     27860     27861     27860     27862     27860     27863     27863     27864
     27863     27865     27863     27866     27866     27867     27866     27868
     27866     27869     27869     27870     27869     27871     27869     27872
     27873     27877     27873     27881     27873     27885     27877     27878
     27877     27879     27877     27880     27881     27882     27881     27883
     27881     27884     27885     27886     27885     27887     27885     27888
     27873     27874     27874     27875     27874     27876     27874     27889
     27889     27890     27889     27891     27889     27895     27896     27897
     27895     27892     27892     27896     27892     27893     27892     27894
     27897     27898     27897     27899     27897     27900     27900     27901
     27900     27908     27900     27902     27908     27909     27908     27910
     27908     27911     27902     27903     27903     27905     27903     27904
     27905     27906     27905     27907     27905     27917     27917     27918
     27917     27919     27917     27920     27920     27921     27920     27922
     27920     27923     27923     27924     27923     27925     27923     27926
     27926     27927     27926     27928     27926     27929     27929     27930
     27929     27931     27929     27932     27932     27933     27932     27934
     27932     27935     27935     27936     27935     27937     27937     27938
     27937     27939     27939     27940     27939     27941     27939     27942
     27942     27943     27942     27944     27942     27945     27945     27946
     27945     27947     27945     27948     27948     27949     27948     27950
     27948     27951     27951     27952     27951     27953     27951     27954
     27954     27955     27954     27956     27954     27957     27957     27958
     27957     27959     27957     27960     27960     27961     27960     27962
     27960     27963     27911     27912     27912     27914     27912     27913
     27914     27915     27914     27916     27914     27964     27964     27965
     27964     27966     27964     27967     27967     27968     27967     27969
     27967     27970     27970     27971     27970     27972     27970     27973
     27973     27974     27973     27975     27973     27976     27976     27977
     27976     27978     27976     27979     27979     27980     27979     27981
     27979     27982     27982     27983     27982     27984     27982     27985
     27985     27986     27985     27987     27985     27988     27988     27989
     27988     27990     27988     27991     27991     27992     27991     27993
     27991     27994     27994     27995     27994     27996     27994     27997
     27997     27998     27997     27999     27997     28000     28000     28001
     28000     28002     28000     28003     28003     28004     28003     28005
     28003     28006     28007     28011     28007     28015     28007     28019
     28011     28012     28011     28013     28011     28014     28015     28016
     28015     28017     28015     28018     28019     28020     28019     28021
     28019     28022     28007     28008     28008     28009     28008     28010
     28008     28023     28023     28024     28023     28025     28023     28029
     28030     28031     28029     28026     28026     28030     28026     28027
     28026     28028     28031     28032     28031     28033     28031     28034
     28034     28035     28034     28042     28034     28036     28042     28043
     28042     28044     28042     28045     28036     28037     28037     28039
     28037     28038     28039     28040     28039     28041     28039     28051
     28051     28052     28051     28053     28051     28054     28054     28055
     28054     28056     28054     28057     28057     28058     28057     28059
     28057     28060     28060     28061     28060     28062     28060     28063
     28063     28064     28063     28065     28063     28066     28066     28067
     28066     28068     28066     28069     28069     28070     28069     28071
     28071     28072     28071     28073     28073     28074     28073     28075
     28073     28076     28076     28077     28076     28078     28076     28079
     28079     28080     28079     28081     28079     28082     28082     28083
     28082     28084     28082     28085     28085     28086     28085     28087
     28085     28088     28088     28089     28088     28090     28088     28091
     28091     28092     28091     28093     28091     28094     28094     28095
     28094     28096     28094     28097     28045     28046     28046     28048
     28046     28047     28048     28049     28048     28050     28048     28098
     28098     28099     28098     28100     28098     28101     28101     28102
     28101     28103     28101     28104     28104     28105     28104     28106
     28104     28107     28107     28108     28107     28109     28107     28110
     28110     28111     28110     28112     28110     28113     28113     28114
     28113     28115     28113     28116     28116     28117     28116     28118
     28116     28119     28119     28120     28119     28121     28119     28122
     28122     28123     28122     28124     28122     28125     28125     28126
     28125     28127     28125     28128     28128     28129     28128     28130
     28128     28131     28131     28132     28131     28133     28131     28134
     28134     28135     28134     28136     28134     28137     28137     28138
     28137     28139     28137     28140     28141     28145     28141     28149
     28141     28153     28145     28146     28145     28147     28145     28148
     28149     28150     28149     28151     28149     28152     28153     28154
     28153     28155     28153     28156     28141     28142     28142     28143
     28142     28144     28142     28157     28157     28158     28157     28159
     28157     28163     28164     28165     28163     28160     28160     28164
     28160     28161     28160     28162     28165     28166     28165     28167
     28165     28168     28168     28169     28168     28176     28168     28170
     28176     28177     28176     28178     28176     28179     28170     28171
     28171     28173     28171     28172     28173     28174     28173     28175
     28173     28185     28185     28186     28185     28187     28185     28188
     28188     28189     28188     28190     28188     28191     28191     28192
     28191     28193     28191     28194     28194     28195     28194     28196
     28194     28197     28197     28198     28197     28199     28197     28200
     28200     28201     28200     28202     28200     28203     28203     28204
     28203     28205     28205     28206     28205     28207     28207     28208
     28207     28209     28207     28210     28210     28211     28210     28212
     28210     28213     28213     28214     28213     28215     28213     28216
     28216     28217     28216     28218     28216     28219     28219     28220
     28219     28221     28219     28222     28222     28223     28222     28224
     28222     28225     28225     28226     28225     28227     28225     28228
     28228     28229     28228     28230     28228     28231     28179     28180
     28180     28182     28180     28181     28182     28183     28182     28184
     28182     28232     28232     28233     28232     28234     28232     28235
     28235     28236     28235     28237     28235     28238     28238     28239
     28238     28240     28238     28241     28241     28242     28241     28243
     28241     28244     28244     28245     28244     28246     28244     28247
     28247     28248     28247     28249     28247     28250     28250     28251
     28250     28252     28250     28253     28253     28254     28253     28255
     28253     28256     28256     28257     28256     28258     28256     28259
     28259     28260     28259     28261     28259     28262     28262     28263
     28262     28264     28262     28265     28265     28266     28265     28267
     28265     28268     28268     28269     28268     28270     28268     28271
     28271     28272     28271     28273     28271     28274     28275     28279
     28275     28283     28275     28287     28279     28280     28279     28281
     28279     28282     28283     28284     28283     28285     28283     28286
     28287     28288     28287     28289     28287     28290     28275     28276
     28276     28277     28276     28278     28276     28291     28291     28292
     28291     28293     28291     28297     28298     28299     28297     28294
     28294     28298     28294     28295     28294     28296     28299     28300
     28299     28301     28299     28302     28302     28303     28302     28310
     28302     28304     28310     28311     28310     28312     28310     28313
     28304     28305     28305     28307     28305     28306     28307     28308
     28307     28309     28307     28319     28319     28320     28319     28321
     28319     28322     28322     28323     28322     28324     28322     28325
     28325     28326     28325     28327     28325     28328     28328     28329
     28328     28330     28328     28331     28331     28332     28331     28333
     28331     28334     28334     28335     28334     28336     28334     28337
     28337     28338     28337     28339     28339     28340     28339     28341
     28341     28342     28341     28343     28341     28344     28344     28345
     28344     28346     28344     28347     28347     28348     28347     28349
     28347     28350     28350     28351     28350     28352     28350     28353
     28353     28354     28353     28355     28353     28356     28356     28357
     28356     28358     28356     28359     28359     28360     28359     28361
     28359     28362     28362     28363     28362     28364     28362     28365
     28313     28314     28314     28316     28314     28315     28316     28317
     28316     28318     28316     28366     28366     28367     28366     28368
     28366     28369     28369     28370     28369     28371     28369     28372
     28372     28373     28372     28374     28372     28375     28375     28376
     28375     28377     28375     28378     28378     28379     28378     28380
     28378     28381     28381     28382     28381     28383     28381     28384
     28384     28385     28384     28386     28384     28387     28387     28388
     28387     28389     28387     28390     28390     28391     28390     28392
     28390     28393     28393     28394     28393     28395     28393     28396
     28396     28397     28396     28398     28396     28399     28399     28400
     28399     28401     28399     28402     28402     28403     28402     28404
     28402     28405     28405     28406     28405     28407     28405     28408
     28409     28413     28409     28417     28409     28421     28413     28414
     28413     28415     28413     28416     28417     28418     28417     28419
     28417     28420     28421     28422     28421     28423     28421     28424
     28409     28410     28410     28411     28410     28412     28410     28425
     28425     28426     28425     28427     28425     28431     28432     28433
     28431     28428     28428     28432     28428     28429     28428     28430
     28433     28434     28433     28435     28433     28436     28436     28437
     28436     28444     28436     28438     28444     28445     28444     28446
     28444     28447     28438     28439     28439     28441     28439     28440
     28441     28442     28441     28443     28441     28453     28453     28454
     28453     28455     28453     28456     28456     28457     28456     28458
     28456     28459     28459     28460     28459     28461     28459     28462
     28462     28463     28462     28464     28462     28465     28465     28466
     28465     28467     28465     28468     28468     28469     28468     28470
     28468     28471     28471     28472     28471     28473     28473     28474
     28473     28475     28475     28476     28475     28477     28475     28478
     28478     28479     28478     28480     28478     28481     28481     28482
     28481     28483     28481     28484     28484     28485     28484     28486
     28484     28487     28487     28488     28487     28489     28487     28490
     28490     28491     28490     28492     28490     28493     28493     28494
     28493     28495     28493     28496     28496     28497     28496     28498
     28496     28499     28447     28448     28448     28450     28448     28449
     28450     28451     28450     28452     28450     28500     28500     28501
     28500     28502     28500     28503     28503     28504     28503     28505
     28503     28506     28506     28507     28506     28508     28506     28509
     28509     28510     28509     28511     28509     28512     28512     28513
     28512     28514     28512     28515     28515     28516     28515     28517
     28515     28518     28518     28519     28518     28520     28518     28521
     28521     28522     28521     28523     28521     28524     28524     28525
     28524     28526     28524     28527     28527     28528     28527     28529
     28527     28530     28530     28531     28530     28532     28530     28533
     28533     28534     28533     28535     28533     28536     28536     28537
     28536     28538     28536     28539     28539     28540     28539     28541
     28539     28542     28543     28547     28543     28551     28543     28555
     28547     28548     28547     28549     28547     28550     28551     28552
     28551     28553     28551     28554     28555     28556     28555     28557
     28555     28558     28543     28544     28544     28545     28544     28546
     28544     28559     28559     28560     28559     28561     28559     28565
     28566     28567     28565     28562     28562     28566     28562     28563
     28562     28564     28567     28568     28567     28569     28567     28570
     28570     28571     28570     28578     28570     28572     28578     28579
     28578     28580     28578     28581     28572     28573     28573     28575
     28573     28574     28575     28576     28575     28577     28575     28587
     28587     28588     28587     28589     28587     28590     28590     28591
     28590     28592     28590     28593     28593     28594     28593     28595
     28593     28596     28596     28597     28596     28598     28596     28599
     28599     28600     28599     28601     28599     28602     28602     28603
     28602     28604     28602     28605     28605     28606     28605     28607
     28607     28608     28607     28609     28609     28610     28609     28611
     28609     28612     28612     28613     28612     28614     28612     28615
     28615     28616     28615     28617     28615     28618     28618     28619
     28618     28620     28618     28621     28621     28622     28621     28623
     28621     28624     28624     28625     28624     28626     28624     28627
     28627     28628     28627     28629     28627     28630     28630     28631
     28630     28632     28630     28633     28581     28582     28582     28584
     28582     28583     28584     28585     28584     28586     28584     28634
     28634     28635     28634     28636     28634     28637     28637     28638
     28637     28639     28637     28640     28640     28641     28640     28642
     28640     28643     28643     28644     28643     28645     28643     28646
     28646     28647     28646     28648     28646     28649     28649     28650
     28649     28651     28649     28652     28652     28653     28652     28654
     28652     28655     28655     28656     28655     28657     28655     28658
     28658     28659     28658     28660     28658     28661     28661     28662
     28661     28663     28661     28664     28664     28665     28664     28666
     28664     28667     28667     28668     28667     28669     28667     28670
     28670     28671     28670     28672     28670     28673     28673     28674
     28673     28675     28673     28676     28677     28681     28677     28685
     28677     28689     28681     28682     28681     28683     28681     28684
     28685     28686     28685     28687     28685     28688     28689     28690
     28689     28691     28689     28692     28677     28678     28678     28679
     28678     28680     28678     28693     28693     28694     28693     28695
     28693     28699     28700     28701     28699     28696     28696     28700
     28696     28697     28696     28698     28701     28702     28701     28703
     28701     28704     28704     28705     28704     28712     28704     28706
     28712     28713     28712     28714     28712     28715     28706     28707
     28707     28709     28707     28708     28709     28710     28709     28711
     28709     28721     28721     28722     28721     28723     28721     28724
     28724     28725     28724     28726     28724     28727     28727     28728
     28727     28729     28727     28730     28730     28731     28730     28732
     28730     28733     28733     28734     28733     28735     28733     28736
     28736     28737     28736     28738     28736     28739     28739     28740
     28739     28741     28741     28742     28741     28743     28743     28744
     28743     28745     28743     28746     28746     28747     28746     28748
     28746     28749     28749     28750     28749     28751     28749     28752
     28752     28753     28752     28754     28752     28755     28755     28756
     28755     28757     28755     28758     28758     28759     28758     28760
     28758     28761     28761     28762     28761     28763     28761     28764
     28764     28765     28764     28766     28764     28767     28715     28716
     28716     28718     28716     28717     28718     28719     28718     28720
     28718     28768     28768     28769     28768     28770     28768     28771
     28771     28772     28771     28773     28771     28774     28774     28775
     28774     28776     28774     28777     28777     28778     28777     28779
     28777     28780     28780     28781     28780     28782     28780     28783
     28783     28784     28783     28785     28783     28786     28786     28787
     28786     28788     28786     28789     28789     28790     28789     28791
     28789     28792     28792     28793     28792     28794     28792     28795
     28795     28796     28795     28797     28795     28798     28798     28799
     28798     28800     28798     28801     28801     28802     28801     28803
     28801     28804     28804     28805     28804     28806     28804     28807
     28807     28808     28807     28809     28807     28810     28811     28815
     28811     28819     28811     28823     28815     28816     28815     28817
     28815     28818     28819     28820     28819     28821     28819     28822
     28823     28824     28823     28825     28823     28826     28811     28812
     28812     28813     28812     28814     28812     28827     28827     28828
     28827     28829     28827     28833     28834     28835     28833     28830
     28830     28834     28830     28831     28830     28832     28835     28836
     28835     28837     28835     28838     28838     28839     28838     28846
     28838     28840     28846     28847     28846     28848     28846     28849
     28840     28841     28841     28843     28841     28842     28843     28844
     28843     28845     28843     28855     28855     28856     28855     28857
     28855     28858     28858     28859     28858     28860     28858     28861
     28861     28862     28861     28863     28861     28864     28864     28865
     28864     28866     28864     28867     28867     28868     28867     28869
     28867     28870     28870     28871     28870     28872     28870     28873
     28873     28874     28873     28875     28875     28876     28875     28877
     28877     28878     28877     28879     28877     28880     28880     28881
     28880     28882     28880     28883     28883     28884     28883     28885
     28883     28886     28886     28887     28886     28888     28886     28889
     28889     28890     28889     28891     28889     28892     28892     28893
     28892     28894     28892     28895     28895     28896     28895     28897
     28895     28898     28898     28899     28898     28900     28898     28901
     28849     28850     28850     28852     28850     28851     28852     28853
     28852     28854     28852     28902     28902     28903     28902     28904
     28902     28905     28905     28906     28905     28907     28905     28908
     28908     28909     28908     28910     28908     28911     28911     28912
     28911     28913     28911     28914     28914     28915     28914     28916
     28914     28917     28917     28918     28917     28919     28917     28920
     28920     28921     28920     28922     28920     28923     28923     28924
     28923     28925     28923     28926     28926     28927     28926     28928
     28926     28929     28929     28930     28929     28931     28929     28932
     28932     28933     28932     28934     28932     28935     28935     28936
     28935     28937     28935     28938     28938     28939     28938     28940
     28938     28941     28941     28942     28941     28943     28941     28944
     28945     28949     28945     28953     28945     28957     28949     28950
     28949     28951     28949     28952     28953     28954     28953     28955
     28953     28956     28957     28958     28957     28959     28957     28960
     28945     28946     28946     28947     28946     28948     28946     28961
     28961     28962     28961     28963     28961     28967     28968     28969
     28967     28964     28964     28968     28964     28965     28964     28966
     28969     28970     28969     28971     28969     28972     28972     28973
     28972     28980     28972     28974     28980     28981     28980     28982
     28980     28983     28974     28975     28975     28977     28975     28976
     28977     28978     28977     28979     28977     28989     28989     28990
     28989     28991     28989     28992     28992     28993     28992     28994
     28992     28995     28995     28996     28995     28997     28995     28998
     28998     28999     28998     29000     28998     29001     29001     29002
     29001     29003     29001     29004     29004     29005     29004     29006
     29004     29007     29007     29008     29007     29009     29009     29010
     29009     29011     29011     29012     29011     29013     29011     29014
     29014     29015     29014     29016     29014     29017     29017     29018
     29017     29019     29017     29020     29020     29021     29020     29022
     29020     29023     29023     29024     29023     29025     29023     29026
     29026     29027     29026     29028     29026     29029     29029     29030
     29029     29031     29029     29032     29032     29033     29032     29034
     29032     29035     28983     28984     28984     28986     28984     28985
     28986     28987     28986     28988     28986     29036     29036     29037
     29036     29038     29036     29039     29039     29040     29039     29041
     29039     29042     29042     29043     29042     29044     29042     29045
     29045     29046     29045     29047     29045     29048     29048     29049
     29048     29050     29048     29051     29051     29052     29051     29053
     29051     29054     29054     29055     29054     29056     29054     29057
     29057     29058     29057     29059     29057     29060     29060     29061
     29060     29062     29060     29063     29063     29064     29063     29065
     29063     29066     29066     29067     29066     29068     29066     29069
     29069     29070     29069     29071     29069     29072     29072     29073
     29072     29074     29072     29075     29075     29076     29075     29077
     29075     29078     29079     29083     29079     29087     29079     29091
     29083     29084     29083     29085     29083     29086     29087     29088
     29087     29089     29087     29090     29091     29092     29091     29093
     29091     29094     29079     29080     29080     29081     29080     29082
     29080     29095     29095     29096     29095     29097     29095     29101
     29102     29103     29101     29098     29098     29102     29098     29099
     29098     29100     29103     29104     29103     29105     29103     29106
     29106     29107     29106     29114     29106     29108     29114     29115
     29114     29116     29114     29117     29108     29109     29109     29111
     29109     29110     29111     29112     29111     29113     29111     29123
     29123     29124     29123     29125     29123     29126     29126     29127
     29126     29128     29126     29129     29129     29130     29129     29131
     29129     29132     29132     29133     29132     29134     29132     29135
     29135     29136     29135     29137     29135     29138     29138     29139
     29138     29140     29138     29141     29141     29142     29141     29143
     29143     29144     29143     29145     29145     29146     29145     29147
     29145     29148     29148     29149     29148     29150     29148     29151
     29151     29152     29151     29153     29151     29154     29154     29155
     29154     29156     29154     29157     29157     29158     29157     29159
     29157     29160     29160     29161     29160     29162     29160     29163
     29163     29164     29163     29165     29163     29166     29166     29167
     29166     29168     29166     29169     29117     29118     29118     29120
     29118     29119     29120     29121     29120     29122     29120     29170
     29170     29171     29170     29172     29170     29173     29173     29174
     29173     29175     29173     29176     29176     29177     29176     29178
     29176     29179     29179     29180     29179     29181     29179     29182
     29182     29183     29182     29184     29182     29185     29185     29186
     29185     29187     29185     29188     29188     29189     29188     29190
     29188     29191     29191     29192     29191     29193     29191     29194
     29194     29195     29194     29196     29194     29197     29197     29198
     29197     29199     29197     29200     29200     29201     29200     29202
     29200     29203     29203     29204     29203     29205     29203     29206
     29206     29207     29206     29208     29206     29209     29209     29210
     29209     29211     29209     29212     29213     29217     29213     29221
     29213     29225     29217     29218     29217     29219     29217     29220
     29221     29222     29221     29223     29221     29224     29225     29226
     29225     29227     29225     29228     29213     29214     29214     29215
     29214     29216     29214     29229     29229     29230     29229     29231
     29229     29235     29236     29237     29235     29232     29232     29236
     29232     29233     29232     29234     29237     29238     29237     29239
     29237     29240     29240     29241     29240     29248     29240     29242
     29248     29249     29248     29250     29248     29251     29242     29243
     29243     29245     29243     29244     29245     29246     29245     29247
     29245     29257     29257     29258     29257     29259     29257     29260
     29260     29261     29260     29262     29260     29263     29263     29264
     29263     29265     29263     29266     29266     29267     29266     29268
     29266     29269     29269     29270     29269     29271     29269     29272
     29272     29273     29272     29274     29272     29275     29275     29276
     29275     29277     29277     29278     29277     29279     29279     29280
     29279     29281     29279     29282     29282     29283     29282     29284
     29282     29285     29285     29286     29285     29287     29285     29288
     29288     29289     29288     29290     29288     29291     29291     29292
     29291     29293     29291     29294     29294     29295     29294     29296
     29294     29297     29297     29298     29297     29299     29297     29300
     29300     29301     29300     29302     29300     29303     29251     29252
     29252     29254     29252     29253     29254     29255     29254     29256
     29254     29304     29304     29305     29304     29306     29304     29307
     29307     29308     29307     29309     29307     29310     29310     29311
     29310     29312     29310     29313     29313     29314     29313     29315
     29313     29316     29316     29317     29316     29318     29316     29319
     29319     29320     29319     29321     29319     29322     29322     29323
     29322     29324     29322     29325     29325     29326     29325     29327
     29325     29328     29328     29329     29328     29330     29328     29331
     29331     29332     29331     29333     29331     29334     29334     29335
     29334     29336     29334     29337     29337     29338     29337     29339
     29337     29340     29340     29341     29340     29342     29340     29343
     29343     29344     29343     29345     29343     29346     29347     29351
     29347     29355     29347     29359     29351     29352     29351     29353
     29351     29354     29355     29356     29355     29357     29355     29358
     29359     29360     29359     29361     29359     29362     29347     29348
     29348     29349     29348     29350     29348     29363     29363     29364
     29363     29365     29363     29369     29370     29371     29369     29366
     29366     29370     29366     29367     29366     29368     29371     29372
     29371     29373     29371     29374     29374     29375     29374     29382
     29374     29376     29382     29383     29382     29384     29382     29385
     29376     29377     29377     29379     29377     29378     29379     29380
     29379     29381     29379     29391     29391     29392     29391     29393
     29391     29394     29394     29395     29394     29396     29394     29397
     29397     29398     29397     29399     29397     29400     29400     29401
     29400     29402     29400     29403     29403     29404     29403     29405
     29403     29406     29406     29407     29406     29408     29406     29409
     29409     29410     29409     29411     29411     29412     29411     29413
     29413     29414     29413     29415     29413     29416     29416     29417
     29416     29418     29416     29419     29419     29420     29419     29421
     29419     29422     29422     29423     29422     29424     29422     29425
     29425     29426     29425     29427     29425     29428     29428     29429
     29428     29430     29428     29431     29431     29432     29431     29433
     29431     29434     29434     29435     29434     29436     29434     29437
     29385     29386     29386     29388     29386     29387     29388     29389
     29388     29390     29388     29438     29438     29439     29438     29440
     29438     29441     29441     29442     29441     29443     29441     29444
     29444     29445     29444     29446     29444     29447     29447     29448
     29447     29449     29447     29450     29450     29451     29450     29452
     29450     29453     29453     29454     29453     29455     29453     29456
     29456     29457     29456     29458     29456     29459     29459     29460
     29459     29461     29459     29462     29462     29463     29462     29464
     29462     29465     29465     29466     29465     29467     29465     29468
     29468     29469     29468     29470     29468     29471     29471     29472
     29471     29473     29471     29474     29474     29475     29474     29476
     29474     29477     29477     29478     29477     29479     29477     29480
     29481     29485     29481     29489     29481     29493     29485     29486
     29485     29487     29485     29488     29489     29490     29489     29491
     29489     29492     29493     29494     29493     29495     29493     29496
     29481     29482     29482     29483     29482     29484     29482     29497
     29497     29498     29497     29499     29497     29503     29504     29505
     29503     29500     29500     29504     29500     29501     29500     29502
     29505     29506     29505     29507     29505     29508     29508     29509
     29508     29516     29508     29510     29516     29517     29516     29518
     29516     29519     29510     29511     29511     29513     29511     29512
     29513     29514     29513     29515     29513     29525     29525     29526
     29525     29527     29525     29528     29528     29529     29528     29530
     29528     29531     29531     29532     29531     29533     29531     29534
     29534     29535     29534     29536     29534     29537     29537     29538
     29537     29539     29537     29540     29540     29541     29540     29542
     29540     29543     29543     29544     29543     29545     29545     29546
     29545     29547     29547     29548     29547     29549     29547     29550
     29550     29551     29550     29552     29550     29553     29553     29554
     29553     29555     29553     29556     29556     29557     29556     29558
     29556     29559     29559     29560     29559     29561     29559     29562
     29562     29563     29562     29564     29562     29565     29565     29566
     29565     29567     29565     29568     29568     29569     29568     29570
     29568     29571     29519     29520     29520     29522     29520     29521
     29522     29523     29522     29524     29522     29572     29572     29573
     29572     29574     29572     29575     29575     29576     29575     29577
     29575     29578     29578     29579     29578     29580     29578     29581
     29581     29582     29581     29583     29581     29584     29584     29585
     29584     29586     29584     29587     29587     29588     29587     29589
     29587     29590     29590     29591     29590     29592     29590     29593
     29593     29594     29593     29595     29593     29596     29596     29597
     29596     29598     29596     29599     29599     29600     29599     29601
     29599     29602     29602     29603     29602     29604     29602     29605
     29605     29606     29605     29607     29605     29608     29608     29609
     29608     29610     29608     29611     29611     29612     29611     29613
     29611     29614     29615     29619     29615     29623     29615     29627
     29619     29620     29619     29621     29619     29622     29623     29624
     29623     29625     29623     29626     29627     29628     29627     29629
     29627     29630     29615     29616     29616     29617     29616     29618
     29616     29631     29631     29632     29631     29633     29631     29637
     29638     29639     29637     29634     29634     29638     29634     29635
     29634     29636     29639     29640     29639     29641     29639     29642
     29642     29643     29642     29650     29642     29644     29650     29651
     29650     29652     29650     29653     29644     29645     29645     29647
     29645     29646     29647     29648     29647     29649     29647     29659
     29659     29660     29659     29661     29659     29662     29662     29663
     29662     29664     29662     29665     29665     29666     29665     29667
     29665     29668     29668     29669     29668     29670     29668     29671
     29671     29672     29671     29673     29671     29674     29674     29675
     29674     29676     29674     29677     29677     29678     29677     29679
     29679     29680     29679     29681     29681     29682     29681     29683
     29681     29684     29684     29685     29684     29686     29684     29687
     29687     29688     29687     29689     29687     29690     29690     29691
     29690     29692     29690     29693     29693     29694     29693     29695
     29693     29696     29696     29697     29696     29698     29696     29699
     29699     29700     29699     29701     29699     29702     29702     29703
     29702     29704     29702     29705     29653     29654     29654     29656
     29654     29655     29656     29657     29656     29658     29656     29706
     29706     29707     29706     29708     29706     29709     29709     29710
     29709     29711     29709     29712     29712     29713     29712     29714
     29712     29715     29715     29716     29715     29717     29715     29718
     29718     29719     29718     29720     29718     29721     29721     29722
     29721     29723     29721     29724     29724     29725     29724     29726
     29724     29727     29727     29728     29727     29729     29727     29730
     29730     29731     29730     29732     29730     29733     29733     29734
     29733     29735     29733     29736     29736     29737     29736     29738
     29736     29739     29739     29740     29739     29741     29739     29742
     29742     29743     29742     29744     29742     29745     29745     29746
     29745     29747     29745     29748     29749     29753     29749     29757
     29749     29761     29753     29754     29753     29755     29753     29756
     29757     29758     29757     29759     29757     29760     29761     29762
     29761     29763     29761     29764     29749     29750     29750     29751
     29750     29752     29750     29765     29765     29766     29765     29767
     29765     29771     29772     29773     29771     29768     29768     29772
     29768     29769     29768     29770     29773     29774     29773     29775
     29773     29776     29776     29777     29776     29784     29776     29778
     29784     29785     29784     29786     29784     29787     29778     29779
     29779     29781     29779     29780     29781     29782     29781     29783
     29781     29793     29793     29794     29793     29795     29793     29796
     29796     29797     29796     29798     29796     29799     29799     29800
     29799     29801     29799     29802     29802     29803     29802     29804
     29802     29805     29805     29806     29805     29807     29805     29808
     29808     29809     29808     29810     29808     29811     29811     29812
     29811     29813     29813     29814     29813     29815     29815     29816
     29815     29817     29815     29818     29818     29819     29818     29820
     29818     29821     29821     29822     29821     29823     29821     29824
     29824     29825     29824     29826     29824     29827     29827     29828
     29827     29829     29827     29830     29830     29831     29830     29832
     29830     29833     29833     29834     29833     29835     29833     29836
     29836     29837     29836     29838     29836     29839     29787     29788
     29788     29790     29788     29789     29790     29791     29790     29792
     29790     29840     29840     29841     29840     29842     29840     29843
     29843     29844     29843     29845     29843     29846     29846     29847
     29846     29848     29846     29849     29849     29850     29849     29851
     29849     29852     29852     29853     29852     29854     29852     29855
     29855     29856     29855     29857     29855     29858     29858     29859
     29858     29860     29858     29861     29861     29862     29861     29863
     29861     29864     29864     29865     29864     29866     29864     29867
     29867     29868     29867     29869     29867     29870     29870     29871
     29870     29872     29870     29873     29873     29874     29873     29875
     29873     29876     29876     29877     29876     29878     29876     29879
     29879     29880     29879     29881     29879     29882     29883     29887
     29883     29891     29883     29895     29887     29888     29887     29889
     29887     29890     29891     29892     29891     29893     29891     29894
     29895     29896     29895     29897     29895     29898     29883     29884
     29884     29885     29884     29886     29884     29899     29899     29900
     29899     29901     29899     29905     29906     29907     29905     29902
     29902     29906     29902     29903     29902     29904     29907     29908
     29907     29909     29907     29910     29910     29911     29910     29918
     29910     29912     29918     29919     29918     29920     29918     29921
     29912     29913     29913     29915     29913     29914     29915     29916
     29915     29917     29915     29927     29927     29928     29927     29929
     29927     29930     29930     29931     29930     29932     29930     29933
     29933     29934     29933     29935     29933     29936     29936     29937
     29936     29938     29936     29939     29939     29940     29939     29941
     29939     29942     29942     29943     29942     29944     29942     29945
     29945     29946     29945     29947     29947     29948     29947     29949
     29949     29950     29949     29951     29949     29952     29952     29953
     29952     29954     29952     29955     29955     29956     29955     29957
     29955     29958     29958     29959     29958     29960     29958     29961
     29961     29962     29961     29963     29961     29964     29964     29965
     29964     29966     29964     29967     29967     29968     29967     29969
     29967     29970     29970     29971     29970     29972     29970     29973
     29921     29922     29922     29924     29922     29923     29924     29925
     29924     29926     29924     29974     29974     29975     29974     29976
     29974     29977     29977     29978     29977     29979     29977     29980
     29980     29981     29980     29982     29980     29983     29983     29984
     29983     29985     29983     29986     29986     29987     29986     29988
     29986     29989     29989     29990     29989     29991     29989     29992
     29992     29993     29992     29994     29992     29995     29995     29996
     29995     29997     29995     29998     29998     29999     29998     30000
     29998     30001     30001     30002     30001     30003     30001     30004
     30004     30005     30004     30006     30004     30007     30007     30008
     30007     30009     30007     30010     30010     30011     30010     30012
     30010     30013     30013     30014     30013     30015     30013     30016
     30017     30021     30017     30025     30017     30029     30021     30022
     30021     30023     30021     30024     30025     30026     30025     30027
     30025     30028     30029     30030     30029     30031     30029     30032
     30017     30018     30018     30019     30018     30020     30018     30033
     30033     30034     30033     30035     30033     30039     30040     30041
     30039     30036     30036     30040     30036     30037     30036     30038
     30041     30042     30041     30043     30041     30044     30044     30045
     30044     30052     30044     30046     30052     30053     30052     30054
     30052     30055     30046     30047     30047     30049     30047     30048
     30049     30050     30049     30051     30049     30061     30061     30062
     30061     30063     30061     30064     30064     30065     30064     30066
     30064     30067     30067     30068     30067     30069     30067     30070
     30070     30071     30070     30072     30070     30073     30073     30074
     30073     30075     30073     30076     30076     30077     30076     30078
     30076     30079     30079     30080     30079     30081     30081     30082
     30081     30083     30083     30084     30083     30085     30083     30086
     30086     30087     30086     30088     30086     30089     30089     30090
     30089     30091     30089     30092     30092     30093     30092     30094
     30092     30095     30095     30096     30095     30097     30095     30098
     30098     30099     30098     30100     30098     30101     30101     30102
     30101     30103     30101     30104     30104     30105     30104     30106
     30104     30107     30055     30056     30056     30058     30056     30057
     30058     30059     30058     30060     30058     30108     30108     30109
     30108     30110     30108     30111     30111     30112     30111     30113
     30111     30114     30114     30115     30114     30116     30114     30117
     30117     30118     30117     30119     30117     30120     30120     30121
     30120     30122     30120     30123     30123     30124     30123     30125
     30123     30126     30126     30127     30126     30128     30126     30129
     30129     30130     30129     30131     30129     30132     30132     30133
     30132     30134     30132     30135     30135     30136     30135     30137
     30135     30138     30138     30139     30138     30140     30138     30141
     30141     30142     30141     30143     30141     30144     30144     30145
     30144     30146     30144     30147     30147     30148     30147     30149
     30147     30150     30151     30155     30151     30159     30151     30163
     30155     30156     30155     30157     30155     30158     30159     30160
     30159     30161     30159     30162     30163     30164     30163     30165
     30163     30166     30151     30152     30152     30153     30152     30154
     30152     30167     30167     30168     30167     30169     30167     30173
     30174     30175     30173     30170     30170     30174     30170     30171
     30170     30172     30175     30176     30175     30177     30175     30178
     30178     30179     30178     30186     30178     30180     30186     30187
     30186     30188     30186     30189     30180     30181     30181     30183
     30181     30182     30183     30184     30183     30185     30183     30195
     30195     30196     30195     30197     30195     30198     30198     30199
     30198     30200     30198     30201     30201     30202     30201     30203
     30201     30204     30204     30205     30204     30206     30204     30207
     30207     30208     30207     30209     30207     30210     30210     30211
     30210     30212     30210     30213     30213     30214     30213     30215
     30215     30216     30215     30217     30217     30218     30217     30219
     30217     30220     30220     30221     30220     30222     30220     30223
     30223     30224     30223     30225     30223     30226     30226     30227
     30226     30228     30226     30229     30229     30230     30229     30231
     30229     30232     30232     30233     30232     30234     30232     30235
     30235     30236     30235     30237     30235     30238     30238     30239
     30238     30240     30238     30241     30189     30190     30190     30192
     30190     30191     30192     30193     30192     30194     30192     30242
     30242     30243     30242     30244     30242     30245     30245     30246
     30245     30247     30245     30248     30248     30249     30248     30250
     30248     30251     30251     30252     30251     30253     30251     30254
     30254     30255     30254     30256     30254     30257     30257     30258
     30257     30259     30257     30260     30260     30261     30260     30262
     30260     30263     30263     30264     30263     30265     30263     30266
     30266     30267     30266     30268     30266     30269     30269     30270
     30269     30271     30269     30272     30272     30273     30272     30274
     30272     30275     30275     30276     30275     30277     30275     30278
     30278     30279     30278     30280     30278     30281     30281     30282
     30281     30283     30281     30284     30285     30289     30285     30293
     30285     30297     30289     30290     30289     30291     30289     30292
     30293     30294     30293     30295     30293     30296     30297     30298
     30297     30299     30297     30300     30285     30286     30286     30287
     30286     30288     30286     30301     30301     30302     30301     30303
     30301     30307     30308     30309     30307     30304     30304     30308
     30304     30305     30304     30306     30309     30310     30309     30311
     30309     30312     30312     30313     30312     30320     30312     30314
     30320     30321     30320     30322     30320     30323     30314     30315
     30315     30317     30315     30316     30317     30318     30317     30319
     30317     30329     30329     30330     30329     30331     30329     30332
     30332     30333     30332     30334     30332     30335     30335     30336
     30335     30337     30335     30338     30338     30339     30338     30340
     30338     30341     30341     30342     30341     30343     30341     30344
     30344     30345     30344     30346     30344     30347     30347     30348
     30347     30349     30349     30350     30349     30351     30351     30352
     30351     30353     30351     30354     30354     30355     30354     30356
     30354     30357     30357     30358     30357     30359     30357     30360
     30360     30361     30360     30362     30360     30363     30363     30364
     30363     30365     30363     30366     30366     30367     30366     30368
     30366     30369     30369     30370     30369     30371     30369     30372
     30372     30373     30372     30374     30372     30375     30323     30324
     30324     30326     30324     30325     30326     30327     30326     30328
     30326     30376     30376     30377     30376     30378     30376     30379
     30379     30380     30379     30381     30379     30382     30382     30383
     30382     30384     30382     30385     30385     30386     30385     30387
     30385     30388     30388     30389     30388     30390     30388     30391
     30391     30392     30391     30393     30391     30394     30394     30395
     30394     30396     30394     30397     30397     30398     30397     30399
     30397     30400     30400     30401     30400     30402     30400     30403
     30403     30404     30403     30405     30403     30406     30406     30407
     30406     30408     30406     30409     30409     30410     30409     30411
     30409     30412     30412     30413     30412     30414     30412     30415
     30415     30416     30415     30417     30415     30418     30419     30423
     30419     30427     30419     30431     30423     30424     30423     30425
     30423     30426     30427     30428     30427     30429     30427     30430
     30431     30432     30431     30433     30431     30434     30419     30420
     30420     30421     30420     30422     30420     30435     30435     30436
     30435     30437     30435     30441     30442     30443     30441     30438
     30438     30442     30438     30439     30438     30440     30443     30444
     30443     30445     30443     30446     30446     30447     30446     30454
     30446     30448     30454     30455     30454     30456     30454     30457
     30448     30449     30449     30451     30449     30450     30451     30452
     30451     30453     30451     30463     30463     30464     30463     30465
     30463     30466     30466     30467     30466     30468     30466     30469
     30469     30470     30469     30471     30469     30472     30472     30473
     30472     30474     30472     30475     30475     30476     30475     30477
     30475     30478     30478     30479     30478     30480     30478     30481
     30481     30482     30481     30483     30483     30484     30483     30485
     30485     30486     30485     30487     30485     30488     30488     30489
     30488     30490     30488     30491     30491     30492     30491     30493
     30491     30494     30494     30495     30494     30496     30494     30497
     30497     30498     30497     30499     30497     30500     30500     30501
     30500     30502     30500     30503     30503     30504     30503     30505
     30503     30506     30506     30507     30506     30508     30506     30509
     30457     30458     30458     30460     30458     30459     30460     30461
     30460     30462     30460     30510     30510     30511     30510     30512
     30510     30513     30513     30514     30513     30515     30513     30516
     30516     30517     30516     30518     30516     30519     30519     30520
     30519     30521     30519     30522     30522     30523     30522     30524
     30522     30525     30525     30526     30525     30527     30525     30528
     30528     30529     30528     30530     30528     30531     30531     30532
     30531     30533     30531     30534     30534     30535     30534     30536
     30534     30537     30537     30538     30537     30539     30537     30540
     30540     30541     30540     30542     30540     30543     30543     30544
     30543     30545     30543     30546     30546     30547     30546     30548
     30546     30549     30549     30550     30549     30551     30549     30552
     30553     30557     30553     30561     30553     30565     30557     30558
     30557     30559     30557     30560     30561     30562     30561     30563
     30561     30564     30565     30566     30565     30567     30565     30568
     30553     30554     30554     30555     30554     30556     30554     30569
     30569     30570     30569     30571     30569     30575     30576     30577
     30575     30572     30572     30576     30572     30573     30572     30574
     30577     30578     30577     30579     30577     30580     30580     30581
     30580     30588     30580     30582     30588     30589     30588     30590
     30588     30591     30582     30583     30583     30585     30583     30584
     30585     30586     30585     30587     30585     30597     30597     30598
     30597     30599     30597     30600     30600     30601     30600     30602
     30600     30603     30603     30604     30603     30605     30603     30606
     30606     30607     30606     30608     30606     30609     30609     30610
     30609     30611     30609     30612     30612     30613     30612     30614
     30612     30615     30615     30616     30615     30617     30617     30618
     30617     30619     30619     30620     30619     30621     30619     30622
     30622     30623     30622     30624     30622     30625     30625     30626
     30625     30627     30625     30628     30628     30629     30628     30630
     30628     30631     30631     30632     30631     30633     30631     30634
     30634     30635     30634     30636     30634     30637     30637     30638
     30637     30639     30637     30640     30640     30641     30640     30642
     30640     30643     30591     30592     30592     30594     30592     30593
     30594     30595     30594     30596     30594     30644     30644     30645
     30644     30646     30644     30647     30647     30648     30647     30649
     30647     30650     30650     30651     30650     30652     30650     30653
     30653     30654     30653     30655     30653     30656     30656     30657
     30656     30658     30656     30659     30659     30660     30659     30661
     30659     30662     30662     30663     30662     30664     30662     30665
     30665     30666     30665     30667     30665     30668     30668     30669
     30668     30670     30668     30671     30671     30672     30671     30673
     30671     30674     30674     30675     30674     30676     30674     30677
     30677     30678     30677     30679     30677     30680     30680     30681
     30680     30682     30680     30683     30683     30684     30683     30685
     30683     30686     30687     30691     30687     30695     30687     30699
     30691     30692     30691     30693     30691     30694     30695     30696
     30695     30697     30695     30698     30699     30700     30699     30701
     30699     30702     30687     30688     30688     30689     30688     30690
     30688     30703     30703     30704     30703     30705     30703     30709
     30710     30711     30709     30706     30706     30710     30706     30707
     30706     30708     30711     30712     30711     30713     30711     30714
     30714     30715     30714     30722     30714     30716     30722     30723
     30722     30724     30722     30725     30716     30717     30717     30719
     30717     30718     30719     30720     30719     30721     30719     30731
     30731     30732     30731     30733     30731     30734     30734     30735
     30734     30736     30734     30737     30737     30738     30737     30739
     30737     30740     30740     30741     30740     30742     30740     30743
     30743     30744     30743     30745     30743     30746     30746     30747
     30746     30748     30746     30749     30749     30750     30749     30751
     30751     30752     30751     30753     30753     30754     30753     30755
     30753     30756     30756     30757     30756     30758     30756     30759
     30759     30760     30759     30761     30759     30762     30762     30763
     30762     30764     30762     30765     30765     30766     30765     30767
     30765     30768     30768     30769     30768     30770     30768     30771
     30771     30772     30771     30773     30771     30774     30774     30775
     30774     30776     30774     30777     30725     30726     30726     30728
     30726     30727     30728     30729     30728     30730     30728     30778
     30778     30779     30778     30780     30778     30781     30781     30782
     30781     30783     30781     30784     30784     30785     30784     30786
     30784     30787     30787     30788     30787     30789     30787     30790
     30790     30791     30790     30792     30790     30793     30793     30794
     30793     30795     30793     30796     30796     30797     30796     30798
     30796     30799     30799     30800     30799     30801     30799     30802
     30802     30803     30802     30804     30802     30805     30805     30806
     30805     30807     30805     30808     30808     30809     30808     30810
     30808     30811     30811     30812     30811     30813     30811     30814
     30814     30815     30814     30816     30814     30817     30817     30818
     30817     30819     30817     30820     30821     30825     30821     30829
     30821     30833     30825     30826     30825     30827     30825     30828
     30829     30830     30829     30831     30829     30832     30833     30834
     30833     30835     30833     30836     30821     30822     30822     30823
     30822     30824     30822     30837     30837     30838     30837     30839
     30837     30843     30844     30845     30843     30840     30840     30844
     30840     30841     30840     30842     30845     30846     30845     30847
     30845     30848     30848     30849     30848     30856     30848     30850
     30856     30857     30856     30858     30856     30859     30850     30851
     30851     30853     30851     30852     30853     30854     30853     30855
     30853     30865     30865     30866     30865     30867     30865     30868
     30868     30869     30868     30870     30868     30871     30871     30872
     30871     30873     30871     30874     30874     30875     30874     30876
     30874     30877     30877     30878     30877     30879     30877     30880
     30880     30881     30880     30882     30880     30883     30883     30884
     30883     30885     30885     30886     30885     30887     30887     30888
     30887     30889     30887     30890     30890     30891     30890     30892
     30890     30893     30893     30894     30893     30895     30893     30896
     30896     30897     30896     30898     30896     30899     30899     30900
     30899     30901     30899     30902     30902     30903     30902     30904
     30902     30905     30905     30906     30905     30907     30905     30908
     30908     30909     30908     30910     30908     30911     30859     30860
     30860     30862     30860     30861     30862     30863     30862     30864
     30862     30912     30912     30913     30912     30914     30912     30915
     30915     30916     30915     30917     30915     30918     30918     30919
     30918     30920     30918     30921     30921     30922     30921     30923
     30921     30924     30924     30925     30924     30926     30924     30927
     30927     30928     30927     30929     30927     30930     30930     30931
     30930     30932     30930     30933     30933     30934     30933     30935
     30933     30936     30936     30937     30936     30938     30936     30939
     30939     30940     30939     30941     30939     30942     30942     30943
     30942     30944     30942     30945     30945     30946     30945     30947
     30945     30948     30948     30949     30948     30950     30948     30951
     30951     30952     30951     30953     30951     30954     30955     30959
     30955     30963     30955     30967     30959     30960     30959     30961
     30959     30962     30963     30964     30963     30965     30963     30966
     30967     30968     30967     30969     30967     30970     30955     30956
     30956     30957     30956     30958     30956     30971     30971     30972
     30971     30973     30971     30977     30978     30979     30977     30974
     30974     30978     30974     30975     30974     30976     30979     30980
     30979     30981     30979     30982     30982     30983     30982     30990
     30982     30984     30990     30991     30990     30992     30990     30993
     30984     30985     30985     30987     30985     30986     30987     30988
     30987     30989     30987     30999     30999     31000     30999     31001
     30999     31002     31002     31003     31002     31004     31002     31005
     31005     31006     31005     31007     31005     31008     31008     31009
     31008     31010     31008     31011     31011     31012     31011     31013
     31011     31014     31014     31015     31014     31016     31014     31017
     31017     31018     31017     31019     31019     31020     31019     31021
     31021     31022     31021     31023     31021     31024     31024     31025
     31024     31026     31024     31027     31027     31028     31027     31029
     31027     31030     31030     31031     31030     31032     31030     31033
     31033     31034     31033     31035     31033     31036     31036     31037
     31036     31038     31036     31039     31039     31040     31039     31041
     31039     31042     31042     31043     31042     31044     31042     31045
     30993     30994     30994     30996     30994     30995     30996     30997
     30996     30998     30996     31046     31046     31047     31046     31048
     31046     31049     31049     31050     31049     31051     31049     31052
     31052     31053     31052     31054     31052     31055     31055     31056
     31055     31057     31055     31058     31058     31059     31058     31060
     31058     31061     31061     31062     31061     31063     31061     31064
     31064     31065     31064     31066     31064     31067     31067     31068
     31067     31069     31067     31070     31070     31071     31070     31072
     31070     31073     31073     31074     31073     31075     31073     31076
     31076     31077     31076     31078     31076     31079     31079     31080
     31079     31081     31079     31082     31082     31083     31082     31084
     31082     31085     31085     31086     31085     31087     31085     31088
     31089     31093     31089     31097     31089     31101     31093     31094
     31093     31095     31093     31096     31097     31098     31097     31099
     31097     31100     31101     31102     31101     31103     31101     31104
     31089     31090     31090     31091     31090     31092     31090     31105
     31105     31106     31105     31107     31105     31111     31112     31113
     31111     31108     31108     31112     31108     31109     31108     31110
     31113     31114     31113     31115     31113     31116     31116     31117
     31116     31124     31116     31118     31124     31125     31124     31126
     31124     31127     31118     31119     31119     31121     31119     31120
     31121     31122     31121     31123     31121     31133     31133     31134
     31133     31135     31133     31136     31136     31137     31136     31138
     31136     31139     31139     31140     31139     31141     31139     31142
     31142     31143     31142     31144     31142     31145     31145     31146
     31145     31147     31145     31148     31148     31149     31148     31150
     31148     31151     31151     31152     31151     31153     31153     31154
     31153     31155     31155     31156     31155     31157     31155     31158
     31158     31159     31158     31160     31158     31161     31161     31162
     31161     31163     31161     31164     31164     31165     31164     31166
     31164     31167     31167     31168     31167     31169     31167     31170
     31170     31171     31170     31172     31170     31173     31173     31174
     31173     31175     31173     31176     31176     31177     31176     31178
     31176     31179     31127     31128     31128     31130     31128     31129
     31130     31131     31130     31132     31130     31180     31180     31181
     31180     31182     31180     31183     31183     31184     31183     31185
     31183     31186     31186     31187     31186     31188     31186     31189
     31189     31190     31189     31191     31189     31192     31192     31193
     31192     31194     31192     31195     31195     31196     31195     31197
     31195     31198     31198     31199     31198     31200     31198     31201
     31201     31202     31201     31203     31201     31204     31204     31205
     31204     31206     31204     31207     31207     31208     31207     31209
     31207     31210     31210     31211     31210     31212     31210     31213
     31213     31214     31213     31215     31213     31216     31216     31217
     31216     31218     31216     31219     31219     31220     31219     31221
     31219     31222     31223     31227     31223     31231     31223     31235
     31227     31228     31227     31229     31227     31230     31231     31232
     31231     31233     31231     31234     31235     31236     31235     31237
     31235     31238     31223     31224     31224     31225     31224     31226
     31224     31239     31239     31240     31239     31241     31239     31245
     31246     31247     31245     31242     31242     31246     31242     31243
     31242     31244     31247     31248     31247     31249     31247     31250
     31250     31251     31250     31258     31250     31252     31258     31259
     31258     31260     31258     31261     31252     31253     31253     31255
     31253     31254     31255     31256     31255     31257     31255     31267
     31267     31268     31267     31269     31267     31270     31270     31271
     31270     31272     31270     31273     31273     31274     31273     31275
     31273     31276     31276     31277     31276     31278     31276     31279
     31279     31280     31279     31281     31279     31282     31282     31283
     31282     31284     31282     31285     31285     31286     31285     31287
     31287     31288     31287     31289     31289     31290     31289     31291
     31289     31292     31292     31293     31292     31294     31292     31295
     31295     31296     31295     31297     31295     31298     31298     31299
     31298     31300     31298     31301     31301     31302     31301     31303
     31301     31304     31304     31305     31304     31306     31304     31307
     31307     31308     31307     31309     31307     31310     31310     31311
     31310     31312     31310     31313     31261     31262     31262     31264
     31262     31263     31264     31265     31264     31266     31264     31314
     31314     31315     31314     31316     31314     31317     31317     31318
     31317     31319     31317     31320     31320     31321     31320     31322
     31320     31323     31323     31324     31323     31325     31323     31326
     31326     31327     31326     31328     31326     31329     31329     31330
     31329     31331     31329     31332     31332     31333     31332     31334
     31332     31335     31335     31336     31335     31337     31335     31338
     31338     31339     31338     31340     31338     31341     31341     31342
     31341     31343     31341     31344     31344     31345     31344     31346
     31344     31347     31347     31348     31347     31349     31347     31350
     31350     31351     31350     31352     31350     31353     31353     31354
     31353     31355     31353     31356     31357     31361     31357     31365
     31357     31369     31361     31362     31361     31363     31361     31364
     31365     31366     31365     31367     31365     31368     31369     31370
     31369     31371     31369     31372     31357     31358     31358     31359
     31358     31360     31358     31373     31373     31374     31373     31375
     31373     31379     31380     31381     31379     31376     31376     31380
     31376     31377     31376     31378     31381     31382     31381     31383
     31381     31384     31384     31385     31384     31392     31384     31386
     31392     31393     31392     31394     31392     31395     31386     31387
     31387     31389     31387     31388     31389     31390     31389     31391
     31389     31401     31401     31402     31401     31403     31401     31404
     31404     31405     31404     31406     31404     31407     31407     31408
     31407     31409     31407     31410     31410     31411     31410     31412
     31410     31413     31413     31414     31413     31415     31413     31416
     31416     31417     31416     31418     31416     31419     31419     31420
     31419     31421     31421     31422     31421     31423     31423     31424
     31423     31425     31423     31426     31426     31427     31426     31428
     31426     31429     31429     31430     31429     31431     31429     31432
     31432     31433     31432     31434     31432     31435     31435     31436
     31435     31437     31435     31438     31438     31439     31438     31440
     31438     31441     31441     31442     31441     31443     31441     31444
     31444     31445     31444     31446     31444     31447     31395     31396
     31396     31398     31396     31397     31398     31399     31398     31400
     31398     31448     31448     31449     31448     31450     31448     31451
     31451     31452     31451     31453     31451     31454     31454     31455
     31454     31456     31454     31457     31457     31458     31457     31459
     31457     31460     31460     31461     31460     31462     31460     31463
     31463     31464     31463     31465     31463     31466     31466     31467
     31466     31468     31466     31469     31469     31470     31469     31471
     31469     31472     31472     31473     31472     31474     31472     31475
     31475     31476     31475     31477     31475     31478     31478     31479
     31478     31480     31478     31481     31481     31482     31481     31483
     31481     31484     31484     31485     31484     31486     31484     31487
     31487     31488     31487     31489     31487     31490     31491     31495
     31491     31499     31491     31503     31495     31496     31495     31497
     31495     31498     31499     31500     31499     31501     31499     31502
     31503     31504     31503     31505     31503     31506     31491     31492
     31492     31493     31492     31494     31492     31507     31507     31508
     31507     31509     31507     31513     31514     31515     31513     31510
     31510     31514     31510     31511     31510     31512     31515     31516
     31515     31517     31515     31518     31518     31519     31518     31526
     31518     31520     31526     31527     31526     31528     31526     31529
     31520     31521     31521     31523     31521     31522     31523     31524
     31523     31525     31523     31535     31535     31536     31535     31537
     31535     31538     31538     31539     31538     31540     31538     31541
     31541     31542     31541     31543     31541     31544     31544     31545
     31544     31546     31544     31547     31547     31548     31547     31549
     31547     31550     31550     31551     31550     31552     31550     31553
     31553     31554     31553     31555     31555     31556     31555     31557
     31557     31558     31557     31559     31557     31560     31560     31561
     31560     31562     31560     31563     31563     31564     31563     31565
     31563     31566     31566     31567     31566     31568     31566     31569
     31569     31570     31569     31571     31569     31572     31572     31573
     31572     31574     31572     31575     31575     31576     31575     31577
     31575     31578     31578     31579     31578     31580     31578     31581
     31529     31530     31530     31532     31530     31531     31532     31533
     31532     31534     31532     31582     31582     31583     31582     31584
     31582     31585     31585     31586     31585     31587     31585     31588
     31588     31589     31588     31590     31588     31591     31591     31592
     31591     31593     31591     31594     31594     31595     31594     31596
     31594     31597     31597     31598     31597     31599     31597     31600
     31600     31601     31600     31602     31600     31603     31603     31604
     31603     31605     31603     31606     31606     31607     31606     31608
     31606     31609     31609     31610     31609     31611     31609     31612
     31612     31613     31612     31614     31612     31615     31615     31616
     31615     31617     31615     31618     31618     31619     31618     31620
     31618     31621     31621     31622     31621     31623     31621     31624
     31625     31629     31625     31633     31625     31637     31629     31630
     31629     31631     31629     31632     31633     31634     31633     31635
     31633     31636     31637     31638     31637     31639     31637     31640
     31625     31626     31626     31627     31626     31628     31626     31641
     31641     31642     31641     31643     31641     31647     31648     31649
     31647     31644     31644     31648     31644     31645     31644     31646
     31649     31650     31649     31651     31649     31652     31652     31653
     31652     31660     31652     31654     31660     31661     31660     31662
     31660     31663     31654     31655     31655     31657     31655     31656
     31657     31658     31657     31659     31657     31669     31669     31670
     31669     31671     31669     31672     31672     31673     31672     31674
     31672     31675     31675     31676     31675     31677     31675     31678
     31678     31679     31678     31680     31678     31681     31681     31682
     31681     31683     31681     31684     31684     31685     31684     31686
     31684     31687     31687     31688     31687     31689     31689     31690
     31689     31691     31691     31692     31691     31693     31691     31694
     31694     31695     31694     31696     31694     31697     31697     31698
     31697     31699     31697     31700     31700     31701     31700     31702
     31700     31703     31703     31704     31703     31705     31703     31706
     31706     31707     31706     31708     31706     31709     31709     31710
     31709     31711     31709     31712     31712     31713     31712     31714
     31712     31715     31663     31664     31664     31666     31664     31665
     31666     31667     31666     31668     31666     31716     31716     31717
     31716     31718     31716     31719     31719     31720     31719     31721
     31719     31722     31722     31723     31722     31724     31722     31725
     31725     31726     31725     31727     31725     31728     31728     31729
     31728     31730     31728     31731     31731     31732     31731     31733
     31731     31734     31734     31735     31734     31736     31734     31737
     31737     31738     31737     31739     31737     31740     31740     31741
     31740     31742     31740     31743     31743     31744     31743     31745
     31743     31746     31746     31747     31746     31748     31746     31749
     31749     31750     31749     31751     31749     31752     31752     31753
     31752     31754     31752     31755     31755     31756     31755     31757
     31755     31758     31759     31763     31759     31767     31759     31771
     31763     31764     31763     31765     31763     31766     31767     31768
     31767     31769     31767     31770     31771     31772     31771     31773
     31771     31774     31759     31760     31760     31761     31760     31762
     31760     31775     31775     31776     31775     31777     31775     31781
     31782     31783     31781     31778     31778     31782     31778     31779
     31778     31780     31783     31784     31783     31785     31783     31786
     31786     31787     31786     31794     31786     31788     31794     31795
     31794     31796     31794     31797     31788     31789     31789     31791
     31789     31790     31791     31792     31791     31793     31791     31803
     31803     31804     31803     31805     31803     31806     31806     31807
     31806     31808     31806     31809     31809     31810     31809     31811
     31809     31812     31812     31813     31812     31814     31812     31815
     31815     31816     31815     31817     31815     31818     31818     31819
     31818     31820     31818     31821     31821     31822     31821     31823
     31823     31824     31823     31825     31825     31826     31825     31827
     31825     31828     31828     31829     31828     31830     31828     31831
     31831     31832     31831     31833     31831     31834     31834     31835
     31834     31836     31834     31837     31837     31838     31837     31839
     31837     31840     31840     31841     31840     31842     31840     31843
     31843     31844     31843     31845     31843     31846     31846     31847
     31846     31848     31846     31849     31797     31798     31798     31800
     31798     31799     31800     31801     31800     31802     31800     31850
     31850     31851     31850     31852     31850     31853     31853     31854
     31853     31855     31853     31856     31856     31857     31856     31858
     31856     31859     31859     31860     31859     31861     31859     31862
     31862     31863     31862     31864     31862     31865     31865     31866
     31865     31867     31865     31868     31868     31869     31868     31870
     31868     31871     31871     31872     31871     31873     31871     31874
     31874     31875     31874     31876     31874     31877     31877     31878
     31877     31879     31877     31880     31880     31881     31880     31882
     31880     31883     31883     31884     31883     31885     31883     31886
     31886     31887     31886     31888     31886     31889     31889     31890
     31889     31891     31889     31892     31893     31897     31893     31901
     31893     31905     31897     31898     31897     31899     31897     31900
     31901     31902     31901     31903     31901     31904     31905     31906
     31905     31907     31905     31908     31893     31894     31894     31895
     31894     31896     31894     31909     31909     31910     31909     31911
     31909     31915     31916     31917     31915     31912     31912     31916
     31912     31913     31912     31914     31917     31918     31917     31919
     31917     31920     31920     31921     31920     31928     31920     31922
     31928     31929     31928     31930     31928     31931     31922     31923
     31923     31925     31923     31924     31925     31926     31925     31927
     31925     31937     31937     31938     31937     31939     31937     31940
     31940     31941     31940     31942     31940     31943     31943     31944
     31943     31945     31943     31946     31946     31947     31946     31948
     31946     31949     31949     31950     31949     31951     31949     31952
     31952     31953     31952     31954     31952     31955     31955     31956
     31955     31957     31957     31958     31957     31959     31959     31960
     31959     31961     31959     31962     31962     31963     31962     31964
     31962     31965     31965     31966     31965     31967     31965     31968
     31968     31969     31968     31970     31968     31971     31971     31972
     31971     31973     31971     31974     31974     31975     31974     31976
     31974     31977     31977     31978     31977     31979     31977     31980
     31980     31981     31980     31982     31980     31983     31931     31932
     31932     31934     31932     31933     31934     31935     31934     31936
     31934     31984     31984     31985     31984     31986     31984     31987
     31987     31988     31987     31989     31987     31990     31990     31991
     31990     31992     31990     31993     31993     31994     31993     31995
     31993     31996     31996     31997     31996     31998     31996     31999
     31999     32000     31999     32001     31999     32002     32002     32003
     32002     32004     32002     32005     32005     32006     32005     32007
     32005     32008     32008     32009     32008     32010     32008     32011
     32011     32012     32011     32013     32011     32014     32014     32015
     32014     32016     32014     32017     32017     32018     32017     32019
     32017     32020     32020     32021     32020     32022     32020     32023
     32023     32024     32023     32025     32023     32026     32027     32031
     32027     32035     32027     32039     32031     32032     32031     32033
     32031     32034     32035     32036     32035     32037     32035     32038
     32039     32040     32039     32041     32039     32042     32027     32028
     32028     32029     32028     32030     32028     32043     32043     32044
     32043     32045     32043     32049     32050     32051     32049     32046
     32046     32050     32046     32047     32046     32048     32051     32052
     32051     32053     32051     32054     32054     32055     32054     32062
     32054     32056     32062     32063     32062     32064     32062     32065
     32056     32057     32057     32059     32057     32058     32059     32060
     32059     32061     32059     32071     32071     32072     32071     32073
     32071     32074     32074     32075     32074     32076     32074     32077
     32077     32078     32077     32079     32077     32080     32080     32081
     32080     32082     32080     32083     32083     32084     32083     32085
     32083     32086     32086     32087     32086     32088     32086     32089
     32089     32090     32089     32091     32091     32092     32091     32093
     32093     32094     32093     32095     32093     32096     32096     32097
     32096     32098     32096     32099     32099     32100     32099     32101
     32099     32102     32102     32103     32102     32104     32102     32105
     32105     32106     32105     32107     32105     32108     32108     32109
     32108     32110     32108     32111     32111     32112     32111     32113
     32111     32114     32114     32115     32114     32116     32114     32117
     32065     32066     32066     32068     32066     32067     32068     32069
     32068     32070     32068     32118     32118     32119     32118     32120
     32118     32121     32121     32122     32121     32123     32121     32124
     32124     32125     32124     32126     32124     32127     32127     32128
     32127     32129     32127     32130     32130     32131     32130     32132
     32130     32133     32133     32134     32133     32135     32133     32136
     32136     32137     32136     32138     32136     32139     32139     32140
     32139     32141     32139     32142     32142     32143     32142     32144
     32142     32145     32145     32146     32145     32147     32145     32148
     32148     32149     32148     32150     32148     32151     32151     32152
     32151     32153     32151     32154     32154     32155     32154     32156
     32154     32157     32157     32158     32157     32159     32157     32160
     32161     32165     32161     32169     32161     32173     32165     32166
     32165     32167     32165     32168     32169     32170     32169     32171
     32169     32172     32173     32174     32173     32175     32173     32176
     32161     32162     32162     32163     32162     32164     32162     32177
     32177     32178     32177     32179     32177     32183     32184     32185
     32183     32180     32180     32184     32180     32181     32180     32182
     32185     32186     32185     32187     32185     32188     32188     32189
     32188     32196     32188     32190     32196     32197     32196     32198
     32196     32199     32190     32191     32191     32193     32191     32192
     32193     32194     32193     32195     32193     32205     32205     32206
     32205     32207     32205     32208     32208     32209     32208     32210
     32208     32211     32211     32212     32211     32213     32211     32214
     32214     32215     32214     32216     32214     32217     32217     32218
     32217     32219     32217     32220     32220     32221     32220     32222
     32220     32223     32223     32224     32223     32225     32225     32226
     32225     32227     32227     32228     32227     32229     32227     32230
     32230     32231     32230     32232     32230     32233     32233     32234
     32233     32235     32233     32236     32236     32237     32236     32238
     32236     32239     32239     32240     32239     32241     32239     32242
     32242     32243     32242     32244     32242     32245     32245     32246
     32245     32247     32245     32248     32248     32249     32248     32250
     32248     32251     32199     32200     32200     32202     32200     32201
     32202     32203     32202     32204     32202     32252     32252     32253
     32252     32254     32252     32255     32255     32256     32255     32257
     32255     32258     32258     32259     32258     32260     32258     32261
     32261     32262     32261     32263     32261     32264     32264     32265
     32264     32266     32264     32267     32267     32268     32267     32269
     32267     32270     32270     32271     32270     32272     32270     32273
     32273     32274     32273     32275     32273     32276     32276     32277
     32276     32278     32276     32279     32279     32280     32279     32281
     32279     32282     32282     32283     32282     32284     32282     32285
     32285     32286     32285     32287     32285     32288     32288     32289
     32288     32290     32288     32291     32291     32292     32291     32293
     32291     32294     32295     32299     32295     32303     32295     32307
     32299     32300     32299     32301     32299     32302     32303     32304
     32303     32305     32303     32306     32307     32308     32307     32309
     32307     32310     32295     32296     32296     32297     32296     32298
     32296     32311     32311     32312     32311     32313     32311     32317
     32318     32319     32317     32314     32314     32318     32314     32315
     32314     32316     32319     32320     32319     32321     32319     32322
     32322     32323     32322     32330     32322     32324     32330     32331
     32330     32332     32330     32333     32324     32325     32325     32327
     32325     32326     32327     32328     32327     32329     32327     32339
     32339     32340     32339     32341     32339     32342     32342     32343
     32342     32344     32342     32345     32345     32346     32345     32347
     32345     32348     32348     32349     32348     32350     32348     32351
     32351     32352     32351     32353     32351     32354     32354     32355
     32354     32356     32354     32357     32357     32358     32357     32359
     32359     32360     32359     32361     32361     32362     32361     32363
     32361     32364     32364     32365     32364     32366     32364     32367
     32367     32368     32367     32369     32367     32370     32370     32371
     32370     32372     32370     32373     32373     32374     32373     32375
     32373     32376     32376     32377     32376     32378     32376     32379
     32379     32380     32379     32381     32379     32382     32382     32383
     32382     32384     32382     32385     32333     32334     32334     32336
     32334     32335     32336     32337     32336     32338     32336     32386
     32386     32387     32386     32388     32386     32389     32389     32390
     32389     32391     32389     32392     32392     32393     32392     32394
     32392     32395     32395     32396     32395     32397     32395     32398
     32398     32399     32398     32400     32398     32401     32401     32402
     32401     32403     32401     32404     32404     32405     32404     32406
     32404     32407     32407     32408     32407     32409     32407     32410
     32410     32411     32410     32412     32410     32413     32413     32414
     32413     32415     32413     32416     32416     32417     32416     32418
     32416     32419     32419     32420     32419     32421     32419     32422
     32422     32423     32422     32424     32422     32425     32425     32426
     32425     32427     32425     32428     32429     32433     32429     32437
     32429     32441     32433     32434     32433     32435     32433     32436
     32437     32438     32437     32439     32437     32440     32441     32442
     32441     32443     32441     32444     32429     32430     32430     32431
     32430     32432     32430     32445     32445     32446     32445     32447
     32445     32451     32452     32453     32451     32448     32448     32452
     32448     32449     32448     32450     32453     32454     32453     32455
     32453     32456     32456     32457     32456     32464     32456     32458
     32464     32465     32464     32466     32464     32467     32458     32459
     32459     32461     32459     32460     32461     32462     32461     32463
     32461     32473     32473     32474     32473     32475     32473     32476
     32476     32477     32476     32478     32476     32479     32479     32480
     32479     32481     32479     32482     32482     32483     32482     32484
     32482     32485     32485     32486     32485     32487     32485     32488
     32488     32489     32488     32490     32488     32491     32491     32492
     32491     32493     32493     32494     32493     32495     32495     32496
     32495     32497     32495     32498     32498     32499     32498     32500
     32498     32501     32501     32502     32501     32503     32501     32504
     32504     32505     32504     32506     32504     32507     32507     32508
     32507     32509     32507     32510     32510     32511     32510     32512
     32510     32513     32513     32514     32513     32515     32513     32516
     32516     32517     32516     32518     32516     32519     32467     32468
     32468     32470     32468     32469     32470     32471     32470     32472
     32470     32520     32520     32521     32520     32522     32520     32523
     32523     32524     32523     32525     32523     32526     32526     32527
     32526     32528     32526     32529     32529     32530     32529     32531
     32529     32532     32532     32533     32532     32534     32532     32535
     32535     32536     32535     32537     32535     32538     32538     32539
     32538     32540     32538     32541     32541     32542     32541     32543
     32541     32544     32544     32545     32544     32546     32544     32547
     32547     32548     32547     32549     32547     32550     32550     32551
     32550     32552     32550     32553     32553     32554     32553     32555
     32553     32556     32556     32557     32556     32558     32556     32559
     32559     32560     32559     32561     32559     32562     32563     32567
     32563     32571     32563     32575     32567     32568     32567     32569
     32567     32570     32571     32572     32571     32573     32571     32574
     32575     32576     32575     32577     32575     32578     32563     32564
     32564     32565     32564     32566     32564     32579     32579     32580
     32579     32581     32579     32585     32586     32587     32585     32582
     32582     32586     32582     32583     32582     32584     32587     32588
     32587     32589     32587     32590     32590     32591     32590     32598
     32590     32592     32598     32599     32598     32600     32598     32601
     32592     32593     32593     32595     32593     32594     32595     32596
     32595     32597     32595     32607     32607     32608     32607     32609
     32607     32610     32610     32611     32610     32612     32610     32613
     32613     32614     32613     32615     32613     32616     32616     32617
     32616     32618     32616     32619     32619     32620     32619     32621
     32619     32622     32622     32623     32622     32624     32622     32625
     32625     32626     32625     32627     32627     32628     32627     32629
     32629     32630     32629     32631     32629     32632     32632     32633
     32632     32634     32632     32635     32635     32636     32635     32637
     32635     32638     32638     32639     32638     32640     32638     32641
     32641     32642     32641     32643     32641     32644     32644     32645
     32644     32646     32644     32647     32647     32648     32647     32649
     32647     32650     32650     32651     32650     32652     32650     32653
     32601     32602     32602     32604     32602     32603     32604     32605
     32604     32606     32604     32654     32654     32655     32654     32656
     32654     32657     32657     32658     32657     32659     32657     32660
     32660     32661     32660     32662     32660     32663     32663     32664
     32663     32665     32663     32666     32666     32667     32666     32668
     32666     32669     32669     32670     32669     32671     32669     32672
     32672     32673     32672     32674     32672     32675     32675     32676
     32675     32677     32675     32678     32678     32679     32678     32680
     32678     32681     32681     32682     32681     32683     32681     32684
     32684     32685     32684     32686     32684     32687     32687     32688
     32687     32689     32687     32690     32690     32691     32690     32692
     32690     32693     32693     32694     32693     32695     32693     32696
     32697     32701     32697     32705     32697     32709     32701     32702
     32701     32703     32701     32704     32705     32706     32705     32707
     32705     32708     32709     32710     32709     32711     32709     32712
     32697     32698     32698     32699     32698     32700     32698     32713
     32713     32714     32713     32715     32713     32719     32720     32721
     32719     32716     32716     32720     32716     32717     32716     32718
     32721     32722     32721     32723     32721     32724     32724     32725
     32724     32732     32724     32726     32732     32733     32732     32734
     32732     32735     32726     32727     32727     32729     32727     32728
     32729     32730     32729     32731     32729     32741     32741     32742
     32741     32743     32741     32744     32744     32745     32744     32746
     32744     32747     32747     32748     32747     32749     32747     32750
     32750     32751     32750     32752     32750     32753     32753     32754
     32753     32755     32753     32756     32756     32757     32756     32758
     32756     32759     32759     32760     32759     32761     32761     32762
     32761     32763     32763     32764     32763     32765     32763     32766
     32766     32767     32766     32768     32766     32769     32769     32770
     32769     32771     32769     32772     32772     32773     32772     32774
     32772     32775     32775     32776     32775     32777     32775     32778
     32778     32779     32778     32780     32778     32781     32781     32782
     32781     32783     32781     32784     32784     32785     32784     32786
     32784     32787     32735     32736     32736     32738     32736     32737
     32738     32739     32738     32740     32738     32788     32788     32789
     32788     32790     32788     32791     32791     32792     32791     32793
     32791     32794     32794     32795     32794     32796     32794     32797
     32797     32798     32797     32799     32797     32800     32800     32801
     32800     32802     32800     32803     32803     32804     32803     32805
     32803     32806     32806     32807     32806     32808     32806     32809
     32809     32810     32809     32811     32809     32812     32812     32813
     32812     32814     32812     32815     32815     32816     32815     32817
     32815     32818     32818     32819     32818     32820     32818     32821
     32821     32822     32821     32823     32821     32824     32824     32825
     32824     32826     32824     32827     32827     32828     32827     32829
     32827     32830     32831     32835     32831     32839     32831     32843
     32835     32836     32835     32837     32835     32838     32839     32840
     32839     32841     32839     32842     32843     32844     32843     32845
     32843     32846     32831     32832     32832     32833     32832     32834
     32832     32847     32847     32848     32847     32849     32847     32853
     32854     32855     32853     32850     32850     32854     32850     32851
     32850     32852     32855     32856     32855     32857     32855     32858
     32858     32859     32858     32866     32858     32860     32866     32867
     32866     32868     32866     32869     32860     32861     32861     32863
     32861     32862     32863     32864     32863     32865     32863     32875
     32875     32876     32875     32877     32875     32878     32878     32879
     32878     32880     32878     32881     32881     32882     32881     32883
     32881     32884     32884     32885     32884     32886     32884     32887
     32887     32888     32887     32889     32887     32890     32890     32891
     32890     32892     32890     32893     32893     32894     32893     32895
     32895     32896     32895     32897     32897     32898     32897     32899
     32897     32900     32900     32901     32900     32902     32900     32903
     32903     32904     32903     32905     32903     32906     32906     32907
     32906     32908     32906     32909     32909     32910     32909     32911
     32909     32912     32912     32913     32912     32914     32912     32915
     32915     32916     32915     32917     32915     32918     32918     32919
     32918     32920     32918     32921     32869     32870     32870     32872
     32870     32871     32872     32873     32872     32874     32872     32922
     32922     32923     32922     32924     32922     32925     32925     32926
     32925     32927     32925     32928     32928     32929     32928     32930
     32928     32931     32931     32932     32931     32933     32931     32934
     32934     32935     32934     32936     32934     32937     32937     32938
     32937     32939     32937     32940     32940     32941     32940     32942
     32940     32943     32943     32944     32943     32945     32943     32946
     32946     32947     32946     32948     32946     32949     32949     32950
     32949     32951     32949     32952     32952     32953     32952     32954
     32952     32955     32955     32956     32955     32957     32955     32958
     32958     32959     32958     32960     32958     32961     32961     32962
     32961     32963     32961     32964     32965     32969     32965     32973
     32965     32977     32969     32970     32969     32971     32969     32972
     32973     32974     32973     32975     32973     32976     32977     32978
     32977     32979     32977     32980     32965     32966     32966     32967
     32966     32968     32966     32981     32981     32982     32981     32983
     32981     32987     32988     32989     32987     32984     32984     32988
     32984     32985     32984     32986     32989     32990     32989     32991
     32989     32992     32992     32993     32992     33000     32992     32994
     33000     33001     33000     33002     33000     33003     32994     32995
     32995     32997     32995     32996     32997     32998     32997     32999
     32997     33009     33009     33010     33009     33011     33009     33012
     33012     33013     33012     33014     33012     33015     33015     33016
     33015     33017     33015     33018     33018     33019     33018     33020
     33018     33021     33021     33022     33021     33023     33021     33024
     33024     33025     33024     33026     33024     33027     33027     33028
     33027     33029     33029     33030     33029     33031     33031     33032
     33031     33033     33031     33034     33034     33035     33034     33036
     33034     33037     33037     33038     33037     33039     33037     33040
     33040     33041     33040     33042     33040     33043     33043     33044
     33043     33045     33043     33046     33046     33047     33046     33048
     33046     33049     33049     33050     33049     33051     33049     33052
     33052     33053     33052     33054     33052     33055     33003     33004
     33004     33006     33004     33005     33006     33007     33006     33008
     33006     33056     33056     33057     33056     33058     33056     33059
     33059     33060     33059     33061     33059     33062     33062     33063
     33062     33064     33062     33065     33065     33066     33065     33067
     33065     33068     33068     33069     33068     33070     33068     33071
     33071     33072     33071     33073     33071     33074     33074     33075
     33074     33076     33074     33077     33077     33078     33077     33079
     33077     33080     33080     33081     33080     33082     33080     33083
     33083     33084     33083     33085     33083     33086     33086     33087
     33086     33088     33086     33089     33089     33090     33089     33091
     33089     33092     33092     33093     33092     33094     33092     33095
     33095     33096     33095     33097     33095     33098     33099     33103
     33099     33107     33099     33111     33103     33104     33103     33105
     33103     33106     33107     33108     33107     33109     33107     33110
     33111     33112     33111     33113     33111     33114     33099     33100
     33100     33101     33100     33102     33100     33115     33115     33116
     33115     33117     33115     33121     33122     33123     33121     33118
     33118     33122     33118     33119     33118     33120     33123     33124
     33123     33125     33123     33126     33126     33127     33126     33134
     33126     33128     33134     33135     33134     33136     33134     33137
     33128     33129     33129     33131     33129     33130     33131     33132
     33131     33133     33131     33143     33143     33144     33143     33145
     33143     33146     33146     33147     33146     33148     33146     33149
     33149     33150     33149     33151     33149     33152     33152     33153
     33152     33154     33152     33155     33155     33156     33155     33157
     33155     33158     33158     33159     33158     33160     33158     33161
     33161     33162     33161     33163     33163     33164     33163     33165
     33165     33166     33165     33167     33165     33168     33168     33169
     33168     33170     33168     33171     33171     33172     33171     33173
     33171     33174     33174     33175     33174     33176     33174     33177
     33177     33178     33177     33179     33177     33180     33180     33181
     33180     33182     33180     33183     33183     33184     33183     33185
     33183     33186     33186     33187     33186     33188     33186     33189
     33137     33138     33138     33140     33138     33139     33140     33141
     33140     33142     33140     33190     33190     33191     33190     33192
     33190     33193     33193     33194     33193     33195     33193     33196
     33196     33197     33196     33198     33196     33199     33199     33200
     33199     33201     33199     33202     33202     33203     33202     33204
     33202     33205     33205     33206     33205     33207     33205     33208
     33208     33209     33208     33210     33208     33211     33211     33212
     33211     33213     33211     33214     33214     33215     33214     33216
     33214     33217     33217     33218     33217     33219     33217     33220
     33220     33221     33220     33222     33220     33223     33223     33224
     33223     33225     33223     33226     33226     33227     33226     33228
     33226     33229     33229     33230     33229     33231     33229     33232
     33233     33237     33233     33241     33233     33245     33237     33238
     33237     33239     33237     33240     33241     33242     33241     33243
     33241     33244     33245     33246     33245     33247     33245     33248
     33233     33234     33234     33235     33234     33236     33234     33249
     33249     33250     33249     33251     33249     33255     33256     33257
     33255     33252     33252     33256     33252     33253     33252     33254
     33257     33258     33257     33259     33257     33260     33260     33261
     33260     33268     33260     33262     33268     33269     33268     33270
     33268     33271     33262     33263     33263     33265     33263     33264
     33265     33266     33265     33267     33265     33277     33277     33278
     33277     33279     33277     33280     33280     33281     33280     33282
     33280     33283     33283     33284     33283     33285     33283     33286
     33286     33287     33286     33288     33286     33289     33289     33290
     33289     33291     33289     33292     33292     33293     33292     33294
     33292     33295     33295     33296     33295     33297     33297     33298
     33297     33299     33299     33300     33299     33301     33299     33302
     33302     33303     33302     33304     33302     33305     33305     33306
     33305     33307     33305     33308     33308     33309     33308     33310
     33308     33311     33311     33312     33311     33313     33311     33314
     33314     33315     33314     33316     33314     33317     33317     33318
     33317     33319     33317     33320     33320     33321     33320     33322
     33320     33323     33271     33272     33272     33274     33272     33273
     33274     33275     33274     33276     33274     33324     33324     33325
     33324     33326     33324     33327     33327     33328     33327     33329
     33327     33330     33330     33331     33330     33332     33330     33333
     33333     33334     33333     33335     33333     33336     33336     33337
     33336     33338     33336     33339     33339     33340     33339     33341
     33339     33342     33342     33343     33342     33344     33342     33345
     33345     33346     33345     33347     33345     33348     33348     33349
     33348     33350     33348     33351     33351     33352     33351     33353
     33351     33354     33354     33355     33354     33356     33354     33357
     33357     33358     33357     33359     33357     33360     33360     33361
     33360     33362     33360     33363     33363     33364     33363     33365
     33363     33366     33367     33371     33367     33375     33367     33379
     33371     33372     33371     33373     33371     33374     33375     33376
     33375     33377     33375     33378     33379     33380     33379     33381
     33379     33382     33367     33368     33368     33369     33368     33370
     33368     33383     33383     33384     33383     33385     33383     33389
     33390     33391     33389     33386     33386     33390     33386     33387
     33386     33388     33391     33392     33391     33393     33391     33394
     33394     33395     33394     33402     33394     33396     33402     33403
     33402     33404     33402     33405     33396     33397     33397     33399
     33397     33398     33399     33400     33399     33401     33399     33411
     33411     33412     33411     33413     33411     33414     33414     33415
     33414     33416     33414     33417     33417     33418     33417     33419
     33417     33420     33420     33421     33420     33422     33420     33423
     33423     33424     33423     33425     33423     33426     33426     33427
     33426     33428     33426     33429     33429     33430     33429     33431
     33431     33432     33431     33433     33433     33434     33433     33435
     33433     33436     33436     33437     33436     33438     33436     33439
     33439     33440     33439     33441     33439     33442     33442     33443
     33442     33444     33442     33445     33445     33446     33445     33447
     33445     33448     33448     33449     33448     33450     33448     33451
     33451     33452     33451     33453     33451     33454     33454     33455
     33454     33456     33454     33457     33405     33406     33406     33408
     33406     33407     33408     33409     33408     33410     33408     33458
     33458     33459     33458     33460     33458     33461     33461     33462
     33461     33463     33461     33464     33464     33465     33464     33466
     33464     33467     33467     33468     33467     33469     33467     33470
     33470     33471     33470     33472     33470     33473     33473     33474
     33473     33475     33473     33476     33476     33477     33476     33478
     33476     33479     33479     33480     33479     33481     33479     33482
     33482     33483     33482     33484     33482     33485     33485     33486
     33485     33487     33485     33488     33488     33489     33488     33490
     33488     33491     33491     33492     33491     33493     33491     33494
     33494     33495     33494     33496     33494     33497     33497     33498
     33497     33499     33497     33500     33501     33505     33501     33509
     33501     33513     33505     33506     33505     33507     33505     33508
     33509     33510     33509     33511     33509     33512     33513     33514
     33513     33515     33513     33516     33501     33502     33502     33503
     33502     33504     33502     33517     33517     33518     33517     33519
     33517     33523     33524     33525     33523     33520     33520     33524
     33520     33521     33520     33522     33525     33526     33525     33527
     33525     33528     33528     33529     33528     33536     33528     33530
     33536     33537     33536     33538     33536     33539     33530     33531
     33531     33533     33531     33532     33533     33534     33533     33535
     33533     33545     33545     33546     33545     33547     33545     33548
     33548     33549     33548     33550     33548     33551     33551     33552
     33551     33553     33551     33554     33554     33555     33554     33556
     33554     33557     33557     33558     33557     33559     33557     33560
     33560     33561     33560     33562     33560     33563     33563     33564
     33563     33565     33565     33566     33565     33567     33567     33568
     33567     33569     33567     33570     33570     33571     33570     33572
     33570     33573     33573     33574     33573     33575     33573     33576
     33576     33577     33576     33578     33576     33579     33579     33580
     33579     33581     33579     33582     33582     33583     33582     33584
     33582     33585     33585     33586     33585     33587     33585     33588
     33588     33589     33588     33590     33588     33591     33539     33540
     33540     33542     33540     33541     33542     33543     33542     33544
     33542     33592     33592     33593     33592     33594     33592     33595
     33595     33596     33595     33597     33595     33598     33598     33599
     33598     33600     33598     33601     33601     33602     33601     33603
     33601     33604     33604     33605     33604     33606     33604     33607
     33607     33608     33607     33609     33607     33610     33610     33611
     33610     33612     33610     33613     33613     33614     33613     33615
     33613     33616     33616     33617     33616     33618     33616     33619
     33619     33620     33619     33621     33619     33622     33622     33623
     33622     33624     33622     33625     33625     33626     33625     33627
     33625     33628     33628     33629     33628     33630     33628     33631
     33631     33632     33631     33633     33631     33634     33635     33639
     33635     33643     33635     33647     33639     33640     33639     33641
     33639     33642     33643     33644     33643     33645     33643     33646
     33647     33648     33647     33649     33647     33650     33635     33636
     33636     33637     33636     33638     33636     33651     33651     33652
     33651     33653     33651     33657     33658     33659     33657     33654
     33654     33658     33654     33655     33654     33656     33659     33660
     33659     33661     33659     33662     33662     33663     33662     33670
     33662     33664     33670     33671     33670     33672     33670     33673
     33664     33665     33665     33667     33665     33666     33667     33668
     33667     33669     33667     33679     33679     33680     33679     33681
     33679     33682     33682     33683     33682     33684     33682     33685
     33685     33686     33685     33687     33685     33688     33688     33689
     33688     33690     33688     33691     33691     33692     33691     33693
     33691     33694     33694     33695     33694     33696     33694     33697
     33697     33698     33697     33699     33699     33700     33699     33701
     33701     33702     33701     33703     33701     33704     33704     33705
     33704     33706     33704     33707     33707     33708     33707     33709
     33707     33710     33710     33711     33710     33712     33710     33713
     33713     33714     33713     33715     33713     33716     33716     33717
     33716     33718     33716     33719     33719     33720     33719     33721
     33719     33722     33722     33723     33722     33724     33722     33725
     33673     33674     33674     33676     33674     33675     33676     33677
     33676     33678     33676     33726     33726     33727     33726     33728
     33726     33729     33729     33730     33729     33731     33729     33732
     33732     33733     33732     33734     33732     33735     33735     33736
     33735     33737     33735     33738     33738     33739     33738     33740
     33738     33741     33741     33742     33741     33743     33741     33744
     33744     33745     33744     33746     33744     33747     33747     33748
     33747     33749     33747     33750     33750     33751     33750     33752
     33750     33753     33753     33754     33753     33755     33753     33756
     33756     33757     33756     33758     33756     33759     33759     33760
     33759     33761     33759     33762     33762     33763     33762     33764
     33762     33765     33765     33766     33765     33767     33765     33768
     33769     33773     33769     33777     33769     33781     33773     33774
     33773     33775     33773     33776     33777     33778     33777     33779
     33777     33780     33781     33782     33781     33783     33781     33784
     33769     33770     33770     33771     33770     33772     33770     33785
     33785     33786     33785     33787     33785     33791     33792     33793
     33791     33788     33788     33792     33788     33789     33788     33790
     33793     33794     33793     33795     33793     33796     33796     33797
     33796     33804     33796     33798     33804     33805     33804     33806
     33804     33807     33798     33799     33799     33801     33799     33800
     33801     33802     33801     33803     33801     33813     33813     33814
     33813     33815     33813     33816     33816     33817     33816     33818
     33816     33819     33819     33820     33819     33821     33819     33822
     33822     33823     33822     33824     33822     33825     33825     33826
     33825     33827     33825     33828     33828     33829     33828     33830
     33828     33831     33831     33832     33831     33833     33833     33834
     33833     33835     33835     33836     33835     33837     33835     33838
     33838     33839     33838     33840     33838     33841     33841     33842
     33841     33843     33841     33844     33844     33845     33844     33846
     33844     33847     33847     33848     33847     33849     33847     33850
     33850     33851     33850     33852     33850     33853     33853     33854
     33853     33855     33853     33856     33856     33857     33856     33858
     33856     33859     33807     33808     33808     33810     33808     33809
     33810     33811     33810     33812     33810     33860     33860     33861
     33860     33862     33860     33863     33863     33864     33863     33865
     33863     33866     33866     33867     33866     33868     33866     33869
     33869     33870     33869     33871     33869     33872     33872     33873
     33872     33874     33872     33875     33875     33876     33875     33877
     33875     33878     33878     33879     33878     33880     33878     33881
     33881     33882     33881     33883     33881     33884     33884     33885
     33884     33886     33884     33887     33887     33888     33887     33889
     33887     33890     33890     33891     33890     33892     33890     33893
     33893     33894     33893     33895     33893     33896     33896     33897
     33896     33898     33896     33899     33899     33900     33899     33901
     33899     33902     33903     33907     33903     33911     33903     33915
     33907     33908     33907     33909     33907     33910     33911     33912
     33911     33913     33911     33914     33915     33916     33915     33917
     33915     33918     33903     33904     33904     33905     33904     33906
     33904     33919     33919     33920     33919     33921     33919     33925
     33926     33927     33925     33922     33922     33926     33922     33923
     33922     33924     33927     33928     33927     33929     33927     33930
     33930     33931     33930     33938     33930     33932     33938     33939
     33938     33940     33938     33941     33932     33933     33933     33935
     33933     33934     33935     33936     33935     33937     33935     33947
     33947     33948     33947     33949     33947     33950     33950     33951
     33950     33952     33950     33953     33953     33954     33953     33955
     33953     33956     33956     33957     33956     33958     33956     33959
     33959     33960     33959     33961     33959     33962     33962     33963
     33962     33964     33962     33965     33965     33966     33965     33967
     33967     33968     33967     33969     33969     33970     33969     33971
     33969     33972     33972     33973     33972     33974     33972     33975
     33975     33976     33975     33977     33975     33978     33978     33979
     33978     33980     33978     33981     33981     33982     33981     33983
     33981     33984     33984     33985     33984     33986     33984     33987
     33987     33988     33987     33989     33987     33990     33990     33991
     33990     33992     33990     33993     33941     33942     33942     33944
     33942     33943     33944     33945     33944     33946     33944     33994
     33994     33995     33994     33996     33994     33997     33997     33998
     33997     33999     33997     34000     34000     34001     34000     34002
     34000     34003     34003     34004     34003     34005     34003     34006
     34006     34007     34006     34008     34006     34009     34009     34010
     34009     34011     34009     34012     34012     34013     34012     34014
     34012     34015     34015     34016     34015     34017     34015     34018
     34018     34019     34018     34020     34018     34021     34021     34022
     34021     34023     34021     34024     34024     34025     34024     34026
     34024     34027     34027     34028     34027     34029     34027     34030
     34030     34031     34030     34032     34030     34033     34033     34034
     34033     34035     34033     34036     34037     34041     34037     34045
     34037     34049     34041     34042     34041     34043     34041     34044
     34045     34046     34045     34047     34045     34048     34049     34050
     34049     34051     34049     34052     34037     34038     34038     34039
     34038     34040     34038     34053     34053     34054     34053     34055
     34053     34059     34060     34061     34059     34056     34056     34060
     34056     34057     34056     34058     34061     34062     34061     34063
     34061     34064     34064     34065     34064     34072     34064     34066
     34072     34073     34072     34074     34072     34075     34066     34067
     34067     34069     34067     34068     34069     34070     34069     34071
     34069     34081     34081     34082     34081     34083     34081     34084
     34084     34085     34084     34086     34084     34087     34087     34088
     34087     34089     34087     34090     34090     34091     34090     34092
     34090     34093     34093     34094     34093     34095     34093     34096
     34096     34097     34096     34098     34096     34099     34099     34100
     34099     34101     34101     34102     34101     34103     34103     34104
     34103     34105     34103     34106     34106     34107     34106     34108
     34106     34109     34109     34110     34109     34111     34109     34112
     34112     34113     34112     34114     34112     34115     34115     34116
     34115     34117     34115     34118     34118     34119     34118     34120
     34118     34121     34121     34122     34121     34123     34121     34124
     34124     34125     34124     34126     34124     34127     34075     34076
     34076     34078     34076     34077     34078     34079     34078     34080
     34078     34128     34128     34129     34128     34130     34128     34131
     34131     34132     34131     34133     34131     34134     34134     34135
     34134     34136     34134     34137     34137     34138     34137     34139
     34137     34140     34140     34141     34140     34142     34140     34143
     34143     34144     34143     34145     34143     34146     34146     34147
     34146     34148     34146     34149     34149     34150     34149     34151
     34149     34152     34152     34153     34152     34154     34152     34155
     34155     34156     34155     34157     34155     34158     34158     34159
     34158     34160     34158     34161     34161     34162     34161     34163
     34161     34164     34164     34165     34164     34166     34164     34167
     34167     34168     34167     34169     34167     34170     34171     34175
     34171     34179     34171     34183     34175     34176     34175     34177
     34175     34178     34179     34180     34179     34181     34179     34182
     34183     34184     34183     34185     34183     34186     34171     34172
     34172     34173     34172     34174     34172     34187     34187     34188
     34187     34189     34187     34193     34194     34195     34193     34190
     34190     34194     34190     34191     34190     34192     34195     34196
     34195     34197     34195     34198     34198     34199     34198     34206
     34198     34200     34206     34207     34206     34208     34206     34209
     34200     34201     34201     34203     34201     34202     34203     34204
     34203     34205     34203     34215     34215     34216     34215     34217
     34215     34218     34218     34219     34218     34220     34218     34221
     34221     34222     34221     34223     34221     34224     34224     34225
     34224     34226     34224     34227     34227     34228     34227     34229
     34227     34230     34230     34231     34230     34232     34230     34233
     34233     34234     34233     34235     34235     34236     34235     34237
     34237     34238     34237     34239     34237     34240     34240     34241
     34240     34242     34240     34243     34243     34244     34243     34245
     34243     34246     34246     34247     34246     34248     34246     34249
     34249     34250     34249     34251     34249     34252     34252     34253
     34252     34254     34252     34255     34255     34256     34255     34257
     34255     34258     34258     34259     34258     34260     34258     34261
     34209     34210     34210     34212     34210     34211     34212     34213
     34212     34214     34212     34262     34262     34263     34262     34264
     34262     34265     34265     34266     34265     34267     34265     34268
     34268     34269     34268     34270     34268     34271     34271     34272
     34271     34273     34271     34274     34274     34275     34274     34276
     34274     34277     34277     34278     34277     34279     34277     34280
     34280     34281     34280     34282     34280     34283     34283     34284
     34283     34285     34283     34286     34286     34287     34286     34288
     34286     34289     34289     34290     34289     34291     34289     34292
     34292     34293     34292     34294     34292     34295     34295     34296
     34295     34297     34295     34298     34298     34299     34298     34300
     34298     34301     34301     34302     34301     34303     34301     34304
     34305     34309     34305     34313     34305     34317     34309     34310
     34309     34311     34309     34312     34313     34314     34313     34315
     34313     34316     34317     34318     34317     34319     34317     34320
     34305     34306     34306     34307     34306     34308     34306     34321
     34321     34322     34321     34323     34321     34327     34328     34329
     34327     34324     34324     34328     34324     34325     34324     34326
     34329     34330     34329     34331     34329     34332     34332     34333
     34332     34340     34332     34334     34340     34341     34340     34342
     34340     34343     34334     34335     34335     34337     34335     34336
     34337     34338     34337     34339     34337     34349     34349     34350
     34349     34351     34349     34352     34352     34353     34352     34354
     34352     34355     34355     34356     34355     34357     34355     34358
     34358     34359     34358     34360     34358     34361     34361     34362
     34361     34363     34361     34364     34364     34365     34364     34366
     34364     34367     34367     34368     34367     34369     34369     34370
     34369     34371     34371     34372     34371     34373     34371     34374
     34374     34375     34374     34376     34374     34377     34377     34378
     34377     34379     34377     34380     34380     34381     34380     34382
     34380     34383     34383     34384     34383     34385     34383     34386
     34386     34387     34386     34388     34386     34389     34389     34390
     34389     34391     34389     34392     34392     34393     34392     34394
     34392     34395     34343     34344     34344     34346     34344     34345
     34346     34347     34346     34348     34346     34396     34396     34397
     34396     34398     34396     34399     34399     34400     34399     34401
     34399     34402     34402     34403     34402     34404     34402     34405
     34405     34406     34405     34407     34405     34408     34408     34409
     34408     34410     34408     34411     34411     34412     34411     34413
     34411     34414     34414     34415     34414     34416     34414     34417
     34417     34418     34417     34419     34417     34420     34420     34421
     34420     34422     34420     34423     34423     34424     34423     34425
     34423     34426     34426     34427     34426     34428     34426     34429
     34429     34430     34429     34431     34429     34432     34432     34433
     34432     34434     34432     34435     34435     34436     34435     34437
     34435     34438     34439     34443     34439     34447     34439     34451
     34443     34444     34443     34445     34443     34446     34447     34448
     34447     34449     34447     34450     34451     34452     34451     34453
     34451     34454     34439     34440     34440     34441     34440     34442
     34440     34455     34455     34456     34455     34457     34455     34461
     34462     34463     34461     34458     34458     34462     34458     34459
     34458     34460     34463     34464     34463     34465     34463     34466
     34466     34467     34466     34474     34466     34468     34474     34475
     34474     34476     34474     34477     34468     34469     34469     34471
     34469     34470     34471     34472     34471     34473     34471     34483
     34483     34484     34483     34485     34483     34486     34486     34487
     34486     34488     34486     34489     34489     34490     34489     34491
     34489     34492     34492     34493     34492     34494     34492     34495
     34495     34496     34495     34497     34495     34498     34498     34499
     34498     34500     34498     34501     34501     34502     34501     34503
     34503     34504     34503     34505     34505     34506     34505     34507
     34505     34508     34508     34509     34508     34510     34508     34511
     34511     34512     34511     34513     34511     34514     34514     34515
     34514     34516     34514     34517     34517     34518     34517     34519
     34517     34520     34520     34521     34520     34522     34520     34523
     34523     34524     34523     34525     34523     34526     34526     34527
     34526     34528     34526     34529     34477     34478     34478     34480
     34478     34479     34480     34481     34480     34482     34480     34530
     34530     34531     34530     34532     34530     34533     34533     34534
     34533     34535     34533     34536     34536     34537     34536     34538
     34536     34539     34539     34540     34539     34541     34539     34542
     34542     34543     34542     34544     34542     34545     34545     34546
     34545     34547     34545     34548     34548     34549     34548     34550
     34548     34551     34551     34552     34551     34553     34551     34554
     34554     34555     34554     34556     34554     34557     34557     34558
     34557     34559     34557     34560     34560     34561     34560     34562
     34560     34563     34563     34564     34563     34565     34563     34566
     34566     34567     34566     34568     34566     34569     34569     34570
     34569     34571     34569     34572     34573     34577     34573     34581
     34573     34585     34577     34578     34577     34579     34577     34580
     34581     34582     34581     34583     34581     34584     34585     34586
     34585     34587     34585     34588     34573     34574     34574     34575
     34574     34576     34574     34589     34589     34590     34589     34591
     34589     34595     34596     34597     34595     34592     34592     34596
     34592     34593     34592     34594     34597     34598     34597     34599
     34597     34600     34600     34601     34600     34608     34600     34602
     34608     34609     34608     34610     34608     34611     34602     34603
     34603     34605     34603     34604     34605     34606     34605     34607
     34605     34617     34617     34618     34617     34619     34617     34620
     34620     34621     34620     34622     34620     34623     34623     34624
     34623     34625     34623     34626     34626     34627     34626     34628
     34626     34629     34629     34630     34629     34631     34629     34632
     34632     34633     34632     34634     34632     34635     34635     34636
     34635     34637     34637     34638     34637     34639     34639     34640
     34639     34641     34639     34642     34642     34643     34642     34644
     34642     34645     34645     34646     34645     34647     34645     34648
     34648     34649     34648     34650     34648     34651     34651     34652
     34651     34653     34651     34654     34654     34655     34654     34656
     34654     34657     34657     34658     34657     34659     34657     34660
     34660     34661     34660     34662     34660     34663     34611     34612
     34612     34614     34612     34613     34614     34615     34614     34616
     34614     34664     34664     34665     34664     34666     34664     34667
     34667     34668     34667     34669     34667     34670     34670     34671
     34670     34672     34670     34673     34673     34674     34673     34675
     34673     34676     34676     34677     34676     34678     34676     34679
     34679     34680     34679     34681     34679     34682     34682     34683
     34682     34684     34682     34685     34685     34686     34685     34687
     34685     34688     34688     34689     34688     34690     34688     34691
     34691     34692     34691     34693     34691     34694     34694     34695
     34694     34696     34694     34697     34697     34698     34697     34699
     34697     34700     34700     34701     34700     34702     34700     34703
     34703     34704     34703     34705     34703     34706     34707     34711
     34707     34715     34707     34719     34711     34712     34711     34713
     34711     34714     34715     34716     34715     34717     34715     34718
     34719     34720     34719     34721     34719     34722     34707     34708
     34708     34709     34708     34710     34708     34723     34723     34724
     34723     34725     34723     34729     34730     34731     34729     34726
     34726     34730     34726     34727     34726     34728     34731     34732
     34731     34733     34731     34734     34734     34735     34734     34742
     34734     34736     34742     34743     34742     34744     34742     34745
     34736     34737     34737     34739     34737     34738     34739     34740
     34739     34741     34739     34751     34751     34752     34751     34753
     34751     34754     34754     34755     34754     34756     34754     34757
     34757     34758     34757     34759     34757     34760     34760     34761
     34760     34762     34760     34763     34763     34764     34763     34765
     34763     34766     34766     34767     34766     34768     34766     34769
     34769     34770     34769     34771     34771     34772     34771     34773
     34773     34774     34773     34775     34773     34776     34776     34777
     34776     34778     34776     34779     34779     34780     34779     34781
     34779     34782     34782     34783     34782     34784     34782     34785
     34785     34786     34785     34787     34785     34788     34788     34789
     34788     34790     34788     34791     34791     34792     34791     34793
     34791     34794     34794     34795     34794     34796     34794     34797
     34745     34746     34746     34748     34746     34747     34748     34749
     34748     34750     34748     34798     34798     34799     34798     34800
     34798     34801     34801     34802     34801     34803     34801     34804
     34804     34805     34804     34806     34804     34807     34807     34808
     34807     34809     34807     34810     34810     34811     34810     34812
     34810     34813     34813     34814     34813     34815     34813     34816
     34816     34817     34816     34818     34816     34819     34819     34820
     34819     34821     34819     34822     34822     34823     34822     34824
     34822     34825     34825     34826     34825     34827     34825     34828
     34828     34829     34828     34830     34828     34831     34831     34832
     34831     34833     34831     34834     34834     34835     34834     34836
     34834     34837     34837     34838     34837     34839     34837     34840
     34841     34845     34841     34849     34841     34853     34845     34846
     34845     34847     34845     34848     34849     34850     34849     34851
     34849     34852     34853     34854     34853     34855     34853     34856
     34841     34842     34842     34843     34842     34844     34842     34857
     34857     34858     34857     34859     34857     34863     34864     34865
     34863     34860     34860     34864     34860     34861     34860     34862
     34865     34866     34865     34867     34865     34868     34868     34869
     34868     34876     34868     34870     34876     34877     34876     34878
     34876     34879     34870     34871     34871     34873     34871     34872
     34873     34874     34873     34875     34873     34885     34885     34886
     34885     34887     34885     34888     34888     34889     34888     34890
     34888     34891     34891     34892     34891     34893     34891     34894
     34894     34895     34894     34896     34894     34897     34897     34898
     34897     34899     34897     34900     34900     34901     34900     34902
     34900     34903     34903     34904     34903     34905     34905     34906
     34905     34907     34907     34908     34907     34909     34907     34910
     34910     34911     34910     34912     34910     34913     34913     34914
     34913     34915     34913     34916     34916     34917     34916     34918
     34916     34919     34919     34920     34919     34921     34919     34922
     34922     34923     34922     34924     34922     34925     34925     34926
     34925     34927     34925     34928     34928     34929     34928     34930
     34928     34931     34879     34880     34880     34882     34880     34881
     34882     34883     34882     34884     34882     34932     34932     34933
     34932     34934     34932     34935     34935     34936     34935     34937
     34935     34938     34938     34939     34938     34940     34938     34941
     34941     34942     34941     34943     34941     34944     34944     34945
     34944     34946     34944     34947     34947     34948     34947     34949
     34947     34950     34950     34951     34950     34952     34950     34953
     34953     34954     34953     34955     34953     34956     34956     34957
     34956     34958     34956     34959     34959     34960     34959     34961
     34959     34962     34962     34963     34962     34964     34962     34965
     34965     34966     34965     34967     34965     34968     34968     34969
     34968     34970     34968     34971     34971     34972     34971     34973
     34971     34974     34975     34979     34975     34983     34975     34987
     34979     34980     34979     34981     34979     34982     34983     34984
     34983     34985     34983     34986     34987     34988     34987     34989
     34987     34990     34975     34976     34976     34977     34976     34978
     34976     34991     34991     34992     34991     34993     34991     34997
     34998     34999     34997     34994     34994     34998     34994     34995
     34994     34996     34999     35000     34999     35001     34999     35002
     35002     35003     35002     35010     35002     35004     35010     35011
     35010     35012     35010     35013     35004     35005     35005     35007
     35005     35006     35007     35008     35007     35009     35007     35019
     35019     35020     35019     35021     35019     35022     35022     35023
     35022     35024     35022     35025     35025     35026     35025     35027
     35025     35028     35028     35029     35028     35030     35028     35031
     35031     35032     35031     35033     35031     35034     35034     35035
     35034     35036     35034     35037     35037     35038     35037     35039
     35039     35040     35039     35041     35041     35042     35041     35043
     35041     35044     35044     35045     35044     35046     35044     35047
     35047     35048     35047     35049     35047     35050     35050     35051
     35050     35052     35050     35053     35053     35054     35053     35055
     35053     35056     35056     35057     35056     35058     35056     35059
     35059     35060     35059     35061     35059     35062     35062     35063
     35062     35064     35062     35065     35013     35014     35014     35016
     35014     35015     35016     35017     35016     35018     35016     35066
     35066     35067     35066     35068     35066     35069     35069     35070
     35069     35071     35069     35072     35072     35073     35072     35074
     35072     35075     35075     35076     35075     35077     35075     35078
     35078     35079     35078     35080     35078     35081     35081     35082
     35081     35083     35081     35084     35084     35085     35084     35086
     35084     35087     35087     35088     35087     35089     35087     35090
     35090     35091     35090     35092     35090     35093     35093     35094
     35093     35095     35093     35096     35096     35097     35096     35098
     35096     35099     35099     35100     35099     35101     35099     35102
     35102     35103     35102     35104     35102     35105     35105     35106
     35105     35107     35105     35108     35109     35113     35109     35117
     35109     35121     35113     35114     35113     35115     35113     35116
     35117     35118     35117     35119     35117     35120     35121     35122
     35121     35123     35121     35124     35109     35110     35110     35111
     35110     35112     35110     35125     35125     35126     35125     35127
     35125     35131     35132     35133     35131     35128     35128     35132
     35128     35129     35128     35130     35133     35134     35133     35135
     35133     35136     35136     35137     35136     35144     35136     35138
     35144     35145     35144     35146     35144     35147     35138     35139
     35139     35141     35139     35140     35141     35142     35141     35143
     35141     35153     35153     35154     35153     35155     35153     35156
     35156     35157     35156     35158     35156     35159     35159     35160
     35159     35161     35159     35162     35162     35163     35162     35164
     35162     35165     35165     35166     35165     35167     35165     35168
     35168     35169     35168     35170     35168     35171     35171     35172
     35171     35173     35173     35174     35173     35175     35175     35176
     35175     35177     35175     35178     35178     35179     35178     35180
     35178     35181     35181     35182     35181     35183     35181     35184
     35184     35185     35184     35186     35184     35187     35187     35188
     35187     35189     35187     35190     35190     35191     35190     35192
     35190     35193     35193     35194     35193     35195     35193     35196
     35196     35197     35196     35198     35196     35199     35147     35148
     35148     35150     35148     35149     35150     35151     35150     35152
     35150     35200     35200     35201     35200     35202     35200     35203
     35203     35204     35203     35205     35203     35206     35206     35207
     35206     35208     35206     35209     35209     35210     35209     35211
     35209     35212     35212     35213     35212     35214     35212     35215
     35215     35216     35215     35217     35215     35218     35218     35219
     35218     35220     35218     35221     35221     35222     35221     35223
     35221     35224     35224     35225     35224     35226     35224     35227
     35227     35228     35227     35229     35227     35230     35230     35231
     35230     35232     35230     35233     35233     35234     35233     35235
     35233     35236     35236     35237     35236     35238     35236     35239
     35239     35240     35239     35241     35239     35242     35243     35247
     35243     35251     35243     35255     35247     35248     35247     35249
     35247     35250     35251     35252     35251     35253     35251     35254
     35255     35256     35255     35257     35255     35258     35243     35244
     35244     35245     35244     35246     35244     35259     35259     35260
     35259     35261     35259     35265     35266     35267     35265     35262
     35262     35266     35262     35263     35262     35264     35267     35268
     35267     35269     35267     35270     35270     35271     35270     35278
     35270     35272     35278     35279     35278     35280     35278     35281
     35272     35273     35273     35275     35273     35274     35275     35276
     35275     35277     35275     35287     35287     35288     35287     35289
     35287     35290     35290     35291     35290     35292     35290     35293
     35293     35294     35293     35295     35293     35296     35296     35297
     35296     35298     35296     35299     35299     35300     35299     35301
     35299     35302     35302     35303     35302     35304     35302     35305
     35305     35306     35305     35307     35307     35308     35307     35309
     35309     35310     35309     35311     35309     35312     35312     35313
     35312     35314     35312     35315     35315     35316     35315     35317
     35315     35318     35318     35319     35318     35320     35318     35321
     35321     35322     35321     35323     35321     35324     35324     35325
     35324     35326     35324     35327     35327     35328     35327     35329
     35327     35330     35330     35331     35330     35332     35330     35333
     35281     35282     35282     35284     35282     35283     35284     35285
     35284     35286     35284     35334     35334     35335     35334     35336
     35334     35337     35337     35338     35337     35339     35337     35340
     35340     35341     35340     35342     35340     35343     35343     35344
     35343     35345     35343     35346     35346     35347     35346     35348
     35346     35349     35349     35350     35349     35351     35349     35352
     35352     35353     35352     35354     35352     35355     35355     35356
     35355     35357     35355     35358     35358     35359     35358     35360
     35358     35361     35361     35362     35361     35363     35361     35364
     35364     35365     35364     35366     35364     35367     35367     35368
     35367     35369     35367     35370     35370     35371     35370     35372
     35370     35373     35373     35374     35373     35375     35373     35376
     35377     35381     35377     35385     35377     35389     35381     35382
     35381     35383     35381     35384     35385     35386     35385     35387
     35385     35388     35389     35390     35389     35391     35389     35392
     35377     35378     35378     35379     35378     35380     35378     35393
     35393     35394     35393     35395     35393     35399     35400     35401
     35399     35396     35396     35400     35396     35397     35396     35398
     35401     35402     35401     35403     35401     35404     35404     35405
     35404     35412     35404     35406     35412     35413     35412     35414
     35412     35415     35406     35407     35407     35409     35407     35408
     35409     35410     35409     35411     35409     35421     35421     35422
     35421     35423     35421     35424     35424     35425     35424     35426
     35424     35427     35427     35428     35427     35429     35427     35430
     35430     35431     35430     35432     35430     35433     35433     35434
     35433     35435     35433     35436     35436     35437     35436     35438
     35436     35439     35439     35440     35439     35441     35441     35442
     35441     35443     35443     35444     35443     35445     35443     35446
     35446     35447     35446     35448     35446     35449     35449     35450
     35449     35451     35449     35452     35452     35453     35452     35454
     35452     35455     35455     35456     35455     35457     35455     35458
     35458     35459     35458     35460     35458     35461     35461     35462
     35461     35463     35461     35464     35464     35465     35464     35466
     35464     35467     35415     35416     35416     35418     35416     35417
     35418     35419     35418     35420     35418     35468     35468     35469
     35468     35470     35468     35471     35471     35472     35471     35473
     35471     35474     35474     35475     35474     35476     35474     35477
     35477     35478     35477     35479     35477     35480     35480     35481
     35480     35482     35480     35483     35483     35484     35483     35485
     35483     35486     35486     35487     35486     35488     35486     35489
     35489     35490     35489     35491     35489     35492     35492     35493
     35492     35494     35492     35495     35495     35496     35495     35497
     35495     35498     35498     35499     35498     35500     35498     35501
     35501     35502     35501     35503     35501     35504     35504     35505
     35504     35506     35504     35507     35507     35508     35507     35509
     35507     35510     35511     35515     35511     35519     35511     35523
     35515     35516     35515     35517     35515     35518     35519     35520
     35519     35521     35519     35522     35523     35524     35523     35525
     35523     35526     35511     35512     35512     35513     35512     35514
     35512     35527     35527     35528     35527     35529     35527     35533
     35534     35535     35533     35530     35530     35534     35530     35531
     35530     35532     35535     35536     35535     35537     35535     35538
     35538     35539     35538     35546     35538     35540     35546     35547
     35546     35548     35546     35549     35540     35541     35541     35543
     35541     35542     35543     35544     35543     35545     35543     35555
     35555     35556     35555     35557     35555     35558     35558     35559
     35558     35560     35558     35561     35561     35562     35561     35563
     35561     35564     35564     35565     35564     35566     35564     35567
     35567     35568     35567     35569     35567     35570     35570     35571
     35570     35572     35570     35573     35573     35574     35573     35575
     35575     35576     35575     35577     35577     35578     35577     35579
     35577     35580     35580     35581     35580     35582     35580     35583
     35583     35584     35583     35585     35583     35586     35586     35587
     35586     35588     35586     35589     35589     35590     35589     35591
     35589     35592     35592     35593     35592     35594     35592     35595
     35595     35596     35595     35597     35595     35598     35598     35599
     35598     35600     35598     35601     35549     35550     35550     35552
     35550     35551     35552     35553     35552     35554     35552     35602
     35602     35603     35602     35604     35602     35605     35605     35606
     35605     35607     35605     35608     35608     35609     35608     35610
     35608     35611     35611     35612     35611     35613     35611     35614
     35614     35615     35614     35616     35614     35617     35617     35618
     35617     35619     35617     35620     35620     35621     35620     35622
     35620     35623     35623     35624     35623     35625     35623     35626
     35626     35627     35626     35628     35626     35629     35629     35630
     35629     35631     35629     35632     35632     35633     35632     35634
     35632     35635     35635     35636     35635     35637     35635     35638
     35638     35639     35638     35640     35638     35641     35641     35642
     35641     35643     35641     35644     35645     35649     35645     35653
     35645     35657     35649     35650     35649     35651     35649     35652
     35653     35654     35653     35655     35653     35656     35657     35658
     35657     35659     35657     35660     35645     35646     35646     35647
     35646     35648     35646     35661     35661     35662     35661     35663
     35661     35667     35668     35669     35667     35664     35664     35668
     35664     35665     35664     35666     35669     35670     35669     35671
     35669     35672     35672     35673     35672     35680     35672     35674
     35680     35681     35680     35682     35680     35683     35674     35675
     35675     35677     35675     35676     35677     35678     35677     35679
     35677     35689     35689     35690     35689     35691     35689     35692
     35692     35693     35692     35694     35692     35695     35695     35696
     35695     35697     35695     35698     35698     35699     35698     35700
     35698     35701     35701     35702     35701     35703     35701     35704
     35704     35705     35704     35706     35704     35707     35707     35708
     35707     35709     35709     35710     35709     35711     35711     35712
     35711     35713     35711     35714     35714     35715     35714     35716
     35714     35717     35717     35718     35717     35719     35717     35720
     35720     35721     35720     35722     35720     35723     35723     35724
     35723     35725     35723     35726     35726     35727     35726     35728
     35726     35729     35729     35730     35729     35731     35729     35732
     35732     35733     35732     35734     35732     35735     35683     35684
     35684     35686     35684     35685     35686     35687     35686     35688
     35686     35736     35736     35737     35736     35738     35736     35739
     35739     35740     35739     35741     35739     35742     35742     35743
     35742     35744     35742     35745     35745     35746     35745     35747
     35745     35748     35748     35749     35748     35750     35748     35751
     35751     35752     35751     35753     35751     35754     35754     35755
     35754     35756     35754     35757     35757     35758     35757     35759
     35757     35760     35760     35761     35760     35762     35760     35763
     35763     35764     35763     35765     35763     35766     35766     35767
     35766     35768     35766     35769     35769     35770     35769     35771
     35769     35772     35772     35773     35772     35774     35772     35775
     35775     35776     35775     35777     35775     35778     35779     35783
     35779     35787     35779     35791     35783     35784     35783     35785
     35783     35786     35787     35788     35787     35789     35787     35790
     35791     35792     35791     35793     35791     35794     35779     35780
     35780     35781     35780     35782     35780     35795     35795     35796
     35795     35797     35795     35801     35802     35803     35801     35798
     35798     35802     35798     35799     35798     35800     35803     35804
     35803     35805     35803     35806     35806     35807     35806     35814
     35806     35808     35814     35815     35814     35816     35814     35817
     35808     35809     35809     35811     35809     35810     35811     35812
     35811     35813     35811     35823     35823     35824     35823     35825
     35823     35826     35826     35827     35826     35828     35826     35829
     35829     35830     35829     35831     35829     35832     35832     35833
     35832     35834     35832     35835     35835     35836     35835     35837
     35835     35838     35838     35839     35838     35840     35838     35841
     35841     35842     35841     35843     35843     35844     35843     35845
     35845     35846     35845     35847     35845     35848     35848     35849
     35848     35850     35848     35851     35851     35852     35851     35853
     35851     35854     35854     35855     35854     35856     35854     35857
     35857     35858     35857     35859     35857     35860     35860     35861
     35860     35862     35860     35863     35863     35864     35863     35865
     35863     35866     35866     35867     35866     35868     35866     35869
     35817     35818     35818     35820     35818     35819     35820     35821
     35820     35822     35820     35870     35870     35871     35870     35872
     35870     35873     35873     35874     35873     35875     35873     35876
     35876     35877     35876     35878     35876     35879     35879     35880
     35879     35881     35879     35882     35882     35883     35882     35884
     35882     35885     35885     35886     35885     35887     35885     35888
     35888     35889     35888     35890     35888     35891     35891     35892
     35891     35893     35891     35894     35894     35895     35894     35896
     35894     35897     35897     35898     35897     35899     35897     35900
     35900     35901     35900     35902     35900     35903     35903     35904
     35903     35905     35903     35906     35906     35907     35906     35908
     35906     35909     35909     35910     35909     35911     35909     35912
     35913     35917     35913     35921     35913     35925     35917     35918
     35917     35919     35917     35920     35921     35922     35921     35923
     35921     35924     35925     35926     35925     35927     35925     35928
     35913     35914     35914     35915     35914     35916     35914     35929
     35929     35930     35929     35931     35929     35935     35936     35937
     35935     35932     35932     35936     35932     35933     35932     35934
     35937     35938     35937     35939     35937     35940     35940     35941
     35940     35948     35940     35942     35948     35949     35948     35950
     35948     35951     35942     35943     35943     35945     35943     35944
     35945     35946     35945     35947     35945     35957     35957     35958
     35957     35959     35957     35960     35960     35961     35960     35962
     35960     35963     35963     35964     35963     35965     35963     35966
     35966     35967     35966     35968     35966     35969     35969     35970
     35969     35971     35969     35972     35972     35973     35972     35974
     35972     35975     35975     35976     35975     35977     35977     35978
     35977     35979     35979     35980     35979     35981     35979     35982
     35982     35983     35982     35984     35982     35985     35985     35986
     35985     35987     35985     35988     35988     35989     35988     35990
     35988     35991     35991     35992     35991     35993     35991     35994
     35994     35995     35994     35996     35994     35997     35997     35998
     35997     35999     35997     36000     36000     36001     36000     36002
     36000     36003     35951     35952     35952     35954     35952     35953
     35954     35955     35954     35956     35954     36004     36004     36005
     36004     36006     36004     36007     36007     36008     36007     36009
     36007     36010     36010     36011     36010     36012     36010     36013
     36013     36014     36013     36015     36013     36016     36016     36017
     36016     36018     36016     36019     36019     36020     36019     36021
     36019     36022     36022     36023     36022     36024     36022     36025
     36025     36026     36025     36027     36025     36028     36028     36029
     36028     36030     36028     36031     36031     36032     36031     36033
     36031     36034     36034     36035     36034     36036     36034     36037
     36037     36038     36037     36039     36037     36040     36040     36041
     36040     36042     36040     36043     36043     36044     36043     36045
     36043     36046     36047     36051     36047     36055     36047     36059
     36051     36052     36051     36053     36051     36054     36055     36056
     36055     36057     36055     36058     36059     36060     36059     36061
     36059     36062     36047     36048     36048     36049     36048     36050
     36048     36063     36063     36064     36063     36065     36063     36069
     36070     36071     36069     36066     36066     36070     36066     36067
     36066     36068     36071     36072     36071     36073     36071     36074
     36074     36075     36074     36082     36074     36076     36082     36083
     36082     36084     36082     36085     36076     36077     36077     36079
     36077     36078     36079     36080     36079     36081     36079     36091
     36091     36092     36091     36093     36091     36094     36094     36095
     36094     36096     36094     36097     36097     36098     36097     36099
     36097     36100     36100     36101     36100     36102     36100     36103
     36103     36104     36103     36105     36103     36106     36106     36107
     36106     36108     36106     36109     36109     36110     36109     36111
     36111     36112     36111     36113     36113     36114     36113     36115
     36113     36116     36116     36117     36116     36118     36116     36119
     36119     36120     36119     36121     36119     36122     36122     36123
     36122     36124     36122     36125     36125     36126     36125     36127
     36125     36128     36128     36129     36128     36130     36128     36131
     36131     36132     36131     36133     36131     36134     36134     36135
     36134     36136     36134     36137     36085     36086     36086     36088
     36086     36087     36088     36089     36088     36090     36088     36138
     36138     36139     36138     36140     36138     36141     36141     36142
     36141     36143     36141     36144     36144     36145     36144     36146
     36144     36147     36147     36148     36147     36149     36147     36150
     36150     36151     36150     36152     36150     36153     36153     36154
     36153     36155     36153     36156     36156     36157     36156     36158
     36156     36159     36159     36160     36159     36161     36159     36162
     36162     36163     36162     36164     36162     36165     36165     36166
     36165     36167     36165     36168     36168     36169     36168     36170
     36168     36171     36171     36172     36171     36173     36171     36174
     36174     36175     36174     36176     36174     36177     36177     36178
     36177     36179     36177     36180     36181     36185     36181     36189
     36181     36193     36185     36186     36185     36187     36185     36188
     36189     36190     36189     36191     36189     36192     36193     36194
     36193     36195     36193     36196     36181     36182     36182     36183
     36182     36184     36182     36197     36197     36198     36197     36199
     36197     36203     36204     36205     36203     36200     36200     36204
     36200     36201     36200     36202     36205     36206     36205     36207
     36205     36208     36208     36209     36208     36216     36208     36210
     36216     36217     36216     36218     36216     36219     36210     36211
     36211     36213     36211     36212     36213     36214     36213     36215
     36213     36225     36225     36226     36225     36227     36225     36228
     36228     36229     36228     36230     36228     36231     36231     36232
     36231     36233     36231     36234     36234     36235     36234     36236
     36234     36237     36237     36238     36237     36239     36237     36240
     36240     36241     36240     36242     36240     36243     36243     36244
     36243     36245     36245     36246     36245     36247     36247     36248
     36247     36249     36247     36250     36250     36251     36250     36252
     36250     36253     36253     36254     36253     36255     36253     36256
     36256     36257     36256     36258     36256     36259     36259     36260
     36259     36261     36259     36262     36262     36263     36262     36264
     36262     36265     36265     36266     36265     36267     36265     36268
     36268     36269     36268     36270     36268     36271     36219     36220
     36220     36222     36220     36221     36222     36223     36222     36224
     36222     36272     36272     36273     36272     36274     36272     36275
     36275     36276     36275     36277     36275     36278     36278     36279
     36278     36280     36278     36281     36281     36282     36281     36283
     36281     36284     36284     36285     36284     36286     36284     36287
     36287     36288     36287     36289     36287     36290     36290     36291
     36290     36292     36290     36293     36293     36294     36293     36295
     36293     36296     36296     36297     36296     36298     36296     36299
     36299     36300     36299     36301     36299     36302     36302     36303
     36302     36304     36302     36305     36305     36306     36305     36307
     36305     36308     36308     36309     36308     36310     36308     36311
     36311     36312     36311     36313     36311     36314     36315     36319
     36315     36323     36315     36327     36319     36320     36319     36321
     36319     36322     36323     36324     36323     36325     36323     36326
     36327     36328     36327     36329     36327     36330     36315     36316
     36316     36317     36316     36318     36316     36331     36331     36332
     36331     36333     36331     36337     36338     36339     36337     36334
     36334     36338     36334     36335     36334     36336     36339     36340
     36339     36341     36339     36342     36342     36343     36342     36350
     36342     36344     36350     36351     36350     36352     36350     36353
     36344     36345     36345     36347     36345     36346     36347     36348
     36347     36349     36347     36359     36359     36360     36359     36361
     36359     36362     36362     36363     36362     36364     36362     36365
     36365     36366     36365     36367     36365     36368     36368     36369
     36368     36370     36368     36371     36371     36372     36371     36373
     36371     36374     36374     36375     36374     36376     36374     36377
     36377     36378     36377     36379     36379     36380     36379     36381
     36381     36382     36381     36383     36381     36384     36384     36385
     36384     36386     36384     36387     36387     36388     36387     36389
     36387     36390     36390     36391     36390     36392     36390     36393
     36393     36394     36393     36395     36393     36396     36396     36397
     36396     36398     36396     36399     36399     36400     36399     36401
     36399     36402     36402     36403     36402     36404     36402     36405
     36353     36354     36354     36356     36354     36355     36356     36357
     36356     36358     36356     36406     36406     36407     36406     36408
     36406     36409     36409     36410     36409     36411     36409     36412
     36412     36413     36412     36414     36412     36415     36415     36416
     36415     36417     36415     36418     36418     36419     36418     36420
     36418     36421     36421     36422     36421     36423     36421     36424
     36424     36425     36424     36426     36424     36427     36427     36428
     36427     36429     36427     36430     36430     36431     36430     36432
     36430     36433     36433     36434     36433     36435     36433     36436
     36436     36437     36436     36438     36436     36439     36439     36440
     36439     36441     36439     36442     36442     36443     36442     36444
     36442     36445     36445     36446     36445     36447     36445     36448
     36449     36453     36449     36457     36449     36461     36453     36454
     36453     36455     36453     36456     36457     36458     36457     36459
     36457     36460     36461     36462     36461     36463     36461     36464
     36449     36450     36450     36451     36450     36452     36450     36465
     36465     36466     36465     36467     36465     36471     36472     36473
     36471     36468     36468     36472     36468     36469     36468     36470
     36473     36474     36473     36475     36473     36476     36476     36477
     36476     36484     36476     36478     36484     36485     36484     36486
     36484     36487     36478     36479     36479     36481     36479     36480
     36481     36482     36481     36483     36481     36493     36493     36494
     36493     36495     36493     36496     36496     36497     36496     36498
     36496     36499     36499     36500     36499     36501     36499     36502
     36502     36503     36502     36504     36502     36505     36505     36506
     36505     36507     36505     36508     36508     36509     36508     36510
     36508     36511     36511     36512     36511     36513     36513     36514
     36513     36515     36515     36516     36515     36517     36515     36518
     36518     36519     36518     36520     36518     36521     36521     36522
     36521     36523     36521     36524     36524     36525     36524     36526
     36524     36527     36527     36528     36527     36529     36527     36530
     36530     36531     36530     36532     36530     36533     36533     36534
     36533     36535     36533     36536     36536     36537     36536     36538
     36536     36539     36487     36488     36488     36490     36488     36489
     36490     36491     36490     36492     36490     36540     36540     36541
     36540     36542     36540     36543     36543     36544     36543     36545
     36543     36546     36546     36547     36546     36548     36546     36549
     36549     36550     36549     36551     36549     36552     36552     36553
     36552     36554     36552     36555     36555     36556     36555     36557
     36555     36558     36558     36559     36558     36560     36558     36561
     36561     36562     36561     36563     36561     36564     36564     36565
     36564     36566     36564     36567     36567     36568     36567     36569
     36567     36570     36570     36571     36570     36572     36570     36573
     36573     36574     36573     36575     36573     36576     36576     36577
     36576     36578     36576     36579     36579     36580     36579     36581
     36579     36582     36583     36587     36583     36591     36583     36595
     36587     36588     36587     36589     36587     36590     36591     36592
     36591     36593     36591     36594     36595     36596     36595     36597
     36595     36598     36583     36584     36584     36585     36584     36586
     36584     36599     36599     36600     36599     36601     36599     36605
     36606     36607     36605     36602     36602     36606     36602     36603
     36602     36604     36607     36608     36607     36609     36607     36610
     36610     36611     36610     36618     36610     36612     36618     36619
     36618     36620     36618     36621     36612     36613     36613     36615
     36613     36614     36615     36616     36615     36617     36615     36627
     36627     36628     36627     36629     36627     36630     36630     36631
     36630     36632     36630     36633     36633     36634     36633     36635
     36633     36636     36636     36637     36636     36638     36636     36639
     36639     36640     36639     36641     36639     36642     36642     36643
     36642     36644     36642     36645     36645     36646     36645     36647
     36647     36648     36647     36649     36649     36650     36649     36651
     36649     36652     36652     36653     36652     36654     36652     36655
     36655     36656     36655     36657     36655     36658     36658     36659
     36658     36660     36658     36661     36661     36662     36661     36663
     36661     36664     36664     36665     36664     36666     36664     36667
     36667     36668     36667     36669     36667     36670     36670     36671
     36670     36672     36670     36673     36621     36622     36622     36624
     36622     36623     36624     36625     36624     36626     36624     36674
     36674     36675     36674     36676     36674     36677     36677     36678
     36677     36679     36677     36680     36680     36681     36680     36682
     36680     36683     36683     36684     36683     36685     36683     36686
     36686     36687     36686     36688     36686     36689     36689     36690
     36689     36691     36689     36692     36692     36693     36692     36694
     36692     36695     36695     36696     36695     36697     36695     36698
     36698     36699     36698     36700     36698     36701     36701     36702
     36701     36703     36701     36704     36704     36705     36704     36706
     36704     36707     36707     36708     36707     36709     36707     36710
     36710     36711     36710     36712     36710     36713     36713     36714
     36713     36715     36713     36716     36717     36721     36717     36725
     36717     36729     36721     36722     36721     36723     36721     36724
     36725     36726     36725     36727     36725     36728     36729     36730
     36729     36731     36729     36732     36717     36718     36718     36719
     36718     36720     36718     36733     36733     36734     36733     36735
     36733     36739     36740     36741     36739     36736     36736     36740
     36736     36737     36736     36738     36741     36742     36741     36743
     36741     36744     36744     36745     36744     36752     36744     36746
     36752     36753     36752     36754     36752     36755     36746     36747
     36747     36749     36747     36748     36749     36750     36749     36751
     36749     36761     36761     36762     36761     36763     36761     36764
     36764     36765     36764     36766     36764     36767     36767     36768
     36767     36769     36767     36770     36770     36771     36770     36772
     36770     36773     36773     36774     36773     36775     36773     36776
     36776     36777     36776     36778     36776     36779     36779     36780
     36779     36781     36781     36782     36781     36783     36783     36784
     36783     36785     36783     36786     36786     36787     36786     36788
     36786     36789     36789     36790     36789     36791     36789     36792
     36792     36793     36792     36794     36792     36795     36795     36796
     36795     36797     36795     36798     36798     36799     36798     36800
     36798     36801     36801     36802     36801     36803     36801     36804
     36804     36805     36804     36806     36804     36807     36755     36756
     36756     36758     36756     36757     36758     36759     36758     36760
     36758     36808     36808     36809     36808     36810     36808     36811
     36811     36812     36811     36813     36811     36814     36814     36815
     36814     36816     36814     36817     36817     36818     36817     36819
     36817     36820     36820     36821     36820     36822     36820     36823
     36823     36824     36823     36825     36823     36826     36826     36827
     36826     36828     36826     36829     36829     36830     36829     36831
     36829     36832     36832     36833     36832     36834     36832     36835
     36835     36836     36835     36837     36835     36838     36838     36839
     36838     36840     36838     36841     36841     36842     36841     36843
     36841     36844     36844     36845     36844     36846     36844     36847
     36847     36848     36847     36849     36847     36850     36851     36855
     36851     36859     36851     36863     36855     36856     36855     36857
     36855     36858     36859     36860     36859     36861     36859     36862
     36863     36864     36863     36865     36863     36866     36851     36852
     36852     36853     36852     36854     36852     36867     36867     36868
     36867     36869     36867     36873     36874     36875     36873     36870
     36870     36874     36870     36871     36870     36872     36875     36876
     36875     36877     36875     36878     36878     36879     36878     36886
     36878     36880     36886     36887     36886     36888     36886     36889
     36880     36881     36881     36883     36881     36882     36883     36884
     36883     36885     36883     36895     36895     36896     36895     36897
     36895     36898     36898     36899     36898     36900     36898     36901
     36901     36902     36901     36903     36901     36904     36904     36905
     36904     36906     36904     36907     36907     36908     36907     36909
     36907     36910     36910     36911     36910     36912     36910     36913
     36913     36914     36913     36915     36915     36916     36915     36917
     36917     36918     36917     36919     36917     36920     36920     36921
     36920     36922     36920     36923     36923     36924     36923     36925
     36923     36926     36926     36927     36926     36928     36926     36929
     36929     36930     36929     36931     36929     36932     36932     36933
     36932     36934     36932     36935     36935     36936     36935     36937
     36935     36938     36938     36939     36938     36940     36938     36941
     36889     36890     36890     36892     36890     36891     36892     36893
     36892     36894     36892     36942     36942     36943     36942     36944
     36942     36945     36945     36946     36945     36947     36945     36948
     36948     36949     36948     36950     36948     36951     36951     36952
     36951     36953     36951     36954     36954     36955     36954     36956
     36954     36957     36957     36958     36957     36959     36957     36960
     36960     36961     36960     36962     36960     36963     36963     36964
     36963     36965     36963     36966     36966     36967     36966     36968
     36966     36969     36969     36970     36969     36971     36969     36972
     36972     36973     36972     36974     36972     36975     36975     36976
     36975     36977     36975     36978     36978     36979     36978     36980
     36978     36981     36981     36982     36981     36983     36981     36984
     36985     36989     36985     36993     36985     36997     36989     36990
     36989     36991     36989     36992     36993     36994     36993     36995
     36993     36996     36997     36998     36997     36999     36997     37000
     36985     36986     36986     36987     36986     36988     36986     37001
     37001     37002     37001     37003     37001     37007     37008     37009
     37007     37004     37004     37008     37004     37005     37004     37006
     37009     37010     37009     37011     37009     37012     37012     37013
     37012     37020     37012     37014     37020     37021     37020     37022
     37020     37023     37014     37015     37015     37017     37015     37016
     37017     37018     37017     37019     37017     37029     37029     37030
     37029     37031     37029     37032     37032     37033     37032     37034
     37032     37035     37035     37036     37035     37037     37035     37038
     37038     37039     37038     37040     37038     37041     37041     37042
     37041     37043     37041     37044     37044     37045     37044     37046
     37044     37047     37047     37048     37047     37049     37049     37050
     37049     37051     37051     37052     37051     37053     37051     37054
     37054     37055     37054     37056     37054     37057     37057     37058
     37057     37059     37057     37060     37060     37061     37060     37062
     37060     37063     37063     37064     37063     37065     37063     37066
     37066     37067     37066     37068     37066     37069     37069     37070
     37069     37071     37069     37072     37072     37073     37072     37074
     37072     37075     37023     37024     37024     37026     37024     37025
     37026     37027     37026     37028     37026     37076     37076     37077
     37076     37078     37076     37079     37079     37080     37079     37081
     37079     37082     37082     37083     37082     37084     37082     37085
     37085     37086     37085     37087     37085     37088     37088     37089
     37088     37090     37088     37091     37091     37092     37091     37093
     37091     37094     37094     37095     37094     37096     37094     37097
     37097     37098     37097     37099     37097     37100     37100     37101
     37100     37102     37100     37103     37103     37104     37103     37105
     37103     37106     37106     37107     37106     37108     37106     37109
     37109     37110     37109     37111     37109     37112     37112     37113
     37112     37114     37112     37115     37115     37116     37115     37117
     37115     37118     37119     37123     37119     37127     37119     37131
     37123     37124     37123     37125     37123     37126     37127     37128
     37127     37129     37127     37130     37131     37132     37131     37133
     37131     37134     37119     37120     37120     37121     37120     37122
     37120     37135     37135     37136     37135     37137     37135     37141
     37142     37143     37141     37138     37138     37142     37138     37139
     37138     37140     37143     37144     37143     37145     37143     37146
     37146     37147     37146     37154     37146     37148     37154     37155
     37154     37156     37154     37157     37148     37149     37149     37151
     37149     37150     37151     37152     37151     37153     37151     37163
     37163     37164     37163     37165     37163     37166     37166     37167
     37166     37168     37166     37169     37169     37170     37169     37171
     37169     37172     37172     37173     37172     37174     37172     37175
     37175     37176     37175     37177     37175     37178     37178     37179
     37178     37180     37178     37181     37181     37182     37181     37183
     37183     37184     37183     37185     37185     37186     37185     37187
     37185     37188     37188     37189     37188     37190     37188     37191
     37191     37192     37191     37193     37191     37194     37194     37195
     37194     37196     37194     37197     37197     37198     37197     37199
     37197     37200     37200     37201     37200     37202     37200     37203
     37203     37204     37203     37205     37203     37206     37206     37207
     37206     37208     37206     37209     37157     37158     37158     37160
     37158     37159     37160     37161     37160     37162     37160     37210
     37210     37211     37210     37212     37210     37213     37213     37214
     37213     37215     37213     37216     37216     37217     37216     37218
     37216     37219     37219     37220     37219     37221     37219     37222
     37222     37223     37222     37224     37222     37225     37225     37226
     37225     37227     37225     37228     37228     37229     37228     37230
     37228     37231     37231     37232     37231     37233     37231     37234
     37234     37235     37234     37236     37234     37237     37237     37238
     37237     37239     37237     37240     37240     37241     37240     37242
     37240     37243     37243     37244     37243     37245     37243     37246
     37246     37247     37246     37248     37246     37249     37249     37250
     37249     37251     37249     37252     37253     37257     37253     37261
     37253     37265     37257     37258     37257     37259     37257     37260
     37261     37262     37261     37263     37261     37264     37265     37266
     37265     37267     37265     37268     37253     37254     37254     37255
     37254     37256     37254     37269     37269     37270     37269     37271
     37269     37275     37276     37277     37275     37272     37272     37276
     37272     37273     37272     37274     37277     37278     37277     37279
     37277     37280     37280     37281     37280     37288     37280     37282
     37288     37289     37288     37290     37288     37291     37282     37283
     37283     37285     37283     37284     37285     37286     37285     37287
     37285     37297     37297     37298     37297     37299     37297     37300
     37300     37301     37300     37302     37300     37303     37303     37304
     37303     37305     37303     37306     37306     37307     37306     37308
     37306     37309     37309     37310     37309     37311     37309     37312
     37312     37313     37312     37314     37312     37315     37315     37316
     37315     37317     37317     37318     37317     37319     37319     37320
     37319     37321     37319     37322     37322     37323     37322     37324
     37322     37325     37325     37326     37325     37327     37325     37328
     37328     37329     37328     37330     37328     37331     37331     37332
     37331     37333     37331     37334     37334     37335     37334     37336
     37334     37337     37337     37338     37337     37339     37337     37340
     37340     37341     37340     37342     37340     37343     37291     37292
     37292     37294     37292     37293     37294     37295     37294     37296
     37294     37344     37344     37345     37344     37346     37344     37347
     37347     37348     37347     37349     37347     37350     37350     37351
     37350     37352     37350     37353     37353     37354     37353     37355
     37353     37356     37356     37357     37356     37358     37356     37359
     37359     37360     37359     37361     37359     37362     37362     37363
     37362     37364     37362     37365     37365     37366     37365     37367
     37365     37368     37368     37369     37368     37370     37368     37371
     37371     37372     37371     37373     37371     37374     37374     37375
     37374     37376     37374     37377     37377     37378     37377     37379
     37377     37380     37380     37381     37380     37382     37380     37383
     37383     37384     37383     37385     37383     37386     37387     37391
     37387     37395     37387     37399     37391     37392     37391     37393
     37391     37394     37395     37396     37395     37397     37395     37398
     37399     37400     37399     37401     37399     37402     37387     37388
     37388     37389     37388     37390     37388     37403     37403     37404
     37403     37405     37403     37409     37410     37411     37409     37406
     37406     37410     37406     37407     37406     37408     37411     37412
     37411     37413     37411     37414     37414     37415     37414     37422
     37414     37416     37422     37423     37422     37424     37422     37425
     37416     37417     37417     37419     37417     37418     37419     37420
     37419     37421     37419     37431     37431     37432     37431     37433
     37431     37434     37434     37435     37434     37436     37434     37437
     37437     37438     37437     37439     37437     37440     37440     37441
     37440     37442     37440     37443     37443     37444     37443     37445
     37443     37446     37446     37447     37446     37448     37446     37449
     37449     37450     37449     37451     37451     37452     37451     37453
     37453     37454     37453     37455     37453     37456     37456     37457
     37456     37458     37456     37459     37459     37460     37459     37461
     37459     37462     37462     37463     37462     37464     37462     37465
     37465     37466     37465     37467     37465     37468     37468     37469
     37468     37470     37468     37471     37471     37472     37471     37473
     37471     37474     37474     37475     37474     37476     37474     37477
     37425     37426     37426     37428     37426     37427     37428     37429
     37428     37430     37428     37478     37478     37479     37478     37480
     37478     37481     37481     37482     37481     37483     37481     37484
     37484     37485     37484     37486     37484     37487     37487     37488
     37487     37489     37487     37490     37490     37491     37490     37492
     37490     37493     37493     37494     37493     37495     37493     37496
     37496     37497     37496     37498     37496     37499     37499     37500
     37499     37501     37499     37502     37502     37503     37502     37504
     37502     37505     37505     37506     37505     37507     37505     37508
     37508     37509     37508     37510     37508     37511     37511     37512
     37511     37513     37511     37514     37514     37515     37514     37516
     37514     37517     37517     37518     37517     37519     37517     37520
     37521     37525     37521     37529     37521     37533     37525     37526
     37525     37527     37525     37528     37529     37530     37529     37531
     37529     37532     37533     37534     37533     37535     37533     37536
     37521     37522     37522     37523     37522     37524     37522     37537
     37537     37538     37537     37539     37537     37543     37544     37545
     37543     37540     37540     37544     37540     37541     37540     37542
     37545     37546     37545     37547     37545     37548     37548     37549
     37548     37556     37548     37550     37556     37557     37556     37558
     37556     37559     37550     37551     37551     37553     37551     37552
     37553     37554     37553     37555     37553     37565     37565     37566
     37565     37567     37565     37568     37568     37569     37568     37570
     37568     37571     37571     37572     37571     37573     37571     37574
     37574     37575     37574     37576     37574     37577     37577     37578
     37577     37579     37577     37580     37580     37581     37580     37582
     37580     37583     37583     37584     37583     37585     37585     37586
     37585     37587     37587     37588     37587     37589     37587     37590
     37590     37591     37590     37592     37590     37593     37593     37594
     37593     37595     37593     37596     37596     37597     37596     37598
     37596     37599     37599     37600     37599     37601     37599     37602
     37602     37603     37602     37604     37602     37605     37605     37606
     37605     37607     37605     37608     37608     37609     37608     37610
     37608     37611     37559     37560     37560     37562     37560     37561
     37562     37563     37562     37564     37562     37612     37612     37613
     37612     37614     37612     37615     37615     37616     37615     37617
     37615     37618     37618     37619     37618     37620     37618     37621
     37621     37622     37621     37623     37621     37624     37624     37625
     37624     37626     37624     37627     37627     37628     37627     37629
     37627     37630     37630     37631     37630     37632     37630     37633
     37633     37634     37633     37635     37633     37636     37636     37637
     37636     37638     37636     37639     37639     37640     37639     37641
     37639     37642     37642     37643     37642     37644     37642     37645
     37645     37646     37645     37647     37645     37648     37648     37649
     37648     37650     37648     37651     37651     37652     37651     37653
     37651     37654     37655     37659     37655     37663     37655     37667
     37659     37660     37659     37661     37659     37662     37663     37664
     37663     37665     37663     37666     37667     37668     37667     37669
     37667     37670     37655     37656     37656     37657     37656     37658
     37656     37671     37671     37672     37671     37673     37671     37677
     37678     37679     37677     37674     37674     37678     37674     37675
     37674     37676     37679     37680     37679     37681     37679     37682
     37682     37683     37682     37690     37682     37684     37690     37691
     37690     37692     37690     37693     37684     37685     37685     37687
     37685     37686     37687     37688     37687     37689     37687     37699
     37699     37700     37699     37701     37699     37702     37702     37703
     37702     37704     37702     37705     37705     37706     37705     37707
     37705     37708     37708     37709     37708     37710     37708     37711
     37711     37712     37711     37713     37711     37714     37714     37715
     37714     37716     37714     37717     37717     37718     37717     37719
     37719     37720     37719     37721     37721     37722     37721     37723
     37721     37724     37724     37725     37724     37726     37724     37727
     37727     37728     37727     37729     37727     37730     37730     37731
     37730     37732     37730     37733     37733     37734     37733     37735
     37733     37736     37736     37737     37736     37738     37736     37739
     37739     37740     37739     37741     37739     37742     37742     37743
     37742     37744     37742     37745     37693     37694     37694     37696
     37694     37695     37696     37697     37696     37698     37696     37746
     37746     37747     37746     37748     37746     37749     37749     37750
     37749     37751     37749     37752     37752     37753     37752     37754
     37752     37755     37755     37756     37755     37757     37755     37758
     37758     37759     37758     37760     37758     37761     37761     37762
     37761     37763     37761     37764     37764     37765     37764     37766
     37764     37767     37767     37768     37767     37769     37767     37770
     37770     37771     37770     37772     37770     37773     37773     37774
     37773     37775     37773     37776     37776     37777     37776     37778
     37776     37779     37779     37780     37779     37781     37779     37782
     37782     37783     37782     37784     37782     37785     37785     37786
     37785     37787     37785     37788     37789     37793     37789     37797
     37789     37801     37793     37794     37793     37795     37793     37796
     37797     37798     37797     37799     37797     37800     37801     37802
     37801     37803     37801     37804     37789     37790     37790     37791
     37790     37792     37790     37805     37805     37806     37805     37807
     37805     37811     37812     37813     37811     37808     37808     37812
     37808     37809     37808     37810     37813     37814     37813     37815
     37813     37816     37816     37817     37816     37824     37816     37818
     37824     37825     37824     37826     37824     37827     37818     37819
     37819     37821     37819     37820     37821     37822     37821     37823
     37821     37833     37833     37834     37833     37835     37833     37836
     37836     37837     37836     37838     37836     37839     37839     37840
     37839     37841     37839     37842     37842     37843     37842     37844
     37842     37845     37845     37846     37845     37847     37845     37848
     37848     37849     37848     37850     37848     37851     37851     37852
     37851     37853     37853     37854     37853     37855     37855     37856
     37855     37857     37855     37858     37858     37859     37858     37860
     37858     37861     37861     37862     37861     37863     37861     37864
     37864     37865     37864     37866     37864     37867     37867     37868
     37867     37869     37867     37870     37870     37871     37870     37872
     37870     37873     37873     37874     37873     37875     37873     37876
     37876     37877     37876     37878     37876     37879     37827     37828
     37828     37830     37828     37829     37830     37831     37830     37832
     37830     37880     37880     37881     37880     37882     37880     37883
     37883     37884     37883     37885     37883     37886     37886     37887
     37886     37888     37886     37889     37889     37890     37889     37891
     37889     37892     37892     37893     37892     37894     37892     37895
     37895     37896     37895     37897     37895     37898     37898     37899
     37898     37900     37898     37901     37901     37902     37901     37903
     37901     37904     37904     37905     37904     37906     37904     37907
     37907     37908     37907     37909     37907     37910     37910     37911
     37910     37912     37910     37913     37913     37914     37913     37915
     37913     37916     37916     37917     37916     37918     37916     37919
     37919     37920     37919     37921     37919     37922     37923     37927
     37923     37931     37923     37935     37927     37928     37927     37929
     37927     37930     37931     37932     37931     37933     37931     37934
     37935     37936     37935     37937     37935     37938     37923     37924
     37924     37925     37924     37926     37924     37939     37939     37940
     37939     37941     37939     37945     37946     37947     37945     37942
     37942     37946     37942     37943     37942     37944     37947     37948
     37947     37949     37947     37950     37950     37951     37950     37958
     37950     37952     37958     37959     37958     37960     37958     37961
     37952     37953     37953     37955     37953     37954     37955     37956
     37955     37957     37955     37967     37967     37968     37967     37969
     37967     37970     37970     37971     37970     37972     37970     37973
     37973     37974     37973     37975     37973     37976     37976     37977
     37976     37978     37976     37979     37979     37980     37979     37981
     37979     37982     37982     37983     37982     37984     37982     37985
     37985     37986     37985     37987     37987     37988     37987     37989
     37989     37990     37989     37991     37989     37992     37992     37993
     37992     37994     37992     37995     37995     37996     37995     37997
     37995     37998     37998     37999     37998     38000     37998     38001
     38001     38002     38001     38003     38001     38004     38004     38005
     38004     38006     38004     38007     38007     38008     38007     38009
     38007     38010     38010     38011     38010     38012     38010     38013
     37961     37962     37962     37964     37962     37963     37964     37965
     37964     37966     37964     38014     38014     38015     38014     38016
     38014     38017     38017     38018     38017     38019     38017     38020
     38020     38021     38020     38022     38020     38023     38023     38024
     38023     38025     38023     38026     38026     38027     38026     38028
     38026     38029     38029     38030     38029     38031     38029     38032
     38032     38033     38032     38034     38032     38035     38035     38036
     38035     38037     38035     38038     38038     38039     38038     38040
     38038     38041     38041     38042     38041     38043     38041     38044
     38044     38045     38044     38046     38044     38047     38047     38048
     38047     38049     38047     38050     38050     38051     38050     38052
     38050     38053     38053     38054     38053     38055     38053     38056
     38057     38061     38057     38065     38057     38069     38061     38062
     38061     38063     38061     38064     38065     38066     38065     38067
     38065     38068     38069     38070     38069     38071     38069     38072
     38057     38058     38058     38059     38058     38060     38058     38073
     38073     38074     38073     38075     38073     38079     38080     38081
     38079     38076     38076     38080     38076     38077     38076     38078
     38081     38082     38081     38083     38081     38084     38084     38085
     38084     38092     38084     38086     38092     38093     38092     38094
     38092     38095     38086     38087     38087     38089     38087     38088
     38089     38090     38089     38091     38089     38101     38101     38102
     38101     38103     38101     38104     38104     38105     38104     38106
     38104     38107     38107     38108     38107     38109     38107     38110
     38110     38111     38110     38112     38110     38113     38113     38114
     38113     38115     38113     38116     38116     38117     38116     38118
     38116     38119     38119     38120     38119     38121     38121     38122
     38121     38123     38123     38124     38123     38125     38123     38126
     38126     38127     38126     38128     38126     38129     38129     38130
     38129     38131     38129     38132     38132     38133     38132     38134
     38132     38135     38135     38136     38135     38137     38135     38138
     38138     38139     38138     38140     38138     38141     38141     38142
     38141     38143     38141     38144     38144     38145     38144     38146
     38144     38147     38095     38096     38096     38098     38096     38097
     38098     38099     38098     38100     38098     38148     38148     38149
     38148     38150     38148     38151     38151     38152     38151     38153
     38151     38154     38154     38155     38154     38156     38154     38157
     38157     38158     38157     38159     38157     38160     38160     38161
     38160     38162     38160     38163     38163     38164     38163     38165
     38163     38166     38166     38167     38166     38168     38166     38169
     38169     38170     38169     38171     38169     38172     38172     38173
     38172     38174     38172     38175     38175     38176     38175     38177
     38175     38178     38178     38179     38178     38180     38178     38181
     38181     38182     38181     38183     38181     38184     38184     38185
     38184     38186     38184     38187     38187     38188     38187     38189
     38187     38190     38191     38195     38191     38199     38191     38203
     38195     38196     38195     38197     38195     38198     38199     38200
     38199     38201     38199     38202     38203     38204     38203     38205
     38203     38206     38191     38192     38192     38193     38192     38194
     38192     38207     38207     38208     38207     38209     38207     38213
     38214     38215     38213     38210     38210     38214     38210     38211
     38210     38212     38215     38216     38215     38217     38215     38218
     38218     38219     38218     38226     38218     38220     38226     38227
     38226     38228     38226     38229     38220     38221     38221     38223
     38221     38222     38223     38224     38223     38225     38223     38235
     38235     38236     38235     38237     38235     38238     38238     38239
     38238     38240     38238     38241     38241     38242     38241     38243
     38241     38244     38244     38245     38244     38246     38244     38247
     38247     38248     38247     38249     38247     38250     38250     38251
     38250     38252     38250     38253     38253     38254     38253     38255
     38255     38256     38255     38257     38257     38258     38257     38259
     38257     38260     38260     38261     38260     38262     38260     38263
     38263     38264     38263     38265     38263     38266     38266     38267
     38266     38268     38266     38269     38269     38270     38269     38271
     38269     38272     38272     38273     38272     38274     38272     38275
     38275     38276     38275     38277     38275     38278     38278     38279
     38278     38280     38278     38281     38229     38230     38230     38232
     38230     38231     38232     38233     38232     38234     38232     38282
     38282     38283     38282     38284     38282     38285     38285     38286
     38285     38287     38285     38288     38288     38289     38288     38290
     38288     38291     38291     38292     38291     38293     38291     38294
     38294     38295     38294     38296     38294     38297     38297     38298
     38297     38299     38297     38300     38300     38301     38300     38302
     38300     38303     38303     38304     38303     38305     38303     38306
     38306     38307     38306     38308     38306     38309     38309     38310
     38309     38311     38309     38312     38312     38313     38312     38314
     38312     38315     38315     38316     38315     38317     38315     38318
     38318     38319     38318     38320     38318     38321     38321     38322
     38321     38323     38321     38324     38325     38329     38325     38333
     38325     38337     38329     38330     38329     38331     38329     38332
     38333     38334     38333     38335     38333     38336     38337     38338
     38337     38339     38337     38340     38325     38326     38326     38327
     38326     38328     38326     38341     38341     38342     38341     38343
     38341     38347     38348     38349     38347     38344     38344     38348
     38344     38345     38344     38346     38349     38350     38349     38351
     38349     38352     38352     38353     38352     38360     38352     38354
     38360     38361     38360     38362     38360     38363     38354     38355
     38355     38357     38355     38356     38357     38358     38357     38359
     38357     38369     38369     38370     38369     38371     38369     38372
     38372     38373     38372     38374     38372     38375     38375     38376
     38375     38377     38375     38378     38378     38379     38378     38380
     38378     38381     38381     38382     38381     38383     38381     38384
     38384     38385     38384     38386     38384     38387     38387     38388
     38387     38389     38389     38390     38389     38391     38391     38392
     38391     38393     38391     38394     38394     38395     38394     38396
     38394     38397     38397     38398     38397     38399     38397     38400
     38400     38401     38400     38402     38400     38403     38403     38404
     38403     38405     38403     38406     38406     38407     38406     38408
     38406     38409     38409     38410     38409     38411     38409     38412
     38412     38413     38412     38414     38412     38415     38363     38364
     38364     38366     38364     38365     38366     38367     38366     38368
     38366     38416     38416     38417     38416     38418     38416     38419
     38419     38420     38419     38421     38419     38422     38422     38423
     38422     38424     38422     38425     38425     38426     38425     38427
     38425     38428     38428     38429     38428     38430     38428     38431
     38431     38432     38431     38433     38431     38434     38434     38435
     38434     38436     38434     38437     38437     38438     38437     38439
     38437     38440     38440     38441     38440     38442     38440     38443
     38443     38444     38443     38445     38443     38446     38446     38447
     38446     38448     38446     38449     38449     38450     38449     38451
     38449     38452     38452     38453     38452     38454     38452     38455
     38455     38456     38455     38457     38455     38458     38459     38463
     38459     38467     38459     38471     38463     38464     38463     38465
     38463     38466     38467     38468     38467     38469     38467     38470
     38471     38472     38471     38473     38471     38474     38459     38460
     38460     38461     38460     38462     38460     38475     38475     38476
     38475     38477     38475     38481     38482     38483     38481     38478
     38478     38482     38478     38479     38478     38480     38483     38484
     38483     38485     38483     38486     38486     38487     38486     38494
     38486     38488     38494     38495     38494     38496     38494     38497
     38488     38489     38489     38491     38489     38490     38491     38492
     38491     38493     38491     38503     38503     38504     38503     38505
     38503     38506     38506     38507     38506     38508     38506     38509
     38509     38510     38509     38511     38509     38512     38512     38513
     38512     38514     38512     38515     38515     38516     38515     38517
     38515     38518     38518     38519     38518     38520     38518     38521
     38521     38522     38521     38523     38523     38524     38523     38525
     38525     38526     38525     38527     38525     38528     38528     38529
     38528     38530     38528     38531     38531     38532     38531     38533
     38531     38534     38534     38535     38534     38536     38534     38537
     38537     38538     38537     38539     38537     38540     38540     38541
     38540     38542     38540     38543     38543     38544     38543     38545
     38543     38546     38546     38547     38546     38548     38546     38549
     38497     38498     38498     38500     38498     38499     38500     38501
     38500     38502     38500     38550     38550     38551     38550     38552
     38550     38553     38553     38554     38553     38555     38553     38556
     38556     38557     38556     38558     38556     38559     38559     38560
     38559     38561     38559     38562     38562     38563     38562     38564
     38562     38565     38565     38566     38565     38567     38565     38568
     38568     38569     38568     38570     38568     38571     38571     38572
     38571     38573     38571     38574     38574     38575     38574     38576
     38574     38577     38577     38578     38577     38579     38577     38580
     38580     38581     38580     38582     38580     38583     38583     38584
     38583     38585     38583     38586     38586     38587     38586     38588
     38586     38589     38589     38590     38589     38591     38589     38592
     38593     38597     38593     38601     38593     38605     38597     38598
     38597     38599     38597     38600     38601     38602     38601     38603
     38601     38604     38605     38606     38605     38607     38605     38608
     38593     38594     38594     38595     38594     38596     38594     38609
     38609     38610     38609     38611     38609     38615     38616     38617
     38615     38612     38612     38616     38612     38613     38612     38614
     38617     38618     38617     38619     38617     38620     38620     38621
     38620     38628     38620     38622     38628     38629     38628     38630
     38628     38631     38622     38623     38623     38625     38623     38624
     38625     38626     38625     38627     38625     38637     38637     38638
     38637     38639     38637     38640     38640     38641     38640     38642
     38640     38643     38643     38644     38643     38645     38643     38646
     38646     38647     38646     38648     38646     38649     38649     38650
     38649     38651     38649     38652     38652     38653     38652     38654
     38652     38655     38655     38656     38655     38657     38657     38658
     38657     38659     38659     38660     38659     38661     38659     38662
     38662     38663     38662     38664     38662     38665     38665     38666
     38665     38667     38665     38668     38668     38669     38668     38670
     38668     38671     38671     38672     38671     38673     38671     38674
     38674     38675     38674     38676     38674     38677     38677     38678
     38677     38679     38677     38680     38680     38681     38680     38682
     38680     38683     38631     38632     38632     38634     38632     38633
     38634     38635     38634     38636     38634     38684     38684     38685
     38684     38686     38684     38687     38687     38688     38687     38689
     38687     38690     38690     38691     38690     38692     38690     38693
     38693     38694     38693     38695     38693     38696     38696     38697
     38696     38698     38696     38699     38699     38700     38699     38701
     38699     38702     38702     38703     38702     38704     38702     38705
     38705     38706     38705     38707     38705     38708     38708     38709
     38708     38710     38708     38711     38711     38712     38711     38713
     38711     38714     38714     38715     38714     38716     38714     38717
     38717     38718     38717     38719     38717     38720     38720     38721
     38720     38722     38720     38723     38723     38724     38723     38725
     38723     38726     38727     38731     38727     38735     38727     38739
     38731     38732     38731     38733     38731     38734     38735     38736
     38735     38737     38735     38738     38739     38740     38739     38741
     38739     38742     38727     38728     38728     38729     38728     38730
     38728     38743     38743     38744     38743     38745     38743     38749
     38750     38751     38749     38746     38746     38750     38746     38747
     38746     38748     38751     38752     38751     38753     38751     38754
     38754     38755     38754     38762     38754     38756     38762     38763
     38762     38764     38762     38765     38756     38757     38757     38759
     38757     38758     38759     38760     38759     38761     38759     38771
     38771     38772     38771     38773     38771     38774     38774     38775
     38774     38776     38774     38777     38777     38778     38777     38779
     38777     38780     38780     38781     38780     38782     38780     38783
     38783     38784     38783     38785     38783     38786     38786     38787
     38786     38788     38786     38789     38789     38790     38789     38791
     38791     38792     38791     38793     38793     38794     38793     38795
     38793     38796     38796     38797     38796     38798     38796     38799
     38799     38800     38799     38801     38799     38802     38802     38803
     38802     38804     38802     38805     38805     38806     38805     38807
     38805     38808     38808     38809     38808     38810     38808     38811
     38811     38812     38811     38813     38811     38814     38814     38815
     38814     38816     38814     38817     38765     38766     38766     38768
     38766     38767     38768     38769     38768     38770     38768     38818
     38818     38819     38818     38820     38818     38821     38821     38822
     38821     38823     38821     38824     38824     38825     38824     38826
     38824     38827     38827     38828     38827     38829     38827     38830
     38830     38831     38830     38832     38830     38833     38833     38834
     38833     38835     38833     38836     38836     38837     38836     38838
     38836     38839     38839     38840     38839     38841     38839     38842
     38842     38843     38842     38844     38842     38845     38845     38846
     38845     38847     38845     38848     38848     38849     38848     38850
     38848     38851     38851     38852     38851     38853     38851     38854
     38854     38855     38854     38856     38854     38857     38857     38858
     38857     38859     38857     38860     38861     38865     38861     38869
     38861     38873     38865     38866     38865     38867     38865     38868
     38869     38870     38869     38871     38869     38872     38873     38874
     38873     38875     38873     38876     38861     38862     38862     38863
     38862     38864     38862     38877     38877     38878     38877     38879
     38877     38883     38884     38885     38883     38880     38880     38884
     38880     38881     38880     38882     38885     38886     38885     38887
     38885     38888     38888     38889     38888     38896     38888     38890
     38896     38897     38896     38898     38896     38899     38890     38891
     38891     38893     38891     38892     38893     38894     38893     38895
     38893     38905     38905     38906     38905     38907     38905     38908
     38908     38909     38908     38910     38908     38911     38911     38912
     38911     38913     38911     38914     38914     38915     38914     38916
     38914     38917     38917     38918     38917     38919     38917     38920
     38920     38921     38920     38922     38920     38923     38923     38924
     38923     38925     38925     38926     38925     38927     38927     38928
     38927     38929     38927     38930     38930     38931     38930     38932
     38930     38933     38933     38934     38933     38935     38933     38936
     38936     38937     38936     38938     38936     38939     38939     38940
     38939     38941     38939     38942     38942     38943     38942     38944
     38942     38945     38945     38946     38945     38947     38945     38948
     38948     38949     38948     38950     38948     38951     38899     38900
     38900     38902     38900     38901     38902     38903     38902     38904
     38902     38952     38952     38953     38952     38954     38952     38955
     38955     38956     38955     38957     38955     38958     38958     38959
     38958     38960     38958     38961     38961     38962     38961     38963
     38961     38964     38964     38965     38964     38966     38964     38967
     38967     38968     38967     38969     38967     38970     38970     38971
     38970     38972     38970     38973     38973     38974     38973     38975
     38973     38976     38976     38977     38976     38978     38976     38979
     38979     38980     38979     38981     38979     38982     38982     38983
     38982     38984     38982     38985     38985     38986     38985     38987
     38985     38988     38988     38989     38988     38990     38988     38991
     38991     38992     38991     38993     38991     38994     38995     38999
     38995     39003     38995     39007     38999     39000     38999     39001
     38999     39002     39003     39004     39003     39005     39003     39006
     39007     39008     39007     39009     39007     39010     38995     38996
     38996     38997     38996     38998     38996     39011     39011     39012
     39011     39013     39011     39017     39018     39019     39017     39014
     39014     39018     39014     39015     39014     39016     39019     39020
     39019     39021     39019     39022     39022     39023     39022     39030
     39022     39024     39030     39031     39030     39032     39030     39033
     39024     39025     39025     39027     39025     39026     39027     39028
     39027     39029     39027     39039     39039     39040     39039     39041
     39039     39042     39042     39043     39042     39044     39042     39045
     39045     39046     39045     39047     39045     39048     39048     39049
     39048     39050     39048     39051     39051     39052     39051     39053
     39051     39054     39054     39055     39054     39056     39054     39057
     39057     39058     39057     39059     39059     39060     39059     39061
     39061     39062     39061     39063     39061     39064     39064     39065
     39064     39066     39064     39067     39067     39068     39067     39069
     39067     39070     39070     39071     39070     39072     39070     39073
     39073     39074     39073     39075     39073     39076     39076     39077
     39076     39078     39076     39079     39079     39080     39079     39081
     39079     39082     39082     39083     39082     39084     39082     39085
     39033     39034     39034     39036     39034     39035     39036     39037
     39036     39038     39036     39086     39086     39087     39086     39088
     39086     39089     39089     39090     39089     39091     39089     39092
     39092     39093     39092     39094     39092     39095     39095     39096
     39095     39097     39095     39098     39098     39099     39098     39100
     39098     39101     39101     39102     39101     39103     39101     39104
     39104     39105     39104     39106     39104     39107     39107     39108
     39107     39109     39107     39110     39110     39111     39110     39112
     39110     39113     39113     39114     39113     39115     39113     39116
     39116     39117     39116     39118     39116     39119     39119     39120
     39119     39121     39119     39122     39122     39123     39122     39124
     39122     39125     39125     39126     39125     39127     39125     39128
     39129     39133     39129     39137     39129     39141     39133     39134
     39133     39135     39133     39136     39137     39138     39137     39139
     39137     39140     39141     39142     39141     39143     39141     39144
     39129     39130     39130     39131     39130     39132     39130     39145
     39145     39146     39145     39147     39145     39151     39152     39153
     39151     39148     39148     39152     39148     39149     39148     39150
     39153     39154     39153     39155     39153     39156     39156     39157
     39156     39164     39156     39158     39164     39165     39164     39166
     39164     39167     39158     39159     39159     39161     39159     39160
     39161     39162     39161     39163     39161     39173     39173     39174
     39173     39175     39173     39176     39176     39177     39176     39178
     39176     39179     39179     39180     39179     39181     39179     39182
     39182     39183     39182     39184     39182     39185     39185     39186
     39185     39187     39185     39188     39188     39189     39188     39190
     39188     39191     39191     39192     39191     39193     39193     39194
     39193     39195     39195     39196     39195     39197     39195     39198
     39198     39199     39198     39200     39198     39201     39201     39202
     39201     39203     39201     39204     39204     39205     39204     39206
     39204     39207     39207     39208     39207     39209     39207     39210
     39210     39211     39210     39212     39210     39213     39213     39214
     39213     39215     39213     39216     39216     39217     39216     39218
     39216     39219     39167     39168     39168     39170     39168     39169
     39170     39171     39170     39172     39170     39220     39220     39221
     39220     39222     39220     39223     39223     39224     39223     39225
     39223     39226     39226     39227     39226     39228     39226     39229
     39229     39230     39229     39231     39229     39232     39232     39233
     39232     39234     39232     39235     39235     39236     39235     39237
     39235     39238     39238     39239     39238     39240     39238     39241
     39241     39242     39241     39243     39241     39244     39244     39245
     39244     39246     39244     39247     39247     39248     39247     39249
     39247     39250     39250     39251     39250     39252     39250     39253
     39253     39254     39253     39255     39253     39256     39256     39257
     39256     39258     39256     39259     39259     39260     39259     39261
     39259     39262     39263     39267     39263     39271     39263     39275
     39267     39268     39267     39269     39267     39270     39271     39272
     39271     39273     39271     39274     39275     39276     39275     39277
     39275     39278     39263     39264     39264     39265     39264     39266
     39264     39279     39279     39280     39279     39281     39279     39285
     39286     39287     39285     39282     39282     39286     39282     39283
     39282     39284     39287     39288     39287     39289     39287     39290
     39290     39291     39290     39298     39290     39292     39298     39299
     39298     39300     39298     39301     39292     39293     39293     39295
     39293     39294     39295     39296     39295     39297     39295     39307
     39307     39308     39307     39309     39307     39310     39310     39311
     39310     39312     39310     39313     39313     39314     39313     39315
     39313     39316     39316     39317     39316     39318     39316     39319
     39319     39320     39319     39321     39319     39322     39322     39323
     39322     39324     39322     39325     39325     39326     39325     39327
     39327     39328     39327     39329     39329     39330     39329     39331
     39329     39332     39332     39333     39332     39334     39332     39335
     39335     39336     39335     39337     39335     39338     39338     39339
     39338     39340     39338     39341     39341     39342     39341     39343
     39341     39344     39344     39345     39344     39346     39344     39347
     39347     39348     39347     39349     39347     39350     39350     39351
     39350     39352     39350     39353     39301     39302     39302     39304
     39302     39303     39304     39305     39304     39306     39304     39354
     39354     39355     39354     39356     39354     39357     39357     39358
     39357     39359     39357     39360     39360     39361     39360     39362
     39360     39363     39363     39364     39363     39365     39363     39366
     39366     39367     39366     39368     39366     39369     39369     39370
     39369     39371     39369     39372     39372     39373     39372     39374
     39372     39375     39375     39376     39375     39377     39375     39378
     39378     39379     39378     39380     39378     39381     39381     39382
     39381     39383     39381     39384     39384     39385     39384     39386
     39384     39387     39387     39388     39387     39389     39387     39390
     39390     39391     39390     39392     39390     39393     39393     39394
     39393     39395     39393     39396     39397     39398     39397     39399
     39398     39399     39400     39401     39400     39402     39401     39402
     39403     39404     39403     39405     39404     39405     39406     39407
     39406     39408     39407     39408     39409     39410     39409     39411
     39410     39411     39412     39413     39412     39414     39413     39414
     39415     39416     39415     39417     39416     39417     39418     39419
     39418     39420     39419     39420     39421     39422     39421     39423
     39422     39423     39424     39425     39424     39426     39425     39426
     39427     39428     39427     39429     39428     39429     39430     39431
     39430     39432     39431     39432     39433     39434     39433     39435
     39434     39435     39436     39437     39436     39438     39437     39438
     39439     39440     39439     39441     39440     39441     39442     39443
     39442     39444     39443     39444     39445     39446     39445     39447
     39446     39447     39448     39449     39448     39450     39449     39450
     39451     39452     39451     39453     39452     39453     39454     39455
     39454     39456     39455     39456     39457     39458     39457     39459
     39458     39459     39460     39461     39460     39462     39461     39462
     39463     39464     39463     39465     39464     39465     39466     39467
     39466     39468     39467     39468     39469     39470     39469     39471
     39470     39471     39472     39473     39472     39474     39473     39474
     39475     39476     39475     39477     39476     39477     39478     39479
     39478     39480     39479     39480     39481     39482     39481     39483
     39482     39483     39484     39485     39484     39486     39485     39486
     39487     39488     39487     39489     39488     39489     39490     39491
     39490     39492     39491     39492     39493     39494     39493     39495
     39494     39495     39496     39497     39496     39498     39497     39498
     39499     39500     39499     39501     39500     39501     39502     39503
     39502     39504     39503     39504     39505     39506     39505     39507
     39506     39507     39508     39509     39508     39510     39509     39510
     39511     39512     39511     39513     39512     39513     39514     39515
     39514     39516     39515     39516     39517     39518     39517     39519
     39518     39519     39520     39521     39520     39522     39521     39522
     39523     39524     39523     39525     39524     39525     39526     39527
     39526     39528     39527     39528     39529     39530     39529     39531
     39530     39531     39532     39533     39532     39534     39533     39534
     39535     39536     39535     39537     39536     39537     39538     39539
     39538     39540     39539     39540     39541     39542     39541     39543
     39542     39543     39544     39545     39544     39546     39545     39546
     39547     39548     39547     39549     39548     39549     39550     39551
     39550     39552     39551     39552     39553     39554     39553     39555
     39554     39555     39556     39557     39556     39558     39557     39558
     39559     39560     39559     39561     39560     39561     39562     39563
     39562     39564     39563     39564     39565     39566     39565     39567
     39566     39567     39568     39569     39568     39570     39569     39570
     39571     39572     39571     39573     39572     39573     39574     39575
     39574     39576     39575     39576     39577     39578     39577     39579
     39578     39579     39580     39581     39580     39582     39581     39582
     39583     39584     39583     39585     39584     39585     39586     39587
     39586     39588     39587     39588     39589     39590     39589     39591
     39590     39591     39592     39593     39592     39594     39593     39594
     39595     39596     39595     39597     39596     39597     39598     39599
     39598     39600     39599     39600     39601     39602     39601     39603
     39602     39603     39604     39605     39604     39606     39605     39606
     39607     39608     39607     39609     39608     39609     39610     39611
     39610     39612     39611     39612     39613     39614     39613     39615
     39614     39615     39616     39617     39616     39618     39617     39618
     39619     39620     39619     39621     39620     39621     39622     39623
     39622     39624     39623     39624     39625     39626     39625     39627
     39626     39627     39628     39629     39628     39630     39629     39630
     39631     39632     39631     39633     39632     39633     39634     39635
     39634     39636     39635     39636     39637     39638     39637     39639
     39638     39639     39640     39641     39640     39642     39641     39642
     39643     39644     39643     39645     39644     39645     39646     39647
     39646     39648     39647     39648     39649     39650     39649     39651
     39650     39651     39652     39653     39652     39654     39653     39654
     39655     39656     39655     39657     39656     39657     39658     39659
     39658     39660     39659     39660     39661     39662     39661     39663
     39662     39663     39664     39665     39664     39666     39665     39666
     39667     39668     39667     39669     39668     39669     39670     39671
     39670     39672     39671     39672     39673     39674     39673     39675
     39674     39675     39676     39677     39676     39678     39677     39678
     39679     39680     39679     39681     39680     39681     39682     39683
     39682     39684     39683     39684     39685     39686     39685     39687
     39686     39687     39688     39689     39688     39690     39689     39690
     39691     39692     39691     39693     39692     39693     39694     39695
     39694     39696     39695     39696     39697     39698     39697     39699
     39698     39699     39700     39701     39700     39702     39701     39702
     39703     39704     39703     39705     39704     39705     39706     39707
     39706     39708     39707     39708     39709     39710     39709     39711
     39710     39711     39712     39713     39712     39714     39713     39714
     39715     39716     39715     39717     39716     39717     39718     39719
     39718     39720     39719     39720     39721     39722     39721     39723
     39722     39723     39724     39725     39724     39726     39725     39726
     39727     39728     39727     39729     39728     39729     39730     39731
     39730     39732     39731     39732     39733     39734     39733     39735
     39734     39735     39736     39737     39736     39738     39737     39738
     39739     39740     39739     39741     39740     39741     39742     39743
     39742     39744     39743     39744     39745     39746     39745     39747
     39746     39747     39748     39749     39748     39750     39749     39750
     39751     39752     39751     39753     39752     39753     39754     39755
     39754     39756     39755     39756     39757     39758     39757     39759
     39758     39759     39760     39761     39760     39762     39761     39762
     39763     39764     39763     39765     39764     39765     39766     39767
     39766     39768     39767     39768     39769     39770     39769     39771
     39770     39771     39772     39773     39772     39774     39773     39774
     39775     39776     39775     39777     39776     39777     39778     39779
     39778     39780     39779     39780     39781     39782     39781     39783
     39782     39783     39784     39785     39784     39786     39785     39786
     39787     39788     39787     39789     39788     39789     39790     39791
     39790     39792     39791     39792     39793     39794     39793     39795
     39794     39795     39796     39797     39796     39798     39797     39798
     39799     39800     39799     39801     39800     39801     39802     39803
     39802     39804     39803     39804     39805     39806     39805     39807
     39806     39807     39808     39809     39808     39810     39809     39810
     39811     39812     39811     39813     39812     39813     39814     39815
     39814     39816     39815     39816     39817     39818     39817     39819
     39818     39819     39820     39821     39820     39822     39821     39822
     39823     39824     39823     39825     39824     39825     39826     39827
     39826     39828     39827     39828     39829     39830     39829     39831
     39830     39831     39832     39833     39832     39834     39833     39834
     39835     39836     39835     39837     39836     39837     39838     39839
     39838     39840     39839     39840     39841     39842     39841     39843
     39842     39843     39844     39845     39844     39846     39845     39846
     39847     39848     39847     39849     39848     39849     39850     39851
     39850     39852     39851     39852     39853     39854     39853     39855
     39854     39855     39856     39857     39856     39858     39857     39858
     39859     39860     39859     39861     39860     39861     39862     39863
     39862     39864     39863     39864     39865     39866     39865     39867
     39866     39867     39868     39869     39868     39870     39869     39870
     39871     39872     39871     39873     39872     39873     39874     39875
     39874     39876     39875     39876     39877     39878     39877     39879
     39878     39879     39880     39881     39880     39882     39881     39882
     39883     39884     39883     39885     39884     39885     39886     39887
     39886     39888     39887     39888     39889     39890     39889     39891
     39890     39891     39892     39893     39892     39894     39893     39894
     39895     39896     39895     39897     39896     39897     39898     39899
     39898     39900     39899     39900     39901     39902     39901     39903
     39902     39903     39904     39905     39904     39906     39905     39906
     39907     39908     39907     39909     39908     39909     39910     39911
     39910     39912     39911     39912     39913     39914     39913     39915
     39914     39915     39916     39917     39916     39918     39917     39918
     39919     39920     39919     39921     39920     39921     39922     39923
     39922     39924     39923     39924     39925     39926     39925     39927
     39926     39927     39928     39929     39928     39930     39929     39930
     39931     39932     39931     39933     39932     39933     39934     39935
     39934     39936     39935     39936     39937     39938     39937     39939
     39938     39939     39940     39941     39940     39942     39941     39942
     39943     39944     39943     39945     39944     39945     39946     39947
     39946     39948     39947     39948     39949     39950     39949     39951
     39950     39951     39952     39953     39952     39954     39953     39954
     39955     39956     39955     39957     39956     39957     39958     39959
     39958     39960     39959     39960     39961     39962     39961     39963
     39962     39963     39964     39965     39964     39966     39965     39966
     39967     39968     39967     39969     39968     39969     39970     39971
     39970     39972     39971     39972     39973     39974     39973     39975
     39974     39975     39976     39977     39976     39978     39977     39978
     39979     39980     39979     39981     39980     39981     39982     39983
     39982     39984     39983     39984     39985     39986     39985     39987
     39986     39987     39988     39989     39988     39990     39989     39990
     39991     39992     39991     39993     39992     39993     39994     39995
     39994     39996     39995     39996     39997     39998     39997     39999
     39998     39999     40000     40001     40000     40002     40001     40002
     40003     40004     40003     40005     40004     40005     40006     40007
     40006     40008     40007     40008     40009     40010     40009     40011
     40010     40011     40012     40013     40012     40014     40013     40014
     40015     40016     40015     40017     40016     40017     40018     40019
     40018     40020     40019     40020     40021     40022     40021     40023
     40022     40023     40024     40025     40024     40026     40025     40026
     40027     40028     40027     40029     40028     40029     40030     40031
     40030     40032     40031     40032     40033     40034     40033     40035
     40034     40035     40036     40037     40036     40038     40037     40038
     40039     40040     40039     40041     40040     40041     40042     40043
     40042     40044     40043     40044     40045     40046     40045     40047
     40046     40047     40048     40049     40048     40050     40049     40050
     40051     40052     40051     40053     40052     40053     40054     40055
     40054     40056     40055     40056     40057     40058     40057     40059
     40058     40059     40060     40061     40060     40062     40061     40062
     40063     40064     40063     40065     40064     40065     40066     40067
     40066     40068     40067     40068     40069     40070     40069     40071
     40070     40071     40072     40073     40072     40074     40073     40074
     40075     40076     40075     40077     40076     40077     40078     40079
     40078     40080     40079     40080     40081     40082     40081     40083
     40082     40083     40084     40085     40084     40086     40085     40086
     40087     40088     40087     40089     40088     40089     40090     40091
     40090     40092     40091     40092     40093     40094     40093     40095
     40094     40095     40096     40097     40096     40098     40097     40098
     40099     40100     40099     40101     40100     40101     40102     40103
     40102     40104     40103     40104     40105     40106     40105     40107
     40106     40107     40108     40109     40108     40110     40109     40110
     40111     40112     40111     40113     40112     40113     40114     40115
     40114     40116     40115     40116     40117     40118     40117     40119
     40118     40119     40120     40121     40120     40122     40121     40122
     40123     40124     40123     40125     40124     40125     40126     40127
     40126     40128     40127     40128     40129     40130     40129     40131
     40130     40131     40132     40133     40132     40134     40133     40134
     40135     40136     40135     40137     40136     40137     40138     40139
     40138     40140     40139     40140     40141     40142     40141     40143
     40142     40143     40144     40145     40144     40146     40145     40146
     40147     40148     40147     40149     40148     40149     40150     40151
     40150     40152     40151     40152     40153     40154     40153     40155
     40154     40155     40156     40157     40156     40158     40157     40158
     40159     40160     40159     40161     40160     40161     40162     40163
     40162     40164     40163     40164     40165     40166     40165     40167
     40166     40167     40168     40169     40168     40170     40169     40170
     40171     40172     40171     40173     40172     40173     40174     40175
     40174     40176     40175     40176     40177     40178     40177     40179
     40178     40179     40180     40181     40180     40182     40181     40182
     40183     40184     40183     40185     40184     40185     40186     40187
     40186     40188     40187     40188     40189     40190     40189     40191
     40190     40191     40192     40193     40192     40194     40193     40194
     40195     40196     40195     40197     40196     40197     40198     40199
     40198     40200     40199     40200     40201     40202     40201     40203
     40202     40203     40204     40205     40204     40206     40205     40206
     40207     40208     40207     40209     40208     40209     40210     40211
     40210     40212     40211     40212     40213     40214     40213     40215
     40214     40215     40216     40217     40216     40218     40217     40218
     40219     40220     40219     40221     40220     40221     40222     40223
     40222     40224     40223     40224     40225     40226     40225     40227
     40226     40227     40228     40229     40228     40230     40229     40230
     40231     40232     40231     40233     40232     40233     40234     40235
     40234     40236     40235     40236     40237     40238     40237     40239
     40238     40239     40240     40241     40240     40242     40241     40242
     40243     40244     40243     40245     40244     40245     40246     40247
     40246     40248     40247     40248     40249     40250     40249     40251
     40250     40251     40252     40253     40252     40254     40253     40254
     40255     40256     40255     40257     40256     40257     40258     40259
     40258     40260     40259     40260     40261     40262     40261     40263
     40262     40263     40264     40265     40264     40266     40265     40266
     40267     40268     40267     40269     40268     40269     40270     40271
     40270     40272     40271     40272     40273     40274     40273     40275
     40274     40275     40276     40277     40276     40278     40277     40278
     40279     40280     40279     40281     40280     40281     40282     40283
     40282     40284     40283     40284     40285     40286     40285     40287
     40286     40287     40288     40289     40288     40290     40289     40290
     40291     40292     40291     40293     40292     40293     40294     40295
     40294     40296     40295     40296     40297     40298     40297     40299
     40298     40299     40300     40301     40300     40302     40301     40302
     40303     40304     40303     40305     40304     40305     40306     40307
     40306     40308     40307     40308     40309     40310     40309     40311
     40310     40311     40312     40313     40312     40314     40313     40314
     40315     40316     40315     40317     40316     40317     40318     40319
     40318     40320     40319     40320     40321     40322     40321     40323
     40322     40323     40324     40325     40324     40326     40325     40326
     40327     40328     40327     40329     40328     40329     40330     40331
     40330     40332     40331     40332     40333     40334     40333     40335
     40334     40335     40336     40337     40336     40338     40337     40338
     40339     40340     40339     40341     40340     40341     40342     40343
     40342     40344     40343     40344     40345     40346     40345     40347
     40346     40347     40348     40349     40348     40350     40349     40350
     40351     40352     40351     40353     40352     40353     40354     40355
     40354     40356     40355     40356     40357     40358     40357     40359
     40358     40359     40360     40361     40360     40362     40361     40362
     40363     40364     40363     40365     40364     40365     40366     40367
     40366     40368     40367     40368     40369     40370     40369     40371
     40370     40371     40372     40373     40372     40374     40373     40374
     40375     40376     40375     40377     40376     40377     40378     40379
     40378     40380     40379     40380     40381     40382     40381     40383
     40382     40383     40384     40385     40384     40386     40385     40386
     40387     40388     40387     40389     40388     40389     40390     40391
     40390     40392     40391     40392     40393     40394     40393     40395
     40394     40395     40396     40397     40396     40398     40397     40398
     40399     40400     40399     40401     40400     40401     40402     40403
     40402     40404     40403     40404     40405     40406     40405     40407
     40406     40407     40408     40409     40408     40410     40409     40410
     40411     40412     40411     40413     40412     40413     40414     40415
     40414     40416     40415     40416     40417     40418     40417     40419
     40418     40419     40420     40421     40420     40422     40421     40422
     40423     40424     40423     40425     40424     40425     40426     40427
     40426     40428     40427     40428     40429     40430     40429     40431
     40430     40431     40432     40433     40432     40434     40433     40434
     40435     40436     40435     40437     40436     40437     40438     40439
     40438     40440     40439     40440     40441     40442     40441     40443
     40442     40443     40444     40445     40444     40446     40445     40446
     40447     40448     40447     40449     40448     40449     40450     40451
     40450     40452     40451     40452     40453     40454     40453     40455
     40454     40455     40456     40457     40456     40458     40457     40458
     40459     40460     40459     40461     40460     40461     40462     40463
     40462     40464     40463     40464     40465     40466     40465     40467
     40466     40467     40468     40469     40468     40470     40469     40470
     40471     40472     40471     40473     40472     40473     40474     40475
     40474     40476     40475     40476     40477     40478     40477     40479
     40478     40479     40480     40481     40480     40482     40481     40482
     40483     40484     40483     40485     40484     40485     40486     40487
     40486     40488     40487     40488     40489     40490     40489     40491
     40490     40491     40492     40493     40492     40494     40493     40494
     40495     40496     40495     40497     40496     40497     40498     40499
     40498     40500     40499     40500     40501     40502     40501     40503
     40502     40503     40504     40505     40504     40506     40505     40506
     40507     40508     40507     40509     40508     40509     40510     40511
     40510     40512     40511     40512     40513     40514     40513     40515
     40514     40515     40516     40517     40516     40518     40517     40518
     40519     40520     40519     40521     40520     40521     40522     40523
     40522     40524     40523     40524     40525     40526     40525     40527
     40526     40527     40528     40529     40528     40530     40529     40530
     40531     40532     40531     40533     40532     40533     40534     40535
     40534     40536     40535     40536     40537     40538     40537     40539
     40538     40539     40540     40541     40540     40542     40541     40542
     40543     40544     40543     40545     40544     40545     40546     40547
     40546     40548     40547     40548     40549     40550     40549     40551
     40550     40551     40552     40553     40552     40554     40553     40554
     40555     40556     40555     40557     40556     40557     40558     40559
     40558     40560     40559     40560     40561     40562     40561     40563
     40562     40563     40564     40565     40564     40566     40565     40566
     40567     40568     40567     40569     40568     40569     40570     40571
     40570     40572     40571     40572     40573     40574     40573     40575
     40574     40575     40576     40577     40576     40578     40577     40578
     40579     40580     40579     40581     40580     40581     40582     40583
     40582     40584     40583     40584     40585     40586     40585     40587
     40586     40587     40588     40589     40588     40590     40589     40590
     40591     40592     40591     40593     40592     40593     40594     40595
     40594     40596     40595     40596     40597     40598     40597     40599
     40598     40599     40600     40601     40600     40602     40601     40602
     40603     40604     40603     40605     40604     40605     40606     40607
     40606     40608     40607     40608     40609     40610     40609     40611
     40610     40611     40612     40613     40612     40614     40613     40614
     40615     40616     40615     40617     40616     40617     40618     40619
     40618     40620     40619     40620     40621     40622     40621     40623
     40622     40623     40624     40625     40624     40626     40625     40626
     40627     40628     40627     40629     40628     40629     40630     40631
     40630     40632     40631     40632     40633     40634     40633     40635
     40634     40635     40636     40637     40636     40638     40637     40638
     40639     40640     40639     40641     40640     40641     40642     40643
     40642     40644     40643     40644     40645     40646     40645     40647
     40646     40647     40648     40649     40648     40650     40649     40650
     40651     40652     40651     40653     40652     40653     40654     40655
     40654     40656     40655     40656     40657     40658     40657     40659
     40658     40659     40660     40661     40660     40662     40661     40662
     40663     40664     40663     40665     40664     40665     40666     40667
     40666     40668     40667     40668     40669     40670     40669     40671
     40670     40671     40672     40673     40672     40674     40673     40674
     40675     40676     40675     40677     40676     40677     40678     40679
     40678     40680     40679     40680     40681     40682     40681     40683
     40682     40683     40684     40685     40684     40686     40685     40686
     40687     40688     40687     40689     40688     40689     40690     40691
     40690     40692     40691     40692     40693     40694     40693     40695
     40694     40695     40696     40697     40696     40698     40697     40698
     40699     40700     40699     40701     40700     40701     40702     40703
     40702     40704     40703     40704     40705     40706     40705     40707
     40706     40707     40708     40709     40708     40710     40709     40710
     40711     40712     40711     40713     40712     40713     40714     40715
     40714     40716     40715     40716     40717     40718     40717     40719
     40718     40719     40720     40721     40720     40722     40721     40722
     40723     40724     40723     40725     40724     40725     40726     40727
     40726     40728     40727     40728     40729     40730     40729     40731
     40730     40731     40732     40733     40732     40734     40733     40734
     40735     40736     40735     40737     40736     40737     40738     40739
     40738     40740     40739     40740     40741     40742     40741     40743
     40742     40743     40744     40745     40744     40746     40745     40746
     40747     40748     40747     40749     40748     40749     40750     40751
     40750     40752     40751     40752     40753     40754     40753     40755
     40754     40755     40756     40757     40756     40758     40757     40758
     40759     40760     40759     40761     40760     40761     40762     40763
     40762     40764     40763     40764     40765     40766     40765     40767
     40766     40767     40768     40769     40768     40770     40769     40770
     40771     40772     40771     40773     40772     40773     40774     40775
     40774     40776     40775     40776     40777     40778     40777     40779
     40778     40779     40780     40781     40780     40782     40781     40782
     40783     40784     40783     40785     40784     40785     40786     40787
     40786     40788     40787     40788     40789     40790     40789     40791
     40790     40791     40792     40793     40792     40794     40793     40794
     40795     40796     40795     40797     40796     40797     40798     40799
     40798     40800     40799     40800     40801     40802     40801     40803
     40802     40803     40804     40805     40804     40806     40805     40806
     40807     40808     40807     40809     40808     40809     40810     40811
     40810     40812     40811     40812     40813     40814     40813     40815
     40814     40815     40816     40817     40816     40818     40817     40818
     40819     40820     40819     40821     40820     40821     40822     40823
     40822     40824     40823     40824     40825     40826     40825     40827
     40826     40827     40828     40829     40828     40830     40829     40830
     40831     40832     40831     40833     40832     40833     40834     40835
     40834     40836     40835     40836     40837     40838     40837     40839
     40838     40839     40840     40841     40840     40842     40841     40842
     40843     40844     40843     40845     40844     40845     40846     40847
     40846     40848     40847     40848     40849     40850     40849     40851
     40850     40851     40852     40853     40852     40854     40853     40854
     40855     40856     40855     40857     40856     40857     40858     40859
     40858     40860     40859     40860     40861     40862     40861     40863
     40862     40863     40864     40865     40864     40866     40865     40866
     40867     40868     40867     40869     40868     40869     40870     40871
     40870     40872     40871     40872     40873     40874     40873     40875
     40874     40875     40876     40877     40876     40878     40877     40878
     40879     40880     40879     40881     40880     40881     40882     40883
     40882     40884     40883     40884     40885     40886     40885     40887
     40886     40887     40888     40889     40888     40890     40889     40890
     40891     40892     40891     40893     40892     40893     40894     40895
     40894     40896     40895     40896     40897     40898     40897     40899
     40898     40899     40900     40901     40900     40902     40901     40902
     40903     40904     40903     40905     40904     40905     40906     40907
     40906     40908     40907     40908     40909     40910     40909     40911
     40910     40911     40912     40913     40912     40914     40913     40914
     40915     40916     40915     40917     40916     40917     40918     40919
     40918     40920     40919     40920     40921     40922     40921     40923
     40922     40923     40924     40925     40924     40926     40925     40926
     40927     40928     40927     40929     40928     40929     40930     40931
     40930     40932     40931     40932     40933     40934     40933     40935
     40934     40935     40936     40937     40936     40938     40937     40938
     40939     40940     40939     40941     40940     40941     40942     40943
     40942     40944     40943     40944     40945     40946     40945     40947
     40946     40947     40948     40949     40948     40950     40949     40950
     40951     40952     40951     40953     40952     40953     40954     40955
     40954     40956     40955     40956     40957     40958     40957     40959
     40958     40959     40960     40961     40960     40962     40961     40962
     40963     40964     40963     40965     40964     40965     40966     40967
     40966     40968     40967     40968     40969     40970     40969     40971
     40970     40971     40972     40973     40972     40974     40973     40974
     40975     40976     40975     40977     40976     40977     40978     40979
     40978     40980     40979     40980     40981     40982     40981     40983
     40982     40983     40984     40985     40984     40986     40985     40986
     40987     40988     40987     40989     40988     40989     40990     40991
     40990     40992     40991     40992     40993     40994     40993     40995
     40994     40995     40996     40997     40996     40998     40997     40998
     40999     41000     40999     41001     41000     41001     41002     41003
     41002     41004     41003     41004     41005     41006     41005     41007
     41006     41007     41008     41009     41008     41010     41009     41010
     41011     41012     41011     41013     41012     41013     41014     41015
     41014     41016     41015     41016     41017     41018     41017     41019
     41018     41019     41020     41021     41020     41022     41021     41022
     41023     41024     41023     41025     41024     41025     41026     41027
     41026     41028     41027     41028     41029     41030     41029     41031
     41030     41031     41032     41033     41032     41034     41033     41034
     41035     41036     41035     41037     41036     41037     41038     41039
     41038     41040     41039     41040     41041     41042     41041     41043
     41042     41043     41044     41045     41044     41046     41045     41046
     41047     41048     41047     41049     41048     41049     41050     41051
     41050     41052     41051     41052     41053     41054     41053     41055
     41054     41055     41056     41057     41056     41058     41057     41058
     41059     41060     41059     41061     41060     41061     41062     41063
     41062     41064     41063     41064     41065     41066     41065     41067
     41066     41067     41068     41069     41068     41070     41069     41070
     41071     41072     41071     41073     41072     41073     41074     41075
     41074     41076     41075     41076     41077     41078     41077     41079
     41078     41079     41080     41081     41080     41082     41081     41082
     41083     41084     41083     41085     41084     41085     41086     41087
     41086     41088     41087     41088     41089     41090     41089     41091
     41090     41091     41092     41093     41092     41094     41093     41094
     41095     41096     41095     41097     41096     41097     41098     41099
     41098     41100     41099     41100     41101     41102     41101     41103
     41102     41103     41104     41105     41104     41106     41105     41106
     41107     41108     41107     41109     41108     41109     41110     41111
     41110     41112     41111     41112     41113     41114     41113     41115
     41114     41115     41116     41117     41116     41118     41117     41118
     41119     41120     41119     41121     41120     41121     41122     41123
     41122     41124     41123     41124     41125     41126     41125     41127
     41126     41127     41128     41129     41128     41130     41129     41130
     41131     41132     41131     41133     41132     41133     41134     41135
     41134     41136     41135     41136     41137     41138     41137     41139
     41138     41139     41140     41141     41140     41142     41141     41142
     41143     41144     41143     41145     41144     41145     41146     41147
     41146     41148     41147     41148     41149     41150     41149     41151
     41150     41151     41152     41153     41152     41154     41153     41154
     41155     41156     41155     41157     41156     41157     41158     41159
     41158     41160     41159     41160     41161     41162     41161     41163
     41162     41163     41164     41165     41164     41166     41165     41166
     41167     41168     41167     41169     41168     41169     41170     41171
     41170     41172     41171     41172     41173     41174     41173     41175
     41174     41175     41176     41177     41176     41178     41177     41178
     41179     41180     41179     41181     41180     41181     41182     41183
     41182     41184     41183     41184     41185     41186     41185     41187
     41186     41187     41188     41189     41188     41190     41189     41190
     41191     41192     41191     41193     41192     41193     41194     41195
     41194     41196     41195     41196     41197     41198     41197     41199
     41198     41199     41200     41201     41200     41202     41201     41202
     41203     41204     41203     41205     41204     41205     41206     41207
     41206     41208     41207     41208     41209     41210     41209     41211
     41210     41211     41212     41213     41212     41214     41213     41214
     41215     41216     41215     41217     41216     41217     41218     41219
     41218     41220     41219     41220     41221     41222     41221     41223
     41222     41223     41224     41225     41224     41226     41225     41226
     41227     41228     41227     41229     41228     41229     41230     41231
     41230     41232     41231     41232     41233     41234     41233     41235
     41234     41235     41236     41237     41236     41238     41237     41238
     41239     41240     41239     41241     41240     41241     41242     41243
     41242     41244     41243     41244     41245     41246     41245     41247
     41246     41247     41248     41249     41248     41250     41249     41250
     41251     41252     41251     41253     41252     41253     41254     41255
     41254     41256     41255     41256     41257     41258     41257     41259
     41258     41259     41260     41261     41260     41262     41261     41262
     41263     41264     41263     41265     41264     41265     41266     41267
     41266     41268     41267     41268     41269     41270     41269     41271
     41270     41271     41272     41273     41272     41274     41273     41274
     41275     41276     41275     41277     41276     41277     41278     41279
     41278     41280     41279     41280     41281     41282     41281     41283
     41282     41283     41284     41285     41284     41286     41285     41286
     41287     41288     41287     41289     41288     41289     41290     41291
     41290     41292     41291     41292     41293     41294     41293     41295
     41294     41295     41296     41297     41296     41298     41297     41298
     41299     41300     41299     41301     41300     41301     41302     41303
     41302     41304     41303     41304     41305     41306     41305     41307
     41306     41307     41308     41309     41308     41310     41309     41310
     41311     41312     41311     41313     41312     41313     41314     41315
     41314     41316     41315     41316     41317     41318     41317     41319
     41318     41319     41320     41321     41320     41322     41321     41322
     41323     41324     41323     41325     41324     41325     41326     41327
     41326     41328     41327     41328     41329     41330     41329     41331
     41330     41331     41332     41333     41332     41334     41333     41334
     41335     41336     41335     41337     41336     41337     41338     41339
     41338     41340     41339     41340     41341     41342     41341     41343
     41342     41343     41344     41345     41344     41346     41345     41346
     41347     41348     41347     41349     41348     41349     41350     41351
     41350     41352     41351     41352     41353     41354     41353     41355
     41354     41355     41356     41357     41356     41358     41357     41358
     41359     41360     41359     41361     41360     41361     41362     41363
     41362     41364     41363     41364     41365     41366     41365     41367
     41366     41367     41368     41369     41368     41370     41369     41370
     41371     41372     41371     41373     41372     41373     41374     41375
     41374     41376     41375     41376     41377     41378     41377     41379
     41378     41379     41380     41381     41380     41382     41381     41382
     41383     41384     41383     41385     41384     41385     41386     41387
     41386     41388     41387     41388     41389     41390     41389     41391
     41390     41391     41392     41393     41392     41394     41393     41394
     41395     41396     41395     41397     41396     41397     41398     41399
     41398     41400     41399     41400     41401     41402     41401     41403
     41402     41403     41404     41405     41404     41406     41405     41406
     41407     41408     41407     41409     41408     41409     41410     41411
     41410     41412     41411     41412     41413     41414     41413     41415
     41414     41415     41416     41417     41416     41418     41417     41418
     41419     41420     41419     41421     41420     41421     41422     41423
     41422     41424     41423     41424     41425     41426     41425     41427
     41426     41427     41428     41429     41428     41430     41429     41430
     41431     41432     41431     41433     41432     41433     41434     41435
     41434     41436     41435     41436     41437     41438     41437     41439
     41438     41439     41440     41441     41440     41442     41441     41442
     41443     41444     41443     41445     41444     41445     41446     41447
     41446     41448     41447     41448     41449     41450     41449     41451
     41450     41451     41452     41453     41452     41454     41453     41454
     41455     41456     41455     41457     41456     41457     41458     41459
     41458     41460     41459     41460     41461     41462     41461     41463
     41462     41463     41464     41465     41464     41466     41465     41466
     41467     41468     41467     41469     41468     41469     41470     41471
     41470     41472     41471     41472     41473     41474     41473     41475
     41474     41475     41476     41477     41476     41478     41477     41478
     41479     41480     41479     41481     41480     41481     41482     41483
     41482     41484     41483     41484     41485     41486     41485     41487
     41486     41487     41488     41489     41488     41490     41489     41490
     41491     41492     41491     41493     41492     41493     41494     41495
     41494     41496     41495     41496     41497     41498     41497     41499
     41498     41499     41500     41501     41500     41502     41501     41502
     41503     41504     41503     41505     41504     41505     41506     41507
     41506     41508     41507     41508     41509     41510     41509     41511
     41510     41511     41512     41513     41512     41514     41513     41514
     41515     41516     41515     41517     41516     41517     41518     41519
     41518     41520     41519     41520     41521     41522     41521     41523
     41522     41523     41524     41525     41524     41526     41525     41526
     41527     41528     41527     41529     41528     41529     41530     41531
     41530     41532     41531     41532     41533     41534     41533     41535
     41534     41535     41536     41537     41536     41538     41537     41538
     41539     41540     41539     41541     41540     41541     41542     41543
     41542     41544     41543     41544     41545     41546     41545     41547
     41546     41547     41548     41549     41548     41550     41549     41550
     41551     41552     41551     41553     41552     41553     41554     41555
     41554     41556     41555     41556     41557     41558     41557     41559
     41558     41559     41560     41561     41560     41562     41561     41562
     41563     41564     41563     41565     41564     41565     41566     41567
     41566     41568     41567     41568     41569     41570     41569     41571
     41570     41571     41572     41573     41572     41574     41573     41574
     41575     41576     41575     41577     41576     41577     41578     41579
     41578     41580     41579     41580     41581     41582     41581     41583
     41582     41583     41584     41585     41584     41586     41585     41586
     41587     41588     41587     41589     41588     41589     41590     41591
     41590     41592     41591     41592     41593     41594     41593     41595
     41594     41595     41596     41597     41596     41598     41597     41598
     41599     41600     41599     41601     41600     41601     41602     41603
     41602     41604     41603     41604     41605     41606     41605     41607
     41606     41607     41608     41609     41608     41610     41609     41610
     41611     41612     41611     41613     41612     41613     41614     41615
     41614     41616     41615     41616     41617     41618     41617     41619
     41618     41619     41620     41621     41620     41622     41621     41622
     41623     41624     41623     41625     41624     41625     41626     41627
     41626     41628     41627     41628     41629     41630     41629     41631
     41630     41631     41632     41633     41632     41634     41633     41634
     41635     41636     41635     41637     41636     41637     41638     41639
     41638     41640     41639     41640     41641     41642     41641     41643
     41642     41643     41644     41645     41644     41646     41645     41646
     41647     41648     41647     41649     41648     41649     41650     41651
     41650     41652     41651     41652     41653     41654     41653     41655
     41654     41655     41656     41657     41656     41658     41657     41658
     41659     41660     41659     41661     41660     41661     41662     41663
     41662     41664     41663     41664     41665     41666     41665     41667
     41666     41667     41668     41669     41668     41670     41669     41670
     41671     41672     41671     41673     41672     41673     41674     41675
     41674     41676     41675     41676     41677     41678     41677     41679
     41678     41679     41680     41681     41680     41682     41681     41682
     41683     41684     41683     41685     41684     41685     41686     41687
     41686     41688     41687     41688     41689     41690     41689     41691
     41690     41691     41692     41693     41692     41694     41693     41694
     41695     41696     41695     41697     41696     41697     41698     41699
     41698     41700     41699     41700     41701     41702     41701     41703
     41702     41703     41704     41705     41704     41706     41705     41706
     41707     41708     41707     41709     41708     41709     41710     41711
     41710     41712     41711     41712     41713     41714     41713     41715
     41714     41715     41716     41717     41716     41718     41717     41718
     41719     41720     41719     41721     41720     41721     41722     41723
     41722     41724     41723     41724     41725     41726     41725     41727
     41726     41727     41728     41729     41728     41730     41729     41730
     41731     41732     41731     41733     41732     41733     41734     41735
     41734     41736     41735     41736     41737     41738     41737     41739
     41738     41739     41740     41741     41740     41742     41741     41742
     41743     41744     41743     41745     41744     41745     41746     41747
     41746     41748     41747     41748     41749     41750     41749     41751
     41750     41751     41752     41753     41752     41754     41753     41754
     41755     41756     41755     41757     41756     41757     41758     41759
     41758     41760     41759     41760     41761     41762     41761     41763
     41762     41763     41764     41765     41764     41766     41765     41766
     41767     41768     41767     41769     41768     41769     41770     41771
     41770     41772     41771     41772     41773     41774     41773     41775
     41774     41775     41776     41777     41776     41778     41777     41778
     41779     41780     41779     41781     41780     41781     41782     41783
     41782     41784     41783     41784     41785     41786     41785     41787
     41786     41787     41788     41789     41788     41790     41789     41790
     41791     41792     41791     41793     41792     41793     41794     41795
     41794     41796     41795     41796     41797     41798     41797     41799
     41798     41799     41800     41801     41800     41802     41801     41802
     41803     41804     41803     41805     41804     41805     41806     41807
     41806     41808     41807     41808     41809     41810     41809     41811
     41810     41811     41812     41813     41812     41814     41813     41814
     41815     41816     41815     41817     41816     41817     41818     41819
     41818     41820     41819     41820     41821     41822     41821     41823
     41822     41823     41824     41825     41824     41826     41825     41826
     41827     41828     41827     41829     41828     41829     41830     41831
     41830     41832     41831     41832     41833     41834     41833     41835
     41834     41835     41836     41837     41836     41838     41837     41838
     41839     41840     41839     41841     41840     41841     41842     41843
     41842     41844     41843     41844     41845     41846     41845     41847
     41846     41847     41848     41849     41848     41850     41849     41850
     41851     41852     41851     41853     41852     41853     41854     41855
     41854     41856     41855     41856     41857     41858     41857     41859
     41858     41859     41860     41861     41860     41862     41861     41862
     41863     41864     41863     41865     41864     41865     41866     41867
     41866     41868     41867     41868     41869     41870     41869     41871
     41870     41871     41872     41873     41872     41874     41873     41874
     41875     41876     41875     41877     41876     41877     41878     41879
     41878     41880     41879     41880     41881     41882     41881     41883
     41882     41883     41884     41885     41884     41886     41885     41886
     41887     41888     41887     41889     41888     41889     41890     41891
     41890     41892     41891     41892     41893     41894     41893     41895
     41894     41895     41896     41897     41896     41898     41897     41898
     41899     41900     41899     41901     41900     41901     41902     41903
     41902     41904     41903     41904     41905     41906     41905     41907
     41906     41907     41908     41909     41908     41910     41909     41910
     41911     41912     41911     41913     41912     41913     41914     41915
     41914     41916     41915     41916     41917     41918     41917     41919
     41918     41919     41920     41921     41920     41922     41921     41922
     41923     41924     41923     41925     41924     41925     41926     41927
     41926     41928     41927     41928     41929     41930     41929     41931
     41930     41931     41932     41933     41932     41934     41933     41934
     41935     41936     41935     41937     41936     41937     41938     41939
     41938     41940     41939     41940     41941     41942     41941     41943
     41942     41943     41944     41945     41944     41946     41945     41946
     41947     41948     41947     41949     41948     41949     41950     41951
     41950     41952     41951     41952     41953     41954     41953     41955
     41954     41955     41956     41957     41956     41958     41957     41958
     41959     41960     41959     41961     41960     41961     41962     41963
     41962     41964     41963     41964     41965     41966     41965     41967
     41966     41967     41968     41969     41968     41970     41969     41970
     41971     41972     41971     41973     41972     41973     41974     41975
     41974     41976     41975     41976     41977     41978     41977     41979
     41978     41979     41980     41981     41980     41982     41981     41982
     41983     41984     41983     41985     41984     41985     41986     41987
     41986     41988     41987     41988     41989     41990     41989     41991
     41990     41991     41992     41993     41992     41994     41993     41994
     41995     41996     41995     41997     41996     41997     41998     41999
     41998     42000     41999     42000     42001     42002     42001     42003
     42002     42003     42004     42005     42004     42006     42005     42006
     42007     42008     42007     42009     42008     42009     42010     42011
     42010     42012     42011     42012     42013     42014     42013     42015
     42014     42015     42016     42017     42016     42018     42017     42018
     42019     42020     42019     42021     42020     42021     42022     42023
     42022     42024     42023     42024     42025     42026     42025     42027
     42026     42027     42028     42029     42028     42030     42029     42030
     42031     42032     42031     42033     42032     42033     42034     42035
     42034     42036     42035     42036     42037     42038     42037     42039
     42038     42039     42040     42041     42040     42042     42041     42042
     42043     42044     42043     42045     42044     42045     42046     42047
     42046     42048     42047     42048     42049     42050     42049     42051
     42050     42051     42052     42053     42052     42054     42053     42054
     42055     42056     42055     42057     42056     42057     42058     42059
     42058     42060     42059     42060     42061     42062     42061     42063
     42062     42063     42064     42065     42064     42066     42065     42066
     42067     42068     42067     42069     42068     42069     42070     42071
     42070     42072     42071     42072     42073     42074     42073     42075
     42074     42075     42076     42077     42076     42078     42077     42078
     42079     42080     42079     42081     42080     42081     42082     42083
     42082     42084     42083     42084     42085     42086     42085     42087
     42086     42087     42088     42089     42088     42090     42089     42090
     42091     42092     42091     42093     42092     42093     42094     42095
     42094     42096     42095     42096     42097     42098     42097     42099
     42098     42099     42100     42101     42100     42102     42101     42102
     42103     42104     42103     42105     42104     42105     42106     42107
     42106     42108     42107     42108     42109     42110     42109     42111
     42110     42111     42112     42113     42112     42114     42113     42114
     42115     42116     42115     42117     42116     42117     42118     42119
     42118     42120     42119     42120     42121     42122     42121     42123
     42122     42123     42124     42125     42124     42126     42125     42126
     42127     42128     42127     42129     42128     42129     42130     42131
     42130     42132     42131     42132     42133     42134     42133     42135
     42134     42135     42136     42137     42136     42138     42137     42138
     42139     42140     42139     42141     42140     42141     42142     42143
     42142     42144     42143     42144     42145     42146     42145     42147
     42146     42147     42148     42149     42148     42150     42149     42150
     42151     42152     42151     42153     42152     42153     42154     42155
     42154     42156     42155     42156     42157     42158     42157     42159
     42158     42159     42160     42161     42160     42162     42161     42162
     42163     42164     42163     42165     42164     42165     42166     42167
     42166     42168     42167     42168     42169     42170     42169     42171
     42170     42171     42172     42173     42172     42174     42173     42174
     42175     42176     42175     42177     42176     42177     42178     42179
     42178     42180     42179     42180     42181     42182     42181     42183
     42182     42183     42184     42185     42184     42186     42185     42186
     42187     42188     42187     42189     42188     42189     42190     42191
     42190     42192     42191     42192     42193     42194     42193     42195
     42194     42195     42196     42197     42196     42198     42197     42198
     42199     42200     42199     42201     42200     42201     42202     42203
     42202     42204     42203     42204     42205     42206     42205     42207
     42206     42207     42208     42209     42208     42210     42209     42210
     42211     42212     42211     42213     42212     42213     42214     42215
     42214     42216     42215     42216     42217     42218     42217     42219
     42218     42219     42220     42221     42220     42222     42221     42222
     42223     42224     42223     42225     42224     42225     42226     42227
     42226     42228     42227     42228     42229     42230     42229     42231
     42230     42231     42232     42233     42232     42234     42233     42234
     42235     42236     42235     42237     42236     42237     42238     42239
     42238     42240     42239     42240     42241     42242     42241     42243
     42242     42243     42244     42245     42244     42246     42245     42246
     42247     42248     42247     42249     42248     42249     42250     42251
     42250     42252     42251     42252     42253     42254     42253     42255
     42254     42255     42256     42257     42256     42258     42257     42258
     42259     42260     42259     42261     42260     42261     42262     42263
     42262     42264     42263     42264     42265     42266     42265     42267
     42266     42267     42268     42269     42268     42270     42269     42270
     42271     42272     42271     42273     42272     42273     42274     42275
     42274     42276     42275     42276     42277     42278     42277     42279
     42278     42279     42280     42281     42280     42282     42281     42282
     42283     42284     42283     42285     42284     42285     42286     42287
     42286     42288     42287     42288     42289     42290     42289     42291
     42290     42291     42292     42293     42292     42294     42293     42294
     42295     42296     42295     42297     42296     42297     42298     42299
     42298     42300     42299     42300     42301     42302     42301     42303
     42302     42303     42304     42305     42304     42306     42305     42306
     42307     42308     42307     42309     42308     42309     42310     42311
     42310     42312     42311     42312     42313     42314     42313     42315
     42314     42315     42316     42317     42316     42318     42317     42318
     42319     42320     42319     42321     42320     42321     42322     42323
     42322     42324     42323     42324     42325     42326     42325     42327
     42326     42327     42328     42329     42328     42330     42329     42330
     42331     42332     42331     42333     42332     42333     42334     42335
     42334     42336     42335     42336     42337     42338     42337     42339
     42338     42339     42340     42341     42340     42342     42341     42342
     42343     42344     42343     42345     42344     42345     42346     42347
     42346     42348     42347     42348     42349     42350     42349     42351
     42350     42351     42352     42353     42352     42354     42353     42354
     42355     42356     42355     42357     42356     42357     42358     42359
     42358     42360     42359     42360     42361     42362     42361     42363
     42362     42363     42364     42365     42364     42366     42365     42366
     42367     42368     42367     42369     42368     42369     42370     42371
     42370     42372     42371     42372     42373     42374     42373     42375
     42374     42375     42376     42377     42376     42378     42377     42378
     42379     42380     42379     42381     42380     42381     42382     42383
     42382     42384     42383     42384     42385     42386     42385     42387
     42386     42387     42388     42389     42388     42390     42389     42390
     42391     42392     42391     42393     42392     42393     42394     42395
     42394     42396     42395     42396     42397     42398     42397     42399
     42398     42399     42400     42401     42400     42402     42401     42402
     42403     42404     42403     42405     42404     42405     42406     42407
     42406     42408     42407     42408     42409     42410     42409     42411
     42410     42411     42412     42413     42412     42414     42413     42414
     42415     42416     42415     42417     42416     42417     42418     42419
     42418     42420     42419     42420     42421     42422     42421     42423
     42422     42423     42424     42425     42424     42426     42425     42426
     42427     42428     42427     42429     42428     42429     42430     42431
     42430     42432     42431     42432     42433     42434     42433     42435
     42434     42435     42436     42437     42436     42438     42437     42438
     42439     42440     42439     42441     42440     42441     42442     42443
     42442     42444     42443     42444     42445     42446     42445     42447
     42446     42447     42448     42449     42448     42450     42449     42450
     42451     42452     42451     42453     42452     42453     42454     42455
     42454     42456     42455     42456     42457     42458     42457     42459
     42458     42459     42460     42461     42460     42462     42461     42462
     42463     42464     42463     42465     42464     42465     42466     42467
     42466     42468     42467     42468     42469     42470     42469     42471
     42470     42471     42472     42473     42472     42474     42473     42474
     42475     42476     42475     42477     42476     42477     42478     42479
     42478     42480     42479     42480     42481     42482     42481     42483
     42482     42483     42484     42485     42484     42486     42485     42486
     42487     42488     42487     42489     42488     42489     42490     42491
     42490     42492     42491     42492     42493     42494     42493     42495
     42494     42495     42496     42497     42496     42498     42497     42498
     42499     42500     42499     42501     42500     42501     42502     42503
     42502     42504     42503     42504     42505     42506     42505     42507
     42506     42507     42508     42509     42508     42510     42509     42510
     42511     42512     42511     42513     42512     42513     42514     42515
     42514     42516     42515     42516     42517     42518     42517     42519
     42518     42519     42520     42521     42520     42522     42521     42522
     42523     42524     42523     42525     42524     42525     42526     42527
     42526     42528     42527     42528     42529     42530     42529     42531
     42530     42531     42532     42533     42532     42534     42533     42534
     42535     42536     42535     42537     42536     42537     42538     42539
     42538     42540     42539     42540     42541     42542     42541     42543
     42542     42543     42544     42545     42544     42546     42545     42546
     42547     42548     42547     42549     42548     42549     42550     42551
     42550     42552     42551     42552     42553     42554     42553     42555
     42554     42555     42556     42557     42556     42558     42557     42558
     42559     42560     42559     42561     42560     42561     42562     42563
     42562     42564     42563     42564     42565     42566     42565     42567
     42566     42567     42568     42569     42568     42570     42569     42570
     42571     42572     42571     42573     42572     42573     42574     42575
     42574     42576     42575     42576     42577     42578     42577     42579
     42578     42579     42580     42581     42580     42582     42581     42582
     42583     42584     42583     42585     42584     42585     42586     42587
     42586     42588     42587     42588     42589     42590     42589     42591
     42590     42591     42592     42593     42592     42594     42593     42594
     42595     42596     42595     42597     42596     42597     42598     42599
     42598     42600     42599     42600     42601     42602     42601     42603
     42602     42603     42604     42605     42604     42606     42605     42606
     42607     42608     42607     42609     42608     42609     42610     42611
     42610     42612     42611     42612     42613     42614     42613     42615
     42614     42615     42616     42617     42616     42618     42617     42618
     42619     42620     42619     42621     42620     42621     42622     42623
     42622     42624     42623     42624     42625     42626     42625     42627
     42626     42627     42628     42629     42628     42630     42629     42630
     42631     42632     42631     42633     42632     42633     42634     42635
     42634     42636     42635     42636     42637     42638     42637     42639
     42638     42639     42640     42641     42640     42642     42641     42642
     42643     42644     42643     42645     42644     42645     42646     42647
     42646     42648     42647     42648     42649     42650     42649     42651
     42650     42651     42652     42653     42652     42654     42653     42654
     42655     42656     42655     42657     42656     42657     42658     42659
     42658     42660     42659     42660     42661     42662     42661     42663
     42662     42663     42664     42665     42664     42666     42665     42666
     42667     42668     42667     42669     42668     42669     42670     42671
     42670     42672     42671     42672     42673     42674     42673     42675
     42674     42675     42676     42677     42676     42678     42677     42678
     42679     42680     42679     42681     42680     42681     42682     42683
     42682     42684     42683     42684     42685     42686     42685     42687
     42686     42687     42688     42689     42688     42690     42689     42690
     42691     42692     42691     42693     42692     42693     42694     42695
     42694     42696     42695     42696     42697     42698     42697     42699
     42698     42699     42700     42701     42700     42702     42701     42702
     42703     42704     42703     42705     42704     42705     42706     42707
     42706     42708     42707     42708     42709     42710     42709     42711
     42710     42711     42712     42713     42712     42714     42713     42714
     42715     42716     42715     42717     42716     42717     42718     42719
     42718     42720     42719     42720     42721     42722     42721     42723
     42722     42723     42724     42725     42724     42726     42725     42726
     42727     42728     42727     42729     42728     42729     42730     42731
     42730     42732     42731     42732     42733     42734     42733     42735
     42734     42735     42736     42737     42736     42738     42737     42738
     42739     42740     42739     42741     42740     42741     42742     42743
     42742     42744     42743     42744     42745     42746     42745     42747
     42746     42747     42748     42749     42748     42750     42749     42750
     42751     42752     42751     42753     42752     42753     42754     42755
     42754     42756     42755     42756     42757     42758     42757     42759
     42758     42759     42760     42761     42760     42762     42761     42762
     42763     42764     42763     42765     42764     42765     42766     42767
     42766     42768     42767     42768     42769     42770     42769     42771
     42770     42771     42772     42773     42772     42774     42773     42774
     42775     42776     42775     42777     42776     42777     42778     42779
     42778     42780     42779     42780     42781     42782     42781     42783
     42782     42783     42784     42785     42784     42786     42785     42786
     42787     42788     42787     42789     42788     42789     42790     42791
     42790     42792     42791     42792     42793     42794     42793     42795
     42794     42795     42796     42797     42796     42798     42797     42798
     42799     42800     42799     42801     42800     42801     42802     42803
     42802     42804     42803     42804     42805     42806     42805     42807
     42806     42807     42808     42809     42808     42810     42809     42810
     42811     42812     42811     42813     42812     42813     42814     42815
     42814     42816     42815     42816     42817     42818     42817     42819
     42818     42819     42820     42821     42820     42822     42821     42822
     42823     42824     42823     42825     42824     42825     42826     42827
     42826     42828     42827     42828     42829     42830     42829     42831
     42830     42831     42832     42833     42832     42834     42833     42834
     42835     42836     42835     42837     42836     42837     42838     42839
     42838     42840     42839     42840     42841     42842     42841     42843
     42842     42843     42844     42845     42844     42846     42845     42846
     42847     42848     42847     42849     42848     42849     42850     42851
     42850     42852     42851     42852     42853     42854     42853     42855
     42854     42855     42856     42857     42856     42858     42857     42858
     42859     42860     42859     42861     42860     42861     42862     42863
     42862     42864     42863     42864     42865     42866     42865     42867
     42866     42867     42868     42869     42868     42870     42869     42870
     42871     42872     42871     42873     42872     42873     42874     42875
     42874     42876     42875     42876     42877     42878     42877     42879
     42878     42879     42880     42881     42880     42882     42881     42882
     42883     42884     42883     42885     42884     42885     42886     42887
     42886     42888     42887     42888     42889     42890     42889     42891
     42890     42891     42892     42893     42892     42894     42893     42894
     42895     42896     42895     42897     42896     42897     42898     42899
     42898     42900     42899     42900     42901     42902     42901     42903
     42902     42903     42904     42905     42904     42906     42905     42906
     42907     42908     42907     42909     42908     42909     42910     42911
     42910     42912     42911     42912     42913     42914     42913     42915
     42914     42915     42916     42917     42916     42918     42917     42918
     42919     42920     42919     42921     42920     42921     42922     42923
     42922     42924     42923     42924     42925     42926     42925     42927
     42926     42927     42928     42929     42928     42930     42929     42930
     42931     42932     42931     42933     42932     42933     42934     42935
     42934     42936     42935     42936     42937     42938     42937     42939
     42938     42939     42940     42941     42940     42942     42941     42942
     42943     42944     42943     42945     42944     42945     42946     42947
     42946     42948     42947     42948     42949     42950     42949     42951
     42950     42951     42952     42953     42952     42954     42953     42954
     42955     42956     42955     42957     42956     42957     42958     42959
     42958     42960     42959     42960     42961     42962     42961     42963
     42962     42963     42964     42965     42964     42966     42965     42966
     42967     42968     42967     42969     42968     42969     42970     42971
     42970     42972     42971     42972     42973     42974     42973     42975
     42974     42975     42976     42977     42976     42978     42977     42978
     42979     42980     42979     42981     42980     42981     42982     42983
     42982     42984     42983     42984     42985     42986     42985     42987
     42986     42987     42988     42989     42988     42990     42989     42990
     42991     42992     42991     42993     42992     42993     42994     42995
     42994     42996     42995     42996     42997     42998     42997     42999
     42998     42999     43000     43001     43000     43002     43001     43002
     43003     43004     43003     43005     43004     43005     43006     43007
     43006     43008     43007     43008     43009     43010     43009     43011
     43010     43011     43012     43013     43012     43014     43013     43014
     43015     43016     43015     43017     43016     43017     43018     43019
     43018     43020     43019     43020     43021     43022     43021     43023
     43022     43023     43024     43025     43024     43026     43025     43026
     43027     43028     43027     43029     43028     43029     43030     43031
     43030     43032     43031     43032     43033     43034     43033     43035
     43034     43035     43036     43037     43036     43038     43037     43038
     43039     43040     43039     43041     43040     43041     43042     43043
     43042     43044     43043     43044     43045     43046     43045     43047
     43046     43047     43048     43049     43048     43050     43049     43050
     43051     43052     43051     43053     43052     43053     43054     43055
     43054     43056     43055     43056     43057     43058     43057     43059
     43058     43059     43060     43061     43060     43062     43061     43062
     43063     43064     43063     43065     43064     43065     43066     43067
     43066     43068     43067     43068     43069     43070     43069     43071
     43070     43071     43072     43073     43072     43074     43073     43074
     43075     43076     43075     43077     43076     43077     43078     43079
     43078     43080     43079     43080     43081     43082     43081     43083
     43082     43083     43084     43085     43084     43086     43085     43086
     43087     43088     43087     43089     43088     43089     43090     43091
     43090     43092     43091     43092     43093     43094     43093     43095
     43094     43095     43096     43097     43096     43098     43097     43098
     43099     43100     43099     43101     43100     43101     43102     43103
     43102     43104     43103     43104     43105     43106     43105     43107
     43106     43107     43108     43109     43108     43110     43109     43110
     43111     43112     43111     43113     43112     43113     43114     43115
     43114     43116     43115     43116     43117     43118     43117     43119
     43118     43119     43120     43121     43120     43122     43121     43122
     43123     43124     43123     43125     43124     43125     43126     43127
     43126     43128     43127     43128     43129     43130     43129     43131
     43130     43131     43132     43133     43132     43134     43133     43134
     43135     43136     43135     43137     43136     43137     43138     43139
     43138     43140     43139     43140     43141     43142     43141     43143
     43142     43143     43144     43145     43144     43146     43145     43146
     43147     43148     43147     43149     43148     43149     43150     43151
     43150     43152     43151     43152     43153     43154     43153     43155
     43154     43155     43156     43157     43156     43158     43157     43158
     43159     43160     43159     43161     43160     43161     43162     43163
     43162     43164     43163     43164     43165     43166     43165     43167
     43166     43167     43168     43169     43168     43170     43169     43170
     43171     43172     43171     43173     43172     43173     43174     43175
     43174     43176     43175     43176     43177     43178     43177     43179
     43178     43179     43180     43181     43180     43182     43181     43182
     43183     43184     43183     43185     43184     43185     43186     43187
     43186     43188     43187     43188     43189     43190     43189     43191
     43190     43191     43192     43193     43192     43194     43193     43194
     43195     43196     43195     43197     43196     43197     43198     43199
     43198     43200     43199     43200     43201     43202     43201     43203
     43202     43203     43204     43205     43204     43206     43205     43206
     43207     43208     43207     43209     43208     43209     43210     43211
     43210     43212     43211     43212     43213     43214     43213     43215
     43214     43215     43216     43217     43216     43218     43217     43218
     43219     43220     43219     43221     43220     43221     43222     43223
     43222     43224     43223     43224     43225     43226     43225     43227
     43226     43227     43228     43229     43228     43230     43229     43230
     43231     43232     43231     43233     43232     43233     43234     43235
     43234     43236     43235     43236     43237     43238     43237     43239
     43238     43239     43240     43241     43240     43242     43241     43242
     43243     43244     43243     43245     43244     43245     43246     43247
     43246     43248     43247     43248     43249     43250     43249     43251
     43250     43251     43252     43253     43252     43254     43253     43254
     43255     43256     43255     43257     43256     43257     43258     43259
     43258     43260     43259     43260     43261     43262     43261     43263
     43262     43263     43264     43265     43264     43266     43265     43266
     43267     43268     43267     43269     43268     43269     43270     43271
     43270     43272     43271     43272     43273     43274     43273     43275
     43274     43275     43276     43277     43276     43278     43277     43278
     43279     43280     43279     43281     43280     43281     43282     43283
     43282     43284     43283     43284     43285     43286     43285     43287
     43286     43287     43288     43289     43288     43290     43289     43290
     43291     43292     43291     43293     43292     43293     43294     43295
     43294     43296     43295     43296     43297     43298     43297     43299
     43298     43299     43300     43301     43300     43302     43301     43302
     43303     43304     43303     43305     43304     43305     43306     43307
     43306     43308     43307     43308     43309     43310     43309     43311
     43310     43311     43312     43313     43312     43314     43313     43314
     43315     43316     43315     43317     43316     43317     43318     43319
     43318     43320     43319     43320     43321     43322     43321     43323
     43322     43323     43324     43325     43324     43326     43325     43326
     43327     43328     43327     43329     43328     43329     43330     43331
     43330     43332     43331     43332     43333     43334     43333     43335
     43334     43335     43336     43337     43336     43338     43337     43338
     43339     43340     43339     43341     43340     43341     43342     43343
     43342     43344     43343     43344     43345     43346     43345     43347
     43346     43347     43348     43349     43348     43350     43349     43350
     43351     43352     43351     43353     43352     43353     43354     43355
     43354     43356     43355     43356     43357     43358     43357     43359
     43358     43359     43360     43361     43360     43362     43361     43362
     43363     43364     43363     43365     43364     43365     43366     43367
     43366     43368     43367     43368     43369     43370     43369     43371
     43370     43371     43372     43373     43372     43374     43373     43374
     43375     43376     43375     43377     43376     43377     43378     43379
     43378     43380     43379     43380     43381     43382     43381     43383
     43382     43383     43384     43385     43384     43386     43385     43386
     43387     43388     43387     43389     43388     43389     43390     43391
     43390     43392     43391     43392     43393     43394     43393     43395
     43394     43395     43396     43397     43396     43398     43397     43398
     43399     43400     43399     43401     43400     43401     43402     43403
     43402     43404     43403     43404     43405     43406     43405     43407
     43406     43407     43408     43409     43408     43410     43409     43410
     43411     43412     43411     43413     43412     43413     43414     43415
     43414     43416     43415     43416     43417     43418     43417     43419
     43418     43419     43420     43421     43420     43422     43421     43422
     43423     43424     43423     43425     43424     43425     43426     43427
     43426     43428     43427     43428     43429     43430     43429     43431
     43430     43431     43432     43433     43432     43434     43433     43434
     43435     43436     43435     43437     43436     43437     43438     43439
     43438     43440     43439     43440     43441     43442     43441     43443
     43442     43443     43444     43445     43444     43446     43445     43446
     43447     43448     43447     43449     43448     43449     43450     43451
     43450     43452     43451     43452     43453     43454     43453     43455
     43454     43455     43456     43457     43456     43458     43457     43458
     43459     43460     43459     43461     43460     43461     43462     43463
     43462     43464     43463     43464     43465     43466     43465     43467
     43466     43467     43468     43469     43468     43470     43469     43470
     43471     43472     43471     43473     43472     43473     43474     43475
     43474     43476     43475     43476     43477     43478     43477     43479
     43478     43479     43480     43481     43480     43482     43481     43482
     43483     43484     43483     43485     43484     43485     43486     43487
     43486     43488     43487     43488     43489     43490     43489     43491
     43490     43491     43492     43493     43492     43494     43493     43494
     43495     43496     43495     43497     43496     43497     43498     43499
     43498     43500     43499     43500     43501     43502     43501     43503
     43502     43503     43504     43505     43504     43506     43505     43506
     43507     43508     43507     43509     43508     43509     43510     43511
     43510     43512     43511     43512     43513     43514     43513     43515
     43514     43515     43516     43517     43516     43518     43517     43518
     43519     43520     43519     43521     43520     43521     43522     43523
     43522     43524     43523     43524     43525     43526     43525     43527
     43526     43527     43528     43529     43528     43530     43529     43530
     43531     43532     43531     43533     43532     43533     43534     43535
     43534     43536     43535     43536     43537     43538     43537     43539
     43538     43539     43540     43541     43540     43542     43541     43542
     43543     43544     43543     43545     43544     43545     43546     43547
     43546     43548     43547     43548     43549     43550     43549     43551
     43550     43551     43552     43553     43552     43554     43553     43554
     43555     43556     43555     43557     43556     43557     43558     43559
     43558     43560     43559     43560     43561     43562     43561     43563
     43562     43563     43564     43565     43564     43566     43565     43566
     43567     43568     43567     43569     43568     43569     43570     43571
     43570     43572     43571     43572     43573     43574     43573     43575
     43574     43575     43576     43577     43576     43578     43577     43578
     43579     43580     43579     43581     43580     43581     43582     43583
     43582     43584     43583     43584     43585     43586     43585     43587
     43586     43587     43588     43589     43588     43590     43589     43590
     43591     43592     43591     43593     43592     43593     43594     43595
     43594     43596     43595     43596     43597     43598     43597     43599
     43598     43599     43600     43601     43600     43602     43601     43602
     43603     43604     43603     43605     43604     43605     43606     43607
     43606     43608     43607     43608     43609     43610     43609     43611
     43610     43611     43612     43613     43612     43614     43613     43614
     43615     43616     43615     43617     43616     43617     43618     43619
     43618     43620     43619     43620     43621     43622     43621     43623
     43622     43623     43624     43625     43624     43626     43625     43626
     43627     43628     43627     43629     43628     43629     43630     43631
     43630     43632     43631     43632     43633     43634     43633     43635
     43634     43635     43636     43637     43636     43638     43637     43638
     43639     43640     43639     43641     43640     43641     43642     43643
     43642     43644     43643     43644     43645     43646     43645     43647
     43646     43647     43648     43649     43648     43650     43649     43650
     43651     43652     43651     43653     43652     43653     43654     43655
     43654     43656     43655     43656     43657     43658     43657     43659
     43658     43659     43660     43661     43660     43662     43661     43662
     43663     43664     43663     43665     43664     43665     43666     43667
     43666     43668     43667     43668     43669     43670     43669     43671
     43670     43671     43672     43673     43672     43674     43673     43674
     43675     43676     43675     43677     43676     43677     43678     43679
     43678     43680     43679     43680     43681     43682     43681     43683
     43682     43683     43684     43685     43684     43686     43685     43686
     43687     43688     43687     43689     43688     43689     43690     43691
     43690     43692     43691     43692     43693     43694     43693     43695
     43694     43695     43696     43697     43696     43698     43697     43698
     43699     43700     43699     43701     43700     43701     43702     43703
     43702     43704     43703     43704     43705     43706     43705     43707
     43706     43707     43708     43709     43708     43710     43709     43710
     43711     43712     43711     43713     43712     43713     43714     43715
     43714     43716     43715     43716     43717     43718     43717     43719
     43718     43719     43720     43721     43720     43722     43721     43722
     43723     43724     43723     43725     43724     43725     43726     43727
     43726     43728     43727     43728     43729     43730     43729     43731
     43730     43731     43732     43733     43732     43734     43733     43734
     43735     43736     43735     43737     43736     43737     43738     43739
     43738     43740     43739     43740     43741     43742     43741     43743
     43742     43743     43744     43745     43744     43746     43745     43746
     43747     43748     43747     43749     43748     43749     43750     43751
     43750     43752     43751     43752     43753     43754     43753     43755
     43754     43755     43756     43757     43756     43758     43757     43758
     43759     43760     43759     43761     43760     43761     43762     43763
     43762     43764     43763     43764     43765     43766     43765     43767
     43766     43767     43768     43769     43768     43770     43769     43770
     43771     43772     43771     43773     43772     43773     43774     43775
     43774     43776     43775     43776     43777     43778     43777     43779
     43778     43779     43780     43781     43780     43782     43781     43782
     43783     43784     43783     43785     43784     43785     43786     43787
     43786     43788     43787     43788     43789     43790     43789     43791
     43790     43791     43792     43793     43792     43794     43793     43794
     43795     43796     43795     43797     43796     43797     43798     43799
     43798     43800     43799     43800     43801     43802     43801     43803
     43802     43803     43804     43805     43804     43806     43805     43806
     43807     43808     43807     43809     43808     43809     43810     43811
     43810     43812     43811     43812     43813     43814     43813     43815
     43814     43815     43816     43817     43816     43818     43817     43818
     43819     43820     43819     43821     43820     43821     43822     43823
     43822     43824     43823     43824     43825     43826     43825     43827
     43826     43827     43828     43829     43828     43830     43829     43830
     43831     43832     43831     43833     43832     43833     43834     43835
     43834     43836     43835     43836     43837     43838     43837     43839
     43838     43839     43840     43841     43840     43842     43841     43842
     43843     43844     43843     43845     43844     43845     43846     43847
     43846     43848     43847     43848     43849     43850     43849     43851
     43850     43851     43852     43853     43852     43854     43853     43854
     43855     43856     43855     43857     43856     43857     43858     43859
     43858     43860     43859     43860     43861     43862     43861     43863
     43862     43863     43864     43865     43864     43866     43865     43866
     43867     43868     43867     43869     43868     43869     43870     43871
     43870     43872     43871     43872     43873     43874     43873     43875
     43874     43875     43876     43877     43876     43878     43877     43878
     43879     43880     43879     43881     43880     43881     43882     43883
     43882     43884     43883     43884     43885     43886     43885     43887
     43886     43887     43888     43889     43888     43890     43889     43890
     43891     43892     43891     43893     43892     43893     43894     43895
     43894     43896     43895     43896     43897     43898     43897     43899
     43898     43899     43900     43901     43900     43902     43901     43902
     43903     43904     43903     43905     43904     43905     43906     43907
     43906     43908     43907     43908     43909     43910     43909     43911
     43910     43911     43912     43913     43912     43914     43913     43914
     43915     43916     43915     43917     43916     43917     43918     43919
     43918     43920     43919     43920     43921     43922     43921     43923
     43922     43923     43924     43925     43924     43926     43925     43926
     43927     43928     43927     43929     43928     43929     43930     43931
     43930     43932     43931     43932     43933     43934     43933     43935
     43934     43935     43936     43937     43936     43938     43937     43938
     43939     43940     43939     43941     43940     43941     43942     43943
     43942     43944     43943     43944     43945     43946     43945     43947
     43946     43947     43948     43949     43948     43950     43949     43950
     43951     43952     43951     43953     43952     43953     43954     43955
     43954     43956     43955     43956     43957     43958     43957     43959
     43958     43959     43960     43961     43960     43962     43961     43962
     43963     43964     43963     43965     43964     43965     43966     43967
     43966     43968     43967     43968     43969     43970     43969     43971
     43970     43971     43972     43973     43972     43974     43973     43974
     43975     43976     43975     43977     43976     43977     43978     43979
     43978     43980     43979     43980     43981     43982     43981     43983
     43982     43983     43984     43985     43984     43986     43985     43986
     43987     43988     43987     43989     43988     43989     43990     43991
     43990     43992     43991     43992     43993     43994     43993     43995
     43994     43995     43996     43997     43996     43998     43997     43998
     43999     44000     43999     44001     44000     44001     44002     44003
     44002     44004     44003     44004     44005     44006     44005     44007
     44006     44007     44008     44009     44008     44010     44009     44010
     44011     44012     44011     44013     44012     44013     44014     44015
     44014     44016     44015     44016     44017     44018     44017     44019
     44018     44019     44020     44021     44020     44022     44021     44022
     44023     44024     44023     44025     44024     44025     44026     44027
     44026     44028     44027     44028     44029     44030     44029     44031
     44030     44031     44032     44033     44032     44034     44033     44034
     44035     44036     44035     44037     44036     44037     44038     44039
     44038     44040     44039     44040     44041     44042     44041     44043
     44042     44043     44044     44045     44044     44046     44045     44046
     44047     44048     44047     44049     44048     44049     44050     44051
     44050     44052     44051     44052     44053     44054     44053     44055
     44054     44055     44056     44057     44056     44058     44057     44058
     44059     44060     44059     44061     44060     44061     44062     44063
     44062     44064     44063     44064     44065     44066     44065     44067
     44066     44067     44068     44069     44068     44070     44069     44070
     44071     44072     44071     44073     44072     44073     44074     44075
     44074     44076     44075     44076     44077     44078     44077     44079
     44078     44079     44080     44081     44080     44082     44081     44082
     44083     44084     44083     44085     44084     44085     44086     44087
     44086     44088     44087     44088     44089     44090     44089     44091
     44090     44091     44092     44093     44092     44094     44093     44094
     44095     44096     44095     44097     44096     44097     44098     44099
     44098     44100     44099     44100     44101     44102     44101     44103
     44102     44103     44104     44105     44104     44106     44105     44106
     44107     44108     44107     44109     44108     44109     44110     44111
     44110     44112     44111     44112     44113     44114     44113     44115
     44114     44115     44116     44117     44116     44118     44117     44118
     44119     44120     44119     44121     44120     44121     44122     44123
     44122     44124     44123     44124     44125     44126     44125     44127
     44126     44127     44128     44129     44128     44130     44129     44130
     44131     44132     44131     44133     44132     44133     44134     44135
     44134     44136     44135     44136     44137     44138     44137     44139
     44138     44139     44140     44141     44140     44142     44141     44142
     44143     44144     44143     44145     44144     44145     44146     44147
     44146     44148     44147     44148     44149     44150     44149     44151
     44150     44151     44152     44153     44152     44154     44153     44154
     44155     44156     44155     44157     44156     44157     44158     44159
     44158     44160     44159     44160     44161     44162     44161     44163
     44162     44163     44164     44165     44164     44166     44165     44166
     44167     44168     44167     44169     44168     44169     44170     44171
     44170     44172     44171     44172     44173     44174     44173     44175
     44174     44175     44176     44177     44176     44178     44177     44178
     44179     44180     44179     44181     44180     44181     44182     44183
     44182     44184     44183     44184     44185     44186     44185     44187
     44186     44187     44188     44189     44188     44190     44189     44190
     44191     44192     44191     44193     44192     44193     44194     44195
     44194     44196     44195     44196     44197     44198     44197     44199
     44198     44199     44200     44201     44200     44202     44201     44202
     44203     44204     44203     44205     44204     44205     44206     44207
     44206     44208     44207     44208     44209     44210     44209     44211
     44210     44211     44212     44213     44212     44214     44213     44214
     44215     44216     44215     44217     44216     44217     44218     44219
     44218     44220     44219     44220     44221     44222     44221     44223
     44222     44223     44224     44225     44224     44226     44225     44226
     44227     44228     44227     44229     44228     44229     44230     44231
     44230     44232     44231     44232     44233     44234     44233     44235
     44234     44235     44236     44237     44236     44238     44237     44238
     44239     44240     44239     44241     44240     44241     44242     44243
     44242     44244     44243     44244     44245     44246     44245     44247
     44246     44247     44248     44249     44248     44250     44249     44250
     44251     44252     44251     44253     44252     44253     44254     44255
     44254     44256     44255     44256     44257     44258     44257     44259
     44258     44259     44260     44261     44260     44262     44261     44262
     44263     44264     44263     44265     44264     44265     44266     44267
     44266     44268     44267     44268     44269     44270     44269     44271
     44270     44271     44272     44273     44272     44274     44273     44274
     44275     44276     44275     44277     44276     44277     44278     44279
     44278     44280     44279     44280     44281     44282     44281     44283
     44282     44283     44284     44285     44284     44286     44285     44286
     44287     44288     44287     44289     44288     44289     44290     44291
     44290     44292     44291     44292     44293     44294     44293     44295
     44294     44295     44296     44297     44296     44298     44297     44298
     44299     44300     44299     44301     44300     44301     44302     44303
     44302     44304     44303     44304     44305     44306     44305     44307
     44306     44307     44308     44309     44308     44310     44309     44310
     44311     44312     44311     44313     44312     44313     44314     44315
     44314     44316     44315     44316     44317     44318     44317     44319
     44318     44319     44320     44321     44320     44322     44321     44322
     44323     44324     44323     44325     44324     44325     44326     44327
     44326     44328     44327     44328     44329     44330     44329     44331
     44330     44331     44332     44333     44332     44334     44333     44334
     44335     44336     44335     44337     44336     44337     44338     44339
     44338     44340     44339     44340     44341     44342     44341     44343
     44342     44343     44344     44345     44344     44346     44345     44346
     44347     44348     44347     44349     44348     44349     44350     44351
     44350     44352     44351     44352     44353     44354     44353     44355
     44354     44355     44356     44357     44356     44358     44357     44358
     44359     44360     44359     44361     44360     44361     44362     44363
     44362     44364     44363     44364     44365     44366     44365     44367
     44366     44367     44368     44369     44368     44370     44369     44370
     44371     44372     44371     44373     44372     44373     44374     44375
     44374     44376     44375     44376     44377     44378     44377     44379
     44378     44379     44380     44381     44380     44382     44381     44382
     44383     44384     44383     44385     44384     44385     44386     44387
     44386     44388     44387     44388     44389     44390     44389     44391
     44390     44391     44392     44393     44392     44394     44393     44394
     44395     44396     44395     44397     44396     44397     44398     44399
     44398     44400     44399     44400     44401     44402     44401     44403
     44402     44403     44404     44405     44404     44406     44405     44406
     44407     44408     44407     44409     44408     44409     44410     44411
     44410     44412     44411     44412     44413     44414     44413     44415
     44414     44415     44416     44417     44416     44418     44417     44418
     44419     44420     44419     44421     44420     44421     44422     44423
     44422     44424     44423     44424     44425     44426     44425     44427
     44426     44427     44428     44429     44428     44430     44429     44430
     44431     44432     44431     44433     44432     44433     44434     44435
     44434     44436     44435     44436     44437     44438     44437     44439
     44438     44439     44440     44441     44440     44442     44441     44442
     44443     44444     44443     44445     44444     44445     44446     44447
     44446     44448     44447     44448     44449     44450     44449     44451
     44450     44451     44452     44453     44452     44454     44453     44454
     44455     44456     44455     44457     44456     44457     44458     44459
     44458     44460     44459     44460     44461     44462     44461     44463
     44462     44463     44464     44465     44464     44466     44465     44466
     44467     44468     44467     44469     44468     44469     44470     44471
     44470     44472     44471     44472     44473     44474     44473     44475
     44474     44475     44476     44477     44476     44478     44477     44478
     44479     44480     44479     44481     44480     44481     44482     44483
     44482     44484     44483     44484     44485     44486     44485     44487
     44486     44487     44488     44489     44488     44490     44489     44490
     44491     44492     44491     44493     44492     44493     44494     44495
     44494     44496     44495     44496     44497     44498     44497     44499
     44498     44499     44500     44501     44500     44502     44501     44502
     44503     44504     44503     44505     44504     44505     44506     44507
     44506     44508     44507     44508     44509     44510     44509     44511
     44510     44511     44512     44513     44512     44514     44513     44514
     44515     44516     44515     44517     44516     44517     44518     44519
     44518     44520     44519     44520     44521     44522     44521     44523
     44522     44523     44524     44525     44524     44526     44525     44526
     44527     44528     44527     44529     44528     44529     44530     44531
     44530     44532     44531     44532     44533     44534     44533     44535
     44534     44535     44536     44537     44536     44538     44537     44538
     44539     44540     44539     44541     44540     44541     44542     44543
     44542     44544     44543     44544     44545     44546     44545     44547
     44546     44547     44548     44549     44548     44550     44549     44550
     44551     44552     44551     44553     44552     44553     44554     44555
     44554     44556     44555     44556     44557     44558     44557     44559
     44558     44559     44560     44561     44560     44562     44561     44562
     44563     44564     44563     44565     44564     44565     44566     44567
     44566     44568     44567     44568     44569     44570     44569     44571
     44570     44571     44572     44573     44572     44574     44573     44574
     44575     44576     44575     44577     44576     44577     44578     44579
     44578     44580     44579     44580     44581     44582     44581     44583
     44582     44583     44584     44585     44584     44586     44585     44586
     44587     44588     44587     44589     44588     44589     44590     44591
     44590     44592     44591     44592     44593     44594     44593     44595
     44594     44595     44596     44597     44596     44598     44597     44598
     44599     44600     44599     44601     44600     44601     44602     44603
     44602     44604     44603     44604     44605     44606     44605     44607
     44606     44607     44608     44609     44608     44610     44609     44610
     44611     44612     44611     44613     44612     44613     44614     44615
     44614     44616     44615     44616     44617     44618     44617     44619
     44618     44619     44620     44621     44620     44622     44621     44622
     44623     44624     44623     44625     44624     44625     44626     44627
     44626     44628     44627     44628     44629     44630     44629     44631
     44630     44631     44632     44633     44632     44634     44633     44634
     44635     44636     44635     44637     44636     44637     44638     44639
     44638     44640     44639     44640     44641     44642     44641     44643
     44642     44643     44644     44645     44644     44646     44645     44646
     44647     44648     44647     44649     44648     44649     44650     44651
     44650     44652     44651     44652     44653     44654     44653     44655
     44654     44655     44656     44657     44656     44658     44657     44658
     44659     44660     44659     44661     44660     44661     44662     44663
     44662     44664     44663     44664     44665     44666     44665     44667
     44666     44667     44668     44669     44668     44670     44669     44670
     44671     44672     44671     44673     44672     44673     44674     44675
     44674     44676     44675     44676     44677     44678     44677     44679
     44678     44679     44680     44681     44680     44682     44681     44682
     44683     44684     44683     44685     44684     44685     44686     44687
     44686     44688     44687     44688     44689     44690     44689     44691
     44690     44691     44692     44693     44692     44694     44693     44694
     44695     44696     44695     44697     44696     44697     44698     44699
     44698     44700     44699     44700     44701     44702     44701     44703
     44702     44703     44704     44705     44704     44706     44705     44706
     44707     44708     44707     44709     44708     44709     44710     44711
     44710     44712     44711     44712     44713     44714     44713     44715
     44714     44715     44716     44717     44716     44718     44717     44718
     44719     44720     44719     44721     44720     44721     44722     44723
     44722     44724     44723     44724     44725     44726     44725     44727
     44726     44727     44728     44729     44728     44730     44729     44730
     44731     44732     44731     44733     44732     44733     44734     44735
     44734     44736     44735     44736     44737     44738     44737     44739
     44738     44739     44740     44741     44740     44742     44741     44742
     44743     44744     44743     44745     44744     44745     44746     44747
     44746     44748     44747     44748     44749     44750     44749     44751
     44750     44751     44752     44753     44752     44754     44753     44754
     44755     44756     44755     44757     44756     44757     44758     44759
     44758     44760     44759     44760     44761     44762     44761     44763
     44762     44763     44764     44765     44764     44766     44765     44766
     44767     44768     44767     44769     44768     44769     44770     44771
     44770     44772     44771     44772     44773     44774     44773     44775
     44774     44775     44776     44777     44776     44778     44777     44778
     44779     44780     44779     44781     44780     44781     44782     44783
     44782     44784     44783     44784     44785     44786     44785     44787
     44786     44787     44788     44789     44788     44790     44789     44790
     44791     44792     44791     44793     44792     44793     44794     44795
     44794     44796     44795     44796     44797     44798     44797     44799
     44798     44799     44800     44801     44800     44802     44801     44802
     44803     44804     44803     44805     44804     44805     44806     44807
     44806     44808     44807     44808     44809     44810     44809     44811
     44810     44811     44812     44813     44812     44814     44813     44814
     44815     44816     44815     44817     44816     44817     44818     44819
     44818     44820     44819     44820     44821     44822     44821     44823
     44822     44823     44824     44825     44824     44826     44825     44826
     44827     44828     44827     44829     44828     44829     44830     44831
     44830     44832     44831     44832     44833     44834     44833     44835
     44834     44835     44836     44837     44836     44838     44837     44838
     44839     44840     44839     44841     44840     44841     44842     44843
     44842     44844     44843     44844     44845     44846     44845     44847
     44846     44847     44848     44849     44848     44850     44849     44850
     44851     44852     44851     44853     44852     44853     44854     44855
     44854     44856     44855     44856     44857     44858     44857     44859
     44858     44859     44860     44861     44860     44862     44861     44862
     44863     44864     44863     44865     44864     44865     44866     44867
     44866     44868     44867     44868     44869     44870     44869     44871
     44870     44871     44872     44873     44872     44874     44873     44874
     44875     44876     44875     44877     44876     44877     44878     44879
     44878     44880     44879     44880     44881     44882     44881     44883
     44882     44883     44884     44885     44884     44886     44885     44886
     44887     44888     44887     44889     44888     44889     44890     44891
     44890     44892     44891     44892     44893     44894     44893     44895
     44894     44895     44896     44897     44896     44898     44897     44898
     44899     44900     44899     44901     44900     44901     44902     44903
     44902     44904     44903     44904     44905     44906     44905     44907
     44906     44907     44908     44909     44908     44910     44909     44910
     44911     44912     44911     44913     44912     44913     44914     44915
     44914     44916     44915     44916     44917     44918     44917     44919
     44918     44919     44920     44921     44920     44922     44921     44922
     44923     44924     44923     44925     44924     44925     44926     44927
     44926     44928     44927     44928     44929     44930     44929     44931
     44930     44931     44932     44933     44932     44934     44933     44934
     44935     44936     44935     44937     44936     44937     44938     44939
     44938     44940     44939     44940     44941     44942     44941     44943
     44942     44943     44944     44945     44944     44946     44945     44946
     44947     44948     44947     44949     44948     44949     44950     44951
     44950     44952     44951     44952     44953     44954     44953     44955
     44954     44955     44956     44957     44956     44958     44957     44958
     44959     44960     44959     44961     44960     44961     44962     44963
     44962     44964     44963     44964     44965     44966     44965     44967
     44966     44967     44968     44969     44968     44970     44969     44970
     44971     44972     44971     44973     44972     44973     44974     44975
     44974     44976     44975     44976     44977     44978     44977     44979
     44978     44979     44980     44981     44980     44982     44981     44982
     44983     44984     44983     44985     44984     44985     44986     44987
     44986     44988     44987     44988     44989     44990     44989     44991
     44990     44991     44992     44993     44992     44994     44993     44994
     44995     44996     44995     44997     44996     44997     44998     44999
     44998     45000     44999     45000     45001     45002     45001     45003
     45002     45003     45004     45005     45004     45006     45005     45006
     45007     45008     45007     45009     45008     45009     45010     45011
     45010     45012     45011     45012     45013     45014     45013     45015
     45014     45015     45016     45017     45016     45018     45017     45018
     45019     45020     45019     45021     45020     45021     45022     45023
     45022     45024     45023     45024     45025     45026     45025     45027
     45026     45027     45028     45029     45028     45030     45029     45030
     45031     45032     45031     45033     45032     45033     45034     45035
     45034     45036     45035     45036     45037     45038     45037     45039
     45038     45039     45040     45041     45040     45042     45041     45042
     45043     45044     45043     45045     45044     45045     45046     45047
     45046     45048     45047     45048     45049     45050     45049     45051
     45050     45051     45052     45053     45052     45054     45053     45054
     45055     45056     45055     45057     45056     45057     45058     45059
     45058     45060     45059     45060     45061     45062     45061     45063
     45062     45063     45064     45065     45064     45066     45065     45066
     45067     45068     45067     45069     45068     45069     45070     45071
     45070     45072     45071     45072     45073     45074     45073     45075
     45074     45075     45076     45077     45076     45078     45077     45078
     45079     45080     45079     45081     45080     45081     45082     45083
     45082     45084     45083     45084     45085     45086     45085     45087
     45086     45087     45088     45089     45088     45090     45089     45090
     45091     45092     45091     45093     45092     45093     45094     45095
     45094     45096     45095     45096     45097     45098     45097     45099
     45098     45099     45100     45101     45100     45102     45101     45102
     45103     45104     45103     45105     45104     45105     45106     45107
     45106     45108     45107     45108     45109     45110     45109     45111
     45110     45111     45112     45113     45112     45114     45113     45114
     45115     45116     45115     45117     45116     45117     45118     45119
     45118     45120     45119     45120     45121     45122     45121     45123
     45122     45123     45124     45125     45124     45126     45125     45126
     45127     45128     45127     45129     45128     45129     45130     45131
     45130     45132     45131     45132     45133     45134     45133     45135
     45134     45135     45136     45137     45136     45138     45137     45138
     45139     45140     45139     45141     45140     45141     45142     45143
     45142     45144     45143     45144     45145     45146     45145     45147
     45146     45147     45148     45149     45148     45150     45149     45150
     45151     45152     45151     45153     45152     45153     45154     45155
     45154     45156     45155     45156     45157     45158     45157     45159
     45158     45159     45160     45161     45160     45162     45161     45162
     45163     45164     45163     45165     45164     45165     45166     45167
     45166     45168     45167     45168     45169     45170     45169     45171
     45170     45171     45172     45173     45172     45174     45173     45174
     45175     45176     45175     45177     45176     45177     45178     45179
     45178     45180     45179     45180     45181     45182     45181     45183
     45182     45183     45184     45185     45184     45186     45185     45186
     45187     45188     45187     45189     45188     45189     45190     45191
     45190     45192     45191     45192     45193     45194     45193     45195
     45194     45195     45196     45197     45196     45198     45197     45198
     45199     45200     45199     45201     45200     45201     45202     45203
     45202     45204     45203     45204     45205     45206     45205     45207
     45206     45207     45208     45209     45208     45210     45209     45210
     45211     45212     45211     45213     45212     45213     45214     45215
     45214     45216     45215     45216     45217     45218     45217     45219
     45218     45219     45220     45221     45220     45222     45221     45222
     45223     45224     45223     45225     45224     45225     45226     45227
     45226     45228     45227     45228     45229     45230     45229     45231
     45230     45231     45232     45233     45232     45234     45233     45234
     45235     45236     45235     45237     45236     45237     45238     45239
     45238     45240     45239     45240     45241     45242     45241     45243
     45242     45243     45244     45245     45244     45246     45245     45246
     45247     45248     45247     45249     45248     45249     45250     45251
     45250     45252     45251     45252     45253     45254     45253     45255
     45254     45255     45256     45257     45256     45258     45257     45258
     45259     45260     45259     45261     45260     45261     45262     45263
     45262     45264     45263     45264     45265     45266     45265     45267
     45266     45267     45268     45269     45268     45270     45269     45270
     45271     45272     45271     45273     45272     45273     45274     45275
     45274     45276     45275     45276     45277     45278     45277     45279
     45278     45279     45280     45281     45280     45282     45281     45282
     45283     45284     45283     45285     45284     45285     45286     45287
     45286     45288     45287     45288     45289     45290     45289     45291
     45290     45291     45292     45293     45292     45294     45293     45294
     45295     45296     45295     45297     45296     45297     45298     45299
     45298     45300     45299     45300     45301     45302     45301     45303
     45302     45303     45304     45305     45304     45306     45305     45306
     45307     45308     45307     45309     45308     45309     45310     45311
     45310     45312     45311     45312     45313     45314     45313     45315
     45314     45315     45316     45317     45316     45318     45317     45318
     45319     45320     45319     45321     45320     45321     45322     45323
     45322     45324     45323     45324     45325     45326     45325     45327
     45326     45327     45328     45329     45328     45330     45329     45330
     45331     45332     45331     45333     45332     45333     45334     45335
     45334     45336     45335     45336     45337     45338     45337     45339
     45338     45339     45340     45341     45340     45342     45341     45342
     45343     45344     45343     45345     45344     45345     45346     45347
     45346     45348     45347     45348     45349     45350     45349     45351
     45350     45351     45352     45353     45352     45354     45353     45354
     45355     45356     45355     45357     45356     45357     45358     45359
     45358     45360     45359     45360     45361     45362     45361     45363
     45362     45363     45364     45365     45364     45366     45365     45366
     45367     45368     45367     45369     45368     45369     45370     45371
     45370     45372     45371     45372     45373     45374     45373     45375
     45374     45375     45376     45377     45376     45378     45377     45378
     45379     45380     45379     45381     45380     45381     45382     45383
     45382     45384     45383     45384     45385     45386     45385     45387
     45386     45387     45388     45389     45388     45390     45389     45390
     45391     45392     45391     45393     45392     45393     45394     45395
     45394     45396     45395     45396     45397     45398     45397     45399
     45398     45399     45400     45401     45400     45402     45401     45402
     45403     45404     45403     45405     45404     45405     45406     45407
     45406     45408     45407     45408     45409     45410     45409     45411
     45410     45411     45412     45413     45412     45414     45413     45414
     45415     45416     45415     45417     45416     45417     45418     45419
     45418     45420     45419     45420     45421     45422     45421     45423
     45422     45423     45424     45425     45424     45426     45425     45426
     45427     45428     45427     45429     45428     45429     45430     45431
     45430     45432     45431     45432     45433     45434     45433     45435
     45434     45435     45436     45437     45436     45438     45437     45438
     45439     45440     45439     45441     45440     45441     45442     45443
     45442     45444     45443     45444     45445     45446     45445     45447
     45446     45447     45448     45449     45448     45450     45449     45450
     45451     45452     45451     45453     45452     45453     45454     45455
     45454     45456     45455     45456     45457     45458     45457     45459
     45458     45459     45460     45461     45460     45462     45461     45462
     45463     45464     45463     45465     45464     45465     45466     45467
     45466     45468     45467     45468     45469     45470     45469     45471
     45470     45471     45472     45473     45472     45474     45473     45474
     45475     45476     45475     45477     45476     45477     45478     45479
     45478     45480     45479     45480     45481     45482     45481     45483
     45482     45483     45484     45485     45484     45486     45485     45486
     45487     45488     45487     45489     45488     45489     45490     45491
     45490     45492     45491     45492     45493     45494     45493     45495
     45494     45495     45496     45497     45496     45498     45497     45498
     45499     45500     45499     45501     45500     45501     45502     45503
     45502     45504     45503     45504     45505     45506     45505     45507
     45506     45507     45508     45509     45508     45510     45509     45510
     45511     45512     45511     45513     45512     45513     45514     45515
     45514     45516     45515     45516     45517     45518     45517     45519
     45518     45519     45520     45521     45520     45522     45521     45522
     45523     45524     45523     45525     45524     45525     45526     45527
     45526     45528     45527     45528     45529     45530     45529     45531
     45530     45531     45532     45533     45532     45534     45533     45534
     45535     45536     45535     45537     45536     45537     45538     45539
     45538     45540     45539     45540     45541     45542     45541     45543
     45542     45543     45544     45545     45544     45546     45545     45546
     45547     45548     45547     45549     45548     45549     45550     45551
     45550     45552     45551     45552     45553     45554     45553     45555
     45554     45555     45556     45557     45556     45558     45557     45558
     45559     45560     45559     45561     45560     45561     45562     45563
     45562     45564     45563     45564     45565     45566     45565     45567
     45566     45567     45568     45569     45568     45570     45569     45570
     45571     45572     45571     45573     45572     45573     45574     45575
     45574     45576     45575     45576     45577     45578     45577     45579
     45578     45579     45580     45581     45580     45582     45581     45582
     45583     45584     45583     45585     45584     45585     45586     45587
     45586     45588     45587     45588     45589     45590     45589     45591
     45590     45591     45592     45593     45592     45594     45593     45594
     45595     45596     45595     45597     45596     45597     45598     45599
     45598     45600     45599     45600     45601     45602     45601     45603
     45602     45603     45604     45605     45604     45606     45605     45606
     45607     45608     45607     45609     45608     45609     45610     45611
     45610     45612     45611     45612     45613     45614     45613     45615
     45614     45615     45616     45617     45616     45618     45617     45618
     45619     45620     45619     45621     45620     45621     45622     45623
     45622     45624     45623     45624     45625     45626     45625     45627
     45626     45627     45628     45629     45628     45630     45629     45630
     45631     45632     45631     45633     45632     45633     45634     45635
     45634     45636     45635     45636     45637     45638     45637     45639
     45638     45639     45640     45641     45640     45642     45641     45642
     45643     45644     45643     45645     45644     45645     45646     45647
     45646     45648     45647     45648     45649     45650     45649     45651
     45650     45651     45652     45653     45652     45654     45653     45654
     45655     45656     45655     45657     45656     45657     45658     45659
     45658     45660     45659     45660     45661     45662     45661     45663
     45662     45663     45664     45665     45664     45666     45665     45666
     45667     45668     45667     45669     45668     45669     45670     45671
     45670     45672     45671     45672     45673     45674     45673     45675
     45674     45675     45676     45677     45676     45678     45677     45678
     45679     45680     45679     45681     45680     45681     45682     45683
     45682     45684     45683     45684     45685     45686     45685     45687
     45686     45687     45688     45689     45688     45690     45689     45690
     45691     45692     45691     45693     45692     45693     45694     45695
     45694     45696     45695     45696     45697     45698     45697     45699
     45698     45699     45700     45701     45700     45702     45701     45702
     45703     45704     45703     45705     45704     45705     45706     45707
     45706     45708     45707     45708     45709     45710     45709     45711
     45710     45711     45712     45713     45712     45714     45713     45714
     45715     45716     45715     45717     45716     45717     45718     45719
     45718     45720     45719     45720     45721     45722     45721     45723
     45722     45723     45724     45725     45724     45726     45725     45726
     45727     45728     45727     45729     45728     45729     45730     45731
     45730     45732     45731     45732     45733     45734     45733     45735
     45734     45735     45736     45737     45736     45738     45737     45738
     45739     45740     45739     45741     45740     45741     45742     45743
     45742     45744     45743     45744     45745     45746     45745     45747
     45746     45747     45748     45749     45748     45750     45749     45750
     45751     45752     45751     45753     45752     45753     45754     45755
     45754     45756     45755     45756     45757     45758     45757     45759
     45758     45759     45760     45761     45760     45762     45761     45762
     45763     45764     45763     45765     45764     45765     45766     45767
     45766     45768     45767     45768     45769     45770     45769     45771
     45770     45771     45772     45773     45772     45774     45773     45774
     45775     45776     45775     45777     45776     45777     45778     45779
     45778     45780     45779     45780     45781     45782     45781     45783
     45782     45783     45784     45785     45784     45786     45785     45786
     45787     45788     45787     45789     45788     45789     45790     45791
     45790     45792     45791     45792     45793     45794     45793     45795
     45794     45795     45796     45797     45796     45798     45797     45798
     45799     45800     45799     45801     45800     45801     45802     45803
     45802     45804     45803     45804     45805     45806     45805     45807
     45806     45807     45808     45809     45808     45810     45809     45810
     45811     45812     45811     45813     45812     45813     45814     45815
     45814     45816     45815     45816     45817     45818     45817     45819
     45818     45819     45820     45821     45820     45822     45821     45822
     45823     45824     45823     45825     45824     45825     45826     45827
     45826     45828     45827     45828     45829     45830     45829     45831
     45830     45831     45832     45833     45832     45834     45833     45834
     45835     45836     45835     45837     45836     45837     45838     45839
     45838     45840     45839     45840     45841     45842     45841     45843
     45842     45843     45844     45845     45844     45846     45845     45846
     45847     45848     45847     45849     45848     45849     45850     45851
     45850     45852     45851     45852     45853     45854     45853     45855
     45854     45855     45856     45857     45856     45858     45857     45858
     45859     45860     45859     45861     45860     45861     45862     45863
     45862     45864     45863     45864     45865     45866     45865     45867
     45866     45867     45868     45869     45868     45870     45869     45870
     45871     45872     45871     45873     45872     45873     45874     45875
     45874     45876     45875     45876     45877     45878     45877     45879
     45878     45879     45880     45881     45880     45882     45881     45882
     45883     45884     45883     45885     45884     45885     45886     45887
     45886     45888     45887     45888     45889     45890     45889     45891
     45890     45891     45892     45893     45892     45894     45893     45894
     45895     45896     45895     45897     45896     45897     45898     45899
     45898     45900     45899     45900     45901     45902     45901     45903
     45902     45903     45904     45905     45904     45906     45905     45906
     45907     45908     45907     45909     45908     45909     45910     45911
     45910     45912     45911     45912     45913     45914     45913     45915
     45914     45915     45916     45917     45916     45918     45917     45918
     45919     45920     45919     45921     45920     45921     45922     45923
     45922     45924     45923     45924     45925     45926     45925     45927
     45926     45927     45928     45929     45928     45930     45929     45930
     45931     45932     45931     45933     45932     45933     45934     45935
     45934     45936     45935     45936     45937     45938     45937     45939
     45938     45939     45940     45941     45940     45942     45941     45942
     45943     45944     45943     45945     45944     45945     45946     45947
     45946     45948     45947     45948     45949     45950     45949     45951
     45950     45951     45952     45953     45952     45954     45953     45954
     45955     45956     45955     45957     45956     45957     45958     45959
     45958     45960     45959     45960     45961     45962     45961     45963
     45962     45963     45964     45965     45964     45966     45965     45966
     45967     45968     45967     45969     45968     45969     45970     45971
     45970     45972     45971     45972     45973     45974     45973     45975
     45974     45975     45976     45977     45976     45978     45977     45978
     45979     45980     45979     45981     45980     45981     45982     45983
     45982     45984     45983     45984     45985     45986     45985     45987
     45986     45987     45988     45989     45988     45990     45989     45990
     45991     45992     45991     45993     45992     45993     45994     45995
     45994     45996     45995     45996     45997     45998     45997     45999
     45998     45999     46000     46001     46000     46002     46001     46002
     46003     46004     46003     46005     46004     46005     46006     46007
     46006     46008     46007     46008     46009     46010     46009     46011
     46010     46011     46012     46013     46012     46014     46013     46014
     46015     46016     46015     46017     46016     46017     46018     46019
     46018     46020     46019     46020     46021     46022     46021     46023
     46022     46023     46024     46025     46024     46026     46025     46026
     46027     46028     46027     46029     46028     46029     46030     46031
     46030     46032     46031     46032     46033     46034     46033     46035
     46034     46035     46036     46037     46036     46038     46037     46038
     46039     46040     46039     46041     46040     46041     46042     46043
     46042     46044     46043     46044     46045     46046     46045     46047
     46046     46047     46048     46049     46048     46050     46049     46050
     46051     46052     46051     46053     46052     46053     46054     46055
     46054     46056     46055     46056     46057     46058     46057     46059
     46058     46059     46060     46061     46060     46062     46061     46062
     46063     46064     46063     46065     46064     46065     46066     46067
     46066     46068     46067     46068     46069     46070     46069     46071
     46070     46071     46072     46073     46072     46074     46073     46074
     46075     46076     46075     46077     46076     46077     46078     46079
     46078     46080     46079     46080     46081     46082     46081     46083
     46082     46083     46084     46085     46084     46086     46085     46086
     46087     46088     46087     46089     46088     46089     46090     46091
     46090     46092     46091     46092     46093     46094     46093     46095
     46094     46095     46096     46097     46096     46098     46097     46098
     46099     46100     46099     46101     46100     46101     46102     46103
     46102     46104     46103     46104     46105     46106     46105     46107
     46106     46107     46108     46109     46108     46110     46109     46110
     46111     46112     46111     46113     46112     46113     46114     46115
     46114     46116     46115     46116     46117     46118     46117     46119
     46118     46119     46120     46121     46120     46122     46121     46122
     46123     46124     46123     46125     46124     46125     46126     46127
     46126     46128     46127     46128     46129     46130     46129     46131
     46130     46131     46132     46133     46132     46134     46133     46134
     46135     46136     46135     46137     46136     46137     46138     46139
     46138     46140     46139     46140     46141     46142     46141     46143
     46142     46143     46144     46145     46144     46146     46145     46146
     46147     46148     46147     46149     46148     46149     46150     46151
     46150     46152     46151     46152     46153     46154     46153     46155
     46154     46155     46156     46157     46156     46158     46157     46158
     46159     46160     46159     46161     46160     46161     46162     46163
     46162     46164     46163     46164     46165     46166     46165     46167
     46166     46167     46168     46169     46168     46170     46169     46170
     46171     46172     46171     46173     46172     46173     46174     46175
     46174     46176     46175     46176     46177     46178     46177     46179
     46178     46179     46180     46181     46180     46182     46181     46182
     46183     46184     46183     46185     46184     46185     46186     46187
     46186     46188     46187     46188     46189     46190     46189     46191
     46190     46191     46192     46193     46192     46194     46193     46194
     46195     46196     46195     46197     46196     46197     46198     46199
     46198     46200     46199     46200     46201     46202     46201     46203
     46202     46203     46204     46205     46204     46206     46205     46206
     46207     46208     46207     46209     46208     46209     46210     46211
     46210     46212     46211     46212     46213     46214     46213     46215
     46214     46215     46216     46217     46216     46218     46217     46218
     46219     46220     46219     46221     46220     46221     46222     46223
     46222     46224     46223     46224     46225     46226     46225     46227
     46226     46227     46228     46229     46228     46230     46229     46230
     46231     46232     46231     46233     46232     46233     46234     46235
     46234     46236     46235     46236     46237     46238     46237     46239
     46238     46239     46240     46241     46240     46242     46241     46242
     46243     46244     46243     46245     46244     46245     46246     46247
     46246     46248     46247     46248     46249     46250     46249     46251
     46250     46251     46252     46253     46252     46254     46253     46254
     46255     46256     46255     46257     46256     46257     46258     46259
     46258     46260     46259     46260     46261     46262     46261     46263
     46262     46263     46264     46265     46264     46266     46265     46266
     46267     46268     46267     46269     46268     46269     46270     46271
     46270     46272     46271     46272     46273     46274     46273     46275
     46274     46275     46276     46277     46276     46278     46277     46278
     46279     46280     46279     46281     46280     46281     46282     46283
     46282     46284     46283     46284     46285     46286     46285     46287
     46286     46287     46288     46289     46288     46290     46289     46290
     46291     46292     46291     46293     46292     46293     46294     46295
     46294     46296     46295     46296     46297     46298     46297     46299
     46298     46299     46300     46301     46300     46302     46301     46302
     46303     46304     46303     46305     46304     46305     46306     46307
     46306     46308     46307     46308     46309     46310     46309     46311
     46310     46311     46312     46313     46312     46314     46313     46314
     46315     46316     46315     46317     46316     46317     46318     46319
     46318     46320     46319     46320     46321     46322     46321     46323
     46322     46323     46324     46325     46324     46326     46325     46326
     46327     46328     46327     46329     46328     46329     46330     46331
     46330     46332     46331     46332     46333     46334     46333     46335
     46334     46335     46336     46337     46336     46338     46337     46338
     46339     46340     46339     46341     46340     46341     46342     46343
     46342     46344     46343     46344     46345     46346     46345     46347
     46346     46347     46348     46349     46348     46350     46349     46350
     46351     46352     46351     46353     46352     46353     46354     46355
     46354     46356     46355     46356     46357     46358     46357     46359
     46358     46359     46360     46361     46360     46362     46361     46362
     46363     46364     46363     46365     46364     46365     46366     46367
     46366     46368     46367     46368     46369     46370     46369     46371
     46370     46371     46372     46373     46372     46374     46373     46374
     46375     46376     46375     46377     46376     46377     46378     46379
     46378     46380     46379     46380     46381     46382     46381     46383
     46382     46383     46384     46385     46384     46386     46385     46386
     46387     46388     46387     46389     46388     46389     46390     46391
     46390     46392     46391     46392     46393     46394     46393     46395
     46394     46395     46396     46397     46396     46398     46397     46398
     46399     46400     46399     46401     46400     46401     46402     46403
     46402     46404     46403     46404     46405     46406     46405     46407
     46406     46407     46408     46409     46408     46410     46409     46410
     46411     46412     46411     46413     46412     46413     46414     46415
     46414     46416     46415     46416     46417     46418     46417     46419
     46418     46419     46420     46421     46420     46422     46421     46422
     46423     46424     46423     46425     46424     46425     46426     46427
     46426     46428     46427     46428     46429     46430     46429     46431
     46430     46431     46432     46433     46432     46434     46433     46434
     46435     46436     46435     46437     46436     46437     46438     46439
     46438     46440     46439     46440     46441     46442     46441     46443
     46442     46443     46444     46445     46444     46446     46445     46446
     46447     46448     46447     46449     46448     46449     46450     46451
     46450     46452     46451     46452     46453     46454     46453     46455
     46454     46455     46456     46457     46456     46458     46457     46458
     46459     46460     46459     46461     46460     46461     46462     46463
     46462     46464     46463     46464     46465     46466     46465     46467
     46466     46467     46468     46469     46468     46470     46469     46470
     46471     46472     46471     46473     46472     46473     46474     46475
     46474     46476     46475     46476     46477     46478     46477     46479
     46478     46479     46480     46481     46480     46482     46481     46482
     46483     46484     46483     46485     46484     46485     46486     46487
     46486     46488     46487     46488     46489     46490     46489     46491
     46490     46491     46492     46493     46492     46494     46493     46494
     46495     46496     46495     46497     46496     46497     46498     46499
     46498     46500     46499     46500     46501     46502     46501     46503
     46502     46503     46504     46505     46504     46506     46505     46506
     46507     46508     46507     46509     46508     46509     46510     46511
     46510     46512     46511     46512     46513     46514     46513     46515
     46514     46515     46516     46517     46516     46518     46517     46518
     46519     46520     46519     46521     46520     46521     46522     46523
     46522     46524     46523     46524     46525     46526     46525     46527
     46526     46527     46528     46529     46528     46530     46529     46530
     46531     46532     46531     46533     46532     46533     46534     46535
     46534     46536     46535     46536     46537     46538     46537     46539
     46538     46539     46540     46541     46540     46542     46541     46542
     46543     46544     46543     46545     46544     46545     46546     46547
     46546     46548     46547     46548     46549     46550     46549     46551
     46550     46551     46552     46553     46552     46554     46553     46554
     46555     46556     46555     46557     46556     46557     46558     46559
     46558     46560     46559     46560     46561     46562     46561     46563
     46562     46563     46564     46565     46564     46566     46565     46566
     46567     46568     46567     46569     46568     46569     46570     46571
     46570     46572     46571     46572     46573     46574     46573     46575
     46574     46575     46576     46577     46576     46578     46577     46578
     46579     46580     46579     46581     46580     46581     46582     46583
     46582     46584     46583     46584     46585     46586     46585     46587
     46586     46587     46588     46589     46588     46590     46589     46590
     46591     46592     46591     46593     46592     46593     46594     46595
     46594     46596     46595     46596     46597     46598     46597     46599
     46598     46599     46600     46601     46600     46602     46601     46602
     46603     46604     46603     46605     46604     46605     46606     46607
     46606     46608     46607     46608     46609     46610     46609     46611
     46610     46611     46612     46613     46612     46614     46613     46614
     46615     46616     46615     46617     46616     46617     46618     46619
     46618     46620     46619     46620     46621     46622     46621     46623
     46622     46623     46624     46625     46624     46626     46625     46626
     46627     46628     46627     46629     46628     46629     46630     46631
     46630     46632     46631     46632     46633     46634     46633     46635
     46634     46635     46636     46637     46636     46638     46637     46638
     46639     46640     46639     46641     46640     46641     46642     46643
     46642     46644     46643     46644     46645     46646     46645     46647
     46646     46647     46648     46649     46648     46650     46649     46650
     46651     46652     46651     46653     46652     46653     46654     46655
     46654     46656     46655     46656     46657     46658     46657     46659
     46658     46659     46660     46661     46660     46662     46661     46662
     46663     46664     46663     46665     46664     46665     46666     46667
     46666     46668     46667     46668     46669     46670     46669     46671
     46670     46671     46672     46673     46672     46674     46673     46674
     46675     46676     46675     46677     46676     46677     46678     46679
     46678     46680     46679     46680     46681     46682     46681     46683
     46682     46683     46684     46685     46684     46686     46685     46686
     46687     46688     46687     46689     46688     46689     46690     46691
     46690     46692     46691     46692     46693     46694     46693     46695
     46694     46695     46696     46697     46696     46698     46697     46698
     46699     46700     46699     46701     46700     46701     46702     46703
     46702     46704     46703     46704     46705     46706     46705     46707
     46706     46707     46708     46709     46708     46710     46709     46710
     46711     46712     46711     46713     46712     46713     46714     46715
     46714     46716     46715     46716     46717     46718     46717     46719
     46718     46719     46720     46721     46720     46722     46721     46722
     46723     46724     46723     46725     46724     46725     46726     46727
     46726     46728     46727     46728     46729     46730     46729     46731
     46730     46731     46732     46733     46732     46734     46733     46734
     46735     46736     46735     46737     46736     46737     46738     46739
     46738     46740     46739     46740     46741     46742     46741     46743
     46742     46743     46744     46745     46744     46746     46745     46746
     46747     46748     46747     46749     46748     46749     46750     46751
     46750     46752     46751     46752     46753     46754     46753     46755
     46754     46755     46756     46757     46756     46758     46757     46758
     46759     46760     46759     46761     46760     46761     46762     46763
     46762     46764     46763     46764     46765     46766     46765     46767
     46766     46767     46768     46769     46768     46770     46769     46770
     46771     46772     46771     46773     46772     46773     46774     46775
     46774     46776     46775     46776     46777     46778     46777     46779
     46778     46779     46780     46781     46780     46782     46781     46782
     46783     46784     46783     46785     46784     46785     46786     46787
     46786     46788     46787     46788     46789     46790     46789     46791
     46790     46791     46792     46793     46792     46794     46793     46794
     46795     46796     46795     46797     46796     46797     46798     46799
     46798     46800     46799     46800     46801     46802     46801     46803
     46802     46803     46804     46805     46804     46806     46805     46806
     46807     46808     46807     46809     46808     46809     46810     46811
     46810     46812     46811     46812     46813     46814     46813     46815
     46814     46815     46816     46817     46816     46818     46817     46818
     46819     46820     46819     46821     46820     46821     46822     46823
     46822     46824     46823     46824     46825     46826     46825     46827
     46826     46827     46828     46829     46828     46830     46829     46830
     46831     46832     46831     46833     46832     46833     46834     46835
     46834     46836     46835     46836     46837     46838     46837     46839
     46838     46839     46840     46841     46840     46842     46841     46842
     46843     46844     46843     46845     46844     46845     46846     46847
     46846     46848     46847     46848     46849     46850     46849     46851
     46850     46851     46852     46853     46852     46854     46853     46854
     46855     46856     46855     46857     46856     46857     46858     46859
     46858     46860     46859     46860     46861     46862     46861     46863
     46862     46863     46864     46865     46864     46866     46865     46866
     46867     46868     46867     46869     46868     46869     46870     46871
     46870     46872     46871     46872     46873     46874     46873     46875
     46874     46875     46876     46877     46876     46878     46877     46878
     46879     46880     46879     46881     46880     46881     46882     46883
     46882     46884     46883     46884     46885     46886     46885     46887
     46886     46887     46888     46889     46888     46890     46889     46890
     46891     46892     46891     46893     46892     46893     46894     46895
     46894     46896     46895     46896     46897     46898     46897     46899
     46898     46899     46900     46901     46900     46902     46901     46902
     46903     46904     46903     46905     46904     46905     46906     46907
     46906     46908     46907     46908     46909     46910     46909     46911
     46910     46911     46912     46913     46912     46914     46913     46914
     46915     46916     46915     46917     46916     46917     46918     46919
     46918     46920     46919     46920     46921     46922     46921     46923
     46922     46923     46924     46925     46924     46926     46925     46926
     46927     46928     46927     46929     46928     46929     46930     46931
     46930     46932     46931     46932     46933     46934     46933     46935
     46934     46935     46936     46937     46936     46938     46937     46938
     46939     46940     46939     46941     46940     46941     46942     46943
     46942     46944     46943     46944     46945     46946     46945     46947
     46946     46947     46948     46949     46948     46950     46949     46950
     46951     46952     46951     46953     46952     46953     46954     46955
     46954     46956     46955     46956     46957     46958     46957     46959
     46958     46959     46960     46961     46960     46962     46961     46962
     46963     46964     46963     46965     46964     46965     46966     46967
     46966     46968     46967     46968     46969     46970     46969     46971
     46970     46971     46972     46973     46972     46974     46973     46974
     46975     46976     46975     46977     46976     46977     46978     46979
     46978     46980     46979     46980     46981     46982     46981     46983
     46982     46983     46984     46985     46984     46986     46985     46986
     46987     46988     46987     46989     46988     46989     46990     46991
     46990     46992     46991     46992     46993     46994     46993     46995
     46994     46995     46996     46997     46996     46998     46997     46998
     46999     47000     46999     47001     47000     47001     47002     47003
     47002     47004     47003     47004     47005     47006     47005     47007
     47006     47007     47008     47009     47008     47010     47009     47010
     47011     47012     47011     47013     47012     47013     47014     47015
     47014     47016     47015     47016     47017     47018     47017     47019
     47018     47019     47020     47021     47020     47022     47021     47022
     47023     47024     47023     47025     47024     47025     47026     47027
     47026     47028     47027     47028     47029     47030     47029     47031
     47030     47031     47032     47033     47032     47034     47033     47034
     47035     47036     47035     47037     47036     47037     47038     47039
     47038     47040     47039     47040     47041     47042     47041     47043
     47042     47043     47044     47045     47044     47046     47045     47046
     47047     47048     47047     47049     47048     47049     47050     47051
     47050     47052     47051     47052     47053     47054     47053     47055
     47054     47055     47056     47057     47056     47058     47057     47058
     47059     47060     47059     47061     47060     47061     47062     47063
     47062     47064     47063     47064     47065     47066     47065     47067
     47066     47067     47068     47069     47068     47070     47069     47070
     47071     47072     47071     47073     47072     47073     47074     47075
     47074     47076     47075     47076     47077     47078     47077     47079
     47078     47079     47080     47081     47080     47082     47081     47082
     47083     47084     47083     47085     47084     47085     47086     47087
     47086     47088     47087     47088     47089     47090     47089     47091
     47090     47091     47092     47093     47092     47094     47093     47094
     47095     47096     47095     47097     47096     47097     47098     47099
     47098     47100     47099     47100     47101     47102     47101     47103
     47102     47103     47104     47105     47104     47106     47105     47106
     47107     47108     47107     47109     47108     47109     47110     47111
     47110     47112     47111     47112     47113     47114     47113     47115
     47114     47115     47116     47117     47116     47118     47117     47118
     47119     47120     47119     47121     47120     47121     47122     47123
     47122     47124     47123     47124     47125     47126     47125     47127
     47126     47127     47128     47129     47128     47130     47129     47130
     47131     47132     47131     47133     47132     47133     47134     47135
     47134     47136     47135     47136     47137     47138     47137     47139
     47138     47139     47140     47141     47140     47142     47141     47142
     47143     47144     47143     47145     47144     47145     47146     47147
     47146     47148     47147     47148     47149     47150     47149     47151
     47150     47151     47152     47153     47152     47154     47153     47154
     47155     47156     47155     47157     47156     47157     47158     47159
     47158     47160     47159     47160     47161     47162     47161     47163
     47162     47163     47164     47165     47164     47166     47165     47166
     47167     47168     47167     47169     47168     47169     47170     47171
     47170     47172     47171     47172     47173     47174     47173     47175
     47174     47175     47176     47177     47176     47178     47177     47178
     47179     47180     47179     47181     47180     47181     47182     47183
     47182     47184     47183     47184     47185     47186     47185     47187
     47186     47187     47188     47189     47188     47190     47189     47190
     47191     47192     47191     47193     47192     47193     47194     47195
     47194     47196     47195     47196     47197     47198     47197     47199
     47198     47199     47200     47201     47200     47202     47201     47202
     47203     47204     47203     47205     47204     47205     47206     47207
     47206     47208     47207     47208     47209     47210     47209     47211
     47210     47211     47212     47213     47212     47214     47213     47214
     47215     47216     47215     47217     47216     47217     47218     47219
     47218     47220     47219     47220     47221     47222     47221     47223
     47222     47223     47224     47225     47224     47226     47225     47226
     47227     47228     47227     47229     47228     47229     47230     47231
     47230     47232     47231     47232     47233     47234     47233     47235
     47234     47235     47236     47237     47236     47238     47237     47238
     47239     47240     47239     47241     47240     47241     47242     47243
     47242     47244     47243     47244     47245     47246     47245     47247
     47246     47247     47248     47249     47248     47250     47249     47250
     47251     47252     47251     47253     47252     47253     47254     47255
     47254     47256     47255     47256     47257     47258     47257     47259
     47258     47259     47260     47261     47260     47262     47261     47262
     47263     47264     47263     47265     47264     47265     47266     47267
     47266     47268     47267     47268     47269     47270     47269     47271
     47270     47271     47272     47273     47272     47274     47273     47274
     47275     47276     47275     47277     47276     47277     47278     47279
     47278     47280     47279     47280     47281     47282     47281     47283
     47282     47283     47284     47285     47284     47286     47285     47286
     47287     47288     47287     47289     47288     47289     47290     47291
     47290     47292     47291     47292     47293     47294     47293     47295
     47294     47295     47296     47297     47296     47298     47297     47298
     47299     47300     47299     47301     47300     47301     47302     47303
     47302     47304     47303     47304     47305     47306     47305     47307
     47306     47307     47308     47309     47308     47310     47309     47310
     47311     47312     47311     47313     47312     47313     47314     47315
     47314     47316     47315     47316     47317     47318     47317     47319
     47318     47319     47320     47321     47320     47322     47321     47322
     47323     47324     47323     47325     47324     47325     47326     47327
     47326     47328     47327     47328     47329     47330     47329     47331
     47330     47331     47332     47333     47332     47334     47333     47334
     47335     47336     47335     47337     47336     47337     47338     47339
     47338     47340     47339     47340     47341     47342     47341     47343
     47342     47343     47344     47345     47344     47346     47345     47346
     47347     47348     47347     47349     47348     47349     47350     47351
     47350     47352     47351     47352     47353     47354     47353     47355
     47354     47355     47356     47357     47356     47358     47357     47358
     47359     47360     47359     47361     47360     47361     47362     47363
     47362     47364     47363     47364     47365     47366     47365     47367
     47366     47367     47368     47369     47368     47370     47369     47370
     47371     47372     47371     47373     47372     47373     47374     47375
     47374     47376     47375     47376     47377     47378     47377     47379
     47378     47379     47380     47381     47380     47382     47381     47382
     47383     47384     47383     47385     47384     47385     47386     47387
     47386     47388     47387     47388     47389     47390     47389     47391
     47390     47391     47392     47393     47392     47394     47393     47394
     47395     47396     47395     47397     47396     47397     47398     47399
     47398     47400     47399     47400     47401     47402     47401     47403
     47402     47403     47404     47405     47404     47406     47405     47406
     47407     47408     47407     47409     47408     47409     47410     47411
     47410     47412     47411     47412     47413     47414     47413     47415
     47414     47415     47416     47417     47416     47418     47417     47418
     47419     47420     47419     47421     47420     47421     47422     47423
     47422     47424     47423     47424     47425     47426     47425     47427
     47426     47427     47428     47429     47428     47430     47429     47430
     47431     47432     47431     47433     47432     47433     47434     47435
     47434     47436     47435     47436     47437     47438     47437     47439
     47438     47439     47440     47441     47440     47442     47441     47442
     47443     47444     47443     47445     47444     47445     47446     47447
     47446     47448     47447     47448     47449     47450     47449     47451
     47450     47451     47452     47453     47452     47454     47453     47454
     47455     47456     47455     47457     47456     47457     47458     47459
     47458     47460     47459     47460     47461     47462     47461     47463
     47462     47463     47464     47465     47464     47466     47465     47466
     47467     47468     47467     47469     47468     47469     47470     47471
     47470     47472     47471     47472     47473     47474     47473     47475
     47474     47475     47476     47477     47476     47478     47477     47478
     47479     47480     47479     47481     47480     47481     47482     47483
     47482     47484     47483     47484     47485     47486     47485     47487
     47486     47487     47488     47489     47488     47490     47489     47490
     47491     47492     47491     47493     47492     47493     47494     47495
     47494     47496     47495     47496     47497     47498     47497     47499
     47498     47499     47500     47501     47500     47502     47501     47502
     47503     47504     47503     47505     47504     47505     47506     47507
     47506     47508     47507     47508     47509     47510     47509     47511
     47510     47511     47512     47513     47512     47514     47513     47514
     47515     47516     47515     47517     47516     47517     47518     47519
     47518     47520     47519     47520     47521     47522     47521     47523
     47522     47523     47524     47525     47524     47526     47525     47526
     47527     47528     47527     47529     47528     47529     47530     47531
     47530     47532     47531     47532     47533     47534     47533     47535
     47534     47535     47536     47537     47536     47538     47537     47538
     47539     47540     47539     47541     47540     47541     47542     47543
     47542     47544     47543     47544     47545     47546     47545     47547
     47546     47547     47548     47549     47548     47550     47549     47550
     47551     47552     47551     47553     47552     47553     47554     47555
     47554     47556     47555     47556     47557     47558     47557     47559
     47558     47559     47560     47561     47560     47562     47561     47562
     47563     47564     47563     47565     47564     47565     47566     47567
     47566     47568     47567     47568     47569     47570     47569     47571
     47570     47571     47572     47573     47572     47574     47573     47574
     47575     47576     47575     47577     47576     47577     47578     47579
     47578     47580     47579     47580     47581     47582     47581     47583
     47582     47583     47584     47585     47584     47586     47585     47586
     47587     47588     47587     47589     47588     47589     47590     47591
     47590     47592     47591     47592     47593     47594     47593     47595
     47594     47595     47596     47597     47596     47598     47597     47598
     47599     47600     47599     47601     47600     47601     47602     47603
     47602     47604     47603     47604     47605     47606     47605     47607
     47606     47607     47608     47609     47608     47610     47609     47610
     47611     47612     47611     47613     47612     47613     47614     47615
     47614     47616     47615     47616     47617     47618     47617     47619
     47618     47619     47620     47621     47620     47622     47621     47622
     47623     47624     47623     47625     47624     47625     47626     47627
     47626     47628     47627     47628     47629     47630     47629     47631
     47630     47631     47632     47633     47632     47634     47633     47634
     47635     47636     47635     47637     47636     47637     47638     47639
     47638     47640     47639     47640     47641     47642     47641     47643
     47642     47643     47644     47645     47644     47646     47645     47646
     47647     47648     47647     47649     47648     47649     47650     47651
     47650     47652     47651     47652     47653     47654     47653     47655
     47654     47655     47656     47657     47656     47658     47657     47658
     47659     47660     47659     47661     47660     47661     47662     47663
     47662     47664     47663     47664     47665     47666     47665     47667
     47666     47667     47668     47669     47668     47670     47669     47670
     47671     47672     47671     47673     47672     47673     47674     47675
     47674     47676     47675     47676     47677     47678     47677     47679
     47678     47679     47680     47681     47680     47682     47681     47682
     47683     47684     47683     47685     47684     47685     47686     47687
     47686     47688     47687     47688     47689     47690     47689     47691
     47690     47691     47692     47693     47692     47694     47693     47694
     47695     47696     47695     47697     47696     47697     47698     47699
     47698     47700     47699     47700     47701     47702     47701     47703
     47702     47703     47704     47705     47704     47706     47705     47706
     47707     47708     47707     47709     47708     47709     47710     47711
     47710     47712     47711     47712     47713     47714     47713     47715
     47714     47715     47716     47717     47716     47718     47717     47718
     47719     47720     47719     47721     47720     47721     47722     47723
     47722     47724     47723     47724     47725     47726     47725     47727
     47726     47727     47728     47729     47728     47730     47729     47730
     47731     47732     47731     47733     47732     47733     47734     47735
     47734     47736     47735     47736     47737     47738     47737     47739
     47738     47739     47740     47741     47740     47742     47741     47742
     47743     47744     47743     47745     47744     47745     47746     47747
     47746     47748     47747     47748     47749     47750     47749     47751
     47750     47751     47752     47753     47752     47754     47753     47754
     47755     47756     47755     47757     47756     47757     47758     47759
     47758     47760     47759     47760     47761     47762     47761     47763
     47762     47763     47764     47765     47764     47766     47765     47766
     47767     47768     47767     47769     47768     47769     47770     47771
     47770     47772     47771     47772     47773     47774     47773     47775
     47774     47775     47776     47777     47776     47778     47777     47778
     47779     47780     47779     47781     47780     47781     47782     47783
     47782     47784     47783     47784     47785     47786     47785     47787
     47786     47787     47788     47789     47788     47790     47789     47790
     47791     47792     47791     47793     47792     47793     47794     47795
     47794     47796     47795     47796     47797     47798     47797     47799
     47798     47799     47800     47801     47800     47802     47801     47802
     47803     47804     47803     47805     47804     47805     47806     47807
     47806     47808     47807     47808     47809     47810     47809     47811
     47810     47811     47812     47813     47812     47814     47813     47814
     47815     47816     47815     47817     47816     47817     47818     47819
     47818     47820     47819     47820     47821     47822     47821     47823
     47822     47823     47824     47825     47824     47826     47825     47826
     47827     47828     47827     47829     47828     47829     47830     47831
     47830     47832     47831     47832     47833     47834     47833     47835
     47834     47835     47836     47837     47836     47838     47837     47838
     47839     47840     47839     47841     47840     47841     47842     47843
     47842     47844     47843     47844     47845     47846     47845     47847
     47846     47847     47848     47849     47848     47850     47849     47850
     47851     47852     47851     47853     47852     47853     47854     47855
     47854     47856     47855     47856     47857     47858     47857     47859
     47858     47859     47860     47861     47860     47862     47861     47862
     47863     47864     47863     47865     47864     47865     47866     47867
     47866     47868     47867     47868     47869     47870     47869     47871
     47870     47871     47872     47873     47872     47874     47873     47874
     47875     47876     47875     47877     47876     47877     47878     47879
     47878     47880     47879     47880     47881     47882     47881     47883
     47882     47883     47884     47885     47884     47886     47885     47886
     47887     47888     47887     47889     47888     47889     47890     47891
     47890     47892     47891     47892     47893     47894     47893     47895
     47894     47895     47896     47897     47896     47898     47897     47898
     47899     47900     47899     47901     47900     47901     47902     47903
     47902     47904     47903     47904     47905     47906     47905     47907
     47906     47907     47908     47909     47908     47910     47909     47910
     47911     47912     47911     47913     47912     47913     47914     47915
     47914     47916     47915     47916     47917     47918     47917     47919
     47918     47919     47920     47921     47920     47922     47921     47922
     47923     47924     47923     47925     47924     47925     47926     47927
     47926     47928     47927     47928     47929     47930     47929     47931
     47930     47931     47932     47933     47932     47934     47933     47934
     47935     47936     47935     47937     47936     47937     47938     47939
     47938     47940     47939     47940     47941     47942     47941     47943
     47942     47943     47944     47945     47944     47946     47945     47946
     47947     47948     47947     47949     47948     47949     47950     47951
     47950     47952     47951     47952     47953     47954     47953     47955
     47954     47955     47956     47957     47956     47958     47957     47958
     47959     47960     47959     47961     47960     47961     47962     47963
     47962     47964     47963     47964     47965     47966     47965     47967
     47966     47967     47968     47969     47968     47970     47969     47970
     47971     47972     47971     47973     47972     47973     47974     47975
     47974     47976     47975     47976     47977     47978     47977     47979
     47978     47979     47980     47981     47980     47982     47981     47982
     47983     47984     47983     47985     47984     47985     47986     47987
     47986     47988     47987     47988     47989     47990     47989     47991
     47990     47991     47992     47993     47992     47994     47993     47994
     47995     47996     47995     47997     47996     47997     47998     47999
     47998     48000     47999     48000     48001     48002     48001     48003
     48002     48003     48004     48005     48004     48006     48005     48006
     48007     48008     48007     48009     48008     48009     48010     48011
     48010     48012     48011     48012     48013     48014     48013     48015
     48014     48015     48016     48017     48016     48018     48017     48018
     48019     48020     48019     48021     48020     48021     48022     48023
     48022     48024     48023     48024     48025     48026     48025     48027
     48026     48027     48028     48029     48028     48030     48029     48030
     48031     48032     48031     48033     48032     48033     48034     48035
     48034     48036     48035     48036     48037     48038     48037     48039
     48038     48039     48040     48041     48040     48042     48041     48042
     48043     48044     48043     48045     48044     48045     48046     48047
     48046     48048     48047     48048     48049     48050     48049     48051
     48050     48051     48052     48053     48052     48054     48053     48054
     48055     48056     48055     48057     48056     48057     48058     48059
     48058     48060     48059     48060     48061     48062     48061     48063
     48062     48063     48064     48065     48064     48066     48065     48066
     48067     48068     48067     48069     48068     48069     48070     48071
     48070     48072     48071     48072     48073     48074     48073     48075
     48074     48075     48076     48077     48076     48078     48077     48078
     48079     48080     48079     48081     48080     48081     48082     48083
     48082     48084     48083     48084     48085     48086     48085     48087
     48086     48087     48088     48089     48088     48090     48089     48090
     48091     48092     48091     48093     48092     48093     48094     48095
     48094     48096     48095     48096     48097     48098     48097     48099
     48098     48099     48100     48101     48100     48102     48101     48102
     48103     48104     48103     48105     48104     48105     48106     48107
     48106     48108     48107     48108     48109     48110     48109     48111
     48110     48111     48112     48113     48112     48114     48113     48114
     48115     48116     48115     48117     48116     48117     48118     48119
     48118     48120     48119     48120     48121     48122     48121     48123
     48122     48123     48124     48125     48124     48126     48125     48126
     48127     48128     48127     48129     48128     48129     48130     48131
     48130     48132     48131     48132     48133     48134     48133     48135
     48134     48135     48136     48137     48136     48138     48137     48138
     48139     48140     48139     48141     48140     48141     48142     48143
     48142     48144     48143     48144     48145     48146     48145     48147
     48146     48147     48148     48149     48148     48150     48149     48150
     48151     48152     48151     48153     48152     48153     48154     48155
     48154     48156     48155     48156     48157     48158     48157     48159
     48158     48159     48160     48161     48160     48162     48161     48162
     48163     48164     48163     48165     48164     48165     48166     48167
     48166     48168     48167     48168     48169     48170     48169     48171
     48170     48171     48172     48173     48172     48174     48173     48174
     48175     48176     48175     48177     48176     48177     48178     48179
     48178     48180     48179     48180     48181     48182     48181     48183
     48182     48183     48184     48185     48184     48186     48185     48186
     48187     48188     48187     48189     48188     48189     48190     48191
     48190     48192     48191     48192     48193     48194     48193     48195
     48194     48195     48196     48197     48196     48198     48197     48198
     48199     48200     48199     48201     48200     48201     48202     48203
     48202     48204     48203     48204     48205     48206     48205     48207
     48206     48207     48208     48209     48208     48210     48209     48210
     48211     48212     48211     48213     48212     48213     48214     48215
     48214     48216     48215     48216     48217     48218     48217     48219
     48218     48219     48220     48221     48220     48222     48221     48222
     48223     48224     48223     48225     48224     48225     48226     48227
     48226     48228     48227     48228     48229     48230     48229     48231
     48230     48231     48232     48233     48232     48234     48233     48234
     48235     48236     48235     48237     48236     48237     48238     48239
     48238     48240     48239     48240     48241     48242     48241     48243
     48242     48243     48244     48245     48244     48246     48245     48246
     48247     48248     48247     48249     48248     48249     48250     48251
     48250     48252     48251     48252     48253     48254     48253     48255
     48254     48255     48256     48257     48256     48258     48257     48258
     48259     48260     48259     48261     48260     48261     48262     48263
     48262     48264     48263     48264     48265     48266     48265     48267
     48266     48267     48268     48269     48268     48270     48269     48270
     48271     48272     48271     48273     48272     48273     48274     48275
     48274     48276     48275     48276     48277     48278     48277     48279
     48278     48279     48280     48281     48280     48282     48281     48282
     48283     48284     48283     48285     48284     48285     48286     48287
     48286     48288     48287     48288     48289     48290     48289     48291
     48290     48291     48292     48293     48292     48294     48293     48294
     48295     48296     48295     48297     48296     48297     48298     48299
     48298     48300     48299     48300     48301     48302     48301     48303
     48302     48303     48304     48305     48304     48306     48305     48306
     48307     48308     48307     48309     48308     48309     48310     48311
     48310     48312     48311     48312     48313     48314     48313     48315
     48314     48315     48316     48317     48316     48318     48317     48318
     48319     48320     48319     48321     48320     48321     48322     48323
     48322     48324     48323     48324     48325     48326     48325     48327
     48326     48327     48328     48329     48328     48330     48329     48330
     48331     48332     48331     48333     48332     48333     48334     48335
     48334     48336     48335     48336     48337     48338     48337     48339
     48338     48339     48340     48341     48340     48342     48341     48342
     48343     48344     48343     48345     48344     48345     48346     48347
     48346     48348     48347     48348     48349     48350     48349     48351
     48350     48351     48352     48353     48352     48354     48353     48354
     48355     48356     48355     48357     48356     48357     48358     48359
     48358     48360     48359     48360     48361     48362     48361     48363
     48362     48363     48364     48365     48364     48366     48365     48366
     48367     48368     48367     48369     48368     48369     48370     48371
     48370     48372     48371     48372     48373     48374     48373     48375
     48374     48375     48376     48377     48376     48378     48377     48378
     48379     48380     48379     48381     48380     48381     48382     48383
     48382     48384     48383     48384     48385     48386     48385     48387
     48386     48387     48388     48389     48388     48390     48389     48390
     48391     48392     48391     48393     48392     48393     48394     48395
     48394     48396     48395     48396     48397     48398     48397     48399
     48398     48399     48400     48401     48400     48402     48401     48402
     48403     48404     48403     48405     48404     48405     48406     48407
     48406     48408     48407     48408     48409     48410     48409     48411
     48410     48411     48412     48413     48412     48414     48413     48414
     48415     48416     48415     48417     48416     48417     48418     48419
     48418     48420     48419     48420     48421     48422     48421     48423
     48422     48423     48424     48425     48424     48426     48425     48426
     48427     48428     48427     48429     48428     48429     48430     48431
     48430     48432     48431     48432     48433     48434     48433     48435
     48434     48435     48436     48437     48436     48438     48437     48438
     48439     48440     48439     48441     48440     48441     48442     48443
     48442     48444     48443     48444     48445     48446     48445     48447
     48446     48447     48448     48449     48448     48450     48449     48450
     48451     48452     48451     48453     48452     48453     48454     48455
     48454     48456     48455     48456     48457     48458     48457     48459
     48458     48459     48460     48461     48460     48462     48461     48462
     48463     48464     48463     48465     48464     48465     48466     48467
     48466     48468     48467     48468     48469     48470     48469     48471
     48470     48471     48472     48473     48472     48474     48473     48474
     48475     48476     48475     48477     48476     48477     48478     48479
     48478     48480     48479     48480     48481     48482     48481     48483
     48482     48483     48484     48485     48484     48486     48485     48486
     48487     48488     48487     48489     48488     48489     48490     48491
     48490     48492     48491     48492     48493     48494     48493     48495
     48494     48495     48496     48497     48496     48498     48497     48498
     48499     48500     48499     48501     48500     48501     48502     48503
     48502     48504     48503     48504     48505     48506     48505     48507
     48506     48507     48508     48509     48508     48510     48509     48510
     48511     48512     48511     48513     48512     48513     48514     48515
     48514     48516     48515     48516     48517     48518     48517     48519
     48518     48519     48520     48521     48520     48522     48521     48522
     48523     48524     48523     48525     48524     48525     48526     48527
     48526     48528     48527     48528     48529     48530     48529     48531
     48530     48531     48532     48533     48532     48534     48533     48534
     48535     48536     48535     48537     48536     48537     48538     48539
     48538     48540     48539     48540     48541     48542     48541     48543
     48542     48543     48544     48545     48544     48546     48545     48546
     48547     48548     48547     48549     48548     48549     48550     48551
     48550     48552     48551     48552     48553     48554     48553     48555
     48554     48555     48556     48557     48556     48558     48557     48558
     48559     48560     48559     48561     48560     48561     48562     48563
     48562     48564     48563     48564     48565     48566     48565     48567
     48566     48567     48568     48569     48568     48570     48569     48570
     48571     48572     48571     48573     48572     48573     48574     48575
     48574     48576     48575     48576     48577     48578     48577     48579
     48578     48579     48580     48581     48580     48582     48581     48582
     48583     48584     48583     48585     48584     48585     48586     48587
     48586     48588     48587     48588     48589     48590     48589     48591
     48590     48591     48592     48593     48592     48594     48593     48594
     48595     48596     48595     48597     48596     48597     48598     48599
     48598     48600     48599     48600     48601     48602     48601     48603
     48602     48603     48604     48605     48604     48606     48605     48606
     48607     48608     48607     48609     48608     48609     48610     48611
     48610     48612     48611     48612     48613     48614     48613     48615
     48614     48615     48616     48617     48616     48618     48617     48618
     48619     48620     48619     48621     48620     48621     48622     48623
     48622     48624     48623     48624     48625     48626     48625     48627
     48626     48627     48628     48629     48628     48630     48629     48630
     48631     48632     48631     48633     48632     48633     48634     48635
     48634     48636     48635     48636     48637     48638     48637     48639
     48638     48639     48640     48641     48640     48642     48641     48642
     48643     48644     48643     48645     48644     48645     48646     48647
     48646     48648     48647     48648     48649     48650     48649     48651
     48650     48651     48652     48653     48652     48654     48653     48654
     48655     48656     48655     48657     48656     48657     48658     48659
     48658     48660     48659     48660     48661     48662     48661     48663
     48662     48663     48664     48665     48664     48666     48665     48666
     48667     48668     48667     48669     48668     48669     48670     48671
     48670     48672     48671     48672     48673     48674     48673     48675
     48674     48675     48676     48677     48676     48678     48677     48678
     48679     48680     48679     48681     48680     48681     48682     48683
     48682     48684     48683     48684     48685     48686     48685     48687
     48686     48687     48688     48689     48688     48690     48689     48690
     48691     48692     48691     48693     48692     48693     48694     48695
     48694     48696     48695     48696     48697     48698     48697     48699
     48698     48699     48700     48701     48700     48702     48701     48702
     48703     48704     48703     48705     48704     48705     48706     48707
     48706     48708     48707     48708     48709     48710     48709     48711
     48710     48711     48712     48713     48712     48714     48713     48714
     48715     48716     48715     48717     48716     48717     48718     48719
     48718     48720     48719     48720     48721     48722     48721     48723
     48722     48723     48724     48725     48724     48726     48725     48726
     48727     48728     48727     48729     48728     48729     48730     48731
     48730     48732     48731     48732     48733     48734     48733     48735
     48734     48735     48736     48737     48736     48738     48737     48738
     48739     48740     48739     48741     48740     48741     48742     48743
     48742     48744     48743     48744     48745     48746     48745     48747
     48746     48747     48748     48749     48748     48750     48749     48750
     48751     48752     48751     48753     48752     48753     48754     48755
     48754     48756     48755     48756     48757     48758     48757     48759
     48758     48759     48760     48761     48760     48762     48761     48762
     48763     48764     48763     48765     48764     48765     48766     48767
     48766     48768     48767     48768     48769     48770     48769     48771
     48770     48771     48772     48773     48772     48774     48773     48774
     48775     48776     48775     48777     48776     48777     48778     48779
     48778     48780     48779     48780     48781     48782     48781     48783
     48782     48783     48784     48785     48784     48786     48785     48786
     48787     48788     48787     48789     48788     48789     48790     48791
     48790     48792     48791     48792     48793     48794     48793     48795
     48794     48795     48796     48797     48796     48798     48797     48798
     48799     48800     48799     48801     48800     48801     48802     48803
     48802     48804     48803     48804     48805     48806     48805     48807
     48806     48807     48808     48809     48808     48810     48809     48810
     48811     48812     48811     48813     48812     48813     48814     48815
     48814     48816     48815     48816     48817     48818     48817     48819
     48818     48819     48820     48821     48820     48822     48821     48822
     48823     48824     48823     48825     48824     48825     48826     48827
     48826     48828     48827     48828     48829     48830     48829     48831
     48830     48831     48832     48833     48832     48834     48833     48834
     48835     48836     48835     48837     48836     48837     48838     48839
     48838     48840     48839     48840     48841     48842     48841     48843
     48842     48843     48844     48845     48844     48846     48845     48846
     48847     48848     48847     48849     48848     48849     48850     48851
     48850     48852     48851     48852     48853     48854     48853     48855
     48854     48855     48856     48857     48856     48858     48857     48858
     48859     48860     48859     48861     48860     48861     48862     48863
     48862     48864     48863     48864     48865     48866     48865     48867
     48866     48867     48868     48869     48868     48870     48869     48870
     48871     48872     48871     48873     48872     48873     48874     48875
     48874     48876     48875     48876     48877     48878     48877     48879
     48878     48879     48880     48881     48880     48882     48881     48882
     48883     48884     48883     48885     48884     48885     48886     48887
     48886     48888     48887     48888     48889     48890     48889     48891
     48890     48891     48892     48893     48892     48894     48893     48894
     48895     48896     48895     48897     48896     48897     48898     48899
     48898     48900     48899     48900     48901     48902     48901     48903
     48902     48903     48904     48905     48904     48906     48905     48906
     48907     48908     48907     48909     48908     48909     48910     48911
     48910     48912     48911     48912     48913     48914     48913     48915
     48914     48915     48916     48917     48916     48918     48917     48918
     48919     48920     48919     48921     48920     48921     48922     48923
     48922     48924     48923     48924     48925     48926     48925     48927
     48926     48927     48928     48929     48928     48930     48929     48930
     48931     48932     48931     48933     48932     48933     48934     48935
     48934     48936     48935     48936     48937     48938     48937     48939
     48938     48939     48940     48941     48940     48942     48941     48942
     48943     48944     48943     48945     48944     48945     48946     48947
     48946     48948     48947     48948     48949     48950     48949     48951
     48950     48951     48952     48953     48952     48954     48953     48954
     48955     48956     48955     48957     48956     48957     48958     48959
     48958     48960     48959     48960     48961     48962     48961     48963
     48962     48963     48964     48965     48964     48966     48965     48966
     48967     48968     48967     48969     48968     48969     48970     48971
     48970     48972     48971     48972     48973     48974     48973     48975
     48974     48975     48976     48977     48976     48978     48977     48978
     48979     48980     48979     48981     48980     48981     48982     48983
     48982     48984     48983     48984     48985     48986     48985     48987
     48986     48987     48988     48989     48988     48990     48989     48990
     48991     48992     48991     48993     48992     48993     48994     48995
     48994     48996     48995     48996     48997     48998     48997     48999
     48998     48999     49000     49001     49000     49002     49001     49002
     49003     49004     49003     49005     49004     49005     49006     49007
     49006     49008     49007     49008     49009     49010     49009     49011
     49010     49011     49012     49013     49012     49014     49013     49014
     49015     49016     49015     49017     49016     49017     49018     49019
     49018     49020     49019     49020     49021     49022     49021     49023
     49022     49023     49024     49025     49024     49026     49025     49026
     49027     49028     49027     49029     49028     49029     49030     49031
     49030     49032     49031     49032     49033     49034     49033     49035
     49034     49035     49036     49037     49036     49038     49037     49038
     49039     49040     49039     49041     49040     49041     49042     49043
     49042     49044     49043     49044     49045     49046     49045     49047
     49046     49047     49048     49049     49048     49050     49049     49050
     49051     49052     49051     49053     49052     49053     49054     49055
     49054     49056     49055     49056     49057     49058     49057     49059
     49058     49059     49060     49061     49060     49062     49061     49062
     49063     49064     49063     49065     49064     49065     49066     49067
     49066     49068     49067     49068     49069     49070     49069     49071
     49070     49071     49072     49073     49072     49074     49073     49074
     49075     49076     49075     49077     49076     49077     49078     49079
     49078     49080     49079     49080     49081     49082     49081     49083
     49082     49083     49084     49085     49084     49086     49085     49086
     49087     49088     49087     49089     49088     49089     49090     49091
     49090     49092     49091     49092     49093     49094     49093     49095
     49094     49095     49096     49097     49096     49098     49097     49098
     49099     49100     49099     49101     49100     49101     49102     49103
     49102     49104     49103     49104     49105     49106     49105     49107
     49106     49107     49108     49109     49108     49110     49109     49110
     49111     49112     49111     49113     49112     49113     49114     49115
     49114     49116     49115     49116     49117     49118     49117     49119
     49118     49119     49120     49121     49120     49122     49121     49122
     49123     49124     49123     49125     49124     49125     49126     49127
     49126     49128     49127     49128     49129     49130     49129     49131
     49130     49131     49132     49133     49132     49134     49133     49134
     49135     49136     49135     49137     49136     49137     49138     49139
     49138     49140     49139     49140     49141     49142     49141     49143
     49142     49143     49144     49145     49144     49146     49145     49146
     49147     49148     49147     49149     49148     49149     49150     49151
     49150     49152     49151     49152     49153     49154     49153     49155
     49154     49155     49156     49157     49156     49158     49157     49158
     49159     49160     49159     49161     49160     49161     49162     49163
     49162     49164     49163     49164     49165     49166     49165     49167
     49166     49167     49168     49169     49168     49170     49169     49170
     49171     49172     49171     49173     49172     49173     49174     49175
     49174     49176     49175     49176     49177     49178     49177     49179
     49178     49179     49180     49181     49180     49182     49181     49182
     49183     49184     49183     49185     49184     49185     49186     49187
     49186     49188     49187     49188     49189     49190     49189     49191
     49190     49191     49192     49193     49192     49194     49193     49194
     49195     49196     49195     49197     49196     49197     49198     49199
     49198     49200     49199     49200     49201     49202     49201     49203
     49202     49203     49204     49205     49204     49206     49205     49206
     49207     49208     49207     49209     49208     49209     49210     49211
     49210     49212     49211     49212     49213     49214     49213     49215
     49214     49215     49216     49217     49216     49218     49217     49218
     49219     49220     49219     49221     49220     49221     49222     49223
     49222     49224     49223     49224     49225     49226     49225     49227
     49226     49227     49228     49229     49228     49230     49229     49230
     49231     49232     49231     49233     49232     49233     49234     49235
     49234     49236     49235     49236     49237     49238     49237     49239
     49238     49239     49240     49241     49240     49242     49241     49242
     49243     49244     49243     49245     49244     49245     49246     49247
     49246     49248     49247     49248     49249     49250     49249     49251
     49250     49251     49252     49253     49252     49254     49253     49254
     49255     49256     49255     49257     49256     49257     49258     49259
     49258     49260     49259     49260     49261     49262     49261     49263
     49262     49263     49264     49265     49264     49266     49265     49266
     49267     49268     49267     49269     49268     49269     49270     49271
     49270     49272     49271     49272     49273     49274     49273     49275
     49274     49275     49276     49277     49276     49278     49277     49278
     49279     49280     49279     49281     49280     49281     49282     49283
     49282     49284     49283     49284     49285     49286     49285     49287
     49286     49287     49288     49289     49288     49290     49289     49290
     49291     49292     49291     49293     49292     49293     49294     49295
     49294     49296     49295     49296     49297     49298     49297     49299
     49298     49299     49300     49301     49300     49302     49301     49302
     49303     49304     49303     49305     49304     49305     49306     49307
     49306     49308     49307     49308     49309     49310     49309     49311
     49310     49311     49312     49313     49312     49314     49313     49314
     49315     49316     49315     49317     49316     49317     49318     49319
     49318     49320     49319     49320     49321     49322     49321     49323
     49322     49323     49324     49325     49324     49326     49325     49326
     49327     49328     49327     49329     49328     49329     49330     49331
     49330     49332     49331     49332     49333     49334     49333     49335
     49334     49335     49336     49337     49336     49338     49337     49338
     49339     49340     49339     49341     49340     49341     49342     49343
     49342     49344     49343     49344     49345     49346     49345     49347
     49346     49347     49348     49349     49348     49350     49349     49350
     49351     49352     49351     49353     49352     49353     49354     49355
     49354     49356     49355     49356     49357     49358     49357     49359
     49358     49359     49360     49361     49360     49362     49361     49362
     49363     49364     49363     49365     49364     49365     49366     49367
     49366     49368     49367     49368     49369     49370     49369     49371
     49370     49371     49372     49373     49372     49374     49373     49374
     49375     49376     49375     49377     49376     49377     49378     49379
     49378     49380     49379     49380     49381     49382     49381     49383
     49382     49383     49384     49385     49384     49386     49385     49386
     49387     49388     49387     49389     49388     49389     49390     49391
     49390     49392     49391     49392     49393     49394     49393     49395
     49394     49395     49396     49397     49396     49398     49397     49398
     49399     49400     49399     49401     49400     49401     49402     49403
     49402     49404     49403     49404     49405     49406     49405     49407
     49406     49407     49408     49409     49408     49410     49409     49410
     49411     49412     49411     49413     49412     49413     49414     49415
     49414     49416     49415     49416     49417     49418     49417     49419
     49418     49419     49420     49421     49420     49422     49421     49422
     49423     49424     49423     49425     49424     49425     49426     49427
     49426     49428     49427     49428     49429     49430     49429     49431
     49430     49431     49432     49433     49432     49434     49433     49434
     49435     49436     49435     49437     49436     49437     49438     49439
     49438     49440     49439     49440     49441     49442     49441     49443
     49442     49443     49444     49445     49444     49446     49445     49446
     49447     49448     49447     49449     49448     49449     49450     49451
     49450     49452     49451     49452     49453     49454     49453     49455
     49454     49455     49456     49457     49456     49458     49457     49458
     49459     49460     49459     49461     49460     49461     49462     49463
     49462     49464     49463     49464     49465     49466     49465     49467
     49466     49467     49468     49469     49468     49470     49469     49470
     49471     49472     49471     49473     49472     49473     49474     49475
     49474     49476     49475     49476     49477     49478     49477     49479
     49478     49479     49480     49481     49480     49482     49481     49482
     49483     49484     49483     49485     49484     49485     49486     49487
     49486     49488     49487     49488     49489     49490     49489     49491
     49490     49491     49492     49493     49492     49494     49493     49494
     49495     49496     49495     49497     49496     49497     49498     49499
     49498     49500     49499     49500     49501     49502     49501     49503
     49502     49503     49504     49505     49504     49506     49505     49506
     49507     49508     49507     49509     49508     49509     49510     49511
     49510     49512     49511     49512     49513     49514     49513     49515
     49514     49515     49516     49517     49516     49518     49517     49518
     49519     49520     49519     49521     49520     49521     49522     49523
     49522     49524     49523     49524     49525     49526     49525     49527
     49526     49527     49528     49529     49528     49530     49529     49530
     49531     49532     49531     49533     49532     49533     49534     49535
     49534     49536     49535     49536     49537     49538     49537     49539
     49538     49539     49540     49541     49540     49542     49541     49542
     49543     49544     49543     49545     49544     49545     49546     49547
     49546     49548     49547     49548     49549     49550     49549     49551
     49550     49551     49552     49553     49552     49554     49553     49554
     49555     49556     49555     49557     49556     49557     49558     49559
     49558     49560     49559     49560     49561     49562     49561     49563
     49562     49563     49564     49565     49564     49566     49565     49566
     49567     49568     49567     49569     49568     49569     49570     49571
     49570     49572     49571     49572     49573     49574     49573     49575
     49574     49575     49576     49577     49576     49578     49577     49578
     49579     49580     49579     49581     49580     49581     49582     49583
     49582     49584     49583     49584     49585     49586     49585     49587
     49586     49587     49588     49589     49588     49590     49589     49590
     49591     49592     49591     49593     49592     49593     49594     49595
     49594     49596     49595     49596     49597     49598     49597     49599
     49598     49599     49600     49601     49600     49602     49601     49602
     49603     49604     49603     49605     49604     49605     49606     49607
     49606     49608     49607     49608     49609     49610     49609     49611
     49610     49611     49612     49613     49612     49614     49613     49614
     49615     49616     49615     49617     49616     49617     49618     49619
     49618     49620     49619     49620     49621     49622     49621     49623
     49622     49623     49624     49625     49624     49626     49625     49626
     49627     49628     49627     49629     49628     49629     49630     49631
     49630     49632     49631     49632     49633     49634     49633     49635
     49634     49635     49636     49637     49636     49638     49637     49638
     49639     49640     49639     49641     49640     49641     49642     49643
     49642     49644     49643     49644     49645     49646     49645     49647
     49646     49647     49648     49649     49648     49650     49649     49650
     49651     49652     49651     49653     49652     49653     49654     49655
     49654     49656     49655     49656     49657     49658     49657     49659
     49658     49659     49660     49661     49660     49662     49661     49662
     49663     49664     49663     49665     49664     49665     49666     49667
     49666     49668     49667     49668     49669     49670     49669     49671
     49670     49671     49672     49673     49672     49674     49673     49674
     49675     49676     49675     49677     49676     49677     49678     49679
     49678     49680     49679     49680     49681     49682     49681     49683
     49682     49683     49684     49685     49684     49686     49685     49686
     49687     49688     49687     49689     49688     49689     49690     49691
     49690     49692     49691     49692     49693     49694     49693     49695
     49694     49695     49696     49697     49696     49698     49697     49698
     49699     49700     49699     49701     49700     49701     49702     49703
     49702     49704     49703     49704     49705     49706     49705     49707
     49706     49707     49708     49709     49708     49710     49709     49710
     49711     49712     49711     49713     49712     49713     49714     49715
     49714     49716     49715     49716     49717     49718     49717     49719
     49718     49719     49720     49721     49720     49722     49721     49722
     49723     49724     49723     49725     49724     49725     49726     49727
     49726     49728     49727     49728     49729     49730     49729     49731
     49730     49731     49732     49733     49732     49734     49733     49734
     49735     49736     49735     49737     49736     49737     49738     49739
     49738     49740     49739     49740     49741     49742     49741     49743
     49742     49743     49744     49745     49744     49746     49745     49746
     49747     49748     49747     49749     49748     49749     49750     49751
     49750     49752     49751     49752     49753     49754     49753     49755
     49754     49755     49756     49757     49756     49758     49757     49758
     49759     49760     49759     49761     49760     49761     49762     49763
     49762     49764     49763     49764     49765     49766     49765     49767
     49766     49767     49768     49769     49768     49770     49769     49770
     49771     49772     49771     49773     49772     49773     49774     49775
     49774     49776     49775     49776     49777     49778     49777     49779
     49778     49779     49780     49781     49780     49782     49781     49782
     49783     49784     49783     49785     49784     49785     49786     49787
     49786     49788     49787     49788     49789     49790     49789     49791
     49790     49791     49792     49793     49792     49794     49793     49794
     49795     49796     49795     49797     49796     49797     49798     49799
     49798     49800     49799     49800     49801     49802     49801     49803
     49802     49803     49804     49805     49804     49806     49805     49806
     49807     49808     49807     49809     49808     49809     49810     49811
     49810     49812     49811     49812     49813     49814     49813     49815
     49814     49815     49816     49817     49816     49818     49817     49818
     49819     49820     49819     49821     49820     49821     49822     49823
     49822     49824     49823     49824     49825     49826     49825     49827
     49826     49827     49828     49829     49828     49830     49829     49830
     49831     49832     49831     49833     49832     49833     49834     49835
     49834     49836     49835     49836     49837     49838     49837     49839
     49838     49839     49840     49841     49840     49842     49841     49842
     49843     49844     49843     49845     49844     49845     49846     49847
     49846     49848     49847     49848     49849     49850     49849     49851
     49850     49851     49852     49853     49852     49854     49853     49854
     49855     49856     49855     49857     49856     49857     49858     49859
     49858     49860     49859     49860     49861     49862     49861     49863
     49862     49863     49864     49865     49864     49866     49865     49866
     49867     49868     49867     49869     49868     49869     49870     49871
     49870     49872     49871     49872     49873     49874     49873     49875
     49874     49875     49876     49877     49876     49878     49877     49878
     49879     49880     49879     49881     49880     49881     49882     49883
     49882     49884     49883     49884     49885     49886     49885     49887
     49886     49887     49888     49889     49888     49890     49889     49890
     49891     49892     49891     49893     49892     49893     49894     49895
     49894     49896     49895     49896     49897     49898     49897     49899
     49898     49899     49900     49901     49900     49902     49901     49902
     49903     49904     49903     49905     49904     49905     49906     49907
     49906     49908     49907     49908     49909     49910     49909     49911
     49910     49911     49912     49913     49912     49914     49913     49914
     49915     49916     49915     49917     49916     49917     49918     49919
     49918     49920     49919     49920     49921     49922     49921     49923
     49922     49923     49924     49925     49924     49926     49925     49926
     49927     49928     49927     49929     49928     49929     49930     49931
     49930     49932     49931     49932     49933     49934     49933     49935
     49934     49935     49936     49937     49936     49938     49937     49938
     49939     49940     49939     49941     49940     49941     49942     49943
     49942     49944     49943     49944     49945     49946     49945     49947
     49946     49947     49948     49949     49948     49950     49949     49950
     49951     49952     49951     49953     49952     49953     49954     49955
     49954     49956     49955     49956     49957     49958     49957     49959
     49958     49959     49960     49961     49960     49962     49961     49962
     49963     49964     49963     49965     49964     49965     49966     49967
     49966     49968     49967     49968     49969     49970     49969     49971
     49970     49971     49972     49973     49972     49974     49973     49974
     49975     49976     49975     49977     49976     49977     49978     49979
     49978     49980     49979     49980     49981     49982     49981     49983
     49982     49983     49984     49985     49984     49986     49985     49986
     49987     49988     49987     49989     49988     49989     49990     49991
     49990     49992     49991     49992     49993     49994     49993     49995
     49994     49995     49996     49997     49996     49998     49997     49998
     49999     50000     49999     50001     50000     50001     50002     50003
     50002     50004     50003     50004     50005     50006     50005     50007
     50006     50007     50008     50009     50008     50010     50009     50010
     50011     50012     50011     50013     50012     50013     50014     50015
     50014     50016     50015     50016     50017     50018     50017     50019
     50018     50019     50020     50021     50020     50022     50021     50022
     50023     50024     50023     50025     50024     50025     50026     50027
     50026     50028     50027     50028     50029     50030     50029     50031
     50030     50031     50032     50033     50032     50034     50033     50034
     50035     50036     50035     50037     50036     50037     50038     50039
     50038     50040     50039     50040     50041     50042     50041     50043
     50042     50043     50044     50045     50044     50046     50045     50046
     50047     50048     50047     50049     50048     50049     50050     50051
     50050     50052     50051     50052     50053     50054     50053     50055
     50054     50055     50056     50057     50056     50058     50057     50058
     50059     50060     50059     50061     50060     50061     50062     50063
     50062     50064     50063     50064     50065     50066     50065     50067
     50066     50067     50068     50069     50068     50070     50069     50070
     50071     50072     50071     50073     50072     50073     50074     50075
     50074     50076     50075     50076     50077     50078     50077     50079
     50078     50079     50080     50081     50080     50082     50081     50082
     50083     50084     50083     50085     50084     50085     50086     50087
     50086     50088     50087     50088     50089     50090     50089     50091
     50090     50091     50092     50093     50092     50094     50093     50094
     50095     50096     50095     50097     50096     50097     50098     50099
     50098     50100     50099     50100     50101     50102     50101     50103
     50102     50103     50104     50105     50104     50106     50105     50106
     50107     50108     50107     50109     50108     50109     50110     50111
     50110     50112     50111     50112     50113     50114     50113     50115
     50114     50115     50116     50117     50116     50118     50117     50118
     50119     50120     50119     50121     50120     50121     50122     50123
     50122     50124     50123     50124     50125     50126     50125     50127
     50126     50127     50128     50129     50128     50130     50129     50130
     50131     50132     50131     50133     50132     50133     50134     50135
     50134     50136     50135     50136     50137     50138     50137     50139
     50138     50139     50140     50141     50140     50142     50141     50142
     50143     50144     50143     50145     50144     50145     50146     50147
     50146     50148     50147     50148     50149     50150     50149     50151
     50150     50151     50152     50153     50152     50154     50153     50154
     50155     50156     50155     50157     50156     50157     50158     50159
     50158     50160     50159     50160     50161     50162     50161     50163
     50162     50163     50164     50165     50164     50166     50165     50166
     50167     50168     50167     50169     50168     50169     50170     50171
     50170     50172     50171     50172     50173     50174     50173     50175
     50174     50175     50176     50177     50176     50178     50177     50178
     50179     50180     50179     50181     50180     50181     50182     50183
     50182     50184     50183     50184     50185     50186     50185     50187
     50186     50187     50188     50189     50188     50190     50189     50190
     50191     50192     50191     50193     50192     50193     50194     50195
     50194     50196     50195     50196     50197     50198     50197     50199
     50198     50199     50200     50201     50200     50202     50201     50202
     50203     50204     50203     50205     50204     50205     50206     50207
     50206     50208     50207     50208     50209     50210     50209     50211
     50210     50211     50212     50213     50212     50214     50213     50214
     50215     50216     50215     50217     50216     50217     50218     50219
     50218     50220     50219     50220     50221     50222     50221     50223
     50222     50223     50224     50225     50224     50226     50225     50226
     50227     50228     50227     50229     50228     50229     50230     50231
     50230     50232     50231     50232     50233     50234     50233     50235
     50234     50235     50236     50237     50236     50238     50237     50238
     50239     50240     50239     50241     50240     50241     50242     50243
     50242     50244     50243     50244     50245     50246     50245     50247
     50246     50247     50248     50249     50248     50250     50249     50250
     50251     50252     50251     50253     50252     50253     50254     50255
     50254     50256     50255     50256     50257     50258     50257     50259
     50258     50259     50260     50261     50260     50262     50261     50262
     50263     50264     50263     50265     50264     50265     50266     50267
     50266     50268     50267     50268     50269     50270     50269     50271
     50270     50271     50272     50273     50272     50274     50273     50274
     50275     50276     50275     50277     50276     50277     50278     50279
     50278     50280     50279     50280     50281     50282     50281     50283
     50282     50283     50284     50285     50284     50286     50285     50286
     50287     50288     50287     50289     50288     50289     50290     50291
     50290     50292     50291     50292     50293     50294     50293     50295
     50294     50295     50296     50297     50296     50298     50297     50298
     50299     50300     50299     50301     50300     50301     50302     50303
     50302     50304     50303     50304     50305     50306     50305     50307
     50306     50307     50308     50309     50308     50310     50309     50310
     50311     50312     50311     50313     50312     50313     50314     50315
     50314     50316     50315     50316     50317     50318     50317     50319
     50318     50319     50320     50321     50320     50322     50321     50322
     50323     50324     50323     50325     50324     50325     50326     50327
     50326     50328     50327     50328     50329     50330     50329     50331
     50330     50331     50332     50333     50332     50334     50333     50334
     50335     50336     50335     50337     50336     50337     50338     50339
     50338     50340     50339     50340     50341     50342     50341     50343
     50342     50343     50344     50345     50344     50346     50345     50346
     50347     50348     50347     50349     50348     50349     50350     50351
     50350     50352     50351     50352     50353     50354     50353     50355
     50354     50355     50356     50357     50356     50358     50357     50358
     50359     50360     50359     50361     50360     50361     50362     50363
     50362     50364     50363     50364     50365     50366     50365     50367
     50366     50367     50368     50369     50368     50370     50369     50370
     50371     50372     50371     50373     50372     50373     50374     50375
     50374     50376     50375     50376     50377     50378     50377     50379
     50378     50379     50380     50381     50380     50382     50381     50382
     50383     50384     50383     50385     50384     50385     50386     50387
     50386     50388     50387     50388     50389     50390     50389     50391
     50390     50391     50392     50393     50392     50394     50393     50394
     50395     50396     50395     50397     50396     50397     50398     50399
     50398     50400     50399     50400     50401     50402     50401     50403
     50402     50403     50404     50405     50404     50406     50405     50406
     50407     50408     50407     50409     50408     50409     50410     50411
     50410     50412     50411     50412     50413     50414     50413     50415
     50414     50415     50416     50417     50416     50418     50417     50418
     50419     50420     50419     50421     50420     50421     50422     50423
     50422     50424     50423     50424     50425     50426     50425     50427
     50426     50427     50428     50429     50428     50430     50429     50430
     50431     50432     50431     50433     50432     50433     50434     50435
     50434     50436     50435     50436     50437     50438     50437     50439
     50438     50439     50440     50441     50440     50442     50441     50442
     50443     50444     50443     50445     50444     50445     50446     50447
     50446     50448     50447     50448     50449     50450     50449     50451
     50450     50451     50452     50453     50452     50454     50453     50454
     50455     50456     50455     50457     50456     50457     50458     50459
     50458     50460     50459     50460     50461     50462     50461     50463
     50462     50463     50464     50465     50464     50466     50465     50466
     50467     50468     50467     50469     50468     50469     50470     50471
     50470     50472     50471     50472     50473     50474     50473     50475
     50474     50475     50476     50477     50476     50478     50477     50478
     50479     50480     50479     50481     50480     50481     50482     50483
     50482     50484     50483     50484     50485     50486     50485     50487
     50486     50487     50488     50489     50488     50490     50489     50490
     50491     50492     50491     50493     50492     50493     50494     50495
     50494     50496     50495     50496     50497     50498     50497     50499
     50498     50499     50500     50501     50500     50502     50501     50502
     50503     50504     50503     50505     50504     50505     50506     50507
     50506     50508     50507     50508     50509     50510     50509     50511
     50510     50511     50512     50513     50512     50514     50513     50514
     50515     50516     50515     50517     50516     50517     50518     50519
     50518     50520     50519     50520     50521     50522     50521     50523
     50522     50523     50524     50525     50524     50526     50525     50526
     50527     50528     50527     50529     50528     50529     50530     50531
     50530     50532     50531     50532     50533     50534     50533     50535
     50534     50535     50536     50537     50536     50538     50537     50538
     50539     50540     50539     50541     50540     50541     50542     50543
     50542     50544     50543     50544     50545     50546     50545     50547
     50546     50547     50548     50549     50548     50550     50549     50550
     50551     50552     50551     50553     50552     50553     50554     50555
     50554     50556     50555     50556     50557     50558     50557     50559
     50558     50559     50560     50561     50560     50562     50561     50562
     50563     50564     50563     50565     50564     50565     50566     50567
     50566     50568     50567     50568     50569     50570     50569     50571
     50570     50571     50572     50573     50572     50574     50573     50574
     50575     50576     50575     50577     50576     50577     50578     50579
     50578     50580     50579     50580     50581     50582     50581     50583
     50582     50583     50584     50585     50584     50586     50585     50586
     50587     50588     50587     50589     50588     50589     50590     50591
     50590     50592     50591     50592     50593     50594     50593     50595
     50594     50595     50596     50597     50596     50598     50597     50598
     50599     50600     50599     50601     50600     50601     50602     50603
     50602     50604     50603     50604     50605     50606     50605     50607
     50606     50607     50608     50609     50608     50610     50609     50610
     50611     50612     50611     50613     50612     50613     50614     50615
     50614     50616     50615     50616     50617     50618     50617     50619
     50618     50619     50620     50621     50620     50622     50621     50622
     50623     50624     50623     50625     50624     50625     50626     50627
     50626     50628     50627     50628     50629     50630     50629     50631
     50630     50631     50632     50633     50632     50634     50633     50634
     50635     50636     50635     50637     50636     50637     50638     50639
     50638     50640     50639     50640     50641     50642     50641     50643
     50642     50643     50644     50645     50644     50646     50645     50646
     50647     50648     50647     50649     50648     50649     50650     50651
     50650     50652     50651     50652     50653     50654     50653     50655
     50654     50655     50656     50657     50656     50658     50657     50658
     50659     50660     50659     50661     50660     50661     50662     50663
     50662     50664     50663     50664     50665     50666     50665     50667
     50666     50667     50668     50669     50668     50670     50669     50670
     50671     50672     50671     50673     50672     50673     50674     50675
     50674     50676     50675     50676     50677     50678     50677     50679
     50678     50679     50680     50681     50680     50682     50681     50682
     50683     50684     50683     50685     50684     50685     50686     50687
     50686     50688     50687     50688     50689     50690     50689     50691
     50690     50691     50692     50693     50692     50694     50693     50694
     50695     50696     50695     50697     50696     50697     50698     50699
     50698     50700     50699     50700     50701     50702     50701     50703
     50702     50703     50704     50705     50704     50706     50705     50706
     50707     50708     50707     50709     50708     50709     50710     50711
     50710     50712     50711     50712     50713     50714     50713     50715
     50714     50715     50716     50717     50716     50718     50717     50718
     50719     50720     50719     50721     50720     50721     50722     50723
     50722     50724     50723     50724     50725     50726     50725     50727
     50726     50727     50728     50729     50728     50730     50729     50730
     50731     50732     50731     50733     50732     50733     50734     50735
     50734     50736     50735     50736     50737     50738     50737     50739
     50738     50739     50740     50741     50740     50742     50741     50742
     50743     50744     50743     50745     50744     50745     50746     50747
     50746     50748     50747     50748     50749     50750     50749     50751
     50750     50751     50752     50753     50752     50754     50753     50754
     50755     50756     50755     50757     50756     50757     50758     50759
     50758     50760     50759     50760     50761     50762     50761     50763
     50762     50763     50764     50765     50764     50766     50765     50766
     50767     50768     50767     50769     50768     50769     50770     50771
     50770     50772     50771     50772     50773     50774     50773     50775
     50774     50775     50776     50777     50776     50778     50777     50778
     50779     50780     50779     50781     50780     50781     50782     50783
     50782     50784     50783     50784     50785     50786     50785     50787
     50786     50787     50788     50789     50788     50790     50789     50790
     50791     50792     50791     50793     50792     50793     50794     50795
     50794     50796     50795     50796     50797     50798     50797     50799
     50798     50799     50800     50801     50800     50802     50801     50802
     50803     50804     50803     50805     50804     50805     50806     50807
     50806     50808     50807     50808     50809     50810     50809     50811
     50810     50811     50812     50813     50812     50814     50813     50814
     50815     50816     50815     50817     50816     50817     50818     50819
     50818     50820     50819     50820     50821     50822     50821     50823
     50822     50823     50824     50825     50824     50826     50825     50826
     50827     50828     50827     50829     50828     50829     50830     50831
     50830     50832     50831     50832     50833     50834     50833     50835
     50834     50835     50836     50837     50836     50838     50837     50838
     50839     50840     50839     50841     50840     50841     50842     50843
     50842     50844     50843     50844     50845     50846     50845     50847
     50846     50847     50848     50849     50848     50850     50849     50850
     50851     50852     50851     50853     50852     50853     50854     50855
     50854     50856     50855     50856     50857     50858     50857     50859
     50858     50859     50860     50861     50860     50862     50861     50862
     50863     50864     50863     50865     50864     50865     50866     50867
     50866     50868     50867     50868     50869     50870     50869     50871
     50870     50871     50872     50873     50872     50874     50873     50874
     50875     50876     50875     50877     50876     50877     50878     50879
     50878     50880     50879     50880     50881     50882     50881     50883
     50882     50883     50884     50885     50884     50886     50885     50886
     50887     50888     50887     50889     50888     50889     50890     50891
     50890     50892     50891     50892     50893     50894     50893     50895
     50894     50895     50896     50897     50896     50898     50897     50898
     50899     50900     50899     50901     50900     50901     50902     50903
     50902     50904     50903     50904     50905     50906     50905     50907
     50906     50907     50908     50909     50908     50910     50909     50910
     50911     50912     50911     50913     50912     50913     50914     50915
     50914     50916     50915     50916     50917     50918     50917     50919
     50918     50919     50920     50921     50920     50922     50921     50922
     50923     50924     50923     50925     50924     50925     50926     50927
     50926     50928     50927     50928     50929     50930     50929     50931
     50930     50931     50932     50933     50932     50934     50933     50934
     50935     50936     50935     50937     50936     50937     50938     50939
     50938     50940     50939     50940     50941     50942     50941     50943
     50942     50943     50944     50945     50944     50946     50945     50946
     50947     50948     50947     50949     50948     50949     50950     50951
     50950     50952     50951     50952     50953     50954     50953     50955
     50954     50955     50956     50957     50956     50958     50957     50958
     50959     50960     50959     50961     50960     50961     50962     50963
     50962     50964     50963     50964     50965     50966     50965     50967
     50966     50967     50968     50969     50968     50970     50969     50970
     50971     50972     50971     50973     50972     50973     50974     50975
     50974     50976     50975     50976     50977     50978     50977     50979
     50978     50979     50980     50981     50980     50982     50981     50982
     50983     50984     50983     50985     50984     50985     50986     50987
     50986     50988     50987     50988     50989     50990     50989     50991
     50990     50991     50992     50993     50992     50994     50993     50994
     50995     50996     50995     50997     50996     50997     50998     50999
     50998     51000     50999     51000     51001     51002     51001     51003
     51002     51003     51004     51005     51004     51006     51005     51006
     51007     51008     51007     51009     51008     51009     51010     51011
     51010     51012     51011     51012     51013     51014     51013     51015
     51014     51015     51016     51017     51016     51018     51017     51018
     51019     51020     51019     51021     51020     51021     51022     51023
     51022     51024     51023     51024     51025     51026     51025     51027
     51026     51027     51028     51029     51028     51030     51029     51030
     51031     51032     51031     51033     51032     51033     51034     51035
     51034     51036     51035     51036     51037     51038     51037     51039
     51038     51039     51040     51041     51040     51042     51041     51042
     51043     51044     51043     51045     51044     51045     51046     51047
     51046     51048     51047     51048     51049     51050     51049     51051
     51050     51051     51052     51053     51052     51054     51053     51054
     51055     51056     51055     51057     51056     51057     51058     51059
     51058     51060     51059     51060     51061     51062     51061     51063
     51062     51063     51064     51065     51064     51066     51065     51066
     51067     51068     51067     51069     51068     51069     51070     51071
     51070     51072     51071     51072     51073     51074     51073     51075
     51074     51075     51076     51077     51076     51078     51077     51078
     51079     51080     51079     51081     51080     51081     51082     51083
     51082     51084     51083     51084     51085     51086     51085     51087
     51086     51087     51088     51089     51088     51090     51089     51090
     51091     51092     51091     51093     51092     51093     51094     51095
     51094     51096     51095     51096     51097     51098     51097     51099
     51098     51099     51100     51101     51100     51102     51101     51102
     51103     51104     51103     51105     51104     51105     51106     51107
     51106     51108     51107     51108     51109     51110     51109     51111
     51110     51111     51112     51113     51112     51114     51113     51114
     51115     51116     51115     51117     51116     51117     51118     51119
     51118     51120     51119     51120     51121     51122     51121     51123
     51122     51123     51124     51125     51124     51126     51125     51126
     51127     51128     51127     51129     51128     51129     51130     51131
     51130     51132     51131     51132     51133     51134     51133     51135
     51134     51135     51136     51137     51136     51138     51137     51138
     51139     51140     51139     51141     51140     51141     51142     51143
     51142     51144     51143     51144     51145     51146     51145     51147
     51146     51147     51148     51149     51148     51150     51149     51150
     51151     51152     51151     51153     51152     51153     51154     51155
     51154     51156     51155     51156     51157     51158     51157     51159
     51158     51159     51160     51161     51160     51162     51161     51162
     51163     51164     51163     51165     51164     51165     51166     51167
     51166     51168     51167     51168     51169     51170     51169     51171
     51170     51171     51172     51173     51172     51174     51173     51174
     51175     51176     51175     51177     51176     51177     51178     51179
     51178     51180     51179     51180     51181     51182     51181     51183
     51182     51183     51184     51185     51184     51186     51185     51186
     51187     51188     51187     51189     51188     51189     51190     51191
     51190     51192     51191     51192     51193     51194     51193     51195
     51194     51195     51196     51197     51196     51198     51197     51198
     51199     51200     51199     51201     51200     51201     51202     51203
     51202     51204     51203     51204     51205     51206     51205     51207
     51206     51207     51208     51209     51208     51210     51209     51210
     51211     51212     51211     51213     51212     51213     51214     51215
     51214     51216     51215     51216     51217     51218     51217     51219
     51218     51219     51220     51221     51220     51222     51221     51222
     51223     51224     51223     51225     51224     51225     51226     51227
     51226     51228     51227     51228     51229     51230     51229     51231
     51230     51231     51232     51233     51232     51234     51233     51234
     51235     51236     51235     51237     51236     51237     51238     51239
     51238     51240     51239     51240     51241     51242     51241     51243
     51242     51243     51244     51245     51244     51246     51245     51246
     51247     51248     51247     51249     51248     51249     51250     51251
     51250     51252     51251     51252     51253     51254     51253     51255
     51254     51255     51256     51257     51256     51258     51257     51258
     51259     51260     51259     51261     51260     51261     51262     51263
     51262     51264     51263     51264     51265     51266     51265     51267
     51266     51267     51268     51269     51268     51270     51269     51270
     51271     51272     51271     51273     51272     51273     51274     51275
     51274     51276     51275     51276     51277     51278     51277     51279
     51278     51279     51280     51281     51280     51282     51281     51282
     51283     51284     51283     51285     51284     51285     51286     51287
     51286     51288     51287     51288     51289     51290     51289     51291
     51290     51291     51292     51293     51292     51294     51293     51294
     51295     51296     51295     51297     51296     51297     51298     51299
     51298     51300     51299     51300     51301     51302     51301     51303
     51302     51303     51304     51305     51304     51306     51305     51306
     51307     51308     51307     51309     51308     51309     51310     51311
     51310     51312     51311     51312     51313     51314     51313     51315
     51314     51315     51316     51317     51316     51318     51317     51318
     51319     51320     51319     51321     51320     51321     51322     51323
     51322     51324     51323     51324     51325     51326     51325     51327
     51326     51327     51328     51329     51328     51330     51329     51330
     51331     51332     51331     51333     51332     51333     51334     51335
     51334     51336     51335     51336     51337     51338     51337     51339
     51338     51339     51340     51341     51340     51342     51341     51342
     51343     51344     51343     51345     51344     51345     51346     51347
     51346     51348     51347     51348     51349     51350     51349     51351
     51350     51351     51352     51353     51352     51354     51353     51354
     51355     51356     51355     51357     51356     51357     51358     51359
     51358     51360     51359     51360     51361     51362     51361     51363
     51362     51363     51364     51365     51364     51366     51365     51366
     51367     51368     51367     51369     51368     51369     51370     51371
     51370     51372     51371     51372     51373     51374     51373     51375
     51374     51375     51376     51377     51376     51378     51377     51378
     51379     51380     51379     51381     51380     51381     51382     51383
     51382     51384     51383     51384     51385     51386     51385     51387
     51386     51387     51388     51389     51388     51390     51389     51390
     51391     51392     51391     51393     51392     51393     51394     51395
     51394     51396     51395     51396     51397     51398     51397     51399
     51398     51399     51400     51401     51400     51402     51401     51402
     51403     51404     51403     51405     51404     51405     51406     51407
     51406     51408     51407     51408     51409     51410     51409     51411
     51410     51411     51412     51413     51412     51414     51413     51414
     51415     51416     51415     51417     51416     51417     51418     51419
     51418     51420     51419     51420     51421     51422     51421     51423
     51422     51423     51424     51425     51424     51426     51425     51426
     51427     51428     51427     51429     51428     51429     51430     51431
     51430     51432     51431     51432     51433     51434     51433     51435
     51434     51435     51436     51437     51436     51438     51437     51438
     51439     51440     51439     51441     51440     51441     51442     51443
     51442     51444     51443     51444     51445     51446     51445     51447
     51446     51447     51448     51449     51448     51450     51449     51450
     51451     51452     51451     51453     51452     51453     51454     51455
     51454     51456     51455     51456     51457     51458     51457     51459
     51458     51459     51460     51461     51460     51462     51461     51462
     51463     51464     51463     51465     51464     51465     51466     51467
     51466     51468     51467     51468     51469     51470     51469     51471
     51470     51471     51472     51473     51472     51474     51473     51474
     51475     51476     51475     51477     51476     51477     51478     51479
     51478     51480     51479     51480     51481     51482     51481     51483
     51482     51483     51484     51485     51484     51486     51485     51486
     51487     51488     51487     51489     51488     51489     51490     51491
     51490     51492     51491     51492     51493     51494     51493     51495
     51494     51495     51496     51497     51496     51498     51497     51498
     51499     51500     51499     51501     51500     51501     51502     51503
     51502     51504     51503     51504     51505     51506     51505     51507
     51506     51507     51508     51509     51508     51510     51509     51510
     51511     51512     51511     51513     51512     51513     51514     51515
     51514     51516     51515     51516     51517     51518     51517     51519
     51518     51519     51520     51521     51520     51522     51521     51522
     51523     51524     51523     51525     51524     51525     51526     51527
     51526     51528     51527     51528     51529     51530     51529     51531
     51530     51531     51532     51533     51532     51534     51533     51534
     51535     51536     51535     51537     51536     51537     51538     51539
     51538     51540     51539     51540     51541     51542     51541     51543
     51542     51543     51544     51545     51544     51546     51545     51546
     51547     51548     51547     51549     51548     51549     51550     51551
     51550     51552     51551     51552     51553     51554     51553     51555
     51554     51555     51556     51557     51556     51558     51557     51558
     51559     51560     51559     51561     51560     51561     51562     51563
     51562     51564     51563     51564     51565     51566     51565     51567
     51566     51567     51568     51569     51568     51570     51569     51570
     51571     51572     51571     51573     51572     51573     51574     51575
     51574     51576     51575     51576     51577     51578     51577     51579
     51578     51579     51580     51581     51580     51582     51581     51582
     51583     51584     51583     51585     51584     51585     51586     51587
     51586     51588     51587     51588     51589     51590     51589     51591
     51590     51591     51592     51593     51592     51594     51593     51594
     51595     51596     51595     51597     51596     51597     51598     51599
     51598     51600     51599     51600     51601     51602     51601     51603
     51602     51603     51604     51605     51604     51606     51605     51606
     51607     51608     51607     51609     51608     51609     51610     51611
     51610     51612     51611     51612     51613     51614     51613     51615
     51614     51615     51616     51617     51616     51618     51617     51618
     51619     51620     51619     51621     51620     51621     51622     51623
     51622     51624     51623     51624     51625     51626     51625     51627
     51626     51627     51628     51629     51628     51630     51629     51630
     51631     51632     51631     51633     51632     51633     51634     51635
     51634     51636     51635     51636     51637     51638     51637     51639
     51638     51639     51640     51641     51640     51642     51641     51642
     51643     51644     51643     51645     51644     51645     51646     51647
     51646     51648     51647     51648     51649     51650     51649     51651
     51650     51651     51652     51653     51652     51654     51653     51654
     51655     51656     51655     51657     51656     51657     51658     51659
     51658     51660     51659     51660     51661     51662     51661     51663
     51662     51663     51664     51665     51664     51666     51665     51666
     51667     51668     51667     51669     51668     51669     51670     51671
     51670     51672     51671     51672     51673     51674     51673     51675
     51674     51675     51676     51677     51676     51678     51677     51678
     51679     51680     51679     51681     51680     51681     51682     51683
     51682     51684     51683     51684     51685     51686     51685     51687
     51686     51687     51688     51689     51688     51690     51689     51690
     51691     51692     51691     51693     51692     51693     51694     51695
     51694     51696     51695     51696     51697     51698     51697     51699
     51698     51699     51700     51701     51700     51702     51701     51702
     51703     51704     51703     51705     51704     51705     51706     51707
     51706     51708     51707     51708     51709     51710     51709     51711
     51710     51711     51712     51713     51712     51714     51713     51714
     51715     51716     51715     51717     51716     51717     51718     51719
     51718     51720     51719     51720     51721     51722     51721     51723
     51722     51723     51724     51725     51724     51726     51725     51726
     51727     51728     51727     51729     51728     51729     51730     51731
     51730     51732     51731     51732     51733     51734     51733     51735
     51734     51735     51736     51737     51736     51738     51737     51738
     51739     51740     51739     51741     51740     51741     51742     51743
     51742     51744     51743     51744     51745     51746     51745     51747
     51746     51747     51748     51749     51748     51750     51749     51750
     51751     51752     51751     51753     51752     51753     51754     51755
     51754     51756     51755     51756     51757     51758     51757     51759
     51758     51759     51760     51761     51760     51762     51761     51762
     51763     51764     51763     51765     51764     51765     51766     51767
     51766     51768     51767     51768     51769     51770     51769     51771
     51770     51771     51772     51773     51772     51774     51773     51774
     51775     51776     51775     51777     51776     51777     51778     51779
     51778     51780     51779     51780     51781     51782     51781     51783
     51782     51783     51784     51785     51784     51786     51785     51786
     51787     51788     51787     51789     51788     51789     51790     51791
     51790     51792     51791     51792     51793     51794     51793     51795
     51794     51795     51796     51797     51796     51798     51797     51798
     51799     51800     51799     51801     51800     51801     51802     51803
     51802     51804     51803     51804     51805     51806     51805     51807
     51806     51807     51808     51809     51808     51810     51809     51810
     51811     51812     51811     51813     51812     51813     51814     51815
     51814     51816     51815     51816     51817     51818     51817     51819
     51818     51819     51820     51821     51820     51822     51821     51822
     51823     51824     51823     51825     51824     51825     51826     51827
     51826     51828     51827     51828     51829     51830     51829     51831
     51830     51831     51832     51833     51832     51834     51833     51834
     51835     51836     51835     51837     51836     51837     51838     51839
     51838     51840     51839     51840     51841     51842     51841     51843
     51842     51843     51844     51845     51844     51846     51845     51846
     51847     51848     51847     51849     51848     51849     51850     51851
     51850     51852     51851     51852     51853     51854     51853     51855
     51854     51855     51856     51857     51856     51858     51857     51858
     51859     51860     51859     51861     51860     51861     51862     51863
     51862     51864     51863     51864     51865     51866     51865     51867
     51866     51867     51868     51869     51868     51870     51869     51870
     51871     51872     51871     51873     51872     51873     51874     51875
     51874     51876     51875     51876     51877     51878     51877     51879
     51878     51879     51880     51881     51880     51882     51881     51882
     51883     51884     51883     51885     51884     51885     51886     51887
     51886     51888     51887     51888     51889     51890     51889     51891
     51890     51891     51892     51893     51892     51894     51893     51894
     51895     51896     51895     51897     51896     51897     51898     51899
     51898     51900     51899     51900     51901     51902     51901     51903
     51902     51903     51904     51905     51904     51906     51905     51906
     51907     51908     51907     51909     51908     51909     51910     51911
     51910     51912     51911     51912     51913     51914     51913     51915
     51914     51915     51916     51917     51916     51918     51917     51918
     51919     51920     51919     51921     51920     51921     51922     51923
     51922     51924     51923     51924     51925     51926     51925     51927
     51926     51927     51928     51929     51928     51930     51929     51930
     51931     51932     51931     51933     51932     51933     51934     51935
     51934     51936     51935     51936     51937     51938     51937     51939
     51938     51939     51940     51941     51940     51942     51941     51942
     51943     51944     51943     51945     51944     51945     51946     51947
     51946     51948     51947     51948     51949     51950     51949     51951
     51950     51951     51952     51953     51952     51954     51953     51954
     51955     51956     51955     51957     51956     51957     51958     51959
     51958     51960     51959     51960     51961     51962     51961     51963
     51962     51963     51964     51965     51964     51966     51965     51966
     51967     51968     51967     51969     51968     51969     51970     51971
     51970     51972     51971     51972     51973     51974     51973     51975
     51974     51975     51976     51977     51976     51978     51977     51978
     51979     51980     51979     51981     51980     51981     51982     51983
     51982     51984     51983     51984     51985     51986     51985     51987
     51986     51987     51988     51989     51988     51990     51989     51990
     51991     51992     51991     51993     51992     51993     51994     51995
     51994     51996     51995     51996     51997     51998     51997     51999
     51998     51999     52000     52001     52000     52002     52001     52002
     52003     52004     52003     52005     52004     52005     52006     52007
     52006     52008     52007     52008     52009     52010     52009     52011
     52010     52011     52012     52013     52012     52014     52013     52014
     52015     52016     52015     52017     52016     52017     52018     52019
     52018     52020     52019     52020     52021     52022     52021     52023
     52022     52023     52024     52025     52024     52026     52025     52026
     52027     52028     52027     52029     52028     52029     52030     52031
     52030     52032     52031     52032     52033     52034     52033     52035
     52034     52035     52036     52037     52036     52038     52037     52038
     52039     52040     52039     52041     52040     52041     52042     52043
     52042     52044     52043     52044     52045     52046     52045     52047
     52046     52047     52048     52049     52048     52050     52049     52050
     52051     52052     52051     52053     52052     52053     52054     52055
     52054     52056     52055     52056     52057     52058     52057     52059
     52058     52059     52060     52061     52060     52062     52061     52062
     52063     52064     52063     52065     52064     52065     52066     52067
     52066     52068     52067     52068     52069     52070     52069     52071
     52070     52071     52072     52073     52072     52074     52073     52074
     52075     52076     52075     52077     52076     52077     52078     52079
     52078     52080     52079     52080     52081     52082     52081     52083
     52082     52083     52084     52085     52084     52086     52085     52086
     52087     52088     52087     52089     52088     52089     52090     52091
     52090     52092     52091     52092     52093     52094     52093     52095
     52094     52095     52096     52097     52096     52098     52097     52098
     52099     52100     52099     52101     52100     52101     52102     52103
     52102     52104     52103     52104     52105     52106     52105     52107
     52106     52107     52108     52109     52108     52110     52109     52110
     52111     52112     52111     52113     52112     52113     52114     52115
     52114     52116     52115     52116     52117     52118     52117     52119
     52118     52119     52120     52121     52120     52122     52121     52122
     52123     52124     52123     52125     52124     52125     52126     52127
     52126     52128     52127     52128     52129     52130     52129     52131
     52130     52131     52132     52133     52132     52134     52133     52134
     52135     52136     52135     52137     52136     52137     52138     52139
     52138     52140     52139     52140     52141     52142     52141     52143
     52142     52143     52144     52145     52144     52146     52145     52146
     52147     52148     52147     52149     52148     52149     52150     52151
     52150     52152     52151     52152     52153     52154     52153     52155
     52154     52155     52156     52157     52156     52158     52157     52158
     52159     52160     52159     52161     52160     52161     52162     52163
     52162     52164     52163     52164     52165     52166     52165     52167
     52166     52167     52168     52169     52168     52170     52169     52170
     52171     52172     52171     52173     52172     52173     52174     52175
     52174     52176     52175     52176     52177     52178     52177     52179
     52178     52179     52180     52181     52180     52182     52181     52182
     52183     52184     52183     52185     52184     52185     52186     52187
     52186     52188     52187     52188     52189     52190     52189     52191
     52190     52191     52192     52193     52192     52194     52193     52194
     52195     52196     52195     52197     52196     52197     52198     52199
     52198     52200     52199     52200     52201     52202     52201     52203
     52202     52203     52204     52205     52204     52206     52205     52206
     52207     52208     52207     52209     52208     52209     52210     52211
     52210     52212     52211     52212     52213     52214     52213     52215
     52214     52215     52216     52217     52216     52218     52217     52218
     52219     52220     52219     52221     52220     52221     52222     52223
     52222     52224     52223     52224     52225     52226     52225     52227
     52226     52227     52228     52229     52228     52230     52229     52230
     52231     52232     52231     52233     52232     52233     52234     52235
     52234     52236     52235     52236     52237     52238     52237     52239
     52238     52239     52240     52241     52240     52242     52241     52242
     52243     52244     52243     52245     52244     52245     52246     52247
     52246     52248     52247     52248     52249     52250     52249     52251
     52250     52251     52252     52253     52252     52254     52253     52254
     52255     52256     52255     52257     52256     52257     52258     52259
     52258     52260     52259     52260     52261     52262     52261     52263
     52262     52263     52264     52265     52264     52266     52265     52266
     52267     52268     52267     52269     52268     52269     52270     52271
     52270     52272     52271     52272     52273     52274     52273     52275
     52274     52275     52276     52277     52276     52278     52277     52278
     52279     52280     52279     52281     52280     52281     52282     52283
     52282     52284     52283     52284     52285     52286     52285     52287
     52286     52287     52288     52289     52288     52290     52289     52290
     52291     52292     52291     52293     52292     52293     52294     52295
     52294     52296     52295     52296     52297     52298     52297     52299
     52298     52299     52300     52301     52300     52302     52301     52302
     52303     52304     52303     52305     52304     52305     52306     52307
     52306     52308     52307     52308     52309     52310     52309     52311
     52310     52311     52312     52313     52312     52314     52313     52314
     52315     52316     52315     52317     52316     52317     52318     52319
     52318     52320     52319     52320     52321     52322     52321     52323
     52322     52323     52324     52325     52324     52326     52325     52326
     52327     52328     52327     52329     52328     52329     52330     52331
     52330     52332     52331     52332     52333     52334     52333     52335
     52334     52335     52336     52337     52336     52338     52337     52338
     52339     52340     52339     52341     52340     52341     52342     52343
     52342     52344     52343     52344     52345     52346     52345     52347
     52346     52347     52348     52349     52348     52350     52349     52350
     52351     52352     52351     52353     52352     52353     52354     52355
     52354     52356     52355     52356     52357     52358     52357     52359
     52358     52359     52360     52361     52360     52362     52361     52362
     52363     52364     52363     52365     52364     52365     52366     52367
     52366     52368     52367     52368     52369     52370     52369     52371
     52370     52371     52372     52373     52372     52374     52373     52374
     52375     52376     52375     52377     52376     52377     52378     52379
     52378     52380     52379     52380     52381     52382     52381     52383
     52382     52383     52384     52385     52384     52386     52385     52386
     52387     52388     52387     52389     52388     52389     52390     52391
     52390     52392     52391     52392     52393     52394     52393     52395
     52394     52395     52396     52397     52396     52398     52397     52398
     52399     52400     52399     52401     52400     52401     52402     52403
     52402     52404     52403     52404     52405     52406     52405     52407
     52406     52407     52408     52409     52408     52410     52409     52410
     52411     52412     52411     52413     52412     52413     52414     52415
     52414     52416     52415     52416     52417     52418     52417     52419
     52418     52419     52420     52421     52420     52422     52421     52422
     52423     52424     52423     52425     52424     52425     52426     52427
     52426     52428     52427     52428     52429     52430     52429     52431
     52430     52431     52432     52433     52432     52434     52433     52434
     52435     52436     52435     52437     52436     52437     52438     52439
     52438     52440     52439     52440     52441     52442     52441     52443
     52442     52443     52444     52445     52444     52446     52445     52446
     52447     52448     52447     52449     52448     52449     52450     52451
     52450     52452     52451     52452     52453     52454     52453     52455
     52454     52455     52456     52457     52456     52458     52457     52458
     52459     52460     52459     52461     52460     52461     52462     52463
     52462     52464     52463     52464     52465     52466     52465     52467
     52466     52467     52468     52469     52468     52470     52469     52470
     52471     52472     52471     52473     52472     52473     52474     52475
     52474     52476     52475     52476     52477     52478     52477     52479
     52478     52479     52480     52481     52480     52482     52481     52482
     52483     52484     52483     52485     52484     52485     52486     52487
     52486     52488     52487     52488     52489     52490     52489     52491
     52490     52491     52492     52493     52492     52494     52493     52494
     52495     52496     52495     52497     52496     52497     52498     52499
     52498     52500     52499     52500     52501     52502     52501     52503
     52502     52503     52504     52505     52504     52506     52505     52506
     52507     52508     52507     52509     52508     52509     52510     52511
     52510     52512     52511     52512     52513     52514     52513     52515
     52514     52515     52516     52517     52516     52518     52517     52518
     52519     52520     52519     52521     52520     52521     52522     52523
     52522     52524     52523     52524     52525     52526     52525     52527
     52526     52527     52528     52529     52528     52530     52529     52530
     52531     52532     52531     52533     52532     52533     52534     52535
     52534     52536     52535     52536     52537     52538     52537     52539
     52538     52539     52540     52541     52540     52542     52541     52542
     52543     52544     52543     52545     52544     52545     52546     52547
     52546     52548     52547     52548     52549     52550     52549     52551
     52550     52551     52552     52553     52552     52554     52553     52554
     52555     52556     52555     52557     52556     52557     52558     52559
     52558     52560     52559     52560     52561     52562     52561     52563
     52562     52563     52564     52565     52564     52566     52565     52566
     52567     52568     52567     52569     52568     52569     52570     52571
     52570     52572     52571     52572     52573     52574     52573     52575
     52574     52575     52576     52577     52576     52578     52577     52578
     52579     52580     52579     52581     52580     52581     52582     52583
     52582     52584     52583     52584     52585     52586     52585     52587
     52586     52587     52588     52589     52588     52590     52589     52590
     52591     52592     52591     52593     52592     52593     52594     52595
     52594     52596     52595     52596     52597     52598     52597     52599
     52598     52599     52600     52601     52600     52602     52601     52602
     52603     52604     52603     52605     52604     52605     52606     52607
     52606     52608     52607     52608     52609     52610     52609     52611
     52610     52611     52612     52613     52612     52614     52613     52614
     52615     52616     52615     52617     52616     52617     52618     52619
     52618     52620     52619     52620     52621     52622     52621     52623
     52622     52623     52624     52625     52624     52626     52625     52626
     52627     52628     52627     52629     52628     52629     52630     52631
     52630     52632     52631     52632     52633     52634     52633     52635
     52634     52635     52636     52637     52636     52638     52637     52638
     52639     52640     52639     52641     52640     52641     52642     52643
     52642     52644     52643     52644     52645     52646     52645     52647
     52646     52647     52648     52649     52648     52650     52649     52650
     52651     52652     52651     52653     52652     52653     52654     52655
     52654     52656     52655     52656     52657     52658     52657     52659
     52658     52659     52660     52661     52660     52662     52661     52662
     52663     52664     52663     52665     52664     52665     52666     52667
     52666     52668     52667     52668     52669     52670     52669     52671
     52670     52671     52672     52673     52672     52674     52673     52674
     52675     52676     52675     52677     52676     52677     52678     52679
     52678     52680     52679     52680     52681     52682     52681     52683
     52682     52683     52684     52685     52684     52686     52685     52686
     52687     52688     52687     52689     52688     52689     52690     52691
     52690     52692     52691     52692     52693     52694     52693     52695
     52694     52695     52696     52697     52696     52698     52697     52698
     52699     52700     52699     52701     52700     52701     52702     52703
     52702     52704     52703     52704     52705     52706     52705     52707
     52706     52707     52708     52709     52708     52710     52709     52710
     52711     52712     52711     52713     52712     52713     52714     52715
     52714     52716     52715     52716     52717     52718     52717     52719
     52718     52719     52720     52721     52720     52722     52721     52722
     52723     52724     52723     52725     52724     52725     52726     52727
     52726     52728     52727     52728     52729     52730     52729     52731
     52730     52731     52732     52733     52732     52734     52733     52734
     52735     52736     52735     52737     52736     52737     52738     52739
     52738     52740     52739     52740     52741     52742     52741     52743
     52742     52743     52744     52745     52744     52746     52745     52746
     52747     52748     52747     52749     52748     52749     52750     52751
     52750     52752     52751     52752     52753     52754     52753     52755
     52754     52755     52756     52757     52756     52758     52757     52758
     52759     52760     52759     52761     52760     52761     52762     52763
     52762     52764     52763     52764     52765     52766     52765     52767
     52766     52767     52768     52769     52768     52770     52769     52770
     52771     52772     52771     52773     52772     52773     52774     52775
     52774     52776     52775     52776     52777     52778     52777     52779
     52778     52779     52780     52781     52780     52782     52781     52782
     52783     52784     52783     52785     52784     52785     52786     52787
     52786     52788     52787     52788     52789     52790     52789     52791
     52790     52791     52792     52793     52792     52794     52793     52794
     52795     52796     52795     52797     52796     52797     52798     52799
     52798     52800     52799     52800     52801     52802     52801     52803
     52802     52803     52804     52805     52804     52806     52805     52806
     52807     52808     52807     52809     52808     52809     52810     52811
     52810     52812     52811     52812     52813     52814     52813     52815
     52814     52815     52816     52817     52816     52818     52817     52818
     52819     52820     52819     52821     52820     52821     52822     52823
     52822     52824     52823     52824     52825     52826     52825     52827
     52826     52827     52828     52829     52828     52830     52829     52830
     52831     52832     52831     52833     52832     52833     52834     52835
     52834     52836     52835     52836     52837     52838     52837     52839
     52838     52839     52840     52841     52840     52842     52841     52842
     52843     52844     52843     52845     52844     52845     52846     52847
     52846     52848     52847     52848     52849     52850     52849     52851
     52850     52851     52852     52853     52852     52854     52853     52854
     52855     52856     52855     52857     52856     52857     52858     52859
     52858     52860     52859     52860     52861     52862     52861     52863
     52862     52863     52864     52865     52864     52866     52865     52866
     52867     52868     52867     52869     52868     52869     52870     52871
     52870     52872     52871     52872     52873     52874     52873     52875
     52874     52875     52876     52877     52876     52878     52877     52878
     52879     52880     52879     52881     52880     52881     52882     52883
     52882     52884     52883     52884     52885     52886     52885     52887
     52886     52887     52888     52889     52888     52890     52889     52890
     52891     52892     52891     52893     52892     52893     52894     52895
     52894     52896     52895     52896     52897     52898     52897     52899
     52898     52899     52900     52901     52900     52902     52901     52902
     52903     52904     52903     52905     52904     52905     52906     52907
     52906     52908     52907     52908     52909     52910     52909     52911
     52910     52911     52912     52913     52912     52914     52913     52914
     52915     52916     52915     52917     52916     52917     52918     52919
     52918     52920     52919     52920     52921     52922     52921     52923
     52922     52923     52924     52925     52924     52926     52925     52926
     52927     52928     52927     52929     52928     52929     52930     52931
     52930     52932     52931     52932     52933     52934     52933     52935
     52934     52935     52936     52937     52936     52938     52937     52938
     52939     52940     52939     52941     52940     52941     52942     52943
     52942     52944     52943     52944     52945     52946     52945     52947
     52946     52947     52948     52949     52948     52950     52949     52950
     52951     52952     52951     52953     52952     52953     52954     52955
     52954     52956     52955     52956     52957     52958     52957     52959
     52958     52959     52960     52961     52960     52962     52961     52962
     52963     52964     52963     52965     52964     52965     52966     52967
     52966     52968     52967     52968     52969     52970     52969     52971
     52970     52971     52972     52973     52972     52974     52973     52974
     52975     52976     52975     52977     52976     52977     52978     52979
     52978     52980     52979     52980     52981     52982     52981     52983
     52982     52983     52984     52985     52984     52986     52985     52986
     52987     52988     52987     52989     52988     52989     52990     52991
     52990     52992     52991     52992     52993     52994     52993     52995
     52994     52995     52996     52997     52996     52998     52997     52998
     52999     53000     52999     53001     53000     53001     53002     53003
     53002     53004     53003     53004     53005     53006     53005     53007
     53006     53007     53008     53009     53008     53010     53009     53010
     53011     53012     53011     53013     53012     53013     53014     53015
     53014     53016     53015     53016     53017     53018     53017     53019
     53018     53019     53020     53021     53020     53022     53021     53022
     53023     53024     53023     53025     53024     53025     53026     53027
     53026     53028     53027     53028     53029     53030     53029     53031
     53030     53031     53032     53033     53032     53034     53033     53034
     53035     53036     53035     53037     53036     53037     53038     53039
     53038     53040     53039     53040     53041     53042     53041     53043
     53042     53043     53044     53045     53044     53046     53045     53046
     53047     53048     53047     53049     53048     53049     53050     53051
     53050     53052     53051     53052     53053     53054     53053     53055
     53054     53055     53056     53057     53056     53058     53057     53058
     53059     53060     53059     53061     53060     53061     53062     53063
     53062     53064     53063     53064     53065     53066     53065     53067
     53066     53067     53068     53069     53068     53070     53069     53070
     53071     53072     53071     53073     53072     53073     53074     53075
     53074     53076     53075     53076     53077     53078     53077     53079
     53078     53079     53080     53081     53080     53082     53081     53082
     53083     53084     53083     53085     53084     53085     53086     53087
     53086     53088     53087     53088     53089     53090     53089     53091
     53090     53091     53092     53093     53092     53094     53093     53094
     53095     53096     53095     53097     53096     53097     53098     53099
     53098     53100     53099     53100     53101     53102     53101     53103
     53102     53103     53104     53105     53104     53106     53105     53106
     53107     53108     53107     53109     53108     53109     53110     53111
     53110     53112     53111     53112     53113     53114     53113     53115
     53114     53115     53116     53117     53116     53118     53117     53118
     53119     53120     53119     53121     53120     53121     53122     53123
     53122     53124     53123     53124     53125     53126     53125     53127
     53126     53127     53128     53129     53128     53130     53129     53130
     53131     53132     53131     53133     53132     53133     53134     53135
     53134     53136     53135     53136     53137     53138     53137     53139
     53138     53139     53140     53141     53140     53142     53141     53142
     53143     53144     53143     53145     53144     53145     53146     53147
     53146     53148     53147     53148     53149     53150     53149     53151
     53150     53151     53152     53153     53152     53154     53153     53154
     53155     53156     53155     53157     53156     53157     53158     53159
     53158     53160     53159     53160     53161     53162     53161     53163
     53162     53163     53164     53165     53164     53166     53165     53166
     53167     53168     53167     53169     53168     53169     53170     53171
     53170     53172     53171     53172     53173     53174     53173     53175
     53174     53175     53176     53177     53176     53178     53177     53178
     53179     53180     53179     53181     53180     53181     53182     53183
     53182     53184     53183     53184     53185     53186     53185     53187
     53186     53187     53188     53189     53188     53190     53189     53190
     53191     53192     53191     53193     53192     53193     53194     53195
     53194     53196     53195     53196     53197     53198     53197     53199
     53198     53199     53200     53201     53200     53202     53201     53202
     53203     53204     53203     53205     53204     53205     53206     53207
     53206     53208     53207     53208     53209     53210     53209     53211
     53210     53211     53212     53213     53212     53214     53213     53214
     53215     53216     53215     53217     53216     53217     53218     53219
     53218     53220     53219     53220     53221     53222     53221     53223
     53222     53223     53224     53225     53224     53226     53225     53226
     53227     53228     53227     53229     53228     53229     53230     53231
     53230     53232     53231     53232     53233     53234     53233     53235
     53234     53235     53236     53237     53236     53238     53237     53238
     53239     53240     53239     53241     53240     53241     53242     53243
     53242     53244     53243     53244     53245     53246     53245     53247
     53246     53247     53248     53249     53248     53250     53249     53250
     53251     53252     53251     53253     53252     53253     53254     53255
     53254     53256     53255     53256     53257     53258     53257     53259
     53258     53259     53260     53261     53260     53262     53261     53262
     53263     53264     53263     53265     53264     53265     53266     53267
     53266     53268     53267     53268     53269     53270     53269     53271
     53270     53271     53272     53273     53272     53274     53273     53274
     53275     53276     53275     53277     53276     53277     53278     53279
     53278     53280     53279     53280     53281     53282     53281     53283
     53282     53283     53284     53285     53284     53286     53285     53286
     53287     53288     53287     53289     53288     53289     53290     53291
     53290     53292     53291     53292     53293     53294     53293     53295
     53294     53295     53296     53297     53296     53298     53297     53298
     53299     53300     53299     53301     53300     53301     53302     53303
     53302     53304     53303     53304     53305     53306     53305     53307
     53306     53307     53308     53309     53308     53310     53309     53310
     53311     53312     53311     53313     53312     53313     53314     53315
     53314     53316     53315     53316     53317     53318     53317     53319
     53318     53319     53320     53321     53320     53322     53321     53322
     53323     53324     53323     53325     53324     53325     53326     53327
     53326     53328     53327     53328     53329     53330     53329     53331
     53330     53331     53332     53333     53332     53334     53333     53334
     53335     53336     53335     53337     53336     53337     53338     53339
     53338     53340     53339     53340     53341     53342     53341     53343
     53342     53343     53344     53345     53344     53346     53345     53346
     53347     53348     53347     53349     53348     53349     53350     53351
     53350     53352     53351     53352     53353     53354     53353     53355
     53354     53355     53356     53357     53356     53358     53357     53358
     53359     53360     53359     53361     53360     53361     53362     53363
     53362     53364     53363     53364     53365     53366     53365     53367
     53366     53367     53368     53369     53368     53370     53369     53370
     53371     53372     53371     53373     53372     53373     53374     53375
     53374     53376     53375     53376     53377     53378     53377     53379
     53378     53379     53380     53381     53380     53382     53381     53382
     53383     53384     53383     53385     53384     53385     53386     53387
     53386     53388     53387     53388     53389     53390     53389     53391
     53390     53391     53392     53393     53392     53394     53393     53394
     53395     53396     53395     53397     53396     53397     53398     53399
     53398     53400     53399     53400     53401     53402     53401     53403
     53402     53403     53404     53405     53404     53406     53405     53406
     53407     53408     53407     53409     53408     53409     53410     53411
     53410     53412     53411     53412     53413     53414     53413     53415
     53414     53415     53416     53417     53416     53418     53417     53418
     53419     53420     53419     53421     53420     53421     53422     53423
     53422     53424     53423     53424     53425     53426     53425     53427
     53426     53427     53428     53429     53428     53430     53429     53430
     53431     53432     53431     53433     53432     53433     53434     53435
     53434     53436     53435     53436     53437     53438     53437     53439
     53438     53439     53440     53441     53440     53442     53441     53442
     53443     53444     53443     53445     53444     53445     53446     53447
     53446     53448     53447     53448     53449     53450     53449     53451
     53450     53451     53452     53453     53452     53454     53453     53454
     53455     53456     53455     53457     53456     53457     53458     53459
     53458     53460     53459     53460     53461     53462     53461     53463
     53462     53463     53464     53465     53464     53466     53465     53466
     53467     53468     53467     53469     53468     53469     53470     53471
     53470     53472     53471     53472     53473     53474     53473     53475
     53474     53475     53476     53477     53476     53478     53477     53478
     53479     53480     53479     53481     53480     53481     53482     53483
     53482     53484     53483     53484     53485     53486     53485     53487
     53486     53487     53488     53489     53488     53490     53489     53490
     53491     53492     53491     53493     53492     53493     53494     53495
     53494     53496     53495     53496     53497     53498     53497     53499
     53498     53499     53500     53501     53500     53502     53501     53502
     53503     53504     53503     53505     53504     53505     53506     53507
     53506     53508     53507     53508     53509     53510     53509     53511
     53510     53511     53512     53513     53512     53514     53513     53514
     53515     53516     53515     53517     53516     53517     53518     53519
     53518     53520     53519     53520     53521     53522     53521     53523
     53522     53523     53524     53525     53524     53526     53525     53526
     53527     53528     53527     53529     53528     53529     53530     53531
     53530     53532     53531     53532     53533     53534     53533     53535
     53534     53535     53536     53537     53536     53538     53537     53538
     53539     53540     53539     53541     53540     53541     53542     53543
     53542     53544     53543     53544     53545     53546     53545     53547
     53546     53547     53548     53549     53548     53550     53549     53550
     53551     53552     53551     53553     53552     53553     53554     53555
     53554     53556     53555     53556     53557     53558     53557     53559
     53558     53559     53560     53561     53560     53562     53561     53562
     53563     53564     53563     53565     53564     53565     53566     53567
     53566     53568     53567     53568     53569     53570     53569     53571
     53570     53571     53572     53573     53572     53574     53573     53574
     53575     53576     53575     53577     53576     53577     53578     53579
     53578     53580     53579     53580     53581     53582     53581     53583
     53582     53583     53584     53585     53584     53586     53585     53586
     53587     53588     53587     53589     53588     53589     53590     53591
     53590     53592     53591     53592     53593     53594     53593     53595
     53594     53595     53596     53597     53596     53598     53597     53598
     53599     53600     53599     53601     53600     53601     53602     53603
     53602     53604     53603     53604     53605     53606     53605     53607
     53606     53607     53608     53609     53608     53610     53609     53610
     53611     53612     53611     53613     53612     53613     53614     53615
     53614     53616     53615     53616     53617     53618     53617     53619
     53618     53619     53620     53621     53620     53622     53621     53622
     53623     53624     53623     53625     53624     53625     53626     53627
     53626     53628     53627     53628     53629     53630     53629     53631
     53630     53631     53632     53633     53632     53634     53633     53634
     53635     53636     53635     53637     53636     53637     53638     53639
     53638     53640     53639     53640     53641     53642     53641     53643
     53642     53643     53644     53645     53644     53646     53645     53646
     53647     53648     53647     53649     53648     53649     53650     53651
     53650     53652     53651     53652     53653     53654     53653     53655
     53654     53655     53656     53657     53656     53658     53657     53658
     53659     53660     53659     53661     53660     53661     53662     53663
     53662     53664     53663     53664     53665     53666     53665     53667
     53666     53667     53668     53669     53668     53670     53669     53670
     53671     53672     53671     53673     53672     53673     53674     53675
     53674     53676     53675     53676     53677     53678     53677     53679
     53678     53679     53680     53681     53680     53682     53681     53682
     53683     53684     53683     53685     53684     53685     53686     53687
     53686     53688     53687     53688     53689     53690     53689     53691
     53690     53691     53692     53693     53692     53694     53693     53694
     53695     53696     53695     53697     53696     53697     53698     53699
     53698     53700     53699     53700     53701     53702     53701     53703
     53702     53703     53704     53705     53704     53706     53705     53706
     53707     53708     53707     53709     53708     53709     53710     53711
     53710     53712     53711     53712     53713     53714     53713     53715
     53714     53715     53716     53717     53716     53718     53717     53718
     53719     53720     53719     53721     53720     53721     53722     53723
     53722     53724     53723     53724     53725     53726     53725     53727
     53726     53727     53728     53729     53728     53730     53729     53730
     53731     53732     53731     53733     53732     53733     53734     53735
     53734     53736     53735     53736     53737     53738     53737     53739
     53738     53739     53740     53741     53740     53742     53741     53742
     53743     53744     53743     53745     53744     53745     53746     53747
     53746     53748     53747     53748     53749     53750     53749     53751
     53750     53751     53752     53753     53752     53754     53753     53754
     53755     53756     53755     53757     53756     53757     53758     53759
     53758     53760     53759     53760     53761     53762     53761     53763
     53762     53763     53764     53765     53764     53766     53765     53766
     53767     53768     53767     53769     53768     53769     53770     53771
     53770     53772     53771     53772     53773     53774     53773     53775
     53774     53775     53776     53777     53776     53778     53777     53778
     53779     53780     53779     53781     53780     53781     53782     53783
     53782     53784     53783     53784     53785     53786     53785     53787
     53786     53787     53788     53789     53788     53790     53789     53790
     53791     53792     53791     53793     53792     53793     53794     53795
     53794     53796     53795     53796     53797     53798     53797     53799
     53798     53799     53800     53801     53800     53802     53801     53802
     53803     53804     53803     53805     53804     53805     53806     53807
     53806     53808     53807     53808     53809     53810     53809     53811
     53810     53811     53812     53813     53812     53814     53813     53814
     53815     53816     53815     53817     53816     53817     53818     53819
     53818     53820     53819     53820     53821     53822     53821     53823
     53822     53823     53824     53825     53824     53826     53825     53826
     53827     53828     53827     53829     53828     53829     53830     53831
     53830     53832     53831     53832     53833     53834     53833     53835
     53834     53835     53836     53837     53836     53838     53837     53838
     53839     53840     53839     53841     53840     53841     53842     53843
     53842     53844     53843     53844     53845     53846     53845     53847
     53846     53847     53848     53849     53848     53850     53849     53850
     53851     53852     53851     53853     53852     53853     53854     53855
     53854     53856     53855     53856     53857     53858     53857     53859
     53858     53859     53860     53861     53860     53862     53861     53862
     53863     53864     53863     53865     53864     53865     53866     53867
     53866     53868     53867     53868     53869     53870     53869     53871
     53870     53871     53872     53873     53872     53874     53873     53874
     53875     53876     53875     53877     53876     53877     53878     53879
     53878     53880     53879     53880     53881     53882     53881     53883
     53882     53883     53884     53885     53884     53886     53885     53886
     53887     53888     53887     53889     53888     53889     53890     53891
     53890     53892     53891     53892     53893     53894     53893     53895
     53894     53895     53896     53897     53896     53898     53897     53898
     53899     53900     53899     53901     53900     53901     53902     53903
     53902     53904     53903     53904     53905     53906     53905     53907
     53906     53907     53908     53909     53908     53910     53909     53910
     53911     53912     53911     53913     53912     53913     53914     53915
     53914     53916     53915     53916     53917     53918     53917     53919
     53918     53919     53920     53921     53920     53922     53921     53922
     53923     53924     53923     53925     53924     53925     53926     53927
     53926     53928     53927     53928     53929     53930     53929     53931
     53930     53931     53932     53933     53932     53934     53933     53934
     53935     53936     53935     53937     53936     53937     53938     53939
     53938     53940     53939     53940     53941     53942     53941     53943
     53942     53943     53944     53945     53944     53946     53945     53946
     53947     53948     53947     53949     53948     53949     53950     53951
     53950     53952     53951     53952     53953     53954     53953     53955
     53954     53955     53956     53957     53956     53958     53957     53958
     53959     53960     53959     53961     53960     53961     53962     53963
     53962     53964     53963     53964     53965     53966     53965     53967
     53966     53967     53968     53969     53968     53970     53969     53970
     53971     53972     53971     53973     53972     53973     53974     53975
     53974     53976     53975     53976     53977     53978     53977     53979
     53978     53979     53980     53981     53980     53982     53981     53982
     53983     53984     53983     53985     53984     53985     53986     53987
     53986     53988     53987     53988     53989     53990     53989     53991
     53990     53991     53992     53993     53992     53994     53993     53994
     53995     53996     53995     53997     53996     53997     53998     53999
     53998     54000     53999     54000     54001     54002     54001     54003
     54002     54003     54004     54005     54004     54006     54005     54006
     54007     54008     54007     54009     54008     54009     54010     54011
     54010     54012     54011     54012     54013     54014     54013     54015
     54014     54015     54016     54017     54016     54018     54017     54018
     54019     54020     54019     54021     54020     54021     54022     54023
     54022     54024     54023     54024     54025     54026     54025     54027
     54026     54027     54028     54029     54028     54030     54029     54030
     54031     54032     54031     54033     54032     54033     54034     54035
     54034     54036     54035     54036     54037     54038     54037     54039
     54038     54039     54040     54041     54040     54042     54041     54042
     54043     54044     54043     54045     54044     54045     54046     54047
     54046     54048     54047     54048     54049     54050     54049     54051
     54050     54051     54052     54053     54052     54054     54053     54054
     54055     54056     54055     54057     54056     54057     54058     54059
     54058     54060     54059     54060     54061     54062     54061     54063
     54062     54063     54064     54065     54064     54066     54065     54066
     54067     54068     54067     54069     54068     54069     54070     54071
     54070     54072     54071     54072     54073     54074     54073     54075
     54074     54075     54076     54077     54076     54078     54077     54078
     54079     54080     54079     54081     54080     54081     54082     54083
     54082     54084     54083     54084     54085     54086     54085     54087
     54086     54087     54088     54089     54088     54090     54089     54090
     54091     54092     54091     54093     54092     54093     54094     54095
     54094     54096     54095     54096     54097     54098     54097     54099
     54098     54099     54100     54101     54100     54102     54101     54102
     54103     54104     54103     54105     54104     54105     54106     54107
     54106     54108     54107     54108     54109     54110     54109     54111
     54110     54111     54112     54113     54112     54114     54113     54114
     54115     54116     54115     54117     54116     54117     54118     54119
     54118     54120     54119     54120     54121     54122     54121     54123
     54122     54123     54124     54125     54124     54126     54125     54126
     54127     54128     54127     54129     54128     54129     54130     54131
     54130     54132     54131     54132     54133     54134     54133     54135
     54134     54135     54136     54137     54136     54138     54137     54138
     54139     54140     54139     54141     54140     54141     54142     54143
     54142     54144     54143     54144     54145     54146     54145     54147
     54146     54147     54148     54149     54148     54150     54149     54150
     54151     54152     54151     54153     54152     54153     54154     54155
     54154     54156     54155     54156     54157     54158     54157     54159
     54158     54159     54160     54161     54160     54162     54161     54162
     54163     54164     54163     54165     54164     54165     54166     54167
     54166     54168     54167     54168     54169     54170     54169     54171
     54170     54171     54172     54173     54172     54174     54173     54174
     54175     54176     54175     54177     54176     54177     54178     54179
     54178     54180     54179     54180     54181     54182     54181     54183
     54182     54183     54184     54185     54184     54186     54185     54186
     54187     54188     54187     54189     54188     54189     54190     54191
     54190     54192     54191     54192     54193     54194     54193     54195
     54194     54195     54196     54197     54196     54198     54197     54198
     54199     54200     54199     54201     54200     54201     54202     54203
     54202     54204     54203     54204     54205     54206     54205     54207
     54206     54207     54208     54209     54208     54210     54209     54210
     54211     54212     54211     54213     54212     54213     54214     54215
     54214     54216     54215     54216     54217     54218     54217     54219
     54218     54219     54220     54221     54220     54222     54221     54222
     54223     54224     54223     54225     54224     54225     54226     54227
     54226     54228     54227     54228     54229     54230     54229     54231
     54230     54231     54232     54233     54232     54234     54233     54234
     54235     54236     54235     54237     54236     54237     54238     54239
     54238     54240     54239     54240     54241     54242     54241     54243
     54242     54243     54244     54245     54244     54246     54245     54246
     54247     54248     54247     54249     54248     54249     54250     54251
     54250     54252     54251     54252     54253     54254     54253     54255
     54254     54255     54256     54257     54256     54258     54257     54258
     54259     54260     54259     54261     54260     54261     54262     54263
     54262     54264     54263     54264     54265     54266     54265     54267
     54266     54267     54268     54269     54268     54270     54269     54270
     54271     54272     54271     54273     54272     54273     54274     54275
     54274     54276     54275     54276     54277     54278     54277     54279
     54278     54279     54280     54281     54280     54282     54281     54282
     54283     54284     54283     54285     54284     54285     54286     54287
     54286     54288     54287     54288     54289     54290     54289     54291
     54290     54291     54292     54293     54292     54294     54293     54294
     54295     54296     54295     54297     54296     54297     54298     54299
     54298     54300     54299     54300     54301     54302     54301     54303
     54302     54303     54304     54305     54304     54306     54305     54306
     54307     54308     54307     54309     54308     54309     54310     54311
     54310     54312     54311     54312     54313     54314     54313     54315
     54314     54315     54316     54317     54316     54318     54317     54318
     54319     54320     54319     54321     54320     54321     54322     54323
     54322     54324     54323     54324     54325     54326     54325     54327
     54326     54327     54328     54329     54328     54330     54329     54330
     54331     54332     54331     54333     54332     54333     54334     54335
     54334     54336     54335     54336     54337     54338     54337     54339
     54338     54339     54340     54341     54340     54342     54341     54342
     54343     54344     54343     54345     54344     54345     54346     54347
     54346     54348     54347     54348     54349     54350     54349     54351
     54350     54351     54352     54353     54352     54354     54353     54354
     54355     54356     54355     54357     54356     54357     54358     54359
     54358     54360     54359     54360     54361     54362     54361     54363
     54362     54363     54364     54365     54364     54366     54365     54366
     54367     54368     54367     54369     54368     54369     54370     54371
     54370     54372     54371     54372     54373     54374     54373     54375
     54374     54375     54376     54377     54376     54378     54377     54378
     54379     54380     54379     54381     54380     54381     54382     54383
     54382     54384     54383     54384     54385     54386     54385     54387
     54386     54387     54388     54389     54388     54390     54389     54390
     54391     54392     54391     54393     54392     54393     54394     54395
     54394     54396     54395     54396     54397     54398     54397     54399
     54398     54399     54400     54401     54400     54402     54401     54402
     54403     54404     54403     54405     54404     54405     54406     54407
     54406     54408     54407     54408     54409     54410     54409     54411
     54410     54411     54412     54413     54412     54414     54413     54414
     54415     54416     54415     54417     54416     54417     54418     54419
     54418     54420     54419     54420     54421     54422     54421     54423
     54422     54423     54424     54425     54424     54426     54425     54426
     54427     54428     54427     54429     54428     54429     54430     54431
     54430     54432     54431     54432     54433     54434     54433     54435
     54434     54435     54436     54437     54436     54438     54437     54438
     54439     54440     54439     54441     54440     54441     54442     54443
     54442     54444     54443     54444     54445     54446     54445     54447
     54446     54447     54448     54449     54448     54450     54449     54450
     54451     54452     54451     54453     54452     54453     54454     54455
     54454     54456     54455     54456     54457     54458     54457     54459
     54458     54459     54460     54461     54460     54462     54461     54462
     54463     54464     54463     54465     54464     54465     54466     54467
     54466     54468     54467     54468     54469     54470     54469     54471
     54470     54471     54472     54473     54472     54474     54473     54474
     54475     54476     54475     54477     54476     54477     54478     54479
     54478     54480     54479     54480     54481     54482     54481     54483
     54482     54483     54484     54485     54484     54486     54485     54486
     54487     54488     54487     54489     54488     54489     54490     54491
     54490     54492     54491     54492     54493     54494     54493     54495
     54494     54495     54496     54497     54496     54498     54497     54498
     54499     54500     54499     54501     54500     54501     54502     54503
     54502     54504     54503     54504     54505     54506     54505     54507
     54506     54507     54508     54509     54508     54510     54509     54510
     54511     54512     54511     54513     54512     54513     54514     54515
     54514     54516     54515     54516     54517     54518     54517     54519
     54518     54519     54520     54521     54520     54522     54521     54522
     54523     54524     54523     54525     54524     54525     54526     54527
     54526     54528     54527     54528     54529     54530     54529     54531
     54530     54531     54532     54533     54532     54534     54533     54534
     54535     54536     54535     54537     54536     54537     54538     54539
     54538     54540     54539     54540     54541     54542     54541     54543
     54542     54543     54544     54545     54544     54546     54545     54546
     54547     54548     54547     54549     54548     54549     54550     54551
     54550     54552     54551     54552     54553     54554     54553     54555
     54554     54555     54556     54557     54556     54558     54557     54558
     54559     54560     54559     54561     54560     54561     54562     54563
     54562     54564     54563     54564     54565     54566     54565     54567
     54566     54567     54568     54569     54568     54570     54569     54570
     54571     54572     54571     54573     54572     54573     54574     54575
     54574     54576     54575     54576     54577     54578     54577     54579
     54578     54579     54580     54581     54580     54582     54581     54582
     54583     54584     54583     54585     54584     54585     54586     54587
     54586     54588     54587     54588     54589     54590     54589     54591
     54590     54591     54592     54593     54592     54594     54593     54594
     54595     54596     54595     54597     54596     54597     54598     54599
     54598     54600     54599     54600     54601     54602     54601     54603
     54602     54603     54604     54605     54604     54606     54605     54606
     54607     54608     54607     54609     54608     54609     54610     54611
     54610     54612     54611     54612     54613     54614     54613     54615
     54614     54615     54616     54617     54616     54618     54617     54618
     54619     54620     54619     54621     54620     54621     54622     54623
     54622     54624     54623     54624     54625     54626     54625     54627
     54626     54627     54628     54629     54628     54630     54629     54630
     54631     54632     54631     54633     54632     54633     54634     54635
     54634     54636     54635     54636     54637     54638     54637     54639
     54638     54639     54640     54641     54640     54642     54641     54642
     54643     54644     54643     54645     54644     54645     54646     54647
     54646     54648     54647     54648     54649     54650     54649     54651
     54650     54651     54652     54653     54652     54654     54653     54654
     54655     54656     54655     54657     54656     54657     54658     54659
     54658     54660     54659     54660     54661     54662     54661     54663
     54662     54663     54664     54665     54664     54666     54665     54666
     54667     54668     54667     54669     54668     54669     54670     54671
     54670     54672     54671     54672     54673     54674     54673     54675
     54674     54675     54676     54677     54676     54678     54677     54678
     54679     54680     54679     54681     54680     54681     54682     54683
     54682     54684     54683     54684     54685     54686     54685     54687
     54686     54687     54688     54689     54688     54690     54689     54690
     54691     54692     54691     54693     54692     54693     54694     54695
     54694     54696     54695     54696     54697     54698     54697     54699
     54698     54699     54700     54701     54700     54702     54701     54702
     54703     54704     54703     54705     54704     54705     54706     54707
     54706     54708     54707     54708     54709     54710     54709     54711
     54710     54711     54712     54713     54712     54714     54713     54714
     54715     54716     54715     54717     54716     54717     54718     54719
     54718     54720     54719     54720     54721     54722     54721     54723
     54722     54723     54724     54725     54724     54726     54725     54726
     54727     54728     54727     54729     54728     54729     54730     54731
     54730     54732     54731     54732     54733     54734     54733     54735
     54734     54735     54736     54737     54736     54738     54737     54738
     54739     54740     54739     54741     54740     54741     54742     54743
     54742     54744     54743     54744     54745     54746     54745     54747
     54746     54747     54748     54749     54748     54750     54749     54750
     54751     54752     54751     54753     54752     54753     54754     54755
     54754     54756     54755     54756     54757     54758     54757     54759
     54758     54759     54760     54761     54760     54762     54761     54762
     54763     54764     54763     54765     54764     54765     54766     54767
     54766     54768     54767     54768     54769     54770     54769     54771
     54770     54771     54772     54773     54772     54774     54773     54774
     54775     54776     54775     54777     54776     54777     54778     54779
     54778     54780     54779     54780     54781     54782     54781     54783
     54782     54783     54784     54785     54784     54786     54785     54786
     54787     54788     54787     54789     54788     54789     54790     54791
     54790     54792     54791     54792     54793     54794     54793     54795
     54794     54795     54796     54797     54796     54798     54797     54798
     54799     54800     54799     54801     54800     54801     54802     54803
     54802     54804     54803     54804     54805     54806     54805     54807
     54806     54807     54808     54809     54808     54810     54809     54810
     54811     54812     54811     54813     54812     54813     54814     54815
     54814     54816     54815     54816     54817     54818     54817     54819
     54818     54819     54820     54821     54820     54822     54821     54822
     54823     54824     54823     54825     54824     54825     54826     54827
     54826     54828     54827     54828     54829     54830     54829     54831
     54830     54831     54832     54833     54832     54834     54833     54834
     54835     54836     54835     54837     54836     54837     54838     54839
     54838     54840     54839     54840     54841     54842     54841     54843
     54842     54843     54844     54845     54844     54846     54845     54846
     54847     54848     54847     54849     54848     54849     54850     54851
     54850     54852     54851     54852     54853     54854     54853     54855
     54854     54855     54856     54857     54856     54858     54857     54858
     54859     54860     54859     54861     54860     54861     54862     54863
     54862     54864     54863     54864     54865     54866     54865     54867
     54866     54867     54868     54869     54868     54870     54869     54870
     54871     54872     54871     54873     54872     54873     54874     54875
     54874     54876     54875     54876     54877     54878     54877     54879
     54878     54879     54880     54881     54880     54882     54881     54882
     54883     54884     54883     54885     54884     54885     54886     54887
     54886     54888     54887     54888     54889     54890     54889     54891
     54890     54891     54892     54893     54892     54894     54893     54894
     54895     54896     54895     54897     54896     54897     54898     54899
     54898     54900     54899     54900     54901     54902     54901     54903
     54902     54903     54904     54905     54904     54906     54905     54906
     54907     54908     54907     54909     54908     54909     54910     54911
     54910     54912     54911     54912     54913     54914     54913     54915
     54914     54915     54916     54917     54916     54918     54917     54918
     54919     54920     54919     54921     54920     54921     54922     54923
     54922     54924     54923     54924     54925     54926     54925     54927
     54926     54927     54928     54929     54928     54930     54929     54930
     54931     54932     54931     54933     54932     54933     54934     54935
     54934     54936     54935     54936     54937     54938     54937     54939
     54938     54939     54940     54941     54940     54942     54941     54942
     54943     54944     54943     54945     54944     54945     54946     54947
     54946     54948     54947     54948     54949     54950     54949     54951
     54950     54951     54952     54953     54952     54954     54953     54954
     54955     54956     54955     54957     54956     54957     54958     54959
     54958     54960     54959     54960     54961     54962     54961     54963
     54962     54963     54964     54965     54964     54966     54965     54966
     54967     54968     54967     54969     54968     54969     54970     54971
     54970     54972     54971     54972     54973     54974     54973     54975
     54974     54975     54976     54977     54976     54978     54977     54978
     54979     54980     54979     54981     54980     54981     54982     54983
     54982     54984     54983     54984     54985     54986     54985     54987
     54986     54987     54988     54989     54988     54990     54989     54990
     54991     54992     54991     54993     54992     54993     54994     54995
     54994     54996     54995     54996     54997     54998     54997     54999
     54998     54999     55000     55001     55000     55002     55001     55002
     55003     55004     55003     55005     55004     55005     55006     55007
     55006     55008     55007     55008     55009     55010     55009     55011
     55010     55011     55012     55013     55012     55014     55013     55014
     55015     55016     55015     55017     55016     55017     55018     55019
     55018     55020     55019     55020     55021     55022     55021     55023
     55022     55023     55024     55025     55024     55026     55025     55026
     55027     55028     55027     55029     55028     55029     55030     55031
     55030     55032     55031     55032     55033     55034     55033     55035
     55034     55035     55036     55037     55036     55038     55037     55038
     55039     55040     55039     55041     55040     55041     55042     55043
     55042     55044     55043     55044     55045     55046     55045     55047
     55046     55047     55048     55049     55048     55050     55049     55050
     55051     55052     55051     55053     55052     55053     55054     55055
     55054     55056     55055     55056     55057     55058     55057     55059
     55058     55059     55060     55061     55060     55062     55061     55062
     55063     55064     55063     55065     55064     55065     55066     55067
     55066     55068     55067     55068     55069     55070     55069     55071
     55070     55071     55072     55073     55072     55074     55073     55074
     55075     55076     55075     55077     55076     55077     55078     55079
     55078     55080     55079     55080     55081     55082     55081     55083
     55082     55083     55084     55085     55084     55086     55085     55086
     55087     55088     55087     55089     55088     55089     55090     55091
     55090     55092     55091     55092     55093     55094     55093     55095
     55094     55095     55096     55097     55096     55098     55097     55098
     55099     55100     55099     55101     55100     55101     55102     55103
     55102     55104     55103     55104     55105     55106     55105     55107
     55106     55107     55108     55109     55108     55110     55109     55110
     55111     55112     55111     55113     55112     55113     55114     55115
     55114     55116     55115     55116     55117     55118     55117     55119
     55118     55119     55120     55121     55120     55122     55121     55122
     55123     55124     55123     55125     55124     55125     55126     55127
     55126     55128     55127     55128     55129     55130     55129     55131
     55130     55131     55132     55133     55132     55134     55133     55134
     55135     55136     55135     55137     55136     55137     55138     55139
     55138     55140     55139     55140     55141     55142     55141     55143
     55142     55143     55144     55145     55144     55146     55145     55146
     55147     55148     55147     55149     55148     55149     55150     55151
     55150     55152     55151     55152     55153     55154     55153     55155
     55154     55155     55156     55157     55156     55158     55157     55158
     55159     55160     55159     55161     55160     55161     55162     55163
     55162     55164     55163     55164     55165     55166     55165     55167
     55166     55167     55168     55169     55168     55170     55169     55170
     55171     55172     55171     55173     55172     55173     55174     55175
     55174     55176     55175     55176     55177     55178     55177     55179
     55178     55179     55180     55181     55180     55182     55181     55182
     55183     55184     55183     55185     55184     55185     55186     55187
     55186     55188     55187     55188     55189     55190     55189     55191
     55190     55191     55192     55193     55192     55194     55193     55194
     55195     55196     55195     55197     55196     55197     55198     55199
     55198     55200     55199     55200     55201     55202     55201     55203
     55202     55203     55204     55205     55204     55206     55205     55206
     55207     55208     55207     55209     55208     55209     55210     55211
     55210     55212     55211     55212     55213     55214     55213     55215
     55214     55215     55216     55217     55216     55218     55217     55218
     55219     55220     55219     55221     55220     55221     55222     55223
     55222     55224     55223     55224     55225     55226     55225     55227
     55226     55227     55228     55229     55228     55230     55229     55230
     55231     55232     55231     55233     55232     55233     55234     55235
     55234     55236     55235     55236     55237     55238     55237     55239
     55238     55239     55240     55241     55240     55242     55241     55242
     55243     55244     55243     55245     55244     55245     55246     55247
     55246     55248     55247     55248     55249     55250     55249     55251
     55250     55251     55252     55253     55252     55254     55253     55254
     55255     55256     55255     55257     55256     55257     55258     55259
     55258     55260     55259     55260     55261     55262     55261     55263
     55262     55263     55264     55265     55264     55266     55265     55266
     55267     55268     55267     55269     55268     55269     55270     55271
     55270     55272     55271     55272     55273     55274     55273     55275
     55274     55275     55276     55277     55276     55278     55277     55278
     55279     55280     55279     55281     55280     55281     55282     55283
     55282     55284     55283     55284     55285     55286     55285     55287
     55286     55287     55288     55289     55288     55290     55289     55290
     55291     55292     55291     55293     55292     55293     55294     55295
     55294     55296     55295     55296     55297     55298     55297     55299
     55298     55299     55300     55301     55300     55302     55301     55302
     55303     55304     55303     55305     55304     55305     55306     55307
     55306     55308     55307     55308     55309     55310     55309     55311
     55310     55311     55312     55313     55312     55314     55313     55314
     55315     55316     55315     55317     55316     55317     55318     55319
     55318     55320     55319     55320     55321     55322     55321     55323
     55322     55323     55324     55325     55324     55326     55325     55326
     55327     55328     55327     55329     55328     55329     55330     55331
     55330     55332     55331     55332     55333     55334     55333     55335
     55334     55335     55336     55337     55336     55338     55337     55338
     55339     55340     55339     55341     55340     55341     55342     55343
     55342     55344     55343     55344     55345     55346     55345     55347
     55346     55347     55348     55349     55348     55350     55349     55350
     55351     55352     55351     55353     55352     55353     55354     55355
     55354     55356     55355     55356     55357     55358     55357     55359
     55358     55359     55360     55361     55360     55362     55361     55362
     55363     55364     55363     55365     55364     55365     55366     55367
     55366     55368     55367     55368     55369     55370     55369     55371
     55370     55371     55372     55373     55372     55374     55373     55374
     55375     55376     55375     55377     55376     55377     55378     55379
     55378     55380     55379     55380     55381     55382     55381     55383
     55382     55383     55384     55385     55384     55386     55385     55386
     55387     55388     55387     55389     55388     55389     55390     55391
     55390     55392     55391     55392     55393     55394     55393     55395
     55394     55395     55396     55397     55396     55398     55397     55398
     55399     55400     55399     55401     55400     55401     55402     55403
     55402     55404     55403     55404     55405     55406     55405     55407
     55406     55407     55408     55409     55408     55410     55409     55410
     55411     55412     55411     55413     55412     55413     55414     55415
     55414     55416     55415     55416     55417     55418     55417     55419
     55418     55419     55420     55421     55420     55422     55421     55422
     55423     55424     55423     55425     55424     55425     55426     55427
     55426     55428     55427     55428     55429     55430     55429     55431
     55430     55431     55432     55433     55432     55434     55433     55434
     55435     55436     55435     55437     55436     55437     55438     55439
     55438     55440     55439     55440     55441     55442     55441     55443
     55442     55443     55444     55445     55444     55446     55445     55446
     55447     55448     55447     55449     55448     55449     55450     55451
     55450     55452     55451     55452     55453     55454     55453     55455
     55454     55455     55456     55457     55456     55458     55457     55458
     55459     55460     55459     55461     55460     55461     55462     55463
     55462     55464     55463     55464     55465     55466     55465     55467
     55466     55467     55468     55469     55468     55470     55469     55470
     55471     55472     55471     55473     55472     55473     55474     55475
     55474     55476     55475     55476     55477     55478     55477     55479
     55478     55479     55480     55481     55480     55482     55481     55482
     55483     55484     55483     55485     55484     55485     55486     55487
     55486     55488     55487     55488     55489     55490     55489     55491
     55490     55491     55492     55493     55492     55494     55493     55494
     55495     55496     55495     55497     55496     55497     55498     55499
     55498     55500     55499     55500     55501     55502     55501     55503
     55502     55503     55504     55505     55504     55506     55505     55506
     55507     55508     55507     55509     55508     55509     55510     55511
     55510     55512     55511     55512     55513     55514     55513     55515
     55514     55515     55516     55517     55516     55518     55517     55518
     55519     55520     55519     55521     55520     55521     55522     55523
     55522     55524     55523     55524     55525     55526     55525     55527
     55526     55527     55528     55529     55528     55530     55529     55530
     55531     55532     55531     55533     55532     55533     55534     55535
     55534     55536     55535     55536     55537     55538     55537     55539
     55538     55539     55540     55541     55540     55542     55541     55542
     55543     55544     55543     55545     55544     55545     55546     55547
     55546     55548     55547     55548     55549     55550     55549     55551
     55550     55551     55552     55553     55552     55554     55553     55554
     55555     55556     55555     55557     55556     55557     55558     55559
     55558     55560     55559     55560     55561     55562     55561     55563
     55562     55563     55564     55565     55564     55566     55565     55566
     55567     55568     55567     55569     55568     55569     55570     55571
     55570     55572     55571     55572     55573     55574     55573     55575
     55574     55575     55576     55577     55576     55578     55577     55578
     55579     55580     55579     55581     55580     55581     55582     55583
     55582     55584     55583     55584     55585     55586     55585     55587
     55586     55587     55588     55589     55588     55590     55589     55590
     55591     55592     55591     55593     55592     55593     55594     55595
     55594     55596     55595     55596     55597     55598     55597     55599
     55598     55599     55600     55601     55600     55602     55601     55602
     55603     55604     55603     55605     55604     55605     55606     55607
     55606     55608     55607     55608     55609     55610     55609     55611
     55610     55611     55612     55613     55612     55614     55613     55614
     55615     55616     55615     55617     55616     55617     55618     55619
     55618     55620     55619     55620     55621     55622     55621     55623
     55622     55623     55624     55625     55624     55626     55625     55626
     55627     55628     55627     55629     55628     55629     55630     55631
     55630     55632     55631     55632     55633     55634     55633     55635
     55634     55635     55636     55637     55636     55638     55637     55638
     55639     55640     55639     55641     55640     55641     55642     55643
     55642     55644     55643     55644     55645     55646     55645     55647
     55646     55647     55648     55649     55648     55650     55649     55650
     55651     55652     55651     55653     55652     55653     55654     55655
     55654     55656     55655     55656     55657     55658     55657     55659
     55658     55659     55660     55661     55660     55662     55661     55662
     55663     55664     55663     55665     55664     55665     55666     55667
     55666     55668     55667     55668     55669     55670     55669     55671
     55670     55671     55672     55673     55672     55674     55673     55674
     55675     55676     55675     55677     55676     55677     55678     55679
     55678     55680     55679     55680     55681     55682     55681     55683
     55682     55683     55684     55685     55684     55686     55685     55686
     55687     55688     55687     55689     55688     55689     55690     55691
     55690     55692     55691     55692     55693     55694     55693     55695
     55694     55695     55696     55697     55696     55698     55697     55698
     55699     55700     55699     55701     55700     55701     55702     55703
     55702     55704     55703     55704     55705     55706     55705     55707
     55706     55707     55708     55709     55708     55710     55709     55710
     55711     55712     55711     55713     55712     55713     55714     55715
     55714     55716     55715     55716     55717     55718     55717     55719
     55718     55719     55720     55721     55720     55722     55721     55722
     55723     55724     55723     55725     55724     55725     55726     55727
     55726     55728     55727     55728     55729     55730     55729     55731
     55730     55731     55732     55733     55732     55734     55733     55734
     55735     55736     55735     55737     55736     55737     55738     55739
     55738     55740     55739     55740     55741     55742     55741     55743
     55742     55743     55744     55745     55744     55746     55745     55746
     55747     55748     55747     55749     55748     55749     55750     55751
     55750     55752     55751     55752     55753     55754     55753     55755
     55754     55755     55756     55757     55756     55758     55757     55758
     55759     55760     55759     55761     55760     55761     55762     55763
     55762     55764     55763     55764     55765     55766     55765     55767
     55766     55767     55768     55769     55768     55770     55769     55770
     55771     55772     55771     55773     55772     55773     55774     55775
     55774     55776     55775     55776     55777     55778     55777     55779
     55778     55779     55780     55781     55780     55782     55781     55782
     55783     55784     55783     55785     55784     55785     55786     55787
     55786     55788     55787     55788     55789     55790     55789     55791
     55790     55791     55792     55793     55792     55794     55793     55794
     55795     55796     55795     55797     55796     55797     55798     55799
     55798     55800     55799     55800     55801     55802     55801     55803
     55802     55803     55804     55805     55804     55806     55805     55806
     55807     55808     55807     55809     55808     55809     55810     55811
     55810     55812     55811     55812     55813     55814     55813     55815
     55814     55815     55816     55817     55816     55818     55817     55818
     55819     55820     55819     55821     55820     55821     55822     55823
     55822     55824     55823     55824     55825     55826     55825     55827
     55826     55827     55828     55829     55828     55830     55829     55830
     55831     55832     55831     55833     55832     55833     55834     55835
     55834     55836     55835     55836     55837     55838     55837     55839
     55838     55839     55840     55841     55840     55842     55841     55842
     55843     55844     55843     55845     55844     55845     55846     55847
     55846     55848     55847     55848     55849     55850     55849     55851
     55850     55851     55852     55853     55852     55854     55853     55854
     55855     55856     55855     55857     55856     55857     55858     55859
     55858     55860     55859     55860     55861     55862     55861     55863
     55862     55863     55864     55865     55864     55866     55865     55866
     55867     55868     55867     55869     55868     55869     55870     55871
     55870     55872     55871     55872     55873     55874     55873     55875
     55874     55875     55876     55877     55876     55878     55877     55878
     55879     55880     55879     55881     55880     55881     55882     55883
     55882     55884     55883     55884     55885     55886     55885     55887
     55886     55887     55888     55889     55888     55890     55889     55890
     55891     55892     55891     55893     55892     55893     55894     55895
     55894     55896     55895     55896     55897     55898     55897     55899
     55898     55899     55900     55901     55900     55902     55901     55902
     55903     55904     55903     55905     55904     55905     55906     55907
     55906     55908     55907     55908     55909     55910     55909     55911
     55910     55911     55912     55913     55912     55914     55913     55914
     55915     55916     55915     55917     55916     55917     55918     55919
     55918     55920     55919     55920     55921     55922     55921     55923
     55922     55923     55924     55925     55924     55926     55925     55926
     55927     55928     55927     55929     55928     55929     55930     55931
     55930     55932     55931     55932     55933     55934     55933     55935
     55934     55935     55936     55937     55936     55938     55937     55938
     55939     55940     55939     55941     55940     55941     55942     55943
     55942     55944     55943     55944     55945     55946     55945     55947
     55946     55947     55948     55949     55948     55950     55949     55950
     55951     55952     55951     55953     55952     55953     55954     55955
     55954     55956     55955     55956     55957     55958     55957     55959
     55958     55959     55960     55961     55960     55962     55961     55962
     55963     55964     55963     55965     55964     55965     55966     55967
     55966     55968     55967     55968     55969     55970     55969     55971
     55970     55971     55972     55973     55972     55974     55973     55974
     55975     55976     55975     55977     55976     55977     55978     55979
     55978     55980     55979     55980     55981     55982     55981     55983
     55982     55983     55984     55985     55984     55986     55985     55986
     55987     55988     55987     55989     55988     55989     55990     55991
     55990     55992     55991     55992     55993     55994     55993     55995
     55994     55995     55996     55997     55996     55998     55997     55998
     55999     56000     55999     56001     56000     56001     56002     56003
     56002     56004     56003     56004     56005     56006     56005     56007
     56006     56007     56008     56009     56008     56010     56009     56010
     56011     56012     56011     56013     56012     56013     56014     56015
     56014     56016     56015     56016     56017     56018     56017     56019
     56018     56019     56020     56021     56020     56022     56021     56022
     56023     56024     56023     56025     56024     56025     56026     56027
     56026     56028     56027     56028     56029     56030     56029     56031
     56030     56031     56032     56033     56032     56034     56033     56034
     56035     56036     56035     56037     56036     56037     56038     56039
     56038     56040     56039     56040     56041     56042     56041     56043
     56042     56043     56044     56045     56044     56046     56045     56046
     56047     56048     56047     56049     56048     56049     56050     56051
     56050     56052     56051     56052     56053     56054     56053     56055
     56054     56055     56056     56057     56056     56058     56057     56058
     56059     56060     56059     56061     56060     56061     56062     56063
     56062     56064     56063     56064     56065     56066     56065     56067
     56066     56067     56068     56069     56068     56070     56069     56070
     56071     56072     56071     56073     56072     56073     56074     56075
     56074     56076     56075     56076     56077     56078     56077     56079
     56078     56079     56080     56081     56080     56082     56081     56082
     56083     56084     56083     56085     56084     56085     56086     56087
     56086     56088     56087     56088     56089     56090     56089     56091
     56090     56091     56092     56093     56092     56094     56093     56094
     56095     56096     56095     56097     56096     56097     56098     56099
     56098     56100     56099     56100     56101     56102     56101     56103
     56102     56103     56104     56105     56104     56106     56105     56106
     56107     56108     56107     56109     56108     56109     56110     56111
     56110     56112     56111     56112     56113     56114     56113     56115
     56114     56115     56116     56117     56116     56118     56117     56118
     56119     56120     56119     56121     56120     56121     56122     56123
     56122     56124     56123     56124     56125     56126     56125     56127
     56126     56127     56128     56129     56128     56130     56129     56130
     56131     56132     56131     56133     56132     56133     56134     56135
     56134     56136     56135     56136     56137     56138     56137     56139
     56138     56139     56140     56141     56140     56142     56141     56142
     56143     56144     56143     56145     56144     56145     56146     56147
     56146     56148     56147     56148     56149     56150     56149     56151
     56150     56151     56152     56153     56152     56154     56153     56154
     56155     56156     56155     56157     56156     56157     56158     56159
     56158     56160     56159     56160     56161     56162     56161     56163
     56162     56163     56164     56165     56164     56166     56165     56166
     56167     56168     56167     56169     56168     56169     56170     56171
     56170     56172     56171     56172     56173     56174     56173     56175
     56174     56175     56176     56177     56176     56178     56177     56178
     56179     56180     56179     56181     56180     56181     56182     56183
     56182     56184     56183     56184     56185     56186     56185     56187
     56186     56187     56188     56189     56188     56190     56189     56190
     56191     56192     56191     56193     56192     56193     56194     56195
     56194     56196     56195     56196     56197     56198     56197     56199
     56198     56199     56200     56201     56200     56202     56201     56202
     56203     56204     56203     56205     56204     56205     56206     56207
     56206     56208     56207     56208     56209     56210     56209     56211
     56210     56211     56212     56213     56212     56214     56213     56214
     56215     56216     56215     56217     56216     56217     56218     56219
     56218     56220     56219     56220     56221     56222     56221     56223
     56222     56223     56224     56225     56224     56226     56225     56226
     56227     56228     56227     56229     56228     56229     56230     56231
     56230     56232     56231     56232     56233     56234     56233     56235
     56234     56235     56236     56237     56236     56238     56237     56238
     56239     56240     56239     56241     56240     56241     56242     56243
     56242     56244     56243     56244     56245     56246     56245     56247
     56246     56247     56248     56249     56248     56250     56249     56250
     56251     56252     56251     56253     56252     56253     56254     56255
     56254     56256     56255     56256     56257     56258     56257     56259
     56258     56259     56260     56261     56260     56262     56261     56262
     56263     56264     56263     56265     56264     56265     56266     56267
     56266     56268     56267     56268     56269     56270     56269     56271
     56270     56271     56272     56273     56272     56274     56273     56274
     56275     56276     56275     56277     56276     56277     56278     56279
     56278     56280     56279     56280     56281     56282     56281     56283
     56282     56283     56284     56285     56284     56286     56285     56286
     56287     56288     56287     56289     56288     56289     56290     56291
     56290     56292     56291     56292     56293     56294     56293     56295
     56294     56295     56296     56297     56296     56298     56297     56298
     56299     56300     56299     56301     56300     56301     56302     56303
     56302     56304     56303     56304     56305     56306     56305     56307
     56306     56307     56308     56309     56308     56310     56309     56310
     56311     56312     56311     56313     56312     56313     56314     56315
     56314     56316     56315     56316     56317     56318     56317     56319
     56318     56319     56320     56321     56320     56322     56321     56322
     56323     56324     56323     56325     56324     56325     56326     56327
     56326     56328     56327     56328     56329     56330     56329     56331
     56330     56331     56332     56333     56332     56334     56333     56334
     56335     56336     56335     56337     56336     56337     56338     56339
     56338     56340     56339     56340     56341     56342     56341     56343
     56342     56343     56344     56345     56344     56346     56345     56346
     56347     56348     56347     56349     56348     56349     56350     56351
     56350     56352     56351     56352     56353     56354     56353     56355
     56354     56355     56356     56357     56356     56358     56357     56358
     56359     56360     56359     56361     56360     56361     56362     56363
     56362     56364     56363     56364     56365     56366     56365     56367
     56366     56367     56368     56369     56368     56370     56369     56370
     56371     56372     56371     56373     56372     56373     56374     56375
     56374     56376     56375     56376     56377     56378     56377     56379
     56378     56379     56380     56381     56380     56382     56381     56382
     56383     56384     56383     56385     56384     56385     56386     56387
     56386     56388     56387     56388     56389     56390     56389     56391
     56390     56391     56392     56393     56392     56394     56393     56394
     56395     56396     56395     56397     56396     56397     56398     56399
     56398     56400     56399     56400     56401     56402     56401     56403
     56402     56403     56404     56405     56404     56406     56405     56406
     56407     56408     56407     56409     56408     56409     56410     56411
     56410     56412     56411     56412     56413     56414     56413     56415
     56414     56415     56416     56417     56416     56418     56417     56418
     56419     56420     56419     56421     56420     56421     56422     56423
     56422     56424     56423     56424     56425     56426     56425     56427
     56426     56427     56428     56429     56428     56430     56429     56430
     56431     56432     56431     56433     56432     56433     56434     56435
     56434     56436     56435     56436     56437     56438     56437     56439
     56438     56439     56440     56441     56440     56442     56441     56442
     56443     56444     56443     56445     56444     56445     56446     56447
     56446     56448     56447     56448     56449     56450     56449     56451
     56450     56451     56452     56453     56452     56454     56453     56454
     56455     56456     56455     56457     56456     56457     56458     56459
     56458     56460     56459     56460     56461     56462     56461     56463
     56462     56463     56464     56465     56464     56466     56465     56466
     56467     56468     56467     56469     56468     56469     56470     56471
     56470     56472     56471     56472     56473     56474     56473     56475
     56474     56475     56476     56477     56476     56478     56477     56478
     56479     56480     56479     56481     56480     56481     56482     56483
     56482     56484     56483     56484     56485     56486     56485     56487
     56486     56487     56488     56489     56488     56490     56489     56490
     56491     56492     56491     56493     56492     56493     56494     56495
     56494     56496     56495     56496     56497     56498     56497     56499
     56498     56499     56500     56501     56500     56502     56501     56502
     56503     56504     56503     56505     56504     56505     56506     56507
     56506     56508     56507     56508     56509     56510     56509     56511
     56510     56511     56512     56513     56512     56514     56513     56514
     56515     56516     56515     56517     56516     56517     56518     56519
     56518     56520     56519     56520     56521     56522     56521     56523
     56522     56523     56524     56525     56524     56526     56525     56526
     56527     56528     56527     56529     56528     56529     56530     56531
     56530     56532     56531     56532     56533     56534     56533     56535
     56534     56535     56536     56537     56536     56538     56537     56538
     56539     56540     56539     56541     56540     56541     56542     56543
     56542     56544     56543     56544     56545     56546     56545     56547
     56546     56547     56548     56549     56548     56550     56549     56550
     56551     56552     56551     56553     56552     56553     56554     56555
     56554     56556     56555     56556     56557     56558     56557     56559
     56558     56559     56560     56561     56560     56562     56561     56562
     56563     56564     56563     56565     56564     56565     56566     56567
     56566     56568     56567     56568     56569     56570     56569     56571
     56570     56571     56572     56573     56572     56574     56573     56574
     56575     56576     56575     56577     56576     56577     56578     56579
     56578     56580     56579     56580     56581     56582     56581     56583
     56582     56583     56584     56585     56584     56586     56585     56586
     56587     56588     56587     56589     56588     56589     56590     56591
     56590     56592     56591     56592     56593     56594     56593     56595
     56594     56595     56596     56597     56596     56598     56597     56598
     56599     56600     56599     56601     56600     56601     56602     56603
     56602     56604     56603     56604     56605     56606     56605     56607
     56606     56607     56608     56609     56608     56610     56609     56610
     56611     56612     56611     56613     56612     56613     56614     56615
     56614     56616     56615     56616     56617     56618     56617     56619
     56618     56619     56620     56621     56620     56622     56621     56622
     56623     56624     56623     56625     56624     56625     56626     56627
     56626     56628     56627     56628     56629     56630     56629     56631
     56630     56631     56632     56633     56632     56634     56633     56634
     56635     56636     56635     56637     56636     56637     56638     56639
     56638     56640     56639     56640     56641     56642     56641     56643
     56642     56643     56644     56645     56644     56646     56645     56646
     56647     56648     56647     56649     56648     56649     56650     56651
     56650     56652     56651     56652     56653     56654     56653     56655
     56654     56655     56656     56657     56656     56658     56657     56658
     56659     56660     56659     56661     56660     56661     56662     56663
     56662     56664     56663     56664     56665     56666     56665     56667
     56666     56667     56668     56669     56668     56670     56669     56670
     56671     56672     56671     56673     56672     56673     56674     56675
     56674     56676     56675     56676     56677     56678     56677     56679
     56678     56679     56680     56681     56680     56682     56681     56682
     56683     56684     56683     56685     56684     56685     56686     56687
     56686     56688     56687     56688     56689     56690     56689     56691
     56690     56691     56692     56693     56692     56694     56693     56694
     56695     56696     56695     56697     56696     56697     56698     56699
     56698     56700     56699     56700     56701     56702     56701     56703
     56702     56703     56704     56705     56704     56706     56705     56706
     56707     56708     56707     56709     56708     56709     56710     56711
     56710     56712     56711     56712     56713     56714     56713     56715
     56714     56715     56716     56717     56716     56718     56717     56718
     56719     56720     56719     56721     56720     56721     56722     56723
     56722     56724     56723     56724     56725     56726     56725     56727
     56726     56727     56728     56729     56728     56730     56729     56730
     56731     56732     56731     56733     56732     56733     56734     56735
     56734     56736     56735     56736     56737     56738     56737     56739
     56738     56739     56740     56741     56740     56742     56741     56742
     56743     56744     56743     56745     56744     56745     56746     56747
     56746     56748     56747     56748     56749     56750     56749     56751
     56750     56751     56752     56753     56752     56754     56753     56754
     56755     56756     56755     56757     56756     56757     56758     56759
     56758     56760     56759     56760     56761     56762     56761     56763
     56762     56763     56764     56765     56764     56766     56765     56766
     56767     56768     56767     56769     56768     56769     56770     56771
     56770     56772     56771     56772     56773     56774     56773     56775
     56774     56775     56776     56777     56776     56778     56777     56778
     56779     56780     56779     56781     56780     56781     56782     56783
     56782     56784     56783     56784     56785     56786     56785     56787
     56786     56787     56788     56789     56788     56790     56789     56790
     56791     56792     56791     56793     56792     56793     56794     56795
     56794     56796     56795     56796     56797     56798     56797     56799
     56798     56799     56800     56801     56800     56802     56801     56802
     56803     56804     56803     56805     56804     56805     56806     56807
     56806     56808     56807     56808     56809     56810     56809     56811
     56810     56811     56812     56813     56812     56814     56813     56814
     56815     56816     56815     56817     56816     56817     56818     56819
     56818     56820     56819     56820     56821     56822     56821     56823
     56822     56823     56824     56825     56824     56826     56825     56826
     56827     56828     56827     56829     56828     56829     56830     56831
     56830     56832     56831     56832     56833     56834     56833     56835
     56834     56835     56836     56837     56836     56838     56837     56838
     56839     56840     56839     56841     56840     56841     56842     56843
     56842     56844     56843     56844     56845     56846     56845     56847
     56846     56847     56848     56849     56848     56850     56849     56850
     56851     56852     56851     56853     56852     56853     56854     56855
     56854     56856     56855     56856     56857     56858     56857     56859
     56858     56859     56860     56861     56860     56862     56861     56862
     56863     56864     56863     56865     56864     56865     56866     56867
     56866     56868     56867     56868     56869     56870     56869     56871
     56870     56871     56872     56873     56872     56874     56873     56874
     56875     56876     56875     56877     56876     56877     56878     56879
     56878     56880     56879     56880     56881     56882     56881     56883
     56882     56883     56884     56885     56884     56886     56885     56886
     56887     56888     56887     56889     56888     56889     56890     56891
     56890     56892     56891     56892     56893     56894     56893     56895
     56894     56895     56896     56897     56896     56898     56897     56898
     56899     56900     56899     56901     56900     56901     56902     56903
     56902     56904     56903     56904     56905     56906     56905     56907
     56906     56907     56908     56909     56908     56910     56909     56910
     56911     56912     56911     56913     56912     56913     56914     56915
     56914     56916     56915     56916     56917     56918     56917     56919
     56918     56919     56920     56921     56920     56922     56921     56922
     56923     56924     56923     56925     56924     56925     56926     56927
     56926     56928     56927     56928     56929     56930     56929     56931
     56930     56931     56932     56933     56932     56934     56933     56934
     56935     56936     56935     56937     56936     56937     56938     56939
     56938     56940     56939     56940     56941     56942     56941     56943
     56942     56943     56944     56945     56944     56946     56945     56946
     56947     56948     56947     56949     56948     56949     56950     56951
     56950     56952     56951     56952     56953     56954     56953     56955
     56954     56955     56956     56957     56956     56958     56957     56958
     56959     56960     56959     56961     56960     56961     56962     56963
     56962     56964     56963     56964     56965     56966     56965     56967
     56966     56967     56968     56969     56968     56970     56969     56970
     56971     56972     56971     56973     56972     56973     56974     56975
     56974     56976     56975     56976     56977     56978     56977     56979
     56978     56979     56980     56981     56980     56982     56981     56982
     56983     56984     56983     56985     56984     56985     56986     56987
     56986     56988     56987     56988     56989     56990     56989     56991
     56990     56991     56992     56993     56992     56994     56993     56994
     56995     56996     56995     56997     56996     56997     56998     56999
     56998     57000     56999     57000     57001     57002     57001     57003
     57002     57003     57004     57005     57004     57006     57005     57006
     57007     57008     57007     57009     57008     57009     57010     57011
     57010     57012     57011     57012     57013     57014     57013     57015
     57014     57015     57016     57017     57016     57018     57017     57018
     57019     57020     57019     57021     57020     57021     57022     57023
     57022     57024     57023     57024     57025     57026     57025     57027
     57026     57027     57028     57029     57028     57030     57029     57030
     57031     57032     57031     57033     57032     57033     57034     57035
     57034     57036     57035     57036     57037     57038     57037     57039
     57038     57039     57040     57041     57040     57042     57041     57042
     57043     57044     57043     57045     57044     57045     57046     57047
     57046     57048     57047     57048     57049     57050     57049     57051
     57050     57051     57052     57053     57052     57054     57053     57054
     57055     57056     57055     57057     57056     57057     57058     57059
     57058     57060     57059     57060     57061     57062     57061     57063
     57062     57063     57064     57065     57064     57066     57065     57066
     57067     57068     57067     57069     57068     57069     57070     57071
     57070     57072     57071     57072     57073     57074     57073     57075
     57074     57075     57076     57077     57076     57078     57077     57078
     57079     57080     57079     57081     57080     57081     57082     57083
     57082     57084     57083     57084     57085     57086     57085     57087
     57086     57087     57088     57089     57088     57090     57089     57090
     57091     57092     57091     57093     57092     57093     57094     57095
     57094     57096     57095     57096     57097     57098     57097     57099
     57098     57099     57100     57101     57100     57102     57101     57102
     57103     57104     57103     57105     57104     57105     57106     57107
     57106     57108     57107     57108     57109     57110     57109     57111
     57110     57111     57112     57113     57112     57114     57113     57114
     57115     57116     57115     57117     57116     57117     57118     57119
     57118     57120     57119     57120     57121     57122     57121     57123
     57122     57123     57124     57125     57124     57126     57125     57126
     57127     57128     57127     57129     57128     57129     57130     57131
     57130     57132     57131     57132     57133     57134     57133     57135
     57134     57135     57136     57137     57136     57138     57137     57138
     57139     57140     57139     57141     57140     57141     57142     57143
     57142     57144     57143     57144     57145     57146     57145     57147
     57146     57147     57148     57149     57148     57150     57149     57150
     57151     57152     57151     57153     57152     57153     57154     57155
     57154     57156     57155     57156     57157     57158     57157     57159
     57158     57159     57160     57161     57160     57162     57161     57162
     57163     57164     57163     57165     57164     57165     57166     57167
     57166     57168     57167     57168     57169     57170     57169     57171
     57170     57171     57172     57173     57172     57174     57173     57174
     57175     57176     57175     57177     57176     57177     57178     57179
     57178     57180     57179     57180     57181     57182     57181     57183
     57182     57183     57184     57185     57184     57186     57185     57186
     57187     57188     57187     57189     57188     57189     57190     57191
     57190     57192     57191     57192     57193     57194     57193     57195
     57194     57195     57196     57197     57196     57198     57197     57198
     57199     57200     57199     57201     57200     57201     57202     57203
     57202     57204     57203     57204     57205     57206     57205     57207
     57206     57207     57208     57209     57208     57210     57209     57210
     57211     57212     57211     57213     57212     57213     57214     57215
     57214     57216     57215     57216     57217     57218     57217     57219
     57218     57219     57220     57221     57220     57222     57221     57222
     57223     57224     57223     57225     57224     57225     57226     57227
     57226     57228     57227     57228     57229     57230     57229     57231
     57230     57231     57232     57233     57232     57234     57233     57234
     57235     57236     57235     57237     57236     57237     57238     57239
     57238     57240     57239     57240     57241     57242     57241     57243
     57242     57243     57244     57245     57244     57246     57245     57246
     57247     57248     57247     57249     57248     57249     57250     57251
     57250     57252     57251     57252     57253     57254     57253     57255
     57254     57255     57256     57257     57256     57258     57257     57258
     57259     57260     57259     57261     57260     57261     57262     57263
     57262     57264     57263     57264     57265     57266     57265     57267
     57266     57267     57268     57269     57268     57270     57269     57270
     57271     57272     57271     57273     57272     57273     57274     57275
     57274     57276     57275     57276     57277     57278     57277     57279
     57278     57279     57280     57281     57280     57282     57281     57282
     57283     57284     57283     57285     57284     57285     57286     57287
     57286     57288     57287     57288     57289     57290     57289     57291
     57290     57291     57292     57293     57292     57294     57293     57294
     57295     57296     57295     57297     57296     57297     57298     57299
     57298     57300     57299     57300     57301     57302     57301     57303
     57302     57303     57304     57305     57304     57306     57305     57306
     57307     57308     57307     57309     57308     57309     57310     57311
     57310     57312     57311     57312     57313     57314     57313     57315
     57314     57315     57316     57317     57316     57318     57317     57318
     57319     57320     57319     57321     57320     57321     57322     57323
     57322     57324     57323     57324     57325     57326     57325     57327
     57326     57327     57328     57329     57328     57330     57329     57330
     57331     57332     57331     57333     57332     57333     57334     57335
     57334     57336     57335     57336     57337     57338     57337     57339
     57338     57339     57340     57341     57340     57342     57341     57342
     57343     57344     57343     57345     57344     57345     57346     57347
     57346     57348     57347     57348     57349     57350     57349     57351
     57350     57351     57352     57353     57352     57354     57353     57354
     57355     57356     57355     57357     57356     57357     57358     57359
     57358     57360     57359     57360     57361     57362     57361     57363
     57362     57363     57364     57365     57364     57366     57365     57366
     57367     57368     57367     57369     57368     57369     57370     57371
     57370     57372     57371     57372     57373     57374     57373     57375
     57374     57375     57376     57377     57376     57378     57377     57378
     57379     57380     57379     57381     57380     57381     57382     57383
     57382     57384     57383     57384     57385     57386     57385     57387
     57386     57387     57388     57389     57388     57390     57389     57390
     57391     57392     57391     57393     57392     57393     57394     57395
     57394     57396     57395     57396     57397     57398     57397     57399
     57398     57399     57400     57401     57400     57402     57401     57402
     57403     57404     57403     57405     57404     57405     57406     57407
     57406     57408     57407     57408     57409     57410     57409     57411
     57410     57411     57412     57413     57412     57414     57413     57414
     57415     57416     57415     57417     57416     57417     57418     57419
     57418     57420     57419     57420     57421     57422     57421     57423
     57422     57423     57424     57425     57424     57426     57425     57426
     57427     57428     57427     57429     57428     57429     57430     57431
     57430     57432     57431     57432     57433     57434     57433     57435
     57434     57435     57436     57437     57436     57438     57437     57438
     57439     57440     57439     57441     57440     57441     57442     57443
     57442     57444     57443     57444     57445     57446     57445     57447
     57446     57447     57448     57449     57448     57450     57449     57450
     57451     57452     57451     57453     57452     57453     57454     57455
     57454     57456     57455     57456     57457     57458     57457     57459
     57458     57459     57460     57461     57460     57462     57461     57462
     57463     57464     57463     57465     57464     57465     57466     57467
     57466     57468     57467     57468     57469     57470     57469     57471
     57470     57471     57472     57473     57472     57474     57473     57474
     57475     57476     57475     57477     57476     57477     57478     57479
     57478     57480     57479     57480     57481     57482     57481     57483
     57482     57483     57484     57485     57484     57486     57485     57486
     57487     57488     57487     57489     57488     57489     57490     57491
     57490     57492     57491     57492     57493     57494     57493     57495
     57494     57495     57496     57497     57496     57498     57497     57498
     57499     57500     57499     57501     57500     57501     57502     57503
     57502     57504     57503     57504     57505     57506     57505     57507
     57506     57507     57508     57509     57508     57510     57509     57510
     57511     57512     57511     57513     57512     57513     57514     57515
     57514     57516     57515     57516     57517     57518     57517     57519
     57518     57519     57520     57521     57520     57522     57521     57522
     57523     57524     57523     57525     57524     57525     57526     57527
     57526     57528     57527     57528     57529     57530     57529     57531
     57530     57531     57532     57533     57532     57534     57533     57534
     57535     57536     57535     57537     57536     57537     57538     57539
     57538     57540     57539     57540     57541     57542     57541     57543
     57542     57543     57544     57545     57544     57546     57545     57546
     57547     57548     57547     57549     57548     57549     57550     57551
     57550     57552     57551     57552     57553     57554     57553     57555
     57554     57555     57556     57557     57556     57558     57557     57558
     57559     57560     57559     57561     57560     57561     57562     57563
     57562     57564     57563     57564     57565     57566     57565     57567
     57566     57567     57568     57569     57568     57570     57569     57570
     57571     57572     57571     57573     57572     57573     57574     57575
     57574     57576     57575     57576     57577     57578     57577     57579
     57578     57579     57580     57581     57580     57582     57581     57582
     57583     57584     57583     57585     57584     57585     57586     57587
     57586     57588     57587     57588     57589     57590     57589     57591
     57590     57591     57592     57593     57592     57594     57593     57594
     57595     57596     57595     57597     57596     57597     57598     57599
     57598     57600     57599     57600     57601     57602     57601     57603
     57602     57603     57604     57605     57604     57606     57605     57606
     57607     57608     57607     57609     57608     57609     57610     57611
     57610     57612     57611     57612     57613     57614     57613     57615
     57614     57615     57616     57617     57616     57618     57617     57618
     57619     57620     57619     57621     57620     57621     57622     57623
     57622     57624     57623     57624     57625     57626     57625     57627
     57626     57627     57628     57629     57628     57630     57629     57630
     57631     57632     57631     57633     57632     57633     57634     57635
     57634     57636     57635     57636     57637     57638     57637     57639
     57638     57639     57640     57641     57640     57642     57641     57642
     57643     57644     57643     57645     57644     57645     57646     57647
     57646     57648     57647     57648     57649     57650     57649     57651
     57650     57651     57652     57653     57652     57654     57653     57654
     57655     57656     57655     57657     57656     57657     57658     57659
     57658     57660     57659     57660     57661     57662     57661     57663
     57662     57663     57664     57665     57664     57666     57665     57666
     57667     57668     57667     57669     57668     57669     57670     57671
     57670     57672     57671     57672     57673     57674     57673     57675
     57674     57675     57676     57677     57676     57678     57677     57678
     57679     57680     57679     57681     57680     57681     57682     57683
     57682     57684     57683     57684     57685     57686     57685     57687
     57686     57687     57688     57689     57688     57690     57689     57690
     57691     57692     57691     57693     57692     57693     57694     57695
     57694     57696     57695     57696     57697     57698     57697     57699
     57698     57699     57700     57701     57700     57702     57701     57702
     57703     57704     57703     57705     57704     57705     57706     57707
     57706     57708     57707     57708     57709     57710     57709     57711
     57710     57711     57712     57713     57712     57714     57713     57714
     57715     57716     57715     57717     57716     57717     57718     57719
     57718     57720     57719     57720     57721     57722     57721     57723
     57722     57723     57724     57725     57724     57726     57725     57726
     57727     57728     57727     57729     57728     57729     57730     57731
     57730     57732     57731     57732     57733     57734     57733     57735
     57734     57735     57736     57737     57736     57738     57737     57738
     57739     57740     57739     57741     57740     57741     57742     57743
     57742     57744     57743     57744     57745     57746     57745     57747
     57746     57747     57748     57749     57748     57750     57749     57750
     57751     57752     57751     57753     57752     57753     57754     57755
     57754     57756     57755     57756     57757     57758     57757     57759
     57758     57759     57760     57761     57760     57762     57761     57762
     57763     57764     57763     57765     57764     57765     57766     57767
     57766     57768     57767     57768     57769     57770     57769     57771
     57770     57771     57772     57773     57772     57774     57773     57774
     57775     57776     57775     57777     57776     57777     57778     57779
     57778     57780     57779     57780     57781     57782     57781     57783
     57782     57783     57784     57785     57784     57786     57785     57786
     57787     57788     57787     57789     57788     57789     57790     57791
     57790     57792     57791     57792     57793     57794     57793     57795
     57794     57795     57796     57797     57796     57798     57797     57798
     57799     57800     57799     57801     57800     57801     57802     57803
     57802     57804     57803     57804     57805     57806     57805     57807
     57806     57807     57808     57809     57808     57810     57809     57810
     57811     57812     57811     57813     57812     57813     57814     57815
     57814     57816     57815     57816     57817     57818     57817     57819
     57818     57819     57820     57821     57820     57822     57821     57822
     57823     57824     57823     57825     57824     57825     57826     57827
     57826     57828     57827     57828     57829     57830     57829     57831
     57830     57831     57832     57833     57832     57834     57833     57834
     57835     57836     57835     57837     57836     57837     57838     57839
     57838     57840     57839     57840     57841     57842     57841     57843
     57842     57843     57844     57845     57844     57846     57845     57846
     57847     57848     57847     57849     57848     57849     57850     57851
     57850     57852     57851     57852     57853     57854     57853     57855
     57854     57855     57856     57857     57856     57858     57857     57858
     57859     57860     57859     57861     57860     57861     57862     57863
     57862     57864     57863     57864     57865     57866     57865     57867
     57866     57867     57868     57869     57868     57870     57869     57870
     57871     57872     57871     57873     57872     57873     57874     57875
     57874     57876     57875     57876     57877     57878     57877     57879
     57878     57879     57880     57881     57880     57882     57881     57882
     57883     57884     57883     57885     57884     57885     57886     57887
     57886     57888     57887     57888     57889     57890     57889     57891
     57890     57891     57892     57893     57892     57894     57893     57894
     57895     57896     57895     57897     57896     57897     57898     57899
     57898     57900     57899     57900     57901     57902     57901     57903
     57902     57903     57904     57905     57904     57906     57905     57906
     57907     57908     57907     57909     57908     57909     57910     57911
     57910     57912     57911     57912     57913     57914     57913     57915
     57914     57915     57916     57917     57916     57918     57917     57918
     57919     57920     57919     57921     57920     57921     57922     57923
     57922     57924     57923     57924     57925     57926     57925     57927
     57926     57927     57928     57929     57928     57930     57929     57930
     57931     57932     57931     57933     57932     57933     57934     57935
     57934     57936     57935     57936     57937     57938     57937     57939
     57938     57939     57940     57941     57940     57942     57941     57942
     57943     57944     57943     57945     57944     57945     57946     57947
     57946     57948     57947     57948     57949     57950     57949     57951
     57950     57951     57952     57953     57952     57954     57953     57954
     57955     57956     57955     57957     57956     57957     57958     57959
     57958     57960     57959     57960     57961     57962     57961     57963
     57962     57963     57964     57965     57964     57966     57965     57966
     57967     57968     57967     57969     57968     57969     57970     57971
     57970     57972     57971     57972     57973     57974     57973     57975
     57974     57975     57976     57977     57976     57978     57977     57978
     57979     57980     57979     57981     57980     57981     57982     57983
     57982     57984     57983     57984     57985     57986     57985     57987
     57986     57987     57988     57989     57988     57990     57989     57990
     57991     57992     57991     57993     57992     57993     57994     57995
     57994     57996     57995     57996     57997     57998     57997     57999
     57998     57999     58000     58001     58000     58002     58001     58002
     58003     58004     58003     58005     58004     58005     58006     58007
     58006     58008     58007     58008     58009     58010     58009     58011
     58010     58011     58012     58013     58012     58014     58013     58014
     58015     58016     58015     58017     58016     58017     58018     58019
     58018     58020     58019     58020     58021     58022     58021     58023
     58022     58023     58024     58025     58024     58026     58025     58026
     58027     58028     58027     58029     58028     58029     58030     58031
     58030     58032     58031     58032     58033     58034     58033     58035
     58034     58035     58036     58037     58036     58038     58037     58038
     58039     58040     58039     58041     58040     58041     58042     58043
     58042     58044     58043     58044     58045     58046     58045     58047
     58046     58047     58048     58049     58048     58050     58049     58050
     58051     58052     58051     58053     58052     58053     58054     58055
     58054     58056     58055     58056     58057     58058     58057     58059
     58058     58059     58060     58061     58060     58062     58061     58062
     58063     58064     58063     58065     58064     58065     58066     58067
     58066     58068     58067     58068     58069     58070     58069     58071
     58070     58071     58072     58073     58072     58074     58073     58074
     58075     58076     58075     58077     58076     58077     58078     58079
     58078     58080     58079     58080     58081     58082     58081     58083
     58082     58083     58084     58085     58084     58086     58085     58086
     58087     58088     58087     58089     58088     58089     58090     58091
     58090     58092     58091     58092     58093     58094     58093     58095
     58094     58095     58096     58097     58096     58098     58097     58098
     58099     58100     58099     58101     58100     58101     58102     58103
     58102     58104     58103     58104     58105     58106     58105     58107
     58106     58107     58108     58109     58108     58110     58109     58110
     58111     58112     58111     58113     58112     58113     58114     58115
     58114     58116     58115     58116     58117     58118     58117     58119
     58118     58119     58120     58121     58120     58122     58121     58122
     58123     58124     58123     58125     58124     58125     58126     58127
     58126     58128     58127     58128     58129     58130     58129     58131
     58130     58131     58132     58133     58132     58134     58133     58134
     58135     58136     58135     58137     58136     58137     58138     58139
     58138     58140     58139     58140     58141     58142     58141     58143
     58142     58143     58144     58145     58144     58146     58145     58146
     58147     58148     58147     58149     58148     58149     58150     58151
     58150     58152     58151     58152     58153     58154     58153     58155
     58154     58155     58156     58157     58156     58158     58157     58158
     58159     58160     58159     58161     58160     58161     58162     58163
     58162     58164     58163     58164     58165     58166     58165     58167
     58166     58167     58168     58169     58168     58170     58169     58170
     58171     58172     58171     58173     58172     58173     58174     58175
     58174     58176     58175     58176     58177     58178     58177     58179
     58178     58179     58180     58181     58180     58182     58181     58182
     58183     58184     58183     58185     58184     58185     58186     58187
     58186     58188     58187     58188     58189     58190     58189     58191
     58190     58191     58192     58193     58192     58194     58193     58194
     58195     58196     58195     58197     58196     58197     58198     58199
     58198     58200     58199     58200     58201     58202     58201     58203
     58202     58203     58204     58205     58204     58206     58205     58206
     58207     58208     58207     58209     58208     58209     58210     58211
     58210     58212     58211     58212     58213     58214     58213     58215
     58214     58215     58216     58217     58216     58218     58217     58218
     58219     58220     58219     58221     58220     58221     58222     58223
     58222     58224     58223     58224     58225     58226     58225     58227
     58226     58227     58228     58229     58228     58230     58229     58230
     58231     58232     58231     58233     58232     58233     58234     58235
     58234     58236     58235     58236     58237     58238     58237     58239
     58238     58239     58240     58241     58240     58242     58241     58242
     58243     58244     58243     58245     58244     58245     58246     58247
     58246     58248     58247     58248     58249     58250     58249     58251
     58250     58251     58252     58253     58252     58254     58253     58254
     58255     58256     58255     58257     58256     58257     58258     58259
     58258     58260     58259     58260     58261     58262     58261     58263
     58262     58263     58264     58265     58264     58266     58265     58266
     58267     58268     58267     58269     58268     58269     58270     58271
     58270     58272     58271     58272     58273     58274     58273     58275
     58274     58275     58276     58277     58276     58278     58277     58278
     58279     58280     58279     58281     58280     58281     58282     58283
     58282     58284     58283     58284     58285     58286     58285     58287
     58286     58287     58288     58289     58288     58290     58289     58290
     58291     58292     58291     58293     58292     58293     58294     58295
     58294     58296     58295     58296     58297     58298     58297     58299
     58298     58299     58300     58301     58300     58302     58301     58302
     58303     58304     58303     58305     58304     58305     58306     58307
     58306     58308     58307     58308     58309     58310     58309     58311
     58310     58311     58312     58313     58312     58314     58313     58314
     58315     58316     58315     58317     58316     58317     58318     58319
     58318     58320     58319     58320     58321     58322     58321     58323
     58322     58323     58324     58325     58324     58326     58325     58326
     58327     58328     58327     58329     58328     58329     58330     58331
     58330     58332     58331     58332     58333     58334     58333     58335
     58334     58335     58336     58337     58336     58338     58337     58338
     58339     58340     58339     58341     58340     58341     58342     58343
     58342     58344     58343     58344     58345     58346     58345     58347
     58346     58347     58348     58349     58348     58350     58349     58350
     58351     58352     58351     58353     58352     58353     58354     58355
     58354     58356     58355     58356     58357     58358     58357     58359
     58358     58359     58360     58361     58360     58362     58361     58362
     58363     58364     58363     58365     58364     58365     58366     58367
     58366     58368     58367     58368     58369     58370     58369     58371
     58370     58371     58372     58373     58372     58374     58373     58374
     58375     58376     58375     58377     58376     58377     58378     58379
     58378     58380     58379     58380     58381     58382     58381     58383
     58382     58383     58384     58385     58384     58386     58385     58386
     58387     58388     58387     58389     58388     58389     58390     58391
     58390     58392     58391     58392     58393     58394     58393     58395
     58394     58395     58396     58397     58396     58398     58397     58398
     58399     58400     58399     58401     58400     58401     58402     58403
     58402     58404     58403     58404     58405     58406     58405     58407
     58406     58407     58408     58409     58408     58410     58409     58410
     58411     58412     58411     58413     58412     58413     58414     58415
     58414     58416     58415     58416     58417     58418     58417     58419
     58418     58419     58420     58421     58420     58422     58421     58422
     58423     58424     58423     58425     58424     58425     58426     58427
     58426     58428     58427     58428     58429     58430     58429     58431
     58430     58431     58432     58433     58432     58434     58433     58434
     58435     58436     58435     58437     58436     58437     58438     58439
     58438     58440     58439     58440     58441     58442     58441     58443
     58442     58443     58444     58445     58444     58446     58445     58446
     58447     58448     58447     58449     58448     58449     58450     58451
     58450     58452     58451     58452     58453     58454     58453     58455
     58454     58455     58456     58457     58456     58458     58457     58458
     58459     58460     58459     58461     58460     58461     58462     58463
     58462     58464     58463     58464     58465     58466     58465     58467
     58466     58467     58468     58469     58468     58470     58469     58470
     58471     58472     58471     58473     58472     58473     58474     58475
     58474     58476     58475     58476     58477     58478     58477     58479
     58478     58479     58480     58481     58480     58482     58481     58482
     58483     58484     58483     58485     58484     58485     58486     58487
     58486     58488     58487     58488     58489     58490     58489     58491
     58490     58491     58492     58493     58492     58494     58493     58494
     58495     58496     58495     58497     58496     58497     58498     58499
     58498     58500     58499     58500     58501     58502     58501     58503
     58502     58503     58504     58505     58504     58506     58505     58506
     58507     58508     58507     58509     58508     58509     58510     58511
     58510     58512     58511     58512     58513     58514     58513     58515
     58514     58515     58516     58517     58516     58518     58517     58518
     58519     58520     58519     58521     58520     58521     58522     58523
     58522     58524     58523     58524     58525     58526     58525     58527
     58526     58527     58528     58529     58528     58530     58529     58530
     58531     58532     58531     58533     58532     58533     58534     58535
     58534     58536     58535     58536     58537     58538     58537     58539
     58538     58539     58540     58541     58540     58542     58541     58542
     58543     58544     58543     58545     58544     58545     58546     58547
     58546     58548     58547     58548     58549     58550     58549     58551
     58550     58551     58552     58553     58552     58554     58553     58554
     58555     58556     58555     58557     58556     58557     58558     58559
     58558     58560     58559     58560     58561     58562     58561     58563
     58562     58563     58564     58565     58564     58566     58565     58566
     58567     58568     58567     58569     58568     58569     58570     58571
     58570     58572     58571     58572     58573     58574     58573     58575
     58574     58575     58576     58577     58576     58578     58577     58578
     58579     58580     58579     58581     58580     58581     58582     58583
     58582     58584     58583     58584     58585     58586     58585     58587
     58586     58587     58588     58589     58588     58590     58589     58590
     58591     58592     58591     58593     58592     58593     58594     58595
     58594     58596     58595     58596     58597     58598     58597     58599
     58598     58599     58600     58601     58600     58602     58601     58602
     58603     58604     58603     58605     58604     58605     58606     58607
     58606     58608     58607     58608     58609     58610     58609     58611
     58610     58611     58612     58613     58612     58614     58613     58614
     58615     58616     58615     58617     58616     58617     58618     58619
     58618     58620     58619     58620     58621     58622     58621     58623
     58622     58623     58624     58625     58624     58626     58625     58626
     58627     58628     58627     58629     58628     58629     58630     58631
     58630     58632     58631     58632     58633     58634     58633     58635
     58634     58635     58636     58637     58636     58638     58637     58638
     58639     58640     58639     58641     58640     58641     58642     58643
     58642     58644     58643     58644     58645     58646     58645     58647
     58646     58647     58648     58649     58648     58650     58649     58650
     58651     58652     58651     58653     58652     58653     58654     58655
     58654     58656     58655     58656     58657     58658     58657     58659
     58658     58659     58660     58661     58660     58662     58661     58662
     58663     58664     58663     58665     58664     58665     58666     58667
     58666     58668     58667     58668     58669     58670     58669     58671
     58670     58671     58672     58673     58672     58674     58673     58674
     58675     58676     58675     58677     58676     58677     58678     58679
     58678     58680     58679     58680     58681     58682     58681     58683
     58682     58683     58684     58685     58684     58686     58685     58686
     58687     58688     58687     58689     58688     58689     58690     58691
     58690     58692     58691     58692     58693     58694     58693     58695
     58694     58695     58696     58697     58696     58698     58697     58698
     58699     58700     58699     58701     58700     58701     58702     58703
     58702     58704     58703     58704     58705     58706     58705     58707
     58706     58707     58708     58709     58708     58710     58709     58710
     58711     58712     58711     58713     58712     58713     58714     58715
     58714     58716     58715     58716     58717     58718     58717     58719
     58718     58719     58720     58721     58720     58722     58721     58722
     58723     58724     58723     58725     58724     58725     58726     58727
     58726     58728     58727     58728     58729     58730     58729     58731
     58730     58731     58732     58733     58732     58734     58733     58734
     58735     58736     58735     58737     58736     58737     58738     58739
     58738     58740     58739     58740     58741     58742     58741     58743
     58742     58743     58744     58745     58744     58746     58745     58746
     58747     58748     58747     58749     58748     58749     58750     58751
     58750     58752     58751     58752     58753     58754     58753     58755
     58754     58755     58756     58757     58756     58758     58757     58758
     58759     58760     58759     58761     58760     58761     58762     58763
     58762     58764     58763     58764     58765     58766     58765     58767
     58766     58767     58768     58769     58768     58770     58769     58770
     58771     58772     58771     58773     58772     58773     58774     58775
     58774     58776     58775     58776     58777     58778     58777     58779
     58778     58779     58780     58781     58780     58782     58781     58782
     58783     58784     58783     58785     58784     58785     58786     58787
     58786     58788     58787     58788     58789     58790     58789     58791
     58790     58791     58792     58793     58792     58794     58793     58794
     58795     58796     58795     58797     58796     58797     58798     58799
     58798     58800     58799     58800     58801     58802     58801     58803
     58802     58803     58804     58805     58804     58806     58805     58806
     58807     58808     58807     58809     58808     58809     58810     58811
     58810     58812     58811     58812     58813     58814     58813     58815
     58814     58815     58816     58817     58816     58818     58817     58818
     58819     58820     58819     58821     58820     58821     58822     58823
     58822     58824     58823     58824     58825     58826     58825     58827
     58826     58827     58828     58829     58828     58830     58829     58830
     58831     58832     58831     58833     58832     58833     58834     58835
     58834     58836     58835     58836     58837     58838     58837     58839
     58838     58839     58840     58841     58840     58842     58841     58842
     58843     58844     58843     58845     58844     58845     58846     58847
     58846     58848     58847     58848     58849     58850     58849     58851
     58850     58851     58852     58853     58852     58854     58853     58854
     58855     58856     58855     58857     58856     58857     58858     58859
     58858     58860     58859     58860     58861     58862     58861     58863
     58862     58863     58864     58865     58864     58866     58865     58866
     58867     58868     58867     58869     58868     58869     58870     58871
     58870     58872     58871     58872     58873     58874     58873     58875
     58874     58875     58876     58877     58876     58878     58877     58878
     58879     58880     58879     58881     58880     58881     58882     58883
     58882     58884     58883     58884     58885     58886     58885     58887
     58886     58887     58888     58889     58888     58890     58889     58890
     58891     58892     58891     58893     58892     58893     58894     58895
     58894     58896     58895     58896     58897     58898     58897     58899
     58898     58899     58900     58901     58900     58902     58901     58902
     58903     58904     58903     58905     58904     58905     58906     58907
     58906     58908     58907     58908     58909     58910     58909     58911
     58910     58911     58912     58913     58912     58914     58913     58914
     58915     58916     58915     58917     58916     58917     58918     58919
     58918     58920     58919     58920     58921     58922     58921     58923
     58922     58923     58924     58925     58924     58926     58925     58926
     58927     58928     58927     58929     58928     58929     58930     58931
     58930     58932     58931     58932     58933     58934     58933     58935
     58934     58935     58936     58937     58936     58938     58937     58938
     58939     58940     58939     58941     58940     58941     58942     58943
     58942     58944     58943     58944     58945     58946     58945     58947
     58946     58947     58948     58949     58948     58950     58949     58950
     58951     58952     58951     58953     58952     58953     58954     58955
     58954     58956     58955     58956     58957     58958     58957     58959
     58958     58959     58960     58961     58960     58962     58961     58962
     58963     58964     58963     58965     58964     58965     58966     58967
     58966     58968     58967     58968     58969     58970     58969     58971
     58970     58971     58972     58973     58972     58974     58973     58974
     58975     58976     58975     58977     58976     58977     58978     58979
     58978     58980     58979     58980     58981     58982     58981     58983
     58982     58983     58984     58985     58984     58986     58985     58986
     58987     58988     58987     58989     58988     58989     58990     58991
     58990     58992     58991     58992     58993     58994     58993     58995
     58994     58995     58996     58997     58996     58998     58997     58998
     58999     59000     58999     59001     59000     59001     59002     59003
     59002     59004     59003     59004     59005     59006     59005     59007
     59006     59007     59008     59009     59008     59010     59009     59010
     59011     59012     59011     59013     59012     59013     59014     59015
     59014     59016     59015     59016     59017     59018     59017     59019
     59018     59019     59020     59021     59020     59022     59021     59022
     59023     59024     59023     59025     59024     59025     59026     59027
     59026     59028     59027     59028     59029     59030     59029     59031
     59030     59031     59032     59033     59032     59034     59033     59034
     59035     59036     59035     59037     59036     59037     59038     59039
     59038     59040     59039     59040     59041     59042     59041     59043
     59042     59043     59044     59045     59044     59046     59045     59046
     59047     59048     59047     59049     59048     59049     59050     59051
     59050     59052     59051     59052     59053     59054     59053     59055
     59054     59055     59056     59057     59056     59058     59057     59058
     59059     59060     59059     59061     59060     59061     59062     59063
     59062     59064     59063     59064     59065     59066     59065     59067
     59066     59067     59068     59069     59068     59070     59069     59070
     59071     59072     59071     59073     59072     59073     59074     59075
     59074     59076     59075     59076     59077     59078     59077     59079
     59078     59079     59080     59081     59080     59082     59081     59082
     59083     59084     59083     59085     59084     59085     59086     59087
     59086     59088     59087     59088     59089     59090     59089     59091
     59090     59091     59092     59093     59092     59094     59093     59094
     59095     59096     59095     59097     59096     59097     59098     59099
     59098     59100     59099     59100     59101     59102     59101     59103
     59102     59103     59104     59105     59104     59106     59105     59106
     59107     59108     59107     59109     59108     59109     59110     59111
     59110     59112     59111     59112     59113     59114     59113     59115
     59114     59115     59116     59117     59116     59118     59117     59118
     59119     59120     59119     59121     59120     59121     59122     59123
     59122     59124     59123     59124     59125     59126     59125     59127
     59126     59127     59128     59129     59128     59130     59129     59130
     59131     59132     59131     59133     59132     59133     59134     59135
     59134     59136     59135     59136     59137     59138     59137     59139
     59138     59139     59140     59141     59140     59142     59141     59142
     59143     59144     59143     59145     59144     59145     59146     59147
     59146     59148     59147     59148     59149     59150     59149     59151
     59150     59151     59152     59153     59152     59154     59153     59154
     59155     59156     59155     59157     59156     59157     59158     59159
     59158     59160     59159     59160     59161     59162     59161     59163
     59162     59163     59164     59165     59164     59166     59165     59166
     59167     59168     59167     59169     59168     59169     59170     59171
     59170     59172     59171     59172     59173     59174     59173     59175
     59174     59175     59176     59177     59176     59178     59177     59178
     59179     59180     59179     59181     59180     59181     59182     59183
     59182     59184     59183     59184     59185     59186     59185     59187
     59186     59187     59188     59189     59188     59190     59189     59190
     59191     59192     59191     59193     59192     59193     59194     59195
     59194     59196     59195     59196     59197     59198     59197     59199
     59198     59199     59200     59201     59200     59202     59201     59202
     59203     59204     59203     59205     59204     59205     59206     59207
     59206     59208     59207     59208     59209     59210     59209     59211
     59210     59211     59212     59213     59212     59214     59213     59214
     59215     59216     59215     59217     59216     59217     59218     59219
     59218     59220     59219     59220     59221     59222     59221     59223
     59222     59223     59224     59225     59224     59226     59225     59226
     59227     59228     59227     59229     59228     59229     59230     59231
     59230     59232     59231     59232     59233     59234     59233     59235
     59234     59235     59236     59237     59236     59238     59237     59238
     59239     59240     59239     59241     59240     59241     59242     59243
     59242     59244     59243     59244     59245     59246     59245     59247
     59246     59247     59248     59249     59248     59250     59249     59250
     59251     59252     59251     59253     59252     59253     59254     59255
     59254     59256     59255     59256     59257     59258     59257     59259
     59258     59259     59260     59261     59260     59262     59261     59262
     59263     59264     59263     59265     59264     59265     59266     59267
     59266     59268     59267     59268     59269     59270     59269     59271
     59270     59271     59272     59273     59272     59274     59273     59274
     59275     59276     59275     59277     59276     59277     59278     59279
     59278     59280     59279     59280     59281     59282     59281     59283
     59282     59283     59284     59285     59284     59286     59285     59286
     59287     59288     59287     59289     59288     59289     59290     59291
     59290     59292     59291     59292     59293     59294     59293     59295
     59294     59295     59296     59297     59296     59298     59297     59298
     59299     59300     59299     59301     59300     59301     59302     59303
     59302     59304     59303     59304     59305     59306     59305     59307
     59306     59307     59308     59309     59308     59310     59309     59310
     59311     59312     59311     59313     59312     59313     59314     59315
     59314     59316     59315     59316     59317     59318     59317     59319
     59318     59319     59320     59321     59320     59322     59321     59322
     59323     59324     59323     59325     59324     59325     59326     59327
     59326     59328     59327     59328     59329     59330     59329     59331
     59330     59331     59332     59333     59332     59334     59333     59334
     59335     59336     59335     59337     59336     59337     59338     59339
     59338     59340     59339     59340     59341     59342     59341     59343
     59342     59343     59344     59345     59344     59346     59345     59346
     59347     59348     59347     59349     59348     59349     59350     59351
     59350     59352     59351     59352     59353     59354     59353     59355
     59354     59355     59356     59357     59356     59358     59357     59358
     59359     59360     59359     59361     59360     59361     59362     59363
     59362     59364     59363     59364     59365     59366     59365     59367
     59366     59367     59368     59369     59368     59370     59369     59370
     59371     59372     59371     59373     59372     59373     59374     59375
     59374     59376     59375     59376     59377     59378     59377     59379
     59378     59379     59380     59381     59380     59382     59381     59382
     59383     59384     59383     59385     59384     59385     59386     59387
     59386     59388     59387     59388     59389     59390     59389     59391
     59390     59391     59392     59393     59392     59394     59393     59394
     59395     59396     59395     59397     59396     59397     59398     59399
     59398     59400     59399     59400     59401     59402     59401     59403
     59402     59403     59404     59405     59404     59406     59405     59406
     59407     59408     59407     59409     59408     59409     59410     59411
     59410     59412     59411     59412     59413     59414     59413     59415
     59414     59415     59416     59417     59416     59418     59417     59418
     59419     59420     59419     59421     59420     59421     59422     59423
     59422     59424     59423     59424     59425     59426     59425     59427
     59426     59427     59428     59429     59428     59430     59429     59430
     59431     59432     59431     59433     59432     59433     59434     59435
     59434     59436     59435     59436     59437     59438     59437     59439
     59438     59439     59440     59441     59440     59442     59441     59442
     59443     59444     59443     59445     59444     59445     59446     59447
     59446     59448     59447     59448     59449     59450     59449     59451
     59450     59451     59452     59453     59452     59454     59453     59454
     59455     59456     59455     59457     59456     59457     59458     59459
     59458     59460     59459     59460     59461     59462     59461     59463
     59462     59463     59464     59465     59464     59466     59465     59466
     59467     59468     59467     59469     59468     59469     59470     59471
     59470     59472     59471     59472     59473     59474     59473     59475
     59474     59475     59476     59477     59476     59478     59477     59478
     59479     59480     59479     59481     59480     59481     59482     59483
     59482     59484     59483     59484     59485     59486     59485     59487
     59486     59487     59488     59489     59488     59490     59489     59490
     59491     59492     59491     59493     59492     59493     59494     59495
     59494     59496     59495     59496     59497     59498     59497     59499
     59498     59499     59500     59501     59500     59502     59501     59502
     59503     59504     59503     59505     59504     59505     59506     59507
     59506     59508     59507     59508     59509     59510     59509     59511
     59510     59511     59512     59513     59512     59514     59513     59514
     59515     59516     59515     59517     59516     59517     59518     59519
     59518     59520     59519     59520     59521     59522     59521     59523
     59522     59523     59524     59525     59524     59526     59525     59526
     59527     59528     59527     59529     59528     59529     59530     59531
     59530     59532     59531     59532     59533     59534     59533     59535
     59534     59535     59536     59537     59536     59538     59537     59538
     59539     59540     59539     59541     59540     59541     59542     59543
     59542     59544     59543     59544     59545     59546     59545     59547
     59546     59547     59548     59549     59548     59550     59549     59550
     59551     59552     59551     59553     59552     59553     59554     59555
     59554     59556     59555     59556     59557     59558     59557     59559
     59558     59559     59560     59561     59560     59562     59561     59562
     59563     59564     59563     59565     59564     59565     59566     59567
     59566     59568     59567     59568     59569     59570     59569     59571
     59570     59571     59572     59573     59572     59574     59573     59574
     59575     59576     59575     59577     59576     59577     59578     59579
     59578     59580     59579     59580     59581     59582     59581     59583
     59582     59583     59584     59585     59584     59586     59585     59586
     59587     59588     59587     59589     59588     59589     59590     59591
     59590     59592     59591     59592     59593     59594     59593     59595
     59594     59595     59596     59597     59596     59598     59597     59598
     59599     59600     59599     59601     59600     59601     59602     59603
     59602     59604     59603     59604     59605     59606     59605     59607
     59606     59607     59608     59609     59608     59610     59609     59610
     59611     59612     59611     59613     59612     59613     59614     59615
     59614     59616     59615     59616     59617     59618     59617     59619
     59618     59619     59620     59621     59620     59622     59621     59622
     59623     59624     59623     59625     59624     59625     59626     59627
     59626     59628     59627     59628     59629     59630     59629     59631
     59630     59631     59632     59633     59632     59634     59633     59634
     59635     59636     59635     59637     59636     59637     59638     59639
     59638     59640     59639     59640     59641     59642     59641     59643
     59642     59643     59644     59645     59644     59646     59645     59646
     59647     59648     59647     59649     59648     59649     59650     59651
     59650     59652     59651     59652     59653     59654     59653     59655
     59654     59655     59656     59657     59656     59658     59657     59658
     59659     59660     59659     59661     59660     59661     59662     59663
     59662     59664     59663     59664     59665     59666     59665     59667
     59666     59667     59668     59669     59668     59670     59669     59670
     59671     59672     59671     59673     59672     59673     59674     59675
     59674     59676     59675     59676     59677     59678     59677     59679
     59678     59679     59680     59681     59680     59682     59681     59682
     59683     59684     59683     59685     59684     59685     59686     59687
     59686     59688     59687     59688     59689     59690     59689     59691
     59690     59691     59692     59693     59692     59694     59693     59694
     59695     59696     59695     59697     59696     59697     59698     59699
     59698     59700     59699     59700     59701     59702     59701     59703
     59702     59703     59704     59705     59704     59706     59705     59706
     59707     59708     59707     59709     59708     59709     59710     59711
     59710     59712     59711     59712     59713     59714     59713     59715
     59714     59715     59716     59717     59716     59718     59717     59718
     59719     59720     59719     59721     59720     59721     59722     59723
     59722     59724     59723     59724     59725     59726     59725     59727
     59726     59727     59728     59729     59728     59730     59729     59730
     59731     59732     59731     59733     59732     59733     59734     59735
     59734     59736     59735     59736     59737     59738     59737     59739
     59738     59739     59740     59741     59740     59742     59741     59742
     59743     59744     59743     59745     59744     59745     59746     59747
     59746     59748     59747     59748     59749     59750     59749     59751
     59750     59751     59752     59753     59752     59754     59753     59754
     59755     59756     59755     59757     59756     59757     59758     59759
     59758     59760     59759     59760     59761     59762     59761     59763
     59762     59763     59764     59765     59764     59766     59765     59766
     59767     59768     59767     59769     59768     59769     59770     59771
     59770     59772     59771     59772     59773     59774     59773     59775
     59774     59775     59776     59777     59776     59778     59777     59778
     59779     59780     59779     59781     59780     59781     59782     59783
     59782     59784     59783     59784     59785     59786     59785     59787
     59786     59787     59788     59789     59788     59790     59789     59790
     59791     59792     59791     59793     59792     59793     59794     59795
     59794     59796     59795     59796     59797     59798     59797     59799
     59798     59799     59800     59801     59800     59802     59801     59802
     59803     59804     59803     59805     59804     59805     59806     59807
     59806     59808     59807     59808     59809     59810     59809     59811
     59810     59811     59812     59813     59812     59814     59813     59814
     59815     59816     59815     59817     59816     59817     59818     59819
     59818     59820     59819     59820     59821     59822     59821     59823
     59822     59823     59824     59825     59824     59826     59825     59826
     59827     59828     59827     59829     59828     59829     59830     59831
     59830     59832     59831     59832     59833     59834     59833     59835
     59834     59835     59836     59837     59836     59838     59837     59838
     59839     59840     59839     59841     59840     59841     59842     59843
     59842     59844     59843     59844     59845     59846     59845     59847
     59846     59847     59848     59849     59848     59850     59849     59850
     59851     59852     59851     59853     59852     59853     59854     59855
     59854     59856     59855     59856     59857     59858     59857     59859
     59858     59859     59860     59861     59860     59862     59861     59862
     59863     59864     59863     59865     59864     59865     59866     59867
     59866     59868     59867     59868     59869     59870     59869     59871
     59870     59871     59872     59873     59872     59874     59873     59874
     59875     59876     59875     59877     59876     59877     59878     59879
     59878     59880     59879     59880     59881     59882     59881     59883
     59882     59883     59884     59885     59884     59886     59885     59886
     59887     59888     59887     59889     59888     59889     59890     59891
     59890     59892     59891     59892     59893     59894     59893     59895
     59894     59895     59896     59897     59896     59898     59897     59898
     59899     59900     59899     59901     59900     59901     59902     59903
     59902     59904     59903     59904     59905     59906     59905     59907
     59906     59907     59908     59909     59908     59910     59909     59910
     59911     59912     59911     59913     59912     59913     59914     59915
     59914     59916     59915     59916     59917     59918     59917     59919
     59918     59919     59920     59921     59920     59922     59921     59922
     59923     59924     59923     59925     59924     59925     59926     59927
     59926     59928     59927     59928     59929     59930     59929     59931
     59930     59931     59932     59933     59932     59934     59933     59934
     59935     59936     59935     59937     59936     59937     59938     59939
     59938     59940     59939     59940     59941     59942     59941     59943
     59942     59943     59944     59945     59944     59946     59945     59946
     59947     59948     59947     59949     59948     59949     59950     59951
     59950     59952     59951     59952     59953     59954     59953     59955
     59954     59955     59956     59957     59956     59958     59957     59958
     59959     59960     59959     59961     59960     59961     59962     59963
     59962     59964     59963     59964     59965     59966     59965     59967
     59966     59967     59968     59969     59968     59970     59969     59970
     59971     59972     59971     59973     59972     59973     59974     59975
     59974     59976     59975     59976     59977     59978     59977     59979
     59978     59979     59980     59981     59980     59982     59981     59982
     59983     59984     59983     59985     59984     59985     59986     59987
     59986     59988     59987     59988     59989     59990     59989     59991
     59990     59991     59992     59993     59992     59994     59993     59994
     59995     59996     59995     59997     59996     59997     59998     59999
     59998     60000     59999     60000     60001     60002     60001     60003
     60002     60003     60004     60005     60004     60006     60005     60006
     60007     60008     60007     60009     60008     60009     60010     60011
     60010     60012     60011     60012     60013     60014     60013     60015
     60014     60015     60016     60017     60016     60018     60017     60018
     60019     60020     60019     60021     60020     60021     60022     60023
     60022     60024     60023     60024     60025     60026     60025     60027
     60026     60027     60028     60029     60028     60030     60029     60030
     60031     60032     60031     60033     60032     60033     60034     60035
     60034     60036     60035     60036     60037     60038     60037     60039
     60038     60039     60040     60041     60040     60042     60041     60042
     60043     60044     60043     60045     60044     60045     60046     60047
     60046     60048     60047     60048     60049     60050     60049     60051
     60050     60051     60052     60053     60052     60054     60053     60054
     60055     60056     60055     60057     60056     60057     60058     60059
     60058     60060     60059     60060     60061     60062     60061     60063
     60062     60063     60064     60065     60064     60066     60065     60066
     60067     60068     60067     60069     60068     60069     60070     60071
     60070     60072     60071     60072     60073     60074     60073     60075
     60074     60075     60076     60077     60076     60078     60077     60078
     60079     60080     60079     60081     60080     60081     60082     60083
     60082     60084     60083     60084     60085     60086     60085     60087
     60086     60087     60088     60089     60088     60090     60089     60090
     60091     60092     60091     60093     60092     60093     60094     60095
     60094     60096     60095     60096     60097     60098     60097     60099
     60098     60099     60100     60101     60100     60102     60101     60102
     60103     60104     60103     60105     60104     60105     60106     60107
     60106     60108     60107     60108     60109     60110     60109     60111
     60110     60111     60112     60113     60112     60114     60113     60114
     60115     60116     60115     60117     60116     60117     60118     60119
     60118     60120     60119     60120     60121     60122     60121     60123
     60122     60123     60124     60125     60124     60126     60125     60126
     60127     60128     60127     60129     60128     60129     60130     60131
     60130     60132     60131     60132     60133     60134     60133     60135
     60134     60135     60136     60137     60136     60138     60137     60138
     60139     60140     60139     60141     60140     60141     60142     60143
     60142     60144     60143     60144     60145     60146     60145     60147
     60146     60147     60148     60149     60148     60150     60149     60150
     60151     60152     60151     60153     60152     60153     60154     60155
     60154     60156     60155     60156     60157     60158     60157     60159
     60158     60159     60160     60161     60160     60162     60161     60162
     60163     60164     60163     60165     60164     60165     60166     60167
     60166     60168     60167     60168     60169     60170     60169     60171
     60170     60171     60172     60173     60172     60174     60173     60174
     60175     60176     60175     60177     60176     60177     60178     60179
     60178     60180     60179     60180     60181     60182     60181     60183
     60182     60183     60184     60185     60184     60186     60185     60186
     60187     60188     60187     60189     60188     60189     60190     60191
     60190     60192     60191     60192     60193     60194     60193     60195
     60194     60195     60196     60197     60196     60198     60197     60198
     60199     60200     60199     60201     60200     60201     60202     60203
     60202     60204     60203     60204     60205     60206     60205     60207
     60206     60207     60208     60209     60208     60210     60209     60210
     60211     60212     60211     60213     60212     60213     60214     60215
     60214     60216     60215     60216     60217     60218     60217     60219
     60218     60219     60220     60221     60220     60222     60221     60222
     60223     60224     60223     60225     60224     60225     60226     60227
     60226     60228     60227     60228     60229     60230     60229     60231
     60230     60231     60232     60233     60232     60234     60233     60234
     60235     60236     60235     60237     60236     60237     60238     60239
     60238     60240     60239     60240     60241     60242     60241     60243
     60242     60243     60244     60245     60244     60246     60245     60246
     60247     60248     60247     60249     60248     60249     60250     60251
     60250     60252     60251     60252     60253     60254     60253     60255
     60254     60255     60256     60257     60256     60258     60257     60258
     60259     60260     60259     60261     60260     60261     60262     60263
     60262     60264     60263     60264     60265     60266     60265     60267
     60266     60267     60268     60269     60268     60270     60269     60270
     60271     60272     60271     60273     60272     60273     60274     60275
     60274     60276     60275     60276     60277     60278     60277     60279
     60278     60279     60280     60281     60280     60282     60281     60282
     60283     60284     60283     60285     60284     60285     60286     60287
     60286     60288     60287     60288     60289     60290     60289     60291
     60290     60291     60292     60293     60292     60294     60293     60294
     60295     60296     60295     60297     60296     60297     60298     60299
     60298     60300     60299     60300     60301     60302     60301     60303
     60302     60303     60304     60305     60304     60306     60305     60306
     60307     60308     60307     60309     60308     60309     60310     60311
     60310     60312     60311     60312     60313     60314     60313     60315
     60314     60315     60316     60317     60316     60318     60317     60318
     60319     60320     60319     60321     60320     60321     60322     60323
     60322     60324     60323     60324     60325     60326     60325     60327
     60326     60327     60328     60329     60328     60330     60329     60330
     60331     60332     60331     60333     60332     60333     60334     60335
     60334     60336     60335     60336     60337     60338     60337     60339
     60338     60339     60340     60341     60340     60342     60341     60342
     60343     60344     60343     60345     60344     60345     60346     60347
     60346     60348     60347     60348     60349     60350     60349     60351
     60350     60351     60352     60353     60352     60354     60353     60354
     60355     60356     60355     60357     60356     60357     60358     60359
     60358     60360     60359     60360     60361     60362     60361     60363
     60362     60363     60364     60365     60364     60366     60365     60366
     60367     60368     60367     60369     60368     60369     60370     60371
     60370     60372     60371     60372     60373     60374     60373     60375
     60374     60375     60376     60377     60376     60378     60377     60378
     60379     60380     60379     60381     60380     60381     60382     60383
     60382     60384     60383     60384     60385     60386     60385     60387
     60386     60387     60388     60389     60388     60390     60389     60390
     60391     60392     60391     60393     60392     60393     60394     60395
     60394     60396     60395     60396     60397     60398     60397     60399
     60398     60399     60400     60401     60400     60402     60401     60402
     60403     60404     60403     60405     60404     60405     60406     60407
     60406     60408     60407     60408     60409     60410     60409     60411
     60410     60411     60412     60413     60412     60414     60413     60414
     60415     60416     60415     60417     60416     60417     60418     60419
     60418     60420     60419     60420     60421     60422     60421     60423
     60422     60423     60424     60425     60424     60426     60425     60426
     60427     60428     60427     60429     60428     60429     60430     60431
     60430     60432     60431     60432     60433     60434     60433     60435
     60434     60435     60436     60437     60436     60438     60437     60438
     60439     60440     60439     60441     60440     60441     60442     60443
     60442     60444     60443     60444     60445     60446     60445     60447
     60446     60447     60448     60449     60448     60450     60449     60450
     60451     60452     60451     60453     60452     60453     60454     60455
     60454     60456     60455     60456     60457     60458     60457     60459
     60458     60459     60460     60461     60460     60462     60461     60462
     60463     60464     60463     60465     60464     60465     60466     60467
     60466     60468     60467     60468     60469     60470     60469     60471
     60470     60471     60472     60473     60472     60474     60473     60474
     60475     60476     60475     60477     60476     60477     60478     60479
     60478     60480     60479     60480     60481     60482     60481     60483
     60482     60483     60484     60485     60484     60486     60485     60486
     60487     60488     60487     60489     60488     60489     60490     60491
     60490     60492     60491     60492     60493     60494     60493     60495
     60494     60495     60496     60497     60496     60498     60497     60498
     60499     60500     60499     60501     60500     60501     60502     60503
     60502     60504     60503     60504     60505     60506     60505     60507
     60506     60507     60508     60509     60508     60510     60509     60510
     60511     60512     60511     60513     60512     60513     60514     60515
     60514     60516     60515     60516     60517     60518     60517     60519
     60518     60519     60520     60521     60520     60522     60521     60522
     60523     60524     60523     60525     60524     60525     60526     60527
     60526     60528     60527     60528     60529     60530     60529     60531
     60530     60531     60532     60533     60532     60534     60533     60534
     60535     60536     60535     60537     60536     60537     60538     60539
     60538     60540     60539     60540     60541     60542     60541     60543
     60542     60543     60544     60545     60544     60546     60545     60546
     60547     60548     60547     60549     60548     60549     60550     60551
     60550     60552     60551     60552     60553     60554     60553     60555
     60554     60555     60556     60557     60556     60558     60557     60558
     60559     60560     60559     60561     60560     60561     60562     60563
     60562     60564     60563     60564     60565     60566     60565     60567
     60566     60567     60568     60569     60568     60570     60569     60570
     60571     60572     60571     60573     60572     60573     60574     60575
     60574     60576     60575     60576     60577     60578     60577     60579
     60578     60579     60580     60581     60580     60582     60581     60582
     60583     60584     60583     60585     60584     60585     60586     60587
     60586     60588     60587     60588     60589     60590     60589     60591
     60590     60591     60592     60593     60592     60594     60593     60594
     60595     60596     60595     60597     60596     60597     60598     60599
     60598     60600     60599     60600     60601     60602     60601     60603
     60602     60603     60604     60605     60604     60606     60605     60606
     60607     60608     60607     60609     60608     60609     60610     60611
     60610     60612     60611     60612     60613     60614     60613     60615
     60614     60615     60616     60617     60616     60618     60617     60618
     60619     60620     60619     60621     60620     60621     60622     60623
     60622     60624     60623     60624     60625     60626     60625     60627
     60626     60627     60628     60629     60628     60630     60629     60630
     60631     60632     60631     60633     60632     60633     60634     60635
     60634     60636     60635     60636     60637     60638     60637     60639
     60638     60639     60640     60641     60640     60642     60641     60642
     60643     60644     60643     60645     60644     60645     60646     60647
     60646     60648     60647     60648     60649     60650     60649     60651
     60650     60651     60652     60653     60652     60654     60653     60654
     60655     60656     60655     60657     60656     60657     60658     60659
     60658     60660     60659     60660     60661     60662     60661     60663
     60662     60663     60664     60665     60664     60666     60665     60666
     60667     60668     60667     60669     60668     60669     60670     60671
     60670     60672     60671     60672     60673     60674     60673     60675
     60674     60675     60676     60677     60676     60678     60677     60678
     60679     60680     60679     60681     60680     60681     60682     60683
     60682     60684     60683     60684     60685     60686     60685     60687
     60686     60687     60688     60689     60688     60690     60689     60690
     60691     60692     60691     60693     60692     60693     60694     60695
     60694     60696     60695     60696     60697     60698     60697     60699
     60698     60699     60700     60701     60700     60702     60701     60702
     60703     60704     60703     60705     60704     60705     60706     60707
     60706     60708     60707     60708     60709     60710     60709     60711
     60710     60711     60712     60713     60712     60714     60713     60714
     60715     60716     60715     60717     60716     60717     60718     60719
     60718     60720     60719     60720     60721     60722     60721     60723
     60722     60723     60724     60725     60724     60726     60725     60726
     60727     60728     60727     60729     60728     60729     60730     60731
     60730     60732     60731     60732     60733     60734     60733     60735
     60734     60735     60736     60737     60736     60738     60737     60738
     60739     60740     60739     60741     60740     60741     60742     60743
     60742     60744     60743     60744     60745     60746     60745     60747
     60746     60747     60748     60749     60748     60750     60749     60750
     60751     60752     60751     60753     60752     60753     60754     60755
     60754     60756     60755     60756     60757     60758     60757     60759
     60758     60759     60760     60761     60760     60762     60761     60762
     60763     60764     60763     60765     60764     60765     60766     60767
     60766     60768     60767     60768     60769     60770     60769     60771
     60770     60771     60772     60773     60772     60774     60773     60774
     60775     60776     60775     60777     60776     60777     60778     60779
     60778     60780     60779     60780     60781     60782     60781     60783
     60782     60783     60784     60785     60784     60786     60785     60786
     60787     60788     60787     60789     60788     60789     60790     60791
     60790     60792     60791     60792     60793     60794     60793     60795
     60794     60795     60796     60797     60796     60798     60797     60798
     60799     60800     60799     60801     60800     60801     60802     60803
     60802     60804     60803     60804     60805     60806     60805     60807
     60806     60807     60808     60809     60808     60810     60809     60810
     60811     60812     60811     60813     60812     60813     60814     60815
     60814     60816     60815     60816     60817     60818     60817     60819
     60818     60819     60820     60821     60820     60822     60821     60822
     60823     60824     60823     60825     60824     60825     60826     60827
     60826     60828     60827     60828     60829     60830     60829     60831
     60830     60831     60832     60833     60832     60834     60833     60834
     60835     60836     60835     60837     60836     60837     60838     60839
     60838     60840     60839     60840     60841     60842     60841     60843
     60842     60843     60844     60845     60844     60846     60845     60846
     60847     60848     60847     60849     60848     60849     60850     60851
     60850     60852     60851     60852     60853     60854     60853     60855
     60854     60855     60856     60857     60856     60858     60857     60858
     60859     60860     60859     60861     60860     60861     60862     60863
     60862     60864     60863     60864     60865     60866     60865     60867
     60866     60867     60868     60869     60868     60870     60869     60870
     60871     60872     60871     60873     60872     60873     60874     60875
     60874     60876     60875     60876     60877     60878     60877     60879
     60878     60879     60880     60881     60880     60882     60881     60882
     60883     60884     60883     60885     60884     60885     60886     60887
     60886     60888     60887     60888     60889     60890     60889     60891
     60890     60891     60892     60893     60892     60894     60893     60894
     60895     60896     60895     60897     60896     60897     60898     60899
     60898     60900     60899     60900     60901     60902     60901     60903
     60902     60903     60904     60905     60904     60906     60905     60906
     60907     60908     60907     60909     60908     60909     60910     60911
     60910     60912     60911     60912     60913     60914     60913     60915
     60914     60915     60916     60917     60916     60918     60917     60918
     60919     60920     60919     60921     60920     60921     60922     60923
     60922     60924     60923     60924     60925     60926     60925     60927
     60926     60927     60928     60929     60928     60930     60929     60930
     60931     60932     60931     60933     60932     60933     60934     60935
     60934     60936     60935     60936     60937     60938     60937     60939
     60938     60939     60940     60941     60940     60942     60941     60942
     60943     60944     60943     60945     60944     60945     60946     60947
     60946     60948     60947     60948     60949     60950     60949     60951
     60950     60951     60952     60953     60952     60954     60953     60954
     60955     60956     60955     60957     60956     60957     60958     60959
     60958     60960     60959     60960     60961     60962     60961     60963
     60962     60963     60964     60965     60964     60966     60965     60966
     60967     60968     60967     60969     60968     60969     60970     60971
     60970     60972     60971     60972     60973     60974     60973     60975
     60974     60975     60976     60977     60976     60978     60977     60978
     60979     60980     60979     60981     60980     60981     60982     60983
     60982     60984     60983     60984     60985     60986     60985     60987
     60986     60987     60988     60989     60988     60990     60989     60990
     60991     60992     60991     60993     60992     60993     60994     60995
     60994     60996     60995     60996     60997     60998     60997     60999
     60998     60999     61000     61001     61000     61002     61001     61002
     61003     61004     61003     61005     61004     61005     61006     61007
     61006     61008     61007     61008     61009     61010     61009     61011
     61010     61011     61012     61013     61012     61014     61013     61014
     61015     61016     61015     61017     61016     61017     61018     61019
     61018     61020     61019     61020     61021     61022     61021     61023
     61022     61023     61024     61025     61024     61026     61025     61026
     61027     61028     61027     61029     61028     61029     61030     61031
     61030     61032     61031     61032     61033     61034     61033     61035
     61034     61035     61036     61037     61036     61038     61037     61038
     61039     61040     61039     61041     61040     61041     61042     61043
     61042     61044     61043     61044     61045     61046     61045     61047
     61046     61047     61048     61049     61048     61050     61049     61050
     61051     61052     61051     61053     61052     61053     61054     61055
     61054     61056     61055     61056     61057     61058     61057     61059
     61058     61059     61060     61061     61060     61062     61061     61062
     61063     61064     61063     61065     61064     61065     61066     61067
     61066     61068     61067     61068     61069     61070     61069     61071
     61070     61071     61072     61073     61072     61074     61073     61074
     61075     61076     61075     61077     61076     61077     61078     61079
     61078     61080     61079     61080     61081     61082     61081     61083
     61082     61083     61084     61085     61084     61086     61085     61086
     61087     61088     61087     61089     61088     61089     61090     61091
     61090     61092     61091     61092     61093     61094     61093     61095
     61094     61095     61096     61097     61096     61098     61097     61098
     61099     61100     61099     61101     61100     61101     61102     61103
     61102     61104     61103     61104     61105     61106     61105     61107
     61106     61107     61108     61109     61108     61110     61109     61110
     61111     61112     61111     61113     61112     61113     61114     61115
     61114     61116     61115     61116     61117     61118     61117     61119
     61118     61119     61120     61121     61120     61122     61121     61122
     61123     61124     61123     61125     61124     61125     61126     61127
     61126     61128     61127     61128     61129     61130     61129     61131
     61130     61131     61132     61133     61132     61134     61133     61134
     61135     61136     61135     61137     61136     61137     61138     61139
     61138     61140     61139     61140     61141     61142     61141     61143
     61142     61143     61144     61145     61144     61146     61145     61146
     61147     61148     61147     61149     61148     61149     61150     61151
     61150     61152     61151     61152     61153     61154     61153     61155
     61154     61155     61156     61157     61156     61158     61157     61158
     61159     61160     61159     61161     61160     61161     61162     61163
     61162     61164     61163     61164     61165     61166     61165     61167
     61166     61167     61168     61169     61168     61170     61169     61170
     61171     61172     61171     61173     61172     61173     61174     61175
     61174     61176     61175     61176     61177     61178     61177     61179
     61178     61179     61180     61181     61180     61182     61181     61182
     61183     61184     61183     61185     61184     61185     61186     61187
     61186     61188     61187     61188     61189     61190     61189     61191
     61190     61191     61192     61193     61192     61194     61193     61194
     61195     61196     61195     61197     61196     61197     61198     61199
     61198     61200     61199     61200     61201     61202     61201     61203
     61202     61203     61204     61205     61204     61206     61205     61206
     61207     61208     61207     61209     61208     61209     61210     61211
     61210     61212     61211     61212     61213     61214     61213     61215
     61214     61215     61216     61217     61216     61218     61217     61218
     61219     61220     61219     61221     61220     61221     61222     61223
     61222     61224     61223     61224     61225     61226     61225     61227
     61226     61227     61228     61229     61228     61230     61229     61230
     61231     61232     61231     61233     61232     61233     61234     61235
     61234     61236     61235     61236     61237     61238     61237     61239
     61238     61239     61240     61241     61240     61242     61241     61242
     61243     61244     61243     61245     61244     61245     61246     61247
     61246     61248     61247     61248     61249     61250     61249     61251
     61250     61251     61252     61253     61252     61254     61253     61254
     61255     61256     61255     61257     61256     61257     61258     61259
     61258     61260     61259     61260     61261     61262     61261     61263
     61262     61263     61264     61265     61264     61266     61265     61266
     61267     61268     61267     61269     61268     61269     61270     61271
     61270     61272     61271     61272     61273     61274     61273     61275
     61274     61275     61276     61277     61276     61278     61277     61278
     61279     61280     61279     61281     61280     61281     61282     61283
     61282     61284     61283     61284     61285     61286     61285     61287
     61286     61287     61288     61289     61288     61290     61289     61290
     61291     61292     61291     61293     61292     61293     61294     61295
     61294     61296     61295     61296     61297     61298     61297     61299
     61298     61299     61300     61301     61300     61302     61301     61302
     61303     61304     61303     61305     61304     61305     61306     61307
     61306     61308     61307     61308     61309     61310     61309     61311
     61310     61311     61312     61313     61312     61314     61313     61314
     61315     61316     61315     61317     61316     61317     61318     61319
     61318     61320     61319     61320     61321     61322     61321     61323
     61322     61323     61324     61325     61324     61326     61325     61326
     61327     61328     61327     61329     61328     61329     61330     61331
     61330     61332     61331     61332     61333     61334     61333     61335
     61334     61335     61336     61337     61336     61338     61337     61338
     61339     61340     61339     61341     61340     61341     61342     61343
     61342     61344     61343     61344     61345     61346     61345     61347
     61346     61347     61348     61349     61348     61350     61349     61350
     61351     61352     61351     61353     61352     61353     61354     61355
     61354     61356     61355     61356     61357     61358     61357     61359
     61358     61359     61360     61361     61360     61362     61361     61362
     61363     61364     61363     61365     61364     61365     61366     61367
     61366     61368     61367     61368     61369     61370     61369     61371
     61370     61371     61372     61373     61372     61374     61373     61374
     61375     61376     61375     61377     61376     61377     61378     61379
     61378     61380     61379     61380     61381     61382     61381     61383
     61382     61383     61384     61385     61384     61386     61385     61386
     61387     61388     61387     61389     61388     61389     61390     61391
     61390     61392     61391     61392     61393     61394     61393     61395
     61394     61395     61396     61397     61396     61398     61397     61398
     61399     61400     61399     61401     61400     61401     61402     61403
     61402     61404     61403     61404     61405     61406     61405     61407
     61406     61407     61408     61409     61408     61410     61409     61410
     61411     61412     61411     61413     61412     61413     61414     61415
     61414     61416     61415     61416     61417     61418     61417     61419
     61418     61419     61420     61421     61420     61422     61421     61422
     61423     61424     61423     61425     61424     61425     61426     61427
     61426     61428     61427     61428     61429     61430     61429     61431
     61430     61431     61432     61433     61432     61434     61433     61434
     61435     61436     61435     61437     61436     61437     61438     61439
     61438     61440     61439     61440     61441     61442     61441     61443
     61442     61443     61444     61445     61444     61446     61445     61446
     61447     61448     61447     61449     61448     61449     61450     61451
     61450     61452     61451     61452     61453     61454     61453     61455
     61454     61455     61456     61457     61456     61458     61457     61458
     61459     61460     61459     61461     61460     61461     61462     61463
     61462     61464     61463     61464     61465     61466     61465     61467
     61466     61467     61468     61469     61468     61470     61469     61470
     61471     61472     61471     61473     61472     61473     61474     61475
     61474     61476     61475     61476     61477     61478     61477     61479
     61478     61479     61480     61481     61480     61482     61481     61482
     61483     61484     61483     61485     61484     61485     61486     61487
     61486     61488     61487     61488     61489     61490     61489     61491
     61490     61491     61492     61493     61492     61494     61493     61494
     61495     61496     61495     61497     61496     61497     61498     61499
     61498     61500     61499     61500     61501     61502     61501     61503
     61502     61503     61504     61505     61504     61506     61505     61506
     61507     61508     61507     61509     61508     61509     61510     61511
     61510     61512     61511     61512     61513     61514     61513     61515
     61514     61515     61516     61517     61516     61518     61517     61518
     61519     61520     61519     61521     61520     61521     61522     61523
     61522     61524     61523     61524     61525     61526     61525     61527
     61526     61527     61528     61529     61528     61530     61529     61530
     61531     61532     61531     61533     61532     61533     61534     61535
     61534     61536     61535     61536     61537     61538     61537     61539
     61538     61539     61540     61541     61540     61542     61541     61542
     61543     61544     61543     61545     61544     61545     61546     61547
     61546     61548     61547     61548     61549     61550     61549     61551
     61550     61551     61552     61553     61552     61554     61553     61554
     61555     61556     61555     61557     61556     61557     61558     61559
     61558     61560     61559     61560     61561     61562     61561     61563
     61562     61563     61564     61565     61564     61566     61565     61566
     61567     61568     61567     61569     61568     61569     61570     61571
     61570     61572     61571     61572     61573     61574     61573     61575
     61574     61575     61576     61577     61576     61578     61577     61578
     61579     61580     61579     61581     61580     61581     61582     61583
     61582     61584     61583     61584     61585     61586     61585     61587
     61586     61587     61588     61589     61588     61590     61589     61590
     61591     61592     61591     61593     61592     61593     61594     61595
     61594     61596     61595     61596     61597     61598     61597     61599
     61598     61599     61600     61601     61600     61602     61601     61602
     61603     61604     61603     61605     61604     61605     61606     61607
     61606     61608     61607     61608     61609     61610     61609     61611
     61610     61611     61612     61613     61612     61614     61613     61614
     61615     61616     61615     61617     61616     61617     61618     61619
     61618     61620     61619     61620     61621     61622     61621     61623
     61622     61623     61624     61625     61624     61626     61625     61626
     61627     61628     61627     61629     61628     61629     61630     61631
     61630     61632     61631     61632     61633     61634     61633     61635
     61634     61635     61636     61637     61636     61638     61637     61638
     61639     61640     61639     61641     61640     61641     61642     61643
     61642     61644     61643     61644     61645     61646     61645     61647
     61646     61647     61648     61649     61648     61650     61649     61650
     61651     61652     61651     61653     61652     61653     61654     61655
     61654     61656     61655     61656     61657     61658     61657     61659
     61658     61659     61660     61661     61660     61662     61661     61662
     61663     61664     61663     61665     61664     61665     61666     61667
     61666     61668     61667     61668     61669     61670     61669     61671
     61670     61671     61672     61673     61672     61674     61673     61674
     61675     61676     61675     61677     61676     61677     61678     61679
     61678     61680     61679     61680     61681     61682     61681     61683
     61682     61683     61684     61685     61684     61686     61685     61686
     61687     61688     61687     61689     61688     61689     61690     61691
     61690     61692     61691     61692     61693     61694     61693     61695
     61694     61695     61696     61697     61696     61698     61697     61698
     61699     61700     61699     61701     61700     61701     61702     61703
     61702     61704     61703     61704     61705     61706     61705     61707
     61706     61707     61708     61709     61708     61710     61709     61710
     61711     61712     61711     61713     61712     61713     61714     61715
     61714     61716     61715     61716     61717     61718     61717     61719
     61718     61719     61720     61721     61720     61722     61721     61722
     61723     61724     61723     61725     61724     61725     61726     61727
     61726     61728     61727     61728     61729     61730     61729     61731
     61730     61731     61732     61733     61732     61734     61733     61734
     61735     61736     61735     61737     61736     61737     61738     61739
     61738     61740     61739     61740     61741     61742     61741     61743
     61742     61743     61744     61745     61744     61746     61745     61746
     61747     61748     61747     61749     61748     61749     61750     61751
     61750     61752     61751     61752     61753     61754     61753     61755
     61754     61755     61756     61757     61756     61758     61757     61758
     61759     61760     61759     61761     61760     61761     61762     61763
     61762     61764     61763     61764     61765     61766     61765     61767
     61766     61767     61768     61769     61768     61770     61769     61770
     61771     61772     61771     61773     61772     61773     61774     61775
     61774     61776     61775     61776     61777     61778     61777     61779
     61778     61779     61780     61781     61780     61782     61781     61782
     61783     61784     61783     61785     61784     61785     61786     61787
     61786     61788     61787     61788     61789     61790     61789     61791
     61790     61791     61792     61793     61792     61794     61793     61794
     61795     61796     61795     61797     61796     61797     61798     61799
     61798     61800     61799     61800     61801     61802     61801     61803
     61802     61803     61804     61805     61804     61806     61805     61806
     61807     61808     61807     61809     61808     61809     61810     61811
     61810     61812     61811     61812     61813     61814     61813     61815
     61814     61815     61816     61817     61816     61818     61817     61818
     61819     61820     61819     61821     61820     61821     61822     61823
     61822     61824     61823     61824     61825     61826     61825     61827
     61826     61827     61828     61829     61828     61830     61829     61830
     61831     61832     61831     61833     61832     61833     61834     61835
     61834     61836     61835     61836     61837     61838     61837     61839
     61838     61839     61840     61841     61840     61842     61841     61842
     61843     61844     61843     61845     61844     61845     61846     61847
     61846     61848     61847     61848     61849     61850     61849     61851
     61850     61851     61852     61853     61852     61854     61853     61854
     61855     61856     61855     61857     61856     61857     61858     61859
     61858     61860     61859     61860     61861     61862     61861     61863
     61862     61863     61864     61865     61864     61866     61865     61866
     61867     61868     61867     61869     61868     61869     61870     61871
     61870     61872     61871     61872     61873     61874     61873     61875
     61874     61875     61876     61877     61876     61878     61877     61878
     61879     61880     61879     61881     61880     61881     61882     61883
     61882     61884     61883     61884     61885     61886     61885     61887
     61886     61887     61888     61889     61888     61890     61889     61890
     61891     61892     61891     61893     61892     61893     61894     61895
     61894     61896     61895     61896     61897     61898     61897     61899
     61898     61899     61900     61901     61900     61902     61901     61902
     61903     61904     61903     61905     61904     61905     61906     61907
     61906     61908     61907     61908     61909     61910     61909     61911
     61910     61911     61912     61913     61912     61914     61913     61914
     61915     61916     61915     61917     61916     61917     61918     61919
     61918     61920     61919     61920     61921     61922     61921     61923
     61922     61923     61924     61925     61924     61926     61925     61926
     61927     61928     61927     61929     61928     61929     61930     61931
     61930     61932     61931     61932     61933     61934     61933     61935
     61934     61935     61936     61937     61936     61938     61937     61938
     61939     61940     61939     61941     61940     61941     61942     61943
     61942     61944     61943     61944     61945     61946     61945     61947
     61946     61947     61948     61949     61948     61950     61949     61950
     61951     61952     61951     61953     61952     61953     61954     61955
     61954     61956     61955     61956     61957     61958     61957     61959
     61958     61959     61960     61961     61960     61962     61961     61962
     61963     61964     61963     61965     61964     61965     61966     61967
     61966     61968     61967     61968     61969     61970     61969     61971
     61970     61971     61972     61973     61972     61974     61973     61974
     61975     61976     61975     61977     61976     61977     61978     61979
     61978     61980     61979     61980     61981     61982     61981     61983
     61982     61983     61984     61985     61984     61986     61985     61986
     61987     61988     61987     61989     61988     61989     61990     61991
     61990     61992     61991     61992     61993     61994     61993     61995
     61994     61995     61996     61997     61996     61998     61997     61998
     61999     62000     61999     62001     62000     62001     62002     62003
     62002     62004     62003     62004     62005     62006     62005     62007
     62006     62007     62008     62009     62008     62010     62009     62010
     62011     62012     62011     62013     62012     62013     62014     62015
     62014     62016     62015     62016     62017     62018     62017     62019
     62018     62019     62020     62021     62020     62022     62021     62022
     62023     62024     62023     62025     62024     62025     62026     62027
     62026     62028     62027     62028     62029     62030     62029     62031
     62030     62031     62032     62033     62032     62034     62033     62034
     62035     62036     62035     62037     62036     62037     62038     62039
     62038     62040     62039     62040     62041     62042     62041     62043
     62042     62043     62044     62045     62044     62046     62045     62046
     62047     62048     62047     62049     62048     62049     62050     62051
     62050     62052     62051     62052     62053     62054     62053     62055
     62054     62055     62056     62057     62056     62058     62057     62058
     62059     62060     62059     62061     62060     62061     62062     62063
     62062     62064     62063     62064     62065     62066     62065     62067
     62066     62067     62068     62069     62068     62070     62069     62070
     62071     62072     62071     62073     62072     62073     62074     62075
     62074     62076     62075     62076     62077     62078     62077     62079
     62078     62079     62080     62081     62080     62082     62081     62082
     62083     62084     62083     62085     62084     62085     62086     62087
     62086     62088     62087     62088     62089     62090     62089     62091
     62090     62091     62092     62093     62092     62094     62093     62094
     62095     62096     62095     62097     62096     62097     62098     62099
     62098     62100     62099     62100     62101     62102     62101     62103
     62102     62103     62104     62105     62104     62106     62105     62106
     62107     62108     62107     62109     62108     62109     62110     62111
     62110     62112     62111     62112     62113     62114     62113     62115
     62114     62115     62116     62117     62116     62118     62117     62118
     62119     62120     62119     62121     62120     62121     62122     62123
     62122     62124     62123     62124     62125     62126     62125     62127
     62126     62127     62128     62129     62128     62130     62129     62130
     62131     62132     62131     62133     62132     62133     62134     62135
     62134     62136     62135     62136     62137     62138     62137     62139
     62138     62139     62140     62141     62140     62142     62141     62142
     62143     62144     62143     62145     62144     62145     62146     62147
     62146     62148     62147     62148     62149     62150     62149     62151
     62150     62151     62152     62153     62152     62154     62153     62154
     62155     62156     62155     62157     62156     62157     62158     62159
     62158     62160     62159     62160     62161     62162     62161     62163
     62162     62163     62164     62165     62164     62166     62165     62166
     62167     62168     62167     62169     62168     62169     62170     62171
     62170     62172     62171     62172     62173     62174     62173     62175
     62174     62175     62176     62177     62176     62178     62177     62178
     62179     62180     62179     62181     62180     62181     62182     62183
     62182     62184     62183     62184     62185     62186     62185     62187
     62186     62187     62188     62189     62188     62190     62189     62190
     62191     62192     62191     62193     62192     62193     62194     62195
     62194     62196     62195     62196     62197     62198     62197     62199
     62198     62199     62200     62201     62200     62202     62201     62202
     62203     62204     62203     62205     62204     62205     62206     62207
     62206     62208     62207     62208     62209     62210     62209     62211
     62210     62211     62212     62213     62212     62214     62213     62214
     62215     62216     62215     62217     62216     62217     62218     62219
     62218     62220     62219     62220     62221     62222     62221     62223
     62222     62223     62224     62225     62224     62226     62225     62226
     62227     62228     62227     62229     62228     62229     62230     62231
     62230     62232     62231     62232     62233     62234     62233     62235
     62234     62235     62236     62237     62236     62238     62237     62238
     62239     62240     62239     62241     62240     62241     62242     62243
     62242     62244     62243     62244     62245     62246     62245     62247
     62246     62247     62248     62249     62248     62250     62249     62250
     62251     62252     62251     62253     62252     62253     62254     62255
     62254     62256     62255     62256     62257     62258     62257     62259
     62258     62259     62260     62261     62260     62262     62261     62262
     62263     62264     62263     62265     62264     62265     62266     62267
     62266     62268     62267     62268     62269     62270     62269     62271
     62270     62271     62272     62273     62272     62274     62273     62274
     62275     62276     62275     62277     62276     62277     62278     62279
     62278     62280     62279     62280     62281     62282     62281     62283
     62282     62283     62284     62285     62284     62286     62285     62286
     62287     62288     62287     62289     62288     62289     62290     62291
     62290     62292     62291     62292     62293     62294     62293     62295
     62294     62295     62296     62297     62296     62298     62297     62298
     62299     62300     62299     62301     62300     62301     62302     62303
     62302     62304     62303     62304     62305     62306     62305     62307
     62306     62307     62308     62309     62308     62310     62309     62310
     62311     62312     62311     62313     62312     62313     62314     62315
     62314     62316     62315     62316     62317     62318     62317     62319
     62318     62319     62320     62321     62320     62322     62321     62322
     62323     62324     62323     62325     62324     62325     62326     62327
     62326     62328     62327     62328     62329     62330     62329     62331
     62330     62331     62332     62333     62332     62334     62333     62334
     62335     62336     62335     62337     62336     62337     62338     62339
     62338     62340     62339     62340     62341     62342     62341     62343
     62342     62343     62344     62345     62344     62346     62345     62346
     62347     62348     62347     62349     62348     62349     62350     62351
     62350     62352     62351     62352     62353     62354     62353     62355
     62354     62355     62356     62357     62356     62358     62357     62358
     62359     62360     62359     62361     62360     62361     62362     62363
     62362     62364     62363     62364     62365     62366     62365     62367
     62366     62367     62368     62369     62368     62370     62369     62370
     62371     62372     62371     62373     62372     62373     62374     62375
     62374     62376     62375     62376     62377     62378     62377     62379
     62378     62379     62380     62381     62380     62382     62381     62382
     62383     62384     62383     62385     62384     62385     62386     62387
     62386     62388     62387     62388     62389     62390     62389     62391
     62390     62391     62392     62393     62392     62394     62393     62394
     62395     62396     62395     62397     62396     62397     62398     62399
     62398     62400     62399     62400     62401     62402     62401     62403
     62402     62403     62404     62405     62404     62406     62405     62406
     62407     62408     62407     62409     62408     62409     62410     62411
     62410     62412     62411     62412     62413     62414     62413     62415
     62414     62415     62416     62417     62416     62418     62417     62418
     62419     62420     62419     62421     62420     62421     62422     62423
     62422     62424     62423     62424     62425     62426     62425     62427
     62426     62427     62428     62429     62428     62430     62429     62430
     62431     62432     62431     62433     62432     62433     62434     62435
     62434     62436     62435     62436     62437     62438     62437     62439
     62438     62439     62440     62441     62440     62442     62441     62442
     62443     62444     62443     62445     62444     62445     62446     62447
     62446     62448     62447     62448     62449     62450     62449     62451
     62450     62451     62452     62453     62452     62454     62453     62454
     62455     62456     62455     62457     62456     62457     62458     62459
     62458     62460     62459     62460     62461     62462     62461     62463
     62462     62463     62464     62465     62464     62466     62465     62466
     62467     62468     62467     62469     62468     62469     62470     62471
     62470     62472     62471     62472     62473     62474     62473     62475
     62474     62475     62476     62477     62476     62478     62477     62478
     62479     62480     62479     62481     62480     62481     62482     62483
     62482     62484     62483     62484     62485     62486     62485     62487
     62486     62487     62488     62489     62488     62490     62489     62490
     62491     62492     62491     62493     62492     62493     62494     62495
     62494     62496     62495     62496     62497     62498     62497     62499
     62498     62499     62500     62501     62500     62502     62501     62502
     62503     62504     62503     62505     62504     62505     62506     62507
     62506     62508     62507     62508     62509     62510     62509     62511
     62510     62511     62512     62513     62512     62514     62513     62514
     62515     62516     62515     62517     62516     62517     62518     62519
     62518     62520     62519     62520     62521     62522     62521     62523
     62522     62523     62524     62525     62524     62526     62525     62526
     62527     62528     62527     62529     62528     62529     62530     62531
     62530     62532     62531     62532     62533     62534     62533     62535
     62534     62535     62536     62537     62536     62538     62537     62538
     62539     62540     62539     62541     62540     62541     62542     62543
     62542     62544     62543     62544     62545     62546     62545     62547
     62546     62547     62548     62549     62548     62550     62549     62550
     62551     62552     62551     62553     62552     62553     62554     62555
     62554     62556     62555     62556     62557     62558     62557     62559
     62558     62559     62560     62561     62560     62562     62561     62562
     62563     62564     62563     62565     62564     62565     62566     62567
     62566     62568     62567     62568     62569     62570     62569     62571
     62570     62571     62572     62573     62572     62574     62573     62574
     62575     62576     62575     62577     62576     62577     62578     62579
     62578     62580     62579     62580     62581     62582     62581     62583
     62582     62583     62584     62585     62584     62586     62585     62586
     62587     62588     62587     62589     62588     62589     62590     62591
     62590     62592     62591     62592     62593     62594     62593     62595
     62594     62595     62596     62597     62596     62598     62597     62598
     62599     62600     62599     62601     62600     62601     62602     62603
     62602     62604     62603     62604     62605     62606     62605     62607
     62606     62607     62608     62609     62608     62610     62609     62610
     62611     62612     62611     62613     62612     62613     62614     62615
     62614     62616     62615     62616     62617     62618     62617     62619
     62618     62619     62620     62621     62620     62622     62621     62622
     62623     62624     62623     62625     62624     62625     62626     62627
     62626     62628     62627     62628     62629     62630     62629     62631
     62630     62631     62632     62633     62632     62634     62633     62634
     62635     62636     62635     62637     62636     62637     62638     62639
     62638     62640     62639     62640     62641     62642     62641     62643
     62642     62643     62644     62645     62644     62646     62645     62646
     62647     62648     62647     62649     62648     62649     62650     62651
     62650     62652     62651     62652     62653     62654     62653     62655
     62654     62655     62656     62657     62656     62658     62657     62658
     62659     62660     62659     62661     62660     62661     62662     62663
     62662     62664     62663     62664     62665     62666     62665     62667
     62666     62667     62668     62669     62668     62670     62669     62670
     62671     62672     62671     62673     62672     62673     62674     62675
     62674     62676     62675     62676     62677     62678     62677     62679
     62678     62679     62680     62681     62680     62682     62681     62682
     62683     62684     62683     62685     62684     62685     62686     62687
     62686     62688     62687     62688     62689     62690     62689     62691
     62690     62691     62692     62693     62692     62694     62693     62694
     62695     62696     62695     62697     62696     62697     62698     62699
     62698     62700     62699     62700     62701     62702     62701     62703
     62702     62703     62704     62705     62704     62706     62705     62706
     62707     62708     62707     62709     62708     62709     62710     62711
     62710     62712     62711     62712     62713     62714     62713     62715
     62714     62715     62716     62717     62716     62718     62717     62718
     62719     62720     62719     62721     62720     62721     62722     62723
     62722     62724     62723     62724     62725     62726     62725     62727
     62726     62727     62728     62729     62728     62730     62729     62730
     62731     62732     62731     62733     62732     62733     62734     62735
     62734     62736     62735     62736     62737     62738     62737     62739
     62738     62739     62740     62741     62740     62742     62741     62742
     62743     62744     62743     62745     62744     62745     62746     62747
     62746     62748     62747     62748     62749     62750     62749     62751
     62750     62751     62752     62753     62752     62754     62753     62754
     62755     62756     62755     62757     62756     62757     62758     62759
     62758     62760     62759     62760     62761     62762     62761     62763
     62762     62763     62764     62765     62764     62766     62765     62766
     62767     62768     62767     62769     62768     62769     62770     62771
     62770     62772     62771     62772     62773     62774     62773     62775
     62774     62775     62776     62777     62776     62778     62777     62778
     62779     62780     62779     62781     62780     62781     62782     62783
     62782     62784     62783     62784     62785     62786     62785     62787
     62786     62787     62788     62789     62788     62790     62789     62790
     62791     62792     62791     62793     62792     62793     62794     62795
     62794     62796     62795     62796     62797     62798     62797     62799
     62798     62799     62800     62801     62800     62802     62801     62802
     62803     62804     62803     62805     62804     62805     62806     62807
     62806     62808     62807     62808     62809     62810     62809     62811
     62810     62811     62812     62813     62812     62814     62813     62814
     62815     62816     62815     62817     62816     62817     62818     62819
     62818     62820     62819     62820     62821     62822     62821     62823
     62822     62823     62824     62825     62824     62826     62825     62826
     62827     62828     62827     62829     62828     62829     62830     62831
     62830     62832     62831     62832     62833     62834     62833     62835
     62834     62835     62836     62837     62836     62838     62837     62838
     62839     62840     62839     62841     62840     62841     62842     62843
     62842     62844     62843     62844     62845     62846     62845     62847
     62846     62847     62848     62849     62848     62850     62849     62850
     62851     62852     62851     62853     62852     62853     62854     62855
     62854     62856     62855     62856     62857     62858     62857     62859
     62858     62859     62860     62861     62860     62862     62861     62862
     62863     62864     62863     62865     62864     62865     62866     62867
     62866     62868     62867     62868     62869     62870     62869     62871
     62870     62871     62872     62873     62872     62874     62873     62874
     62875     62876     62875     62877     62876     62877     62878     62879
     62878     62880     62879     62880     62881     62882     62881     62883
     62882     62883     62884     62885     62884     62886     62885     62886
     62887     62888     62887     62889     62888     62889     62890     62891
     62890     62892     62891     62892     62893     62894     62893     62895
     62894     62895     62896     62897     62896     62898     62897     62898
     62899     62900     62899     62901     62900     62901     62902     62903
     62902     62904     62903     62904     62905     62906     62905     62907
     62906     62907     62908     62909     62908     62910     62909     62910
     62911     62912     62911     62913     62912     62913     62914     62915
     62914     62916     62915     62916     62917     62918     62917     62919
     62918     62919     62920     62921     62920     62922     62921     62922
     62923     62924     62923     62925     62924     62925     62926     62927
     62926     62928     62927     62928     62929     62930     62929     62931
     62930     62931     62932     62933     62932     62934     62933     62934
     62935     62936     62935     62937     62936     62937     62938     62939
     62938     62940     62939     62940     62941     62942     62941     62943
     62942     62943     62944     62945     62944     62946     62945     62946
     62947     62948     62947     62949     62948     62949     62950     62951
     62950     62952     62951     62952     62953     62954     62953     62955
     62954     62955     62956     62957     62956     62958     62957     62958
     62959     62960     62959     62961     62960     62961     62962     62963
     62962     62964     62963     62964     62965     62966     62965     62967
     62966     62967     62968     62969     62968     62970     62969     62970
     62971     62972     62971     62973     62972     62973     62974     62975
     62974     62976     62975     62976     62977     62978     62977     62979
     62978     62979     62980     62981     62980     62982     62981     62982
     62983     62984     62983     62985     62984     62985     62986     62987
     62986     62988     62987     62988     62989     62990     62989     62991
     62990     62991     62992     62993     62992     62994     62993     62994
     62995     62996     62995     62997     62996     62997     62998     62999
     62998     63000     62999     63000     63001     63002     63001     63003
     63002     63003     63004     63005     63004     63006     63005     63006
     63007     63008     63007     63009     63008     63009     63010     63011
     63010     63012     63011     63012     63013     63014     63013     63015
     63014     63015     63016     63017     63016     63018     63017     63018
     63019     63020     63019     63021     63020     63021     63022     63023
     63022     63024     63023     63024     63025     63026     63025     63027
     63026     63027     63028     63029     63028     63030     63029     63030
     63031     63032     63031     63033     63032     63033     63034     63035
     63034     63036     63035     63036     63037     63038     63037     63039
     63038     63039     63040     63041     63040     63042     63041     63042
     63043     63044     63043     63045     63044     63045     63046     63047
     63046     63048     63047     63048     63049     63050     63049     63051
     63050     63051     63052     63053     63052     63054     63053     63054
     63055     63056     63055     63057     63056     63057     63058     63059
     63058     63060     63059     63060     63061     63062     63061     63063
     63062     63063     63064     63065     63064     63066     63065     63066
     63067     63068     63067     63069     63068     63069     63070     63071
     63070     63072     63071     63072     63073     63074     63073     63075
     63074     63075     63076     63077     63076     63078     63077     63078
     63079     63080     63079     63081     63080     63081     63082     63083
     63082     63084     63083     63084     63085     63086     63085     63087
     63086     63087     63088     63089     63088     63090     63089     63090
     63091     63092     63091     63093     63092     63093     63094     63095
     63094     63096     63095     63096     63097     63098     63097     63099
     63098     63099     63100     63101     63100     63102     63101     63102
     63103     63104     63103     63105     63104     63105     63106     63107
     63106     63108     63107     63108     63109     63110     63109     63111
     63110     63111     63112     63113     63112     63114     63113     63114
     63115     63116     63115     63117     63116     63117     63118     63119
     63118     63120     63119     63120     63121     63122     63121     63123
     63122     63123     63124     63125     63124     63126     63125     63126
     63127     63128     63127     63129     63128     63129     63130     63131
     63130     63132     63131     63132     63133     63134     63133     63135
     63134     63135     63136     63137     63136     63138     63137     63138
     63139     63140     63139     63141     63140     63141     63142     63143
     63142     63144     63143     63144     63145     63146     63145     63147
     63146     63147     63148     63149     63148     63150     63149     63150
     63151     63152     63151     63153     63152     63153     63154     63155
     63154     63156     63155     63156     63157     63158     63157     63159
     63158     63159     63160     63161     63160     63162     63161     63162
     63163     63164     63163     63165     63164     63165     63166     63167
     63166     63168     63167     63168     63169     63170     63169     63171
     63170     63171     63172     63173     63172     63174     63173     63174
     63175     63176     63175     63177     63176     63177     63178     63179
     63178     63180     63179     63180     63181     63182     63181     63183
     63182     63183     63184     63185     63184     63186     63185     63186
     63187     63188     63187     63189     63188     63189     63190     63191
     63190     63192     63191     63192     63193     63194     63193     63195
     63194     63195     63196     63197     63196     63198     63197     63198
     63199     63200     63199     63201     63200     63201     63202     63203
     63202     63204     63203     63204     63205     63206     63205     63207
     63206     63207     63208     63209     63208     63210     63209     63210
     63211     63212     63211     63213     63212     63213     63214     63215
     63214     63216     63215     63216     63217     63218     63217     63219
     63218     63219     63220     63221     63220     63222     63221     63222
     63223     63224     63223     63225     63224     63225     63226     63227
     63226     63228     63227     63228     63229     63230     63229     63231
     63230     63231     63232     63233     63232     63234     63233     63234
     63235     63236     63235     63237     63236     63237     63238     63239
     63238     63240     63239     63240     63241     63242     63241     63243
     63242     63243     63244     63245     63244     63246     63245     63246
     63247     63248     63247     63249     63248     63249     63250     63251
     63250     63252     63251     63252     63253     63254     63253     63255
     63254     63255     63256     63257     63256     63258     63257     63258
     63259     63260     63259     63261     63260     63261     63262     63263
     63262     63264     63263     63264     63265     63266     63265     63267
     63266     63267     63268     63269     63268     63270     63269     63270
     63271     63272     63271     63273     63272     63273     63274     63275
     63274     63276     63275     63276     63277     63278     63277     63279
     63278     63279     63280     63281     63280     63282     63281     63282
     63283     63284     63283     63285     63284     63285     63286     63287
     63286     63288     63287     63288     63289     63290     63289     63291
     63290     63291     63292     63293     63292     63294     63293     63294
     63295     63296     63295     63297     63296     63297     63298     63299
     63298     63300     63299     63300     63301     63302     63301     63303
     63302     63303     63304     63305     63304     63306     63305     63306
     63307     63308     63307     63309     63308     63309     63310     63311
     63310     63312     63311     63312     63313     63314     63313     63315
     63314     63315     63316     63317     63316     63318     63317     63318
     63319     63320     63319     63321     63320     63321     63322     63323
     63322     63324     63323     63324     63325     63326     63325     63327
     63326     63327     63328     63329     63328     63330     63329     63330
     63331     63332     63331     63333     63332     63333     63334     63335
     63334     63336     63335     63336     63337     63338     63337     63339
     63338     63339     63340     63341     63340     63342     63341     63342
     63343     63344     63343     63345     63344     63345     63346     63347
     63346     63348     63347     63348     63349     63350     63349     63351
     63350     63351     63352     63353     63352     63354     63353     63354
     63355     63356     63355     63357     63356     63357     63358     63359
     63358     63360     63359     63360     63361     63362     63361     63363
     63362     63363     63364     63365     63364     63366     63365     63366
     63367     63368     63367     63369     63368     63369     63370     63371
     63370     63372     63371     63372     63373     63374     63373     63375
     63374     63375     63376     63377     63376     63378     63377     63378
     63379     63380     63379     63381     63380     63381     63382     63383
     63382     63384     63383     63384     63385     63386     63385     63387
     63386     63387     63388     63389     63388     63390     63389     63390
     63391     63392     63391     63393     63392     63393     63394     63395
     63394     63396     63395     63396     63397     63398     63397     63399
     63398     63399     63400     63401     63400     63402     63401     63402
     63403     63404     63403     63405     63404     63405     63406     63407
     63406     63408     63407     63408     63409     63410     63409     63411
     63410     63411     63412     63413     63412     63414     63413     63414
     63415     63416     63415     63417     63416     63417     63418     63419
     63418     63420     63419     63420     63421     63422     63421     63423
     63422     63423     63424     63425     63424     63426     63425     63426
     63427     63428     63427     63429     63428     63429     63430     63431
     63430     63432     63431     63432     63433     63434     63433     63435
     63434     63435     63436     63437     63436     63438     63437     63438
     63439     63440     63439     63441     63440     63441     63442     63443
     63442     63444     63443     63444     63445     63446     63445     63447
     63446     63447     63448     63449     63448     63450     63449     63450
     63451     63452     63451     63453     63452     63453     63454     63455
     63454     63456     63455     63456     63457     63458     63457     63459
     63458     63459     63460     63461     63460     63462     63461     63462
     63463     63464     63463     63465     63464     63465     63466     63467
     63466     63468     63467     63468     63469     63470     63469     63471
     63470     63471     63472     63473     63472     63474     63473     63474
     63475     63476     63475     63477     63476     63477     63478     63479
     63478     63480     63479     63480     63481     63482     63481     63483
     63482     63483     63484     63485     63484     63486     63485     63486
     63487     63488     63487     63489     63488     63489     63490     63491
     63490     63492     63491     63492     63493     63494     63493     63495
     63494     63495     63496     63497     63496     63498     63497     63498
     63499     63500     63499     63501     63500     63501     63502     63503
     63502     63504     63503     63504     63505     63506     63505     63507
     63506     63507     63508     63509     63508     63510     63509     63510
     63511     63512     63511     63513     63512     63513     63514     63515
     63514     63516     63515     63516     63517     63518     63517     63519
     63518     63519     63520     63521     63520     63522     63521     63522
     63523     63524     63523     63525     63524     63525     63526     63527
     63526     63528     63527     63528     63529     63530     63529     63531
     63530     63531     63532     63533     63532     63534     63533     63534
     63535     63536     63535     63537     63536     63537     63538     63539
     63538     63540     63539     63540     63541     63542     63541     63543
     63542     63543     63544     63545     63544     63546     63545     63546
     63547     63548     63547     63549     63548     63549     63550     63551
     63550     63552     63551     63552     63553     63554     63553     63555
     63554     63555     63556     63557     63556     63558     63557     63558
     63559     63560     63559     63561     63560     63561     63562     63563
     63562     63564     63563     63564     63565     63566     63565     63567
     63566     63567     63568     63569     63568     63570     63569     63570
     63571     63572     63571     63573     63572     63573     63574     63575
     63574     63576     63575     63576     63577     63578     63577     63579
     63578     63579     63580     63581     63580     63582     63581     63582
     63583     63584     63583     63585     63584     63585     63586     63587
     63586     63588     63587     63588     63589     63590     63589     63591
     63590     63591     63592     63593     63592     63594     63593     63594
     63595     63596     63595     63597     63596     63597     63598     63599
     63598     63600     63599     63600     63601     63602     63601     63603
     63602     63603     63604     63605     63604     63606     63605     63606
     63607     63608     63607     63609     63608     63609     63610     63611
     63610     63612     63611     63612     63613     63614     63613     63615
     63614     63615     63616     63617     63616     63618     63617     63618
     63619     63620     63619     63621     63620     63621     63622     63623
     63622     63624     63623     63624     63625     63626     63625     63627
     63626     63627     63628     63629     63628     63630     63629     63630
     63631     63632     63631     63633     63632     63633     63634     63635
     63634     63636     63635     63636     63637     63638     63637     63639
     63638     63639     63640     63641     63640     63642     63641     63642
     63643     63644     63643     63645     63644     63645     63646     63647
     63646     63648     63647     63648     63649     63650     63649     63651
     63650     63651     63652     63653     63652     63654     63653     63654
     63655     63656     63655     63657     63656     63657     63658     63659
     63658     63660     63659     63660     63661     63662     63661     63663
     63662     63663     63664     63665     63664     63666     63665     63666
     63667     63668     63667     63669     63668     63669     63670     63671
     63670     63672     63671     63672     63673     63674     63673     63675
     63674     63675     63676     63677     63676     63678     63677     63678
     63679     63680     63679     63681     63680     63681     63682     63683
     63682     63684     63683     63684     63685     63686     63685     63687
     63686     63687     63688     63689     63688     63690     63689     63690
     63691     63692     63691     63693     63692     63693     63694     63695
     63694     63696     63695     63696     63697     63698     63697     63699
     63698     63699     63700     63701     63700     63702     63701     63702
     63703     63704     63703     63705     63704     63705     63706     63707
     63706     63708     63707     63708     63709     63710     63709     63711
     63710     63711     63712     63713     63712     63714     63713     63714
     63715     63716     63715     63717     63716     63717     63718     63719
     63718     63720     63719     63720     63721     63722     63721     63723
     63722     63723     63724     63725     63724     63726     63725     63726
     63727     63728     63727     63729     63728     63729     63730     63731
     63730     63732     63731     63732     63733     63734     63733     63735
     63734     63735     63736     63737     63736     63738     63737     63738
     63739     63740     63739     63741     63740     63741     63742     63743
     63742     63744     63743     63744     63745     63746     63745     63747
     63746     63747     63748     63749     63748     63750     63749     63750
     63751     63752     63751     63753     63752     63753     63754     63755
     63754     63756     63755     63756     63757     63758     63757     63759
     63758     63759     63760     63761     63760     63762     63761     63762
     63763     63764     63763     63765     63764     63765     63766     63767
     63766     63768     63767     63768     63769     63770     63769     63771
     63770     63771     63772     63773     63772     63774     63773     63774
     63775     63776     63775     63777     63776     63777     63778     63779
     63778     63780     63779     63780     63781     63782     63781     63783
     63782     63783     63784     63785     63784     63786     63785     63786
     63787     63788     63787     63789     63788     63789     63790     63791
     63790     63792     63791     63792     63793     63794     63793     63795
     63794     63795     63796     63797     63796     63798     63797     63798
     63799     63800     63799     63801     63800     63801     63802     63803
     63802     63804     63803     63804     63805     63806     63805     63807
     63806     63807     63808     63809     63808     63810     63809     63810
     63811     63812     63811     63813     63812     63813     63814     63815
     63814     63816     63815     63816     63817     63818     63817     63819
     63818     63819     63820     63821     63820     63822     63821     63822
     63823     63824     63823     63825     63824     63825     63826     63827
     63826     63828     63827     63828     63829     63830     63829     63831
     63830     63831     63832     63833     63832     63834     63833     63834
     63835     63836     63835     63837     63836     63837     63838     63839
     63838     63840     63839     63840     63841     63842     63841     63843
     63842     63843     63844     63845     63844     63846     63845     63846
     63847     63848     63847     63849     63848     63849     63850     63851
     63850     63852     63851     63852     63853     63854     63853     63855
     63854     63855     63856     63857     63856     63858     63857     63858
     63859     63860     63859     63861     63860     63861     63862     63863
     63862     63864     63863     63864     63865     63866     63865     63867
     63866     63867     63868     63869     63868     63870     63869     63870
     63871     63872     63871     63873     63872     63873     63874     63875
     63874     63876     63875     63876     63877     63878     63877     63879
     63878     63879     63880     63881     63880     63882     63881     63882
     63883     63884     63883     63885     63884     63885     63886     63887
     63886     63888     63887     63888     63889     63890     63889     63891
     63890     63891     63892     63893     63892     63894     63893     63894
     63895     63896     63895     63897     63896     63897     63898     63899
     63898     63900     63899     63900     63901     63902     63901     63903
     63902     63903     63904     63905     63904     63906     63905     63906
     63907     63908     63907     63909     63908     63909     63910     63911
     63910     63912     63911     63912     63913     63914     63913     63915
     63914     63915     63916     63917     63916     63918     63917     63918
     63919     63920     63919     63921     63920     63921     63922     63923
     63922     63924     63923     63924     63925     63926     63925     63927
     63926     63927     63928     63929     63928     63930     63929     63930
     63931     63932     63931     63933     63932     63933     63934     63935
     63934     63936     63935     63936     63937     63938     63937     63939
     63938     63939     63940     63941     63940     63942     63941     63942
     63943     63944     63943     63945     63944     63945     63946     63947
     63946     63948     63947     63948     63949     63950     63949     63951
     63950     63951     63952     63953     63952     63954     63953     63954
     63955     63956     63955     63957     63956     63957     63958     63959
     63958     63960     63959     63960     63961     63962     63961     63963
     63962     63963     63964     63965     63964     63966     63965     63966
     63967     63968     63967     63969     63968     63969     63970     63971
     63970     63972     63971     63972     63973     63974     63973     63975
     63974     63975     63976     63977     63976     63978     63977     63978
     63979     63980     63979     63981     63980     63981     63982     63983
     63982     63984     63983     63984     63985     63986     63985     63987
     63986     63987     63988     63989     63988     63990     63989     63990
     63991     63992     63991     63993     63992     63993     63994     63995
     63994     63996     63995     63996     63997     63998     63997     63999
     63998     63999     64000     64001     64000     64002     64001     64002
     64003     64004     64003     64005     64004     64005     64006     64007
     64006     64008     64007     64008     64009     64010     64009     64011
     64010     64011     64012     64013     64012     64014     64013     64014
     64015     64016     64015     64017     64016     64017     64018     64019
     64018     64020     64019     64020     64021     64022     64021     64023
     64022     64023     64024     64025     64024     64026     64025     64026
     64027     64028     64027     64029     64028     64029     64030     64031
     64030     64032     64031     64032     64033     64034     64033     64035
     64034     64035     64036     64037     64036     64038     64037     64038
     64039     64040     64039     64041     64040     64041     64042     64043
     64042     64044     64043     64044     64045     64046     64045     64047
     64046     64047     64048     64049     64048     64050     64049     64050
     64051     64052     64051     64053     64052     64053     64054     64055
     64054     64056     64055     64056     64057     64058     64057     64059
     64058     64059     64060     64061     64060     64062     64061     64062
     64063     64064     64063     64065     64064     64065     64066     64067
     64066     64068     64067     64068     64069     64070     64069     64071
     64070     64071     64072     64073     64072     64074     64073     64074
     64075     64076     64075     64077     64076     64077     64078     64079
     64078     64080     64079     64080     64081     64082     64081     64083
     64082     64083     64084     64085     64084     64086     64085     64086
     64087     64088     64087     64089     64088     64089     64090     64091
     64090     64092     64091     64092     64093     64094     64093     64095
     64094     64095     64096     64097     64096     64098     64097     64098
     64099     64100     64099     64101     64100     64101     64102     64103
     64102     64104     64103     64104     64105     64106     64105     64107
     64106     64107     64108     64109     64108     64110     64109     64110
     64111     64112     64111     64113     64112     64113     64114     64115
     64114     64116     64115     64116     64117     64118     64117     64119
     64118     64119     64120     64121     64120     64122     64121     64122
     64123     64124     64123     64125     64124     64125     64126     64127
     64126     64128     64127     64128     64129     64130     64129     64131
     64130     64131     64132     64133     64132     64134     64133     64134
     64135     64136     64135     64137     64136     64137     64138     64139
     64138     64140     64139     64140     64141     64142     64141     64143
     64142     64143     64144     64145     64144     64146     64145     64146
     64147     64148     64147     64149     64148     64149     64150     64151
     64150     64152     64151     64152     64153     64154     64153     64155
     64154     64155     64156     64157     64156     64158     64157     64158
     64159     64160     64159     64161     64160     64161     64162     64163
     64162     64164     64163     64164     64165     64166     64165     64167
     64166     64167     64168     64169     64168     64170     64169     64170
     64171     64172     64171     64173     64172     64173     64174     64175
     64174     64176     64175     64176     64177     64178     64177     64179
     64178     64179     64180     64181     64180     64182     64181     64182
     64183     64184     64183     64185     64184     64185     64186     64187
     64186     64188     64187     64188     64189     64190     64189     64191
     64190     64191     64192     64193     64192     64194     64193     64194
     64195     64196     64195     64197     64196     64197     64198     64199
     64198     64200     64199     64200     64201     64202     64201     64203
     64202     64203     64204     64205     64204     64206     64205     64206
     64207     64208     64207     64209     64208     64209     64210     64211
     64210     64212     64211     64212     64213     64214     64213     64215
     64214     64215     64216     64217     64216     64218     64217     64218
     64219     64220     64219     64221     64220     64221     64222     64223
     64222     64224     64223     64224     64225     64226     64225     64227
     64226     64227     64228     64229     64228     64230     64229     64230
     64231     64232     64231     64233     64232     64233     64234     64235
     64234     64236     64235     64236     64237     64238     64237     64239
     64238     64239     64240     64241     64240     64242     64241     64242
     64243     64244     64243     64245     64244     64245     64246     64247
     64246     64248     64247     64248     64249     64250     64249     64251
     64250     64251     64252     64253     64252     64254     64253     64254
     64255     64256     64255     64257     64256     64257     64258     64259
     64258     64260     64259     64260     64261     64262     64261     64263
     64262     64263     64264     64265     64264     64266     64265     64266
     64267     64268     64267     64269     64268     64269     64270     64271
     64270     64272     64271     64272     64273     64274     64273     64275
     64274     64275     64276     64277     64276     64278     64277     64278
     64279     64280     64279     64281     64280     64281     64282     64283
     64282     64284     64283     64284     64285     64286     64285     64287
     64286     64287     64288     64289     64288     64290     64289     64290
     64291     64292     64291     64293     64292     64293     64294     64295
     64294     64296     64295     64296     64297     64298     64297     64299
     64298     64299     64300     64301     64300     64302     64301     64302
     64303     64304     64303     64305     64304     64305     64306     64307
     64306     64308     64307     64308     64309     64310     64309     64311
     64310     64311     64312     64313     64312     64314     64313     64314
     64315     64316     64315     64317     64316     64317     64318     64319
     64318     64320     64319     64320     64321     64322     64321     64323
     64322     64323     64324     64325     64324     64326     64325     64326
     64327     64328     64327     64329     64328     64329     64330     64331
     64330     64332     64331     64332     64333     64334     64333     64335
     64334     64335     64336     64337     64336     64338     64337     64338
     64339     64340     64339     64341     64340     64341     64342     64343
     64342     64344     64343     64344     64345     64346     64345     64347
     64346     64347     64348     64349     64348     64350     64349     64350
     64351     64352     64351     64353     64352     64353     64354     64355
     64354     64356     64355     64356     64357     64358     64357     64359
     64358     64359     64360     64361     64360     64362     64361     64362
     64363     64364     64363     64365     64364     64365     64366     64367
     64366     64368     64367     64368     64369     64370     64369     64371
     64370     64371     64372     64373     64372     64374     64373     64374
     64375     64376     64375     64377     64376     64377     64378     64379
     64378     64380     64379     64380     64381     64382     64381     64383
     64382     64383     64384     64385     64384     64386     64385     64386
     64387     64388     64387     64389     64388     64389     64390     64391
     64390     64392     64391     64392     64393     64394     64393     64395
     64394     64395     64396     64397     64396     64398     64397     64398
     64399     64400     64399     64401     64400     64401     64402     64403
     64402     64404     64403     64404     64405     64406     64405     64407
     64406     64407     64408     64409     64408     64410     64409     64410
     64411     64412     64411     64413     64412     64413     64414     64415
     64414     64416     64415     64416     64417     64418     64417     64419
     64418     64419     64420     64421     64420     64422     64421     64422
     64423     64424     64423     64425     64424     64425     64426     64427
     64426     64428     64427     64428     64429     64430     64429     64431
     64430     64431     64432     64433     64432     64434     64433     64434
     64435     64436     64435     64437     64436     64437     64438     64439
     64438     64440     64439     64440     64441     64442     64441     64443
     64442     64443     64444     64445     64444     64446     64445     64446
     64447     64448     64447     64449     64448     64449     64450     64451
     64450     64452     64451     64452     64453     64454     64453     64455
     64454     64455     64456     64457     64456     64458     64457     64458
     64459     64460     64459     64461     64460     64461     64462     64463
     64462     64464     64463     64464     64465     64466     64465     64467
     64466     64467     64468     64469     64468     64470     64469     64470
     64471     64472     64471     64473     64472     64473     64474     64475
     64474     64476     64475     64476     64477     64478     64477     64479
     64478     64479     64480     64481     64480     64482     64481     64482
     64483     64484     64483     64485     64484     64485     64486     64487
     64486     64488     64487     64488     64489     64490     64489     64491
     64490     64491     64492     64493     64492     64494     64493     64494
     64495     64496     64495     64497     64496     64497     64498     64499
     64498     64500     64499     64500     64501     64502     64501     64503
     64502     64503     64504     64505     64504     64506     64505     64506
     64507     64508     64507     64509     64508     64509     64510     64511
     64510     64512     64511     64512     64513     64514     64513     64515
     64514     64515     64516     64517     64516     64518     64517     64518
     64519     64520     64519     64521     64520     64521     64522     64523
     64522     64524     64523     64524     64525     64526     64525     64527
     64526     64527     64528     64529     64528     64530     64529     64530
     64531     64532     64531     64533     64532     64533     64534     64535
     64534     64536     64535     64536     64537     64538     64537     64539
     64538     64539     64540     64541     64540     64542     64541     64542
     64543     64544     64543     64545     64544     64545     64546     64547
     64546     64548     64547     64548     64549     64550     64549     64551
     64550     64551     64552     64553     64552     64554     64553     64554
     64555     64556     64555     64557     64556     64557     64558     64559
     64558     64560     64559     64560     64561     64562     64561     64563
     64562     64563     64564     64565     64564     64566     64565     64566
     64567     64568     64567     64569     64568     64569     64570     64571
     64570     64572     64571     64572     64573     64574     64573     64575
     64574     64575     64576     64577     64576     64578     64577     64578
     64579     64580     64579     64581     64580     64581     64582     64583
     64582     64584     64583     64584     64585     64586     64585     64587
     64586     64587     64588     64589     64588     64590     64589     64590
     64591     64592     64591     64593     64592     64593     64594     64595
     64594     64596     64595     64596     64597     64598     64597     64599
     64598     64599     64600     64601     64600     64602     64601     64602
     64603     64604     64603     64605     64604     64605     64606     64607
     64606     64608     64607     64608     64609     64610     64609     64611
     64610     64611     64612     64613     64612     64614     64613     64614
     64615     64616     64615     64617     64616     64617     64618     64619
     64618     64620     64619     64620     64621     64622     64621     64623
     64622     64623     64624     64625     64624     64626     64625     64626
     64627     64628     64627     64629     64628     64629     64630     64631
     64630     64632     64631     64632     64633     64634     64633     64635
     64634     64635     64636     64637     64636     64638     64637     64638
     64639     64640     64639     64641     64640     64641     64642     64643
     64642     64644     64643     64644     64645     64646     64645     64647
     64646     64647     64648     64649     64648     64650     64649     64650
     64651     64652     64651     64653     64652     64653     64654     64655
     64654     64656     64655     64656     64657     64658     64657     64659
     64658     64659     64660     64661     64660     64662     64661     64662
     64663     64664     64663     64665     64664     64665     64666     64667
     64666     64668     64667     64668     64669     64670     64669     64671
     64670     64671     64672     64673     64672     64674     64673     64674
     64675     64676     64675     64677     64676     64677     64678     64679
     64678     64680     64679     64680     64681     64682     64681     64683
     64682     64683     64684     64685     64684     64686     64685     64686
     64687     64688     64687     64689     64688     64689     64690     64691
     64690     64692     64691     64692     64693     64694     64693     64695
     64694     64695     64696     64697     64696     64698     64697     64698
     64699     64700     64699     64701     64700     64701     64702     64703
     64702     64704     64703     64704     64705     64706     64705     64707
     64706     64707     64708     64709     64708     64710     64709     64710
     64711     64712     64711     64713     64712     64713     64714     64715
     64714     64716     64715     64716     64717     64718     64717     64719
     64718     64719     64720     64721     64720     64722     64721     64722
     64723     64724     64723     64725     64724     64725     64726     64727
     64726     64728     64727     64728     64729     64730     64729     64731
     64730     64731     64732     64733     64732     64734     64733     64734
     64735     64736     64735     64737     64736     64737     64738     64739
     64738     64740     64739     64740     64741     64742     64741     64743
     64742     64743     64744     64745     64744     64746     64745     64746
     64747     64748     64747     64749     64748     64749     64750     64751
     64750     64752     64751     64752     64753     64754     64753     64755
     64754     64755     64756     64757     64756     64758     64757     64758
     64759     64760     64759     64761     64760     64761     64762     64763
     64762     64764     64763     64764     64765     64766     64765     64767
     64766     64767     64768     64769     64768     64770     64769     64770
     64771     64772     64771     64773     64772     64773     64774     64775
     64774     64776     64775     64776     64777     64778     64777     64779
     64778     64779     64780     64781     64780     64782     64781     64782
     64783     64784     64783     64785     64784     64785     64786     64787
     64786     64788     64787     64788     64789     64790     64789     64791
     64790     64791     64792     64793     64792     64794     64793     64794
     64795     64796     64795     64797     64796     64797     64798     64799
     64798     64800     64799     64800     64801     64802     64801     64803
     64802     64803     64804     64805     64804     64806     64805     64806
     64807     64808     64807     64809     64808     64809     64810     64811
     64810     64812     64811     64812     64813     64814     64813     64815
     64814     64815     64816     64817     64816     64818     64817     64818
     64819     64820     64819     64821     64820     64821     64822     64823
     64822     64824     64823     64824     64825     64826     64825     64827
     64826     64827     64828     64829     64828     64830     64829     64830
     64831     64832     64831     64833     64832     64833     64834     64835
     64834     64836     64835     64836     64837     64838     64837     64839
     64838     64839     64840     64841     64840     64842     64841     64842
     64843     64844     64843     64845     64844     64845     64846     64847
     64846     64848     64847     64848     64849     64850     64849     64851
     64850     64851     64852     64853     64852     64854     64853     64854
     64855     64856     64855     64857     64856     64857     64858     64859
     64858     64860     64859     64860     64861     64862     64861     64863
     64862     64863     64864     64865     64864     64866     64865     64866
     64867     64868     64867     64869     64868     64869     64870     64871
     64870     64872     64871     64872     64873     64874     64873     64875
     64874     64875     64876     64877     64876     64878     64877     64878
     64879     64880     64879     64881     64880     64881     64882     64883
     64882     64884     64883     64884     64885     64886     64885     64887
     64886     64887     64888     64889     64888     64890     64889     64890
     64891     64892     64891     64893     64892     64893     64894     64895
     64894     64896     64895     64896     64897     64898     64897     64899
     64898     64899     64900     64901     64900     64902     64901     64902
     64903     64904     64903     64905     64904     64905     64906     64907
     64906     64908     64907     64908     64909     64910     64909     64911
     64910     64911     64912     64913     64912     64914     64913     64914
     64915     64916     64915     64917     64916     64917     64918     64919
     64918     64920     64919     64920     64921     64922     64921     64923
     64922     64923     64924     64925     64924     64926     64925     64926
     64927     64928     64927     64929     64928     64929     64930     64931
     64930     64932     64931     64932     64933     64934     64933     64935
     64934     64935     64936     64937     64936     64938     64937     64938
     64939     64940     64939     64941     64940     64941     64942     64943
     64942     64944     64943     64944     64945     64946     64945     64947
     64946     64947     64948     64949     64948     64950     64949     64950
     64951     64952     64951     64953     64952     64953     64954     64955
     64954     64956     64955     64956     64957     64958     64957     64959
     64958     64959     64960     64961     64960     64962     64961     64962
     64963     64964     64963     64965     64964     64965     64966     64967
     64966     64968     64967     64968     64969     64970     64969     64971
     64970     64971     64972     64973     64972     64974     64973     64974
     64975     64976     64975     64977     64976     64977     64978     64979
     64978     64980     64979     64980     64981     64982     64981     64983
     64982     64983     64984     64985     64984     64986     64985     64986
     64987     64988     64987     64989     64988     64989     64990     64991
     64990     64992     64991     64992     64993     64994     64993     64995
     64994     64995     64996     64997     64996     64998     64997     64998
     64999     65000     64999     65001     65000     65001     65002     65003
     65002     65004     65003     65004     65005     65006     65005     65007
     65006     65007     65008     65009     65008     65010     65009     65010
     65011     65012     65011     65013     65012     65013     65014     65015
     65014     65016     65015     65016     65017     65018     65017     65019
     65018     65019     65020     65021     65020     65022     65021     65022
     65023     65024     65023     65025     65024     65025     65026     65027
     65026     65028     65027     65028     65029     65030     65029     65031
     65030     65031     65032     65033     65032     65034     65033     65034
     65035     65036     65035     65037     65036     65037     65038     65039
     65038     65040     65039     65040     65041     65042     65041     65043
     65042     65043     65044     65045     65044     65046     65045     65046
     65047     65048     65047     65049     65048     65049     65050     65051
     65050     65052     65051     65052     65053     65054     65053     65055
     65054     65055     65056     65057     65056     65058     65057     65058
     65059     65060     65059     65061     65060     65061     65062     65063
     65062     65064     65063     65064     65065     65066     65065     65067
     65066     65067     65068     65069     65068     65070     65069     65070
     65071     65072     65071     65073     65072     65073     65074     65075
     65074     65076     65075     65076     65077     65078     65077     65079
     65078     65079     65080     65081     65080     65082     65081     65082
     65083     65084     65083     65085     65084     65085     65086     65087
     65086     65088     65087     65088     65089     65090     65089     65091
     65090     65091     65092     65093     65092     65094     65093     65094
     65095     65096     65095     65097     65096     65097     65098     65099
     65098     65100     65099     65100     65101     65102     65101     65103
     65102     65103     65104     65105     65104     65106     65105     65106
     65107     65108     65107     65109     65108     65109     65110     65111
     65110     65112     65111     65112     65113     65114     65113     65115
     65114     65115     65116     65117     65116     65118     65117     65118
     65119     65120     65119     65121     65120     65121     65122     65123
     65122     65124     65123     65124     65125     65126     65125     65127
     65126     65127     65128     65129     65128     65130     65129     65130
     65131     65132     65131     65133     65132     65133     65134     65135
     65134     65136     65135     65136     65137     65138     65137     65139
     65138     65139     65140     65141     65140     65142     65141     65142
     65143     65144     65143     65145     65144     65145     65146     65147
     65146     65148     65147     65148     65149     65150     65149     65151
     65150     65151     65152     65153     65152     65154     65153     65154
     65155     65156     65155     65157     65156     65157     65158     65159
     65158     65160     65159     65160     65161     65162     65161     65163
     65162     65163     65164     65165     65164     65166     65165     65166
     65167     65168     65167     65169     65168     65169     65170     65171
     65170     65172     65171     65172     65173     65174     65173     65175
     65174     65175     65176     65177     65176     65178     65177     65178
     65179     65180     65179     65181     65180     65181     65182     65183
     65182     65184     65183     65184     65185     65186     65185     65187
     65186     65187     65188     65189     65188     65190     65189     65190
     65191     65192     65191     65193     65192     65193     65194     65195
     65194     65196     65195     65196     65197     65198     65197     65199
     65198     65199     65200     65201     65200     65202     65201     65202
     65203     65204     65203     65205     65204     65205     65206     65207
     65206     65208     65207     65208     65209     65210     65209     65211
     65210     65211     65212     65213     65212     65214     65213     65214
     65215     65216     65215     65217     65216     65217     65218     65219
     65218     65220     65219     65220     65221     65222     65221     65223
     65222     65223     65224     65225     65224     65226     65225     65226
     65227     65228     65227     65229     65228     65229     65230     65231
     65230     65232     65231     65232     65233     65234     65233     65235
     65234     65235     65236     65237     65236     65238     65237     65238
     65239     65240     65239     65241     65240     65241     65242     65243
     65242     65244     65243     65244     65245     65246     65245     65247
     65246     65247     65248     65249     65248     65250     65249     65250
     65251     65252     65251     65253     65252     65253     65254     65255
     65254     65256     65255     65256     65257     65258     65257     65259
     65258     65259     65260     65261     65260     65262     65261     65262
     65263     65264     65263     65265     65264     65265     65266     65267
     65266     65268     65267     65268     65269     65270     65269     65271
     65270     65271     65272     65273     65272     65274     65273     65274
     65275     65276     65275     65277     65276     65277     65278     65279
     65278     65280     65279     65280     65281     65282     65281     65283
     65282     65283     65284     65285     65284     65286     65285     65286
     65287     65288     65287     65289     65288     65289     65290     65291
     65290     65292     65291     65292     65293     65294     65293     65295
     65294     65295     65296     65297     65296     65298     65297     65298
     65299     65300     65299     65301     65300     65301     65302     65303
     65302     65304     65303     65304     65305     65306     65305     65307
     65306     65307     65308     65309     65308     65310     65309     65310
     65311     65312     65311     65313     65312     65313     65314     65315
     65314     65316     65315     65316     65317     65318     65317     65319
     65318     65319     65320     65321     65320     65322     65321     65322
     65323     65324     65323     65325     65324     65325     65326     65327
     65326     65328     65327     65328     65329     65330     65329     65331
     65330     65331     65332     65333     65332     65334     65333     65334
     65335     65336     65335     65337     65336     65337     65338     65339
     65338     65340     65339     65340     65341     65342     65341     65343
     65342     65343     65344     65345     65344     65346     65345     65346
     65347     65348     65347     65349     65348     65349     65350     65351
     65350     65352     65351     65352     65353     65354     65353     65355
     65354     65355     65356     65357     65356     65358     65357     65358
     65359     65360     65359     65361     65360     65361     65362     65363
     65362     65364     65363     65364     65365     65366     65365     65367
     65366     65367     65368     65369     65368     65370     65369     65370
     65371     65372     65371     65373     65372     65373     65374     65375
     65374     65376     65375     65376     65377     65378     65377     65379
     65378     65379     65380     65381     65380     65382     65381     65382
     65383     65384     65383     65385     65384     65385     65386     65387
     65386     65388     65387     65388     65389     65390     65389     65391
     65390     65391     65392     65393     65392     65394     65393     65394
     65395     65396     65395     65397     65396     65397     65398     65399
     65398     65400     65399     65400     65401     65402     65401     65403
     65402     65403     65404     65405     65404     65406     65405     65406
     65407     65408     65407     65409     65408     65409     65410     65411
     65410     65412     65411     65412     65413     65414     65413     65415
     65414     65415     65416     65417     65416     65418     65417     65418
     65419     65420     65419     65421     65420     65421     65422     65423
     65422     65424     65423     65424     65425     65426     65425     65427
     65426     65427     65428     65429     65428     65430     65429     65430
     65431     65432     65431     65433     65432     65433     65434     65435
     65434     65436     65435     65436     65437     65438     65437     65439
     65438     65439     65440     65441     65440     65442     65441     65442
     65443     65444     65443     65445     65444     65445     65446     65447
     65446     65448     65447     65448     65449     65450     65449     65451
     65450     65451     65452     65453     65452     65454     65453     65454
     65455     65456     65455     65457     65456     65457     65458     65459
     65458     65460     65459     65460     65461     65462     65461     65463
     65462     65463     65464     65465     65464     65466     65465     65466
     65467     65468     65467     65469     65468     65469     65470     65471
     65470     65472     65471     65472     65473     65474     65473     65475
     65474     65475     65476     65477     65476     65478     65477     65478
     65479     65480     65479     65481     65480     65481     65482     65483
     65482     65484     65483     65484     65485     65486     65485     65487
     65486     65487     65488     65489     65488     65490     65489     65490
     65491     65492     65491     65493     65492     65493     65494     65495
     65494     65496     65495     65496     65497     65498     65497     65499
     65498     65499     65500     65501     65500     65502     65501     65502
     65503     65504     65503     65505     65504     65505     65506     65507
     65506     65508     65507     65508     65509     65510     65509     65511
     65510     65511     65512     65513     65512     65514     65513     65514
     65515     65516     65515     65517     65516     65517     65518     65519
     65518     65520     65519     65520     65521     65522     65521     65523
     65522     65523     65524     65525     65524     65526     65525     65526
     65527     65528     65527     65529     65528     65529     65530     65531
     65530     65532     65531     65532     65533     65534     65533     65535
     65534     65535     65536     65537     65536     65538     65537     65538
     65539     65540     65539     65541     65540     65541     65542     65543
     65542     65544     65543     65544     65545     65546     65545     65547
     65546     65547     65548     65549     65548     65550     65549     65550
     65551     65552     65551     65553     65552     65553     65554     65555
     65554     65556     65555     65556     65557     65558     65557     65559
     65558     65559     65560     65561     65560     65562     65561     65562
     65563     65564     65563     65565     65564     65565     65566     65567
     65566     65568     65567     65568     65569     65570     65569     65571
     65570     65571     65572     65573     65572     65574     65573     65574
     65575     65576     65575     65577     65576     65577     65578     65579
     65578     65580     65579     65580     65581     65582     65581     65583
     65582     65583     65584     65585     65584     65586     65585     65586
     65587     65588     65587     65589     65588     65589     65590     65591
     65590     65592     65591     65592     65593     65594     65593     65595
     65594     65595     65596     65597     65596     65598     65597     65598
     65599     65600     65599     65601     65600     65601     65602     65603
     65602     65604     65603     65604     65605     65606     65605     65607
     65606     65607     65608     65609     65608     65610     65609     65610
     65611     65612     65611     65613     65612     65613     65614     65615
     65614     65616     65615     65616     65617     65618     65617     65619
     65618     65619     65620     65621     65620     65622     65621     65622
     65623     65624     65623     65625     65624     65625     65626     65627
     65626     65628     65627     65628     65629     65630     65629     65631
     65630     65631     65632     65633     65632     65634     65633     65634
     65635     65636     65635     65637     65636     65637     65638     65639
     65638     65640     65639     65640     65641     65642     65641     65643
     65642     65643     65644     65645     65644     65646     65645     65646
     65647     65648     65647     65649     65648     65649     65650     65651
     65650     65652     65651     65652     65653     65654     65653     65655
     65654     65655     65656     65657     65656     65658     65657     65658
     65659     65660     65659     65661     65660     65661     65662     65663
     65662     65664     65663     65664     65665     65666     65665     65667
     65666     65667     65668     65669     65668     65670     65669     65670
     65671     65672     65671     65673     65672     65673     65674     65675
     65674     65676     65675     65676     65677     65678     65677     65679
     65678     65679     65680     65681     65680     65682     65681     65682
     65683     65684     65683     65685     65684     65685     65686     65687
     65686     65688     65687     65688     65689     65690     65689     65691
     65690     65691     65692     65693     65692     65694     65693     65694
     65695     65696     65695     65697     65696     65697     65698     65699
     65698     65700     65699     65700     65701     65702     65701     65703
     65702     65703     65704     65705     65704     65706     65705     65706
     65707     65708     65707     65709     65708     65709     65710     65711
     65710     65712     65711     65712     65713     65714     65713     65715
     65714     65715     65716     65717     65716     65718     65717     65718
     65719     65720     65719     65721     65720     65721     65722     65723
     65722     65724     65723     65724     65725     65726     65725     65727
     65726     65727     65728     65729     65728     65730     65729     65730
     65731     65732     65731     65733     65732     65733     65734     65735
     65734     65736     65735     65736     65737     65738     65737     65739
     65738     65739     65740     65741     65740     65742     65741     65742
     65743     65744     65743     65745     65744     65745     65746     65747
     65746     65748     65747     65748     65749     65750     65749     65751
     65750     65751     65752     65753     65752     65754     65753     65754
     65755     65756     65755     65757     65756     65757     65758     65759
     65758     65760     65759     65760     65761     65762     65761     65763
     65762     65763     65764     65765     65764     65766     65765     65766
     65767     65768     65767     65769     65768     65769     65770     65771
     65770     65772     65771     65772     65773     65774     65773     65775
     65774     65775     65776     65777     65776     65778     65777     65778
     65779     65780     65779     65781     65780     65781     65782     65783
     65782     65784     65783     65784     65785     65786     65785     65787
     65786     65787     65788     65789     65788     65790     65789     65790
     65791     65792     65791     65793     65792     65793     65794     65795
     65794     65796     65795     65796     65797     65798     65797     65799
     65798     65799     65800     65801     65800     65802     65801     65802
     65803     65804     65803     65805     65804     65805     65806     65807
     65806     65808     65807     65808     65809     65810     65809     65811
     65810     65811     65812     65813     65812     65814     65813     65814
     65815     65816     65815     65817     65816     65817     65818     65819
     65818     65820     65819     65820     65821     65822     65821     65823
     65822     65823     65824     65825     65824     65826     65825     65826
     65827     65828     65827     65829     65828     65829     65830     65831
     65830     65832     65831     65832     65833     65834     65833     65835
     65834     65835     65836     65837     65836     65838     65837     65838
     65839     65840     65839     65841     65840     65841     65842     65843
     65842     65844     65843     65844     65845     65846     65845     65847
     65846     65847     65848     65849     65848     65850     65849     65850
     65851     65852     65851     65853     65852     65853     65854     65855
     65854     65856     65855     65856     65857     65858     65857     65859
     65858     65859     65860     65861     65860     65862     65861     65862
     65863     65864     65863     65865     65864     65865     65866     65867
     65866     65868     65867     65868     65869     65870     65869     65871
     65870     65871     65872     65873     65872     65874     65873     65874
     65875     65876     65875     65877     65876     65877     65878     65879
     65878     65880     65879     65880     65881     65882     65881     65883
     65882     65883     65884     65885     65884     65886     65885     65886
     65887     65888     65887     65889     65888     65889     65890     65891
     65890     65892     65891     65892     65893     65894     65893     65895
     65894     65895     65896     65897     65896     65898     65897     65898
     65899     65900     65899     65901     65900     65901     65902     65903
     65902     65904     65903     65904     65905     65906     65905     65907
     65906     65907     65908     65909     65908     65910     65909     65910
     65911     65912     65911     65913     65912     65913     65914     65915
     65914     65916     65915     65916     65917     65918     65917     65919
     65918     65919     65920     65921     65920     65922     65921     65922
     65923     65924     65923     65925     65924     65925     65926     65927
     65926     65928     65927     65928     65929     65930     65929     65931
     65930     65931     65932     65933     65932     65934     65933     65934
     65935     65936     65935     65937     65936     65937     65938     65939
     65938     65940     65939     65940     65941     65942     65941     65943
     65942     65943     65944     65945     65944     65946     65945     65946
     65947     65948     65947     65949     65948     65949     65950     65951
     65950     65952     65951     65952     65953     65954     65953     65955
     65954     65955     65956     65957     65956     65958     65957     65958
     65959     65960     65959     65961     65960     65961     65962     65963
     65962     65964     65963     65964     65965     65966     65965     65967
     65966     65967     65968     65969     65968     65970     65969     65970
     65971     65972     65971     65973     65972     65973     65974     65975
     65974     65976     65975     65976     65977     65978     65977     65979
     65978     65979     65980     65981     65980     65982     65981     65982
     65983     65984     65983     65985     65984     65985     65986     65987
     65986     65988     65987     65988     65989     65990     65989     65991
     65990     65991     65992     65993     65992     65994     65993     65994
     65995     65996     65995     65997     65996     65997     65998     65999
     65998     66000     65999     66000     66001     66002     66001     66003
     66002     66003     66004     66005     66004     66006     66005     66006
     66007     66008     66007     66009     66008     66009     66010     66011
     66010     66012     66011     66012     66013     66014     66013     66015
     66014     66015     66016     66017     66016     66018     66017     66018
     66019     66020     66019     66021     66020     66021     66022     66023
     66022     66024     66023     66024     66025     66026     66025     66027
     66026     66027     66028     66029     66028     66030     66029     66030
     66031     66032     66031     66033     66032     66033     66034     66035
     66034     66036     66035     66036     66037     66038     66037     66039
     66038     66039     66040     66041     66040     66042     66041     66042
     66043     66044     66043     66045     66044     66045     66046     66047
     66046     66048     66047     66048     66049     66050     66049     66051
     66050     66051     66052     66053     66052     66054     66053     66054
     66055     66056     66055     66057     66056     66057     66058     66059
     66058     66060     66059     66060     66061     66062     66061     66063
     66062     66063     66064     66065     66064     66066     66065     66066
     66067     66068     66067     66069     66068     66069     66070     66071
     66070     66072     66071     66072     66073     66074     66073     66075
     66074     66075     66076     66077     66076     66078     66077     66078
     66079     66080     66079     66081     66080     66081     66082     66083
     66082     66084     66083     66084     66085     66086     66085     66087
     66086     66087     66088     66089     66088     66090     66089     66090
     66091     66092     66091     66093     66092     66093     66094     66095
     66094     66096     66095     66096     66097     66098     66097     66099
     66098     66099     66100     66101     66100     66102     66101     66102
     66103     66104     66103     66105     66104     66105     66106     66107
     66106     66108     66107     66108     66109     66110     66109     66111
     66110     66111     66112     66113     66112     66114     66113     66114
     66115     66116     66115     66117     66116     66117     66118     66119
     66118     66120     66119     66120     66121     66122     66121     66123
     66122     66123     66124     66125     66124     66126     66125     66126
     66127     66128     66127     66129     66128     66129     66130     66131
     66130     66132     66131     66132     66133     66134     66133     66135
     66134     66135     66136     66137     66136     66138     66137     66138
     66139     66140     66139     66141     66140     66141     66142     66143
     66142     66144     66143     66144     66145     66146     66145     66147
     66146     66147     66148     66149     66148     66150     66149     66150
     66151     66152     66151     66153     66152     66153     66154     66155
     66154     66156     66155     66156     66157     66158     66157     66159
     66158     66159     66160     66161     66160     66162     66161     66162
     66163     66164     66163     66165     66164     66165     66166     66167
     66166     66168     66167     66168     66169     66170     66169     66171
     66170     66171     66172     66173     66172     66174     66173     66174
     66175     66176     66175     66177     66176     66177     66178     66179
     66178     66180     66179     66180     66181     66182     66181     66183
     66182     66183     66184     66185     66184     66186     66185     66186
     66187     66188     66187     66189     66188     66189     66190     66191
     66190     66192     66191     66192     66193     66194     66193     66195
     66194     66195     66196     66197     66196     66198     66197     66198
     66199     66200     66199     66201     66200     66201     66202     66203
     66202     66204     66203     66204     66205     66206     66205     66207
     66206     66207     66208     66209     66208     66210     66209     66210
     66211     66212     66211     66213     66212     66213     66214     66215
     66214     66216     66215     66216     66217     66218     66217     66219
     66218     66219     66220     66221     66220     66222     66221     66222
     66223     66224     66223     66225     66224     66225     66226     66227
     66226     66228     66227     66228     66229     66230     66229     66231
     66230     66231     66232     66233     66232     66234     66233     66234
     66235     66236     66235     66237     66236     66237     66238     66239
     66238     66240     66239     66240     66241     66242     66241     66243
     66242     66243     66244     66245     66244     66246     66245     66246
     66247     66248     66247     66249     66248     66249     66250     66251
     66250     66252     66251     66252     66253     66254     66253     66255
     66254     66255     66256     66257     66256     66258     66257     66258
     66259     66260     66259     66261     66260     66261     66262     66263
     66262     66264     66263     66264     66265     66266     66265     66267
     66266     66267     66268     66269     66268     66270     66269     66270
     66271     66272     66271     66273     66272     66273     66274     66275
     66274     66276     66275     66276     66277     66278     66277     66279
     66278     66279     66280     66281     66280     66282     66281     66282
     66283     66284     66283     66285     66284     66285     66286     66287
     66286     66288     66287     66288     66289     66290     66289     66291
     66290     66291     66292     66293     66292     66294     66293     66294
     66295     66296     66295     66297     66296     66297     66298     66299
     66298     66300     66299     66300     66301     66302     66301     66303
     66302     66303     66304     66305     66304     66306     66305     66306
     66307     66308     66307     66309     66308     66309     66310     66311
     66310     66312     66311     66312     66313     66314     66313     66315
     66314     66315     66316     66317     66316     66318     66317     66318
     66319     66320     66319     66321     66320     66321     66322     66323
     66322     66324     66323     66324     66325     66326     66325     66327
     66326     66327     66328     66329     66328     66330     66329     66330
     66331     66332     66331     66333     66332     66333     66334     66335
     66334     66336     66335     66336     66337     66338     66337     66339
     66338     66339     66340     66341     66340     66342     66341     66342
     66343     66344     66343     66345     66344     66345     66346     66347
     66346     66348     66347     66348     66349     66350     66349     66351
     66350     66351     66352     66353     66352     66354     66353     66354
     66355     66356     66355     66357     66356     66357     66358     66359
     66358     66360     66359     66360     66361     66362     66361     66363
     66362     66363     66364     66365     66364     66366     66365     66366
     66367     66368     66367     66369     66368     66369     66370     66371
     66370     66372     66371     66372     66373     66374     66373     66375
     66374     66375     66376     66377     66376     66378     66377     66378
     66379     66380     66379     66381     66380     66381     66382     66383
     66382     66384     66383     66384     66385     66386     66385     66387
     66386     66387     66388     66389     66388     66390     66389     66390
     66391     66392     66391     66393     66392     66393     66394     66395
     66394     66396     66395     66396     66397     66398     66397     66399
     66398     66399     66400     66401     66400     66402     66401     66402
     66403     66404     66403     66405     66404     66405     66406     66407
     66406     66408     66407     66408     66409     66410     66409     66411
     66410     66411     66412     66413     66412     66414     66413     66414
     66415     66416     66415     66417     66416     66417     66418     66419
     66418     66420     66419     66420     66421     66422     66421     66423
     66422     66423     66424     66425     66424     66426     66425     66426
     66427     66428     66427     66429     66428     66429     66430     66431
     66430     66432     66431     66432     66433     66434     66433     66435
     66434     66435     66436     66437     66436     66438     66437     66438
     66439     66440     66439     66441     66440     66441     66442     66443
     66442     66444     66443     66444     66445     66446     66445     66447
     66446     66447     66448     66449     66448     66450     66449     66450
     66451     66452     66451     66453     66452     66453     66454     66455
     66454     66456     66455     66456     66457     66458     66457     66459
     66458     66459     66460     66461     66460     66462     66461     66462
     66463     66464     66463     66465     66464     66465     66466     66467
     66466     66468     66467     66468     66469     66470     66469     66471
     66470     66471     66472     66473     66472     66474     66473     66474
     66475     66476     66475     66477     66476     66477     66478     66479
     66478     66480     66479     66480     66481     66482     66481     66483
     66482     66483     66484     66485     66484     66486     66485     66486
     66487     66488     66487     66489     66488     66489     66490     66491
     66490     66492     66491     66492     66493     66494     66493     66495
     66494     66495     66496     66497     66496     66498     66497     66498
     66499     66500     66499     66501     66500     66501     66502     66503
     66502     66504     66503     66504     66505     66506     66505     66507
     66506     66507     66508     66509     66508     66510     66509     66510
     66511     66512     66511     66513     66512     66513     66514     66515
     66514     66516     66515     66516     66517     66518     66517     66519
     66518     66519     66520     66521     66520     66522     66521     66522
     66523     66524     66523     66525     66524     66525     66526     66527
     66526     66528     66527     66528     66529     66530     66529     66531
     66530     66531     66532     66533     66532     66534     66533     66534
     66535     66536     66535     66537     66536     66537     66538     66539
     66538     66540     66539     66540     66541     66542     66541     66543
     66542     66543     66544     66545     66544     66546     66545     66546
     66547     66548     66547     66549     66548     66549     66550     66551
     66550     66552     66551     66552     66553     66554     66553     66555
     66554     66555     66556     66557     66556     66558     66557     66558
     66559     66560     66559     66561     66560     66561     66562     66563
     66562     66564     66563     66564     66565     66566     66565     66567
     66566     66567     66568     66569     66568     66570     66569     66570
     66571     66572     66571     66573     66572     66573     66574     66575
     66574     66576     66575     66576     66577     66578     66577     66579
     66578     66579     66580     66581     66580     66582     66581     66582
     66583     66584     66583     66585     66584     66585     66586     66587
     66586     66588     66587     66588     66589     66590     66589     66591
     66590     66591     66592     66593     66592     66594     66593     66594
     66595     66596     66595     66597     66596     66597     66598     66599
     66598     66600     66599     66600     66601     66602     66601     66603
     66602     66603     66604     66605     66604     66606     66605     66606
     66607     66608     66607     66609     66608     66609     66610     66611
     66610     66612     66611     66612     66613     66614     66613     66615
     66614     66615     66616     66617     66616     66618     66617     66618
     66619     66620     66619     66621     66620     66621     66622     66623
     66622     66624     66623     66624     66625     66626     66625     66627
     66626     66627     66628     66629     66628     66630     66629     66630
     66631     66632     66631     66633     66632     66633     66634     66635
     66634     66636     66635     66636     66637     66638     66637     66639
     66638     66639     66640     66641     66640     66642     66641     66642
     66643     66644     66643     66645     66644     66645     66646     66647
     66646     66648     66647     66648     66649     66650     66649     66651
     66650     66651     66652     66653     66652     66654     66653     66654
     66655     66656     66655     66657     66656     66657     66658     66659
     66658     66660     66659     66660     66661     66662     66661     66663
     66662     66663     66664     66665     66664     66666     66665     66666
     66667     66668     66667     66669     66668     66669     66670     66671
     66670     66672     66671     66672     66673     66674     66673     66675
     66674     66675     66676     66677     66676     66678     66677     66678
     66679     66680     66679     66681     66680     66681     66682     66683
     66682     66684     66683     66684     66685     66686     66685     66687
     66686     66687     66688     66689     66688     66690     66689     66690
     66691     66692     66691     66693     66692     66693     66694     66695
     66694     66696     66695     66696     66697     66698     66697     66699
     66698     66699     66700     66701     66700     66702     66701     66702
     66703     66704     66703     66705     66704     66705     66706     66707
     66706     66708     66707     66708     66709     66710     66709     66711
     66710     66711     66712     66713     66712     66714     66713     66714
     66715     66716     66715     66717     66716     66717     66718     66719
     66718     66720     66719     66720     66721     66722     66721     66723
     66722     66723     66724     66725     66724     66726     66725     66726
     66727     66728     66727     66729     66728     66729     66730     66731
     66730     66732     66731     66732     66733     66734     66733     66735
     66734     66735     66736     66737     66736     66738     66737     66738
     66739     66740     66739     66741     66740     66741     66742     66743
     66742     66744     66743     66744     66745     66746     66745     66747
     66746     66747     66748     66749     66748     66750     66749     66750
     66751     66752     66751     66753     66752     66753     66754     66755
     66754     66756     66755     66756     66757     66758     66757     66759
     66758     66759     66760     66761     66760     66762     66761     66762
     66763     66764     66763     66765     66764     66765     66766     66767
     66766     66768     66767     66768     66769     66770     66769     66771
     66770     66771     66772     66773     66772     66774     66773     66774
     66775     66776     66775     66777     66776     66777     66778     66779
     66778     66780     66779     66780     66781     66782     66781     66783
     66782     66783     66784     66785     66784     66786     66785     66786
     66787     66788     66787     66789     66788     66789     66790     66791
     66790     66792     66791     66792     66793     66794     66793     66795
     66794     66795     66796     66797     66796     66798     66797     66798
     66799     66800     66799     66801     66800     66801     66802     66803
     66802     66804     66803     66804     66805     66806     66805     66807
     66806     66807     66808     66809     66808     66810     66809     66810
     66811     66812     66811     66813     66812     66813     66814     66815
     66814     66816     66815     66816     66817     66818     66817     66819
     66818     66819     66820     66821     66820     66822     66821     66822
     66823     66824     66823     66825     66824     66825     66826     66827
     66826     66828     66827     66828     66829     66830     66829     66831
     66830     66831     66832     66833     66832     66834     66833     66834
     66835     66836     66835     66837     66836     66837     66838     66839
     66838     66840     66839     66840     66841     66842     66841     66843
     66842     66843     66844     66845     66844     66846     66845     66846
     66847     66848     66847     66849     66848     66849     66850     66851
     66850     66852     66851     66852     66853     66854     66853     66855
     66854     66855     66856     66857     66856     66858     66857     66858
     66859     66860     66859     66861     66860     66861     66862     66863
     66862     66864     66863     66864     66865     66866     66865     66867
     66866     66867     66868     66869     66868     66870     66869     66870
     66871     66872     66871     66873     66872     66873     66874     66875
     66874     66876     66875     66876     66877     66878     66877     66879
     66878     66879     66880     66881     66880     66882     66881     66882
     66883     66884     66883     66885     66884     66885     66886     66887
     66886     66888     66887     66888     66889     66890     66889     66891
     66890     66891     66892     66893     66892     66894     66893     66894
     66895     66896     66895     66897     66896     66897     66898     66899
     66898     66900     66899     66900     66901     66902     66901     66903
     66902     66903     66904     66905     66904     66906     66905     66906
     66907     66908     66907     66909     66908     66909     66910     66911
     66910     66912     66911     66912     66913     66914     66913     66915
     66914     66915     66916     66917     66916     66918     66917     66918
     66919     66920     66919     66921     66920     66921     66922     66923
     66922     66924     66923     66924     66925     66926     66925     66927
     66926     66927     66928     66929     66928     66930     66929     66930
     66931     66932     66931     66933     66932     66933     66934     66935
     66934     66936     66935     66936     66937     66938     66937     66939
     66938     66939     66940     66941     66940     66942     66941     66942
     66943     66944     66943     66945     66944     66945     66946     66947
     66946     66948     66947     66948     66949     66950     66949     66951
     66950     66951     66952     66953     66952     66954     66953     66954
     66955     66956     66955     66957     66956     66957     66958     66959
     66958     66960     66959     66960     66961     66962     66961     66963
     66962     66963     66964     66965     66964     66966     66965     66966
     66967     66968     66967     66969     66968     66969     66970     66971
     66970     66972     66971     66972     66973     66974     66973     66975
     66974     66975     66976     66977     66976     66978     66977     66978
     66979     66980     66979     66981     66980     66981     66982     66983
     66982     66984     66983     66984     66985     66986     66985     66987
     66986     66987     66988     66989     66988     66990     66989     66990
     66991     66992     66991     66993     66992     66993     66994     66995
     66994     66996     66995     66996     66997     66998     66997     66999
     66998     66999     67000     67001     67000     67002     67001     67002
     67003     67004     67003     67005     67004     67005     67006     67007
     67006     67008     67007     67008     67009     67010     67009     67011
     67010     67011     67012     67013     67012     67014     67013     67014
     67015     67016     67015     67017     67016     67017     67018     67019
     67018     67020     67019     67020     67021     67022     67021     67023
     67022     67023     67024     67025     67024     67026     67025     67026
     67027     67028     67027     67029     67028     67029     67030     67031
     67030     67032     67031     67032     67033     67034     67033     67035
     67034     67035     67036     67037     67036     67038     67037     67038
     67039     67040     67039     67041     67040     67041     67042     67043
     67042     67044     67043     67044     67045     67046     67045     67047
     67046     67047     67048     67049     67048     67050     67049     67050
     67051     67052     67051     67053     67052     67053     67054     67055
     67054     67056     67055     67056     67057     67058     67057     67059
     67058     67059     67060     67061     67060     67062     67061     67062
     67063     67064     67063     67065     67064     67065     67066     67067
     67066     67068     67067     67068     67069     67070     67069     67071
     67070     67071     67072     67073     67072     67074     67073     67074
     67075     67076     67075     67077     67076     67077     67078     67079
     67078     67080     67079     67080     67081     67082     67081     67083
     67082     67083     67084     67085     67084     67086     67085     67086
     67087     67088     67087     67089     67088     67089     67090     67091
     67090     67092     67091     67092     67093     67094     67093     67095
     67094     67095     67096     67097     67096     67098     67097     67098
     67099     67100     67099     67101     67100     67101     67102     67103
     67102     67104     67103     67104     67105     67106     67105     67107
     67106     67107     67108     67109     67108     67110     67109     67110
     67111     67112     67111     67113     67112     67113     67114     67115
     67114     67116     67115     67116     67117     67118     67117     67119
     67118     67119     67120     67121     67120     67122     67121     67122
     67123     67124     67123     67125     67124     67125     67126     67127
     67126     67128     67127     67128     67129     67130     67129     67131
     67130     67131     67132     67133     67132     67134     67133     67134
     67135     67136     67135     67137     67136     67137     67138     67139
     67138     67140     67139     67140     67141     67142     67141     67143
     67142     67143     67144     67145     67144     67146     67145     67146
     67147     67148     67147     67149     67148     67149     67150     67151
     67150     67152     67151     67152     67153     67154     67153     67155
     67154     67155     67156     67157     67156     67158     67157     67158
     67159     67160     67159     67161     67160     67161     67162     67163
     67162     67164     67163     67164     67165     67166     67165     67167
     67166     67167     67168     67169     67168     67170     67169     67170
     67171     67172     67171     67173     67172     67173     67174     67175
     67174     67176     67175     67176     67177     67178     67177     67179
     67178     67179     67180     67181     67180     67182     67181     67182
     67183     67184     67183     67185     67184     67185     67186     67187
     67186     67188     67187     67188     67189     67190     67189     67191
     67190     67191     67192     67193     67192     67194     67193     67194
     67195     67196     67195     67197     67196     67197     67198     67199
     67198     67200     67199     67200     67201     67202     67201     67203
     67202     67203     67204     67205     67204     67206     67205     67206
     67207     67208     67207     67209     67208     67209     67210     67211
     67210     67212     67211     67212     67213     67214     67213     67215
     67214     67215     67216     67217     67216     67218     67217     67218
     67219     67220     67219     67221     67220     67221     67222     67223
     67222     67224     67223     67224     67225     67226     67225     67227
     67226     67227     67228     67229     67228     67230     67229     67230
     67231     67232     67231     67233     67232     67233     67234     67235
     67234     67236     67235     67236     67237     67238     67237     67239
     67238     67239     67240     67241     67240     67242     67241     67242
     67243     67244     67243     67245     67244     67245     67246     67247
     67246     67248     67247     67248     67249     67250     67249     67251
     67250     67251     67252     67253     67252     67254     67253     67254
     67255     67256     67255     67257     67256     67257     67258     67259
     67258     67260     67259     67260     67261     67262     67261     67263
     67262     67263     67264     67265     67264     67266     67265     67266
     67267     67268     67267     67269     67268     67269     67270     67271
     67270     67272     67271     67272     67273     67274     67273     67275
     67274     67275     67276     67277     67276     67278     67277     67278
     67279     67280     67279     67281     67280     67281     67282     67283
     67282     67284     67283     67284     67285     67286     67285     67287
     67286     67287     67288     67289     67288     67290     67289     67290
     67291     67292     67291     67293     67292     67293     67294     67295
     67294     67296     67295     67296     67297     67298     67297     67299
     67298     67299     67300     67301     67300     67302     67301     67302
     67303     67304     67303     67305     67304     67305     67306     67307
     67306     67308     67307     67308     67309     67310     67309     67311
     67310     67311     67312     67313     67312     67314     67313     67314
     67315     67316     67315     67317     67316     67317     67318     67319
     67318     67320     67319     67320     67321     67322     67321     67323
     67322     67323     67324     67325     67324     67326     67325     67326
     67327     67328     67327     67329     67328     67329     67330     67331
     67330     67332     67331     67332     67333     67334     67333     67335
     67334     67335     67336     67337     67336     67338     67337     67338
     67339     67340     67339     67341     67340     67341     67342     67343
     67342     67344     67343     67344     67345     67346     67345     67347
     67346     67347     67348     67349     67348     67350     67349     67350
     67351     67352     67351     67353     67352     67353     67354     67355
     67354     67356     67355     67356     67357     67358     67357     67359
     67358     67359     67360     67361     67360     67362     67361     67362
     67363     67364     67363     67365     67364     67365     67366     67367
     67366     67368     67367     67368     67369     67370     67369     67371
     67370     67371     67372     67373     67372     67374     67373     67374
     67375     67376     67375     67377     67376     67377     67378     67379
     67378     67380     67379     67380     67381     67382     67381     67383
     67382     67383     67384     67385     67384     67386     67385     67386
     67387     67388     67387     67389     67388     67389     67390     67391
     67390     67392     67391     67392     67393     67394     67393     67395
     67394     67395     67396     67397     67396     67398     67397     67398
     67399     67400     67399     67401     67400     67401     67402     67403
     67402     67404     67403     67404     67405     67406     67405     67407
     67406     67407     67408     67409     67408     67410     67409     67410
     67411     67412     67411     67413     67412     67413     67414     67415
     67414     67416     67415     67416     67417     67418     67417     67419
     67418     67419     67420     67421     67420     67422     67421     67422
     67423     67424     67423     67425     67424     67425     67426     67427
     67426     67428     67427     67428     67429     67430     67429     67431
     67430     67431     67432     67433     67432     67434     67433     67434
     67435     67436     67435     67437     67436     67437     67438     67439
     67438     67440     67439     67440     67441     67442     67441     67443
     67442     67443     67444     67445     67444     67446     67445     67446
     67447     67448     67447     67449     67448     67449     67450     67451
     67450     67452     67451     67452     67453     67454     67453     67455
     67454     67455     67456     67457     67456     67458     67457     67458
     67459     67460     67459     67461     67460     67461     67462     67463
     67462     67464     67463     67464     67465     67466     67465     67467
     67466     67467     67468     67469     67468     67470     67469     67470
     67471     67472     67471     67473     67472     67473     67474     67475
     67474     67476     67475     67476     67477     67478     67477     67479
     67478     67479     67480     67481     67480     67482     67481     67482
     67483     67484     67483     67485     67484     67485     67486     67487
     67486     67488     67487     67488     67489     67490     67489     67491
     67490     67491     67492     67493     67492     67494     67493     67494
     67495     67496     67495     67497     67496     67497     67498     67499
     67498     67500     67499     67500     67501     67502     67501     67503
     67502     67503     67504     67505     67504     67506     67505     67506
     67507     67508     67507     67509     67508     67509     67510     67511
     67510     67512     67511     67512     67513     67514     67513     67515
     67514     67515     67516     67517     67516     67518     67517     67518
     67519     67520     67519     67521     67520     67521     67522     67523
     67522     67524     67523     67524     67525     67526     67525     67527
     67526     67527     67528     67529     67528     67530     67529     67530
     67531     67532     67531     67533     67532     67533     67534     67535
     67534     67536     67535     67536     67537     67538     67537     67539
     67538     67539     67540     67541     67540     67542     67541     67542
     67543     67544     67543     67545     67544     67545     67546     67547
     67546     67548     67547     67548     67549     67550     67549     67551
     67550     67551     67552     67553     67552     67554     67553     67554
     67555     67556     67555     67557     67556     67557     67558     67559
     67558     67560     67559     67560     67561     67562     67561     67563
     67562     67563     67564     67565     67564     67566     67565     67566
     67567     67568     67567     67569     67568     67569     67570     67571
     67570     67572     67571     67572     67573     67574     67573     67575
     67574     67575     67576     67577     67576     67578     67577     67578
     67579     67580     67579     67581     67580     67581     67582     67583
     67582     67584     67583     67584     67585     67586     67585     67587
     67586     67587     67588     67589     67588     67590     67589     67590
     67591     67592     67591     67593     67592     67593     67594     67595
     67594     67596     67595     67596     67597     67598     67597     67599
     67598     67599     67600     67601     67600     67602     67601     67602
     67603     67604     67603     67605     67604     67605     67606     67607
     67606     67608     67607     67608     67609     67610     67609     67611
     67610     67611     67612     67613     67612     67614     67613     67614
     67615     67616     67615     67617     67616     67617     67618     67619
     67618     67620     67619     67620     67621     67622     67621     67623
     67622     67623     67624     67625     67624     67626     67625     67626
     67627     67628     67627     67629     67628     67629     67630     67631
     67630     67632     67631     67632     67633     67634     67633     67635
     67634     67635     67636     67637     67636     67638     67637     67638
     67639     67640     67639     67641     67640     67641     67642     67643
     67642     67644     67643     67644     67645     67646     67645     67647
     67646     67647     67648     67649     67648     67650     67649     67650
     67651     67652     67651     67653     67652     67653     67654     67655
     67654     67656     67655     67656     67657     67658     67657     67659
     67658     67659     67660     67661     67660     67662     67661     67662
     67663     67664     67663     67665     67664     67665     67666     67667
     67666     67668     67667     67668     67669     67670     67669     67671
     67670     67671     67672     67673     67672     67674     67673     67674
     67675     67676     67675     67677     67676     67677     67678     67679
     67678     67680     67679     67680     67681     67682     67681     67683
     67682     67683     67684     67685     67684     67686     67685     67686
     67687     67688     67687     67689     67688     67689     67690     67691
     67690     67692     67691     67692     67693     67694     67693     67695
     67694     67695     67696     67697     67696     67698     67697     67698
     67699     67700     67699     67701     67700     67701     67702     67703
     67702     67704     67703     67704     67705     67706     67705     67707
     67706     67707     67708     67709     67708     67710     67709     67710
     67711     67712     67711     67713     67712     67713     67714     67715
     67714     67716     67715     67716     67717     67718     67717     67719
     67718     67719     67720     67721     67720     67722     67721     67722
     67723     67724     67723     67725     67724     67725     67726     67727
     67726     67728     67727     67728     67729     67730     67729     67731
     67730     67731     67732     67733     67732     67734     67733     67734
     67735     67736     67735     67737     67736     67737     67738     67739
     67738     67740     67739     67740     67741     67742     67741     67743
     67742     67743     67744     67745     67744     67746     67745     67746
     67747     67748     67747     67749     67748     67749     67750     67751
     67750     67752     67751     67752     67753     67754     67753     67755
     67754     67755     67756     67757     67756     67758     67757     67758
     67759     67760     67759     67761     67760     67761     67762     67763
     67762     67764     67763     67764     67765     67766     67765     67767
     67766     67767     67768     67769     67768     67770     67769     67770
     67771     67772     67771     67773     67772     67773     67774     67775
     67774     67776     67775     67776     67777     67778     67777     67779
     67778     67779     67780     67781     67780     67782     67781     67782
     67783     67784     67783     67785     67784     67785     67786     67787
     67786     67788     67787     67788     67789     67790     67789     67791
     67790     67791     67792     67793     67792     67794     67793     67794
     67795     67796     67795     67797     67796     67797     67798     67799
     67798     67800     67799     67800     67801     67802     67801     67803
     67802     67803     67804     67805     67804     67806     67805     67806
     67807     67808     67807     67809     67808     67809     67810     67811
     67810     67812     67811     67812     67813     67814     67813     67815
     67814     67815     67816     67817     67816     67818     67817     67818
     67819     67820     67819     67821     67820     67821     67822     67823
     67822     67824     67823     67824     67825     67826     67825     67827
     67826     67827     67828     67829     67828     67830     67829     67830
     67831     67832     67831     67833     67832     67833     67834     67835
     67834     67836     67835     67836     67837     67838     67837     67839
     67838     67839     67840     67841     67840     67842     67841     67842
     67843     67844     67843     67845     67844     67845     67846     67847
     67846     67848     67847     67848     67849     67850     67849     67851
     67850     67851     67852     67853     67852     67854     67853     67854
     67855     67856     67855     67857     67856     67857     67858     67859
     67858     67860     67859     67860     67861     67862     67861     67863
     67862     67863     67864     67865     67864     67866     67865     67866
     67867     67868     67867     67869     67868     67869     67870     67871
     67870     67872     67871     67872     67873     67874     67873     67875
     67874     67875     67876     67877     67876     67878     67877     67878
     67879     67880     67879     67881     67880     67881     67882     67883
     67882     67884     67883     67884     67885     67886     67885     67887
     67886     67887     67888     67889     67888     67890     67889     67890
     67891     67892     67891     67893     67892     67893     67894     67895
     67894     67896     67895     67896     67897     67898     67897     67899
     67898     67899     67900     67901     67900     67902     67901     67902
     67903     67904     67903     67905     67904     67905     67906     67907
     67906     67908     67907     67908     67909     67910     67909     67911
     67910     67911     67912     67913     67912     67914     67913     67914
     67915     67916     67915     67917     67916     67917     67918     67919
     67918     67920     67919     67920     67921     67922     67921     67923
     67922     67923     67924     67925     67924     67926     67925     67926
     67927     67928     67927     67929     67928     67929     67930     67931
     67930     67932     67931     67932     67933     67934     67933     67935
     67934     67935     67936     67937     67936     67938     67937     67938
     67939     67940     67939     67941     67940     67941     67942     67943
     67942     67944     67943     67944     67945     67946     67945     67947
     67946     67947     67948     67949     67948     67950     67949     67950
     67951     67952     67951     67953     67952     67953     67954     67955
     67954     67956     67955     67956     67957     67958     67957     67959
     67958     67959     67960     67961     67960     67962     67961     67962
     67963     67964     67963     67965     67964     67965     67966     67967
     67966     67968     67967     67968     67969     67970     67969     67971
     67970     67971     67972     67973     67972     67974     67973     67974
     67975     67976     67975     67977     67976     67977     67978     67979
     67978     67980     67979     67980     67981     67982     67981     67983
     67982     67983     67984     67985     67984     67986     67985     67986
     67987     67988     67987     67989     67988     67989     67990     67991
     67990     67992     67991     67992     67993     67994     67993     67995
     67994     67995     67996     67997     67996     67998     67997     67998
     67999     68000     67999     68001     68000     68001     68002     68003
     68002     68004     68003     68004     68005     68006     68005     68007
     68006     68007     68008     68009     68008     68010     68009     68010
     68011     68012     68011     68013     68012     68013     68014     68015
     68014     68016     68015     68016     68017     68018     68017     68019
     68018     68019     68020     68021     68020     68022     68021     68022
     68023     68024     68023     68025     68024     68025     68026     68027
     68026     68028     68027     68028     68029     68030     68029     68031
     68030     68031     68032     68033     68032     68034     68033     68034
     68035     68036     68035     68037     68036     68037     68038     68039
     68038     68040     68039     68040     68041     68042     68041     68043
     68042     68043     68044     68045     68044     68046     68045     68046
     68047     68048     68047     68049     68048     68049     68050     68051
     68050     68052     68051     68052     68053     68054     68053     68055
     68054     68055     68056     68057     68056     68058     68057     68058
     68059     68060     68059     68061     68060     68061     68062     68063
     68062     68064     68063     68064     68065     68066     68065     68067
     68066     68067     68068     68069     68068     68070     68069     68070
     68071     68072     68071     68073     68072     68073     68074     68075
     68074     68076     68075     68076     68077     68078     68077     68079
     68078     68079     68080     68081     68080     68082     68081     68082
     68083     68084     68083     68085     68084     68085     68086     68087
     68086     68088     68087     68088     68089     68090     68089     68091
     68090     68091     68092     68093     68092     68094     68093     68094
     68095     68096     68095     68097     68096     68097     68098     68099
     68098     68100     68099     68100     68101     68102     68101     68103
     68102     68103     68104     68105     68104     68106     68105     68106
     68107     68108     68107     68109     68108     68109     68110     68111
     68110     68112     68111     68112     68113     68114     68113     68115
     68114     68115     68116     68117     68116     68118     68117     68118
     68119     68120     68119     68121     68120     68121     68122     68123
     68122     68124     68123     68124     68125     68126     68125     68127
     68126     68127     68128     68129     68128     68130     68129     68130
     68131     68132     68131     68133     68132     68133     68134     68135
     68134     68136     68135     68136     68137     68138     68137     68139
     68138     68139     68140     68141     68140     68142     68141     68142
     68143     68144     68143     68145     68144     68145     68146     68147
     68146     68148     68147     68148     68149     68150     68149     68151
     68150     68151     68152     68153     68152     68154     68153     68154
     68155     68156     68155     68157     68156     68157     68158     68159
     68158     68160     68159     68160     68161     68162     68161     68163
     68162     68163     68164     68165     68164     68166     68165     68166
     68167     68168     68167     68169     68168     68169     68170     68171
     68170     68172     68171     68172     68173     68174     68173     68175
     68174     68175     68176     68177     68176     68178     68177     68178
     68179     68180     68179     68181     68180     68181     68182     68183
     68182     68184     68183     68184     68185     68186     68185     68187
     68186     68187     68188     68189     68188     68190     68189     68190
     68191     68192     68191     68193     68192     68193     68194     68195
     68194     68196     68195     68196     68197     68198     68197     68199
     68198     68199     68200     68201     68200     68202     68201     68202
     68203     68204     68203     68205     68204     68205     68206     68207
     68206     68208     68207     68208     68209     68210     68209     68211
     68210     68211     68212     68213     68212     68214     68213     68214
     68215     68216     68215     68217     68216     68217     68218     68219
     68218     68220     68219     68220     68221     68222     68221     68223
     68222     68223     68224     68225     68224     68226     68225     68226
     68227     68228     68227     68229     68228     68229     68230     68231
     68230     68232     68231     68232     68233     68234     68233     68235
     68234     68235     68236     68237     68236     68238     68237     68238
     68239     68240     68239     68241     68240     68241     68242     68243
     68242     68244     68243     68244     68245     68246     68245     68247
     68246     68247     68248     68249     68248     68250     68249     68250
     68251     68252     68251     68253     68252     68253     68254     68255
     68254     68256     68255     68256     68257     68258     68257     68259
     68258     68259     68260     68261     68260     68262     68261     68262
     68263     68264     68263     68265     68264     68265     68266     68267
     68266     68268     68267     68268     68269     68270     68269     68271
     68270     68271     68272     68273     68272     68274     68273     68274
     68275     68276     68275     68277     68276     68277     68278     68279
     68278     68280     68279     68280     68281     68282     68281     68283
     68282     68283     68284     68285     68284     68286     68285     68286
     68287     68288     68287     68289     68288     68289     68290     68291
     68290     68292     68291     68292     68293     68294     68293     68295
     68294     68295     68296     68297     68296     68298     68297     68298
     68299     68300     68299     68301     68300     68301     68302     68303
     68302     68304     68303     68304     68305     68306     68305     68307
     68306     68307     68308     68309     68308     68310     68309     68310
     68311     68312     68311     68313     68312     68313     68314     68315
     68314     68316     68315     68316     68317     68318     68317     68319
     68318     68319     68320     68321     68320     68322     68321     68322
     68323     68324     68323     68325     68324     68325     68326     68327
     68326     68328     68327     68328     68329     68330     68329     68331
     68330     68331     68332     68333     68332     68334     68333     68334
     68335     68336     68335     68337     68336     68337     68338     68339
     68338     68340     68339     68340     68341     68342     68341     68343
     68342     68343     68344     68345     68344     68346     68345     68346
     68347     68348     68347     68349     68348     68349     68350     68351
     68350     68352     68351     68352     68353     68354     68353     68355
     68354     68355     68356     68357     68356     68358     68357     68358
     68359     68360     68359     68361     68360     68361     68362     68363
     68362     68364     68363     68364     68365     68366     68365     68367
     68366     68367     68368     68369     68368     68370     68369     68370
     68371     68372     68371     68373     68372     68373     68374     68375
     68374     68376     68375     68376     68377     68378     68377     68379
     68378     68379     68380     68381     68380     68382     68381     68382
     68383     68384     68383     68385     68384     68385     68386     68387
     68386     68388     68387     68388     68389     68390     68389     68391
     68390     68391     68392     68393     68392     68394     68393     68394
     68395     68396     68395     68397     68396     68397     68398     68399
     68398     68400     68399     68400     68401     68402     68401     68403
     68402     68403     68404     68405     68404     68406     68405     68406
     68407     68408     68407     68409     68408     68409     68410     68411
     68410     68412     68411     68412     68413     68414     68413     68415
     68414     68415     68416     68417     68416     68418     68417     68418
     68419     68420     68419     68421     68420     68421     68422     68423
     68422     68424     68423     68424     68425     68426     68425     68427
     68426     68427     68428     68429     68428     68430     68429     68430
     68431     68432     68431     68433     68432     68433     68434     68435
     68434     68436     68435     68436     68437     68438     68437     68439
     68438     68439     68440     68441     68440     68442     68441     68442
     68443     68444     68443     68445     68444     68445     68446     68447
     68446     68448     68447     68448     68449     68450     68449     68451
     68450     68451     68452     68453     68452     68454     68453     68454
     68455     68456     68455     68457     68456     68457     68458     68459
     68458     68460     68459     68460     68461     68462     68461     68463
     68462     68463     68464     68465     68464     68466     68465     68466
     68467     68468     68467     68469     68468     68469     68470     68471
     68470     68472     68471     68472     68473     68474     68473     68475
     68474     68475     68476     68477     68476     68478     68477     68478
     68479     68480     68479     68481     68480     68481     68482     68483
     68482     68484     68483     68484     68485     68486     68485     68487
     68486     68487     68488     68489     68488     68490     68489     68490
     68491     68492     68491     68493     68492     68493     68494     68495
     68494     68496     68495     68496     68497     68498     68497     68499
     68498     68499     68500     68501     68500     68502     68501     68502
     68503     68504     68503     68505     68504     68505     68506     68507
     68506     68508     68507     68508     68509     68510     68509     68511
     68510     68511     68512     68513     68512     68514     68513     68514
     68515     68516     68515     68517     68516     68517     68518     68519
     68518     68520     68519     68520     68521     68522     68521     68523
     68522     68523     68524     68525     68524     68526     68525     68526
     68527     68528     68527     68529     68528     68529     68530     68531
     68530     68532     68531     68532     68533     68534     68533     68535
     68534     68535     68536     68537     68536     68538     68537     68538
     68539     68540     68539     68541     68540     68541     68542     68543
     68542     68544     68543     68544     68545     68546     68545     68547
     68546     68547     68548     68549     68548     68550     68549     68550
     68551     68552     68551     68553     68552     68553     68554     68555
     68554     68556     68555     68556     68557     68558     68557     68559
     68558     68559     68560     68561     68560     68562     68561     68562
     68563     68564     68563     68565     68564     68565     68566     68567
     68566     68568     68567     68568     68569     68570     68569     68571
     68570     68571     68572     68573     68572     68574     68573     68574
     68575     68576     68575     68577     68576     68577     68578     68579
     68578     68580     68579     68580     68581     68582     68581     68583
     68582     68583     68584     68585     68584     68586     68585     68586
     68587     68588     68587     68589     68588     68589     68590     68591
     68590     68592     68591     68592     68593     68594     68593     68595
     68594     68595     68596     68597     68596     68598     68597     68598
     68599     68600     68599     68601     68600     68601     68602     68603
     68602     68604     68603     68604     68605     68606     68605     68607
     68606     68607     68608     68609     68608     68610     68609     68610
     68611     68612     68611     68613     68612     68613     68614     68615
     68614     68616     68615     68616     68617     68618     68617     68619
     68618     68619     68620     68621     68620     68622     68621     68622
     68623     68624     68623     68625     68624     68625     68626     68627
     68626     68628     68627     68628     68629     68630     68629     68631
     68630     68631     68632     68633     68632     68634     68633     68634
     68635     68636     68635     68637     68636     68637     68638     68639
     68638     68640     68639     68640     68641     68642     68641     68643
     68642     68643     68644     68645     68644     68646     68645     68646
     68647     68648     68647     68649     68648     68649     68650     68651
     68650     68652     68651     68652     68653     68654     68653     68655
     68654     68655     68656     68657     68656     68658     68657     68658
     68659     68660     68659     68661     68660     68661     68662     68663
     68662     68664     68663     68664     68665     68666     68665     68667
     68666     68667     68668     68669     68668     68670     68669     68670
     68671     68672     68671     68673     68672     68673     68674     68675
     68674     68676     68675     68676     68677     68678     68677     68679
     68678     68679     68680     68681     68680     68682     68681     68682
     68683     68684     68683     68685     68684     68685     68686     68687
     68686     68688     68687     68688     68689     68690     68689     68691
     68690     68691     68692     68693     68692     68694     68693     68694
     68695     68696     68695     68697     68696     68697     68698     68699
     68698     68700     68699     68700     68701     68702     68701     68703
     68702     68703     68704     68705     68704     68706     68705     68706
     68707     68708     68707     68709     68708     68709     68710     68711
     68710     68712     68711     68712     68713     68714     68713     68715
     68714     68715     68716     68717     68716     68718     68717     68718
     68719     68720     68719     68721     68720     68721     68722     68723
     68722     68724     68723     68724     68725     68726     68725     68727
     68726     68727     68728     68729     68728     68730     68729     68730
     68731     68732     68731     68733     68732     68733     68734     68735
     68734     68736     68735     68736     68737     68738     68737     68739
     68738     68739     68740     68741     68740     68742     68741     68742
     68743     68744     68743     68745     68744     68745     68746     68747
     68746     68748     68747     68748     68749     68750     68749     68751
     68750     68751     68752     68753     68752     68754     68753     68754
     68755     68756     68755     68757     68756     68757     68758     68759
     68758     68760     68759     68760     68761     68762     68761     68763
     68762     68763     68764     68765     68764     68766     68765     68766
     68767     68768     68767     68769     68768     68769     68770     68771
     68770     68772     68771     68772     68773     68774     68773     68775
     68774     68775     68776     68777     68776     68778     68777     68778
     68779     68780     68779     68781     68780     68781     68782     68783
     68782     68784     68783     68784     68785     68786     68785     68787
     68786     68787     68788     68789     68788     68790     68789     68790
     68791     68792     68791     68793     68792     68793     68794     68795
     68794     68796     68795     68796     68797     68798     68797     68799
     68798     68799     68800     68801     68800     68802     68801     68802
     68803     68804     68803     68805     68804     68805     68806     68807
     68806     68808     68807     68808     68809     68810     68809     68811
     68810     68811     68812     68813     68812     68814     68813     68814
     68815     68816     68815     68817     68816     68817     68818     68819
     68818     68820     68819     68820     68821     68822     68821     68823
     68822     68823     68824     68825     68824     68826     68825     68826
     68827     68828     68827     68829     68828     68829     68830     68831
     68830     68832     68831     68832     68833     68834     68833     68835
     68834     68835     68836     68837     68836     68838     68837     68838
     68839     68840     68839     68841     68840     68841     68842     68843
     68842     68844     68843     68844     68845     68846     68845     68847
     68846     68847     68848     68849     68848     68850     68849     68850
     68851     68852     68851     68853     68852     68853     68854     68855
     68854     68856     68855     68856     68857     68858     68857     68859
     68858     68859     68860     68861     68860     68862     68861     68862
     68863     68864     68863     68865     68864     68865     68866     68867
     68866     68868     68867     68868     68869     68870     68869     68871
     68870     68871     68872     68873     68872     68874     68873     68874
     68875     68876     68875     68877     68876     68877     68878     68879
     68878     68880     68879     68880     68881     68882     68881     68883
     68882     68883     68884     68885     68884     68886     68885     68886
     68887     68888     68887     68889     68888     68889     68890     68891
     68890     68892     68891     68892     68893     68894     68893     68895
     68894     68895     68896     68897     68896     68898     68897     68898
     68899     68900     68899     68901     68900     68901     68902     68903
     68902     68904     68903     68904     68905     68906     68905     68907
     68906     68907     68908     68909     68908     68910     68909     68910
     68911     68912     68911     68913     68912     68913     68914     68915
     68914     68916     68915     68916     68917     68918     68917     68919
     68918     68919     68920     68921     68920     68922     68921     68922
     68923     68924     68923     68925     68924     68925     68926     68927
     68926     68928     68927     68928     68929     68930     68929     68931
     68930     68931     68932     68933     68932     68934     68933     68934
     68935     68936     68935     68937     68936     68937     68938     68939
     68938     68940     68939     68940     68941     68942     68941     68943
     68942     68943     68944     68945     68944     68946     68945     68946
     68947     68948     68947     68949     68948     68949     68950     68951
     68950     68952     68951     68952     68953     68954     68953     68955
     68954     68955     68956     68957     68956     68958     68957     68958
     68959     68960     68959     68961     68960     68961     68962     68963
     68962     68964     68963     68964     68965     68966     68965     68967
     68966     68967     68968     68969     68968     68970     68969     68970
     68971     68972     68971     68973     68972     68973     68974     68975
     68974     68976     68975     68976     68977     68978     68977     68979
     68978     68979     68980     68981     68980     68982     68981     68982
     68983     68984     68983     68985     68984     68985     68986     68987
     68986     68988     68987     68988     68989     68990     68989     68991
     68990     68991     68992     68993     68992     68994     68993     68994
     68995     68996     68995     68997     68996     68997     68998     68999
     68998     69000     68999     69000     69001     69002     69001     69003
     69002     69003     69004     69005     69004     69006     69005     69006
     69007     69008     69007     69009     69008     69009     69010     69011
     69010     69012     69011     69012     69013     69014     69013     69015
     69014     69015     69016     69017     69016     69018     69017     69018
     69019     69020     69019     69021     69020     69021     69022     69023
     69022     69024     69023     69024     69025     69026     69025     69027
     69026     69027     69028     69029     69028     69030     69029     69030
     69031     69032     69031     69033     69032     69033     69034     69035
     69034     69036     69035     69036     69037     69038     69037     69039
     69038     69039     69040     69041     69040     69042     69041     69042
     69043     69044     69043     69045     69044     69045     69046     69047
     69046     69048     69047     69048     69049     69050     69049     69051
     69050     69051     69052     69053     69052     69054     69053     69054
     69055     69056     69055     69057     69056     69057     69058     69059
     69058     69060     69059     69060     69061     69062     69061     69063
     69062     69063     69064     69065     69064     69066     69065     69066
     69067     69068     69067     69069     69068     69069     69070     69071
     69070     69072     69071     69072     69073     69074     69073     69075
     69074     69075     69076     69077     69076     69078     69077     69078
     69079     69080     69079     69081     69080     69081     69082     69083
     69082     69084     69083     69084     69085     69086     69085     69087
     69086     69087     69088     69089     69088     69090     69089     69090
     69091     69092     69091     69093     69092     69093     69094     69095
     69094     69096     69095     69096     69097     69098     69097     69099
     69098     69099     69100     69101     69100     69102     69101     69102
     69103     69104     69103     69105     69104     69105     69106     69107
     69106     69108     69107     69108     69109     69110     69109     69111
     69110     69111     69112     69113     69112     69114     69113     69114
     69115     69116     69115     69117     69116     69117     69118     69119
     69118     69120     69119     69120     69121     69122     69121     69123
     69122     69123     69124     69125     69124     69126     69125     69126
     69127     69128     69127     69129     69128     69129     69130     69131
     69130     69132     69131     69132     69133     69134     69133     69135
     69134     69135     69136     69137     69136     69138     69137     69138
     69139     69140     69139     69141     69140     69141     69142     69143
     69142     69144     69143     69144     69145     69146     69145     69147
     69146     69147     69148     69149     69148     69150     69149     69150
     69151     69152     69151     69153     69152     69153     69154     69155
     69154     69156     69155     69156     69157     69158     69157     69159
     69158     69159     69160     69161     69160     69162     69161     69162
     69163     69164     69163     69165     69164     69165     69166     69167
     69166     69168     69167     69168     69169     69170     69169     69171
     69170     69171     69172     69173     69172     69174     69173     69174
     69175     69176     69175     69177     69176     69177     69178     69179
     69178     69180     69179     69180     69181     69182     69181     69183
     69182     69183     69184     69185     69184     69186     69185     69186
     69187     69188     69187     69189     69188     69189     69190     69191
     69190     69192     69191     69192     69193     69194     69193     69195
     69194     69195     69196     69197     69196     69198     69197     69198
     69199     69200     69199     69201     69200     69201     69202     69203
     69202     69204     69203     69204     69205     69206     69205     69207
     69206     69207     69208     69209     69208     69210     69209     69210
     69211     69212     69211     69213     69212     69213     69214     69215
     69214     69216     69215     69216     69217     69218     69217     69219
     69218     69219     69220     69221     69220     69222     69221     69222
     69223     69224     69223     69225     69224     69225     69226     69227
     69226     69228     69227     69228     69229     69230     69229     69231
     69230     69231     69232     69233     69232     69234     69233     69234
     69235     69236     69235     69237     69236     69237     69238     69239
     69238     69240     69239     69240     69241     69242     69241     69243
     69242     69243     69244     69245     69244     69246     69245     69246
     69247     69248     69247     69249     69248     69249     69250     69251
     69250     69252     69251     69252     69253     69254     69253     69255
     69254     69255     69256     69257     69256     69258     69257     69258
     69259     69260     69259     69261     69260     69261     69262     69263
     69262     69264     69263     69264     69265     69266     69265     69267
     69266     69267     69268     69269     69268     69270     69269     69270
     69271     69272     69271     69273     69272     69273     69274     69275
     69274     69276     69275     69276     69277     69278     69277     69279
     69278     69279     69280     69281     69280     69282     69281     69282
     69283     69284     69283     69285     69284     69285     69286     69287
     69286     69288     69287     69288     69289     69290     69289     69291
     69290     69291     69292     69293     69292     69294     69293     69294
     69295     69296     69295     69297     69296     69297     69298     69299
     69298     69300     69299     69300     69301     69302     69301     69303
     69302     69303     69304     69305     69304     69306     69305     69306
     69307     69308     69307     69309     69308     69309     69310     69311
     69310     69312     69311     69312     69313     69314     69313     69315
     69314     69315     69316     69317     69316     69318     69317     69318
     69319     69320     69319     69321     69320     69321     69322     69323
     69322     69324     69323     69324     69325     69326     69325     69327
     69326     69327     69328     69329     69328     69330     69329     69330
     69331     69332     69331     69333     69332     69333     69334     69335
     69334     69336     69335     69336     69337     69338     69337     69339
     69338     69339     69340     69341     69340     69342     69341     69342
     69343     69344     69343     69345     69344     69345     69346     69347
     69346     69348     69347     69348     69349     69350     69349     69351
     69350     69351     69352     69353     69352     69354     69353     69354
     69355     69356     69355     69357     69356     69357     69358     69359
     69358     69360     69359     69360     69361     69362     69361     69363
     69362     69363     69364     69365     69364     69366     69365     69366
     69367     69368     69367     69369     69368     69369     69370     69371
     69370     69372     69371     69372     69373     69374     69373     69375
     69374     69375     69376     69377     69376     69378     69377     69378
     69379     69380     69379     69381     69380     69381     69382     69383
     69382     69384     69383     69384     69385     69386     69385     69387
     69386     69387     69388     69389     69388     69390     69389     69390
     69391     69392     69391     69393     69392     69393     69394     69395
     69394     69396     69395     69396     69397     69398     69397     69399
     69398     69399     69400     69401     69400     69402     69401     69402
     69403     69404     69403     69405     69404     69405     69406     69407
     69406     69408     69407     69408     69409     69410     69409     69411
     69410     69411     69412     69413     69412     69414     69413     69414
     69415     69416     69415     69417     69416     69417     69418     69419
     69418     69420     69419     69420     69421     69422     69421     69423
     69422     69423     69424     69425     69424     69426     69425     69426
     69427     69428     69427     69429     69428     69429     69430     69431
     69430     69432     69431     69432     69433     69434     69433     69435
     69434     69435     69436     69437     69436     69438     69437     69438
     69439     69440     69439     69441     69440     69441     69442     69443
     69442     69444     69443     69444     69445     69446     69445     69447
     69446     69447     69448     69449     69448     69450     69449     69450
     69451     69452     69451     69453     69452     69453     69454     69455
     69454     69456     69455     69456     69457     69458     69457     69459
     69458     69459     69460     69461     69460     69462     69461     69462
     69463     69464     69463     69465     69464     69465     69466     69467
     69466     69468     69467     69468     69469     69470     69469     69471
     69470     69471     69472     69473     69472     69474     69473     69474
     69475     69476     69475     69477     69476     69477     69478     69479
     69478     69480     69479     69480     69481     69482     69481     69483
     69482     69483     69484     69485     69484     69486     69485     69486
     69487     69488     69487     69489     69488     69489     69490     69491
     69490     69492     69491     69492     69493     69494     69493     69495
     69494     69495     69496     69497     69496     69498     69497     69498
     69499     69500     69499     69501     69500     69501     69502     69503
     69502     69504     69503     69504     69505     69506     69505     69507
     69506     69507     69508     69509     69508     69510     69509     69510
     69511     69512     69511     69513     69512     69513     69514     69515
     69514     69516     69515     69516     69517     69518     69517     69519
     69518     69519     69520     69521     69520     69522     69521     69522
     69523     69524     69523     69525     69524     69525     69526     69527
     69526     69528     69527     69528     69529     69530     69529     69531
     69530     69531     69532     69533     69532     69534     69533     69534
     69535     69536     69535     69537     69536     69537     69538     69539
     69538     69540     69539     69540     69541     69542     69541     69543
     69542     69543     69544     69545     69544     69546     69545     69546
     69547     69548     69547     69549     69548     69549     69550     69551
     69550     69552     69551     69552     69553     69554     69553     69555
     69554     69555     69556     69557     69556     69558     69557     69558
     69559     69560     69559     69561     69560     69561     69562     69563
     69562     69564     69563     69564     69565     69566     69565     69567
     69566     69567     69568     69569     69568     69570     69569     69570
     69571     69572     69571     69573     69572     69573     69574     69575
     69574     69576     69575     69576     69577     69578     69577     69579
     69578     69579     69580     69581     69580     69582     69581     69582
     69583     69584     69583     69585     69584     69585     69586     69587
     69586     69588     69587     69588     69589     69590     69589     69591
     69590     69591     69592     69593     69592     69594     69593     69594
     69595     69596     69595     69597     69596     69597     69598     69599
     69598     69600     69599     69600     69601     69602     69601     69603
     69602     69603     69604     69605     69604     69606     69605     69606
     69607     69608     69607     69609     69608     69609     69610     69611
     69610     69612     69611     69612     69613     69614     69613     69615
     69614     69615     69616     69617     69616     69618     69617     69618
     69619     69620     69619     69621     69620     69621     69622     69623
     69622     69624     69623     69624     69625     69626     69625     69627
     69626     69627     69628     69629     69628     69630     69629     69630
     69631     69632     69631     69633     69632     69633     69634     69635
     69634     69636     69635     69636     69637     69638     69637     69639
     69638     69639     69640     69641     69640     69642     69641     69642
     69643     69644     69643     69645     69644     69645     69646     69647
     69646     69648     69647     69648     69649     69650     69649     69651
     69650     69651     69652     69653     69652     69654     69653     69654
     69655     69656     69655     69657     69656     69657     69658     69659
     69658     69660     69659     69660     69661     69662     69661     69663
     69662     69663     69664     69665     69664     69666     69665     69666
     69667     69668     69667     69669     69668     69669     69670     69671
     69670     69672     69671     69672     69673     69674     69673     69675
     69674     69675     69676     69677     69676     69678     69677     69678
     69679     69680     69679     69681     69680     69681     69682     69683
     69682     69684     69683     69684     69685     69686     69685     69687
     69686     69687     69688     69689     69688     69690     69689     69690
     69691     69692     69691     69693     69692     69693     69694     69695
     69694     69696     69695     69696     69697     69698     69697     69699
     69698     69699     69700     69701     69700     69702     69701     69702
     69703     69704     69703     69705     69704     69705     69706     69707
     69706     69708     69707     69708     69709     69710     69709     69711
     69710     69711     69712     69713     69712     69714     69713     69714
     69715     69716     69715     69717     69716     69717     69718     69719
     69718     69720     69719     69720     69721     69722     69721     69723
     69722     69723     69724     69725     69724     69726     69725     69726
     69727     69728     69727     69729     69728     69729     69730     69731
     69730     69732     69731     69732     69733     69734     69733     69735
     69734     69735     69736     69737     69736     69738     69737     69738
     69739     69740     69739     69741     69740     69741     69742     69743
     69742     69744     69743     69744     69745     69746     69745     69747
     69746     69747     69748     69749     69748     69750     69749     69750
     69751     69752     69751     69753     69752     69753     69754     69755
     69754     69756     69755     69756     69757     69758     69757     69759
     69758     69759     69760     69761     69760     69762     69761     69762
     69763     69764     69763     69765     69764     69765     69766     69767
     69766     69768     69767     69768     69769     69770     69769     69771
     69770     69771     69772     69773     69772     69774     69773     69774
     69775     69776     69775     69777     69776     69777     69778     69779
     69778     69780     69779     69780     69781     69782     69781     69783
     69782     69783     69784     69785     69784     69786     69785     69786
     69787     69788     69787     69789     69788     69789     69790     69791
     69790     69792     69791     69792     69793     69794     69793     69795
     69794     69795     69796     69797     69796     69798     69797     69798
     69799     69800     69799     69801     69800     69801     69802     69803
     69802     69804     69803     69804     69805     69806     69805     69807
     69806     69807     69808     69809     69808     69810     69809     69810
     69811     69812     69811     69813     69812     69813     69814     69815
     69814     69816     69815     69816     69817     69818     69817     69819
     69818     69819     69820     69821     69820     69822     69821     69822
     69823     69824     69823     69825     69824     69825     69826     69827
     69826     69828     69827     69828     69829     69830     69829     69831
     69830     69831     69832     69833     69832     69834     69833     69834
     69835     69836     69835     69837     69836     69837     69838     69839
     69838     69840     69839     69840     69841     69842     69841     69843
     69842     69843     69844     69845     69844     69846     69845     69846
     69847     69848     69847     69849     69848     69849     69850     69851
     69850     69852     69851     69852     69853     69854     69853     69855
     69854     69855     69856     69857     69856     69858     69857     69858
     69859     69860     69859     69861     69860     69861     69862     69863
     69862     69864     69863     69864     69865     69866     69865     69867
     69866     69867     69868     69869     69868     69870     69869     69870
     69871     69872     69871     69873     69872     69873     69874     69875
     69874     69876     69875     69876     69877     69878     69877     69879
     69878     69879     69880     69881     69880     69882     69881     69882
     69883     69884     69883     69885     69884     69885     69886     69887
     69886     69888     69887     69888     69889     69890     69889     69891
     69890     69891     69892     69893     69892     69894     69893     69894
     69895     69896     69895     69897     69896     69897     69898     69899
     69898     69900     69899     69900     69901     69902     69901     69903
     69902     69903     69904     69905     69904     69906     69905     69906
     69907     69908     69907     69909     69908     69909     69910     69911
     69910     69912     69911     69912     69913     69914     69913     69915
     69914     69915     69916     69917     69916     69918     69917     69918
     69919     69920     69919     69921     69920     69921     69922     69923
     69922     69924     69923     69924     69925     69926     69925     69927
     69926     69927     69928     69929     69928     69930     69929     69930
     69931     69932     69931     69933     69932     69933     69934     69935
     69934     69936     69935     69936     69937     69938     69937     69939
     69938     69939     69940     69941     69940     69942     69941     69942
     69943     69944     69943     69945     69944     69945     69946     69947
     69946     69948     69947     69948     69949     69950     69949     69951
     69950     69951     69952     69953     69952     69954     69953     69954
     69955     69956     69955     69957     69956     69957     69958     69959
     69958     69960     69959     69960     69961     69962     69961     69963
     69962     69963     69964     69965     69964     69966     69965     69966
     69967     69968     69967     69969     69968     69969     69970     69971
     69970     69972     69971     69972     69973     69974     69973     69975
     69974     69975     69976     69977     69976     69978     69977     69978
     69979     69980     69979     69981     69980     69981     69982     69983
     69982     69984     69983     69984     69985     69986     69985     69987
     69986     69987     69988     69989     69988     69990     69989     69990
     69991     69992     69991     69993     69992     69993     69994     69995
     69994     69996     69995     69996     69997     69998     69997     69999
     69998     69999     70000     70001     70000     70002     70001     70002
     70003     70004     70003     70005     70004     70005     70006     70007
     70006     70008     70007     70008     70009     70010     70009     70011
     70010     70011     70012     70013     70012     70014     70013     70014
     70015     70016     70015     70017     70016     70017     70018     70019
     70018     70020     70019     70020     70021     70022     70021     70023
     70022     70023     70024     70025     70024     70026     70025     70026
     70027     70028     70027     70029     70028     70029     70030     70031
     70030     70032     70031     70032     70033     70034     70033     70035
     70034     70035     70036     70037     70036     70038     70037     70038
     70039     70040     70039     70041     70040     70041     70042     70043
     70042     70044     70043     70044     70045     70046     70045     70047
     70046     70047     70048     70049     70048     70050     70049     70050
     70051     70052     70051     70053     70052     70053     70054     70055
     70054     70056     70055     70056     70057     70058     70057     70059
     70058     70059     70060     70061     70060     70062     70061     70062
     70063     70064     70063     70065     70064     70065     70066     70067
     70066     70068     70067     70068     70069     70070     70069     70071
     70070     70071     70072     70073     70072     70074     70073     70074
     70075     70076     70075     70077     70076     70077     70078     70079
     70078     70080     70079     70080     70081     70082     70081     70083
     70082     70083     70084     70085     70084     70086     70085     70086
     70087     70088     70087     70089     70088     70089     70090     70091
     70090     70092     70091     70092     70093     70094     70093     70095
     70094     70095     70096     70097     70096     70098     70097     70098
     70099     70100     70099     70101     70100     70101     70102     70103
     70102     70104     70103     70104     70105     70106     70105     70107
     70106     70107     70108     70109     70108     70110     70109     70110
     70111     70112     70111     70113     70112     70113     70114     70115
     70114     70116     70115     70116     70117     70118     70117     70119
     70118     70119     70120     70121     70120     70122     70121     70122
     70123     70124     70123     70125     70124     70125     70126     70127
     70126     70128     70127     70128     70129     70130     70129     70131
     70130     70131     70132     70133     70132     70134     70133     70134
     70135     70136     70135     70137     70136     70137     70138     70139
     70138     70140     70139     70140     70141     70142     70141     70143
     70142     70143     70144     70145     70144     70146     70145     70146
     70147     70148     70147     70149     70148     70149     70150     70151
     70150     70152     70151     70152     70153     70154     70153     70155
     70154     70155     70156     70157     70156     70158     70157     70158
     70159     70160     70159     70161     70160     70161     70162     70163
     70162     70164     70163     70164     70165     70166     70165     70167
     70166     70167     70168     70169     70168     70170     70169     70170
     70171     70172     70171     70173     70172     70173     70174     70175
     70174     70176     70175     70176     70177     70178     70177     70179
     70178     70179     70180     70181     70180     70182     70181     70182
     70183     70184     70183     70185     70184     70185     70186     70187
     70186     70188     70187     70188     70189     70190     70189     70191
     70190     70191     70192     70193     70192     70194     70193     70194
     70195     70196     70195     70197     70196     70197     70198     70199
     70198     70200     70199     70200     70201     70202     70201     70203
     70202     70203     70204     70205     70204     70206     70205     70206
     70207     70208     70207     70209     70208     70209     70210     70211
     70210     70212     70211     70212     70213     70214     70213     70215
     70214     70215     70216     70217     70216     70218     70217     70218
     70219     70220     70219     70221     70220     70221     70222     70223
     70222     70224     70223     70224     70225     70226     70225     70227
     70226     70227     70228     70229     70228     70230     70229     70230
     70231     70232     70231     70233     70232     70233     70234     70235
     70234     70236     70235     70236     70237     70238     70237     70239
     70238     70239     70240     70241     70240     70242     70241     70242
     70243     70244     70243     70245     70244     70245     70246     70247
     70246     70248     70247     70248     70249     70250     70249     70251
     70250     70251     70252     70253     70252     70254     70253     70254
     70255     70256     70255     70257     70256     70257     70258     70259
     70258     70260     70259     70260     70261     70262     70261     70263
     70262     70263     70264     70265     70264     70266     70265     70266
     70267     70268     70267     70269     70268     70269     70270     70271
     70270     70272     70271     70272     70273     70274     70273     70275
     70274     70275     70276     70277     70276     70278     70277     70278
     70279     70280     70279     70281     70280     70281     70282     70283
     70282     70284     70283     70284     70285     70286     70285     70287
     70286     70287     70288     70289     70288     70290     70289     70290
     70291     70292     70291     70293     70292     70293     70294     70295
     70294     70296     70295     70296     70297     70298     70297     70299
     70298     70299     70300     70301     70300     70302     70301     70302
     70303     70304     70303     70305     70304     70305     70306     70307
     70306     70308     70307     70308     70309     70310     70309     70311
     70310     70311     70312     70313     70312     70314     70313     70314
     70315     70316     70315     70317     70316     70317     70318     70319
     70318     70320     70319     70320     70321     70322     70321     70323
     70322     70323     70324     70325     70324     70326     70325     70326
     70327     70328     70327     70329     70328     70329     70330     70331
     70330     70332     70331     70332     70333     70334     70333     70335
     70334     70335     70336     70337     70336     70338     70337     70338
     70339     70340     70339     70341     70340     70341     70342     70343
     70342     70344     70343     70344     70345     70346     70345     70347
     70346     70347     70348     70349     70348     70350     70349     70350
     70351     70352     70351     70353     70352     70353     70354     70355
     70354     70356     70355     70356     70357     70358     70357     70359
     70358     70359     70360     70361     70360     70362     70361     70362
     70363     70364     70363     70365     70364     70365     70366     70367
     70366     70368     70367     70368     70369     70370     70369     70371
     70370     70371     70372     70373     70372     70374     70373     70374
     70375     70376     70375     70377     70376     70377     70378     70379
     70378     70380     70379     70380     70381     70382     70381     70383
     70382     70383     70384     70385     70384     70386     70385     70386
     70387     70388     70387     70389     70388     70389     70390     70391
     70390     70392     70391     70392     70393     70394     70393     70395
     70394     70395     70396     70397     70396     70398     70397     70398
     70399     70400     70399     70401     70400     70401     70402     70403
     70402     70404     70403     70404     70405     70406     70405     70407
     70406     70407     70408     70409     70408     70410     70409     70410
     70411     70412     70411     70413     70412     70413     70414     70415
     70414     70416     70415     70416     70417     70418     70417     70419
     70418     70419     70420     70421     70420     70422     70421     70422
     70423     70424     70423     70425     70424     70425     70426     70427
     70426     70428     70427     70428     70429     70430     70429     70431
     70430     70431     70432     70433     70432     70434     70433     70434
     70435     70436     70435     70437     70436     70437     70438     70439
     70438     70440     70439     70440     70441     70442     70441     70443
     70442     70443     70444     70445     70444     70446     70445     70446
     70447     70448     70447     70449     70448     70449     70450     70451
     70450     70452     70451     70452     70453     70454     70453     70455
     70454     70455     70456     70457     70456     70458     70457     70458
     70459     70460     70459     70461     70460     70461     70462     70463
     70462     70464     70463     70464     70465     70466     70465     70467
     70466     70467     70468     70469     70468     70470     70469     70470
     70471     70472     70471     70473     70472     70473     70474     70475
     70474     70476     70475     70476     70477     70478     70477     70479
     70478     70479     70480     70481     70480     70482     70481     70482
     70483     70484     70483     70485     70484     70485     70486     70487
     70486     70488     70487     70488     70489     70490     70489     70491
     70490     70491     70492     70493     70492     70494     70493     70494
     70495     70496     70495     70497     70496     70497     70498     70499
     70498     70500     70499     70500     70501     70502     70501     70503
     70502     70503     70504     70505     70504     70506     70505     70506
     70507     70508     70507     70509     70508     70509     70510     70511
     70510     70512     70511     70512     70513     70514     70513     70515
     70514     70515     70516     70517     70516     70518     70517     70518
     70519     70520     70519     70521     70520     70521     70522     70523
     70522     70524     70523     70524     70525     70526     70525     70527
     70526     70527     70528     70529     70528     70530     70529     70530
     70531     70532     70531     70533     70532     70533     70534     70535
     70534     70536     70535     70536     70537     70538     70537     70539
     70538     70539     70540     70541     70540     70542     70541     70542
     70543     70544     70543     70545     70544     70545     70546     70547
     70546     70548     70547     70548     70549     70550     70549     70551
     70550     70551     70552     70553     70552     70554     70553     70554
     70555     70556     70555     70557     70556     70557     70558     70559
     70558     70560     70559     70560     70561     70562     70561     70563
     70562     70563     70564     70565     70564     70566     70565     70566
     70567     70568     70567     70569     70568     70569     70570     70571
     70570     70572     70571     70572     70573     70574     70573     70575
     70574     70575     70576     70577     70576     70578     70577     70578
     70579     70580     70579     70581     70580     70581     70582     70583
     70582     70584     70583     70584     70585     70586     70585     70587
     70586     70587     70588     70589     70588     70590     70589     70590
     70591     70592     70591     70593     70592     70593     70594     70595
     70594     70596     70595     70596     70597     70598     70597     70599
     70598     70599     70600     70601     70600     70602     70601     70602
     70603     70604     70603     70605     70604     70605     70606     70607
     70606     70608     70607     70608     70609     70610     70609     70611
     70610     70611     70612     70613     70612     70614     70613     70614
     70615     70616     70615     70617     70616     70617     70618     70619
     70618     70620     70619     70620     70621     70622     70621     70623
     70622     70623     70624     70625     70624     70626     70625     70626
     70627     70628     70627     70629     70628     70629     70630     70631
     70630     70632     70631     70632     70633     70634     70633     70635
     70634     70635     70636     70637     70636     70638     70637     70638
     70639     70640     70639     70641     70640     70641     70642     70643
     70642     70644     70643     70644     70645     70646     70645     70647
     70646     70647     70648     70649     70648     70650     70649     70650
     70651     70652     70651     70653     70652     70653     70654     70655
     70654     70656     70655     70656     70657     70658     70657     70659
     70658     70659     70660     70661     70660     70662     70661     70662
     70663     70664     70663     70665     70664     70665     70666     70667
     70666     70668     70667     70668     70669     70670     70669     70671
     70670     70671     70672     70673     70672     70674     70673     70674
     70675     70676     70675     70677     70676     70677     70678     70679
     70678     70680     70679     70680     70681     70682     70681     70683
     70682     70683     70684     70685     70684     70686     70685     70686
     70687     70688     70687     70689     70688     70689     70690     70691
     70690     70692     70691     70692     70693     70694     70693     70695
     70694     70695     70696     70697     70696     70698     70697     70698
     70699     70700     70699     70701     70700     70701     70702     70703
     70702     70704     70703     70704     70705     70706     70705     70707
     70706     70707     70708     70709     70708     70710     70709     70710
     70711     70712     70711     70713     70712     70713     70714     70715
     70714     70716     70715     70716     70717     70718     70717     70719
     70718     70719     70720     70721     70720     70722     70721     70722
     70723     70724     70723     70725     70724     70725     70726     70727
     70726     70728     70727     70728     70729     70730     70729     70731
     70730     70731     70732     70733     70732     70734     70733     70734
     70735     70736     70735     70737     70736     70737     70738     70739
     70738     70740     70739     70740     70741     70742     70741     70743
     70742     70743     70744     70745     70744     70746     70745     70746
     70747     70748     70747     70749     70748     70749     70750     70751
     70750     70752     70751     70752     70753     70754     70753     70755
     70754     70755     70756     70757     70756     70758     70757     70758
     70759     70760     70759     70761     70760     70761     70762     70763
     70762     70764     70763     70764     70765     70766     70765     70767
     70766     70767     70768     70769     70768     70770     70769     70770
     70771     70772     70771     70773     70772     70773     70774     70775
     70774     70776     70775     70776     70777     70778     70777     70779
     70778     70779     70780     70781     70780     70782     70781     70782
     70783     70784     70783     70785     70784     70785     70786     70787
     70786     70788     70787     70788     70789     70790     70789     70791
     70790     70791     70792     70793     70792     70794     70793     70794
     70795     70796     70795     70797     70796     70797     70798     70799
     70798     70800     70799     70800     70801     70802     70801     70803
     70802     70803     70804     70805     70804     70806     70805     70806
     70807     70808     70807     70809     70808     70809     70810     70811
     70810     70812     70811     70812     70813     70814     70813     70815
     70814     70815     70816     70817     70816     70818     70817     70818
     70819     70820     70819     70821     70820     70821     70822     70823
     70822     70824     70823     70824     70825     70826     70825     70827
     70826     70827     70828     70829     70828     70830     70829     70830
     70831     70832     70831     70833     70832     70833     70834     70835
     70834     70836     70835     70836     70837     70838     70837     70839
     70838     70839     70840     70841     70840     70842     70841     70842
     70843     70844     70843     70845     70844     70845     70846     70847
     70846     70848     70847     70848     70849     70850     70849     70851
     70850     70851     70852     70853     70852     70854     70853     70854
     70855     70856     70855     70857     70856     70857     70858     70859
     70858     70860     70859     70860     70861     70862     70861     70863
     70862     70863     70864     70865     70864     70866     70865     70866
     70867     70868     70867     70869     70868     70869     70870     70871
     70870     70872     70871     70872     70873     70874     70873     70875
     70874     70875     70876     70877     70876     70878     70877     70878
     70879     70880     70879     70881     70880     70881     70882     70883
     70882     70884     70883     70884     70885     70886     70885     70887
     70886     70887     70888     70889     70888     70890     70889     70890
     70891     70892     70891     70893     70892     70893     70894     70895
     70894     70896     70895     70896     70897     70898     70897     70899
     70898     70899     70900     70901     70900     70902     70901     70902
     70903     70904     70903     70905     70904     70905     70906     70907
     70906     70908     70907     70908     70909     70910     70909     70911
     70910     70911     70912     70913     70912     70914     70913     70914
     70915     70916     70915     70917     70916     70917     70918     70919
     70918     70920     70919     70920     70921     70922     70921     70923
     70922     70923     70924     70925     70924     70926     70925     70926
     70927     70928     70927     70929     70928     70929     70930     70931
     70930     70932     70931     70932     70933     70934     70933     70935
     70934     70935     70936     70937     70936     70938     70937     70938
     70939     70940     70939     70941     70940     70941     70942     70943
     70942     70944     70943     70944     70945     70946     70945     70947
     70946     70947     70948     70949     70948     70950     70949     70950
     70951     70952     70951     70953     70952     70953     70954     70955
     70954     70956     70955     70956     70957     70958     70957     70959
     70958     70959     70960     70961     70960     70962     70961     70962
     70963     70964     70963     70965     70964     70965     70966     70967
     70966     70968     70967     70968     70969     70970     70969     70971
     70970     70971     70972     70973     70972     70974     70973     70974
     70975     70976     70975     70977     70976     70977     70978     70979
     70978     70980     70979     70980     70981     70982     70981     70983
     70982     70983     70984     70985     70984     70986     70985     70986
     70987     70988     70987     70989     70988     70989     70990     70991
     70990     70992     70991     70992     70993     70994     70993     70995
     70994     70995     70996     70997     70996     70998     70997     70998
     70999     71000     70999     71001     71000     71001     71002     71003
     71002     71004     71003     71004     71005     71006     71005     71007
     71006     71007     71008     71009     71008     71010     71009     71010
     71011     71012     71011     71013     71012     71013     71014     71015
     71014     71016     71015     71016     71017     71018     71017     71019
     71018     71019     71020     71021     71020     71022     71021     71022
     71023     71024     71023     71025     71024     71025     71026     71027
     71026     71028     71027     71028     71029     71030     71029     71031
     71030     71031     71032     71033     71032     71034     71033     71034
     71035     71036     71035     71037     71036     71037     71038     71039
     71038     71040     71039     71040     71041     71042     71041     71043
     71042     71043     71044     71045     71044     71046     71045     71046
     71047     71048     71047     71049     71048     71049     71050     71051
     71050     71052     71051     71052     71053     71054     71053     71055
     71054     71055     71056     71057     71056     71058     71057     71058
     71059     71060     71059     71061     71060     71061     71062     71063
     71062     71064     71063     71064     71065     71066     71065     71067
     71066     71067     71068     71069     71068     71070     71069     71070
     71071     71072     71071     71073     71072     71073     71074     71075
     71074     71076     71075     71076     71077     71078     71077     71079
     71078     71079     71080     71081     71080     71082     71081     71082
     71083     71084     71083     71085     71084     71085     71086     71087
     71086     71088     71087     71088     71089     71090     71089     71091
     71090     71091     71092     71093     71092     71094     71093     71094
     71095     71096     71095     71097     71096     71097     71098     71099
     71098     71100     71099     71100     71101     71102     71101     71103
     71102     71103     71104     71105     71104     71106     71105     71106
     71107     71108     71107     71109     71108     71109     71110     71111
     71110     71112     71111     71112     71113     71114     71113     71115
     71114     71115     71116     71117     71116     71118     71117     71118
     71119     71120     71119     71121     71120     71121     71122     71123
     71122     71124     71123     71124     71125     71126     71125     71127
     71126     71127     71128     71129     71128     71130     71129     71130
     71131     71132     71131     71133     71132     71133     71134     71135
     71134     71136     71135     71136     71137     71138     71137     71139
     71138     71139     71140     71141     71140     71142     71141     71142
     71143     71144     71143     71145     71144     71145     71146     71147
     71146     71148     71147     71148     71149     71150     71149     71151
     71150     71151     71152     71153     71152     71154     71153     71154
     71155     71156     71155     71157     71156     71157     71158     71159
     71158     71160     71159     71160     71161     71162     71161     71163
     71162     71163     71164     71165     71164     71166     71165     71166
     71167     71168     71167     71169     71168     71169     71170     71171
     71170     71172     71171     71172     71173     71174     71173     71175
     71174     71175     71176     71177     71176     71178     71177     71178
     71179     71180     71179     71181     71180     71181     71182     71183
     71182     71184     71183     71184     71185     71186     71185     71187
     71186     71187     71188     71189     71188     71190     71189     71190
     71191     71192     71191     71193     71192     71193     71194     71195
     71194     71196     71195     71196     71197     71198     71197     71199
     71198     71199     71200     71201     71200     71202     71201     71202
     71203     71204     71203     71205     71204     71205     71206     71207
     71206     71208     71207     71208     71209     71210     71209     71211
     71210     71211     71212     71213     71212     71214     71213     71214
     71215     71216     71215     71217     71216     71217     71218     71219
     71218     71220     71219     71220     71221     71222     71221     71223
     71222     71223     71224     71225     71224     71226     71225     71226
     71227     71228     71227     71229     71228     71229     71230     71231
     71230     71232     71231     71232     71233     71234     71233     71235
     71234     71235     71236     71237     71236     71238     71237     71238
     71239     71240     71239     71241     71240     71241     71242     71243
     71242     71244     71243     71244     71245     71246     71245     71247
     71246     71247     71248     71249     71248     71250     71249     71250
     71251     71252     71251     71253     71252     71253     71254     71255
     71254     71256     71255     71256     71257     71258     71257     71259
     71258     71259     71260     71261     71260     71262     71261     71262
     71263     71264     71263     71265     71264     71265     71266     71267
     71266     71268     71267     71268     71269     71270     71269     71271
     71270     71271     71272     71273     71272     71274     71273     71274
     71275     71276     71275     71277     71276     71277     71278     71279
     71278     71280     71279     71280     71281     71282     71281     71283
     71282     71283     71284     71285     71284     71286     71285     71286
     71287     71288     71287     71289     71288     71289     71290     71291
     71290     71292     71291     71292     71293     71294     71293     71295
     71294     71295     71296     71297     71296     71298     71297     71298
     71299     71300     71299     71301     71300     71301     71302     71303
     71302     71304     71303     71304     71305     71306     71305     71307
     71306     71307     71308     71309     71308     71310     71309     71310
     71311     71312     71311     71313     71312     71313     71314     71315
     71314     71316     71315     71316     71317     71318     71317     71319
     71318     71319     71320     71321     71320     71322     71321     71322
     71323     71324     71323     71325     71324     71325     71326     71327
     71326     71328     71327     71328     71329     71330     71329     71331
     71330     71331     71332     71333     71332     71334     71333     71334
     71335     71336     71335     71337     71336     71337     71338     71339
     71338     71340     71339     71340     71341     71342     71341     71343
     71342     71343     71344     71345     71344     71346     71345     71346
     71347     71348     71347     71349     71348     71349     71350     71351
     71350     71352     71351     71352     71353     71354     71353     71355
     71354     71355     71356     71357     71356     71358     71357     71358
     71359     71360     71359     71361     71360     71361     71362     71363
     71362     71364     71363     71364     71365     71366     71365     71367
     71366     71367     71368     71369     71368     71370     71369     71370
     71371     71372     71371     71373     71372     71373     71374     71375
     71374     71376     71375     71376     71377     71378     71377     71379
     71378     71379     71380     71381     71380     71382     71381     71382
     71383     71384     71383     71385     71384     71385     71386     71387
     71386     71388     71387     71388     71389     71390     71389     71391
     71390     71391     71392     71393     71392     71394     71393     71394
     71395     71396     71395     71397     71396     71397     71398     71399
     71398     71400     71399     71400     71401     71402     71401     71403
     71402     71403     71404     71405     71404     71406     71405     71406
     71407     71408     71407     71409     71408     71409     71410     71411
     71410     71412     71411     71412     71413     71414     71413     71415
     71414     71415     71416     71417     71416     71418     71417     71418
     71419     71420     71419     71421     71420     71421     71422     71423
     71422     71424     71423     71424     71425     71426     71425     71427
     71426     71427     71428     71429     71428     71430     71429     71430
     71431     71432     71431     71433     71432     71433     71434     71435
     71434     71436     71435     71436     71437     71438     71437     71439
     71438     71439     71440     71441     71440     71442     71441     71442
     71443     71444     71443     71445     71444     71445     71446     71447
     71446     71448     71447     71448     71449     71450     71449     71451
     71450     71451     71452     71453     71452     71454     71453     71454
     71455     71456     71455     71457     71456     71457     71458     71459
     71458     71460     71459     71460     71461     71462     71461     71463
     71462     71463     71464     71465     71464     71466     71465     71466
     71467     71468     71467     71469     71468     71469     71470     71471
     71470     71472     71471     71472     71473     71474     71473     71475
     71474     71475     71476     71477     71476     71478     71477     71478
     71479     71480     71479     71481     71480     71481     71482     71483
     71482     71484     71483     71484     71485     71486     71485     71487
     71486     71487     71488     71489     71488     71490     71489     71490
     71491     71492     71491     71493     71492     71493     71494     71495
     71494     71496     71495     71496     71497     71498     71497     71499
     71498     71499     71500     71501     71500     71502     71501     71502
     71503     71504     71503     71505     71504     71505     71506     71507
     71506     71508     71507     71508     71509     71510     71509     71511
     71510     71511     71512     71513     71512     71514     71513     71514
     71515     71516     71515     71517     71516     71517     71518     71519
     71518     71520     71519     71520     71521     71522     71521     71523
     71522     71523     71524     71525     71524     71526     71525     71526
     71527     71528     71527     71529     71528     71529     71530     71531
     71530     71532     71531     71532     71533     71534     71533     71535
     71534     71535     71536     71537     71536     71538     71537     71538
     71539     71540     71539     71541     71540     71541     71542     71543
     71542     71544     71543     71544     71545     71546     71545     71547
     71546     71547     71548     71549     71548     71550     71549     71550
     71551     71552     71551     71553     71552     71553     71554     71555
     71554     71556     71555     71556     71557     71558     71557     71559
     71558     71559     71560     71561     71560     71562     71561     71562
     71563     71564     71563     71565     71564     71565     71566     71567
     71566     71568     71567     71568     71569     71570     71569     71571
     71570     71571     71572     71573     71572     71574     71573     71574
     71575     71576     71575     71577     71576     71577     71578     71579
     71578     71580     71579     71580     71581     71582     71581     71583
     71582     71583     71584     71585     71584     71586     71585     71586
     71587     71588     71587     71589     71588     71589     71590     71591
     71590     71592     71591     71592     71593     71594     71593     71595
     71594     71595     71596     71597     71596     71598     71597     71598
     71599     71600     71599     71601     71600     71601     71602     71603
     71602     71604     71603     71604     71605     71606     71605     71607
     71606     71607     71608     71609     71608     71610     71609     71610
     71611     71612     71611     71613     71612     71613     71614     71615
     71614     71616     71615     71616     71617     71618     71617     71619
     71618     71619     71620     71621     71620     71622     71621     71622
     71623     71624     71623     71625     71624     71625     71626     71627
     71626     71628     71627     71628     71629     71630     71629     71631
     71630     71631     71632     71633     71632     71634     71633     71634
     71635     71636     71635     71637     71636     71637     71638     71639
     71638     71640     71639     71640     71641     71642     71641     71643
     71642     71643     71644     71645     71644     71646     71645     71646
     71647     71648     71647     71649     71648     71649     71650     71651
     71650     71652     71651     71652     71653     71654     71653     71655
     71654     71655     71656     71657     71656     71658     71657     71658
     71659     71660     71659     71661     71660     71661     71662     71663
     71662     71664     71663     71664     71665     71666     71665     71667
     71666     71667     71668     71669     71668     71670     71669     71670
     71671     71672     71671     71673     71672     71673     71674     71675
     71674     71676     71675     71676     71677     71678     71677     71679
     71678     71679     71680     71681     71680     71682     71681     71682
     71683     71684     71683     71685     71684     71685     71686     71687
     71686     71688     71687     71688     71689     71690     71689     71691
     71690     71691     71692     71693     71692     71694     71693     71694
     71695     71696     71695     71697     71696     71697     71698     71699
     71698     71700     71699     71700     71701     71702     71701     71703
     71702     71703     71704     71705     71704     71706     71705     71706
     71707     71708     71707     71709     71708     71709     71710     71711
     71710     71712     71711     71712     71713     71714     71713     71715
     71714     71715     71716     71717     71716     71718     71717     71718
     71719     71720     71719     71721     71720     71721     71722     71723
     71722     71724     71723     71724     71725     71726     71725     71727
     71726     71727     71728     71729     71728     71730     71729     71730
     71731     71732     71731     71733     71732     71733     71734     71735
     71734     71736     71735     71736     71737     71738     71737     71739
     71738     71739     71740     71741     71740     71742     71741     71742
     71743     71744     71743     71745     71744     71745     71746     71747
     71746     71748     71747     71748     71749     71750     71749     71751
     71750     71751     71752     71753     71752     71754     71753     71754
     71755     71756     71755     71757     71756     71757     71758     71759
     71758     71760     71759     71760     71761     71762     71761     71763
     71762     71763     71764     71765     71764     71766     71765     71766
     71767     71768     71767     71769     71768     71769     71770     71771
     71770     71772     71771     71772     71773     71774     71773     71775
     71774     71775     71776     71777     71776     71778     71777     71778
     71779     71780     71779     71781     71780     71781     71782     71783
     71782     71784     71783     71784     71785     71786     71785     71787
     71786     71787     71788     71789     71788     71790     71789     71790
     71791     71792     71791     71793     71792     71793     71794     71795
     71794     71796     71795     71796     71797     71798     71797     71799
     71798     71799     71800     71801     71800     71802     71801     71802
     71803     71804     71803     71805     71804     71805     71806     71807
     71806     71808     71807     71808     71809     71810     71809     71811
     71810     71811     71812     71813     71812     71814     71813     71814
     71815     71816     71815     71817     71816     71817     71818     71819
     71818     71820     71819     71820     71821     71822     71821     71823
     71822     71823     71824     71825     71824     71826     71825     71826
     71827     71828     71827     71829     71828     71829     71830     71831
     71830     71832     71831     71832     71833     71834     71833     71835
     71834     71835     71836     71837     71836     71838     71837     71838
     71839     71840     71839     71841     71840     71841     71842     71843
     71842     71844     71843     71844     71845     71846     71845     71847
     71846     71847     71848     71849     71848     71850     71849     71850
     71851     71852     71851     71853     71852     71853     71854     71855
     71854     71856     71855     71856     71857     71858     71857     71859
     71858     71859     71860     71861     71860     71862     71861     71862
     71863     71864     71863     71865     71864     71865     71866     71867
     71866     71868     71867     71868     71869     71870     71869     71871
     71870     71871     71872     71873     71872     71874     71873     71874
     71875     71876     71875     71877     71876     71877     71878     71879
     71878     71880     71879     71880     71881     71882     71881     71883
     71882     71883     71884     71885     71884     71886     71885     71886
     71887     71888     71887     71889     71888     71889     71890     71891
     71890     71892     71891     71892     71893     71894     71893     71895
     71894     71895     71896     71897     71896     71898     71897     71898
     71899     71900     71899     71901     71900     71901     71902     71903
     71902     71904     71903     71904     71905     71906     71905     71907
     71906     71907     71908     71909     71908     71910     71909     71910
     71911     71912     71911     71913     71912     71913     71914     71915
     71914     71916     71915     71916     71917     71918     71917     71919
     71918     71919     71920     71921     71920     71922     71921     71922
     71923     71924     71923     71925     71924     71925     71926     71927
     71926     71928     71927     71928     71929     71930     71929     71931
     71930     71931     71932     71933     71932     71934     71933     71934
     71935     71936     71935     71937     71936     71937     71938     71939
     71938     71940     71939     71940     71941     71942     71941     71943
     71942     71943     71944     71945     71944     71946     71945     71946
     71947     71948     71947     71949     71948     71949     71950     71951
     71950     71952     71951     71952     71953     71954     71953     71955
     71954     71955     71956     71957     71956     71958     71957     71958
     71959     71960     71959     71961     71960     71961     71962     71963
     71962     71964     71963     71964     71965     71966     71965     71967
     71966     71967     71968     71969     71968     71970     71969     71970
     71971     71972     71971     71973     71972     71973     71974     71975
     71974     71976     71975     71976     71977     71978     71977     71979
     71978     71979     71980     71981     71980     71982     71981     71982
     71983     71984     71983     71985     71984     71985     71986     71987
     71986     71988     71987     71988     71989     71990     71989     71991
     71990     71991     71992     71993     71992     71994     71993     71994
     71995     71996     71995     71997     71996     71997     71998     71999
     71998     72000     71999     72000     72001     72002     72001     72003
     72002     72003     72004     72005     72004     72006     72005     72006
     72007     72008     72007     72009     72008     72009     72010     72011
     72010     72012     72011     72012     72013     72014     72013     72015
     72014     72015     72016     72017     72016     72018     72017     72018
     72019     72020     72019     72021     72020     72021     72022     72023
     72022     72024     72023     72024     72025     72026     72025     72027
     72026     72027     72028     72029     72028     72030     72029     72030
     72031     72032     72031     72033     72032     72033     72034     72035
     72034     72036     72035     72036     72037     72038     72037     72039
     72038     72039     72040     72041     72040     72042     72041     72042
     72043     72044     72043     72045     72044     72045     72046     72047
     72046     72048     72047     72048     72049     72050     72049     72051
     72050     72051     72052     72053     72052     72054     72053     72054
     72055     72056     72055     72057     72056     72057     72058     72059
     72058     72060     72059     72060     72061     72062     72061     72063
     72062     72063     72064     72065     72064     72066     72065     72066
     72067     72068     72067     72069     72068     72069     72070     72071
     72070     72072     72071     72072     72073     72074     72073     72075
     72074     72075     72076     72077     72076     72078     72077     72078
     72079     72080     72079     72081     72080     72081     72082     72083
     72082     72084     72083     72084     72085     72086     72085     72087
     72086     72087     72088     72089     72088     72090     72089     72090
     72091     72092     72091     72093     72092     72093     72094     72095
     72094     72096     72095     72096     72097     72098     72097     72099
     72098     72099     72100     72101     72100     72102     72101     72102
     72103     72104     72103     72105     72104     72105     72106     72107
     72106     72108     72107     72108     72109     72110     72109     72111
     72110     72111     72112     72113     72112     72114     72113     72114
     72115     72116     72115     72117     72116     72117     72118     72119
     72118     72120     72119     72120     72121     72122     72121     72123
     72122     72123     72124     72125     72124     72126     72125     72126
     72127     72128     72127     72129     72128     72129     72130     72131
     72130     72132     72131     72132     72133     72134     72133     72135
     72134     72135     72136     72137     72136     72138     72137     72138
     72139     72140     72139     72141     72140     72141     72142     72143
     72142     72144     72143     72144     72145     72146     72145     72147
     72146     72147     72148     72149     72148     72150     72149     72150
     72151     72152     72151     72153     72152     72153     72154     72155
     72154     72156     72155     72156     72157     72158     72157     72159
     72158     72159     72160     72161     72160     72162     72161     72162
     72163     72164     72163     72165     72164     72165     72166     72167
     72166     72168     72167     72168     72169     72170     72169     72171
     72170     72171     72172     72173     72172     72174     72173     72174
     72175     72176     72175     72177     72176     72177     72178     72179
     72178     72180     72179     72180     72181     72182     72181     72183
     72182     72183     72184     72185     72184     72186     72185     72186
     72187     72188     72187     72189     72188     72189     72190     72191
     72190     72192     72191     72192     72193     72194     72193     72195
     72194     72195     72196     72197     72196     72198     72197     72198
     72199     72200     72199     72201     72200     72201     72202     72203
     72202     72204     72203     72204     72205     72206     72205     72207
     72206     72207     72208     72209     72208     72210     72209     72210
     72211     72212     72211     72213     72212     72213     72214     72215
     72214     72216     72215     72216     72217     72218     72217     72219
     72218     72219     72220     72221     72220     72222     72221     72222
     72223     72224     72223     72225     72224     72225     72226     72227
     72226     72228     72227     72228     72229     72230     72229     72231
     72230     72231     72232     72233     72232     72234     72233     72234
     72235     72236     72235     72237     72236     72237     72238     72239
     72238     72240     72239     72240     72241     72242     72241     72243
     72242     72243     72244     72245     72244     72246     72245     72246
     72247     72248     72247     72249     72248     72249     72250     72251
     72250     72252     72251     72252     72253     72254     72253     72255
     72254     72255     72256     72257     72256     72258     72257     72258
     72259     72260     72259     72261     72260     72261     72262     72263
     72262     72264     72263     72264     72265     72266     72265     72267
     72266     72267     72268     72269     72268     72270     72269     72270
     72271     72272     72271     72273     72272     72273     72274     72275
     72274     72276     72275     72276     72277     72278     72277     72279
     72278     72279     72280     72281     72280     72282     72281     72282
     72283     72284     72283     72285     72284     72285     72286     72287
     72286     72288     72287     72288     72289     72290     72289     72291
     72290     72291     72292     72293     72292     72294     72293     72294
     72295     72296     72295     72297     72296     72297     72298     72299
     72298     72300     72299     72300     72301     72302     72301     72303
     72302     72303     72304     72305     72304     72306     72305     72306
     72307     72308     72307     72309     72308     72309     72310     72311
     72310     72312     72311     72312     72313     72314     72313     72315
     72314     72315     72316     72317     72316     72318     72317     72318
     72319     72320     72319     72321     72320     72321     72322     72323
     72322     72324     72323     72324     72325     72326     72325     72327
     72326     72327     72328     72329     72328     72330     72329     72330
     72331     72332     72331     72333     72332     72333     72334     72335
     72334     72336     72335     72336     72337     72338     72337     72339
     72338     72339     72340     72341     72340     72342     72341     72342
     72343     72344     72343     72345     72344     72345     72346     72347
     72346     72348     72347     72348     72349     72350     72349     72351
     72350     72351     72352     72353     72352     72354     72353     72354
     72355     72356     72355     72357     72356     72357     72358     72359
     72358     72360     72359     72360     72361     72362     72361     72363
     72362     72363     72364     72365     72364     72366     72365     72366
     72367     72368     72367     72369     72368     72369     72370     72371
     72370     72372     72371     72372     72373     72374     72373     72375
     72374     72375     72376     72377     72376     72378     72377     72378
     72379     72380     72379     72381     72380     72381     72382     72383
     72382     72384     72383     72384     72385     72386     72385     72387
     72386     72387     72388     72389     72388     72390     72389     72390
     72391     72392     72391     72393     72392     72393     72394     72395
     72394     72396     72395     72396     72397     72398     72397     72399
     72398     72399     72400     72401     72400     72402     72401     72402
     72403     72404     72403     72405     72404     72405     72406     72407
     72406     72408     72407     72408     72409     72410     72409     72411
     72410     72411     72412     72413     72412     72414     72413     72414
     72415     72416     72415     72417     72416     72417     72418     72419
     72418     72420     72419     72420     72421     72422     72421     72423
     72422     72423     72424     72425     72424     72426     72425     72426
     72427     72428     72427     72429     72428     72429     72430     72431
     72430     72432     72431     72432     72433     72434     72433     72435
     72434     72435     72436     72437     72436     72438     72437     72438
     72439     72440     72439     72441     72440     72441     72442     72443
     72442     72444     72443     72444     72445     72446     72445     72447
     72446     72447     72448     72449     72448     72450     72449     72450
     72451     72452     72451     72453     72452     72453     72454     72455
     72454     72456     72455     72456     72457     72458     72457     72459
     72458     72459     72460     72461     72460     72462     72461     72462
     72463     72464     72463     72465     72464     72465     72466     72467
     72466     72468     72467     72468     72469     72470     72469     72471
     72470     72471     72472     72473     72472     72474     72473     72474
     72475     72476     72475     72477     72476     72477     72478     72479
     72478     72480     72479     72480     72481     72482     72481     72483
     72482     72483     72484     72485     72484     72486     72485     72486
     72487     72488     72487     72489     72488     72489     72490     72491
     72490     72492     72491     72492     72493     72494     72493     72495
     72494     72495     72496     72497     72496     72498     72497     72498
     72499     72500     72499     72501     72500     72501     72502     72503
     72502     72504     72503     72504     72505     72506     72505     72507
     72506     72507     72508     72509     72508     72510     72509     72510
     72511     72512     72511     72513     72512     72513     72514     72515
     72514     72516     72515     72516     72517     72518     72517     72519
     72518     72519     72520     72521     72520     72522     72521     72522
     72523     72524     72523     72525     72524     72525     72526     72527
     72526     72528     72527     72528     72529     72530     72529     72531
     72530     72531     72532     72533     72532     72534     72533     72534
     72535     72536     72535     72537     72536     72537     72538     72539
     72538     72540     72539     72540     72541     72542     72541     72543
     72542     72543     72544     72545     72544     72546     72545     72546
     72547     72548     72547     72549     72548     72549     72550     72551
     72550     72552     72551     72552     72553     72554     72553     72555
     72554     72555     72556     72557     72556     72558     72557     72558
     72559     72560     72559     72561     72560     72561     72562     72563
     72562     72564     72563     72564     72565     72566     72565     72567
     72566     72567     72568     72569     72568     72570     72569     72570
     72571     72572     72571     72573     72572     72573     72574     72575
     72574     72576     72575     72576     72577     72578     72577     72579
     72578     72579     72580     72581     72580     72582     72581     72582
     72583     72584     72583     72585     72584     72585     72586     72587
     72586     72588     72587     72588     72589     72590     72589     72591
     72590     72591     72592     72593     72592     72594     72593     72594
     72595     72596     72595     72597     72596     72597     72598     72599
     72598     72600     72599     72600     72601     72602     72601     72603
     72602     72603     72604     72605     72604     72606     72605     72606
     72607     72608     72607     72609     72608     72609     72610     72611
     72610     72612     72611     72612     72613     72614     72613     72615
     72614     72615     72616     72617     72616     72618     72617     72618
     72619     72620     72619     72621     72620     72621     72622     72623
     72622     72624     72623     72624     72625     72626     72625     72627
     72626     72627     72628     72629     72628     72630     72629     72630
     72631     72632     72631     72633     72632     72633     72634     72635
     72634     72636     72635     72636     72637     72638     72637     72639
     72638     72639     72640     72641     72640     72642     72641     72642
     72643     72644     72643     72645     72644     72645     72646     72647
     72646     72648     72647     72648     72649     72650     72649     72651
     72650     72651     72652     72653     72652     72654     72653     72654
     72655     72656     72655     72657     72656     72657     72658     72659
     72658     72660     72659     72660     72661     72662     72661     72663
     72662     72663     72664     72665     72664     72666     72665     72666
     72667     72668     72667     72669     72668     72669     72670     72671
     72670     72672     72671     72672     72673     72674     72673     72675
     72674     72675     72676     72677     72676     72678     72677     72678
     72679     72680     72679     72681     72680     72681     72682     72683
     72682     72684     72683     72684     72685     72686     72685     72687
     72686     72687     72688     72689     72688     72690     72689     72690
     72691     72692     72691     72693     72692     72693     72694     72695
     72694     72696     72695     72696     72697     72698     72697     72699
     72698     72699     72700     72701     72700     72702     72701     72702
     72703     72704     72703     72705     72704     72705     72706     72707
     72706     72708     72707     72708     72709     72710     72709     72711
     72710     72711     72712     72713     72712     72714     72713     72714
     72715     72716     72715     72717     72716     72717     72718     72719
     72718     72720     72719     72720     72721     72722     72721     72723
     72722     72723     72724     72725     72724     72726     72725     72726
     72727     72728     72727     72729     72728     72729     72730     72731
     72730     72732     72731     72732     72733     72734     72733     72735
     72734     72735     72736     72737     72736     72738     72737     72738
     72739     72740     72739     72741     72740     72741     72742     72743
     72742     72744     72743     72744     72745     72746     72745     72747
     72746     72747     72748     72749     72748     72750     72749     72750
     72751     72752     72751     72753     72752     72753     72754     72755
     72754     72756     72755     72756     72757     72758     72757     72759
     72758     72759     72760     72761     72760     72762     72761     72762
     72763     72764     72763     72765     72764     72765     72766     72767
     72766     72768     72767     72768     72769     72770     72769     72771
     72770     72771     72772     72773     72772     72774     72773     72774
     72775     72776     72775     72777     72776     72777     72778     72779
     72778     72780     72779     72780     72781     72782     72781     72783
     72782     72783     72784     72785     72784     72786     72785     72786
     72787     72788     72787     72789     72788     72789     72790     72791
     72790     72792     72791     72792     72793     72794     72793     72795
     72794     72795     72796     72797     72796     72798     72797     72798
     72799     72800     72799     72801     72800     72801     72802     72803
     72802     72804     72803     72804     72805     72806     72805     72807
     72806     72807     72808     72809     72808     72810     72809     72810
     72811     72812     72811     72813     72812     72813     72814     72815
     72814     72816     72815     72816     72817     72818     72817     72819
     72818     72819     72820     72821     72820     72822     72821     72822
     72823     72824     72823     72825     72824     72825     72826     72827
     72826     72828     72827     72828     72829     72830     72829     72831
     72830     72831     72832     72833     72832     72834     72833     72834
     72835     72836     72835     72837     72836     72837     72838     72839
     72838     72840     72839     72840     72841     72842     72841     72843
     72842     72843     72844     72845     72844     72846     72845     72846
     72847     72848     72847     72849     72848     72849     72850     72851
     72850     72852     72851     72852     72853     72854     72853     72855
     72854     72855     72856     72857     72856     72858     72857     72858
     72859     72860     72859     72861     72860     72861     72862     72863
     72862     72864     72863     72864     72865     72866     72865     72867
     72866     72867     72868     72869     72868     72870     72869     72870
     72871     72872     72871     72873     72872     72873     72874     72875
     72874     72876     72875     72876     72877     72878     72877     72879
     72878     72879     72880     72881     72880     72882     72881     72882
     72883     72884     72883     72885     72884     72885     72886     72887
     72886     72888     72887     72888     72889     72890     72889     72891
     72890     72891     72892     72893     72892     72894     72893     72894
     72895     72896     72895     72897     72896     72897     72898     72899
     72898     72900     72899     72900     72901     72902     72901     72903
     72902     72903     72904     72905     72904     72906     72905     72906
     72907     72908     72907     72909     72908     72909     72910     72911
     72910     72912     72911     72912     72913     72914     72913     72915
     72914     72915     72916     72917     72916     72918     72917     72918
     72919     72920     72919     72921     72920     72921     72922     72923
     72922     72924     72923     72924     72925     72926     72925     72927
     72926     72927     72928     72929     72928     72930     72929     72930
     72931     72932     72931     72933     72932     72933     72934     72935
     72934     72936     72935     72936     72937     72938     72937     72939
     72938     72939     72940     72941     72940     72942     72941     72942
     72943     72944     72943     72945     72944     72945     72946     72947
     72946     72948     72947     72948     72949     72950     72949     72951
     72950     72951     72952     72953     72952     72954     72953     72954
     72955     72956     72955     72957     72956     72957     72958     72959
     72958     72960     72959     72960     72961     72962     72961     72963
     72962     72963     72964     72965     72964     72966     72965     72966
     72967     72968     72967     72969     72968     72969     72970     72971
     72970     72972     72971     72972     72973     72974     72973     72975
     72974     72975     72976     72977     72976     72978     72977     72978
     72979     72980     72979     72981     72980     72981     72982     72983
     72982     72984     72983     72984     72985     72986     72985     72987
     72986     72987     72988     72989     72988     72990     72989     72990
     72991     72992     72991     72993     72992     72993     72994     72995
     72994     72996     72995     72996     72997     72998     72997     72999
     72998     72999     73000     73001     73000     73002     73001     73002
     73003     73004     73003     73005     73004     73005     73006     73007
     73006     73008     73007     73008     73009     73010     73009     73011
     73010     73011     73012     73013     73012     73014     73013     73014
     73015     73016     73015     73017     73016     73017     73018     73019
     73018     73020     73019     73020     73021     73022     73021     73023
     73022     73023     73024     73025     73024     73026     73025     73026
     73027     73028     73027     73029     73028     73029     73030     73031
     73030     73032     73031     73032     73033     73034     73033     73035
     73034     73035     73036     73037     73036     73038     73037     73038
     73039     73040     73039     73041     73040     73041     73042     73043
     73042     73044     73043     73044     73045     73046     73045     73047
     73046     73047     73048     73049     73048     73050     73049     73050
     73051     73052     73051     73053     73052     73053     73054     73055
     73054     73056     73055     73056     73057     73058     73057     73059
     73058     73059     73060     73061     73060     73062     73061     73062
     73063     73064     73063     73065     73064     73065     73066     73067
     73066     73068     73067     73068     73069     73070     73069     73071
     73070     73071     73072     73073     73072     73074     73073     73074
     73075     73076     73075     73077     73076     73077     73078     73079
     73078     73080     73079     73080     73081     73082     73081     73083
     73082     73083     73084     73085     73084     73086     73085     73086
     73087     73088     73087     73089     73088     73089     73090     73091
     73090     73092     73091     73092     73093     73094     73093     73095
     73094     73095     73096     73097     73096     73098     73097     73098
     73099     73100     73099     73101     73100     73101     73102     73103
     73102     73104     73103     73104     73105     73106     73105     73107
     73106     73107     73108     73109     73108     73110     73109     73110
     73111     73112     73111     73113     73112     73113     73114     73115
     73114     73116     73115     73116     73117     73118     73117     73119
     73118     73119     73120     73121     73120     73122     73121     73122
     73123     73124     73123     73125     73124     73125     73126     73127
     73126     73128     73127     73128     73129     73130     73129     73131
     73130     73131     73132     73133     73132     73134     73133     73134
     73135     73136     73135     73137     73136     73137     73138     73139
     73138     73140     73139     73140     73141     73142     73141     73143
     73142     73143     73144     73145     73144     73146     73145     73146
     73147     73148     73147     73149     73148     73149     73150     73151
     73150     73152     73151     73152     73153     73154     73153     73155
     73154     73155     73156     73157     73156     73158     73157     73158
     73159     73160     73159     73161     73160     73161     73162     73163
     73162     73164     73163     73164     73165     73166     73165     73167
     73166     73167     73168     73169     73168     73170     73169     73170
     73171     73172     73171     73173     73172     73173     73174     73175
     73174     73176     73175     73176     73177     73178     73177     73179
     73178     73179     73180     73181     73180     73182     73181     73182
     73183     73184     73183     73185     73184     73185     73186     73187
     73186     73188     73187     73188     73189     73190     73189     73191
     73190     73191     73192     73193     73192     73194     73193     73194
     73195     73196     73195     73197     73196     73197     73198     73199
     73198     73200     73199     73200     73201     73202     73201     73203
     73202     73203     73204     73205     73204     73206     73205     73206
     73207     73208     73207     73209     73208     73209     73210     73211
     73210     73212     73211     73212     73213     73214     73213     73215
     73214     73215     73216     73217     73216     73218     73217     73218
     73219     73220     73219     73221     73220     73221     73222     73223
     73222     73224     73223     73224     73225     73226     73225     73227
     73226     73227     73228     73229     73228     73230     73229     73230
     73231     73232     73231     73233     73232     73233     73234     73235
     73234     73236     73235     73236     73237     73238     73237     73239
     73238     73239     73240     73241     73240     73242     73241     73242
     73243     73244     73243     73245     73244     73245     73246     73247
     73246     73248     73247     73248     73249     73250     73249     73251
     73250     73251     73252     73253     73252     73254     73253     73254
     73255     73256     73255     73257     73256     73257     73258     73259
     73258     73260     73259     73260     73261     73262     73261     73263
     73262     73263     73264     73265     73264     73266     73265     73266
     73267     73268     73267     73269     73268     73269     73270     73271
     73270     73272     73271     73272     73273     73274     73273     73275
     73274     73275     73276     73277     73276     73278     73277     73278
     73279     73280     73279     73281     73280     73281     73282     73283
     73282     73284     73283     73284     73285     73286     73285     73287
     73286     73287     73288     73289     73288     73290     73289     73290
     73291     73292     73291     73293     73292     73293     73294     73295
     73294     73296     73295     73296     73297     73298     73297     73299
     73298     73299     73300     73301     73300     73302     73301     73302
     73303     73304     73303     73305     73304     73305     73306     73307
     73306     73308     73307     73308     73309     73310     73309     73311
     73310     73311     73312     73313     73312     73314     73313     73314
     73315     73316     73315     73317     73316     73317     73318     73319
     73318     73320     73319     73320     73321     73322     73321     73323
     73322     73323     73324     73325     73324     73326     73325     73326
     73327     73328     73327     73329     73328     73329     73330     73331
     73330     73332     73331     73332     73333     73334     73333     73335
     73334     73335     73336     73337     73336     73338     73337     73338
     73339     73340     73339     73341     73340     73341     73342     73343
     73342     73344     73343     73344     73345     73346     73345     73347
     73346     73347     73348     73349     73348     73350     73349     73350
     73351     73352     73351     73353     73352     73353     73354     73355
     73354     73356     73355     73356     73357     73358     73357     73359
     73358     73359     73360     73361     73360     73362     73361     73362
     73363     73364     73363     73365     73364     73365     73366     73367
     73366     73368     73367     73368     73369     73370     73369     73371
     73370     73371     73372     73373     73372     73374     73373     73374
     73375     73376     73375     73377     73376     73377     73378     73379
     73378     73380     73379     73380     73381     73382     73381     73383
     73382     73383     73384     73385     73384     73386     73385     73386
     73387     73388     73387     73389     73388     73389     73390     73391
     73390     73392     73391     73392     73393     73394     73393     73395
     73394     73395     73396     73397     73396     73398     73397     73398
     73399     73400     73399     73401     73400     73401     73402     73403
     73402     73404     73403     73404     73405     73406     73405     73407
     73406     73407     73408     73409     73408     73410     73409     73410
     73411     73412     73411     73413     73412     73413     73414     73415
     73414     73416     73415     73416     73417     73418     73417     73419
     73418     73419     73420     73421     73420     73422     73421     73422
     73423     73424     73423     73425     73424     73425     73426     73427
     73426     73428     73427     73428     73429     73430     73429     73431
     73430     73431     73432     73433     73432     73434     73433     73434
     73435     73436     73435     73437     73436     73437     73438     73439
     73438     73440     73439     73440     73441     73442     73441     73443
     73442     73443     73444     73445     73444     73446     73445     73446
     73447     73448     73447     73449     73448     73449     73450     73451
     73450     73452     73451     73452     73453     73454     73453     73455
     73454     73455     73456     73457     73456     73458     73457     73458
     73459     73460     73459     73461     73460     73461     73462     73463
     73462     73464     73463     73464     73465     73466     73465     73467
     73466     73467     73468     73469     73468     73470     73469     73470
     73471     73472     73471     73473     73472     73473     73474     73475
     73474     73476     73475     73476     73477     73478     73477     73479
     73478     73479     73480     73481     73480     73482     73481     73482
     73483     73484     73483     73485     73484     73485     73486     73487
     73486     73488     73487     73488     73489     73490     73489     73491
     73490     73491     73492     73493     73492     73494     73493     73494
     73495     73496     73495     73497     73496     73497     73498     73499
     73498     73500     73499     73500     73501     73502     73501     73503
     73502     73503     73504     73505     73504     73506     73505     73506
     73507     73508     73507     73509     73508     73509     73510     73511
     73510     73512     73511     73512     73513     73514     73513     73515
     73514     73515     73516     73517     73516     73518     73517     73518
     73519     73520     73519     73521     73520     73521     73522     73523
     73522     73524     73523     73524     73525     73526     73525     73527
     73526     73527     73528     73529     73528     73530     73529     73530
     73531     73532     73531     73533     73532     73533     73534     73535
     73534     73536     73535     73536     73537     73538     73537     73539
     73538     73539     73540     73541     73540     73542     73541     73542
     73543     73544     73543     73545     73544     73545     73546     73547
     73546     73548     73547     73548     73549     73550     73549     73551
     73550     73551     73552     73553     73552     73554     73553     73554
     73555     73556     73555     73557     73556     73557     73558     73559
     73558     73560     73559     73560     73561     73562     73561     73563
     73562     73563     73564     73565     73564     73566     73565     73566
     73567     73568     73567     73569     73568     73569     73570     73571
     73570     73572     73571     73572     73573     73574     73573     73575
     73574     73575     73576     73577     73576     73578     73577     73578
     73579     73580     73579     73581     73580     73581     73582     73583
     73582     73584     73583     73584     73585     73586     73585     73587
     73586     73587     73588     73589     73588     73590     73589     73590
     73591     73592     73591     73593     73592     73593     73594     73595
     73594     73596     73595     73596     73597     73598     73597     73599
     73598     73599     73600     73601     73600     73602     73601     73602
     73603     73604     73603     73605     73604     73605     73606     73607
     73606     73608     73607     73608     73609     73610     73609     73611
     73610     73611     73612     73613     73612     73614     73613     73614
     73615     73616     73615     73617     73616     73617     73618     73619
     73618     73620     73619     73620     73621     73622     73621     73623
     73622     73623     73624     73625     73624     73626     73625     73626
     73627     73628     73627     73629     73628     73629     73630     73631
     73630     73632     73631     73632     73633     73634     73633     73635
     73634     73635     73636     73637     73636     73638     73637     73638
     73639     73640     73639     73641     73640     73641     73642     73643
     73642     73644     73643     73644     73645     73646     73645     73647
     73646     73647     73648     73649     73648     73650     73649     73650
     73651     73652     73651     73653     73652     73653     73654     73655
     73654     73656     73655     73656     73657     73658     73657     73659
     73658     73659     73660     73661     73660     73662     73661     73662
     73663     73664     73663     73665     73664     73665     73666     73667
     73666     73668     73667     73668     73669     73670     73669     73671
     73670     73671     73672     73673     73672     73674     73673     73674
     73675     73676     73675     73677     73676     73677     73678     73679
     73678     73680     73679     73680     73681     73682     73681     73683
     73682     73683     73684     73685     73684     73686     73685     73686
     73687     73688     73687     73689     73688     73689     73690     73691
     73690     73692     73691     73692     73693     73694     73693     73695
     73694     73695     73696     73697     73696     73698     73697     73698
     73699     73700     73699     73701     73700     73701     73702     73703
     73702     73704     73703     73704     73705     73706     73705     73707
     73706     73707     73708     73709     73708     73710     73709     73710
     73711     73712     73711     73713     73712     73713     73714     73715
     73714     73716     73715     73716     73717     73718     73717     73719
     73718     73719     73720     73721     73720     73722     73721     73722
     73723     73724     73723     73725     73724     73725     73726     73727
     73726     73728     73727     73728     73729     73730     73729     73731
     73730     73731     73732     73733     73732     73734     73733     73734
     73735     73736     73735     73737     73736     73737     73738     73739
     73738     73740     73739     73740     73741     73742     73741     73743
     73742     73743     73744     73745     73744     73746     73745     73746
     73747     73748     73747     73749     73748     73749     73750     73751
     73750     73752     73751     73752     73753     73754     73753     73755
     73754     73755     73756     73757     73756     73758     73757     73758
     73759     73760     73759     73761     73760     73761     73762     73763
     73762     73764     73763     73764     73765     73766     73765     73767
     73766     73767     73768     73769     73768     73770     73769     73770
     73771     73772     73771     73773     73772     73773     73774     73775
     73774     73776     73775     73776     73777     73778     73777     73779
     73778     73779     73780     73781     73780     73782     73781     73782
     73783     73784     73783     73785     73784     73785     73786     73787
     73786     73788     73787     73788     73789     73790     73789     73791
     73790     73791     73792     73793     73792     73794     73793     73794
     73795     73796     73795     73797     73796     73797     73798     73799
     73798     73800     73799     73800     73801     73802     73801     73803
     73802     73803     73804     73805     73804     73806     73805     73806
     73807     73808     73807     73809     73808     73809     73810     73811
     73810     73812     73811     73812     73813     73814     73813     73815
     73814     73815     73816     73817     73816     73818     73817     73818
     73819     73820     73819     73821     73820     73821     73822     73823
     73822     73824     73823     73824     73825     73826     73825     73827
     73826     73827     73828     73829     73828     73830     73829     73830
     73831     73832     73831     73833     73832     73833     73834     73835
     73834     73836     73835     73836     73837     73838     73837     73839
     73838     73839     73840     73841     73840     73842     73841     73842
     73843     73844     73843     73845     73844     73845     73846     73847
     73846     73848     73847     73848     73849     73850     73849     73851
     73850     73851     73852     73853     73852     73854     73853     73854
     73855     73856     73855     73857     73856     73857     73858     73859
     73858     73860     73859     73860     73861     73862     73861     73863
     73862     73863     73864     73865     73864     73866     73865     73866
     73867     73868     73867     73869     73868     73869     73870     73871
     73870     73872     73871     73872     73873     73874     73873     73875
     73874     73875     73876     73877     73876     73878     73877     73878
     73879     73880     73879     73881     73880     73881     73882     73883
     73882     73884     73883     73884     73885     73886     73885     73887
     73886     73887     73888     73889     73888     73890     73889     73890
     73891     73892     73891     73893     73892     73893     73894     73895
     73894     73896     73895     73896     73897     73898     73897     73899
     73898     73899     73900     73901     73900     73902     73901     73902
     73903     73904     73903     73905     73904     73905     73906     73907
     73906     73908     73907     73908     73909     73910     73909     73911
     73910     73911     73912     73913     73912     73914     73913     73914
     73915     73916     73915     73917     73916     73917     73918     73919
     73918     73920     73919     73920     73921     73922     73921     73923
     73922     73923     73924     73925     73924     73926     73925     73926
     73927     73928     73927     73929     73928     73929     73930     73931
     73930     73932     73931     73932     73933     73934     73933     73935
     73934     73935     73936     73937     73936     73938     73937     73938
     73939     73940     73939     73941     73940     73941     73942     73943
     73942     73944     73943     73944     73945     73946     73945     73947
     73946     73947     73948     73949     73948     73950     73949     73950
     73951     73952     73951     73953     73952     73953     73954     73955
     73954     73956     73955     73956     73957     73958     73957     73959
     73958     73959     73960     73961     73960     73962     73961     73962
     73963     73964     73963     73965     73964     73965     73966     73967
     73966     73968     73967     73968     73969     73970     73969     73971
     73970     73971     73972     73973     73972     73974     73973     73974
     73975     73976     73975     73977     73976     73977     73978     73979
     73978     73980     73979     73980     73981     73982     73981     73983
     73982     73983     73984     73985     73984     73986     73985     73986
     73987     73988     73987     73989     73988     73989     73990     73991
     73990     73992     73991     73992     73993     73994     73993     73995
     73994     73995     73996     73997     73996     73998     73997     73998
     73999     74000     73999     74001     74000     74001     74002     74003
     74002     74004     74003     74004     74005     74006     74005     74007
     74006     74007     74008     74009     74008     74010     74009     74010
     74011     74012     74011     74013     74012     74013     74014     74015
     74014     74016     74015     74016     74017     74018     74017     74019
     74018     74019     74020     74021     74020     74022     74021     74022
     74023     74024     74023     74025     74024     74025     74026     74027
     74026     74028     74027     74028     74029     74030     74029     74031
     74030     74031     74032     74033     74032     74034     74033     74034
     74035     74036     74035     74037     74036     74037     74038     74039
     74038     74040     74039     74040     74041     74042     74041     74043
     74042     74043     74044     74045     74044     74046     74045     74046
     74047     74048     74047     74049     74048     74049     74050     74051
     74050     74052     74051     74052     74053     74054     74053     74055
     74054     74055     74056     74057     74056     74058     74057     74058
     74059     74060     74059     74061     74060     74061     74062     74063
     74062     74064     74063     74064     74065     74066     74065     74067
     74066     74067     74068     74069     74068     74070     74069     74070
     74071     74072     74071     74073     74072     74073     74074     74075
     74074     74076     74075     74076     74077     74078     74077     74079
     74078     74079     74080     74081     74080     74082     74081     74082
     74083     74084     74083     74085     74084     74085     74086     74087
     74086     74088     74087     74088     74089     74090     74089     74091
     74090     74091     74092     74093     74092     74094     74093     74094
     74095     74096     74095     74097     74096     74097     74098     74099
     74098     74100     74099     74100     74101     74102     74101     74103
     74102     74103     74104     74105     74104     74106     74105     74106
     74107     74108     74107     74109     74108     74109     74110     74111
     74110     74112     74111     74112     74113     74114     74113     74115
     74114     74115     74116     74117     74116     74118     74117     74118
     74119     74120     74119     74121     74120     74121     74122     74123
     74122     74124     74123     74124     74125     74126     74125     74127
     74126     74127     74128     74129     74128     74130     74129     74130
     74131     74132     74131     74133     74132     74133     74134     74135
     74134     74136     74135     74136     74137     74138     74137     74139
     74138     74139     74140     74141     74140     74142     74141     74142
     74143     74144     74143     74145     74144     74145     74146     74147
     74146     74148     74147     74148     74149     74150     74149     74151
     74150     74151     74152     74153     74152     74154     74153     74154
     74155     74156     74155     74157     74156     74157     74158     74159
     74158     74160     74159     74160     74161     74162     74161     74163
     74162     74163     74164     74165     74164     74166     74165     74166
     74167     74168     74167     74169     74168     74169     74170     74171
     74170     74172     74171     74172     74173     74174     74173     74175
     74174     74175     74176     74177     74176     74178     74177     74178
     74179     74180     74179     74181     74180     74181     74182     74183
     74182     74184     74183     74184     74185     74186     74185     74187
     74186     74187     74188     74189     74188     74190     74189     74190
     74191     74192     74191     74193     74192     74193     74194     74195
     74194     74196     74195     74196     74197     74198     74197     74199
     74198     74199     74200     74201     74200     74202     74201     74202
     74203     74204     74203     74205     74204     74205     74206     74207
     74206     74208     74207     74208     74209     74210     74209     74211
     74210     74211     74212     74213     74212     74214     74213     74214
     74215     74216     74215     74217     74216     74217     74218     74219
     74218     74220     74219     74220     74221     74222     74221     74223
     74222     74223     74224     74225     74224     74226     74225     74226
     74227     74228     74227     74229     74228     74229     74230     74231
     74230     74232     74231     74232     74233     74234     74233     74235
     74234     74235     74236     74237     74236     74238     74237     74238
     74239     74240     74239     74241     74240     74241     74242     74243
     74242     74244     74243     74244     74245     74246     74245     74247
     74246     74247     74248     74249     74248     74250     74249     74250
     74251     74252     74251     74253     74252     74253     74254     74255
     74254     74256     74255     74256     74257     74258     74257     74259
     74258     74259     74260     74261     74260     74262     74261     74262
     74263     74264     74263     74265     74264     74265     74266     74267
     74266     74268     74267     74268     74269     74270     74269     74271
     74270     74271     74272     74273     74272     74274     74273     74274
     74275     74276     74275     74277     74276     74277     74278     74279
     74278     74280     74279     74280     74281     74282     74281     74283
     74282     74283     74284     74285     74284     74286     74285     74286
     74287     74288     74287     74289     74288     74289     74290     74291
     74290     74292     74291     74292     74293     74294     74293     74295
     74294     74295     74296     74297     74296     74298     74297     74298
     74299     74300     74299     74301     74300     74301     74302     74303
     74302     74304     74303     74304     74305     74306     74305     74307
     74306     74307     74308     74309     74308     74310     74309     74310
     74311     74312     74311     74313     74312     74313     74314     74315
     74314     74316     74315     74316     74317     74318     74317     74319
     74318     74319     74320     74321     74320     74322     74321     74322
     74323     74324     74323     74325     74324     74325     74326     74327
     74326     74328     74327     74328     74329     74330     74329     74331
     74330     74331     74332     74333     74332     74334     74333     74334
     74335     74336     74335     74337     74336     74337     74338     74339
     74338     74340     74339     74340     74341     74342     74341     74343
     74342     74343     74344     74345     74344     74346     74345     74346
     74347     74348     74347     74349     74348     74349     74350     74351
     74350     74352     74351     74352     74353     74354     74353     74355
     74354     74355     74356     74357     74356     74358     74357     74358
     74359     74360     74359     74361     74360     74361     74362     74363
     74362     74364     74363     74364     74365     74366     74365     74367
     74366     74367     74368     74369     74368     74370     74369     74370
     74371     74372     74371     74373     74372     74373     74374     74375
     74374     74376     74375     74376     74377     74378     74377     74379
     74378     74379     74380     74381     74380     74382     74381     74382
     74383     74384     74383     74385     74384     74385     74386     74387
     74386     74388     74387     74388     74389     74390     74389     74391
     74390     74391     74392     74393     74392     74394     74393     74394
     74395     74396     74395     74397     74396     74397     74398     74399
     74398     74400     74399     74400     74401     74402     74401     74403
     74402     74403     74404     74405     74404     74406     74405     74406
     74407     74408     74407     74409     74408     74409     74410     74411
     74410     74412     74411     74412     74413     74414     74413     74415
     74414     74415     74416     74417     74416     74418     74417     74418
     74419     74420     74419     74421     74420     74421     74422     74423
     74422     74424     74423     74424     74425     74426     74425     74427
     74426     74427     74428     74429     74428     74430     74429     74430
     74431     74432     74431     74433     74432     74433     74434     74435
     74434     74436     74435     74436     74437     74438     74437     74439
     74438     74439     74440     74441     74440     74442     74441     74442
     74443     74444     74443     74445     74444     74445     74446     74447
     74446     74448     74447     74448     74449     74450     74449     74451
     74450     74451     74452     74453     74452     74454     74453     74454
     74455     74456     74455     74457     74456     74457     74458     74459
     74458     74460     74459     74460     74461     74462     74461     74463
     74462     74463     74464     74465     74464     74466     74465     74466
     74467     74468     74467     74469     74468     74469     74470     74471
     74470     74472     74471     74472     74473     74474     74473     74475
     74474     74475     74476     74477     74476     74478     74477     74478
     74479     74480     74479     74481     74480     74481     74482     74483
     74482     74484     74483     74484     74485     74486     74485     74487
     74486     74487     74488     74489     74488     74490     74489     74490
     74491     74492     74491     74493     74492     74493     74494     74495
     74494     74496     74495     74496     74497     74498     74497     74499
     74498     74499     74500     74501     74500     74502     74501     74502
     74503     74504     74503     74505     74504     74505     74506     74507
     74506     74508     74507     74508     74509     74510     74509     74511
     74510     74511     74512     74513     74512     74514     74513     74514
     74515     74516     74515     74517     74516     74517     74518     74519
     74518     74520     74519     74520     74521     74522     74521     74523
     74522     74523     74524     74525     74524     74526     74525     74526
     74527     74528     74527     74529     74528     74529     74530     74531
     74530     74532     74531     74532     74533     74534     74533     74535
     74534     74535     74536     74537     74536     74538     74537     74538
     74539     74540     74539     74541     74540     74541     74542     74543
     74542     74544     74543     74544     74545     74546     74545     74547
     74546     74547     74548     74549     74548     74550     74549     74550
     74551     74552     74551     74553     74552     74553     74554     74555
     74554     74556     74555     74556     74557     74558     74557     74559
     74558     74559     74560     74561     74560     74562     74561     74562
     74563     74564     74563     74565     74564     74565     74566     74567
     74566     74568     74567     74568     74569     74570     74569     74571
     74570     74571     74572     74573     74572     74574     74573     74574
     74575     74576     74575     74577     74576     74577     74578     74579
     74578     74580     74579     74580     74581     74582     74581     74583
     74582     74583     74584     74585     74584     74586     74585     74586
     74587     74588     74587     74589     74588     74589     74590     74591
     74590     74592     74591     74592     74593     74594     74593     74595
     74594     74595     74596     74597     74596     74598     74597     74598
     74599     74600     74599     74601     74600     74601     74602     74603
     74602     74604     74603     74604     74605     74606     74605     74607
     74606     74607     74608     74609     74608     74610     74609     74610
     74611     74612     74611     74613     74612     74613     74614     74615
     74614     74616     74615     74616     74617     74618     74617     74619
     74618     74619     74620     74621     74620     74622     74621     74622
     74623     74624     74623     74625     74624     74625     74626     74627
     74626     74628     74627     74628     74629     74630     74629     74631
     74630     74631     74632     74633     74632     74634     74633     74634
     74635     74636     74635     74637     74636     74637     74638     74639
     74638     74640     74639     74640     74641     74642     74641     74643
     74642     74643     74644     74645     74644     74646     74645     74646
     74647     74648     74647     74649     74648     74649     74650     74651
     74650     74652     74651     74652     74653     74654     74653     74655
     74654     74655     74656     74657     74656     74658     74657     74658
     74659     74660     74659     74661     74660     74661     74662     74663
     74662     74664     74663     74664     74665     74666     74665     74667
     74666     74667     74668     74669     74668     74670     74669     74670
     74671     74672     74671     74673     74672     74673     74674     74675
     74674     74676     74675     74676     74677     74678     74677     74679
     74678     74679     74680     74681     74680     74682     74681     74682
     74683     74684     74683     74685     74684     74685     74686     74687
     74686     74688     74687     74688     74689     74690     74689     74691
     74690     74691     74692     74693     74692     74694     74693     74694
     74695     74696     74695     74697     74696     74697     74698     74699
     74698     74700     74699     74700     74701     74702     74701     74703
     74702     74703     74704     74705     74704     74706     74705     74706
     74707     74708     74707     74709     74708     74709     74710     74711
     74710     74712     74711     74712     74713     74714     74713     74715
     74714     74715     74716     74717     74716     74718     74717     74718
     74719     74720     74719     74721     74720     74721     74722     74723
     74722     74724     74723     74724     74725     74726     74725     74727
     74726     74727     74728     74729     74728     74730     74729     74730
     74731     74732     74731     74733     74732     74733     74734     74735
     74734     74736     74735     74736     74737     74738     74737     74739
     74738     74739     74740     74741     74740     74742     74741     74742
     74743     74744     74743     74745     74744     74745     74746     74747
     74746     74748     74747     74748     74749     74750     74749     74751
     74750     74751     74752     74753     74752     74754     74753     74754
     74755     74756     74755     74757     74756     74757     74758     74759
     74758     74760     74759     74760     74761     74762     74761     74763
     74762     74763     74764     74765     74764     74766     74765     74766
     74767     74768     74767     74769     74768     74769     74770     74771
     74770     74772     74771     74772     74773     74774     74773     74775
     74774     74775     74776     74777     74776     74778     74777     74778
     74779     74780     74779     74781     74780     74781     74782     74783
     74782     74784     74783     74784     74785     74786     74785     74787
     74786     74787     74788     74789     74788     74790     74789     74790
     74791     74792     74791     74793     74792     74793     74794     74795
     74794     74796     74795     74796     74797     74798     74797     74799
     74798     74799     74800     74801     74800     74802     74801     74802
     74803     74804     74803     74805     74804     74805     74806     74807
     74806     74808     74807     74808     74809     74810     74809     74811
     74810     74811     74812     74813     74812     74814     74813     74814
     74815     74816     74815     74817     74816     74817     74818     74819
     74818     74820     74819     74820     74821     74822     74821     74823
     74822     74823     74824     74825     74824     74826     74825     74826
     74827     74828     74827     74829     74828     74829     74830     74831
     74830     74832     74831     74832     74833     74834     74833     74835
     74834     74835     74836     74837     74836     74838     74837     74838
     74839     74840     74839     74841     74840     74841     74842     74843
     74842     74844     74843     74844     74845     74846     74845     74847
     74846     74847     74848     74849     74848     74850     74849     74850
     74851     74852     74851     74853     74852     74853     74854     74855
     74854     74856     74855     74856     74857     74858     74857     74859
     74858     74859     74860     74861     74860     74862     74861     74862
     74863     74864     74863     74865     74864     74865     74866     74867
     74866     74868     74867     74868     74869     74870     74869     74871
     74870     74871     74872     74873     74872     74874     74873     74874
     74875     74876     74875     74877     74876     74877     74878     74879
     74878     74880     74879     74880     74881     74882     74881     74883
     74882     74883     74884     74885     74884     74886     74885     74886
     74887     74888     74887     74889     74888     74889     74890     74891
     74890     74892     74891     74892     74893     74894     74893     74895
     74894     74895     74896     74897     74896     74898     74897     74898
     74899     74900     74899     74901     74900     74901     74902     74903
     74902     74904     74903     74904     74905     74906     74905     74907
     74906     74907     74908     74909     74908     74910     74909     74910
     74911     74912     74911     74913     74912     74913     74914     74915
     74914     74916     74915     74916     74917     74918     74917     74919
     74918     74919     74920     74921     74920     74922     74921     74922
     74923     74924     74923     74925     74924     74925     74926     74927
     74926     74928     74927     74928     74929     74930     74929     74931
     74930     74931     74932     74933     74932     74934     74933     74934
     74935     74936     74935     74937     74936     74937     74938     74939
     74938     74940     74939     74940     74941     74942     74941     74943
     74942     74943     74944     74945     74944     74946     74945     74946
     74947     74948     74947     74949     74948     74949     74950     74951
     74950     74952     74951     74952     74953     74954     74953     74955
     74954     74955     74956     74957     74956     74958     74957     74958
     74959     74960     74959     74961     74960     74961     74962     74963
     74962     74964     74963     74964     74965     74966     74965     74967
     74966     74967     74968     74969     74968     74970     74969     74970
     74971     74972     74971     74973     74972     74973     74974     74975
     74974     74976     74975     74976     74977     74978     74977     74979
     74978     74979     74980     74981     74980     74982     74981     74982
     74983     74984     74983     74985     74984     74985     74986     74987
     74986     74988     74987     74988     74989     74990     74989     74991
     74990     74991     74992     74993     74992     74994     74993     74994
     74995     74996     74995     74997     74996     74997     74998     74999
     74998     75000     74999     75000     75001     75002     75001     75003
     75002     75003     75004     75005     75004     75006     75005     75006
     75007     75008     75007     75009     75008     75009     75010     75011
     75010     75012     75011     75012     75013     75014     75013     75015
     75014     75015     75016     75017     75016     75018     75017     75018
     75019     75020     75019     75021     75020     75021     75022     75023
     75022     75024     75023     75024     75025     75026     75025     75027
     75026     75027     75028     75029     75028     75030     75029     75030
     75031     75032     75031     75033     75032     75033     75034     75035
     75034     75036     75035     75036     75037     75038     75037     75039
     75038     75039     75040     75041     75040     75042     75041     75042
     75043     75044     75043     75045     75044     75045     75046     75047
     75046     75048     75047     75048     75049     75050     75049     75051
     75050     75051     75052     75053     75052     75054     75053     75054
     75055     75056     75055     75057     75056     75057     75058     75059
     75058     75060     75059     75060     75061     75062     75061     75063
     75062     75063     75064     75065     75064     75066     75065     75066
     75067     75068     75067     75069     75068     75069     75070     75071
     75070     75072     75071     75072     75073     75074     75073     75075
     75074     75075     75076     75077     75076     75078     75077     75078
     75079     75080     75079     75081     75080     75081     75082     75083
     75082     75084     75083     75084     75085     75086     75085     75087
     75086     75087     75088     75089     75088     75090     75089     75090
     75091     75092     75091     75093     75092     75093     75094     75095
     75094     75096     75095     75096     75097     75098     75097     75099
     75098     75099     75100     75101     75100     75102     75101     75102
     75103     75104     75103     75105     75104     75105     75106     75107
     75106     75108     75107     75108     75109     75110     75109     75111
     75110     75111     75112     75113     75112     75114     75113     75114
     75115     75116     75115     75117     75116     75117     75118     75119
     75118     75120     75119     75120     75121     75122     75121     75123
     75122     75123     75124     75125     75124     75126     75125     75126
     75127     75128     75127     75129     75128     75129     75130     75131
     75130     75132     75131     75132     75133     75134     75133     75135
     75134     75135     75136     75137     75136     75138     75137     75138
     75139     75140     75139     75141     75140     75141     75142     75143
     75142     75144     75143     75144     75145     75146     75145     75147
     75146     75147     75148     75149     75148     75150     75149     75150
     75151     75152     75151     75153     75152     75153     75154     75155
     75154     75156     75155     75156     75157     75158     75157     75159
     75158     75159     75160     75161     75160     75162     75161     75162
     75163     75164     75163     75165     75164     75165     75166     75167
     75166     75168     75167     75168     75169     75170     75169     75171
     75170     75171     75172     75173     75172     75174     75173     75174
     75175     75176     75175     75177     75176     75177     75178     75179
     75178     75180     75179     75180     75181     75182     75181     75183
     75182     75183     75184     75185     75184     75186     75185     75186
     75187     75188     75187     75189     75188     75189     75190     75191
     75190     75192     75191     75192     75193     75194     75193     75195
     75194     75195     75196     75197     75196     75198     75197     75198
     75199     75200     75199     75201     75200     75201     75202     75203
     75202     75204     75203     75204     75205     75206     75205     75207
     75206     75207     75208     75209     75208     75210     75209     75210
     75211     75212     75211     75213     75212     75213     75214     75215
     75214     75216     75215     75216     75217     75218     75217     75219
     75218     75219     75220     75221     75220     75222     75221     75222
     75223     75224     75223     75225     75224     75225     75226     75227
     75226     75228     75227     75228     75229     75230     75229     75231
     75230     75231     75232     75233     75232     75234     75233     75234
     75235     75236     75235     75237     75236     75237     75238     75239
     75238     75240     75239     75240     75241     75242     75241     75243
     75242     75243     75244     75245     75244     75246     75245     75246
     75247     75248     75247     75249     75248     75249     75250     75251
     75250     75252     75251     75252     75253     75254     75253     75255
     75254     75255     75256     75257     75256     75258     75257     75258
     75259     75260     75259     75261     75260     75261     75262     75263
     75262     75264     75263     75264     75265     75266     75265     75267
     75266     75267     75268     75269     75268     75270     75269     75270
     75271     75272     75271     75273     75272     75273     75274     75275
     75274     75276     75275     75276     75277     75278     75277     75279
     75278     75279     75280     75281     75280     75282     75281     75282
     75283     75284     75283     75285     75284     75285     75286     75287
     75286     75288     75287     75288     75289     75290     75289     75291
     75290     75291     75292     75293     75292     75294     75293     75294
     75295     75296     75295     75297     75296     75297     75298     75299
     75298     75300     75299     75300     75301     75302     75301     75303
     75302     75303     75304     75305     75304     75306     75305     75306
     75307     75308     75307     75309     75308     75309     75310     75311
     75310     75312     75311     75312     75313     75314     75313     75315
     75314     75315     75316     75317     75316     75318     75317     75318
     75319     75320     75319     75321     75320     75321     75322     75323
     75322     75324     75323     75324     75325     75326     75325     75327
     75326     75327     75328     75329     75328     75330     75329     75330
     75331     75332     75331     75333     75332     75333     75334     75335
     75334     75336     75335     75336     75337     75338     75337     75339
     75338     75339     75340     75341     75340     75342     75341     75342
     75343     75344     75343     75345     75344     75345     75346     75347
     75346     75348     75347     75348     75349     75350     75349     75351
     75350     75351     75352     75353     75352     75354     75353     75354
     75355     75356     75355     75357     75356     75357     75358     75359
     75358     75360     75359     75360     75361     75362     75361     75363
     75362     75363     75364     75365     75364     75366     75365     75366
     75367     75368     75367     75369     75368     75369     75370     75371
     75370     75372     75371     75372     75373     75374     75373     75375
     75374     75375     75376     75377     75376     75378     75377     75378
     75379     75380     75379     75381     75380     75381     75382     75383
     75382     75384     75383     75384     75385     75386     75385     75387
     75386     75387     75388     75389     75388     75390     75389     75390
     75391     75392     75391     75393     75392     75393     75394     75395
     75394     75396     75395     75396     75397     75398     75397     75399
     75398     75399     75400     75401     75400     75402     75401     75402
     75403     75404     75403     75405     75404     75405     75406     75407
     75406     75408     75407     75408     75409     75410     75409     75411
     75410     75411     75412     75413     75412     75414     75413     75414
     75415     75416     75415     75417     75416     75417     75418     75419
     75418     75420     75419     75420     75421     75422     75421     75423
     75422     75423     75424     75425     75424     75426     75425     75426
     75427     75428     75427     75429     75428     75429     75430     75431
     75430     75432     75431     75432     75433     75434     75433     75435
     75434     75435     75436     75437     75436     75438     75437     75438
     75439     75440     75439     75441     75440     75441     75442     75443
     75442     75444     75443     75444     75445     75446     75445     75447
     75446     75447     75448     75449     75448     75450     75449     75450
     75451     75452     75451     75453     75452     75453     75454     75455
     75454     75456     75455     75456     75457     75458     75457     75459
     75458     75459     75460     75461     75460     75462     75461     75462
     75463     75464     75463     75465     75464     75465     75466     75467
     75466     75468     75467     75468     75469     75470     75469     75471
     75470     75471     75472     75473     75472     75474     75473     75474
     75475     75476     75475     75477     75476     75477     75478     75479
     75478     75480     75479     75480     75481     75482     75481     75483
     75482     75483     75484     75485     75484     75486     75485     75486
     75487     75488     75487     75489     75488     75489     75490     75491
     75490     75492     75491     75492     75493     75494     75493     75495
     75494     75495     75496     75497     75496     75498     75497     75498
     75499     75500     75499     75501     75500     75501     75502     75503
     75502     75504     75503     75504     75505     75506     75505     75507
     75506     75507     75508     75509     75508     75510     75509     75510
     75511     75512     75511     75513     75512     75513     75514     75515
     75514     75516     75515     75516     75517     75518     75517     75519
     75518     75519     75520     75521     75520     75522     75521     75522
     75523     75524     75523     75525     75524     75525     75526     75527
     75526     75528     75527     75528     75529     75530     75529     75531
     75530     75531     75532     75533     75532     75534     75533     75534
     75535     75536     75535     75537     75536     75537     75538     75539
     75538     75540     75539     75540     75541     75542     75541     75543
     75542     75543     75544     75545     75544     75546     75545     75546
     75547     75548     75547     75549     75548     75549     75550     75551
     75550     75552     75551     75552     75553     75554     75553     75555
     75554     75555     75556     75557     75556     75558     75557     75558
     75559     75560     75559     75561     75560     75561     75562     75563
     75562     75564     75563     75564     75565     75566     75565     75567
     75566     75567     75568     75569     75568     75570     75569     75570
     75571     75572     75571     75573     75572     75573     75574     75575
     75574     75576     75575     75576     75577     75578     75577     75579
     75578     75579     75580     75581     75580     75582     75581     75582
     75583     75584     75583     75585     75584     75585     75586     75587
     75586     75588     75587     75588     75589     75590     75589     75591
     75590     75591     75592     75593     75592     75594     75593     75594
     75595     75596     75595     75597     75596     75597     75598     75599
     75598     75600     75599     75600     75601     75602     75601     75603
     75602     75603     75604     75605     75604     75606     75605     75606
     75607     75608     75607     75609     75608     75609     75610     75611
     75610     75612     75611     75612     75613     75614     75613     75615
     75614     75615     75616     75617     75616     75618     75617     75618
     75619     75620     75619     75621     75620     75621     75622     75623
     75622     75624     75623     75624     75625     75626     75625     75627
     75626     75627     75628     75629     75628     75630     75629     75630
     75631     75632     75631     75633     75632     75633     75634     75635
     75634     75636     75635     75636     75637     75638     75637     75639
     75638     75639     75640     75641     75640     75642     75641     75642
     75643     75644     75643     75645     75644     75645     75646     75647
     75646     75648     75647     75648     75649     75650     75649     75651
     75650     75651     75652     75653     75652     75654     75653     75654
     75655     75656     75655     75657     75656     75657     75658     75659
     75658     75660     75659     75660     75661     75662     75661     75663
     75662     75663     75664     75665     75664     75666     75665     75666
     75667     75668     75667     75669     75668     75669     75670     75671
     75670     75672     75671     75672     75673     75674     75673     75675
     75674     75675     75676     75677     75676     75678     75677     75678
     75679     75680     75679     75681     75680     75681     75682     75683
     75682     75684     75683     75684     75685     75686     75685     75687
     75686     75687     75688     75689     75688     75690     75689     75690
     75691     75692     75691     75693     75692     75693     75694     75695
     75694     75696     75695     75696     75697     75698     75697     75699
     75698     75699     75700     75701     75700     75702     75701     75702
     75703     75704     75703     75705     75704     75705     75706     75707
     75706     75708     75707     75708     75709     75710     75709     75711
     75710     75711     75712     75713     75712     75714     75713     75714
     75715     75716     75715     75717     75716     75717     75718     75719
     75718     75720     75719     75720     75721     75722     75721     75723
     75722     75723     75724     75725     75724     75726     75725     75726
     75727     75728     75727     75729     75728     75729     75730     75731
     75730     75732     75731     75732     75733     75734     75733     75735
     75734     75735     75736     75737     75736     75738     75737     75738
     75739     75740     75739     75741     75740     75741     75742     75743
     75742     75744     75743     75744     75745     75746     75745     75747
     75746     75747     75748     75749     75748     75750     75749     75750
     75751     75752     75751     75753     75752     75753     75754     75755
     75754     75756     75755     75756     75757     75758     75757     75759
     75758     75759     75760     75761     75760     75762     75761     75762
     75763     75764     75763     75765     75764     75765     75766     75767
     75766     75768     75767     75768     75769     75770     75769     75771
     75770     75771     75772     75773     75772     75774     75773     75774
     75775     75776     75775     75777     75776     75777     75778     75779
     75778     75780     75779     75780     75781     75782     75781     75783
     75782     75783     75784     75785     75784     75786     75785     75786
     75787     75788     75787     75789     75788     75789     75790     75791
     75790     75792     75791     75792     75793     75794     75793     75795
     75794     75795     75796     75797     75796     75798     75797     75798
     75799     75800     75799     75801     75800     75801     75802     75803
     75802     75804     75803     75804     75805     75806     75805     75807
     75806     75807     75808     75809     75808     75810     75809     75810
     75811     75812     75811     75813     75812     75813     75814     75815
     75814     75816     75815     75816     75817     75818     75817     75819
     75818     75819     75820     75821     75820     75822     75821     75822
     75823     75824     75823     75825     75824     75825     75826     75827
     75826     75828     75827     75828     75829     75830     75829     75831
     75830     75831     75832     75833     75832     75834     75833     75834
     75835     75836     75835     75837     75836     75837     75838     75839
     75838     75840     75839     75840     75841     75842     75841     75843
     75842     75843     75844     75845     75844     75846     75845     75846
     75847     75848     75847     75849     75848     75849     75850     75851
     75850     75852     75851     75852     75853     75854     75853     75855
     75854     75855     75856     75857     75856     75858     75857     75858
     75859     75860     75859     75861     75860     75861     75862     75863
     75862     75864     75863     75864     75865     75866     75865     75867
     75866     75867     75868     75869     75868     75870     75869     75870
     75871     75872     75871     75873     75872     75873     75874     75875
     75874     75876     75875     75876     75877     75878     75877     75879
     75878     75879     75880     75881     75880     75882     75881     75882
     75883     75884     75883     75885     75884     75885     75886     75887
     75886     75888     75887     75888     75889     75890     75889     75891
     75890     75891     75892     75893     75892     75894     75893     75894
     75895     75896     75895     75897     75896     75897     75898     75899
     75898     75900     75899     75900     75901     75902     75901     75903
     75902     75903     75904     75905     75904     75906     75905     75906
     75907     75908     75907     75909     75908     75909     75910     75911
     75910     75912     75911     75912     75913     75914     75913     75915
     75914     75915     75916     75917     75916     75918     75917     75918
     75919     75920     75919     75921     75920     75921     75922     75923
     75922     75924     75923     75924     75925     75926     75925     75927
     75926     75927     75928     75929     75928     75930     75929     75930
     75931     75932     75931     75933     75932     75933     75934     75935
     75934     75936     75935     75936     75937     75938     75937     75939
     75938     75939     75940     75941     75940     75942     75941     75942
     75943     75944     75943     75945     75944     75945     75946     75947
     75946     75948     75947     75948     75949     75950     75949     75951
     75950     75951     75952     75953     75952     75954     75953     75954
     75955     75956     75955     75957     75956     75957     75958     75959
     75958     75960     75959     75960     75961     75962     75961     75963
     75962     75963     75964     75965     75964     75966     75965     75966
     75967     75968     75967     75969     75968     75969     75970     75971
     75970     75972     75971     75972     75973     75974     75973     75975
     75974     75975     75976     75977     75976     75978     75977     75978
     75979     75980     75979     75981     75980     75981     75982     75983
     75982     75984     75983     75984     75985     75986     75985     75987
     75986     75987     75988     75989     75988     75990     75989     75990
     75991     75992     75991     75993     75992     75993     75994     75995
     75994     75996     75995     75996     75997     75998     75997     75999
     75998     75999     76000     76001     76000     76002     76001     76002
     76003     76004     76003     76005     76004     76005     76006     76007
     76006     76008     76007     76008     76009     76010     76009     76011
     76010     76011     76012     76013     76012     76014     76013     76014
     76015     76016     76015     76017     76016     76017     76018     76019
     76018     76020     76019     76020     76021     76022     76021     76023
     76022     76023     76024     76025     76024     76026     76025     76026
     76027     76028     76027     76029     76028     76029     76030     76031
     76030     76032     76031     76032     76033     76034     76033     76035
     76034     76035     76036     76037     76036     76038     76037     76038
     76039     76040     76039     76041     76040     76041     76042     76043
     76042     76044     76043     76044     76045     76046     76045     76047
     76046     76047     76048     76049     76048     76050     76049     76050
     76051     76052     76051     76053     76052     76053     76054     76055
     76054     76056     76055     76056     76057     76058     76057     76059
     76058     76059     76060     76061     76060     76062     76061     76062
     76063     76064     76063     76065     76064     76065     76066     76067
     76066     76068     76067     76068     76069     76070     76069     76071
     76070     76071     76072     76073     76072     76074     76073     76074
     76075     76076     76075     76077     76076     76077     76078     76079
     76078     76080     76079     76080     76081     76082     76081     76083
     76082     76083     76084     76085     76084     76086     76085     76086
     76087     76088     76087     76089     76088     76089     76090     76091
     76090     76092     76091     76092     76093     76094     76093     76095
     76094     76095     76096     76097     76096     76098     76097     76098
     76099     76100     76099     76101     76100     76101     76102     76103
     76102     76104     76103     76104     76105     76106     76105     76107
     76106     76107     76108     76109     76108     76110     76109     76110
     76111     76112     76111     76113     76112     76113     76114     76115
     76114     76116     76115     76116     76117     76118     76117     76119
     76118     76119     76120     76121     76120     76122     76121     76122
     76123     76124     76123     76125     76124     76125     76126     76127
     76126     76128     76127     76128     76129     76130     76129     76131
     76130     76131     76132     76133     76132     76134     76133     76134
     76135     76136     76135     76137     76136     76137     76138     76139
     76138     76140     76139     76140     76141     76142     76141     76143
     76142     76143     76144     76145     76144     76146     76145     76146
     76147     76148     76147     76149     76148     76149     76150     76151
     76150     76152     76151     76152     76153     76154     76153     76155
     76154     76155     76156     76157     76156     76158     76157     76158
     76159     76160     76159     76161     76160     76161     76162     76163
     76162     76164     76163     76164     76165     76166     76165     76167
     76166     76167     76168     76169     76168     76170     76169     76170
     76171     76172     76171     76173     76172     76173     76174     76175
     76174     76176     76175     76176     76177     76178     76177     76179
     76178     76179     76180     76181     76180     76182     76181     76182
     76183     76184     76183     76185     76184     76185     76186     76187
     76186     76188     76187     76188     76189     76190     76189     76191
     76190     76191     76192     76193     76192     76194     76193     76194
     76195     76196     76195     76197     76196     76197     76198     76199
     76198     76200     76199     76200     76201     76202     76201     76203
     76202     76203     76204     76205     76204     76206     76205     76206
     76207     76208     76207     76209     76208     76209     76210     76211
     76210     76212     76211     76212     76213     76214     76213     76215
     76214     76215     76216     76217     76216     76218     76217     76218
     76219     76220     76219     76221     76220     76221     76222     76223
     76222     76224     76223     76224     76225     76226     76225     76227
     76226     76227     76228     76229     76228     76230     76229     76230
     76231     76232     76231     76233     76232     76233     76234     76235
     76234     76236     76235     76236     76237     76238     76237     76239
     76238     76239     76240     76241     76240     76242     76241     76242
     76243     76244     76243     76245     76244     76245     76246     76247
     76246     76248     76247     76248     76249     76250     76249     76251
     76250     76251     76252     76253     76252     76254     76253     76254
     76255     76256     76255     76257     76256     76257     76258     76259
     76258     76260     76259     76260     76261     76262     76261     76263
     76262     76263     76264     76265     76264     76266     76265     76266
     76267     76268     76267     76269     76268     76269     76270     76271
     76270     76272     76271     76272     76273     76274     76273     76275
     76274     76275     76276     76277     76276     76278     76277     76278
     76279     76280     76279     76281     76280     76281     76282     76283
     76282     76284     76283     76284     76285     76286     76285     76287
     76286     76287     76288     76289     76288     76290     76289     76290
     76291     76292     76291     76293     76292     76293     76294     76295
     76294     76296     76295     76296     76297     76298     76297     76299
     76298     76299     76300     76301     76300     76302     76301     76302
     76303     76304     76303     76305     76304     76305     76306     76307
     76306     76308     76307     76308     76309     76310     76309     76311
     76310     76311     76312     76313     76312     76314     76313     76314
     76315     76316     76315     76317     76316     76317     76318     76319
     76318     76320     76319     76320     76321     76322     76321     76323
     76322     76323     76324     76325     76324     76326     76325     76326
     76327     76328     76327     76329     76328     76329     76330     76331
     76330     76332     76331     76332     76333     76334     76333     76335
     76334     76335     76336     76337     76336     76338     76337     76338
     76339     76340     76339     76341     76340     76341     76342     76343
     76342     76344     76343     76344     76345     76346     76345     76347
     76346     76347     76348     76349     76348     76350     76349     76350
     76351     76352     76351     76353     76352     76353     76354     76355
     76354     76356     76355     76356     76357     76358     76357     76359
     76358     76359     76360     76361     76360     76362     76361     76362
     76363     76364     76363     76365     76364     76365     76366     76367
     76366     76368     76367     76368     76369     76370     76369     76371
     76370     76371     76372     76373     76372     76374     76373     76374
     76375     76376     76375     76377     76376     76377     76378     76379
     76378     76380     76379     76380     76381     76382     76381     76383
     76382     76383     76384     76385     76384     76386     76385     76386
     76387     76388     76387     76389     76388     76389     76390     76391
     76390     76392     76391     76392     76393     76394     76393     76395
     76394     76395     76396     76397     76396     76398     76397     76398
     76399     76400     76399     76401     76400     76401     76402     76403
     76402     76404     76403     76404     76405     76406     76405     76407
     76406     76407     76408     76409     76408     76410     76409     76410
     76411     76412     76411     76413     76412     76413     76414     76415
     76414     76416     76415     76416     76417     76418     76417     76419
     76418     76419     76420     76421     76420     76422     76421     76422
     76423     76424     76423     76425     76424     76425     76426     76427
     76426     76428     76427     76428     76429     76430     76429     76431
     76430     76431     76432     76433     76432     76434     76433     76434
     76435     76436     76435     76437     76436     76437     76438     76439
     76438     76440     76439     76440     76441     76442     76441     76443
     76442     76443     76444     76445     76444     76446     76445     76446
     76447     76448     76447     76449     76448     76449     76450     76451
     76450     76452     76451     76452     76453     76454     76453     76455
     76454     76455     76456     76457     76456     76458     76457     76458
     76459     76460     76459     76461     76460     76461     76462     76463
     76462     76464     76463     76464     76465     76466     76465     76467
     76466     76467     76468     76469     76468     76470     76469     76470
     76471     76472     76471     76473     76472     76473     76474     76475
     76474     76476     76475     76476     76477     76478     76477     76479
     76478     76479     76480     76481     76480     76482     76481     76482
     76483     76484     76483     76485     76484     76485     76486     76487
     76486     76488     76487     76488     76489     76490     76489     76491
     76490     76491     76492     76493     76492     76494     76493     76494
     76495     76496     76495     76497     76496     76497     76498     76499
     76498     76500     76499     76500     76501     76502     76501     76503
     76502     76503     76504     76505     76504     76506     76505     76506
     76507     76508     76507     76509     76508     76509     76510     76511
     76510     76512     76511     76512     76513     76514     76513     76515
     76514     76515     76516     76517     76516     76518     76517     76518
     76519     76520     76519     76521     76520     76521     76522     76523
     76522     76524     76523     76524     76525     76526     76525     76527
     76526     76527     76528     76529     76528     76530     76529     76530
     76531     76532     76531     76533     76532     76533     76534     76535
     76534     76536     76535     76536     76537     76538     76537     76539
     76538     76539     76540     76541     76540     76542     76541     76542
     76543     76544     76543     76545     76544     76545     76546     76547
     76546     76548     76547     76548     76549     76550     76549     76551
     76550     76551     76552     76553     76552     76554     76553     76554
     76555     76556     76555     76557     76556     76557     76558     76559
     76558     76560     76559     76560     76561     76562     76561     76563
     76562     76563     76564     76565     76564     76566     76565     76566
     76567     76568     76567     76569     76568     76569     76570     76571
     76570     76572     76571     76572     76573     76574     76573     76575
     76574     76575     76576     76577     76576     76578     76577     76578
     76579     76580     76579     76581     76580     76581     76582     76583
     76582     76584     76583     76584     76585     76586     76585     76587
     76586     76587     76588     76589     76588     76590     76589     76590
     76591     76592     76591     76593     76592     76593     76594     76595
     76594     76596     76595     76596     76597     76598     76597     76599
     76598     76599     76600     76601     76600     76602     76601     76602
     76603     76604     76603     76605     76604     76605     76606     76607
     76606     76608     76607     76608     76609     76610     76609     76611
     76610     76611     76612     76613     76612     76614     76613     76614
     76615     76616     76615     76617     76616     76617     76618     76619
     76618     76620     76619     76620     76621     76622     76621     76623
     76622     76623     76624     76625     76624     76626     76625     76626
     76627     76628     76627     76629     76628     76629     76630     76631
     76630     76632     76631     76632     76633     76634     76633     76635
     76634     76635     76636     76637     76636     76638     76637     76638
     76639     76640     76639     76641     76640     76641     76642     76643
     76642     76644     76643     76644     76645     76646     76645     76647
     76646     76647     76648     76649     76648     76650     76649     76650
     76651     76652     76651     76653     76652     76653     76654     76655
     76654     76656     76655     76656     76657     76658     76657     76659
     76658     76659     76660     76661     76660     76662     76661     76662
     76663     76664     76663     76665     76664     76665     76666     76667
     76666     76668     76667     76668     76669     76670     76669     76671
     76670     76671     76672     76673     76672     76674     76673     76674
     76675     76676     76675     76677     76676     76677     76678     76679
     76678     76680     76679     76680     76681     76682     76681     76683
     76682     76683     76684     76685     76684     76686     76685     76686
     76687     76688     76687     76689     76688     76689     76690     76691
     76690     76692     76691     76692     76693     76694     76693     76695
     76694     76695     76696     76697     76696     76698     76697     76698
     76699     76700     76699     76701     76700     76701     76702     76703
     76702     76704     76703     76704     76705     76706     76705     76707
     76706     76707     76708     76709     76708     76710     76709     76710
     76711     76712     76711     76713     76712     76713     76714     76715
     76714     76716     76715     76716     76717     76718     76717     76719
     76718     76719     76720     76721     76720     76722     76721     76722
     76723     76724     76723     76725     76724     76725     76726     76727
     76726     76728     76727     76728     76729     76730     76729     76731
     76730     76731     76732     76733     76732     76734     76733     76734
     76735     76736     76735     76737     76736     76737     76738     76739
     76738     76740     76739     76740     76741     76742     76741     76743
     76742     76743     76744     76745     76744     76746     76745     76746
     76747     76748     76747     76749     76748     76749     76750     76751
     76750     76752     76751     76752     76753     76754     76753     76755
     76754     76755     76756     76757     76756     76758     76757     76758
     76759     76760     76759     76761     76760     76761     76762     76763
     76762     76764     76763     76764     76765     76766     76765     76767
     76766     76767     76768     76769     76768     76770     76769     76770
     76771     76772     76771     76773     76772     76773     76774     76775
     76774     76776     76775     76776     76777     76778     76777     76779
     76778     76779     76780     76781     76780     76782     76781     76782
     76783     76784     76783     76785     76784     76785     76786     76787
     76786     76788     76787     76788     76789     76790     76789     76791
     76790     76791     76792     76793     76792     76794     76793     76794
     76795     76796     76795     76797     76796     76797     76798     76799
     76798     76800     76799     76800     76801     76802     76801     76803
     76802     76803     76804     76805     76804     76806     76805     76806
     76807     76808     76807     76809     76808     76809     76810     76811
     76810     76812     76811     76812     76813     76814     76813     76815
     76814     76815     76816     76817     76816     76818     76817     76818
     76819     76820     76819     76821     76820     76821     76822     76823
     76822     76824     76823     76824     76825     76826     76825     76827
     76826     76827     76828     76829     76828     76830     76829     76830
     76831     76832     76831     76833     76832     76833     76834     76835
     76834     76836     76835     76836     76837     76838     76837     76839
     76838     76839     76840     76841     76840     76842     76841     76842
     76843     76844     76843     76845     76844     76845     76846     76847
     76846     76848     76847     76848     76849     76850     76849     76851
     76850     76851     76852     76853     76852     76854     76853     76854
     76855     76856     76855     76857     76856     76857     76858     76859
     76858     76860     76859     76860     76861     76862     76861     76863
     76862     76863     76864     76865     76864     76866     76865     76866
     76867     76868     76867     76869     76868     76869     76870     76871
     76870     76872     76871     76872     76873     76874     76873     76875
     76874     76875     76876     76877     76876     76878     76877     76878
     76879     76880     76879     76881     76880     76881     76882     76883
     76882     76884     76883     76884     76885     76886     76885     76887
     76886     76887     76888     76889     76888     76890     76889     76890
     76891     76892     76891     76893     76892     76893     76894     76895
     76894     76896     76895     76896     76897     76898     76897     76899
     76898     76899     76900     76901     76900     76902     76901     76902
     76903     76904     76903     76905     76904     76905     76906     76907
     76906     76908     76907     76908     76909     76910     76909     76911
     76910     76911     76912     76913     76912     76914     76913     76914
     76915     76916     76915     76917     76916     76917     76918     76919
     76918     76920     76919     76920     76921     76922     76921     76923
     76922     76923     76924     76925     76924     76926     76925     76926
     76927     76928     76927     76929     76928     76929     76930     76931
     76930     76932     76931     76932     76933     76934     76933     76935
     76934     76935     76936     76937     76936     76938     76937     76938
     76939     76940     76939     76941     76940     76941     76942     76943
     76942     76944     76943     76944     76945     76946     76945     76947
     76946     76947     76948     76949     76948     76950     76949     76950
     76951     76952     76951     76953     76952     76953     76954     76955
     76954     76956     76955     76956     76957     76958     76957     76959
     76958     76959     76960     76961     76960     76962     76961     76962
     76963     76964     76963     76965     76964     76965     76966     76967
     76966     76968     76967     76968     76969     76970     76969     76971
     76970     76971     76972     76973     76972     76974     76973     76974
     76975     76976     76975     76977     76976     76977     76978     76979
     76978     76980     76979     76980     76981     76982     76981     76983
     76982     76983     76984     76985     76984     76986     76985     76986
     76987     76988     76987     76989     76988     76989     76990     76991
     76990     76992     76991     76992     76993     76994     76993     76995
     76994     76995     76996     76997     76996     76998     76997     76998
     76999     77000     76999     77001     77000     77001     77002     77003
     77002     77004     77003     77004     77005     77006     77005     77007
     77006     77007     77008     77009     77008     77010     77009     77010
     77011     77012     77011     77013     77012     77013     77014     77015
     77014     77016     77015     77016     77017     77018     77017     77019
     77018     77019     77020     77021     77020     77022     77021     77022
     77023     77024     77023     77025     77024     77025     77026     77027
     77026     77028     77027     77028     77029     77030     77029     77031
     77030     77031     77032     77033     77032     77034     77033     77034
     77035     77036     77035     77037     77036     77037     77038     77039
     77038     77040     77039     77040     77041     77042     77041     77043
     77042     77043     77044     77045     77044     77046     77045     77046
     77047     77048     77047     77049     77048     77049     77050     77051
     77050     77052     77051     77052     77053     77054     77053     77055
     77054     77055     77056     77057     77056     77058     77057     77058
     77059     77060     77059     77061     77060     77061     77062     77063
     77062     77064     77063     77064     77065     77066     77065     77067
     77066     77067     77068     77069     77068     77070     77069     77070
     77071     77072     77071     77073     77072     77073     77074     77075
     77074     77076     77075     77076     77077     77078     77077     77079
     77078     77079     77080     77081     77080     77082     77081     77082
     77083     77084     77083     77085     77084     77085     77086     77087
     77086     77088     77087     77088     77089     77090     77089     77091
     77090     77091     77092     77093     77092     77094     77093     77094
     77095     77096     77095     77097     77096     77097     77098     77099
     77098     77100     77099     77100     77101     77102     77101     77103
     77102     77103     77104     77105     77104     77106     77105     77106
     77107     77108     77107     77109     77108     77109     77110     77111
     77110     77112     77111     77112     77113     77114     77113     77115
     77114     77115     77116     77117     77116     77118     77117     77118
     77119     77120     77119     77121     77120     77121     77122     77123
     77122     77124     77123     77124     77125     77126     77125     77127
     77126     77127     77128     77129     77128     77130     77129     77130
     77131     77132     77131     77133     77132     77133     77134     77135
     77134     77136     77135     77136     77137     77138     77137     77139
     77138     77139     77140     77141     77140     77142     77141     77142
     77143     77144     77143     77145     77144     77145     77146     77147
     77146     77148     77147     77148     77149     77150     77149     77151
     77150     77151     77152     77153     77152     77154     77153     77154
     77155     77156     77155     77157     77156     77157     77158     77159
     77158     77160     77159     77160     77161     77162     77161     77163
     77162     77163     77164     77165     77164     77166     77165     77166
     77167     77168     77167     77169     77168     77169     77170     77171
     77170     77172     77171     77172     77173     77174     77173     77175
     77174     77175     77176     77177     77176     77178     77177     77178
     77179     77180     77179     77181     77180     77181     77182     77183
     77182     77184     77183     77184     77185     77186     77185     77187
     77186     77187     77188     77189     77188     77190     77189     77190
     77191     77192     77191     77193     77192     77193     77194     77195
     77194     77196     77195     77196     77197     77198     77197     77199
     77198     77199     77200     77201     77200     77202     77201     77202
     77203     77204     77203     77205     77204     77205     77206     77207
     77206     77208     77207     77208     77209     77210     77209     77211
     77210     77211     77212     77213     77212     77214     77213     77214
     77215     77216     77215     77217     77216     77217     77218     77219
     77218     77220     77219     77220     77221     77222     77221     77223
     77222     77223     77224     77225     77224     77226     77225     77226
     77227     77228     77227     77229     77228     77229     77230     77231
     77230     77232     77231     77232     77233     77234     77233     77235
     77234     77235     77236     77237     77236     77238     77237     77238
     77239     77240     77239     77241     77240     77241     77242     77243
     77242     77244     77243     77244     77245     77246     77245     77247
     77246     77247     77248     77249     77248     77250     77249     77250
     77251     77252     77251     77253     77252     77253     77254     77255
     77254     77256     77255     77256     77257     77258     77257     77259
     77258     77259     77260     77261     77260     77262     77261     77262
     77263     77264     77263     77265     77264     77265     77266     77267
     77266     77268     77267     77268     77269     77270     77269     77271
     77270     77271     77272     77273     77272     77274     77273     77274
     77275     77276     77275     77277     77276     77277     77278     77279
     77278     77280     77279     77280     77281     77282     77281     77283
     77282     77283     77284     77285     77284     77286     77285     77286
     77287     77288     77287     77289     77288     77289     77290     77291
     77290     77292     77291     77292     77293     77294     77293     77295
     77294     77295     77296     77297     77296     77298     77297     77298
     77299     77300     77299     77301     77300     77301     77302     77303
     77302     77304     77303     77304     77305     77306     77305     77307
     77306     77307     77308     77309     77308     77310     77309     77310
     77311     77312     77311     77313     77312     77313     77314     77315
     77314     77316     77315     77316     77317     77318     77317     77319
     77318     77319     77320     77321     77320     77322     77321     77322
     77323     77324     77323     77325     77324     77325     77326     77327
     77326     77328     77327     77328     77329     77330     77329     77331
     77330     77331     77332     77333     77332     77334     77333     77334
     77335     77336     77335     77337     77336     77337     77338     77339
     77338     77340     77339     77340     77341     77342     77341     77343
     77342     77343     77344     77345     77344     77346     77345     77346
     77347     77348     77347     77349     77348     77349     77350     77351
     77350     77352     77351     77352     77353     77354     77353     77355
     77354     77355     77356     77357     77356     77358     77357     77358
     77359     77360     77359     77361     77360     77361     77362     77363
     77362     77364     77363     77364     77365     77366     77365     77367
     77366     77367     77368     77369     77368     77370     77369     77370
     77371     77372     77371     77373     77372     77373     77374     77375
     77374     77376     77375     77376     77377     77378     77377     77379
     77378     77379     77380     77381     77380     77382     77381     77382
     77383     77384     77383     77385     77384     77385     77386     77387
     77386     77388     77387     77388     77389     77390     77389     77391
     77390     77391     77392     77393     77392     77394     77393     77394
     77395     77396     77395     77397     77396     77397     77398     77399
     77398     77400     77399     77400     77401     77402     77401     77403
     77402     77403     77404     77405     77404     77406     77405     77406
     77407     77408     77407     77409     77408     77409     77410     77411
     77410     77412     77411     77412     77413     77414     77413     77415
     77414     77415     77416     77417     77416     77418     77417     77418
     77419     77420     77419     77421     77420     77421     77422     77423
     77422     77424     77423     77424     77425     77426     77425     77427
     77426     77427     77428     77429     77428     77430     77429     77430
     77431     77432     77431     77433     77432     77433     77434     77435
     77434     77436     77435     77436     77437     77438     77437     77439
     77438     77439     77440     77441     77440     77442     77441     77442
     77443     77444     77443     77445     77444     77445     77446     77447
     77446     77448     77447     77448     77449     77450     77449     77451
     77450     77451     77452     77453     77452     77454     77453     77454
     77455     77456     77455     77457     77456     77457     77458     77459
     77458     77460     77459     77460     77461     77462     77461     77463
     77462     77463     77464     77465     77464     77466     77465     77466
     77467     77468     77467     77469     77468     77469     77470     77471
     77470     77472     77471     77472     77473     77474     77473     77475
     77474     77475     77476     77477     77476     77478     77477     77478
     77479     77480     77479     77481     77480     77481     77482     77483
     77482     77484     77483     77484     77485     77486     77485     77487
     77486     77487     77488     77489     77488     77490     77489     77490
     77491     77492     77491     77493     77492     77493     77494     77495
     77494     77496     77495     77496     77497     77498     77497     77499
     77498     77499     77500     77501     77500     77502     77501     77502
     77503     77504     77503     77505     77504     77505     77506     77507
     77506     77508     77507     77508     77509     77510     77509     77511
     77510     77511     77512     77513     77512     77514     77513     77514
     77515     77516     77515     77517     77516     77517     77518     77519
     77518     77520     77519     77520     77521     77522     77521     77523
     77522     77523     77524     77525     77524     77526     77525     77526
     77527     77528     77527     77529     77528     77529     77530     77531
     77530     77532     77531     77532     77533     77534     77533     77535
     77534     77535     77536     77537     77536     77538     77537     77538
     77539     77540     77539     77541     77540     77541     77542     77543
     77542     77544     77543     77544     77545     77546     77545     77547
     77546     77547     77548     77549     77548     77550     77549     77550
     77551     77552     77551     77553     77552     77553     77554     77555
     77554     77556     77555     77556     77557     77558     77557     77559
     77558     77559     77560     77561     77560     77562     77561     77562
     77563     77564     77563     77565     77564     77565     77566     77567
     77566     77568     77567     77568     77569     77570     77569     77571
     77570     77571     77572     77573     77572     77574     77573     77574
     77575     77576     77575     77577     77576     77577     77578     77579
     77578     77580     77579     77580     77581     77582     77581     77583
     77582     77583     77584     77585     77584     77586     77585     77586
     77587     77588     77587     77589     77588     77589     77590     77591
     77590     77592     77591     77592     77593     77594     77593     77595
     77594     77595     77596     77597     77596     77598     77597     77598
     77599     77600     77599     77601     77600     77601     77602     77603
     77602     77604     77603     77604     77605     77606     77605     77607
     77606     77607     77608     77609     77608     77610     77609     77610
     77611     77612     77611     77613     77612     77613     77614     77615
     77614     77616     77615     77616     77617     77618     77617     77619
     77618     77619     77620     77621     77620     77622     77621     77622
     77623     77624     77623     77625     77624     77625     77626     77627
     77626     77628     77627     77628     77629     77630     77629     77631
     77630     77631     77632     77633     77632     77634     77633     77634
     77635     77636     77635     77637     77636     77637     77638     77639
     77638     77640     77639     77640     77641     77642     77641     77643
     77642     77643     77644     77645     77644     77646     77645     77646
     77647     77648     77647     77649     77648     77649     77650     77651
     77650     77652     77651     77652     77653     77654     77653     77655
     77654     77655     77656     77657     77656     77658     77657     77658
     77659     77660     77659     77661     77660     77661     77662     77663
     77662     77664     77663     77664     77665     77666     77665     77667
     77666     77667     77668     77669     77668     77670     77669     77670
     77671     77672     77671     77673     77672     77673     77674     77675
     77674     77676     77675     77676     77677     77678     77677     77679
     77678     77679     77680     77681     77680     77682     77681     77682
     77683     77684     77683     77685     77684     77685     77686     77687
     77686     77688     77687     77688     77689     77690     77689     77691
     77690     77691     77692     77693     77692     77694     77693     77694
     77695     77696     77695     77697     77696     77697     77698     77699
     77698     77700     77699     77700     77701     77702     77701     77703
     77702     77703     77704     77705     77704     77706     77705     77706
     77707     77708     77707     77709     77708     77709     77710     77711
     77710     77712     77711     77712     77713     77714     77713     77715
     77714     77715     77716     77717     77716     77718     77717     77718
     77719     77720     77719     77721     77720     77721     77722     77723
     77722     77724     77723     77724     77725     77726     77725     77727
     77726     77727     77728     77729     77728     77730     77729     77730
     77731     77732     77731     77733     77732     77733     77734     77735
     77734     77736     77735     77736     77737     77738     77737     77739
     77738     77739     77740     77741     77740     77742     77741     77742
     77743     77744     77743     77745     77744     77745     77746     77747
     77746     77748     77747     77748     77749     77750     77749     77751
     77750     77751     77752     77753     77752     77754     77753     77754
     77755     77756     77755     77757     77756     77757     77758     77759
     77758     77760     77759     77760     77761     77762     77761     77763
     77762     77763     77764     77765     77764     77766     77765     77766
     77767     77768     77767     77769     77768     77769     77770     77771
     77770     77772     77771     77772     77773     77774     77773     77775
     77774     77775     77776     77777     77776     77778     77777     77778
     77779     77780     77779     77781     77780     77781     77782     77783
     77782     77784     77783     77784     77785     77786     77785     77787
     77786     77787     77788     77789     77788     77790     77789     77790
     77791     77792     77791     77793     77792     77793     77794     77795
     77794     77796     77795     77796     77797     77798     77797     77799
     77798     77799     77800     77801     77800     77802     77801     77802
     77803     77804     77803     77805     77804     77805     77806     77807
     77806     77808     77807     77808     77809     77810     77809     77811
     77810     77811     77812     77813     77812     77814     77813     77814
     77815     77816     77815     77817     77816     77817     77818     77819
     77818     77820     77819     77820     77821     77822     77821     77823
     77822     77823     77824     77825     77824     77826     77825     77826
     77827     77828     77827     77829     77828     77829     77830     77831
     77830     77832     77831     77832     77833     77834     77833     77835
     77834     77835     77836     77837     77836     77838     77837     77838
     77839     77840     77839     77841     77840     77841     77842     77843
     77842     77844     77843     77844     77845     77846     77845     77847
     77846     77847     77848     77849     77848     77850     77849     77850
     77851     77852     77851     77853     77852     77853     77854     77855
     77854     77856     77855     77856     77857     77858     77857     77859
     77858     77859     77860     77861     77860     77862     77861     77862
     77863     77864     77863     77865     77864     77865     77866     77867
     77866     77868     77867     77868     77869     77870     77869     77871
     77870     77871     77872     77873     77872     77874     77873     77874
     77875     77876     77875     77877     77876     77877     77878     77879
     77878     77880     77879     77880     77881     77882     77881     77883
     77882     77883     77884     77885     77884     77886     77885     77886
     77887     77888     77887     77889     77888     77889     77890     77891
     77890     77892     77891     77892     77893     77894     77893     77895
     77894     77895     77896     77897     77896     77898     77897     77898
     77899     77900     77899     77901     77900     77901     77902     77903
     77902     77904     77903     77904     77905     77906     77905     77907
     77906     77907     77908     77909     77908     77910     77909     77910
     77911     77912     77911     77913     77912     77913     77914     77915
     77914     77916     77915     77916     77917     77918     77917     77919
     77918     77919     77920     77921     77920     77922     77921     77922
     77923     77924     77923     77925     77924     77925     77926     77927
     77926     77928     77927     77928     77929     77930     77929     77931
     77930     77931     77932     77933     77932     77934     77933     77934
     77935     77936     77935     77937     77936     77937     77938     77939
     77938     77940     77939     77940     77941     77942     77941     77943
     77942     77943     77944     77945     77944     77946     77945     77946
     77947     77948     77947     77949     77948     77949     77950     77951
     77950     77952     77951     77952     77953     77954     77953     77955
     77954     77955     77956     77957     77956     77958     77957     77958
     77959     77960     77959     77961     77960     77961     77962     77963
     77962     77964     77963     77964     77965     77966     77965     77967
     77966     77967     77968     77969     77968     77970     77969     77970
     77971     77972     77971     77973     77972     77973     77974     77975
     77974     77976     77975     77976     77977     77978     77977     77979
     77978     77979     77980     77981     77980     77982     77981     77982
     77983     77984     77983     77985     77984     77985     77986     77987
     77986     77988     77987     77988     77989     77990     77989     77991
     77990     77991     77992     77993     77992     77994     77993     77994
     77995     77996     77995     77997     77996     77997     77998     77999
     77998     78000     77999     78000     78001     78002     78001     78003
     78002     78003     78004     78005     78004     78006     78005     78006
     78007     78008     78007     78009     78008     78009     78010     78011
     78010     78012     78011     78012     78013     78014     78013     78015
     78014     78015     78016     78017     78016     78018     78017     78018
     78019     78020     78019     78021     78020     78021     78022     78023
     78022     78024     78023     78024     78025     78026     78025     78027
     78026     78027     78028     78029     78028     78030     78029     78030
     78031     78032     78031     78033     78032     78033     78034     78035
     78034     78036     78035     78036     78037     78038     78037     78039
     78038     78039     78040     78041     78040     78042     78041     78042
     78043     78044     78043     78045     78044     78045     78046     78047
     78046     78048     78047     78048     78049     78050     78049     78051
     78050     78051     78052     78053     78052     78054     78053     78054
     78055     78056     78055     78057     78056     78057     78058     78059
     78058     78060     78059     78060     78061     78062     78061     78063
     78062     78063     78064     78065     78064     78066     78065     78066
     78067     78068     78067     78069     78068     78069     78070     78071
     78070     78072     78071     78072     78073     78074     78073     78075
     78074     78075     78076     78077     78076     78078     78077     78078
     78079     78080     78079     78081     78080     78081     78082     78083
     78082     78084     78083     78084     78085     78086     78085     78087
     78086     78087     78088     78089     78088     78090     78089     78090
     78091     78092     78091     78093     78092     78093     78094     78095
     78094     78096     78095     78096     78097     78098     78097     78099
     78098     78099     78100     78101     78100     78102     78101     78102
     78103     78104     78103     78105     78104     78105     78106     78107
     78106     78108     78107     78108     78109     78110     78109     78111
     78110     78111     78112     78113     78112     78114     78113     78114
     78115     78116     78115     78117     78116     78117     78118     78119
     78118     78120     78119     78120     78121     78122     78121     78123
     78122     78123     78124     78125     78124     78126     78125     78126
     78127     78128     78127     78129     78128     78129     78130     78131
     78130     78132     78131     78132     78133     78134     78133     78135
     78134     78135     78136     78137     78136     78138     78137     78138
     78139     78140     78139     78141     78140     78141     78142     78143
     78142     78144     78143     78144     78145     78146     78145     78147
     78146     78147     78148     78149     78148     78150     78149     78150
     78151     78152     78151     78153     78152     78153     78154     78155
     78154     78156     78155     78156     78157     78158     78157     78159
     78158     78159     78160     78161     78160     78162     78161     78162
     78163     78164     78163     78165     78164     78165     78166     78167
     78166     78168     78167     78168     78169     78170     78169     78171
     78170     78171     78172     78173     78172     78174     78173     78174
     78175     78176     78175     78177     78176     78177     78178     78179
     78178     78180     78179     78180     78181     78182     78181     78183
     78182     78183     78184     78185     78184     78186     78185     78186
     78187     78188     78187     78189     78188     78189     78190     78191
     78190     78192     78191     78192     78193     78194     78193     78195
     78194     78195     78196     78197     78196     78198     78197     78198
     78199     78200     78199     78201     78200     78201     78202     78203
     78202     78204     78203     78204     78205     78206     78205     78207
     78206     78207     78208     78209     78208     78210     78209     78210
     78211     78212     78211     78213     78212     78213     78214     78215
     78214     78216     78215     78216     78217     78218     78217     78219
     78218     78219     78220     78221     78220     78222     78221     78222
     78223     78224     78223     78225     78224     78225     78226     78227
     78226     78228     78227     78228     78229     78230     78229     78231
     78230     78231     78232     78233     78232     78234     78233     78234
     78235     78236     78235     78237     78236     78237     78238     78239
     78238     78240     78239     78240     78241     78242     78241     78243
     78242     78243     78244     78245     78244     78246     78245     78246
     78247     78248     78247     78249     78248     78249     78250     78251
     78250     78252     78251     78252     78253     78254     78253     78255
     78254     78255     78256     78257     78256     78258     78257     78258
     78259     78260     78259     78261     78260     78261     78262     78263
     78262     78264     78263     78264     78265     78266     78265     78267
     78266     78267     78268     78269     78268     78270     78269     78270
     78271     78272     78271     78273     78272     78273     78274     78275
     78274     78276     78275     78276     78277     78278     78277     78279
     78278     78279     78280     78281     78280     78282     78281     78282
     78283     78284     78283     78285     78284     78285     78286     78287
     78286     78288     78287     78288     78289     78290     78289     78291
     78290     78291     78292     78293     78292     78294     78293     78294
     78295     78296     78295     78297     78296     78297     78298     78299
     78298     78300     78299     78300     78301     78302     78301     78303
     78302     78303     78304     78305     78304     78306     78305     78306
     78307     78308     78307     78309     78308     78309     78310     78311
     78310     78312     78311     78312     78313     78314     78313     78315
     78314     78315     78316     78317     78316     78318     78317     78318
     78319     78320     78319     78321     78320     78321     78322     78323
     78322     78324     78323     78324     78325     78326     78325     78327
     78326     78327     78328     78329     78328     78330     78329     78330
     78331     78332     78331     78333     78332     78333     78334     78335
     78334     78336     78335     78336     78337     78338     78337     78339
     78338     78339     78340     78341     78340     78342     78341     78342
     78343     78344     78343     78345     78344     78345     78346     78347
     78346     78348     78347     78348     78349     78350     78349     78351
     78350     78351     78352     78353     78352     78354     78353     78354
     78355     78356     78355     78357     78356     78357     78358     78359
     78358     78360     78359     78360     78361     78362     78361     78363
     78362     78363     78364     78365     78364     78366     78365     78366
     78367     78368     78367     78369     78368     78369     78370     78371
     78370     78372     78371     78372     78373     78374     78373     78375
     78374     78375     78376     78377     78376     78378     78377     78378
     78379     78380     78379     78381     78380     78381     78382     78383
     78382     78384     78383     78384     78385     78386     78385     78387
     78386     78387     78388     78389     78388     78390     78389     78390
     78391     78392     78391     78393     78392     78393     78394     78395
     78394     78396     78395     78396     78397     78398     78397     78399
     78398     78399     78400     78401     78400     78402     78401     78402
     78403     78404     78403     78405     78404     78405     78406     78407
     78406     78408     78407     78408     78409     78410     78409     78411
     78410     78411     78412     78413     78412     78414     78413     78414
     78415     78416     78415     78417     78416     78417     78418     78419
     78418     78420     78419     78420     78421     78422     78421     78423
     78422     78423     78424     78425     78424     78426     78425     78426
     78427     78428     78427     78429     78428     78429     78430     78431
     78430     78432     78431     78432     78433     78434     78433     78435
     78434     78435     78436     78437     78436     78438     78437     78438
     78439     78440     78439     78441     78440     78441     78442     78443
     78442     78444     78443     78444     78445     78446     78445     78447
     78446     78447     78448     78449     78448     78450     78449     78450
     78451     78452     78451     78453     78452     78453     78454     78455
     78454     78456     78455     78456     78457     78458     78457     78459
     78458     78459     78460     78461     78460     78462     78461     78462
     78463     78464     78463     78465     78464     78465     78466     78467
     78466     78468     78467     78468     78469     78470     78469     78471
     78470     78471     78472     78473     78472     78474     78473     78474
     78475     78476     78475     78477     78476     78477     78478     78479
     78478     78480     78479     78480     78481     78482     78481     78483
     78482     78483     78484     78485     78484     78486     78485     78486
     78487     78488     78487     78489     78488     78489     78490     78491
     78490     78492     78491     78492     78493     78494     78493     78495
     78494     78495     78496     78497     78496     78498     78497     78498
     78499     78500     78499     78501     78500     78501     78502     78503
     78502     78504     78503     78504     78505     78506     78505     78507
     78506     78507     78508     78509     78508     78510     78509     78510
     78511     78512     78511     78513     78512     78513     78514     78515
     78514     78516     78515     78516     78517     78518     78517     78519
     78518     78519     78520     78521     78520     78522     78521     78522
     78523     78524     78523     78525     78524     78525     78526     78527
     78526     78528     78527     78528     78529     78530     78529     78531
     78530     78531     78532     78533     78532     78534     78533     78534
     78535     78536     78535     78537     78536     78537     78538     78539
     78538     78540     78539     78540     78541     78542     78541     78543
     78542     78543     78544     78545     78544     78546     78545     78546
     78547     78548     78547     78549     78548     78549     78550     78551
     78550     78552     78551     78552     78553     78554     78553     78555
     78554     78555     78556     78557     78556     78558     78557     78558
     78559     78560     78559     78561     78560     78561     78562     78563
     78562     78564     78563     78564     78565     78566     78565     78567
     78566     78567     78568     78569     78568     78570     78569     78570
     78571     78572     78571     78573     78572     78573     78574     78575
     78574     78576     78575     78576     78577     78578     78577     78579
     78578     78579     78580     78581     78580     78582     78581     78582
     78583     78584     78583     78585     78584     78585     78586     78587
     78586     78588     78587     78588     78589     78590     78589     78591
     78590     78591     78592     78593     78592     78594     78593     78594
     78595     78596     78595     78597     78596     78597     78598     78599
     78598     78600     78599     78600     78601     78602     78601     78603
     78602     78603     78604     78605     78604     78606     78605     78606
     78607     78608     78607     78609     78608     78609     78610     78611
     78610     78612     78611     78612     78613     78614     78613     78615
     78614     78615     78616     78617     78616     78618     78617     78618
     78619     78620     78619     78621     78620     78621     78622     78623
     78622     78624     78623     78624     78625     78626     78625     78627
     78626     78627     78628     78629     78628     78630     78629     78630
     78631     78632     78631     78633     78632     78633     78634     78635
     78634     78636     78635     78636     78637     78638     78637     78639
     78638     78639     78640     78641     78640     78642     78641     78642
     78643     78644     78643     78645     78644     78645     78646     78647
     78646     78648     78647     78648     78649     78650     78649     78651
     78650     78651     78652     78653     78652     78654     78653     78654
     78655     78656     78655     78657     78656     78657     78658     78659
     78658     78660     78659     78660     78661     78662     78661     78663
     78662     78663     78664     78665     78664     78666     78665     78666
     78667     78668     78667     78669     78668     78669     78670     78671
     78670     78672     78671     78672     78673     78674     78673     78675
     78674     78675     78676     78677     78676     78678     78677     78678
     78679     78680     78679     78681     78680     78681     78682     78683
     78682     78684     78683     78684     78685     78686     78685     78687
     78686     78687     78688     78689     78688     78690     78689     78690
     78691     78692     78691     78693     78692     78693     78694     78695
     78694     78696     78695     78696     78697     78698     78697     78699
     78698     78699     78700     78701     78700     78702     78701     78702
     78703     78704     78703     78705     78704     78705     78706     78707
     78706     78708     78707     78708     78709     78710     78709     78711
     78710     78711     78712     78713     78712     78714     78713     78714
     78715     78716     78715     78717     78716     78717     78718     78719
     78718     78720     78719     78720     78721     78722     78721     78723
     78722     78723     78724     78725     78724     78726     78725     78726
     78727     78728     78727     78729     78728     78729     78730     78731
     78730     78732     78731     78732     78733     78734     78733     78735
     78734     78735     78736     78737     78736     78738     78737     78738
     78739     78740     78739     78741     78740     78741     78742     78743
     78742     78744     78743     78744     78745     78746     78745     78747
     78746     78747     78748     78749     78748     78750     78749     78750
     78751     78752     78751     78753     78752     78753     78754     78755
     78754     78756     78755     78756     78757     78758     78757     78759
     78758     78759     78760     78761     78760     78762     78761     78762
     78763     78764     78763     78765     78764     78765     78766     78767
     78766     78768     78767     78768     78769     78770     78769     78771
     78770     78771     78772     78773     78772     78774     78773     78774
     78775     78776     78775     78777     78776     78777     78778     78779
     78778     78780     78779     78780     78781     78782     78781     78783
     78782     78783     78784     78785     78784     78786     78785     78786
     78787     78788     78787     78789     78788     78789     78790     78791
     78790     78792     78791     78792     78793     78794     78793     78795
     78794     78795     78796     78797     78796     78798     78797     78798
     78799     78800     78799     78801     78800     78801     78802     78803
     78802     78804     78803     78804     78805     78806     78805     78807
     78806     78807     78808     78809     78808     78810     78809     78810
     78811     78812     78811     78813     78812     78813     78814     78815
     78814     78816     78815     78816     78817     78818     78817     78819
     78818     78819     78820     78821     78820     78822     78821     78822
     78823     78824     78823     78825     78824     78825     78826     78827
     78826     78828     78827     78828     78829     78830     78829     78831
     78830     78831     78832     78833     78832     78834     78833     78834
     78835     78836     78835     78837     78836     78837     78838     78839
     78838     78840     78839     78840     78841     78842     78841     78843
     78842     78843     78844     78845     78844     78846     78845     78846
     78847     78848     78847     78849     78848     78849     78850     78851
     78850     78852     78851     78852     78853     78854     78853     78855
     78854     78855     78856     78857     78856     78858     78857     78858
     78859     78860     78859     78861     78860     78861     78862     78863
     78862     78864     78863     78864     78865     78866     78865     78867
     78866     78867     78868     78869     78868     78870     78869     78870
     78871     78872     78871     78873     78872     78873     78874     78875
     78874     78876     78875     78876     78877     78878     78877     78879
     78878     78879     78880     78881     78880     78882     78881     78882
     78883     78884     78883     78885     78884     78885     78886     78887
     78886     78888     78887     78888     78889     78890     78889     78891
     78890     78891     78892     78893     78892     78894     78893     78894
     78895     78896     78895     78897     78896     78897     78898     78899
     78898     78900     78899     78900     78901     78902     78901     78903
     78902     78903     78904     78905     78904     78906     78905     78906

     88434 !NTHETA: angles
         2         1         5         2         1         9         2         1        13
         5         1         9         5         1        13         9         1        13
         1         2         3         1         2         4         1         2        17
         3         2         4         3         2        17         4         2        17
         1         5         6         1         5         7         1         5         8
         6         5         7         6         5         8         7         5         8
         1         9        10         1         9        11         1         9        12
        10         9        11        10         9        12        11         9        12
         1        13        14         1        13        15         1        13        16
        14        13        15        14        13        16        15        13        16
         2        17        18         2        17        19         2        17        23
        18        17        19        18        17        23        19        17        23
        21        20        22        21        20        23        21        20        24
        22        20        23        22        20        24        23        20        24
        17        23        20        20        24        25        24        25        26
        24        25        27        24        25        28        26        25        27
        26        25        28        27        25        28        25        28        29
        25        28        30        25        28        36        29        28        30
        29        28        36        30        28        36        28        30        31
        30        31        32        30        31        33        32        31        33
        31        33        34        31        33        35        31        33        45
        34        33        35        34        33        45        35        33        45
        28        36        37        28        36        38        28        36        39
        37        36        38        37        36        39        38        36        39
        36        39        40        39        40        41        39        40        42
        41        40        42        40        42        43        40        42        44
        40        42        92        43        42        44        43        42        92
        44        42        92        33        45        46        33        45        47
        33        45        48        46        45        47        46        45        48
        47        45        48        45        48        49        45        48        50
        45        48        51        49        48        50        49        48        51
        50        48        51        48        51        52        48        51        53
        48        51        54        52        51        53        52        51        54
        53        51        54        51        54        55        51        54        56
        51        54        57        55        54        56        55        54        57
        56        54        57        54        57        58        54        57        59
        54        57        60        58        57        59        58        57        60
        59        57        60        57        60        61        57        60        62
        57        60        63        61        60        62        61        60        63
        62        60        63        60        63        64        60        63        65
        64        63        65        63        65        66        63        65        67
        66        65        67        65        67        68        65        67        69
        65        67        70        68        67        69        68        67        70
        69        67        70        67        70        71        67        70        72
        67        70        73        71        70        72        71        70        73
        72        70        73        70        73        74        70        73        75
        70        73        76        74        73        75        74        73        76
        75        73        76        73        76        77        73        76        78
        73        76        79        77        76        78        77        76        79
        78        76        79        76        79        80        76        79        81
        76        79        82        80        79        81        80        79        82
        81        79        82        79        82        83        79        82        84
        79        82        85        83        82        84        83        82        85
        84        82        85        82        85        86        82        85        87
        82        85        88        86        85        87        86        85        88
        87        85        88        85        88        89        85        88        90
        85        88        91        89        88        90        89        88        91
        90        88        91        42        92        93        42        92        94
        42        92        95        93        92        94        93        92        95
        94        92        95        92        95        96        92        95        97
        92        95        98        96        95        97        96        95        98
        97        95        98        95        98        99        95        98       100
        95        98       101        99        98       100        99        98       101
       100        98       101        98       101       102        98       101       103
        98       101       104       102       101       103       102       101       104
       103       101       104       101       104       105       101       104       106
       101       104       107       105       104       106       105       104       107
       106       104       107       104       107       108       104       107       109
       104       107       110       108       107       109       108       107       110
       109       107       110       107       110       111       107       110       112
       107       110       113       111       110       112       111       110       113
       112       110       113       110       113       114       110       113       115
       110       113       116       114       113       115       114       113       116
       115       113       116       113       116       117       113       116       118
       113       116       119       117       116       118       117       116       119
       118       116       119       116       119       120       116       119       121
       116       119       122       120       119       121       120       119       122
       121       119       122       119       122       123       119       122       124
       119       122       125       123       122       124       123       122       125
       124       122       125       122       125       126       122       125       127
       122       125       128       126       125       127       126       125       128
       127       125       128       125       128       129       125       128       130
       125       128       131       129       128       130       129       128       131
       130       128       131       128       131       132       128       131       133
       128       131       134       132       131       133       132       131       134
       133       131       134       136       135       139       136       135       143
       136       135       147       139       135       143       139       135       147
       143       135       147       135       136       137       135       136       138
       135       136       151       137       136       138       137       136       151
       138       136       151       135       139       140       135       139       141
       135       139       142       140       139       141       140       139       142
       141       139       142       135       143       144       135       143       145
       135       143       146       144       143       145       144       143       146
       145       143       146       135       147       148       135       147       149
       135       147       150       148       147       149       148       147       150
       149       147       150       136       151       152       136       151       153
       136       151       157       152       151       153       152       151       157
       153       151       157       155       154       156       155       154       157
       155       154       158       156       154       157       156       154       158
       157       154       158       151       157       154       154       158       159
       158       159       160       158       159       161       158       159       162
       160       159       161       160       159       162       161       159       162
       159       162       163       159       162       164       159       162       170
       163       162       164       163       162       170       164       162       170
       162       164       165       164       165       166       164       165       167
       166       165       167       165       167       168       165       167       169
       165       167       179       168       167       169       168       167       179
       169       167       179       162       170       171       162       170       172
       162       170       173       171       170       172       171       170       173
       172       170       173       170       173       174       173       174       175
       173       174       176       175       174       176       174       176       177
       174       176       178       174       176       226       177       176       178
       177       176       226       178       176       226       167       179       180
       167       179       181       167       179       182       180       179       181
       180       179       182       181       179       182       179       182       183
       179       182       184       179       182       185       183       182       184
       183       182       185       184       182       185       182       185       186
       182       185       187       182       185       188       186       185       187
       186       185       188       187       185       188       185       188       189
       185       188       190       185       188       191       189       188       190
       189       188       191       190       188       191       188       191       192
       188       191       193       188       191       194       192       191       193
       192       191       194       193       191       194       191       194       195
       191       194       196       191       194       197       195       194       196
       195       194       197       196       194       197       194       197       198
       194       197       199       198       197       199       197       199       200
       197       199       201       200       199       201       199       201       202
       199       201       203       199       201       204       202       201       203
       202       201       204       203       201       204       201       204       205
       201       204       206       201       204       207       205       204       206
       205       204       207       206       204       207       204       207       208
       204       207       209       204       207       210       208       207       209
       208       207       210       209       207       210       207       210       211
       207       210       212       207       210       213       211       210       212
       211       210       213       212       210       213       210       213       214
       210       213       215       210       213       216       214       213       215
       214       213       216       215       213       216       213       216       217
       213       216       218       213       216       219       217       216       218
       217       216       219       218       216       219       216       219       220
       216       219       221       216       219       222       220       219       221
       220       219       222       221       219       222       219       222       223
       219       222       224       219       222       225       223       222       224
       223       222       225       224       222       225       176       226       227
       176       226       228       176       226       229       227       226       228
       227       226       229       228       226       229       226       229       230
       226       229       231       226       229       232       230       229       231
       230       229       232       231       229       232       229       232       233
       229       232       234       229       232       235       233       232       234
       233       232       235       234       232       235       232       235       236
       232       235       237       232       235       238       236       235       237
       236       235       238       237       235       238       235       238       239
       235       238       240       235       238       241       239       238       240
       239       238       241       240       238       241       238       241       242
       238       241       243       238       241       244       242       241       243
       242       241       244       243       241       244       241       244       245
       241       244       246       241       244       247       245       244       246
       245       244       247       246       244       247       244       247       248
       244       247       249       244       247       250       248       247       249
       248       247       250       249       247       250       247       250       251
       247       250       252       247       250       253       251       250       252
       251       250       253       252       250       253       250       253       254
       250       253       255       250       253       256       254       253       255
       254       253       256       255       253       256       253       256       257
       253       256       258       253       256       259       257       256       258
       257       256       259       258       256       259       256       259       260
       256       259       261       256       259       262       260       259       261
       260       259       262       261       259       262       259       262       263
       259       262       264       259       262       265       263       262       264
       263       262       265       264       262       265       262       265       266
       262       265       267       262       265       268       266       265       267
       266       265       268       267       265       268       270       269       273
       270       269       277       270       269       281       273       269       277
       273       269       281       277       269       281       269       270       271
       269       270       272       269       270       285       271       270       272
       271       270       285       272       270       285       269       273       274
       269       273       275       269       273       276       274       273       275
       274       273       276       275       273       276       269       277       278
       269       277       279       269       277       280       278       277       279
       278       277       280       279       277       280       269       281       282
       269       281       283       269       281       284       282       281       283
       282       281       284       283       281       284       270       285       286
       270       285       287       270       285       291       286       285       287
       286       285       291       287       285       291       289       288       290
       289       288       291       289       288       292       290       288       291
       290       288       292       291       288       292       285       291       288
       288       292       293       292       293       294       292       293       295
       292       293       296       294       293       295       294       293       296
       295       293       296       293       296       297       293       296       298
       293       296       304       297       296       298       297       296       304
       298       296       304       296       298       299       298       299       300
       298       299       301       300       299       301       299       301       302
       299       301       303       299       301       313       302       301       303
       302       301       313       303       301       313       296       304       305
       296       304       306       296       304       307       305       304       306
       305       304       307       306       304       307       304       307       308
       307       308       309       307       308       310       309       308       310
       308       310       311       308       310       312       308       310       360
       311       310       312       311       310       360       312       310       360
       301       313       314       301       313       315       301       313       316
       314       313       315       314       313       316       315       313       316
       313       316       317       313       316       318       313       316       319
       317       316       318       317       316       319       318       316       319
       316       319       320       316       319       321       316       319       322
       320       319       321       320       319       322       321       319       322
       319       322       323       319       322       324       319       322       325
       323       322       324       323       322       325       324       322       325
       322       325       326       322       325       327       322       325       328
       326       325       327       326       325       328       327       325       328
       325       328       329       325       328       330       325       328       331
       329       328       330       329       328       331       330       328       331
       328       331       332       328       331       333       332       331       333
       331       333       334       331       333       335       334       333       335
       333       335       336       333       335       337       333       335       338
       336       335       337       336       335       338       337       335       338
       335       338       339       335       338       340       335       338       341
       339       338       340       339       338       341       340       338       341
       338       341       342       338       341       343       338       341       344
       342       341       343       342       341       344       343       341       344
       341       344       345       341       344       346       341       344       347
       345       344       346       345       344       347       346       344       347
       344       347       348       344       347       349       344       347       350
       348       347       349       348       347       350       349       347       350
       347       350       351       347       350       352       347       350       353
       351       350       352       351       350       353       352       350       353
       350       353       354       350       353       355       350       353       356
       354       353       355       354       353       356       355       353       356
       353       356       357       353       356       358       353       356       359
       357       356       358       357       356       359       358       356       359
       310       360       361       310       360       362       310       360       363
       361       360       362       361       360       363       362       360       363
       360       363       364       360       363       365       360       363       366
       364       363       365       364       363       366       365       363       366
       363       366       367       363       366       368       363       366       369
       367       366       368       367       366       369       368       366       369
       366       369       370       366       369       371       366       369       372
       370       369       371       370       369       372       371       369       372
       369       372       373       369       372       374       369       372       375
       373       372       374       373       372       375       374       372       375
       372       375       376       372       375       377       372       375       378
       376       375       377       376       375       378       377       375       378
       375       378       379       375       378       380       375       378       381
       379       378       380       379       378       381       380       378       381
       378       381       382       378       381       383       378       381       384
       382       381       383       382       381       384       383       381       384
       381       384       385       381       384       386       381       384       387
       385       384       386       385       384       387       386       384       387
       384       387       388       384       387       389       384       387       390
       388       387       389       388       387       390       389       387       390
       387       390       391       387       390       392       387       390       393
       391       390       392       391       390       393       392       390       393
       390       393       394       390       393       395       390       393       396
       394       393       395       394       393       396       395       393       396
       393       396       397       393       396       398       393       396       399
       397       396       398       397       396       399       398       396       399
       396       399       400       396       399       401       396       399       402
       400       399       401       400       399       402       401       399       402
       404       403       407       404       403       411       404       403       415
       407       403       411       407       403       415       411       403       415
       403       404       405       403       404       406       403       404       419
       405       404       406       405       404       419       406       404       419
       403       407       408       403       407       409       403       407       410
       408       407       409       408       407       410       409       407       410
       403       411       412       403       411       413       403       411       414
       412       411       413       412       411       414       413       411       414
       403       415       416       403       415       417       403       415       418
       416       415       417       416       415       418       417       415       418
       404       419       420       404       419       421       404       419       425
       420       419       421       420       419       425       421       419       425
       423       422       424       423       422       425       423       422       426
       424       422       425       424       422       426       425       422       426
       419       425       422       422       426       427       426       427       428
       426       427       429       426       427       430       428       427       429
       428       427       430       429       427       430       427       430       431
       427       430       432       427       430       438       431       430       432
       431       430       438       432       430       438       430       432       433
       432       433       434       432       433       435       434       433       435
       433       435       436       433       435       437       433       435       447
       436       435       437       436       435       447       437       435       447
       430       438       439       430       438       440       430       438       441
       439       438       440       439       438       441       440       438       441
       438       441       442       441       442       443       441       442       444
       443       442       444       442       444       445       442       444       446
       442       444       494       445       444       446       445       444       494
       446       444       494       435       447       448       435       447       449
       435       447       450       448       447       449       448       447       450
       449       447       450       447       450       451       447       450       452
       447       450       453       451       450       452       451       450       453
       452       450       453       450       453       454       450       453       455
       450       453       456       454       453       455       454       453       456
       455       453       456       453       456       457       453       456       458
       453       456       459       457       456       458       457       456       459
       458       456       459       456       459       460       456       459       461
       456       459       462       460       459       461       460       459       462
       461       459       462       459       462       463       459       462       464
       459       462       465       463       462       464       463       462       465
       464       462       465       462       465       466       462       465       467
       466       465       467       465       467       468       465       467       469
       468       467       469       467       469       470       467       469       471
       467       469       472       470       469       471       470       469       472
       471       469       472       469       472       473       469       472       474
       469       472       475       473       472       474       473       472       475
       474       472       475       472       475       476       472       475       477
       472       475       478       476       475       477       476       475       478
       477       475       478       475       478       479       475       478       480
       475       478       481       479       478       480       479       478       481
       480       478       481       478       481       482       478       481       483
       478       481       484       482       481       483       482       481       484
       483       481       484       481       484       485       481       484       486
       481       484       487       485       484       486       485       484       487
       486       484       487       484       487       488       484       487       489
       484       487       490       488       487       489       488       487       490
       489       487       490       487       490       491       487       490       492
       487       490       493       491       490       492       491       490       493
       492       490       493       444       494       495       444       494       496
       444       494       497       495       494       496       495       494       497
       496       494       497       494       497       498       494       497       499
       494       497       500       498       497       499       498       497       500
       499       497       500       497       500       501       497       500       502
       497       500       503       501       500       502       501       500       503
       502       500       503       500       503       504       500       503       505
       500       503       506       504       503       505       504       503       506
       505       503       506       503       506       507       503       506       508
       503       506       509       507       506       508       507       506       509
       508       506       509       506       509       510       506       509       511
       506       509       512       510       509       511       510       509       512
       511       509       512       509       512       513       509       512       514
       509       512       515       513       512       514       513       512       515
       514       512       515       512       515       516       512       515       517
       512       515       518       516       515       517       516       515       518
       517       515       518       515       518       519       515       518       520
       515       518       521       519       518       520       519       518       521
       520       518       521       518       521       522       518       521       523
       518       521       524       522       521       523       522       521       524
       523       521       524       521       524       525       521       524       526
       521       524       527       525       524       526       525       524       527
       526       524       527       524       527       528       524       527       529
       524       527       530       528       527       529       528       527       530
       529       527       530       527       530       531       527       530       532
       527       530       533       531       530       532       531       530       533
       532       530       533       530       533       534       530       533       535
       530       533       536       534       533       535       534       533       536
       535       533       536       538       537       541       538       537       545
       538       537       549       541       537       545       541       537       549
       545       537       549       537       538       539       537       538       540
       537       538       553       539       538       540       539       538       553
       540       538       553       537       541       542       537       541       543
       537       541       544       542       541       543       542       541       544
       543       541       544       537       545       546       537       545       547
       537       545       548       546       545       547       546       545       548
       547       545       548       537       549       550       537       549       551
       537       549       552       550       549       551       550       549       552
       551       549       552       538       553       554       538       553       555
       538       553       559       554       553       555       554       553       559
       555       553       559       557       556       558       557       556       559
       557       556       560       558       556       559       558       556       560
       559       556       560       553       559       556       556       560       561
       560       561       562       560       561       563       560       561       564
       562       561       563       562       561       564       563       561       564
       561       564       565       561       564       566       561       564       572
       565       564       566       565       564       572       566       564       572
       564       566       567       566       567       568       566       567       569
       568       567       569       567       569       570       567       569       571
       567       569       581       570       569       571       570       569       581
       571       569       581       564       572       573       564       572       574
       564       572       575       573       572       574       573       572       575
       574       572       575       572       575       576       575       576       577
       575       576       578       577       576       578       576       578       579
       576       578       580       576       578       628       579       578       580
       579       578       628       580       578       628       569       581       582
       569       581       583       569       581       584       582       581       583
       582       581       584       583       581       584       581       584       585
       581       584       586       581       584       587       585       584       586
       585       584       587       586       584       587       584       587       588
       584       587       589       584       587       590       588       587       589
       588       587       590       589       587       590       587       590       591
       587       590       592       587       590       593       591       590       592
       591       590       593       592       590       593       590       593       594
       590       593       595       590       593       596       594       593       595
       594       593       596       595       593       596       593       596       597
       593       596       598       593       596       599       597       596       598
       597       596       599       598       596       599       596       599       600
       596       599       601       600       599       601       599       601       602
       599       601       603       602       601       603       601       603       604
       601       603       605       601       603       606       604       603       605
       604       603       606       605       603       606       603       606       607
       603       606       608       603       606       609       607       606       608
       607       606       609       608       606       609       606       609       610
       606       609       611       606       609       612       610       609       611
       610       609       612       611       609       612       609       612       613
       609       612       614       609       612       615       613       612       614
       613       612       615       614       612       615       612       615       616
       612       615       617       612       615       618       616       615       617
       616       615       618       617       615       618       615       618       619
       615       618       620       615       618       621       619       618       620
       619       618       621       620       618       621       618       621       622
       618       621       623       618       621       624       622       621       623
       622       621       624       623       621       624       621       624       625
       621       624       626       621       624       627       625       624       626
       625       624       627       626       624       627       578       628       629
       578       628       630       578       628       631       629       628       630
       629       628       631       630       628       631       628       631       632
       628       631       633       628       631       634       632       631       633
       632       631       634       633       631       634       631       634       635
       631       634       636       631       634       637       635       634       636
       635       634       637       636       634       637       634       637       638
       634       637       639       634       637       640       638       637       639
       638       637       640       639       637       640       637       640       641
       637       640       642       637       640       643       641       640       642
       641       640       643       642       640       643       640       643       644
       640       643       645       640       643       646       644       643       645
       644       643       646       645       643       646       643       646       647
       643       646       648       643       646       649       647       646       648
       647       646       649       648       646       649       646       649       650
       646       649       651       646       649       652       650       649       651
       650       649       652       651       649       652       649       652       653
       649       652       654       649       652       655       653       652       654
       653       652       655       654       652       655       652       655       656
       652       655       657       652       655       658       656       655       657
       656       655       658       657       655       658       655       658       659
       655       658       660       655       658       661       659       658       660
       659       658       661       660       658       661       658       661       662
       658       661       663       658       661       664       662       661       663
       662       661       664       663       661       664       661       664       665
       661       664       666       661       664       667       665       664       666
       665       664       667       666       664       667       664       667       668
       664       667       669       664       667       670       668       667       669
       668       667       670       669       667       670       672       671       675
       672       671       679       672       671       683       675       671       679
       675       671       683       679       671       683       671       672       673
       671       672       674       671       672       687       673       672       674
       673       672       687       674       672       687       671       675       676
       671       675       677       671       675       678       676       675       677
       676       675       678       677       675       678       671       679       680
       671       679       681       671       679       682       680       679       681
       680       679       682       681       679       682       671       683       684
       671       683       685       671       683       686       684       683       685
       684       683       686       685       683       686       672       687       688
       672       687       689       672       687       693       688       687       689
       688       687       693       689       687       693       691       690       692
       691       690       693       691       690       694       692       690       693
       692       690       694       693       690       694       687       693       690
       690       694       695       694       695       696       694       695       697
       694       695       698       696       695       697       696       695       698
       697       695       698       695       698       699       695       698       700
       695       698       706       699       698       700       699       698       706
       700       698       706       698       700       701       700       701       702
       700       701       703       702       701       703       701       703       704
       701       703       705       701       703       715       704       703       705
       704       703       715       705       703       715       698       706       707
       698       706       708       698       706       709       707       706       708
       707       706       709       708       706       709       706       709       710
       709       710       711       709       710       712       711       710       712
       710       712       713       710       712       714       710       712       762
       713       712       714       713       712       762       714       712       762
       703       715       716       703       715       717       703       715       718
       716       715       717       716       715       718       717       715       718
       715       718       719       715       718       720       715       718       721
       719       718       720       719       718       721       720       718       721
       718       721       722       718       721       723       718       721       724
       722       721       723       722       721       724       723       721       724
       721       724       725       721       724       726       721       724       727
       725       724       726       725       724       727       726       724       727
       724       727       728       724       727       729       724       727       730
       728       727       729       728       727       730       729       727       730
       727       730       731       727       730       732       727       730       733
       731       730       732       731       730       733       732       730       733
       730       733       734       730       733       735       734       733       735
       733       735       736       733       735       737       736       735       737
       735       737       738       735       737       739       735       737       740
       738       737       739       738       737       740       739       737       740
       737       740       741       737       740       742       737       740       743
       741       740       742       741       740       743       742       740       743
       740       743       744       740       743       745       740       743       746
       744       743       745       744       743       746       745       743       746
       743       746       747       743       746       748       743       746       749
       747       746       748       747       746       749       748       746       749
       746       749       750       746       749       751       746       749       752
       750       749       751       750       749       752       751       749       752
       749       752       753       749       752       754       749       752       755
       753       752       754       753       752       755       754       752       755
       752       755       756       752       755       757       752       755       758
       756       755       757       756       755       758       757       755       758
       755       758       759       755       758       760       755       758       761
       759       758       760       759       758       761       760       758       761
       712       762       763       712       762       764       712       762       765
       763       762       764       763       762       765       764       762       765
       762       765       766       762       765       767       762       765       768
       766       765       767       766       765       768       767       765       768
       765       768       769       765       768       770       765       768       771
       769       768       770       769       768       771       770       768       771
       768       771       772       768       771       773       768       771       774
       772       771       773       772       771       774       773       771       774
       771       774       775       771       774       776       771       774       777
       775       774       776       775       774       777       776       774       777
       774       777       778       774       777       779       774       777       780
       778       777       779       778       777       780       779       777       780
       777       780       781       777       780       782       777       780       783
       781       780       782       781       780       783       782       780       783
       780       783       784       780       783       785       780       783       786
       784       783       785       784       783       786       785       783       786
       783       786       787       783       786       788       783       786       789
       787       786       788       787       786       789       788       786       789
       786       789       790       786       789       791       786       789       792
       790       789       791       790       789       792       791       789       792
       789       792       793       789       792       794       789       792       795
       793       792       794       793       792       795       794       792       795
       792       795       796       792       795       797       792       795       798
       796       795       797       796       795       798       797       795       798
       795       798       799       795       798       800       795       798       801
       799       798       800       799       798       801       800       798       801
       798       801       802       798       801       803       798       801       804
       802       801       803       802       801       804       803       801       804
       806       805       809       806       805       813       806       805       817
       809       805       813       809       805       817       813       805       817
       805       806       807       805       806       808       805       806       821
       807       806       808       807       806       821       808       806       821
       805       809       810       805       809       811       805       809       812
       810       809       811       810       809       812       811       809       812
       805       813       814       805       813       815       805       813       816
       814       813       815       814       813       816       815       813       816
       805       817       818       805       817       819       805       817       820
       818       817       819       818       817       820       819       817       820
       806       821       822       806       821       823       806       821       827
       822       821       823       822       821       827       823       821       827
       825       824       826       825       824       827       825       824       828
       826       824       827       826       824       828       827       824       828
       821       827       824       824       828       829       828       829       830
       828       829       831       828       829       832       830       829       831
       830       829       832       831       829       832       829       832       833
       829       832       834       829       832       840       833       832       834
       833       832       840       834       832       840       832       834       835
       834       835       836       834       835       837       836       835       837
       835       837       838       835       837       839       835       837       849
       838       837       839       838       837       849       839       837       849
       832       840       841       832       840       842       832       840       843
       841       840       842       841       840       843       842       840       843
       840       843       844       843       844       845       843       844       846
       845       844       846       844       846       847       844       846       848
       844       846       896       847       846       848       847       846       896
       848       846       896       837       849       850       837       849       851
       837       849       852       850       849       851       850       849       852
       851       849       852       849       852       853       849       852       854
       849       852       855       853       852       854       853       852       855
       854       852       855       852       855       856       852       855       857
       852       855       858       856       855       857       856       855       858
       857       855       858       855       858       859       855       858       860
       855       858       861       859       858       860       859       858       861
       860       858       861       858       861       862       858       861       863
       858       861       864       862       861       863       862       861       864
       863       861       864       861       864       865       861       864       866
       861       864       867       865       864       866       865       864       867
       866       864       867       864       867       868       864       867       869
       868       867       869       867       869       870       867       869       871
       870       869       871       869       871       872       869       871       873
       869       871       874       872       871       873       872       871       874
       873       871       874       871       874       875       871       874       876
       871       874       877       875       874       876       875       874       877
       876       874       877       874       877       878       874       877       879
       874       877       880       878       877       879       878       877       880
       879       877       880       877       880       881       877       880       882
       877       880       883       881       880       882       881       880       883
       882       880       883       880       883       884       880       883       885
       880       883       886       884       883       885       884       883       886
       885       883       886       883       886       887       883       886       888
       883       886       889       887       886       888       887       886       889
       888       886       889       886       889       890       886       889       891
       886       889       892       890       889       891       890       889       892
       891       889       892       889       892       893       889       892       894
       889       892       895       893       892       894       893       892       895
       894       892       895       846       896       897       846       896       898
       846       896       899       897       896       898       897       896       899
       898       896       899       896       899       900       896       899       901
       896       899       902       900       899       901       900       899       902
       901       899       902       899       902       903       899       902       904
       899       902       905       903       902       904       903       902       905
       904       902       905       902       905       906       902       905       907
       902       905       908       906       905       907       906       905       908
       907       905       908       905       908       909       905       908       910
       905       908       911       909       908       910       909       908       911
       910       908       911       908       911       912       908       911       913
       908       911       914       912       911       913       912       911       914
       913       911       914       911       914       915       911       914       916
       911       914       917       915       914       916       915       914       917
       916       914       917       914       917       918       914       917       919
       914       917       920       918       917       919       918       917       920
       919       917       920       917       920       921       917       920       922
       917       920       923       921       920       922       921       920       923
       922       920       923       920       923       924       920       923       925
       920       923       926       924       923       925       924       923       926
       925       923       926       923       926       927       923       926       928
       923       926       929       927       926       928       927       926       929
       928       926       929       926       929       930       926       929       931
       926       929       932       930       929       931       930       929       932
       931       929       932       929       932       933       929       932       934
       929       932       935       933       932       934       933       932       935
       934       932       935       932       935       936       932       935       937
       932       935       938       936       935       937       936       935       938
       937       935       938       940       939       943       940       939       947
       940       939       951       943       939       947       943       939       951
       947       939       951       939       940       941       939       940       942
       939       940       955       941       940       942       941       940       955
       942       940       955       939       943       944       939       943       945
       939       943       946       944       943       945       944       943       946
       945       943       946       939       947       948       939       947       949
       939       947       950       948       947       949       948       947       950
       949       947       950       939       951       952       939       951       953
       939       951       954       952       951       953       952       951       954
       953       951       954       940       955       956       940       955       957
       940       955       961       956       955       957       956       955       961
       957       955       961       959       958       960       959       958       961
       959       958       962       960       958       961       960       958       962
       961       958       962       955       961       958       958       962       963
       962       963       964       962       963       965       962       963       966
       964       963       965       964       963       966       965       963       966
       963       966       967       963       966       968       963       966       974
       967       966       968       967       966       974       968       966       974
       966       968       969       968       969       970       968       969       971
       970       969       971       969       971       972       969       971       973
       969       971       983       972       971       973       972       971       983
       973       971       983       966       974       975       966       974       976
       966       974       977       975       974       976       975       974       977
       976       974       977       974       977       978       977       978       979
       977       978       980       979       978       980       978       980       981
       978       980       982       978       980      1030       981       980       982
       981       980      1030       982       980      1030       971       983       984
       971       983       985       971       983       986       984       983       985
       984       983       986       985       983       986       983       986       987
       983       986       988       983       986       989       987       986       988
       987       986       989       988       986       989       986       989       990
       986       989       991       986       989       992       990       989       991
       990       989       992       991       989       992       989       992       993
       989       992       994       989       992       995       993       992       994
       993       992       995       994       992       995       992       995       996
       992       995       997       992       995       998       996       995       997
       996       995       998       997       995       998       995       998       999
       995       998      1000       995       998      1001       999       998      1000
       999       998      1001      1000       998      1001       998      1001      1002
       998      1001      1003      1002      1001      1003      1001      1003      1004
      1001      1003      1005      1004      1003      1005      1003      1005      1006
      1003      1005      1007      1003      1005      1008      1006      1005      1007
      1006      1005      1008      1007      1005      1008      1005      1008      1009
      1005      1008      1010      1005      1008      1011      1009      1008      1010
      1009      1008      1011      1010      1008      1011      1008      1011      1012
      1008      1011      1013      1008      1011      1014      1012      1011      1013
      1012      1011      1014      1013      1011      1014      1011      1014      1015
      1011      1014      1016      1011      1014      1017      1015      1014      1016
      1015      1014      1017      1016      1014      1017      1014      1017      1018
      1014      1017      1019      1014      1017      1020      1018      1017      1019
      1018      1017      1020      1019      1017      1020      1017      1020      1021
      1017      1020      1022      1017      1020      1023      1021      1020      1022
      1021      1020      1023      1022      1020      1023      1020      1023      1024
      1020      1023      1025      1020      1023      1026      1024      1023      1025
      1024      1023      1026      1025      1023      1026      1023      1026      1027
      1023      1026      1028      1023      1026      1029      1027      1026      1028
      1027      1026      1029      1028      1026      1029       980      1030      1031
       980      1030      1032       980      1030      1033      1031      1030      1032
      1031      1030      1033      1032      1030      1033      1030      1033      1034
      1030      1033      1035      1030      1033      1036      1034      1033      1035
      1034      1033      1036      1035      1033      1036      1033      1036      1037
      1033      1036      1038      1033      1036      1039      1037      1036      1038
      1037      1036      1039      1038      1036      1039      1036      1039      1040
      1036      1039      1041      1036      1039      1042      1040      1039      1041
      1040      1039      1042      1041      1039      1042      1039      1042      1043
      1039      1042      1044      1039      1042      1045      1043      1042      1044
      1043      1042      1045      1044      1042      1045      1042      1045      1046
      1042      1045      1047      1042      1045      1048      1046      1045      1047
      1046      1045      1048      1047      1045      1048      1045      1048      1049
      1045      1048      1050      1045      1048      1051      1049      1048      1050
      1049      1048      1051      1050      1048      1051      1048      1051      1052
      1048      1051      1053      1048      1051      1054      1052      1051      1053
      1052      1051      1054      1053      1051      1054      1051      1054      1055
      1051      1054      1056      1051      1054      1057      1055      1054      1056
      1055      1054      1057      1056      1054      1057      1054      1057      1058
      1054      1057      1059      1054      1057      1060      1058      1057      1059
      1058      1057      1060      1059      1057      1060      1057      1060      1061
      1057      1060      1062      1057      1060      1063      1061      1060      1062
      1061      1060      1063      1062      1060      1063      1060      1063      1064
      1060      1063      1065      1060      1063      1066      1064      1063      1065
      1064      1063      1066      1065      1063      1066      1063      1066      1067
      1063      1066      1068      1063      1066      1069      1067      1066      1068
      1067      1066      1069      1068      1066      1069      1066      1069      1070
      1066      1069      1071      1066      1069      1072      1070      1069      1071
      1070      1069      1072      1071      1069      1072      1074      1073      1077
      1074      1073      1081      1074      1073      1085      1077      1073      1081
      1077      1073      1085      1081      1073      1085      1073      1074      1075
      1073      1074      1076      1073      1074      1089      1075      1074      1076
      1075      1074      1089      1076      1074      1089      1073      1077      1078
      1073      1077      1079      1073      1077      1080      1078      1077      1079
      1078      1077      1080      1079      1077      1080      1073      1081      1082
      1073      1081      1083      1073      1081      1084      1082      1081      1083
      1082      1081      1084      1083      1081      1084      1073      1085      1086
      1073      1085      1087      1073      1085      1088      1086      1085      1087
      1086      1085      1088      1087      1085      1088      1074      1089      1090
      1074      1089      1091      1074      1089      1095      1090      1089      1091
      1090      1089      1095      1091      1089      1095      1093      1092      1094
      1093      1092      1095      1093      1092      1096      1094      1092      1095
      1094      1092      1096      1095      1092      1096      1089      1095      1092
      1092      1096      1097      1096      1097      1098      1096      1097      1099
      1096      1097      1100      1098      1097      1099      1098      1097      1100
      1099      1097      1100      1097      1100      1101      1097      1100      1102
      1097      1100      1108      1101      1100      1102      1101      1100      1108
      1102      1100      1108      1100      1102      1103      1102      1103      1104
      1102      1103      1105      1104      1103      1105      1103      1105      1106
      1103      1105      1107      1103      1105      1117      1106      1105      1107
      1106      1105      1117      1107      1105      1117      1100      1108      1109
      1100      1108      1110      1100      1108      1111      1109      1108      1110
      1109      1108      1111      1110      1108      1111      1108      1111      1112
      1111      1112      1113      1111      1112      1114      1113      1112      1114
      1112      1114      1115      1112      1114      1116      1112      1114      1164
      1115      1114      1116      1115      1114      1164      1116      1114      1164
      1105      1117      1118      1105      1117      1119      1105      1117      1120
      1118      1117      1119      1118      1117      1120      1119      1117      1120
      1117      1120      1121      1117      1120      1122      1117      1120      1123
      1121      1120      1122      1121      1120      1123      1122      1120      1123
      1120      1123      1124      1120      1123      1125      1120      1123      1126
      1124      1123      1125      1124      1123      1126      1125      1123      1126
      1123      1126      1127      1123      1126      1128      1123      1126      1129
      1127      1126      1128      1127      1126      1129      1128      1126      1129
      1126      1129      1130      1126      1129      1131      1126      1129      1132
      1130      1129      1131      1130      1129      1132      1131      1129      1132
      1129      1132      1133      1129      1132      1134      1129      1132      1135
      1133      1132      1134      1133      1132      1135      1134      1132      1135
      1132      1135      1136      1132      1135      1137      1136      1135      1137
      1135      1137      1138      1135      1137      1139      1138      1137      1139
      1137      1139      1140      1137      1139      1141      1137      1139      1142
      1140      1139      1141      1140      1139      1142      1141      1139      1142
      1139      1142      1143      1139      1142      1144      1139      1142      1145
      1143      1142      1144      1143      1142      1145      1144      1142      1145
      1142      1145      1146      1142      1145      1147      1142      1145      1148
      1146      1145      1147      1146      1145      1148      1147      1145      1148
      1145      1148      1149      1145      1148      1150      1145      1148      1151
      1149      1148      1150      1149      1148      1151      1150      1148      1151
      1148      1151      1152      1148      1151      1153      1148      1151      1154
      1152      1151      1153      1152      1151      1154      1153      1151      1154
      1151      1154      1155      1151      1154      1156      1151      1154      1157
      1155      1154      1156      1155      1154      1157      1156      1154      1157
      1154      1157      1158      1154      1157      1159      1154      1157      1160
      1158      1157      1159      1158      1157      1160      1159      1157      1160
      1157      1160      1161      1157      1160      1162      1157      1160      1163
      1161      1160      1162      1161      1160      1163      1162      1160      1163
      1114      1164      1165      1114      1164      1166      1114      1164      1167
      1165      1164      1166      1165      1164      1167      1166      1164      1167
      1164      1167      1168      1164      1167      1169      1164      1167      1170
      1168      1167      1169      1168      1167      1170      1169      1167      1170
      1167      1170      1171      1167      1170      1172      1167      1170      1173
      1171      1170      1172      1171      1170      1173      1172      1170      1173
      1170      1173      1174      1170      1173      1175      1170      1173      1176
      1174      1173      1175      1174      1173      1176      1175      1173      1176
      1173      1176      1177      1173      1176      1178      1173      1176      1179
      1177      1176      1178      1177      1176      1179      1178      1176      1179
      1176      1179      1180      1176      1179      1181      1176      1179      1182
      1180      1179      1181      1180      1179      1182      1181      1179      1182
      1179      1182      1183      1179      1182      1184      1179      1182      1185
      1183      1182      1184      1183      1182      1185      1184      1182      1185
      1182      1185      1186      1182      1185      1187      1182      1185      1188
      1186      1185      1187      1186      1185      1188      1187      1185      1188
      1185      1188      1189      1185      1188      1190      1185      1188      1191
      1189      1188      1190      1189      1188      1191      1190      1188      1191
      1188      1191      1192      1188      1191      1193      1188      1191      1194
      1192      1191      1193      1192      1191      1194      1193      1191      1194
      1191      1194      1195      1191      1194      1196      1191      1194      1197
      1195      1194      1196      1195      1194      1197      1196      1194      1197
      1194      1197      1198      1194      1197      1199      1194      1197      1200
      1198      1197      1199      1198      1197      1200      1199      1197      1200
      1197      1200      1201      1197      1200      1202      1197      1200      1203
      1201      1200      1202      1201      1200      1203      1202      1200      1203
      1200      1203      1204      1200      1203      1205      1200      1203      1206
      1204      1203      1205      1204      1203      1206      1205      1203      1206
      1208      1207      1211      1208      1207      1215      1208      1207      1219
      1211      1207      1215      1211      1207      1219      1215      1207      1219
      1207      1208      1209      1207      1208      1210      1207      1208      1223
      1209      1208      1210      1209      1208      1223      1210      1208      1223
      1207      1211      1212      1207      1211      1213      1207      1211      1214
      1212      1211      1213      1212      1211      1214      1213      1211      1214
      1207      1215      1216      1207      1215      1217      1207      1215      1218
      1216      1215      1217      1216      1215      1218      1217      1215      1218
      1207      1219      1220      1207      1219      1221      1207      1219      1222
      1220      1219      1221      1220      1219      1222      1221      1219      1222
      1208      1223      1224      1208      1223      1225      1208      1223      1229
      1224      1223      1225      1224      1223      1229      1225      1223      1229
      1227      1226      1228      1227      1226      1229      1227      1226      1230
      1228      1226      1229      1228      1226      1230      1229      1226      1230
      1223      1229      1226      1226      1230      1231      1230      1231      1232
      1230      1231      1233      1230      1231      1234      1232      1231      1233
      1232      1231      1234      1233      1231      1234      1231      1234      1235
      1231      1234      1236      1231      1234      1242      1235      1234      1236
      1235      1234      1242      1236      1234      1242      1234      1236      1237
      1236      1237      1238      1236      1237      1239      1238      1237      1239
      1237      1239      1240      1237      1239      1241      1237      1239      1251
      1240      1239      1241      1240      1239      1251      1241      1239      1251
      1234      1242      1243      1234      1242      1244      1234      1242      1245
      1243      1242      1244      1243      1242      1245      1244      1242      1245
      1242      1245      1246      1245      1246      1247      1245      1246      1248
      1247      1246      1248      1246      1248      1249      1246      1248      1250
      1246      1248      1298      1249      1248      1250      1249      1248      1298
      1250      1248      1298      1239      1251      1252      1239      1251      1253
      1239      1251      1254      1252      1251      1253      1252      1251      1254
      1253      1251      1254      1251      1254      1255      1251      1254      1256
      1251      1254      1257      1255      1254      1256      1255      1254      1257
      1256      1254      1257      1254      1257      1258      1254      1257      1259
      1254      1257      1260      1258      1257      1259      1258      1257      1260
      1259      1257      1260      1257      1260      1261      1257      1260      1262
      1257      1260      1263      1261      1260      1262      1261      1260      1263
      1262      1260      1263      1260      1263      1264      1260      1263      1265
      1260      1263      1266      1264      1263      1265      1264      1263      1266
      1265      1263      1266      1263      1266      1267      1263      1266      1268
      1263      1266      1269      1267      1266      1268      1267      1266      1269
      1268      1266      1269      1266      1269      1270      1266      1269      1271
      1270      1269      1271      1269      1271      1272      1269      1271      1273
      1272      1271      1273      1271      1273      1274      1271      1273      1275
      1271      1273      1276      1274      1273      1275      1274      1273      1276
      1275      1273      1276      1273      1276      1277      1273      1276      1278
      1273      1276      1279      1277      1276      1278      1277      1276      1279
      1278      1276      1279      1276      1279      1280      1276      1279      1281
      1276      1279      1282      1280      1279      1281      1280      1279      1282
      1281      1279      1282      1279      1282      1283      1279      1282      1284
      1279      1282      1285      1283      1282      1284      1283      1282      1285
      1284      1282      1285      1282      1285      1286      1282      1285      1287
      1282      1285      1288      1286      1285      1287      1286      1285      1288
      1287      1285      1288      1285      1288      1289      1285      1288      1290
      1285      1288      1291      1289      1288      1290      1289      1288      1291
      1290      1288      1291      1288      1291      1292      1288      1291      1293
      1288      1291      1294      1292      1291      1293      1292      1291      1294
      1293      1291      1294      1291      1294      1295      1291      1294      1296
      1291      1294      1297      1295      1294      1296      1295      1294      1297
      1296      1294      1297      1248      1298      1299      1248      1298      1300
      1248      1298      1301      1299      1298      1300      1299      1298      1301
      1300      1298      1301      1298      1301      1302      1298      1301      1303
      1298      1301      1304      1302      1301      1303      1302      1301      1304
      1303      1301      1304      1301      1304      1305      1301      1304      1306
      1301      1304      1307      1305      1304      1306      1305      1304      1307
      1306      1304      1307      1304      1307      1308      1304      1307      1309
      1304      1307      1310      1308      1307      1309      1308      1307      1310
      1309      1307      1310      1307      1310      1311      1307      1310      1312
      1307      1310      1313      1311      1310      1312      1311      1310      1313
      1312      1310      1313      1310      1313      1314      1310      1313      1315
      1310      1313      1316      1314      1313      1315      1314      1313      1316
      1315      1313      1316      1313      1316      1317      1313      1316      1318
      1313      1316      1319      1317      1316      1318      1317      1316      1319
      1318      1316      1319      1316      1319      1320      1316      1319      1321
      1316      1319      1322      1320      1319      1321      1320      1319      1322
      1321      1319      1322      1319      1322      1323      1319      1322      1324
      1319      1322      1325      1323      1322      1324      1323      1322      1325
      1324      1322      1325      1322      1325      1326      1322      1325      1327
      1322      1325      1328      1326      1325      1327      1326      1325      1328
      1327      1325      1328      1325      1328      1329      1325      1328      1330
      1325      1328      1331      1329      1328      1330      1329      1328      1331
      1330      1328      1331      1328      1331      1332      1328      1331      1333
      1328      1331      1334      1332      1331      1333      1332      1331      1334
      1333      1331      1334      1331      1334      1335      1331      1334      1336
      1331      1334      1337      1335      1334      1336      1335      1334      1337
      1336      1334      1337      1334      1337      1338      1334      1337      1339
      1334      1337      1340      1338      1337      1339      1338      1337      1340
      1339      1337      1340      1342      1341      1345      1342      1341      1349
      1342      1341      1353      1345      1341      1349      1345      1341      1353
      1349      1341      1353      1341      1342      1343      1341      1342      1344
      1341      1342      1357      1343      1342      1344      1343      1342      1357
      1344      1342      1357      1341      1345      1346      1341      1345      1347
      1341      1345      1348      1346      1345      1347      1346      1345      1348
      1347      1345      1348      1341      1349      1350      1341      1349      1351
      1341      1349      1352      1350      1349      1351      1350      1349      1352
      1351      1349      1352      1341      1353      1354      1341      1353      1355
      1341      1353      1356      1354      1353      1355      1354      1353      1356
      1355      1353      1356      1342      1357      1358      1342      1357      1359
      1342      1357      1363      1358      1357      1359      1358      1357      1363
      1359      1357      1363      1361      1360      1362      1361      1360      1363
      1361      1360      1364      1362      1360      1363      1362      1360      1364
      1363      1360      1364      1357      1363      1360      1360      1364      1365
      1364      1365      1366      1364      1365      1367      1364      1365      1368
      1366      1365      1367      1366      1365      1368      1367      1365      1368
      1365      1368      1369      1365      1368      1370      1365      1368      1376
      1369      1368      1370      1369      1368      1376      1370      1368      1376
      1368      1370      1371      1370      1371      1372      1370      1371      1373
      1372      1371      1373      1371      1373      1374      1371      1373      1375
      1371      1373      1385      1374      1373      1375      1374      1373      1385
      1375      1373      1385      1368      1376      1377      1368      1376      1378
      1368      1376      1379      1377      1376      1378      1377      1376      1379
      1378      1376      1379      1376      1379      1380      1379      1380      1381
      1379      1380      1382      1381      1380      1382      1380      1382      1383
      1380      1382      1384      1380      1382      1432      1383      1382      1384
      1383      1382      1432      1384      1382      1432      1373      1385      1386
      1373      1385      1387      1373      1385      1388      1386      1385      1387
      1386      1385      1388      1387      1385      1388      1385      1388      1389
      1385      1388      1390      1385      1388      1391      1389      1388      1390
      1389      1388      1391      1390      1388      1391      1388      1391      1392
      1388      1391      1393      1388      1391      1394      1392      1391      1393
      1392      1391      1394      1393      1391      1394      1391      1394      1395
      1391      1394      1396      1391      1394      1397      1395      1394      1396
      1395      1394      1397      1396      1394      1397      1394      1397      1398
      1394      1397      1399      1394      1397      1400      1398      1397      1399
      1398      1397      1400      1399      1397      1400      1397      1400      1401
      1397      1400      1402      1397      1400      1403      1401      1400      1402
      1401      1400      1403      1402      1400      1403      1400      1403      1404
      1400      1403      1405      1404      1403      1405      1403      1405      1406
      1403      1405      1407      1406      1405      1407      1405      1407      1408
      1405      1407      1409      1405      1407      1410      1408      1407      1409
      1408      1407      1410      1409      1407      1410      1407      1410      1411
      1407      1410      1412      1407      1410      1413      1411      1410      1412
      1411      1410      1413      1412      1410      1413      1410      1413      1414
      1410      1413      1415      1410      1413      1416      1414      1413      1415
      1414      1413      1416      1415      1413      1416      1413      1416      1417
      1413      1416      1418      1413      1416      1419      1417      1416      1418
      1417      1416      1419      1418      1416      1419      1416      1419      1420
      1416      1419      1421      1416      1419      1422      1420      1419      1421
      1420      1419      1422      1421      1419      1422      1419      1422      1423
      1419      1422      1424      1419      1422      1425      1423      1422      1424
      1423      1422      1425      1424      1422      1425      1422      1425      1426
      1422      1425      1427      1422      1425      1428      1426      1425      1427
      1426      1425      1428      1427      1425      1428      1425      1428      1429
      1425      1428      1430      1425      1428      1431      1429      1428      1430
      1429      1428      1431      1430      1428      1431      1382      1432      1433
      1382      1432      1434      1382      1432      1435      1433      1432      1434
      1433      1432      1435      1434      1432      1435      1432      1435      1436
      1432      1435      1437      1432      1435      1438      1436      1435      1437
      1436      1435      1438      1437      1435      1438      1435      1438      1439
      1435      1438      1440      1435      1438      1441      1439      1438      1440
      1439      1438      1441      1440      1438      1441      1438      1441      1442
      1438      1441      1443      1438      1441      1444      1442      1441      1443
      1442      1441      1444      1443      1441      1444      1441      1444      1445
      1441      1444      1446      1441      1444      1447      1445      1444      1446
      1445      1444      1447      1446      1444      1447      1444      1447      1448
      1444      1447      1449      1444      1447      1450      1448      1447      1449
      1448      1447      1450      1449      1447      1450      1447      1450      1451
      1447      1450      1452      1447      1450      1453      1451      1450      1452
      1451      1450      1453      1452      1450      1453      1450      1453      1454
      1450      1453      1455      1450      1453      1456      1454      1453      1455
      1454      1453      1456      1455      1453      1456      1453      1456      1457
      1453      1456      1458      1453      1456      1459      1457      1456      1458
      1457      1456      1459      1458      1456      1459      1456      1459      1460
      1456      1459      1461      1456      1459      1462      1460      1459      1461
      1460      1459      1462      1461      1459      1462      1459      1462      1463
      1459      1462      1464      1459      1462      1465      1463      1462      1464
      1463      1462      1465      1464      1462      1465      1462      1465      1466
      1462      1465      1467      1462      1465      1468      1466      1465      1467
      1466      1465      1468      1467      1465      1468      1465      1468      1469
      1465      1468      1470      1465      1468      1471      1469      1468      1470
      1469      1468      1471      1470      1468      1471      1468      1471      1472
      1468      1471      1473      1468      1471      1474      1472      1471      1473
      1472      1471      1474      1473      1471      1474      1476      1475      1479
      1476      1475      1483      1476      1475      1487      1479      1475      1483
      1479      1475      1487      1483      1475      1487      1475      1476      1477
      1475      1476      1478      1475      1476      1491      1477      1476      1478
      1477      1476      1491      1478      1476      1491      1475      1479      1480
      1475      1479      1481      1475      1479      1482      1480      1479      1481
      1480      1479      1482      1481      1479      1482      1475      1483      1484
      1475      1483      1485      1475      1483      1486      1484      1483      1485
      1484      1483      1486      1485      1483      1486      1475      1487      1488
      1475      1487      1489      1475      1487      1490      1488      1487      1489
      1488      1487      1490      1489      1487      1490      1476      1491      1492
      1476      1491      1493      1476      1491      1497      1492      1491      1493
      1492      1491      1497      1493      1491      1497      1495      1494      1496
      1495      1494      1497      1495      1494      1498      1496      1494      1497
      1496      1494      1498      1497      1494      1498      1491      1497      1494
      1494      1498      1499      1498      1499      1500      1498      1499      1501
      1498      1499      1502      1500      1499      1501      1500      1499      1502
      1501      1499      1502      1499      1502      1503      1499      1502      1504
      1499      1502      1510      1503      1502      1504      1503      1502      1510
      1504      1502      1510      1502      1504      1505      1504      1505      1506
      1504      1505      1507      1506      1505      1507      1505      1507      1508
      1505      1507      1509      1505      1507      1519      1508      1507      1509
      1508      1507      1519      1509      1507      1519      1502      1510      1511
      1502      1510      1512      1502      1510      1513      1511      1510      1512
      1511      1510      1513      1512      1510      1513      1510      1513      1514
      1513      1514      1515      1513      1514      1516      1515      1514      1516
      1514      1516      1517      1514      1516      1518      1514      1516      1566
      1517      1516      1518      1517      1516      1566      1518      1516      1566
      1507      1519      1520      1507      1519      1521      1507      1519      1522
      1520      1519      1521      1520      1519      1522      1521      1519      1522
      1519      1522      1523      1519      1522      1524      1519      1522      1525
      1523      1522      1524      1523      1522      1525      1524      1522      1525
      1522      1525      1526      1522      1525      1527      1522      1525      1528
      1526      1525      1527      1526      1525      1528      1527      1525      1528
      1525      1528      1529      1525      1528      1530      1525      1528      1531
      1529      1528      1530      1529      1528      1531      1530      1528      1531
      1528      1531      1532      1528      1531      1533      1528      1531      1534
      1532      1531      1533      1532      1531      1534      1533      1531      1534
      1531      1534      1535      1531      1534      1536      1531      1534      1537
      1535      1534      1536      1535      1534      1537      1536      1534      1537
      1534      1537      1538      1534      1537      1539      1538      1537      1539
      1537      1539      1540      1537      1539      1541      1540      1539      1541
      1539      1541      1542      1539      1541      1543      1539      1541      1544
      1542      1541      1543      1542      1541      1544      1543      1541      1544
      1541      1544      1545      1541      1544      1546      1541      1544      1547
      1545      1544      1546      1545      1544      1547      1546      1544      1547
      1544      1547      1548      1544      1547      1549      1544      1547      1550
      1548      1547      1549      1548      1547      1550      1549      1547      1550
      1547      1550      1551      1547      1550      1552      1547      1550      1553
      1551      1550      1552      1551      1550      1553      1552      1550      1553
      1550      1553      1554      1550      1553      1555      1550      1553      1556
      1554      1553      1555      1554      1553      1556      1555      1553      1556
      1553      1556      1557      1553      1556      1558      1553      1556      1559
      1557      1556      1558      1557      1556      1559      1558      1556      1559
      1556      1559      1560      1556      1559      1561      1556      1559      1562
      1560      1559      1561      1560      1559      1562      1561      1559      1562
      1559      1562      1563      1559      1562      1564      1559      1562      1565
      1563      1562      1564      1563      1562      1565      1564      1562      1565
      1516      1566      1567      1516      1566      1568      1516      1566      1569
      1567      1566      1568      1567      1566      1569      1568      1566      1569
      1566      1569      1570      1566      1569      1571      1566      1569      1572
      1570      1569      1571      1570      1569      1572      1571      1569      1572
      1569      1572      1573      1569      1572      1574      1569      1572      1575
      1573      1572      1574      1573      1572      1575      1574      1572      1575
      1572      1575      1576      1572      1575      1577      1572      1575      1578
      1576      1575      1577      1576      1575      1578      1577      1575      1578
      1575      1578      1579      1575      1578      1580      1575      1578      1581
      1579      1578      1580      1579      1578      1581      1580      1578      1581
      1578      1581      1582      1578      1581      1583      1578      1581      1584
      1582      1581      1583      1582      1581      1584      1583      1581      1584
      1581      1584      1585      1581      1584      1586      1581      1584      1587
      1585      1584      1586      1585      1584      1587      1586      1584      1587
      1584      1587      1588      1584      1587      1589      1584      1587      1590
      1588      1587      1589      1588      1587      1590      1589      1587      1590
      1587      1590      1591      1587      1590      1592      1587      1590      1593
      1591      1590      1592      1591      1590      1593      1592      1590      1593
      1590      1593      1594      1590      1593      1595      1590      1593      1596
      1594      1593      1595      1594      1593      1596      1595      1593      1596
      1593      1596      1597      1593      1596      1598      1593      1596      1599
      1597      1596      1598      1597      1596      1599      1598      1596      1599
      1596      1599      1600      1596      1599      1601      1596      1599      1602
      1600      1599      1601      1600      1599      1602      1601      1599      1602
      1599      1602      1603      1599      1602      1604      1599      1602      1605
      1603      1602      1604      1603      1602      1605      1604      1602      1605
      1602      1605      1606      1602      1605      1607      1602      1605      1608
      1606      1605      1607      1606      1605      1608      1607      1605      1608
      1610      1609      1613      1610      1609      1617      1610      1609      1621
      1613      1609      1617      1613      1609      1621      1617      1609      1621
      1609      1610      1611      1609      1610      1612      1609      1610      1625
      1611      1610      1612      1611      1610      1625      1612      1610      1625
      1609      1613      1614      1609      1613      1615      1609      1613      1616
      1614      1613      1615      1614      1613      1616      1615      1613      1616
      1609      1617      1618      1609      1617      1619      1609      1617      1620
      1618      1617      1619      1618      1617      1620      1619      1617      1620
      1609      1621      1622      1609      1621      1623      1609      1621      1624
      1622      1621      1623      1622      1621      1624      1623      1621      1624
      1610      1625      1626      1610      1625      1627      1610      1625      1631
      1626      1625      1627      1626      1625      1631      1627      1625      1631
      1629      1628      1630      1629      1628      1631      1629      1628      1632
      1630      1628      1631      1630      1628      1632      1631      1628      1632
      1625      1631      1628      1628      1632      1633      1632      1633      1634
      1632      1633      1635      1632      1633      1636      1634      1633      1635
      1634      1633      1636      1635      1633      1636      1633      1636      1637
      1633      1636      1638      1633      1636      1644      1637      1636      1638
      1637      1636      1644      1638      1636      1644      1636      1638      1639
      1638      1639      1640      1638      1639      1641      1640      1639      1641
      1639      1641      1642      1639      1641      1643      1639      1641      1653
      1642      1641      1643      1642      1641      1653      1643      1641      1653
      1636      1644      1645      1636      1644      1646      1636      1644      1647
      1645      1644      1646      1645      1644      1647      1646      1644      1647
      1644      1647      1648      1647      1648      1649      1647      1648      1650
      1649      1648      1650      1648      1650      1651      1648      1650      1652
      1648      1650      1700      1651      1650      1652      1651      1650      1700
      1652      1650      1700      1641      1653      1654      1641      1653      1655
      1641      1653      1656      1654      1653      1655      1654      1653      1656
      1655      1653      1656      1653      1656      1657      1653      1656      1658
      1653      1656      1659      1657      1656      1658      1657      1656      1659
      1658      1656      1659      1656      1659      1660      1656      1659      1661
      1656      1659      1662      1660      1659      1661      1660      1659      1662
      1661      1659      1662      1659      1662      1663      1659      1662      1664
      1659      1662      1665      1663      1662      1664      1663      1662      1665
      1664      1662      1665      1662      1665      1666      1662      1665      1667
      1662      1665      1668      1666      1665      1667      1666      1665      1668
      1667      1665      1668      1665      1668      1669      1665      1668      1670
      1665      1668      1671      1669      1668      1670      1669      1668      1671
      1670      1668      1671      1668      1671      1672      1668      1671      1673
      1672      1671      1673      1671      1673      1674      1671      1673      1675
      1674      1673      1675      1673      1675      1676      1673      1675      1677
      1673      1675      1678      1676      1675      1677      1676      1675      1678
      1677      1675      1678      1675      1678      1679      1675      1678      1680
      1675      1678      1681      1679      1678      1680      1679      1678      1681
      1680      1678      1681      1678      1681      1682      1678      1681      1683
      1678      1681      1684      1682      1681      1683      1682      1681      1684
      1683      1681      1684      1681      1684      1685      1681      1684      1686
      1681      1684      1687      1685      1684      1686      1685      1684      1687
      1686      1684      1687      1684      1687      1688      1684      1687      1689
      1684      1687      1690      1688      1687      1689      1688      1687      1690
      1689      1687      1690      1687      1690      1691      1687      1690      1692
      1687      1690      1693      1691      1690      1692      1691      1690      1693
      1692      1690      1693      1690      1693      1694      1690      1693      1695
      1690      1693      1696      1694      1693      1695      1694      1693      1696
      1695      1693      1696      1693      1696      1697      1693      1696      1698
      1693      1696      1699      1697      1696      1698      1697      1696      1699
      1698      1696      1699      1650      1700      1701      1650      1700      1702
      1650      1700      1703      1701      1700      1702      1701      1700      1703
      1702      1700      1703      1700      1703      1704      1700      1703      1705
      1700      1703      1706      1704      1703      1705      1704      1703      1706
      1705      1703      1706      1703      1706      1707      1703      1706      1708
      1703      1706      1709      1707      1706      1708      1707      1706      1709
      1708      1706      1709      1706      1709      1710      1706      1709      1711
      1706      1709      1712      1710      1709      1711      1710      1709      1712
      1711      1709      1712      1709      1712      1713      1709      1712      1714
      1709      1712      1715      1713      1712      1714      1713      1712      1715
      1714      1712      1715      1712      1715      1716      1712      1715      1717
      1712      1715      1718      1716      1715      1717      1716      1715      1718
      1717      1715      1718      1715      1718      1719      1715      1718      1720
      1715      1718      1721      1719      1718      1720      1719      1718      1721
      1720      1718      1721      1718      1721      1722      1718      1721      1723
      1718      1721      1724      1722      1721      1723      1722      1721      1724
      1723      1721      1724      1721      1724      1725      1721      1724      1726
      1721      1724      1727      1725      1724      1726      1725      1724      1727
      1726      1724      1727      1724      1727      1728      1724      1727      1729
      1724      1727      1730      1728      1727      1729      1728      1727      1730
      1729      1727      1730      1727      1730      1731      1727      1730      1732
      1727      1730      1733      1731      1730      1732      1731      1730      1733
      1732      1730      1733      1730      1733      1734      1730      1733      1735
      1730      1733      1736      1734      1733      1735      1734      1733      1736
      1735      1733      1736      1733      1736      1737      1733      1736      1738
      1733      1736      1739      1737      1736      1738      1737      1736      1739
      1738      1736      1739      1736      1739      1740      1736      1739      1741
      1736      1739      1742      1740      1739      1741      1740      1739      1742
      1741      1739      1742      1744      1743      1747      1744      1743      1751
      1744      1743      1755      1747      1743      1751      1747      1743      1755
      1751      1743      1755      1743      1744      1745      1743      1744      1746
      1743      1744      1759      1745      1744      1746      1745      1744      1759
      1746      1744      1759      1743      1747      1748      1743      1747      1749
      1743      1747      1750      1748      1747      1749      1748      1747      1750
      1749      1747      1750      1743      1751      1752      1743      1751      1753
      1743      1751      1754      1752      1751      1753      1752      1751      1754
      1753      1751      1754      1743      1755      1756      1743      1755      1757
      1743      1755      1758      1756      1755      1757      1756      1755      1758
      1757      1755      1758      1744      1759      1760      1744      1759      1761
      1744      1759      1765      1760      1759      1761      1760      1759      1765
      1761      1759      1765      1763      1762      1764      1763      1762      1765
      1763      1762      1766      1764      1762      1765      1764      1762      1766
      1765      1762      1766      1759      1765      1762      1762      1766      1767
      1766      1767      1768      1766      1767      1769      1766      1767      1770
      1768      1767      1769      1768      1767      1770      1769      1767      1770
      1767      1770      1771      1767      1770      1772      1767      1770      1778
      1771      1770      1772      1771      1770      1778      1772      1770      1778
      1770      1772      1773      1772      1773      1774      1772      1773      1775
      1774      1773      1775      1773      1775      1776      1773      1775      1777
      1773      1775      1787      1776      1775      1777      1776      1775      1787
      1777      1775      1787      1770      1778      1779      1770      1778      1780
      1770      1778      1781      1779      1778      1780      1779      1778      1781
      1780      1778      1781      1778      1781      1782      1781      1782      1783
      1781      1782      1784      1783      1782      1784      1782      1784      1785
      1782      1784      1786      1782      1784      1834      1785      1784      1786
      1785      1784      1834      1786      1784      1834      1775      1787      1788
      1775      1787      1789      1775      1787      1790      1788      1787      1789
      1788      1787      1790      1789      1787      1790      1787      1790      1791
      1787      1790      1792      1787      1790      1793      1791      1790      1792
      1791      1790      1793      1792      1790      1793      1790      1793      1794
      1790      1793      1795      1790      1793      1796      1794      1793      1795
      1794      1793      1796      1795      1793      1796      1793      1796      1797
      1793      1796      1798      1793      1796      1799      1797      1796      1798
      1797      1796      1799      1798      1796      1799      1796      1799      1800
      1796      1799      1801      1796      1799      1802      1800      1799      1801
      1800      1799      1802      1801      1799      1802      1799      1802      1803
      1799      1802      1804      1799      1802      1805      1803      1802      1804
      1803      1802      1805      1804      1802      1805      1802      1805      1806
      1802      1805      1807      1806      1805      1807      1805      1807      1808
      1805      1807      1809      1808      1807      1809      1807      1809      1810
      1807      1809      1811      1807      1809      1812      1810      1809      1811
      1810      1809      1812      1811      1809      1812      1809      1812      1813
      1809      1812      1814      1809      1812      1815      1813      1812      1814
      1813      1812      1815      1814      1812      1815      1812      1815      1816
      1812      1815      1817      1812      1815      1818      1816      1815      1817
      1816      1815      1818      1817      1815      1818      1815      1818      1819
      1815      1818      1820      1815      1818      1821      1819      1818      1820
      1819      1818      1821      1820      1818      1821      1818      1821      1822
      1818      1821      1823      1818      1821      1824      1822      1821      1823
      1822      1821      1824      1823      1821      1824      1821      1824      1825
      1821      1824      1826      1821      1824      1827      1825      1824      1826
      1825      1824      1827      1826      1824      1827      1824      1827      1828
      1824      1827      1829      1824      1827      1830      1828      1827      1829
      1828      1827      1830      1829      1827      1830      1827      1830      1831
      1827      1830      1832      1827      1830      1833      1831      1830      1832
      1831      1830      1833      1832      1830      1833      1784      1834      1835
      1784      1834      1836      1784      1834      1837      1835      1834      1836
      1835      1834      1837      1836      1834      1837      1834      1837      1838
      1834      1837      1839      1834      1837      1840      1838      1837      1839
      1838      1837      1840      1839      1837      1840      1837      1840      1841
      1837      1840      1842      1837      1840      1843      1841      1840      1842
      1841      1840      1843      1842      1840      1843      1840      1843      1844
      1840      1843      1845      1840      1843      1846      1844      1843      1845
      1844      1843      1846      1845      1843      1846      1843      1846      1847
      1843      1846      1848      1843      1846      1849      1847      1846      1848
      1847      1846      1849      1848      1846      1849      1846      1849      1850
      1846      1849      1851      1846      1849      1852      1850      1849      1851
      1850      1849      1852      1851      1849      1852      1849      1852      1853
      1849      1852      1854      1849      1852      1855      1853      1852      1854
      1853      1852      1855      1854      1852      1855      1852      1855      1856
      1852      1855      1857      1852      1855      1858      1856      1855      1857
      1856      1855      1858      1857      1855      1858      1855      1858      1859
      1855      1858      1860      1855      1858      1861      1859      1858      1860
      1859      1858      1861      1860      1858      1861      1858      1861      1862
      1858      1861      1863      1858      1861      1864      1862      1861      1863
      1862      1861      1864      1863      1861      1864      1861      1864      1865
      1861      1864      1866      1861      1864      1867      1865      1864      1866
      1865      1864      1867      1866      1864      1867      1864      1867      1868
      1864      1867      1869      1864      1867      1870      1868      1867      1869
      1868      1867      1870      1869      1867      1870      1867      1870      1871
      1867      1870      1872      1867      1870      1873      1871      1870      1872
      1871      1870      1873      1872      1870      1873      1870      1873      1874
      1870      1873      1875      1870      1873      1876      1874      1873      1875
      1874      1873      1876      1875      1873      1876      1878      1877      1881
      1878      1877      1885      1878      1877      1889      1881      1877      1885
      1881      1877      1889      1885      1877      1889      1877      1878      1879
      1877      1878      1880      1877      1878      1893      1879      1878      1880
      1879      1878      1893      1880      1878      1893      1877      1881      1882
      1877      1881      1883      1877      1881      1884      1882      1881      1883
      1882      1881      1884      1883      1881      1884      1877      1885      1886
      1877      1885      1887      1877      1885      1888      1886      1885      1887
      1886      1885      1888      1887      1885      1888      1877      1889      1890
      1877      1889      1891      1877      1889      1892      1890      1889      1891
      1890      1889      1892      1891      1889      1892      1878      1893      1894
      1878      1893      1895      1878      1893      1899      1894      1893      1895
      1894      1893      1899      1895      1893      1899      1897      1896      1898
      1897      1896      1899      1897      1896      1900      1898      1896      1899
      1898      1896      1900      1899      1896      1900      1893      1899      1896
      1896      1900      1901      1900      1901      1902      1900      1901      1903
      1900      1901      1904      1902      1901      1903      1902      1901      1904
      1903      1901      1904      1901      1904      1905      1901      1904      1906
      1901      1904      1912      1905      1904      1906      1905      1904      1912
      1906      1904      1912      1904      1906      1907      1906      1907      1908
      1906      1907      1909      1908      1907      1909      1907      1909      1910
      1907      1909      1911      1907      1909      1921      1910      1909      1911
      1910      1909      1921      1911      1909      1921      1904      1912      1913
      1904      1912      1914      1904      1912      1915      1913      1912      1914
      1913      1912      1915      1914      1912      1915      1912      1915      1916
      1915      1916      1917      1915      1916      1918      1917      1916      1918
      1916      1918      1919      1916      1918      1920      1916      1918      1968
      1919      1918      1920      1919      1918      1968      1920      1918      1968
      1909      1921      1922      1909      1921      1923      1909      1921      1924
      1922      1921      1923      1922      1921      1924      1923      1921      1924
      1921      1924      1925      1921      1924      1926      1921      1924      1927
      1925      1924      1926      1925      1924      1927      1926      1924      1927
      1924      1927      1928      1924      1927      1929      1924      1927      1930
      1928      1927      1929      1928      1927      1930      1929      1927      1930
      1927      1930      1931      1927      1930      1932      1927      1930      1933
      1931      1930      1932      1931      1930      1933      1932      1930      1933
      1930      1933      1934      1930      1933      1935      1930      1933      1936
      1934      1933      1935      1934      1933      1936      1935      1933      1936
      1933      1936      1937      1933      1936      1938      1933      1936      1939
      1937      1936      1938      1937      1936      1939      1938      1936      1939
      1936      1939      1940      1936      1939      1941      1940      1939      1941
      1939      1941      1942      1939      1941      1943      1942      1941      1943
      1941      1943      1944      1941      1943      1945      1941      1943      1946
      1944      1943      1945      1944      1943      1946      1945      1943      1946
      1943      1946      1947      1943      1946      1948      1943      1946      1949
      1947      1946      1948      1947      1946      1949      1948      1946      1949
      1946      1949      1950      1946      1949      1951      1946      1949      1952
      1950      1949      1951      1950      1949      1952      1951      1949      1952
      1949      1952      1953      1949      1952      1954      1949      1952      1955
      1953      1952      1954      1953      1952      1955      1954      1952      1955
      1952      1955      1956      1952      1955      1957      1952      1955      1958
      1956      1955      1957      1956      1955      1958      1957      1955      1958
      1955      1958      1959      1955      1958      1960      1955      1958      1961
      1959      1958      1960      1959      1958      1961      1960      1958      1961
      1958      1961      1962      1958      1961      1963      1958      1961      1964
      1962      1961      1963      1962      1961      1964      1963      1961      1964
      1961      1964      1965      1961      1964      1966      1961      1964      1967
      1965      1964      1966      1965      1964      1967      1966      1964      1967
      1918      1968      1969      1918      1968      1970      1918      1968      1971
      1969      1968      1970      1969      1968      1971      1970      1968      1971
      1968      1971      1972      1968      1971      1973      1968      1971      1974
      1972      1971      1973      1972      1971      1974      1973      1971      1974
      1971      1974      1975      1971      1974      1976      1971      1974      1977
      1975      1974      1976      1975      1974      1977      1976      1974      1977
      1974      1977      1978      1974      1977      1979      1974      1977      1980
      1978      1977      1979      1978      1977      1980      1979      1977      1980
      1977      1980      1981      1977      1980      1982      1977      1980      1983
      1981      1980      1982      1981      1980      1983      1982      1980      1983
      1980      1983      1984      1980      1983      1985      1980      1983      1986
      1984      1983      1985      1984      1983      1986      1985      1983      1986
      1983      1986      1987      1983      1986      1988      1983      1986      1989
      1987      1986      1988      1987      1986      1989      1988      1986      1989
      1986      1989      1990      1986      1989      1991      1986      1989      1992
      1990      1989      1991      1990      1989      1992      1991      1989      1992
      1989      1992      1993      1989      1992      1994      1989      1992      1995
      1993      1992      1994      1993      1992      1995      1994      1992      1995
      1992      1995      1996      1992      1995      1997      1992      1995      1998
      1996      1995      1997      1996      1995      1998      1997      1995      1998
      1995      1998      1999      1995      1998      2000      1995      1998      2001
      1999      1998      2000      1999      1998      2001      2000      1998      2001
      1998      2001      2002      1998      2001      2003      1998      2001      2004
      2002      2001      2003      2002      2001      2004      2003      2001      2004
      2001      2004      2005      2001      2004      2006      2001      2004      2007
      2005      2004      2006      2005      2004      2007      2006      2004      2007
      2004      2007      2008      2004      2007      2009      2004      2007      2010
      2008      2007      2009      2008      2007      2010      2009      2007      2010
      2012      2011      2015      2012      2011      2019      2012      2011      2023
      2015      2011      2019      2015      2011      2023      2019      2011      2023
      2011      2012      2013      2011      2012      2014      2011      2012      2027
      2013      2012      2014      2013      2012      2027      2014      2012      2027
      2011      2015      2016      2011      2015      2017      2011      2015      2018
      2016      2015      2017      2016      2015      2018      2017      2015      2018
      2011      2019      2020      2011      2019      2021      2011      2019      2022
      2020      2019      2021      2020      2019      2022      2021      2019      2022
      2011      2023      2024      2011      2023      2025      2011      2023      2026
      2024      2023      2025      2024      2023      2026      2025      2023      2026
      2012      2027      2028      2012      2027      2029      2012      2027      2033
      2028      2027      2029      2028      2027      2033      2029      2027      2033
      2031      2030      2032      2031      2030      2033      2031      2030      2034
      2032      2030      2033      2032      2030      2034      2033      2030      2034
      2027      2033      2030      2030      2034      2035      2034      2035      2036
      2034      2035      2037      2034      2035      2038      2036      2035      2037
      2036      2035      2038      2037      2035      2038      2035      2038      2039
      2035      2038      2040      2035      2038      2046      2039      2038      2040
      2039      2038      2046      2040      2038      2046      2038      2040      2041
      2040      2041      2042      2040      2041      2043      2042      2041      2043
      2041      2043      2044      2041      2043      2045      2041      2043      2055
      2044      2043      2045      2044      2043      2055      2045      2043      2055
      2038      2046      2047      2038      2046      2048      2038      2046      2049
      2047      2046      2048      2047      2046      2049      2048      2046      2049
      2046      2049      2050      2049      2050      2051      2049      2050      2052
      2051      2050      2052      2050      2052      2053      2050      2052      2054
      2050      2052      2102      2053      2052      2054      2053      2052      2102
      2054      2052      2102      2043      2055      2056      2043      2055      2057
      2043      2055      2058      2056      2055      2057      2056      2055      2058
      2057      2055      2058      2055      2058      2059      2055      2058      2060
      2055      2058      2061      2059      2058      2060      2059      2058      2061
      2060      2058      2061      2058      2061      2062      2058      2061      2063
      2058      2061      2064      2062      2061      2063      2062      2061      2064
      2063      2061      2064      2061      2064      2065      2061      2064      2066
      2061      2064      2067      2065      2064      2066      2065      2064      2067
      2066      2064      2067      2064      2067      2068      2064      2067      2069
      2064      2067      2070      2068      2067      2069      2068      2067      2070
      2069      2067      2070      2067      2070      2071      2067      2070      2072
      2067      2070      2073      2071      2070      2072      2071      2070      2073
      2072      2070      2073      2070      2073      2074      2070      2073      2075
      2074      2073      2075      2073      2075      2076      2073      2075      2077
      2076      2075      2077      2075      2077      2078      2075      2077      2079
      2075      2077      2080      2078      2077      2079      2078      2077      2080
      2079      2077      2080      2077      2080      2081      2077      2080      2082
      2077      2080      2083      2081      2080      2082      2081      2080      2083
      2082      2080      2083      2080      2083      2084      2080      2083      2085
      2080      2083      2086      2084      2083      2085      2084      2083      2086
      2085      2083      2086      2083      2086      2087      2083      2086      2088
      2083      2086      2089      2087      2086      2088      2087      2086      2089
      2088      2086      2089      2086      2089      2090      2086      2089      2091
      2086      2089      2092      2090      2089      2091      2090      2089      2092
      2091      2089      2092      2089      2092      2093      2089      2092      2094
      2089      2092      2095      2093      2092      2094      2093      2092      2095
      2094      2092      2095      2092      2095      2096      2092      2095      2097
      2092      2095      2098      2096      2095      2097      2096      2095      2098
      2097      2095      2098      2095      2098      2099      2095      2098      2100
      2095      2098      2101      2099      2098      2100      2099      2098      2101
      2100      2098      2101      2052      2102      2103      2052      2102      2104
      2052      2102      2105      2103      2102      2104      2103      2102      2105
      2104      2102      2105      2102      2105      2106      2102      2105      2107
      2102      2105      2108      2106      2105      2107      2106      2105      2108
      2107      2105      2108      2105      2108      2109      2105      2108      2110
      2105      2108      2111      2109      2108      2110      2109      2108      2111
      2110      2108      2111      2108      2111      2112      2108      2111      2113
      2108      2111      2114      2112      2111      2113      2112      2111      2114
      2113      2111      2114      2111      2114      2115      2111      2114      2116
      2111      2114      2117      2115      2114      2116      2115      2114      2117
      2116      2114      2117      2114      2117      2118      2114      2117      2119
      2114      2117      2120      2118      2117      2119      2118      2117      2120
      2119      2117      2120      2117      2120      2121      2117      2120      2122
      2117      2120      2123      2121      2120      2122      2121      2120      2123
      2122      2120      2123      2120      2123      2124      2120      2123      2125
      2120      2123      2126      2124      2123      2125      2124      2123      2126
      2125      2123      2126      2123      2126      2127      2123      2126      2128
      2123      2126      2129      2127      2126      2128      2127      2126      2129
      2128      2126      2129      2126      2129      2130      2126      2129      2131
      2126      2129      2132      2130      2129      2131      2130      2129      2132
      2131      2129      2132      2129      2132      2133      2129      2132      2134
      2129      2132      2135      2133      2132      2134      2133      2132      2135
      2134      2132      2135      2132      2135      2136      2132      2135      2137
      2132      2135      2138      2136      2135      2137      2136      2135      2138
      2137      2135      2138      2135      2138      2139      2135      2138      2140
      2135      2138      2141      2139      2138      2140      2139      2138      2141
      2140      2138      2141      2138      2141      2142      2138      2141      2143
      2138      2141      2144      2142      2141      2143      2142      2141      2144
      2143      2141      2144      2146      2145      2149      2146      2145      2153
      2146      2145      2157      2149      2145      2153      2149      2145      2157
      2153      2145      2157      2145      2146      2147      2145      2146      2148
      2145      2146      2161      2147      2146      2148      2147      2146      2161
      2148      2146      2161      2145      2149      2150      2145      2149      2151
      2145      2149      2152      2150      2149      2151      2150      2149      2152
      2151      2149      2152      2145      2153      2154      2145      2153      2155
      2145      2153      2156      2154      2153      2155      2154      2153      2156
      2155      2153      2156      2145      2157      2158      2145      2157      2159
      2145      2157      2160      2158      2157      2159      2158      2157      2160
      2159      2157      2160      2146      2161      2162      2146      2161      2163
      2146      2161      2167      2162      2161      2163      2162      2161      2167
      2163      2161      2167      2165      2164      2166      2165      2164      2167
      2165      2164      2168      2166      2164      2167      2166      2164      2168
      2167      2164      2168      2161      2167      2164      2164      2168      2169
      2168      2169      2170      2168      2169      2171      2168      2169      2172
      2170      2169      2171      2170      2169      2172      2171      2169      2172
      2169      2172      2173      2169      2172      2174      2169      2172      2180
      2173      2172      2174      2173      2172      2180      2174      2172      2180
      2172      2174      2175      2174      2175      2176      2174      2175      2177
      2176      2175      2177      2175      2177      2178      2175      2177      2179
      2175      2177      2189      2178      2177      2179      2178      2177      2189
      2179      2177      2189      2172      2180      2181      2172      2180      2182
      2172      2180      2183      2181      2180      2182      2181      2180      2183
      2182      2180      2183      2180      2183      2184      2183      2184      2185
      2183      2184      2186      2185      2184      2186      2184      2186      2187
      2184      2186      2188      2184      2186      2236      2187      2186      2188
      2187      2186      2236      2188      2186      2236      2177      2189      2190
      2177      2189      2191      2177      2189      2192      2190      2189      2191
      2190      2189      2192      2191      2189      2192      2189      2192      2193
      2189      2192      2194      2189      2192      2195      2193      2192      2194
      2193      2192      2195      2194      2192      2195      2192      2195      2196
      2192      2195      2197      2192      2195      2198      2196      2195      2197
      2196      2195      2198      2197      2195      2198      2195      2198      2199
      2195      2198      2200      2195      2198      2201      2199      2198      2200
      2199      2198      2201      2200      2198      2201      2198      2201      2202
      2198      2201      2203      2198      2201      2204      2202      2201      2203
      2202      2201      2204      2203      2201      2204      2201      2204      2205
      2201      2204      2206      2201      2204      2207      2205      2204      2206
      2205      2204      2207      2206      2204      2207      2204      2207      2208
      2204      2207      2209      2208      2207      2209      2207      2209      2210
      2207      2209      2211      2210      2209      2211      2209      2211      2212
      2209      2211      2213      2209      2211      2214      2212      2211      2213
      2212      2211      2214      2213      2211      2214      2211      2214      2215
      2211      2214      2216      2211      2214      2217      2215      2214      2216
      2215      2214      2217      2216      2214      2217      2214      2217      2218
      2214      2217      2219      2214      2217      2220      2218      2217      2219
      2218      2217      2220      2219      2217      2220      2217      2220      2221
      2217      2220      2222      2217      2220      2223      2221      2220      2222
      2221      2220      2223      2222      2220      2223      2220      2223      2224
      2220      2223      2225      2220      2223      2226      2224      2223      2225
      2224      2223      2226      2225      2223      2226      2223      2226      2227
      2223      2226      2228      2223      2226      2229      2227      2226      2228
      2227      2226      2229      2228      2226      2229      2226      2229      2230
      2226      2229      2231      2226      2229      2232      2230      2229      2231
      2230      2229      2232      2231      2229      2232      2229      2232      2233
      2229      2232      2234      2229      2232      2235      2233      2232      2234
      2233      2232      2235      2234      2232      2235      2186      2236      2237
      2186      2236      2238      2186      2236      2239      2237      2236      2238
      2237      2236      2239      2238      2236      2239      2236      2239      2240
      2236      2239      2241      2236      2239      2242      2240      2239      2241
      2240      2239      2242      2241      2239      2242      2239      2242      2243
      2239      2242      2244      2239      2242      2245      2243      2242      2244
      2243      2242      2245      2244      2242      2245      2242      2245      2246
      2242      2245      2247      2242      2245      2248      2246      2245      2247
      2246      2245      2248      2247      2245      2248      2245      2248      2249
      2245      2248      2250      2245      2248      2251      2249      2248      2250
      2249      2248      2251      2250      2248      2251      2248      2251      2252
      2248      2251      2253      2248      2251      2254      2252      2251      2253
      2252      2251      2254      2253      2251      2254      2251      2254      2255
      2251      2254      2256      2251      2254      2257      2255      2254      2256
      2255      2254      2257      2256      2254      2257      2254      2257      2258
      2254      2257      2259      2254      2257      2260      2258      2257      2259
      2258      2257      2260      2259      2257      2260      2257      2260      2261
      2257      2260      2262      2257      2260      2263      2261      2260      2262
      2261      2260      2263      2262      2260      2263      2260      2263      2264
      2260      2263      2265      2260      2263      2266      2264      2263      2265
      2264      2263      2266      2265      2263      2266      2263      2266      2267
      2263      2266      2268      2263      2266      2269      2267      2266      2268
      2267      2266      2269      2268      2266      2269      2266      2269      2270
      2266      2269      2271      2266      2269      2272      2270      2269      2271
      2270      2269      2272      2271      2269      2272      2269      2272      2273
      2269      2272      2274      2269      2272      2275      2273      2272      2274
      2273      2272      2275      2274      2272      2275      2272      2275      2276
      2272      2275      2277      2272      2275      2278      2276      2275      2277
      2276      2275      2278      2277      2275      2278      2280      2279      2283
      2280      2279      2287      2280      2279      2291      2283      2279      2287
      2283      2279      2291      2287      2279      2291      2279      2280      2281
      2279      2280      2282      2279      2280      2295      2281      2280      2282
      2281      2280      2295      2282      2280      2295      2279      2283      2284
      2279      2283      2285      2279      2283      2286      2284      2283      2285
      2284      2283      2286      2285      2283      2286      2279      2287      2288
      2279      2287      2289      2279      2287      2290      2288      2287      2289
      2288      2287      2290      2289      2287      2290      2279      2291      2292
      2279      2291      2293      2279      2291      2294      2292      2291      2293
      2292      2291      2294      2293      2291      2294      2280      2295      2296
      2280      2295      2297      2280      2295      2301      2296      2295      2297
      2296      2295      2301      2297      2295      2301      2299      2298      2300
      2299      2298      2301      2299      2298      2302      2300      2298      2301
      2300      2298      2302      2301      2298      2302      2295      2301      2298
      2298      2302      2303      2302      2303      2304      2302      2303      2305
      2302      2303      2306      2304      2303      2305      2304      2303      2306
      2305      2303      2306      2303      2306      2307      2303      2306      2308
      2303      2306      2314      2307      2306      2308      2307      2306      2314
      2308      2306      2314      2306      2308      2309      2308      2309      2310
      2308      2309      2311      2310      2309      2311      2309      2311      2312
      2309      2311      2313      2309      2311      2323      2312      2311      2313
      2312      2311      2323      2313      2311      2323      2306      2314      2315
      2306      2314      2316      2306      2314      2317      2315      2314      2316
      2315      2314      2317      2316      2314      2317      2314      2317      2318
      2317      2318      2319      2317      2318      2320      2319      2318      2320
      2318      2320      2321      2318      2320      2322      2318      2320      2370
      2321      2320      2322      2321      2320      2370      2322      2320      2370
      2311      2323      2324      2311      2323      2325      2311      2323      2326
      2324      2323      2325      2324      2323      2326      2325      2323      2326
      2323      2326      2327      2323      2326      2328      2323      2326      2329
      2327      2326      2328      2327      2326      2329      2328      2326      2329
      2326      2329      2330      2326      2329      2331      2326      2329      2332
      2330      2329      2331      2330      2329      2332      2331      2329      2332
      2329      2332      2333      2329      2332      2334      2329      2332      2335
      2333      2332      2334      2333      2332      2335      2334      2332      2335
      2332      2335      2336      2332      2335      2337      2332      2335      2338
      2336      2335      2337      2336      2335      2338      2337      2335      2338
      2335      2338      2339      2335      2338      2340      2335      2338      2341
      2339      2338      2340      2339      2338      2341      2340      2338      2341
      2338      2341      2342      2338      2341      2343      2342      2341      2343
      2341      2343      2344      2341      2343      2345      2344      2343      2345
      2343      2345      2346      2343      2345      2347      2343      2345      2348
      2346      2345      2347      2346      2345      2348      2347      2345      2348
      2345      2348      2349      2345      2348      2350      2345      2348      2351
      2349      2348      2350      2349      2348      2351      2350      2348      2351
      2348      2351      2352      2348      2351      2353      2348      2351      2354
      2352      2351      2353      2352      2351      2354      2353      2351      2354
      2351      2354      2355      2351      2354      2356      2351      2354      2357
      2355      2354      2356      2355      2354      2357      2356      2354      2357
      2354      2357      2358      2354      2357      2359      2354      2357      2360
      2358      2357      2359      2358      2357      2360      2359      2357      2360
      2357      2360      2361      2357      2360      2362      2357      2360      2363
      2361      2360      2362      2361      2360      2363      2362      2360      2363
      2360      2363      2364      2360      2363      2365      2360      2363      2366
      2364      2363      2365      2364      2363      2366      2365      2363      2366
      2363      2366      2367      2363      2366      2368      2363      2366      2369
      2367      2366      2368      2367      2366      2369      2368      2366      2369
      2320      2370      2371      2320      2370      2372      2320      2370      2373
      2371      2370      2372      2371      2370      2373      2372      2370      2373
      2370      2373      2374      2370      2373      2375      2370      2373      2376
      2374      2373      2375      2374      2373      2376      2375      2373      2376
      2373      2376      2377      2373      2376      2378      2373      2376      2379
      2377      2376      2378      2377      2376      2379      2378      2376      2379
      2376      2379      2380      2376      2379      2381      2376      2379      2382
      2380      2379      2381      2380      2379      2382      2381      2379      2382
      2379      2382      2383      2379      2382      2384      2379      2382      2385
      2383      2382      2384      2383      2382      2385      2384      2382      2385
      2382      2385      2386      2382      2385      2387      2382      2385      2388
      2386      2385      2387      2386      2385      2388      2387      2385      2388
      2385      2388      2389      2385      2388      2390      2385      2388      2391
      2389      2388      2390      2389      2388      2391      2390      2388      2391
      2388      2391      2392      2388      2391      2393      2388      2391      2394
      2392      2391      2393      2392      2391      2394      2393      2391      2394
      2391      2394      2395      2391      2394      2396      2391      2394      2397
      2395      2394      2396      2395      2394      2397      2396      2394      2397
      2394      2397      2398      2394      2397      2399      2394      2397      2400
      2398      2397      2399      2398      2397      2400      2399      2397      2400
      2397      2400      2401      2397      2400      2402      2397      2400      2403
      2401      2400      2402      2401      2400      2403      2402      2400      2403
      2400      2403      2404      2400      2403      2405      2400      2403      2406
      2404      2403      2405      2404      2403      2406      2405      2403      2406
      2403      2406      2407      2403      2406      2408      2403      2406      2409
      2407      2406      2408      2407      2406      2409      2408      2406      2409
      2406      2409      2410      2406      2409      2411      2406      2409      2412
      2410      2409      2411      2410      2409      2412      2411      2409      2412
      2414      2413      2417      2414      2413      2421      2414      2413      2425
      2417      2413      2421      2417      2413      2425      2421      2413      2425
      2413      2414      2415      2413      2414      2416      2413      2414      2429
      2415      2414      2416      2415      2414      2429      2416      2414      2429
      2413      2417      2418      2413      2417      2419      2413      2417      2420
      2418      2417      2419      2418      2417      2420      2419      2417      2420
      2413      2421      2422      2413      2421      2423      2413      2421      2424
      2422      2421      2423      2422      2421      2424      2423      2421      2424
      2413      2425      2426      2413      2425      2427      2413      2425      2428
      2426      2425      2427      2426      2425      2428      2427      2425      2428
      2414      2429      2430      2414      2429      2431      2414      2429      2435
      2430      2429      2431      2430      2429      2435      2431      2429      2435
      2433      2432      2434      2433      2432      2435      2433      2432      2436
      2434      2432      2435      2434      2432      2436      2435      2432      2436
      2429      2435      2432      2432      2436      2437      2436      2437      2438
      2436      2437      2439      2436      2437      2440      2438      2437      2439
      2438      2437      2440      2439      2437      2440      2437      2440      2441
      2437      2440      2442      2437      2440      2448      2441      2440      2442
      2441      2440      2448      2442      2440      2448      2440      2442      2443
      2442      2443      2444      2442      2443      2445      2444      2443      2445
      2443      2445      2446      2443      2445      2447      2443      2445      2457
      2446      2445      2447      2446      2445      2457      2447      2445      2457
      2440      2448      2449      2440      2448      2450      2440      2448      2451
      2449      2448      2450      2449      2448      2451      2450      2448      2451
      2448      2451      2452      2451      2452      2453      2451      2452      2454
      2453      2452      2454      2452      2454      2455      2452      2454      2456
      2452      2454      2504      2455      2454      2456      2455      2454      2504
      2456      2454      2504      2445      2457      2458      2445      2457      2459
      2445      2457      2460      2458      2457      2459      2458      2457      2460
      2459      2457      2460      2457      2460      2461      2457      2460      2462
      2457      2460      2463      2461      2460      2462      2461      2460      2463
      2462      2460      2463      2460      2463      2464      2460      2463      2465
      2460      2463      2466      2464      2463      2465      2464      2463      2466
      2465      2463      2466      2463      2466      2467      2463      2466      2468
      2463      2466      2469      2467      2466      2468      2467      2466      2469
      2468      2466      2469      2466      2469      2470      2466      2469      2471
      2466      2469      2472      2470      2469      2471      2470      2469      2472
      2471      2469      2472      2469      2472      2473      2469      2472      2474
      2469      2472      2475      2473      2472      2474      2473      2472      2475
      2474      2472      2475      2472      2475      2476      2472      2475      2477
      2476      2475      2477      2475      2477      2478      2475      2477      2479
      2478      2477      2479      2477      2479      2480      2477      2479      2481
      2477      2479      2482      2480      2479      2481      2480      2479      2482
      2481      2479      2482      2479      2482      2483      2479      2482      2484
      2479      2482      2485      2483      2482      2484      2483      2482      2485
      2484      2482      2485      2482      2485      2486      2482      2485      2487
      2482      2485      2488      2486      2485      2487      2486      2485      2488
      2487      2485      2488      2485      2488      2489      2485      2488      2490
      2485      2488      2491      2489      2488      2490      2489      2488      2491
      2490      2488      2491      2488      2491      2492      2488      2491      2493
      2488      2491      2494      2492      2491      2493      2492      2491      2494
      2493      2491      2494      2491      2494      2495      2491      2494      2496
      2491      2494      2497      2495      2494      2496      2495      2494      2497
      2496      2494      2497      2494      2497      2498      2494      2497      2499
      2494      2497      2500      2498      2497      2499      2498      2497      2500
      2499      2497      2500      2497      2500      2501      2497      2500      2502
      2497      2500      2503      2501      2500      2502      2501      2500      2503
      2502      2500      2503      2454      2504      2505      2454      2504      2506
      2454      2504      2507      2505      2504      2506      2505      2504      2507
      2506      2504      2507      2504      2507      2508      2504      2507      2509
      2504      2507      2510      2508      2507      2509      2508      2507      2510
      2509      2507      2510      2507      2510      2511      2507      2510      2512
      2507      2510      2513      2511      2510      2512      2511      2510      2513
      2512      2510      2513      2510      2513      2514      2510      2513      2515
      2510      2513      2516      2514      2513      2515      2514      2513      2516
      2515      2513      2516      2513      2516      2517      2513      2516      2518
      2513      2516      2519      2517      2516      2518      2517      2516      2519
      2518      2516      2519      2516      2519      2520      2516      2519      2521
      2516      2519      2522      2520      2519      2521      2520      2519      2522
      2521      2519      2522      2519      2522      2523      2519      2522      2524
      2519      2522      2525      2523      2522      2524      2523      2522      2525
      2524      2522      2525      2522      2525      2526      2522      2525      2527
      2522      2525      2528      2526      2525      2527      2526      2525      2528
      2527      2525      2528      2525      2528      2529      2525      2528      2530
      2525      2528      2531      2529      2528      2530      2529      2528      2531
      2530      2528      2531      2528      2531      2532      2528      2531      2533
      2528      2531      2534      2532      2531      2533      2532      2531      2534
      2533      2531      2534      2531      2534      2535      2531      2534      2536
      2531      2534      2537      2535      2534      2536      2535      2534      2537
      2536      2534      2537      2534      2537      2538      2534      2537      2539
      2534      2537      2540      2538      2537      2539      2538      2537      2540
      2539      2537      2540      2537      2540      2541      2537      2540      2542
      2537      2540      2543      2541      2540      2542      2541      2540      2543
      2542      2540      2543      2540      2543      2544      2540      2543      2545
      2540      2543      2546      2544      2543      2545      2544      2543      2546
      2545      2543      2546      2548      2547      2551      2548      2547      2555
      2548      2547      2559      2551      2547      2555      2551      2547      2559
      2555      2547      2559      2547      2548      2549      2547      2548      2550
      2547      2548      2563      2549      2548      2550      2549      2548      2563
      2550      2548      2563      2547      2551      2552      2547      2551      2553
      2547      2551      2554      2552      2551      2553      2552      2551      2554
      2553      2551      2554      2547      2555      2556      2547      2555      2557
      2547      2555      2558      2556      2555      2557      2556      2555      2558
      2557      2555      2558      2547      2559      2560      2547      2559      2561
      2547      2559      2562      2560      2559      2561      2560      2559      2562
      2561      2559      2562      2548      2563      2564      2548      2563      2565
      2548      2563      2569      2564      2563      2565      2564      2563      2569
      2565      2563      2569      2567      2566      2568      2567      2566      2569
      2567      2566      2570      2568      2566      2569      2568      2566      2570
      2569      2566      2570      2563      2569      2566      2566      2570      2571
      2570      2571      2572      2570      2571      2573      2570      2571      2574
      2572      2571      2573      2572      2571      2574      2573      2571      2574
      2571      2574      2575      2571      2574      2576      2571      2574      2582
      2575      2574      2576      2575      2574      2582      2576      2574      2582
      2574      2576      2577      2576      2577      2578      2576      2577      2579
      2578      2577      2579      2577      2579      2580      2577      2579      2581
      2577      2579      2591      2580      2579      2581      2580      2579      2591
      2581      2579      2591      2574      2582      2583      2574      2582      2584
      2574      2582      2585      2583      2582      2584      2583      2582      2585
      2584      2582      2585      2582      2585      2586      2585      2586      2587
      2585      2586      2588      2587      2586      2588      2586      2588      2589
      2586      2588      2590      2586      2588      2638      2589      2588      2590
      2589      2588      2638      2590      2588      2638      2579      2591      2592
      2579      2591      2593      2579      2591      2594      2592      2591      2593
      2592      2591      2594      2593      2591      2594      2591      2594      2595
      2591      2594      2596      2591      2594      2597      2595      2594      2596
      2595      2594      2597      2596      2594      2597      2594      2597      2598
      2594      2597      2599      2594      2597      2600      2598      2597      2599
      2598      2597      2600      2599      2597      2600      2597      2600      2601
      2597      2600      2602      2597      2600      2603      2601      2600      2602
      2601      2600      2603      2602      2600      2603      2600      2603      2604
      2600      2603      2605      2600      2603      2606      2604      2603      2605
      2604      2603      2606      2605      2603      2606      2603      2606      2607
      2603      2606      2608      2603      2606      2609      2607      2606      2608
      2607      2606      2609      2608      2606      2609      2606      2609      2610
      2606      2609      2611      2610      2609      2611      2609      2611      2612
      2609      2611      2613      2612      2611      2613      2611      2613      2614
      2611      2613      2615      2611      2613      2616      2614      2613      2615
      2614      2613      2616      2615      2613      2616      2613      2616      2617
      2613      2616      2618      2613      2616      2619      2617      2616      2618
      2617      2616      2619      2618      2616      2619      2616      2619      2620
      2616      2619      2621      2616      2619      2622      2620      2619      2621
      2620      2619      2622      2621      2619      2622      2619      2622      2623
      2619      2622      2624      2619      2622      2625      2623      2622      2624
      2623      2622      2625      2624      2622      2625      2622      2625      2626
      2622      2625      2627      2622      2625      2628      2626      2625      2627
      2626      2625      2628      2627      2625      2628      2625      2628      2629
      2625      2628      2630      2625      2628      2631      2629      2628      2630
      2629      2628      2631      2630      2628      2631      2628      2631      2632
      2628      2631      2633      2628      2631      2634      2632      2631      2633
      2632      2631      2634      2633      2631      2634      2631      2634      2635
      2631      2634      2636      2631      2634      2637      2635      2634      2636
      2635      2634      2637      2636      2634      2637      2588      2638      2639
      2588      2638      2640      2588      2638      2641      2639      2638      2640
      2639      2638      2641      2640      2638      2641      2638      2641      2642
      2638      2641      2643      2638      2641      2644      2642      2641      2643
      2642      2641      2644      2643      2641      2644      2641      2644      2645
      2641      2644      2646      2641      2644      2647      2645      2644      2646
      2645      2644      2647      2646      2644      2647      2644      2647      2648
      2644      2647      2649      2644      2647      2650      2648      2647      2649
      2648      2647      2650      2649      2647      2650      2647      2650      2651
      2647      2650      2652      2647      2650      2653      2651      2650      2652
      2651      2650      2653      2652      2650      2653      2650      2653      2654
      2650      2653      2655      2650      2653      2656      2654      2653      2655
      2654      2653      2656      2655      2653      2656      2653      2656      2657
      2653      2656      2658      2653      2656      2659      2657      2656      2658
      2657      2656      2659      2658      2656      2659      2656      2659      2660
      2656      2659      2661      2656      2659      2662      2660      2659      2661
      2660      2659      2662      2661      2659      2662      2659      2662      2663
      2659      2662      2664      2659      2662      2665      2663      2662      2664
      2663      2662      2665      2664      2662      2665      2662      2665      2666
      2662      2665      2667      2662      2665      2668      2666      2665      2667
      2666      2665      2668      2667      2665      2668      2665      2668      2669
      2665      2668      2670      2665      2668      2671      2669      2668      2670
      2669      2668      2671      2670      2668      2671      2668      2671      2672
      2668      2671      2673      2668      2671      2674      2672      2671      2673
      2672      2671      2674      2673      2671      2674      2671      2674      2675
      2671      2674      2676      2671      2674      2677      2675      2674      2676
      2675      2674      2677      2676      2674      2677      2674      2677      2678
      2674      2677      2679      2674      2677      2680      2678      2677      2679
      2678      2677      2680      2679      2677      2680      2682      2681      2685
      2682      2681      2689      2682      2681      2693      2685      2681      2689
      2685      2681      2693      2689      2681      2693      2681      2682      2683
      2681      2682      2684      2681      2682      2697      2683      2682      2684
      2683      2682      2697      2684      2682      2697      2681      2685      2686
      2681      2685      2687      2681      2685      2688      2686      2685      2687
      2686      2685      2688      2687      2685      2688      2681      2689      2690
      2681      2689      2691      2681      2689      2692      2690      2689      2691
      2690      2689      2692      2691      2689      2692      2681      2693      2694
      2681      2693      2695      2681      2693      2696      2694      2693      2695
      2694      2693      2696      2695      2693      2696      2682      2697      2698
      2682      2697      2699      2682      2697      2703      2698      2697      2699
      2698      2697      2703      2699      2697      2703      2701      2700      2702
      2701      2700      2703      2701      2700      2704      2702      2700      2703
      2702      2700      2704      2703      2700      2704      2697      2703      2700
      2700      2704      2705      2704      2705      2706      2704      2705      2707
      2704      2705      2708      2706      2705      2707      2706      2705      2708
      2707      2705      2708      2705      2708      2709      2705      2708      2710
      2705      2708      2716      2709      2708      2710      2709      2708      2716
      2710      2708      2716      2708      2710      2711      2710      2711      2712
      2710      2711      2713      2712      2711      2713      2711      2713      2714
      2711      2713      2715      2711      2713      2725      2714      2713      2715
      2714      2713      2725      2715      2713      2725      2708      2716      2717
      2708      2716      2718      2708      2716      2719      2717      2716      2718
      2717      2716      2719      2718      2716      2719      2716      2719      2720
      2719      2720      2721      2719      2720      2722      2721      2720      2722
      2720      2722      2723      2720      2722      2724      2720      2722      2772
      2723      2722      2724      2723      2722      2772      2724      2722      2772
      2713      2725      2726      2713      2725      2727      2713      2725      2728
      2726      2725      2727      2726      2725      2728      2727      2725      2728
      2725      2728      2729      2725      2728      2730      2725      2728      2731
      2729      2728      2730      2729      2728      2731      2730      2728      2731
      2728      2731      2732      2728      2731      2733      2728      2731      2734
      2732      2731      2733      2732      2731      2734      2733      2731      2734
      2731      2734      2735      2731      2734      2736      2731      2734      2737
      2735      2734      2736      2735      2734      2737      2736      2734      2737
      2734      2737      2738      2734      2737      2739      2734      2737      2740
      2738      2737      2739      2738      2737      2740      2739      2737      2740
      2737      2740      2741      2737      2740      2742      2737      2740      2743
      2741      2740      2742      2741      2740      2743      2742      2740      2743
      2740      2743      2744      2740      2743      2745      2744      2743      2745
      2743      2745      2746      2743      2745      2747      2746      2745      2747
      2745      2747      2748      2745      2747      2749      2745      2747      2750
      2748      2747      2749      2748      2747      2750      2749      2747      2750
      2747      2750      2751      2747      2750      2752      2747      2750      2753
      2751      2750      2752      2751      2750      2753      2752      2750      2753
      2750      2753      2754      2750      2753      2755      2750      2753      2756
      2754      2753      2755      2754      2753      2756      2755      2753      2756
      2753      2756      2757      2753      2756      2758      2753      2756      2759
      2757      2756      2758      2757      2756      2759      2758      2756      2759
      2756      2759      2760      2756      2759      2761      2756      2759      2762
      2760      2759      2761      2760      2759      2762      2761      2759      2762
      2759      2762      2763      2759      2762      2764      2759      2762      2765
      2763      2762      2764      2763      2762      2765      2764      2762      2765
      2762      2765      2766      2762      2765      2767      2762      2765      2768
      2766      2765      2767      2766      2765      2768      2767      2765      2768
      2765      2768      2769      2765      2768      2770      2765      2768      2771
      2769      2768      2770      2769      2768      2771      2770      2768      2771
      2722      2772      2773      2722      2772      2774      2722      2772      2775
      2773      2772      2774      2773      2772      2775      2774      2772      2775
      2772      2775      2776      2772      2775      2777      2772      2775      2778
      2776      2775      2777      2776      2775      2778      2777      2775      2778
      2775      2778      2779      2775      2778      2780      2775      2778      2781
      2779      2778      2780      2779      2778      2781      2780      2778      2781
      2778      2781      2782      2778      2781      2783      2778      2781      2784
      2782      2781      2783      2782      2781      2784      2783      2781      2784
      2781      2784      2785      2781      2784      2786      2781      2784      2787
      2785      2784      2786      2785      2784      2787      2786      2784      2787
      2784      2787      2788      2784      2787      2789      2784      2787      2790
      2788      2787      2789      2788      2787      2790      2789      2787      2790
      2787      2790      2791      2787      2790      2792      2787      2790      2793
      2791      2790      2792      2791      2790      2793      2792      2790      2793
      2790      2793      2794      2790      2793      2795      2790      2793      2796
      2794      2793      2795      2794      2793      2796      2795      2793      2796
      2793      2796      2797      2793      2796      2798      2793      2796      2799
      2797      2796      2798      2797      2796      2799      2798      2796      2799
      2796      2799      2800      2796      2799      2801      2796      2799      2802
      2800      2799      2801      2800      2799      2802      2801      2799      2802
      2799      2802      2803      2799      2802      2804      2799      2802      2805
      2803      2802      2804      2803      2802      2805      2804      2802      2805
      2802      2805      2806      2802      2805      2807      2802      2805      2808
      2806      2805      2807      2806      2805      2808      2807      2805      2808
      2805      2808      2809      2805      2808      2810      2805      2808      2811
      2809      2808      2810      2809      2808      2811      2810      2808      2811
      2808      2811      2812      2808      2811      2813      2808      2811      2814
      2812      2811      2813      2812      2811      2814      2813      2811      2814
      2816      2815      2819      2816      2815      2823      2816      2815      2827
      2819      2815      2823      2819      2815      2827      2823      2815      2827
      2815      2816      2817      2815      2816      2818      2815      2816      2831
      2817      2816      2818      2817      2816      2831      2818      2816      2831
      2815      2819      2820      2815      2819      2821      2815      2819      2822
      2820      2819      2821      2820      2819      2822      2821      2819      2822
      2815      2823      2824      2815      2823      2825      2815      2823      2826
      2824      2823      2825      2824      2823      2826      2825      2823      2826
      2815      2827      2828      2815      2827      2829      2815      2827      2830
      2828      2827      2829      2828      2827      2830      2829      2827      2830
      2816      2831      2832      2816      2831      2833      2816      2831      2837
      2832      2831      2833      2832      2831      2837      2833      2831      2837
      2835      2834      2836      2835      2834      2837      2835      2834      2838
      2836      2834      2837      2836      2834      2838      2837      2834      2838
      2831      2837      2834      2834      2838      2839      2838      2839      2840
      2838      2839      2841      2838      2839      2842      2840      2839      2841
      2840      2839      2842      2841      2839      2842      2839      2842      2843
      2839      2842      2844      2839      2842      2850      2843      2842      2844
      2843      2842      2850      2844      2842      2850      2842      2844      2845
      2844      2845      2846      2844      2845      2847      2846      2845      2847
      2845      2847      2848      2845      2847      2849      2845      2847      2859
      2848      2847      2849      2848      2847      2859      2849      2847      2859
      2842      2850      2851      2842      2850      2852      2842      2850      2853
      2851      2850      2852      2851      2850      2853      2852      2850      2853
      2850      2853      2854      2853      2854      2855      2853      2854      2856
      2855      2854      2856      2854      2856      2857      2854      2856      2858
      2854      2856      2906      2857      2856      2858      2857      2856      2906
      2858      2856      2906      2847      2859      2860      2847      2859      2861
      2847      2859      2862      2860      2859      2861      2860      2859      2862
      2861      2859      2862      2859      2862      2863      2859      2862      2864
      2859      2862      2865      2863      2862      2864      2863      2862      2865
      2864      2862      2865      2862      2865      2866      2862      2865      2867
      2862      2865      2868      2866      2865      2867      2866      2865      2868
      2867      2865      2868      2865      2868      2869      2865      2868      2870
      2865      2868      2871      2869      2868      2870      2869      2868      2871
      2870      2868      2871      2868      2871      2872      2868      2871      2873
      2868      2871      2874      2872      2871      2873      2872      2871      2874
      2873      2871      2874      2871      2874      2875      2871      2874      2876
      2871      2874      2877      2875      2874      2876      2875      2874      2877
      2876      2874      2877      2874      2877      2878      2874      2877      2879
      2878      2877      2879      2877      2879      2880      2877      2879      2881
      2880      2879      2881      2879      2881      2882      2879      2881      2883
      2879      2881      2884      2882      2881      2883      2882      2881      2884
      2883      2881      2884      2881      2884      2885      2881      2884      2886
      2881      2884      2887      2885      2884      2886      2885      2884      2887
      2886      2884      2887      2884      2887      2888      2884      2887      2889
      2884      2887      2890      2888      2887      2889      2888      2887      2890
      2889      2887      2890      2887      2890      2891      2887      2890      2892
      2887      2890      2893      2891      2890      2892      2891      2890      2893
      2892      2890      2893      2890      2893      2894      2890      2893      2895
      2890      2893      2896      2894      2893      2895      2894      2893      2896
      2895      2893      2896      2893      2896      2897      2893      2896      2898
      2893      2896      2899      2897      2896      2898      2897      2896      2899
      2898      2896      2899      2896      2899      2900      2896      2899      2901
      2896      2899      2902      2900      2899      2901      2900      2899      2902
      2901      2899      2902      2899      2902      2903      2899      2902      2904
      2899      2902      2905      2903      2902      2904      2903      2902      2905
      2904      2902      2905      2856      2906      2907      2856      2906      2908
      2856      2906      2909      2907      2906      2908      2907      2906      2909
      2908      2906      2909      2906      2909      2910      2906      2909      2911
      2906      2909      2912      2910      2909      2911      2910      2909      2912
      2911      2909      2912      2909      2912      2913      2909      2912      2914
      2909      2912      2915      2913      2912      2914      2913      2912      2915
      2914      2912      2915      2912      2915      2916      2912      2915      2917
      2912      2915      2918      2916      2915      2917      2916      2915      2918
      2917      2915      2918      2915      2918      2919      2915      2918      2920
      2915      2918      2921      2919      2918      2920      2919      2918      2921
      2920      2918      2921      2918      2921      2922      2918      2921      2923
      2918      2921      2924      2922      2921      2923      2922      2921      2924
      2923      2921      2924      2921      2924      2925      2921      2924      2926
      2921      2924      2927      2925      2924      2926      2925      2924      2927
      2926      2924      2927      2924      2927      2928      2924      2927      2929
      2924      2927      2930      2928      2927      2929      2928      2927      2930
      2929      2927      2930      2927      2930      2931      2927      2930      2932
      2927      2930      2933      2931      2930      2932      2931      2930      2933
      2932      2930      2933      2930      2933      2934      2930      2933      2935
      2930      2933      2936      2934      2933      2935      2934      2933      2936
      2935      2933      2936      2933      2936      2937      2933      2936      2938
      2933      2936      2939      2937      2936      2938      2937      2936      2939
      2938      2936      2939      2936      2939      2940      2936      2939      2941
      2936      2939      2942      2940      2939      2941      2940      2939      2942
      2941      2939      2942      2939      2942      2943      2939      2942      2944
      2939      2942      2945      2943      2942      2944      2943      2942      2945
      2944      2942      2945      2942      2945      2946      2942      2945      2947
      2942      2945      2948      2946      2945      2947      2946      2945      2948
      2947      2945      2948      2950      2949      2953      2950      2949      2957
      2950      2949      2961      2953      2949      2957      2953      2949      2961
      2957      2949      2961      2949      2950      2951      2949      2950      2952
      2949      2950      2965      2951      2950      2952      2951      2950      2965
      2952      2950      2965      2949      2953      2954      2949      2953      2955
      2949      2953      2956      2954      2953      2955      2954      2953      2956
      2955      2953      2956      2949      2957      2958      2949      2957      2959
      2949      2957      2960      2958      2957      2959      2958      2957      2960
      2959      2957      2960      2949      2961      2962      2949      2961      2963
      2949      2961      2964      2962      2961      2963      2962      2961      2964
      2963      2961      2964      2950      2965      2966      2950      2965      2967
      2950      2965      2971      2966      2965      2967      2966      2965      2971
      2967      2965      2971      2969      2968      2970      2969      2968      2971
      2969      2968      2972      2970      2968      2971      2970      2968      2972
      2971      2968      2972      2965      2971      2968      2968      2972      2973
      2972      2973      2974      2972      2973      2975      2972      2973      2976
      2974      2973      2975      2974      2973      2976      2975      2973      2976
      2973      2976      2977      2973      2976      2978      2973      2976      2984
      2977      2976      2978      2977      2976      2984      2978      2976      2984
      2976      2978      2979      2978      2979      2980      2978      2979      2981
      2980      2979      2981      2979      2981      2982      2979      2981      2983
      2979      2981      2993      2982      2981      2983      2982      2981      2993
      2983      2981      2993      2976      2984      2985      2976      2984      2986
      2976      2984      2987      2985      2984      2986      2985      2984      2987
      2986      2984      2987      2984      2987      2988      2987      2988      2989
      2987      2988      2990      2989      2988      2990      2988      2990      2991
      2988      2990      2992      2988      2990      3040      2991      2990      2992
      2991      2990      3040      2992      2990      3040      2981      2993      2994
      2981      2993      2995      2981      2993      2996      2994      2993      2995
      2994      2993      2996      2995      2993      2996      2993      2996      2997
      2993      2996      2998      2993      2996      2999      2997      2996      2998
      2997      2996      2999      2998      2996      2999      2996      2999      3000
      2996      2999      3001      2996      2999      3002      3000      2999      3001
      3000      2999      3002      3001      2999      3002      2999      3002      3003
      2999      3002      3004      2999      3002      3005      3003      3002      3004
      3003      3002      3005      3004      3002      3005      3002      3005      3006
      3002      3005      3007      3002      3005      3008      3006      3005      3007
      3006      3005      3008      3007      3005      3008      3005      3008      3009
      3005      3008      3010      3005      3008      3011      3009      3008      3010
      3009      3008      3011      3010      3008      3011      3008      3011      3012
      3008      3011      3013      3012      3011      3013      3011      3013      3014
      3011      3013      3015      3014      3013      3015      3013      3015      3016
      3013      3015      3017      3013      3015      3018      3016      3015      3017
      3016      3015      3018      3017      3015      3018      3015      3018      3019
      3015      3018      3020      3015      3018      3021      3019      3018      3020
      3019      3018      3021      3020      3018      3021      3018      3021      3022
      3018      3021      3023      3018      3021      3024      3022      3021      3023
      3022      3021      3024      3023      3021      3024      3021      3024      3025
      3021      3024      3026      3021      3024      3027      3025      3024      3026
      3025      3024      3027      3026      3024      3027      3024      3027      3028
      3024      3027      3029      3024      3027      3030      3028      3027      3029
      3028      3027      3030      3029      3027      3030      3027      3030      3031
      3027      3030      3032      3027      3030      3033      3031      3030      3032
      3031      3030      3033      3032      3030      3033      3030      3033      3034
      3030      3033      3035      3030      3033      3036      3034      3033      3035
      3034      3033      3036      3035      3033      3036      3033      3036      3037
      3033      3036      3038      3033      3036      3039      3037      3036      3038
      3037      3036      3039      3038      3036      3039      2990      3040      3041
      2990      3040      3042      2990      3040      3043      3041      3040      3042
      3041      3040      3043      3042      3040      3043      3040      3043      3044
      3040      3043      3045      3040      3043      3046      3044      3043      3045
      3044      3043      3046      3045      3043      3046      3043      3046      3047
      3043      3046      3048      3043      3046      3049      3047      3046      3048
      3047      3046      3049      3048      3046      3049      3046      3049      3050
      3046      3049      3051      3046      3049      3052      3050      3049      3051
      3050      3049      3052      3051      3049      3052      3049      3052      3053
      3049      3052      3054      3049      3052      3055      3053      3052      3054
      3053      3052      3055      3054      3052      3055      3052      3055      3056
      3052      3055      3057      3052      3055      3058      3056      3055      3057
      3056      3055      3058      3057      3055      3058      3055      3058      3059
      3055      3058      3060      3055      3058      3061      3059      3058      3060
      3059      3058      3061      3060      3058      3061      3058      3061      3062
      3058      3061      3063      3058      3061      3064      3062      3061      3063
      3062      3061      3064      3063      3061      3064      3061      3064      3065
      3061      3064      3066      3061      3064      3067      3065      3064      3066
      3065      3064      3067      3066      3064      3067      3064      3067      3068
      3064      3067      3069      3064      3067      3070      3068      3067      3069
      3068      3067      3070      3069      3067      3070      3067      3070      3071
      3067      3070      3072      3067      3070      3073      3071      3070      3072
      3071      3070      3073      3072      3070      3073      3070      3073      3074
      3070      3073      3075      3070      3073      3076      3074      3073      3075
      3074      3073      3076      3075      3073      3076      3073      3076      3077
      3073      3076      3078      3073      3076      3079      3077      3076      3078
      3077      3076      3079      3078      3076      3079      3076      3079      3080
      3076      3079      3081      3076      3079      3082      3080      3079      3081
      3080      3079      3082      3081      3079      3082      3084      3083      3087
      3084      3083      3091      3084      3083      3095      3087      3083      3091
      3087      3083      3095      3091      3083      3095      3083      3084      3085
      3083      3084      3086      3083      3084      3099      3085      3084      3086
      3085      3084      3099      3086      3084      3099      3083      3087      3088
      3083      3087      3089      3083      3087      3090      3088      3087      3089
      3088      3087      3090      3089      3087      3090      3083      3091      3092
      3083      3091      3093      3083      3091      3094      3092      3091      3093
      3092      3091      3094      3093      3091      3094      3083      3095      3096
      3083      3095      3097      3083      3095      3098      3096      3095      3097
      3096      3095      3098      3097      3095      3098      3084      3099      3100
      3084      3099      3101      3084      3099      3105      3100      3099      3101
      3100      3099      3105      3101      3099      3105      3103      3102      3104
      3103      3102      3105      3103      3102      3106      3104      3102      3105
      3104      3102      3106      3105      3102      3106      3099      3105      3102
      3102      3106      3107      3106      3107      3108      3106      3107      3109
      3106      3107      3110      3108      3107      3109      3108      3107      3110
      3109      3107      3110      3107      3110      3111      3107      3110      3112
      3107      3110      3118      3111      3110      3112      3111      3110      3118
      3112      3110      3118      3110      3112      3113      3112      3113      3114
      3112      3113      3115      3114      3113      3115      3113      3115      3116
      3113      3115      3117      3113      3115      3127      3116      3115      3117
      3116      3115      3127      3117      3115      3127      3110      3118      3119
      3110      3118      3120      3110      3118      3121      3119      3118      3120
      3119      3118      3121      3120      3118      3121      3118      3121      3122
      3121      3122      3123      3121      3122      3124      3123      3122      3124
      3122      3124      3125      3122      3124      3126      3122      3124      3174
      3125      3124      3126      3125      3124      3174      3126      3124      3174
      3115      3127      3128      3115      3127      3129      3115      3127      3130
      3128      3127      3129      3128      3127      3130      3129      3127      3130
      3127      3130      3131      3127      3130      3132      3127      3130      3133
      3131      3130      3132      3131      3130      3133      3132      3130      3133
      3130      3133      3134      3130      3133      3135      3130      3133      3136
      3134      3133      3135      3134      3133      3136      3135      3133      3136
      3133      3136      3137      3133      3136      3138      3133      3136      3139
      3137      3136      3138      3137      3136      3139      3138      3136      3139
      3136      3139      3140      3136      3139      3141      3136      3139      3142
      3140      3139      3141      3140      3139      3142      3141      3139      3142
      3139      3142      3143      3139      3142      3144      3139      3142      3145
      3143      3142      3144      3143      3142      3145      3144      3142      3145
      3142      3145      3146      3142      3145      3147      3146      3145      3147
      3145      3147      3148      3145      3147      3149      3148      3147      3149
      3147      3149      3150      3147      3149      3151      3147      3149      3152
      3150      3149      3151      3150      3149      3152      3151      3149      3152
      3149      3152      3153      3149      3152      3154      3149      3152      3155
      3153      3152      3154      3153      3152      3155      3154      3152      3155
      3152      3155      3156      3152      3155      3157      3152      3155      3158
      3156      3155      3157      3156      3155      3158      3157      3155      3158
      3155      3158      3159      3155      3158      3160      3155      3158      3161
      3159      3158      3160      3159      3158      3161      3160      3158      3161
      3158      3161      3162      3158      3161      3163      3158      3161      3164
      3162      3161      3163      3162      3161      3164      3163      3161      3164
      3161      3164      3165      3161      3164      3166      3161      3164      3167
      3165      3164      3166      3165      3164      3167      3166      3164      3167
      3164      3167      3168      3164      3167      3169      3164      3167      3170
      3168      3167      3169      3168      3167      3170      3169      3167      3170
      3167      3170      3171      3167      3170      3172      3167      3170      3173
      3171      3170      3172      3171      3170      3173      3172      3170      3173
      3124      3174      3175      3124      3174      3176      3124      3174      3177
      3175      3174      3176      3175      3174      3177      3176      3174      3177
      3174      3177      3178      3174      3177      3179      3174      3177      3180
      3178      3177      3179      3178      3177      3180      3179      3177      3180
      3177      3180      3181      3177      3180      3182      3177      3180      3183
      3181      3180      3182      3181      3180      3183      3182      3180      3183
      3180      3183      3184      3180      3183      3185      3180      3183      3186
      3184      3183      3185      3184      3183      3186      3185      3183      3186
      3183      3186      3187      3183      3186      3188      3183      3186      3189
      3187      3186      3188      3187      3186      3189      3188      3186      3189
      3186      3189      3190      3186      3189      3191      3186      3189      3192
      3190      3189      3191      3190      3189      3192      3191      3189      3192
      3189      3192      3193      3189      3192      3194      3189      3192      3195
      3193      3192      3194      3193      3192      3195      3194      3192      3195
      3192      3195      3196      3192      3195      3197      3192      3195      3198
      3196      3195      3197      3196      3195      3198      3197      3195      3198
      3195      3198      3199      3195      3198      3200      3195      3198      3201
      3199      3198      3200      3199      3198      3201      3200      3198      3201
      3198      3201      3202      3198      3201      3203      3198      3201      3204
      3202      3201      3203      3202      3201      3204      3203      3201      3204
      3201      3204      3205      3201      3204      3206      3201      3204      3207
      3205      3204      3206      3205      3204      3207      3206      3204      3207
      3204      3207      3208      3204      3207      3209      3204      3207      3210
      3208      3207      3209      3208      3207      3210      3209      3207      3210
      3207      3210      3211      3207      3210      3212      3207      3210      3213
      3211      3210      3212      3211      3210      3213      3212      3210      3213
      3210      3213      3214      3210      3213      3215      3210      3213      3216
      3214      3213      3215      3214      3213      3216      3215      3213      3216
      3218      3217      3221      3218      3217      3225      3218      3217      3229
      3221      3217      3225      3221      3217      3229      3225      3217      3229
      3217      3218      3219      3217      3218      3220      3217      3218      3233
      3219      3218      3220      3219      3218      3233      3220      3218      3233
      3217      3221      3222      3217      3221      3223      3217      3221      3224
      3222      3221      3223      3222      3221      3224      3223      3221      3224
      3217      3225      3226      3217      3225      3227      3217      3225      3228
      3226      3225      3227      3226      3225      3228      3227      3225      3228
      3217      3229      3230      3217      3229      3231      3217      3229      3232
      3230      3229      3231      3230      3229      3232      3231      3229      3232
      3218      3233      3234      3218      3233      3235      3218      3233      3239
      3234      3233      3235      3234      3233      3239      3235      3233      3239
      3237      3236      3238      3237      3236      3239      3237      3236      3240
      3238      3236      3239      3238      3236      3240      3239      3236      3240
      3233      3239      3236      3236      3240      3241      3240      3241      3242
      3240      3241      3243      3240      3241      3244      3242      3241      3243
      3242      3241      3244      3243      3241      3244      3241      3244      3245
      3241      3244      3246      3241      3244      3252      3245      3244      3246
      3245      3244      3252      3246      3244      3252      3244      3246      3247
      3246      3247      3248      3246      3247      3249      3248      3247      3249
      3247      3249      3250      3247      3249      3251      3247      3249      3261
      3250      3249      3251      3250      3249      3261      3251      3249      3261
      3244      3252      3253      3244      3252      3254      3244      3252      3255
      3253      3252      3254      3253      3252      3255      3254      3252      3255
      3252      3255      3256      3255      3256      3257      3255      3256      3258
      3257      3256      3258      3256      3258      3259      3256      3258      3260
      3256      3258      3308      3259      3258      3260      3259      3258      3308
      3260      3258      3308      3249      3261      3262      3249      3261      3263
      3249      3261      3264      3262      3261      3263      3262      3261      3264
      3263      3261      3264      3261      3264      3265      3261      3264      3266
      3261      3264      3267      3265      3264      3266      3265      3264      3267
      3266      3264      3267      3264      3267      3268      3264      3267      3269
      3264      3267      3270      3268      3267      3269      3268      3267      3270
      3269      3267      3270      3267      3270      3271      3267      3270      3272
      3267      3270      3273      3271      3270      3272      3271      3270      3273
      3272      3270      3273      3270      3273      3274      3270      3273      3275
      3270      3273      3276      3274      3273      3275      3274      3273      3276
      3275      3273      3276      3273      3276      3277      3273      3276      3278
      3273      3276      3279      3277      3276      3278      3277      3276      3279
      3278      3276      3279      3276      3279      3280      3276      3279      3281
      3280      3279      3281      3279      3281      3282      3279      3281      3283
      3282      3281      3283      3281      3283      3284      3281      3283      3285
      3281      3283      3286      3284      3283      3285      3284      3283      3286
      3285      3283      3286      3283      3286      3287      3283      3286      3288
      3283      3286      3289      3287      3286      3288      3287      3286      3289
      3288      3286      3289      3286      3289      3290      3286      3289      3291
      3286      3289      3292      3290      3289      3291      3290      3289      3292
      3291      3289      3292      3289      3292      3293      3289      3292      3294
      3289      3292      3295      3293      3292      3294      3293      3292      3295
      3294      3292      3295      3292      3295      3296      3292      3295      3297
      3292      3295      3298      3296      3295      3297      3296      3295      3298
      3297      3295      3298      3295      3298      3299      3295      3298      3300
      3295      3298      3301      3299      3298      3300      3299      3298      3301
      3300      3298      3301      3298      3301      3302      3298      3301      3303
      3298      3301      3304      3302      3301      3303      3302      3301      3304
      3303      3301      3304      3301      3304      3305      3301      3304      3306
      3301      3304      3307      3305      3304      3306      3305      3304      3307
      3306      3304      3307      3258      3308      3309      3258      3308      3310
      3258      3308      3311      3309      3308      3310      3309      3308      3311
      3310      3308      3311      3308      3311      3312      3308      3311      3313
      3308      3311      3314      3312      3311      3313      3312      3311      3314
      3313      3311      3314      3311      3314      3315      3311      3314      3316
      3311      3314      3317      3315      3314      3316      3315      3314      3317
      3316      3314      3317      3314      3317      3318      3314      3317      3319
      3314      3317      3320      3318      3317      3319      3318      3317      3320
      3319      3317      3320      3317      3320      3321      3317      3320      3322
      3317      3320      3323      3321      3320      3322      3321      3320      3323
      3322      3320      3323      3320      3323      3324      3320      3323      3325
      3320      3323      3326      3324      3323      3325      3324      3323      3326
      3325      3323      3326      3323      3326      3327      3323      3326      3328
      3323      3326      3329      3327      3326      3328      3327      3326      3329
      3328      3326      3329      3326      3329      3330      3326      3329      3331
      3326      3329      3332      3330      3329      3331      3330      3329      3332
      3331      3329      3332      3329      3332      3333      3329      3332      3334
      3329      3332      3335      3333      3332      3334      3333      3332      3335
      3334      3332      3335      3332      3335      3336      3332      3335      3337
      3332      3335      3338      3336      3335      3337      3336      3335      3338
      3337      3335      3338      3335      3338      3339      3335      3338      3340
      3335      3338      3341      3339      3338      3340      3339      3338      3341
      3340      3338      3341      3338      3341      3342      3338      3341      3343
      3338      3341      3344      3342      3341      3343      3342      3341      3344
      3343      3341      3344      3341      3344      3345      3341      3344      3346
      3341      3344      3347      3345      3344      3346      3345      3344      3347
      3346      3344      3347      3344      3347      3348      3344      3347      3349
      3344      3347      3350      3348      3347      3349      3348      3347      3350
      3349      3347      3350      3352      3351      3355      3352      3351      3359
      3352      3351      3363      3355      3351      3359      3355      3351      3363
      3359      3351      3363      3351      3352      3353      3351      3352      3354
      3351      3352      3367      3353      3352      3354      3353      3352      3367
      3354      3352      3367      3351      3355      3356      3351      3355      3357
      3351      3355      3358      3356      3355      3357      3356      3355      3358
      3357      3355      3358      3351      3359      3360      3351      3359      3361
      3351      3359      3362      3360      3359      3361      3360      3359      3362
      3361      3359      3362      3351      3363      3364      3351      3363      3365
      3351      3363      3366      3364      3363      3365      3364      3363      3366
      3365      3363      3366      3352      3367      3368      3352      3367      3369
      3352      3367      3373      3368      3367      3369      3368      3367      3373
      3369      3367      3373      3371      3370      3372      3371      3370      3373
      3371      3370      3374      3372      3370      3373      3372      3370      3374
      3373      3370      3374      3367      3373      3370      3370      3374      3375
      3374      3375      3376      3374      3375      3377      3374      3375      3378
      3376      3375      3377      3376      3375      3378      3377      3375      3378
      3375      3378      3379      3375      3378      3380      3375      3378      3386
      3379      3378      3380      3379      3378      3386      3380      3378      3386
      3378      3380      3381      3380      3381      3382      3380      3381      3383
      3382      3381      3383      3381      3383      3384      3381      3383      3385
      3381      3383      3395      3384      3383      3385      3384      3383      3395
      3385      3383      3395      3378      3386      3387      3378      3386      3388
      3378      3386      3389      3387      3386      3388      3387      3386      3389
      3388      3386      3389      3386      3389      3390      3389      3390      3391
      3389      3390      3392      3391      3390      3392      3390      3392      3393
      3390      3392      3394      3390      3392      3442      3393      3392      3394
      3393      3392      3442      3394      3392      3442      3383      3395      3396
      3383      3395      3397      3383      3395      3398      3396      3395      3397
      3396      3395      3398      3397      3395      3398      3395      3398      3399
      3395      3398      3400      3395      3398      3401      3399      3398      3400
      3399      3398      3401      3400      3398      3401      3398      3401      3402
      3398      3401      3403      3398      3401      3404      3402      3401      3403
      3402      3401      3404      3403      3401      3404      3401      3404      3405
      3401      3404      3406      3401      3404      3407      3405      3404      3406
      3405      3404      3407      3406      3404      3407      3404      3407      3408
      3404      3407      3409      3404      3407      3410      3408      3407      3409
      3408      3407      3410      3409      3407      3410      3407      3410      3411
      3407      3410      3412      3407      3410      3413      3411      3410      3412
      3411      3410      3413      3412      3410      3413      3410      3413      3414
      3410      3413      3415      3414      3413      3415      3413      3415      3416
      3413      3415      3417      3416      3415      3417      3415      3417      3418
      3415      3417      3419      3415      3417      3420      3418      3417      3419
      3418      3417      3420      3419      3417      3420      3417      3420      3421
      3417      3420      3422      3417      3420      3423      3421      3420      3422
      3421      3420      3423      3422      3420      3423      3420      3423      3424
      3420      3423      3425      3420      3423      3426      3424      3423      3425
      3424      3423      3426      3425      3423      3426      3423      3426      3427
      3423      3426      3428      3423      3426      3429      3427      3426      3428
      3427      3426      3429      3428      3426      3429      3426      3429      3430
      3426      3429      3431      3426      3429      3432      3430      3429      3431
      3430      3429      3432      3431      3429      3432      3429      3432      3433
      3429      3432      3434      3429      3432      3435      3433      3432      3434
      3433      3432      3435      3434      3432      3435      3432      3435      3436
      3432      3435      3437      3432      3435      3438      3436      3435      3437
      3436      3435      3438      3437      3435      3438      3435      3438      3439
      3435      3438      3440      3435      3438      3441      3439      3438      3440
      3439      3438      3441      3440      3438      3441      3392      3442      3443
      3392      3442      3444      3392      3442      3445      3443      3442      3444
      3443      3442      3445      3444      3442      3445      3442      3445      3446
      3442      3445      3447      3442      3445      3448      3446      3445      3447
      3446      3445      3448      3447      3445      3448      3445      3448      3449
      3445      3448      3450      3445      3448      3451      3449      3448      3450
      3449      3448      3451      3450      3448      3451      3448      3451      3452
      3448      3451      3453      3448      3451      3454      3452      3451      3453
      3452      3451      3454      3453      3451      3454      3451      3454      3455
      3451      3454      3456      3451      3454      3457      3455      3454      3456
      3455      3454      3457      3456      3454      3457      3454      3457      3458
      3454      3457      3459      3454      3457      3460      3458      3457      3459
      3458      3457      3460      3459      3457      3460      3457      3460      3461
      3457      3460      3462      3457      3460      3463      3461      3460      3462
      3461      3460      3463      3462      3460      3463      3460      3463      3464
      3460      3463      3465      3460      3463      3466      3464      3463      3465
      3464      3463      3466      3465      3463      3466      3463      3466      3467
      3463      3466      3468      3463      3466      3469      3467      3466      3468
      3467      3466      3469      3468      3466      3469      3466      3469      3470
      3466      3469      3471      3466      3469      3472      3470      3469      3471
      3470      3469      3472      3471      3469      3472      3469      3472      3473
      3469      3472      3474      3469      3472      3475      3473      3472      3474
      3473      3472      3475      3474      3472      3475      3472      3475      3476
      3472      3475      3477      3472      3475      3478      3476      3475      3477
      3476      3475      3478      3477      3475      3478      3475      3478      3479
      3475      3478      3480      3475      3478      3481      3479      3478      3480
      3479      3478      3481      3480      3478      3481      3478      3481      3482
      3478      3481      3483      3478      3481      3484      3482      3481      3483
      3482      3481      3484      3483      3481      3484      3486      3485      3489
      3486      3485      3493      3486      3485      3497      3489      3485      3493
      3489      3485      3497      3493      3485      3497      3485      3486      3487
      3485      3486      3488      3485      3486      3501      3487      3486      3488
      3487      3486      3501      3488      3486      3501      3485      3489      3490
      3485      3489      3491      3485      3489      3492      3490      3489      3491
      3490      3489      3492      3491      3489      3492      3485      3493      3494
      3485      3493      3495      3485      3493      3496      3494      3493      3495
      3494      3493      3496      3495      3493      3496      3485      3497      3498
      3485      3497      3499      3485      3497      3500      3498      3497      3499
      3498      3497      3500      3499      3497      3500      3486      3501      3502
      3486      3501      3503      3486      3501      3507      3502      3501      3503
      3502      3501      3507      3503      3501      3507      3505      3504      3506
      3505      3504      3507      3505      3504      3508      3506      3504      3507
      3506      3504      3508      3507      3504      3508      3501      3507      3504
      3504      3508      3509      3508      3509      3510      3508      3509      3511
      3508      3509      3512      3510      3509      3511      3510      3509      3512
      3511      3509      3512      3509      3512      3513      3509      3512      3514
      3509      3512      3520      3513      3512      3514      3513      3512      3520
      3514      3512      3520      3512      3514      3515      3514      3515      3516
      3514      3515      3517      3516      3515      3517      3515      3517      3518
      3515      3517      3519      3515      3517      3529      3518      3517      3519
      3518      3517      3529      3519      3517      3529      3512      3520      3521
      3512      3520      3522      3512      3520      3523      3521      3520      3522
      3521      3520      3523      3522      3520      3523      3520      3523      3524
      3523      3524      3525      3523      3524      3526      3525      3524      3526
      3524      3526      3527      3524      3526      3528      3524      3526      3576
      3527      3526      3528      3527      3526      3576      3528      3526      3576
      3517      3529      3530      3517      3529      3531      3517      3529      3532
      3530      3529      3531      3530      3529      3532      3531      3529      3532
      3529      3532      3533      3529      3532      3534      3529      3532      3535
      3533      3532      3534      3533      3532      3535      3534      3532      3535
      3532      3535      3536      3532      3535      3537      3532      3535      3538
      3536      3535      3537      3536      3535      3538      3537      3535      3538
      3535      3538      3539      3535      3538      3540      3535      3538      3541
      3539      3538      3540      3539      3538      3541      3540      3538      3541
      3538      3541      3542      3538      3541      3543      3538      3541      3544
      3542      3541      3543      3542      3541      3544      3543      3541      3544
      3541      3544      3545      3541      3544      3546      3541      3544      3547
      3545      3544      3546      3545      3544      3547      3546      3544      3547
      3544      3547      3548      3544      3547      3549      3548      3547      3549
      3547      3549      3550      3547      3549      3551      3550      3549      3551
      3549      3551      3552      3549      3551      3553      3549      3551      3554
      3552      3551      3553      3552      3551      3554      3553      3551      3554
      3551      3554      3555      3551      3554      3556      3551      3554      3557
      3555      3554      3556      3555      3554      3557      3556      3554      3557
      3554      3557      3558      3554      3557      3559      3554      3557      3560
      3558      3557      3559      3558      3557      3560      3559      3557      3560
      3557      3560      3561      3557      3560      3562      3557      3560      3563
      3561      3560      3562      3561      3560      3563      3562      3560      3563
      3560      3563      3564      3560      3563      3565      3560      3563      3566
      3564      3563      3565      3564      3563      3566      3565      3563      3566
      3563      3566      3567      3563      3566      3568      3563      3566      3569
      3567      3566      3568      3567      3566      3569      3568      3566      3569
      3566      3569      3570      3566      3569      3571      3566      3569      3572
      3570      3569      3571      3570      3569      3572      3571      3569      3572
      3569      3572      3573      3569      3572      3574      3569      3572      3575
      3573      3572      3574      3573      3572      3575      3574      3572      3575
      3526      3576      3577      3526      3576      3578      3526      3576      3579
      3577      3576      3578      3577      3576      3579      3578      3576      3579
      3576      3579      3580      3576      3579      3581      3576      3579      3582
      3580      3579      3581      3580      3579      3582      3581      3579      3582
      3579      3582      3583      3579      3582      3584      3579      3582      3585
      3583      3582      3584      3583      3582      3585      3584      3582      3585
      3582      3585      3586      3582      3585      3587      3582      3585      3588
      3586      3585      3587      3586      3585      3588      3587      3585      3588
      3585      3588      3589      3585      3588      3590      3585      3588      3591
      3589      3588      3590      3589      3588      3591      3590      3588      3591
      3588      3591      3592      3588      3591      3593      3588      3591      3594
      3592      3591      3593      3592      3591      3594      3593      3591      3594
      3591      3594      3595      3591      3594      3596      3591      3594      3597
      3595      3594      3596      3595      3594      3597      3596      3594      3597
      3594      3597      3598      3594      3597      3599      3594      3597      3600
      3598      3597      3599      3598      3597      3600      3599      3597      3600
      3597      3600      3601      3597      3600      3602      3597      3600      3603
      3601      3600      3602      3601      3600      3603      3602      3600      3603
      3600      3603      3604      3600      3603      3605      3600      3603      3606
      3604      3603      3605      3604      3603      3606      3605      3603      3606
      3603      3606      3607      3603      3606      3608      3603      3606      3609
      3607      3606      3608      3607      3606      3609      3608      3606      3609
      3606      3609      3610      3606      3609      3611      3606      3609      3612
      3610      3609      3611      3610      3609      3612      3611      3609      3612
      3609      3612      3613      3609      3612      3614      3609      3612      3615
      3613      3612      3614      3613      3612      3615      3614      3612      3615
      3612      3615      3616      3612      3615      3617      3612      3615      3618
      3616      3615      3617      3616      3615      3618      3617      3615      3618
      3620      3619      3623      3620      3619      3627      3620      3619      3631
      3623      3619      3627      3623      3619      3631      3627      3619      3631
      3619      3620      3621      3619      3620      3622      3619      3620      3635
      3621      3620      3622      3621      3620      3635      3622      3620      3635
      3619      3623      3624      3619      3623      3625      3619      3623      3626
      3624      3623      3625      3624      3623      3626      3625      3623      3626
      3619      3627      3628      3619      3627      3629      3619      3627      3630
      3628      3627      3629      3628      3627      3630      3629      3627      3630
      3619      3631      3632      3619      3631      3633      3619      3631      3634
      3632      3631      3633      3632      3631      3634      3633      3631      3634
      3620      3635      3636      3620      3635      3637      3620      3635      3641
      3636      3635      3637      3636      3635      3641      3637      3635      3641
      3639      3638      3640      3639      3638      3641      3639      3638      3642
      3640      3638      3641      3640      3638      3642      3641      3638      3642
      3635      3641      3638      3638      3642      3643      3642      3643      3644
      3642      3643      3645      3642      3643      3646      3644      3643      3645
      3644      3643      3646      3645      3643      3646      3643      3646      3647
      3643      3646      3648      3643      3646      3654      3647      3646      3648
      3647      3646      3654      3648      3646      3654      3646      3648      3649
      3648      3649      3650      3648      3649      3651      3650      3649      3651
      3649      3651      3652      3649      3651      3653      3649      3651      3663
      3652      3651      3653      3652      3651      3663      3653      3651      3663
      3646      3654      3655      3646      3654      3656      3646      3654      3657
      3655      3654      3656      3655      3654      3657      3656      3654      3657
      3654      3657      3658      3657      3658      3659      3657      3658      3660
      3659      3658      3660      3658      3660      3661      3658      3660      3662
      3658      3660      3710      3661      3660      3662      3661      3660      3710
      3662      3660      3710      3651      3663      3664      3651      3663      3665
      3651      3663      3666      3664      3663      3665      3664      3663      3666
      3665      3663      3666      3663      3666      3667      3663      3666      3668
      3663      3666      3669      3667      3666      3668      3667      3666      3669
      3668      3666      3669      3666      3669      3670      3666      3669      3671
      3666      3669      3672      3670      3669      3671      3670      3669      3672
      3671      3669      3672      3669      3672      3673      3669      3672      3674
      3669      3672      3675      3673      3672      3674      3673      3672      3675
      3674      3672      3675      3672      3675      3676      3672      3675      3677
      3672      3675      3678      3676      3675      3677      3676      3675      3678
      3677      3675      3678      3675      3678      3679      3675      3678      3680
      3675      3678      3681      3679      3678      3680      3679      3678      3681
      3680      3678      3681      3678      3681      3682      3678      3681      3683
      3682      3681      3683      3681      3683      3684      3681      3683      3685
      3684      3683      3685      3683      3685      3686      3683      3685      3687
      3683      3685      3688      3686      3685      3687      3686      3685      3688
      3687      3685      3688      3685      3688      3689      3685      3688      3690
      3685      3688      3691      3689      3688      3690      3689      3688      3691
      3690      3688      3691      3688      3691      3692      3688      3691      3693
      3688      3691      3694      3692      3691      3693      3692      3691      3694
      3693      3691      3694      3691      3694      3695      3691      3694      3696
      3691      3694      3697      3695      3694      3696      3695      3694      3697
      3696      3694      3697      3694      3697      3698      3694      3697      3699
      3694      3697      3700      3698      3697      3699      3698      3697      3700
      3699      3697      3700      3697      3700      3701      3697      3700      3702
      3697      3700      3703      3701      3700      3702      3701      3700      3703
      3702      3700      3703      3700      3703      3704      3700      3703      3705
      3700      3703      3706      3704      3703      3705      3704      3703      3706
      3705      3703      3706      3703      3706      3707      3703      3706      3708
      3703      3706      3709      3707      3706      3708      3707      3706      3709
      3708      3706      3709      3660      3710      3711      3660      3710      3712
      3660      3710      3713      3711      3710      3712      3711      3710      3713
      3712      3710      3713      3710      3713      3714      3710      3713      3715
      3710      3713      3716      3714      3713      3715      3714      3713      3716
      3715      3713      3716      3713      3716      3717      3713      3716      3718
      3713      3716      3719      3717      3716      3718      3717      3716      3719
      3718      3716      3719      3716      3719      3720      3716      3719      3721
      3716      3719      3722      3720      3719      3721      3720      3719      3722
      3721      3719      3722      3719      3722      3723      3719      3722      3724
      3719      3722      3725      3723      3722      3724      3723      3722      3725
      3724      3722      3725      3722      3725      3726      3722      3725      3727
      3722      3725      3728      3726      3725      3727      3726      3725      3728
      3727      3725      3728      3725      3728      3729      3725      3728      3730
      3725      3728      3731      3729      3728      3730      3729      3728      3731
      3730      3728      3731      3728      3731      3732      3728      3731      3733
      3728      3731      3734      3732      3731      3733      3732      3731      3734
      3733      3731      3734      3731      3734      3735      3731      3734      3736
      3731      3734      3737      3735      3734      3736      3735      3734      3737
      3736      3734      3737      3734      3737      3738      3734      3737      3739
      3734      3737      3740      3738      3737      3739      3738      3737      3740
      3739      3737      3740      3737      3740      3741      3737      3740      3742
      3737      3740      3743      3741      3740      3742      3741      3740      3743
      3742      3740      3743      3740      3743      3744      3740      3743      3745
      3740      3743      3746      3744      3743      3745      3744      3743      3746
      3745      3743      3746      3743      3746      3747      3743      3746      3748
      3743      3746      3749      3747      3746      3748      3747      3746      3749
      3748      3746      3749      3746      3749      3750      3746      3749      3751
      3746      3749      3752      3750      3749      3751      3750      3749      3752
      3751      3749      3752      3754      3753      3757      3754      3753      3761
      3754      3753      3765      3757      3753      3761      3757      3753      3765
      3761      3753      3765      3753      3754      3755      3753      3754      3756
      3753      3754      3769      3755      3754      3756      3755      3754      3769
      3756      3754      3769      3753      3757      3758      3753      3757      3759
      3753      3757      3760      3758      3757      3759      3758      3757      3760
      3759      3757      3760      3753      3761      3762      3753      3761      3763
      3753      3761      3764      3762      3761      3763      3762      3761      3764
      3763      3761      3764      3753      3765      3766      3753      3765      3767
      3753      3765      3768      3766      3765      3767      3766      3765      3768
      3767      3765      3768      3754      3769      3770      3754      3769      3771
      3754      3769      3775      3770      3769      3771      3770      3769      3775
      3771      3769      3775      3773      3772      3774      3773      3772      3775
      3773      3772      3776      3774      3772      3775      3774      3772      3776
      3775      3772      3776      3769      3775      3772      3772      3776      3777
      3776      3777      3778      3776      3777      3779      3776      3777      3780
      3778      3777      3779      3778      3777      3780      3779      3777      3780
      3777      3780      3781      3777      3780      3782      3777      3780      3788
      3781      3780      3782      3781      3780      3788      3782      3780      3788
      3780      3782      3783      3782      3783      3784      3782      3783      3785
      3784      3783      3785      3783      3785      3786      3783      3785      3787
      3783      3785      3797      3786      3785      3787      3786      3785      3797
      3787      3785      3797      3780      3788      3789      3780      3788      3790
      3780      3788      3791      3789      3788      3790      3789      3788      3791
      3790      3788      3791      3788      3791      3792      3791      3792      3793
      3791      3792      3794      3793      3792      3794      3792      3794      3795
      3792      3794      3796      3792      3794      3844      3795      3794      3796
      3795      3794      3844      3796      3794      3844      3785      3797      3798
      3785      3797      3799      3785      3797      3800      3798      3797      3799
      3798      3797      3800      3799      3797      3800      3797      3800      3801
      3797      3800      3802      3797      3800      3803      3801      3800      3802
      3801      3800      3803      3802      3800      3803      3800      3803      3804
      3800      3803      3805      3800      3803      3806      3804      3803      3805
      3804      3803      3806      3805      3803      3806      3803      3806      3807
      3803      3806      3808      3803      3806      3809      3807      3806      3808
      3807      3806      3809      3808      3806      3809      3806      3809      3810
      3806      3809      3811      3806      3809      3812      3810      3809      3811
      3810      3809      3812      3811      3809      3812      3809      3812      3813
      3809      3812      3814      3809      3812      3815      3813      3812      3814
      3813      3812      3815      3814      3812      3815      3812      3815      3816
      3812      3815      3817      3816      3815      3817      3815      3817      3818
      3815      3817      3819      3818      3817      3819      3817      3819      3820
      3817      3819      3821      3817      3819      3822      3820      3819      3821
      3820      3819      3822      3821      3819      3822      3819      3822      3823
      3819      3822      3824      3819      3822      3825      3823      3822      3824
      3823      3822      3825      3824      3822      3825      3822      3825      3826
      3822      3825      3827      3822      3825      3828      3826      3825      3827
      3826      3825      3828      3827      3825      3828      3825      3828      3829
      3825      3828      3830      3825      3828      3831      3829      3828      3830
      3829      3828      3831      3830      3828      3831      3828      3831      3832
      3828      3831      3833      3828      3831      3834      3832      3831      3833
      3832      3831      3834      3833      3831      3834      3831      3834      3835
      3831      3834      3836      3831      3834      3837      3835      3834      3836
      3835      3834      3837      3836      3834      3837      3834      3837      3838
      3834      3837      3839      3834      3837      3840      3838      3837      3839
      3838      3837      3840      3839      3837      3840      3837      3840      3841
      3837      3840      3842      3837      3840      3843      3841      3840      3842
      3841      3840      3843      3842      3840      3843      3794      3844      3845
      3794      3844      3846      3794      3844      3847      3845      3844      3846
      3845      3844      3847      3846      3844      3847      3844      3847      3848
      3844      3847      3849      3844      3847      3850      3848      3847      3849
      3848      3847      3850      3849      3847      3850      3847      3850      3851
      3847      3850      3852      3847      3850      3853      3851      3850      3852
      3851      3850      3853      3852      3850      3853      3850      3853      3854
      3850      3853      3855      3850      3853      3856      3854      3853      3855
      3854      3853      3856      3855      3853      3856      3853      3856      3857
      3853      3856      3858      3853      3856      3859      3857      3856      3858
      3857      3856      3859      3858      3856      3859      3856      3859      3860
      3856      3859      3861      3856      3859      3862      3860      3859      3861
      3860      3859      3862      3861      3859      3862      3859      3862      3863
      3859      3862      3864      3859      3862      3865      3863      3862      3864
      3863      3862      3865      3864      3862      3865      3862      3865      3866
      3862      3865      3867      3862      3865      3868      3866      3865      3867
      3866      3865      3868      3867      3865      3868      3865      3868      3869
      3865      3868      3870      3865      3868      3871      3869      3868      3870
      3869      3868      3871      3870      3868      3871      3868      3871      3872
      3868      3871      3873      3868      3871      3874      3872      3871      3873
      3872      3871      3874      3873      3871      3874      3871      3874      3875
      3871      3874      3876      3871      3874      3877      3875      3874      3876
      3875      3874      3877      3876      3874      3877      3874      3877      3878
      3874      3877      3879      3874      3877      3880      3878      3877      3879
      3878      3877      3880      3879      3877      3880      3877      3880      3881
      3877      3880      3882      3877      3880      3883      3881      3880      3882
      3881      3880      3883      3882      3880      3883      3880      3883      3884
      3880      3883      3885      3880      3883      3886      3884      3883      3885
      3884      3883      3886      3885      3883      3886      3888      3887      3891
      3888      3887      3895      3888      3887      3899      3891      3887      3895
      3891      3887      3899      3895      3887      3899      3887      3888      3889
      3887      3888      3890      3887      3888      3903      3889      3888      3890
      3889      3888      3903      3890      3888      3903      3887      3891      3892
      3887      3891      3893      3887      3891      3894      3892      3891      3893
      3892      3891      3894      3893      3891      3894      3887      3895      3896
      3887      3895      3897      3887      3895      3898      3896      3895      3897
      3896      3895      3898      3897      3895      3898      3887      3899      3900
      3887      3899      3901      3887      3899      3902      3900      3899      3901
      3900      3899      3902      3901      3899      3902      3888      3903      3904
      3888      3903      3905      3888      3903      3909      3904      3903      3905
      3904      3903      3909      3905      3903      3909      3907      3906      3908
      3907      3906      3909      3907      3906      3910      3908      3906      3909
      3908      3906      3910      3909      3906      3910      3903      3909      3906
      3906      3910      3911      3910      3911      3912      3910      3911      3913
      3910      3911      3914      3912      3911      3913      3912      3911      3914
      3913      3911      3914      3911      3914      3915      3911      3914      3916
      3911      3914      3922      3915      3914      3916      3915      3914      3922
      3916      3914      3922      3914      3916      3917      3916      3917      3918
      3916      3917      3919      3918      3917      3919      3917      3919      3920
      3917      3919      3921      3917      3919      3931      3920      3919      3921
      3920      3919      3931      3921      3919      3931      3914      3922      3923
      3914      3922      3924      3914      3922      3925      3923      3922      3924
      3923      3922      3925      3924      3922      3925      3922      3925      3926
      3925      3926      3927      3925      3926      3928      3927      3926      3928
      3926      3928      3929      3926      3928      3930      3926      3928      3978
      3929      3928      3930      3929      3928      3978      3930      3928      3978
      3919      3931      3932      3919      3931      3933      3919      3931      3934
      3932      3931      3933      3932      3931      3934      3933      3931      3934
      3931      3934      3935      3931      3934      3936      3931      3934      3937
      3935      3934      3936      3935      3934      3937      3936      3934      3937
      3934      3937      3938      3934      3937      3939      3934      3937      3940
      3938      3937      3939      3938      3937      3940      3939      3937      3940
      3937      3940      3941      3937      3940      3942      3937      3940      3943
      3941      3940      3942      3941      3940      3943      3942      3940      3943
      3940      3943      3944      3940      3943      3945      3940      3943      3946
      3944      3943      3945      3944      3943      3946      3945      3943      3946
      3943      3946      3947      3943      3946      3948      3943      3946      3949
      3947      3946      3948      3947      3946      3949      3948      3946      3949
      3946      3949      3950      3946      3949      3951      3950      3949      3951
      3949      3951      3952      3949      3951      3953      3952      3951      3953
      3951      3953      3954      3951      3953      3955      3951      3953      3956
      3954      3953      3955      3954      3953      3956      3955      3953      3956
      3953      3956      3957      3953      3956      3958      3953      3956      3959
      3957      3956      3958      3957      3956      3959      3958      3956      3959
      3956      3959      3960      3956      3959      3961      3956      3959      3962
      3960      3959      3961      3960      3959      3962      3961      3959      3962
      3959      3962      3963      3959      3962      3964      3959      3962      3965
      3963      3962      3964      3963      3962      3965      3964      3962      3965
      3962      3965      3966      3962      3965      3967      3962      3965      3968
      3966      3965      3967      3966      3965      3968      3967      3965      3968
      3965      3968      3969      3965      3968      3970      3965      3968      3971
      3969      3968      3970      3969      3968      3971      3970      3968      3971
      3968      3971      3972      3968      3971      3973      3968      3971      3974
      3972      3971      3973      3972      3971      3974      3973      3971      3974
      3971      3974      3975      3971      3974      3976      3971      3974      3977
      3975      3974      3976      3975      3974      3977      3976      3974      3977
      3928      3978      3979      3928      3978      3980      3928      3978      3981
      3979      3978      3980      3979      3978      3981      3980      3978      3981
      3978      3981      3982      3978      3981      3983      3978      3981      3984
      3982      3981      3983      3982      3981      3984      3983      3981      3984
      3981      3984      3985      3981      3984      3986      3981      3984      3987
      3985      3984      3986      3985      3984      3987      3986      3984      3987
      3984      3987      3988      3984      3987      3989      3984      3987      3990
      3988      3987      3989      3988      3987      3990      3989      3987      3990
      3987      3990      3991      3987      3990      3992      3987      3990      3993
      3991      3990      3992      3991      3990      3993      3992      3990      3993
      3990      3993      3994      3990      3993      3995      3990      3993      3996
      3994      3993      3995      3994      3993      3996      3995      3993      3996
      3993      3996      3997      3993      3996      3998      3993      3996      3999
      3997      3996      3998      3997      3996      3999      3998      3996      3999
      3996      3999      4000      3996      3999      4001      3996      3999      4002
      4000      3999      4001      4000      3999      4002      4001      3999      4002
      3999      4002      4003      3999      4002      4004      3999      4002      4005
      4003      4002      4004      4003      4002      4005      4004      4002      4005
      4002      4005      4006      4002      4005      4007      4002      4005      4008
      4006      4005      4007      4006      4005      4008      4007      4005      4008
      4005      4008      4009      4005      4008      4010      4005      4008      4011
      4009      4008      4010      4009      4008      4011      4010      4008      4011
      4008      4011      4012      4008      4011      4013      4008      4011      4014
      4012      4011      4013      4012      4011      4014      4013      4011      4014
      4011      4014      4015      4011      4014      4016      4011      4014      4017
      4015      4014      4016      4015      4014      4017      4016      4014      4017
      4014      4017      4018      4014      4017      4019      4014      4017      4020
      4018      4017      4019      4018      4017      4020      4019      4017      4020
      4022      4021      4025      4022      4021      4029      4022      4021      4033
      4025      4021      4029      4025      4021      4033      4029      4021      4033
      4021      4022      4023      4021      4022      4024      4021      4022      4037
      4023      4022      4024      4023      4022      4037      4024      4022      4037
      4021      4025      4026      4021      4025      4027      4021      4025      4028
      4026      4025      4027      4026      4025      4028      4027      4025      4028
      4021      4029      4030      4021      4029      4031      4021      4029      4032
      4030      4029      4031      4030      4029      4032      4031      4029      4032
      4021      4033      4034      4021      4033      4035      4021      4033      4036
      4034      4033      4035      4034      4033      4036      4035      4033      4036
      4022      4037      4038      4022      4037      4039      4022      4037      4043
      4038      4037      4039      4038      4037      4043      4039      4037      4043
      4041      4040      4042      4041      4040      4043      4041      4040      4044
      4042      4040      4043      4042      4040      4044      4043      4040      4044
      4037      4043      4040      4040      4044      4045      4044      4045      4046
      4044      4045      4047      4044      4045      4048      4046      4045      4047
      4046      4045      4048      4047      4045      4048      4045      4048      4049
      4045      4048      4050      4045      4048      4056      4049      4048      4050
      4049      4048      4056      4050      4048      4056      4048      4050      4051
      4050      4051      4052      4050      4051      4053      4052      4051      4053
      4051      4053      4054      4051      4053      4055      4051      4053      4065
      4054      4053      4055      4054      4053      4065      4055      4053      4065
      4048      4056      4057      4048      4056      4058      4048      4056      4059
      4057      4056      4058      4057      4056      4059      4058      4056      4059
      4056      4059      4060      4059      4060      4061      4059      4060      4062
      4061      4060      4062      4060      4062      4063      4060      4062      4064
      4060      4062      4112      4063      4062      4064      4063      4062      4112
      4064      4062      4112      4053      4065      4066      4053      4065      4067
      4053      4065      4068      4066      4065      4067      4066      4065      4068
      4067      4065      4068      4065      4068      4069      4065      4068      4070
      4065      4068      4071      4069      4068      4070      4069      4068      4071
      4070      4068      4071      4068      4071      4072      4068      4071      4073
      4068      4071      4074      4072      4071      4073      4072      4071      4074
      4073      4071      4074      4071      4074      4075      4071      4074      4076
      4071      4074      4077      4075      4074      4076      4075      4074      4077
      4076      4074      4077      4074      4077      4078      4074      4077      4079
      4074      4077      4080      4078      4077      4079      4078      4077      4080
      4079      4077      4080      4077      4080      4081      4077      4080      4082
      4077      4080      4083      4081      4080      4082      4081      4080      4083
      4082      4080      4083      4080      4083      4084      4080      4083      4085
      4084      4083      4085      4083      4085      4086      4083      4085      4087
      4086      4085      4087      4085      4087      4088      4085      4087      4089
      4085      4087      4090      4088      4087      4089      4088      4087      4090
      4089      4087      4090      4087      4090      4091      4087      4090      4092
      4087      4090      4093      4091      4090      4092      4091      4090      4093
      4092      4090      4093      4090      4093      4094      4090      4093      4095
      4090      4093      4096      4094      4093      4095      4094      4093      4096
      4095      4093      4096      4093      4096      4097      4093      4096      4098
      4093      4096      4099      4097      4096      4098      4097      4096      4099
      4098      4096      4099      4096      4099      4100      4096      4099      4101
      4096      4099      4102      4100      4099      4101      4100      4099      4102
      4101      4099      4102      4099      4102      4103      4099      4102      4104
      4099      4102      4105      4103      4102      4104      4103      4102      4105
      4104      4102      4105      4102      4105      4106      4102      4105      4107
      4102      4105      4108      4106      4105      4107      4106      4105      4108
      4107      4105      4108      4105      4108      4109      4105      4108      4110
      4105      4108      4111      4109      4108      4110      4109      4108      4111
      4110      4108      4111      4062      4112      4113      4062      4112      4114
      4062      4112      4115      4113      4112      4114      4113      4112      4115
      4114      4112      4115      4112      4115      4116      4112      4115      4117
      4112      4115      4118      4116      4115      4117      4116      4115      4118
      4117      4115      4118      4115      4118      4119      4115      4118      4120
      4115      4118      4121      4119      4118      4120      4119      4118      4121
      4120      4118      4121      4118      4121      4122      4118      4121      4123
      4118      4121      4124      4122      4121      4123      4122      4121      4124
      4123      4121      4124      4121      4124      4125      4121      4124      4126
      4121      4124      4127      4125      4124      4126      4125      4124      4127
      4126      4124      4127      4124      4127      4128      4124      4127      4129
      4124      4127      4130      4128      4127      4129      4128      4127      4130
      4129      4127      4130      4127      4130      4131      4127      4130      4132
      4127      4130      4133      4131      4130      4132      4131      4130      4133
      4132      4130      4133      4130      4133      4134      4130      4133      4135
      4130      4133      4136      4134      4133      4135      4134      4133      4136
      4135      4133      4136      4133      4136      4137      4133      4136      4138
      4133      4136      4139      4137      4136      4138      4137      4136      4139
      4138      4136      4139      4136      4139      4140      4136      4139      4141
      4136      4139      4142      4140      4139      4141      4140      4139      4142
      4141      4139      4142      4139      4142      4143      4139      4142      4144
      4139      4142      4145      4143      4142      4144      4143      4142      4145
      4144      4142      4145      4142      4145      4146      4142      4145      4147
      4142      4145      4148      4146      4145      4147      4146      4145      4148
      4147      4145      4148      4145      4148      4149      4145      4148      4150
      4145      4148      4151      4149      4148      4150      4149      4148      4151
      4150      4148      4151      4148      4151      4152      4148      4151      4153
      4148      4151      4154      4152      4151      4153      4152      4151      4154
      4153      4151      4154      4156      4155      4159      4156      4155      4163
      4156      4155      4167      4159      4155      4163      4159      4155      4167
      4163      4155      4167      4155      4156      4157      4155      4156      4158
      4155      4156      4171      4157      4156      4158      4157      4156      4171
      4158      4156      4171      4155      4159      4160      4155      4159      4161
      4155      4159      4162      4160      4159      4161      4160      4159      4162
      4161      4159      4162      4155      4163      4164      4155      4163      4165
      4155      4163      4166      4164      4163      4165      4164      4163      4166
      4165      4163      4166      4155      4167      4168      4155      4167      4169
      4155      4167      4170      4168      4167      4169      4168      4167      4170
      4169      4167      4170      4156      4171      4172      4156      4171      4173
      4156      4171      4177      4172      4171      4173      4172      4171      4177
      4173      4171      4177      4175      4174      4176      4175      4174      4177
      4175      4174      4178      4176      4174      4177      4176      4174      4178
      4177      4174      4178      4171      4177      4174      4174      4178      4179
      4178      4179      4180      4178      4179      4181      4178      4179      4182
      4180      4179      4181      4180      4179      4182      4181      4179      4182
      4179      4182      4183      4179      4182      4184      4179      4182      4190
      4183      4182      4184      4183      4182      4190      4184      4182      4190
      4182      4184      4185      4184      4185      4186      4184      4185      4187
      4186      4185      4187      4185      4187      4188      4185      4187      4189
      4185      4187      4199      4188      4187      4189      4188      4187      4199
      4189      4187      4199      4182      4190      4191      4182      4190      4192
      4182      4190      4193      4191      4190      4192      4191      4190      4193
      4192      4190      4193      4190      4193      4194      4193      4194      4195
      4193      4194      4196      4195      4194      4196      4194      4196      4197
      4194      4196      4198      4194      4196      4246      4197      4196      4198
      4197      4196      4246      4198      4196      4246      4187      4199      4200
      4187      4199      4201      4187      4199      4202      4200      4199      4201
      4200      4199      4202      4201      4199      4202      4199      4202      4203
      4199      4202      4204      4199      4202      4205      4203      4202      4204
      4203      4202      4205      4204      4202      4205      4202      4205      4206
      4202      4205      4207      4202      4205      4208      4206      4205      4207
      4206      4205      4208      4207      4205      4208      4205      4208      4209
      4205      4208      4210      4205      4208      4211      4209      4208      4210
      4209      4208      4211      4210      4208      4211      4208      4211      4212
      4208      4211      4213      4208      4211      4214      4212      4211      4213
      4212      4211      4214      4213      4211      4214      4211      4214      4215
      4211      4214      4216      4211      4214      4217      4215      4214      4216
      4215      4214      4217      4216      4214      4217      4214      4217      4218
      4214      4217      4219      4218      4217      4219      4217      4219      4220
      4217      4219      4221      4220      4219      4221      4219      4221      4222
      4219      4221      4223      4219      4221      4224      4222      4221      4223
      4222      4221      4224      4223      4221      4224      4221      4224      4225
      4221      4224      4226      4221      4224      4227      4225      4224      4226
      4225      4224      4227      4226      4224      4227      4224      4227      4228
      4224      4227      4229      4224      4227      4230      4228      4227      4229
      4228      4227      4230      4229      4227      4230      4227      4230      4231
      4227      4230      4232      4227      4230      4233      4231      4230      4232
      4231      4230      4233      4232      4230      4233      4230      4233      4234
      4230      4233      4235      4230      4233      4236      4234      4233      4235
      4234      4233      4236      4235      4233      4236      4233      4236      4237
      4233      4236      4238      4233      4236      4239      4237      4236      4238
      4237      4236      4239      4238      4236      4239      4236      4239      4240
      4236      4239      4241      4236      4239      4242      4240      4239      4241
      4240      4239      4242      4241      4239      4242      4239      4242      4243
      4239      4242      4244      4239      4242      4245      4243      4242      4244
      4243      4242      4245      4244      4242      4245      4196      4246      4247
      4196      4246      4248      4196      4246      4249      4247      4246      4248
      4247      4246      4249      4248      4246      4249      4246      4249      4250
      4246      4249      4251      4246      4249      4252      4250      4249      4251
      4250      4249      4252      4251      4249      4252      4249      4252      4253
      4249      4252      4254      4249      4252      4255      4253      4252      4254
      4253      4252      4255      4254      4252      4255      4252      4255      4256
      4252      4255      4257      4252      4255      4258      4256      4255      4257
      4256      4255      4258      4257      4255      4258      4255      4258      4259
      4255      4258      4260      4255      4258      4261      4259      4258      4260
      4259      4258      4261      4260      4258      4261      4258      4261      4262
      4258      4261      4263      4258      4261      4264      4262      4261      4263
      4262      4261      4264      4263      4261      4264      4261      4264      4265
      4261      4264      4266      4261      4264      4267      4265      4264      4266
      4265      4264      4267      4266      4264      4267      4264      4267      4268
      4264      4267      4269      4264      4267      4270      4268      4267      4269
      4268      4267      4270      4269      4267      4270      4267      4270      4271
      4267      4270      4272      4267      4270      4273      4271      4270      4272
      4271      4270      4273      4272      4270      4273      4270      4273      4274
      4270      4273      4275      4270      4273      4276      4274      4273      4275
      4274      4273      4276      4275      4273      4276      4273      4276      4277
      4273      4276      4278      4273      4276      4279      4277      4276      4278
      4277      4276      4279      4278      4276      4279      4276      4279      4280
      4276      4279      4281      4276      4279      4282      4280      4279      4281
      4280      4279      4282      4281      4279      4282      4279      4282      4283
      4279      4282      4284      4279      4282      4285      4283      4282      4284
      4283      4282      4285      4284      4282      4285      4282      4285      4286
      4282      4285      4287      4282      4285      4288      4286      4285      4287
      4286      4285      4288      4287      4285      4288      4290      4289      4293
      4290      4289      4297      4290      4289      4301      4293      4289      4297
      4293      4289      4301      4297      4289      4301      4289      4290      4291
      4289      4290      4292      4289      4290      4305      4291      4290      4292
      4291      4290      4305      4292      4290      4305      4289      4293      4294
      4289      4293      4295      4289      4293      4296      4294      4293      4295
      4294      4293      4296      4295      4293      4296      4289      4297      4298
      4289      4297      4299      4289      4297      4300      4298      4297      4299
      4298      4297      4300      4299      4297      4300      4289      4301      4302
      4289      4301      4303      4289      4301      4304      4302      4301      4303
      4302      4301      4304      4303      4301      4304      4290      4305      4306
      4290      4305      4307      4290      4305      4311      4306      4305      4307
      4306      4305      4311      4307      4305      4311      4309      4308      4310
      4309      4308      4311      4309      4308      4312      4310      4308      4311
      4310      4308      4312      4311      4308      4312      4305      4311      4308
      4308      4312      4313      4312      4313      4314      4312      4313      4315
      4312      4313      4316      4314      4313      4315      4314      4313      4316
      4315      4313      4316      4313      4316      4317      4313      4316      4318
      4313      4316      4324      4317      4316      4318      4317      4316      4324
      4318      4316      4324      4316      4318      4319      4318      4319      4320
      4318      4319      4321      4320      4319      4321      4319      4321      4322
      4319      4321      4323      4319      4321      4333      4322      4321      4323
      4322      4321      4333      4323      4321      4333      4316      4324      4325
      4316      4324      4326      4316      4324      4327      4325      4324      4326
      4325      4324      4327      4326      4324      4327      4324      4327      4328
      4327      4328      4329      4327      4328      4330      4329      4328      4330
      4328      4330      4331      4328      4330      4332      4328      4330      4380
      4331      4330      4332      4331      4330      4380      4332      4330      4380
      4321      4333      4334      4321      4333      4335      4321      4333      4336
      4334      4333      4335      4334      4333      4336      4335      4333      4336
      4333      4336      4337      4333      4336      4338      4333      4336      4339
      4337      4336      4338      4337      4336      4339      4338      4336      4339
      4336      4339      4340      4336      4339      4341      4336      4339      4342
      4340      4339      4341      4340      4339      4342      4341      4339      4342
      4339      4342      4343      4339      4342      4344      4339      4342      4345
      4343      4342      4344      4343      4342      4345      4344      4342      4345
      4342      4345      4346      4342      4345      4347      4342      4345      4348
      4346      4345      4347      4346      4345      4348      4347      4345      4348
      4345      4348      4349      4345      4348      4350      4345      4348      4351
      4349      4348      4350      4349      4348      4351      4350      4348      4351
      4348      4351      4352      4348      4351      4353      4352      4351      4353
      4351      4353      4354      4351      4353      4355      4354      4353      4355
      4353      4355      4356      4353      4355      4357      4353      4355      4358
      4356      4355      4357      4356      4355      4358      4357      4355      4358
      4355      4358      4359      4355      4358      4360      4355      4358      4361
      4359      4358      4360      4359      4358      4361      4360      4358      4361
      4358      4361      4362      4358      4361      4363      4358      4361      4364
      4362      4361      4363      4362      4361      4364      4363      4361      4364
      4361      4364      4365      4361      4364      4366      4361      4364      4367
      4365      4364      4366      4365      4364      4367      4366      4364      4367
      4364      4367      4368      4364      4367      4369      4364      4367      4370
      4368      4367      4369      4368      4367      4370      4369      4367      4370
      4367      4370      4371      4367      4370      4372      4367      4370      4373
      4371      4370      4372      4371      4370      4373      4372      4370      4373
      4370      4373      4374      4370      4373      4375      4370      4373      4376
      4374      4373      4375      4374      4373      4376      4375      4373      4376
      4373      4376      4377      4373      4376      4378      4373      4376      4379
      4377      4376      4378      4377      4376      4379      4378      4376      4379
      4330      4380      4381      4330      4380      4382      4330      4380      4383
      4381      4380      4382      4381      4380      4383      4382      4380      4383
      4380      4383      4384      4380      4383      4385      4380      4383      4386
      4384      4383      4385      4384      4383      4386      4385      4383      4386
      4383      4386      4387      4383      4386      4388      4383      4386      4389
      4387      4386      4388      4387      4386      4389      4388      4386      4389
      4386      4389      4390      4386      4389      4391      4386      4389      4392
      4390      4389      4391      4390      4389      4392      4391      4389      4392
      4389      4392      4393      4389      4392      4394      4389      4392      4395
      4393      4392      4394      4393      4392      4395      4394      4392      4395
      4392      4395      4396      4392      4395      4397      4392      4395      4398
      4396      4395      4397      4396      4395      4398      4397      4395      4398
      4395      4398      4399      4395      4398      4400      4395      4398      4401
      4399      4398      4400      4399      4398      4401      4400      4398      4401
      4398      4401      4402      4398      4401      4403      4398      4401      4404
      4402      4401      4403      4402      4401      4404      4403      4401      4404
      4401      4404      4405      4401      4404      4406      4401      4404      4407
      4405      4404      4406      4405      4404      4407      4406      4404      4407
      4404      4407      4408      4404      4407      4409      4404      4407      4410
      4408      4407      4409      4408      4407      4410      4409      4407      4410
      4407      4410      4411      4407      4410      4412      4407      4410      4413
      4411      4410      4412      4411      4410      4413      4412      4410      4413
      4410      4413      4414      4410      4413      4415      4410      4413      4416
      4414      4413      4415      4414      4413      4416      4415      4413      4416
      4413      4416      4417      4413      4416      4418      4413      4416      4419
      4417      4416      4418      4417      4416      4419      4418      4416      4419
      4416      4419      4420      4416      4419      4421      4416      4419      4422
      4420      4419      4421      4420      4419      4422      4421      4419      4422
      4424      4423      4427      4424      4423      4431      4424      4423      4435
      4427      4423      4431      4427      4423      4435      4431      4423      4435
      4423      4424      4425      4423      4424      4426      4423      4424      4439
      4425      4424      4426      4425      4424      4439      4426      4424      4439
      4423      4427      4428      4423      4427      4429      4423      4427      4430
      4428      4427      4429      4428      4427      4430      4429      4427      4430
      4423      4431      4432      4423      4431      4433      4423      4431      4434
      4432      4431      4433      4432      4431      4434      4433      4431      4434
      4423      4435      4436      4423      4435      4437      4423      4435      4438
      4436      4435      4437      4436      4435      4438      4437      4435      4438
      4424      4439      4440      4424      4439      4441      4424      4439      4445
      4440      4439      4441      4440      4439      4445      4441      4439      4445
      4443      4442      4444      4443      4442      4445      4443      4442      4446
      4444      4442      4445      4444      4442      4446      4445      4442      4446
      4439      4445      4442      4442      4446      4447      4446      4447      4448
      4446      4447      4449      4446      4447      4450      4448      4447      4449
      4448      4447      4450      4449      4447      4450      4447      4450      4451
      4447      4450      4452      4447      4450      4458      4451      4450      4452
      4451      4450      4458      4452      4450      4458      4450      4452      4453
      4452      4453      4454      4452      4453      4455      4454      4453      4455
      4453      4455      4456      4453      4455      4457      4453      4455      4467
      4456      4455      4457      4456      4455      4467      4457      4455      4467
      4450      4458      4459      4450      4458      4460      4450      4458      4461
      4459      4458      4460      4459      4458      4461      4460      4458      4461
      4458      4461      4462      4461      4462      4463      4461      4462      4464
      4463      4462      4464      4462      4464      4465      4462      4464      4466
      4462      4464      4514      4465      4464      4466      4465      4464      4514
      4466      4464      4514      4455      4467      4468      4455      4467      4469
      4455      4467      4470      4468      4467      4469      4468      4467      4470
      4469      4467      4470      4467      4470      4471      4467      4470      4472
      4467      4470      4473      4471      4470      4472      4471      4470      4473
      4472      4470      4473      4470      4473      4474      4470      4473      4475
      4470      4473      4476      4474      4473      4475      4474      4473      4476
      4475      4473      4476      4473      4476      4477      4473      4476      4478
      4473      4476      4479      4477      4476      4478      4477      4476      4479
      4478      4476      4479      4476      4479      4480      4476      4479      4481
      4476      4479      4482      4480      4479      4481      4480      4479      4482
      4481      4479      4482      4479      4482      4483      4479      4482      4484
      4479      4482      4485      4483      4482      4484      4483      4482      4485
      4484      4482      4485      4482      4485      4486      4482      4485      4487
      4486      4485      4487      4485      4487      4488      4485      4487      4489
      4488      4487      4489      4487      4489      4490      4487      4489      4491
      4487      4489      4492      4490      4489      4491      4490      4489      4492
      4491      4489      4492      4489      4492      4493      4489      4492      4494
      4489      4492      4495      4493      4492      4494      4493      4492      4495
      4494      4492      4495      4492      4495      4496      4492      4495      4497
      4492      4495      4498      4496      4495      4497      4496      4495      4498
      4497      4495      4498      4495      4498      4499      4495      4498      4500
      4495      4498      4501      4499      4498      4500      4499      4498      4501
      4500      4498      4501      4498      4501      4502      4498      4501      4503
      4498      4501      4504      4502      4501      4503      4502      4501      4504
      4503      4501      4504      4501      4504      4505      4501      4504      4506
      4501      4504      4507      4505      4504      4506      4505      4504      4507
      4506      4504      4507      4504      4507      4508      4504      4507      4509
      4504      4507      4510      4508      4507      4509      4508      4507      4510
      4509      4507      4510      4507      4510      4511      4507      4510      4512
      4507      4510      4513      4511      4510      4512      4511      4510      4513
      4512      4510      4513      4464      4514      4515      4464      4514      4516
      4464      4514      4517      4515      4514      4516      4515      4514      4517
      4516      4514      4517      4514      4517      4518      4514      4517      4519
      4514      4517      4520      4518      4517      4519      4518      4517      4520
      4519      4517      4520      4517      4520      4521      4517      4520      4522
      4517      4520      4523      4521      4520      4522      4521      4520      4523
      4522      4520      4523      4520      4523      4524      4520      4523      4525
      4520      4523      4526      4524      4523      4525      4524      4523      4526
      4525      4523      4526      4523      4526      4527      4523      4526      4528
      4523      4526      4529      4527      4526      4528      4527      4526      4529
      4528      4526      4529      4526      4529      4530      4526      4529      4531
      4526      4529      4532      4530      4529      4531      4530      4529      4532
      4531      4529      4532      4529      4532      4533      4529      4532      4534
      4529      4532      4535      4533      4532      4534      4533      4532      4535
      4534      4532      4535      4532      4535      4536      4532      4535      4537
      4532      4535      4538      4536      4535      4537      4536      4535      4538
      4537      4535      4538      4535      4538      4539      4535      4538      4540
      4535      4538      4541      4539      4538      4540      4539      4538      4541
      4540      4538      4541      4538      4541      4542      4538      4541      4543
      4538      4541      4544      4542      4541      4543      4542      4541      4544
      4543      4541      4544      4541      4544      4545      4541      4544      4546
      4541      4544      4547      4545      4544      4546      4545      4544      4547
      4546      4544      4547      4544      4547      4548      4544      4547      4549
      4544      4547      4550      4548      4547      4549      4548      4547      4550
      4549      4547      4550      4547      4550      4551      4547      4550      4552
      4547      4550      4553      4551      4550      4552      4551      4550      4553
      4552      4550      4553      4550      4553      4554      4550      4553      4555
      4550      4553      4556      4554      4553      4555      4554      4553      4556
      4555      4553      4556      4558      4557      4561      4558      4557      4565
      4558      4557      4569      4561      4557      4565      4561      4557      4569
      4565      4557      4569      4557      4558      4559      4557      4558      4560
      4557      4558      4573      4559      4558      4560      4559      4558      4573
      4560      4558      4573      4557      4561      4562      4557      4561      4563
      4557      4561      4564      4562      4561      4563      4562      4561      4564
      4563      4561      4564      4557      4565      4566      4557      4565      4567
      4557      4565      4568      4566      4565      4567      4566      4565      4568
      4567      4565      4568      4557      4569      4570      4557      4569      4571
      4557      4569      4572      4570      4569      4571      4570      4569      4572
      4571      4569      4572      4558      4573      4574      4558      4573      4575
      4558      4573      4579      4574      4573      4575      4574      4573      4579
      4575      4573      4579      4577      4576      4578      4577      4576      4579
      4577      4576      4580      4578      4576      4579      4578      4576      4580
      4579      4576      4580      4573      4579      4576      4576      4580      4581
      4580      4581      4582      4580      4581      4583      4580      4581      4584
      4582      4581      4583      4582      4581      4584      4583      4581      4584
      4581      4584      4585      4581      4584      4586      4581      4584      4592
      4585      4584      4586      4585      4584      4592      4586      4584      4592
      4584      4586      4587      4586      4587      4588      4586      4587      4589
      4588      4587      4589      4587      4589      4590      4587      4589      4591
      4587      4589      4601      4590      4589      4591      4590      4589      4601
      4591      4589      4601      4584      4592      4593      4584      4592      4594
      4584      4592      4595      4593      4592      4594      4593      4592      4595
      4594      4592      4595      4592      4595      4596      4595      4596      4597
      4595      4596      4598      4597      4596      4598      4596      4598      4599
      4596      4598      4600      4596      4598      4648      4599      4598      4600
      4599      4598      4648      4600      4598      4648      4589      4601      4602
      4589      4601      4603      4589      4601      4604      4602      4601      4603
      4602      4601      4604      4603      4601      4604      4601      4604      4605
      4601      4604      4606      4601      4604      4607      4605      4604      4606
      4605      4604      4607      4606      4604      4607      4604      4607      4608
      4604      4607      4609      4604      4607      4610      4608      4607      4609
      4608      4607      4610      4609      4607      4610      4607      4610      4611
      4607      4610      4612      4607      4610      4613      4611      4610      4612
      4611      4610      4613      4612      4610      4613      4610      4613      4614
      4610      4613      4615      4610      4613      4616      4614      4613      4615
      4614      4613      4616      4615      4613      4616      4613      4616      4617
      4613      4616      4618      4613      4616      4619      4617      4616      4618
      4617      4616      4619      4618      4616      4619      4616      4619      4620
      4616      4619      4621      4620      4619      4621      4619      4621      4622
      4619      4621      4623      4622      4621      4623      4621      4623      4624
      4621      4623      4625      4621      4623      4626      4624      4623      4625
      4624      4623      4626      4625      4623      4626      4623      4626      4627
      4623      4626      4628      4623      4626      4629      4627      4626      4628
      4627      4626      4629      4628      4626      4629      4626      4629      4630
      4626      4629      4631      4626      4629      4632      4630      4629      4631
      4630      4629      4632      4631      4629      4632      4629      4632      4633
      4629      4632      4634      4629      4632      4635      4633      4632      4634
      4633      4632      4635      4634      4632      4635      4632      4635      4636
      4632      4635      4637      4632      4635      4638      4636      4635      4637
      4636      4635      4638      4637      4635      4638      4635      4638      4639
      4635      4638      4640      4635      4638      4641      4639      4638      4640
      4639      4638      4641      4640      4638      4641      4638      4641      4642
      4638      4641      4643      4638      4641      4644      4642      4641      4643
      4642      4641      4644      4643      4641      4644      4641      4644      4645
      4641      4644      4646      4641      4644      4647      4645      4644      4646
      4645      4644      4647      4646      4644      4647      4598      4648      4649
      4598      4648      4650      4598      4648      4651      4649      4648      4650
      4649      4648      4651      4650      4648      4651      4648      4651      4652
      4648      4651      4653      4648      4651      4654      4652      4651      4653
      4652      4651      4654      4653      4651      4654      4651      4654      4655
      4651      4654      4656      4651      4654      4657      4655      4654      4656
      4655      4654      4657      4656      4654      4657      4654      4657      4658
      4654      4657      4659      4654      4657      4660      4658      4657      4659
      4658      4657      4660      4659      4657      4660      4657      4660      4661
      4657      4660      4662      4657      4660      4663      4661      4660      4662
      4661      4660      4663      4662      4660      4663      4660      4663      4664
      4660      4663      4665      4660      4663      4666      4664      4663      4665
      4664      4663      4666      4665      4663      4666      4663      4666      4667
      4663      4666      4668      4663      4666      4669      4667      4666      4668
      4667      4666      4669      4668      4666      4669      4666      4669      4670
      4666      4669      4671      4666      4669      4672      4670      4669      4671
      4670      4669      4672      4671      4669      4672      4669      4672      4673
      4669      4672      4674      4669      4672      4675      4673      4672      4674
      4673      4672      4675      4674      4672      4675      4672      4675      4676
      4672      4675      4677      4672      4675      4678      4676      4675      4677
      4676      4675      4678      4677      4675      4678      4675      4678      4679
      4675      4678      4680      4675      4678      4681      4679      4678      4680
      4679      4678      4681      4680      4678      4681      4678      4681      4682
      4678      4681      4683      4678      4681      4684      4682      4681      4683
      4682      4681      4684      4683      4681      4684      4681      4684      4685
      4681      4684      4686      4681      4684      4687      4685      4684      4686
      4685      4684      4687      4686      4684      4687      4684      4687      4688
      4684      4687      4689      4684      4687      4690      4688      4687      4689
      4688      4687      4690      4689      4687      4690      4692      4691      4695
      4692      4691      4699      4692      4691      4703      4695      4691      4699
      4695      4691      4703      4699      4691      4703      4691      4692      4693
      4691      4692      4694      4691      4692      4707      4693      4692      4694
      4693      4692      4707      4694      4692      4707      4691      4695      4696
      4691      4695      4697      4691      4695      4698      4696      4695      4697
      4696      4695      4698      4697      4695      4698      4691      4699      4700
      4691      4699      4701      4691      4699      4702      4700      4699      4701
      4700      4699      4702      4701      4699      4702      4691      4703      4704
      4691      4703      4705      4691      4703      4706      4704      4703      4705
      4704      4703      4706      4705      4703      4706      4692      4707      4708
      4692      4707      4709      4692      4707      4713      4708      4707      4709
      4708      4707      4713      4709      4707      4713      4711      4710      4712
      4711      4710      4713      4711      4710      4714      4712      4710      4713
      4712      4710      4714      4713      4710      4714      4707      4713      4710
      4710      4714      4715      4714      4715      4716      4714      4715      4717
      4714      4715      4718      4716      4715      4717      4716      4715      4718
      4717      4715      4718      4715      4718      4719      4715      4718      4720
      4715      4718      4726      4719      4718      4720      4719      4718      4726
      4720      4718      4726      4718      4720      4721      4720      4721      4722
      4720      4721      4723      4722      4721      4723      4721      4723      4724
      4721      4723      4725      4721      4723      4735      4724      4723      4725
      4724      4723      4735      4725      4723      4735      4718      4726      4727
      4718      4726      4728      4718      4726      4729      4727      4726      4728
      4727      4726      4729      4728      4726      4729      4726      4729      4730
      4729      4730      4731      4729      4730      4732      4731      4730      4732
      4730      4732      4733      4730      4732      4734      4730      4732      4782
      4733      4732      4734      4733      4732      4782      4734      4732      4782
      4723      4735      4736      4723      4735      4737      4723      4735      4738
      4736      4735      4737      4736      4735      4738      4737      4735      4738
      4735      4738      4739      4735      4738      4740      4735      4738      4741
      4739      4738      4740      4739      4738      4741      4740      4738      4741
      4738      4741      4742      4738      4741      4743      4738      4741      4744
      4742      4741      4743      4742      4741      4744      4743      4741      4744
      4741      4744      4745      4741      4744      4746      4741      4744      4747
      4745      4744      4746      4745      4744      4747      4746      4744      4747
      4744      4747      4748      4744      4747      4749      4744      4747      4750
      4748      4747      4749      4748      4747      4750      4749      4747      4750
      4747      4750      4751      4747      4750      4752      4747      4750      4753
      4751      4750      4752      4751      4750      4753      4752      4750      4753
      4750      4753      4754      4750      4753      4755      4754      4753      4755
      4753      4755      4756      4753      4755      4757      4756      4755      4757
      4755      4757      4758      4755      4757      4759      4755      4757      4760
      4758      4757      4759      4758      4757      4760      4759      4757      4760
      4757      4760      4761      4757      4760      4762      4757      4760      4763
      4761      4760      4762      4761      4760      4763      4762      4760      4763
      4760      4763      4764      4760      4763      4765      4760      4763      4766
      4764      4763      4765      4764      4763      4766      4765      4763      4766
      4763      4766      4767      4763      4766      4768      4763      4766      4769
      4767      4766      4768      4767      4766      4769      4768      4766      4769
      4766      4769      4770      4766      4769      4771      4766      4769      4772
      4770      4769      4771      4770      4769      4772      4771      4769      4772
      4769      4772      4773      4769      4772      4774      4769      4772      4775
      4773      4772      4774      4773      4772      4775      4774      4772      4775
      4772      4775      4776      4772      4775      4777      4772      4775      4778
      4776      4775      4777      4776      4775      4778      4777      4775      4778
      4775      4778      4779      4775      4778      4780      4775      4778      4781
      4779      4778      4780      4779      4778      4781      4780      4778      4781
      4732      4782      4783      4732      4782      4784      4732      4782      4785
      4783      4782      4784      4783      4782      4785      4784      4782      4785
      4782      4785      4786      4782      4785      4787      4782      4785      4788
      4786      4785      4787      4786      4785      4788      4787      4785      4788
      4785      4788      4789      4785      4788      4790      4785      4788      4791
      4789      4788      4790      4789      4788      4791      4790      4788      4791
      4788      4791      4792      4788      4791      4793      4788      4791      4794
      4792      4791      4793      4792      4791      4794      4793      4791      4794
      4791      4794      4795      4791      4794      4796      4791      4794      4797
      4795      4794      4796      4795      4794      4797      4796      4794      4797
      4794      4797      4798      4794      4797      4799      4794      4797      4800
      4798      4797      4799      4798      4797      4800      4799      4797      4800
      4797      4800      4801      4797      4800      4802      4797      4800      4803
      4801      4800      4802      4801      4800      4803      4802      4800      4803
      4800      4803      4804      4800      4803      4805      4800      4803      4806
      4804      4803      4805      4804      4803      4806      4805      4803      4806
      4803      4806      4807      4803      4806      4808      4803      4806      4809
      4807      4806      4808      4807      4806      4809      4808      4806      4809
      4806      4809      4810      4806      4809      4811      4806      4809      4812
      4810      4809      4811      4810      4809      4812      4811      4809      4812
      4809      4812      4813      4809      4812      4814      4809      4812      4815
      4813      4812      4814      4813      4812      4815      4814      4812      4815
      4812      4815      4816      4812      4815      4817      4812      4815      4818
      4816      4815      4817      4816      4815      4818      4817      4815      4818
      4815      4818      4819      4815      4818      4820      4815      4818      4821
      4819      4818      4820      4819      4818      4821      4820      4818      4821
      4818      4821      4822      4818      4821      4823      4818      4821      4824
      4822      4821      4823      4822      4821      4824      4823      4821      4824
      4826      4825      4829      4826      4825      4833      4826      4825      4837
      4829      4825      4833      4829      4825      4837      4833      4825      4837
      4825      4826      4827      4825      4826      4828      4825      4826      4841
      4827      4826      4828      4827      4826      4841      4828      4826      4841
      4825      4829      4830      4825      4829      4831      4825      4829      4832
      4830      4829      4831      4830      4829      4832      4831      4829      4832
      4825      4833      4834      4825      4833      4835      4825      4833      4836
      4834      4833      4835      4834      4833      4836      4835      4833      4836
      4825      4837      4838      4825      4837      4839      4825      4837      4840
      4838      4837      4839      4838      4837      4840      4839      4837      4840
      4826      4841      4842      4826      4841      4843      4826      4841      4847
      4842      4841      4843      4842      4841      4847      4843      4841      4847
      4845      4844      4846      4845      4844      4847      4845      4844      4848
      4846      4844      4847      4846      4844      4848      4847      4844      4848
      4841      4847      4844      4844      4848      4849      4848      4849      4850
      4848      4849      4851      4848      4849      4852      4850      4849      4851
      4850      4849      4852      4851      4849      4852      4849      4852      4853
      4849      4852      4854      4849      4852      4860      4853      4852      4854
      4853      4852      4860      4854      4852      4860      4852      4854      4855
      4854      4855      4856      4854      4855      4857      4856      4855      4857
      4855      4857      4858      4855      4857      4859      4855      4857      4869
      4858      4857      4859      4858      4857      4869      4859      4857      4869
      4852      4860      4861      4852      4860      4862      4852      4860      4863
      4861      4860      4862      4861      4860      4863      4862      4860      4863
      4860      4863      4864      4863      4864      4865      4863      4864      4866
      4865      4864      4866      4864      4866      4867      4864      4866      4868
      4864      4866      4916      4867      4866      4868      4867      4866      4916
      4868      4866      4916      4857      4869      4870      4857      4869      4871
      4857      4869      4872      4870      4869      4871      4870      4869      4872
      4871      4869      4872      4869      4872      4873      4869      4872      4874
      4869      4872      4875      4873      4872      4874      4873      4872      4875
      4874      4872      4875      4872      4875      4876      4872      4875      4877
      4872      4875      4878      4876      4875      4877      4876      4875      4878
      4877      4875      4878      4875      4878      4879      4875      4878      4880
      4875      4878      4881      4879      4878      4880      4879      4878      4881
      4880      4878      4881      4878      4881      4882      4878      4881      4883
      4878      4881      4884      4882      4881      4883      4882      4881      4884
      4883      4881      4884      4881      4884      4885      4881      4884      4886
      4881      4884      4887      4885      4884      4886      4885      4884      4887
      4886      4884      4887      4884      4887      4888      4884      4887      4889
      4888      4887      4889      4887      4889      4890      4887      4889      4891
      4890      4889      4891      4889      4891      4892      4889      4891      4893
      4889      4891      4894      4892      4891      4893      4892      4891      4894
      4893      4891      4894      4891      4894      4895      4891      4894      4896
      4891      4894      4897      4895      4894      4896      4895      4894      4897
      4896      4894      4897      4894      4897      4898      4894      4897      4899
      4894      4897      4900      4898      4897      4899      4898      4897      4900
      4899      4897      4900      4897      4900      4901      4897      4900      4902
      4897      4900      4903      4901      4900      4902      4901      4900      4903
      4902      4900      4903      4900      4903      4904      4900      4903      4905
      4900      4903      4906      4904      4903      4905      4904      4903      4906
      4905      4903      4906      4903      4906      4907      4903      4906      4908
      4903      4906      4909      4907      4906      4908      4907      4906      4909
      4908      4906      4909      4906      4909      4910      4906      4909      4911
      4906      4909      4912      4910      4909      4911      4910      4909      4912
      4911      4909      4912      4909      4912      4913      4909      4912      4914
      4909      4912      4915      4913      4912      4914      4913      4912      4915
      4914      4912      4915      4866      4916      4917      4866      4916      4918
      4866      4916      4919      4917      4916      4918      4917      4916      4919
      4918      4916      4919      4916      4919      4920      4916      4919      4921
      4916      4919      4922      4920      4919      4921      4920      4919      4922
      4921      4919      4922      4919      4922      4923      4919      4922      4924
      4919      4922      4925      4923      4922      4924      4923      4922      4925
      4924      4922      4925      4922      4925      4926      4922      4925      4927
      4922      4925      4928      4926      4925      4927      4926      4925      4928
      4927      4925      4928      4925      4928      4929      4925      4928      4930
      4925      4928      4931      4929      4928      4930      4929      4928      4931
      4930      4928      4931      4928      4931      4932      4928      4931      4933
      4928      4931      4934      4932      4931      4933      4932      4931      4934
      4933      4931      4934      4931      4934      4935      4931      4934      4936
      4931      4934      4937      4935      4934      4936      4935      4934      4937
      4936      4934      4937      4934      4937      4938      4934      4937      4939
      4934      4937      4940      4938      4937      4939      4938      4937      4940
      4939      4937      4940      4937      4940      4941      4937      4940      4942
      4937      4940      4943      4941      4940      4942      4941      4940      4943
      4942      4940      4943      4940      4943      4944      4940      4943      4945
      4940      4943      4946      4944      4943      4945      4944      4943      4946
      4945      4943      4946      4943      4946      4947      4943      4946      4948
      4943      4946      4949      4947      4946      4948      4947      4946      4949
      4948      4946      4949      4946      4949      4950      4946      4949      4951
      4946      4949      4952      4950      4949      4951      4950      4949      4952
      4951      4949      4952      4949      4952      4953      4949      4952      4954
      4949      4952      4955      4953      4952      4954      4953      4952      4955
      4954      4952      4955      4952      4955      4956      4952      4955      4957
      4952      4955      4958      4956      4955      4957      4956      4955      4958
      4957      4955      4958      4960      4959      4963      4960      4959      4967
      4960      4959      4971      4963      4959      4967      4963      4959      4971
      4967      4959      4971      4959      4960      4961      4959      4960      4962
      4959      4960      4975      4961      4960      4962      4961      4960      4975
      4962      4960      4975      4959      4963      4964      4959      4963      4965
      4959      4963      4966      4964      4963      4965      4964      4963      4966
      4965      4963      4966      4959      4967      4968      4959      4967      4969
      4959      4967      4970      4968      4967      4969      4968      4967      4970
      4969      4967      4970      4959      4971      4972      4959      4971      4973
      4959      4971      4974      4972      4971      4973      4972      4971      4974
      4973      4971      4974      4960      4975      4976      4960      4975      4977
      4960      4975      4981      4976      4975      4977      4976      4975      4981
      4977      4975      4981      4979      4978      4980      4979      4978      4981
      4979      4978      4982      4980      4978      4981      4980      4978      4982
      4981      4978      4982      4975      4981      4978      4978      4982      4983
      4982      4983      4984      4982      4983      4985      4982      4983      4986
      4984      4983      4985      4984      4983      4986      4985      4983      4986
      4983      4986      4987      4983      4986      4988      4983      4986      4994
      4987      4986      4988      4987      4986      4994      4988      4986      4994
      4986      4988      4989      4988      4989      4990      4988      4989      4991
      4990      4989      4991      4989      4991      4992      4989      4991      4993
      4989      4991      5003      4992      4991      4993      4992      4991      5003
      4993      4991      5003      4986      4994      4995      4986      4994      4996
      4986      4994      4997      4995      4994      4996      4995      4994      4997
      4996      4994      4997      4994      4997      4998      4997      4998      4999
      4997      4998      5000      4999      4998      5000      4998      5000      5001
      4998      5000      5002      4998      5000      5050      5001      5000      5002
      5001      5000      5050      5002      5000      5050      4991      5003      5004
      4991      5003      5005      4991      5003      5006      5004      5003      5005
      5004      5003      5006      5005      5003      5006      5003      5006      5007
      5003      5006      5008      5003      5006      5009      5007      5006      5008
      5007      5006      5009      5008      5006      5009      5006      5009      5010
      5006      5009      5011      5006      5009      5012      5010      5009      5011
      5010      5009      5012      5011      5009      5012      5009      5012      5013
      5009      5012      5014      5009      5012      5015      5013      5012      5014
      5013      5012      5015      5014      5012      5015      5012      5015      5016
      5012      5015      5017      5012      5015      5018      5016      5015      5017
      5016      5015      5018      5017      5015      5018      5015      5018      5019
      5015      5018      5020      5015      5018      5021      5019      5018      5020
      5019      5018      5021      5020      5018      5021      5018      5021      5022
      5018      5021      5023      5022      5021      5023      5021      5023      5024
      5021      5023      5025      5024      5023      5025      5023      5025      5026
      5023      5025      5027      5023      5025      5028      5026      5025      5027
      5026      5025      5028      5027      5025      5028      5025      5028      5029
      5025      5028      5030      5025      5028      5031      5029      5028      5030
      5029      5028      5031      5030      5028      5031      5028      5031      5032
      5028      5031      5033      5028      5031      5034      5032      5031      5033
      5032      5031      5034      5033      5031      5034      5031      5034      5035
      5031      5034      5036      5031      5034      5037      5035      5034      5036
      5035      5034      5037      5036      5034      5037      5034      5037      5038
      5034      5037      5039      5034      5037      5040      5038      5037      5039
      5038      5037      5040      5039      5037      5040      5037      5040      5041
      5037      5040      5042      5037      5040      5043      5041      5040      5042
      5041      5040      5043      5042      5040      5043      5040      5043      5044
      5040      5043      5045      5040      5043      5046      5044      5043      5045
      5044      5043      5046      5045      5043      5046      5043      5046      5047
      5043      5046      5048      5043      5046      5049      5047      5046      5048
      5047      5046      5049      5048      5046      5049      5000      5050      5051
      5000      5050      5052      5000      5050      5053      5051      5050      5052
      5051      5050      5053      5052      5050      5053      5050      5053      5054
      5050      5053      5055      5050      5053      5056      5054      5053      5055
      5054      5053      5056      5055      5053      5056      5053      5056      5057
      5053      5056      5058      5053      5056      5059      5057      5056      5058
      5057      5056      5059      5058      5056      5059      5056      5059      5060
      5056      5059      5061      5056      5059      5062      5060      5059      5061
      5060      5059      5062      5061      5059      5062      5059      5062      5063
      5059      5062      5064      5059      5062      5065      5063      5062      5064
      5063      5062      5065      5064      5062      5065      5062      5065      5066
      5062      5065      5067      5062      5065      5068      5066      5065      5067
      5066      5065      5068      5067      5065      5068      5065      5068      5069
      5065      5068      5070      5065      5068      5071      5069      5068      5070
      5069      5068      5071      5070      5068      5071      5068      5071      5072
      5068      5071      5073      5068      5071      5074      5072      5071      5073
      5072      5071      5074      5073      5071      5074      5071      5074      5075
      5071      5074      5076      5071      5074      5077      5075      5074      5076
      5075      5074      5077      5076      5074      5077      5074      5077      5078
      5074      5077      5079      5074      5077      5080      5078      5077      5079
      5078      5077      5080      5079      5077      5080      5077      5080      5081
      5077      5080      5082      5077      5080      5083      5081      5080      5082
      5081      5080      5083      5082      5080      5083      5080      5083      5084
      5080      5083      5085      5080      5083      5086      5084      5083      5085
      5084      5083      5086      5085      5083      5086      5083      5086      5087
      5083      5086      5088      5083      5086      5089      5087      5086      5088
      5087      5086      5089      5088      5086      5089      5086      5089      5090
      5086      5089      5091      5086      5089      5092      5090      5089      5091
      5090      5089      5092      5091      5089      5092      5094      5093      5097
      5094      5093      5101      5094      5093      5105      5097      5093      5101
      5097      5093      5105      5101      5093      5105      5093      5094      5095
      5093      5094      5096      5093      5094      5109      5095      5094      5096
      5095      5094      5109      5096      5094      5109      5093      5097      5098
      5093      5097      5099      5093      5097      5100      5098      5097      5099
      5098      5097      5100      5099      5097      5100      5093      5101      5102
      5093      5101      5103      5093      5101      5104      5102      5101      5103
      5102      5101      5104      5103      5101      5104      5093      5105      5106
      5093      5105      5107      5093      5105      5108      5106      5105      5107
      5106      5105      5108      5107      5105      5108      5094      5109      5110
      5094      5109      5111      5094      5109      5115      5110      5109      5111
      5110      5109      5115      5111      5109      5115      5113      5112      5114
      5113      5112      5115      5113      5112      5116      5114      5112      5115
      5114      5112      5116      5115      5112      5116      5109      5115      5112
      5112      5116      5117      5116      5117      5118      5116      5117      5119
      5116      5117      5120      5118      5117      5119      5118      5117      5120
      5119      5117      5120      5117      5120      5121      5117      5120      5122
      5117      5120      5128      5121      5120      5122      5121      5120      5128
      5122      5120      5128      5120      5122      5123      5122      5123      5124
      5122      5123      5125      5124      5123      5125      5123      5125      5126
      5123      5125      5127      5123      5125      5137      5126      5125      5127
      5126      5125      5137      5127      5125      5137      5120      5128      5129
      5120      5128      5130      5120      5128      5131      5129      5128      5130
      5129      5128      5131      5130      5128      5131      5128      5131      5132
      5131      5132      5133      5131      5132      5134      5133      5132      5134
      5132      5134      5135      5132      5134      5136      5132      5134      5184
      5135      5134      5136      5135      5134      5184      5136      5134      5184
      5125      5137      5138      5125      5137      5139      5125      5137      5140
      5138      5137      5139      5138      5137      5140      5139      5137      5140
      5137      5140      5141      5137      5140      5142      5137      5140      5143
      5141      5140      5142      5141      5140      5143      5142      5140      5143
      5140      5143      5144      5140      5143      5145      5140      5143      5146
      5144      5143      5145      5144      5143      5146      5145      5143      5146
      5143      5146      5147      5143      5146      5148      5143      5146      5149
      5147      5146      5148      5147      5146      5149      5148      5146      5149
      5146      5149      5150      5146      5149      5151      5146      5149      5152
      5150      5149      5151      5150      5149      5152      5151      5149      5152
      5149      5152      5153      5149      5152      5154      5149      5152      5155
      5153      5152      5154      5153      5152      5155      5154      5152      5155
      5152      5155      5156      5152      5155      5157      5156      5155      5157
      5155      5157      5158      5155      5157      5159      5158      5157      5159
      5157      5159      5160      5157      5159      5161      5157      5159      5162
      5160      5159      5161      5160      5159      5162      5161      5159      5162
      5159      5162      5163      5159      5162      5164      5159      5162      5165
      5163      5162      5164      5163      5162      5165      5164      5162      5165
      5162      5165      5166      5162      5165      5167      5162      5165      5168
      5166      5165      5167      5166      5165      5168      5167      5165      5168
      5165      5168      5169      5165      5168      5170      5165      5168      5171
      5169      5168      5170      5169      5168      5171      5170      5168      5171
      5168      5171      5172      5168      5171      5173      5168      5171      5174
      5172      5171      5173      5172      5171      5174      5173      5171      5174
      5171      5174      5175      5171      5174      5176      5171      5174      5177
      5175      5174      5176      5175      5174      5177      5176      5174      5177
      5174      5177      5178      5174      5177      5179      5174      5177      5180
      5178      5177      5179      5178      5177      5180      5179      5177      5180
      5177      5180      5181      5177      5180      5182      5177      5180      5183
      5181      5180      5182      5181      5180      5183      5182      5180      5183
      5134      5184      5185      5134      5184      5186      5134      5184      5187
      5185      5184      5186      5185      5184      5187      5186      5184      5187
      5184      5187      5188      5184      5187      5189      5184      5187      5190
      5188      5187      5189      5188      5187      5190      5189      5187      5190
      5187      5190      5191      5187      5190      5192      5187      5190      5193
      5191      5190      5192      5191      5190      5193      5192      5190      5193
      5190      5193      5194      5190      5193      5195      5190      5193      5196
      5194      5193      5195      5194      5193      5196      5195      5193      5196
      5193      5196      5197      5193      5196      5198      5193      5196      5199
      5197      5196      5198      5197      5196      5199      5198      5196      5199
      5196      5199      5200      5196      5199      5201      5196      5199      5202
      5200      5199      5201      5200      5199      5202      5201      5199      5202
      5199      5202      5203      5199      5202      5204      5199      5202      5205
      5203      5202      5204      5203      5202      5205      5204      5202      5205
      5202      5205      5206      5202      5205      5207      5202      5205      5208
      5206      5205      5207      5206      5205      5208      5207      5205      5208
      5205      5208      5209      5205      5208      5210      5205      5208      5211
      5209      5208      5210      5209      5208      5211      5210      5208      5211
      5208      5211      5212      5208      5211      5213      5208      5211      5214
      5212      5211      5213      5212      5211      5214      5213      5211      5214
      5211      5214      5215      5211      5214      5216      5211      5214      5217
      5215      5214      5216      5215      5214      5217      5216      5214      5217
      5214      5217      5218      5214      5217      5219      5214      5217      5220
      5218      5217      5219      5218      5217      5220      5219      5217      5220
      5217      5220      5221      5217      5220      5222      5217      5220      5223
      5221      5220      5222      5221      5220      5223      5222      5220      5223
      5220      5223      5224      5220      5223      5225      5220      5223      5226
      5224      5223      5225      5224      5223      5226      5225      5223      5226
      5228      5227      5231      5228      5227      5235      5228      5227      5239
      5231      5227      5235      5231      5227      5239      5235      5227      5239
      5227      5228      5229      5227      5228      5230      5227      5228      5243
      5229      5228      5230      5229      5228      5243      5230      5228      5243
      5227      5231      5232      5227      5231      5233      5227      5231      5234
      5232      5231      5233      5232      5231      5234      5233      5231      5234
      5227      5235      5236      5227      5235      5237      5227      5235      5238
      5236      5235      5237      5236      5235      5238      5237      5235      5238
      5227      5239      5240      5227      5239      5241      5227      5239      5242
      5240      5239      5241      5240      5239      5242      5241      5239      5242
      5228      5243      5244      5228      5243      5245      5228      5243      5249
      5244      5243      5245      5244      5243      5249      5245      5243      5249
      5247      5246      5248      5247      5246      5249      5247      5246      5250
      5248      5246      5249      5248      5246      5250      5249      5246      5250
      5243      5249      5246      5246      5250      5251      5250      5251      5252
      5250      5251      5253      5250      5251      5254      5252      5251      5253
      5252      5251      5254      5253      5251      5254      5251      5254      5255
      5251      5254      5256      5251      5254      5262      5255      5254      5256
      5255      5254      5262      5256      5254      5262      5254      5256      5257
      5256      5257      5258      5256      5257      5259      5258      5257      5259
      5257      5259      5260      5257      5259      5261      5257      5259      5271
      5260      5259      5261      5260      5259      5271      5261      5259      5271
      5254      5262      5263      5254      5262      5264      5254      5262      5265
      5263      5262      5264      5263      5262      5265      5264      5262      5265
      5262      5265      5266      5265      5266      5267      5265      5266      5268
      5267      5266      5268      5266      5268      5269      5266      5268      5270
      5266      5268      5318      5269      5268      5270      5269      5268      5318
      5270      5268      5318      5259      5271      5272      5259      5271      5273
      5259      5271      5274      5272      5271      5273      5272      5271      5274
      5273      5271      5274      5271      5274      5275      5271      5274      5276
      5271      5274      5277      5275      5274      5276      5275      5274      5277
      5276      5274      5277      5274      5277      5278      5274      5277      5279
      5274      5277      5280      5278      5277      5279      5278      5277      5280
      5279      5277      5280      5277      5280      5281      5277      5280      5282
      5277      5280      5283      5281      5280      5282      5281      5280      5283
      5282      5280      5283      5280      5283      5284      5280      5283      5285
      5280      5283      5286      5284      5283      5285      5284      5283      5286
      5285      5283      5286      5283      5286      5287      5283      5286      5288
      5283      5286      5289      5287      5286      5288      5287      5286      5289
      5288      5286      5289      5286      5289      5290      5286      5289      5291
      5290      5289      5291      5289      5291      5292      5289      5291      5293
      5292      5291      5293      5291      5293      5294      5291      5293      5295
      5291      5293      5296      5294      5293      5295      5294      5293      5296
      5295      5293      5296      5293      5296      5297      5293      5296      5298
      5293      5296      5299      5297      5296      5298      5297      5296      5299
      5298      5296      5299      5296      5299      5300      5296      5299      5301
      5296      5299      5302      5300      5299      5301      5300      5299      5302
      5301      5299      5302      5299      5302      5303      5299      5302      5304
      5299      5302      5305      5303      5302      5304      5303      5302      5305
      5304      5302      5305      5302      5305      5306      5302      5305      5307
      5302      5305      5308      5306      5305      5307      5306      5305      5308
      5307      5305      5308      5305      5308      5309      5305      5308      5310
      5305      5308      5311      5309      5308      5310      5309      5308      5311
      5310      5308      5311      5308      5311      5312      5308      5311      5313
      5308      5311      5314      5312      5311      5313      5312      5311      5314
      5313      5311      5314      5311      5314      5315      5311      5314      5316
      5311      5314      5317      5315      5314      5316      5315      5314      5317
      5316      5314      5317      5268      5318      5319      5268      5318      5320
      5268      5318      5321      5319      5318      5320      5319      5318      5321
      5320      5318      5321      5318      5321      5322      5318      5321      5323
      5318      5321      5324      5322      5321      5323      5322      5321      5324
      5323      5321      5324      5321      5324      5325      5321      5324      5326
      5321      5324      5327      5325      5324      5326      5325      5324      5327
      5326      5324      5327      5324      5327      5328      5324      5327      5329
      5324      5327      5330      5328      5327      5329      5328      5327      5330
      5329      5327      5330      5327      5330      5331      5327      5330      5332
      5327      5330      5333      5331      5330      5332      5331      5330      5333
      5332      5330      5333      5330      5333      5334      5330      5333      5335
      5330      5333      5336      5334      5333      5335      5334      5333      5336
      5335      5333      5336      5333      5336      5337      5333      5336      5338
      5333      5336      5339      5337      5336      5338      5337      5336      5339
      5338      5336      5339      5336      5339      5340      5336      5339      5341
      5336      5339      5342      5340      5339      5341      5340      5339      5342
      5341      5339      5342      5339      5342      5343      5339      5342      5344
      5339      5342      5345      5343      5342      5344      5343      5342      5345
      5344      5342      5345      5342      5345      5346      5342      5345      5347
      5342      5345      5348      5346      5345      5347      5346      5345      5348
      5347      5345      5348      5345      5348      5349      5345      5348      5350
      5345      5348      5351      5349      5348      5350      5349      5348      5351
      5350      5348      5351      5348      5351      5352      5348      5351      5353
      5348      5351      5354      5352      5351      5353      5352      5351      5354
      5353      5351      5354      5351      5354      5355      5351      5354      5356
      5351      5354      5357      5355      5354      5356      5355      5354      5357
      5356      5354      5357      5354      5357      5358      5354      5357      5359
      5354      5357      5360      5358      5357      5359      5358      5357      5360
      5359      5357      5360      5362      5361      5365      5362      5361      5369
      5362      5361      5373      5365      5361      5369      5365      5361      5373
      5369      5361      5373      5361      5362      5363      5361      5362      5364
      5361      5362      5377      5363      5362      5364      5363      5362      5377
      5364      5362      5377      5361      5365      5366      5361      5365      5367
      5361      5365      5368      5366      5365      5367      5366      5365      5368
      5367      5365      5368      5361      5369      5370      5361      5369      5371
      5361      5369      5372      5370      5369      5371      5370      5369      5372
      5371      5369      5372      5361      5373      5374      5361      5373      5375
      5361      5373      5376      5374      5373      5375      5374      5373      5376
      5375      5373      5376      5362      5377      5378      5362      5377      5379
      5362      5377      5383      5378      5377      5379      5378      5377      5383
      5379      5377      5383      5381      5380      5382      5381      5380      5383
      5381      5380      5384      5382      5380      5383      5382      5380      5384
      5383      5380      5384      5377      5383      5380      5380      5384      5385
      5384      5385      5386      5384      5385      5387      5384      5385      5388
      5386      5385      5387      5386      5385      5388      5387      5385      5388
      5385      5388      5389      5385      5388      5390      5385      5388      5396
      5389      5388      5390      5389      5388      5396      5390      5388      5396
      5388      5390      5391      5390      5391      5392      5390      5391      5393
      5392      5391      5393      5391      5393      5394      5391      5393      5395
      5391      5393      5405      5394      5393      5395      5394      5393      5405
      5395      5393      5405      5388      5396      5397      5388      5396      5398
      5388      5396      5399      5397      5396      5398      5397      5396      5399
      5398      5396      5399      5396      5399      5400      5399      5400      5401
      5399      5400      5402      5401      5400      5402      5400      5402      5403
      5400      5402      5404      5400      5402      5452      5403      5402      5404
      5403      5402      5452      5404      5402      5452      5393      5405      5406
      5393      5405      5407      5393      5405      5408      5406      5405      5407
      5406      5405      5408      5407      5405      5408      5405      5408      5409
      5405      5408      5410      5405      5408      5411      5409      5408      5410
      5409      5408      5411      5410      5408      5411      5408      5411      5412
      5408      5411      5413      5408      5411      5414      5412      5411      5413
      5412      5411      5414      5413      5411      5414      5411      5414      5415
      5411      5414      5416      5411      5414      5417      5415      5414      5416
      5415      5414      5417      5416      5414      5417      5414      5417      5418
      5414      5417      5419      5414      5417      5420      5418      5417      5419
      5418      5417      5420      5419      5417      5420      5417      5420      5421
      5417      5420      5422      5417      5420      5423      5421      5420      5422
      5421      5420      5423      5422      5420      5423      5420      5423      5424
      5420      5423      5425      5424      5423      5425      5423      5425      5426
      5423      5425      5427      5426      5425      5427      5425      5427      5428
      5425      5427      5429      5425      5427      5430      5428      5427      5429
      5428      5427      5430      5429      5427      5430      5427      5430      5431
      5427      5430      5432      5427      5430      5433      5431      5430      5432
      5431      5430      5433      5432      5430      5433      5430      5433      5434
      5430      5433      5435      5430      5433      5436      5434      5433      5435
      5434      5433      5436      5435      5433      5436      5433      5436      5437
      5433      5436      5438      5433      5436      5439      5437      5436      5438
      5437      5436      5439      5438      5436      5439      5436      5439      5440
      5436      5439      5441      5436      5439      5442      5440      5439      5441
      5440      5439      5442      5441      5439      5442      5439      5442      5443
      5439      5442      5444      5439      5442      5445      5443      5442      5444
      5443      5442      5445      5444      5442      5445      5442      5445      5446
      5442      5445      5447      5442      5445      5448      5446      5445      5447
      5446      5445      5448      5447      5445      5448      5445      5448      5449
      5445      5448      5450      5445      5448      5451      5449      5448      5450
      5449      5448      5451      5450      5448      5451      5402      5452      5453
      5402      5452      5454      5402      5452      5455      5453      5452      5454
      5453      5452      5455      5454      5452      5455      5452      5455      5456
      5452      5455      5457      5452      5455      5458      5456      5455      5457
      5456      5455      5458      5457      5455      5458      5455      5458      5459
      5455      5458      5460      5455      5458      5461      5459      5458      5460
      5459      5458      5461      5460      5458      5461      5458      5461      5462
      5458      5461      5463      5458      5461      5464      5462      5461      5463
      5462      5461      5464      5463      5461      5464      5461      5464      5465
      5461      5464      5466      5461      5464      5467      5465      5464      5466
      5465      5464      5467      5466      5464      5467      5464      5467      5468
      5464      5467      5469      5464      5467      5470      5468      5467      5469
      5468      5467      5470      5469      5467      5470      5467      5470      5471
      5467      5470      5472      5467      5470      5473      5471      5470      5472
      5471      5470      5473      5472      5470      5473      5470      5473      5474
      5470      5473      5475      5470      5473      5476      5474      5473      5475
      5474      5473      5476      5475      5473      5476      5473      5476      5477
      5473      5476      5478      5473      5476      5479      5477      5476      5478
      5477      5476      5479      5478      5476      5479      5476      5479      5480
      5476      5479      5481      5476      5479      5482      5480      5479      5481
      5480      5479      5482      5481      5479      5482      5479      5482      5483
      5479      5482      5484      5479      5482      5485      5483      5482      5484
      5483      5482      5485      5484      5482      5485      5482      5485      5486
      5482      5485      5487      5482      5485      5488      5486      5485      5487
      5486      5485      5488      5487      5485      5488      5485      5488      5489
      5485      5488      5490      5485      5488      5491      5489      5488      5490
      5489      5488      5491      5490      5488      5491      5488      5491      5492
      5488      5491      5493      5488      5491      5494      5492      5491      5493
      5492      5491      5494      5493      5491      5494      5496      5495      5499
      5496      5495      5503      5496      5495      5507      5499      5495      5503
      5499      5495      5507      5503      5495      5507      5495      5496      5497
      5495      5496      5498      5495      5496      5511      5497      5496      5498
      5497      5496      5511      5498      5496      5511      5495      5499      5500
      5495      5499      5501      5495      5499      5502      5500      5499      5501
      5500      5499      5502      5501      5499      5502      5495      5503      5504
      5495      5503      5505      5495      5503      5506      5504      5503      5505
      5504      5503      5506      5505      5503      5506      5495      5507      5508
      5495      5507      5509      5495      5507      5510      5508      5507      5509
      5508      5507      5510      5509      5507      5510      5496      5511      5512
      5496      5511      5513      5496      5511      5517      5512      5511      5513
      5512      5511      5517      5513      5511      5517      5515      5514      5516
      5515      5514      5517      5515      5514      5518      5516      5514      5517
      5516      5514      5518      5517      5514      5518      5511      5517      5514
      5514      5518      5519      5518      5519      5520      5518      5519      5521
      5518      5519      5522      5520      5519      5521      5520      5519      5522
      5521      5519      5522      5519      5522      5523      5519      5522      5524
      5519      5522      5530      5523      5522      5524      5523      5522      5530
      5524      5522      5530      5522      5524      5525      5524      5525      5526
      5524      5525      5527      5526      5525      5527      5525      5527      5528
      5525      5527      5529      5525      5527      5539      5528      5527      5529
      5528      5527      5539      5529      5527      5539      5522      5530      5531
      5522      5530      5532      5522      5530      5533      5531      5530      5532
      5531      5530      5533      5532      5530      5533      5530      5533      5534
      5533      5534      5535      5533      5534      5536      5535      5534      5536
      5534      5536      5537      5534      5536      5538      5534      5536      5586
      5537      5536      5538      5537      5536      5586      5538      5536      5586
      5527      5539      5540      5527      5539      5541      5527      5539      5542
      5540      5539      5541      5540      5539      5542      5541      5539      5542
      5539      5542      5543      5539      5542      5544      5539      5542      5545
      5543      5542      5544      5543      5542      5545      5544      5542      5545
      5542      5545      5546      5542      5545      5547      5542      5545      5548
      5546      5545      5547      5546      5545      5548      5547      5545      5548
      5545      5548      5549      5545      5548      5550      5545      5548      5551
      5549      5548      5550      5549      5548      5551      5550      5548      5551
      5548      5551      5552      5548      5551      5553      5548      5551      5554
      5552      5551      5553      5552      5551      5554      5553      5551      5554
      5551      5554      5555      5551      5554      5556      5551      5554      5557
      5555      5554      5556      5555      5554      5557      5556      5554      5557
      5554      5557      5558      5554      5557      5559      5558      5557      5559
      5557      5559      5560      5557      5559      5561      5560      5559      5561
      5559      5561      5562      5559      5561      5563      5559      5561      5564
      5562      5561      5563      5562      5561      5564      5563      5561      5564
      5561      5564      5565      5561      5564      5566      5561      5564      5567
      5565      5564      5566      5565      5564      5567      5566      5564      5567
      5564      5567      5568      5564      5567      5569      5564      5567      5570
      5568      5567      5569      5568      5567      5570      5569      5567      5570
      5567      5570      5571      5567      5570      5572      5567      5570      5573
      5571      5570      5572      5571      5570      5573      5572      5570      5573
      5570      5573      5574      5570      5573      5575      5570      5573      5576
      5574      5573      5575      5574      5573      5576      5575      5573      5576
      5573      5576      5577      5573      5576      5578      5573      5576      5579
      5577      5576      5578      5577      5576      5579      5578      5576      5579
      5576      5579      5580      5576      5579      5581      5576      5579      5582
      5580      5579      5581      5580      5579      5582      5581      5579      5582
      5579      5582      5583      5579      5582      5584      5579      5582      5585
      5583      5582      5584      5583      5582      5585      5584      5582      5585
      5536      5586      5587      5536      5586      5588      5536      5586      5589
      5587      5586      5588      5587      5586      5589      5588      5586      5589
      5586      5589      5590      5586      5589      5591      5586      5589      5592
      5590      5589      5591      5590      5589      5592      5591      5589      5592
      5589      5592      5593      5589      5592      5594      5589      5592      5595
      5593      5592      5594      5593      5592      5595      5594      5592      5595
      5592      5595      5596      5592      5595      5597      5592      5595      5598
      5596      5595      5597      5596      5595      5598      5597      5595      5598
      5595      5598      5599      5595      5598      5600      5595      5598      5601
      5599      5598      5600      5599      5598      5601      5600      5598      5601
      5598      5601      5602      5598      5601      5603      5598      5601      5604
      5602      5601      5603      5602      5601      5604      5603      5601      5604
      5601      5604      5605      5601      5604      5606      5601      5604      5607
      5605      5604      5606      5605      5604      5607      5606      5604      5607
      5604      5607      5608      5604      5607      5609      5604      5607      5610
      5608      5607      5609      5608      5607      5610      5609      5607      5610
      5607      5610      5611      5607      5610      5612      5607      5610      5613
      5611      5610      5612      5611      5610      5613      5612      5610      5613
      5610      5613      5614      5610      5613      5615      5610      5613      5616
      5614      5613      5615      5614      5613      5616      5615      5613      5616
      5613      5616      5617      5613      5616      5618      5613      5616      5619
      5617      5616      5618      5617      5616      5619      5618      5616      5619
      5616      5619      5620      5616      5619      5621      5616      5619      5622
      5620      5619      5621      5620      5619      5622      5621      5619      5622
      5619      5622      5623      5619      5622      5624      5619      5622      5625
      5623      5622      5624      5623      5622      5625      5624      5622      5625
      5622      5625      5626      5622      5625      5627      5622      5625      5628
      5626      5625      5627      5626      5625      5628      5627      5625      5628
      5630      5629      5633      5630      5629      5637      5630      5629      5641
      5633      5629      5637      5633      5629      5641      5637      5629      5641
      5629      5630      5631      5629      5630      5632      5629      5630      5645
      5631      5630      5632      5631      5630      5645      5632      5630      5645
      5629      5633      5634      5629      5633      5635      5629      5633      5636
      5634      5633      5635      5634      5633      5636      5635      5633      5636
      5629      5637      5638      5629      5637      5639      5629      5637      5640
      5638      5637      5639      5638      5637      5640      5639      5637      5640
      5629      5641      5642      5629      5641      5643      5629      5641      5644
      5642      5641      5643      5642      5641      5644      5643      5641      5644
      5630      5645      5646      5630      5645      5647      5630      5645      5651
      5646      5645      5647      5646      5645      5651      5647      5645      5651
      5649      5648      5650      5649      5648      5651      5649      5648      5652
      5650      5648      5651      5650      5648      5652      5651      5648      5652
      5645      5651      5648      5648      5652      5653      5652      5653      5654
      5652      5653      5655      5652      5653      5656      5654      5653      5655
      5654      5653      5656      5655      5653      5656      5653      5656      5657
      5653      5656      5658      5653      5656      5664      5657      5656      5658
      5657      5656      5664      5658      5656      5664      5656      5658      5659
      5658      5659      5660      5658      5659      5661      5660      5659      5661
      5659      5661      5662      5659      5661      5663      5659      5661      5673
      5662      5661      5663      5662      5661      5673      5663      5661      5673
      5656      5664      5665      5656      5664      5666      5656      5664      5667
      5665      5664      5666      5665      5664      5667      5666      5664      5667
      5664      5667      5668      5667      5668      5669      5667      5668      5670
      5669      5668      5670      5668      5670      5671      5668      5670      5672
      5668      5670      5720      5671      5670      5672      5671      5670      5720
      5672      5670      5720      5661      5673      5674      5661      5673      5675
      5661      5673      5676      5674      5673      5675      5674      5673      5676
      5675      5673      5676      5673      5676      5677      5673      5676      5678
      5673      5676      5679      5677      5676      5678      5677      5676      5679
      5678      5676      5679      5676      5679      5680      5676      5679      5681
      5676      5679      5682      5680      5679      5681      5680      5679      5682
      5681      5679      5682      5679      5682      5683      5679      5682      5684
      5679      5682      5685      5683      5682      5684      5683      5682      5685
      5684      5682      5685      5682      5685      5686      5682      5685      5687
      5682      5685      5688      5686      5685      5687      5686      5685      5688
      5687      5685      5688      5685      5688      5689      5685      5688      5690
      5685      5688      5691      5689      5688      5690      5689      5688      5691
      5690      5688      5691      5688      5691      5692      5688      5691      5693
      5692      5691      5693      5691      5693      5694      5691      5693      5695
      5694      5693      5695      5693      5695      5696      5693      5695      5697
      5693      5695      5698      5696      5695      5697      5696      5695      5698
      5697      5695      5698      5695      5698      5699      5695      5698      5700
      5695      5698      5701      5699      5698      5700      5699      5698      5701
      5700      5698      5701      5698      5701      5702      5698      5701      5703
      5698      5701      5704      5702      5701      5703      5702      5701      5704
      5703      5701      5704      5701      5704      5705      5701      5704      5706
      5701      5704      5707      5705      5704      5706      5705      5704      5707
      5706      5704      5707      5704      5707      5708      5704      5707      5709
      5704      5707      5710      5708      5707      5709      5708      5707      5710
      5709      5707      5710      5707      5710      5711      5707      5710      5712
      5707      5710      5713      5711      5710      5712      5711      5710      5713
      5712      5710      5713      5710      5713      5714      5710      5713      5715
      5710      5713      5716      5714      5713      5715      5714      5713      5716
      5715      5713      5716      5713      5716      5717      5713      5716      5718
      5713      5716      5719      5717      5716      5718      5717      5716      5719
      5718      5716      5719      5670      5720      5721      5670      5720      5722
      5670      5720      5723      5721      5720      5722      5721      5720      5723
      5722      5720      5723      5720      5723      5724      5720      5723      5725
      5720      5723      5726      5724      5723      5725      5724      5723      5726
      5725      5723      5726      5723      5726      5727      5723      5726      5728
      5723      5726      5729      5727      5726      5728      5727      5726      5729
      5728      5726      5729      5726      5729      5730      5726      5729      5731
      5726      5729      5732      5730      5729      5731      5730      5729      5732
      5731      5729      5732      5729      5732      5733      5729      5732      5734
      5729      5732      5735      5733      5732      5734      5733      5732      5735
      5734      5732      5735      5732      5735      5736      5732      5735      5737
      5732      5735      5738      5736      5735      5737      5736      5735      5738
      5737      5735      5738      5735      5738      5739      5735      5738      5740
      5735      5738      5741      5739      5738      5740      5739      5738      5741
      5740      5738      5741      5738      5741      5742      5738      5741      5743
      5738      5741      5744      5742      5741      5743      5742      5741      5744
      5743      5741      5744      5741      5744      5745      5741      5744      5746
      5741      5744      5747      5745      5744      5746      5745      5744      5747
      5746      5744      5747      5744      5747      5748      5744      5747      5749
      5744      5747      5750      5748      5747      5749      5748      5747      5750
      5749      5747      5750      5747      5750      5751      5747      5750      5752
      5747      5750      5753      5751      5750      5752      5751      5750      5753
      5752      5750      5753      5750      5753      5754      5750      5753      5755
      5750      5753      5756      5754      5753      5755      5754      5753      5756
      5755      5753      5756      5753      5756      5757      5753      5756      5758
      5753      5756      5759      5757      5756      5758      5757      5756      5759
      5758      5756      5759      5756      5759      5760      5756      5759      5761
      5756      5759      5762      5760      5759      5761      5760      5759      5762
      5761      5759      5762      5764      5763      5767      5764      5763      5771
      5764      5763      5775      5767      5763      5771      5767      5763      5775
      5771      5763      5775      5763      5764      5765      5763      5764      5766
      5763      5764      5779      5765      5764      5766      5765      5764      5779
      5766      5764      5779      5763      5767      5768      5763      5767      5769
      5763      5767      5770      5768      5767      5769      5768      5767      5770
      5769      5767      5770      5763      5771      5772      5763      5771      5773
      5763      5771      5774      5772      5771      5773      5772      5771      5774
      5773      5771      5774      5763      5775      5776      5763      5775      5777
      5763      5775      5778      5776      5775      5777      5776      5775      5778
      5777      5775      5778      5764      5779      5780      5764      5779      5781
      5764      5779      5785      5780      5779      5781      5780      5779      5785
      5781      5779      5785      5783      5782      5784      5783      5782      5785
      5783      5782      5786      5784      5782      5785      5784      5782      5786
      5785      5782      5786      5779      5785      5782      5782      5786      5787
      5786      5787      5788      5786      5787      5789      5786      5787      5790
      5788      5787      5789      5788      5787      5790      5789      5787      5790
      5787      5790      5791      5787      5790      5792      5787      5790      5798
      5791      5790      5792      5791      5790      5798      5792      5790      5798
      5790      5792      5793      5792      5793      5794      5792      5793      5795
      5794      5793      5795      5793      5795      5796      5793      5795      5797
      5793      5795      5807      5796      5795      5797      5796      5795      5807
      5797      5795      5807      5790      5798      5799      5790      5798      5800
      5790      5798      5801      5799      5798      5800      5799      5798      5801
      5800      5798      5801      5798      5801      5802      5801      5802      5803
      5801      5802      5804      5803      5802      5804      5802      5804      5805
      5802      5804      5806      5802      5804      5854      5805      5804      5806
      5805      5804      5854      5806      5804      5854      5795      5807      5808
      5795      5807      5809      5795      5807      5810      5808      5807      5809
      5808      5807      5810      5809      5807      5810      5807      5810      5811
      5807      5810      5812      5807      5810      5813      5811      5810      5812
      5811      5810      5813      5812      5810      5813      5810      5813      5814
      5810      5813      5815      5810      5813      5816      5814      5813      5815
      5814      5813      5816      5815      5813      5816      5813      5816      5817
      5813      5816      5818      5813      5816      5819      5817      5816      5818
      5817      5816      5819      5818      5816      5819      5816      5819      5820
      5816      5819      5821      5816      5819      5822      5820      5819      5821
      5820      5819      5822      5821      5819      5822      5819      5822      5823
      5819      5822      5824      5819      5822      5825      5823      5822      5824
      5823      5822      5825      5824      5822      5825      5822      5825      5826
      5822      5825      5827      5826      5825      5827      5825      5827      5828
      5825      5827      5829      5828      5827      5829      5827      5829      5830
      5827      5829      5831      5827      5829      5832      5830      5829      5831
      5830      5829      5832      5831      5829      5832      5829      5832      5833
      5829      5832      5834      5829      5832      5835      5833      5832      5834
      5833      5832      5835      5834      5832      5835      5832      5835      5836
      5832      5835      5837      5832      5835      5838      5836      5835      5837
      5836      5835      5838      5837      5835      5838      5835      5838      5839
      5835      5838      5840      5835      5838      5841      5839      5838      5840
      5839      5838      5841      5840      5838      5841      5838      5841      5842
      5838      5841      5843      5838      5841      5844      5842      5841      5843
      5842      5841      5844      5843      5841      5844      5841      5844      5845
      5841      5844      5846      5841      5844      5847      5845      5844      5846
      5845      5844      5847      5846      5844      5847      5844      5847      5848
      5844      5847      5849      5844      5847      5850      5848      5847      5849
      5848      5847      5850      5849      5847      5850      5847      5850      5851
      5847      5850      5852      5847      5850      5853      5851      5850      5852
      5851      5850      5853      5852      5850      5853      5804      5854      5855
      5804      5854      5856      5804      5854      5857      5855      5854      5856
      5855      5854      5857      5856      5854      5857      5854      5857      5858
      5854      5857      5859      5854      5857      5860      5858      5857      5859
      5858      5857      5860      5859      5857      5860      5857      5860      5861
      5857      5860      5862      5857      5860      5863      5861      5860      5862
      5861      5860      5863      5862      5860      5863      5860      5863      5864
      5860      5863      5865      5860      5863      5866      5864      5863      5865
      5864      5863      5866      5865      5863      5866      5863      5866      5867
      5863      5866      5868      5863      5866      5869      5867      5866      5868
      5867      5866      5869      5868      5866      5869      5866      5869      5870
      5866      5869      5871      5866      5869      5872      5870      5869      5871
      5870      5869      5872      5871      5869      5872      5869      5872      5873
      5869      5872      5874      5869      5872      5875      5873      5872      5874
      5873      5872      5875      5874      5872      5875      5872      5875      5876
      5872      5875      5877      5872      5875      5878      5876      5875      5877
      5876      5875      5878      5877      5875      5878      5875      5878      5879
      5875      5878      5880      5875      5878      5881      5879      5878      5880
      5879      5878      5881      5880      5878      5881      5878      5881      5882
      5878      5881      5883      5878      5881      5884      5882      5881      5883
      5882      5881      5884      5883      5881      5884      5881      5884      5885
      5881      5884      5886      5881      5884      5887      5885      5884      5886
      5885      5884      5887      5886      5884      5887      5884      5887      5888
      5884      5887      5889      5884      5887      5890      5888      5887      5889
      5888      5887      5890      5889      5887      5890      5887      5890      5891
      5887      5890      5892      5887      5890      5893      5891      5890      5892
      5891      5890      5893      5892      5890      5893      5890      5893      5894
      5890      5893      5895      5890      5893      5896      5894      5893      5895
      5894      5893      5896      5895      5893      5896      5898      5897      5901
      5898      5897      5905      5898      5897      5909      5901      5897      5905
      5901      5897      5909      5905      5897      5909      5897      5898      5899
      5897      5898      5900      5897      5898      5913      5899      5898      5900
      5899      5898      5913      5900      5898      5913      5897      5901      5902
      5897      5901      5903      5897      5901      5904      5902      5901      5903
      5902      5901      5904      5903      5901      5904      5897      5905      5906
      5897      5905      5907      5897      5905      5908      5906      5905      5907
      5906      5905      5908      5907      5905      5908      5897      5909      5910
      5897      5909      5911      5897      5909      5912      5910      5909      5911
      5910      5909      5912      5911      5909      5912      5898      5913      5914
      5898      5913      5915      5898      5913      5919      5914      5913      5915
      5914      5913      5919      5915      5913      5919      5917      5916      5918
      5917      5916      5919      5917      5916      5920      5918      5916      5919
      5918      5916      5920      5919      5916      5920      5913      5919      5916
      5916      5920      5921      5920      5921      5922      5920      5921      5923
      5920      5921      5924      5922      5921      5923      5922      5921      5924
      5923      5921      5924      5921      5924      5925      5921      5924      5926
      5921      5924      5932      5925      5924      5926      5925      5924      5932
      5926      5924      5932      5924      5926      5927      5926      5927      5928
      5926      5927      5929      5928      5927      5929      5927      5929      5930
      5927      5929      5931      5927      5929      5941      5930      5929      5931
      5930      5929      5941      5931      5929      5941      5924      5932      5933
      5924      5932      5934      5924      5932      5935      5933      5932      5934
      5933      5932      5935      5934      5932      5935      5932      5935      5936
      5935      5936      5937      5935      5936      5938      5937      5936      5938
      5936      5938      5939      5936      5938      5940      5936      5938      5988
      5939      5938      5940      5939      5938      5988      5940      5938      5988
      5929      5941      5942      5929      5941      5943      5929      5941      5944
      5942      5941      5943      5942      5941      5944      5943      5941      5944
      5941      5944      5945      5941      5944      5946      5941      5944      5947
      5945      5944      5946      5945      5944      5947      5946      5944      5947
      5944      5947      5948      5944      5947      5949      5944      5947      5950
      5948      5947      5949      5948      5947      5950      5949      5947      5950
      5947      5950      5951      5947      5950      5952      5947      5950      5953
      5951      5950      5952      5951      5950      5953      5952      5950      5953
      5950      5953      5954      5950      5953      5955      5950      5953      5956
      5954      5953      5955      5954      5953      5956      5955      5953      5956
      5953      5956      5957      5953      5956      5958      5953      5956      5959
      5957      5956      5958      5957      5956      5959      5958      5956      5959
      5956      5959      5960      5956      5959      5961      5960      5959      5961
      5959      5961      5962      5959      5961      5963      5962      5961      5963
      5961      5963      5964      5961      5963      5965      5961      5963      5966
      5964      5963      5965      5964      5963      5966      5965      5963      5966
      5963      5966      5967      5963      5966      5968      5963      5966      5969
      5967      5966      5968      5967      5966      5969      5968      5966      5969
      5966      5969      5970      5966      5969      5971      5966      5969      5972
      5970      5969      5971      5970      5969      5972      5971      5969      5972
      5969      5972      5973      5969      5972      5974      5969      5972      5975
      5973      5972      5974      5973      5972      5975      5974      5972      5975
      5972      5975      5976      5972      5975      5977      5972      5975      5978
      5976      5975      5977      5976      5975      5978      5977      5975      5978
      5975      5978      5979      5975      5978      5980      5975      5978      5981
      5979      5978      5980      5979      5978      5981      5980      5978      5981
      5978      5981      5982      5978      5981      5983      5978      5981      5984
      5982      5981      5983      5982      5981      5984      5983      5981      5984
      5981      5984      5985      5981      5984      5986      5981      5984      5987
      5985      5984      5986      5985      5984      5987      5986      5984      5987
      5938      5988      5989      5938      5988      5990      5938      5988      5991
      5989      5988      5990      5989      5988      5991      5990      5988      5991
      5988      5991      5992      5988      5991      5993      5988      5991      5994
      5992      5991      5993      5992      5991      5994      5993      5991      5994
      5991      5994      5995      5991      5994      5996      5991      5994      5997
      5995      5994      5996      5995      5994      5997      5996      5994      5997
      5994      5997      5998      5994      5997      5999      5994      5997      6000
      5998      5997      5999      5998      5997      6000      5999      5997      6000
      5997      6000      6001      5997      6000      6002      5997      6000      6003
      6001      6000      6002      6001      6000      6003      6002      6000      6003
      6000      6003      6004      6000      6003      6005      6000      6003      6006
      6004      6003      6005      6004      6003      6006      6005      6003      6006
      6003      6006      6007      6003      6006      6008      6003      6006      6009
      6007      6006      6008      6007      6006      6009      6008      6006      6009
      6006      6009      6010      6006      6009      6011      6006      6009      6012
      6010      6009      6011      6010      6009      6012      6011      6009      6012
      6009      6012      6013      6009      6012      6014      6009      6012      6015
      6013      6012      6014      6013      6012      6015      6014      6012      6015
      6012      6015      6016      6012      6015      6017      6012      6015      6018
      6016      6015      6017      6016      6015      6018      6017      6015      6018
      6015      6018      6019      6015      6018      6020      6015      6018      6021
      6019      6018      6020      6019      6018      6021      6020      6018      6021
      6018      6021      6022      6018      6021      6023      6018      6021      6024
      6022      6021      6023      6022      6021      6024      6023      6021      6024
      6021      6024      6025      6021      6024      6026      6021      6024      6027
      6025      6024      6026      6025      6024      6027      6026      6024      6027
      6024      6027      6028      6024      6027      6029      6024      6027      6030
      6028      6027      6029      6028      6027      6030      6029      6027      6030
      6032      6031      6035      6032      6031      6039      6032      6031      6043
      6035      6031      6039      6035      6031      6043      6039      6031      6043
      6031      6032      6033      6031      6032      6034      6031      6032      6047
      6033      6032      6034      6033      6032      6047      6034      6032      6047
      6031      6035      6036      6031      6035      6037      6031      6035      6038
      6036      6035      6037      6036      6035      6038      6037      6035      6038
      6031      6039      6040      6031      6039      6041      6031      6039      6042
      6040      6039      6041      6040      6039      6042      6041      6039      6042
      6031      6043      6044      6031      6043      6045      6031      6043      6046
      6044      6043      6045      6044      6043      6046      6045      6043      6046
      6032      6047      6048      6032      6047      6049      6032      6047      6053
      6048      6047      6049      6048      6047      6053      6049      6047      6053
      6051      6050      6052      6051      6050      6053      6051      6050      6054
      6052      6050      6053      6052      6050      6054      6053      6050      6054
      6047      6053      6050      6050      6054      6055      6054      6055      6056
      6054      6055      6057      6054      6055      6058      6056      6055      6057
      6056      6055      6058      6057      6055      6058      6055      6058      6059
      6055      6058      6060      6055      6058      6066      6059      6058      6060
      6059      6058      6066      6060      6058      6066      6058      6060      6061
      6060      6061      6062      6060      6061      6063      6062      6061      6063
      6061      6063      6064      6061      6063      6065      6061      6063      6075
      6064      6063      6065      6064      6063      6075      6065      6063      6075
      6058      6066      6067      6058      6066      6068      6058      6066      6069
      6067      6066      6068      6067      6066      6069      6068      6066      6069
      6066      6069      6070      6069      6070      6071      6069      6070      6072
      6071      6070      6072      6070      6072      6073      6070      6072      6074
      6070      6072      6122      6073      6072      6074      6073      6072      6122
      6074      6072      6122      6063      6075      6076      6063      6075      6077
      6063      6075      6078      6076      6075      6077      6076      6075      6078
      6077      6075      6078      6075      6078      6079      6075      6078      6080
      6075      6078      6081      6079      6078      6080      6079      6078      6081
      6080      6078      6081      6078      6081      6082      6078      6081      6083
      6078      6081      6084      6082      6081      6083      6082      6081      6084
      6083      6081      6084      6081      6084      6085      6081      6084      6086
      6081      6084      6087      6085      6084      6086      6085      6084      6087
      6086      6084      6087      6084      6087      6088      6084      6087      6089
      6084      6087      6090      6088      6087      6089      6088      6087      6090
      6089      6087      6090      6087      6090      6091      6087      6090      6092
      6087      6090      6093      6091      6090      6092      6091      6090      6093
      6092      6090      6093      6090      6093      6094      6090      6093      6095
      6094      6093      6095      6093      6095      6096      6093      6095      6097
      6096      6095      6097      6095      6097      6098      6095      6097      6099
      6095      6097      6100      6098      6097      6099      6098      6097      6100
      6099      6097      6100      6097      6100      6101      6097      6100      6102
      6097      6100      6103      6101      6100      6102      6101      6100      6103
      6102      6100      6103      6100      6103      6104      6100      6103      6105
      6100      6103      6106      6104      6103      6105      6104      6103      6106
      6105      6103      6106      6103      6106      6107      6103      6106      6108
      6103      6106      6109      6107      6106      6108      6107      6106      6109
      6108      6106      6109      6106      6109      6110      6106      6109      6111
      6106      6109      6112      6110      6109      6111      6110      6109      6112
      6111      6109      6112      6109      6112      6113      6109      6112      6114
      6109      6112      6115      6113      6112      6114      6113      6112      6115
      6114      6112      6115      6112      6115      6116      6112      6115      6117
      6112      6115      6118      6116      6115      6117      6116      6115      6118
      6117      6115      6118      6115      6118      6119      6115      6118      6120
      6115      6118      6121      6119      6118      6120      6119      6118      6121
      6120      6118      6121      6072      6122      6123      6072      6122      6124
      6072      6122      6125      6123      6122      6124      6123      6122      6125
      6124      6122      6125      6122      6125      6126      6122      6125      6127
      6122      6125      6128      6126      6125      6127      6126      6125      6128
      6127      6125      6128      6125      6128      6129      6125      6128      6130
      6125      6128      6131      6129      6128      6130      6129      6128      6131
      6130      6128      6131      6128      6131      6132      6128      6131      6133
      6128      6131      6134      6132      6131      6133      6132      6131      6134
      6133      6131      6134      6131      6134      6135      6131      6134      6136
      6131      6134      6137      6135      6134      6136      6135      6134      6137
      6136      6134      6137      6134      6137      6138      6134      6137      6139
      6134      6137      6140      6138      6137      6139      6138      6137      6140
      6139      6137      6140      6137      6140      6141      6137      6140      6142
      6137      6140      6143      6141      6140      6142      6141      6140      6143
      6142      6140      6143      6140      6143      6144      6140      6143      6145
      6140      6143      6146      6144      6143      6145      6144      6143      6146
      6145      6143      6146      6143      6146      6147      6143      6146      6148
      6143      6146      6149      6147      6146      6148      6147      6146      6149
      6148      6146      6149      6146      6149      6150      6146      6149      6151
      6146      6149      6152      6150      6149      6151      6150      6149      6152
      6151      6149      6152      6149      6152      6153      6149      6152      6154
      6149      6152      6155      6153      6152      6154      6153      6152      6155
      6154      6152      6155      6152      6155      6156      6152      6155      6157
      6152      6155      6158      6156      6155      6157      6156      6155      6158
      6157      6155      6158      6155      6158      6159      6155      6158      6160
      6155      6158      6161      6159      6158      6160      6159      6158      6161
      6160      6158      6161      6158      6161      6162      6158      6161      6163
      6158      6161      6164      6162      6161      6163      6162      6161      6164
      6163      6161      6164      6166      6165      6169      6166      6165      6173
      6166      6165      6177      6169      6165      6173      6169      6165      6177
      6173      6165      6177      6165      6166      6167      6165      6166      6168
      6165      6166      6181      6167      6166      6168      6167      6166      6181
      6168      6166      6181      6165      6169      6170      6165      6169      6171
      6165      6169      6172      6170      6169      6171      6170      6169      6172
      6171      6169      6172      6165      6173      6174      6165      6173      6175
      6165      6173      6176      6174      6173      6175      6174      6173      6176
      6175      6173      6176      6165      6177      6178      6165      6177      6179
      6165      6177      6180      6178      6177      6179      6178      6177      6180
      6179      6177      6180      6166      6181      6182      6166      6181      6183
      6166      6181      6187      6182      6181      6183      6182      6181      6187
      6183      6181      6187      6185      6184      6186      6185      6184      6187
      6185      6184      6188      6186      6184      6187      6186      6184      6188
      6187      6184      6188      6181      6187      6184      6184      6188      6189
      6188      6189      6190      6188      6189      6191      6188      6189      6192
      6190      6189      6191      6190      6189      6192      6191      6189      6192
      6189      6192      6193      6189      6192      6194      6189      6192      6200
      6193      6192      6194      6193      6192      6200      6194      6192      6200
      6192      6194      6195      6194      6195      6196      6194      6195      6197
      6196      6195      6197      6195      6197      6198      6195      6197      6199
      6195      6197      6209      6198      6197      6199      6198      6197      6209
      6199      6197      6209      6192      6200      6201      6192      6200      6202
      6192      6200      6203      6201      6200      6202      6201      6200      6203
      6202      6200      6203      6200      6203      6204      6203      6204      6205
      6203      6204      6206      6205      6204      6206      6204      6206      6207
      6204      6206      6208      6204      6206      6256      6207      6206      6208
      6207      6206      6256      6208      6206      6256      6197      6209      6210
      6197      6209      6211      6197      6209      6212      6210      6209      6211
      6210      6209      6212      6211      6209      6212      6209      6212      6213
      6209      6212      6214      6209      6212      6215      6213      6212      6214
      6213      6212      6215      6214      6212      6215      6212      6215      6216
      6212      6215      6217      6212      6215      6218      6216      6215      6217
      6216      6215      6218      6217      6215      6218      6215      6218      6219
      6215      6218      6220      6215      6218      6221      6219      6218      6220
      6219      6218      6221      6220      6218      6221      6218      6221      6222
      6218      6221      6223      6218      6221      6224      6222      6221      6223
      6222      6221      6224      6223      6221      6224      6221      6224      6225
      6221      6224      6226      6221      6224      6227      6225      6224      6226
      6225      6224      6227      6226      6224      6227      6224      6227      6228
      6224      6227      6229      6228      6227      6229      6227      6229      6230
      6227      6229      6231      6230      6229      6231      6229      6231      6232
      6229      6231      6233      6229      6231      6234      6232      6231      6233
      6232      6231      6234      6233      6231      6234      6231      6234      6235
      6231      6234      6236      6231      6234      6237      6235      6234      6236
      6235      6234      6237      6236      6234      6237      6234      6237      6238
      6234      6237      6239      6234      6237      6240      6238      6237      6239
      6238      6237      6240      6239      6237      6240      6237      6240      6241
      6237      6240      6242      6237      6240      6243      6241      6240      6242
      6241      6240      6243      6242      6240      6243      6240      6243      6244
      6240      6243      6245      6240      6243      6246      6244      6243      6245
      6244      6243      6246      6245      6243      6246      6243      6246      6247
      6243      6246      6248      6243      6246      6249      6247      6246      6248
      6247      6246      6249      6248      6246      6249      6246      6249      6250
      6246      6249      6251      6246      6249      6252      6250      6249      6251
      6250      6249      6252      6251      6249      6252      6249      6252      6253
      6249      6252      6254      6249      6252      6255      6253      6252      6254
      6253      6252      6255      6254      6252      6255      6206      6256      6257
      6206      6256      6258      6206      6256      6259      6257      6256      6258
      6257      6256      6259      6258      6256      6259      6256      6259      6260
      6256      6259      6261      6256      6259      6262      6260      6259      6261
      6260      6259      6262      6261      6259      6262      6259      6262      6263
      6259      6262      6264      6259      6262      6265      6263      6262      6264
      6263      6262      6265      6264      6262      6265      6262      6265      6266
      6262      6265      6267      6262      6265      6268      6266      6265      6267
      6266      6265      6268      6267      6265      6268      6265      6268      6269
      6265      6268      6270      6265      6268      6271      6269      6268      6270
      6269      6268      6271      6270      6268      6271      6268      6271      6272
      6268      6271      6273      6268      6271      6274      6272      6271      6273
      6272      6271      6274      6273      6271      6274      6271      6274      6275
      6271      6274      6276      6271      6274      6277      6275      6274      6276
      6275      6274      6277      6276      6274      6277      6274      6277      6278
      6274      6277      6279      6274      6277      6280      6278      6277      6279
      6278      6277      6280      6279      6277      6280      6277      6280      6281
      6277      6280      6282      6277      6280      6283      6281      6280      6282
      6281      6280      6283      6282      6280      6283      6280      6283      6284
      6280      6283      6285      6280      6283      6286      6284      6283      6285
      6284      6283      6286      6285      6283      6286      6283      6286      6287
      6283      6286      6288      6283      6286      6289      6287      6286      6288
      6287      6286      6289      6288      6286      6289      6286      6289      6290
      6286      6289      6291      6286      6289      6292      6290      6289      6291
      6290      6289      6292      6291      6289      6292      6289      6292      6293
      6289      6292      6294      6289      6292      6295      6293      6292      6294
      6293      6292      6295      6294      6292      6295      6292      6295      6296
      6292      6295      6297      6292      6295      6298      6296      6295      6297
      6296      6295      6298      6297      6295      6298      6300      6299      6303
      6300      6299      6307      6300      6299      6311      6303      6299      6307
      6303      6299      6311      6307      6299      6311      6299      6300      6301
      6299      6300      6302      6299      6300      6315      6301      6300      6302
      6301      6300      6315      6302      6300      6315      6299      6303      6304
      6299      6303      6305      6299      6303      6306      6304      6303      6305
      6304      6303      6306      6305      6303      6306      6299      6307      6308
      6299      6307      6309      6299      6307      6310      6308      6307      6309
      6308      6307      6310      6309      6307      6310      6299      6311      6312
      6299      6311      6313      6299      6311      6314      6312      6311      6313
      6312      6311      6314      6313      6311      6314      6300      6315      6316
      6300      6315      6317      6300      6315      6321      6316      6315      6317
      6316      6315      6321      6317      6315      6321      6319      6318      6320
      6319      6318      6321      6319      6318      6322      6320      6318      6321
      6320      6318      6322      6321      6318      6322      6315      6321      6318
      6318      6322      6323      6322      6323      6324      6322      6323      6325
      6322      6323      6326      6324      6323      6325      6324      6323      6326
      6325      6323      6326      6323      6326      6327      6323      6326      6328
      6323      6326      6334      6327      6326      6328      6327      6326      6334
      6328      6326      6334      6326      6328      6329      6328      6329      6330
      6328      6329      6331      6330      6329      6331      6329      6331      6332
      6329      6331      6333      6329      6331      6343      6332      6331      6333
      6332      6331      6343      6333      6331      6343      6326      6334      6335
      6326      6334      6336      6326      6334      6337      6335      6334      6336
      6335      6334      6337      6336      6334      6337      6334      6337      6338
      6337      6338      6339      6337      6338      6340      6339      6338      6340
      6338      6340      6341      6338      6340      6342      6338      6340      6390
      6341      6340      6342      6341      6340      6390      6342      6340      6390
      6331      6343      6344      6331      6343      6345      6331      6343      6346
      6344      6343      6345      6344      6343      6346      6345      6343      6346
      6343      6346      6347      6343      6346      6348      6343      6346      6349
      6347      6346      6348      6347      6346      6349      6348      6346      6349
      6346      6349      6350      6346      6349      6351      6346      6349      6352
      6350      6349      6351      6350      6349      6352      6351      6349      6352
      6349      6352      6353      6349      6352      6354      6349      6352      6355
      6353      6352      6354      6353      6352      6355      6354      6352      6355
      6352      6355      6356      6352      6355      6357      6352      6355      6358
      6356      6355      6357      6356      6355      6358      6357      6355      6358
      6355      6358      6359      6355      6358      6360      6355      6358      6361
      6359      6358      6360      6359      6358      6361      6360      6358      6361
      6358      6361      6362      6358      6361      6363      6362      6361      6363
      6361      6363      6364      6361      6363      6365      6364      6363      6365
      6363      6365      6366      6363      6365      6367      6363      6365      6368
      6366      6365      6367      6366      6365      6368      6367      6365      6368
      6365      6368      6369      6365      6368      6370      6365      6368      6371
      6369      6368      6370      6369      6368      6371      6370      6368      6371
      6368      6371      6372      6368      6371      6373      6368      6371      6374
      6372      6371      6373      6372      6371      6374      6373      6371      6374
      6371      6374      6375      6371      6374      6376      6371      6374      6377
      6375      6374      6376      6375      6374      6377      6376      6374      6377
      6374      6377      6378      6374      6377      6379      6374      6377      6380
      6378      6377      6379      6378      6377      6380      6379      6377      6380
      6377      6380      6381      6377      6380      6382      6377      6380      6383
      6381      6380      6382      6381      6380      6383      6382      6380      6383
      6380      6383      6384      6380      6383      6385      6380      6383      6386
      6384      6383      6385      6384      6383      6386      6385      6383      6386
      6383      6386      6387      6383      6386      6388      6383      6386      6389
      6387      6386      6388      6387      6386      6389      6388      6386      6389
      6340      6390      6391      6340      6390      6392      6340      6390      6393
      6391      6390      6392      6391      6390      6393      6392      6390      6393
      6390      6393      6394      6390      6393      6395      6390      6393      6396
      6394      6393      6395      6394      6393      6396      6395      6393      6396
      6393      6396      6397      6393      6396      6398      6393      6396      6399
      6397      6396      6398      6397      6396      6399      6398      6396      6399
      6396      6399      6400      6396      6399      6401      6396      6399      6402
      6400      6399      6401      6400      6399      6402      6401      6399      6402
      6399      6402      6403      6399      6402      6404      6399      6402      6405
      6403      6402      6404      6403      6402      6405      6404      6402      6405
      6402      6405      6406      6402      6405      6407      6402      6405      6408
      6406      6405      6407      6406      6405      6408      6407      6405      6408
      6405      6408      6409      6405      6408      6410      6405      6408      6411
      6409      6408      6410      6409      6408      6411      6410      6408      6411
      6408      6411      6412      6408      6411      6413      6408      6411      6414
      6412      6411      6413      6412      6411      6414      6413      6411      6414
      6411      6414      6415      6411      6414      6416      6411      6414      6417
      6415      6414      6416      6415      6414      6417      6416      6414      6417
      6414      6417      6418      6414      6417      6419      6414      6417      6420
      6418      6417      6419      6418      6417      6420      6419      6417      6420
      6417      6420      6421      6417      6420      6422      6417      6420      6423
      6421      6420      6422      6421      6420      6423      6422      6420      6423
      6420      6423      6424      6420      6423      6425      6420      6423      6426
      6424      6423      6425      6424      6423      6426      6425      6423      6426
      6423      6426      6427      6423      6426      6428      6423      6426      6429
      6427      6426      6428      6427      6426      6429      6428      6426      6429
      6426      6429      6430      6426      6429      6431      6426      6429      6432
      6430      6429      6431      6430      6429      6432      6431      6429      6432
      6434      6433      6437      6434      6433      6441      6434      6433      6445
      6437      6433      6441      6437      6433      6445      6441      6433      6445
      6433      6434      6435      6433      6434      6436      6433      6434      6449
      6435      6434      6436      6435      6434      6449      6436      6434      6449
      6433      6437      6438      6433      6437      6439      6433      6437      6440
      6438      6437      6439      6438      6437      6440      6439      6437      6440
      6433      6441      6442      6433      6441      6443      6433      6441      6444
      6442      6441      6443      6442      6441      6444      6443      6441      6444
      6433      6445      6446      6433      6445      6447      6433      6445      6448
      6446      6445      6447      6446      6445      6448      6447      6445      6448
      6434      6449      6450      6434      6449      6451      6434      6449      6455
      6450      6449      6451      6450      6449      6455      6451      6449      6455
      6453      6452      6454      6453      6452      6455      6453      6452      6456
      6454      6452      6455      6454      6452      6456      6455      6452      6456
      6449      6455      6452      6452      6456      6457      6456      6457      6458
      6456      6457      6459      6456      6457      6460      6458      6457      6459
      6458      6457      6460      6459      6457      6460      6457      6460      6461
      6457      6460      6462      6457      6460      6468      6461      6460      6462
      6461      6460      6468      6462      6460      6468      6460      6462      6463
      6462      6463      6464      6462      6463      6465      6464      6463      6465
      6463      6465      6466      6463      6465      6467      6463      6465      6477
      6466      6465      6467      6466      6465      6477      6467      6465      6477
      6460      6468      6469      6460      6468      6470      6460      6468      6471
      6469      6468      6470      6469      6468      6471      6470      6468      6471
      6468      6471      6472      6471      6472      6473      6471      6472      6474
      6473      6472      6474      6472      6474      6475      6472      6474      6476
      6472      6474      6524      6475      6474      6476      6475      6474      6524
      6476      6474      6524      6465      6477      6478      6465      6477      6479
      6465      6477      6480      6478      6477      6479      6478      6477      6480
      6479      6477      6480      6477      6480      6481      6477      6480      6482
      6477      6480      6483      6481      6480      6482      6481      6480      6483
      6482      6480      6483      6480      6483      6484      6480      6483      6485
      6480      6483      6486      6484      6483      6485      6484      6483      6486
      6485      6483      6486      6483      6486      6487      6483      6486      6488
      6483      6486      6489      6487      6486      6488      6487      6486      6489
      6488      6486      6489      6486      6489      6490      6486      6489      6491
      6486      6489      6492      6490      6489      6491      6490      6489      6492
      6491      6489      6492      6489      6492      6493      6489      6492      6494
      6489      6492      6495      6493      6492      6494      6493      6492      6495
      6494      6492      6495      6492      6495      6496      6492      6495      6497
      6496      6495      6497      6495      6497      6498      6495      6497      6499
      6498      6497      6499      6497      6499      6500      6497      6499      6501
      6497      6499      6502      6500      6499      6501      6500      6499      6502
      6501      6499      6502      6499      6502      6503      6499      6502      6504
      6499      6502      6505      6503      6502      6504      6503      6502      6505
      6504      6502      6505      6502      6505      6506      6502      6505      6507
      6502      6505      6508      6506      6505      6507      6506      6505      6508
      6507      6505      6508      6505      6508      6509      6505      6508      6510
      6505      6508      6511      6509      6508      6510      6509      6508      6511
      6510      6508      6511      6508      6511      6512      6508      6511      6513
      6508      6511      6514      6512      6511      6513      6512      6511      6514
      6513      6511      6514      6511      6514      6515      6511      6514      6516
      6511      6514      6517      6515      6514      6516      6515      6514      6517
      6516      6514      6517      6514      6517      6518      6514      6517      6519
      6514      6517      6520      6518      6517      6519      6518      6517      6520
      6519      6517      6520      6517      6520      6521      6517      6520      6522
      6517      6520      6523      6521      6520      6522      6521      6520      6523
      6522      6520      6523      6474      6524      6525      6474      6524      6526
      6474      6524      6527      6525      6524      6526      6525      6524      6527
      6526      6524      6527      6524      6527      6528      6524      6527      6529
      6524      6527      6530      6528      6527      6529      6528      6527      6530
      6529      6527      6530      6527      6530      6531      6527      6530      6532
      6527      6530      6533      6531      6530      6532      6531      6530      6533
      6532      6530      6533      6530      6533      6534      6530      6533      6535
      6530      6533      6536      6534      6533      6535      6534      6533      6536
      6535      6533      6536      6533      6536      6537      6533      6536      6538
      6533      6536      6539      6537      6536      6538      6537      6536      6539
      6538      6536      6539      6536      6539      6540      6536      6539      6541
      6536      6539      6542      6540      6539      6541      6540      6539      6542
      6541      6539      6542      6539      6542      6543      6539      6542      6544
      6539      6542      6545      6543      6542      6544      6543      6542      6545
      6544      6542      6545      6542      6545      6546      6542      6545      6547
      6542      6545      6548      6546      6545      6547      6546      6545      6548
      6547      6545      6548      6545      6548      6549      6545      6548      6550
      6545      6548      6551      6549      6548      6550      6549      6548      6551
      6550      6548      6551      6548      6551      6552      6548      6551      6553
      6548      6551      6554      6552      6551      6553      6552      6551      6554
      6553      6551      6554      6551      6554      6555      6551      6554      6556
      6551      6554      6557      6555      6554      6556      6555      6554      6557
      6556      6554      6557      6554      6557      6558      6554      6557      6559
      6554      6557      6560      6558      6557      6559      6558      6557      6560
      6559      6557      6560      6557      6560      6561      6557      6560      6562
      6557      6560      6563      6561      6560      6562      6561      6560      6563
      6562      6560      6563      6560      6563      6564      6560      6563      6565
      6560      6563      6566      6564      6563      6565      6564      6563      6566
      6565      6563      6566      6568      6567      6571      6568      6567      6575
      6568      6567      6579      6571      6567      6575      6571      6567      6579
      6575      6567      6579      6567      6568      6569      6567      6568      6570
      6567      6568      6583      6569      6568      6570      6569      6568      6583
      6570      6568      6583      6567      6571      6572      6567      6571      6573
      6567      6571      6574      6572      6571      6573      6572      6571      6574
      6573      6571      6574      6567      6575      6576      6567      6575      6577
      6567      6575      6578      6576      6575      6577      6576      6575      6578
      6577      6575      6578      6567      6579      6580      6567      6579      6581
      6567      6579      6582      6580      6579      6581      6580      6579      6582
      6581      6579      6582      6568      6583      6584      6568      6583      6585
      6568      6583      6589      6584      6583      6585      6584      6583      6589
      6585      6583      6589      6587      6586      6588      6587      6586      6589
      6587      6586      6590      6588      6586      6589      6588      6586      6590
      6589      6586      6590      6583      6589      6586      6586      6590      6591
      6590      6591      6592      6590      6591      6593      6590      6591      6594
      6592      6591      6593      6592      6591      6594      6593      6591      6594
      6591      6594      6595      6591      6594      6596      6591      6594      6602
      6595      6594      6596      6595      6594      6602      6596      6594      6602
      6594      6596      6597      6596      6597      6598      6596      6597      6599
      6598      6597      6599      6597      6599      6600      6597      6599      6601
      6597      6599      6611      6600      6599      6601      6600      6599      6611
      6601      6599      6611      6594      6602      6603      6594      6602      6604
      6594      6602      6605      6603      6602      6604      6603      6602      6605
      6604      6602      6605      6602      6605      6606      6605      6606      6607
      6605      6606      6608      6607      6606      6608      6606      6608      6609
      6606      6608      6610      6606      6608      6658      6609      6608      6610
      6609      6608      6658      6610      6608      6658      6599      6611      6612
      6599      6611      6613      6599      6611      6614      6612      6611      6613
      6612      6611      6614      6613      6611      6614      6611      6614      6615
      6611      6614      6616      6611      6614      6617      6615      6614      6616
      6615      6614      6617      6616      6614      6617      6614      6617      6618
      6614      6617      6619      6614      6617      6620      6618      6617      6619
      6618      6617      6620      6619      6617      6620      6617      6620      6621
      6617      6620      6622      6617      6620      6623      6621      6620      6622
      6621      6620      6623      6622      6620      6623      6620      6623      6624
      6620      6623      6625      6620      6623      6626      6624      6623      6625
      6624      6623      6626      6625      6623      6626      6623      6626      6627
      6623      6626      6628      6623      6626      6629      6627      6626      6628
      6627      6626      6629      6628      6626      6629      6626      6629      6630
      6626      6629      6631      6630      6629      6631      6629      6631      6632
      6629      6631      6633      6632      6631      6633      6631      6633      6634
      6631      6633      6635      6631      6633      6636      6634      6633      6635
      6634      6633      6636      6635      6633      6636      6633      6636      6637
      6633      6636      6638      6633      6636      6639      6637      6636      6638
      6637      6636      6639      6638      6636      6639      6636      6639      6640
      6636      6639      6641      6636      6639      6642      6640      6639      6641
      6640      6639      6642      6641      6639      6642      6639      6642      6643
      6639      6642      6644      6639      6642      6645      6643      6642      6644
      6643      6642      6645      6644      6642      6645      6642      6645      6646
      6642      6645      6647      6642      6645      6648      6646      6645      6647
      6646      6645      6648      6647      6645      6648      6645      6648      6649
      6645      6648      6650      6645      6648      6651      6649      6648      6650
      6649      6648      6651      6650      6648      6651      6648      6651      6652
      6648      6651      6653      6648      6651      6654      6652      6651      6653
      6652      6651      6654      6653      6651      6654      6651      6654      6655
      6651      6654      6656      6651      6654      6657      6655      6654      6656
      6655      6654      6657      6656      6654      6657      6608      6658      6659
      6608      6658      6660      6608      6658      6661      6659      6658      6660
      6659      6658      6661      6660      6658      6661      6658      6661      6662
      6658      6661      6663      6658      6661      6664      6662      6661      6663
      6662      6661      6664      6663      6661      6664      6661      6664      6665
      6661      6664      6666      6661      6664      6667      6665      6664      6666
      6665      6664      6667      6666      6664      6667      6664      6667      6668
      6664      6667      6669      6664      6667      6670      6668      6667      6669
      6668      6667      6670      6669      6667      6670      6667      6670      6671
      6667      6670      6672      6667      6670      6673      6671      6670      6672
      6671      6670      6673      6672      6670      6673      6670      6673      6674
      6670      6673      6675      6670      6673      6676      6674      6673      6675
      6674      6673      6676      6675      6673      6676      6673      6676      6677
      6673      6676      6678      6673      6676      6679      6677      6676      6678
      6677      6676      6679      6678      6676      6679      6676      6679      6680
      6676      6679      6681      6676      6679      6682      6680      6679      6681
      6680      6679      6682      6681      6679      6682      6679      6682      6683
      6679      6682      6684      6679      6682      6685      6683      6682      6684
      6683      6682      6685      6684      6682      6685      6682      6685      6686
      6682      6685      6687      6682      6685      6688      6686      6685      6687
      6686      6685      6688      6687      6685      6688      6685      6688      6689
      6685      6688      6690      6685      6688      6691      6689      6688      6690
      6689      6688      6691      6690      6688      6691      6688      6691      6692
      6688      6691      6693      6688      6691      6694      6692      6691      6693
      6692      6691      6694      6693      6691      6694      6691      6694      6695
      6691      6694      6696      6691      6694      6697      6695      6694      6696
      6695      6694      6697      6696      6694      6697      6694      6697      6698
      6694      6697      6699      6694      6697      6700      6698      6697      6699
      6698      6697      6700      6699      6697      6700      6702      6701      6705
      6702      6701      6709      6702      6701      6713      6705      6701      6709
      6705      6701      6713      6709      6701      6713      6701      6702      6703
      6701      6702      6704      6701      6702      6717      6703      6702      6704
      6703      6702      6717      6704      6702      6717      6701      6705      6706
      6701      6705      6707      6701      6705      6708      6706      6705      6707
      6706      6705      6708      6707      6705      6708      6701      6709      6710
      6701      6709      6711      6701      6709      6712      6710      6709      6711
      6710      6709      6712      6711      6709      6712      6701      6713      6714
      6701      6713      6715      6701      6713      6716      6714      6713      6715
      6714      6713      6716      6715      6713      6716      6702      6717      6718
      6702      6717      6719      6702      6717      6723      6718      6717      6719
      6718      6717      6723      6719      6717      6723      6721      6720      6722
      6721      6720      6723      6721      6720      6724      6722      6720      6723
      6722      6720      6724      6723      6720      6724      6717      6723      6720
      6720      6724      6725      6724      6725      6726      6724      6725      6727
      6724      6725      6728      6726      6725      6727      6726      6725      6728
      6727      6725      6728      6725      6728      6729      6725      6728      6730
      6725      6728      6736      6729      6728      6730      6729      6728      6736
      6730      6728      6736      6728      6730      6731      6730      6731      6732
      6730      6731      6733      6732      6731      6733      6731      6733      6734
      6731      6733      6735      6731      6733      6745      6734      6733      6735
      6734      6733      6745      6735      6733      6745      6728      6736      6737
      6728      6736      6738      6728      6736      6739      6737      6736      6738
      6737      6736      6739      6738      6736      6739      6736      6739      6740
      6739      6740      6741      6739      6740      6742      6741      6740      6742
      6740      6742      6743      6740      6742      6744      6740      6742      6792
      6743      6742      6744      6743      6742      6792      6744      6742      6792
      6733      6745      6746      6733      6745      6747      6733      6745      6748
      6746      6745      6747      6746      6745      6748      6747      6745      6748
      6745      6748      6749      6745      6748      6750      6745      6748      6751
      6749      6748      6750      6749      6748      6751      6750      6748      6751
      6748      6751      6752      6748      6751      6753      6748      6751      6754
      6752      6751      6753      6752      6751      6754      6753      6751      6754
      6751      6754      6755      6751      6754      6756      6751      6754      6757
      6755      6754      6756      6755      6754      6757      6756      6754      6757
      6754      6757      6758      6754      6757      6759      6754      6757      6760
      6758      6757      6759      6758      6757      6760      6759      6757      6760
      6757      6760      6761      6757      6760      6762      6757      6760      6763
      6761      6760      6762      6761      6760      6763      6762      6760      6763
      6760      6763      6764      6760      6763      6765      6764      6763      6765
      6763      6765      6766      6763      6765      6767      6766      6765      6767
      6765      6767      6768      6765      6767      6769      6765      6767      6770
      6768      6767      6769      6768      6767      6770      6769      6767      6770
      6767      6770      6771      6767      6770      6772      6767      6770      6773
      6771      6770      6772      6771      6770      6773      6772      6770      6773
      6770      6773      6774      6770      6773      6775      6770      6773      6776
      6774      6773      6775      6774      6773      6776      6775      6773      6776
      6773      6776      6777      6773      6776      6778      6773      6776      6779
      6777      6776      6778      6777      6776      6779      6778      6776      6779
      6776      6779      6780      6776      6779      6781      6776      6779      6782
      6780      6779      6781      6780      6779      6782      6781      6779      6782
      6779      6782      6783      6779      6782      6784      6779      6782      6785
      6783      6782      6784      6783      6782      6785      6784      6782      6785
      6782      6785      6786      6782      6785      6787      6782      6785      6788
      6786      6785      6787      6786      6785      6788      6787      6785      6788
      6785      6788      6789      6785      6788      6790      6785      6788      6791
      6789      6788      6790      6789      6788      6791      6790      6788      6791
      6742      6792      6793      6742      6792      6794      6742      6792      6795
      6793      6792      6794      6793      6792      6795      6794      6792      6795
      6792      6795      6796      6792      6795      6797      6792      6795      6798
      6796      6795      6797      6796      6795      6798      6797      6795      6798
      6795      6798      6799      6795      6798      6800      6795      6798      6801
      6799      6798      6800      6799      6798      6801      6800      6798      6801
      6798      6801      6802      6798      6801      6803      6798      6801      6804
      6802      6801      6803      6802      6801      6804      6803      6801      6804
      6801      6804      6805      6801      6804      6806      6801      6804      6807
      6805      6804      6806      6805      6804      6807      6806      6804      6807
      6804      6807      6808      6804      6807      6809      6804      6807      6810
      6808      6807      6809      6808      6807      6810      6809      6807      6810
      6807      6810      6811      6807      6810      6812      6807      6810      6813
      6811      6810      6812      6811      6810      6813      6812      6810      6813
      6810      6813      6814      6810      6813      6815      6810      6813      6816
      6814      6813      6815      6814      6813      6816      6815      6813      6816
      6813      6816      6817      6813      6816      6818      6813      6816      6819
      6817      6816      6818      6817      6816      6819      6818      6816      6819
      6816      6819      6820      6816      6819      6821      6816      6819      6822
      6820      6819      6821      6820      6819      6822      6821      6819      6822
      6819      6822      6823      6819      6822      6824      6819      6822      6825
      6823      6822      6824      6823      6822      6825      6824      6822      6825
      6822      6825      6826      6822      6825      6827      6822      6825      6828
      6826      6825      6827      6826      6825      6828      6827      6825      6828
      6825      6828      6829      6825      6828      6830      6825      6828      6831
      6829      6828      6830      6829      6828      6831      6830      6828      6831
      6828      6831      6832      6828      6831      6833      6828      6831      6834
      6832      6831      6833      6832      6831      6834      6833      6831      6834
      6836      6835      6839      6836      6835      6843      6836      6835      6847
      6839      6835      6843      6839      6835      6847      6843      6835      6847
      6835      6836      6837      6835      6836      6838      6835      6836      6851
      6837      6836      6838      6837      6836      6851      6838      6836      6851
      6835      6839      6840      6835      6839      6841      6835      6839      6842
      6840      6839      6841      6840      6839      6842      6841      6839      6842
      6835      6843      6844      6835      6843      6845      6835      6843      6846
      6844      6843      6845      6844      6843      6846      6845      6843      6846
      6835      6847      6848      6835      6847      6849      6835      6847      6850
      6848      6847      6849      6848      6847      6850      6849      6847      6850
      6836      6851      6852      6836      6851      6853      6836      6851      6857
      6852      6851      6853      6852      6851      6857      6853      6851      6857
      6855      6854      6856      6855      6854      6857      6855      6854      6858
      6856      6854      6857      6856      6854      6858      6857      6854      6858
      6851      6857      6854      6854      6858      6859      6858      6859      6860
      6858      6859      6861      6858      6859      6862      6860      6859      6861
      6860      6859      6862      6861      6859      6862      6859      6862      6863
      6859      6862      6864      6859      6862      6870      6863      6862      6864
      6863      6862      6870      6864      6862      6870      6862      6864      6865
      6864      6865      6866      6864      6865      6867      6866      6865      6867
      6865      6867      6868      6865      6867      6869      6865      6867      6879
      6868      6867      6869      6868      6867      6879      6869      6867      6879
      6862      6870      6871      6862      6870      6872      6862      6870      6873
      6871      6870      6872      6871      6870      6873      6872      6870      6873
      6870      6873      6874      6873      6874      6875      6873      6874      6876
      6875      6874      6876      6874      6876      6877      6874      6876      6878
      6874      6876      6926      6877      6876      6878      6877      6876      6926
      6878      6876      6926      6867      6879      6880      6867      6879      6881
      6867      6879      6882      6880      6879      6881      6880      6879      6882
      6881      6879      6882      6879      6882      6883      6879      6882      6884
      6879      6882      6885      6883      6882      6884      6883      6882      6885
      6884      6882      6885      6882      6885      6886      6882      6885      6887
      6882      6885      6888      6886      6885      6887      6886      6885      6888
      6887      6885      6888      6885      6888      6889      6885      6888      6890
      6885      6888      6891      6889      6888      6890      6889      6888      6891
      6890      6888      6891      6888      6891      6892      6888      6891      6893
      6888      6891      6894      6892      6891      6893      6892      6891      6894
      6893      6891      6894      6891      6894      6895      6891      6894      6896
      6891      6894      6897      6895      6894      6896      6895      6894      6897
      6896      6894      6897      6894      6897      6898      6894      6897      6899
      6898      6897      6899      6897      6899      6900      6897      6899      6901
      6900      6899      6901      6899      6901      6902      6899      6901      6903
      6899      6901      6904      6902      6901      6903      6902      6901      6904
      6903      6901      6904      6901      6904      6905      6901      6904      6906
      6901      6904      6907      6905      6904      6906      6905      6904      6907
      6906      6904      6907      6904      6907      6908      6904      6907      6909
      6904      6907      6910      6908      6907      6909      6908      6907      6910
      6909      6907      6910      6907      6910      6911      6907      6910      6912
      6907      6910      6913      6911      6910      6912      6911      6910      6913
      6912      6910      6913      6910      6913      6914      6910      6913      6915
      6910      6913      6916      6914      6913      6915      6914      6913      6916
      6915      6913      6916      6913      6916      6917      6913      6916      6918
      6913      6916      6919      6917      6916      6918      6917      6916      6919
      6918      6916      6919      6916      6919      6920      6916      6919      6921
      6916      6919      6922      6920      6919      6921      6920      6919      6922
      6921      6919      6922      6919      6922      6923      6919      6922      6924
      6919      6922      6925      6923      6922      6924      6923      6922      6925
      6924      6922      6925      6876      6926      6927      6876      6926      6928
      6876      6926      6929      6927      6926      6928      6927      6926      6929
      6928      6926      6929      6926      6929      6930      6926      6929      6931
      6926      6929      6932      6930      6929      6931      6930      6929      6932
      6931      6929      6932      6929      6932      6933      6929      6932      6934
      6929      6932      6935      6933      6932      6934      6933      6932      6935
      6934      6932      6935      6932      6935      6936      6932      6935      6937
      6932      6935      6938      6936      6935      6937      6936      6935      6938
      6937      6935      6938      6935      6938      6939      6935      6938      6940
      6935      6938      6941      6939      6938      6940      6939      6938      6941
      6940      6938      6941      6938      6941      6942      6938      6941      6943
      6938      6941      6944      6942      6941      6943      6942      6941      6944
      6943      6941      6944      6941      6944      6945      6941      6944      6946
      6941      6944      6947      6945      6944      6946      6945      6944      6947
      6946      6944      6947      6944      6947      6948      6944      6947      6949
      6944      6947      6950      6948      6947      6949      6948      6947      6950
      6949      6947      6950      6947      6950      6951      6947      6950      6952
      6947      6950      6953      6951      6950      6952      6951      6950      6953
      6952      6950      6953      6950      6953      6954      6950      6953      6955
      6950      6953      6956      6954      6953      6955      6954      6953      6956
      6955      6953      6956      6953      6956      6957      6953      6956      6958
      6953      6956      6959      6957      6956      6958      6957      6956      6959
      6958      6956      6959      6956      6959      6960      6956      6959      6961
      6956      6959      6962      6960      6959      6961      6960      6959      6962
      6961      6959      6962      6959      6962      6963      6959      6962      6964
      6959      6962      6965      6963      6962      6964      6963      6962      6965
      6964      6962      6965      6962      6965      6966      6962      6965      6967
      6962      6965      6968      6966      6965      6967      6966      6965      6968
      6967      6965      6968      6970      6969      6973      6970      6969      6977
      6970      6969      6981      6973      6969      6977      6973      6969      6981
      6977      6969      6981      6969      6970      6971      6969      6970      6972
      6969      6970      6985      6971      6970      6972      6971      6970      6985
      6972      6970      6985      6969      6973      6974      6969      6973      6975
      6969      6973      6976      6974      6973      6975      6974      6973      6976
      6975      6973      6976      6969      6977      6978      6969      6977      6979
      6969      6977      6980      6978      6977      6979      6978      6977      6980
      6979      6977      6980      6969      6981      6982      6969      6981      6983
      6969      6981      6984      6982      6981      6983      6982      6981      6984
      6983      6981      6984      6970      6985      6986      6970      6985      6987
      6970      6985      6991      6986      6985      6987      6986      6985      6991
      6987      6985      6991      6989      6988      6990      6989      6988      6991
      6989      6988      6992      6990      6988      6991      6990      6988      6992
      6991      6988      6992      6985      6991      6988      6988      6992      6993
      6992      6993      6994      6992      6993      6995      6992      6993      6996
      6994      6993      6995      6994      6993      6996      6995      6993      6996
      6993      6996      6997      6993      6996      6998      6993      6996      7004
      6997      6996      6998      6997      6996      7004      6998      6996      7004
      6996      6998      6999      6998      6999      7000      6998      6999      7001
      7000      6999      7001      6999      7001      7002      6999      7001      7003
      6999      7001      7013      7002      7001      7003      7002      7001      7013
      7003      7001      7013      6996      7004      7005      6996      7004      7006
      6996      7004      7007      7005      7004      7006      7005      7004      7007
      7006      7004      7007      7004      7007      7008      7007      7008      7009
      7007      7008      7010      7009      7008      7010      7008      7010      7011
      7008      7010      7012      7008      7010      7060      7011      7010      7012
      7011      7010      7060      7012      7010      7060      7001      7013      7014
      7001      7013      7015      7001      7013      7016      7014      7013      7015
      7014      7013      7016      7015      7013      7016      7013      7016      7017
      7013      7016      7018      7013      7016      7019      7017      7016      7018
      7017      7016      7019      7018      7016      7019      7016      7019      7020
      7016      7019      7021      7016      7019      7022      7020      7019      7021
      7020      7019      7022      7021      7019      7022      7019      7022      7023
      7019      7022      7024      7019      7022      7025      7023      7022      7024
      7023      7022      7025      7024      7022      7025      7022      7025      7026
      7022      7025      7027      7022      7025      7028      7026      7025      7027
      7026      7025      7028      7027      7025      7028      7025      7028      7029
      7025      7028      7030      7025      7028      7031      7029      7028      7030
      7029      7028      7031      7030      7028      7031      7028      7031      7032
      7028      7031      7033      7032      7031      7033      7031      7033      7034
      7031      7033      7035      7034      7033      7035      7033      7035      7036
      7033      7035      7037      7033      7035      7038      7036      7035      7037
      7036      7035      7038      7037      7035      7038      7035      7038      7039
      7035      7038      7040      7035      7038      7041      7039      7038      7040
      7039      7038      7041      7040      7038      7041      7038      7041      7042
      7038      7041      7043      7038      7041      7044      7042      7041      7043
      7042      7041      7044      7043      7041      7044      7041      7044      7045
      7041      7044      7046      7041      7044      7047      7045      7044      7046
      7045      7044      7047      7046      7044      7047      7044      7047      7048
      7044      7047      7049      7044      7047      7050      7048      7047      7049
      7048      7047      7050      7049      7047      7050      7047      7050      7051
      7047      7050      7052      7047      7050      7053      7051      7050      7052
      7051      7050      7053      7052      7050      7053      7050      7053      7054
      7050      7053      7055      7050      7053      7056      7054      7053      7055
      7054      7053      7056      7055      7053      7056      7053      7056      7057
      7053      7056      7058      7053      7056      7059      7057      7056      7058
      7057      7056      7059      7058      7056      7059      7010      7060      7061
      7010      7060      7062      7010      7060      7063      7061      7060      7062
      7061      7060      7063      7062      7060      7063      7060      7063      7064
      7060      7063      7065      7060      7063      7066      7064      7063      7065
      7064      7063      7066      7065      7063      7066      7063      7066      7067
      7063      7066      7068      7063      7066      7069      7067      7066      7068
      7067      7066      7069      7068      7066      7069      7066      7069      7070
      7066      7069      7071      7066      7069      7072      7070      7069      7071
      7070      7069      7072      7071      7069      7072      7069      7072      7073
      7069      7072      7074      7069      7072      7075      7073      7072      7074
      7073      7072      7075      7074      7072      7075      7072      7075      7076
      7072      7075      7077      7072      7075      7078      7076      7075      7077
      7076      7075      7078      7077      7075      7078      7075      7078      7079
      7075      7078      7080      7075      7078      7081      7079      7078      7080
      7079      7078      7081      7080      7078      7081      7078      7081      7082
      7078      7081      7083      7078      7081      7084      7082      7081      7083
      7082      7081      7084      7083      7081      7084      7081      7084      7085
      7081      7084      7086      7081      7084      7087      7085      7084      7086
      7085      7084      7087      7086      7084      7087      7084      7087      7088
      7084      7087      7089      7084      7087      7090      7088      7087      7089
      7088      7087      7090      7089      7087      7090      7087      7090      7091
      7087      7090      7092      7087      7090      7093      7091      7090      7092
      7091      7090      7093      7092      7090      7093      7090      7093      7094
      7090      7093      7095      7090      7093      7096      7094      7093      7095
      7094      7093      7096      7095      7093      7096      7093      7096      7097
      7093      7096      7098      7093      7096      7099      7097      7096      7098
      7097      7096      7099      7098      7096      7099      7096      7099      7100
      7096      7099      7101      7096      7099      7102      7100      7099      7101
      7100      7099      7102      7101      7099      7102      7104      7103      7107
      7104      7103      7111      7104      7103      7115      7107      7103      7111
      7107      7103      7115      7111      7103      7115      7103      7104      7105
      7103      7104      7106      7103      7104      7119      7105      7104      7106
      7105      7104      7119      7106      7104      7119      7103      7107      7108
      7103      7107      7109      7103      7107      7110      7108      7107      7109
      7108      7107      7110      7109      7107      7110      7103      7111      7112
      7103      7111      7113      7103      7111      7114      7112      7111      7113
      7112      7111      7114      7113      7111      7114      7103      7115      7116
      7103      7115      7117      7103      7115      7118      7116      7115      7117
      7116      7115      7118      7117      7115      7118      7104      7119      7120
      7104      7119      7121      7104      7119      7125      7120      7119      7121
      7120      7119      7125      7121      7119      7125      7123      7122      7124
      7123      7122      7125      7123      7122      7126      7124      7122      7125
      7124      7122      7126      7125      7122      7126      7119      7125      7122
      7122      7126      7127      7126      7127      7128      7126      7127      7129
      7126      7127      7130      7128      7127      7129      7128      7127      7130
      7129      7127      7130      7127      7130      7131      7127      7130      7132
      7127      7130      7138      7131      7130      7132      7131      7130      7138
      7132      7130      7138      7130      7132      7133      7132      7133      7134
      7132      7133      7135      7134      7133      7135      7133      7135      7136
      7133      7135      7137      7133      7135      7147      7136      7135      7137
      7136      7135      7147      7137      7135      7147      7130      7138      7139
      7130      7138      7140      7130      7138      7141      7139      7138      7140
      7139      7138      7141      7140      7138      7141      7138      7141      7142
      7141      7142      7143      7141      7142      7144      7143      7142      7144
      7142      7144      7145      7142      7144      7146      7142      7144      7194
      7145      7144      7146      7145      7144      7194      7146      7144      7194
      7135      7147      7148      7135      7147      7149      7135      7147      7150
      7148      7147      7149      7148      7147      7150      7149      7147      7150
      7147      7150      7151      7147      7150      7152      7147      7150      7153
      7151      7150      7152      7151      7150      7153      7152      7150      7153
      7150      7153      7154      7150      7153      7155      7150      7153      7156
      7154      7153      7155      7154      7153      7156      7155      7153      7156
      7153      7156      7157      7153      7156      7158      7153      7156      7159
      7157      7156      7158      7157      7156      7159      7158      7156      7159
      7156      7159      7160      7156      7159      7161      7156      7159      7162
      7160      7159      7161      7160      7159      7162      7161      7159      7162
      7159      7162      7163      7159      7162      7164      7159      7162      7165
      7163      7162      7164      7163      7162      7165      7164      7162      7165
      7162      7165      7166      7162      7165      7167      7166      7165      7167
      7165      7167      7168      7165      7167      7169      7168      7167      7169
      7167      7169      7170      7167      7169      7171      7167      7169      7172
      7170      7169      7171      7170      7169      7172      7171      7169      7172
      7169      7172      7173      7169      7172      7174      7169      7172      7175
      7173      7172      7174      7173      7172      7175      7174      7172      7175
      7172      7175      7176      7172      7175      7177      7172      7175      7178
      7176      7175      7177      7176      7175      7178      7177      7175      7178
      7175      7178      7179      7175      7178      7180      7175      7178      7181
      7179      7178      7180      7179      7178      7181      7180      7178      7181
      7178      7181      7182      7178      7181      7183      7178      7181      7184
      7182      7181      7183      7182      7181      7184      7183      7181      7184
      7181      7184      7185      7181      7184      7186      7181      7184      7187
      7185      7184      7186      7185      7184      7187      7186      7184      7187
      7184      7187      7188      7184      7187      7189      7184      7187      7190
      7188      7187      7189      7188      7187      7190      7189      7187      7190
      7187      7190      7191      7187      7190      7192      7187      7190      7193
      7191      7190      7192      7191      7190      7193      7192      7190      7193
      7144      7194      7195      7144      7194      7196      7144      7194      7197
      7195      7194      7196      7195      7194      7197      7196      7194      7197
      7194      7197      7198      7194      7197      7199      7194      7197      7200
      7198      7197      7199      7198      7197      7200      7199      7197      7200
      7197      7200      7201      7197      7200      7202      7197      7200      7203
      7201      7200      7202      7201      7200      7203      7202      7200      7203
      7200      7203      7204      7200      7203      7205      7200      7203      7206
      7204      7203      7205      7204      7203      7206      7205      7203      7206
      7203      7206      7207      7203      7206      7208      7203      7206      7209
      7207      7206      7208      7207      7206      7209      7208      7206      7209
      7206      7209      7210      7206      7209      7211      7206      7209      7212
      7210      7209      7211      7210      7209      7212      7211      7209      7212
      7209      7212      7213      7209      7212      7214      7209      7212      7215
      7213      7212      7214      7213      7212      7215      7214      7212      7215
      7212      7215      7216      7212      7215      7217      7212      7215      7218
      7216      7215      7217      7216      7215      7218      7217      7215      7218
      7215      7218      7219      7215      7218      7220      7215      7218      7221
      7219      7218      7220      7219      7218      7221      7220      7218      7221
      7218      7221      7222      7218      7221      7223      7218      7221      7224
      7222      7221      7223      7222      7221      7224      7223      7221      7224
      7221      7224      7225      7221      7224      7226      7221      7224      7227
      7225      7224      7226      7225      7224      7227      7226      7224      7227
      7224      7227      7228      7224      7227      7229      7224      7227      7230
      7228      7227      7229      7228      7227      7230      7229      7227      7230
      7227      7230      7231      7227      7230      7232      7227      7230      7233
      7231      7230      7232      7231      7230      7233      7232      7230      7233
      7230      7233      7234      7230      7233      7235      7230      7233      7236
      7234      7233      7235      7234      7233      7236      7235      7233      7236
      7238      7237      7241      7238      7237      7245      7238      7237      7249
      7241      7237      7245      7241      7237      7249      7245      7237      7249
      7237      7238      7239      7237      7238      7240      7237      7238      7253
      7239      7238      7240      7239      7238      7253      7240      7238      7253
      7237      7241      7242      7237      7241      7243      7237      7241      7244
      7242      7241      7243      7242      7241      7244      7243      7241      7244
      7237      7245      7246      7237      7245      7247      7237      7245      7248
      7246      7245      7247      7246      7245      7248      7247      7245      7248
      7237      7249      7250      7237      7249      7251      7237      7249      7252
      7250      7249      7251      7250      7249      7252      7251      7249      7252
      7238      7253      7254      7238      7253      7255      7238      7253      7259
      7254      7253      7255      7254      7253      7259      7255      7253      7259
      7257      7256      7258      7257      7256      7259      7257      7256      7260
      7258      7256      7259      7258      7256      7260      7259      7256      7260
      7253      7259      7256      7256      7260      7261      7260      7261      7262
      7260      7261      7263      7260      7261      7264      7262      7261      7263
      7262      7261      7264      7263      7261      7264      7261      7264      7265
      7261      7264      7266      7261      7264      7272      7265      7264      7266
      7265      7264      7272      7266      7264      7272      7264      7266      7267
      7266      7267      7268      7266      7267      7269      7268      7267      7269
      7267      7269      7270      7267      7269      7271      7267      7269      7281
      7270      7269      7271      7270      7269      7281      7271      7269      7281
      7264      7272      7273      7264      7272      7274      7264      7272      7275
      7273      7272      7274      7273      7272      7275      7274      7272      7275
      7272      7275      7276      7275      7276      7277      7275      7276      7278
      7277      7276      7278      7276      7278      7279      7276      7278      7280
      7276      7278      7328      7279      7278      7280      7279      7278      7328
      7280      7278      7328      7269      7281      7282      7269      7281      7283
      7269      7281      7284      7282      7281      7283      7282      7281      7284
      7283      7281      7284      7281      7284      7285      7281      7284      7286
      7281      7284      7287      7285      7284      7286      7285      7284      7287
      7286      7284      7287      7284      7287      7288      7284      7287      7289
      7284      7287      7290      7288      7287      7289      7288      7287      7290
      7289      7287      7290      7287      7290      7291      7287      7290      7292
      7287      7290      7293      7291      7290      7292      7291      7290      7293
      7292      7290      7293      7290      7293      7294      7290      7293      7295
      7290      7293      7296      7294      7293      7295      7294      7293      7296
      7295      7293      7296      7293      7296      7297      7293      7296      7298
      7293      7296      7299      7297      7296      7298      7297      7296      7299
      7298      7296      7299      7296      7299      7300      7296      7299      7301
      7300      7299      7301      7299      7301      7302      7299      7301      7303
      7302      7301      7303      7301      7303      7304      7301      7303      7305
      7301      7303      7306      7304      7303      7305      7304      7303      7306
      7305      7303      7306      7303      7306      7307      7303      7306      7308
      7303      7306      7309      7307      7306      7308      7307      7306      7309
      7308      7306      7309      7306      7309      7310      7306      7309      7311
      7306      7309      7312      7310      7309      7311      7310      7309      7312
      7311      7309      7312      7309      7312      7313      7309      7312      7314
      7309      7312      7315      7313      7312      7314      7313      7312      7315
      7314      7312      7315      7312      7315      7316      7312      7315      7317
      7312      7315      7318      7316      7315      7317      7316      7315      7318
      7317      7315      7318      7315      7318      7319      7315      7318      7320
      7315      7318      7321      7319      7318      7320      7319      7318      7321
      7320      7318      7321      7318      7321      7322      7318      7321      7323
      7318      7321      7324      7322      7321      7323      7322      7321      7324
      7323      7321      7324      7321      7324      7325      7321      7324      7326
      7321      7324      7327      7325      7324      7326      7325      7324      7327
      7326      7324      7327      7278      7328      7329      7278      7328      7330
      7278      7328      7331      7329      7328      7330      7329      7328      7331
      7330      7328      7331      7328      7331      7332      7328      7331      7333
      7328      7331      7334      7332      7331      7333      7332      7331      7334
      7333      7331      7334      7331      7334      7335      7331      7334      7336
      7331      7334      7337      7335      7334      7336      7335      7334      7337
      7336      7334      7337      7334      7337      7338      7334      7337      7339
      7334      7337      7340      7338      7337      7339      7338      7337      7340
      7339      7337      7340      7337      7340      7341      7337      7340      7342
      7337      7340      7343      7341      7340      7342      7341      7340      7343
      7342      7340      7343      7340      7343      7344      7340      7343      7345
      7340      7343      7346      7344      7343      7345      7344      7343      7346
      7345      7343      7346      7343      7346      7347      7343      7346      7348
      7343      7346      7349      7347      7346      7348      7347      7346      7349
      7348      7346      7349      7346      7349      7350      7346      7349      7351
      7346      7349      7352      7350      7349      7351      7350      7349      7352
      7351      7349      7352      7349      7352      7353      7349      7352      7354
      7349      7352      7355      7353      7352      7354      7353      7352      7355
      7354      7352      7355      7352      7355      7356      7352      7355      7357
      7352      7355      7358      7356      7355      7357      7356      7355      7358
      7357      7355      7358      7355      7358      7359      7355      7358      7360
      7355      7358      7361      7359      7358      7360      7359      7358      7361
      7360      7358      7361      7358      7361      7362      7358      7361      7363
      7358      7361      7364      7362      7361      7363      7362      7361      7364
      7363      7361      7364      7361      7364      7365      7361      7364      7366
      7361      7364      7367      7365      7364      7366      7365      7364      7367
      7366      7364      7367      7364      7367      7368      7364      7367      7369
      7364      7367      7370      7368      7367      7369      7368      7367      7370
      7369      7367      7370      7372      7371      7375      7372      7371      7379
      7372      7371      7383      7375      7371      7379      7375      7371      7383
      7379      7371      7383      7371      7372      7373      7371      7372      7374
      7371      7372      7387      7373      7372      7374      7373      7372      7387
      7374      7372      7387      7371      7375      7376      7371      7375      7377
      7371      7375      7378      7376      7375      7377      7376      7375      7378
      7377      7375      7378      7371      7379      7380      7371      7379      7381
      7371      7379      7382      7380      7379      7381      7380      7379      7382
      7381      7379      7382      7371      7383      7384      7371      7383      7385
      7371      7383      7386      7384      7383      7385      7384      7383      7386
      7385      7383      7386      7372      7387      7388      7372      7387      7389
      7372      7387      7393      7388      7387      7389      7388      7387      7393
      7389      7387      7393      7391      7390      7392      7391      7390      7393
      7391      7390      7394      7392      7390      7393      7392      7390      7394
      7393      7390      7394      7387      7393      7390      7390      7394      7395
      7394      7395      7396      7394      7395      7397      7394      7395      7398
      7396      7395      7397      7396      7395      7398      7397      7395      7398
      7395      7398      7399      7395      7398      7400      7395      7398      7406
      7399      7398      7400      7399      7398      7406      7400      7398      7406
      7398      7400      7401      7400      7401      7402      7400      7401      7403
      7402      7401      7403      7401      7403      7404      7401      7403      7405
      7401      7403      7415      7404      7403      7405      7404      7403      7415
      7405      7403      7415      7398      7406      7407      7398      7406      7408
      7398      7406      7409      7407      7406      7408      7407      7406      7409
      7408      7406      7409      7406      7409      7410      7409      7410      7411
      7409      7410      7412      7411      7410      7412      7410      7412      7413
      7410      7412      7414      7410      7412      7462      7413      7412      7414
      7413      7412      7462      7414      7412      7462      7403      7415      7416
      7403      7415      7417      7403      7415      7418      7416      7415      7417
      7416      7415      7418      7417      7415      7418      7415      7418      7419
      7415      7418      7420      7415      7418      7421      7419      7418      7420
      7419      7418      7421      7420      7418      7421      7418      7421      7422
      7418      7421      7423      7418      7421      7424      7422      7421      7423
      7422      7421      7424      7423      7421      7424      7421      7424      7425
      7421      7424      7426      7421      7424      7427      7425      7424      7426
      7425      7424      7427      7426      7424      7427      7424      7427      7428
      7424      7427      7429      7424      7427      7430      7428      7427      7429
      7428      7427      7430      7429      7427      7430      7427      7430      7431
      7427      7430      7432      7427      7430      7433      7431      7430      7432
      7431      7430      7433      7432      7430      7433      7430      7433      7434
      7430      7433      7435      7434      7433      7435      7433      7435      7436
      7433      7435      7437      7436      7435      7437      7435      7437      7438
      7435      7437      7439      7435      7437      7440      7438      7437      7439
      7438      7437      7440      7439      7437      7440      7437      7440      7441
      7437      7440      7442      7437      7440      7443      7441      7440      7442
      7441      7440      7443      7442      7440      7443      7440      7443      7444
      7440      7443      7445      7440      7443      7446      7444      7443      7445
      7444      7443      7446      7445      7443      7446      7443      7446      7447
      7443      7446      7448      7443      7446      7449      7447      7446      7448
      7447      7446      7449      7448      7446      7449      7446      7449      7450
      7446      7449      7451      7446      7449      7452      7450      7449      7451
      7450      7449      7452      7451      7449      7452      7449      7452      7453
      7449      7452      7454      7449      7452      7455      7453      7452      7454
      7453      7452      7455      7454      7452      7455      7452      7455      7456
      7452      7455      7457      7452      7455      7458      7456      7455      7457
      7456      7455      7458      7457      7455      7458      7455      7458      7459
      7455      7458      7460      7455      7458      7461      7459      7458      7460
      7459      7458      7461      7460      7458      7461      7412      7462      7463
      7412      7462      7464      7412      7462      7465      7463      7462      7464
      7463      7462      7465      7464      7462      7465      7462      7465      7466
      7462      7465      7467      7462      7465      7468      7466      7465      7467
      7466      7465      7468      7467      7465      7468      7465      7468      7469
      7465      7468      7470      7465      7468      7471      7469      7468      7470
      7469      7468      7471      7470      7468      7471      7468      7471      7472
      7468      7471      7473      7468      7471      7474      7472      7471      7473
      7472      7471      7474      7473      7471      7474      7471      7474      7475
      7471      7474      7476      7471      7474      7477      7475      7474      7476
      7475      7474      7477      7476      7474      7477      7474      7477      7478
      7474      7477      7479      7474      7477      7480      7478      7477      7479
      7478      7477      7480      7479      7477      7480      7477      7480      7481
      7477      7480      7482      7477      7480      7483      7481      7480      7482
      7481      7480      7483      7482      7480      7483      7480      7483      7484
      7480      7483      7485      7480      7483      7486      7484      7483      7485
      7484      7483      7486      7485      7483      7486      7483      7486      7487
      7483      7486      7488      7483      7486      7489      7487      7486      7488
      7487      7486      7489      7488      7486      7489      7486      7489      7490
      7486      7489      7491      7486      7489      7492      7490      7489      7491
      7490      7489      7492      7491      7489      7492      7489      7492      7493
      7489      7492      7494      7489      7492      7495      7493      7492      7494
      7493      7492      7495      7494      7492      7495      7492      7495      7496
      7492      7495      7497      7492      7495      7498      7496      7495      7497
      7496      7495      7498      7497      7495      7498      7495      7498      7499
      7495      7498      7500      7495      7498      7501      7499      7498      7500
      7499      7498      7501      7500      7498      7501      7498      7501      7502
      7498      7501      7503      7498      7501      7504      7502      7501      7503
      7502      7501      7504      7503      7501      7504      7506      7505      7509
      7506      7505      7513      7506      7505      7517      7509      7505      7513
      7509      7505      7517      7513      7505      7517      7505      7506      7507
      7505      7506      7508      7505      7506      7521      7507      7506      7508
      7507      7506      7521      7508      7506      7521      7505      7509      7510
      7505      7509      7511      7505      7509      7512      7510      7509      7511
      7510      7509      7512      7511      7509      7512      7505      7513      7514
      7505      7513      7515      7505      7513      7516      7514      7513      7515
      7514      7513      7516      7515      7513      7516      7505      7517      7518
      7505      7517      7519      7505      7517      7520      7518      7517      7519
      7518      7517      7520      7519      7517      7520      7506      7521      7522
      7506      7521      7523      7506      7521      7527      7522      7521      7523
      7522      7521      7527      7523      7521      7527      7525      7524      7526
      7525      7524      7527      7525      7524      7528      7526      7524      7527
      7526      7524      7528      7527      7524      7528      7521      7527      7524
      7524      7528      7529      7528      7529      7530      7528      7529      7531
      7528      7529      7532      7530      7529      7531      7530      7529      7532
      7531      7529      7532      7529      7532      7533      7529      7532      7534
      7529      7532      7540      7533      7532      7534      7533      7532      7540
      7534      7532      7540      7532      7534      7535      7534      7535      7536
      7534      7535      7537      7536      7535      7537      7535      7537      7538
      7535      7537      7539      7535      7537      7549      7538      7537      7539
      7538      7537      7549      7539      7537      7549      7532      7540      7541
      7532      7540      7542      7532      7540      7543      7541      7540      7542
      7541      7540      7543      7542      7540      7543      7540      7543      7544
      7543      7544      7545      7543      7544      7546      7545      7544      7546
      7544      7546      7547      7544      7546      7548      7544      7546      7596
      7547      7546      7548      7547      7546      7596      7548      7546      7596
      7537      7549      7550      7537      7549      7551      7537      7549      7552
      7550      7549      7551      7550      7549      7552      7551      7549      7552
      7549      7552      7553      7549      7552      7554      7549      7552      7555
      7553      7552      7554      7553      7552      7555      7554      7552      7555
      7552      7555      7556      7552      7555      7557      7552      7555      7558
      7556      7555      7557      7556      7555      7558      7557      7555      7558
      7555      7558      7559      7555      7558      7560      7555      7558      7561
      7559      7558      7560      7559      7558      7561      7560      7558      7561
      7558      7561      7562      7558      7561      7563      7558      7561      7564
      7562      7561      7563      7562      7561      7564      7563      7561      7564
      7561      7564      7565      7561      7564      7566      7561      7564      7567
      7565      7564      7566      7565      7564      7567      7566      7564      7567
      7564      7567      7568      7564      7567      7569      7568      7567      7569
      7567      7569      7570      7567      7569      7571      7570      7569      7571
      7569      7571      7572      7569      7571      7573      7569      7571      7574
      7572      7571      7573      7572      7571      7574      7573      7571      7574
      7571      7574      7575      7571      7574      7576      7571      7574      7577
      7575      7574      7576      7575      7574      7577      7576      7574      7577
      7574      7577      7578      7574      7577      7579      7574      7577      7580
      7578      7577      7579      7578      7577      7580      7579      7577      7580
      7577      7580      7581      7577      7580      7582      7577      7580      7583
      7581      7580      7582      7581      7580      7583      7582      7580      7583
      7580      7583      7584      7580      7583      7585      7580      7583      7586
      7584      7583      7585      7584      7583      7586      7585      7583      7586
      7583      7586      7587      7583      7586      7588      7583      7586      7589
      7587      7586      7588      7587      7586      7589      7588      7586      7589
      7586      7589      7590      7586      7589      7591      7586      7589      7592
      7590      7589      7591      7590      7589      7592      7591      7589      7592
      7589      7592      7593      7589      7592      7594      7589      7592      7595
      7593      7592      7594      7593      7592      7595      7594      7592      7595
      7546      7596      7597      7546      7596      7598      7546      7596      7599
      7597      7596      7598      7597      7596      7599      7598      7596      7599
      7596      7599      7600      7596      7599      7601      7596      7599      7602
      7600      7599      7601      7600      7599      7602      7601      7599      7602
      7599      7602      7603      7599      7602      7604      7599      7602      7605
      7603      7602      7604      7603      7602      7605      7604      7602      7605
      7602      7605      7606      7602      7605      7607      7602      7605      7608
      7606      7605      7607      7606      7605      7608      7607      7605      7608
      7605      7608      7609      7605      7608      7610      7605      7608      7611
      7609      7608      7610      7609      7608      7611      7610      7608      7611
      7608      7611      7612      7608      7611      7613      7608      7611      7614
      7612      7611      7613      7612      7611      7614      7613      7611      7614
      7611      7614      7615      7611      7614      7616      7611      7614      7617
      7615      7614      7616      7615      7614      7617      7616      7614      7617
      7614      7617      7618      7614      7617      7619      7614      7617      7620
      7618      7617      7619      7618      7617      7620      7619      7617      7620
      7617      7620      7621      7617      7620      7622      7617      7620      7623
      7621      7620      7622      7621      7620      7623      7622      7620      7623
      7620      7623      7624      7620      7623      7625      7620      7623      7626
      7624      7623      7625      7624      7623      7626      7625      7623      7626
      7623      7626      7627      7623      7626      7628      7623      7626      7629
      7627      7626      7628      7627      7626      7629      7628      7626      7629
      7626      7629      7630      7626      7629      7631      7626      7629      7632
      7630      7629      7631      7630      7629      7632      7631      7629      7632
      7629      7632      7633      7629      7632      7634      7629      7632      7635
      7633      7632      7634      7633      7632      7635      7634      7632      7635
      7632      7635      7636      7632      7635      7637      7632      7635      7638
      7636      7635      7637      7636      7635      7638      7637      7635      7638
      7640      7639      7643      7640      7639      7647      7640      7639      7651
      7643      7639      7647      7643      7639      7651      7647      7639      7651
      7639      7640      7641      7639      7640      7642      7639      7640      7655
      7641      7640      7642      7641      7640      7655      7642      7640      7655
      7639      7643      7644      7639      7643      7645      7639      7643      7646
      7644      7643      7645      7644      7643      7646      7645      7643      7646
      7639      7647      7648      7639      7647      7649      7639      7647      7650
      7648      7647      7649      7648      7647      7650      7649      7647      7650
      7639      7651      7652      7639      7651      7653      7639      7651      7654
      7652      7651      7653      7652      7651      7654      7653      7651      7654
      7640      7655      7656      7640      7655      7657      7640      7655      7661
      7656      7655      7657      7656      7655      7661      7657      7655      7661
      7659      7658      7660      7659      7658      7661      7659      7658      7662
      7660      7658      7661      7660      7658      7662      7661      7658      7662
      7655      7661      7658      7658      7662      7663      7662      7663      7664
      7662      7663      7665      7662      7663      7666      7664      7663      7665
      7664      7663      7666      7665      7663      7666      7663      7666      7667
      7663      7666      7668      7663      7666      7674      7667      7666      7668
      7667      7666      7674      7668      7666      7674      7666      7668      7669
      7668      7669      7670      7668      7669      7671      7670      7669      7671
      7669      7671      7672      7669      7671      7673      7669      7671      7683
      7672      7671      7673      7672      7671      7683      7673      7671      7683
      7666      7674      7675      7666      7674      7676      7666      7674      7677
      7675      7674      7676      7675      7674      7677      7676      7674      7677
      7674      7677      7678      7677      7678      7679      7677      7678      7680
      7679      7678      7680      7678      7680      7681      7678      7680      7682
      7678      7680      7730      7681      7680      7682      7681      7680      7730
      7682      7680      7730      7671      7683      7684      7671      7683      7685
      7671      7683      7686      7684      7683      7685      7684      7683      7686
      7685      7683      7686      7683      7686      7687      7683      7686      7688
      7683      7686      7689      7687      7686      7688      7687      7686      7689
      7688      7686      7689      7686      7689      7690      7686      7689      7691
      7686      7689      7692      7690      7689      7691      7690      7689      7692
      7691      7689      7692      7689      7692      7693      7689      7692      7694
      7689      7692      7695      7693      7692      7694      7693      7692      7695
      7694      7692      7695      7692      7695      7696      7692      7695      7697
      7692      7695      7698      7696      7695      7697      7696      7695      7698
      7697      7695      7698      7695      7698      7699      7695      7698      7700
      7695      7698      7701      7699      7698      7700      7699      7698      7701
      7700      7698      7701      7698      7701      7702      7698      7701      7703
      7702      7701      7703      7701      7703      7704      7701      7703      7705
      7704      7703      7705      7703      7705      7706      7703      7705      7707
      7703      7705      7708      7706      7705      7707      7706      7705      7708
      7707      7705      7708      7705      7708      7709      7705      7708      7710
      7705      7708      7711      7709      7708      7710      7709      7708      7711
      7710      7708      7711      7708      7711      7712      7708      7711      7713
      7708      7711      7714      7712      7711      7713      7712      7711      7714
      7713      7711      7714      7711      7714      7715      7711      7714      7716
      7711      7714      7717      7715      7714      7716      7715      7714      7717
      7716      7714      7717      7714      7717      7718      7714      7717      7719
      7714      7717      7720      7718      7717      7719      7718      7717      7720
      7719      7717      7720      7717      7720      7721      7717      7720      7722
      7717      7720      7723      7721      7720      7722      7721      7720      7723
      7722      7720      7723      7720      7723      7724      7720      7723      7725
      7720      7723      7726      7724      7723      7725      7724      7723      7726
      7725      7723      7726      7723      7726      7727      7723      7726      7728
      7723      7726      7729      7727      7726      7728      7727      7726      7729
      7728      7726      7729      7680      7730      7731      7680      7730      7732
      7680      7730      7733      7731      7730      7732      7731      7730      7733
      7732      7730      7733      7730      7733      7734      7730      7733      7735
      7730      7733      7736      7734      7733      7735      7734      7733      7736
      7735      7733      7736      7733      7736      7737      7733      7736      7738
      7733      7736      7739      7737      7736      7738      7737      7736      7739
      7738      7736      7739      7736      7739      7740      7736      7739      7741
      7736      7739      7742      7740      7739      7741      7740      7739      7742
      7741      7739      7742      7739      7742      7743      7739      7742      7744
      7739      7742      7745      7743      7742      7744      7743      7742      7745
      7744      7742      7745      7742      7745      7746      7742      7745      7747
      7742      7745      7748      7746      7745      7747      7746      7745      7748
      7747      7745      7748      7745      7748      7749      7745      7748      7750
      7745      7748      7751      7749      7748      7750      7749      7748      7751
      7750      7748      7751      7748      7751      7752      7748      7751      7753
      7748      7751      7754      7752      7751      7753      7752      7751      7754
      7753      7751      7754      7751      7754      7755      7751      7754      7756
      7751      7754      7757      7755      7754      7756      7755      7754      7757
      7756      7754      7757      7754      7757      7758      7754      7757      7759
      7754      7757      7760      7758      7757      7759      7758      7757      7760
      7759      7757      7760      7757      7760      7761      7757      7760      7762
      7757      7760      7763      7761      7760      7762      7761      7760      7763
      7762      7760      7763      7760      7763      7764      7760      7763      7765
      7760      7763      7766      7764      7763      7765      7764      7763      7766
      7765      7763      7766      7763      7766      7767      7763      7766      7768
      7763      7766      7769      7767      7766      7768      7767      7766      7769
      7768      7766      7769      7766      7769      7770      7766      7769      7771
      7766      7769      7772      7770      7769      7771      7770      7769      7772
      7771      7769      7772      7774      7773      7777      7774      7773      7781
      7774      7773      7785      7777      7773      7781      7777      7773      7785
      7781      7773      7785      7773      7774      7775      7773      7774      7776
      7773      7774      7789      7775      7774      7776      7775      7774      7789
      7776      7774      7789      7773      7777      7778      7773      7777      7779
      7773      7777      7780      7778      7777      7779      7778      7777      7780
      7779      7777      7780      7773      7781      7782      7773      7781      7783
      7773      7781      7784      7782      7781      7783      7782      7781      7784
      7783      7781      7784      7773      7785      7786      7773      7785      7787
      7773      7785      7788      7786      7785      7787      7786      7785      7788
      7787      7785      7788      7774      7789      7790      7774      7789      7791
      7774      7789      7795      7790      7789      7791      7790      7789      7795
      7791      7789      7795      7793      7792      7794      7793      7792      7795
      7793      7792      7796      7794      7792      7795      7794      7792      7796
      7795      7792      7796      7789      7795      7792      7792      7796      7797
      7796      7797      7798      7796      7797      7799      7796      7797      7800
      7798      7797      7799      7798      7797      7800      7799      7797      7800
      7797      7800      7801      7797      7800      7802      7797      7800      7808
      7801      7800      7802      7801      7800      7808      7802      7800      7808
      7800      7802      7803      7802      7803      7804      7802      7803      7805
      7804      7803      7805      7803      7805      7806      7803      7805      7807
      7803      7805      7817      7806      7805      7807      7806      7805      7817
      7807      7805      7817      7800      7808      7809      7800      7808      7810
      7800      7808      7811      7809      7808      7810      7809      7808      7811
      7810      7808      7811      7808      7811      7812      7811      7812      7813
      7811      7812      7814      7813      7812      7814      7812      7814      7815
      7812      7814      7816      7812      7814      7864      7815      7814      7816
      7815      7814      7864      7816      7814      7864      7805      7817      7818
      7805      7817      7819      7805      7817      7820      7818      7817      7819
      7818      7817      7820      7819      7817      7820      7817      7820      7821
      7817      7820      7822      7817      7820      7823      7821      7820      7822
      7821      7820      7823      7822      7820      7823      7820      7823      7824
      7820      7823      7825      7820      7823      7826      7824      7823      7825
      7824      7823      7826      7825      7823      7826      7823      7826      7827
      7823      7826      7828      7823      7826      7829      7827      7826      7828
      7827      7826      7829      7828      7826      7829      7826      7829      7830
      7826      7829      7831      7826      7829      7832      7830      7829      7831
      7830      7829      7832      7831      7829      7832      7829      7832      7833
      7829      7832      7834      7829      7832      7835      7833      7832      7834
      7833      7832      7835      7834      7832      7835      7832      7835      7836
      7832      7835      7837      7836      7835      7837      7835      7837      7838
      7835      7837      7839      7838      7837      7839      7837      7839      7840
      7837      7839      7841      7837      7839      7842      7840      7839      7841
      7840      7839      7842      7841      7839      7842      7839      7842      7843
      7839      7842      7844      7839      7842      7845      7843      7842      7844
      7843      7842      7845      7844      7842      7845      7842      7845      7846
      7842      7845      7847      7842      7845      7848      7846      7845      7847
      7846      7845      7848      7847      7845      7848      7845      7848      7849
      7845      7848      7850      7845      7848      7851      7849      7848      7850
      7849      7848      7851      7850      7848      7851      7848      7851      7852
      7848      7851      7853      7848      7851      7854      7852      7851      7853
      7852      7851      7854      7853      7851      7854      7851      7854      7855
      7851      7854      7856      7851      7854      7857      7855      7854      7856
      7855      7854      7857      7856      7854      7857      7854      7857      7858
      7854      7857      7859      7854      7857      7860      7858      7857      7859
      7858      7857      7860      7859      7857      7860      7857      7860      7861
      7857      7860      7862      7857      7860      7863      7861      7860      7862
      7861      7860      7863      7862      7860      7863      7814      7864      7865
      7814      7864      7866      7814      7864      7867      7865      7864      7866
      7865      7864      7867      7866      7864      7867      7864      7867      7868
      7864      7867      7869      7864      7867      7870      7868      7867      7869
      7868      7867      7870      7869      7867      7870      7867      7870      7871
      7867      7870      7872      7867      7870      7873      7871      7870      7872
      7871      7870      7873      7872      7870      7873      7870      7873      7874
      7870      7873      7875      7870      7873      7876      7874      7873      7875
      7874      7873      7876      7875      7873      7876      7873      7876      7877
      7873      7876      7878      7873      7876      7879      7877      7876      7878
      7877      7876      7879      7878      7876      7879      7876      7879      7880
      7876      7879      7881      7876      7879      7882      7880      7879      7881
      7880      7879      7882      7881      7879      7882      7879      7882      7883
      7879      7882      7884      7879      7882      7885      7883      7882      7884
      7883      7882      7885      7884      7882      7885      7882      7885      7886
      7882      7885      7887      7882      7885      7888      7886      7885      7887
      7886      7885      7888      7887      7885      7888      7885      7888      7889
      7885      7888      7890      7885      7888      7891      7889      7888      7890
      7889      7888      7891      7890      7888      7891      7888      7891      7892
      7888      7891      7893      7888      7891      7894      7892      7891      7893
      7892      7891      7894      7893      7891      7894      7891      7894      7895
      7891      7894      7896      7891      7894      7897      7895      7894      7896
      7895      7894      7897      7896      7894      7897      7894      7897      7898
      7894      7897      7899      7894      7897      7900      7898      7897      7899
      7898      7897      7900      7899      7897      7900      7897      7900      7901
      7897      7900      7902      7897      7900      7903      7901      7900      7902
      7901      7900      7903      7902      7900      7903      7900      7903      7904
      7900      7903      7905      7900      7903      7906      7904      7903      7905
      7904      7903      7906      7905      7903      7906      7908      7907      7911
      7908      7907      7915      7908      7907      7919      7911      7907      7915
      7911      7907      7919      7915      7907      7919      7907      7908      7909
      7907      7908      7910      7907      7908      7923      7909      7908      7910
      7909      7908      7923      7910      7908      7923      7907      7911      7912
      7907      7911      7913      7907      7911      7914      7912      7911      7913
      7912      7911      7914      7913      7911      7914      7907      7915      7916
      7907      7915      7917      7907      7915      7918      7916      7915      7917
      7916      7915      7918      7917      7915      7918      7907      7919      7920
      7907      7919      7921      7907      7919      7922      7920      7919      7921
      7920      7919      7922      7921      7919      7922      7908      7923      7924
      7908      7923      7925      7908      7923      7929      7924      7923      7925
      7924      7923      7929      7925      7923      7929      7927      7926      7928
      7927      7926      7929      7927      7926      7930      7928      7926      7929
      7928      7926      7930      7929      7926      7930      7923      7929      7926
      7926      7930      7931      7930      7931      7932      7930      7931      7933
      7930      7931      7934      7932      7931      7933      7932      7931      7934
      7933      7931      7934      7931      7934      7935      7931      7934      7936
      7931      7934      7942      7935      7934      7936      7935      7934      7942
      7936      7934      7942      7934      7936      7937      7936      7937      7938
      7936      7937      7939      7938      7937      7939      7937      7939      7940
      7937      7939      7941      7937      7939      7951      7940      7939      7941
      7940      7939      7951      7941      7939      7951      7934      7942      7943
      7934      7942      7944      7934      7942      7945      7943      7942      7944
      7943      7942      7945      7944      7942      7945      7942      7945      7946
      7945      7946      7947      7945      7946      7948      7947      7946      7948
      7946      7948      7949      7946      7948      7950      7946      7948      7998
      7949      7948      7950      7949      7948      7998      7950      7948      7998
      7939      7951      7952      7939      7951      7953      7939      7951      7954
      7952      7951      7953      7952      7951      7954      7953      7951      7954
      7951      7954      7955      7951      7954      7956      7951      7954      7957
      7955      7954      7956      7955      7954      7957      7956      7954      7957
      7954      7957      7958      7954      7957      7959      7954      7957      7960
      7958      7957      7959      7958      7957      7960      7959      7957      7960
      7957      7960      7961      7957      7960      7962      7957      7960      7963
      7961      7960      7962      7961      7960      7963      7962      7960      7963
      7960      7963      7964      7960      7963      7965      7960      7963      7966
      7964      7963      7965      7964      7963      7966      7965      7963      7966
      7963      7966      7967      7963      7966      7968      7963      7966      7969
      7967      7966      7968      7967      7966      7969      7968      7966      7969
      7966      7969      7970      7966      7969      7971      7970      7969      7971
      7969      7971      7972      7969      7971      7973      7972      7971      7973
      7971      7973      7974      7971      7973      7975      7971      7973      7976
      7974      7973      7975      7974      7973      7976      7975      7973      7976
      7973      7976      7977      7973      7976      7978      7973      7976      7979
      7977      7976      7978      7977      7976      7979      7978      7976      7979
      7976      7979      7980      7976      7979      7981      7976      7979      7982
      7980      7979      7981      7980      7979      7982      7981      7979      7982
      7979      7982      7983      7979      7982      7984      7979      7982      7985
      7983      7982      7984      7983      7982      7985      7984      7982      7985
      7982      7985      7986      7982      7985      7987      7982      7985      7988
      7986      7985      7987      7986      7985      7988      7987      7985      7988
      7985      7988      7989      7985      7988      7990      7985      7988      7991
      7989      7988      7990      7989      7988      7991      7990      7988      7991
      7988      7991      7992      7988      7991      7993      7988      7991      7994
      7992      7991      7993      7992      7991      7994      7993      7991      7994
      7991      7994      7995      7991      7994      7996      7991      7994      7997
      7995      7994      7996      7995      7994      7997      7996      7994      7997
      7948      7998      7999      7948      7998      8000      7948      7998      8001
      7999      7998      8000      7999      7998      8001      8000      7998      8001
      7998      8001      8002      7998      8001      8003      7998      8001      8004
      8002      8001      8003      8002      8001      8004      8003      8001      8004
      8001      8004      8005      8001      8004      8006      8001      8004      8007
      8005      8004      8006      8005      8004      8007      8006      8004      8007
      8004      8007      8008      8004      8007      8009      8004      8007      8010
      8008      8007      8009      8008      8007      8010      8009      8007      8010
      8007      8010      8011      8007      8010      8012      8007      8010      8013
      8011      8010      8012      8011      8010      8013      8012      8010      8013
      8010      8013      8014      8010      8013      8015      8010      8013      8016
      8014      8013      8015      8014      8013      8016      8015      8013      8016
      8013      8016      8017      8013      8016      8018      8013      8016      8019
      8017      8016      8018      8017      8016      8019      8018      8016      8019
      8016      8019      8020      8016      8019      8021      8016      8019      8022
      8020      8019      8021      8020      8019      8022      8021      8019      8022
      8019      8022      8023      8019      8022      8024      8019      8022      8025
      8023      8022      8024      8023      8022      8025      8024      8022      8025
      8022      8025      8026      8022      8025      8027      8022      8025      8028
      8026      8025      8027      8026      8025      8028      8027      8025      8028
      8025      8028      8029      8025      8028      8030      8025      8028      8031
      8029      8028      8030      8029      8028      8031      8030      8028      8031
      8028      8031      8032      8028      8031      8033      8028      8031      8034
      8032      8031      8033      8032      8031      8034      8033      8031      8034
      8031      8034      8035      8031      8034      8036      8031      8034      8037
      8035      8034      8036      8035      8034      8037      8036      8034      8037
      8034      8037      8038      8034      8037      8039      8034      8037      8040
      8038      8037      8039      8038      8037      8040      8039      8037      8040
      8042      8041      8045      8042      8041      8049      8042      8041      8053
      8045      8041      8049      8045      8041      8053      8049      8041      8053
      8041      8042      8043      8041      8042      8044      8041      8042      8057
      8043      8042      8044      8043      8042      8057      8044      8042      8057
      8041      8045      8046      8041      8045      8047      8041      8045      8048
      8046      8045      8047      8046      8045      8048      8047      8045      8048
      8041      8049      8050      8041      8049      8051      8041      8049      8052
      8050      8049      8051      8050      8049      8052      8051      8049      8052
      8041      8053      8054      8041      8053      8055      8041      8053      8056
      8054      8053      8055      8054      8053      8056      8055      8053      8056
      8042      8057      8058      8042      8057      8059      8042      8057      8063
      8058      8057      8059      8058      8057      8063      8059      8057      8063
      8061      8060      8062      8061      8060      8063      8061      8060      8064
      8062      8060      8063      8062      8060      8064      8063      8060      8064
      8057      8063      8060      8060      8064      8065      8064      8065      8066
      8064      8065      8067      8064      8065      8068      8066      8065      8067
      8066      8065      8068      8067      8065      8068      8065      8068      8069
      8065      8068      8070      8065      8068      8076      8069      8068      8070
      8069      8068      8076      8070      8068      8076      8068      8070      8071
      8070      8071      8072      8070      8071      8073      8072      8071      8073
      8071      8073      8074      8071      8073      8075      8071      8073      8085
      8074      8073      8075      8074      8073      8085      8075      8073      8085
      8068      8076      8077      8068      8076      8078      8068      8076      8079
      8077      8076      8078      8077      8076      8079      8078      8076      8079
      8076      8079      8080      8079      8080      8081      8079      8080      8082
      8081      8080      8082      8080      8082      8083      8080      8082      8084
      8080      8082      8132      8083      8082      8084      8083      8082      8132
      8084      8082      8132      8073      8085      8086      8073      8085      8087
      8073      8085      8088      8086      8085      8087      8086      8085      8088
      8087      8085      8088      8085      8088      8089      8085      8088      8090
      8085      8088      8091      8089      8088      8090      8089      8088      8091
      8090      8088      8091      8088      8091      8092      8088      8091      8093
      8088      8091      8094      8092      8091      8093      8092      8091      8094
      8093      8091      8094      8091      8094      8095      8091      8094      8096
      8091      8094      8097      8095      8094      8096      8095      8094      8097
      8096      8094      8097      8094      8097      8098      8094      8097      8099
      8094      8097      8100      8098      8097      8099      8098      8097      8100
      8099      8097      8100      8097      8100      8101      8097      8100      8102
      8097      8100      8103      8101      8100      8102      8101      8100      8103
      8102      8100      8103      8100      8103      8104      8100      8103      8105
      8104      8103      8105      8103      8105      8106      8103      8105      8107
      8106      8105      8107      8105      8107      8108      8105      8107      8109
      8105      8107      8110      8108      8107      8109      8108      8107      8110
      8109      8107      8110      8107      8110      8111      8107      8110      8112
      8107      8110      8113      8111      8110      8112      8111      8110      8113
      8112      8110      8113      8110      8113      8114      8110      8113      8115
      8110      8113      8116      8114      8113      8115      8114      8113      8116
      8115      8113      8116      8113      8116      8117      8113      8116      8118
      8113      8116      8119      8117      8116      8118      8117      8116      8119
      8118      8116      8119      8116      8119      8120      8116      8119      8121
      8116      8119      8122      8120      8119      8121      8120      8119      8122
      8121      8119      8122      8119      8122      8123      8119      8122      8124
      8119      8122      8125      8123      8122      8124      8123      8122      8125
      8124      8122      8125      8122      8125      8126      8122      8125      8127
      8122      8125      8128      8126      8125      8127      8126      8125      8128
      8127      8125      8128      8125      8128      8129      8125      8128      8130
      8125      8128      8131      8129      8128      8130      8129      8128      8131
      8130      8128      8131      8082      8132      8133      8082      8132      8134
      8082      8132      8135      8133      8132      8134      8133      8132      8135
      8134      8132      8135      8132      8135      8136      8132      8135      8137
      8132      8135      8138      8136      8135      8137      8136      8135      8138
      8137      8135      8138      8135      8138      8139      8135      8138      8140
      8135      8138      8141      8139      8138      8140      8139      8138      8141
      8140      8138      8141      8138      8141      8142      8138      8141      8143
      8138      8141      8144      8142      8141      8143      8142      8141      8144
      8143      8141      8144      8141      8144      8145      8141      8144      8146
      8141      8144      8147      8145      8144      8146      8145      8144      8147
      8146      8144      8147      8144      8147      8148      8144      8147      8149
      8144      8147      8150      8148      8147      8149      8148      8147      8150
      8149      8147      8150      8147      8150      8151      8147      8150      8152
      8147      8150      8153      8151      8150      8152      8151      8150      8153
      8152      8150      8153      8150      8153      8154      8150      8153      8155
      8150      8153      8156      8154      8153      8155      8154      8153      8156
      8155      8153      8156      8153      8156      8157      8153      8156      8158
      8153      8156      8159      8157      8156      8158      8157      8156      8159
      8158      8156      8159      8156      8159      8160      8156      8159      8161
      8156      8159      8162      8160      8159      8161      8160      8159      8162
      8161      8159      8162      8159      8162      8163      8159      8162      8164
      8159      8162      8165      8163      8162      8164      8163      8162      8165
      8164      8162      8165      8162      8165      8166      8162      8165      8167
      8162      8165      8168      8166      8165      8167      8166      8165      8168
      8167      8165      8168      8165      8168      8169      8165      8168      8170
      8165      8168      8171      8169      8168      8170      8169      8168      8171
      8170      8168      8171      8168      8171      8172      8168      8171      8173
      8168      8171      8174      8172      8171      8173      8172      8171      8174
      8173      8171      8174      8176      8175      8179      8176      8175      8183
      8176      8175      8187      8179      8175      8183      8179      8175      8187
      8183      8175      8187      8175      8176      8177      8175      8176      8178
      8175      8176      8191      8177      8176      8178      8177      8176      8191
      8178      8176      8191      8175      8179      8180      8175      8179      8181
      8175      8179      8182      8180      8179      8181      8180      8179      8182
      8181      8179      8182      8175      8183      8184      8175      8183      8185
      8175      8183      8186      8184      8183      8185      8184      8183      8186
      8185      8183      8186      8175      8187      8188      8175      8187      8189
      8175      8187      8190      8188      8187      8189      8188      8187      8190
      8189      8187      8190      8176      8191      8192      8176      8191      8193
      8176      8191      8197      8192      8191      8193      8192      8191      8197
      8193      8191      8197      8195      8194      8196      8195      8194      8197
      8195      8194      8198      8196      8194      8197      8196      8194      8198
      8197      8194      8198      8191      8197      8194      8194      8198      8199
      8198      8199      8200      8198      8199      8201      8198      8199      8202
      8200      8199      8201      8200      8199      8202      8201      8199      8202
      8199      8202      8203      8199      8202      8204      8199      8202      8210
      8203      8202      8204      8203      8202      8210      8204      8202      8210
      8202      8204      8205      8204      8205      8206      8204      8205      8207
      8206      8205      8207      8205      8207      8208      8205      8207      8209
      8205      8207      8219      8208      8207      8209      8208      8207      8219
      8209      8207      8219      8202      8210      8211      8202      8210      8212
      8202      8210      8213      8211      8210      8212      8211      8210      8213
      8212      8210      8213      8210      8213      8214      8213      8214      8215
      8213      8214      8216      8215      8214      8216      8214      8216      8217
      8214      8216      8218      8214      8216      8266      8217      8216      8218
      8217      8216      8266      8218      8216      8266      8207      8219      8220
      8207      8219      8221      8207      8219      8222      8220      8219      8221
      8220      8219      8222      8221      8219      8222      8219      8222      8223
      8219      8222      8224      8219      8222      8225      8223      8222      8224
      8223      8222      8225      8224      8222      8225      8222      8225      8226
      8222      8225      8227      8222      8225      8228      8226      8225      8227
      8226      8225      8228      8227      8225      8228      8225      8228      8229
      8225      8228      8230      8225      8228      8231      8229      8228      8230
      8229      8228      8231      8230      8228      8231      8228      8231      8232
      8228      8231      8233      8228      8231      8234      8232      8231      8233
      8232      8231      8234      8233      8231      8234      8231      8234      8235
      8231      8234      8236      8231      8234      8237      8235      8234      8236
      8235      8234      8237      8236      8234      8237      8234      8237      8238
      8234      8237      8239      8238      8237      8239      8237      8239      8240
      8237      8239      8241      8240      8239      8241      8239      8241      8242
      8239      8241      8243      8239      8241      8244      8242      8241      8243
      8242      8241      8244      8243      8241      8244      8241      8244      8245
      8241      8244      8246      8241      8244      8247      8245      8244      8246
      8245      8244      8247      8246      8244      8247      8244      8247      8248
      8244      8247      8249      8244      8247      8250      8248      8247      8249
      8248      8247      8250      8249      8247      8250      8247      8250      8251
      8247      8250      8252      8247      8250      8253      8251      8250      8252
      8251      8250      8253      8252      8250      8253      8250      8253      8254
      8250      8253      8255      8250      8253      8256      8254      8253      8255
      8254      8253      8256      8255      8253      8256      8253      8256      8257
      8253      8256      8258      8253      8256      8259      8257      8256      8258
      8257      8256      8259      8258      8256      8259      8256      8259      8260
      8256      8259      8261      8256      8259      8262      8260      8259      8261
      8260      8259      8262      8261      8259      8262      8259      8262      8263
      8259      8262      8264      8259      8262      8265      8263      8262      8264
      8263      8262      8265      8264      8262      8265      8216      8266      8267
      8216      8266      8268      8216      8266      8269      8267      8266      8268
      8267      8266      8269      8268      8266      8269      8266      8269      8270
      8266      8269      8271      8266      8269      8272      8270      8269      8271
      8270      8269      8272      8271      8269      8272      8269      8272      8273
      8269      8272      8274      8269      8272      8275      8273      8272      8274
      8273      8272      8275      8274      8272      8275      8272      8275      8276
      8272      8275      8277      8272      8275      8278      8276      8275      8277
      8276      8275      8278      8277      8275      8278      8275      8278      8279
      8275      8278      8280      8275      8278      8281      8279      8278      8280
      8279      8278      8281      8280      8278      8281      8278      8281      8282
      8278      8281      8283      8278      8281      8284      8282      8281      8283
      8282      8281      8284      8283      8281      8284      8281      8284      8285
      8281      8284      8286      8281      8284      8287      8285      8284      8286
      8285      8284      8287      8286      8284      8287      8284      8287      8288
      8284      8287      8289      8284      8287      8290      8288      8287      8289
      8288      8287      8290      8289      8287      8290      8287      8290      8291
      8287      8290      8292      8287      8290      8293      8291      8290      8292
      8291      8290      8293      8292      8290      8293      8290      8293      8294
      8290      8293      8295      8290      8293      8296      8294      8293      8295
      8294      8293      8296      8295      8293      8296      8293      8296      8297
      8293      8296      8298      8293      8296      8299      8297      8296      8298
      8297      8296      8299      8298      8296      8299      8296      8299      8300
      8296      8299      8301      8296      8299      8302      8300      8299      8301
      8300      8299      8302      8301      8299      8302      8299      8302      8303
      8299      8302      8304      8299      8302      8305      8303      8302      8304
      8303      8302      8305      8304      8302      8305      8302      8305      8306
      8302      8305      8307      8302      8305      8308      8306      8305      8307
      8306      8305      8308      8307      8305      8308      8310      8309      8313
      8310      8309      8317      8310      8309      8321      8313      8309      8317
      8313      8309      8321      8317      8309      8321      8309      8310      8311
      8309      8310      8312      8309      8310      8325      8311      8310      8312
      8311      8310      8325      8312      8310      8325      8309      8313      8314
      8309      8313      8315      8309      8313      8316      8314      8313      8315
      8314      8313      8316      8315      8313      8316      8309      8317      8318
      8309      8317      8319      8309      8317      8320      8318      8317      8319
      8318      8317      8320      8319      8317      8320      8309      8321      8322
      8309      8321      8323      8309      8321      8324      8322      8321      8323
      8322      8321      8324      8323      8321      8324      8310      8325      8326
      8310      8325      8327      8310      8325      8331      8326      8325      8327
      8326      8325      8331      8327      8325      8331      8329      8328      8330
      8329      8328      8331      8329      8328      8332      8330      8328      8331
      8330      8328      8332      8331      8328      8332      8325      8331      8328
      8328      8332      8333      8332      8333      8334      8332      8333      8335
      8332      8333      8336      8334      8333      8335      8334      8333      8336
      8335      8333      8336      8333      8336      8337      8333      8336      8338
      8333      8336      8344      8337      8336      8338      8337      8336      8344
      8338      8336      8344      8336      8338      8339      8338      8339      8340
      8338      8339      8341      8340      8339      8341      8339      8341      8342
      8339      8341      8343      8339      8341      8353      8342      8341      8343
      8342      8341      8353      8343      8341      8353      8336      8344      8345
      8336      8344      8346      8336      8344      8347      8345      8344      8346
      8345      8344      8347      8346      8344      8347      8344      8347      8348
      8347      8348      8349      8347      8348      8350      8349      8348      8350
      8348      8350      8351      8348      8350      8352      8348      8350      8400
      8351      8350      8352      8351      8350      8400      8352      8350      8400
      8341      8353      8354      8341      8353      8355      8341      8353      8356
      8354      8353      8355      8354      8353      8356      8355      8353      8356
      8353      8356      8357      8353      8356      8358      8353      8356      8359
      8357      8356      8358      8357      8356      8359      8358      8356      8359
      8356      8359      8360      8356      8359      8361      8356      8359      8362
      8360      8359      8361      8360      8359      8362      8361      8359      8362
      8359      8362      8363      8359      8362      8364      8359      8362      8365
      8363      8362      8364      8363      8362      8365      8364      8362      8365
      8362      8365      8366      8362      8365      8367      8362      8365      8368
      8366      8365      8367      8366      8365      8368      8367      8365      8368
      8365      8368      8369      8365      8368      8370      8365      8368      8371
      8369      8368      8370      8369      8368      8371      8370      8368      8371
      8368      8371      8372      8368      8371      8373      8372      8371      8373
      8371      8373      8374      8371      8373      8375      8374      8373      8375
      8373      8375      8376      8373      8375      8377      8373      8375      8378
      8376      8375      8377      8376      8375      8378      8377      8375      8378
      8375      8378      8379      8375      8378      8380      8375      8378      8381
      8379      8378      8380      8379      8378      8381      8380      8378      8381
      8378      8381      8382      8378      8381      8383      8378      8381      8384
      8382      8381      8383      8382      8381      8384      8383      8381      8384
      8381      8384      8385      8381      8384      8386      8381      8384      8387
      8385      8384      8386      8385      8384      8387      8386      8384      8387
      8384      8387      8388      8384      8387      8389      8384      8387      8390
      8388      8387      8389      8388      8387      8390      8389      8387      8390
      8387      8390      8391      8387      8390      8392      8387      8390      8393
      8391      8390      8392      8391      8390      8393      8392      8390      8393
      8390      8393      8394      8390      8393      8395      8390      8393      8396
      8394      8393      8395      8394      8393      8396      8395      8393      8396
      8393      8396      8397      8393      8396      8398      8393      8396      8399
      8397      8396      8398      8397      8396      8399      8398      8396      8399
      8350      8400      8401      8350      8400      8402      8350      8400      8403
      8401      8400      8402      8401      8400      8403      8402      8400      8403
      8400      8403      8404      8400      8403      8405      8400      8403      8406
      8404      8403      8405      8404      8403      8406      8405      8403      8406
      8403      8406      8407      8403      8406      8408      8403      8406      8409
      8407      8406      8408      8407      8406      8409      8408      8406      8409
      8406      8409      8410      8406      8409      8411      8406      8409      8412
      8410      8409      8411      8410      8409      8412      8411      8409      8412
      8409      8412      8413      8409      8412      8414      8409      8412      8415
      8413      8412      8414      8413      8412      8415      8414      8412      8415
      8412      8415      8416      8412      8415      8417      8412      8415      8418
      8416      8415      8417      8416      8415      8418      8417      8415      8418
      8415      8418      8419      8415      8418      8420      8415      8418      8421
      8419      8418      8420      8419      8418      8421      8420      8418      8421
      8418      8421      8422      8418      8421      8423      8418      8421      8424
      8422      8421      8423      8422      8421      8424      8423      8421      8424
      8421      8424      8425      8421      8424      8426      8421      8424      8427
      8425      8424      8426      8425      8424      8427      8426      8424      8427
      8424      8427      8428      8424      8427      8429      8424      8427      8430
      8428      8427      8429      8428      8427      8430      8429      8427      8430
      8427      8430      8431      8427      8430      8432      8427      8430      8433
      8431      8430      8432      8431      8430      8433      8432      8430      8433
      8430      8433      8434      8430      8433      8435      8430      8433      8436
      8434      8433      8435      8434      8433      8436      8435      8433      8436
      8433      8436      8437      8433      8436      8438      8433      8436      8439
      8437      8436      8438      8437      8436      8439      8438      8436      8439
      8436      8439      8440      8436      8439      8441      8436      8439      8442
      8440      8439      8441      8440      8439      8442      8441      8439      8442
      8444      8443      8447      8444      8443      8451      8444      8443      8455
      8447      8443      8451      8447      8443      8455      8451      8443      8455
      8443      8444      8445      8443      8444      8446      8443      8444      8459
      8445      8444      8446      8445      8444      8459      8446      8444      8459
      8443      8447      8448      8443      8447      8449      8443      8447      8450
      8448      8447      8449      8448      8447      8450      8449      8447      8450
      8443      8451      8452      8443      8451      8453      8443      8451      8454
      8452      8451      8453      8452      8451      8454      8453      8451      8454
      8443      8455      8456      8443      8455      8457      8443      8455      8458
      8456      8455      8457      8456      8455      8458      8457      8455      8458
      8444      8459      8460      8444      8459      8461      8444      8459      8465
      8460      8459      8461      8460      8459      8465      8461      8459      8465
      8463      8462      8464      8463      8462      8465      8463      8462      8466
      8464      8462      8465      8464      8462      8466      8465      8462      8466
      8459      8465      8462      8462      8466      8467      8466      8467      8468
      8466      8467      8469      8466      8467      8470      8468      8467      8469
      8468      8467      8470      8469      8467      8470      8467      8470      8471
      8467      8470      8472      8467      8470      8478      8471      8470      8472
      8471      8470      8478      8472      8470      8478      8470      8472      8473
      8472      8473      8474      8472      8473      8475      8474      8473      8475
      8473      8475      8476      8473      8475      8477      8473      8475      8487
      8476      8475      8477      8476      8475      8487      8477      8475      8487
      8470      8478      8479      8470      8478      8480      8470      8478      8481
      8479      8478      8480      8479      8478      8481      8480      8478      8481
      8478      8481      8482      8481      8482      8483      8481      8482      8484
      8483      8482      8484      8482      8484      8485      8482      8484      8486
      8482      8484      8534      8485      8484      8486      8485      8484      8534
      8486      8484      8534      8475      8487      8488      8475      8487      8489
      8475      8487      8490      8488      8487      8489      8488      8487      8490
      8489      8487      8490      8487      8490      8491      8487      8490      8492
      8487      8490      8493      8491      8490      8492      8491      8490      8493
      8492      8490      8493      8490      8493      8494      8490      8493      8495
      8490      8493      8496      8494      8493      8495      8494      8493      8496
      8495      8493      8496      8493      8496      8497      8493      8496      8498
      8493      8496      8499      8497      8496      8498      8497      8496      8499
      8498      8496      8499      8496      8499      8500      8496      8499      8501
      8496      8499      8502      8500      8499      8501      8500      8499      8502
      8501      8499      8502      8499      8502      8503      8499      8502      8504
      8499      8502      8505      8503      8502      8504      8503      8502      8505
      8504      8502      8505      8502      8505      8506      8502      8505      8507
      8506      8505      8507      8505      8507      8508      8505      8507      8509
      8508      8507      8509      8507      8509      8510      8507      8509      8511
      8507      8509      8512      8510      8509      8511      8510      8509      8512
      8511      8509      8512      8509      8512      8513      8509      8512      8514
      8509      8512      8515      8513      8512      8514      8513      8512      8515
      8514      8512      8515      8512      8515      8516      8512      8515      8517
      8512      8515      8518      8516      8515      8517      8516      8515      8518
      8517      8515      8518      8515      8518      8519      8515      8518      8520
      8515      8518      8521      8519      8518      8520      8519      8518      8521
      8520      8518      8521      8518      8521      8522      8518      8521      8523
      8518      8521      8524      8522      8521      8523      8522      8521      8524
      8523      8521      8524      8521      8524      8525      8521      8524      8526
      8521      8524      8527      8525      8524      8526      8525      8524      8527
      8526      8524      8527      8524      8527      8528      8524      8527      8529
      8524      8527      8530      8528      8527      8529      8528      8527      8530
      8529      8527      8530      8527      8530      8531      8527      8530      8532
      8527      8530      8533      8531      8530      8532      8531      8530      8533
      8532      8530      8533      8484      8534      8535      8484      8534      8536
      8484      8534      8537      8535      8534      8536      8535      8534      8537
      8536      8534      8537      8534      8537      8538      8534      8537      8539
      8534      8537      8540      8538      8537      8539      8538      8537      8540
      8539      8537      8540      8537      8540      8541      8537      8540      8542
      8537      8540      8543      8541      8540      8542      8541      8540      8543
      8542      8540      8543      8540      8543      8544      8540      8543      8545
      8540      8543      8546      8544      8543      8545      8544      8543      8546
      8545      8543      8546      8543      8546      8547      8543      8546      8548
      8543      8546      8549      8547      8546      8548      8547      8546      8549
      8548      8546      8549      8546      8549      8550      8546      8549      8551
      8546      8549      8552      8550      8549      8551      8550      8549      8552
      8551      8549      8552      8549      8552      8553      8549      8552      8554
      8549      8552      8555      8553      8552      8554      8553      8552      8555
      8554      8552      8555      8552      8555      8556      8552      8555      8557
      8552      8555      8558      8556      8555      8557      8556      8555      8558
      8557      8555      8558      8555      8558      8559      8555      8558      8560
      8555      8558      8561      8559      8558      8560      8559      8558      8561
      8560      8558      8561      8558      8561      8562      8558      8561      8563
      8558      8561      8564      8562      8561      8563      8562      8561      8564
      8563      8561      8564      8561      8564      8565      8561      8564      8566
      8561      8564      8567      8565      8564      8566      8565      8564      8567
      8566      8564      8567      8564      8567      8568      8564      8567      8569
      8564      8567      8570      8568      8567      8569      8568      8567      8570
      8569      8567      8570      8567      8570      8571      8567      8570      8572
      8567      8570      8573      8571      8570      8572      8571      8570      8573
      8572      8570      8573      8570      8573      8574      8570      8573      8575
      8570      8573      8576      8574      8573      8575      8574      8573      8576
      8575      8573      8576      8578      8577      8581      8578      8577      8585
      8578      8577      8589      8581      8577      8585      8581      8577      8589
      8585      8577      8589      8577      8578      8579      8577      8578      8580
      8577      8578      8593      8579      8578      8580      8579      8578      8593
      8580      8578      8593      8577      8581      8582      8577      8581      8583
      8577      8581      8584      8582      8581      8583      8582      8581      8584
      8583      8581      8584      8577      8585      8586      8577      8585      8587
      8577      8585      8588      8586      8585      8587      8586      8585      8588
      8587      8585      8588      8577      8589      8590      8577      8589      8591
      8577      8589      8592      8590      8589      8591      8590      8589      8592
      8591      8589      8592      8578      8593      8594      8578      8593      8595
      8578      8593      8599      8594      8593      8595      8594      8593      8599
      8595      8593      8599      8597      8596      8598      8597      8596      8599
      8597      8596      8600      8598      8596      8599      8598      8596      8600
      8599      8596      8600      8593      8599      8596      8596      8600      8601
      8600      8601      8602      8600      8601      8603      8600      8601      8604
      8602      8601      8603      8602      8601      8604      8603      8601      8604
      8601      8604      8605      8601      8604      8606      8601      8604      8612
      8605      8604      8606      8605      8604      8612      8606      8604      8612
      8604      8606      8607      8606      8607      8608      8606      8607      8609
      8608      8607      8609      8607      8609      8610      8607      8609      8611
      8607      8609      8621      8610      8609      8611      8610      8609      8621
      8611      8609      8621      8604      8612      8613      8604      8612      8614
      8604      8612      8615      8613      8612      8614      8613      8612      8615
      8614      8612      8615      8612      8615      8616      8615      8616      8617
      8615      8616      8618      8617      8616      8618      8616      8618      8619
      8616      8618      8620      8616      8618      8668      8619      8618      8620
      8619      8618      8668      8620      8618      8668      8609      8621      8622
      8609      8621      8623      8609      8621      8624      8622      8621      8623
      8622      8621      8624      8623      8621      8624      8621      8624      8625
      8621      8624      8626      8621      8624      8627      8625      8624      8626
      8625      8624      8627      8626      8624      8627      8624      8627      8628
      8624      8627      8629      8624      8627      8630      8628      8627      8629
      8628      8627      8630      8629      8627      8630      8627      8630      8631
      8627      8630      8632      8627      8630      8633      8631      8630      8632
      8631      8630      8633      8632      8630      8633      8630      8633      8634
      8630      8633      8635      8630      8633      8636      8634      8633      8635
      8634      8633      8636      8635      8633      8636      8633      8636      8637
      8633      8636      8638      8633      8636      8639      8637      8636      8638
      8637      8636      8639      8638      8636      8639      8636      8639      8640
      8636      8639      8641      8640      8639      8641      8639      8641      8642
      8639      8641      8643      8642      8641      8643      8641      8643      8644
      8641      8643      8645      8641      8643      8646      8644      8643      8645
      8644      8643      8646      8645      8643      8646      8643      8646      8647
      8643      8646      8648      8643      8646      8649      8647      8646      8648
      8647      8646      8649      8648      8646      8649      8646      8649      8650
      8646      8649      8651      8646      8649      8652      8650      8649      8651
      8650      8649      8652      8651      8649      8652      8649      8652      8653
      8649      8652      8654      8649      8652      8655      8653      8652      8654
      8653      8652      8655      8654      8652      8655      8652      8655      8656
      8652      8655      8657      8652      8655      8658      8656      8655      8657
      8656      8655      8658      8657      8655      8658      8655      8658      8659
      8655      8658      8660      8655      8658      8661      8659      8658      8660
      8659      8658      8661      8660      8658      8661      8658      8661      8662
      8658      8661      8663      8658      8661      8664      8662      8661      8663
      8662      8661      8664      8663      8661      8664      8661      8664      8665
      8661      8664      8666      8661      8664      8667      8665      8664      8666
      8665      8664      8667      8666      8664      8667      8618      8668      8669
      8618      8668      8670      8618      8668      8671      8669      8668      8670
      8669      8668      8671      8670      8668      8671      8668      8671      8672
      8668      8671      8673      8668      8671      8674      8672      8671      8673
      8672      8671      8674      8673      8671      8674      8671      8674      8675
      8671      8674      8676      8671      8674      8677      8675      8674      8676
      8675      8674      8677      8676      8674      8677      8674      8677      8678
      8674      8677      8679      8674      8677      8680      8678      8677      8679
      8678      8677      8680      8679      8677      8680      8677      8680      8681
      8677      8680      8682      8677      8680      8683      8681      8680      8682
      8681      8680      8683      8682      8680      8683      8680      8683      8684
      8680      8683      8685      8680      8683      8686      8684      8683      8685
      8684      8683      8686      8685      8683      8686      8683      8686      8687
      8683      8686      8688      8683      8686      8689      8687      8686      8688
      8687      8686      8689      8688      8686      8689      8686      8689      8690
      8686      8689      8691      8686      8689      8692      8690      8689      8691
      8690      8689      8692      8691      8689      8692      8689      8692      8693
      8689      8692      8694      8689      8692      8695      8693      8692      8694
      8693      8692      8695      8694      8692      8695      8692      8695      8696
      8692      8695      8697      8692      8695      8698      8696      8695      8697
      8696      8695      8698      8697      8695      8698      8695      8698      8699
      8695      8698      8700      8695      8698      8701      8699      8698      8700
      8699      8698      8701      8700      8698      8701      8698      8701      8702
      8698      8701      8703      8698      8701      8704      8702      8701      8703
      8702      8701      8704      8703      8701      8704      8701      8704      8705
      8701      8704      8706      8701      8704      8707      8705      8704      8706
      8705      8704      8707      8706      8704      8707      8704      8707      8708
      8704      8707      8709      8704      8707      8710      8708      8707      8709
      8708      8707      8710      8709      8707      8710      8712      8711      8715
      8712      8711      8719      8712      8711      8723      8715      8711      8719
      8715      8711      8723      8719      8711      8723      8711      8712      8713
      8711      8712      8714      8711      8712      8727      8713      8712      8714
      8713      8712      8727      8714      8712      8727      8711      8715      8716
      8711      8715      8717      8711      8715      8718      8716      8715      8717
      8716      8715      8718      8717      8715      8718      8711      8719      8720
      8711      8719      8721      8711      8719      8722      8720      8719      8721
      8720      8719      8722      8721      8719      8722      8711      8723      8724
      8711      8723      8725      8711      8723      8726      8724      8723      8725
      8724      8723      8726      8725      8723      8726      8712      8727      8728
      8712      8727      8729      8712      8727      8733      8728      8727      8729
      8728      8727      8733      8729      8727      8733      8731      8730      8732
      8731      8730      8733      8731      8730      8734      8732      8730      8733
      8732      8730      8734      8733      8730      8734      8727      8733      8730
      8730      8734      8735      8734      8735      8736      8734      8735      8737
      8734      8735      8738      8736      8735      8737      8736      8735      8738
      8737      8735      8738      8735      8738      8739      8735      8738      8740
      8735      8738      8746      8739      8738      8740      8739      8738      8746
      8740      8738      8746      8738      8740      8741      8740      8741      8742
      8740      8741      8743      8742      8741      8743      8741      8743      8744
      8741      8743      8745      8741      8743      8755      8744      8743      8745
      8744      8743      8755      8745      8743      8755      8738      8746      8747
      8738      8746      8748      8738      8746      8749      8747      8746      8748
      8747      8746      8749      8748      8746      8749      8746      8749      8750
      8749      8750      8751      8749      8750      8752      8751      8750      8752
      8750      8752      8753      8750      8752      8754      8750      8752      8802
      8753      8752      8754      8753      8752      8802      8754      8752      8802
      8743      8755      8756      8743      8755      8757      8743      8755      8758
      8756      8755      8757      8756      8755      8758      8757      8755      8758
      8755      8758      8759      8755      8758      8760      8755      8758      8761
      8759      8758      8760      8759      8758      8761      8760      8758      8761
      8758      8761      8762      8758      8761      8763      8758      8761      8764
      8762      8761      8763      8762      8761      8764      8763      8761      8764
      8761      8764      8765      8761      8764      8766      8761      8764      8767
      8765      8764      8766      8765      8764      8767      8766      8764      8767
      8764      8767      8768      8764      8767      8769      8764      8767      8770
      8768      8767      8769      8768      8767      8770      8769      8767      8770
      8767      8770      8771      8767      8770      8772      8767      8770      8773
      8771      8770      8772      8771      8770      8773      8772      8770      8773
      8770      8773      8774      8770      8773      8775      8774      8773      8775
      8773      8775      8776      8773      8775      8777      8776      8775      8777
      8775      8777      8778      8775      8777      8779      8775      8777      8780
      8778      8777      8779      8778      8777      8780      8779      8777      8780
      8777      8780      8781      8777      8780      8782      8777      8780      8783
      8781      8780      8782      8781      8780      8783      8782      8780      8783
      8780      8783      8784      8780      8783      8785      8780      8783      8786
      8784      8783      8785      8784      8783      8786      8785      8783      8786
      8783      8786      8787      8783      8786      8788      8783      8786      8789
      8787      8786      8788      8787      8786      8789      8788      8786      8789
      8786      8789      8790      8786      8789      8791      8786      8789      8792
      8790      8789      8791      8790      8789      8792      8791      8789      8792
      8789      8792      8793      8789      8792      8794      8789      8792      8795
      8793      8792      8794      8793      8792      8795      8794      8792      8795
      8792      8795      8796      8792      8795      8797      8792      8795      8798
      8796      8795      8797      8796      8795      8798      8797      8795      8798
      8795      8798      8799      8795      8798      8800      8795      8798      8801
      8799      8798      8800      8799      8798      8801      8800      8798      8801
      8752      8802      8803      8752      8802      8804      8752      8802      8805
      8803      8802      8804      8803      8802      8805      8804      8802      8805
      8802      8805      8806      8802      8805      8807      8802      8805      8808
      8806      8805      8807      8806      8805      8808      8807      8805      8808
      8805      8808      8809      8805      8808      8810      8805      8808      8811
      8809      8808      8810      8809      8808      8811      8810      8808      8811
      8808      8811      8812      8808      8811      8813      8808      8811      8814
      8812      8811      8813      8812      8811      8814      8813      8811      8814
      8811      8814      8815      8811      8814      8816      8811      8814      8817
      8815      8814      8816      8815      8814      8817      8816      8814      8817
      8814      8817      8818      8814      8817      8819      8814      8817      8820
      8818      8817      8819      8818      8817      8820      8819      8817      8820
      8817      8820      8821      8817      8820      8822      8817      8820      8823
      8821      8820      8822      8821      8820      8823      8822      8820      8823
      8820      8823      8824      8820      8823      8825      8820      8823      8826
      8824      8823      8825      8824      8823      8826      8825      8823      8826
      8823      8826      8827      8823      8826      8828      8823      8826      8829
      8827      8826      8828      8827      8826      8829      8828      8826      8829
      8826      8829      8830      8826      8829      8831      8826      8829      8832
      8830      8829      8831      8830      8829      8832      8831      8829      8832
      8829      8832      8833      8829      8832      8834      8829      8832      8835
      8833      8832      8834      8833      8832      8835      8834      8832      8835
      8832      8835      8836      8832      8835      8837      8832      8835      8838
      8836      8835      8837      8836      8835      8838      8837      8835      8838
      8835      8838      8839      8835      8838      8840      8835      8838      8841
      8839      8838      8840      8839      8838      8841      8840      8838      8841
      8838      8841      8842      8838      8841      8843      8838      8841      8844
      8842      8841      8843      8842      8841      8844      8843      8841      8844
      8846      8845      8849      8846      8845      8853      8846      8845      8857
      8849      8845      8853      8849      8845      8857      8853      8845      8857
      8845      8846      8847      8845      8846      8848      8845      8846      8861
      8847      8846      8848      8847      8846      8861      8848      8846      8861
      8845      8849      8850      8845      8849      8851      8845      8849      8852
      8850      8849      8851      8850      8849      8852      8851      8849      8852
      8845      8853      8854      8845      8853      8855      8845      8853      8856
      8854      8853      8855      8854      8853      8856      8855      8853      8856
      8845      8857      8858      8845      8857      8859      8845      8857      8860
      8858      8857      8859      8858      8857      8860      8859      8857      8860
      8846      8861      8862      8846      8861      8863      8846      8861      8867
      8862      8861      8863      8862      8861      8867      8863      8861      8867
      8865      8864      8866      8865      8864      8867      8865      8864      8868
      8866      8864      8867      8866      8864      8868      8867      8864      8868
      8861      8867      8864      8864      8868      8869      8868      8869      8870
      8868      8869      8871      8868      8869      8872      8870      8869      8871
      8870      8869      8872      8871      8869      8872      8869      8872      8873
      8869      8872      8874      8869      8872      8880      8873      8872      8874
      8873      8872      8880      8874      8872      8880      8872      8874      8875
      8874      8875      8876      8874      8875      8877      8876      8875      8877
      8875      8877      8878      8875      8877      8879      8875      8877      8889
      8878      8877      8879      8878      8877      8889      8879      8877      8889
      8872      8880      8881      8872      8880      8882      8872      8880      8883
      8881      8880      8882      8881      8880      8883      8882      8880      8883
      8880      8883      8884      8883      8884      8885      8883      8884      8886
      8885      8884      8886      8884      8886      8887      8884      8886      8888
      8884      8886      8936      8887      8886      8888      8887      8886      8936
      8888      8886      8936      8877      8889      8890      8877      8889      8891
      8877      8889      8892      8890      8889      8891      8890      8889      8892
      8891      8889      8892      8889      8892      8893      8889      8892      8894
      8889      8892      8895      8893      8892      8894      8893      8892      8895
      8894      8892      8895      8892      8895      8896      8892      8895      8897
      8892      8895      8898      8896      8895      8897      8896      8895      8898
      8897      8895      8898      8895      8898      8899      8895      8898      8900
      8895      8898      8901      8899      8898      8900      8899      8898      8901
      8900      8898      8901      8898      8901      8902      8898      8901      8903
      8898      8901      8904      8902      8901      8903      8902      8901      8904
      8903      8901      8904      8901      8904      8905      8901      8904      8906
      8901      8904      8907      8905      8904      8906      8905      8904      8907
      8906      8904      8907      8904      8907      8908      8904      8907      8909
      8908      8907      8909      8907      8909      8910      8907      8909      8911
      8910      8909      8911      8909      8911      8912      8909      8911      8913
      8909      8911      8914      8912      8911      8913      8912      8911      8914
      8913      8911      8914      8911      8914      8915      8911      8914      8916
      8911      8914      8917      8915      8914      8916      8915      8914      8917
      8916      8914      8917      8914      8917      8918      8914      8917      8919
      8914      8917      8920      8918      8917      8919      8918      8917      8920
      8919      8917      8920      8917      8920      8921      8917      8920      8922
      8917      8920      8923      8921      8920      8922      8921      8920      8923
      8922      8920      8923      8920      8923      8924      8920      8923      8925
      8920      8923      8926      8924      8923      8925      8924      8923      8926
      8925      8923      8926      8923      8926      8927      8923      8926      8928
      8923      8926      8929      8927      8926      8928      8927      8926      8929
      8928      8926      8929      8926      8929      8930      8926      8929      8931
      8926      8929      8932      8930      8929      8931      8930      8929      8932
      8931      8929      8932      8929      8932      8933      8929      8932      8934
      8929      8932      8935      8933      8932      8934      8933      8932      8935
      8934      8932      8935      8886      8936      8937      8886      8936      8938
      8886      8936      8939      8937      8936      8938      8937      8936      8939
      8938      8936      8939      8936      8939      8940      8936      8939      8941
      8936      8939      8942      8940      8939      8941      8940      8939      8942
      8941      8939      8942      8939      8942      8943      8939      8942      8944
      8939      8942      8945      8943      8942      8944      8943      8942      8945
      8944      8942      8945      8942      8945      8946      8942      8945      8947
      8942      8945      8948      8946      8945      8947      8946      8945      8948
      8947      8945      8948      8945      8948      8949      8945      8948      8950
      8945      8948      8951      8949      8948      8950      8949      8948      8951
      8950      8948      8951      8948      8951      8952      8948      8951      8953
      8948      8951      8954      8952      8951      8953      8952      8951      8954
      8953      8951      8954      8951      8954      8955      8951      8954      8956
      8951      8954      8957      8955      8954      8956      8955      8954      8957
      8956      8954      8957      8954      8957      8958      8954      8957      8959
      8954      8957      8960      8958      8957      8959      8958      8957      8960
      8959      8957      8960      8957      8960      8961      8957      8960      8962
      8957      8960      8963      8961      8960      8962      8961      8960      8963
      8962      8960      8963      8960      8963      8964      8960      8963      8965
      8960      8963      8966      8964      8963      8965      8964      8963      8966
      8965      8963      8966      8963      8966      8967      8963      8966      8968
      8963      8966      8969      8967      8966      8968      8967      8966      8969
      8968      8966      8969      8966      8969      8970      8966      8969      8971
      8966      8969      8972      8970      8969      8971      8970      8969      8972
      8971      8969      8972      8969      8972      8973      8969      8972      8974
      8969      8972      8975      8973      8972      8974      8973      8972      8975
      8974      8972      8975      8972      8975      8976      8972      8975      8977
      8972      8975      8978      8976      8975      8977      8976      8975      8978
      8977      8975      8978      8980      8979      8983      8980      8979      8987
      8980      8979      8991      8983      8979      8987      8983      8979      8991
      8987      8979      8991      8979      8980      8981      8979      8980      8982
      8979      8980      8995      8981      8980      8982      8981      8980      8995
      8982      8980      8995      8979      8983      8984      8979      8983      8985
      8979      8983      8986      8984      8983      8985      8984      8983      8986
      8985      8983      8986      8979      8987      8988      8979      8987      8989
      8979      8987      8990      8988      8987      8989      8988      8987      8990
      8989      8987      8990      8979      8991      8992      8979      8991      8993
      8979      8991      8994      8992      8991      8993      8992      8991      8994
      8993      8991      8994      8980      8995      8996      8980      8995      8997
      8980      8995      9001      8996      8995      8997      8996      8995      9001
      8997      8995      9001      8999      8998      9000      8999      8998      9001
      8999      8998      9002      9000      8998      9001      9000      8998      9002
      9001      8998      9002      8995      9001      8998      8998      9002      9003
      9002      9003      9004      9002      9003      9005      9002      9003      9006
      9004      9003      9005      9004      9003      9006      9005      9003      9006
      9003      9006      9007      9003      9006      9008      9003      9006      9014
      9007      9006      9008      9007      9006      9014      9008      9006      9014
      9006      9008      9009      9008      9009      9010      9008      9009      9011
      9010      9009      9011      9009      9011      9012      9009      9011      9013
      9009      9011      9023      9012      9011      9013      9012      9011      9023
      9013      9011      9023      9006      9014      9015      9006      9014      9016
      9006      9014      9017      9015      9014      9016      9015      9014      9017
      9016      9014      9017      9014      9017      9018      9017      9018      9019
      9017      9018      9020      9019      9018      9020      9018      9020      9021
      9018      9020      9022      9018      9020      9070      9021      9020      9022
      9021      9020      9070      9022      9020      9070      9011      9023      9024
      9011      9023      9025      9011      9023      9026      9024      9023      9025
      9024      9023      9026      9025      9023      9026      9023      9026      9027
      9023      9026      9028      9023      9026      9029      9027      9026      9028
      9027      9026      9029      9028      9026      9029      9026      9029      9030
      9026      9029      9031      9026      9029      9032      9030      9029      9031
      9030      9029      9032      9031      9029      9032      9029      9032      9033
      9029      9032      9034      9029      9032      9035      9033      9032      9034
      9033      9032      9035      9034      9032      9035      9032      9035      9036
      9032      9035      9037      9032      9035      9038      9036      9035      9037
      9036      9035      9038      9037      9035      9038      9035      9038      9039
      9035      9038      9040      9035      9038      9041      9039      9038      9040
      9039      9038      9041      9040      9038      9041      9038      9041      9042
      9038      9041      9043      9042      9041      9043      9041      9043      9044
      9041      9043      9045      9044      9043      9045      9043      9045      9046
      9043      9045      9047      9043      9045      9048      9046      9045      9047
      9046      9045      9048      9047      9045      9048      9045      9048      9049
      9045      9048      9050      9045      9048      9051      9049      9048      9050
      9049      9048      9051      9050      9048      9051      9048      9051      9052
      9048      9051      9053      9048      9051      9054      9052      9051      9053
      9052      9051      9054      9053      9051      9054      9051      9054      9055
      9051      9054      9056      9051      9054      9057      9055      9054      9056
      9055      9054      9057      9056      9054      9057      9054      9057      9058
      9054      9057      9059      9054      9057      9060      9058      9057      9059
      9058      9057      9060      9059      9057      9060      9057      9060      9061
      9057      9060      9062      9057      9060      9063      9061      9060      9062
      9061      9060      9063      9062      9060      9063      9060      9063      9064
      9060      9063      9065      9060      9063      9066      9064      9063      9065
      9064      9063      9066      9065      9063      9066      9063      9066      9067
      9063      9066      9068      9063      9066      9069      9067      9066      9068
      9067      9066      9069      9068      9066      9069      9020      9070      9071
      9020      9070      9072      9020      9070      9073      9071      9070      9072
      9071      9070      9073      9072      9070      9073      9070      9073      9074
      9070      9073      9075      9070      9073      9076      9074      9073      9075
      9074      9073      9076      9075      9073      9076      9073      9076      9077
      9073      9076      9078      9073      9076      9079      9077      9076      9078
      9077      9076      9079      9078      9076      9079      9076      9079      9080
      9076      9079      9081      9076      9079      9082      9080      9079      9081
      9080      9079      9082      9081      9079      9082      9079      9082      9083
      9079      9082      9084      9079      9082      9085      9083      9082      9084
      9083      9082      9085      9084      9082      9085      9082      9085      9086
      9082      9085      9087      9082      9085      9088      9086      9085      9087
      9086      9085      9088      9087      9085      9088      9085      9088      9089
      9085      9088      9090      9085      9088      9091      9089      9088      9090
      9089      9088      9091      9090      9088      9091      9088      9091      9092
      9088      9091      9093      9088      9091      9094      9092      9091      9093
      9092      9091      9094      9093      9091      9094      9091      9094      9095
      9091      9094      9096      9091      9094      9097      9095      9094      9096
      9095      9094      9097      9096      9094      9097      9094      9097      9098
      9094      9097      9099      9094      9097      9100      9098      9097      9099
      9098      9097      9100      9099      9097      9100      9097      9100      9101
      9097      9100      9102      9097      9100      9103      9101      9100      9102
      9101      9100      9103      9102      9100      9103      9100      9103      9104
      9100      9103      9105      9100      9103      9106      9104      9103      9105
      9104      9103      9106      9105      9103      9106      9103      9106      9107
      9103      9106      9108      9103      9106      9109      9107      9106      9108
      9107      9106      9109      9108      9106      9109      9106      9109      9110
      9106      9109      9111      9106      9109      9112      9110      9109      9111
      9110      9109      9112      9111      9109      9112      9114      9113      9117
      9114      9113      9121      9114      9113      9125      9117      9113      9121
      9117      9113      9125      9121      9113      9125      9113      9114      9115
      9113      9114      9116      9113      9114      9129      9115      9114      9116
      9115      9114      9129      9116      9114      9129      9113      9117      9118
      9113      9117      9119      9113      9117      9120      9118      9117      9119
      9118      9117      9120      9119      9117      9120      9113      9121      9122
      9113      9121      9123      9113      9121      9124      9122      9121      9123
      9122      9121      9124      9123      9121      9124      9113      9125      9126
      9113      9125      9127      9113      9125      9128      9126      9125      9127
      9126      9125      9128      9127      9125      9128      9114      9129      9130
      9114      9129      9131      9114      9129      9135      9130      9129      9131
      9130      9129      9135      9131      9129      9135      9133      9132      9134
      9133      9132      9135      9133      9132      9136      9134      9132      9135
      9134      9132      9136      9135      9132      9136      9129      9135      9132
      9132      9136      9137      9136      9137      9138      9136      9137      9139
      9136      9137      9140      9138      9137      9139      9138      9137      9140
      9139      9137      9140      9137      9140      9141      9137      9140      9142
      9137      9140      9148      9141      9140      9142      9141      9140      9148
      9142      9140      9148      9140      9142      9143      9142      9143      9144
      9142      9143      9145      9144      9143      9145      9143      9145      9146
      9143      9145      9147      9143      9145      9157      9146      9145      9147
      9146      9145      9157      9147      9145      9157      9140      9148      9149
      9140      9148      9150      9140      9148      9151      9149      9148      9150
      9149      9148      9151      9150      9148      9151      9148      9151      9152
      9151      9152      9153      9151      9152      9154      9153      9152      9154
      9152      9154      9155      9152      9154      9156      9152      9154      9204
      9155      9154      9156      9155      9154      9204      9156      9154      9204
      9145      9157      9158      9145      9157      9159      9145      9157      9160
      9158      9157      9159      9158      9157      9160      9159      9157      9160
      9157      9160      9161      9157      9160      9162      9157      9160      9163
      9161      9160      9162      9161      9160      9163      9162      9160      9163
      9160      9163      9164      9160      9163      9165      9160      9163      9166
      9164      9163      9165      9164      9163      9166      9165      9163      9166
      9163      9166      9167      9163      9166      9168      9163      9166      9169
      9167      9166      9168      9167      9166      9169      9168      9166      9169
      9166      9169      9170      9166      9169      9171      9166      9169      9172
      9170      9169      9171      9170      9169      9172      9171      9169      9172
      9169      9172      9173      9169      9172      9174      9169      9172      9175
      9173      9172      9174      9173      9172      9175      9174      9172      9175
      9172      9175      9176      9172      9175      9177      9176      9175      9177
      9175      9177      9178      9175      9177      9179      9178      9177      9179
      9177      9179      9180      9177      9179      9181      9177      9179      9182
      9180      9179      9181      9180      9179      9182      9181      9179      9182
      9179      9182      9183      9179      9182      9184      9179      9182      9185
      9183      9182      9184      9183      9182      9185      9184      9182      9185
      9182      9185      9186      9182      9185      9187      9182      9185      9188
      9186      9185      9187      9186      9185      9188      9187      9185      9188
      9185      9188      9189      9185      9188      9190      9185      9188      9191
      9189      9188      9190      9189      9188      9191      9190      9188      9191
      9188      9191      9192      9188      9191      9193      9188      9191      9194
      9192      9191      9193      9192      9191      9194      9193      9191      9194
      9191      9194      9195      9191      9194      9196      9191      9194      9197
      9195      9194      9196      9195      9194      9197      9196      9194      9197
      9194      9197      9198      9194      9197      9199      9194      9197      9200
      9198      9197      9199      9198      9197      9200      9199      9197      9200
      9197      9200      9201      9197      9200      9202      9197      9200      9203
      9201      9200      9202      9201      9200      9203      9202      9200      9203
      9154      9204      9205      9154      9204      9206      9154      9204      9207
      9205      9204      9206      9205      9204      9207      9206      9204      9207
      9204      9207      9208      9204      9207      9209      9204      9207      9210
      9208      9207      9209      9208      9207      9210      9209      9207      9210
      9207      9210      9211      9207      9210      9212      9207      9210      9213
      9211      9210      9212      9211      9210      9213      9212      9210      9213
      9210      9213      9214      9210      9213      9215      9210      9213      9216
      9214      9213      9215      9214      9213      9216      9215      9213      9216
      9213      9216      9217      9213      9216      9218      9213      9216      9219
      9217      9216      9218      9217      9216      9219      9218      9216      9219
      9216      9219      9220      9216      9219      9221      9216      9219      9222
      9220      9219      9221      9220      9219      9222      9221      9219      9222
      9219      9222      9223      9219      9222      9224      9219      9222      9225
      9223      9222      9224      9223      9222      9225      9224      9222      9225
      9222      9225      9226      9222      9225      9227      9222      9225      9228
      9226      9225      9227      9226      9225      9228      9227      9225      9228
      9225      9228      9229      9225      9228      9230      9225      9228      9231
      9229      9228      9230      9229      9228      9231      9230      9228      9231
      9228      9231      9232      9228      9231      9233      9228      9231      9234
      9232      9231      9233      9232      9231      9234      9233      9231      9234
      9231      9234      9235      9231      9234      9236      9231      9234      9237
      9235      9234      9236      9235      9234      9237      9236      9234      9237
      9234      9237      9238      9234      9237      9239      9234      9237      9240
      9238      9237      9239      9238      9237      9240      9239      9237      9240
      9237      9240      9241      9237      9240      9242      9237      9240      9243
      9241      9240      9242      9241      9240      9243      9242      9240      9243
      9240      9243      9244      9240      9243      9245      9240      9243      9246
      9244      9243      9245      9244      9243      9246      9245      9243      9246
      9248      9247      9251      9248      9247      9255      9248      9247      9259
      9251      9247      9255      9251      9247      9259      9255      9247      9259
      9247      9248      9249      9247      9248      9250      9247      9248      9263
      9249      9248      9250      9249      9248      9263      9250      9248      9263
      9247      9251      9252      9247      9251      9253      9247      9251      9254
      9252      9251      9253      9252      9251      9254      9253      9251      9254
      9247      9255      9256      9247      9255      9257      9247      9255      9258
      9256      9255      9257      9256      9255      9258      9257      9255      9258
      9247      9259      9260      9247      9259      9261      9247      9259      9262
      9260      9259      9261      9260      9259      9262      9261      9259      9262
      9248      9263      9264      9248      9263      9265      9248      9263      9269
      9264      9263      9265      9264      9263      9269      9265      9263      9269
      9267      9266      9268      9267      9266      9269      9267      9266      9270
      9268      9266      9269      9268      9266      9270      9269      9266      9270
      9263      9269      9266      9266      9270      9271      9270      9271      9272
      9270      9271      9273      9270      9271      9274      9272      9271      9273
      9272      9271      9274      9273      9271      9274      9271      9274      9275
      9271      9274      9276      9271      9274      9282      9275      9274      9276
      9275      9274      9282      9276      9274      9282      9274      9276      9277
      9276      9277      9278      9276      9277      9279      9278      9277      9279
      9277      9279      9280      9277      9279      9281      9277      9279      9291
      9280      9279      9281      9280      9279      9291      9281      9279      9291
      9274      9282      9283      9274      9282      9284      9274      9282      9285
      9283      9282      9284      9283      9282      9285      9284      9282      9285
      9282      9285      9286      9285      9286      9287      9285      9286      9288
      9287      9286      9288      9286      9288      9289      9286      9288      9290
      9286      9288      9338      9289      9288      9290      9289      9288      9338
      9290      9288      9338      9279      9291      9292      9279      9291      9293
      9279      9291      9294      9292      9291      9293      9292      9291      9294
      9293      9291      9294      9291      9294      9295      9291      9294      9296
      9291      9294      9297      9295      9294      9296      9295      9294      9297
      9296      9294      9297      9294      9297      9298      9294      9297      9299
      9294      9297      9300      9298      9297      9299      9298      9297      9300
      9299      9297      9300      9297      9300      9301      9297      9300      9302
      9297      9300      9303      9301      9300      9302      9301      9300      9303
      9302      9300      9303      9300      9303      9304      9300      9303      9305
      9300      9303      9306      9304      9303      9305      9304      9303      9306
      9305      9303      9306      9303      9306      9307      9303      9306      9308
      9303      9306      9309      9307      9306      9308      9307      9306      9309
      9308      9306      9309      9306      9309      9310      9306      9309      9311
      9310      9309      9311      9309      9311      9312      9309      9311      9313
      9312      9311      9313      9311      9313      9314      9311      9313      9315
      9311      9313      9316      9314      9313      9315      9314      9313      9316
      9315      9313      9316      9313      9316      9317      9313      9316      9318
      9313      9316      9319      9317      9316      9318      9317      9316      9319
      9318      9316      9319      9316      9319      9320      9316      9319      9321
      9316      9319      9322      9320      9319      9321      9320      9319      9322
      9321      9319      9322      9319      9322      9323      9319      9322      9324
      9319      9322      9325      9323      9322      9324      9323      9322      9325
      9324      9322      9325      9322      9325      9326      9322      9325      9327
      9322      9325      9328      9326      9325      9327      9326      9325      9328
      9327      9325      9328      9325      9328      9329      9325      9328      9330
      9325      9328      9331      9329      9328      9330      9329      9328      9331
      9330      9328      9331      9328      9331      9332      9328      9331      9333
      9328      9331      9334      9332      9331      9333      9332      9331      9334
      9333      9331      9334      9331      9334      9335      9331      9334      9336
      9331      9334      9337      9335      9334      9336      9335      9334      9337
      9336      9334      9337      9288      9338      9339      9288      9338      9340
      9288      9338      9341      9339      9338      9340      9339      9338      9341
      9340      9338      9341      9338      9341      9342      9338      9341      9343
      9338      9341      9344      9342      9341      9343      9342      9341      9344
      9343      9341      9344      9341      9344      9345      9341      9344      9346
      9341      9344      9347      9345      9344      9346      9345      9344      9347
      9346      9344      9347      9344      9347      9348      9344      9347      9349
      9344      9347      9350      9348      9347      9349      9348      9347      9350
      9349      9347      9350      9347      9350      9351      9347      9350      9352
      9347      9350      9353      9351      9350      9352      9351      9350      9353
      9352      9350      9353      9350      9353      9354      9350      9353      9355
      9350      9353      9356      9354      9353      9355      9354      9353      9356
      9355      9353      9356      9353      9356      9357      9353      9356      9358
      9353      9356      9359      9357      9356      9358      9357      9356      9359
      9358      9356      9359      9356      9359      9360      9356      9359      9361
      9356      9359      9362      9360      9359      9361      9360      9359      9362
      9361      9359      9362      9359      9362      9363      9359      9362      9364
      9359      9362      9365      9363      9362      9364      9363      9362      9365
      9364      9362      9365      9362      9365      9366      9362      9365      9367
      9362      9365      9368      9366      9365      9367      9366      9365      9368
      9367      9365      9368      9365      9368      9369      9365      9368      9370
      9365      9368      9371      9369      9368      9370      9369      9368      9371
      9370      9368      9371      9368      9371      9372      9368      9371      9373
      9368      9371      9374      9372      9371      9373      9372      9371      9374
      9373      9371      9374      9371      9374      9375      9371      9374      9376
      9371      9374      9377      9375      9374      9376      9375      9374      9377
      9376      9374      9377      9374      9377      9378      9374      9377      9379
      9374      9377      9380      9378      9377      9379      9378      9377      9380
      9379      9377      9380      9382      9381      9385      9382      9381      9389
      9382      9381      9393      9385      9381      9389      9385      9381      9393
      9389      9381      9393      9381      9382      9383      9381      9382      9384
      9381      9382      9397      9383      9382      9384      9383      9382      9397
      9384      9382      9397      9381      9385      9386      9381      9385      9387
      9381      9385      9388      9386      9385      9387      9386      9385      9388
      9387      9385      9388      9381      9389      9390      9381      9389      9391
      9381      9389      9392      9390      9389      9391      9390      9389      9392
      9391      9389      9392      9381      9393      9394      9381      9393      9395
      9381      9393      9396      9394      9393      9395      9394      9393      9396
      9395      9393      9396      9382      9397      9398      9382      9397      9399
      9382      9397      9403      9398      9397      9399      9398      9397      9403
      9399      9397      9403      9401      9400      9402      9401      9400      9403
      9401      9400      9404      9402      9400      9403      9402      9400      9404
      9403      9400      9404      9397      9403      9400      9400      9404      9405
      9404      9405      9406      9404      9405      9407      9404      9405      9408
      9406      9405      9407      9406      9405      9408      9407      9405      9408
      9405      9408      9409      9405      9408      9410      9405      9408      9416
      9409      9408      9410      9409      9408      9416      9410      9408      9416
      9408      9410      9411      9410      9411      9412      9410      9411      9413
      9412      9411      9413      9411      9413      9414      9411      9413      9415
      9411      9413      9425      9414      9413      9415      9414      9413      9425
      9415      9413      9425      9408      9416      9417      9408      9416      9418
      9408      9416      9419      9417      9416      9418      9417      9416      9419
      9418      9416      9419      9416      9419      9420      9419      9420      9421
      9419      9420      9422      9421      9420      9422      9420      9422      9423
      9420      9422      9424      9420      9422      9472      9423      9422      9424
      9423      9422      9472      9424      9422      9472      9413      9425      9426
      9413      9425      9427      9413      9425      9428      9426      9425      9427
      9426      9425      9428      9427      9425      9428      9425      9428      9429
      9425      9428      9430      9425      9428      9431      9429      9428      9430
      9429      9428      9431      9430      9428      9431      9428      9431      9432
      9428      9431      9433      9428      9431      9434      9432      9431      9433
      9432      9431      9434      9433      9431      9434      9431      9434      9435
      9431      9434      9436      9431      9434      9437      9435      9434      9436
      9435      9434      9437      9436      9434      9437      9434      9437      9438
      9434      9437      9439      9434      9437      9440      9438      9437      9439
      9438      9437      9440      9439      9437      9440      9437      9440      9441
      9437      9440      9442      9437      9440      9443      9441      9440      9442
      9441      9440      9443      9442      9440      9443      9440      9443      9444
      9440      9443      9445      9444      9443      9445      9443      9445      9446
      9443      9445      9447      9446      9445      9447      9445      9447      9448
      9445      9447      9449      9445      9447      9450      9448      9447      9449
      9448      9447      9450      9449      9447      9450      9447      9450      9451
      9447      9450      9452      9447      9450      9453      9451      9450      9452
      9451      9450      9453      9452      9450      9453      9450      9453      9454
      9450      9453      9455      9450      9453      9456      9454      9453      9455
      9454      9453      9456      9455      9453      9456      9453      9456      9457
      9453      9456      9458      9453      9456      9459      9457      9456      9458
      9457      9456      9459      9458      9456      9459      9456      9459      9460
      9456      9459      9461      9456      9459      9462      9460      9459      9461
      9460      9459      9462      9461      9459      9462      9459      9462      9463
      9459      9462      9464      9459      9462      9465      9463      9462      9464
      9463      9462      9465      9464      9462      9465      9462      9465      9466
      9462      9465      9467      9462      9465      9468      9466      9465      9467
      9466      9465      9468      9467      9465      9468      9465      9468      9469
      9465      9468      9470      9465      9468      9471      9469      9468      9470
      9469      9468      9471      9470      9468      9471      9422      9472      9473
      9422      9472      9474      9422      9472      9475      9473      9472      9474
      9473      9472      9475      9474      9472      9475      9472      9475      9476
      9472      9475      9477      9472      9475      9478      9476      9475      9477
      9476      9475      9478      9477      9475      9478      9475      9478      9479
      9475      9478      9480      9475      9478      9481      9479      9478      9480
      9479      9478      9481      9480      9478      9481      9478      9481      9482
      9478      9481      9483      9478      9481      9484      9482      9481      9483
      9482      9481      9484      9483      9481      9484      9481      9484      9485
      9481      9484      9486      9481      9484      9487      9485      9484      9486
      9485      9484      9487      9486      9484      9487      9484      9487      9488
      9484      9487      9489      9484      9487      9490      9488      9487      9489
      9488      9487      9490      9489      9487      9490      9487      9490      9491
      9487      9490      9492      9487      9490      9493      9491      9490      9492
      9491      9490      9493      9492      9490      9493      9490      9493      9494
      9490      9493      9495      9490      9493      9496      9494      9493      9495
      9494      9493      9496      9495      9493      9496      9493      9496      9497
      9493      9496      9498      9493      9496      9499      9497      9496      9498
      9497      9496      9499      9498      9496      9499      9496      9499      9500
      9496      9499      9501      9496      9499      9502      9500      9499      9501
      9500      9499      9502      9501      9499      9502      9499      9502      9503
      9499      9502      9504      9499      9502      9505      9503      9502      9504
      9503      9502      9505      9504      9502      9505      9502      9505      9506
      9502      9505      9507      9502      9505      9508      9506      9505      9507
      9506      9505      9508      9507      9505      9508      9505      9508      9509
      9505      9508      9510      9505      9508      9511      9509      9508      9510
      9509      9508      9511      9510      9508      9511      9508      9511      9512
      9508      9511      9513      9508      9511      9514      9512      9511      9513
      9512      9511      9514      9513      9511      9514      9516      9515      9519
      9516      9515      9523      9516      9515      9527      9519      9515      9523
      9519      9515      9527      9523      9515      9527      9515      9516      9517
      9515      9516      9518      9515      9516      9531      9517      9516      9518
      9517      9516      9531      9518      9516      9531      9515      9519      9520
      9515      9519      9521      9515      9519      9522      9520      9519      9521
      9520      9519      9522      9521      9519      9522      9515      9523      9524
      9515      9523      9525      9515      9523      9526      9524      9523      9525
      9524      9523      9526      9525      9523      9526      9515      9527      9528
      9515      9527      9529      9515      9527      9530      9528      9527      9529
      9528      9527      9530      9529      9527      9530      9516      9531      9532
      9516      9531      9533      9516      9531      9537      9532      9531      9533
      9532      9531      9537      9533      9531      9537      9535      9534      9536
      9535      9534      9537      9535      9534      9538      9536      9534      9537
      9536      9534      9538      9537      9534      9538      9531      9537      9534
      9534      9538      9539      9538      9539      9540      9538      9539      9541
      9538      9539      9542      9540      9539      9541      9540      9539      9542
      9541      9539      9542      9539      9542      9543      9539      9542      9544
      9539      9542      9550      9543      9542      9544      9543      9542      9550
      9544      9542      9550      9542      9544      9545      9544      9545      9546
      9544      9545      9547      9546      9545      9547      9545      9547      9548
      9545      9547      9549      9545      9547      9559      9548      9547      9549
      9548      9547      9559      9549      9547      9559      9542      9550      9551
      9542      9550      9552      9542      9550      9553      9551      9550      9552
      9551      9550      9553      9552      9550      9553      9550      9553      9554
      9553      9554      9555      9553      9554      9556      9555      9554      9556
      9554      9556      9557      9554      9556      9558      9554      9556      9606
      9557      9556      9558      9557      9556      9606      9558      9556      9606
      9547      9559      9560      9547      9559      9561      9547      9559      9562
      9560      9559      9561      9560      9559      9562      9561      9559      9562
      9559      9562      9563      9559      9562      9564      9559      9562      9565
      9563      9562      9564      9563      9562      9565      9564      9562      9565
      9562      9565      9566      9562      9565      9567      9562      9565      9568
      9566      9565      9567      9566      9565      9568      9567      9565      9568
      9565      9568      9569      9565      9568      9570      9565      9568      9571
      9569      9568      9570      9569      9568      9571      9570      9568      9571
      9568      9571      9572      9568      9571      9573      9568      9571      9574
      9572      9571      9573      9572      9571      9574      9573      9571      9574
      9571      9574      9575      9571      9574      9576      9571      9574      9577
      9575      9574      9576      9575      9574      9577      9576      9574      9577
      9574      9577      9578      9574      9577      9579      9578      9577      9579
      9577      9579      9580      9577      9579      9581      9580      9579      9581
      9579      9581      9582      9579      9581      9583      9579      9581      9584
      9582      9581      9583      9582      9581      9584      9583      9581      9584
      9581      9584      9585      9581      9584      9586      9581      9584      9587
      9585      9584      9586      9585      9584      9587      9586      9584      9587
      9584      9587      9588      9584      9587      9589      9584      9587      9590
      9588      9587      9589      9588      9587      9590      9589      9587      9590
      9587      9590      9591      9587      9590      9592      9587      9590      9593
      9591      9590      9592      9591      9590      9593      9592      9590      9593
      9590      9593      9594      9590      9593      9595      9590      9593      9596
      9594      9593      9595      9594      9593      9596      9595      9593      9596
      9593      9596      9597      9593      9596      9598      9593      9596      9599
      9597      9596      9598      9597      9596      9599      9598      9596      9599
      9596      9599      9600      9596      9599      9601      9596      9599      9602
      9600      9599      9601      9600      9599      9602      9601      9599      9602
      9599      9602      9603      9599      9602      9604      9599      9602      9605
      9603      9602      9604      9603      9602      9605      9604      9602      9605
      9556      9606      9607      9556      9606      9608      9556      9606      9609
      9607      9606      9608      9607      9606      9609      9608      9606      9609
      9606      9609      9610      9606      9609      9611      9606      9609      9612
      9610      9609      9611      9610      9609      9612      9611      9609      9612
      9609      9612      9613      9609      9612      9614      9609      9612      9615
      9613      9612      9614      9613      9612      9615      9614      9612      9615
      9612      9615      9616      9612      9615      9617      9612      9615      9618
      9616      9615      9617      9616      9615      9618      9617      9615      9618
      9615      9618      9619      9615      9618      9620      9615      9618      9621
      9619      9618      9620      9619      9618      9621      9620      9618      9621
      9618      9621      9622      9618      9621      9623      9618      9621      9624
      9622      9621      9623      9622      9621      9624      9623      9621      9624
      9621      9624      9625      9621      9624      9626      9621      9624      9627
      9625      9624      9626      9625      9624      9627      9626      9624      9627
      9624      9627      9628      9624      9627      9629      9624      9627      9630
      9628      9627      9629      9628      9627      9630      9629      9627      9630
      9627      9630      9631      9627      9630      9632      9627      9630      9633
      9631      9630      9632      9631      9630      9633      9632      9630      9633
      9630      9633      9634      9630      9633      9635      9630      9633      9636
      9634      9633      9635      9634      9633      9636      9635      9633      9636
      9633      9636      9637      9633      9636      9638      9633      9636      9639
      9637      9636      9638      9637      9636      9639      9638      9636      9639
      9636      9639      9640      9636      9639      9641      9636      9639      9642
      9640      9639      9641      9640      9639      9642      9641      9639      9642
      9639      9642      9643      9639      9642      9644      9639      9642      9645
      9643      9642      9644      9643      9642      9645      9644      9642      9645
      9642      9645      9646      9642      9645      9647      9642      9645      9648
      9646      9645      9647      9646      9645      9648      9647      9645      9648
      9650      9649      9653      9650      9649      9657      9650      9649      9661
      9653      9649      9657      9653      9649      9661      9657      9649      9661
      9649      9650      9651      9649      9650      9652      9649      9650      9665
      9651      9650      9652      9651      9650      9665      9652      9650      9665
      9649      9653      9654      9649      9653      9655      9649      9653      9656
      9654      9653      9655      9654      9653      9656      9655      9653      9656
      9649      9657      9658      9649      9657      9659      9649      9657      9660
      9658      9657      9659      9658      9657      9660      9659      9657      9660
      9649      9661      9662      9649      9661      9663      9649      9661      9664
      9662      9661      9663      9662      9661      9664      9663      9661      9664
      9650      9665      9666      9650      9665      9667      9650      9665      9671
      9666      9665      9667      9666      9665      9671      9667      9665      9671
      9669      9668      9670      9669      9668      9671      9669      9668      9672
      9670      9668      9671      9670      9668      9672      9671      9668      9672
      9665      9671      9668      9668      9672      9673      9672      9673      9674
      9672      9673      9675      9672      9673      9676      9674      9673      9675
      9674      9673      9676      9675      9673      9676      9673      9676      9677
      9673      9676      9678      9673      9676      9684      9677      9676      9678
      9677      9676      9684      9678      9676      9684      9676      9678      9679
      9678      9679      9680      9678      9679      9681      9680      9679      9681
      9679      9681      9682      9679      9681      9683      9679      9681      9693
      9682      9681      9683      9682      9681      9693      9683      9681      9693
      9676      9684      9685      9676      9684      9686      9676      9684      9687
      9685      9684      9686      9685      9684      9687      9686      9684      9687
      9684      9687      9688      9687      9688      9689      9687      9688      9690
      9689      9688      9690      9688      9690      9691      9688      9690      9692
      9688      9690      9740      9691      9690      9692      9691      9690      9740
      9692      9690      9740      9681      9693      9694      9681      9693      9695
      9681      9693      9696      9694      9693      9695      9694      9693      9696
      9695      9693      9696      9693      9696      9697      9693      9696      9698
      9693      9696      9699      9697      9696      9698      9697      9696      9699
      9698      9696      9699      9696      9699      9700      9696      9699      9701
      9696      9699      9702      9700      9699      9701      9700      9699      9702
      9701      9699      9702      9699      9702      9703      9699      9702      9704
      9699      9702      9705      9703      9702      9704      9703      9702      9705
      9704      9702      9705      9702      9705      9706      9702      9705      9707
      9702      9705      9708      9706      9705      9707      9706      9705      9708
      9707      9705      9708      9705      9708      9709      9705      9708      9710
      9705      9708      9711      9709      9708      9710      9709      9708      9711
      9710      9708      9711      9708      9711      9712      9708      9711      9713
      9712      9711      9713      9711      9713      9714      9711      9713      9715
      9714      9713      9715      9713      9715      9716      9713      9715      9717
      9713      9715      9718      9716      9715      9717      9716      9715      9718
      9717      9715      9718      9715      9718      9719      9715      9718      9720
      9715      9718      9721      9719      9718      9720      9719      9718      9721
      9720      9718      9721      9718      9721      9722      9718      9721      9723
      9718      9721      9724      9722      9721      9723      9722      9721      9724
      9723      9721      9724      9721      9724      9725      9721      9724      9726
      9721      9724      9727      9725      9724      9726      9725      9724      9727
      9726      9724      9727      9724      9727      9728      9724      9727      9729
      9724      9727      9730      9728      9727      9729      9728      9727      9730
      9729      9727      9730      9727      9730      9731      9727      9730      9732
      9727      9730      9733      9731      9730      9732      9731      9730      9733
      9732      9730      9733      9730      9733      9734      9730      9733      9735
      9730      9733      9736      9734      9733      9735      9734      9733      9736
      9735      9733      9736      9733      9736      9737      9733      9736      9738
      9733      9736      9739      9737      9736      9738      9737      9736      9739
      9738      9736      9739      9690      9740      9741      9690      9740      9742
      9690      9740      9743      9741      9740      9742      9741      9740      9743
      9742      9740      9743      9740      9743      9744      9740      9743      9745
      9740      9743      9746      9744      9743      9745      9744      9743      9746
      9745      9743      9746      9743      9746      9747      9743      9746      9748
      9743      9746      9749      9747      9746      9748      9747      9746      9749
      9748      9746      9749      9746      9749      9750      9746      9749      9751
      9746      9749      9752      9750      9749      9751      9750      9749      9752
      9751      9749      9752      9749      9752      9753      9749      9752      9754
      9749      9752      9755      9753      9752      9754      9753      9752      9755
      9754      9752      9755      9752      9755      9756      9752      9755      9757
      9752      9755      9758      9756      9755      9757      9756      9755      9758
      9757      9755      9758      9755      9758      9759      9755      9758      9760
      9755      9758      9761      9759      9758      9760      9759      9758      9761
      9760      9758      9761      9758      9761      9762      9758      9761      9763
      9758      9761      9764      9762      9761      9763      9762      9761      9764
      9763      9761      9764      9761      9764      9765      9761      9764      9766
      9761      9764      9767      9765      9764      9766      9765      9764      9767
      9766      9764      9767      9764      9767      9768      9764      9767      9769
      9764      9767      9770      9768      9767      9769      9768      9767      9770
      9769      9767      9770      9767      9770      9771      9767      9770      9772
      9767      9770      9773      9771      9770      9772      9771      9770      9773
      9772      9770      9773      9770      9773      9774      9770      9773      9775
      9770      9773      9776      9774      9773      9775      9774      9773      9776
      9775      9773      9776      9773      9776      9777      9773      9776      9778
      9773      9776      9779      9777      9776      9778      9777      9776      9779
      9778      9776      9779      9776      9779      9780      9776      9779      9781
      9776      9779      9782      9780      9779      9781      9780      9779      9782
      9781      9779      9782      9784      9783      9787      9784      9783      9791
      9784      9783      9795      9787      9783      9791      9787      9783      9795
      9791      9783      9795      9783      9784      9785      9783      9784      9786
      9783      9784      9799      9785      9784      9786      9785      9784      9799
      9786      9784      9799      9783      9787      9788      9783      9787      9789
      9783      9787      9790      9788      9787      9789      9788      9787      9790
      9789      9787      9790      9783      9791      9792      9783      9791      9793
      9783      9791      9794      9792      9791      9793      9792      9791      9794
      9793      9791      9794      9783      9795      9796      9783      9795      9797
      9783      9795      9798      9796      9795      9797      9796      9795      9798
      9797      9795      9798      9784      9799      9800      9784      9799      9801
      9784      9799      9805      9800      9799      9801      9800      9799      9805
      9801      9799      9805      9803      9802      9804      9803      9802      9805
      9803      9802      9806      9804      9802      9805      9804      9802      9806
      9805      9802      9806      9799      9805      9802      9802      9806      9807
      9806      9807      9808      9806      9807      9809      9806      9807      9810
      9808      9807      9809      9808      9807      9810      9809      9807      9810
      9807      9810      9811      9807      9810      9812      9807      9810      9818
      9811      9810      9812      9811      9810      9818      9812      9810      9818
      9810      9812      9813      9812      9813      9814      9812      9813      9815
      9814      9813      9815      9813      9815      9816      9813      9815      9817
      9813      9815      9827      9816      9815      9817      9816      9815      9827
      9817      9815      9827      9810      9818      9819      9810      9818      9820
      9810      9818      9821      9819      9818      9820      9819      9818      9821
      9820      9818      9821      9818      9821      9822      9821      9822      9823
      9821      9822      9824      9823      9822      9824      9822      9824      9825
      9822      9824      9826      9822      9824      9874      9825      9824      9826
      9825      9824      9874      9826      9824      9874      9815      9827      9828
      9815      9827      9829      9815      9827      9830      9828      9827      9829
      9828      9827      9830      9829      9827      9830      9827      9830      9831
      9827      9830      9832      9827      9830      9833      9831      9830      9832
      9831      9830      9833      9832      9830      9833      9830      9833      9834
      9830      9833      9835      9830      9833      9836      9834      9833      9835
      9834      9833      9836      9835      9833      9836      9833      9836      9837
      9833      9836      9838      9833      9836      9839      9837      9836      9838
      9837      9836      9839      9838      9836      9839      9836      9839      9840
      9836      9839      9841      9836      9839      9842      9840      9839      9841
      9840      9839      9842      9841      9839      9842      9839      9842      9843
      9839      9842      9844      9839      9842      9845      9843      9842      9844
      9843      9842      9845      9844      9842      9845      9842      9845      9846
      9842      9845      9847      9846      9845      9847      9845      9847      9848
      9845      9847      9849      9848      9847      9849      9847      9849      9850
      9847      9849      9851      9847      9849      9852      9850      9849      9851
      9850      9849      9852      9851      9849      9852      9849      9852      9853
      9849      9852      9854      9849      9852      9855      9853      9852      9854
      9853      9852      9855      9854      9852      9855      9852      9855      9856
      9852      9855      9857      9852      9855      9858      9856      9855      9857
      9856      9855      9858      9857      9855      9858      9855      9858      9859
      9855      9858      9860      9855      9858      9861      9859      9858      9860
      9859      9858      9861      9860      9858      9861      9858      9861      9862
      9858      9861      9863      9858      9861      9864      9862      9861      9863
      9862      9861      9864      9863      9861      9864      9861      9864      9865
      9861      9864      9866      9861      9864      9867      9865      9864      9866
      9865      9864      9867      9866      9864      9867      9864      9867      9868
      9864      9867      9869      9864      9867      9870      9868      9867      9869
      9868      9867      9870      9869      9867      9870      9867      9870      9871
      9867      9870      9872      9867      9870      9873      9871      9870      9872
      9871      9870      9873      9872      9870      9873      9824      9874      9875
      9824      9874      9876      9824      9874      9877      9875      9874      9876
      9875      9874      9877      9876      9874      9877      9874      9877      9878
      9874      9877      9879      9874      9877      9880      9878      9877      9879
      9878      9877      9880      9879      9877      9880      9877      9880      9881
      9877      9880      9882      9877      9880      9883      9881      9880      9882
      9881      9880      9883      9882      9880      9883      9880      9883      9884
      9880      9883      9885      9880      9883      9886      9884      9883      9885
      9884      9883      9886      9885      9883      9886      9883      9886      9887
      9883      9886      9888      9883      9886      9889      9887      9886      9888
      9887      9886      9889      9888      9886      9889      9886      9889      9890
      9886      9889      9891      9886      9889      9892      9890      9889      9891
      9890      9889      9892      9891      9889      9892      9889      9892      9893
      9889      9892      9894      9889      9892      9895      9893      9892      9894
      9893      9892      9895      9894      9892      9895      9892      9895      9896
      9892      9895      9897      9892      9895      9898      9896      9895      9897
      9896      9895      9898      9897      9895      9898      9895      9898      9899
      9895      9898      9900      9895      9898      9901      9899      9898      9900
      9899      9898      9901      9900      9898      9901      9898      9901      9902
      9898      9901      9903      9898      9901      9904      9902      9901      9903
      9902      9901      9904      9903      9901      9904      9901      9904      9905
      9901      9904      9906      9901      9904      9907      9905      9904      9906
      9905      9904      9907      9906      9904      9907      9904      9907      9908
      9904      9907      9909      9904      9907      9910      9908      9907      9909
      9908      9907      9910      9909      9907      9910      9907      9910      9911
      9907      9910      9912      9907      9910      9913      9911      9910      9912
      9911      9910      9913      9912      9910      9913      9910      9913      9914
      9910      9913      9915      9910      9913      9916      9914      9913      9915
      9914      9913      9916      9915      9913      9916      9918      9917      9921
      9918      9917      9925      9918      9917      9929      9921      9917      9925
      9921      9917      9929      9925      9917      9929      9917      9918      9919
      9917      9918      9920      9917      9918      9933      9919      9918      9920
      9919      9918      9933      9920      9918      9933      9917      9921      9922
      9917      9921      9923      9917      9921      9924      9922      9921      9923
      9922      9921      9924      9923      9921      9924      9917      9925      9926
      9917      9925      9927      9917      9925      9928      9926      9925      9927
      9926      9925      9928      9927      9925      9928      9917      9929      9930
      9917      9929      9931      9917      9929      9932      9930      9929      9931
      9930      9929      9932      9931      9929      9932      9918      9933      9934
      9918      9933      9935      9918      9933      9939      9934      9933      9935
      9934      9933      9939      9935      9933      9939      9937      9936      9938
      9937      9936      9939      9937      9936      9940      9938      9936      9939
      9938      9936      9940      9939      9936      9940      9933      9939      9936
      9936      9940      9941      9940      9941      9942      9940      9941      9943
      9940      9941      9944      9942      9941      9943      9942      9941      9944
      9943      9941      9944      9941      9944      9945      9941      9944      9946
      9941      9944      9952      9945      9944      9946      9945      9944      9952
      9946      9944      9952      9944      9946      9947      9946      9947      9948
      9946      9947      9949      9948      9947      9949      9947      9949      9950
      9947      9949      9951      9947      9949      9961      9950      9949      9951
      9950      9949      9961      9951      9949      9961      9944      9952      9953
      9944      9952      9954      9944      9952      9955      9953      9952      9954
      9953      9952      9955      9954      9952      9955      9952      9955      9956
      9955      9956      9957      9955      9956      9958      9957      9956      9958
      9956      9958      9959      9956      9958      9960      9956      9958     10008
      9959      9958      9960      9959      9958     10008      9960      9958     10008
      9949      9961      9962      9949      9961      9963      9949      9961      9964
      9962      9961      9963      9962      9961      9964      9963      9961      9964
      9961      9964      9965      9961      9964      9966      9961      9964      9967
      9965      9964      9966      9965      9964      9967      9966      9964      9967
      9964      9967      9968      9964      9967      9969      9964      9967      9970
      9968      9967      9969      9968      9967      9970      9969      9967      9970
      9967      9970      9971      9967      9970      9972      9967      9970      9973
      9971      9970      9972      9971      9970      9973      9972      9970      9973
      9970      9973      9974      9970      9973      9975      9970      9973      9976
      9974      9973      9975      9974      9973      9976      9975      9973      9976
      9973      9976      9977      9973      9976      9978      9973      9976      9979
      9977      9976      9978      9977      9976      9979      9978      9976      9979
      9976      9979      9980      9976      9979      9981      9980      9979      9981
      9979      9981      9982      9979      9981      9983      9982      9981      9983
      9981      9983      9984      9981      9983      9985      9981      9983      9986
      9984      9983      9985      9984      9983      9986      9985      9983      9986
      9983      9986      9987      9983      9986      9988      9983      9986      9989
      9987      9986      9988      9987      9986      9989      9988      9986      9989
      9986      9989      9990      9986      9989      9991      9986      9989      9992
      9990      9989      9991      9990      9989      9992      9991      9989      9992
      9989      9992      9993      9989      9992      9994      9989      9992      9995
      9993      9992      9994      9993      9992      9995      9994      9992      9995
      9992      9995      9996      9992      9995      9997      9992      9995      9998
      9996      9995      9997      9996      9995      9998      9997      9995      9998
      9995      9998      9999      9995      9998     10000      9995      9998     10001
      9999      9998     10000      9999      9998     10001     10000      9998     10001
      9998     10001     10002      9998     10001     10003      9998     10001     10004
     10002     10001     10003     10002     10001     10004     10003     10001     10004
     10001     10004     10005     10001     10004     10006     10001     10004     10007
     10005     10004     10006     10005     10004     10007     10006     10004     10007
      9958     10008     10009      9958     10008     10010      9958     10008     10011
     10009     10008     10010     10009     10008     10011     10010     10008     10011
     10008     10011     10012     10008     10011     10013     10008     10011     10014
     10012     10011     10013     10012     10011     10014     10013     10011     10014
     10011     10014     10015     10011     10014     10016     10011     10014     10017
     10015     10014     10016     10015     10014     10017     10016     10014     10017
     10014     10017     10018     10014     10017     10019     10014     10017     10020
     10018     10017     10019     10018     10017     10020     10019     10017     10020
     10017     10020     10021     10017     10020     10022     10017     10020     10023
     10021     10020     10022     10021     10020     10023     10022     10020     10023
     10020     10023     10024     10020     10023     10025     10020     10023     10026
     10024     10023     10025     10024     10023     10026     10025     10023     10026
     10023     10026     10027     10023     10026     10028     10023     10026     10029
     10027     10026     10028     10027     10026     10029     10028     10026     10029
     10026     10029     10030     10026     10029     10031     10026     10029     10032
     10030     10029     10031     10030     10029     10032     10031     10029     10032
     10029     10032     10033     10029     10032     10034     10029     10032     10035
     10033     10032     10034     10033     10032     10035     10034     10032     10035
     10032     10035     10036     10032     10035     10037     10032     10035     10038
     10036     10035     10037     10036     10035     10038     10037     10035     10038
     10035     10038     10039     10035     10038     10040     10035     10038     10041
     10039     10038     10040     10039     10038     10041     10040     10038     10041
     10038     10041     10042     10038     10041     10043     10038     10041     10044
     10042     10041     10043     10042     10041     10044     10043     10041     10044
     10041     10044     10045     10041     10044     10046     10041     10044     10047
     10045     10044     10046     10045     10044     10047     10046     10044     10047
     10044     10047     10048     10044     10047     10049     10044     10047     10050
     10048     10047     10049     10048     10047     10050     10049     10047     10050
     10052     10051     10055     10052     10051     10059     10052     10051     10063
     10055     10051     10059     10055     10051     10063     10059     10051     10063
     10051     10052     10053     10051     10052     10054     10051     10052     10067
     10053     10052     10054     10053     10052     10067     10054     10052     10067
     10051     10055     10056     10051     10055     10057     10051     10055     10058
     10056     10055     10057     10056     10055     10058     10057     10055     10058
     10051     10059     10060     10051     10059     10061     10051     10059     10062
     10060     10059     10061     10060     10059     10062     10061     10059     10062
     10051     10063     10064     10051     10063     10065     10051     10063     10066
     10064     10063     10065     10064     10063     10066     10065     10063     10066
     10052     10067     10068     10052     10067     10069     10052     10067     10073
     10068     10067     10069     10068     10067     10073     10069     10067     10073
     10071     10070     10072     10071     10070     10073     10071     10070     10074
     10072     10070     10073     10072     10070     10074     10073     10070     10074
     10067     10073     10070     10070     10074     10075     10074     10075     10076
     10074     10075     10077     10074     10075     10078     10076     10075     10077
     10076     10075     10078     10077     10075     10078     10075     10078     10079
     10075     10078     10080     10075     10078     10086     10079     10078     10080
     10079     10078     10086     10080     10078     10086     10078     10080     10081
     10080     10081     10082     10080     10081     10083     10082     10081     10083
     10081     10083     10084     10081     10083     10085     10081     10083     10095
     10084     10083     10085     10084     10083     10095     10085     10083     10095
     10078     10086     10087     10078     10086     10088     10078     10086     10089
     10087     10086     10088     10087     10086     10089     10088     10086     10089
     10086     10089     10090     10089     10090     10091     10089     10090     10092
     10091     10090     10092     10090     10092     10093     10090     10092     10094
     10090     10092     10142     10093     10092     10094     10093     10092     10142
     10094     10092     10142     10083     10095     10096     10083     10095     10097
     10083     10095     10098     10096     10095     10097     10096     10095     10098
     10097     10095     10098     10095     10098     10099     10095     10098     10100
     10095     10098     10101     10099     10098     10100     10099     10098     10101
     10100     10098     10101     10098     10101     10102     10098     10101     10103
     10098     10101     10104     10102     10101     10103     10102     10101     10104
     10103     10101     10104     10101     10104     10105     10101     10104     10106
     10101     10104     10107     10105     10104     10106     10105     10104     10107
     10106     10104     10107     10104     10107     10108     10104     10107     10109
     10104     10107     10110     10108     10107     10109     10108     10107     10110
     10109     10107     10110     10107     10110     10111     10107     10110     10112
     10107     10110     10113     10111     10110     10112     10111     10110     10113
     10112     10110     10113     10110     10113     10114     10110     10113     10115
     10114     10113     10115     10113     10115     10116     10113     10115     10117
     10116     10115     10117     10115     10117     10118     10115     10117     10119
     10115     10117     10120     10118     10117     10119     10118     10117     10120
     10119     10117     10120     10117     10120     10121     10117     10120     10122
     10117     10120     10123     10121     10120     10122     10121     10120     10123
     10122     10120     10123     10120     10123     10124     10120     10123     10125
     10120     10123     10126     10124     10123     10125     10124     10123     10126
     10125     10123     10126     10123     10126     10127     10123     10126     10128
     10123     10126     10129     10127     10126     10128     10127     10126     10129
     10128     10126     10129     10126     10129     10130     10126     10129     10131
     10126     10129     10132     10130     10129     10131     10130     10129     10132
     10131     10129     10132     10129     10132     10133     10129     10132     10134
     10129     10132     10135     10133     10132     10134     10133     10132     10135
     10134     10132     10135     10132     10135     10136     10132     10135     10137
     10132     10135     10138     10136     10135     10137     10136     10135     10138
     10137     10135     10138     10135     10138     10139     10135     10138     10140
     10135     10138     10141     10139     10138     10140     10139     10138     10141
     10140     10138     10141     10092     10142     10143     10092     10142     10144
     10092     10142     10145     10143     10142     10144     10143     10142     10145
     10144     10142     10145     10142     10145     10146     10142     10145     10147
     10142     10145     10148     10146     10145     10147     10146     10145     10148
     10147     10145     10148     10145     10148     10149     10145     10148     10150
     10145     10148     10151     10149     10148     10150     10149     10148     10151
     10150     10148     10151     10148     10151     10152     10148     10151     10153
     10148     10151     10154     10152     10151     10153     10152     10151     10154
     10153     10151     10154     10151     10154     10155     10151     10154     10156
     10151     10154     10157     10155     10154     10156     10155     10154     10157
     10156     10154     10157     10154     10157     10158     10154     10157     10159
     10154     10157     10160     10158     10157     10159     10158     10157     10160
     10159     10157     10160     10157     10160     10161     10157     10160     10162
     10157     10160     10163     10161     10160     10162     10161     10160     10163
     10162     10160     10163     10160     10163     10164     10160     10163     10165
     10160     10163     10166     10164     10163     10165     10164     10163     10166
     10165     10163     10166     10163     10166     10167     10163     10166     10168
     10163     10166     10169     10167     10166     10168     10167     10166     10169
     10168     10166     10169     10166     10169     10170     10166     10169     10171
     10166     10169     10172     10170     10169     10171     10170     10169     10172
     10171     10169     10172     10169     10172     10173     10169     10172     10174
     10169     10172     10175     10173     10172     10174     10173     10172     10175
     10174     10172     10175     10172     10175     10176     10172     10175     10177
     10172     10175     10178     10176     10175     10177     10176     10175     10178
     10177     10175     10178     10175     10178     10179     10175     10178     10180
     10175     10178     10181     10179     10178     10180     10179     10178     10181
     10180     10178     10181     10178     10181     10182     10178     10181     10183
     10178     10181     10184     10182     10181     10183     10182     10181     10184
     10183     10181     10184     10186     10185     10189     10186     10185     10193
     10186     10185     10197     10189     10185     10193     10189     10185     10197
     10193     10185     10197     10185     10186     10187     10185     10186     10188
     10185     10186     10201     10187     10186     10188     10187     10186     10201
     10188     10186     10201     10185     10189     10190     10185     10189     10191
     10185     10189     10192     10190     10189     10191     10190     10189     10192
     10191     10189     10192     10185     10193     10194     10185     10193     10195
     10185     10193     10196     10194     10193     10195     10194     10193     10196
     10195     10193     10196     10185     10197     10198     10185     10197     10199
     10185     10197     10200     10198     10197     10199     10198     10197     10200
     10199     10197     10200     10186     10201     10202     10186     10201     10203
     10186     10201     10207     10202     10201     10203     10202     10201     10207
     10203     10201     10207     10205     10204     10206     10205     10204     10207
     10205     10204     10208     10206     10204     10207     10206     10204     10208
     10207     10204     10208     10201     10207     10204     10204     10208     10209
     10208     10209     10210     10208     10209     10211     10208     10209     10212
     10210     10209     10211     10210     10209     10212     10211     10209     10212
     10209     10212     10213     10209     10212     10214     10209     10212     10220
     10213     10212     10214     10213     10212     10220     10214     10212     10220
     10212     10214     10215     10214     10215     10216     10214     10215     10217
     10216     10215     10217     10215     10217     10218     10215     10217     10219
     10215     10217     10229     10218     10217     10219     10218     10217     10229
     10219     10217     10229     10212     10220     10221     10212     10220     10222
     10212     10220     10223     10221     10220     10222     10221     10220     10223
     10222     10220     10223     10220     10223     10224     10223     10224     10225
     10223     10224     10226     10225     10224     10226     10224     10226     10227
     10224     10226     10228     10224     10226     10276     10227     10226     10228
     10227     10226     10276     10228     10226     10276     10217     10229     10230
     10217     10229     10231     10217     10229     10232     10230     10229     10231
     10230     10229     10232     10231     10229     10232     10229     10232     10233
     10229     10232     10234     10229     10232     10235     10233     10232     10234
     10233     10232     10235     10234     10232     10235     10232     10235     10236
     10232     10235     10237     10232     10235     10238     10236     10235     10237
     10236     10235     10238     10237     10235     10238     10235     10238     10239
     10235     10238     10240     10235     10238     10241     10239     10238     10240
     10239     10238     10241     10240     10238     10241     10238     10241     10242
     10238     10241     10243     10238     10241     10244     10242     10241     10243
     10242     10241     10244     10243     10241     10244     10241     10244     10245
     10241     10244     10246     10241     10244     10247     10245     10244     10246
     10245     10244     10247     10246     10244     10247     10244     10247     10248
     10244     10247     10249     10248     10247     10249     10247     10249     10250
     10247     10249     10251     10250     10249     10251     10249     10251     10252
     10249     10251     10253     10249     10251     10254     10252     10251     10253
     10252     10251     10254     10253     10251     10254     10251     10254     10255
     10251     10254     10256     10251     10254     10257     10255     10254     10256
     10255     10254     10257     10256     10254     10257     10254     10257     10258
     10254     10257     10259     10254     10257     10260     10258     10257     10259
     10258     10257     10260     10259     10257     10260     10257     10260     10261
     10257     10260     10262     10257     10260     10263     10261     10260     10262
     10261     10260     10263     10262     10260     10263     10260     10263     10264
     10260     10263     10265     10260     10263     10266     10264     10263     10265
     10264     10263     10266     10265     10263     10266     10263     10266     10267
     10263     10266     10268     10263     10266     10269     10267     10266     10268
     10267     10266     10269     10268     10266     10269     10266     10269     10270
     10266     10269     10271     10266     10269     10272     10270     10269     10271
     10270     10269     10272     10271     10269     10272     10269     10272     10273
     10269     10272     10274     10269     10272     10275     10273     10272     10274
     10273     10272     10275     10274     10272     10275     10226     10276     10277
     10226     10276     10278     10226     10276     10279     10277     10276     10278
     10277     10276     10279     10278     10276     10279     10276     10279     10280
     10276     10279     10281     10276     10279     10282     10280     10279     10281
     10280     10279     10282     10281     10279     10282     10279     10282     10283
     10279     10282     10284     10279     10282     10285     10283     10282     10284
     10283     10282     10285     10284     10282     10285     10282     10285     10286
     10282     10285     10287     10282     10285     10288     10286     10285     10287
     10286     10285     10288     10287     10285     10288     10285     10288     10289
     10285     10288     10290     10285     10288     10291     10289     10288     10290
     10289     10288     10291     10290     10288     10291     10288     10291     10292
     10288     10291     10293     10288     10291     10294     10292     10291     10293
     10292     10291     10294     10293     10291     10294     10291     10294     10295
     10291     10294     10296     10291     10294     10297     10295     10294     10296
     10295     10294     10297     10296     10294     10297     10294     10297     10298
     10294     10297     10299     10294     10297     10300     10298     10297     10299
     10298     10297     10300     10299     10297     10300     10297     10300     10301
     10297     10300     10302     10297     10300     10303     10301     10300     10302
     10301     10300     10303     10302     10300     10303     10300     10303     10304
     10300     10303     10305     10300     10303     10306     10304     10303     10305
     10304     10303     10306     10305     10303     10306     10303     10306     10307
     10303     10306     10308     10303     10306     10309     10307     10306     10308
     10307     10306     10309     10308     10306     10309     10306     10309     10310
     10306     10309     10311     10306     10309     10312     10310     10309     10311
     10310     10309     10312     10311     10309     10312     10309     10312     10313
     10309     10312     10314     10309     10312     10315     10313     10312     10314
     10313     10312     10315     10314     10312     10315     10312     10315     10316
     10312     10315     10317     10312     10315     10318     10316     10315     10317
     10316     10315     10318     10317     10315     10318     10320     10319     10323
     10320     10319     10327     10320     10319     10331     10323     10319     10327
     10323     10319     10331     10327     10319     10331     10319     10320     10321
     10319     10320     10322     10319     10320     10335     10321     10320     10322
     10321     10320     10335     10322     10320     10335     10319     10323     10324
     10319     10323     10325     10319     10323     10326     10324     10323     10325
     10324     10323     10326     10325     10323     10326     10319     10327     10328
     10319     10327     10329     10319     10327     10330     10328     10327     10329
     10328     10327     10330     10329     10327     10330     10319     10331     10332
     10319     10331     10333     10319     10331     10334     10332     10331     10333
     10332     10331     10334     10333     10331     10334     10320     10335     10336
     10320     10335     10337     10320     10335     10341     10336     10335     10337
     10336     10335     10341     10337     10335     10341     10339     10338     10340
     10339     10338     10341     10339     10338     10342     10340     10338     10341
     10340     10338     10342     10341     10338     10342     10335     10341     10338
     10338     10342     10343     10342     10343     10344     10342     10343     10345
     10342     10343     10346     10344     10343     10345     10344     10343     10346
     10345     10343     10346     10343     10346     10347     10343     10346     10348
     10343     10346     10354     10347     10346     10348     10347     10346     10354
     10348     10346     10354     10346     10348     10349     10348     10349     10350
     10348     10349     10351     10350     10349     10351     10349     10351     10352
     10349     10351     10353     10349     10351     10363     10352     10351     10353
     10352     10351     10363     10353     10351     10363     10346     10354     10355
     10346     10354     10356     10346     10354     10357     10355     10354     10356
     10355     10354     10357     10356     10354     10357     10354     10357     10358
     10357     10358     10359     10357     10358     10360     10359     10358     10360
     10358     10360     10361     10358     10360     10362     10358     10360     10410
     10361     10360     10362     10361     10360     10410     10362     10360     10410
     10351     10363     10364     10351     10363     10365     10351     10363     10366
     10364     10363     10365     10364     10363     10366     10365     10363     10366
     10363     10366     10367     10363     10366     10368     10363     10366     10369
     10367     10366     10368     10367     10366     10369     10368     10366     10369
     10366     10369     10370     10366     10369     10371     10366     10369     10372
     10370     10369     10371     10370     10369     10372     10371     10369     10372
     10369     10372     10373     10369     10372     10374     10369     10372     10375
     10373     10372     10374     10373     10372     10375     10374     10372     10375
     10372     10375     10376     10372     10375     10377     10372     10375     10378
     10376     10375     10377     10376     10375     10378     10377     10375     10378
     10375     10378     10379     10375     10378     10380     10375     10378     10381
     10379     10378     10380     10379     10378     10381     10380     10378     10381
     10378     10381     10382     10378     10381     10383     10382     10381     10383
     10381     10383     10384     10381     10383     10385     10384     10383     10385
     10383     10385     10386     10383     10385     10387     10383     10385     10388
     10386     10385     10387     10386     10385     10388     10387     10385     10388
     10385     10388     10389     10385     10388     10390     10385     10388     10391
     10389     10388     10390     10389     10388     10391     10390     10388     10391
     10388     10391     10392     10388     10391     10393     10388     10391     10394
     10392     10391     10393     10392     10391     10394     10393     10391     10394
     10391     10394     10395     10391     10394     10396     10391     10394     10397
     10395     10394     10396     10395     10394     10397     10396     10394     10397
     10394     10397     10398     10394     10397     10399     10394     10397     10400
     10398     10397     10399     10398     10397     10400     10399     10397     10400
     10397     10400     10401     10397     10400     10402     10397     10400     10403
     10401     10400     10402     10401     10400     10403     10402     10400     10403
     10400     10403     10404     10400     10403     10405     10400     10403     10406
     10404     10403     10405     10404     10403     10406     10405     10403     10406
     10403     10406     10407     10403     10406     10408     10403     10406     10409
     10407     10406     10408     10407     10406     10409     10408     10406     10409
     10360     10410     10411     10360     10410     10412     10360     10410     10413
     10411     10410     10412     10411     10410     10413     10412     10410     10413
     10410     10413     10414     10410     10413     10415     10410     10413     10416
     10414     10413     10415     10414     10413     10416     10415     10413     10416
     10413     10416     10417     10413     10416     10418     10413     10416     10419
     10417     10416     10418     10417     10416     10419     10418     10416     10419
     10416     10419     10420     10416     10419     10421     10416     10419     10422
     10420     10419     10421     10420     10419     10422     10421     10419     10422
     10419     10422     10423     10419     10422     10424     10419     10422     10425
     10423     10422     10424     10423     10422     10425     10424     10422     10425
     10422     10425     10426     10422     10425     10427     10422     10425     10428
     10426     10425     10427     10426     10425     10428     10427     10425     10428
     10425     10428     10429     10425     10428     10430     10425     10428     10431
     10429     10428     10430     10429     10428     10431     10430     10428     10431
     10428     10431     10432     10428     10431     10433     10428     10431     10434
     10432     10431     10433     10432     10431     10434     10433     10431     10434
     10431     10434     10435     10431     10434     10436     10431     10434     10437
     10435     10434     10436     10435     10434     10437     10436     10434     10437
     10434     10437     10438     10434     10437     10439     10434     10437     10440
     10438     10437     10439     10438     10437     10440     10439     10437     10440
     10437     10440     10441     10437     10440     10442     10437     10440     10443
     10441     10440     10442     10441     10440     10443     10442     10440     10443
     10440     10443     10444     10440     10443     10445     10440     10443     10446
     10444     10443     10445     10444     10443     10446     10445     10443     10446
     10443     10446     10447     10443     10446     10448     10443     10446     10449
     10447     10446     10448     10447     10446     10449     10448     10446     10449
     10446     10449     10450     10446     10449     10451     10446     10449     10452
     10450     10449     10451     10450     10449     10452     10451     10449     10452
     10454     10453     10457     10454     10453     10461     10454     10453     10465
     10457     10453     10461     10457     10453     10465     10461     10453     10465
     10453     10454     10455     10453     10454     10456     10453     10454     10469
     10455     10454     10456     10455     10454     10469     10456     10454     10469
     10453     10457     10458     10453     10457     10459     10453     10457     10460
     10458     10457     10459     10458     10457     10460     10459     10457     10460
     10453     10461     10462     10453     10461     10463     10453     10461     10464
     10462     10461     10463     10462     10461     10464     10463     10461     10464
     10453     10465     10466     10453     10465     10467     10453     10465     10468
     10466     10465     10467     10466     10465     10468     10467     10465     10468
     10454     10469     10470     10454     10469     10471     10454     10469     10475
     10470     10469     10471     10470     10469     10475     10471     10469     10475
     10473     10472     10474     10473     10472     10475     10473     10472     10476
     10474     10472     10475     10474     10472     10476     10475     10472     10476
     10469     10475     10472     10472     10476     10477     10476     10477     10478
     10476     10477     10479     10476     10477     10480     10478     10477     10479
     10478     10477     10480     10479     10477     10480     10477     10480     10481
     10477     10480     10482     10477     10480     10488     10481     10480     10482
     10481     10480     10488     10482     10480     10488     10480     10482     10483
     10482     10483     10484     10482     10483     10485     10484     10483     10485
     10483     10485     10486     10483     10485     10487     10483     10485     10497
     10486     10485     10487     10486     10485     10497     10487     10485     10497
     10480     10488     10489     10480     10488     10490     10480     10488     10491
     10489     10488     10490     10489     10488     10491     10490     10488     10491
     10488     10491     10492     10491     10492     10493     10491     10492     10494
     10493     10492     10494     10492     10494     10495     10492     10494     10496
     10492     10494     10544     10495     10494     10496     10495     10494     10544
     10496     10494     10544     10485     10497     10498     10485     10497     10499
     10485     10497     10500     10498     10497     10499     10498     10497     10500
     10499     10497     10500     10497     10500     10501     10497     10500     10502
     10497     10500     10503     10501     10500     10502     10501     10500     10503
     10502     10500     10503     10500     10503     10504     10500     10503     10505
     10500     10503     10506     10504     10503     10505     10504     10503     10506
     10505     10503     10506     10503     10506     10507     10503     10506     10508
     10503     10506     10509     10507     10506     10508     10507     10506     10509
     10508     10506     10509     10506     10509     10510     10506     10509     10511
     10506     10509     10512     10510     10509     10511     10510     10509     10512
     10511     10509     10512     10509     10512     10513     10509     10512     10514
     10509     10512     10515     10513     10512     10514     10513     10512     10515
     10514     10512     10515     10512     10515     10516     10512     10515     10517
     10516     10515     10517     10515     10517     10518     10515     10517     10519
     10518     10517     10519     10517     10519     10520     10517     10519     10521
     10517     10519     10522     10520     10519     10521     10520     10519     10522
     10521     10519     10522     10519     10522     10523     10519     10522     10524
     10519     10522     10525     10523     10522     10524     10523     10522     10525
     10524     10522     10525     10522     10525     10526     10522     10525     10527
     10522     10525     10528     10526     10525     10527     10526     10525     10528
     10527     10525     10528     10525     10528     10529     10525     10528     10530
     10525     10528     10531     10529     10528     10530     10529     10528     10531
     10530     10528     10531     10528     10531     10532     10528     10531     10533
     10528     10531     10534     10532     10531     10533     10532     10531     10534
     10533     10531     10534     10531     10534     10535     10531     10534     10536
     10531     10534     10537     10535     10534     10536     10535     10534     10537
     10536     10534     10537     10534     10537     10538     10534     10537     10539
     10534     10537     10540     10538     10537     10539     10538     10537     10540
     10539     10537     10540     10537     10540     10541     10537     10540     10542
     10537     10540     10543     10541     10540     10542     10541     10540     10543
     10542     10540     10543     10494     10544     10545     10494     10544     10546
     10494     10544     10547     10545     10544     10546     10545     10544     10547
     10546     10544     10547     10544     10547     10548     10544     10547     10549
     10544     10547     10550     10548     10547     10549     10548     10547     10550
     10549     10547     10550     10547     10550     10551     10547     10550     10552
     10547     10550     10553     10551     10550     10552     10551     10550     10553
     10552     10550     10553     10550     10553     10554     10550     10553     10555
     10550     10553     10556     10554     10553     10555     10554     10553     10556
     10555     10553     10556     10553     10556     10557     10553     10556     10558
     10553     10556     10559     10557     10556     10558     10557     10556     10559
     10558     10556     10559     10556     10559     10560     10556     10559     10561
     10556     10559     10562     10560     10559     10561     10560     10559     10562
     10561     10559     10562     10559     10562     10563     10559     10562     10564
     10559     10562     10565     10563     10562     10564     10563     10562     10565
     10564     10562     10565     10562     10565     10566     10562     10565     10567
     10562     10565     10568     10566     10565     10567     10566     10565     10568
     10567     10565     10568     10565     10568     10569     10565     10568     10570
     10565     10568     10571     10569     10568     10570     10569     10568     10571
     10570     10568     10571     10568     10571     10572     10568     10571     10573
     10568     10571     10574     10572     10571     10573     10572     10571     10574
     10573     10571     10574     10571     10574     10575     10571     10574     10576
     10571     10574     10577     10575     10574     10576     10575     10574     10577
     10576     10574     10577     10574     10577     10578     10574     10577     10579
     10574     10577     10580     10578     10577     10579     10578     10577     10580
     10579     10577     10580     10577     10580     10581     10577     10580     10582
     10577     10580     10583     10581     10580     10582     10581     10580     10583
     10582     10580     10583     10580     10583     10584     10580     10583     10585
     10580     10583     10586     10584     10583     10585     10584     10583     10586
     10585     10583     10586     10588     10587     10591     10588     10587     10595
     10588     10587     10599     10591     10587     10595     10591     10587     10599
     10595     10587     10599     10587     10588     10589     10587     10588     10590
     10587     10588     10603     10589     10588     10590     10589     10588     10603
     10590     10588     10603     10587     10591     10592     10587     10591     10593
     10587     10591     10594     10592     10591     10593     10592     10591     10594
     10593     10591     10594     10587     10595     10596     10587     10595     10597
     10587     10595     10598     10596     10595     10597     10596     10595     10598
     10597     10595     10598     10587     10599     10600     10587     10599     10601
     10587     10599     10602     10600     10599     10601     10600     10599     10602
     10601     10599     10602     10588     10603     10604     10588     10603     10605
     10588     10603     10609     10604     10603     10605     10604     10603     10609
     10605     10603     10609     10607     10606     10608     10607     10606     10609
     10607     10606     10610     10608     10606     10609     10608     10606     10610
     10609     10606     10610     10603     10609     10606     10606     10610     10611
     10610     10611     10612     10610     10611     10613     10610     10611     10614
     10612     10611     10613     10612     10611     10614     10613     10611     10614
     10611     10614     10615     10611     10614     10616     10611     10614     10622
     10615     10614     10616     10615     10614     10622     10616     10614     10622
     10614     10616     10617     10616     10617     10618     10616     10617     10619
     10618     10617     10619     10617     10619     10620     10617     10619     10621
     10617     10619     10631     10620     10619     10621     10620     10619     10631
     10621     10619     10631     10614     10622     10623     10614     10622     10624
     10614     10622     10625     10623     10622     10624     10623     10622     10625
     10624     10622     10625     10622     10625     10626     10625     10626     10627
     10625     10626     10628     10627     10626     10628     10626     10628     10629
     10626     10628     10630     10626     10628     10678     10629     10628     10630
     10629     10628     10678     10630     10628     10678     10619     10631     10632
     10619     10631     10633     10619     10631     10634     10632     10631     10633
     10632     10631     10634     10633     10631     10634     10631     10634     10635
     10631     10634     10636     10631     10634     10637     10635     10634     10636
     10635     10634     10637     10636     10634     10637     10634     10637     10638
     10634     10637     10639     10634     10637     10640     10638     10637     10639
     10638     10637     10640     10639     10637     10640     10637     10640     10641
     10637     10640     10642     10637     10640     10643     10641     10640     10642
     10641     10640     10643     10642     10640     10643     10640     10643     10644
     10640     10643     10645     10640     10643     10646     10644     10643     10645
     10644     10643     10646     10645     10643     10646     10643     10646     10647
     10643     10646     10648     10643     10646     10649     10647     10646     10648
     10647     10646     10649     10648     10646     10649     10646     10649     10650
     10646     10649     10651     10650     10649     10651     10649     10651     10652
     10649     10651     10653     10652     10651     10653     10651     10653     10654
     10651     10653     10655     10651     10653     10656     10654     10653     10655
     10654     10653     10656     10655     10653     10656     10653     10656     10657
     10653     10656     10658     10653     10656     10659     10657     10656     10658
     10657     10656     10659     10658     10656     10659     10656     10659     10660
     10656     10659     10661     10656     10659     10662     10660     10659     10661
     10660     10659     10662     10661     10659     10662     10659     10662     10663
     10659     10662     10664     10659     10662     10665     10663     10662     10664
     10663     10662     10665     10664     10662     10665     10662     10665     10666
     10662     10665     10667     10662     10665     10668     10666     10665     10667
     10666     10665     10668     10667     10665     10668     10665     10668     10669
     10665     10668     10670     10665     10668     10671     10669     10668     10670
     10669     10668     10671     10670     10668     10671     10668     10671     10672
     10668     10671     10673     10668     10671     10674     10672     10671     10673
     10672     10671     10674     10673     10671     10674     10671     10674     10675
     10671     10674     10676     10671     10674     10677     10675     10674     10676
     10675     10674     10677     10676     10674     10677     10628     10678     10679
     10628     10678     10680     10628     10678     10681     10679     10678     10680
     10679     10678     10681     10680     10678     10681     10678     10681     10682
     10678     10681     10683     10678     10681     10684     10682     10681     10683
     10682     10681     10684     10683     10681     10684     10681     10684     10685
     10681     10684     10686     10681     10684     10687     10685     10684     10686
     10685     10684     10687     10686     10684     10687     10684     10687     10688
     10684     10687     10689     10684     10687     10690     10688     10687     10689
     10688     10687     10690     10689     10687     10690     10687     10690     10691
     10687     10690     10692     10687     10690     10693     10691     10690     10692
     10691     10690     10693     10692     10690     10693     10690     10693     10694
     10690     10693     10695     10690     10693     10696     10694     10693     10695
     10694     10693     10696     10695     10693     10696     10693     10696     10697
     10693     10696     10698     10693     10696     10699     10697     10696     10698
     10697     10696     10699     10698     10696     10699     10696     10699     10700
     10696     10699     10701     10696     10699     10702     10700     10699     10701
     10700     10699     10702     10701     10699     10702     10699     10702     10703
     10699     10702     10704     10699     10702     10705     10703     10702     10704
     10703     10702     10705     10704     10702     10705     10702     10705     10706
     10702     10705     10707     10702     10705     10708     10706     10705     10707
     10706     10705     10708     10707     10705     10708     10705     10708     10709
     10705     10708     10710     10705     10708     10711     10709     10708     10710
     10709     10708     10711     10710     10708     10711     10708     10711     10712
     10708     10711     10713     10708     10711     10714     10712     10711     10713
     10712     10711     10714     10713     10711     10714     10711     10714     10715
     10711     10714     10716     10711     10714     10717     10715     10714     10716
     10715     10714     10717     10716     10714     10717     10714     10717     10718
     10714     10717     10719     10714     10717     10720     10718     10717     10719
     10718     10717     10720     10719     10717     10720     10722     10721     10725
     10722     10721     10729     10722     10721     10733     10725     10721     10729
     10725     10721     10733     10729     10721     10733     10721     10722     10723
     10721     10722     10724     10721     10722     10737     10723     10722     10724
     10723     10722     10737     10724     10722     10737     10721     10725     10726
     10721     10725     10727     10721     10725     10728     10726     10725     10727
     10726     10725     10728     10727     10725     10728     10721     10729     10730
     10721     10729     10731     10721     10729     10732     10730     10729     10731
     10730     10729     10732     10731     10729     10732     10721     10733     10734
     10721     10733     10735     10721     10733     10736     10734     10733     10735
     10734     10733     10736     10735     10733     10736     10722     10737     10738
     10722     10737     10739     10722     10737     10743     10738     10737     10739
     10738     10737     10743     10739     10737     10743     10741     10740     10742
     10741     10740     10743     10741     10740     10744     10742     10740     10743
     10742     10740     10744     10743     10740     10744     10737     10743     10740
     10740     10744     10745     10744     10745     10746     10744     10745     10747
     10744     10745     10748     10746     10745     10747     10746     10745     10748
     10747     10745     10748     10745     10748     10749     10745     10748     10750
     10745     10748     10756     10749     10748     10750     10749     10748     10756
     10750     10748     10756     10748     10750     10751     10750     10751     10752
     10750     10751     10753     10752     10751     10753     10751     10753     10754
     10751     10753     10755     10751     10753     10765     10754     10753     10755
     10754     10753     10765     10755     10753     10765     10748     10756     10757
     10748     10756     10758     10748     10756     10759     10757     10756     10758
     10757     10756     10759     10758     10756     10759     10756     10759     10760
     10759     10760     10761     10759     10760     10762     10761     10760     10762
     10760     10762     10763     10760     10762     10764     10760     10762     10812
     10763     10762     10764     10763     10762     10812     10764     10762     10812
     10753     10765     10766     10753     10765     10767     10753     10765     10768
     10766     10765     10767     10766     10765     10768     10767     10765     10768
     10765     10768     10769     10765     10768     10770     10765     10768     10771
     10769     10768     10770     10769     10768     10771     10770     10768     10771
     10768     10771     10772     10768     10771     10773     10768     10771     10774
     10772     10771     10773     10772     10771     10774     10773     10771     10774
     10771     10774     10775     10771     10774     10776     10771     10774     10777
     10775     10774     10776     10775     10774     10777     10776     10774     10777
     10774     10777     10778     10774     10777     10779     10774     10777     10780
     10778     10777     10779     10778     10777     10780     10779     10777     10780
     10777     10780     10781     10777     10780     10782     10777     10780     10783
     10781     10780     10782     10781     10780     10783     10782     10780     10783
     10780     10783     10784     10780     10783     10785     10784     10783     10785
     10783     10785     10786     10783     10785     10787     10786     10785     10787
     10785     10787     10788     10785     10787     10789     10785     10787     10790
     10788     10787     10789     10788     10787     10790     10789     10787     10790
     10787     10790     10791     10787     10790     10792     10787     10790     10793
     10791     10790     10792     10791     10790     10793     10792     10790     10793
     10790     10793     10794     10790     10793     10795     10790     10793     10796
     10794     10793     10795     10794     10793     10796     10795     10793     10796
     10793     10796     10797     10793     10796     10798     10793     10796     10799
     10797     10796     10798     10797     10796     10799     10798     10796     10799
     10796     10799     10800     10796     10799     10801     10796     10799     10802
     10800     10799     10801     10800     10799     10802     10801     10799     10802
     10799     10802     10803     10799     10802     10804     10799     10802     10805
     10803     10802     10804     10803     10802     10805     10804     10802     10805
     10802     10805     10806     10802     10805     10807     10802     10805     10808
     10806     10805     10807     10806     10805     10808     10807     10805     10808
     10805     10808     10809     10805     10808     10810     10805     10808     10811
     10809     10808     10810     10809     10808     10811     10810     10808     10811
     10762     10812     10813     10762     10812     10814     10762     10812     10815
     10813     10812     10814     10813     10812     10815     10814     10812     10815
     10812     10815     10816     10812     10815     10817     10812     10815     10818
     10816     10815     10817     10816     10815     10818     10817     10815     10818
     10815     10818     10819     10815     10818     10820     10815     10818     10821
     10819     10818     10820     10819     10818     10821     10820     10818     10821
     10818     10821     10822     10818     10821     10823     10818     10821     10824
     10822     10821     10823     10822     10821     10824     10823     10821     10824
     10821     10824     10825     10821     10824     10826     10821     10824     10827
     10825     10824     10826     10825     10824     10827     10826     10824     10827
     10824     10827     10828     10824     10827     10829     10824     10827     10830
     10828     10827     10829     10828     10827     10830     10829     10827     10830
     10827     10830     10831     10827     10830     10832     10827     10830     10833
     10831     10830     10832     10831     10830     10833     10832     10830     10833
     10830     10833     10834     10830     10833     10835     10830     10833     10836
     10834     10833     10835     10834     10833     10836     10835     10833     10836
     10833     10836     10837     10833     10836     10838     10833     10836     10839
     10837     10836     10838     10837     10836     10839     10838     10836     10839
     10836     10839     10840     10836     10839     10841     10836     10839     10842
     10840     10839     10841     10840     10839     10842     10841     10839     10842
     10839     10842     10843     10839     10842     10844     10839     10842     10845
     10843     10842     10844     10843     10842     10845     10844     10842     10845
     10842     10845     10846     10842     10845     10847     10842     10845     10848
     10846     10845     10847     10846     10845     10848     10847     10845     10848
     10845     10848     10849     10845     10848     10850     10845     10848     10851
     10849     10848     10850     10849     10848     10851     10850     10848     10851
     10848     10851     10852     10848     10851     10853     10848     10851     10854
     10852     10851     10853     10852     10851     10854     10853     10851     10854
     10856     10855     10859     10856     10855     10863     10856     10855     10867
     10859     10855     10863     10859     10855     10867     10863     10855     10867
     10855     10856     10857     10855     10856     10858     10855     10856     10871
     10857     10856     10858     10857     10856     10871     10858     10856     10871
     10855     10859     10860     10855     10859     10861     10855     10859     10862
     10860     10859     10861     10860     10859     10862     10861     10859     10862
     10855     10863     10864     10855     10863     10865     10855     10863     10866
     10864     10863     10865     10864     10863     10866     10865     10863     10866
     10855     10867     10868     10855     10867     10869     10855     10867     10870
     10868     10867     10869     10868     10867     10870     10869     10867     10870
     10856     10871     10872     10856     10871     10873     10856     10871     10877
     10872     10871     10873     10872     10871     10877     10873     10871     10877
     10875     10874     10876     10875     10874     10877     10875     10874     10878
     10876     10874     10877     10876     10874     10878     10877     10874     10878
     10871     10877     10874     10874     10878     10879     10878     10879     10880
     10878     10879     10881     10878     10879     10882     10880     10879     10881
     10880     10879     10882     10881     10879     10882     10879     10882     10883
     10879     10882     10884     10879     10882     10890     10883     10882     10884
     10883     10882     10890     10884     10882     10890     10882     10884     10885
     10884     10885     10886     10884     10885     10887     10886     10885     10887
     10885     10887     10888     10885     10887     10889     10885     10887     10899
     10888     10887     10889     10888     10887     10899     10889     10887     10899
     10882     10890     10891     10882     10890     10892     10882     10890     10893
     10891     10890     10892     10891     10890     10893     10892     10890     10893
     10890     10893     10894     10893     10894     10895     10893     10894     10896
     10895     10894     10896     10894     10896     10897     10894     10896     10898
     10894     10896     10946     10897     10896     10898     10897     10896     10946
     10898     10896     10946     10887     10899     10900     10887     10899     10901
     10887     10899     10902     10900     10899     10901     10900     10899     10902
     10901     10899     10902     10899     10902     10903     10899     10902     10904
     10899     10902     10905     10903     10902     10904     10903     10902     10905
     10904     10902     10905     10902     10905     10906     10902     10905     10907
     10902     10905     10908     10906     10905     10907     10906     10905     10908
     10907     10905     10908     10905     10908     10909     10905     10908     10910
     10905     10908     10911     10909     10908     10910     10909     10908     10911
     10910     10908     10911     10908     10911     10912     10908     10911     10913
     10908     10911     10914     10912     10911     10913     10912     10911     10914
     10913     10911     10914     10911     10914     10915     10911     10914     10916
     10911     10914     10917     10915     10914     10916     10915     10914     10917
     10916     10914     10917     10914     10917     10918     10914     10917     10919
     10918     10917     10919     10917     10919     10920     10917     10919     10921
     10920     10919     10921     10919     10921     10922     10919     10921     10923
     10919     10921     10924     10922     10921     10923     10922     10921     10924
     10923     10921     10924     10921     10924     10925     10921     10924     10926
     10921     10924     10927     10925     10924     10926     10925     10924     10927
     10926     10924     10927     10924     10927     10928     10924     10927     10929
     10924     10927     10930     10928     10927     10929     10928     10927     10930
     10929     10927     10930     10927     10930     10931     10927     10930     10932
     10927     10930     10933     10931     10930     10932     10931     10930     10933
     10932     10930     10933     10930     10933     10934     10930     10933     10935
     10930     10933     10936     10934     10933     10935     10934     10933     10936
     10935     10933     10936     10933     10936     10937     10933     10936     10938
     10933     10936     10939     10937     10936     10938     10937     10936     10939
     10938     10936     10939     10936     10939     10940     10936     10939     10941
     10936     10939     10942     10940     10939     10941     10940     10939     10942
     10941     10939     10942     10939     10942     10943     10939     10942     10944
     10939     10942     10945     10943     10942     10944     10943     10942     10945
     10944     10942     10945     10896     10946     10947     10896     10946     10948
     10896     10946     10949     10947     10946     10948     10947     10946     10949
     10948     10946     10949     10946     10949     10950     10946     10949     10951
     10946     10949     10952     10950     10949     10951     10950     10949     10952
     10951     10949     10952     10949     10952     10953     10949     10952     10954
     10949     10952     10955     10953     10952     10954     10953     10952     10955
     10954     10952     10955     10952     10955     10956     10952     10955     10957
     10952     10955     10958     10956     10955     10957     10956     10955     10958
     10957     10955     10958     10955     10958     10959     10955     10958     10960
     10955     10958     10961     10959     10958     10960     10959     10958     10961
     10960     10958     10961     10958     10961     10962     10958     10961     10963
     10958     10961     10964     10962     10961     10963     10962     10961     10964
     10963     10961     10964     10961     10964     10965     10961     10964     10966
     10961     10964     10967     10965     10964     10966     10965     10964     10967
     10966     10964     10967     10964     10967     10968     10964     10967     10969
     10964     10967     10970     10968     10967     10969     10968     10967     10970
     10969     10967     10970     10967     10970     10971     10967     10970     10972
     10967     10970     10973     10971     10970     10972     10971     10970     10973
     10972     10970     10973     10970     10973     10974     10970     10973     10975
     10970     10973     10976     10974     10973     10975     10974     10973     10976
     10975     10973     10976     10973     10976     10977     10973     10976     10978
     10973     10976     10979     10977     10976     10978     10977     10976     10979
     10978     10976     10979     10976     10979     10980     10976     10979     10981
     10976     10979     10982     10980     10979     10981     10980     10979     10982
     10981     10979     10982     10979     10982     10983     10979     10982     10984
     10979     10982     10985     10983     10982     10984     10983     10982     10985
     10984     10982     10985     10982     10985     10986     10982     10985     10987
     10982     10985     10988     10986     10985     10987     10986     10985     10988
     10987     10985     10988     10990     10989     10993     10990     10989     10997
     10990     10989     11001     10993     10989     10997     10993     10989     11001
     10997     10989     11001     10989     10990     10991     10989     10990     10992
     10989     10990     11005     10991     10990     10992     10991     10990     11005
     10992     10990     11005     10989     10993     10994     10989     10993     10995
     10989     10993     10996     10994     10993     10995     10994     10993     10996
     10995     10993     10996     10989     10997     10998     10989     10997     10999
     10989     10997     11000     10998     10997     10999     10998     10997     11000
     10999     10997     11000     10989     11001     11002     10989     11001     11003
     10989     11001     11004     11002     11001     11003     11002     11001     11004
     11003     11001     11004     10990     11005     11006     10990     11005     11007
     10990     11005     11011     11006     11005     11007     11006     11005     11011
     11007     11005     11011     11009     11008     11010     11009     11008     11011
     11009     11008     11012     11010     11008     11011     11010     11008     11012
     11011     11008     11012     11005     11011     11008     11008     11012     11013
     11012     11013     11014     11012     11013     11015     11012     11013     11016
     11014     11013     11015     11014     11013     11016     11015     11013     11016
     11013     11016     11017     11013     11016     11018     11013     11016     11024
     11017     11016     11018     11017     11016     11024     11018     11016     11024
     11016     11018     11019     11018     11019     11020     11018     11019     11021
     11020     11019     11021     11019     11021     11022     11019     11021     11023
     11019     11021     11033     11022     11021     11023     11022     11021     11033
     11023     11021     11033     11016     11024     11025     11016     11024     11026
     11016     11024     11027     11025     11024     11026     11025     11024     11027
     11026     11024     11027     11024     11027     11028     11027     11028     11029
     11027     11028     11030     11029     11028     11030     11028     11030     11031
     11028     11030     11032     11028     11030     11080     11031     11030     11032
     11031     11030     11080     11032     11030     11080     11021     11033     11034
     11021     11033     11035     11021     11033     11036     11034     11033     11035
     11034     11033     11036     11035     11033     11036     11033     11036     11037
     11033     11036     11038     11033     11036     11039     11037     11036     11038
     11037     11036     11039     11038     11036     11039     11036     11039     11040
     11036     11039     11041     11036     11039     11042     11040     11039     11041
     11040     11039     11042     11041     11039     11042     11039     11042     11043
     11039     11042     11044     11039     11042     11045     11043     11042     11044
     11043     11042     11045     11044     11042     11045     11042     11045     11046
     11042     11045     11047     11042     11045     11048     11046     11045     11047
     11046     11045     11048     11047     11045     11048     11045     11048     11049
     11045     11048     11050     11045     11048     11051     11049     11048     11050
     11049     11048     11051     11050     11048     11051     11048     11051     11052
     11048     11051     11053     11052     11051     11053     11051     11053     11054
     11051     11053     11055     11054     11053     11055     11053     11055     11056
     11053     11055     11057     11053     11055     11058     11056     11055     11057
     11056     11055     11058     11057     11055     11058     11055     11058     11059
     11055     11058     11060     11055     11058     11061     11059     11058     11060
     11059     11058     11061     11060     11058     11061     11058     11061     11062
     11058     11061     11063     11058     11061     11064     11062     11061     11063
     11062     11061     11064     11063     11061     11064     11061     11064     11065
     11061     11064     11066     11061     11064     11067     11065     11064     11066
     11065     11064     11067     11066     11064     11067     11064     11067     11068
     11064     11067     11069     11064     11067     11070     11068     11067     11069
     11068     11067     11070     11069     11067     11070     11067     11070     11071
     11067     11070     11072     11067     11070     11073     11071     11070     11072
     11071     11070     11073     11072     11070     11073     11070     11073     11074
     11070     11073     11075     11070     11073     11076     11074     11073     11075
     11074     11073     11076     11075     11073     11076     11073     11076     11077
     11073     11076     11078     11073     11076     11079     11077     11076     11078
     11077     11076     11079     11078     11076     11079     11030     11080     11081
     11030     11080     11082     11030     11080     11083     11081     11080     11082
     11081     11080     11083     11082     11080     11083     11080     11083     11084
     11080     11083     11085     11080     11083     11086     11084     11083     11085
     11084     11083     11086     11085     11083     11086     11083     11086     11087
     11083     11086     11088     11083     11086     11089     11087     11086     11088
     11087     11086     11089     11088     11086     11089     11086     11089     11090
     11086     11089     11091     11086     11089     11092     11090     11089     11091
     11090     11089     11092     11091     11089     11092     11089     11092     11093
     11089     11092     11094     11089     11092     11095     11093     11092     11094
     11093     11092     11095     11094     11092     11095     11092     11095     11096
     11092     11095     11097     11092     11095     11098     11096     11095     11097
     11096     11095     11098     11097     11095     11098     11095     11098     11099
     11095     11098     11100     11095     11098     11101     11099     11098     11100
     11099     11098     11101     11100     11098     11101     11098     11101     11102
     11098     11101     11103     11098     11101     11104     11102     11101     11103
     11102     11101     11104     11103     11101     11104     11101     11104     11105
     11101     11104     11106     11101     11104     11107     11105     11104     11106
     11105     11104     11107     11106     11104     11107     11104     11107     11108
     11104     11107     11109     11104     11107     11110     11108     11107     11109
     11108     11107     11110     11109     11107     11110     11107     11110     11111
     11107     11110     11112     11107     11110     11113     11111     11110     11112
     11111     11110     11113     11112     11110     11113     11110     11113     11114
     11110     11113     11115     11110     11113     11116     11114     11113     11115
     11114     11113     11116     11115     11113     11116     11113     11116     11117
     11113     11116     11118     11113     11116     11119     11117     11116     11118
     11117     11116     11119     11118     11116     11119     11116     11119     11120
     11116     11119     11121     11116     11119     11122     11120     11119     11121
     11120     11119     11122     11121     11119     11122     11124     11123     11127
     11124     11123     11131     11124     11123     11135     11127     11123     11131
     11127     11123     11135     11131     11123     11135     11123     11124     11125
     11123     11124     11126     11123     11124     11139     11125     11124     11126
     11125     11124     11139     11126     11124     11139     11123     11127     11128
     11123     11127     11129     11123     11127     11130     11128     11127     11129
     11128     11127     11130     11129     11127     11130     11123     11131     11132
     11123     11131     11133     11123     11131     11134     11132     11131     11133
     11132     11131     11134     11133     11131     11134     11123     11135     11136
     11123     11135     11137     11123     11135     11138     11136     11135     11137
     11136     11135     11138     11137     11135     11138     11124     11139     11140
     11124     11139     11141     11124     11139     11145     11140     11139     11141
     11140     11139     11145     11141     11139     11145     11143     11142     11144
     11143     11142     11145     11143     11142     11146     11144     11142     11145
     11144     11142     11146     11145     11142     11146     11139     11145     11142
     11142     11146     11147     11146     11147     11148     11146     11147     11149
     11146     11147     11150     11148     11147     11149     11148     11147     11150
     11149     11147     11150     11147     11150     11151     11147     11150     11152
     11147     11150     11158     11151     11150     11152     11151     11150     11158
     11152     11150     11158     11150     11152     11153     11152     11153     11154
     11152     11153     11155     11154     11153     11155     11153     11155     11156
     11153     11155     11157     11153     11155     11167     11156     11155     11157
     11156     11155     11167     11157     11155     11167     11150     11158     11159
     11150     11158     11160     11150     11158     11161     11159     11158     11160
     11159     11158     11161     11160     11158     11161     11158     11161     11162
     11161     11162     11163     11161     11162     11164     11163     11162     11164
     11162     11164     11165     11162     11164     11166     11162     11164     11214
     11165     11164     11166     11165     11164     11214     11166     11164     11214
     11155     11167     11168     11155     11167     11169     11155     11167     11170
     11168     11167     11169     11168     11167     11170     11169     11167     11170
     11167     11170     11171     11167     11170     11172     11167     11170     11173
     11171     11170     11172     11171     11170     11173     11172     11170     11173
     11170     11173     11174     11170     11173     11175     11170     11173     11176
     11174     11173     11175     11174     11173     11176     11175     11173     11176
     11173     11176     11177     11173     11176     11178     11173     11176     11179
     11177     11176     11178     11177     11176     11179     11178     11176     11179
     11176     11179     11180     11176     11179     11181     11176     11179     11182
     11180     11179     11181     11180     11179     11182     11181     11179     11182
     11179     11182     11183     11179     11182     11184     11179     11182     11185
     11183     11182     11184     11183     11182     11185     11184     11182     11185
     11182     11185     11186     11182     11185     11187     11186     11185     11187
     11185     11187     11188     11185     11187     11189     11188     11187     11189
     11187     11189     11190     11187     11189     11191     11187     11189     11192
     11190     11189     11191     11190     11189     11192     11191     11189     11192
     11189     11192     11193     11189     11192     11194     11189     11192     11195
     11193     11192     11194     11193     11192     11195     11194     11192     11195
     11192     11195     11196     11192     11195     11197     11192     11195     11198
     11196     11195     11197     11196     11195     11198     11197     11195     11198
     11195     11198     11199     11195     11198     11200     11195     11198     11201
     11199     11198     11200     11199     11198     11201     11200     11198     11201
     11198     11201     11202     11198     11201     11203     11198     11201     11204
     11202     11201     11203     11202     11201     11204     11203     11201     11204
     11201     11204     11205     11201     11204     11206     11201     11204     11207
     11205     11204     11206     11205     11204     11207     11206     11204     11207
     11204     11207     11208     11204     11207     11209     11204     11207     11210
     11208     11207     11209     11208     11207     11210     11209     11207     11210
     11207     11210     11211     11207     11210     11212     11207     11210     11213
     11211     11210     11212     11211     11210     11213     11212     11210     11213
     11164     11214     11215     11164     11214     11216     11164     11214     11217
     11215     11214     11216     11215     11214     11217     11216     11214     11217
     11214     11217     11218     11214     11217     11219     11214     11217     11220
     11218     11217     11219     11218     11217     11220     11219     11217     11220
     11217     11220     11221     11217     11220     11222     11217     11220     11223
     11221     11220     11222     11221     11220     11223     11222     11220     11223
     11220     11223     11224     11220     11223     11225     11220     11223     11226
     11224     11223     11225     11224     11223     11226     11225     11223     11226
     11223     11226     11227     11223     11226     11228     11223     11226     11229
     11227     11226     11228     11227     11226     11229     11228     11226     11229
     11226     11229     11230     11226     11229     11231     11226     11229     11232
     11230     11229     11231     11230     11229     11232     11231     11229     11232
     11229     11232     11233     11229     11232     11234     11229     11232     11235
     11233     11232     11234     11233     11232     11235     11234     11232     11235
     11232     11235     11236     11232     11235     11237     11232     11235     11238
     11236     11235     11237     11236     11235     11238     11237     11235     11238
     11235     11238     11239     11235     11238     11240     11235     11238     11241
     11239     11238     11240     11239     11238     11241     11240     11238     11241
     11238     11241     11242     11238     11241     11243     11238     11241     11244
     11242     11241     11243     11242     11241     11244     11243     11241     11244
     11241     11244     11245     11241     11244     11246     11241     11244     11247
     11245     11244     11246     11245     11244     11247     11246     11244     11247
     11244     11247     11248     11244     11247     11249     11244     11247     11250
     11248     11247     11249     11248     11247     11250     11249     11247     11250
     11247     11250     11251     11247     11250     11252     11247     11250     11253
     11251     11250     11252     11251     11250     11253     11252     11250     11253
     11250     11253     11254     11250     11253     11255     11250     11253     11256
     11254     11253     11255     11254     11253     11256     11255     11253     11256
     11258     11257     11261     11258     11257     11265     11258     11257     11269
     11261     11257     11265     11261     11257     11269     11265     11257     11269
     11257     11258     11259     11257     11258     11260     11257     11258     11273
     11259     11258     11260     11259     11258     11273     11260     11258     11273
     11257     11261     11262     11257     11261     11263     11257     11261     11264
     11262     11261     11263     11262     11261     11264     11263     11261     11264
     11257     11265     11266     11257     11265     11267     11257     11265     11268
     11266     11265     11267     11266     11265     11268     11267     11265     11268
     11257     11269     11270     11257     11269     11271     11257     11269     11272
     11270     11269     11271     11270     11269     11272     11271     11269     11272
     11258     11273     11274     11258     11273     11275     11258     11273     11279
     11274     11273     11275     11274     11273     11279     11275     11273     11279
     11277     11276     11278     11277     11276     11279     11277     11276     11280
     11278     11276     11279     11278     11276     11280     11279     11276     11280
     11273     11279     11276     11276     11280     11281     11280     11281     11282
     11280     11281     11283     11280     11281     11284     11282     11281     11283
     11282     11281     11284     11283     11281     11284     11281     11284     11285
     11281     11284     11286     11281     11284     11292     11285     11284     11286
     11285     11284     11292     11286     11284     11292     11284     11286     11287
     11286     11287     11288     11286     11287     11289     11288     11287     11289
     11287     11289     11290     11287     11289     11291     11287     11289     11301
     11290     11289     11291     11290     11289     11301     11291     11289     11301
     11284     11292     11293     11284     11292     11294     11284     11292     11295
     11293     11292     11294     11293     11292     11295     11294     11292     11295
     11292     11295     11296     11295     11296     11297     11295     11296     11298
     11297     11296     11298     11296     11298     11299     11296     11298     11300
     11296     11298     11348     11299     11298     11300     11299     11298     11348
     11300     11298     11348     11289     11301     11302     11289     11301     11303
     11289     11301     11304     11302     11301     11303     11302     11301     11304
     11303     11301     11304     11301     11304     11305     11301     11304     11306
     11301     11304     11307     11305     11304     11306     11305     11304     11307
     11306     11304     11307     11304     11307     11308     11304     11307     11309
     11304     11307     11310     11308     11307     11309     11308     11307     11310
     11309     11307     11310     11307     11310     11311     11307     11310     11312
     11307     11310     11313     11311     11310     11312     11311     11310     11313
     11312     11310     11313     11310     11313     11314     11310     11313     11315
     11310     11313     11316     11314     11313     11315     11314     11313     11316
     11315     11313     11316     11313     11316     11317     11313     11316     11318
     11313     11316     11319     11317     11316     11318     11317     11316     11319
     11318     11316     11319     11316     11319     11320     11316     11319     11321
     11320     11319     11321     11319     11321     11322     11319     11321     11323
     11322     11321     11323     11321     11323     11324     11321     11323     11325
     11321     11323     11326     11324     11323     11325     11324     11323     11326
     11325     11323     11326     11323     11326     11327     11323     11326     11328
     11323     11326     11329     11327     11326     11328     11327     11326     11329
     11328     11326     11329     11326     11329     11330     11326     11329     11331
     11326     11329     11332     11330     11329     11331     11330     11329     11332
     11331     11329     11332     11329     11332     11333     11329     11332     11334
     11329     11332     11335     11333     11332     11334     11333     11332     11335
     11334     11332     11335     11332     11335     11336     11332     11335     11337
     11332     11335     11338     11336     11335     11337     11336     11335     11338
     11337     11335     11338     11335     11338     11339     11335     11338     11340
     11335     11338     11341     11339     11338     11340     11339     11338     11341
     11340     11338     11341     11338     11341     11342     11338     11341     11343
     11338     11341     11344     11342     11341     11343     11342     11341     11344
     11343     11341     11344     11341     11344     11345     11341     11344     11346
     11341     11344     11347     11345     11344     11346     11345     11344     11347
     11346     11344     11347     11298     11348     11349     11298     11348     11350
     11298     11348     11351     11349     11348     11350     11349     11348     11351
     11350     11348     11351     11348     11351     11352     11348     11351     11353
     11348     11351     11354     11352     11351     11353     11352     11351     11354
     11353     11351     11354     11351     11354     11355     11351     11354     11356
     11351     11354     11357     11355     11354     11356     11355     11354     11357
     11356     11354     11357     11354     11357     11358     11354     11357     11359
     11354     11357     11360     11358     11357     11359     11358     11357     11360
     11359     11357     11360     11357     11360     11361     11357     11360     11362
     11357     11360     11363     11361     11360     11362     11361     11360     11363
     11362     11360     11363     11360     11363     11364     11360     11363     11365
     11360     11363     11366     11364     11363     11365     11364     11363     11366
     11365     11363     11366     11363     11366     11367     11363     11366     11368
     11363     11366     11369     11367     11366     11368     11367     11366     11369
     11368     11366     11369     11366     11369     11370     11366     11369     11371
     11366     11369     11372     11370     11369     11371     11370     11369     11372
     11371     11369     11372     11369     11372     11373     11369     11372     11374
     11369     11372     11375     11373     11372     11374     11373     11372     11375
     11374     11372     11375     11372     11375     11376     11372     11375     11377
     11372     11375     11378     11376     11375     11377     11376     11375     11378
     11377     11375     11378     11375     11378     11379     11375     11378     11380
     11375     11378     11381     11379     11378     11380     11379     11378     11381
     11380     11378     11381     11378     11381     11382     11378     11381     11383
     11378     11381     11384     11382     11381     11383     11382     11381     11384
     11383     11381     11384     11381     11384     11385     11381     11384     11386
     11381     11384     11387     11385     11384     11386     11385     11384     11387
     11386     11384     11387     11384     11387     11388     11384     11387     11389
     11384     11387     11390     11388     11387     11389     11388     11387     11390
     11389     11387     11390     11392     11391     11395     11392     11391     11399
     11392     11391     11403     11395     11391     11399     11395     11391     11403
     11399     11391     11403     11391     11392     11393     11391     11392     11394
     11391     11392     11407     11393     11392     11394     11393     11392     11407
     11394     11392     11407     11391     11395     11396     11391     11395     11397
     11391     11395     11398     11396     11395     11397     11396     11395     11398
     11397     11395     11398     11391     11399     11400     11391     11399     11401
     11391     11399     11402     11400     11399     11401     11400     11399     11402
     11401     11399     11402     11391     11403     11404     11391     11403     11405
     11391     11403     11406     11404     11403     11405     11404     11403     11406
     11405     11403     11406     11392     11407     11408     11392     11407     11409
     11392     11407     11413     11408     11407     11409     11408     11407     11413
     11409     11407     11413     11411     11410     11412     11411     11410     11413
     11411     11410     11414     11412     11410     11413     11412     11410     11414
     11413     11410     11414     11407     11413     11410     11410     11414     11415
     11414     11415     11416     11414     11415     11417     11414     11415     11418
     11416     11415     11417     11416     11415     11418     11417     11415     11418
     11415     11418     11419     11415     11418     11420     11415     11418     11426
     11419     11418     11420     11419     11418     11426     11420     11418     11426
     11418     11420     11421     11420     11421     11422     11420     11421     11423
     11422     11421     11423     11421     11423     11424     11421     11423     11425
     11421     11423     11435     11424     11423     11425     11424     11423     11435
     11425     11423     11435     11418     11426     11427     11418     11426     11428
     11418     11426     11429     11427     11426     11428     11427     11426     11429
     11428     11426     11429     11426     11429     11430     11429     11430     11431
     11429     11430     11432     11431     11430     11432     11430     11432     11433
     11430     11432     11434     11430     11432     11482     11433     11432     11434
     11433     11432     11482     11434     11432     11482     11423     11435     11436
     11423     11435     11437     11423     11435     11438     11436     11435     11437
     11436     11435     11438     11437     11435     11438     11435     11438     11439
     11435     11438     11440     11435     11438     11441     11439     11438     11440
     11439     11438     11441     11440     11438     11441     11438     11441     11442
     11438     11441     11443     11438     11441     11444     11442     11441     11443
     11442     11441     11444     11443     11441     11444     11441     11444     11445
     11441     11444     11446     11441     11444     11447     11445     11444     11446
     11445     11444     11447     11446     11444     11447     11444     11447     11448
     11444     11447     11449     11444     11447     11450     11448     11447     11449
     11448     11447     11450     11449     11447     11450     11447     11450     11451
     11447     11450     11452     11447     11450     11453     11451     11450     11452
     11451     11450     11453     11452     11450     11453     11450     11453     11454
     11450     11453     11455     11454     11453     11455     11453     11455     11456
     11453     11455     11457     11456     11455     11457     11455     11457     11458
     11455     11457     11459     11455     11457     11460     11458     11457     11459
     11458     11457     11460     11459     11457     11460     11457     11460     11461
     11457     11460     11462     11457     11460     11463     11461     11460     11462
     11461     11460     11463     11462     11460     11463     11460     11463     11464
     11460     11463     11465     11460     11463     11466     11464     11463     11465
     11464     11463     11466     11465     11463     11466     11463     11466     11467
     11463     11466     11468     11463     11466     11469     11467     11466     11468
     11467     11466     11469     11468     11466     11469     11466     11469     11470
     11466     11469     11471     11466     11469     11472     11470     11469     11471
     11470     11469     11472     11471     11469     11472     11469     11472     11473
     11469     11472     11474     11469     11472     11475     11473     11472     11474
     11473     11472     11475     11474     11472     11475     11472     11475     11476
     11472     11475     11477     11472     11475     11478     11476     11475     11477
     11476     11475     11478     11477     11475     11478     11475     11478     11479
     11475     11478     11480     11475     11478     11481     11479     11478     11480
     11479     11478     11481     11480     11478     11481     11432     11482     11483
     11432     11482     11484     11432     11482     11485     11483     11482     11484
     11483     11482     11485     11484     11482     11485     11482     11485     11486
     11482     11485     11487     11482     11485     11488     11486     11485     11487
     11486     11485     11488     11487     11485     11488     11485     11488     11489
     11485     11488     11490     11485     11488     11491     11489     11488     11490
     11489     11488     11491     11490     11488     11491     11488     11491     11492
     11488     11491     11493     11488     11491     11494     11492     11491     11493
     11492     11491     11494     11493     11491     11494     11491     11494     11495
     11491     11494     11496     11491     11494     11497     11495     11494     11496
     11495     11494     11497     11496     11494     11497     11494     11497     11498
     11494     11497     11499     11494     11497     11500     11498     11497     11499
     11498     11497     11500     11499     11497     11500     11497     11500     11501
     11497     11500     11502     11497     11500     11503     11501     11500     11502
     11501     11500     11503     11502     11500     11503     11500     11503     11504
     11500     11503     11505     11500     11503     11506     11504     11503     11505
     11504     11503     11506     11505     11503     11506     11503     11506     11507
     11503     11506     11508     11503     11506     11509     11507     11506     11508
     11507     11506     11509     11508     11506     11509     11506     11509     11510
     11506     11509     11511     11506     11509     11512     11510     11509     11511
     11510     11509     11512     11511     11509     11512     11509     11512     11513
     11509     11512     11514     11509     11512     11515     11513     11512     11514
     11513     11512     11515     11514     11512     11515     11512     11515     11516
     11512     11515     11517     11512     11515     11518     11516     11515     11517
     11516     11515     11518     11517     11515     11518     11515     11518     11519
     11515     11518     11520     11515     11518     11521     11519     11518     11520
     11519     11518     11521     11520     11518     11521     11518     11521     11522
     11518     11521     11523     11518     11521     11524     11522     11521     11523
     11522     11521     11524     11523     11521     11524     11526     11525     11529
     11526     11525     11533     11526     11525     11537     11529     11525     11533
     11529     11525     11537     11533     11525     11537     11525     11526     11527
     11525     11526     11528     11525     11526     11541     11527     11526     11528
     11527     11526     11541     11528     11526     11541     11525     11529     11530
     11525     11529     11531     11525     11529     11532     11530     11529     11531
     11530     11529     11532     11531     11529     11532     11525     11533     11534
     11525     11533     11535     11525     11533     11536     11534     11533     11535
     11534     11533     11536     11535     11533     11536     11525     11537     11538
     11525     11537     11539     11525     11537     11540     11538     11537     11539
     11538     11537     11540     11539     11537     11540     11526     11541     11542
     11526     11541     11543     11526     11541     11547     11542     11541     11543
     11542     11541     11547     11543     11541     11547     11545     11544     11546
     11545     11544     11547     11545     11544     11548     11546     11544     11547
     11546     11544     11548     11547     11544     11548     11541     11547     11544
     11544     11548     11549     11548     11549     11550     11548     11549     11551
     11548     11549     11552     11550     11549     11551     11550     11549     11552
     11551     11549     11552     11549     11552     11553     11549     11552     11554
     11549     11552     11560     11553     11552     11554     11553     11552     11560
     11554     11552     11560     11552     11554     11555     11554     11555     11556
     11554     11555     11557     11556     11555     11557     11555     11557     11558
     11555     11557     11559     11555     11557     11569     11558     11557     11559
     11558     11557     11569     11559     11557     11569     11552     11560     11561
     11552     11560     11562     11552     11560     11563     11561     11560     11562
     11561     11560     11563     11562     11560     11563     11560     11563     11564
     11563     11564     11565     11563     11564     11566     11565     11564     11566
     11564     11566     11567     11564     11566     11568     11564     11566     11616
     11567     11566     11568     11567     11566     11616     11568     11566     11616
     11557     11569     11570     11557     11569     11571     11557     11569     11572
     11570     11569     11571     11570     11569     11572     11571     11569     11572
     11569     11572     11573     11569     11572     11574     11569     11572     11575
     11573     11572     11574     11573     11572     11575     11574     11572     11575
     11572     11575     11576     11572     11575     11577     11572     11575     11578
     11576     11575     11577     11576     11575     11578     11577     11575     11578
     11575     11578     11579     11575     11578     11580     11575     11578     11581
     11579     11578     11580     11579     11578     11581     11580     11578     11581
     11578     11581     11582     11578     11581     11583     11578     11581     11584
     11582     11581     11583     11582     11581     11584     11583     11581     11584
     11581     11584     11585     11581     11584     11586     11581     11584     11587
     11585     11584     11586     11585     11584     11587     11586     11584     11587
     11584     11587     11588     11584     11587     11589     11588     11587     11589
     11587     11589     11590     11587     11589     11591     11590     11589     11591
     11589     11591     11592     11589     11591     11593     11589     11591     11594
     11592     11591     11593     11592     11591     11594     11593     11591     11594
     11591     11594     11595     11591     11594     11596     11591     11594     11597
     11595     11594     11596     11595     11594     11597     11596     11594     11597
     11594     11597     11598     11594     11597     11599     11594     11597     11600
     11598     11597     11599     11598     11597     11600     11599     11597     11600
     11597     11600     11601     11597     11600     11602     11597     11600     11603
     11601     11600     11602     11601     11600     11603     11602     11600     11603
     11600     11603     11604     11600     11603     11605     11600     11603     11606
     11604     11603     11605     11604     11603     11606     11605     11603     11606
     11603     11606     11607     11603     11606     11608     11603     11606     11609
     11607     11606     11608     11607     11606     11609     11608     11606     11609
     11606     11609     11610     11606     11609     11611     11606     11609     11612
     11610     11609     11611     11610     11609     11612     11611     11609     11612
     11609     11612     11613     11609     11612     11614     11609     11612     11615
     11613     11612     11614     11613     11612     11615     11614     11612     11615
     11566     11616     11617     11566     11616     11618     11566     11616     11619
     11617     11616     11618     11617     11616     11619     11618     11616     11619
     11616     11619     11620     11616     11619     11621     11616     11619     11622
     11620     11619     11621     11620     11619     11622     11621     11619     11622
     11619     11622     11623     11619     11622     11624     11619     11622     11625
     11623     11622     11624     11623     11622     11625     11624     11622     11625
     11622     11625     11626     11622     11625     11627     11622     11625     11628
     11626     11625     11627     11626     11625     11628     11627     11625     11628
     11625     11628     11629     11625     11628     11630     11625     11628     11631
     11629     11628     11630     11629     11628     11631     11630     11628     11631
     11628     11631     11632     11628     11631     11633     11628     11631     11634
     11632     11631     11633     11632     11631     11634     11633     11631     11634
     11631     11634     11635     11631     11634     11636     11631     11634     11637
     11635     11634     11636     11635     11634     11637     11636     11634     11637
     11634     11637     11638     11634     11637     11639     11634     11637     11640
     11638     11637     11639     11638     11637     11640     11639     11637     11640
     11637     11640     11641     11637     11640     11642     11637     11640     11643
     11641     11640     11642     11641     11640     11643     11642     11640     11643
     11640     11643     11644     11640     11643     11645     11640     11643     11646
     11644     11643     11645     11644     11643     11646     11645     11643     11646
     11643     11646     11647     11643     11646     11648     11643     11646     11649
     11647     11646     11648     11647     11646     11649     11648     11646     11649
     11646     11649     11650     11646     11649     11651     11646     11649     11652
     11650     11649     11651     11650     11649     11652     11651     11649     11652
     11649     11652     11653     11649     11652     11654     11649     11652     11655
     11653     11652     11654     11653     11652     11655     11654     11652     11655
     11652     11655     11656     11652     11655     11657     11652     11655     11658
     11656     11655     11657     11656     11655     11658     11657     11655     11658
     11660     11659     11663     11660     11659     11667     11660     11659     11671
     11663     11659     11667     11663     11659     11671     11667     11659     11671
     11659     11660     11661     11659     11660     11662     11659     11660     11675
     11661     11660     11662     11661     11660     11675     11662     11660     11675
     11659     11663     11664     11659     11663     11665     11659     11663     11666
     11664     11663     11665     11664     11663     11666     11665     11663     11666
     11659     11667     11668     11659     11667     11669     11659     11667     11670
     11668     11667     11669     11668     11667     11670     11669     11667     11670
     11659     11671     11672     11659     11671     11673     11659     11671     11674
     11672     11671     11673     11672     11671     11674     11673     11671     11674
     11660     11675     11676     11660     11675     11677     11660     11675     11681
     11676     11675     11677     11676     11675     11681     11677     11675     11681
     11679     11678     11680     11679     11678     11681     11679     11678     11682
     11680     11678     11681     11680     11678     11682     11681     11678     11682
     11675     11681     11678     11678     11682     11683     11682     11683     11684
     11682     11683     11685     11682     11683     11686     11684     11683     11685
     11684     11683     11686     11685     11683     11686     11683     11686     11687
     11683     11686     11688     11683     11686     11694     11687     11686     11688
     11687     11686     11694     11688     11686     11694     11686     11688     11689
     11688     11689     11690     11688     11689     11691     11690     11689     11691
     11689     11691     11692     11689     11691     11693     11689     11691     11703
     11692     11691     11693     11692     11691     11703     11693     11691     11703
     11686     11694     11695     11686     11694     11696     11686     11694     11697
     11695     11694     11696     11695     11694     11697     11696     11694     11697
     11694     11697     11698     11697     11698     11699     11697     11698     11700
     11699     11698     11700     11698     11700     11701     11698     11700     11702
     11698     11700     11750     11701     11700     11702     11701     11700     11750
     11702     11700     11750     11691     11703     11704     11691     11703     11705
     11691     11703     11706     11704     11703     11705     11704     11703     11706
     11705     11703     11706     11703     11706     11707     11703     11706     11708
     11703     11706     11709     11707     11706     11708     11707     11706     11709
     11708     11706     11709     11706     11709     11710     11706     11709     11711
     11706     11709     11712     11710     11709     11711     11710     11709     11712
     11711     11709     11712     11709     11712     11713     11709     11712     11714
     11709     11712     11715     11713     11712     11714     11713     11712     11715
     11714     11712     11715     11712     11715     11716     11712     11715     11717
     11712     11715     11718     11716     11715     11717     11716     11715     11718
     11717     11715     11718     11715     11718     11719     11715     11718     11720
     11715     11718     11721     11719     11718     11720     11719     11718     11721
     11720     11718     11721     11718     11721     11722     11718     11721     11723
     11722     11721     11723     11721     11723     11724     11721     11723     11725
     11724     11723     11725     11723     11725     11726     11723     11725     11727
     11723     11725     11728     11726     11725     11727     11726     11725     11728
     11727     11725     11728     11725     11728     11729     11725     11728     11730
     11725     11728     11731     11729     11728     11730     11729     11728     11731
     11730     11728     11731     11728     11731     11732     11728     11731     11733
     11728     11731     11734     11732     11731     11733     11732     11731     11734
     11733     11731     11734     11731     11734     11735     11731     11734     11736
     11731     11734     11737     11735     11734     11736     11735     11734     11737
     11736     11734     11737     11734     11737     11738     11734     11737     11739
     11734     11737     11740     11738     11737     11739     11738     11737     11740
     11739     11737     11740     11737     11740     11741     11737     11740     11742
     11737     11740     11743     11741     11740     11742     11741     11740     11743
     11742     11740     11743     11740     11743     11744     11740     11743     11745
     11740     11743     11746     11744     11743     11745     11744     11743     11746
     11745     11743     11746     11743     11746     11747     11743     11746     11748
     11743     11746     11749     11747     11746     11748     11747     11746     11749
     11748     11746     11749     11700     11750     11751     11700     11750     11752
     11700     11750     11753     11751     11750     11752     11751     11750     11753
     11752     11750     11753     11750     11753     11754     11750     11753     11755
     11750     11753     11756     11754     11753     11755     11754     11753     11756
     11755     11753     11756     11753     11756     11757     11753     11756     11758
     11753     11756     11759     11757     11756     11758     11757     11756     11759
     11758     11756     11759     11756     11759     11760     11756     11759     11761
     11756     11759     11762     11760     11759     11761     11760     11759     11762
     11761     11759     11762     11759     11762     11763     11759     11762     11764
     11759     11762     11765     11763     11762     11764     11763     11762     11765
     11764     11762     11765     11762     11765     11766     11762     11765     11767
     11762     11765     11768     11766     11765     11767     11766     11765     11768
     11767     11765     11768     11765     11768     11769     11765     11768     11770
     11765     11768     11771     11769     11768     11770     11769     11768     11771
     11770     11768     11771     11768     11771     11772     11768     11771     11773
     11768     11771     11774     11772     11771     11773     11772     11771     11774
     11773     11771     11774     11771     11774     11775     11771     11774     11776
     11771     11774     11777     11775     11774     11776     11775     11774     11777
     11776     11774     11777     11774     11777     11778     11774     11777     11779
     11774     11777     11780     11778     11777     11779     11778     11777     11780
     11779     11777     11780     11777     11780     11781     11777     11780     11782
     11777     11780     11783     11781     11780     11782     11781     11780     11783
     11782     11780     11783     11780     11783     11784     11780     11783     11785
     11780     11783     11786     11784     11783     11785     11784     11783     11786
     11785     11783     11786     11783     11786     11787     11783     11786     11788
     11783     11786     11789     11787     11786     11788     11787     11786     11789
     11788     11786     11789     11786     11789     11790     11786     11789     11791
     11786     11789     11792     11790     11789     11791     11790     11789     11792
     11791     11789     11792     11794     11793     11797     11794     11793     11801
     11794     11793     11805     11797     11793     11801     11797     11793     11805
     11801     11793     11805     11793     11794     11795     11793     11794     11796
     11793     11794     11809     11795     11794     11796     11795     11794     11809
     11796     11794     11809     11793     11797     11798     11793     11797     11799
     11793     11797     11800     11798     11797     11799     11798     11797     11800
     11799     11797     11800     11793     11801     11802     11793     11801     11803
     11793     11801     11804     11802     11801     11803     11802     11801     11804
     11803     11801     11804     11793     11805     11806     11793     11805     11807
     11793     11805     11808     11806     11805     11807     11806     11805     11808
     11807     11805     11808     11794     11809     11810     11794     11809     11811
     11794     11809     11815     11810     11809     11811     11810     11809     11815
     11811     11809     11815     11813     11812     11814     11813     11812     11815
     11813     11812     11816     11814     11812     11815     11814     11812     11816
     11815     11812     11816     11809     11815     11812     11812     11816     11817
     11816     11817     11818     11816     11817     11819     11816     11817     11820
     11818     11817     11819     11818     11817     11820     11819     11817     11820
     11817     11820     11821     11817     11820     11822     11817     11820     11828
     11821     11820     11822     11821     11820     11828     11822     11820     11828
     11820     11822     11823     11822     11823     11824     11822     11823     11825
     11824     11823     11825     11823     11825     11826     11823     11825     11827
     11823     11825     11837     11826     11825     11827     11826     11825     11837
     11827     11825     11837     11820     11828     11829     11820     11828     11830
     11820     11828     11831     11829     11828     11830     11829     11828     11831
     11830     11828     11831     11828     11831     11832     11831     11832     11833
     11831     11832     11834     11833     11832     11834     11832     11834     11835
     11832     11834     11836     11832     11834     11884     11835     11834     11836
     11835     11834     11884     11836     11834     11884     11825     11837     11838
     11825     11837     11839     11825     11837     11840     11838     11837     11839
     11838     11837     11840     11839     11837     11840     11837     11840     11841
     11837     11840     11842     11837     11840     11843     11841     11840     11842
     11841     11840     11843     11842     11840     11843     11840     11843     11844
     11840     11843     11845     11840     11843     11846     11844     11843     11845
     11844     11843     11846     11845     11843     11846     11843     11846     11847
     11843     11846     11848     11843     11846     11849     11847     11846     11848
     11847     11846     11849     11848     11846     11849     11846     11849     11850
     11846     11849     11851     11846     11849     11852     11850     11849     11851
     11850     11849     11852     11851     11849     11852     11849     11852     11853
     11849     11852     11854     11849     11852     11855     11853     11852     11854
     11853     11852     11855     11854     11852     11855     11852     11855     11856
     11852     11855     11857     11856     11855     11857     11855     11857     11858
     11855     11857     11859     11858     11857     11859     11857     11859     11860
     11857     11859     11861     11857     11859     11862     11860     11859     11861
     11860     11859     11862     11861     11859     11862     11859     11862     11863
     11859     11862     11864     11859     11862     11865     11863     11862     11864
     11863     11862     11865     11864     11862     11865     11862     11865     11866
     11862     11865     11867     11862     11865     11868     11866     11865     11867
     11866     11865     11868     11867     11865     11868     11865     11868     11869
     11865     11868     11870     11865     11868     11871     11869     11868     11870
     11869     11868     11871     11870     11868     11871     11868     11871     11872
     11868     11871     11873     11868     11871     11874     11872     11871     11873
     11872     11871     11874     11873     11871     11874     11871     11874     11875
     11871     11874     11876     11871     11874     11877     11875     11874     11876
     11875     11874     11877     11876     11874     11877     11874     11877     11878
     11874     11877     11879     11874     11877     11880     11878     11877     11879
     11878     11877     11880     11879     11877     11880     11877     11880     11881
     11877     11880     11882     11877     11880     11883     11881     11880     11882
     11881     11880     11883     11882     11880     11883     11834     11884     11885
     11834     11884     11886     11834     11884     11887     11885     11884     11886
     11885     11884     11887     11886     11884     11887     11884     11887     11888
     11884     11887     11889     11884     11887     11890     11888     11887     11889
     11888     11887     11890     11889     11887     11890     11887     11890     11891
     11887     11890     11892     11887     11890     11893     11891     11890     11892
     11891     11890     11893     11892     11890     11893     11890     11893     11894
     11890     11893     11895     11890     11893     11896     11894     11893     11895
     11894     11893     11896     11895     11893     11896     11893     11896     11897
     11893     11896     11898     11893     11896     11899     11897     11896     11898
     11897     11896     11899     11898     11896     11899     11896     11899     11900
     11896     11899     11901     11896     11899     11902     11900     11899     11901
     11900     11899     11902     11901     11899     11902     11899     11902     11903
     11899     11902     11904     11899     11902     11905     11903     11902     11904
     11903     11902     11905     11904     11902     11905     11902     11905     11906
     11902     11905     11907     11902     11905     11908     11906     11905     11907
     11906     11905     11908     11907     11905     11908     11905     11908     11909
     11905     11908     11910     11905     11908     11911     11909     11908     11910
     11909     11908     11911     11910     11908     11911     11908     11911     11912
     11908     11911     11913     11908     11911     11914     11912     11911     11913
     11912     11911     11914     11913     11911     11914     11911     11914     11915
     11911     11914     11916     11911     11914     11917     11915     11914     11916
     11915     11914     11917     11916     11914     11917     11914     11917     11918
     11914     11917     11919     11914     11917     11920     11918     11917     11919
     11918     11917     11920     11919     11917     11920     11917     11920     11921
     11917     11920     11922     11917     11920     11923     11921     11920     11922
     11921     11920     11923     11922     11920     11923     11920     11923     11924
     11920     11923     11925     11920     11923     11926     11924     11923     11925
     11924     11923     11926     11925     11923     11926     11928     11927     11931
     11928     11927     11935     11928     11927     11939     11931     11927     11935
     11931     11927     11939     11935     11927     11939     11927     11928     11929
     11927     11928     11930     11927     11928     11943     11929     11928     11930
     11929     11928     11943     11930     11928     11943     11927     11931     11932
     11927     11931     11933     11927     11931     11934     11932     11931     11933
     11932     11931     11934     11933     11931     11934     11927     11935     11936
     11927     11935     11937     11927     11935     11938     11936     11935     11937
     11936     11935     11938     11937     11935     11938     11927     11939     11940
     11927     11939     11941     11927     11939     11942     11940     11939     11941
     11940     11939     11942     11941     11939     11942     11928     11943     11944
     11928     11943     11945     11928     11943     11949     11944     11943     11945
     11944     11943     11949     11945     11943     11949     11947     11946     11948
     11947     11946     11949     11947     11946     11950     11948     11946     11949
     11948     11946     11950     11949     11946     11950     11943     11949     11946
     11946     11950     11951     11950     11951     11952     11950     11951     11953
     11950     11951     11954     11952     11951     11953     11952     11951     11954
     11953     11951     11954     11951     11954     11955     11951     11954     11956
     11951     11954     11962     11955     11954     11956     11955     11954     11962
     11956     11954     11962     11954     11956     11957     11956     11957     11958
     11956     11957     11959     11958     11957     11959     11957     11959     11960
     11957     11959     11961     11957     11959     11971     11960     11959     11961
     11960     11959     11971     11961     11959     11971     11954     11962     11963
     11954     11962     11964     11954     11962     11965     11963     11962     11964
     11963     11962     11965     11964     11962     11965     11962     11965     11966
     11965     11966     11967     11965     11966     11968     11967     11966     11968
     11966     11968     11969     11966     11968     11970     11966     11968     12018
     11969     11968     11970     11969     11968     12018     11970     11968     12018
     11959     11971     11972     11959     11971     11973     11959     11971     11974
     11972     11971     11973     11972     11971     11974     11973     11971     11974
     11971     11974     11975     11971     11974     11976     11971     11974     11977
     11975     11974     11976     11975     11974     11977     11976     11974     11977
     11974     11977     11978     11974     11977     11979     11974     11977     11980
     11978     11977     11979     11978     11977     11980     11979     11977     11980
     11977     11980     11981     11977     11980     11982     11977     11980     11983
     11981     11980     11982     11981     11980     11983     11982     11980     11983
     11980     11983     11984     11980     11983     11985     11980     11983     11986
     11984     11983     11985     11984     11983     11986     11985     11983     11986
     11983     11986     11987     11983     11986     11988     11983     11986     11989
     11987     11986     11988     11987     11986     11989     11988     11986     11989
     11986     11989     11990     11986     11989     11991     11990     11989     11991
     11989     11991     11992     11989     11991     11993     11992     11991     11993
     11991     11993     11994     11991     11993     11995     11991     11993     11996
     11994     11993     11995     11994     11993     11996     11995     11993     11996
     11993     11996     11997     11993     11996     11998     11993     11996     11999
     11997     11996     11998     11997     11996     11999     11998     11996     11999
     11996     11999     12000     11996     11999     12001     11996     11999     12002
     12000     11999     12001     12000     11999     12002     12001     11999     12002
     11999     12002     12003     11999     12002     12004     11999     12002     12005
     12003     12002     12004     12003     12002     12005     12004     12002     12005
     12002     12005     12006     12002     12005     12007     12002     12005     12008
     12006     12005     12007     12006     12005     12008     12007     12005     12008
     12005     12008     12009     12005     12008     12010     12005     12008     12011
     12009     12008     12010     12009     12008     12011     12010     12008     12011
     12008     12011     12012     12008     12011     12013     12008     12011     12014
     12012     12011     12013     12012     12011     12014     12013     12011     12014
     12011     12014     12015     12011     12014     12016     12011     12014     12017
     12015     12014     12016     12015     12014     12017     12016     12014     12017
     11968     12018     12019     11968     12018     12020     11968     12018     12021
     12019     12018     12020     12019     12018     12021     12020     12018     12021
     12018     12021     12022     12018     12021     12023     12018     12021     12024
     12022     12021     12023     12022     12021     12024     12023     12021     12024
     12021     12024     12025     12021     12024     12026     12021     12024     12027
     12025     12024     12026     12025     12024     12027     12026     12024     12027
     12024     12027     12028     12024     12027     12029     12024     12027     12030
     12028     12027     12029     12028     12027     12030     12029     12027     12030
     12027     12030     12031     12027     12030     12032     12027     12030     12033
     12031     12030     12032     12031     12030     12033     12032     12030     12033
     12030     12033     12034     12030     12033     12035     12030     12033     12036
     12034     12033     12035     12034     12033     12036     12035     12033     12036
     12033     12036     12037     12033     12036     12038     12033     12036     12039
     12037     12036     12038     12037     12036     12039     12038     12036     12039
     12036     12039     12040     12036     12039     12041     12036     12039     12042
     12040     12039     12041     12040     12039     12042     12041     12039     12042
     12039     12042     12043     12039     12042     12044     12039     12042     12045
     12043     12042     12044     12043     12042     12045     12044     12042     12045
     12042     12045     12046     12042     12045     12047     12042     12045     12048
     12046     12045     12047     12046     12045     12048     12047     12045     12048
     12045     12048     12049     12045     12048     12050     12045     12048     12051
     12049     12048     12050     12049     12048     12051     12050     12048     12051
     12048     12051     12052     12048     12051     12053     12048     12051     12054
     12052     12051     12053     12052     12051     12054     12053     12051     12054
     12051     12054     12055     12051     12054     12056     12051     12054     12057
     12055     12054     12056     12055     12054     12057     12056     12054     12057
     12054     12057     12058     12054     12057     12059     12054     12057     12060
     12058     12057     12059     12058     12057     12060     12059     12057     12060
     12062     12061     12065     12062     12061     12069     12062     12061     12073
     12065     12061     12069     12065     12061     12073     12069     12061     12073
     12061     12062     12063     12061     12062     12064     12061     12062     12077
     12063     12062     12064     12063     12062     12077     12064     12062     12077
     12061     12065     12066     12061     12065     12067     12061     12065     12068
     12066     12065     12067     12066     12065     12068     12067     12065     12068
     12061     12069     12070     12061     12069     12071     12061     12069     12072
     12070     12069     12071     12070     12069     12072     12071     12069     12072
     12061     12073     12074     12061     12073     12075     12061     12073     12076
     12074     12073     12075     12074     12073     12076     12075     12073     12076
     12062     12077     12078     12062     12077     12079     12062     12077     12083
     12078     12077     12079     12078     12077     12083     12079     12077     12083
     12081     12080     12082     12081     12080     12083     12081     12080     12084
     12082     12080     12083     12082     12080     12084     12083     12080     12084
     12077     12083     12080     12080     12084     12085     12084     12085     12086
     12084     12085     12087     12084     12085     12088     12086     12085     12087
     12086     12085     12088     12087     12085     12088     12085     12088     12089
     12085     12088     12090     12085     12088     12096     12089     12088     12090
     12089     12088     12096     12090     12088     12096     12088     12090     12091
     12090     12091     12092     12090     12091     12093     12092     12091     12093
     12091     12093     12094     12091     12093     12095     12091     12093     12105
     12094     12093     12095     12094     12093     12105     12095     12093     12105
     12088     12096     12097     12088     12096     12098     12088     12096     12099
     12097     12096     12098     12097     12096     12099     12098     12096     12099
     12096     12099     12100     12099     12100     12101     12099     12100     12102
     12101     12100     12102     12100     12102     12103     12100     12102     12104
     12100     12102     12152     12103     12102     12104     12103     12102     12152
     12104     12102     12152     12093     12105     12106     12093     12105     12107
     12093     12105     12108     12106     12105     12107     12106     12105     12108
     12107     12105     12108     12105     12108     12109     12105     12108     12110
     12105     12108     12111     12109     12108     12110     12109     12108     12111
     12110     12108     12111     12108     12111     12112     12108     12111     12113
     12108     12111     12114     12112     12111     12113     12112     12111     12114
     12113     12111     12114     12111     12114     12115     12111     12114     12116
     12111     12114     12117     12115     12114     12116     12115     12114     12117
     12116     12114     12117     12114     12117     12118     12114     12117     12119
     12114     12117     12120     12118     12117     12119     12118     12117     12120
     12119     12117     12120     12117     12120     12121     12117     12120     12122
     12117     12120     12123     12121     12120     12122     12121     12120     12123
     12122     12120     12123     12120     12123     12124     12120     12123     12125
     12124     12123     12125     12123     12125     12126     12123     12125     12127
     12126     12125     12127     12125     12127     12128     12125     12127     12129
     12125     12127     12130     12128     12127     12129     12128     12127     12130
     12129     12127     12130     12127     12130     12131     12127     12130     12132
     12127     12130     12133     12131     12130     12132     12131     12130     12133
     12132     12130     12133     12130     12133     12134     12130     12133     12135
     12130     12133     12136     12134     12133     12135     12134     12133     12136
     12135     12133     12136     12133     12136     12137     12133     12136     12138
     12133     12136     12139     12137     12136     12138     12137     12136     12139
     12138     12136     12139     12136     12139     12140     12136     12139     12141
     12136     12139     12142     12140     12139     12141     12140     12139     12142
     12141     12139     12142     12139     12142     12143     12139     12142     12144
     12139     12142     12145     12143     12142     12144     12143     12142     12145
     12144     12142     12145     12142     12145     12146     12142     12145     12147
     12142     12145     12148     12146     12145     12147     12146     12145     12148
     12147     12145     12148     12145     12148     12149     12145     12148     12150
     12145     12148     12151     12149     12148     12150     12149     12148     12151
     12150     12148     12151     12102     12152     12153     12102     12152     12154
     12102     12152     12155     12153     12152     12154     12153     12152     12155
     12154     12152     12155     12152     12155     12156     12152     12155     12157
     12152     12155     12158     12156     12155     12157     12156     12155     12158
     12157     12155     12158     12155     12158     12159     12155     12158     12160
     12155     12158     12161     12159     12158     12160     12159     12158     12161
     12160     12158     12161     12158     12161     12162     12158     12161     12163
     12158     12161     12164     12162     12161     12163     12162     12161     12164
     12163     12161     12164     12161     12164     12165     12161     12164     12166
     12161     12164     12167     12165     12164     12166     12165     12164     12167
     12166     12164     12167     12164     12167     12168     12164     12167     12169
     12164     12167     12170     12168     12167     12169     12168     12167     12170
     12169     12167     12170     12167     12170     12171     12167     12170     12172
     12167     12170     12173     12171     12170     12172     12171     12170     12173
     12172     12170     12173     12170     12173     12174     12170     12173     12175
     12170     12173     12176     12174     12173     12175     12174     12173     12176
     12175     12173     12176     12173     12176     12177     12173     12176     12178
     12173     12176     12179     12177     12176     12178     12177     12176     12179
     12178     12176     12179     12176     12179     12180     12176     12179     12181
     12176     12179     12182     12180     12179     12181     12180     12179     12182
     12181     12179     12182     12179     12182     12183     12179     12182     12184
     12179     12182     12185     12183     12182     12184     12183     12182     12185
     12184     12182     12185     12182     12185     12186     12182     12185     12187
     12182     12185     12188     12186     12185     12187     12186     12185     12188
     12187     12185     12188     12185     12188     12189     12185     12188     12190
     12185     12188     12191     12189     12188     12190     12189     12188     12191
     12190     12188     12191     12188     12191     12192     12188     12191     12193
     12188     12191     12194     12192     12191     12193     12192     12191     12194
     12193     12191     12194     12196     12195     12199     12196     12195     12203
     12196     12195     12207     12199     12195     12203     12199     12195     12207
     12203     12195     12207     12195     12196     12197     12195     12196     12198
     12195     12196     12211     12197     12196     12198     12197     12196     12211
     12198     12196     12211     12195     12199     12200     12195     12199     12201
     12195     12199     12202     12200     12199     12201     12200     12199     12202
     12201     12199     12202     12195     12203     12204     12195     12203     12205
     12195     12203     12206     12204     12203     12205     12204     12203     12206
     12205     12203     12206     12195     12207     12208     12195     12207     12209
     12195     12207     12210     12208     12207     12209     12208     12207     12210
     12209     12207     12210     12196     12211     12212     12196     12211     12213
     12196     12211     12217     12212     12211     12213     12212     12211     12217
     12213     12211     12217     12215     12214     12216     12215     12214     12217
     12215     12214     12218     12216     12214     12217     12216     12214     12218
     12217     12214     12218     12211     12217     12214     12214     12218     12219
     12218     12219     12220     12218     12219     12221     12218     12219     12222
     12220     12219     12221     12220     12219     12222     12221     12219     12222
     12219     12222     12223     12219     12222     12224     12219     12222     12230
     12223     12222     12224     12223     12222     12230     12224     12222     12230
     12222     12224     12225     12224     12225     12226     12224     12225     12227
     12226     12225     12227     12225     12227     12228     12225     12227     12229
     12225     12227     12239     12228     12227     12229     12228     12227     12239
     12229     12227     12239     12222     12230     12231     12222     12230     12232
     12222     12230     12233     12231     12230     12232     12231     12230     12233
     12232     12230     12233     12230     12233     12234     12233     12234     12235
     12233     12234     12236     12235     12234     12236     12234     12236     12237
     12234     12236     12238     12234     12236     12286     12237     12236     12238
     12237     12236     12286     12238     12236     12286     12227     12239     12240
     12227     12239     12241     12227     12239     12242     12240     12239     12241
     12240     12239     12242     12241     12239     12242     12239     12242     12243
     12239     12242     12244     12239     12242     12245     12243     12242     12244
     12243     12242     12245     12244     12242     12245     12242     12245     12246
     12242     12245     12247     12242     12245     12248     12246     12245     12247
     12246     12245     12248     12247     12245     12248     12245     12248     12249
     12245     12248     12250     12245     12248     12251     12249     12248     12250
     12249     12248     12251     12250     12248     12251     12248     12251     12252
     12248     12251     12253     12248     12251     12254     12252     12251     12253
     12252     12251     12254     12253     12251     12254     12251     12254     12255
     12251     12254     12256     12251     12254     12257     12255     12254     12256
     12255     12254     12257     12256     12254     12257     12254     12257     12258
     12254     12257     12259     12258     12257     12259     12257     12259     12260
     12257     12259     12261     12260     12259     12261     12259     12261     12262
     12259     12261     12263     12259     12261     12264     12262     12261     12263
     12262     12261     12264     12263     12261     12264     12261     12264     12265
     12261     12264     12266     12261     12264     12267     12265     12264     12266
     12265     12264     12267     12266     12264     12267     12264     12267     12268
     12264     12267     12269     12264     12267     12270     12268     12267     12269
     12268     12267     12270     12269     12267     12270     12267     12270     12271
     12267     12270     12272     12267     12270     12273     12271     12270     12272
     12271     12270     12273     12272     12270     12273     12270     12273     12274
     12270     12273     12275     12270     12273     12276     12274     12273     12275
     12274     12273     12276     12275     12273     12276     12273     12276     12277
     12273     12276     12278     12273     12276     12279     12277     12276     12278
     12277     12276     12279     12278     12276     12279     12276     12279     12280
     12276     12279     12281     12276     12279     12282     12280     12279     12281
     12280     12279     12282     12281     12279     12282     12279     12282     12283
     12279     12282     12284     12279     12282     12285     12283     12282     12284
     12283     12282     12285     12284     12282     12285     12236     12286     12287
     12236     12286     12288     12236     12286     12289     12287     12286     12288
     12287     12286     12289     12288     12286     12289     12286     12289     12290
     12286     12289     12291     12286     12289     12292     12290     12289     12291
     12290     12289     12292     12291     12289     12292     12289     12292     12293
     12289     12292     12294     12289     12292     12295     12293     12292     12294
     12293     12292     12295     12294     12292     12295     12292     12295     12296
     12292     12295     12297     12292     12295     12298     12296     12295     12297
     12296     12295     12298     12297     12295     12298     12295     12298     12299
     12295     12298     12300     12295     12298     12301     12299     12298     12300
     12299     12298     12301     12300     12298     12301     12298     12301     12302
     12298     12301     12303     12298     12301     12304     12302     12301     12303
     12302     12301     12304     12303     12301     12304     12301     12304     12305
     12301     12304     12306     12301     12304     12307     12305     12304     12306
     12305     12304     12307     12306     12304     12307     12304     12307     12308
     12304     12307     12309     12304     12307     12310     12308     12307     12309
     12308     12307     12310     12309     12307     12310     12307     12310     12311
     12307     12310     12312     12307     12310     12313     12311     12310     12312
     12311     12310     12313     12312     12310     12313     12310     12313     12314
     12310     12313     12315     12310     12313     12316     12314     12313     12315
     12314     12313     12316     12315     12313     12316     12313     12316     12317
     12313     12316     12318     12313     12316     12319     12317     12316     12318
     12317     12316     12319     12318     12316     12319     12316     12319     12320
     12316     12319     12321     12316     12319     12322     12320     12319     12321
     12320     12319     12322     12321     12319     12322     12319     12322     12323
     12319     12322     12324     12319     12322     12325     12323     12322     12324
     12323     12322     12325     12324     12322     12325     12322     12325     12326
     12322     12325     12327     12322     12325     12328     12326     12325     12327
     12326     12325     12328     12327     12325     12328     12330     12329     12333
     12330     12329     12337     12330     12329     12341     12333     12329     12337
     12333     12329     12341     12337     12329     12341     12329     12330     12331
     12329     12330     12332     12329     12330     12345     12331     12330     12332
     12331     12330     12345     12332     12330     12345     12329     12333     12334
     12329     12333     12335     12329     12333     12336     12334     12333     12335
     12334     12333     12336     12335     12333     12336     12329     12337     12338
     12329     12337     12339     12329     12337     12340     12338     12337     12339
     12338     12337     12340     12339     12337     12340     12329     12341     12342
     12329     12341     12343     12329     12341     12344     12342     12341     12343
     12342     12341     12344     12343     12341     12344     12330     12345     12346
     12330     12345     12347     12330     12345     12351     12346     12345     12347
     12346     12345     12351     12347     12345     12351     12349     12348     12350
     12349     12348     12351     12349     12348     12352     12350     12348     12351
     12350     12348     12352     12351     12348     12352     12345     12351     12348
     12348     12352     12353     12352     12353     12354     12352     12353     12355
     12352     12353     12356     12354     12353     12355     12354     12353     12356
     12355     12353     12356     12353     12356     12357     12353     12356     12358
     12353     12356     12364     12357     12356     12358     12357     12356     12364
     12358     12356     12364     12356     12358     12359     12358     12359     12360
     12358     12359     12361     12360     12359     12361     12359     12361     12362
     12359     12361     12363     12359     12361     12373     12362     12361     12363
     12362     12361     12373     12363     12361     12373     12356     12364     12365
     12356     12364     12366     12356     12364     12367     12365     12364     12366
     12365     12364     12367     12366     12364     12367     12364     12367     12368
     12367     12368     12369     12367     12368     12370     12369     12368     12370
     12368     12370     12371     12368     12370     12372     12368     12370     12420
     12371     12370     12372     12371     12370     12420     12372     12370     12420
     12361     12373     12374     12361     12373     12375     12361     12373     12376
     12374     12373     12375     12374     12373     12376     12375     12373     12376
     12373     12376     12377     12373     12376     12378     12373     12376     12379
     12377     12376     12378     12377     12376     12379     12378     12376     12379
     12376     12379     12380     12376     12379     12381     12376     12379     12382
     12380     12379     12381     12380     12379     12382     12381     12379     12382
     12379     12382     12383     12379     12382     12384     12379     12382     12385
     12383     12382     12384     12383     12382     12385     12384     12382     12385
     12382     12385     12386     12382     12385     12387     12382     12385     12388
     12386     12385     12387     12386     12385     12388     12387     12385     12388
     12385     12388     12389     12385     12388     12390     12385     12388     12391
     12389     12388     12390     12389     12388     12391     12390     12388     12391
     12388     12391     12392     12388     12391     12393     12392     12391     12393
     12391     12393     12394     12391     12393     12395     12394     12393     12395
     12393     12395     12396     12393     12395     12397     12393     12395     12398
     12396     12395     12397     12396     12395     12398     12397     12395     12398
     12395     12398     12399     12395     12398     12400     12395     12398     12401
     12399     12398     12400     12399     12398     12401     12400     12398     12401
     12398     12401     12402     12398     12401     12403     12398     12401     12404
     12402     12401     12403     12402     12401     12404     12403     12401     12404
     12401     12404     12405     12401     12404     12406     12401     12404     12407
     12405     12404     12406     12405     12404     12407     12406     12404     12407
     12404     12407     12408     12404     12407     12409     12404     12407     12410
     12408     12407     12409     12408     12407     12410     12409     12407     12410
     12407     12410     12411     12407     12410     12412     12407     12410     12413
     12411     12410     12412     12411     12410     12413     12412     12410     12413
     12410     12413     12414     12410     12413     12415     12410     12413     12416
     12414     12413     12415     12414     12413     12416     12415     12413     12416
     12413     12416     12417     12413     12416     12418     12413     12416     12419
     12417     12416     12418     12417     12416     12419     12418     12416     12419
     12370     12420     12421     12370     12420     12422     12370     12420     12423
     12421     12420     12422     12421     12420     12423     12422     12420     12423
     12420     12423     12424     12420     12423     12425     12420     12423     12426
     12424     12423     12425     12424     12423     12426     12425     12423     12426
     12423     12426     12427     12423     12426     12428     12423     12426     12429
     12427     12426     12428     12427     12426     12429     12428     12426     12429
     12426     12429     12430     12426     12429     12431     12426     12429     12432
     12430     12429     12431     12430     12429     12432     12431     12429     12432
     12429     12432     12433     12429     12432     12434     12429     12432     12435
     12433     12432     12434     12433     12432     12435     12434     12432     12435
     12432     12435     12436     12432     12435     12437     12432     12435     12438
     12436     12435     12437     12436     12435     12438     12437     12435     12438
     12435     12438     12439     12435     12438     12440     12435     12438     12441
     12439     12438     12440     12439     12438     12441     12440     12438     12441
     12438     12441     12442     12438     12441     12443     12438     12441     12444
     12442     12441     12443     12442     12441     12444     12443     12441     12444
     12441     12444     12445     12441     12444     12446     12441     12444     12447
     12445     12444     12446     12445     12444     12447     12446     12444     12447
     12444     12447     12448     12444     12447     12449     12444     12447     12450
     12448     12447     12449     12448     12447     12450     12449     12447     12450
     12447     12450     12451     12447     12450     12452     12447     12450     12453
     12451     12450     12452     12451     12450     12453     12452     12450     12453
     12450     12453     12454     12450     12453     12455     12450     12453     12456
     12454     12453     12455     12454     12453     12456     12455     12453     12456
     12453     12456     12457     12453     12456     12458     12453     12456     12459
     12457     12456     12458     12457     12456     12459     12458     12456     12459
     12456     12459     12460     12456     12459     12461     12456     12459     12462
     12460     12459     12461     12460     12459     12462     12461     12459     12462
     12464     12463     12467     12464     12463     12471     12464     12463     12475
     12467     12463     12471     12467     12463     12475     12471     12463     12475
     12463     12464     12465     12463     12464     12466     12463     12464     12479
     12465     12464     12466     12465     12464     12479     12466     12464     12479
     12463     12467     12468     12463     12467     12469     12463     12467     12470
     12468     12467     12469     12468     12467     12470     12469     12467     12470
     12463     12471     12472     12463     12471     12473     12463     12471     12474
     12472     12471     12473     12472     12471     12474     12473     12471     12474
     12463     12475     12476     12463     12475     12477     12463     12475     12478
     12476     12475     12477     12476     12475     12478     12477     12475     12478
     12464     12479     12480     12464     12479     12481     12464     12479     12485
     12480     12479     12481     12480     12479     12485     12481     12479     12485
     12483     12482     12484     12483     12482     12485     12483     12482     12486
     12484     12482     12485     12484     12482     12486     12485     12482     12486
     12479     12485     12482     12482     12486     12487     12486     12487     12488
     12486     12487     12489     12486     12487     12490     12488     12487     12489
     12488     12487     12490     12489     12487     12490     12487     12490     12491
     12487     12490     12492     12487     12490     12498     12491     12490     12492
     12491     12490     12498     12492     12490     12498     12490     12492     12493
     12492     12493     12494     12492     12493     12495     12494     12493     12495
     12493     12495     12496     12493     12495     12497     12493     12495     12507
     12496     12495     12497     12496     12495     12507     12497     12495     12507
     12490     12498     12499     12490     12498     12500     12490     12498     12501
     12499     12498     12500     12499     12498     12501     12500     12498     12501
     12498     12501     12502     12501     12502     12503     12501     12502     12504
     12503     12502     12504     12502     12504     12505     12502     12504     12506
     12502     12504     12554     12505     12504     12506     12505     12504     12554
     12506     12504     12554     12495     12507     12508     12495     12507     12509
     12495     12507     12510     12508     12507     12509     12508     12507     12510
     12509     12507     12510     12507     12510     12511     12507     12510     12512
     12507     12510     12513     12511     12510     12512     12511     12510     12513
     12512     12510     12513     12510     12513     12514     12510     12513     12515
     12510     12513     12516     12514     12513     12515     12514     12513     12516
     12515     12513     12516     12513     12516     12517     12513     12516     12518
     12513     12516     12519     12517     12516     12518     12517     12516     12519
     12518     12516     12519     12516     12519     12520     12516     12519     12521
     12516     12519     12522     12520     12519     12521     12520     12519     12522
     12521     12519     12522     12519     12522     12523     12519     12522     12524
     12519     12522     12525     12523     12522     12524     12523     12522     12525
     12524     12522     12525     12522     12525     12526     12522     12525     12527
     12526     12525     12527     12525     12527     12528     12525     12527     12529
     12528     12527     12529     12527     12529     12530     12527     12529     12531
     12527     12529     12532     12530     12529     12531     12530     12529     12532
     12531     12529     12532     12529     12532     12533     12529     12532     12534
     12529     12532     12535     12533     12532     12534     12533     12532     12535
     12534     12532     12535     12532     12535     12536     12532     12535     12537
     12532     12535     12538     12536     12535     12537     12536     12535     12538
     12537     12535     12538     12535     12538     12539     12535     12538     12540
     12535     12538     12541     12539     12538     12540     12539     12538     12541
     12540     12538     12541     12538     12541     12542     12538     12541     12543
     12538     12541     12544     12542     12541     12543     12542     12541     12544
     12543     12541     12544     12541     12544     12545     12541     12544     12546
     12541     12544     12547     12545     12544     12546     12545     12544     12547
     12546     12544     12547     12544     12547     12548     12544     12547     12549
     12544     12547     12550     12548     12547     12549     12548     12547     12550
     12549     12547     12550     12547     12550     12551     12547     12550     12552
     12547     12550     12553     12551     12550     12552     12551     12550     12553
     12552     12550     12553     12504     12554     12555     12504     12554     12556
     12504     12554     12557     12555     12554     12556     12555     12554     12557
     12556     12554     12557     12554     12557     12558     12554     12557     12559
     12554     12557     12560     12558     12557     12559     12558     12557     12560
     12559     12557     12560     12557     12560     12561     12557     12560     12562
     12557     12560     12563     12561     12560     12562     12561     12560     12563
     12562     12560     12563     12560     12563     12564     12560     12563     12565
     12560     12563     12566     12564     12563     12565     12564     12563     12566
     12565     12563     12566     12563     12566     12567     12563     12566     12568
     12563     12566     12569     12567     12566     12568     12567     12566     12569
     12568     12566     12569     12566     12569     12570     12566     12569     12571
     12566     12569     12572     12570     12569     12571     12570     12569     12572
     12571     12569     12572     12569     12572     12573     12569     12572     12574
     12569     12572     12575     12573     12572     12574     12573     12572     12575
     12574     12572     12575     12572     12575     12576     12572     12575     12577
     12572     12575     12578     12576     12575     12577     12576     12575     12578
     12577     12575     12578     12575     12578     12579     12575     12578     12580
     12575     12578     12581     12579     12578     12580     12579     12578     12581
     12580     12578     12581     12578     12581     12582     12578     12581     12583
     12578     12581     12584     12582     12581     12583     12582     12581     12584
     12583     12581     12584     12581     12584     12585     12581     12584     12586
     12581     12584     12587     12585     12584     12586     12585     12584     12587
     12586     12584     12587     12584     12587     12588     12584     12587     12589
     12584     12587     12590     12588     12587     12589     12588     12587     12590
     12589     12587     12590     12587     12590     12591     12587     12590     12592
     12587     12590     12593     12591     12590     12592     12591     12590     12593
     12592     12590     12593     12590     12593     12594     12590     12593     12595
     12590     12593     12596     12594     12593     12595     12594     12593     12596
     12595     12593     12596     12598     12597     12601     12598     12597     12605
     12598     12597     12609     12601     12597     12605     12601     12597     12609
     12605     12597     12609     12597     12598     12599     12597     12598     12600
     12597     12598     12613     12599     12598     12600     12599     12598     12613
     12600     12598     12613     12597     12601     12602     12597     12601     12603
     12597     12601     12604     12602     12601     12603     12602     12601     12604
     12603     12601     12604     12597     12605     12606     12597     12605     12607
     12597     12605     12608     12606     12605     12607     12606     12605     12608
     12607     12605     12608     12597     12609     12610     12597     12609     12611
     12597     12609     12612     12610     12609     12611     12610     12609     12612
     12611     12609     12612     12598     12613     12614     12598     12613     12615
     12598     12613     12619     12614     12613     12615     12614     12613     12619
     12615     12613     12619     12617     12616     12618     12617     12616     12619
     12617     12616     12620     12618     12616     12619     12618     12616     12620
     12619     12616     12620     12613     12619     12616     12616     12620     12621
     12620     12621     12622     12620     12621     12623     12620     12621     12624
     12622     12621     12623     12622     12621     12624     12623     12621     12624
     12621     12624     12625     12621     12624     12626     12621     12624     12632
     12625     12624     12626     12625     12624     12632     12626     12624     12632
     12624     12626     12627     12626     12627     12628     12626     12627     12629
     12628     12627     12629     12627     12629     12630     12627     12629     12631
     12627     12629     12641     12630     12629     12631     12630     12629     12641
     12631     12629     12641     12624     12632     12633     12624     12632     12634
     12624     12632     12635     12633     12632     12634     12633     12632     12635
     12634     12632     12635     12632     12635     12636     12635     12636     12637
     12635     12636     12638     12637     12636     12638     12636     12638     12639
     12636     12638     12640     12636     12638     12688     12639     12638     12640
     12639     12638     12688     12640     12638     12688     12629     12641     12642
     12629     12641     12643     12629     12641     12644     12642     12641     12643
     12642     12641     12644     12643     12641     12644     12641     12644     12645
     12641     12644     12646     12641     12644     12647     12645     12644     12646
     12645     12644     12647     12646     12644     12647     12644     12647     12648
     12644     12647     12649     12644     12647     12650     12648     12647     12649
     12648     12647     12650     12649     12647     12650     12647     12650     12651
     12647     12650     12652     12647     12650     12653     12651     12650     12652
     12651     12650     12653     12652     12650     12653     12650     12653     12654
     12650     12653     12655     12650     12653     12656     12654     12653     12655
     12654     12653     12656     12655     12653     12656     12653     12656     12657
     12653     12656     12658     12653     12656     12659     12657     12656     12658
     12657     12656     12659     12658     12656     12659     12656     12659     12660
     12656     12659     12661     12660     12659     12661     12659     12661     12662
     12659     12661     12663     12662     12661     12663     12661     12663     12664
     12661     12663     12665     12661     12663     12666     12664     12663     12665
     12664     12663     12666     12665     12663     12666     12663     12666     12667
     12663     12666     12668     12663     12666     12669     12667     12666     12668
     12667     12666     12669     12668     12666     12669     12666     12669     12670
     12666     12669     12671     12666     12669     12672     12670     12669     12671
     12670     12669     12672     12671     12669     12672     12669     12672     12673
     12669     12672     12674     12669     12672     12675     12673     12672     12674
     12673     12672     12675     12674     12672     12675     12672     12675     12676
     12672     12675     12677     12672     12675     12678     12676     12675     12677
     12676     12675     12678     12677     12675     12678     12675     12678     12679
     12675     12678     12680     12675     12678     12681     12679     12678     12680
     12679     12678     12681     12680     12678     12681     12678     12681     12682
     12678     12681     12683     12678     12681     12684     12682     12681     12683
     12682     12681     12684     12683     12681     12684     12681     12684     12685
     12681     12684     12686     12681     12684     12687     12685     12684     12686
     12685     12684     12687     12686     12684     12687     12638     12688     12689
     12638     12688     12690     12638     12688     12691     12689     12688     12690
     12689     12688     12691     12690     12688     12691     12688     12691     12692
     12688     12691     12693     12688     12691     12694     12692     12691     12693
     12692     12691     12694     12693     12691     12694     12691     12694     12695
     12691     12694     12696     12691     12694     12697     12695     12694     12696
     12695     12694     12697     12696     12694     12697     12694     12697     12698
     12694     12697     12699     12694     12697     12700     12698     12697     12699
     12698     12697     12700     12699     12697     12700     12697     12700     12701
     12697     12700     12702     12697     12700     12703     12701     12700     12702
     12701     12700     12703     12702     12700     12703     12700     12703     12704
     12700     12703     12705     12700     12703     12706     12704     12703     12705
     12704     12703     12706     12705     12703     12706     12703     12706     12707
     12703     12706     12708     12703     12706     12709     12707     12706     12708
     12707     12706     12709     12708     12706     12709     12706     12709     12710
     12706     12709     12711     12706     12709     12712     12710     12709     12711
     12710     12709     12712     12711     12709     12712     12709     12712     12713
     12709     12712     12714     12709     12712     12715     12713     12712     12714
     12713     12712     12715     12714     12712     12715     12712     12715     12716
     12712     12715     12717     12712     12715     12718     12716     12715     12717
     12716     12715     12718     12717     12715     12718     12715     12718     12719
     12715     12718     12720     12715     12718     12721     12719     12718     12720
     12719     12718     12721     12720     12718     12721     12718     12721     12722
     12718     12721     12723     12718     12721     12724     12722     12721     12723
     12722     12721     12724     12723     12721     12724     12721     12724     12725
     12721     12724     12726     12721     12724     12727     12725     12724     12726
     12725     12724     12727     12726     12724     12727     12724     12727     12728
     12724     12727     12729     12724     12727     12730     12728     12727     12729
     12728     12727     12730     12729     12727     12730     12732     12731     12735
     12732     12731     12739     12732     12731     12743     12735     12731     12739
     12735     12731     12743     12739     12731     12743     12731     12732     12733
     12731     12732     12734     12731     12732     12747     12733     12732     12734
     12733     12732     12747     12734     12732     12747     12731     12735     12736
     12731     12735     12737     12731     12735     12738     12736     12735     12737
     12736     12735     12738     12737     12735     12738     12731     12739     12740
     12731     12739     12741     12731     12739     12742     12740     12739     12741
     12740     12739     12742     12741     12739     12742     12731     12743     12744
     12731     12743     12745     12731     12743     12746     12744     12743     12745
     12744     12743     12746     12745     12743     12746     12732     12747     12748
     12732     12747     12749     12732     12747     12753     12748     12747     12749
     12748     12747     12753     12749     12747     12753     12751     12750     12752
     12751     12750     12753     12751     12750     12754     12752     12750     12753
     12752     12750     12754     12753     12750     12754     12747     12753     12750
     12750     12754     12755     12754     12755     12756     12754     12755     12757
     12754     12755     12758     12756     12755     12757     12756     12755     12758
     12757     12755     12758     12755     12758     12759     12755     12758     12760
     12755     12758     12766     12759     12758     12760     12759     12758     12766
     12760     12758     12766     12758     12760     12761     12760     12761     12762
     12760     12761     12763     12762     12761     12763     12761     12763     12764
     12761     12763     12765     12761     12763     12775     12764     12763     12765
     12764     12763     12775     12765     12763     12775     12758     12766     12767
     12758     12766     12768     12758     12766     12769     12767     12766     12768
     12767     12766     12769     12768     12766     12769     12766     12769     12770
     12769     12770     12771     12769     12770     12772     12771     12770     12772
     12770     12772     12773     12770     12772     12774     12770     12772     12822
     12773     12772     12774     12773     12772     12822     12774     12772     12822
     12763     12775     12776     12763     12775     12777     12763     12775     12778
     12776     12775     12777     12776     12775     12778     12777     12775     12778
     12775     12778     12779     12775     12778     12780     12775     12778     12781
     12779     12778     12780     12779     12778     12781     12780     12778     12781
     12778     12781     12782     12778     12781     12783     12778     12781     12784
     12782     12781     12783     12782     12781     12784     12783     12781     12784
     12781     12784     12785     12781     12784     12786     12781     12784     12787
     12785     12784     12786     12785     12784     12787     12786     12784     12787
     12784     12787     12788     12784     12787     12789     12784     12787     12790
     12788     12787     12789     12788     12787     12790     12789     12787     12790
     12787     12790     12791     12787     12790     12792     12787     12790     12793
     12791     12790     12792     12791     12790     12793     12792     12790     12793
     12790     12793     12794     12790     12793     12795     12794     12793     12795
     12793     12795     12796     12793     12795     12797     12796     12795     12797
     12795     12797     12798     12795     12797     12799     12795     12797     12800
     12798     12797     12799     12798     12797     12800     12799     12797     12800
     12797     12800     12801     12797     12800     12802     12797     12800     12803
     12801     12800     12802     12801     12800     12803     12802     12800     12803
     12800     12803     12804     12800     12803     12805     12800     12803     12806
     12804     12803     12805     12804     12803     12806     12805     12803     12806
     12803     12806     12807     12803     12806     12808     12803     12806     12809
     12807     12806     12808     12807     12806     12809     12808     12806     12809
     12806     12809     12810     12806     12809     12811     12806     12809     12812
     12810     12809     12811     12810     12809     12812     12811     12809     12812
     12809     12812     12813     12809     12812     12814     12809     12812     12815
     12813     12812     12814     12813     12812     12815     12814     12812     12815
     12812     12815     12816     12812     12815     12817     12812     12815     12818
     12816     12815     12817     12816     12815     12818     12817     12815     12818
     12815     12818     12819     12815     12818     12820     12815     12818     12821
     12819     12818     12820     12819     12818     12821     12820     12818     12821
     12772     12822     12823     12772     12822     12824     12772     12822     12825
     12823     12822     12824     12823     12822     12825     12824     12822     12825
     12822     12825     12826     12822     12825     12827     12822     12825     12828
     12826     12825     12827     12826     12825     12828     12827     12825     12828
     12825     12828     12829     12825     12828     12830     12825     12828     12831
     12829     12828     12830     12829     12828     12831     12830     12828     12831
     12828     12831     12832     12828     12831     12833     12828     12831     12834
     12832     12831     12833     12832     12831     12834     12833     12831     12834
     12831     12834     12835     12831     12834     12836     12831     12834     12837
     12835     12834     12836     12835     12834     12837     12836     12834     12837
     12834     12837     12838     12834     12837     12839     12834     12837     12840
     12838     12837     12839     12838     12837     12840     12839     12837     12840
     12837     12840     12841     12837     12840     12842     12837     12840     12843
     12841     12840     12842     12841     12840     12843     12842     12840     12843
     12840     12843     12844     12840     12843     12845     12840     12843     12846
     12844     12843     12845     12844     12843     12846     12845     12843     12846
     12843     12846     12847     12843     12846     12848     12843     12846     12849
     12847     12846     12848     12847     12846     12849     12848     12846     12849
     12846     12849     12850     12846     12849     12851     12846     12849     12852
     12850     12849     12851     12850     12849     12852     12851     12849     12852
     12849     12852     12853     12849     12852     12854     12849     12852     12855
     12853     12852     12854     12853     12852     12855     12854     12852     12855
     12852     12855     12856     12852     12855     12857     12852     12855     12858
     12856     12855     12857     12856     12855     12858     12857     12855     12858
     12855     12858     12859     12855     12858     12860     12855     12858     12861
     12859     12858     12860     12859     12858     12861     12860     12858     12861
     12858     12861     12862     12858     12861     12863     12858     12861     12864
     12862     12861     12863     12862     12861     12864     12863     12861     12864
     12866     12865     12869     12866     12865     12873     12866     12865     12877
     12869     12865     12873     12869     12865     12877     12873     12865     12877
     12865     12866     12867     12865     12866     12868     12865     12866     12881
     12867     12866     12868     12867     12866     12881     12868     12866     12881
     12865     12869     12870     12865     12869     12871     12865     12869     12872
     12870     12869     12871     12870     12869     12872     12871     12869     12872
     12865     12873     12874     12865     12873     12875     12865     12873     12876
     12874     12873     12875     12874     12873     12876     12875     12873     12876
     12865     12877     12878     12865     12877     12879     12865     12877     12880
     12878     12877     12879     12878     12877     12880     12879     12877     12880
     12866     12881     12882     12866     12881     12883     12866     12881     12887
     12882     12881     12883     12882     12881     12887     12883     12881     12887
     12885     12884     12886     12885     12884     12887     12885     12884     12888
     12886     12884     12887     12886     12884     12888     12887     12884     12888
     12881     12887     12884     12884     12888     12889     12888     12889     12890
     12888     12889     12891     12888     12889     12892     12890     12889     12891
     12890     12889     12892     12891     12889     12892     12889     12892     12893
     12889     12892     12894     12889     12892     12900     12893     12892     12894
     12893     12892     12900     12894     12892     12900     12892     12894     12895
     12894     12895     12896     12894     12895     12897     12896     12895     12897
     12895     12897     12898     12895     12897     12899     12895     12897     12909
     12898     12897     12899     12898     12897     12909     12899     12897     12909
     12892     12900     12901     12892     12900     12902     12892     12900     12903
     12901     12900     12902     12901     12900     12903     12902     12900     12903
     12900     12903     12904     12903     12904     12905     12903     12904     12906
     12905     12904     12906     12904     12906     12907     12904     12906     12908
     12904     12906     12956     12907     12906     12908     12907     12906     12956
     12908     12906     12956     12897     12909     12910     12897     12909     12911
     12897     12909     12912     12910     12909     12911     12910     12909     12912
     12911     12909     12912     12909     12912     12913     12909     12912     12914
     12909     12912     12915     12913     12912     12914     12913     12912     12915
     12914     12912     12915     12912     12915     12916     12912     12915     12917
     12912     12915     12918     12916     12915     12917     12916     12915     12918
     12917     12915     12918     12915     12918     12919     12915     12918     12920
     12915     12918     12921     12919     12918     12920     12919     12918     12921
     12920     12918     12921     12918     12921     12922     12918     12921     12923
     12918     12921     12924     12922     12921     12923     12922     12921     12924
     12923     12921     12924     12921     12924     12925     12921     12924     12926
     12921     12924     12927     12925     12924     12926     12925     12924     12927
     12926     12924     12927     12924     12927     12928     12924     12927     12929
     12928     12927     12929     12927     12929     12930     12927     12929     12931
     12930     12929     12931     12929     12931     12932     12929     12931     12933
     12929     12931     12934     12932     12931     12933     12932     12931     12934
     12933     12931     12934     12931     12934     12935     12931     12934     12936
     12931     12934     12937     12935     12934     12936     12935     12934     12937
     12936     12934     12937     12934     12937     12938     12934     12937     12939
     12934     12937     12940     12938     12937     12939     12938     12937     12940
     12939     12937     12940     12937     12940     12941     12937     12940     12942
     12937     12940     12943     12941     12940     12942     12941     12940     12943
     12942     12940     12943     12940     12943     12944     12940     12943     12945
     12940     12943     12946     12944     12943     12945     12944     12943     12946
     12945     12943     12946     12943     12946     12947     12943     12946     12948
     12943     12946     12949     12947     12946     12948     12947     12946     12949
     12948     12946     12949     12946     12949     12950     12946     12949     12951
     12946     12949     12952     12950     12949     12951     12950     12949     12952
     12951     12949     12952     12949     12952     12953     12949     12952     12954
     12949     12952     12955     12953     12952     12954     12953     12952     12955
     12954     12952     12955     12906     12956     12957     12906     12956     12958
     12906     12956     12959     12957     12956     12958     12957     12956     12959
     12958     12956     12959     12956     12959     12960     12956     12959     12961
     12956     12959     12962     12960     12959     12961     12960     12959     12962
     12961     12959     12962     12959     12962     12963     12959     12962     12964
     12959     12962     12965     12963     12962     12964     12963     12962     12965
     12964     12962     12965     12962     12965     12966     12962     12965     12967
     12962     12965     12968     12966     12965     12967     12966     12965     12968
     12967     12965     12968     12965     12968     12969     12965     12968     12970
     12965     12968     12971     12969     12968     12970     12969     12968     12971
     12970     12968     12971     12968     12971     12972     12968     12971     12973
     12968     12971     12974     12972     12971     12973     12972     12971     12974
     12973     12971     12974     12971     12974     12975     12971     12974     12976
     12971     12974     12977     12975     12974     12976     12975     12974     12977
     12976     12974     12977     12974     12977     12978     12974     12977     12979
     12974     12977     12980     12978     12977     12979     12978     12977     12980
     12979     12977     12980     12977     12980     12981     12977     12980     12982
     12977     12980     12983     12981     12980     12982     12981     12980     12983
     12982     12980     12983     12980     12983     12984     12980     12983     12985
     12980     12983     12986     12984     12983     12985     12984     12983     12986
     12985     12983     12986     12983     12986     12987     12983     12986     12988
     12983     12986     12989     12987     12986     12988     12987     12986     12989
     12988     12986     12989     12986     12989     12990     12986     12989     12991
     12986     12989     12992     12990     12989     12991     12990     12989     12992
     12991     12989     12992     12989     12992     12993     12989     12992     12994
     12989     12992     12995     12993     12992     12994     12993     12992     12995
     12994     12992     12995     12992     12995     12996     12992     12995     12997
     12992     12995     12998     12996     12995     12997     12996     12995     12998
     12997     12995     12998     13000     12999     13003     13000     12999     13007
     13000     12999     13011     13003     12999     13007     13003     12999     13011
     13007     12999     13011     12999     13000     13001     12999     13000     13002
     12999     13000     13015     13001     13000     13002     13001     13000     13015
     13002     13000     13015     12999     13003     13004     12999     13003     13005
     12999     13003     13006     13004     13003     13005     13004     13003     13006
     13005     13003     13006     12999     13007     13008     12999     13007     13009
     12999     13007     13010     13008     13007     13009     13008     13007     13010
     13009     13007     13010     12999     13011     13012     12999     13011     13013
     12999     13011     13014     13012     13011     13013     13012     13011     13014
     13013     13011     13014     13000     13015     13016     13000     13015     13017
     13000     13015     13021     13016     13015     13017     13016     13015     13021
     13017     13015     13021     13019     13018     13020     13019     13018     13021
     13019     13018     13022     13020     13018     13021     13020     13018     13022
     13021     13018     13022     13015     13021     13018     13018     13022     13023
     13022     13023     13024     13022     13023     13025     13022     13023     13026
     13024     13023     13025     13024     13023     13026     13025     13023     13026
     13023     13026     13027     13023     13026     13028     13023     13026     13034
     13027     13026     13028     13027     13026     13034     13028     13026     13034
     13026     13028     13029     13028     13029     13030     13028     13029     13031
     13030     13029     13031     13029     13031     13032     13029     13031     13033
     13029     13031     13043     13032     13031     13033     13032     13031     13043
     13033     13031     13043     13026     13034     13035     13026     13034     13036
     13026     13034     13037     13035     13034     13036     13035     13034     13037
     13036     13034     13037     13034     13037     13038     13037     13038     13039
     13037     13038     13040     13039     13038     13040     13038     13040     13041
     13038     13040     13042     13038     13040     13090     13041     13040     13042
     13041     13040     13090     13042     13040     13090     13031     13043     13044
     13031     13043     13045     13031     13043     13046     13044     13043     13045
     13044     13043     13046     13045     13043     13046     13043     13046     13047
     13043     13046     13048     13043     13046     13049     13047     13046     13048
     13047     13046     13049     13048     13046     13049     13046     13049     13050
     13046     13049     13051     13046     13049     13052     13050     13049     13051
     13050     13049     13052     13051     13049     13052     13049     13052     13053
     13049     13052     13054     13049     13052     13055     13053     13052     13054
     13053     13052     13055     13054     13052     13055     13052     13055     13056
     13052     13055     13057     13052     13055     13058     13056     13055     13057
     13056     13055     13058     13057     13055     13058     13055     13058     13059
     13055     13058     13060     13055     13058     13061     13059     13058     13060
     13059     13058     13061     13060     13058     13061     13058     13061     13062
     13058     13061     13063     13062     13061     13063     13061     13063     13064
     13061     13063     13065     13064     13063     13065     13063     13065     13066
     13063     13065     13067     13063     13065     13068     13066     13065     13067
     13066     13065     13068     13067     13065     13068     13065     13068     13069
     13065     13068     13070     13065     13068     13071     13069     13068     13070
     13069     13068     13071     13070     13068     13071     13068     13071     13072
     13068     13071     13073     13068     13071     13074     13072     13071     13073
     13072     13071     13074     13073     13071     13074     13071     13074     13075
     13071     13074     13076     13071     13074     13077     13075     13074     13076
     13075     13074     13077     13076     13074     13077     13074     13077     13078
     13074     13077     13079     13074     13077     13080     13078     13077     13079
     13078     13077     13080     13079     13077     13080     13077     13080     13081
     13077     13080     13082     13077     13080     13083     13081     13080     13082
     13081     13080     13083     13082     13080     13083     13080     13083     13084
     13080     13083     13085     13080     13083     13086     13084     13083     13085
     13084     13083     13086     13085     13083     13086     13083     13086     13087
     13083     13086     13088     13083     13086     13089     13087     13086     13088
     13087     13086     13089     13088     13086     13089     13040     13090     13091
     13040     13090     13092     13040     13090     13093     13091     13090     13092
     13091     13090     13093     13092     13090     13093     13090     13093     13094
     13090     13093     13095     13090     13093     13096     13094     13093     13095
     13094     13093     13096     13095     13093     13096     13093     13096     13097
     13093     13096     13098     13093     13096     13099     13097     13096     13098
     13097     13096     13099     13098     13096     13099     13096     13099     13100
     13096     13099     13101     13096     13099     13102     13100     13099     13101
     13100     13099     13102     13101     13099     13102     13099     13102     13103
     13099     13102     13104     13099     13102     13105     13103     13102     13104
     13103     13102     13105     13104     13102     13105     13102     13105     13106
     13102     13105     13107     13102     13105     13108     13106     13105     13107
     13106     13105     13108     13107     13105     13108     13105     13108     13109
     13105     13108     13110     13105     13108     13111     13109     13108     13110
     13109     13108     13111     13110     13108     13111     13108     13111     13112
     13108     13111     13113     13108     13111     13114     13112     13111     13113
     13112     13111     13114     13113     13111     13114     13111     13114     13115
     13111     13114     13116     13111     13114     13117     13115     13114     13116
     13115     13114     13117     13116     13114     13117     13114     13117     13118
     13114     13117     13119     13114     13117     13120     13118     13117     13119
     13118     13117     13120     13119     13117     13120     13117     13120     13121
     13117     13120     13122     13117     13120     13123     13121     13120     13122
     13121     13120     13123     13122     13120     13123     13120     13123     13124
     13120     13123     13125     13120     13123     13126     13124     13123     13125
     13124     13123     13126     13125     13123     13126     13123     13126     13127
     13123     13126     13128     13123     13126     13129     13127     13126     13128
     13127     13126     13129     13128     13126     13129     13126     13129     13130
     13126     13129     13131     13126     13129     13132     13130     13129     13131
     13130     13129     13132     13131     13129     13132     13134     13133     13137
     13134     13133     13141     13134     13133     13145     13137     13133     13141
     13137     13133     13145     13141     13133     13145     13133     13134     13135
     13133     13134     13136     13133     13134     13149     13135     13134     13136
     13135     13134     13149     13136     13134     13149     13133     13137     13138
     13133     13137     13139     13133     13137     13140     13138     13137     13139
     13138     13137     13140     13139     13137     13140     13133     13141     13142
     13133     13141     13143     13133     13141     13144     13142     13141     13143
     13142     13141     13144     13143     13141     13144     13133     13145     13146
     13133     13145     13147     13133     13145     13148     13146     13145     13147
     13146     13145     13148     13147     13145     13148     13134     13149     13150
     13134     13149     13151     13134     13149     13155     13150     13149     13151
     13150     13149     13155     13151     13149     13155     13153     13152     13154
     13153     13152     13155     13153     13152     13156     13154     13152     13155
     13154     13152     13156     13155     13152     13156     13149     13155     13152
     13152     13156     13157     13156     13157     13158     13156     13157     13159
     13156     13157     13160     13158     13157     13159     13158     13157     13160
     13159     13157     13160     13157     13160     13161     13157     13160     13162
     13157     13160     13168     13161     13160     13162     13161     13160     13168
     13162     13160     13168     13160     13162     13163     13162     13163     13164
     13162     13163     13165     13164     13163     13165     13163     13165     13166
     13163     13165     13167     13163     13165     13177     13166     13165     13167
     13166     13165     13177     13167     13165     13177     13160     13168     13169
     13160     13168     13170     13160     13168     13171     13169     13168     13170
     13169     13168     13171     13170     13168     13171     13168     13171     13172
     13171     13172     13173     13171     13172     13174     13173     13172     13174
     13172     13174     13175     13172     13174     13176     13172     13174     13224
     13175     13174     13176     13175     13174     13224     13176     13174     13224
     13165     13177     13178     13165     13177     13179     13165     13177     13180
     13178     13177     13179     13178     13177     13180     13179     13177     13180
     13177     13180     13181     13177     13180     13182     13177     13180     13183
     13181     13180     13182     13181     13180     13183     13182     13180     13183
     13180     13183     13184     13180     13183     13185     13180     13183     13186
     13184     13183     13185     13184     13183     13186     13185     13183     13186
     13183     13186     13187     13183     13186     13188     13183     13186     13189
     13187     13186     13188     13187     13186     13189     13188     13186     13189
     13186     13189     13190     13186     13189     13191     13186     13189     13192
     13190     13189     13191     13190     13189     13192     13191     13189     13192
     13189     13192     13193     13189     13192     13194     13189     13192     13195
     13193     13192     13194     13193     13192     13195     13194     13192     13195
     13192     13195     13196     13192     13195     13197     13196     13195     13197
     13195     13197     13198     13195     13197     13199     13198     13197     13199
     13197     13199     13200     13197     13199     13201     13197     13199     13202
     13200     13199     13201     13200     13199     13202     13201     13199     13202
     13199     13202     13203     13199     13202     13204     13199     13202     13205
     13203     13202     13204     13203     13202     13205     13204     13202     13205
     13202     13205     13206     13202     13205     13207     13202     13205     13208
     13206     13205     13207     13206     13205     13208     13207     13205     13208
     13205     13208     13209     13205     13208     13210     13205     13208     13211
     13209     13208     13210     13209     13208     13211     13210     13208     13211
     13208     13211     13212     13208     13211     13213     13208     13211     13214
     13212     13211     13213     13212     13211     13214     13213     13211     13214
     13211     13214     13215     13211     13214     13216     13211     13214     13217
     13215     13214     13216     13215     13214     13217     13216     13214     13217
     13214     13217     13218     13214     13217     13219     13214     13217     13220
     13218     13217     13219     13218     13217     13220     13219     13217     13220
     13217     13220     13221     13217     13220     13222     13217     13220     13223
     13221     13220     13222     13221     13220     13223     13222     13220     13223
     13174     13224     13225     13174     13224     13226     13174     13224     13227
     13225     13224     13226     13225     13224     13227     13226     13224     13227
     13224     13227     13228     13224     13227     13229     13224     13227     13230
     13228     13227     13229     13228     13227     13230     13229     13227     13230
     13227     13230     13231     13227     13230     13232     13227     13230     13233
     13231     13230     13232     13231     13230     13233     13232     13230     13233
     13230     13233     13234     13230     13233     13235     13230     13233     13236
     13234     13233     13235     13234     13233     13236     13235     13233     13236
     13233     13236     13237     13233     13236     13238     13233     13236     13239
     13237     13236     13238     13237     13236     13239     13238     13236     13239
     13236     13239     13240     13236     13239     13241     13236     13239     13242
     13240     13239     13241     13240     13239     13242     13241     13239     13242
     13239     13242     13243     13239     13242     13244     13239     13242     13245
     13243     13242     13244     13243     13242     13245     13244     13242     13245
     13242     13245     13246     13242     13245     13247     13242     13245     13248
     13246     13245     13247     13246     13245     13248     13247     13245     13248
     13245     13248     13249     13245     13248     13250     13245     13248     13251
     13249     13248     13250     13249     13248     13251     13250     13248     13251
     13248     13251     13252     13248     13251     13253     13248     13251     13254
     13252     13251     13253     13252     13251     13254     13253     13251     13254
     13251     13254     13255     13251     13254     13256     13251     13254     13257
     13255     13254     13256     13255     13254     13257     13256     13254     13257
     13254     13257     13258     13254     13257     13259     13254     13257     13260
     13258     13257     13259     13258     13257     13260     13259     13257     13260
     13257     13260     13261     13257     13260     13262     13257     13260     13263
     13261     13260     13262     13261     13260     13263     13262     13260     13263
     13260     13263     13264     13260     13263     13265     13260     13263     13266
     13264     13263     13265     13264     13263     13266     13265     13263     13266
     13268     13267     13271     13268     13267     13275     13268     13267     13279
     13271     13267     13275     13271     13267     13279     13275     13267     13279
     13267     13268     13269     13267     13268     13270     13267     13268     13283
     13269     13268     13270     13269     13268     13283     13270     13268     13283
     13267     13271     13272     13267     13271     13273     13267     13271     13274
     13272     13271     13273     13272     13271     13274     13273     13271     13274
     13267     13275     13276     13267     13275     13277     13267     13275     13278
     13276     13275     13277     13276     13275     13278     13277     13275     13278
     13267     13279     13280     13267     13279     13281     13267     13279     13282
     13280     13279     13281     13280     13279     13282     13281     13279     13282
     13268     13283     13284     13268     13283     13285     13268     13283     13289
     13284     13283     13285     13284     13283     13289     13285     13283     13289
     13287     13286     13288     13287     13286     13289     13287     13286     13290
     13288     13286     13289     13288     13286     13290     13289     13286     13290
     13283     13289     13286     13286     13290     13291     13290     13291     13292
     13290     13291     13293     13290     13291     13294     13292     13291     13293
     13292     13291     13294     13293     13291     13294     13291     13294     13295
     13291     13294     13296     13291     13294     13302     13295     13294     13296
     13295     13294     13302     13296     13294     13302     13294     13296     13297
     13296     13297     13298     13296     13297     13299     13298     13297     13299
     13297     13299     13300     13297     13299     13301     13297     13299     13311
     13300     13299     13301     13300     13299     13311     13301     13299     13311
     13294     13302     13303     13294     13302     13304     13294     13302     13305
     13303     13302     13304     13303     13302     13305     13304     13302     13305
     13302     13305     13306     13305     13306     13307     13305     13306     13308
     13307     13306     13308     13306     13308     13309     13306     13308     13310
     13306     13308     13358     13309     13308     13310     13309     13308     13358
     13310     13308     13358     13299     13311     13312     13299     13311     13313
     13299     13311     13314     13312     13311     13313     13312     13311     13314
     13313     13311     13314     13311     13314     13315     13311     13314     13316
     13311     13314     13317     13315     13314     13316     13315     13314     13317
     13316     13314     13317     13314     13317     13318     13314     13317     13319
     13314     13317     13320     13318     13317     13319     13318     13317     13320
     13319     13317     13320     13317     13320     13321     13317     13320     13322
     13317     13320     13323     13321     13320     13322     13321     13320     13323
     13322     13320     13323     13320     13323     13324     13320     13323     13325
     13320     13323     13326     13324     13323     13325     13324     13323     13326
     13325     13323     13326     13323     13326     13327     13323     13326     13328
     13323     13326     13329     13327     13326     13328     13327     13326     13329
     13328     13326     13329     13326     13329     13330     13326     13329     13331
     13330     13329     13331     13329     13331     13332     13329     13331     13333
     13332     13331     13333     13331     13333     13334     13331     13333     13335
     13331     13333     13336     13334     13333     13335     13334     13333     13336
     13335     13333     13336     13333     13336     13337     13333     13336     13338
     13333     13336     13339     13337     13336     13338     13337     13336     13339
     13338     13336     13339     13336     13339     13340     13336     13339     13341
     13336     13339     13342     13340     13339     13341     13340     13339     13342
     13341     13339     13342     13339     13342     13343     13339     13342     13344
     13339     13342     13345     13343     13342     13344     13343     13342     13345
     13344     13342     13345     13342     13345     13346     13342     13345     13347
     13342     13345     13348     13346     13345     13347     13346     13345     13348
     13347     13345     13348     13345     13348     13349     13345     13348     13350
     13345     13348     13351     13349     13348     13350     13349     13348     13351
     13350     13348     13351     13348     13351     13352     13348     13351     13353
     13348     13351     13354     13352     13351     13353     13352     13351     13354
     13353     13351     13354     13351     13354     13355     13351     13354     13356
     13351     13354     13357     13355     13354     13356     13355     13354     13357
     13356     13354     13357     13308     13358     13359     13308     13358     13360
     13308     13358     13361     13359     13358     13360     13359     13358     13361
     13360     13358     13361     13358     13361     13362     13358     13361     13363
     13358     13361     13364     13362     13361     13363     13362     13361     13364
     13363     13361     13364     13361     13364     13365     13361     13364     13366
     13361     13364     13367     13365     13364     13366     13365     13364     13367
     13366     13364     13367     13364     13367     13368     13364     13367     13369
     13364     13367     13370     13368     13367     13369     13368     13367     13370
     13369     13367     13370     13367     13370     13371     13367     13370     13372
     13367     13370     13373     13371     13370     13372     13371     13370     13373
     13372     13370     13373     13370     13373     13374     13370     13373     13375
     13370     13373     13376     13374     13373     13375     13374     13373     13376
     13375     13373     13376     13373     13376     13377     13373     13376     13378
     13373     13376     13379     13377     13376     13378     13377     13376     13379
     13378     13376     13379     13376     13379     13380     13376     13379     13381
     13376     13379     13382     13380     13379     13381     13380     13379     13382
     13381     13379     13382     13379     13382     13383     13379     13382     13384
     13379     13382     13385     13383     13382     13384     13383     13382     13385
     13384     13382     13385     13382     13385     13386     13382     13385     13387
     13382     13385     13388     13386     13385     13387     13386     13385     13388
     13387     13385     13388     13385     13388     13389     13385     13388     13390
     13385     13388     13391     13389     13388     13390     13389     13388     13391
     13390     13388     13391     13388     13391     13392     13388     13391     13393
     13388     13391     13394     13392     13391     13393     13392     13391     13394
     13393     13391     13394     13391     13394     13395     13391     13394     13396
     13391     13394     13397     13395     13394     13396     13395     13394     13397
     13396     13394     13397     13394     13397     13398     13394     13397     13399
     13394     13397     13400     13398     13397     13399     13398     13397     13400
     13399     13397     13400     13402     13401     13405     13402     13401     13409
     13402     13401     13413     13405     13401     13409     13405     13401     13413
     13409     13401     13413     13401     13402     13403     13401     13402     13404
     13401     13402     13417     13403     13402     13404     13403     13402     13417
     13404     13402     13417     13401     13405     13406     13401     13405     13407
     13401     13405     13408     13406     13405     13407     13406     13405     13408
     13407     13405     13408     13401     13409     13410     13401     13409     13411
     13401     13409     13412     13410     13409     13411     13410     13409     13412
     13411     13409     13412     13401     13413     13414     13401     13413     13415
     13401     13413     13416     13414     13413     13415     13414     13413     13416
     13415     13413     13416     13402     13417     13418     13402     13417     13419
     13402     13417     13423     13418     13417     13419     13418     13417     13423
     13419     13417     13423     13421     13420     13422     13421     13420     13423
     13421     13420     13424     13422     13420     13423     13422     13420     13424
     13423     13420     13424     13417     13423     13420     13420     13424     13425
     13424     13425     13426     13424     13425     13427     13424     13425     13428
     13426     13425     13427     13426     13425     13428     13427     13425     13428
     13425     13428     13429     13425     13428     13430     13425     13428     13436
     13429     13428     13430     13429     13428     13436     13430     13428     13436
     13428     13430     13431     13430     13431     13432     13430     13431     13433
     13432     13431     13433     13431     13433     13434     13431     13433     13435
     13431     13433     13445     13434     13433     13435     13434     13433     13445
     13435     13433     13445     13428     13436     13437     13428     13436     13438
     13428     13436     13439     13437     13436     13438     13437     13436     13439
     13438     13436     13439     13436     13439     13440     13439     13440     13441
     13439     13440     13442     13441     13440     13442     13440     13442     13443
     13440     13442     13444     13440     13442     13492     13443     13442     13444
     13443     13442     13492     13444     13442     13492     13433     13445     13446
     13433     13445     13447     13433     13445     13448     13446     13445     13447
     13446     13445     13448     13447     13445     13448     13445     13448     13449
     13445     13448     13450     13445     13448     13451     13449     13448     13450
     13449     13448     13451     13450     13448     13451     13448     13451     13452
     13448     13451     13453     13448     13451     13454     13452     13451     13453
     13452     13451     13454     13453     13451     13454     13451     13454     13455
     13451     13454     13456     13451     13454     13457     13455     13454     13456
     13455     13454     13457     13456     13454     13457     13454     13457     13458
     13454     13457     13459     13454     13457     13460     13458     13457     13459
     13458     13457     13460     13459     13457     13460     13457     13460     13461
     13457     13460     13462     13457     13460     13463     13461     13460     13462
     13461     13460     13463     13462     13460     13463     13460     13463     13464
     13460     13463     13465     13464     13463     13465     13463     13465     13466
     13463     13465     13467     13466     13465     13467     13465     13467     13468
     13465     13467     13469     13465     13467     13470     13468     13467     13469
     13468     13467     13470     13469     13467     13470     13467     13470     13471
     13467     13470     13472     13467     13470     13473     13471     13470     13472
     13471     13470     13473     13472     13470     13473     13470     13473     13474
     13470     13473     13475     13470     13473     13476     13474     13473     13475
     13474     13473     13476     13475     13473     13476     13473     13476     13477
     13473     13476     13478     13473     13476     13479     13477     13476     13478
     13477     13476     13479     13478     13476     13479     13476     13479     13480
     13476     13479     13481     13476     13479     13482     13480     13479     13481
     13480     13479     13482     13481     13479     13482     13479     13482     13483
     13479     13482     13484     13479     13482     13485     13483     13482     13484
     13483     13482     13485     13484     13482     13485     13482     13485     13486
     13482     13485     13487     13482     13485     13488     13486     13485     13487
     13486     13485     13488     13487     13485     13488     13485     13488     13489
     13485     13488     13490     13485     13488     13491     13489     13488     13490
     13489     13488     13491     13490     13488     13491     13442     13492     13493
     13442     13492     13494     13442     13492     13495     13493     13492     13494
     13493     13492     13495     13494     13492     13495     13492     13495     13496
     13492     13495     13497     13492     13495     13498     13496     13495     13497
     13496     13495     13498     13497     13495     13498     13495     13498     13499
     13495     13498     13500     13495     13498     13501     13499     13498     13500
     13499     13498     13501     13500     13498     13501     13498     13501     13502
     13498     13501     13503     13498     13501     13504     13502     13501     13503
     13502     13501     13504     13503     13501     13504     13501     13504     13505
     13501     13504     13506     13501     13504     13507     13505     13504     13506
     13505     13504     13507     13506     13504     13507     13504     13507     13508
     13504     13507     13509     13504     13507     13510     13508     13507     13509
     13508     13507     13510     13509     13507     13510     13507     13510     13511
     13507     13510     13512     13507     13510     13513     13511     13510     13512
     13511     13510     13513     13512     13510     13513     13510     13513     13514
     13510     13513     13515     13510     13513     13516     13514     13513     13515
     13514     13513     13516     13515     13513     13516     13513     13516     13517
     13513     13516     13518     13513     13516     13519     13517     13516     13518
     13517     13516     13519     13518     13516     13519     13516     13519     13520
     13516     13519     13521     13516     13519     13522     13520     13519     13521
     13520     13519     13522     13521     13519     13522     13519     13522     13523
     13519     13522     13524     13519     13522     13525     13523     13522     13524
     13523     13522     13525     13524     13522     13525     13522     13525     13526
     13522     13525     13527     13522     13525     13528     13526     13525     13527
     13526     13525     13528     13527     13525     13528     13525     13528     13529
     13525     13528     13530     13525     13528     13531     13529     13528     13530
     13529     13528     13531     13530     13528     13531     13528     13531     13532
     13528     13531     13533     13528     13531     13534     13532     13531     13533
     13532     13531     13534     13533     13531     13534     13536     13535     13539
     13536     13535     13543     13536     13535     13547     13539     13535     13543
     13539     13535     13547     13543     13535     13547     13535     13536     13537
     13535     13536     13538     13535     13536     13551     13537     13536     13538
     13537     13536     13551     13538     13536     13551     13535     13539     13540
     13535     13539     13541     13535     13539     13542     13540     13539     13541
     13540     13539     13542     13541     13539     13542     13535     13543     13544
     13535     13543     13545     13535     13543     13546     13544     13543     13545
     13544     13543     13546     13545     13543     13546     13535     13547     13548
     13535     13547     13549     13535     13547     13550     13548     13547     13549
     13548     13547     13550     13549     13547     13550     13536     13551     13552
     13536     13551     13553     13536     13551     13557     13552     13551     13553
     13552     13551     13557     13553     13551     13557     13555     13554     13556
     13555     13554     13557     13555     13554     13558     13556     13554     13557
     13556     13554     13558     13557     13554     13558     13551     13557     13554
     13554     13558     13559     13558     13559     13560     13558     13559     13561
     13558     13559     13562     13560     13559     13561     13560     13559     13562
     13561     13559     13562     13559     13562     13563     13559     13562     13564
     13559     13562     13570     13563     13562     13564     13563     13562     13570
     13564     13562     13570     13562     13564     13565     13564     13565     13566
     13564     13565     13567     13566     13565     13567     13565     13567     13568
     13565     13567     13569     13565     13567     13579     13568     13567     13569
     13568     13567     13579     13569     13567     13579     13562     13570     13571
     13562     13570     13572     13562     13570     13573     13571     13570     13572
     13571     13570     13573     13572     13570     13573     13570     13573     13574
     13573     13574     13575     13573     13574     13576     13575     13574     13576
     13574     13576     13577     13574     13576     13578     13574     13576     13626
     13577     13576     13578     13577     13576     13626     13578     13576     13626
     13567     13579     13580     13567     13579     13581     13567     13579     13582
     13580     13579     13581     13580     13579     13582     13581     13579     13582
     13579     13582     13583     13579     13582     13584     13579     13582     13585
     13583     13582     13584     13583     13582     13585     13584     13582     13585
     13582     13585     13586     13582     13585     13587     13582     13585     13588
     13586     13585     13587     13586     13585     13588     13587     13585     13588
     13585     13588     13589     13585     13588     13590     13585     13588     13591
     13589     13588     13590     13589     13588     13591     13590     13588     13591
     13588     13591     13592     13588     13591     13593     13588     13591     13594
     13592     13591     13593     13592     13591     13594     13593     13591     13594
     13591     13594     13595     13591     13594     13596     13591     13594     13597
     13595     13594     13596     13595     13594     13597     13596     13594     13597
     13594     13597     13598     13594     13597     13599     13598     13597     13599
     13597     13599     13600     13597     13599     13601     13600     13599     13601
     13599     13601     13602     13599     13601     13603     13599     13601     13604
     13602     13601     13603     13602     13601     13604     13603     13601     13604
     13601     13604     13605     13601     13604     13606     13601     13604     13607
     13605     13604     13606     13605     13604     13607     13606     13604     13607
     13604     13607     13608     13604     13607     13609     13604     13607     13610
     13608     13607     13609     13608     13607     13610     13609     13607     13610
     13607     13610     13611     13607     13610     13612     13607     13610     13613
     13611     13610     13612     13611     13610     13613     13612     13610     13613
     13610     13613     13614     13610     13613     13615     13610     13613     13616
     13614     13613     13615     13614     13613     13616     13615     13613     13616
     13613     13616     13617     13613     13616     13618     13613     13616     13619
     13617     13616     13618     13617     13616     13619     13618     13616     13619
     13616     13619     13620     13616     13619     13621     13616     13619     13622
     13620     13619     13621     13620     13619     13622     13621     13619     13622
     13619     13622     13623     13619     13622     13624     13619     13622     13625
     13623     13622     13624     13623     13622     13625     13624     13622     13625
     13576     13626     13627     13576     13626     13628     13576     13626     13629
     13627     13626     13628     13627     13626     13629     13628     13626     13629
     13626     13629     13630     13626     13629     13631     13626     13629     13632
     13630     13629     13631     13630     13629     13632     13631     13629     13632
     13629     13632     13633     13629     13632     13634     13629     13632     13635
     13633     13632     13634     13633     13632     13635     13634     13632     13635
     13632     13635     13636     13632     13635     13637     13632     13635     13638
     13636     13635     13637     13636     13635     13638     13637     13635     13638
     13635     13638     13639     13635     13638     13640     13635     13638     13641
     13639     13638     13640     13639     13638     13641     13640     13638     13641
     13638     13641     13642     13638     13641     13643     13638     13641     13644
     13642     13641     13643     13642     13641     13644     13643     13641     13644
     13641     13644     13645     13641     13644     13646     13641     13644     13647
     13645     13644     13646     13645     13644     13647     13646     13644     13647
     13644     13647     13648     13644     13647     13649     13644     13647     13650
     13648     13647     13649     13648     13647     13650     13649     13647     13650
     13647     13650     13651     13647     13650     13652     13647     13650     13653
     13651     13650     13652     13651     13650     13653     13652     13650     13653
     13650     13653     13654     13650     13653     13655     13650     13653     13656
     13654     13653     13655     13654     13653     13656     13655     13653     13656
     13653     13656     13657     13653     13656     13658     13653     13656     13659
     13657     13656     13658     13657     13656     13659     13658     13656     13659
     13656     13659     13660     13656     13659     13661     13656     13659     13662
     13660     13659     13661     13660     13659     13662     13661     13659     13662
     13659     13662     13663     13659     13662     13664     13659     13662     13665
     13663     13662     13664     13663     13662     13665     13664     13662     13665
     13662     13665     13666     13662     13665     13667     13662     13665     13668
     13666     13665     13667     13666     13665     13668     13667     13665     13668
     13670     13669     13673     13670     13669     13677     13670     13669     13681
     13673     13669     13677     13673     13669     13681     13677     13669     13681
     13669     13670     13671     13669     13670     13672     13669     13670     13685
     13671     13670     13672     13671     13670     13685     13672     13670     13685
     13669     13673     13674     13669     13673     13675     13669     13673     13676
     13674     13673     13675     13674     13673     13676     13675     13673     13676
     13669     13677     13678     13669     13677     13679     13669     13677     13680
     13678     13677     13679     13678     13677     13680     13679     13677     13680
     13669     13681     13682     13669     13681     13683     13669     13681     13684
     13682     13681     13683     13682     13681     13684     13683     13681     13684
     13670     13685     13686     13670     13685     13687     13670     13685     13691
     13686     13685     13687     13686     13685     13691     13687     13685     13691
     13689     13688     13690     13689     13688     13691     13689     13688     13692
     13690     13688     13691     13690     13688     13692     13691     13688     13692
     13685     13691     13688     13688     13692     13693     13692     13693     13694
     13692     13693     13695     13692     13693     13696     13694     13693     13695
     13694     13693     13696     13695     13693     13696     13693     13696     13697
     13693     13696     13698     13693     13696     13704     13697     13696     13698
     13697     13696     13704     13698     13696     13704     13696     13698     13699
     13698     13699     13700     13698     13699     13701     13700     13699     13701
     13699     13701     13702     13699     13701     13703     13699     13701     13713
     13702     13701     13703     13702     13701     13713     13703     13701     13713
     13696     13704     13705     13696     13704     13706     13696     13704     13707
     13705     13704     13706     13705     13704     13707     13706     13704     13707
     13704     13707     13708     13707     13708     13709     13707     13708     13710
     13709     13708     13710     13708     13710     13711     13708     13710     13712
     13708     13710     13760     13711     13710     13712     13711     13710     13760
     13712     13710     13760     13701     13713     13714     13701     13713     13715
     13701     13713     13716     13714     13713     13715     13714     13713     13716
     13715     13713     13716     13713     13716     13717     13713     13716     13718
     13713     13716     13719     13717     13716     13718     13717     13716     13719
     13718     13716     13719     13716     13719     13720     13716     13719     13721
     13716     13719     13722     13720     13719     13721     13720     13719     13722
     13721     13719     13722     13719     13722     13723     13719     13722     13724
     13719     13722     13725     13723     13722     13724     13723     13722     13725
     13724     13722     13725     13722     13725     13726     13722     13725     13727
     13722     13725     13728     13726     13725     13727     13726     13725     13728
     13727     13725     13728     13725     13728     13729     13725     13728     13730
     13725     13728     13731     13729     13728     13730     13729     13728     13731
     13730     13728     13731     13728     13731     13732     13728     13731     13733
     13732     13731     13733     13731     13733     13734     13731     13733     13735
     13734     13733     13735     13733     13735     13736     13733     13735     13737
     13733     13735     13738     13736     13735     13737     13736     13735     13738
     13737     13735     13738     13735     13738     13739     13735     13738     13740
     13735     13738     13741     13739     13738     13740     13739     13738     13741
     13740     13738     13741     13738     13741     13742     13738     13741     13743
     13738     13741     13744     13742     13741     13743     13742     13741     13744
     13743     13741     13744     13741     13744     13745     13741     13744     13746
     13741     13744     13747     13745     13744     13746     13745     13744     13747
     13746     13744     13747     13744     13747     13748     13744     13747     13749
     13744     13747     13750     13748     13747     13749     13748     13747     13750
     13749     13747     13750     13747     13750     13751     13747     13750     13752
     13747     13750     13753     13751     13750     13752     13751     13750     13753
     13752     13750     13753     13750     13753     13754     13750     13753     13755
     13750     13753     13756     13754     13753     13755     13754     13753     13756
     13755     13753     13756     13753     13756     13757     13753     13756     13758
     13753     13756     13759     13757     13756     13758     13757     13756     13759
     13758     13756     13759     13710     13760     13761     13710     13760     13762
     13710     13760     13763     13761     13760     13762     13761     13760     13763
     13762     13760     13763     13760     13763     13764     13760     13763     13765
     13760     13763     13766     13764     13763     13765     13764     13763     13766
     13765     13763     13766     13763     13766     13767     13763     13766     13768
     13763     13766     13769     13767     13766     13768     13767     13766     13769
     13768     13766     13769     13766     13769     13770     13766     13769     13771
     13766     13769     13772     13770     13769     13771     13770     13769     13772
     13771     13769     13772     13769     13772     13773     13769     13772     13774
     13769     13772     13775     13773     13772     13774     13773     13772     13775
     13774     13772     13775     13772     13775     13776     13772     13775     13777
     13772     13775     13778     13776     13775     13777     13776     13775     13778
     13777     13775     13778     13775     13778     13779     13775     13778     13780
     13775     13778     13781     13779     13778     13780     13779     13778     13781
     13780     13778     13781     13778     13781     13782     13778     13781     13783
     13778     13781     13784     13782     13781     13783     13782     13781     13784
     13783     13781     13784     13781     13784     13785     13781     13784     13786
     13781     13784     13787     13785     13784     13786     13785     13784     13787
     13786     13784     13787     13784     13787     13788     13784     13787     13789
     13784     13787     13790     13788     13787     13789     13788     13787     13790
     13789     13787     13790     13787     13790     13791     13787     13790     13792
     13787     13790     13793     13791     13790     13792     13791     13790     13793
     13792     13790     13793     13790     13793     13794     13790     13793     13795
     13790     13793     13796     13794     13793     13795     13794     13793     13796
     13795     13793     13796     13793     13796     13797     13793     13796     13798
     13793     13796     13799     13797     13796     13798     13797     13796     13799
     13798     13796     13799     13796     13799     13800     13796     13799     13801
     13796     13799     13802     13800     13799     13801     13800     13799     13802
     13801     13799     13802     13804     13803     13807     13804     13803     13811
     13804     13803     13815     13807     13803     13811     13807     13803     13815
     13811     13803     13815     13803     13804     13805     13803     13804     13806
     13803     13804     13819     13805     13804     13806     13805     13804     13819
     13806     13804     13819     13803     13807     13808     13803     13807     13809
     13803     13807     13810     13808     13807     13809     13808     13807     13810
     13809     13807     13810     13803     13811     13812     13803     13811     13813
     13803     13811     13814     13812     13811     13813     13812     13811     13814
     13813     13811     13814     13803     13815     13816     13803     13815     13817
     13803     13815     13818     13816     13815     13817     13816     13815     13818
     13817     13815     13818     13804     13819     13820     13804     13819     13821
     13804     13819     13825     13820     13819     13821     13820     13819     13825
     13821     13819     13825     13823     13822     13824     13823     13822     13825
     13823     13822     13826     13824     13822     13825     13824     13822     13826
     13825     13822     13826     13819     13825     13822     13822     13826     13827
     13826     13827     13828     13826     13827     13829     13826     13827     13830
     13828     13827     13829     13828     13827     13830     13829     13827     13830
     13827     13830     13831     13827     13830     13832     13827     13830     13838
     13831     13830     13832     13831     13830     13838     13832     13830     13838
     13830     13832     13833     13832     13833     13834     13832     13833     13835
     13834     13833     13835     13833     13835     13836     13833     13835     13837
     13833     13835     13847     13836     13835     13837     13836     13835     13847
     13837     13835     13847     13830     13838     13839     13830     13838     13840
     13830     13838     13841     13839     13838     13840     13839     13838     13841
     13840     13838     13841     13838     13841     13842     13841     13842     13843
     13841     13842     13844     13843     13842     13844     13842     13844     13845
     13842     13844     13846     13842     13844     13894     13845     13844     13846
     13845     13844     13894     13846     13844     13894     13835     13847     13848
     13835     13847     13849     13835     13847     13850     13848     13847     13849
     13848     13847     13850     13849     13847     13850     13847     13850     13851
     13847     13850     13852     13847     13850     13853     13851     13850     13852
     13851     13850     13853     13852     13850     13853     13850     13853     13854
     13850     13853     13855     13850     13853     13856     13854     13853     13855
     13854     13853     13856     13855     13853     13856     13853     13856     13857
     13853     13856     13858     13853     13856     13859     13857     13856     13858
     13857     13856     13859     13858     13856     13859     13856     13859     13860
     13856     13859     13861     13856     13859     13862     13860     13859     13861
     13860     13859     13862     13861     13859     13862     13859     13862     13863
     13859     13862     13864     13859     13862     13865     13863     13862     13864
     13863     13862     13865     13864     13862     13865     13862     13865     13866
     13862     13865     13867     13866     13865     13867     13865     13867     13868
     13865     13867     13869     13868     13867     13869     13867     13869     13870
     13867     13869     13871     13867     13869     13872     13870     13869     13871
     13870     13869     13872     13871     13869     13872     13869     13872     13873
     13869     13872     13874     13869     13872     13875     13873     13872     13874
     13873     13872     13875     13874     13872     13875     13872     13875     13876
     13872     13875     13877     13872     13875     13878     13876     13875     13877
     13876     13875     13878     13877     13875     13878     13875     13878     13879
     13875     13878     13880     13875     13878     13881     13879     13878     13880
     13879     13878     13881     13880     13878     13881     13878     13881     13882
     13878     13881     13883     13878     13881     13884     13882     13881     13883
     13882     13881     13884     13883     13881     13884     13881     13884     13885
     13881     13884     13886     13881     13884     13887     13885     13884     13886
     13885     13884     13887     13886     13884     13887     13884     13887     13888
     13884     13887     13889     13884     13887     13890     13888     13887     13889
     13888     13887     13890     13889     13887     13890     13887     13890     13891
     13887     13890     13892     13887     13890     13893     13891     13890     13892
     13891     13890     13893     13892     13890     13893     13844     13894     13895
     13844     13894     13896     13844     13894     13897     13895     13894     13896
     13895     13894     13897     13896     13894     13897     13894     13897     13898
     13894     13897     13899     13894     13897     13900     13898     13897     13899
     13898     13897     13900     13899     13897     13900     13897     13900     13901
     13897     13900     13902     13897     13900     13903     13901     13900     13902
     13901     13900     13903     13902     13900     13903     13900     13903     13904
     13900     13903     13905     13900     13903     13906     13904     13903     13905
     13904     13903     13906     13905     13903     13906     13903     13906     13907
     13903     13906     13908     13903     13906     13909     13907     13906     13908
     13907     13906     13909     13908     13906     13909     13906     13909     13910
     13906     13909     13911     13906     13909     13912     13910     13909     13911
     13910     13909     13912     13911     13909     13912     13909     13912     13913
     13909     13912     13914     13909     13912     13915     13913     13912     13914
     13913     13912     13915     13914     13912     13915     13912     13915     13916
     13912     13915     13917     13912     13915     13918     13916     13915     13917
     13916     13915     13918     13917     13915     13918     13915     13918     13919
     13915     13918     13920     13915     13918     13921     13919     13918     13920
     13919     13918     13921     13920     13918     13921     13918     13921     13922
     13918     13921     13923     13918     13921     13924     13922     13921     13923
     13922     13921     13924     13923     13921     13924     13921     13924     13925
     13921     13924     13926     13921     13924     13927     13925     13924     13926
     13925     13924     13927     13926     13924     13927     13924     13927     13928
     13924     13927     13929     13924     13927     13930     13928     13927     13929
     13928     13927     13930     13929     13927     13930     13927     13930     13931
     13927     13930     13932     13927     13930     13933     13931     13930     13932
     13931     13930     13933     13932     13930     13933     13930     13933     13934
     13930     13933     13935     13930     13933     13936     13934     13933     13935
     13934     13933     13936     13935     13933     13936     13938     13937     13941
     13938     13937     13945     13938     13937     13949     13941     13937     13945
     13941     13937     13949     13945     13937     13949     13937     13938     13939
     13937     13938     13940     13937     13938     13953     13939     13938     13940
     13939     13938     13953     13940     13938     13953     13937     13941     13942
     13937     13941     13943     13937     13941     13944     13942     13941     13943
     13942     13941     13944     13943     13941     13944     13937     13945     13946
     13937     13945     13947     13937     13945     13948     13946     13945     13947
     13946     13945     13948     13947     13945     13948     13937     13949     13950
     13937     13949     13951     13937     13949     13952     13950     13949     13951
     13950     13949     13952     13951     13949     13952     13938     13953     13954
     13938     13953     13955     13938     13953     13959     13954     13953     13955
     13954     13953     13959     13955     13953     13959     13957     13956     13958
     13957     13956     13959     13957     13956     13960     13958     13956     13959
     13958     13956     13960     13959     13956     13960     13953     13959     13956
     13956     13960     13961     13960     13961     13962     13960     13961     13963
     13960     13961     13964     13962     13961     13963     13962     13961     13964
     13963     13961     13964     13961     13964     13965     13961     13964     13966
     13961     13964     13972     13965     13964     13966     13965     13964     13972
     13966     13964     13972     13964     13966     13967     13966     13967     13968
     13966     13967     13969     13968     13967     13969     13967     13969     13970
     13967     13969     13971     13967     13969     13981     13970     13969     13971
     13970     13969     13981     13971     13969     13981     13964     13972     13973
     13964     13972     13974     13964     13972     13975     13973     13972     13974
     13973     13972     13975     13974     13972     13975     13972     13975     13976
     13975     13976     13977     13975     13976     13978     13977     13976     13978
     13976     13978     13979     13976     13978     13980     13976     13978     14028
     13979     13978     13980     13979     13978     14028     13980     13978     14028
     13969     13981     13982     13969     13981     13983     13969     13981     13984
     13982     13981     13983     13982     13981     13984     13983     13981     13984
     13981     13984     13985     13981     13984     13986     13981     13984     13987
     13985     13984     13986     13985     13984     13987     13986     13984     13987
     13984     13987     13988     13984     13987     13989     13984     13987     13990
     13988     13987     13989     13988     13987     13990     13989     13987     13990
     13987     13990     13991     13987     13990     13992     13987     13990     13993
     13991     13990     13992     13991     13990     13993     13992     13990     13993
     13990     13993     13994     13990     13993     13995     13990     13993     13996
     13994     13993     13995     13994     13993     13996     13995     13993     13996
     13993     13996     13997     13993     13996     13998     13993     13996     13999
     13997     13996     13998     13997     13996     13999     13998     13996     13999
     13996     13999     14000     13996     13999     14001     14000     13999     14001
     13999     14001     14002     13999     14001     14003     14002     14001     14003
     14001     14003     14004     14001     14003     14005     14001     14003     14006
     14004     14003     14005     14004     14003     14006     14005     14003     14006
     14003     14006     14007     14003     14006     14008     14003     14006     14009
     14007     14006     14008     14007     14006     14009     14008     14006     14009
     14006     14009     14010     14006     14009     14011     14006     14009     14012
     14010     14009     14011     14010     14009     14012     14011     14009     14012
     14009     14012     14013     14009     14012     14014     14009     14012     14015
     14013     14012     14014     14013     14012     14015     14014     14012     14015
     14012     14015     14016     14012     14015     14017     14012     14015     14018
     14016     14015     14017     14016     14015     14018     14017     14015     14018
     14015     14018     14019     14015     14018     14020     14015     14018     14021
     14019     14018     14020     14019     14018     14021     14020     14018     14021
     14018     14021     14022     14018     14021     14023     14018     14021     14024
     14022     14021     14023     14022     14021     14024     14023     14021     14024
     14021     14024     14025     14021     14024     14026     14021     14024     14027
     14025     14024     14026     14025     14024     14027     14026     14024     14027
     13978     14028     14029     13978     14028     14030     13978     14028     14031
     14029     14028     14030     14029     14028     14031     14030     14028     14031
     14028     14031     14032     14028     14031     14033     14028     14031     14034
     14032     14031     14033     14032     14031     14034     14033     14031     14034
     14031     14034     14035     14031     14034     14036     14031     14034     14037
     14035     14034     14036     14035     14034     14037     14036     14034     14037
     14034     14037     14038     14034     14037     14039     14034     14037     14040
     14038     14037     14039     14038     14037     14040     14039     14037     14040
     14037     14040     14041     14037     14040     14042     14037     14040     14043
     14041     14040     14042     14041     14040     14043     14042     14040     14043
     14040     14043     14044     14040     14043     14045     14040     14043     14046
     14044     14043     14045     14044     14043     14046     14045     14043     14046
     14043     14046     14047     14043     14046     14048     14043     14046     14049
     14047     14046     14048     14047     14046     14049     14048     14046     14049
     14046     14049     14050     14046     14049     14051     14046     14049     14052
     14050     14049     14051     14050     14049     14052     14051     14049     14052
     14049     14052     14053     14049     14052     14054     14049     14052     14055
     14053     14052     14054     14053     14052     14055     14054     14052     14055
     14052     14055     14056     14052     14055     14057     14052     14055     14058
     14056     14055     14057     14056     14055     14058     14057     14055     14058
     14055     14058     14059     14055     14058     14060     14055     14058     14061
     14059     14058     14060     14059     14058     14061     14060     14058     14061
     14058     14061     14062     14058     14061     14063     14058     14061     14064
     14062     14061     14063     14062     14061     14064     14063     14061     14064
     14061     14064     14065     14061     14064     14066     14061     14064     14067
     14065     14064     14066     14065     14064     14067     14066     14064     14067
     14064     14067     14068     14064     14067     14069     14064     14067     14070
     14068     14067     14069     14068     14067     14070     14069     14067     14070
     14072     14071     14075     14072     14071     14079     14072     14071     14083
     14075     14071     14079     14075     14071     14083     14079     14071     14083
     14071     14072     14073     14071     14072     14074     14071     14072     14087
     14073     14072     14074     14073     14072     14087     14074     14072     14087
     14071     14075     14076     14071     14075     14077     14071     14075     14078
     14076     14075     14077     14076     14075     14078     14077     14075     14078
     14071     14079     14080     14071     14079     14081     14071     14079     14082
     14080     14079     14081     14080     14079     14082     14081     14079     14082
     14071     14083     14084     14071     14083     14085     14071     14083     14086
     14084     14083     14085     14084     14083     14086     14085     14083     14086
     14072     14087     14088     14072     14087     14089     14072     14087     14093
     14088     14087     14089     14088     14087     14093     14089     14087     14093
     14091     14090     14092     14091     14090     14093     14091     14090     14094
     14092     14090     14093     14092     14090     14094     14093     14090     14094
     14087     14093     14090     14090     14094     14095     14094     14095     14096
     14094     14095     14097     14094     14095     14098     14096     14095     14097
     14096     14095     14098     14097     14095     14098     14095     14098     14099
     14095     14098     14100     14095     14098     14106     14099     14098     14100
     14099     14098     14106     14100     14098     14106     14098     14100     14101
     14100     14101     14102     14100     14101     14103     14102     14101     14103
     14101     14103     14104     14101     14103     14105     14101     14103     14115
     14104     14103     14105     14104     14103     14115     14105     14103     14115
     14098     14106     14107     14098     14106     14108     14098     14106     14109
     14107     14106     14108     14107     14106     14109     14108     14106     14109
     14106     14109     14110     14109     14110     14111     14109     14110     14112
     14111     14110     14112     14110     14112     14113     14110     14112     14114
     14110     14112     14162     14113     14112     14114     14113     14112     14162
     14114     14112     14162     14103     14115     14116     14103     14115     14117
     14103     14115     14118     14116     14115     14117     14116     14115     14118
     14117     14115     14118     14115     14118     14119     14115     14118     14120
     14115     14118     14121     14119     14118     14120     14119     14118     14121
     14120     14118     14121     14118     14121     14122     14118     14121     14123
     14118     14121     14124     14122     14121     14123     14122     14121     14124
     14123     14121     14124     14121     14124     14125     14121     14124     14126
     14121     14124     14127     14125     14124     14126     14125     14124     14127
     14126     14124     14127     14124     14127     14128     14124     14127     14129
     14124     14127     14130     14128     14127     14129     14128     14127     14130
     14129     14127     14130     14127     14130     14131     14127     14130     14132
     14127     14130     14133     14131     14130     14132     14131     14130     14133
     14132     14130     14133     14130     14133     14134     14130     14133     14135
     14134     14133     14135     14133     14135     14136     14133     14135     14137
     14136     14135     14137     14135     14137     14138     14135     14137     14139
     14135     14137     14140     14138     14137     14139     14138     14137     14140
     14139     14137     14140     14137     14140     14141     14137     14140     14142
     14137     14140     14143     14141     14140     14142     14141     14140     14143
     14142     14140     14143     14140     14143     14144     14140     14143     14145
     14140     14143     14146     14144     14143     14145     14144     14143     14146
     14145     14143     14146     14143     14146     14147     14143     14146     14148
     14143     14146     14149     14147     14146     14148     14147     14146     14149
     14148     14146     14149     14146     14149     14150     14146     14149     14151
     14146     14149     14152     14150     14149     14151     14150     14149     14152
     14151     14149     14152     14149     14152     14153     14149     14152     14154
     14149     14152     14155     14153     14152     14154     14153     14152     14155
     14154     14152     14155     14152     14155     14156     14152     14155     14157
     14152     14155     14158     14156     14155     14157     14156     14155     14158
     14157     14155     14158     14155     14158     14159     14155     14158     14160
     14155     14158     14161     14159     14158     14160     14159     14158     14161
     14160     14158     14161     14112     14162     14163     14112     14162     14164
     14112     14162     14165     14163     14162     14164     14163     14162     14165
     14164     14162     14165     14162     14165     14166     14162     14165     14167
     14162     14165     14168     14166     14165     14167     14166     14165     14168
     14167     14165     14168     14165     14168     14169     14165     14168     14170
     14165     14168     14171     14169     14168     14170     14169     14168     14171
     14170     14168     14171     14168     14171     14172     14168     14171     14173
     14168     14171     14174     14172     14171     14173     14172     14171     14174
     14173     14171     14174     14171     14174     14175     14171     14174     14176
     14171     14174     14177     14175     14174     14176     14175     14174     14177
     14176     14174     14177     14174     14177     14178     14174     14177     14179
     14174     14177     14180     14178     14177     14179     14178     14177     14180
     14179     14177     14180     14177     14180     14181     14177     14180     14182
     14177     14180     14183     14181     14180     14182     14181     14180     14183
     14182     14180     14183     14180     14183     14184     14180     14183     14185
     14180     14183     14186     14184     14183     14185     14184     14183     14186
     14185     14183     14186     14183     14186     14187     14183     14186     14188
     14183     14186     14189     14187     14186     14188     14187     14186     14189
     14188     14186     14189     14186     14189     14190     14186     14189     14191
     14186     14189     14192     14190     14189     14191     14190     14189     14192
     14191     14189     14192     14189     14192     14193     14189     14192     14194
     14189     14192     14195     14193     14192     14194     14193     14192     14195
     14194     14192     14195     14192     14195     14196     14192     14195     14197
     14192     14195     14198     14196     14195     14197     14196     14195     14198
     14197     14195     14198     14195     14198     14199     14195     14198     14200
     14195     14198     14201     14199     14198     14200     14199     14198     14201
     14200     14198     14201     14198     14201     14202     14198     14201     14203
     14198     14201     14204     14202     14201     14203     14202     14201     14204
     14203     14201     14204     14206     14205     14209     14206     14205     14213
     14206     14205     14217     14209     14205     14213     14209     14205     14217
     14213     14205     14217     14205     14206     14207     14205     14206     14208
     14205     14206     14221     14207     14206     14208     14207     14206     14221
     14208     14206     14221     14205     14209     14210     14205     14209     14211
     14205     14209     14212     14210     14209     14211     14210     14209     14212
     14211     14209     14212     14205     14213     14214     14205     14213     14215
     14205     14213     14216     14214     14213     14215     14214     14213     14216
     14215     14213     14216     14205     14217     14218     14205     14217     14219
     14205     14217     14220     14218     14217     14219     14218     14217     14220
     14219     14217     14220     14206     14221     14222     14206     14221     14223
     14206     14221     14227     14222     14221     14223     14222     14221     14227
     14223     14221     14227     14225     14224     14226     14225     14224     14227
     14225     14224     14228     14226     14224     14227     14226     14224     14228
     14227     14224     14228     14221     14227     14224     14224     14228     14229
     14228     14229     14230     14228     14229     14231     14228     14229     14232
     14230     14229     14231     14230     14229     14232     14231     14229     14232
     14229     14232     14233     14229     14232     14234     14229     14232     14240
     14233     14232     14234     14233     14232     14240     14234     14232     14240
     14232     14234     14235     14234     14235     14236     14234     14235     14237
     14236     14235     14237     14235     14237     14238     14235     14237     14239
     14235     14237     14249     14238     14237     14239     14238     14237     14249
     14239     14237     14249     14232     14240     14241     14232     14240     14242
     14232     14240     14243     14241     14240     14242     14241     14240     14243
     14242     14240     14243     14240     14243     14244     14243     14244     14245
     14243     14244     14246     14245     14244     14246     14244     14246     14247
     14244     14246     14248     14244     14246     14296     14247     14246     14248
     14247     14246     14296     14248     14246     14296     14237     14249     14250
     14237     14249     14251     14237     14249     14252     14250     14249     14251
     14250     14249     14252     14251     14249     14252     14249     14252     14253
     14249     14252     14254     14249     14252     14255     14253     14252     14254
     14253     14252     14255     14254     14252     14255     14252     14255     14256
     14252     14255     14257     14252     14255     14258     14256     14255     14257
     14256     14255     14258     14257     14255     14258     14255     14258     14259
     14255     14258     14260     14255     14258     14261     14259     14258     14260
     14259     14258     14261     14260     14258     14261     14258     14261     14262
     14258     14261     14263     14258     14261     14264     14262     14261     14263
     14262     14261     14264     14263     14261     14264     14261     14264     14265
     14261     14264     14266     14261     14264     14267     14265     14264     14266
     14265     14264     14267     14266     14264     14267     14264     14267     14268
     14264     14267     14269     14268     14267     14269     14267     14269     14270
     14267     14269     14271     14270     14269     14271     14269     14271     14272
     14269     14271     14273     14269     14271     14274     14272     14271     14273
     14272     14271     14274     14273     14271     14274     14271     14274     14275
     14271     14274     14276     14271     14274     14277     14275     14274     14276
     14275     14274     14277     14276     14274     14277     14274     14277     14278
     14274     14277     14279     14274     14277     14280     14278     14277     14279
     14278     14277     14280     14279     14277     14280     14277     14280     14281
     14277     14280     14282     14277     14280     14283     14281     14280     14282
     14281     14280     14283     14282     14280     14283     14280     14283     14284
     14280     14283     14285     14280     14283     14286     14284     14283     14285
     14284     14283     14286     14285     14283     14286     14283     14286     14287
     14283     14286     14288     14283     14286     14289     14287     14286     14288
     14287     14286     14289     14288     14286     14289     14286     14289     14290
     14286     14289     14291     14286     14289     14292     14290     14289     14291
     14290     14289     14292     14291     14289     14292     14289     14292     14293
     14289     14292     14294     14289     14292     14295     14293     14292     14294
     14293     14292     14295     14294     14292     14295     14246     14296     14297
     14246     14296     14298     14246     14296     14299     14297     14296     14298
     14297     14296     14299     14298     14296     14299     14296     14299     14300
     14296     14299     14301     14296     14299     14302     14300     14299     14301
     14300     14299     14302     14301     14299     14302     14299     14302     14303
     14299     14302     14304     14299     14302     14305     14303     14302     14304
     14303     14302     14305     14304     14302     14305     14302     14305     14306
     14302     14305     14307     14302     14305     14308     14306     14305     14307
     14306     14305     14308     14307     14305     14308     14305     14308     14309
     14305     14308     14310     14305     14308     14311     14309     14308     14310
     14309     14308     14311     14310     14308     14311     14308     14311     14312
     14308     14311     14313     14308     14311     14314     14312     14311     14313
     14312     14311     14314     14313     14311     14314     14311     14314     14315
     14311     14314     14316     14311     14314     14317     14315     14314     14316
     14315     14314     14317     14316     14314     14317     14314     14317     14318
     14314     14317     14319     14314     14317     14320     14318     14317     14319
     14318     14317     14320     14319     14317     14320     14317     14320     14321
     14317     14320     14322     14317     14320     14323     14321     14320     14322
     14321     14320     14323     14322     14320     14323     14320     14323     14324
     14320     14323     14325     14320     14323     14326     14324     14323     14325
     14324     14323     14326     14325     14323     14326     14323     14326     14327
     14323     14326     14328     14323     14326     14329     14327     14326     14328
     14327     14326     14329     14328     14326     14329     14326     14329     14330
     14326     14329     14331     14326     14329     14332     14330     14329     14331
     14330     14329     14332     14331     14329     14332     14329     14332     14333
     14329     14332     14334     14329     14332     14335     14333     14332     14334
     14333     14332     14335     14334     14332     14335     14332     14335     14336
     14332     14335     14337     14332     14335     14338     14336     14335     14337
     14336     14335     14338     14337     14335     14338     14340     14339     14343
     14340     14339     14347     14340     14339     14351     14343     14339     14347
     14343     14339     14351     14347     14339     14351     14339     14340     14341
     14339     14340     14342     14339     14340     14355     14341     14340     14342
     14341     14340     14355     14342     14340     14355     14339     14343     14344
     14339     14343     14345     14339     14343     14346     14344     14343     14345
     14344     14343     14346     14345     14343     14346     14339     14347     14348
     14339     14347     14349     14339     14347     14350     14348     14347     14349
     14348     14347     14350     14349     14347     14350     14339     14351     14352
     14339     14351     14353     14339     14351     14354     14352     14351     14353
     14352     14351     14354     14353     14351     14354     14340     14355     14356
     14340     14355     14357     14340     14355     14361     14356     14355     14357
     14356     14355     14361     14357     14355     14361     14359     14358     14360
     14359     14358     14361     14359     14358     14362     14360     14358     14361
     14360     14358     14362     14361     14358     14362     14355     14361     14358
     14358     14362     14363     14362     14363     14364     14362     14363     14365
     14362     14363     14366     14364     14363     14365     14364     14363     14366
     14365     14363     14366     14363     14366     14367     14363     14366     14368
     14363     14366     14374     14367     14366     14368     14367     14366     14374
     14368     14366     14374     14366     14368     14369     14368     14369     14370
     14368     14369     14371     14370     14369     14371     14369     14371     14372
     14369     14371     14373     14369     14371     14383     14372     14371     14373
     14372     14371     14383     14373     14371     14383     14366     14374     14375
     14366     14374     14376     14366     14374     14377     14375     14374     14376
     14375     14374     14377     14376     14374     14377     14374     14377     14378
     14377     14378     14379     14377     14378     14380     14379     14378     14380
     14378     14380     14381     14378     14380     14382     14378     14380     14430
     14381     14380     14382     14381     14380     14430     14382     14380     14430
     14371     14383     14384     14371     14383     14385     14371     14383     14386
     14384     14383     14385     14384     14383     14386     14385     14383     14386
     14383     14386     14387     14383     14386     14388     14383     14386     14389
     14387     14386     14388     14387     14386     14389     14388     14386     14389
     14386     14389     14390     14386     14389     14391     14386     14389     14392
     14390     14389     14391     14390     14389     14392     14391     14389     14392
     14389     14392     14393     14389     14392     14394     14389     14392     14395
     14393     14392     14394     14393     14392     14395     14394     14392     14395
     14392     14395     14396     14392     14395     14397     14392     14395     14398
     14396     14395     14397     14396     14395     14398     14397     14395     14398
     14395     14398     14399     14395     14398     14400     14395     14398     14401
     14399     14398     14400     14399     14398     14401     14400     14398     14401
     14398     14401     14402     14398     14401     14403     14402     14401     14403
     14401     14403     14404     14401     14403     14405     14404     14403     14405
     14403     14405     14406     14403     14405     14407     14403     14405     14408
     14406     14405     14407     14406     14405     14408     14407     14405     14408
     14405     14408     14409     14405     14408     14410     14405     14408     14411
     14409     14408     14410     14409     14408     14411     14410     14408     14411
     14408     14411     14412     14408     14411     14413     14408     14411     14414
     14412     14411     14413     14412     14411     14414     14413     14411     14414
     14411     14414     14415     14411     14414     14416     14411     14414     14417
     14415     14414     14416     14415     14414     14417     14416     14414     14417
     14414     14417     14418     14414     14417     14419     14414     14417     14420
     14418     14417     14419     14418     14417     14420     14419     14417     14420
     14417     14420     14421     14417     14420     14422     14417     14420     14423
     14421     14420     14422     14421     14420     14423     14422     14420     14423
     14420     14423     14424     14420     14423     14425     14420     14423     14426
     14424     14423     14425     14424     14423     14426     14425     14423     14426
     14423     14426     14427     14423     14426     14428     14423     14426     14429
     14427     14426     14428     14427     14426     14429     14428     14426     14429
     14380     14430     14431     14380     14430     14432     14380     14430     14433
     14431     14430     14432     14431     14430     14433     14432     14430     14433
     14430     14433     14434     14430     14433     14435     14430     14433     14436
     14434     14433     14435     14434     14433     14436     14435     14433     14436
     14433     14436     14437     14433     14436     14438     14433     14436     14439
     14437     14436     14438     14437     14436     14439     14438     14436     14439
     14436     14439     14440     14436     14439     14441     14436     14439     14442
     14440     14439     14441     14440     14439     14442     14441     14439     14442
     14439     14442     14443     14439     14442     14444     14439     14442     14445
     14443     14442     14444     14443     14442     14445     14444     14442     14445
     14442     14445     14446     14442     14445     14447     14442     14445     14448
     14446     14445     14447     14446     14445     14448     14447     14445     14448
     14445     14448     14449     14445     14448     14450     14445     14448     14451
     14449     14448     14450     14449     14448     14451     14450     14448     14451
     14448     14451     14452     14448     14451     14453     14448     14451     14454
     14452     14451     14453     14452     14451     14454     14453     14451     14454
     14451     14454     14455     14451     14454     14456     14451     14454     14457
     14455     14454     14456     14455     14454     14457     14456     14454     14457
     14454     14457     14458     14454     14457     14459     14454     14457     14460
     14458     14457     14459     14458     14457     14460     14459     14457     14460
     14457     14460     14461     14457     14460     14462     14457     14460     14463
     14461     14460     14462     14461     14460     14463     14462     14460     14463
     14460     14463     14464     14460     14463     14465     14460     14463     14466
     14464     14463     14465     14464     14463     14466     14465     14463     14466
     14463     14466     14467     14463     14466     14468     14463     14466     14469
     14467     14466     14468     14467     14466     14469     14468     14466     14469
     14466     14469     14470     14466     14469     14471     14466     14469     14472
     14470     14469     14471     14470     14469     14472     14471     14469     14472
     14474     14473     14477     14474     14473     14481     14474     14473     14485
     14477     14473     14481     14477     14473     14485     14481     14473     14485
     14473     14474     14475     14473     14474     14476     14473     14474     14489
     14475     14474     14476     14475     14474     14489     14476     14474     14489
     14473     14477     14478     14473     14477     14479     14473     14477     14480
     14478     14477     14479     14478     14477     14480     14479     14477     14480
     14473     14481     14482     14473     14481     14483     14473     14481     14484
     14482     14481     14483     14482     14481     14484     14483     14481     14484
     14473     14485     14486     14473     14485     14487     14473     14485     14488
     14486     14485     14487     14486     14485     14488     14487     14485     14488
     14474     14489     14490     14474     14489     14491     14474     14489     14495
     14490     14489     14491     14490     14489     14495     14491     14489     14495
     14493     14492     14494     14493     14492     14495     14493     14492     14496
     14494     14492     14495     14494     14492     14496     14495     14492     14496
     14489     14495     14492     14492     14496     14497     14496     14497     14498
     14496     14497     14499     14496     14497     14500     14498     14497     14499
     14498     14497     14500     14499     14497     14500     14497     14500     14501
     14497     14500     14502     14497     14500     14508     14501     14500     14502
     14501     14500     14508     14502     14500     14508     14500     14502     14503
     14502     14503     14504     14502     14503     14505     14504     14503     14505
     14503     14505     14506     14503     14505     14507     14503     14505     14517
     14506     14505     14507     14506     14505     14517     14507     14505     14517
     14500     14508     14509     14500     14508     14510     14500     14508     14511
     14509     14508     14510     14509     14508     14511     14510     14508     14511
     14508     14511     14512     14511     14512     14513     14511     14512     14514
     14513     14512     14514     14512     14514     14515     14512     14514     14516
     14512     14514     14564     14515     14514     14516     14515     14514     14564
     14516     14514     14564     14505     14517     14518     14505     14517     14519
     14505     14517     14520     14518     14517     14519     14518     14517     14520
     14519     14517     14520     14517     14520     14521     14517     14520     14522
     14517     14520     14523     14521     14520     14522     14521     14520     14523
     14522     14520     14523     14520     14523     14524     14520     14523     14525
     14520     14523     14526     14524     14523     14525     14524     14523     14526
     14525     14523     14526     14523     14526     14527     14523     14526     14528
     14523     14526     14529     14527     14526     14528     14527     14526     14529
     14528     14526     14529     14526     14529     14530     14526     14529     14531
     14526     14529     14532     14530     14529     14531     14530     14529     14532
     14531     14529     14532     14529     14532     14533     14529     14532     14534
     14529     14532     14535     14533     14532     14534     14533     14532     14535
     14534     14532     14535     14532     14535     14536     14532     14535     14537
     14536     14535     14537     14535     14537     14538     14535     14537     14539
     14538     14537     14539     14537     14539     14540     14537     14539     14541
     14537     14539     14542     14540     14539     14541     14540     14539     14542
     14541     14539     14542     14539     14542     14543     14539     14542     14544
     14539     14542     14545     14543     14542     14544     14543     14542     14545
     14544     14542     14545     14542     14545     14546     14542     14545     14547
     14542     14545     14548     14546     14545     14547     14546     14545     14548
     14547     14545     14548     14545     14548     14549     14545     14548     14550
     14545     14548     14551     14549     14548     14550     14549     14548     14551
     14550     14548     14551     14548     14551     14552     14548     14551     14553
     14548     14551     14554     14552     14551     14553     14552     14551     14554
     14553     14551     14554     14551     14554     14555     14551     14554     14556
     14551     14554     14557     14555     14554     14556     14555     14554     14557
     14556     14554     14557     14554     14557     14558     14554     14557     14559
     14554     14557     14560     14558     14557     14559     14558     14557     14560
     14559     14557     14560     14557     14560     14561     14557     14560     14562
     14557     14560     14563     14561     14560     14562     14561     14560     14563
     14562     14560     14563     14514     14564     14565     14514     14564     14566
     14514     14564     14567     14565     14564     14566     14565     14564     14567
     14566     14564     14567     14564     14567     14568     14564     14567     14569
     14564     14567     14570     14568     14567     14569     14568     14567     14570
     14569     14567     14570     14567     14570     14571     14567     14570     14572
     14567     14570     14573     14571     14570     14572     14571     14570     14573
     14572     14570     14573     14570     14573     14574     14570     14573     14575
     14570     14573     14576     14574     14573     14575     14574     14573     14576
     14575     14573     14576     14573     14576     14577     14573     14576     14578
     14573     14576     14579     14577     14576     14578     14577     14576     14579
     14578     14576     14579     14576     14579     14580     14576     14579     14581
     14576     14579     14582     14580     14579     14581     14580     14579     14582
     14581     14579     14582     14579     14582     14583     14579     14582     14584
     14579     14582     14585     14583     14582     14584     14583     14582     14585
     14584     14582     14585     14582     14585     14586     14582     14585     14587
     14582     14585     14588     14586     14585     14587     14586     14585     14588
     14587     14585     14588     14585     14588     14589     14585     14588     14590
     14585     14588     14591     14589     14588     14590     14589     14588     14591
     14590     14588     14591     14588     14591     14592     14588     14591     14593
     14588     14591     14594     14592     14591     14593     14592     14591     14594
     14593     14591     14594     14591     14594     14595     14591     14594     14596
     14591     14594     14597     14595     14594     14596     14595     14594     14597
     14596     14594     14597     14594     14597     14598     14594     14597     14599
     14594     14597     14600     14598     14597     14599     14598     14597     14600
     14599     14597     14600     14597     14600     14601     14597     14600     14602
     14597     14600     14603     14601     14600     14602     14601     14600     14603
     14602     14600     14603     14600     14603     14604     14600     14603     14605
     14600     14603     14606     14604     14603     14605     14604     14603     14606
     14605     14603     14606     14608     14607     14611     14608     14607     14615
     14608     14607     14619     14611     14607     14615     14611     14607     14619
     14615     14607     14619     14607     14608     14609     14607     14608     14610
     14607     14608     14623     14609     14608     14610     14609     14608     14623
     14610     14608     14623     14607     14611     14612     14607     14611     14613
     14607     14611     14614     14612     14611     14613     14612     14611     14614
     14613     14611     14614     14607     14615     14616     14607     14615     14617
     14607     14615     14618     14616     14615     14617     14616     14615     14618
     14617     14615     14618     14607     14619     14620     14607     14619     14621
     14607     14619     14622     14620     14619     14621     14620     14619     14622
     14621     14619     14622     14608     14623     14624     14608     14623     14625
     14608     14623     14629     14624     14623     14625     14624     14623     14629
     14625     14623     14629     14627     14626     14628     14627     14626     14629
     14627     14626     14630     14628     14626     14629     14628     14626     14630
     14629     14626     14630     14623     14629     14626     14626     14630     14631
     14630     14631     14632     14630     14631     14633     14630     14631     14634
     14632     14631     14633     14632     14631     14634     14633     14631     14634
     14631     14634     14635     14631     14634     14636     14631     14634     14642
     14635     14634     14636     14635     14634     14642     14636     14634     14642
     14634     14636     14637     14636     14637     14638     14636     14637     14639
     14638     14637     14639     14637     14639     14640     14637     14639     14641
     14637     14639     14651     14640     14639     14641     14640     14639     14651
     14641     14639     14651     14634     14642     14643     14634     14642     14644
     14634     14642     14645     14643     14642     14644     14643     14642     14645
     14644     14642     14645     14642     14645     14646     14645     14646     14647
     14645     14646     14648     14647     14646     14648     14646     14648     14649
     14646     14648     14650     14646     14648     14698     14649     14648     14650
     14649     14648     14698     14650     14648     14698     14639     14651     14652
     14639     14651     14653     14639     14651     14654     14652     14651     14653
     14652     14651     14654     14653     14651     14654     14651     14654     14655
     14651     14654     14656     14651     14654     14657     14655     14654     14656
     14655     14654     14657     14656     14654     14657     14654     14657     14658
     14654     14657     14659     14654     14657     14660     14658     14657     14659
     14658     14657     14660     14659     14657     14660     14657     14660     14661
     14657     14660     14662     14657     14660     14663     14661     14660     14662
     14661     14660     14663     14662     14660     14663     14660     14663     14664
     14660     14663     14665     14660     14663     14666     14664     14663     14665
     14664     14663     14666     14665     14663     14666     14663     14666     14667
     14663     14666     14668     14663     14666     14669     14667     14666     14668
     14667     14666     14669     14668     14666     14669     14666     14669     14670
     14666     14669     14671     14670     14669     14671     14669     14671     14672
     14669     14671     14673     14672     14671     14673     14671     14673     14674
     14671     14673     14675     14671     14673     14676     14674     14673     14675
     14674     14673     14676     14675     14673     14676     14673     14676     14677
     14673     14676     14678     14673     14676     14679     14677     14676     14678
     14677     14676     14679     14678     14676     14679     14676     14679     14680
     14676     14679     14681     14676     14679     14682     14680     14679     14681
     14680     14679     14682     14681     14679     14682     14679     14682     14683
     14679     14682     14684     14679     14682     14685     14683     14682     14684
     14683     14682     14685     14684     14682     14685     14682     14685     14686
     14682     14685     14687     14682     14685     14688     14686     14685     14687
     14686     14685     14688     14687     14685     14688     14685     14688     14689
     14685     14688     14690     14685     14688     14691     14689     14688     14690
     14689     14688     14691     14690     14688     14691     14688     14691     14692
     14688     14691     14693     14688     14691     14694     14692     14691     14693
     14692     14691     14694     14693     14691     14694     14691     14694     14695
     14691     14694     14696     14691     14694     14697     14695     14694     14696
     14695     14694     14697     14696     14694     14697     14648     14698     14699
     14648     14698     14700     14648     14698     14701     14699     14698     14700
     14699     14698     14701     14700     14698     14701     14698     14701     14702
     14698     14701     14703     14698     14701     14704     14702     14701     14703
     14702     14701     14704     14703     14701     14704     14701     14704     14705
     14701     14704     14706     14701     14704     14707     14705     14704     14706
     14705     14704     14707     14706     14704     14707     14704     14707     14708
     14704     14707     14709     14704     14707     14710     14708     14707     14709
     14708     14707     14710     14709     14707     14710     14707     14710     14711
     14707     14710     14712     14707     14710     14713     14711     14710     14712
     14711     14710     14713     14712     14710     14713     14710     14713     14714
     14710     14713     14715     14710     14713     14716     14714     14713     14715
     14714     14713     14716     14715     14713     14716     14713     14716     14717
     14713     14716     14718     14713     14716     14719     14717     14716     14718
     14717     14716     14719     14718     14716     14719     14716     14719     14720
     14716     14719     14721     14716     14719     14722     14720     14719     14721
     14720     14719     14722     14721     14719     14722     14719     14722     14723
     14719     14722     14724     14719     14722     14725     14723     14722     14724
     14723     14722     14725     14724     14722     14725     14722     14725     14726
     14722     14725     14727     14722     14725     14728     14726     14725     14727
     14726     14725     14728     14727     14725     14728     14725     14728     14729
     14725     14728     14730     14725     14728     14731     14729     14728     14730
     14729     14728     14731     14730     14728     14731     14728     14731     14732
     14728     14731     14733     14728     14731     14734     14732     14731     14733
     14732     14731     14734     14733     14731     14734     14731     14734     14735
     14731     14734     14736     14731     14734     14737     14735     14734     14736
     14735     14734     14737     14736     14734     14737     14734     14737     14738
     14734     14737     14739     14734     14737     14740     14738     14737     14739
     14738     14737     14740     14739     14737     14740     14742     14741     14745
     14742     14741     14749     14742     14741     14753     14745     14741     14749
     14745     14741     14753     14749     14741     14753     14741     14742     14743
     14741     14742     14744     14741     14742     14757     14743     14742     14744
     14743     14742     14757     14744     14742     14757     14741     14745     14746
     14741     14745     14747     14741     14745     14748     14746     14745     14747
     14746     14745     14748     14747     14745     14748     14741     14749     14750
     14741     14749     14751     14741     14749     14752     14750     14749     14751
     14750     14749     14752     14751     14749     14752     14741     14753     14754
     14741     14753     14755     14741     14753     14756     14754     14753     14755
     14754     14753     14756     14755     14753     14756     14742     14757     14758
     14742     14757     14759     14742     14757     14763     14758     14757     14759
     14758     14757     14763     14759     14757     14763     14761     14760     14762
     14761     14760     14763     14761     14760     14764     14762     14760     14763
     14762     14760     14764     14763     14760     14764     14757     14763     14760
     14760     14764     14765     14764     14765     14766     14764     14765     14767
     14764     14765     14768     14766     14765     14767     14766     14765     14768
     14767     14765     14768     14765     14768     14769     14765     14768     14770
     14765     14768     14776     14769     14768     14770     14769     14768     14776
     14770     14768     14776     14768     14770     14771     14770     14771     14772
     14770     14771     14773     14772     14771     14773     14771     14773     14774
     14771     14773     14775     14771     14773     14785     14774     14773     14775
     14774     14773     14785     14775     14773     14785     14768     14776     14777
     14768     14776     14778     14768     14776     14779     14777     14776     14778
     14777     14776     14779     14778     14776     14779     14776     14779     14780
     14779     14780     14781     14779     14780     14782     14781     14780     14782
     14780     14782     14783     14780     14782     14784     14780     14782     14832
     14783     14782     14784     14783     14782     14832     14784     14782     14832
     14773     14785     14786     14773     14785     14787     14773     14785     14788
     14786     14785     14787     14786     14785     14788     14787     14785     14788
     14785     14788     14789     14785     14788     14790     14785     14788     14791
     14789     14788     14790     14789     14788     14791     14790     14788     14791
     14788     14791     14792     14788     14791     14793     14788     14791     14794
     14792     14791     14793     14792     14791     14794     14793     14791     14794
     14791     14794     14795     14791     14794     14796     14791     14794     14797
     14795     14794     14796     14795     14794     14797     14796     14794     14797
     14794     14797     14798     14794     14797     14799     14794     14797     14800
     14798     14797     14799     14798     14797     14800     14799     14797     14800
     14797     14800     14801     14797     14800     14802     14797     14800     14803
     14801     14800     14802     14801     14800     14803     14802     14800     14803
     14800     14803     14804     14800     14803     14805     14804     14803     14805
     14803     14805     14806     14803     14805     14807     14806     14805     14807
     14805     14807     14808     14805     14807     14809     14805     14807     14810
     14808     14807     14809     14808     14807     14810     14809     14807     14810
     14807     14810     14811     14807     14810     14812     14807     14810     14813
     14811     14810     14812     14811     14810     14813     14812     14810     14813
     14810     14813     14814     14810     14813     14815     14810     14813     14816
     14814     14813     14815     14814     14813     14816     14815     14813     14816
     14813     14816     14817     14813     14816     14818     14813     14816     14819
     14817     14816     14818     14817     14816     14819     14818     14816     14819
     14816     14819     14820     14816     14819     14821     14816     14819     14822
     14820     14819     14821     14820     14819     14822     14821     14819     14822
     14819     14822     14823     14819     14822     14824     14819     14822     14825
     14823     14822     14824     14823     14822     14825     14824     14822     14825
     14822     14825     14826     14822     14825     14827     14822     14825     14828
     14826     14825     14827     14826     14825     14828     14827     14825     14828
     14825     14828     14829     14825     14828     14830     14825     14828     14831
     14829     14828     14830     14829     14828     14831     14830     14828     14831
     14782     14832     14833     14782     14832     14834     14782     14832     14835
     14833     14832     14834     14833     14832     14835     14834     14832     14835
     14832     14835     14836     14832     14835     14837     14832     14835     14838
     14836     14835     14837     14836     14835     14838     14837     14835     14838
     14835     14838     14839     14835     14838     14840     14835     14838     14841
     14839     14838     14840     14839     14838     14841     14840     14838     14841
     14838     14841     14842     14838     14841     14843     14838     14841     14844
     14842     14841     14843     14842     14841     14844     14843     14841     14844
     14841     14844     14845     14841     14844     14846     14841     14844     14847
     14845     14844     14846     14845     14844     14847     14846     14844     14847
     14844     14847     14848     14844     14847     14849     14844     14847     14850
     14848     14847     14849     14848     14847     14850     14849     14847     14850
     14847     14850     14851     14847     14850     14852     14847     14850     14853
     14851     14850     14852     14851     14850     14853     14852     14850     14853
     14850     14853     14854     14850     14853     14855     14850     14853     14856
     14854     14853     14855     14854     14853     14856     14855     14853     14856
     14853     14856     14857     14853     14856     14858     14853     14856     14859
     14857     14856     14858     14857     14856     14859     14858     14856     14859
     14856     14859     14860     14856     14859     14861     14856     14859     14862
     14860     14859     14861     14860     14859     14862     14861     14859     14862
     14859     14862     14863     14859     14862     14864     14859     14862     14865
     14863     14862     14864     14863     14862     14865     14864     14862     14865
     14862     14865     14866     14862     14865     14867     14862     14865     14868
     14866     14865     14867     14866     14865     14868     14867     14865     14868
     14865     14868     14869     14865     14868     14870     14865     14868     14871
     14869     14868     14870     14869     14868     14871     14870     14868     14871
     14868     14871     14872     14868     14871     14873     14868     14871     14874
     14872     14871     14873     14872     14871     14874     14873     14871     14874
     14876     14875     14879     14876     14875     14883     14876     14875     14887
     14879     14875     14883     14879     14875     14887     14883     14875     14887
     14875     14876     14877     14875     14876     14878     14875     14876     14891
     14877     14876     14878     14877     14876     14891     14878     14876     14891
     14875     14879     14880     14875     14879     14881     14875     14879     14882
     14880     14879     14881     14880     14879     14882     14881     14879     14882
     14875     14883     14884     14875     14883     14885     14875     14883     14886
     14884     14883     14885     14884     14883     14886     14885     14883     14886
     14875     14887     14888     14875     14887     14889     14875     14887     14890
     14888     14887     14889     14888     14887     14890     14889     14887     14890
     14876     14891     14892     14876     14891     14893     14876     14891     14897
     14892     14891     14893     14892     14891     14897     14893     14891     14897
     14895     14894     14896     14895     14894     14897     14895     14894     14898
     14896     14894     14897     14896     14894     14898     14897     14894     14898
     14891     14897     14894     14894     14898     14899     14898     14899     14900
     14898     14899     14901     14898     14899     14902     14900     14899     14901
     14900     14899     14902     14901     14899     14902     14899     14902     14903
     14899     14902     14904     14899     14902     14910     14903     14902     14904
     14903     14902     14910     14904     14902     14910     14902     14904     14905
     14904     14905     14906     14904     14905     14907     14906     14905     14907
     14905     14907     14908     14905     14907     14909     14905     14907     14919
     14908     14907     14909     14908     14907     14919     14909     14907     14919
     14902     14910     14911     14902     14910     14912     14902     14910     14913
     14911     14910     14912     14911     14910     14913     14912     14910     14913
     14910     14913     14914     14913     14914     14915     14913     14914     14916
     14915     14914     14916     14914     14916     14917     14914     14916     14918
     14914     14916     14966     14917     14916     14918     14917     14916     14966
     14918     14916     14966     14907     14919     14920     14907     14919     14921
     14907     14919     14922     14920     14919     14921     14920     14919     14922
     14921     14919     14922     14919     14922     14923     14919     14922     14924
     14919     14922     14925     14923     14922     14924     14923     14922     14925
     14924     14922     14925     14922     14925     14926     14922     14925     14927
     14922     14925     14928     14926     14925     14927     14926     14925     14928
     14927     14925     14928     14925     14928     14929     14925     14928     14930
     14925     14928     14931     14929     14928     14930     14929     14928     14931
     14930     14928     14931     14928     14931     14932     14928     14931     14933
     14928     14931     14934     14932     14931     14933     14932     14931     14934
     14933     14931     14934     14931     14934     14935     14931     14934     14936
     14931     14934     14937     14935     14934     14936     14935     14934     14937
     14936     14934     14937     14934     14937     14938     14934     14937     14939
     14938     14937     14939     14937     14939     14940     14937     14939     14941
     14940     14939     14941     14939     14941     14942     14939     14941     14943
     14939     14941     14944     14942     14941     14943     14942     14941     14944
     14943     14941     14944     14941     14944     14945     14941     14944     14946
     14941     14944     14947     14945     14944     14946     14945     14944     14947
     14946     14944     14947     14944     14947     14948     14944     14947     14949
     14944     14947     14950     14948     14947     14949     14948     14947     14950
     14949     14947     14950     14947     14950     14951     14947     14950     14952
     14947     14950     14953     14951     14950     14952     14951     14950     14953
     14952     14950     14953     14950     14953     14954     14950     14953     14955
     14950     14953     14956     14954     14953     14955     14954     14953     14956
     14955     14953     14956     14953     14956     14957     14953     14956     14958
     14953     14956     14959     14957     14956     14958     14957     14956     14959
     14958     14956     14959     14956     14959     14960     14956     14959     14961
     14956     14959     14962     14960     14959     14961     14960     14959     14962
     14961     14959     14962     14959     14962     14963     14959     14962     14964
     14959     14962     14965     14963     14962     14964     14963     14962     14965
     14964     14962     14965     14916     14966     14967     14916     14966     14968
     14916     14966     14969     14967     14966     14968     14967     14966     14969
     14968     14966     14969     14966     14969     14970     14966     14969     14971
     14966     14969     14972     14970     14969     14971     14970     14969     14972
     14971     14969     14972     14969     14972     14973     14969     14972     14974
     14969     14972     14975     14973     14972     14974     14973     14972     14975
     14974     14972     14975     14972     14975     14976     14972     14975     14977
     14972     14975     14978     14976     14975     14977     14976     14975     14978
     14977     14975     14978     14975     14978     14979     14975     14978     14980
     14975     14978     14981     14979     14978     14980     14979     14978     14981
     14980     14978     14981     14978     14981     14982     14978     14981     14983
     14978     14981     14984     14982     14981     14983     14982     14981     14984
     14983     14981     14984     14981     14984     14985     14981     14984     14986
     14981     14984     14987     14985     14984     14986     14985     14984     14987
     14986     14984     14987     14984     14987     14988     14984     14987     14989
     14984     14987     14990     14988     14987     14989     14988     14987     14990
     14989     14987     14990     14987     14990     14991     14987     14990     14992
     14987     14990     14993     14991     14990     14992     14991     14990     14993
     14992     14990     14993     14990     14993     14994     14990     14993     14995
     14990     14993     14996     14994     14993     14995     14994     14993     14996
     14995     14993     14996     14993     14996     14997     14993     14996     14998
     14993     14996     14999     14997     14996     14998     14997     14996     14999
     14998     14996     14999     14996     14999     15000     14996     14999     15001
     14996     14999     15002     15000     14999     15001     15000     14999     15002
     15001     14999     15002     14999     15002     15003     14999     15002     15004
     14999     15002     15005     15003     15002     15004     15003     15002     15005
     15004     15002     15005     15002     15005     15006     15002     15005     15007
     15002     15005     15008     15006     15005     15007     15006     15005     15008
     15007     15005     15008     15010     15009     15013     15010     15009     15017
     15010     15009     15021     15013     15009     15017     15013     15009     15021
     15017     15009     15021     15009     15010     15011     15009     15010     15012
     15009     15010     15025     15011     15010     15012     15011     15010     15025
     15012     15010     15025     15009     15013     15014     15009     15013     15015
     15009     15013     15016     15014     15013     15015     15014     15013     15016
     15015     15013     15016     15009     15017     15018     15009     15017     15019
     15009     15017     15020     15018     15017     15019     15018     15017     15020
     15019     15017     15020     15009     15021     15022     15009     15021     15023
     15009     15021     15024     15022     15021     15023     15022     15021     15024
     15023     15021     15024     15010     15025     15026     15010     15025     15027
     15010     15025     15031     15026     15025     15027     15026     15025     15031
     15027     15025     15031     15029     15028     15030     15029     15028     15031
     15029     15028     15032     15030     15028     15031     15030     15028     15032
     15031     15028     15032     15025     15031     15028     15028     15032     15033
     15032     15033     15034     15032     15033     15035     15032     15033     15036
     15034     15033     15035     15034     15033     15036     15035     15033     15036
     15033     15036     15037     15033     15036     15038     15033     15036     15044
     15037     15036     15038     15037     15036     15044     15038     15036     15044
     15036     15038     15039     15038     15039     15040     15038     15039     15041
     15040     15039     15041     15039     15041     15042     15039     15041     15043
     15039     15041     15053     15042     15041     15043     15042     15041     15053
     15043     15041     15053     15036     15044     15045     15036     15044     15046
     15036     15044     15047     15045     15044     15046     15045     15044     15047
     15046     15044     15047     15044     15047     15048     15047     15048     15049
     15047     15048     15050     15049     15048     15050     15048     15050     15051
     15048     15050     15052     15048     15050     15100     15051     15050     15052
     15051     15050     15100     15052     15050     15100     15041     15053     15054
     15041     15053     15055     15041     15053     15056     15054     15053     15055
     15054     15053     15056     15055     15053     15056     15053     15056     15057
     15053     15056     15058     15053     15056     15059     15057     15056     15058
     15057     15056     15059     15058     15056     15059     15056     15059     15060
     15056     15059     15061     15056     15059     15062     15060     15059     15061
     15060     15059     15062     15061     15059     15062     15059     15062     15063
     15059     15062     15064     15059     15062     15065     15063     15062     15064
     15063     15062     15065     15064     15062     15065     15062     15065     15066
     15062     15065     15067     15062     15065     15068     15066     15065     15067
     15066     15065     15068     15067     15065     15068     15065     15068     15069
     15065     15068     15070     15065     15068     15071     15069     15068     15070
     15069     15068     15071     15070     15068     15071     15068     15071     15072
     15068     15071     15073     15072     15071     15073     15071     15073     15074
     15071     15073     15075     15074     15073     15075     15073     15075     15076
     15073     15075     15077     15073     15075     15078     15076     15075     15077
     15076     15075     15078     15077     15075     15078     15075     15078     15079
     15075     15078     15080     15075     15078     15081     15079     15078     15080
     15079     15078     15081     15080     15078     15081     15078     15081     15082
     15078     15081     15083     15078     15081     15084     15082     15081     15083
     15082     15081     15084     15083     15081     15084     15081     15084     15085
     15081     15084     15086     15081     15084     15087     15085     15084     15086
     15085     15084     15087     15086     15084     15087     15084     15087     15088
     15084     15087     15089     15084     15087     15090     15088     15087     15089
     15088     15087     15090     15089     15087     15090     15087     15090     15091
     15087     15090     15092     15087     15090     15093     15091     15090     15092
     15091     15090     15093     15092     15090     15093     15090     15093     15094
     15090     15093     15095     15090     15093     15096     15094     15093     15095
     15094     15093     15096     15095     15093     15096     15093     15096     15097
     15093     15096     15098     15093     15096     15099     15097     15096     15098
     15097     15096     15099     15098     15096     15099     15050     15100     15101
     15050     15100     15102     15050     15100     15103     15101     15100     15102
     15101     15100     15103     15102     15100     15103     15100     15103     15104
     15100     15103     15105     15100     15103     15106     15104     15103     15105
     15104     15103     15106     15105     15103     15106     15103     15106     15107
     15103     15106     15108     15103     15106     15109     15107     15106     15108
     15107     15106     15109     15108     15106     15109     15106     15109     15110
     15106     15109     15111     15106     15109     15112     15110     15109     15111
     15110     15109     15112     15111     15109     15112     15109     15112     15113
     15109     15112     15114     15109     15112     15115     15113     15112     15114
     15113     15112     15115     15114     15112     15115     15112     15115     15116
     15112     15115     15117     15112     15115     15118     15116     15115     15117
     15116     15115     15118     15117     15115     15118     15115     15118     15119
     15115     15118     15120     15115     15118     15121     15119     15118     15120
     15119     15118     15121     15120     15118     15121     15118     15121     15122
     15118     15121     15123     15118     15121     15124     15122     15121     15123
     15122     15121     15124     15123     15121     15124     15121     15124     15125
     15121     15124     15126     15121     15124     15127     15125     15124     15126
     15125     15124     15127     15126     15124     15127     15124     15127     15128
     15124     15127     15129     15124     15127     15130     15128     15127     15129
     15128     15127     15130     15129     15127     15130     15127     15130     15131
     15127     15130     15132     15127     15130     15133     15131     15130     15132
     15131     15130     15133     15132     15130     15133     15130     15133     15134
     15130     15133     15135     15130     15133     15136     15134     15133     15135
     15134     15133     15136     15135     15133     15136     15133     15136     15137
     15133     15136     15138     15133     15136     15139     15137     15136     15138
     15137     15136     15139     15138     15136     15139     15136     15139     15140
     15136     15139     15141     15136     15139     15142     15140     15139     15141
     15140     15139     15142     15141     15139     15142     15144     15143     15147
     15144     15143     15151     15144     15143     15155     15147     15143     15151
     15147     15143     15155     15151     15143     15155     15143     15144     15145
     15143     15144     15146     15143     15144     15159     15145     15144     15146
     15145     15144     15159     15146     15144     15159     15143     15147     15148
     15143     15147     15149     15143     15147     15150     15148     15147     15149
     15148     15147     15150     15149     15147     15150     15143     15151     15152
     15143     15151     15153     15143     15151     15154     15152     15151     15153
     15152     15151     15154     15153     15151     15154     15143     15155     15156
     15143     15155     15157     15143     15155     15158     15156     15155     15157
     15156     15155     15158     15157     15155     15158     15144     15159     15160
     15144     15159     15161     15144     15159     15165     15160     15159     15161
     15160     15159     15165     15161     15159     15165     15163     15162     15164
     15163     15162     15165     15163     15162     15166     15164     15162     15165
     15164     15162     15166     15165     15162     15166     15159     15165     15162
     15162     15166     15167     15166     15167     15168     15166     15167     15169
     15166     15167     15170     15168     15167     15169     15168     15167     15170
     15169     15167     15170     15167     15170     15171     15167     15170     15172
     15167     15170     15178     15171     15170     15172     15171     15170     15178
     15172     15170     15178     15170     15172     15173     15172     15173     15174
     15172     15173     15175     15174     15173     15175     15173     15175     15176
     15173     15175     15177     15173     15175     15187     15176     15175     15177
     15176     15175     15187     15177     15175     15187     15170     15178     15179
     15170     15178     15180     15170     15178     15181     15179     15178     15180
     15179     15178     15181     15180     15178     15181     15178     15181     15182
     15181     15182     15183     15181     15182     15184     15183     15182     15184
     15182     15184     15185     15182     15184     15186     15182     15184     15234
     15185     15184     15186     15185     15184     15234     15186     15184     15234
     15175     15187     15188     15175     15187     15189     15175     15187     15190
     15188     15187     15189     15188     15187     15190     15189     15187     15190
     15187     15190     15191     15187     15190     15192     15187     15190     15193
     15191     15190     15192     15191     15190     15193     15192     15190     15193
     15190     15193     15194     15190     15193     15195     15190     15193     15196
     15194     15193     15195     15194     15193     15196     15195     15193     15196
     15193     15196     15197     15193     15196     15198     15193     15196     15199
     15197     15196     15198     15197     15196     15199     15198     15196     15199
     15196     15199     15200     15196     15199     15201     15196     15199     15202
     15200     15199     15201     15200     15199     15202     15201     15199     15202
     15199     15202     15203     15199     15202     15204     15199     15202     15205
     15203     15202     15204     15203     15202     15205     15204     15202     15205
     15202     15205     15206     15202     15205     15207     15206     15205     15207
     15205     15207     15208     15205     15207     15209     15208     15207     15209
     15207     15209     15210     15207     15209     15211     15207     15209     15212
     15210     15209     15211     15210     15209     15212     15211     15209     15212
     15209     15212     15213     15209     15212     15214     15209     15212     15215
     15213     15212     15214     15213     15212     15215     15214     15212     15215
     15212     15215     15216     15212     15215     15217     15212     15215     15218
     15216     15215     15217     15216     15215     15218     15217     15215     15218
     15215     15218     15219     15215     15218     15220     15215     15218     15221
     15219     15218     15220     15219     15218     15221     15220     15218     15221
     15218     15221     15222     15218     15221     15223     15218     15221     15224
     15222     15221     15223     15222     15221     15224     15223     15221     15224
     15221     15224     15225     15221     15224     15226     15221     15224     15227
     15225     15224     15226     15225     15224     15227     15226     15224     15227
     15224     15227     15228     15224     15227     15229     15224     15227     15230
     15228     15227     15229     15228     15227     15230     15229     15227     15230
     15227     15230     15231     15227     15230     15232     15227     15230     15233
     15231     15230     15232     15231     15230     15233     15232     15230     15233
     15184     15234     15235     15184     15234     15236     15184     15234     15237
     15235     15234     15236     15235     15234     15237     15236     15234     15237
     15234     15237     15238     15234     15237     15239     15234     15237     15240
     15238     15237     15239     15238     15237     15240     15239     15237     15240
     15237     15240     15241     15237     15240     15242     15237     15240     15243
     15241     15240     15242     15241     15240     15243     15242     15240     15243
     15240     15243     15244     15240     15243     15245     15240     15243     15246
     15244     15243     15245     15244     15243     15246     15245     15243     15246
     15243     15246     15247     15243     15246     15248     15243     15246     15249
     15247     15246     15248     15247     15246     15249     15248     15246     15249
     15246     15249     15250     15246     15249     15251     15246     15249     15252
     15250     15249     15251     15250     15249     15252     15251     15249     15252
     15249     15252     15253     15249     15252     15254     15249     15252     15255
     15253     15252     15254     15253     15252     15255     15254     15252     15255
     15252     15255     15256     15252     15255     15257     15252     15255     15258
     15256     15255     15257     15256     15255     15258     15257     15255     15258
     15255     15258     15259     15255     15258     15260     15255     15258     15261
     15259     15258     15260     15259     15258     15261     15260     15258     15261
     15258     15261     15262     15258     15261     15263     15258     15261     15264
     15262     15261     15263     15262     15261     15264     15263     15261     15264
     15261     15264     15265     15261     15264     15266     15261     15264     15267
     15265     15264     15266     15265     15264     15267     15266     15264     15267
     15264     15267     15268     15264     15267     15269     15264     15267     15270
     15268     15267     15269     15268     15267     15270     15269     15267     15270
     15267     15270     15271     15267     15270     15272     15267     15270     15273
     15271     15270     15272     15271     15270     15273     15272     15270     15273
     15270     15273     15274     15270     15273     15275     15270     15273     15276
     15274     15273     15275     15274     15273     15276     15275     15273     15276
     15278     15277     15281     15278     15277     15285     15278     15277     15289
     15281     15277     15285     15281     15277     15289     15285     15277     15289
     15277     15278     15279     15277     15278     15280     15277     15278     15293
     15279     15278     15280     15279     15278     15293     15280     15278     15293
     15277     15281     15282     15277     15281     15283     15277     15281     15284
     15282     15281     15283     15282     15281     15284     15283     15281     15284
     15277     15285     15286     15277     15285     15287     15277     15285     15288
     15286     15285     15287     15286     15285     15288     15287     15285     15288
     15277     15289     15290     15277     15289     15291     15277     15289     15292
     15290     15289     15291     15290     15289     15292     15291     15289     15292
     15278     15293     15294     15278     15293     15295     15278     15293     15299
     15294     15293     15295     15294     15293     15299     15295     15293     15299
     15297     15296     15298     15297     15296     15299     15297     15296     15300
     15298     15296     15299     15298     15296     15300     15299     15296     15300
     15293     15299     15296     15296     15300     15301     15300     15301     15302
     15300     15301     15303     15300     15301     15304     15302     15301     15303
     15302     15301     15304     15303     15301     15304     15301     15304     15305
     15301     15304     15306     15301     15304     15312     15305     15304     15306
     15305     15304     15312     15306     15304     15312     15304     15306     15307
     15306     15307     15308     15306     15307     15309     15308     15307     15309
     15307     15309     15310     15307     15309     15311     15307     15309     15321
     15310     15309     15311     15310     15309     15321     15311     15309     15321
     15304     15312     15313     15304     15312     15314     15304     15312     15315
     15313     15312     15314     15313     15312     15315     15314     15312     15315
     15312     15315     15316     15315     15316     15317     15315     15316     15318
     15317     15316     15318     15316     15318     15319     15316     15318     15320
     15316     15318     15368     15319     15318     15320     15319     15318     15368
     15320     15318     15368     15309     15321     15322     15309     15321     15323
     15309     15321     15324     15322     15321     15323     15322     15321     15324
     15323     15321     15324     15321     15324     15325     15321     15324     15326
     15321     15324     15327     15325     15324     15326     15325     15324     15327
     15326     15324     15327     15324     15327     15328     15324     15327     15329
     15324     15327     15330     15328     15327     15329     15328     15327     15330
     15329     15327     15330     15327     15330     15331     15327     15330     15332
     15327     15330     15333     15331     15330     15332     15331     15330     15333
     15332     15330     15333     15330     15333     15334     15330     15333     15335
     15330     15333     15336     15334     15333     15335     15334     15333     15336
     15335     15333     15336     15333     15336     15337     15333     15336     15338
     15333     15336     15339     15337     15336     15338     15337     15336     15339
     15338     15336     15339     15336     15339     15340     15336     15339     15341
     15340     15339     15341     15339     15341     15342     15339     15341     15343
     15342     15341     15343     15341     15343     15344     15341     15343     15345
     15341     15343     15346     15344     15343     15345     15344     15343     15346
     15345     15343     15346     15343     15346     15347     15343     15346     15348
     15343     15346     15349     15347     15346     15348     15347     15346     15349
     15348     15346     15349     15346     15349     15350     15346     15349     15351
     15346     15349     15352     15350     15349     15351     15350     15349     15352
     15351     15349     15352     15349     15352     15353     15349     15352     15354
     15349     15352     15355     15353     15352     15354     15353     15352     15355
     15354     15352     15355     15352     15355     15356     15352     15355     15357
     15352     15355     15358     15356     15355     15357     15356     15355     15358
     15357     15355     15358     15355     15358     15359     15355     15358     15360
     15355     15358     15361     15359     15358     15360     15359     15358     15361
     15360     15358     15361     15358     15361     15362     15358     15361     15363
     15358     15361     15364     15362     15361     15363     15362     15361     15364
     15363     15361     15364     15361     15364     15365     15361     15364     15366
     15361     15364     15367     15365     15364     15366     15365     15364     15367
     15366     15364     15367     15318     15368     15369     15318     15368     15370
     15318     15368     15371     15369     15368     15370     15369     15368     15371
     15370     15368     15371     15368     15371     15372     15368     15371     15373
     15368     15371     15374     15372     15371     15373     15372     15371     15374
     15373     15371     15374     15371     15374     15375     15371     15374     15376
     15371     15374     15377     15375     15374     15376     15375     15374     15377
     15376     15374     15377     15374     15377     15378     15374     15377     15379
     15374     15377     15380     15378     15377     15379     15378     15377     15380
     15379     15377     15380     15377     15380     15381     15377     15380     15382
     15377     15380     15383     15381     15380     15382     15381     15380     15383
     15382     15380     15383     15380     15383     15384     15380     15383     15385
     15380     15383     15386     15384     15383     15385     15384     15383     15386
     15385     15383     15386     15383     15386     15387     15383     15386     15388
     15383     15386     15389     15387     15386     15388     15387     15386     15389
     15388     15386     15389     15386     15389     15390     15386     15389     15391
     15386     15389     15392     15390     15389     15391     15390     15389     15392
     15391     15389     15392     15389     15392     15393     15389     15392     15394
     15389     15392     15395     15393     15392     15394     15393     15392     15395
     15394     15392     15395     15392     15395     15396     15392     15395     15397
     15392     15395     15398     15396     15395     15397     15396     15395     15398
     15397     15395     15398     15395     15398     15399     15395     15398     15400
     15395     15398     15401     15399     15398     15400     15399     15398     15401
     15400     15398     15401     15398     15401     15402     15398     15401     15403
     15398     15401     15404     15402     15401     15403     15402     15401     15404
     15403     15401     15404     15401     15404     15405     15401     15404     15406
     15401     15404     15407     15405     15404     15406     15405     15404     15407
     15406     15404     15407     15404     15407     15408     15404     15407     15409
     15404     15407     15410     15408     15407     15409     15408     15407     15410
     15409     15407     15410     15412     15411     15415     15412     15411     15419
     15412     15411     15423     15415     15411     15419     15415     15411     15423
     15419     15411     15423     15411     15412     15413     15411     15412     15414
     15411     15412     15427     15413     15412     15414     15413     15412     15427
     15414     15412     15427     15411     15415     15416     15411     15415     15417
     15411     15415     15418     15416     15415     15417     15416     15415     15418
     15417     15415     15418     15411     15419     15420     15411     15419     15421
     15411     15419     15422     15420     15419     15421     15420     15419     15422
     15421     15419     15422     15411     15423     15424     15411     15423     15425
     15411     15423     15426     15424     15423     15425     15424     15423     15426
     15425     15423     15426     15412     15427     15428     15412     15427     15429
     15412     15427     15433     15428     15427     15429     15428     15427     15433
     15429     15427     15433     15431     15430     15432     15431     15430     15433
     15431     15430     15434     15432     15430     15433     15432     15430     15434
     15433     15430     15434     15427     15433     15430     15430     15434     15435
     15434     15435     15436     15434     15435     15437     15434     15435     15438
     15436     15435     15437     15436     15435     15438     15437     15435     15438
     15435     15438     15439     15435     15438     15440     15435     15438     15446
     15439     15438     15440     15439     15438     15446     15440     15438     15446
     15438     15440     15441     15440     15441     15442     15440     15441     15443
     15442     15441     15443     15441     15443     15444     15441     15443     15445
     15441     15443     15455     15444     15443     15445     15444     15443     15455
     15445     15443     15455     15438     15446     15447     15438     15446     15448
     15438     15446     15449     15447     15446     15448     15447     15446     15449
     15448     15446     15449     15446     15449     15450     15449     15450     15451
     15449     15450     15452     15451     15450     15452     15450     15452     15453
     15450     15452     15454     15450     15452     15502     15453     15452     15454
     15453     15452     15502     15454     15452     15502     15443     15455     15456
     15443     15455     15457     15443     15455     15458     15456     15455     15457
     15456     15455     15458     15457     15455     15458     15455     15458     15459
     15455     15458     15460     15455     15458     15461     15459     15458     15460
     15459     15458     15461     15460     15458     15461     15458     15461     15462
     15458     15461     15463     15458     15461     15464     15462     15461     15463
     15462     15461     15464     15463     15461     15464     15461     15464     15465
     15461     15464     15466     15461     15464     15467     15465     15464     15466
     15465     15464     15467     15466     15464     15467     15464     15467     15468
     15464     15467     15469     15464     15467     15470     15468     15467     15469
     15468     15467     15470     15469     15467     15470     15467     15470     15471
     15467     15470     15472     15467     15470     15473     15471     15470     15472
     15471     15470     15473     15472     15470     15473     15470     15473     15474
     15470     15473     15475     15474     15473     15475     15473     15475     15476
     15473     15475     15477     15476     15475     15477     15475     15477     15478
     15475     15477     15479     15475     15477     15480     15478     15477     15479
     15478     15477     15480     15479     15477     15480     15477     15480     15481
     15477     15480     15482     15477     15480     15483     15481     15480     15482
     15481     15480     15483     15482     15480     15483     15480     15483     15484
     15480     15483     15485     15480     15483     15486     15484     15483     15485
     15484     15483     15486     15485     15483     15486     15483     15486     15487
     15483     15486     15488     15483     15486     15489     15487     15486     15488
     15487     15486     15489     15488     15486     15489     15486     15489     15490
     15486     15489     15491     15486     15489     15492     15490     15489     15491
     15490     15489     15492     15491     15489     15492     15489     15492     15493
     15489     15492     15494     15489     15492     15495     15493     15492     15494
     15493     15492     15495     15494     15492     15495     15492     15495     15496
     15492     15495     15497     15492     15495     15498     15496     15495     15497
     15496     15495     15498     15497     15495     15498     15495     15498     15499
     15495     15498     15500     15495     15498     15501     15499     15498     15500
     15499     15498     15501     15500     15498     15501     15452     15502     15503
     15452     15502     15504     15452     15502     15505     15503     15502     15504
     15503     15502     15505     15504     15502     15505     15502     15505     15506
     15502     15505     15507     15502     15505     15508     15506     15505     15507
     15506     15505     15508     15507     15505     15508     15505     15508     15509
     15505     15508     15510     15505     15508     15511     15509     15508     15510
     15509     15508     15511     15510     15508     15511     15508     15511     15512
     15508     15511     15513     15508     15511     15514     15512     15511     15513
     15512     15511     15514     15513     15511     15514     15511     15514     15515
     15511     15514     15516     15511     15514     15517     15515     15514     15516
     15515     15514     15517     15516     15514     15517     15514     15517     15518
     15514     15517     15519     15514     15517     15520     15518     15517     15519
     15518     15517     15520     15519     15517     15520     15517     15520     15521
     15517     15520     15522     15517     15520     15523     15521     15520     15522
     15521     15520     15523     15522     15520     15523     15520     15523     15524
     15520     15523     15525     15520     15523     15526     15524     15523     15525
     15524     15523     15526     15525     15523     15526     15523     15526     15527
     15523     15526     15528     15523     15526     15529     15527     15526     15528
     15527     15526     15529     15528     15526     15529     15526     15529     15530
     15526     15529     15531     15526     15529     15532     15530     15529     15531
     15530     15529     15532     15531     15529     15532     15529     15532     15533
     15529     15532     15534     15529     15532     15535     15533     15532     15534
     15533     15532     15535     15534     15532     15535     15532     15535     15536
     15532     15535     15537     15532     15535     15538     15536     15535     15537
     15536     15535     15538     15537     15535     15538     15535     15538     15539
     15535     15538     15540     15535     15538     15541     15539     15538     15540
     15539     15538     15541     15540     15538     15541     15538     15541     15542
     15538     15541     15543     15538     15541     15544     15542     15541     15543
     15542     15541     15544     15543     15541     15544     15546     15545     15549
     15546     15545     15553     15546     15545     15557     15549     15545     15553
     15549     15545     15557     15553     15545     15557     15545     15546     15547
     15545     15546     15548     15545     15546     15561     15547     15546     15548
     15547     15546     15561     15548     15546     15561     15545     15549     15550
     15545     15549     15551     15545     15549     15552     15550     15549     15551
     15550     15549     15552     15551     15549     15552     15545     15553     15554
     15545     15553     15555     15545     15553     15556     15554     15553     15555
     15554     15553     15556     15555     15553     15556     15545     15557     15558
     15545     15557     15559     15545     15557     15560     15558     15557     15559
     15558     15557     15560     15559     15557     15560     15546     15561     15562
     15546     15561     15563     15546     15561     15567     15562     15561     15563
     15562     15561     15567     15563     15561     15567     15565     15564     15566
     15565     15564     15567     15565     15564     15568     15566     15564     15567
     15566     15564     15568     15567     15564     15568     15561     15567     15564
     15564     15568     15569     15568     15569     15570     15568     15569     15571
     15568     15569     15572     15570     15569     15571     15570     15569     15572
     15571     15569     15572     15569     15572     15573     15569     15572     15574
     15569     15572     15580     15573     15572     15574     15573     15572     15580
     15574     15572     15580     15572     15574     15575     15574     15575     15576
     15574     15575     15577     15576     15575     15577     15575     15577     15578
     15575     15577     15579     15575     15577     15589     15578     15577     15579
     15578     15577     15589     15579     15577     15589     15572     15580     15581
     15572     15580     15582     15572     15580     15583     15581     15580     15582
     15581     15580     15583     15582     15580     15583     15580     15583     15584
     15583     15584     15585     15583     15584     15586     15585     15584     15586
     15584     15586     15587     15584     15586     15588     15584     15586     15636
     15587     15586     15588     15587     15586     15636     15588     15586     15636
     15577     15589     15590     15577     15589     15591     15577     15589     15592
     15590     15589     15591     15590     15589     15592     15591     15589     15592
     15589     15592     15593     15589     15592     15594     15589     15592     15595
     15593     15592     15594     15593     15592     15595     15594     15592     15595
     15592     15595     15596     15592     15595     15597     15592     15595     15598
     15596     15595     15597     15596     15595     15598     15597     15595     15598
     15595     15598     15599     15595     15598     15600     15595     15598     15601
     15599     15598     15600     15599     15598     15601     15600     15598     15601
     15598     15601     15602     15598     15601     15603     15598     15601     15604
     15602     15601     15603     15602     15601     15604     15603     15601     15604
     15601     15604     15605     15601     15604     15606     15601     15604     15607
     15605     15604     15606     15605     15604     15607     15606     15604     15607
     15604     15607     15608     15604     15607     15609     15608     15607     15609
     15607     15609     15610     15607     15609     15611     15610     15609     15611
     15609     15611     15612     15609     15611     15613     15609     15611     15614
     15612     15611     15613     15612     15611     15614     15613     15611     15614
     15611     15614     15615     15611     15614     15616     15611     15614     15617
     15615     15614     15616     15615     15614     15617     15616     15614     15617
     15614     15617     15618     15614     15617     15619     15614     15617     15620
     15618     15617     15619     15618     15617     15620     15619     15617     15620
     15617     15620     15621     15617     15620     15622     15617     15620     15623
     15621     15620     15622     15621     15620     15623     15622     15620     15623
     15620     15623     15624     15620     15623     15625     15620     15623     15626
     15624     15623     15625     15624     15623     15626     15625     15623     15626
     15623     15626     15627     15623     15626     15628     15623     15626     15629
     15627     15626     15628     15627     15626     15629     15628     15626     15629
     15626     15629     15630     15626     15629     15631     15626     15629     15632
     15630     15629     15631     15630     15629     15632     15631     15629     15632
     15629     15632     15633     15629     15632     15634     15629     15632     15635
     15633     15632     15634     15633     15632     15635     15634     15632     15635
     15586     15636     15637     15586     15636     15638     15586     15636     15639
     15637     15636     15638     15637     15636     15639     15638     15636     15639
     15636     15639     15640     15636     15639     15641     15636     15639     15642
     15640     15639     15641     15640     15639     15642     15641     15639     15642
     15639     15642     15643     15639     15642     15644     15639     15642     15645
     15643     15642     15644     15643     15642     15645     15644     15642     15645
     15642     15645     15646     15642     15645     15647     15642     15645     15648
     15646     15645     15647     15646     15645     15648     15647     15645     15648
     15645     15648     15649     15645     15648     15650     15645     15648     15651
     15649     15648     15650     15649     15648     15651     15650     15648     15651
     15648     15651     15652     15648     15651     15653     15648     15651     15654
     15652     15651     15653     15652     15651     15654     15653     15651     15654
     15651     15654     15655     15651     15654     15656     15651     15654     15657
     15655     15654     15656     15655     15654     15657     15656     15654     15657
     15654     15657     15658     15654     15657     15659     15654     15657     15660
     15658     15657     15659     15658     15657     15660     15659     15657     15660
     15657     15660     15661     15657     15660     15662     15657     15660     15663
     15661     15660     15662     15661     15660     15663     15662     15660     15663
     15660     15663     15664     15660     15663     15665     15660     15663     15666
     15664     15663     15665     15664     15663     15666     15665     15663     15666
     15663     15666     15667     15663     15666     15668     15663     15666     15669
     15667     15666     15668     15667     15666     15669     15668     15666     15669
     15666     15669     15670     15666     15669     15671     15666     15669     15672
     15670     15669     15671     15670     15669     15672     15671     15669     15672
     15669     15672     15673     15669     15672     15674     15669     15672     15675
     15673     15672     15674     15673     15672     15675     15674     15672     15675
     15672     15675     15676     15672     15675     15677     15672     15675     15678
     15676     15675     15677     15676     15675     15678     15677     15675     15678
     15680     15679     15683     15680     15679     15687     15680     15679     15691
     15683     15679     15687     15683     15679     15691     15687     15679     15691
     15679     15680     15681     15679     15680     15682     15679     15680     15695
     15681     15680     15682     15681     15680     15695     15682     15680     15695
     15679     15683     15684     15679     15683     15685     15679     15683     15686
     15684     15683     15685     15684     15683     15686     15685     15683     15686
     15679     15687     15688     15679     15687     15689     15679     15687     15690
     15688     15687     15689     15688     15687     15690     15689     15687     15690
     15679     15691     15692     15679     15691     15693     15679     15691     15694
     15692     15691     15693     15692     15691     15694     15693     15691     15694
     15680     15695     15696     15680     15695     15697     15680     15695     15701
     15696     15695     15697     15696     15695     15701     15697     15695     15701
     15699     15698     15700     15699     15698     15701     15699     15698     15702
     15700     15698     15701     15700     15698     15702     15701     15698     15702
     15695     15701     15698     15698     15702     15703     15702     15703     15704
     15702     15703     15705     15702     15703     15706     15704     15703     15705
     15704     15703     15706     15705     15703     15706     15703     15706     15707
     15703     15706     15708     15703     15706     15714     15707     15706     15708
     15707     15706     15714     15708     15706     15714     15706     15708     15709
     15708     15709     15710     15708     15709     15711     15710     15709     15711
     15709     15711     15712     15709     15711     15713     15709     15711     15723
     15712     15711     15713     15712     15711     15723     15713     15711     15723
     15706     15714     15715     15706     15714     15716     15706     15714     15717
     15715     15714     15716     15715     15714     15717     15716     15714     15717
     15714     15717     15718     15717     15718     15719     15717     15718     15720
     15719     15718     15720     15718     15720     15721     15718     15720     15722
     15718     15720     15770     15721     15720     15722     15721     15720     15770
     15722     15720     15770     15711     15723     15724     15711     15723     15725
     15711     15723     15726     15724     15723     15725     15724     15723     15726
     15725     15723     15726     15723     15726     15727     15723     15726     15728
     15723     15726     15729     15727     15726     15728     15727     15726     15729
     15728     15726     15729     15726     15729     15730     15726     15729     15731
     15726     15729     15732     15730     15729     15731     15730     15729     15732
     15731     15729     15732     15729     15732     15733     15729     15732     15734
     15729     15732     15735     15733     15732     15734     15733     15732     15735
     15734     15732     15735     15732     15735     15736     15732     15735     15737
     15732     15735     15738     15736     15735     15737     15736     15735     15738
     15737     15735     15738     15735     15738     15739     15735     15738     15740
     15735     15738     15741     15739     15738     15740     15739     15738     15741
     15740     15738     15741     15738     15741     15742     15738     15741     15743
     15742     15741     15743     15741     15743     15744     15741     15743     15745
     15744     15743     15745     15743     15745     15746     15743     15745     15747
     15743     15745     15748     15746     15745     15747     15746     15745     15748
     15747     15745     15748     15745     15748     15749     15745     15748     15750
     15745     15748     15751     15749     15748     15750     15749     15748     15751
     15750     15748     15751     15748     15751     15752     15748     15751     15753
     15748     15751     15754     15752     15751     15753     15752     15751     15754
     15753     15751     15754     15751     15754     15755     15751     15754     15756
     15751     15754     15757     15755     15754     15756     15755     15754     15757
     15756     15754     15757     15754     15757     15758     15754     15757     15759
     15754     15757     15760     15758     15757     15759     15758     15757     15760
     15759     15757     15760     15757     15760     15761     15757     15760     15762
     15757     15760     15763     15761     15760     15762     15761     15760     15763
     15762     15760     15763     15760     15763     15764     15760     15763     15765
     15760     15763     15766     15764     15763     15765     15764     15763     15766
     15765     15763     15766     15763     15766     15767     15763     15766     15768
     15763     15766     15769     15767     15766     15768     15767     15766     15769
     15768     15766     15769     15720     15770     15771     15720     15770     15772
     15720     15770     15773     15771     15770     15772     15771     15770     15773
     15772     15770     15773     15770     15773     15774     15770     15773     15775
     15770     15773     15776     15774     15773     15775     15774     15773     15776
     15775     15773     15776     15773     15776     15777     15773     15776     15778
     15773     15776     15779     15777     15776     15778     15777     15776     15779
     15778     15776     15779     15776     15779     15780     15776     15779     15781
     15776     15779     15782     15780     15779     15781     15780     15779     15782
     15781     15779     15782     15779     15782     15783     15779     15782     15784
     15779     15782     15785     15783     15782     15784     15783     15782     15785
     15784     15782     15785     15782     15785     15786     15782     15785     15787
     15782     15785     15788     15786     15785     15787     15786     15785     15788
     15787     15785     15788     15785     15788     15789     15785     15788     15790
     15785     15788     15791     15789     15788     15790     15789     15788     15791
     15790     15788     15791     15788     15791     15792     15788     15791     15793
     15788     15791     15794     15792     15791     15793     15792     15791     15794
     15793     15791     15794     15791     15794     15795     15791     15794     15796
     15791     15794     15797     15795     15794     15796     15795     15794     15797
     15796     15794     15797     15794     15797     15798     15794     15797     15799
     15794     15797     15800     15798     15797     15799     15798     15797     15800
     15799     15797     15800     15797     15800     15801     15797     15800     15802
     15797     15800     15803     15801     15800     15802     15801     15800     15803
     15802     15800     15803     15800     15803     15804     15800     15803     15805
     15800     15803     15806     15804     15803     15805     15804     15803     15806
     15805     15803     15806     15803     15806     15807     15803     15806     15808
     15803     15806     15809     15807     15806     15808     15807     15806     15809
     15808     15806     15809     15806     15809     15810     15806     15809     15811
     15806     15809     15812     15810     15809     15811     15810     15809     15812
     15811     15809     15812     15814     15813     15817     15814     15813     15821
     15814     15813     15825     15817     15813     15821     15817     15813     15825
     15821     15813     15825     15813     15814     15815     15813     15814     15816
     15813     15814     15829     15815     15814     15816     15815     15814     15829
     15816     15814     15829     15813     15817     15818     15813     15817     15819
     15813     15817     15820     15818     15817     15819     15818     15817     15820
     15819     15817     15820     15813     15821     15822     15813     15821     15823
     15813     15821     15824     15822     15821     15823     15822     15821     15824
     15823     15821     15824     15813     15825     15826     15813     15825     15827
     15813     15825     15828     15826     15825     15827     15826     15825     15828
     15827     15825     15828     15814     15829     15830     15814     15829     15831
     15814     15829     15835     15830     15829     15831     15830     15829     15835
     15831     15829     15835     15833     15832     15834     15833     15832     15835
     15833     15832     15836     15834     15832     15835     15834     15832     15836
     15835     15832     15836     15829     15835     15832     15832     15836     15837
     15836     15837     15838     15836     15837     15839     15836     15837     15840
     15838     15837     15839     15838     15837     15840     15839     15837     15840
     15837     15840     15841     15837     15840     15842     15837     15840     15848
     15841     15840     15842     15841     15840     15848     15842     15840     15848
     15840     15842     15843     15842     15843     15844     15842     15843     15845
     15844     15843     15845     15843     15845     15846     15843     15845     15847
     15843     15845     15857     15846     15845     15847     15846     15845     15857
     15847     15845     15857     15840     15848     15849     15840     15848     15850
     15840     15848     15851     15849     15848     15850     15849     15848     15851
     15850     15848     15851     15848     15851     15852     15851     15852     15853
     15851     15852     15854     15853     15852     15854     15852     15854     15855
     15852     15854     15856     15852     15854     15904     15855     15854     15856
     15855     15854     15904     15856     15854     15904     15845     15857     15858
     15845     15857     15859     15845     15857     15860     15858     15857     15859
     15858     15857     15860     15859     15857     15860     15857     15860     15861
     15857     15860     15862     15857     15860     15863     15861     15860     15862
     15861     15860     15863     15862     15860     15863     15860     15863     15864
     15860     15863     15865     15860     15863     15866     15864     15863     15865
     15864     15863     15866     15865     15863     15866     15863     15866     15867
     15863     15866     15868     15863     15866     15869     15867     15866     15868
     15867     15866     15869     15868     15866     15869     15866     15869     15870
     15866     15869     15871     15866     15869     15872     15870     15869     15871
     15870     15869     15872     15871     15869     15872     15869     15872     15873
     15869     15872     15874     15869     15872     15875     15873     15872     15874
     15873     15872     15875     15874     15872     15875     15872     15875     15876
     15872     15875     15877     15876     15875     15877     15875     15877     15878
     15875     15877     15879     15878     15877     15879     15877     15879     15880
     15877     15879     15881     15877     15879     15882     15880     15879     15881
     15880     15879     15882     15881     15879     15882     15879     15882     15883
     15879     15882     15884     15879     15882     15885     15883     15882     15884
     15883     15882     15885     15884     15882     15885     15882     15885     15886
     15882     15885     15887     15882     15885     15888     15886     15885     15887
     15886     15885     15888     15887     15885     15888     15885     15888     15889
     15885     15888     15890     15885     15888     15891     15889     15888     15890
     15889     15888     15891     15890     15888     15891     15888     15891     15892
     15888     15891     15893     15888     15891     15894     15892     15891     15893
     15892     15891     15894     15893     15891     15894     15891     15894     15895
     15891     15894     15896     15891     15894     15897     15895     15894     15896
     15895     15894     15897     15896     15894     15897     15894     15897     15898
     15894     15897     15899     15894     15897     15900     15898     15897     15899
     15898     15897     15900     15899     15897     15900     15897     15900     15901
     15897     15900     15902     15897     15900     15903     15901     15900     15902
     15901     15900     15903     15902     15900     15903     15854     15904     15905
     15854     15904     15906     15854     15904     15907     15905     15904     15906
     15905     15904     15907     15906     15904     15907     15904     15907     15908
     15904     15907     15909     15904     15907     15910     15908     15907     15909
     15908     15907     15910     15909     15907     15910     15907     15910     15911
     15907     15910     15912     15907     15910     15913     15911     15910     15912
     15911     15910     15913     15912     15910     15913     15910     15913     15914
     15910     15913     15915     15910     15913     15916     15914     15913     15915
     15914     15913     15916     15915     15913     15916     15913     15916     15917
     15913     15916     15918     15913     15916     15919     15917     15916     15918
     15917     15916     15919     15918     15916     15919     15916     15919     15920
     15916     15919     15921     15916     15919     15922     15920     15919     15921
     15920     15919     15922     15921     15919     15922     15919     15922     15923
     15919     15922     15924     15919     15922     15925     15923     15922     15924
     15923     15922     15925     15924     15922     15925     15922     15925     15926
     15922     15925     15927     15922     15925     15928     15926     15925     15927
     15926     15925     15928     15927     15925     15928     15925     15928     15929
     15925     15928     15930     15925     15928     15931     15929     15928     15930
     15929     15928     15931     15930     15928     15931     15928     15931     15932
     15928     15931     15933     15928     15931     15934     15932     15931     15933
     15932     15931     15934     15933     15931     15934     15931     15934     15935
     15931     15934     15936     15931     15934     15937     15935     15934     15936
     15935     15934     15937     15936     15934     15937     15934     15937     15938
     15934     15937     15939     15934     15937     15940     15938     15937     15939
     15938     15937     15940     15939     15937     15940     15937     15940     15941
     15937     15940     15942     15937     15940     15943     15941     15940     15942
     15941     15940     15943     15942     15940     15943     15940     15943     15944
     15940     15943     15945     15940     15943     15946     15944     15943     15945
     15944     15943     15946     15945     15943     15946     15948     15947     15951
     15948     15947     15955     15948     15947     15959     15951     15947     15955
     15951     15947     15959     15955     15947     15959     15947     15948     15949
     15947     15948     15950     15947     15948     15963     15949     15948     15950
     15949     15948     15963     15950     15948     15963     15947     15951     15952
     15947     15951     15953     15947     15951     15954     15952     15951     15953
     15952     15951     15954     15953     15951     15954     15947     15955     15956
     15947     15955     15957     15947     15955     15958     15956     15955     15957
     15956     15955     15958     15957     15955     15958     15947     15959     15960
     15947     15959     15961     15947     15959     15962     15960     15959     15961
     15960     15959     15962     15961     15959     15962     15948     15963     15964
     15948     15963     15965     15948     15963     15969     15964     15963     15965
     15964     15963     15969     15965     15963     15969     15967     15966     15968
     15967     15966     15969     15967     15966     15970     15968     15966     15969
     15968     15966     15970     15969     15966     15970     15963     15969     15966
     15966     15970     15971     15970     15971     15972     15970     15971     15973
     15970     15971     15974     15972     15971     15973     15972     15971     15974
     15973     15971     15974     15971     15974     15975     15971     15974     15976
     15971     15974     15982     15975     15974     15976     15975     15974     15982
     15976     15974     15982     15974     15976     15977     15976     15977     15978
     15976     15977     15979     15978     15977     15979     15977     15979     15980
     15977     15979     15981     15977     15979     15991     15980     15979     15981
     15980     15979     15991     15981     15979     15991     15974     15982     15983
     15974     15982     15984     15974     15982     15985     15983     15982     15984
     15983     15982     15985     15984     15982     15985     15982     15985     15986
     15985     15986     15987     15985     15986     15988     15987     15986     15988
     15986     15988     15989     15986     15988     15990     15986     15988     16038
     15989     15988     15990     15989     15988     16038     15990     15988     16038
     15979     15991     15992     15979     15991     15993     15979     15991     15994
     15992     15991     15993     15992     15991     15994     15993     15991     15994
     15991     15994     15995     15991     15994     15996     15991     15994     15997
     15995     15994     15996     15995     15994     15997     15996     15994     15997
     15994     15997     15998     15994     15997     15999     15994     15997     16000
     15998     15997     15999     15998     15997     16000     15999     15997     16000
     15997     16000     16001     15997     16000     16002     15997     16000     16003
     16001     16000     16002     16001     16000     16003     16002     16000     16003
     16000     16003     16004     16000     16003     16005     16000     16003     16006
     16004     16003     16005     16004     16003     16006     16005     16003     16006
     16003     16006     16007     16003     16006     16008     16003     16006     16009
     16007     16006     16008     16007     16006     16009     16008     16006     16009
     16006     16009     16010     16006     16009     16011     16010     16009     16011
     16009     16011     16012     16009     16011     16013     16012     16011     16013
     16011     16013     16014     16011     16013     16015     16011     16013     16016
     16014     16013     16015     16014     16013     16016     16015     16013     16016
     16013     16016     16017     16013     16016     16018     16013     16016     16019
     16017     16016     16018     16017     16016     16019     16018     16016     16019
     16016     16019     16020     16016     16019     16021     16016     16019     16022
     16020     16019     16021     16020     16019     16022     16021     16019     16022
     16019     16022     16023     16019     16022     16024     16019     16022     16025
     16023     16022     16024     16023     16022     16025     16024     16022     16025
     16022     16025     16026     16022     16025     16027     16022     16025     16028
     16026     16025     16027     16026     16025     16028     16027     16025     16028
     16025     16028     16029     16025     16028     16030     16025     16028     16031
     16029     16028     16030     16029     16028     16031     16030     16028     16031
     16028     16031     16032     16028     16031     16033     16028     16031     16034
     16032     16031     16033     16032     16031     16034     16033     16031     16034
     16031     16034     16035     16031     16034     16036     16031     16034     16037
     16035     16034     16036     16035     16034     16037     16036     16034     16037
     15988     16038     16039     15988     16038     16040     15988     16038     16041
     16039     16038     16040     16039     16038     16041     16040     16038     16041
     16038     16041     16042     16038     16041     16043     16038     16041     16044
     16042     16041     16043     16042     16041     16044     16043     16041     16044
     16041     16044     16045     16041     16044     16046     16041     16044     16047
     16045     16044     16046     16045     16044     16047     16046     16044     16047
     16044     16047     16048     16044     16047     16049     16044     16047     16050
     16048     16047     16049     16048     16047     16050     16049     16047     16050
     16047     16050     16051     16047     16050     16052     16047     16050     16053
     16051     16050     16052     16051     16050     16053     16052     16050     16053
     16050     16053     16054     16050     16053     16055     16050     16053     16056
     16054     16053     16055     16054     16053     16056     16055     16053     16056
     16053     16056     16057     16053     16056     16058     16053     16056     16059
     16057     16056     16058     16057     16056     16059     16058     16056     16059
     16056     16059     16060     16056     16059     16061     16056     16059     16062
     16060     16059     16061     16060     16059     16062     16061     16059     16062
     16059     16062     16063     16059     16062     16064     16059     16062     16065
     16063     16062     16064     16063     16062     16065     16064     16062     16065
     16062     16065     16066     16062     16065     16067     16062     16065     16068
     16066     16065     16067     16066     16065     16068     16067     16065     16068
     16065     16068     16069     16065     16068     16070     16065     16068     16071
     16069     16068     16070     16069     16068     16071     16070     16068     16071
     16068     16071     16072     16068     16071     16073     16068     16071     16074
     16072     16071     16073     16072     16071     16074     16073     16071     16074
     16071     16074     16075     16071     16074     16076     16071     16074     16077
     16075     16074     16076     16075     16074     16077     16076     16074     16077
     16074     16077     16078     16074     16077     16079     16074     16077     16080
     16078     16077     16079     16078     16077     16080     16079     16077     16080
     16082     16081     16085     16082     16081     16089     16082     16081     16093
     16085     16081     16089     16085     16081     16093     16089     16081     16093
     16081     16082     16083     16081     16082     16084     16081     16082     16097
     16083     16082     16084     16083     16082     16097     16084     16082     16097
     16081     16085     16086     16081     16085     16087     16081     16085     16088
     16086     16085     16087     16086     16085     16088     16087     16085     16088
     16081     16089     16090     16081     16089     16091     16081     16089     16092
     16090     16089     16091     16090     16089     16092     16091     16089     16092
     16081     16093     16094     16081     16093     16095     16081     16093     16096
     16094     16093     16095     16094     16093     16096     16095     16093     16096
     16082     16097     16098     16082     16097     16099     16082     16097     16103
     16098     16097     16099     16098     16097     16103     16099     16097     16103
     16101     16100     16102     16101     16100     16103     16101     16100     16104
     16102     16100     16103     16102     16100     16104     16103     16100     16104
     16097     16103     16100     16100     16104     16105     16104     16105     16106
     16104     16105     16107     16104     16105     16108     16106     16105     16107
     16106     16105     16108     16107     16105     16108     16105     16108     16109
     16105     16108     16110     16105     16108     16116     16109     16108     16110
     16109     16108     16116     16110     16108     16116     16108     16110     16111
     16110     16111     16112     16110     16111     16113     16112     16111     16113
     16111     16113     16114     16111     16113     16115     16111     16113     16125
     16114     16113     16115     16114     16113     16125     16115     16113     16125
     16108     16116     16117     16108     16116     16118     16108     16116     16119
     16117     16116     16118     16117     16116     16119     16118     16116     16119
     16116     16119     16120     16119     16120     16121     16119     16120     16122
     16121     16120     16122     16120     16122     16123     16120     16122     16124
     16120     16122     16172     16123     16122     16124     16123     16122     16172
     16124     16122     16172     16113     16125     16126     16113     16125     16127
     16113     16125     16128     16126     16125     16127     16126     16125     16128
     16127     16125     16128     16125     16128     16129     16125     16128     16130
     16125     16128     16131     16129     16128     16130     16129     16128     16131
     16130     16128     16131     16128     16131     16132     16128     16131     16133
     16128     16131     16134     16132     16131     16133     16132     16131     16134
     16133     16131     16134     16131     16134     16135     16131     16134     16136
     16131     16134     16137     16135     16134     16136     16135     16134     16137
     16136     16134     16137     16134     16137     16138     16134     16137     16139
     16134     16137     16140     16138     16137     16139     16138     16137     16140
     16139     16137     16140     16137     16140     16141     16137     16140     16142
     16137     16140     16143     16141     16140     16142     16141     16140     16143
     16142     16140     16143     16140     16143     16144     16140     16143     16145
     16144     16143     16145     16143     16145     16146     16143     16145     16147
     16146     16145     16147     16145     16147     16148     16145     16147     16149
     16145     16147     16150     16148     16147     16149     16148     16147     16150
     16149     16147     16150     16147     16150     16151     16147     16150     16152
     16147     16150     16153     16151     16150     16152     16151     16150     16153
     16152     16150     16153     16150     16153     16154     16150     16153     16155
     16150     16153     16156     16154     16153     16155     16154     16153     16156
     16155     16153     16156     16153     16156     16157     16153     16156     16158
     16153     16156     16159     16157     16156     16158     16157     16156     16159
     16158     16156     16159     16156     16159     16160     16156     16159     16161
     16156     16159     16162     16160     16159     16161     16160     16159     16162
     16161     16159     16162     16159     16162     16163     16159     16162     16164
     16159     16162     16165     16163     16162     16164     16163     16162     16165
     16164     16162     16165     16162     16165     16166     16162     16165     16167
     16162     16165     16168     16166     16165     16167     16166     16165     16168
     16167     16165     16168     16165     16168     16169     16165     16168     16170
     16165     16168     16171     16169     16168     16170     16169     16168     16171
     16170     16168     16171     16122     16172     16173     16122     16172     16174
     16122     16172     16175     16173     16172     16174     16173     16172     16175
     16174     16172     16175     16172     16175     16176     16172     16175     16177
     16172     16175     16178     16176     16175     16177     16176     16175     16178
     16177     16175     16178     16175     16178     16179     16175     16178     16180
     16175     16178     16181     16179     16178     16180     16179     16178     16181
     16180     16178     16181     16178     16181     16182     16178     16181     16183
     16178     16181     16184     16182     16181     16183     16182     16181     16184
     16183     16181     16184     16181     16184     16185     16181     16184     16186
     16181     16184     16187     16185     16184     16186     16185     16184     16187
     16186     16184     16187     16184     16187     16188     16184     16187     16189
     16184     16187     16190     16188     16187     16189     16188     16187     16190
     16189     16187     16190     16187     16190     16191     16187     16190     16192
     16187     16190     16193     16191     16190     16192     16191     16190     16193
     16192     16190     16193     16190     16193     16194     16190     16193     16195
     16190     16193     16196     16194     16193     16195     16194     16193     16196
     16195     16193     16196     16193     16196     16197     16193     16196     16198
     16193     16196     16199     16197     16196     16198     16197     16196     16199
     16198     16196     16199     16196     16199     16200     16196     16199     16201
     16196     16199     16202     16200     16199     16201     16200     16199     16202
     16201     16199     16202     16199     16202     16203     16199     16202     16204
     16199     16202     16205     16203     16202     16204     16203     16202     16205
     16204     16202     16205     16202     16205     16206     16202     16205     16207
     16202     16205     16208     16206     16205     16207     16206     16205     16208
     16207     16205     16208     16205     16208     16209     16205     16208     16210
     16205     16208     16211     16209     16208     16210     16209     16208     16211
     16210     16208     16211     16208     16211     16212     16208     16211     16213
     16208     16211     16214     16212     16211     16213     16212     16211     16214
     16213     16211     16214     16216     16215     16219     16216     16215     16223
     16216     16215     16227     16219     16215     16223     16219     16215     16227
     16223     16215     16227     16215     16216     16217     16215     16216     16218
     16215     16216     16231     16217     16216     16218     16217     16216     16231
     16218     16216     16231     16215     16219     16220     16215     16219     16221
     16215     16219     16222     16220     16219     16221     16220     16219     16222
     16221     16219     16222     16215     16223     16224     16215     16223     16225
     16215     16223     16226     16224     16223     16225     16224     16223     16226
     16225     16223     16226     16215     16227     16228     16215     16227     16229
     16215     16227     16230     16228     16227     16229     16228     16227     16230
     16229     16227     16230     16216     16231     16232     16216     16231     16233
     16216     16231     16237     16232     16231     16233     16232     16231     16237
     16233     16231     16237     16235     16234     16236     16235     16234     16237
     16235     16234     16238     16236     16234     16237     16236     16234     16238
     16237     16234     16238     16231     16237     16234     16234     16238     16239
     16238     16239     16240     16238     16239     16241     16238     16239     16242
     16240     16239     16241     16240     16239     16242     16241     16239     16242
     16239     16242     16243     16239     16242     16244     16239     16242     16250
     16243     16242     16244     16243     16242     16250     16244     16242     16250
     16242     16244     16245     16244     16245     16246     16244     16245     16247
     16246     16245     16247     16245     16247     16248     16245     16247     16249
     16245     16247     16259     16248     16247     16249     16248     16247     16259
     16249     16247     16259     16242     16250     16251     16242     16250     16252
     16242     16250     16253     16251     16250     16252     16251     16250     16253
     16252     16250     16253     16250     16253     16254     16253     16254     16255
     16253     16254     16256     16255     16254     16256     16254     16256     16257
     16254     16256     16258     16254     16256     16306     16257     16256     16258
     16257     16256     16306     16258     16256     16306     16247     16259     16260
     16247     16259     16261     16247     16259     16262     16260     16259     16261
     16260     16259     16262     16261     16259     16262     16259     16262     16263
     16259     16262     16264     16259     16262     16265     16263     16262     16264
     16263     16262     16265     16264     16262     16265     16262     16265     16266
     16262     16265     16267     16262     16265     16268     16266     16265     16267
     16266     16265     16268     16267     16265     16268     16265     16268     16269
     16265     16268     16270     16265     16268     16271     16269     16268     16270
     16269     16268     16271     16270     16268     16271     16268     16271     16272
     16268     16271     16273     16268     16271     16274     16272     16271     16273
     16272     16271     16274     16273     16271     16274     16271     16274     16275
     16271     16274     16276     16271     16274     16277     16275     16274     16276
     16275     16274     16277     16276     16274     16277     16274     16277     16278
     16274     16277     16279     16278     16277     16279     16277     16279     16280
     16277     16279     16281     16280     16279     16281     16279     16281     16282
     16279     16281     16283     16279     16281     16284     16282     16281     16283
     16282     16281     16284     16283     16281     16284     16281     16284     16285
     16281     16284     16286     16281     16284     16287     16285     16284     16286
     16285     16284     16287     16286     16284     16287     16284     16287     16288
     16284     16287     16289     16284     16287     16290     16288     16287     16289
     16288     16287     16290     16289     16287     16290     16287     16290     16291
     16287     16290     16292     16287     16290     16293     16291     16290     16292
     16291     16290     16293     16292     16290     16293     16290     16293     16294
     16290     16293     16295     16290     16293     16296     16294     16293     16295
     16294     16293     16296     16295     16293     16296     16293     16296     16297
     16293     16296     16298     16293     16296     16299     16297     16296     16298
     16297     16296     16299     16298     16296     16299     16296     16299     16300
     16296     16299     16301     16296     16299     16302     16300     16299     16301
     16300     16299     16302     16301     16299     16302     16299     16302     16303
     16299     16302     16304     16299     16302     16305     16303     16302     16304
     16303     16302     16305     16304     16302     16305     16256     16306     16307
     16256     16306     16308     16256     16306     16309     16307     16306     16308
     16307     16306     16309     16308     16306     16309     16306     16309     16310
     16306     16309     16311     16306     16309     16312     16310     16309     16311
     16310     16309     16312     16311     16309     16312     16309     16312     16313
     16309     16312     16314     16309     16312     16315     16313     16312     16314
     16313     16312     16315     16314     16312     16315     16312     16315     16316
     16312     16315     16317     16312     16315     16318     16316     16315     16317
     16316     16315     16318     16317     16315     16318     16315     16318     16319
     16315     16318     16320     16315     16318     16321     16319     16318     16320
     16319     16318     16321     16320     16318     16321     16318     16321     16322
     16318     16321     16323     16318     16321     16324     16322     16321     16323
     16322     16321     16324     16323     16321     16324     16321     16324     16325
     16321     16324     16326     16321     16324     16327     16325     16324     16326
     16325     16324     16327     16326     16324     16327     16324     16327     16328
     16324     16327     16329     16324     16327     16330     16328     16327     16329
     16328     16327     16330     16329     16327     16330     16327     16330     16331
     16327     16330     16332     16327     16330     16333     16331     16330     16332
     16331     16330     16333     16332     16330     16333     16330     16333     16334
     16330     16333     16335     16330     16333     16336     16334     16333     16335
     16334     16333     16336     16335     16333     16336     16333     16336     16337
     16333     16336     16338     16333     16336     16339     16337     16336     16338
     16337     16336     16339     16338     16336     16339     16336     16339     16340
     16336     16339     16341     16336     16339     16342     16340     16339     16341
     16340     16339     16342     16341     16339     16342     16339     16342     16343
     16339     16342     16344     16339     16342     16345     16343     16342     16344
     16343     16342     16345     16344     16342     16345     16342     16345     16346
     16342     16345     16347     16342     16345     16348     16346     16345     16347
     16346     16345     16348     16347     16345     16348     16350     16349     16353
     16350     16349     16357     16350     16349     16361     16353     16349     16357
     16353     16349     16361     16357     16349     16361     16349     16350     16351
     16349     16350     16352     16349     16350     16365     16351     16350     16352
     16351     16350     16365     16352     16350     16365     16349     16353     16354
     16349     16353     16355     16349     16353     16356     16354     16353     16355
     16354     16353     16356     16355     16353     16356     16349     16357     16358
     16349     16357     16359     16349     16357     16360     16358     16357     16359
     16358     16357     16360     16359     16357     16360     16349     16361     16362
     16349     16361     16363     16349     16361     16364     16362     16361     16363
     16362     16361     16364     16363     16361     16364     16350     16365     16366
     16350     16365     16367     16350     16365     16371     16366     16365     16367
     16366     16365     16371     16367     16365     16371     16369     16368     16370
     16369     16368     16371     16369     16368     16372     16370     16368     16371
     16370     16368     16372     16371     16368     16372     16365     16371     16368
     16368     16372     16373     16372     16373     16374     16372     16373     16375
     16372     16373     16376     16374     16373     16375     16374     16373     16376
     16375     16373     16376     16373     16376     16377     16373     16376     16378
     16373     16376     16384     16377     16376     16378     16377     16376     16384
     16378     16376     16384     16376     16378     16379     16378     16379     16380
     16378     16379     16381     16380     16379     16381     16379     16381     16382
     16379     16381     16383     16379     16381     16393     16382     16381     16383
     16382     16381     16393     16383     16381     16393     16376     16384     16385
     16376     16384     16386     16376     16384     16387     16385     16384     16386
     16385     16384     16387     16386     16384     16387     16384     16387     16388
     16387     16388     16389     16387     16388     16390     16389     16388     16390
     16388     16390     16391     16388     16390     16392     16388     16390     16440
     16391     16390     16392     16391     16390     16440     16392     16390     16440
     16381     16393     16394     16381     16393     16395     16381     16393     16396
     16394     16393     16395     16394     16393     16396     16395     16393     16396
     16393     16396     16397     16393     16396     16398     16393     16396     16399
     16397     16396     16398     16397     16396     16399     16398     16396     16399
     16396     16399     16400     16396     16399     16401     16396     16399     16402
     16400     16399     16401     16400     16399     16402     16401     16399     16402
     16399     16402     16403     16399     16402     16404     16399     16402     16405
     16403     16402     16404     16403     16402     16405     16404     16402     16405
     16402     16405     16406     16402     16405     16407     16402     16405     16408
     16406     16405     16407     16406     16405     16408     16407     16405     16408
     16405     16408     16409     16405     16408     16410     16405     16408     16411
     16409     16408     16410     16409     16408     16411     16410     16408     16411
     16408     16411     16412     16408     16411     16413     16412     16411     16413
     16411     16413     16414     16411     16413     16415     16414     16413     16415
     16413     16415     16416     16413     16415     16417     16413     16415     16418
     16416     16415     16417     16416     16415     16418     16417     16415     16418
     16415     16418     16419     16415     16418     16420     16415     16418     16421
     16419     16418     16420     16419     16418     16421     16420     16418     16421
     16418     16421     16422     16418     16421     16423     16418     16421     16424
     16422     16421     16423     16422     16421     16424     16423     16421     16424
     16421     16424     16425     16421     16424     16426     16421     16424     16427
     16425     16424     16426     16425     16424     16427     16426     16424     16427
     16424     16427     16428     16424     16427     16429     16424     16427     16430
     16428     16427     16429     16428     16427     16430     16429     16427     16430
     16427     16430     16431     16427     16430     16432     16427     16430     16433
     16431     16430     16432     16431     16430     16433     16432     16430     16433
     16430     16433     16434     16430     16433     16435     16430     16433     16436
     16434     16433     16435     16434     16433     16436     16435     16433     16436
     16433     16436     16437     16433     16436     16438     16433     16436     16439
     16437     16436     16438     16437     16436     16439     16438     16436     16439
     16390     16440     16441     16390     16440     16442     16390     16440     16443
     16441     16440     16442     16441     16440     16443     16442     16440     16443
     16440     16443     16444     16440     16443     16445     16440     16443     16446
     16444     16443     16445     16444     16443     16446     16445     16443     16446
     16443     16446     16447     16443     16446     16448     16443     16446     16449
     16447     16446     16448     16447     16446     16449     16448     16446     16449
     16446     16449     16450     16446     16449     16451     16446     16449     16452
     16450     16449     16451     16450     16449     16452     16451     16449     16452
     16449     16452     16453     16449     16452     16454     16449     16452     16455
     16453     16452     16454     16453     16452     16455     16454     16452     16455
     16452     16455     16456     16452     16455     16457     16452     16455     16458
     16456     16455     16457     16456     16455     16458     16457     16455     16458
     16455     16458     16459     16455     16458     16460     16455     16458     16461
     16459     16458     16460     16459     16458     16461     16460     16458     16461
     16458     16461     16462     16458     16461     16463     16458     16461     16464
     16462     16461     16463     16462     16461     16464     16463     16461     16464
     16461     16464     16465     16461     16464     16466     16461     16464     16467
     16465     16464     16466     16465     16464     16467     16466     16464     16467
     16464     16467     16468     16464     16467     16469     16464     16467     16470
     16468     16467     16469     16468     16467     16470     16469     16467     16470
     16467     16470     16471     16467     16470     16472     16467     16470     16473
     16471     16470     16472     16471     16470     16473     16472     16470     16473
     16470     16473     16474     16470     16473     16475     16470     16473     16476
     16474     16473     16475     16474     16473     16476     16475     16473     16476
     16473     16476     16477     16473     16476     16478     16473     16476     16479
     16477     16476     16478     16477     16476     16479     16478     16476     16479
     16476     16479     16480     16476     16479     16481     16476     16479     16482
     16480     16479     16481     16480     16479     16482     16481     16479     16482
     16484     16483     16487     16484     16483     16491     16484     16483     16495
     16487     16483     16491     16487     16483     16495     16491     16483     16495
     16483     16484     16485     16483     16484     16486     16483     16484     16499
     16485     16484     16486     16485     16484     16499     16486     16484     16499
     16483     16487     16488     16483     16487     16489     16483     16487     16490
     16488     16487     16489     16488     16487     16490     16489     16487     16490
     16483     16491     16492     16483     16491     16493     16483     16491     16494
     16492     16491     16493     16492     16491     16494     16493     16491     16494
     16483     16495     16496     16483     16495     16497     16483     16495     16498
     16496     16495     16497     16496     16495     16498     16497     16495     16498
     16484     16499     16500     16484     16499     16501     16484     16499     16505
     16500     16499     16501     16500     16499     16505     16501     16499     16505
     16503     16502     16504     16503     16502     16505     16503     16502     16506
     16504     16502     16505     16504     16502     16506     16505     16502     16506
     16499     16505     16502     16502     16506     16507     16506     16507     16508
     16506     16507     16509     16506     16507     16510     16508     16507     16509
     16508     16507     16510     16509     16507     16510     16507     16510     16511
     16507     16510     16512     16507     16510     16518     16511     16510     16512
     16511     16510     16518     16512     16510     16518     16510     16512     16513
     16512     16513     16514     16512     16513     16515     16514     16513     16515
     16513     16515     16516     16513     16515     16517     16513     16515     16527
     16516     16515     16517     16516     16515     16527     16517     16515     16527
     16510     16518     16519     16510     16518     16520     16510     16518     16521
     16519     16518     16520     16519     16518     16521     16520     16518     16521
     16518     16521     16522     16521     16522     16523     16521     16522     16524
     16523     16522     16524     16522     16524     16525     16522     16524     16526
     16522     16524     16574     16525     16524     16526     16525     16524     16574
     16526     16524     16574     16515     16527     16528     16515     16527     16529
     16515     16527     16530     16528     16527     16529     16528     16527     16530
     16529     16527     16530     16527     16530     16531     16527     16530     16532
     16527     16530     16533     16531     16530     16532     16531     16530     16533
     16532     16530     16533     16530     16533     16534     16530     16533     16535
     16530     16533     16536     16534     16533     16535     16534     16533     16536
     16535     16533     16536     16533     16536     16537     16533     16536     16538
     16533     16536     16539     16537     16536     16538     16537     16536     16539
     16538     16536     16539     16536     16539     16540     16536     16539     16541
     16536     16539     16542     16540     16539     16541     16540     16539     16542
     16541     16539     16542     16539     16542     16543     16539     16542     16544
     16539     16542     16545     16543     16542     16544     16543     16542     16545
     16544     16542     16545     16542     16545     16546     16542     16545     16547
     16546     16545     16547     16545     16547     16548     16545     16547     16549
     16548     16547     16549     16547     16549     16550     16547     16549     16551
     16547     16549     16552     16550     16549     16551     16550     16549     16552
     16551     16549     16552     16549     16552     16553     16549     16552     16554
     16549     16552     16555     16553     16552     16554     16553     16552     16555
     16554     16552     16555     16552     16555     16556     16552     16555     16557
     16552     16555     16558     16556     16555     16557     16556     16555     16558
     16557     16555     16558     16555     16558     16559     16555     16558     16560
     16555     16558     16561     16559     16558     16560     16559     16558     16561
     16560     16558     16561     16558     16561     16562     16558     16561     16563
     16558     16561     16564     16562     16561     16563     16562     16561     16564
     16563     16561     16564     16561     16564     16565     16561     16564     16566
     16561     16564     16567     16565     16564     16566     16565     16564     16567
     16566     16564     16567     16564     16567     16568     16564     16567     16569
     16564     16567     16570     16568     16567     16569     16568     16567     16570
     16569     16567     16570     16567     16570     16571     16567     16570     16572
     16567     16570     16573     16571     16570     16572     16571     16570     16573
     16572     16570     16573     16524     16574     16575     16524     16574     16576
     16524     16574     16577     16575     16574     16576     16575     16574     16577
     16576     16574     16577     16574     16577     16578     16574     16577     16579
     16574     16577     16580     16578     16577     16579     16578     16577     16580
     16579     16577     16580     16577     16580     16581     16577     16580     16582
     16577     16580     16583     16581     16580     16582     16581     16580     16583
     16582     16580     16583     16580     16583     16584     16580     16583     16585
     16580     16583     16586     16584     16583     16585     16584     16583     16586
     16585     16583     16586     16583     16586     16587     16583     16586     16588
     16583     16586     16589     16587     16586     16588     16587     16586     16589
     16588     16586     16589     16586     16589     16590     16586     16589     16591
     16586     16589     16592     16590     16589     16591     16590     16589     16592
     16591     16589     16592     16589     16592     16593     16589     16592     16594
     16589     16592     16595     16593     16592     16594     16593     16592     16595
     16594     16592     16595     16592     16595     16596     16592     16595     16597
     16592     16595     16598     16596     16595     16597     16596     16595     16598
     16597     16595     16598     16595     16598     16599     16595     16598     16600
     16595     16598     16601     16599     16598     16600     16599     16598     16601
     16600     16598     16601     16598     16601     16602     16598     16601     16603
     16598     16601     16604     16602     16601     16603     16602     16601     16604
     16603     16601     16604     16601     16604     16605     16601     16604     16606
     16601     16604     16607     16605     16604     16606     16605     16604     16607
     16606     16604     16607     16604     16607     16608     16604     16607     16609
     16604     16607     16610     16608     16607     16609     16608     16607     16610
     16609     16607     16610     16607     16610     16611     16607     16610     16612
     16607     16610     16613     16611     16610     16612     16611     16610     16613
     16612     16610     16613     16610     16613     16614     16610     16613     16615
     16610     16613     16616     16614     16613     16615     16614     16613     16616
     16615     16613     16616     16618     16617     16621     16618     16617     16625
     16618     16617     16629     16621     16617     16625     16621     16617     16629
     16625     16617     16629     16617     16618     16619     16617     16618     16620
     16617     16618     16633     16619     16618     16620     16619     16618     16633
     16620     16618     16633     16617     16621     16622     16617     16621     16623
     16617     16621     16624     16622     16621     16623     16622     16621     16624
     16623     16621     16624     16617     16625     16626     16617     16625     16627
     16617     16625     16628     16626     16625     16627     16626     16625     16628
     16627     16625     16628     16617     16629     16630     16617     16629     16631
     16617     16629     16632     16630     16629     16631     16630     16629     16632
     16631     16629     16632     16618     16633     16634     16618     16633     16635
     16618     16633     16639     16634     16633     16635     16634     16633     16639
     16635     16633     16639     16637     16636     16638     16637     16636     16639
     16637     16636     16640     16638     16636     16639     16638     16636     16640
     16639     16636     16640     16633     16639     16636     16636     16640     16641
     16640     16641     16642     16640     16641     16643     16640     16641     16644
     16642     16641     16643     16642     16641     16644     16643     16641     16644
     16641     16644     16645     16641     16644     16646     16641     16644     16652
     16645     16644     16646     16645     16644     16652     16646     16644     16652
     16644     16646     16647     16646     16647     16648     16646     16647     16649
     16648     16647     16649     16647     16649     16650     16647     16649     16651
     16647     16649     16661     16650     16649     16651     16650     16649     16661
     16651     16649     16661     16644     16652     16653     16644     16652     16654
     16644     16652     16655     16653     16652     16654     16653     16652     16655
     16654     16652     16655     16652     16655     16656     16655     16656     16657
     16655     16656     16658     16657     16656     16658     16656     16658     16659
     16656     16658     16660     16656     16658     16708     16659     16658     16660
     16659     16658     16708     16660     16658     16708     16649     16661     16662
     16649     16661     16663     16649     16661     16664     16662     16661     16663
     16662     16661     16664     16663     16661     16664     16661     16664     16665
     16661     16664     16666     16661     16664     16667     16665     16664     16666
     16665     16664     16667     16666     16664     16667     16664     16667     16668
     16664     16667     16669     16664     16667     16670     16668     16667     16669
     16668     16667     16670     16669     16667     16670     16667     16670     16671
     16667     16670     16672     16667     16670     16673     16671     16670     16672
     16671     16670     16673     16672     16670     16673     16670     16673     16674
     16670     16673     16675     16670     16673     16676     16674     16673     16675
     16674     16673     16676     16675     16673     16676     16673     16676     16677
     16673     16676     16678     16673     16676     16679     16677     16676     16678
     16677     16676     16679     16678     16676     16679     16676     16679     16680
     16676     16679     16681     16680     16679     16681     16679     16681     16682
     16679     16681     16683     16682     16681     16683     16681     16683     16684
     16681     16683     16685     16681     16683     16686     16684     16683     16685
     16684     16683     16686     16685     16683     16686     16683     16686     16687
     16683     16686     16688     16683     16686     16689     16687     16686     16688
     16687     16686     16689     16688     16686     16689     16686     16689     16690
     16686     16689     16691     16686     16689     16692     16690     16689     16691
     16690     16689     16692     16691     16689     16692     16689     16692     16693
     16689     16692     16694     16689     16692     16695     16693     16692     16694
     16693     16692     16695     16694     16692     16695     16692     16695     16696
     16692     16695     16697     16692     16695     16698     16696     16695     16697
     16696     16695     16698     16697     16695     16698     16695     16698     16699
     16695     16698     16700     16695     16698     16701     16699     16698     16700
     16699     16698     16701     16700     16698     16701     16698     16701     16702
     16698     16701     16703     16698     16701     16704     16702     16701     16703
     16702     16701     16704     16703     16701     16704     16701     16704     16705
     16701     16704     16706     16701     16704     16707     16705     16704     16706
     16705     16704     16707     16706     16704     16707     16658     16708     16709
     16658     16708     16710     16658     16708     16711     16709     16708     16710
     16709     16708     16711     16710     16708     16711     16708     16711     16712
     16708     16711     16713     16708     16711     16714     16712     16711     16713
     16712     16711     16714     16713     16711     16714     16711     16714     16715
     16711     16714     16716     16711     16714     16717     16715     16714     16716
     16715     16714     16717     16716     16714     16717     16714     16717     16718
     16714     16717     16719     16714     16717     16720     16718     16717     16719
     16718     16717     16720     16719     16717     16720     16717     16720     16721
     16717     16720     16722     16717     16720     16723     16721     16720     16722
     16721     16720     16723     16722     16720     16723     16720     16723     16724
     16720     16723     16725     16720     16723     16726     16724     16723     16725
     16724     16723     16726     16725     16723     16726     16723     16726     16727
     16723     16726     16728     16723     16726     16729     16727     16726     16728
     16727     16726     16729     16728     16726     16729     16726     16729     16730
     16726     16729     16731     16726     16729     16732     16730     16729     16731
     16730     16729     16732     16731     16729     16732     16729     16732     16733
     16729     16732     16734     16729     16732     16735     16733     16732     16734
     16733     16732     16735     16734     16732     16735     16732     16735     16736
     16732     16735     16737     16732     16735     16738     16736     16735     16737
     16736     16735     16738     16737     16735     16738     16735     16738     16739
     16735     16738     16740     16735     16738     16741     16739     16738     16740
     16739     16738     16741     16740     16738     16741     16738     16741     16742
     16738     16741     16743     16738     16741     16744     16742     16741     16743
     16742     16741     16744     16743     16741     16744     16741     16744     16745
     16741     16744     16746     16741     16744     16747     16745     16744     16746
     16745     16744     16747     16746     16744     16747     16744     16747     16748
     16744     16747     16749     16744     16747     16750     16748     16747     16749
     16748     16747     16750     16749     16747     16750     16752     16751     16755
     16752     16751     16759     16752     16751     16763     16755     16751     16759
     16755     16751     16763     16759     16751     16763     16751     16752     16753
     16751     16752     16754     16751     16752     16767     16753     16752     16754
     16753     16752     16767     16754     16752     16767     16751     16755     16756
     16751     16755     16757     16751     16755     16758     16756     16755     16757
     16756     16755     16758     16757     16755     16758     16751     16759     16760
     16751     16759     16761     16751     16759     16762     16760     16759     16761
     16760     16759     16762     16761     16759     16762     16751     16763     16764
     16751     16763     16765     16751     16763     16766     16764     16763     16765
     16764     16763     16766     16765     16763     16766     16752     16767     16768
     16752     16767     16769     16752     16767     16773     16768     16767     16769
     16768     16767     16773     16769     16767     16773     16771     16770     16772
     16771     16770     16773     16771     16770     16774     16772     16770     16773
     16772     16770     16774     16773     16770     16774     16767     16773     16770
     16770     16774     16775     16774     16775     16776     16774     16775     16777
     16774     16775     16778     16776     16775     16777     16776     16775     16778
     16777     16775     16778     16775     16778     16779     16775     16778     16780
     16775     16778     16786     16779     16778     16780     16779     16778     16786
     16780     16778     16786     16778     16780     16781     16780     16781     16782
     16780     16781     16783     16782     16781     16783     16781     16783     16784
     16781     16783     16785     16781     16783     16795     16784     16783     16785
     16784     16783     16795     16785     16783     16795     16778     16786     16787
     16778     16786     16788     16778     16786     16789     16787     16786     16788
     16787     16786     16789     16788     16786     16789     16786     16789     16790
     16789     16790     16791     16789     16790     16792     16791     16790     16792
     16790     16792     16793     16790     16792     16794     16790     16792     16842
     16793     16792     16794     16793     16792     16842     16794     16792     16842
     16783     16795     16796     16783     16795     16797     16783     16795     16798
     16796     16795     16797     16796     16795     16798     16797     16795     16798
     16795     16798     16799     16795     16798     16800     16795     16798     16801
     16799     16798     16800     16799     16798     16801     16800     16798     16801
     16798     16801     16802     16798     16801     16803     16798     16801     16804
     16802     16801     16803     16802     16801     16804     16803     16801     16804
     16801     16804     16805     16801     16804     16806     16801     16804     16807
     16805     16804     16806     16805     16804     16807     16806     16804     16807
     16804     16807     16808     16804     16807     16809     16804     16807     16810
     16808     16807     16809     16808     16807     16810     16809     16807     16810
     16807     16810     16811     16807     16810     16812     16807     16810     16813
     16811     16810     16812     16811     16810     16813     16812     16810     16813
     16810     16813     16814     16810     16813     16815     16814     16813     16815
     16813     16815     16816     16813     16815     16817     16816     16815     16817
     16815     16817     16818     16815     16817     16819     16815     16817     16820
     16818     16817     16819     16818     16817     16820     16819     16817     16820
     16817     16820     16821     16817     16820     16822     16817     16820     16823
     16821     16820     16822     16821     16820     16823     16822     16820     16823
     16820     16823     16824     16820     16823     16825     16820     16823     16826
     16824     16823     16825     16824     16823     16826     16825     16823     16826
     16823     16826     16827     16823     16826     16828     16823     16826     16829
     16827     16826     16828     16827     16826     16829     16828     16826     16829
     16826     16829     16830     16826     16829     16831     16826     16829     16832
     16830     16829     16831     16830     16829     16832     16831     16829     16832
     16829     16832     16833     16829     16832     16834     16829     16832     16835
     16833     16832     16834     16833     16832     16835     16834     16832     16835
     16832     16835     16836     16832     16835     16837     16832     16835     16838
     16836     16835     16837     16836     16835     16838     16837     16835     16838
     16835     16838     16839     16835     16838     16840     16835     16838     16841
     16839     16838     16840     16839     16838     16841     16840     16838     16841
     16792     16842     16843     16792     16842     16844     16792     16842     16845
     16843     16842     16844     16843     16842     16845     16844     16842     16845
     16842     16845     16846     16842     16845     16847     16842     16845     16848
     16846     16845     16847     16846     16845     16848     16847     16845     16848
     16845     16848     16849     16845     16848     16850     16845     16848     16851
     16849     16848     16850     16849     16848     16851     16850     16848     16851
     16848     16851     16852     16848     16851     16853     16848     16851     16854
     16852     16851     16853     16852     16851     16854     16853     16851     16854
     16851     16854     16855     16851     16854     16856     16851     16854     16857
     16855     16854     16856     16855     16854     16857     16856     16854     16857
     16854     16857     16858     16854     16857     16859     16854     16857     16860
     16858     16857     16859     16858     16857     16860     16859     16857     16860
     16857     16860     16861     16857     16860     16862     16857     16860     16863
     16861     16860     16862     16861     16860     16863     16862     16860     16863
     16860     16863     16864     16860     16863     16865     16860     16863     16866
     16864     16863     16865     16864     16863     16866     16865     16863     16866
     16863     16866     16867     16863     16866     16868     16863     16866     16869
     16867     16866     16868     16867     16866     16869     16868     16866     16869
     16866     16869     16870     16866     16869     16871     16866     16869     16872
     16870     16869     16871     16870     16869     16872     16871     16869     16872
     16869     16872     16873     16869     16872     16874     16869     16872     16875
     16873     16872     16874     16873     16872     16875     16874     16872     16875
     16872     16875     16876     16872     16875     16877     16872     16875     16878
     16876     16875     16877     16876     16875     16878     16877     16875     16878
     16875     16878     16879     16875     16878     16880     16875     16878     16881
     16879     16878     16880     16879     16878     16881     16880     16878     16881
     16878     16881     16882     16878     16881     16883     16878     16881     16884
     16882     16881     16883     16882     16881     16884     16883     16881     16884
     16886     16885     16889     16886     16885     16893     16886     16885     16897
     16889     16885     16893     16889     16885     16897     16893     16885     16897
     16885     16886     16887     16885     16886     16888     16885     16886     16901
     16887     16886     16888     16887     16886     16901     16888     16886     16901
     16885     16889     16890     16885     16889     16891     16885     16889     16892
     16890     16889     16891     16890     16889     16892     16891     16889     16892
     16885     16893     16894     16885     16893     16895     16885     16893     16896
     16894     16893     16895     16894     16893     16896     16895     16893     16896
     16885     16897     16898     16885     16897     16899     16885     16897     16900
     16898     16897     16899     16898     16897     16900     16899     16897     16900
     16886     16901     16902     16886     16901     16903     16886     16901     16907
     16902     16901     16903     16902     16901     16907     16903     16901     16907
     16905     16904     16906     16905     16904     16907     16905     16904     16908
     16906     16904     16907     16906     16904     16908     16907     16904     16908
     16901     16907     16904     16904     16908     16909     16908     16909     16910
     16908     16909     16911     16908     16909     16912     16910     16909     16911
     16910     16909     16912     16911     16909     16912     16909     16912     16913
     16909     16912     16914     16909     16912     16920     16913     16912     16914
     16913     16912     16920     16914     16912     16920     16912     16914     16915
     16914     16915     16916     16914     16915     16917     16916     16915     16917
     16915     16917     16918     16915     16917     16919     16915     16917     16929
     16918     16917     16919     16918     16917     16929     16919     16917     16929
     16912     16920     16921     16912     16920     16922     16912     16920     16923
     16921     16920     16922     16921     16920     16923     16922     16920     16923
     16920     16923     16924     16923     16924     16925     16923     16924     16926
     16925     16924     16926     16924     16926     16927     16924     16926     16928
     16924     16926     16976     16927     16926     16928     16927     16926     16976
     16928     16926     16976     16917     16929     16930     16917     16929     16931
     16917     16929     16932     16930     16929     16931     16930     16929     16932
     16931     16929     16932     16929     16932     16933     16929     16932     16934
     16929     16932     16935     16933     16932     16934     16933     16932     16935
     16934     16932     16935     16932     16935     16936     16932     16935     16937
     16932     16935     16938     16936     16935     16937     16936     16935     16938
     16937     16935     16938     16935     16938     16939     16935     16938     16940
     16935     16938     16941     16939     16938     16940     16939     16938     16941
     16940     16938     16941     16938     16941     16942     16938     16941     16943
     16938     16941     16944     16942     16941     16943     16942     16941     16944
     16943     16941     16944     16941     16944     16945     16941     16944     16946
     16941     16944     16947     16945     16944     16946     16945     16944     16947
     16946     16944     16947     16944     16947     16948     16944     16947     16949
     16948     16947     16949     16947     16949     16950     16947     16949     16951
     16950     16949     16951     16949     16951     16952     16949     16951     16953
     16949     16951     16954     16952     16951     16953     16952     16951     16954
     16953     16951     16954     16951     16954     16955     16951     16954     16956
     16951     16954     16957     16955     16954     16956     16955     16954     16957
     16956     16954     16957     16954     16957     16958     16954     16957     16959
     16954     16957     16960     16958     16957     16959     16958     16957     16960
     16959     16957     16960     16957     16960     16961     16957     16960     16962
     16957     16960     16963     16961     16960     16962     16961     16960     16963
     16962     16960     16963     16960     16963     16964     16960     16963     16965
     16960     16963     16966     16964     16963     16965     16964     16963     16966
     16965     16963     16966     16963     16966     16967     16963     16966     16968
     16963     16966     16969     16967     16966     16968     16967     16966     16969
     16968     16966     16969     16966     16969     16970     16966     16969     16971
     16966     16969     16972     16970     16969     16971     16970     16969     16972
     16971     16969     16972     16969     16972     16973     16969     16972     16974
     16969     16972     16975     16973     16972     16974     16973     16972     16975
     16974     16972     16975     16926     16976     16977     16926     16976     16978
     16926     16976     16979     16977     16976     16978     16977     16976     16979
     16978     16976     16979     16976     16979     16980     16976     16979     16981
     16976     16979     16982     16980     16979     16981     16980     16979     16982
     16981     16979     16982     16979     16982     16983     16979     16982     16984
     16979     16982     16985     16983     16982     16984     16983     16982     16985
     16984     16982     16985     16982     16985     16986     16982     16985     16987
     16982     16985     16988     16986     16985     16987     16986     16985     16988
     16987     16985     16988     16985     16988     16989     16985     16988     16990
     16985     16988     16991     16989     16988     16990     16989     16988     16991
     16990     16988     16991     16988     16991     16992     16988     16991     16993
     16988     16991     16994     16992     16991     16993     16992     16991     16994
     16993     16991     16994     16991     16994     16995     16991     16994     16996
     16991     16994     16997     16995     16994     16996     16995     16994     16997
     16996     16994     16997     16994     16997     16998     16994     16997     16999
     16994     16997     17000     16998     16997     16999     16998     16997     17000
     16999     16997     17000     16997     17000     17001     16997     17000     17002
     16997     17000     17003     17001     17000     17002     17001     17000     17003
     17002     17000     17003     17000     17003     17004     17000     17003     17005
     17000     17003     17006     17004     17003     17005     17004     17003     17006
     17005     17003     17006     17003     17006     17007     17003     17006     17008
     17003     17006     17009     17007     17006     17008     17007     17006     17009
     17008     17006     17009     17006     17009     17010     17006     17009     17011
     17006     17009     17012     17010     17009     17011     17010     17009     17012
     17011     17009     17012     17009     17012     17013     17009     17012     17014
     17009     17012     17015     17013     17012     17014     17013     17012     17015
     17014     17012     17015     17012     17015     17016     17012     17015     17017
     17012     17015     17018     17016     17015     17017     17016     17015     17018
     17017     17015     17018     17020     17019     17023     17020     17019     17027
     17020     17019     17031     17023     17019     17027     17023     17019     17031
     17027     17019     17031     17019     17020     17021     17019     17020     17022
     17019     17020     17035     17021     17020     17022     17021     17020     17035
     17022     17020     17035     17019     17023     17024     17019     17023     17025
     17019     17023     17026     17024     17023     17025     17024     17023     17026
     17025     17023     17026     17019     17027     17028     17019     17027     17029
     17019     17027     17030     17028     17027     17029     17028     17027     17030
     17029     17027     17030     17019     17031     17032     17019     17031     17033
     17019     17031     17034     17032     17031     17033     17032     17031     17034
     17033     17031     17034     17020     17035     17036     17020     17035     17037
     17020     17035     17041     17036     17035     17037     17036     17035     17041
     17037     17035     17041     17039     17038     17040     17039     17038     17041
     17039     17038     17042     17040     17038     17041     17040     17038     17042
     17041     17038     17042     17035     17041     17038     17038     17042     17043
     17042     17043     17044     17042     17043     17045     17042     17043     17046
     17044     17043     17045     17044     17043     17046     17045     17043     17046
     17043     17046     17047     17043     17046     17048     17043     17046     17054
     17047     17046     17048     17047     17046     17054     17048     17046     17054
     17046     17048     17049     17048     17049     17050     17048     17049     17051
     17050     17049     17051     17049     17051     17052     17049     17051     17053
     17049     17051     17063     17052     17051     17053     17052     17051     17063
     17053     17051     17063     17046     17054     17055     17046     17054     17056
     17046     17054     17057     17055     17054     17056     17055     17054     17057
     17056     17054     17057     17054     17057     17058     17057     17058     17059
     17057     17058     17060     17059     17058     17060     17058     17060     17061
     17058     17060     17062     17058     17060     17110     17061     17060     17062
     17061     17060     17110     17062     17060     17110     17051     17063     17064
     17051     17063     17065     17051     17063     17066     17064     17063     17065
     17064     17063     17066     17065     17063     17066     17063     17066     17067
     17063     17066     17068     17063     17066     17069     17067     17066     17068
     17067     17066     17069     17068     17066     17069     17066     17069     17070
     17066     17069     17071     17066     17069     17072     17070     17069     17071
     17070     17069     17072     17071     17069     17072     17069     17072     17073
     17069     17072     17074     17069     17072     17075     17073     17072     17074
     17073     17072     17075     17074     17072     17075     17072     17075     17076
     17072     17075     17077     17072     17075     17078     17076     17075     17077
     17076     17075     17078     17077     17075     17078     17075     17078     17079
     17075     17078     17080     17075     17078     17081     17079     17078     17080
     17079     17078     17081     17080     17078     17081     17078     17081     17082
     17078     17081     17083     17082     17081     17083     17081     17083     17084
     17081     17083     17085     17084     17083     17085     17083     17085     17086
     17083     17085     17087     17083     17085     17088     17086     17085     17087
     17086     17085     17088     17087     17085     17088     17085     17088     17089
     17085     17088     17090     17085     17088     17091     17089     17088     17090
     17089     17088     17091     17090     17088     17091     17088     17091     17092
     17088     17091     17093     17088     17091     17094     17092     17091     17093
     17092     17091     17094     17093     17091     17094     17091     17094     17095
     17091     17094     17096     17091     17094     17097     17095     17094     17096
     17095     17094     17097     17096     17094     17097     17094     17097     17098
     17094     17097     17099     17094     17097     17100     17098     17097     17099
     17098     17097     17100     17099     17097     17100     17097     17100     17101
     17097     17100     17102     17097     17100     17103     17101     17100     17102
     17101     17100     17103     17102     17100     17103     17100     17103     17104
     17100     17103     17105     17100     17103     17106     17104     17103     17105
     17104     17103     17106     17105     17103     17106     17103     17106     17107
     17103     17106     17108     17103     17106     17109     17107     17106     17108
     17107     17106     17109     17108     17106     17109     17060     17110     17111
     17060     17110     17112     17060     17110     17113     17111     17110     17112
     17111     17110     17113     17112     17110     17113     17110     17113     17114
     17110     17113     17115     17110     17113     17116     17114     17113     17115
     17114     17113     17116     17115     17113     17116     17113     17116     17117
     17113     17116     17118     17113     17116     17119     17117     17116     17118
     17117     17116     17119     17118     17116     17119     17116     17119     17120
     17116     17119     17121     17116     17119     17122     17120     17119     17121
     17120     17119     17122     17121     17119     17122     17119     17122     17123
     17119     17122     17124     17119     17122     17125     17123     17122     17124
     17123     17122     17125     17124     17122     17125     17122     17125     17126
     17122     17125     17127     17122     17125     17128     17126     17125     17127
     17126     17125     17128     17127     17125     17128     17125     17128     17129
     17125     17128     17130     17125     17128     17131     17129     17128     17130
     17129     17128     17131     17130     17128     17131     17128     17131     17132
     17128     17131     17133     17128     17131     17134     17132     17131     17133
     17132     17131     17134     17133     17131     17134     17131     17134     17135
     17131     17134     17136     17131     17134     17137     17135     17134     17136
     17135     17134     17137     17136     17134     17137     17134     17137     17138
     17134     17137     17139     17134     17137     17140     17138     17137     17139
     17138     17137     17140     17139     17137     17140     17137     17140     17141
     17137     17140     17142     17137     17140     17143     17141     17140     17142
     17141     17140     17143     17142     17140     17143     17140     17143     17144
     17140     17143     17145     17140     17143     17146     17144     17143     17145
     17144     17143     17146     17145     17143     17146     17143     17146     17147
     17143     17146     17148     17143     17146     17149     17147     17146     17148
     17147     17146     17149     17148     17146     17149     17146     17149     17150
     17146     17149     17151     17146     17149     17152     17150     17149     17151
     17150     17149     17152     17151     17149     17152     17154     17153     17157
     17154     17153     17161     17154     17153     17165     17157     17153     17161
     17157     17153     17165     17161     17153     17165     17153     17154     17155
     17153     17154     17156     17153     17154     17169     17155     17154     17156
     17155     17154     17169     17156     17154     17169     17153     17157     17158
     17153     17157     17159     17153     17157     17160     17158     17157     17159
     17158     17157     17160     17159     17157     17160     17153     17161     17162
     17153     17161     17163     17153     17161     17164     17162     17161     17163
     17162     17161     17164     17163     17161     17164     17153     17165     17166
     17153     17165     17167     17153     17165     17168     17166     17165     17167
     17166     17165     17168     17167     17165     17168     17154     17169     17170
     17154     17169     17171     17154     17169     17175     17170     17169     17171
     17170     17169     17175     17171     17169     17175     17173     17172     17174
     17173     17172     17175     17173     17172     17176     17174     17172     17175
     17174     17172     17176     17175     17172     17176     17169     17175     17172
     17172     17176     17177     17176     17177     17178     17176     17177     17179
     17176     17177     17180     17178     17177     17179     17178     17177     17180
     17179     17177     17180     17177     17180     17181     17177     17180     17182
     17177     17180     17188     17181     17180     17182     17181     17180     17188
     17182     17180     17188     17180     17182     17183     17182     17183     17184
     17182     17183     17185     17184     17183     17185     17183     17185     17186
     17183     17185     17187     17183     17185     17197     17186     17185     17187
     17186     17185     17197     17187     17185     17197     17180     17188     17189
     17180     17188     17190     17180     17188     17191     17189     17188     17190
     17189     17188     17191     17190     17188     17191     17188     17191     17192
     17191     17192     17193     17191     17192     17194     17193     17192     17194
     17192     17194     17195     17192     17194     17196     17192     17194     17244
     17195     17194     17196     17195     17194     17244     17196     17194     17244
     17185     17197     17198     17185     17197     17199     17185     17197     17200
     17198     17197     17199     17198     17197     17200     17199     17197     17200
     17197     17200     17201     17197     17200     17202     17197     17200     17203
     17201     17200     17202     17201     17200     17203     17202     17200     17203
     17200     17203     17204     17200     17203     17205     17200     17203     17206
     17204     17203     17205     17204     17203     17206     17205     17203     17206
     17203     17206     17207     17203     17206     17208     17203     17206     17209
     17207     17206     17208     17207     17206     17209     17208     17206     17209
     17206     17209     17210     17206     17209     17211     17206     17209     17212
     17210     17209     17211     17210     17209     17212     17211     17209     17212
     17209     17212     17213     17209     17212     17214     17209     17212     17215
     17213     17212     17214     17213     17212     17215     17214     17212     17215
     17212     17215     17216     17212     17215     17217     17216     17215     17217
     17215     17217     17218     17215     17217     17219     17218     17217     17219
     17217     17219     17220     17217     17219     17221     17217     17219     17222
     17220     17219     17221     17220     17219     17222     17221     17219     17222
     17219     17222     17223     17219     17222     17224     17219     17222     17225
     17223     17222     17224     17223     17222     17225     17224     17222     17225
     17222     17225     17226     17222     17225     17227     17222     17225     17228
     17226     17225     17227     17226     17225     17228     17227     17225     17228
     17225     17228     17229     17225     17228     17230     17225     17228     17231
     17229     17228     17230     17229     17228     17231     17230     17228     17231
     17228     17231     17232     17228     17231     17233     17228     17231     17234
     17232     17231     17233     17232     17231     17234     17233     17231     17234
     17231     17234     17235     17231     17234     17236     17231     17234     17237
     17235     17234     17236     17235     17234     17237     17236     17234     17237
     17234     17237     17238     17234     17237     17239     17234     17237     17240
     17238     17237     17239     17238     17237     17240     17239     17237     17240
     17237     17240     17241     17237     17240     17242     17237     17240     17243
     17241     17240     17242     17241     17240     17243     17242     17240     17243
     17194     17244     17245     17194     17244     17246     17194     17244     17247
     17245     17244     17246     17245     17244     17247     17246     17244     17247
     17244     17247     17248     17244     17247     17249     17244     17247     17250
     17248     17247     17249     17248     17247     17250     17249     17247     17250
     17247     17250     17251     17247     17250     17252     17247     17250     17253
     17251     17250     17252     17251     17250     17253     17252     17250     17253
     17250     17253     17254     17250     17253     17255     17250     17253     17256
     17254     17253     17255     17254     17253     17256     17255     17253     17256
     17253     17256     17257     17253     17256     17258     17253     17256     17259
     17257     17256     17258     17257     17256     17259     17258     17256     17259
     17256     17259     17260     17256     17259     17261     17256     17259     17262
     17260     17259     17261     17260     17259     17262     17261     17259     17262
     17259     17262     17263     17259     17262     17264     17259     17262     17265
     17263     17262     17264     17263     17262     17265     17264     17262     17265
     17262     17265     17266     17262     17265     17267     17262     17265     17268
     17266     17265     17267     17266     17265     17268     17267     17265     17268
     17265     17268     17269     17265     17268     17270     17265     17268     17271
     17269     17268     17270     17269     17268     17271     17270     17268     17271
     17268     17271     17272     17268     17271     17273     17268     17271     17274
     17272     17271     17273     17272     17271     17274     17273     17271     17274
     17271     17274     17275     17271     17274     17276     17271     17274     17277
     17275     17274     17276     17275     17274     17277     17276     17274     17277
     17274     17277     17278     17274     17277     17279     17274     17277     17280
     17278     17277     17279     17278     17277     17280     17279     17277     17280
     17277     17280     17281     17277     17280     17282     17277     17280     17283
     17281     17280     17282     17281     17280     17283     17282     17280     17283
     17280     17283     17284     17280     17283     17285     17280     17283     17286
     17284     17283     17285     17284     17283     17286     17285     17283     17286
     17288     17287     17291     17288     17287     17295     17288     17287     17299
     17291     17287     17295     17291     17287     17299     17295     17287     17299
     17287     17288     17289     17287     17288     17290     17287     17288     17303
     17289     17288     17290     17289     17288     17303     17290     17288     17303
     17287     17291     17292     17287     17291     17293     17287     17291     17294
     17292     17291     17293     17292     17291     17294     17293     17291     17294
     17287     17295     17296     17287     17295     17297     17287     17295     17298
     17296     17295     17297     17296     17295     17298     17297     17295     17298
     17287     17299     17300     17287     17299     17301     17287     17299     17302
     17300     17299     17301     17300     17299     17302     17301     17299     17302
     17288     17303     17304     17288     17303     17305     17288     17303     17309
     17304     17303     17305     17304     17303     17309     17305     17303     17309
     17307     17306     17308     17307     17306     17309     17307     17306     17310
     17308     17306     17309     17308     17306     17310     17309     17306     17310
     17303     17309     17306     17306     17310     17311     17310     17311     17312
     17310     17311     17313     17310     17311     17314     17312     17311     17313
     17312     17311     17314     17313     17311     17314     17311     17314     17315
     17311     17314     17316     17311     17314     17322     17315     17314     17316
     17315     17314     17322     17316     17314     17322     17314     17316     17317
     17316     17317     17318     17316     17317     17319     17318     17317     17319
     17317     17319     17320     17317     17319     17321     17317     17319     17331
     17320     17319     17321     17320     17319     17331     17321     17319     17331
     17314     17322     17323     17314     17322     17324     17314     17322     17325
     17323     17322     17324     17323     17322     17325     17324     17322     17325
     17322     17325     17326     17325     17326     17327     17325     17326     17328
     17327     17326     17328     17326     17328     17329     17326     17328     17330
     17326     17328     17378     17329     17328     17330     17329     17328     17378
     17330     17328     17378     17319     17331     17332     17319     17331     17333
     17319     17331     17334     17332     17331     17333     17332     17331     17334
     17333     17331     17334     17331     17334     17335     17331     17334     17336
     17331     17334     17337     17335     17334     17336     17335     17334     17337
     17336     17334     17337     17334     17337     17338     17334     17337     17339
     17334     17337     17340     17338     17337     17339     17338     17337     17340
     17339     17337     17340     17337     17340     17341     17337     17340     17342
     17337     17340     17343     17341     17340     17342     17341     17340     17343
     17342     17340     17343     17340     17343     17344     17340     17343     17345
     17340     17343     17346     17344     17343     17345     17344     17343     17346
     17345     17343     17346     17343     17346     17347     17343     17346     17348
     17343     17346     17349     17347     17346     17348     17347     17346     17349
     17348     17346     17349     17346     17349     17350     17346     17349     17351
     17350     17349     17351     17349     17351     17352     17349     17351     17353
     17352     17351     17353     17351     17353     17354     17351     17353     17355
     17351     17353     17356     17354     17353     17355     17354     17353     17356
     17355     17353     17356     17353     17356     17357     17353     17356     17358
     17353     17356     17359     17357     17356     17358     17357     17356     17359
     17358     17356     17359     17356     17359     17360     17356     17359     17361
     17356     17359     17362     17360     17359     17361     17360     17359     17362
     17361     17359     17362     17359     17362     17363     17359     17362     17364
     17359     17362     17365     17363     17362     17364     17363     17362     17365
     17364     17362     17365     17362     17365     17366     17362     17365     17367
     17362     17365     17368     17366     17365     17367     17366     17365     17368
     17367     17365     17368     17365     17368     17369     17365     17368     17370
     17365     17368     17371     17369     17368     17370     17369     17368     17371
     17370     17368     17371     17368     17371     17372     17368     17371     17373
     17368     17371     17374     17372     17371     17373     17372     17371     17374
     17373     17371     17374     17371     17374     17375     17371     17374     17376
     17371     17374     17377     17375     17374     17376     17375     17374     17377
     17376     17374     17377     17328     17378     17379     17328     17378     17380
     17328     17378     17381     17379     17378     17380     17379     17378     17381
     17380     17378     17381     17378     17381     17382     17378     17381     17383
     17378     17381     17384     17382     17381     17383     17382     17381     17384
     17383     17381     17384     17381     17384     17385     17381     17384     17386
     17381     17384     17387     17385     17384     17386     17385     17384     17387
     17386     17384     17387     17384     17387     17388     17384     17387     17389
     17384     17387     17390     17388     17387     17389     17388     17387     17390
     17389     17387     17390     17387     17390     17391     17387     17390     17392
     17387     17390     17393     17391     17390     17392     17391     17390     17393
     17392     17390     17393     17390     17393     17394     17390     17393     17395
     17390     17393     17396     17394     17393     17395     17394     17393     17396
     17395     17393     17396     17393     17396     17397     17393     17396     17398
     17393     17396     17399     17397     17396     17398     17397     17396     17399
     17398     17396     17399     17396     17399     17400     17396     17399     17401
     17396     17399     17402     17400     17399     17401     17400     17399     17402
     17401     17399     17402     17399     17402     17403     17399     17402     17404
     17399     17402     17405     17403     17402     17404     17403     17402     17405
     17404     17402     17405     17402     17405     17406     17402     17405     17407
     17402     17405     17408     17406     17405     17407     17406     17405     17408
     17407     17405     17408     17405     17408     17409     17405     17408     17410
     17405     17408     17411     17409     17408     17410     17409     17408     17411
     17410     17408     17411     17408     17411     17412     17408     17411     17413
     17408     17411     17414     17412     17411     17413     17412     17411     17414
     17413     17411     17414     17411     17414     17415     17411     17414     17416
     17411     17414     17417     17415     17414     17416     17415     17414     17417
     17416     17414     17417     17414     17417     17418     17414     17417     17419
     17414     17417     17420     17418     17417     17419     17418     17417     17420
     17419     17417     17420     17422     17421     17425     17422     17421     17429
     17422     17421     17433     17425     17421     17429     17425     17421     17433
     17429     17421     17433     17421     17422     17423     17421     17422     17424
     17421     17422     17437     17423     17422     17424     17423     17422     17437
     17424     17422     17437     17421     17425     17426     17421     17425     17427
     17421     17425     17428     17426     17425     17427     17426     17425     17428
     17427     17425     17428     17421     17429     17430     17421     17429     17431
     17421     17429     17432     17430     17429     17431     17430     17429     17432
     17431     17429     17432     17421     17433     17434     17421     17433     17435
     17421     17433     17436     17434     17433     17435     17434     17433     17436
     17435     17433     17436     17422     17437     17438     17422     17437     17439
     17422     17437     17443     17438     17437     17439     17438     17437     17443
     17439     17437     17443     17441     17440     17442     17441     17440     17443
     17441     17440     17444     17442     17440     17443     17442     17440     17444
     17443     17440     17444     17437     17443     17440     17440     17444     17445
     17444     17445     17446     17444     17445     17447     17444     17445     17448
     17446     17445     17447     17446     17445     17448     17447     17445     17448
     17445     17448     17449     17445     17448     17450     17445     17448     17456
     17449     17448     17450     17449     17448     17456     17450     17448     17456
     17448     17450     17451     17450     17451     17452     17450     17451     17453
     17452     17451     17453     17451     17453     17454     17451     17453     17455
     17451     17453     17465     17454     17453     17455     17454     17453     17465
     17455     17453     17465     17448     17456     17457     17448     17456     17458
     17448     17456     17459     17457     17456     17458     17457     17456     17459
     17458     17456     17459     17456     17459     17460     17459     17460     17461
     17459     17460     17462     17461     17460     17462     17460     17462     17463
     17460     17462     17464     17460     17462     17512     17463     17462     17464
     17463     17462     17512     17464     17462     17512     17453     17465     17466
     17453     17465     17467     17453     17465     17468     17466     17465     17467
     17466     17465     17468     17467     17465     17468     17465     17468     17469
     17465     17468     17470     17465     17468     17471     17469     17468     17470
     17469     17468     17471     17470     17468     17471     17468     17471     17472
     17468     17471     17473     17468     17471     17474     17472     17471     17473
     17472     17471     17474     17473     17471     17474     17471     17474     17475
     17471     17474     17476     17471     17474     17477     17475     17474     17476
     17475     17474     17477     17476     17474     17477     17474     17477     17478
     17474     17477     17479     17474     17477     17480     17478     17477     17479
     17478     17477     17480     17479     17477     17480     17477     17480     17481
     17477     17480     17482     17477     17480     17483     17481     17480     17482
     17481     17480     17483     17482     17480     17483     17480     17483     17484
     17480     17483     17485     17484     17483     17485     17483     17485     17486
     17483     17485     17487     17486     17485     17487     17485     17487     17488
     17485     17487     17489     17485     17487     17490     17488     17487     17489
     17488     17487     17490     17489     17487     17490     17487     17490     17491
     17487     17490     17492     17487     17490     17493     17491     17490     17492
     17491     17490     17493     17492     17490     17493     17490     17493     17494
     17490     17493     17495     17490     17493     17496     17494     17493     17495
     17494     17493     17496     17495     17493     17496     17493     17496     17497
     17493     17496     17498     17493     17496     17499     17497     17496     17498
     17497     17496     17499     17498     17496     17499     17496     17499     17500
     17496     17499     17501     17496     17499     17502     17500     17499     17501
     17500     17499     17502     17501     17499     17502     17499     17502     17503
     17499     17502     17504     17499     17502     17505     17503     17502     17504
     17503     17502     17505     17504     17502     17505     17502     17505     17506
     17502     17505     17507     17502     17505     17508     17506     17505     17507
     17506     17505     17508     17507     17505     17508     17505     17508     17509
     17505     17508     17510     17505     17508     17511     17509     17508     17510
     17509     17508     17511     17510     17508     17511     17462     17512     17513
     17462     17512     17514     17462     17512     17515     17513     17512     17514
     17513     17512     17515     17514     17512     17515     17512     17515     17516
     17512     17515     17517     17512     17515     17518     17516     17515     17517
     17516     17515     17518     17517     17515     17518     17515     17518     17519
     17515     17518     17520     17515     17518     17521     17519     17518     17520
     17519     17518     17521     17520     17518     17521     17518     17521     17522
     17518     17521     17523     17518     17521     17524     17522     17521     17523
     17522     17521     17524     17523     17521     17524     17521     17524     17525
     17521     17524     17526     17521     17524     17527     17525     17524     17526
     17525     17524     17527     17526     17524     17527     17524     17527     17528
     17524     17527     17529     17524     17527     17530     17528     17527     17529
     17528     17527     17530     17529     17527     17530     17527     17530     17531
     17527     17530     17532     17527     17530     17533     17531     17530     17532
     17531     17530     17533     17532     17530     17533     17530     17533     17534
     17530     17533     17535     17530     17533     17536     17534     17533     17535
     17534     17533     17536     17535     17533     17536     17533     17536     17537
     17533     17536     17538     17533     17536     17539     17537     17536     17538
     17537     17536     17539     17538     17536     17539     17536     17539     17540
     17536     17539     17541     17536     17539     17542     17540     17539     17541
     17540     17539     17542     17541     17539     17542     17539     17542     17543
     17539     17542     17544     17539     17542     17545     17543     17542     17544
     17543     17542     17545     17544     17542     17545     17542     17545     17546
     17542     17545     17547     17542     17545     17548     17546     17545     17547
     17546     17545     17548     17547     17545     17548     17545     17548     17549
     17545     17548     17550     17545     17548     17551     17549     17548     17550
     17549     17548     17551     17550     17548     17551     17548     17551     17552
     17548     17551     17553     17548     17551     17554     17552     17551     17553
     17552     17551     17554     17553     17551     17554     17556     17555     17559
     17556     17555     17563     17556     17555     17567     17559     17555     17563
     17559     17555     17567     17563     17555     17567     17555     17556     17557
     17555     17556     17558     17555     17556     17571     17557     17556     17558
     17557     17556     17571     17558     17556     17571     17555     17559     17560
     17555     17559     17561     17555     17559     17562     17560     17559     17561
     17560     17559     17562     17561     17559     17562     17555     17563     17564
     17555     17563     17565     17555     17563     17566     17564     17563     17565
     17564     17563     17566     17565     17563     17566     17555     17567     17568
     17555     17567     17569     17555     17567     17570     17568     17567     17569
     17568     17567     17570     17569     17567     17570     17556     17571     17572
     17556     17571     17573     17556     17571     17577     17572     17571     17573
     17572     17571     17577     17573     17571     17577     17575     17574     17576
     17575     17574     17577     17575     17574     17578     17576     17574     17577
     17576     17574     17578     17577     17574     17578     17571     17577     17574
     17574     17578     17579     17578     17579     17580     17578     17579     17581
     17578     17579     17582     17580     17579     17581     17580     17579     17582
     17581     17579     17582     17579     17582     17583     17579     17582     17584
     17579     17582     17590     17583     17582     17584     17583     17582     17590
     17584     17582     17590     17582     17584     17585     17584     17585     17586
     17584     17585     17587     17586     17585     17587     17585     17587     17588
     17585     17587     17589     17585     17587     17599     17588     17587     17589
     17588     17587     17599     17589     17587     17599     17582     17590     17591
     17582     17590     17592     17582     17590     17593     17591     17590     17592
     17591     17590     17593     17592     17590     17593     17590     17593     17594
     17593     17594     17595     17593     17594     17596     17595     17594     17596
     17594     17596     17597     17594     17596     17598     17594     17596     17646
     17597     17596     17598     17597     17596     17646     17598     17596     17646
     17587     17599     17600     17587     17599     17601     17587     17599     17602
     17600     17599     17601     17600     17599     17602     17601     17599     17602
     17599     17602     17603     17599     17602     17604     17599     17602     17605
     17603     17602     17604     17603     17602     17605     17604     17602     17605
     17602     17605     17606     17602     17605     17607     17602     17605     17608
     17606     17605     17607     17606     17605     17608     17607     17605     17608
     17605     17608     17609     17605     17608     17610     17605     17608     17611
     17609     17608     17610     17609     17608     17611     17610     17608     17611
     17608     17611     17612     17608     17611     17613     17608     17611     17614
     17612     17611     17613     17612     17611     17614     17613     17611     17614
     17611     17614     17615     17611     17614     17616     17611     17614     17617
     17615     17614     17616     17615     17614     17617     17616     17614     17617
     17614     17617     17618     17614     17617     17619     17618     17617     17619
     17617     17619     17620     17617     17619     17621     17620     17619     17621
     17619     17621     17622     17619     17621     17623     17619     17621     17624
     17622     17621     17623     17622     17621     17624     17623     17621     17624
     17621     17624     17625     17621     17624     17626     17621     17624     17627
     17625     17624     17626     17625     17624     17627     17626     17624     17627
     17624     17627     17628     17624     17627     17629     17624     17627     17630
     17628     17627     17629     17628     17627     17630     17629     17627     17630
     17627     17630     17631     17627     17630     17632     17627     17630     17633
     17631     17630     17632     17631     17630     17633     17632     17630     17633
     17630     17633     17634     17630     17633     17635     17630     17633     17636
     17634     17633     17635     17634     17633     17636     17635     17633     17636
     17633     17636     17637     17633     17636     17638     17633     17636     17639
     17637     17636     17638     17637     17636     17639     17638     17636     17639
     17636     17639     17640     17636     17639     17641     17636     17639     17642
     17640     17639     17641     17640     17639     17642     17641     17639     17642
     17639     17642     17643     17639     17642     17644     17639     17642     17645
     17643     17642     17644     17643     17642     17645     17644     17642     17645
     17596     17646     17647     17596     17646     17648     17596     17646     17649
     17647     17646     17648     17647     17646     17649     17648     17646     17649
     17646     17649     17650     17646     17649     17651     17646     17649     17652
     17650     17649     17651     17650     17649     17652     17651     17649     17652
     17649     17652     17653     17649     17652     17654     17649     17652     17655
     17653     17652     17654     17653     17652     17655     17654     17652     17655
     17652     17655     17656     17652     17655     17657     17652     17655     17658
     17656     17655     17657     17656     17655     17658     17657     17655     17658
     17655     17658     17659     17655     17658     17660     17655     17658     17661
     17659     17658     17660     17659     17658     17661     17660     17658     17661
     17658     17661     17662     17658     17661     17663     17658     17661     17664
     17662     17661     17663     17662     17661     17664     17663     17661     17664
     17661     17664     17665     17661     17664     17666     17661     17664     17667
     17665     17664     17666     17665     17664     17667     17666     17664     17667
     17664     17667     17668     17664     17667     17669     17664     17667     17670
     17668     17667     17669     17668     17667     17670     17669     17667     17670
     17667     17670     17671     17667     17670     17672     17667     17670     17673
     17671     17670     17672     17671     17670     17673     17672     17670     17673
     17670     17673     17674     17670     17673     17675     17670     17673     17676
     17674     17673     17675     17674     17673     17676     17675     17673     17676
     17673     17676     17677     17673     17676     17678     17673     17676     17679
     17677     17676     17678     17677     17676     17679     17678     17676     17679
     17676     17679     17680     17676     17679     17681     17676     17679     17682
     17680     17679     17681     17680     17679     17682     17681     17679     17682
     17679     17682     17683     17679     17682     17684     17679     17682     17685
     17683     17682     17684     17683     17682     17685     17684     17682     17685
     17682     17685     17686     17682     17685     17687     17682     17685     17688
     17686     17685     17687     17686     17685     17688     17687     17685     17688
     17690     17689     17693     17690     17689     17697     17690     17689     17701
     17693     17689     17697     17693     17689     17701     17697     17689     17701
     17689     17690     17691     17689     17690     17692     17689     17690     17705
     17691     17690     17692     17691     17690     17705     17692     17690     17705
     17689     17693     17694     17689     17693     17695     17689     17693     17696
     17694     17693     17695     17694     17693     17696     17695     17693     17696
     17689     17697     17698     17689     17697     17699     17689     17697     17700
     17698     17697     17699     17698     17697     17700     17699     17697     17700
     17689     17701     17702     17689     17701     17703     17689     17701     17704
     17702     17701     17703     17702     17701     17704     17703     17701     17704
     17690     17705     17706     17690     17705     17707     17690     17705     17711
     17706     17705     17707     17706     17705     17711     17707     17705     17711
     17709     17708     17710     17709     17708     17711     17709     17708     17712
     17710     17708     17711     17710     17708     17712     17711     17708     17712
     17705     17711     17708     17708     17712     17713     17712     17713     17714
     17712     17713     17715     17712     17713     17716     17714     17713     17715
     17714     17713     17716     17715     17713     17716     17713     17716     17717
     17713     17716     17718     17713     17716     17724     17717     17716     17718
     17717     17716     17724     17718     17716     17724     17716     17718     17719
     17718     17719     17720     17718     17719     17721     17720     17719     17721
     17719     17721     17722     17719     17721     17723     17719     17721     17733
     17722     17721     17723     17722     17721     17733     17723     17721     17733
     17716     17724     17725     17716     17724     17726     17716     17724     17727
     17725     17724     17726     17725     17724     17727     17726     17724     17727
     17724     17727     17728     17727     17728     17729     17727     17728     17730
     17729     17728     17730     17728     17730     17731     17728     17730     17732
     17728     17730     17780     17731     17730     17732     17731     17730     17780
     17732     17730     17780     17721     17733     17734     17721     17733     17735
     17721     17733     17736     17734     17733     17735     17734     17733     17736
     17735     17733     17736     17733     17736     17737     17733     17736     17738
     17733     17736     17739     17737     17736     17738     17737     17736     17739
     17738     17736     17739     17736     17739     17740     17736     17739     17741
     17736     17739     17742     17740     17739     17741     17740     17739     17742
     17741     17739     17742     17739     17742     17743     17739     17742     17744
     17739     17742     17745     17743     17742     17744     17743     17742     17745
     17744     17742     17745     17742     17745     17746     17742     17745     17747
     17742     17745     17748     17746     17745     17747     17746     17745     17748
     17747     17745     17748     17745     17748     17749     17745     17748     17750
     17745     17748     17751     17749     17748     17750     17749     17748     17751
     17750     17748     17751     17748     17751     17752     17748     17751     17753
     17752     17751     17753     17751     17753     17754     17751     17753     17755
     17754     17753     17755     17753     17755     17756     17753     17755     17757
     17753     17755     17758     17756     17755     17757     17756     17755     17758
     17757     17755     17758     17755     17758     17759     17755     17758     17760
     17755     17758     17761     17759     17758     17760     17759     17758     17761
     17760     17758     17761     17758     17761     17762     17758     17761     17763
     17758     17761     17764     17762     17761     17763     17762     17761     17764
     17763     17761     17764     17761     17764     17765     17761     17764     17766
     17761     17764     17767     17765     17764     17766     17765     17764     17767
     17766     17764     17767     17764     17767     17768     17764     17767     17769
     17764     17767     17770     17768     17767     17769     17768     17767     17770
     17769     17767     17770     17767     17770     17771     17767     17770     17772
     17767     17770     17773     17771     17770     17772     17771     17770     17773
     17772     17770     17773     17770     17773     17774     17770     17773     17775
     17770     17773     17776     17774     17773     17775     17774     17773     17776
     17775     17773     17776     17773     17776     17777     17773     17776     17778
     17773     17776     17779     17777     17776     17778     17777     17776     17779
     17778     17776     17779     17730     17780     17781     17730     17780     17782
     17730     17780     17783     17781     17780     17782     17781     17780     17783
     17782     17780     17783     17780     17783     17784     17780     17783     17785
     17780     17783     17786     17784     17783     17785     17784     17783     17786
     17785     17783     17786     17783     17786     17787     17783     17786     17788
     17783     17786     17789     17787     17786     17788     17787     17786     17789
     17788     17786     17789     17786     17789     17790     17786     17789     17791
     17786     17789     17792     17790     17789     17791     17790     17789     17792
     17791     17789     17792     17789     17792     17793     17789     17792     17794
     17789     17792     17795     17793     17792     17794     17793     17792     17795
     17794     17792     17795     17792     17795     17796     17792     17795     17797
     17792     17795     17798     17796     17795     17797     17796     17795     17798
     17797     17795     17798     17795     17798     17799     17795     17798     17800
     17795     17798     17801     17799     17798     17800     17799     17798     17801
     17800     17798     17801     17798     17801     17802     17798     17801     17803
     17798     17801     17804     17802     17801     17803     17802     17801     17804
     17803     17801     17804     17801     17804     17805     17801     17804     17806
     17801     17804     17807     17805     17804     17806     17805     17804     17807
     17806     17804     17807     17804     17807     17808     17804     17807     17809
     17804     17807     17810     17808     17807     17809     17808     17807     17810
     17809     17807     17810     17807     17810     17811     17807     17810     17812
     17807     17810     17813     17811     17810     17812     17811     17810     17813
     17812     17810     17813     17810     17813     17814     17810     17813     17815
     17810     17813     17816     17814     17813     17815     17814     17813     17816
     17815     17813     17816     17813     17816     17817     17813     17816     17818
     17813     17816     17819     17817     17816     17818     17817     17816     17819
     17818     17816     17819     17816     17819     17820     17816     17819     17821
     17816     17819     17822     17820     17819     17821     17820     17819     17822
     17821     17819     17822     17824     17823     17827     17824     17823     17831
     17824     17823     17835     17827     17823     17831     17827     17823     17835
     17831     17823     17835     17823     17824     17825     17823     17824     17826
     17823     17824     17839     17825     17824     17826     17825     17824     17839
     17826     17824     17839     17823     17827     17828     17823     17827     17829
     17823     17827     17830     17828     17827     17829     17828     17827     17830
     17829     17827     17830     17823     17831     17832     17823     17831     17833
     17823     17831     17834     17832     17831     17833     17832     17831     17834
     17833     17831     17834     17823     17835     17836     17823     17835     17837
     17823     17835     17838     17836     17835     17837     17836     17835     17838
     17837     17835     17838     17824     17839     17840     17824     17839     17841
     17824     17839     17845     17840     17839     17841     17840     17839     17845
     17841     17839     17845     17843     17842     17844     17843     17842     17845
     17843     17842     17846     17844     17842     17845     17844     17842     17846
     17845     17842     17846     17839     17845     17842     17842     17846     17847
     17846     17847     17848     17846     17847     17849     17846     17847     17850
     17848     17847     17849     17848     17847     17850     17849     17847     17850
     17847     17850     17851     17847     17850     17852     17847     17850     17858
     17851     17850     17852     17851     17850     17858     17852     17850     17858
     17850     17852     17853     17852     17853     17854     17852     17853     17855
     17854     17853     17855     17853     17855     17856     17853     17855     17857
     17853     17855     17867     17856     17855     17857     17856     17855     17867
     17857     17855     17867     17850     17858     17859     17850     17858     17860
     17850     17858     17861     17859     17858     17860     17859     17858     17861
     17860     17858     17861     17858     17861     17862     17861     17862     17863
     17861     17862     17864     17863     17862     17864     17862     17864     17865
     17862     17864     17866     17862     17864     17914     17865     17864     17866
     17865     17864     17914     17866     17864     17914     17855     17867     17868
     17855     17867     17869     17855     17867     17870     17868     17867     17869
     17868     17867     17870     17869     17867     17870     17867     17870     17871
     17867     17870     17872     17867     17870     17873     17871     17870     17872
     17871     17870     17873     17872     17870     17873     17870     17873     17874
     17870     17873     17875     17870     17873     17876     17874     17873     17875
     17874     17873     17876     17875     17873     17876     17873     17876     17877
     17873     17876     17878     17873     17876     17879     17877     17876     17878
     17877     17876     17879     17878     17876     17879     17876     17879     17880
     17876     17879     17881     17876     17879     17882     17880     17879     17881
     17880     17879     17882     17881     17879     17882     17879     17882     17883
     17879     17882     17884     17879     17882     17885     17883     17882     17884
     17883     17882     17885     17884     17882     17885     17882     17885     17886
     17882     17885     17887     17886     17885     17887     17885     17887     17888
     17885     17887     17889     17888     17887     17889     17887     17889     17890
     17887     17889     17891     17887     17889     17892     17890     17889     17891
     17890     17889     17892     17891     17889     17892     17889     17892     17893
     17889     17892     17894     17889     17892     17895     17893     17892     17894
     17893     17892     17895     17894     17892     17895     17892     17895     17896
     17892     17895     17897     17892     17895     17898     17896     17895     17897
     17896     17895     17898     17897     17895     17898     17895     17898     17899
     17895     17898     17900     17895     17898     17901     17899     17898     17900
     17899     17898     17901     17900     17898     17901     17898     17901     17902
     17898     17901     17903     17898     17901     17904     17902     17901     17903
     17902     17901     17904     17903     17901     17904     17901     17904     17905
     17901     17904     17906     17901     17904     17907     17905     17904     17906
     17905     17904     17907     17906     17904     17907     17904     17907     17908
     17904     17907     17909     17904     17907     17910     17908     17907     17909
     17908     17907     17910     17909     17907     17910     17907     17910     17911
     17907     17910     17912     17907     17910     17913     17911     17910     17912
     17911     17910     17913     17912     17910     17913     17864     17914     17915
     17864     17914     17916     17864     17914     17917     17915     17914     17916
     17915     17914     17917     17916     17914     17917     17914     17917     17918
     17914     17917     17919     17914     17917     17920     17918     17917     17919
     17918     17917     17920     17919     17917     17920     17917     17920     17921
     17917     17920     17922     17917     17920     17923     17921     17920     17922
     17921     17920     17923     17922     17920     17923     17920     17923     17924
     17920     17923     17925     17920     17923     17926     17924     17923     17925
     17924     17923     17926     17925     17923     17926     17923     17926     17927
     17923     17926     17928     17923     17926     17929     17927     17926     17928
     17927     17926     17929     17928     17926     17929     17926     17929     17930
     17926     17929     17931     17926     17929     17932     17930     17929     17931
     17930     17929     17932     17931     17929     17932     17929     17932     17933
     17929     17932     17934     17929     17932     17935     17933     17932     17934
     17933     17932     17935     17934     17932     17935     17932     17935     17936
     17932     17935     17937     17932     17935     17938     17936     17935     17937
     17936     17935     17938     17937     17935     17938     17935     17938     17939
     17935     17938     17940     17935     17938     17941     17939     17938     17940
     17939     17938     17941     17940     17938     17941     17938     17941     17942
     17938     17941     17943     17938     17941     17944     17942     17941     17943
     17942     17941     17944     17943     17941     17944     17941     17944     17945
     17941     17944     17946     17941     17944     17947     17945     17944     17946
     17945     17944     17947     17946     17944     17947     17944     17947     17948
     17944     17947     17949     17944     17947     17950     17948     17947     17949
     17948     17947     17950     17949     17947     17950     17947     17950     17951
     17947     17950     17952     17947     17950     17953     17951     17950     17952
     17951     17950     17953     17952     17950     17953     17950     17953     17954
     17950     17953     17955     17950     17953     17956     17954     17953     17955
     17954     17953     17956     17955     17953     17956     17958     17957     17961
     17958     17957     17965     17958     17957     17969     17961     17957     17965
     17961     17957     17969     17965     17957     17969     17957     17958     17959
     17957     17958     17960     17957     17958     17973     17959     17958     17960
     17959     17958     17973     17960     17958     17973     17957     17961     17962
     17957     17961     17963     17957     17961     17964     17962     17961     17963
     17962     17961     17964     17963     17961     17964     17957     17965     17966
     17957     17965     17967     17957     17965     17968     17966     17965     17967
     17966     17965     17968     17967     17965     17968     17957     17969     17970
     17957     17969     17971     17957     17969     17972     17970     17969     17971
     17970     17969     17972     17971     17969     17972     17958     17973     17974
     17958     17973     17975     17958     17973     17979     17974     17973     17975
     17974     17973     17979     17975     17973     17979     17977     17976     17978
     17977     17976     17979     17977     17976     17980     17978     17976     17979
     17978     17976     17980     17979     17976     17980     17973     17979     17976
     17976     17980     17981     17980     17981     17982     17980     17981     17983
     17980     17981     17984     17982     17981     17983     17982     17981     17984
     17983     17981     17984     17981     17984     17985     17981     17984     17986
     17981     17984     17992     17985     17984     17986     17985     17984     17992
     17986     17984     17992     17984     17986     17987     17986     17987     17988
     17986     17987     17989     17988     17987     17989     17987     17989     17990
     17987     17989     17991     17987     17989     18001     17990     17989     17991
     17990     17989     18001     17991     17989     18001     17984     17992     17993
     17984     17992     17994     17984     17992     17995     17993     17992     17994
     17993     17992     17995     17994     17992     17995     17992     17995     17996
     17995     17996     17997     17995     17996     17998     17997     17996     17998
     17996     17998     17999     17996     17998     18000     17996     17998     18048
     17999     17998     18000     17999     17998     18048     18000     17998     18048
     17989     18001     18002     17989     18001     18003     17989     18001     18004
     18002     18001     18003     18002     18001     18004     18003     18001     18004
     18001     18004     18005     18001     18004     18006     18001     18004     18007
     18005     18004     18006     18005     18004     18007     18006     18004     18007
     18004     18007     18008     18004     18007     18009     18004     18007     18010
     18008     18007     18009     18008     18007     18010     18009     18007     18010
     18007     18010     18011     18007     18010     18012     18007     18010     18013
     18011     18010     18012     18011     18010     18013     18012     18010     18013
     18010     18013     18014     18010     18013     18015     18010     18013     18016
     18014     18013     18015     18014     18013     18016     18015     18013     18016
     18013     18016     18017     18013     18016     18018     18013     18016     18019
     18017     18016     18018     18017     18016     18019     18018     18016     18019
     18016     18019     18020     18016     18019     18021     18020     18019     18021
     18019     18021     18022     18019     18021     18023     18022     18021     18023
     18021     18023     18024     18021     18023     18025     18021     18023     18026
     18024     18023     18025     18024     18023     18026     18025     18023     18026
     18023     18026     18027     18023     18026     18028     18023     18026     18029
     18027     18026     18028     18027     18026     18029     18028     18026     18029
     18026     18029     18030     18026     18029     18031     18026     18029     18032
     18030     18029     18031     18030     18029     18032     18031     18029     18032
     18029     18032     18033     18029     18032     18034     18029     18032     18035
     18033     18032     18034     18033     18032     18035     18034     18032     18035
     18032     18035     18036     18032     18035     18037     18032     18035     18038
     18036     18035     18037     18036     18035     18038     18037     18035     18038
     18035     18038     18039     18035     18038     18040     18035     18038     18041
     18039     18038     18040     18039     18038     18041     18040     18038     18041
     18038     18041     18042     18038     18041     18043     18038     18041     18044
     18042     18041     18043     18042     18041     18044     18043     18041     18044
     18041     18044     18045     18041     18044     18046     18041     18044     18047
     18045     18044     18046     18045     18044     18047     18046     18044     18047
     17998     18048     18049     17998     18048     18050     17998     18048     18051
     18049     18048     18050     18049     18048     18051     18050     18048     18051
     18048     18051     18052     18048     18051     18053     18048     18051     18054
     18052     18051     18053     18052     18051     18054     18053     18051     18054
     18051     18054     18055     18051     18054     18056     18051     18054     18057
     18055     18054     18056     18055     18054     18057     18056     18054     18057
     18054     18057     18058     18054     18057     18059     18054     18057     18060
     18058     18057     18059     18058     18057     18060     18059     18057     18060
     18057     18060     18061     18057     18060     18062     18057     18060     18063
     18061     18060     18062     18061     18060     18063     18062     18060     18063
     18060     18063     18064     18060     18063     18065     18060     18063     18066
     18064     18063     18065     18064     18063     18066     18065     18063     18066
     18063     18066     18067     18063     18066     18068     18063     18066     18069
     18067     18066     18068     18067     18066     18069     18068     18066     18069
     18066     18069     18070     18066     18069     18071     18066     18069     18072
     18070     18069     18071     18070     18069     18072     18071     18069     18072
     18069     18072     18073     18069     18072     18074     18069     18072     18075
     18073     18072     18074     18073     18072     18075     18074     18072     18075
     18072     18075     18076     18072     18075     18077     18072     18075     18078
     18076     18075     18077     18076     18075     18078     18077     18075     18078
     18075     18078     18079     18075     18078     18080     18075     18078     18081
     18079     18078     18080     18079     18078     18081     18080     18078     18081
     18078     18081     18082     18078     18081     18083     18078     18081     18084
     18082     18081     18083     18082     18081     18084     18083     18081     18084
     18081     18084     18085     18081     18084     18086     18081     18084     18087
     18085     18084     18086     18085     18084     18087     18086     18084     18087
     18084     18087     18088     18084     18087     18089     18084     18087     18090
     18088     18087     18089     18088     18087     18090     18089     18087     18090
     18092     18091     18095     18092     18091     18099     18092     18091     18103
     18095     18091     18099     18095     18091     18103     18099     18091     18103
     18091     18092     18093     18091     18092     18094     18091     18092     18107
     18093     18092     18094     18093     18092     18107     18094     18092     18107
     18091     18095     18096     18091     18095     18097     18091     18095     18098
     18096     18095     18097     18096     18095     18098     18097     18095     18098
     18091     18099     18100     18091     18099     18101     18091     18099     18102
     18100     18099     18101     18100     18099     18102     18101     18099     18102
     18091     18103     18104     18091     18103     18105     18091     18103     18106
     18104     18103     18105     18104     18103     18106     18105     18103     18106
     18092     18107     18108     18092     18107     18109     18092     18107     18113
     18108     18107     18109     18108     18107     18113     18109     18107     18113
     18111     18110     18112     18111     18110     18113     18111     18110     18114
     18112     18110     18113     18112     18110     18114     18113     18110     18114
     18107     18113     18110     18110     18114     18115     18114     18115     18116
     18114     18115     18117     18114     18115     18118     18116     18115     18117
     18116     18115     18118     18117     18115     18118     18115     18118     18119
     18115     18118     18120     18115     18118     18126     18119     18118     18120
     18119     18118     18126     18120     18118     18126     18118     18120     18121
     18120     18121     18122     18120     18121     18123     18122     18121     18123
     18121     18123     18124     18121     18123     18125     18121     18123     18135
     18124     18123     18125     18124     18123     18135     18125     18123     18135
     18118     18126     18127     18118     18126     18128     18118     18126     18129
     18127     18126     18128     18127     18126     18129     18128     18126     18129
     18126     18129     18130     18129     18130     18131     18129     18130     18132
     18131     18130     18132     18130     18132     18133     18130     18132     18134
     18130     18132     18182     18133     18132     18134     18133     18132     18182
     18134     18132     18182     18123     18135     18136     18123     18135     18137
     18123     18135     18138     18136     18135     18137     18136     18135     18138
     18137     18135     18138     18135     18138     18139     18135     18138     18140
     18135     18138     18141     18139     18138     18140     18139     18138     18141
     18140     18138     18141     18138     18141     18142     18138     18141     18143
     18138     18141     18144     18142     18141     18143     18142     18141     18144
     18143     18141     18144     18141     18144     18145     18141     18144     18146
     18141     18144     18147     18145     18144     18146     18145     18144     18147
     18146     18144     18147     18144     18147     18148     18144     18147     18149
     18144     18147     18150     18148     18147     18149     18148     18147     18150
     18149     18147     18150     18147     18150     18151     18147     18150     18152
     18147     18150     18153     18151     18150     18152     18151     18150     18153
     18152     18150     18153     18150     18153     18154     18150     18153     18155
     18154     18153     18155     18153     18155     18156     18153     18155     18157
     18156     18155     18157     18155     18157     18158     18155     18157     18159
     18155     18157     18160     18158     18157     18159     18158     18157     18160
     18159     18157     18160     18157     18160     18161     18157     18160     18162
     18157     18160     18163     18161     18160     18162     18161     18160     18163
     18162     18160     18163     18160     18163     18164     18160     18163     18165
     18160     18163     18166     18164     18163     18165     18164     18163     18166
     18165     18163     18166     18163     18166     18167     18163     18166     18168
     18163     18166     18169     18167     18166     18168     18167     18166     18169
     18168     18166     18169     18166     18169     18170     18166     18169     18171
     18166     18169     18172     18170     18169     18171     18170     18169     18172
     18171     18169     18172     18169     18172     18173     18169     18172     18174
     18169     18172     18175     18173     18172     18174     18173     18172     18175
     18174     18172     18175     18172     18175     18176     18172     18175     18177
     18172     18175     18178     18176     18175     18177     18176     18175     18178
     18177     18175     18178     18175     18178     18179     18175     18178     18180
     18175     18178     18181     18179     18178     18180     18179     18178     18181
     18180     18178     18181     18132     18182     18183     18132     18182     18184
     18132     18182     18185     18183     18182     18184     18183     18182     18185
     18184     18182     18185     18182     18185     18186     18182     18185     18187
     18182     18185     18188     18186     18185     18187     18186     18185     18188
     18187     18185     18188     18185     18188     18189     18185     18188     18190
     18185     18188     18191     18189     18188     18190     18189     18188     18191
     18190     18188     18191     18188     18191     18192     18188     18191     18193
     18188     18191     18194     18192     18191     18193     18192     18191     18194
     18193     18191     18194     18191     18194     18195     18191     18194     18196
     18191     18194     18197     18195     18194     18196     18195     18194     18197
     18196     18194     18197     18194     18197     18198     18194     18197     18199
     18194     18197     18200     18198     18197     18199     18198     18197     18200
     18199     18197     18200     18197     18200     18201     18197     18200     18202
     18197     18200     18203     18201     18200     18202     18201     18200     18203
     18202     18200     18203     18200     18203     18204     18200     18203     18205
     18200     18203     18206     18204     18203     18205     18204     18203     18206
     18205     18203     18206     18203     18206     18207     18203     18206     18208
     18203     18206     18209     18207     18206     18208     18207     18206     18209
     18208     18206     18209     18206     18209     18210     18206     18209     18211
     18206     18209     18212     18210     18209     18211     18210     18209     18212
     18211     18209     18212     18209     18212     18213     18209     18212     18214
     18209     18212     18215     18213     18212     18214     18213     18212     18215
     18214     18212     18215     18212     18215     18216     18212     18215     18217
     18212     18215     18218     18216     18215     18217     18216     18215     18218
     18217     18215     18218     18215     18218     18219     18215     18218     18220
     18215     18218     18221     18219     18218     18220     18219     18218     18221
     18220     18218     18221     18218     18221     18222     18218     18221     18223
     18218     18221     18224     18222     18221     18223     18222     18221     18224
     18223     18221     18224     18226     18225     18229     18226     18225     18233
     18226     18225     18237     18229     18225     18233     18229     18225     18237
     18233     18225     18237     18225     18226     18227     18225     18226     18228
     18225     18226     18241     18227     18226     18228     18227     18226     18241
     18228     18226     18241     18225     18229     18230     18225     18229     18231
     18225     18229     18232     18230     18229     18231     18230     18229     18232
     18231     18229     18232     18225     18233     18234     18225     18233     18235
     18225     18233     18236     18234     18233     18235     18234     18233     18236
     18235     18233     18236     18225     18237     18238     18225     18237     18239
     18225     18237     18240     18238     18237     18239     18238     18237     18240
     18239     18237     18240     18226     18241     18242     18226     18241     18243
     18226     18241     18247     18242     18241     18243     18242     18241     18247
     18243     18241     18247     18245     18244     18246     18245     18244     18247
     18245     18244     18248     18246     18244     18247     18246     18244     18248
     18247     18244     18248     18241     18247     18244     18244     18248     18249
     18248     18249     18250     18248     18249     18251     18248     18249     18252
     18250     18249     18251     18250     18249     18252     18251     18249     18252
     18249     18252     18253     18249     18252     18254     18249     18252     18260
     18253     18252     18254     18253     18252     18260     18254     18252     18260
     18252     18254     18255     18254     18255     18256     18254     18255     18257
     18256     18255     18257     18255     18257     18258     18255     18257     18259
     18255     18257     18269     18258     18257     18259     18258     18257     18269
     18259     18257     18269     18252     18260     18261     18252     18260     18262
     18252     18260     18263     18261     18260     18262     18261     18260     18263
     18262     18260     18263     18260     18263     18264     18263     18264     18265
     18263     18264     18266     18265     18264     18266     18264     18266     18267
     18264     18266     18268     18264     18266     18316     18267     18266     18268
     18267     18266     18316     18268     18266     18316     18257     18269     18270
     18257     18269     18271     18257     18269     18272     18270     18269     18271
     18270     18269     18272     18271     18269     18272     18269     18272     18273
     18269     18272     18274     18269     18272     18275     18273     18272     18274
     18273     18272     18275     18274     18272     18275     18272     18275     18276
     18272     18275     18277     18272     18275     18278     18276     18275     18277
     18276     18275     18278     18277     18275     18278     18275     18278     18279
     18275     18278     18280     18275     18278     18281     18279     18278     18280
     18279     18278     18281     18280     18278     18281     18278     18281     18282
     18278     18281     18283     18278     18281     18284     18282     18281     18283
     18282     18281     18284     18283     18281     18284     18281     18284     18285
     18281     18284     18286     18281     18284     18287     18285     18284     18286
     18285     18284     18287     18286     18284     18287     18284     18287     18288
     18284     18287     18289     18288     18287     18289     18287     18289     18290
     18287     18289     18291     18290     18289     18291     18289     18291     18292
     18289     18291     18293     18289     18291     18294     18292     18291     18293
     18292     18291     18294     18293     18291     18294     18291     18294     18295
     18291     18294     18296     18291     18294     18297     18295     18294     18296
     18295     18294     18297     18296     18294     18297     18294     18297     18298
     18294     18297     18299     18294     18297     18300     18298     18297     18299
     18298     18297     18300     18299     18297     18300     18297     18300     18301
     18297     18300     18302     18297     18300     18303     18301     18300     18302
     18301     18300     18303     18302     18300     18303     18300     18303     18304
     18300     18303     18305     18300     18303     18306     18304     18303     18305
     18304     18303     18306     18305     18303     18306     18303     18306     18307
     18303     18306     18308     18303     18306     18309     18307     18306     18308
     18307     18306     18309     18308     18306     18309     18306     18309     18310
     18306     18309     18311     18306     18309     18312     18310     18309     18311
     18310     18309     18312     18311     18309     18312     18309     18312     18313
     18309     18312     18314     18309     18312     18315     18313     18312     18314
     18313     18312     18315     18314     18312     18315     18266     18316     18317
     18266     18316     18318     18266     18316     18319     18317     18316     18318
     18317     18316     18319     18318     18316     18319     18316     18319     18320
     18316     18319     18321     18316     18319     18322     18320     18319     18321
     18320     18319     18322     18321     18319     18322     18319     18322     18323
     18319     18322     18324     18319     18322     18325     18323     18322     18324
     18323     18322     18325     18324     18322     18325     18322     18325     18326
     18322     18325     18327     18322     18325     18328     18326     18325     18327
     18326     18325     18328     18327     18325     18328     18325     18328     18329
     18325     18328     18330     18325     18328     18331     18329     18328     18330
     18329     18328     18331     18330     18328     18331     18328     18331     18332
     18328     18331     18333     18328     18331     18334     18332     18331     18333
     18332     18331     18334     18333     18331     18334     18331     18334     18335
     18331     18334     18336     18331     18334     18337     18335     18334     18336
     18335     18334     18337     18336     18334     18337     18334     18337     18338
     18334     18337     18339     18334     18337     18340     18338     18337     18339
     18338     18337     18340     18339     18337     18340     18337     18340     18341
     18337     18340     18342     18337     18340     18343     18341     18340     18342
     18341     18340     18343     18342     18340     18343     18340     18343     18344
     18340     18343     18345     18340     18343     18346     18344     18343     18345
     18344     18343     18346     18345     18343     18346     18343     18346     18347
     18343     18346     18348     18343     18346     18349     18347     18346     18348
     18347     18346     18349     18348     18346     18349     18346     18349     18350
     18346     18349     18351     18346     18349     18352     18350     18349     18351
     18350     18349     18352     18351     18349     18352     18349     18352     18353
     18349     18352     18354     18349     18352     18355     18353     18352     18354
     18353     18352     18355     18354     18352     18355     18352     18355     18356
     18352     18355     18357     18352     18355     18358     18356     18355     18357
     18356     18355     18358     18357     18355     18358     18360     18359     18363
     18360     18359     18367     18360     18359     18371     18363     18359     18367
     18363     18359     18371     18367     18359     18371     18359     18360     18361
     18359     18360     18362     18359     18360     18375     18361     18360     18362
     18361     18360     18375     18362     18360     18375     18359     18363     18364
     18359     18363     18365     18359     18363     18366     18364     18363     18365
     18364     18363     18366     18365     18363     18366     18359     18367     18368
     18359     18367     18369     18359     18367     18370     18368     18367     18369
     18368     18367     18370     18369     18367     18370     18359     18371     18372
     18359     18371     18373     18359     18371     18374     18372     18371     18373
     18372     18371     18374     18373     18371     18374     18360     18375     18376
     18360     18375     18377     18360     18375     18381     18376     18375     18377
     18376     18375     18381     18377     18375     18381     18379     18378     18380
     18379     18378     18381     18379     18378     18382     18380     18378     18381
     18380     18378     18382     18381     18378     18382     18375     18381     18378
     18378     18382     18383     18382     18383     18384     18382     18383     18385
     18382     18383     18386     18384     18383     18385     18384     18383     18386
     18385     18383     18386     18383     18386     18387     18383     18386     18388
     18383     18386     18394     18387     18386     18388     18387     18386     18394
     18388     18386     18394     18386     18388     18389     18388     18389     18390
     18388     18389     18391     18390     18389     18391     18389     18391     18392
     18389     18391     18393     18389     18391     18403     18392     18391     18393
     18392     18391     18403     18393     18391     18403     18386     18394     18395
     18386     18394     18396     18386     18394     18397     18395     18394     18396
     18395     18394     18397     18396     18394     18397     18394     18397     18398
     18397     18398     18399     18397     18398     18400     18399     18398     18400
     18398     18400     18401     18398     18400     18402     18398     18400     18450
     18401     18400     18402     18401     18400     18450     18402     18400     18450
     18391     18403     18404     18391     18403     18405     18391     18403     18406
     18404     18403     18405     18404     18403     18406     18405     18403     18406
     18403     18406     18407     18403     18406     18408     18403     18406     18409
     18407     18406     18408     18407     18406     18409     18408     18406     18409
     18406     18409     18410     18406     18409     18411     18406     18409     18412
     18410     18409     18411     18410     18409     18412     18411     18409     18412
     18409     18412     18413     18409     18412     18414     18409     18412     18415
     18413     18412     18414     18413     18412     18415     18414     18412     18415
     18412     18415     18416     18412     18415     18417     18412     18415     18418
     18416     18415     18417     18416     18415     18418     18417     18415     18418
     18415     18418     18419     18415     18418     18420     18415     18418     18421
     18419     18418     18420     18419     18418     18421     18420     18418     18421
     18418     18421     18422     18418     18421     18423     18422     18421     18423
     18421     18423     18424     18421     18423     18425     18424     18423     18425
     18423     18425     18426     18423     18425     18427     18423     18425     18428
     18426     18425     18427     18426     18425     18428     18427     18425     18428
     18425     18428     18429     18425     18428     18430     18425     18428     18431
     18429     18428     18430     18429     18428     18431     18430     18428     18431
     18428     18431     18432     18428     18431     18433     18428     18431     18434
     18432     18431     18433     18432     18431     18434     18433     18431     18434
     18431     18434     18435     18431     18434     18436     18431     18434     18437
     18435     18434     18436     18435     18434     18437     18436     18434     18437
     18434     18437     18438     18434     18437     18439     18434     18437     18440
     18438     18437     18439     18438     18437     18440     18439     18437     18440
     18437     18440     18441     18437     18440     18442     18437     18440     18443
     18441     18440     18442     18441     18440     18443     18442     18440     18443
     18440     18443     18444     18440     18443     18445     18440     18443     18446
     18444     18443     18445     18444     18443     18446     18445     18443     18446
     18443     18446     18447     18443     18446     18448     18443     18446     18449
     18447     18446     18448     18447     18446     18449     18448     18446     18449
     18400     18450     18451     18400     18450     18452     18400     18450     18453
     18451     18450     18452     18451     18450     18453     18452     18450     18453
     18450     18453     18454     18450     18453     18455     18450     18453     18456
     18454     18453     18455     18454     18453     18456     18455     18453     18456
     18453     18456     18457     18453     18456     18458     18453     18456     18459
     18457     18456     18458     18457     18456     18459     18458     18456     18459
     18456     18459     18460     18456     18459     18461     18456     18459     18462
     18460     18459     18461     18460     18459     18462     18461     18459     18462
     18459     18462     18463     18459     18462     18464     18459     18462     18465
     18463     18462     18464     18463     18462     18465     18464     18462     18465
     18462     18465     18466     18462     18465     18467     18462     18465     18468
     18466     18465     18467     18466     18465     18468     18467     18465     18468
     18465     18468     18469     18465     18468     18470     18465     18468     18471
     18469     18468     18470     18469     18468     18471     18470     18468     18471
     18468     18471     18472     18468     18471     18473     18468     18471     18474
     18472     18471     18473     18472     18471     18474     18473     18471     18474
     18471     18474     18475     18471     18474     18476     18471     18474     18477
     18475     18474     18476     18475     18474     18477     18476     18474     18477
     18474     18477     18478     18474     18477     18479     18474     18477     18480
     18478     18477     18479     18478     18477     18480     18479     18477     18480
     18477     18480     18481     18477     18480     18482     18477     18480     18483
     18481     18480     18482     18481     18480     18483     18482     18480     18483
     18480     18483     18484     18480     18483     18485     18480     18483     18486
     18484     18483     18485     18484     18483     18486     18485     18483     18486
     18483     18486     18487     18483     18486     18488     18483     18486     18489
     18487     18486     18488     18487     18486     18489     18488     18486     18489
     18486     18489     18490     18486     18489     18491     18486     18489     18492
     18490     18489     18491     18490     18489     18492     18491     18489     18492
     18494     18493     18497     18494     18493     18501     18494     18493     18505
     18497     18493     18501     18497     18493     18505     18501     18493     18505
     18493     18494     18495     18493     18494     18496     18493     18494     18509
     18495     18494     18496     18495     18494     18509     18496     18494     18509
     18493     18497     18498     18493     18497     18499     18493     18497     18500
     18498     18497     18499     18498     18497     18500     18499     18497     18500
     18493     18501     18502     18493     18501     18503     18493     18501     18504
     18502     18501     18503     18502     18501     18504     18503     18501     18504
     18493     18505     18506     18493     18505     18507     18493     18505     18508
     18506     18505     18507     18506     18505     18508     18507     18505     18508
     18494     18509     18510     18494     18509     18511     18494     18509     18515
     18510     18509     18511     18510     18509     18515     18511     18509     18515
     18513     18512     18514     18513     18512     18515     18513     18512     18516
     18514     18512     18515     18514     18512     18516     18515     18512     18516
     18509     18515     18512     18512     18516     18517     18516     18517     18518
     18516     18517     18519     18516     18517     18520     18518     18517     18519
     18518     18517     18520     18519     18517     18520     18517     18520     18521
     18517     18520     18522     18517     18520     18528     18521     18520     18522
     18521     18520     18528     18522     18520     18528     18520     18522     18523
     18522     18523     18524     18522     18523     18525     18524     18523     18525
     18523     18525     18526     18523     18525     18527     18523     18525     18537
     18526     18525     18527     18526     18525     18537     18527     18525     18537
     18520     18528     18529     18520     18528     18530     18520     18528     18531
     18529     18528     18530     18529     18528     18531     18530     18528     18531
     18528     18531     18532     18531     18532     18533     18531     18532     18534
     18533     18532     18534     18532     18534     18535     18532     18534     18536
     18532     18534     18584     18535     18534     18536     18535     18534     18584
     18536     18534     18584     18525     18537     18538     18525     18537     18539
     18525     18537     18540     18538     18537     18539     18538     18537     18540
     18539     18537     18540     18537     18540     18541     18537     18540     18542
     18537     18540     18543     18541     18540     18542     18541     18540     18543
     18542     18540     18543     18540     18543     18544     18540     18543     18545
     18540     18543     18546     18544     18543     18545     18544     18543     18546
     18545     18543     18546     18543     18546     18547     18543     18546     18548
     18543     18546     18549     18547     18546     18548     18547     18546     18549
     18548     18546     18549     18546     18549     18550     18546     18549     18551
     18546     18549     18552     18550     18549     18551     18550     18549     18552
     18551     18549     18552     18549     18552     18553     18549     18552     18554
     18549     18552     18555     18553     18552     18554     18553     18552     18555
     18554     18552     18555     18552     18555     18556     18552     18555     18557
     18556     18555     18557     18555     18557     18558     18555     18557     18559
     18558     18557     18559     18557     18559     18560     18557     18559     18561
     18557     18559     18562     18560     18559     18561     18560     18559     18562
     18561     18559     18562     18559     18562     18563     18559     18562     18564
     18559     18562     18565     18563     18562     18564     18563     18562     18565
     18564     18562     18565     18562     18565     18566     18562     18565     18567
     18562     18565     18568     18566     18565     18567     18566     18565     18568
     18567     18565     18568     18565     18568     18569     18565     18568     18570
     18565     18568     18571     18569     18568     18570     18569     18568     18571
     18570     18568     18571     18568     18571     18572     18568     18571     18573
     18568     18571     18574     18572     18571     18573     18572     18571     18574
     18573     18571     18574     18571     18574     18575     18571     18574     18576
     18571     18574     18577     18575     18574     18576     18575     18574     18577
     18576     18574     18577     18574     18577     18578     18574     18577     18579
     18574     18577     18580     18578     18577     18579     18578     18577     18580
     18579     18577     18580     18577     18580     18581     18577     18580     18582
     18577     18580     18583     18581     18580     18582     18581     18580     18583
     18582     18580     18583     18534     18584     18585     18534     18584     18586
     18534     18584     18587     18585     18584     18586     18585     18584     18587
     18586     18584     18587     18584     18587     18588     18584     18587     18589
     18584     18587     18590     18588     18587     18589     18588     18587     18590
     18589     18587     18590     18587     18590     18591     18587     18590     18592
     18587     18590     18593     18591     18590     18592     18591     18590     18593
     18592     18590     18593     18590     18593     18594     18590     18593     18595
     18590     18593     18596     18594     18593     18595     18594     18593     18596
     18595     18593     18596     18593     18596     18597     18593     18596     18598
     18593     18596     18599     18597     18596     18598     18597     18596     18599
     18598     18596     18599     18596     18599     18600     18596     18599     18601
     18596     18599     18602     18600     18599     18601     18600     18599     18602
     18601     18599     18602     18599     18602     18603     18599     18602     18604
     18599     18602     18605     18603     18602     18604     18603     18602     18605
     18604     18602     18605     18602     18605     18606     18602     18605     18607
     18602     18605     18608     18606     18605     18607     18606     18605     18608
     18607     18605     18608     18605     18608     18609     18605     18608     18610
     18605     18608     18611     18609     18608     18610     18609     18608     18611
     18610     18608     18611     18608     18611     18612     18608     18611     18613
     18608     18611     18614     18612     18611     18613     18612     18611     18614
     18613     18611     18614     18611     18614     18615     18611     18614     18616
     18611     18614     18617     18615     18614     18616     18615     18614     18617
     18616     18614     18617     18614     18617     18618     18614     18617     18619
     18614     18617     18620     18618     18617     18619     18618     18617     18620
     18619     18617     18620     18617     18620     18621     18617     18620     18622
     18617     18620     18623     18621     18620     18622     18621     18620     18623
     18622     18620     18623     18620     18623     18624     18620     18623     18625
     18620     18623     18626     18624     18623     18625     18624     18623     18626
     18625     18623     18626     18628     18627     18631     18628     18627     18635
     18628     18627     18639     18631     18627     18635     18631     18627     18639
     18635     18627     18639     18627     18628     18629     18627     18628     18630
     18627     18628     18643     18629     18628     18630     18629     18628     18643
     18630     18628     18643     18627     18631     18632     18627     18631     18633
     18627     18631     18634     18632     18631     18633     18632     18631     18634
     18633     18631     18634     18627     18635     18636     18627     18635     18637
     18627     18635     18638     18636     18635     18637     18636     18635     18638
     18637     18635     18638     18627     18639     18640     18627     18639     18641
     18627     18639     18642     18640     18639     18641     18640     18639     18642
     18641     18639     18642     18628     18643     18644     18628     18643     18645
     18628     18643     18649     18644     18643     18645     18644     18643     18649
     18645     18643     18649     18647     18646     18648     18647     18646     18649
     18647     18646     18650     18648     18646     18649     18648     18646     18650
     18649     18646     18650     18643     18649     18646     18646     18650     18651
     18650     18651     18652     18650     18651     18653     18650     18651     18654
     18652     18651     18653     18652     18651     18654     18653     18651     18654
     18651     18654     18655     18651     18654     18656     18651     18654     18662
     18655     18654     18656     18655     18654     18662     18656     18654     18662
     18654     18656     18657     18656     18657     18658     18656     18657     18659
     18658     18657     18659     18657     18659     18660     18657     18659     18661
     18657     18659     18671     18660     18659     18661     18660     18659     18671
     18661     18659     18671     18654     18662     18663     18654     18662     18664
     18654     18662     18665     18663     18662     18664     18663     18662     18665
     18664     18662     18665     18662     18665     18666     18665     18666     18667
     18665     18666     18668     18667     18666     18668     18666     18668     18669
     18666     18668     18670     18666     18668     18718     18669     18668     18670
     18669     18668     18718     18670     18668     18718     18659     18671     18672
     18659     18671     18673     18659     18671     18674     18672     18671     18673
     18672     18671     18674     18673     18671     18674     18671     18674     18675
     18671     18674     18676     18671     18674     18677     18675     18674     18676
     18675     18674     18677     18676     18674     18677     18674     18677     18678
     18674     18677     18679     18674     18677     18680     18678     18677     18679
     18678     18677     18680     18679     18677     18680     18677     18680     18681
     18677     18680     18682     18677     18680     18683     18681     18680     18682
     18681     18680     18683     18682     18680     18683     18680     18683     18684
     18680     18683     18685     18680     18683     18686     18684     18683     18685
     18684     18683     18686     18685     18683     18686     18683     18686     18687
     18683     18686     18688     18683     18686     18689     18687     18686     18688
     18687     18686     18689     18688     18686     18689     18686     18689     18690
     18686     18689     18691     18690     18689     18691     18689     18691     18692
     18689     18691     18693     18692     18691     18693     18691     18693     18694
     18691     18693     18695     18691     18693     18696     18694     18693     18695
     18694     18693     18696     18695     18693     18696     18693     18696     18697
     18693     18696     18698     18693     18696     18699     18697     18696     18698
     18697     18696     18699     18698     18696     18699     18696     18699     18700
     18696     18699     18701     18696     18699     18702     18700     18699     18701
     18700     18699     18702     18701     18699     18702     18699     18702     18703
     18699     18702     18704     18699     18702     18705     18703     18702     18704
     18703     18702     18705     18704     18702     18705     18702     18705     18706
     18702     18705     18707     18702     18705     18708     18706     18705     18707
     18706     18705     18708     18707     18705     18708     18705     18708     18709
     18705     18708     18710     18705     18708     18711     18709     18708     18710
     18709     18708     18711     18710     18708     18711     18708     18711     18712
     18708     18711     18713     18708     18711     18714     18712     18711     18713
     18712     18711     18714     18713     18711     18714     18711     18714     18715
     18711     18714     18716     18711     18714     18717     18715     18714     18716
     18715     18714     18717     18716     18714     18717     18668     18718     18719
     18668     18718     18720     18668     18718     18721     18719     18718     18720
     18719     18718     18721     18720     18718     18721     18718     18721     18722
     18718     18721     18723     18718     18721     18724     18722     18721     18723
     18722     18721     18724     18723     18721     18724     18721     18724     18725
     18721     18724     18726     18721     18724     18727     18725     18724     18726
     18725     18724     18727     18726     18724     18727     18724     18727     18728
     18724     18727     18729     18724     18727     18730     18728     18727     18729
     18728     18727     18730     18729     18727     18730     18727     18730     18731
     18727     18730     18732     18727     18730     18733     18731     18730     18732
     18731     18730     18733     18732     18730     18733     18730     18733     18734
     18730     18733     18735     18730     18733     18736     18734     18733     18735
     18734     18733     18736     18735     18733     18736     18733     18736     18737
     18733     18736     18738     18733     18736     18739     18737     18736     18738
     18737     18736     18739     18738     18736     18739     18736     18739     18740
     18736     18739     18741     18736     18739     18742     18740     18739     18741
     18740     18739     18742     18741     18739     18742     18739     18742     18743
     18739     18742     18744     18739     18742     18745     18743     18742     18744
     18743     18742     18745     18744     18742     18745     18742     18745     18746
     18742     18745     18747     18742     18745     18748     18746     18745     18747
     18746     18745     18748     18747     18745     18748     18745     18748     18749
     18745     18748     18750     18745     18748     18751     18749     18748     18750
     18749     18748     18751     18750     18748     18751     18748     18751     18752
     18748     18751     18753     18748     18751     18754     18752     18751     18753
     18752     18751     18754     18753     18751     18754     18751     18754     18755
     18751     18754     18756     18751     18754     18757     18755     18754     18756
     18755     18754     18757     18756     18754     18757     18754     18757     18758
     18754     18757     18759     18754     18757     18760     18758     18757     18759
     18758     18757     18760     18759     18757     18760     18762     18761     18765
     18762     18761     18769     18762     18761     18773     18765     18761     18769
     18765     18761     18773     18769     18761     18773     18761     18762     18763
     18761     18762     18764     18761     18762     18777     18763     18762     18764
     18763     18762     18777     18764     18762     18777     18761     18765     18766
     18761     18765     18767     18761     18765     18768     18766     18765     18767
     18766     18765     18768     18767     18765     18768     18761     18769     18770
     18761     18769     18771     18761     18769     18772     18770     18769     18771
     18770     18769     18772     18771     18769     18772     18761     18773     18774
     18761     18773     18775     18761     18773     18776     18774     18773     18775
     18774     18773     18776     18775     18773     18776     18762     18777     18778
     18762     18777     18779     18762     18777     18783     18778     18777     18779
     18778     18777     18783     18779     18777     18783     18781     18780     18782
     18781     18780     18783     18781     18780     18784     18782     18780     18783
     18782     18780     18784     18783     18780     18784     18777     18783     18780
     18780     18784     18785     18784     18785     18786     18784     18785     18787
     18784     18785     18788     18786     18785     18787     18786     18785     18788
     18787     18785     18788     18785     18788     18789     18785     18788     18790
     18785     18788     18796     18789     18788     18790     18789     18788     18796
     18790     18788     18796     18788     18790     18791     18790     18791     18792
     18790     18791     18793     18792     18791     18793     18791     18793     18794
     18791     18793     18795     18791     18793     18805     18794     18793     18795
     18794     18793     18805     18795     18793     18805     18788     18796     18797
     18788     18796     18798     18788     18796     18799     18797     18796     18798
     18797     18796     18799     18798     18796     18799     18796     18799     18800
     18799     18800     18801     18799     18800     18802     18801     18800     18802
     18800     18802     18803     18800     18802     18804     18800     18802     18852
     18803     18802     18804     18803     18802     18852     18804     18802     18852
     18793     18805     18806     18793     18805     18807     18793     18805     18808
     18806     18805     18807     18806     18805     18808     18807     18805     18808
     18805     18808     18809     18805     18808     18810     18805     18808     18811
     18809     18808     18810     18809     18808     18811     18810     18808     18811
     18808     18811     18812     18808     18811     18813     18808     18811     18814
     18812     18811     18813     18812     18811     18814     18813     18811     18814
     18811     18814     18815     18811     18814     18816     18811     18814     18817
     18815     18814     18816     18815     18814     18817     18816     18814     18817
     18814     18817     18818     18814     18817     18819     18814     18817     18820
     18818     18817     18819     18818     18817     18820     18819     18817     18820
     18817     18820     18821     18817     18820     18822     18817     18820     18823
     18821     18820     18822     18821     18820     18823     18822     18820     18823
     18820     18823     18824     18820     18823     18825     18824     18823     18825
     18823     18825     18826     18823     18825     18827     18826     18825     18827
     18825     18827     18828     18825     18827     18829     18825     18827     18830
     18828     18827     18829     18828     18827     18830     18829     18827     18830
     18827     18830     18831     18827     18830     18832     18827     18830     18833
     18831     18830     18832     18831     18830     18833     18832     18830     18833
     18830     18833     18834     18830     18833     18835     18830     18833     18836
     18834     18833     18835     18834     18833     18836     18835     18833     18836
     18833     18836     18837     18833     18836     18838     18833     18836     18839
     18837     18836     18838     18837     18836     18839     18838     18836     18839
     18836     18839     18840     18836     18839     18841     18836     18839     18842
     18840     18839     18841     18840     18839     18842     18841     18839     18842
     18839     18842     18843     18839     18842     18844     18839     18842     18845
     18843     18842     18844     18843     18842     18845     18844     18842     18845
     18842     18845     18846     18842     18845     18847     18842     18845     18848
     18846     18845     18847     18846     18845     18848     18847     18845     18848
     18845     18848     18849     18845     18848     18850     18845     18848     18851
     18849     18848     18850     18849     18848     18851     18850     18848     18851
     18802     18852     18853     18802     18852     18854     18802     18852     18855
     18853     18852     18854     18853     18852     18855     18854     18852     18855
     18852     18855     18856     18852     18855     18857     18852     18855     18858
     18856     18855     18857     18856     18855     18858     18857     18855     18858
     18855     18858     18859     18855     18858     18860     18855     18858     18861
     18859     18858     18860     18859     18858     18861     18860     18858     18861
     18858     18861     18862     18858     18861     18863     18858     18861     18864
     18862     18861     18863     18862     18861     18864     18863     18861     18864
     18861     18864     18865     18861     18864     18866     18861     18864     18867
     18865     18864     18866     18865     18864     18867     18866     18864     18867
     18864     18867     18868     18864     18867     18869     18864     18867     18870
     18868     18867     18869     18868     18867     18870     18869     18867     18870
     18867     18870     18871     18867     18870     18872     18867     18870     18873
     18871     18870     18872     18871     18870     18873     18872     18870     18873
     18870     18873     18874     18870     18873     18875     18870     18873     18876
     18874     18873     18875     18874     18873     18876     18875     18873     18876
     18873     18876     18877     18873     18876     18878     18873     18876     18879
     18877     18876     18878     18877     18876     18879     18878     18876     18879
     18876     18879     18880     18876     18879     18881     18876     18879     18882
     18880     18879     18881     18880     18879     18882     18881     18879     18882
     18879     18882     18883     18879     18882     18884     18879     18882     18885
     18883     18882     18884     18883     18882     18885     18884     18882     18885
     18882     18885     18886     18882     18885     18887     18882     18885     18888
     18886     18885     18887     18886     18885     18888     18887     18885     18888
     18885     18888     18889     18885     18888     18890     18885     18888     18891
     18889     18888     18890     18889     18888     18891     18890     18888     18891
     18888     18891     18892     18888     18891     18893     18888     18891     18894
     18892     18891     18893     18892     18891     18894     18893     18891     18894
     18896     18895     18899     18896     18895     18903     18896     18895     18907
     18899     18895     18903     18899     18895     18907     18903     18895     18907
     18895     18896     18897     18895     18896     18898     18895     18896     18911
     18897     18896     18898     18897     18896     18911     18898     18896     18911
     18895     18899     18900     18895     18899     18901     18895     18899     18902
     18900     18899     18901     18900     18899     18902     18901     18899     18902
     18895     18903     18904     18895     18903     18905     18895     18903     18906
     18904     18903     18905     18904     18903     18906     18905     18903     18906
     18895     18907     18908     18895     18907     18909     18895     18907     18910
     18908     18907     18909     18908     18907     18910     18909     18907     18910
     18896     18911     18912     18896     18911     18913     18896     18911     18917
     18912     18911     18913     18912     18911     18917     18913     18911     18917
     18915     18914     18916     18915     18914     18917     18915     18914     18918
     18916     18914     18917     18916     18914     18918     18917     18914     18918
     18911     18917     18914     18914     18918     18919     18918     18919     18920
     18918     18919     18921     18918     18919     18922     18920     18919     18921
     18920     18919     18922     18921     18919     18922     18919     18922     18923
     18919     18922     18924     18919     18922     18930     18923     18922     18924
     18923     18922     18930     18924     18922     18930     18922     18924     18925
     18924     18925     18926     18924     18925     18927     18926     18925     18927
     18925     18927     18928     18925     18927     18929     18925     18927     18939
     18928     18927     18929     18928     18927     18939     18929     18927     18939
     18922     18930     18931     18922     18930     18932     18922     18930     18933
     18931     18930     18932     18931     18930     18933     18932     18930     18933
     18930     18933     18934     18933     18934     18935     18933     18934     18936
     18935     18934     18936     18934     18936     18937     18934     18936     18938
     18934     18936     18986     18937     18936     18938     18937     18936     18986
     18938     18936     18986     18927     18939     18940     18927     18939     18941
     18927     18939     18942     18940     18939     18941     18940     18939     18942
     18941     18939     18942     18939     18942     18943     18939     18942     18944
     18939     18942     18945     18943     18942     18944     18943     18942     18945
     18944     18942     18945     18942     18945     18946     18942     18945     18947
     18942     18945     18948     18946     18945     18947     18946     18945     18948
     18947     18945     18948     18945     18948     18949     18945     18948     18950
     18945     18948     18951     18949     18948     18950     18949     18948     18951
     18950     18948     18951     18948     18951     18952     18948     18951     18953
     18948     18951     18954     18952     18951     18953     18952     18951     18954
     18953     18951     18954     18951     18954     18955     18951     18954     18956
     18951     18954     18957     18955     18954     18956     18955     18954     18957
     18956     18954     18957     18954     18957     18958     18954     18957     18959
     18958     18957     18959     18957     18959     18960     18957     18959     18961
     18960     18959     18961     18959     18961     18962     18959     18961     18963
     18959     18961     18964     18962     18961     18963     18962     18961     18964
     18963     18961     18964     18961     18964     18965     18961     18964     18966
     18961     18964     18967     18965     18964     18966     18965     18964     18967
     18966     18964     18967     18964     18967     18968     18964     18967     18969
     18964     18967     18970     18968     18967     18969     18968     18967     18970
     18969     18967     18970     18967     18970     18971     18967     18970     18972
     18967     18970     18973     18971     18970     18972     18971     18970     18973
     18972     18970     18973     18970     18973     18974     18970     18973     18975
     18970     18973     18976     18974     18973     18975     18974     18973     18976
     18975     18973     18976     18973     18976     18977     18973     18976     18978
     18973     18976     18979     18977     18976     18978     18977     18976     18979
     18978     18976     18979     18976     18979     18980     18976     18979     18981
     18976     18979     18982     18980     18979     18981     18980     18979     18982
     18981     18979     18982     18979     18982     18983     18979     18982     18984
     18979     18982     18985     18983     18982     18984     18983     18982     18985
     18984     18982     18985     18936     18986     18987     18936     18986     18988
     18936     18986     18989     18987     18986     18988     18987     18986     18989
     18988     18986     18989     18986     18989     18990     18986     18989     18991
     18986     18989     18992     18990     18989     18991     18990     18989     18992
     18991     18989     18992     18989     18992     18993     18989     18992     18994
     18989     18992     18995     18993     18992     18994     18993     18992     18995
     18994     18992     18995     18992     18995     18996     18992     18995     18997
     18992     18995     18998     18996     18995     18997     18996     18995     18998
     18997     18995     18998     18995     18998     18999     18995     18998     19000
     18995     18998     19001     18999     18998     19000     18999     18998     19001
     19000     18998     19001     18998     19001     19002     18998     19001     19003
     18998     19001     19004     19002     19001     19003     19002     19001     19004
     19003     19001     19004     19001     19004     19005     19001     19004     19006
     19001     19004     19007     19005     19004     19006     19005     19004     19007
     19006     19004     19007     19004     19007     19008     19004     19007     19009
     19004     19007     19010     19008     19007     19009     19008     19007     19010
     19009     19007     19010     19007     19010     19011     19007     19010     19012
     19007     19010     19013     19011     19010     19012     19011     19010     19013
     19012     19010     19013     19010     19013     19014     19010     19013     19015
     19010     19013     19016     19014     19013     19015     19014     19013     19016
     19015     19013     19016     19013     19016     19017     19013     19016     19018
     19013     19016     19019     19017     19016     19018     19017     19016     19019
     19018     19016     19019     19016     19019     19020     19016     19019     19021
     19016     19019     19022     19020     19019     19021     19020     19019     19022
     19021     19019     19022     19019     19022     19023     19019     19022     19024
     19019     19022     19025     19023     19022     19024     19023     19022     19025
     19024     19022     19025     19022     19025     19026     19022     19025     19027
     19022     19025     19028     19026     19025     19027     19026     19025     19028
     19027     19025     19028     19030     19029     19033     19030     19029     19037
     19030     19029     19041     19033     19029     19037     19033     19029     19041
     19037     19029     19041     19029     19030     19031     19029     19030     19032
     19029     19030     19045     19031     19030     19032     19031     19030     19045
     19032     19030     19045     19029     19033     19034     19029     19033     19035
     19029     19033     19036     19034     19033     19035     19034     19033     19036
     19035     19033     19036     19029     19037     19038     19029     19037     19039
     19029     19037     19040     19038     19037     19039     19038     19037     19040
     19039     19037     19040     19029     19041     19042     19029     19041     19043
     19029     19041     19044     19042     19041     19043     19042     19041     19044
     19043     19041     19044     19030     19045     19046     19030     19045     19047
     19030     19045     19051     19046     19045     19047     19046     19045     19051
     19047     19045     19051     19049     19048     19050     19049     19048     19051
     19049     19048     19052     19050     19048     19051     19050     19048     19052
     19051     19048     19052     19045     19051     19048     19048     19052     19053
     19052     19053     19054     19052     19053     19055     19052     19053     19056
     19054     19053     19055     19054     19053     19056     19055     19053     19056
     19053     19056     19057     19053     19056     19058     19053     19056     19064
     19057     19056     19058     19057     19056     19064     19058     19056     19064
     19056     19058     19059     19058     19059     19060     19058     19059     19061
     19060     19059     19061     19059     19061     19062     19059     19061     19063
     19059     19061     19073     19062     19061     19063     19062     19061     19073
     19063     19061     19073     19056     19064     19065     19056     19064     19066
     19056     19064     19067     19065     19064     19066     19065     19064     19067
     19066     19064     19067     19064     19067     19068     19067     19068     19069
     19067     19068     19070     19069     19068     19070     19068     19070     19071
     19068     19070     19072     19068     19070     19120     19071     19070     19072
     19071     19070     19120     19072     19070     19120     19061     19073     19074
     19061     19073     19075     19061     19073     19076     19074     19073     19075
     19074     19073     19076     19075     19073     19076     19073     19076     19077
     19073     19076     19078     19073     19076     19079     19077     19076     19078
     19077     19076     19079     19078     19076     19079     19076     19079     19080
     19076     19079     19081     19076     19079     19082     19080     19079     19081
     19080     19079     19082     19081     19079     19082     19079     19082     19083
     19079     19082     19084     19079     19082     19085     19083     19082     19084
     19083     19082     19085     19084     19082     19085     19082     19085     19086
     19082     19085     19087     19082     19085     19088     19086     19085     19087
     19086     19085     19088     19087     19085     19088     19085     19088     19089
     19085     19088     19090     19085     19088     19091     19089     19088     19090
     19089     19088     19091     19090     19088     19091     19088     19091     19092
     19088     19091     19093     19092     19091     19093     19091     19093     19094
     19091     19093     19095     19094     19093     19095     19093     19095     19096
     19093     19095     19097     19093     19095     19098     19096     19095     19097
     19096     19095     19098     19097     19095     19098     19095     19098     19099
     19095     19098     19100     19095     19098     19101     19099     19098     19100
     19099     19098     19101     19100     19098     19101     19098     19101     19102
     19098     19101     19103     19098     19101     19104     19102     19101     19103
     19102     19101     19104     19103     19101     19104     19101     19104     19105
     19101     19104     19106     19101     19104     19107     19105     19104     19106
     19105     19104     19107     19106     19104     19107     19104     19107     19108
     19104     19107     19109     19104     19107     19110     19108     19107     19109
     19108     19107     19110     19109     19107     19110     19107     19110     19111
     19107     19110     19112     19107     19110     19113     19111     19110     19112
     19111     19110     19113     19112     19110     19113     19110     19113     19114
     19110     19113     19115     19110     19113     19116     19114     19113     19115
     19114     19113     19116     19115     19113     19116     19113     19116     19117
     19113     19116     19118     19113     19116     19119     19117     19116     19118
     19117     19116     19119     19118     19116     19119     19070     19120     19121
     19070     19120     19122     19070     19120     19123     19121     19120     19122
     19121     19120     19123     19122     19120     19123     19120     19123     19124
     19120     19123     19125     19120     19123     19126     19124     19123     19125
     19124     19123     19126     19125     19123     19126     19123     19126     19127
     19123     19126     19128     19123     19126     19129     19127     19126     19128
     19127     19126     19129     19128     19126     19129     19126     19129     19130
     19126     19129     19131     19126     19129     19132     19130     19129     19131
     19130     19129     19132     19131     19129     19132     19129     19132     19133
     19129     19132     19134     19129     19132     19135     19133     19132     19134
     19133     19132     19135     19134     19132     19135     19132     19135     19136
     19132     19135     19137     19132     19135     19138     19136     19135     19137
     19136     19135     19138     19137     19135     19138     19135     19138     19139
     19135     19138     19140     19135     19138     19141     19139     19138     19140
     19139     19138     19141     19140     19138     19141     19138     19141     19142
     19138     19141     19143     19138     19141     19144     19142     19141     19143
     19142     19141     19144     19143     19141     19144     19141     19144     19145
     19141     19144     19146     19141     19144     19147     19145     19144     19146
     19145     19144     19147     19146     19144     19147     19144     19147     19148
     19144     19147     19149     19144     19147     19150     19148     19147     19149
     19148     19147     19150     19149     19147     19150     19147     19150     19151
     19147     19150     19152     19147     19150     19153     19151     19150     19152
     19151     19150     19153     19152     19150     19153     19150     19153     19154
     19150     19153     19155     19150     19153     19156     19154     19153     19155
     19154     19153     19156     19155     19153     19156     19153     19156     19157
     19153     19156     19158     19153     19156     19159     19157     19156     19158
     19157     19156     19159     19158     19156     19159     19156     19159     19160
     19156     19159     19161     19156     19159     19162     19160     19159     19161
     19160     19159     19162     19161     19159     19162     19164     19163     19167
     19164     19163     19171     19164     19163     19175     19167     19163     19171
     19167     19163     19175     19171     19163     19175     19163     19164     19165
     19163     19164     19166     19163     19164     19179     19165     19164     19166
     19165     19164     19179     19166     19164     19179     19163     19167     19168
     19163     19167     19169     19163     19167     19170     19168     19167     19169
     19168     19167     19170     19169     19167     19170     19163     19171     19172
     19163     19171     19173     19163     19171     19174     19172     19171     19173
     19172     19171     19174     19173     19171     19174     19163     19175     19176
     19163     19175     19177     19163     19175     19178     19176     19175     19177
     19176     19175     19178     19177     19175     19178     19164     19179     19180
     19164     19179     19181     19164     19179     19185     19180     19179     19181
     19180     19179     19185     19181     19179     19185     19183     19182     19184
     19183     19182     19185     19183     19182     19186     19184     19182     19185
     19184     19182     19186     19185     19182     19186     19179     19185     19182
     19182     19186     19187     19186     19187     19188     19186     19187     19189
     19186     19187     19190     19188     19187     19189     19188     19187     19190
     19189     19187     19190     19187     19190     19191     19187     19190     19192
     19187     19190     19198     19191     19190     19192     19191     19190     19198
     19192     19190     19198     19190     19192     19193     19192     19193     19194
     19192     19193     19195     19194     19193     19195     19193     19195     19196
     19193     19195     19197     19193     19195     19207     19196     19195     19197
     19196     19195     19207     19197     19195     19207     19190     19198     19199
     19190     19198     19200     19190     19198     19201     19199     19198     19200
     19199     19198     19201     19200     19198     19201     19198     19201     19202
     19201     19202     19203     19201     19202     19204     19203     19202     19204
     19202     19204     19205     19202     19204     19206     19202     19204     19254
     19205     19204     19206     19205     19204     19254     19206     19204     19254
     19195     19207     19208     19195     19207     19209     19195     19207     19210
     19208     19207     19209     19208     19207     19210     19209     19207     19210
     19207     19210     19211     19207     19210     19212     19207     19210     19213
     19211     19210     19212     19211     19210     19213     19212     19210     19213
     19210     19213     19214     19210     19213     19215     19210     19213     19216
     19214     19213     19215     19214     19213     19216     19215     19213     19216
     19213     19216     19217     19213     19216     19218     19213     19216     19219
     19217     19216     19218     19217     19216     19219     19218     19216     19219
     19216     19219     19220     19216     19219     19221     19216     19219     19222
     19220     19219     19221     19220     19219     19222     19221     19219     19222
     19219     19222     19223     19219     19222     19224     19219     19222     19225
     19223     19222     19224     19223     19222     19225     19224     19222     19225
     19222     19225     19226     19222     19225     19227     19226     19225     19227
     19225     19227     19228     19225     19227     19229     19228     19227     19229
     19227     19229     19230     19227     19229     19231     19227     19229     19232
     19230     19229     19231     19230     19229     19232     19231     19229     19232
     19229     19232     19233     19229     19232     19234     19229     19232     19235
     19233     19232     19234     19233     19232     19235     19234     19232     19235
     19232     19235     19236     19232     19235     19237     19232     19235     19238
     19236     19235     19237     19236     19235     19238     19237     19235     19238
     19235     19238     19239     19235     19238     19240     19235     19238     19241
     19239     19238     19240     19239     19238     19241     19240     19238     19241
     19238     19241     19242     19238     19241     19243     19238     19241     19244
     19242     19241     19243     19242     19241     19244     19243     19241     19244
     19241     19244     19245     19241     19244     19246     19241     19244     19247
     19245     19244     19246     19245     19244     19247     19246     19244     19247
     19244     19247     19248     19244     19247     19249     19244     19247     19250
     19248     19247     19249     19248     19247     19250     19249     19247     19250
     19247     19250     19251     19247     19250     19252     19247     19250     19253
     19251     19250     19252     19251     19250     19253     19252     19250     19253
     19204     19254     19255     19204     19254     19256     19204     19254     19257
     19255     19254     19256     19255     19254     19257     19256     19254     19257
     19254     19257     19258     19254     19257     19259     19254     19257     19260
     19258     19257     19259     19258     19257     19260     19259     19257     19260
     19257     19260     19261     19257     19260     19262     19257     19260     19263
     19261     19260     19262     19261     19260     19263     19262     19260     19263
     19260     19263     19264     19260     19263     19265     19260     19263     19266
     19264     19263     19265     19264     19263     19266     19265     19263     19266
     19263     19266     19267     19263     19266     19268     19263     19266     19269
     19267     19266     19268     19267     19266     19269     19268     19266     19269
     19266     19269     19270     19266     19269     19271     19266     19269     19272
     19270     19269     19271     19270     19269     19272     19271     19269     19272
     19269     19272     19273     19269     19272     19274     19269     19272     19275
     19273     19272     19274     19273     19272     19275     19274     19272     19275
     19272     19275     19276     19272     19275     19277     19272     19275     19278
     19276     19275     19277     19276     19275     19278     19277     19275     19278
     19275     19278     19279     19275     19278     19280     19275     19278     19281
     19279     19278     19280     19279     19278     19281     19280     19278     19281
     19278     19281     19282     19278     19281     19283     19278     19281     19284
     19282     19281     19283     19282     19281     19284     19283     19281     19284
     19281     19284     19285     19281     19284     19286     19281     19284     19287
     19285     19284     19286     19285     19284     19287     19286     19284     19287
     19284     19287     19288     19284     19287     19289     19284     19287     19290
     19288     19287     19289     19288     19287     19290     19289     19287     19290
     19287     19290     19291     19287     19290     19292     19287     19290     19293
     19291     19290     19292     19291     19290     19293     19292     19290     19293
     19290     19293     19294     19290     19293     19295     19290     19293     19296
     19294     19293     19295     19294     19293     19296     19295     19293     19296
     19298     19297     19301     19298     19297     19305     19298     19297     19309
     19301     19297     19305     19301     19297     19309     19305     19297     19309
     19297     19298     19299     19297     19298     19300     19297     19298     19313
     19299     19298     19300     19299     19298     19313     19300     19298     19313
     19297     19301     19302     19297     19301     19303     19297     19301     19304
     19302     19301     19303     19302     19301     19304     19303     19301     19304
     19297     19305     19306     19297     19305     19307     19297     19305     19308
     19306     19305     19307     19306     19305     19308     19307     19305     19308
     19297     19309     19310     19297     19309     19311     19297     19309     19312
     19310     19309     19311     19310     19309     19312     19311     19309     19312
     19298     19313     19314     19298     19313     19315     19298     19313     19319
     19314     19313     19315     19314     19313     19319     19315     19313     19319
     19317     19316     19318     19317     19316     19319     19317     19316     19320
     19318     19316     19319     19318     19316     19320     19319     19316     19320
     19313     19319     19316     19316     19320     19321     19320     19321     19322
     19320     19321     19323     19320     19321     19324     19322     19321     19323
     19322     19321     19324     19323     19321     19324     19321     19324     19325
     19321     19324     19326     19321     19324     19332     19325     19324     19326
     19325     19324     19332     19326     19324     19332     19324     19326     19327
     19326     19327     19328     19326     19327     19329     19328     19327     19329
     19327     19329     19330     19327     19329     19331     19327     19329     19341
     19330     19329     19331     19330     19329     19341     19331     19329     19341
     19324     19332     19333     19324     19332     19334     19324     19332     19335
     19333     19332     19334     19333     19332     19335     19334     19332     19335
     19332     19335     19336     19335     19336     19337     19335     19336     19338
     19337     19336     19338     19336     19338     19339     19336     19338     19340
     19336     19338     19388     19339     19338     19340     19339     19338     19388
     19340     19338     19388     19329     19341     19342     19329     19341     19343
     19329     19341     19344     19342     19341     19343     19342     19341     19344
     19343     19341     19344     19341     19344     19345     19341     19344     19346
     19341     19344     19347     19345     19344     19346     19345     19344     19347
     19346     19344     19347     19344     19347     19348     19344     19347     19349
     19344     19347     19350     19348     19347     19349     19348     19347     19350
     19349     19347     19350     19347     19350     19351     19347     19350     19352
     19347     19350     19353     19351     19350     19352     19351     19350     19353
     19352     19350     19353     19350     19353     19354     19350     19353     19355
     19350     19353     19356     19354     19353     19355     19354     19353     19356
     19355     19353     19356     19353     19356     19357     19353     19356     19358
     19353     19356     19359     19357     19356     19358     19357     19356     19359
     19358     19356     19359     19356     19359     19360     19356     19359     19361
     19360     19359     19361     19359     19361     19362     19359     19361     19363
     19362     19361     19363     19361     19363     19364     19361     19363     19365
     19361     19363     19366     19364     19363     19365     19364     19363     19366
     19365     19363     19366     19363     19366     19367     19363     19366     19368
     19363     19366     19369     19367     19366     19368     19367     19366     19369
     19368     19366     19369     19366     19369     19370     19366     19369     19371
     19366     19369     19372     19370     19369     19371     19370     19369     19372
     19371     19369     19372     19369     19372     19373     19369     19372     19374
     19369     19372     19375     19373     19372     19374     19373     19372     19375
     19374     19372     19375     19372     19375     19376     19372     19375     19377
     19372     19375     19378     19376     19375     19377     19376     19375     19378
     19377     19375     19378     19375     19378     19379     19375     19378     19380
     19375     19378     19381     19379     19378     19380     19379     19378     19381
     19380     19378     19381     19378     19381     19382     19378     19381     19383
     19378     19381     19384     19382     19381     19383     19382     19381     19384
     19383     19381     19384     19381     19384     19385     19381     19384     19386
     19381     19384     19387     19385     19384     19386     19385     19384     19387
     19386     19384     19387     19338     19388     19389     19338     19388     19390
     19338     19388     19391     19389     19388     19390     19389     19388     19391
     19390     19388     19391     19388     19391     19392     19388     19391     19393
     19388     19391     19394     19392     19391     19393     19392     19391     19394
     19393     19391     19394     19391     19394     19395     19391     19394     19396
     19391     19394     19397     19395     19394     19396     19395     19394     19397
     19396     19394     19397     19394     19397     19398     19394     19397     19399
     19394     19397     19400     19398     19397     19399     19398     19397     19400
     19399     19397     19400     19397     19400     19401     19397     19400     19402
     19397     19400     19403     19401     19400     19402     19401     19400     19403
     19402     19400     19403     19400     19403     19404     19400     19403     19405
     19400     19403     19406     19404     19403     19405     19404     19403     19406
     19405     19403     19406     19403     19406     19407     19403     19406     19408
     19403     19406     19409     19407     19406     19408     19407     19406     19409
     19408     19406     19409     19406     19409     19410     19406     19409     19411
     19406     19409     19412     19410     19409     19411     19410     19409     19412
     19411     19409     19412     19409     19412     19413     19409     19412     19414
     19409     19412     19415     19413     19412     19414     19413     19412     19415
     19414     19412     19415     19412     19415     19416     19412     19415     19417
     19412     19415     19418     19416     19415     19417     19416     19415     19418
     19417     19415     19418     19415     19418     19419     19415     19418     19420
     19415     19418     19421     19419     19418     19420     19419     19418     19421
     19420     19418     19421     19418     19421     19422     19418     19421     19423
     19418     19421     19424     19422     19421     19423     19422     19421     19424
     19423     19421     19424     19421     19424     19425     19421     19424     19426
     19421     19424     19427     19425     19424     19426     19425     19424     19427
     19426     19424     19427     19424     19427     19428     19424     19427     19429
     19424     19427     19430     19428     19427     19429     19428     19427     19430
     19429     19427     19430     19432     19431     19435     19432     19431     19439
     19432     19431     19443     19435     19431     19439     19435     19431     19443
     19439     19431     19443     19431     19432     19433     19431     19432     19434
     19431     19432     19447     19433     19432     19434     19433     19432     19447
     19434     19432     19447     19431     19435     19436     19431     19435     19437
     19431     19435     19438     19436     19435     19437     19436     19435     19438
     19437     19435     19438     19431     19439     19440     19431     19439     19441
     19431     19439     19442     19440     19439     19441     19440     19439     19442
     19441     19439     19442     19431     19443     19444     19431     19443     19445
     19431     19443     19446     19444     19443     19445     19444     19443     19446
     19445     19443     19446     19432     19447     19448     19432     19447     19449
     19432     19447     19453     19448     19447     19449     19448     19447     19453
     19449     19447     19453     19451     19450     19452     19451     19450     19453
     19451     19450     19454     19452     19450     19453     19452     19450     19454
     19453     19450     19454     19447     19453     19450     19450     19454     19455
     19454     19455     19456     19454     19455     19457     19454     19455     19458
     19456     19455     19457     19456     19455     19458     19457     19455     19458
     19455     19458     19459     19455     19458     19460     19455     19458     19466
     19459     19458     19460     19459     19458     19466     19460     19458     19466
     19458     19460     19461     19460     19461     19462     19460     19461     19463
     19462     19461     19463     19461     19463     19464     19461     19463     19465
     19461     19463     19475     19464     19463     19465     19464     19463     19475
     19465     19463     19475     19458     19466     19467     19458     19466     19468
     19458     19466     19469     19467     19466     19468     19467     19466     19469
     19468     19466     19469     19466     19469     19470     19469     19470     19471
     19469     19470     19472     19471     19470     19472     19470     19472     19473
     19470     19472     19474     19470     19472     19522     19473     19472     19474
     19473     19472     19522     19474     19472     19522     19463     19475     19476
     19463     19475     19477     19463     19475     19478     19476     19475     19477
     19476     19475     19478     19477     19475     19478     19475     19478     19479
     19475     19478     19480     19475     19478     19481     19479     19478     19480
     19479     19478     19481     19480     19478     19481     19478     19481     19482
     19478     19481     19483     19478     19481     19484     19482     19481     19483
     19482     19481     19484     19483     19481     19484     19481     19484     19485
     19481     19484     19486     19481     19484     19487     19485     19484     19486
     19485     19484     19487     19486     19484     19487     19484     19487     19488
     19484     19487     19489     19484     19487     19490     19488     19487     19489
     19488     19487     19490     19489     19487     19490     19487     19490     19491
     19487     19490     19492     19487     19490     19493     19491     19490     19492
     19491     19490     19493     19492     19490     19493     19490     19493     19494
     19490     19493     19495     19494     19493     19495     19493     19495     19496
     19493     19495     19497     19496     19495     19497     19495     19497     19498
     19495     19497     19499     19495     19497     19500     19498     19497     19499
     19498     19497     19500     19499     19497     19500     19497     19500     19501
     19497     19500     19502     19497     19500     19503     19501     19500     19502
     19501     19500     19503     19502     19500     19503     19500     19503     19504
     19500     19503     19505     19500     19503     19506     19504     19503     19505
     19504     19503     19506     19505     19503     19506     19503     19506     19507
     19503     19506     19508     19503     19506     19509     19507     19506     19508
     19507     19506     19509     19508     19506     19509     19506     19509     19510
     19506     19509     19511     19506     19509     19512     19510     19509     19511
     19510     19509     19512     19511     19509     19512     19509     19512     19513
     19509     19512     19514     19509     19512     19515     19513     19512     19514
     19513     19512     19515     19514     19512     19515     19512     19515     19516
     19512     19515     19517     19512     19515     19518     19516     19515     19517
     19516     19515     19518     19517     19515     19518     19515     19518     19519
     19515     19518     19520     19515     19518     19521     19519     19518     19520
     19519     19518     19521     19520     19518     19521     19472     19522     19523
     19472     19522     19524     19472     19522     19525     19523     19522     19524
     19523     19522     19525     19524     19522     19525     19522     19525     19526
     19522     19525     19527     19522     19525     19528     19526     19525     19527
     19526     19525     19528     19527     19525     19528     19525     19528     19529
     19525     19528     19530     19525     19528     19531     19529     19528     19530
     19529     19528     19531     19530     19528     19531     19528     19531     19532
     19528     19531     19533     19528     19531     19534     19532     19531     19533
     19532     19531     19534     19533     19531     19534     19531     19534     19535
     19531     19534     19536     19531     19534     19537     19535     19534     19536
     19535     19534     19537     19536     19534     19537     19534     19537     19538
     19534     19537     19539     19534     19537     19540     19538     19537     19539
     19538     19537     19540     19539     19537     19540     19537     19540     19541
     19537     19540     19542     19537     19540     19543     19541     19540     19542
     19541     19540     19543     19542     19540     19543     19540     19543     19544
     19540     19543     19545     19540     19543     19546     19544     19543     19545
     19544     19543     19546     19545     19543     19546     19543     19546     19547
     19543     19546     19548     19543     19546     19549     19547     19546     19548
     19547     19546     19549     19548     19546     19549     19546     19549     19550
     19546     19549     19551     19546     19549     19552     19550     19549     19551
     19550     19549     19552     19551     19549     19552     19549     19552     19553
     19549     19552     19554     19549     19552     19555     19553     19552     19554
     19553     19552     19555     19554     19552     19555     19552     19555     19556
     19552     19555     19557     19552     19555     19558     19556     19555     19557
     19556     19555     19558     19557     19555     19558     19555     19558     19559
     19555     19558     19560     19555     19558     19561     19559     19558     19560
     19559     19558     19561     19560     19558     19561     19558     19561     19562
     19558     19561     19563     19558     19561     19564     19562     19561     19563
     19562     19561     19564     19563     19561     19564     19566     19565     19569
     19566     19565     19573     19566     19565     19577     19569     19565     19573
     19569     19565     19577     19573     19565     19577     19565     19566     19567
     19565     19566     19568     19565     19566     19581     19567     19566     19568
     19567     19566     19581     19568     19566     19581     19565     19569     19570
     19565     19569     19571     19565     19569     19572     19570     19569     19571
     19570     19569     19572     19571     19569     19572     19565     19573     19574
     19565     19573     19575     19565     19573     19576     19574     19573     19575
     19574     19573     19576     19575     19573     19576     19565     19577     19578
     19565     19577     19579     19565     19577     19580     19578     19577     19579
     19578     19577     19580     19579     19577     19580     19566     19581     19582
     19566     19581     19583     19566     19581     19587     19582     19581     19583
     19582     19581     19587     19583     19581     19587     19585     19584     19586
     19585     19584     19587     19585     19584     19588     19586     19584     19587
     19586     19584     19588     19587     19584     19588     19581     19587     19584
     19584     19588     19589     19588     19589     19590     19588     19589     19591
     19588     19589     19592     19590     19589     19591     19590     19589     19592
     19591     19589     19592     19589     19592     19593     19589     19592     19594
     19589     19592     19600     19593     19592     19594     19593     19592     19600
     19594     19592     19600     19592     19594     19595     19594     19595     19596
     19594     19595     19597     19596     19595     19597     19595     19597     19598
     19595     19597     19599     19595     19597     19609     19598     19597     19599
     19598     19597     19609     19599     19597     19609     19592     19600     19601
     19592     19600     19602     19592     19600     19603     19601     19600     19602
     19601     19600     19603     19602     19600     19603     19600     19603     19604
     19603     19604     19605     19603     19604     19606     19605     19604     19606
     19604     19606     19607     19604     19606     19608     19604     19606     19656
     19607     19606     19608     19607     19606     19656     19608     19606     19656
     19597     19609     19610     19597     19609     19611     19597     19609     19612
     19610     19609     19611     19610     19609     19612     19611     19609     19612
     19609     19612     19613     19609     19612     19614     19609     19612     19615
     19613     19612     19614     19613     19612     19615     19614     19612     19615
     19612     19615     19616     19612     19615     19617     19612     19615     19618
     19616     19615     19617     19616     19615     19618     19617     19615     19618
     19615     19618     19619     19615     19618     19620     19615     19618     19621
     19619     19618     19620     19619     19618     19621     19620     19618     19621
     19618     19621     19622     19618     19621     19623     19618     19621     19624
     19622     19621     19623     19622     19621     19624     19623     19621     19624
     19621     19624     19625     19621     19624     19626     19621     19624     19627
     19625     19624     19626     19625     19624     19627     19626     19624     19627
     19624     19627     19628     19624     19627     19629     19628     19627     19629
     19627     19629     19630     19627     19629     19631     19630     19629     19631
     19629     19631     19632     19629     19631     19633     19629     19631     19634
     19632     19631     19633     19632     19631     19634     19633     19631     19634
     19631     19634     19635     19631     19634     19636     19631     19634     19637
     19635     19634     19636     19635     19634     19637     19636     19634     19637
     19634     19637     19638     19634     19637     19639     19634     19637     19640
     19638     19637     19639     19638     19637     19640     19639     19637     19640
     19637     19640     19641     19637     19640     19642     19637     19640     19643
     19641     19640     19642     19641     19640     19643     19642     19640     19643
     19640     19643     19644     19640     19643     19645     19640     19643     19646
     19644     19643     19645     19644     19643     19646     19645     19643     19646
     19643     19646     19647     19643     19646     19648     19643     19646     19649
     19647     19646     19648     19647     19646     19649     19648     19646     19649
     19646     19649     19650     19646     19649     19651     19646     19649     19652
     19650     19649     19651     19650     19649     19652     19651     19649     19652
     19649     19652     19653     19649     19652     19654     19649     19652     19655
     19653     19652     19654     19653     19652     19655     19654     19652     19655
     19606     19656     19657     19606     19656     19658     19606     19656     19659
     19657     19656     19658     19657     19656     19659     19658     19656     19659
     19656     19659     19660     19656     19659     19661     19656     19659     19662
     19660     19659     19661     19660     19659     19662     19661     19659     19662
     19659     19662     19663     19659     19662     19664     19659     19662     19665
     19663     19662     19664     19663     19662     19665     19664     19662     19665
     19662     19665     19666     19662     19665     19667     19662     19665     19668
     19666     19665     19667     19666     19665     19668     19667     19665     19668
     19665     19668     19669     19665     19668     19670     19665     19668     19671
     19669     19668     19670     19669     19668     19671     19670     19668     19671
     19668     19671     19672     19668     19671     19673     19668     19671     19674
     19672     19671     19673     19672     19671     19674     19673     19671     19674
     19671     19674     19675     19671     19674     19676     19671     19674     19677
     19675     19674     19676     19675     19674     19677     19676     19674     19677
     19674     19677     19678     19674     19677     19679     19674     19677     19680
     19678     19677     19679     19678     19677     19680     19679     19677     19680
     19677     19680     19681     19677     19680     19682     19677     19680     19683
     19681     19680     19682     19681     19680     19683     19682     19680     19683
     19680     19683     19684     19680     19683     19685     19680     19683     19686
     19684     19683     19685     19684     19683     19686     19685     19683     19686
     19683     19686     19687     19683     19686     19688     19683     19686     19689
     19687     19686     19688     19687     19686     19689     19688     19686     19689
     19686     19689     19690     19686     19689     19691     19686     19689     19692
     19690     19689     19691     19690     19689     19692     19691     19689     19692
     19689     19692     19693     19689     19692     19694     19689     19692     19695
     19693     19692     19694     19693     19692     19695     19694     19692     19695
     19692     19695     19696     19692     19695     19697     19692     19695     19698
     19696     19695     19697     19696     19695     19698     19697     19695     19698
     19700     19699     19703     19700     19699     19707     19700     19699     19711
     19703     19699     19707     19703     19699     19711     19707     19699     19711
     19699     19700     19701     19699     19700     19702     19699     19700     19715
     19701     19700     19702     19701     19700     19715     19702     19700     19715
     19699     19703     19704     19699     19703     19705     19699     19703     19706
     19704     19703     19705     19704     19703     19706     19705     19703     19706
     19699     19707     19708     19699     19707     19709     19699     19707     19710
     19708     19707     19709     19708     19707     19710     19709     19707     19710
     19699     19711     19712     19699     19711     19713     19699     19711     19714
     19712     19711     19713     19712     19711     19714     19713     19711     19714
     19700     19715     19716     19700     19715     19717     19700     19715     19721
     19716     19715     19717     19716     19715     19721     19717     19715     19721
     19719     19718     19720     19719     19718     19721     19719     19718     19722
     19720     19718     19721     19720     19718     19722     19721     19718     19722
     19715     19721     19718     19718     19722     19723     19722     19723     19724
     19722     19723     19725     19722     19723     19726     19724     19723     19725
     19724     19723     19726     19725     19723     19726     19723     19726     19727
     19723     19726     19728     19723     19726     19734     19727     19726     19728
     19727     19726     19734     19728     19726     19734     19726     19728     19729
     19728     19729     19730     19728     19729     19731     19730     19729     19731
     19729     19731     19732     19729     19731     19733     19729     19731     19743
     19732     19731     19733     19732     19731     19743     19733     19731     19743
     19726     19734     19735     19726     19734     19736     19726     19734     19737
     19735     19734     19736     19735     19734     19737     19736     19734     19737
     19734     19737     19738     19737     19738     19739     19737     19738     19740
     19739     19738     19740     19738     19740     19741     19738     19740     19742
     19738     19740     19790     19741     19740     19742     19741     19740     19790
     19742     19740     19790     19731     19743     19744     19731     19743     19745
     19731     19743     19746     19744     19743     19745     19744     19743     19746
     19745     19743     19746     19743     19746     19747     19743     19746     19748
     19743     19746     19749     19747     19746     19748     19747     19746     19749
     19748     19746     19749     19746     19749     19750     19746     19749     19751
     19746     19749     19752     19750     19749     19751     19750     19749     19752
     19751     19749     19752     19749     19752     19753     19749     19752     19754
     19749     19752     19755     19753     19752     19754     19753     19752     19755
     19754     19752     19755     19752     19755     19756     19752     19755     19757
     19752     19755     19758     19756     19755     19757     19756     19755     19758
     19757     19755     19758     19755     19758     19759     19755     19758     19760
     19755     19758     19761     19759     19758     19760     19759     19758     19761
     19760     19758     19761     19758     19761     19762     19758     19761     19763
     19762     19761     19763     19761     19763     19764     19761     19763     19765
     19764     19763     19765     19763     19765     19766     19763     19765     19767
     19763     19765     19768     19766     19765     19767     19766     19765     19768
     19767     19765     19768     19765     19768     19769     19765     19768     19770
     19765     19768     19771     19769     19768     19770     19769     19768     19771
     19770     19768     19771     19768     19771     19772     19768     19771     19773
     19768     19771     19774     19772     19771     19773     19772     19771     19774
     19773     19771     19774     19771     19774     19775     19771     19774     19776
     19771     19774     19777     19775     19774     19776     19775     19774     19777
     19776     19774     19777     19774     19777     19778     19774     19777     19779
     19774     19777     19780     19778     19777     19779     19778     19777     19780
     19779     19777     19780     19777     19780     19781     19777     19780     19782
     19777     19780     19783     19781     19780     19782     19781     19780     19783
     19782     19780     19783     19780     19783     19784     19780     19783     19785
     19780     19783     19786     19784     19783     19785     19784     19783     19786
     19785     19783     19786     19783     19786     19787     19783     19786     19788
     19783     19786     19789     19787     19786     19788     19787     19786     19789
     19788     19786     19789     19740     19790     19791     19740     19790     19792
     19740     19790     19793     19791     19790     19792     19791     19790     19793
     19792     19790     19793     19790     19793     19794     19790     19793     19795
     19790     19793     19796     19794     19793     19795     19794     19793     19796
     19795     19793     19796     19793     19796     19797     19793     19796     19798
     19793     19796     19799     19797     19796     19798     19797     19796     19799
     19798     19796     19799     19796     19799     19800     19796     19799     19801
     19796     19799     19802     19800     19799     19801     19800     19799     19802
     19801     19799     19802     19799     19802     19803     19799     19802     19804
     19799     19802     19805     19803     19802     19804     19803     19802     19805
     19804     19802     19805     19802     19805     19806     19802     19805     19807
     19802     19805     19808     19806     19805     19807     19806     19805     19808
     19807     19805     19808     19805     19808     19809     19805     19808     19810
     19805     19808     19811     19809     19808     19810     19809     19808     19811
     19810     19808     19811     19808     19811     19812     19808     19811     19813
     19808     19811     19814     19812     19811     19813     19812     19811     19814
     19813     19811     19814     19811     19814     19815     19811     19814     19816
     19811     19814     19817     19815     19814     19816     19815     19814     19817
     19816     19814     19817     19814     19817     19818     19814     19817     19819
     19814     19817     19820     19818     19817     19819     19818     19817     19820
     19819     19817     19820     19817     19820     19821     19817     19820     19822
     19817     19820     19823     19821     19820     19822     19821     19820     19823
     19822     19820     19823     19820     19823     19824     19820     19823     19825
     19820     19823     19826     19824     19823     19825     19824     19823     19826
     19825     19823     19826     19823     19826     19827     19823     19826     19828
     19823     19826     19829     19827     19826     19828     19827     19826     19829
     19828     19826     19829     19826     19829     19830     19826     19829     19831
     19826     19829     19832     19830     19829     19831     19830     19829     19832
     19831     19829     19832     19834     19833     19837     19834     19833     19841
     19834     19833     19845     19837     19833     19841     19837     19833     19845
     19841     19833     19845     19833     19834     19835     19833     19834     19836
     19833     19834     19849     19835     19834     19836     19835     19834     19849
     19836     19834     19849     19833     19837     19838     19833     19837     19839
     19833     19837     19840     19838     19837     19839     19838     19837     19840
     19839     19837     19840     19833     19841     19842     19833     19841     19843
     19833     19841     19844     19842     19841     19843     19842     19841     19844
     19843     19841     19844     19833     19845     19846     19833     19845     19847
     19833     19845     19848     19846     19845     19847     19846     19845     19848
     19847     19845     19848     19834     19849     19850     19834     19849     19851
     19834     19849     19855     19850     19849     19851     19850     19849     19855
     19851     19849     19855     19853     19852     19854     19853     19852     19855
     19853     19852     19856     19854     19852     19855     19854     19852     19856
     19855     19852     19856     19849     19855     19852     19852     19856     19857
     19856     19857     19858     19856     19857     19859     19856     19857     19860
     19858     19857     19859     19858     19857     19860     19859     19857     19860
     19857     19860     19861     19857     19860     19862     19857     19860     19868
     19861     19860     19862     19861     19860     19868     19862     19860     19868
     19860     19862     19863     19862     19863     19864     19862     19863     19865
     19864     19863     19865     19863     19865     19866     19863     19865     19867
     19863     19865     19877     19866     19865     19867     19866     19865     19877
     19867     19865     19877     19860     19868     19869     19860     19868     19870
     19860     19868     19871     19869     19868     19870     19869     19868     19871
     19870     19868     19871     19868     19871     19872     19871     19872     19873
     19871     19872     19874     19873     19872     19874     19872     19874     19875
     19872     19874     19876     19872     19874     19924     19875     19874     19876
     19875     19874     19924     19876     19874     19924     19865     19877     19878
     19865     19877     19879     19865     19877     19880     19878     19877     19879
     19878     19877     19880     19879     19877     19880     19877     19880     19881
     19877     19880     19882     19877     19880     19883     19881     19880     19882
     19881     19880     19883     19882     19880     19883     19880     19883     19884
     19880     19883     19885     19880     19883     19886     19884     19883     19885
     19884     19883     19886     19885     19883     19886     19883     19886     19887
     19883     19886     19888     19883     19886     19889     19887     19886     19888
     19887     19886     19889     19888     19886     19889     19886     19889     19890
     19886     19889     19891     19886     19889     19892     19890     19889     19891
     19890     19889     19892     19891     19889     19892     19889     19892     19893
     19889     19892     19894     19889     19892     19895     19893     19892     19894
     19893     19892     19895     19894     19892     19895     19892     19895     19896
     19892     19895     19897     19896     19895     19897     19895     19897     19898
     19895     19897     19899     19898     19897     19899     19897     19899     19900
     19897     19899     19901     19897     19899     19902     19900     19899     19901
     19900     19899     19902     19901     19899     19902     19899     19902     19903
     19899     19902     19904     19899     19902     19905     19903     19902     19904
     19903     19902     19905     19904     19902     19905     19902     19905     19906
     19902     19905     19907     19902     19905     19908     19906     19905     19907
     19906     19905     19908     19907     19905     19908     19905     19908     19909
     19905     19908     19910     19905     19908     19911     19909     19908     19910
     19909     19908     19911     19910     19908     19911     19908     19911     19912
     19908     19911     19913     19908     19911     19914     19912     19911     19913
     19912     19911     19914     19913     19911     19914     19911     19914     19915
     19911     19914     19916     19911     19914     19917     19915     19914     19916
     19915     19914     19917     19916     19914     19917     19914     19917     19918
     19914     19917     19919     19914     19917     19920     19918     19917     19919
     19918     19917     19920     19919     19917     19920     19917     19920     19921
     19917     19920     19922     19917     19920     19923     19921     19920     19922
     19921     19920     19923     19922     19920     19923     19874     19924     19925
     19874     19924     19926     19874     19924     19927     19925     19924     19926
     19925     19924     19927     19926     19924     19927     19924     19927     19928
     19924     19927     19929     19924     19927     19930     19928     19927     19929
     19928     19927     19930     19929     19927     19930     19927     19930     19931
     19927     19930     19932     19927     19930     19933     19931     19930     19932
     19931     19930     19933     19932     19930     19933     19930     19933     19934
     19930     19933     19935     19930     19933     19936     19934     19933     19935
     19934     19933     19936     19935     19933     19936     19933     19936     19937
     19933     19936     19938     19933     19936     19939     19937     19936     19938
     19937     19936     19939     19938     19936     19939     19936     19939     19940
     19936     19939     19941     19936     19939     19942     19940     19939     19941
     19940     19939     19942     19941     19939     19942     19939     19942     19943
     19939     19942     19944     19939     19942     19945     19943     19942     19944
     19943     19942     19945     19944     19942     19945     19942     19945     19946
     19942     19945     19947     19942     19945     19948     19946     19945     19947
     19946     19945     19948     19947     19945     19948     19945     19948     19949
     19945     19948     19950     19945     19948     19951     19949     19948     19950
     19949     19948     19951     19950     19948     19951     19948     19951     19952
     19948     19951     19953     19948     19951     19954     19952     19951     19953
     19952     19951     19954     19953     19951     19954     19951     19954     19955
     19951     19954     19956     19951     19954     19957     19955     19954     19956
     19955     19954     19957     19956     19954     19957     19954     19957     19958
     19954     19957     19959     19954     19957     19960     19958     19957     19959
     19958     19957     19960     19959     19957     19960     19957     19960     19961
     19957     19960     19962     19957     19960     19963     19961     19960     19962
     19961     19960     19963     19962     19960     19963     19960     19963     19964
     19960     19963     19965     19960     19963     19966     19964     19963     19965
     19964     19963     19966     19965     19963     19966     19968     19967     19971
     19968     19967     19975     19968     19967     19979     19971     19967     19975
     19971     19967     19979     19975     19967     19979     19967     19968     19969
     19967     19968     19970     19967     19968     19983     19969     19968     19970
     19969     19968     19983     19970     19968     19983     19967     19971     19972
     19967     19971     19973     19967     19971     19974     19972     19971     19973
     19972     19971     19974     19973     19971     19974     19967     19975     19976
     19967     19975     19977     19967     19975     19978     19976     19975     19977
     19976     19975     19978     19977     19975     19978     19967     19979     19980
     19967     19979     19981     19967     19979     19982     19980     19979     19981
     19980     19979     19982     19981     19979     19982     19968     19983     19984
     19968     19983     19985     19968     19983     19989     19984     19983     19985
     19984     19983     19989     19985     19983     19989     19987     19986     19988
     19987     19986     19989     19987     19986     19990     19988     19986     19989
     19988     19986     19990     19989     19986     19990     19983     19989     19986
     19986     19990     19991     19990     19991     19992     19990     19991     19993
     19990     19991     19994     19992     19991     19993     19992     19991     19994
     19993     19991     19994     19991     19994     19995     19991     19994     19996
     19991     19994     20002     19995     19994     19996     19995     19994     20002
     19996     19994     20002     19994     19996     19997     19996     19997     19998
     19996     19997     19999     19998     19997     19999     19997     19999     20000
     19997     19999     20001     19997     19999     20011     20000     19999     20001
     20000     19999     20011     20001     19999     20011     19994     20002     20003
     19994     20002     20004     19994     20002     20005     20003     20002     20004
     20003     20002     20005     20004     20002     20005     20002     20005     20006
     20005     20006     20007     20005     20006     20008     20007     20006     20008
     20006     20008     20009     20006     20008     20010     20006     20008     20058
     20009     20008     20010     20009     20008     20058     20010     20008     20058
     19999     20011     20012     19999     20011     20013     19999     20011     20014
     20012     20011     20013     20012     20011     20014     20013     20011     20014
     20011     20014     20015     20011     20014     20016     20011     20014     20017
     20015     20014     20016     20015     20014     20017     20016     20014     20017
     20014     20017     20018     20014     20017     20019     20014     20017     20020
     20018     20017     20019     20018     20017     20020     20019     20017     20020
     20017     20020     20021     20017     20020     20022     20017     20020     20023
     20021     20020     20022     20021     20020     20023     20022     20020     20023
     20020     20023     20024     20020     20023     20025     20020     20023     20026
     20024     20023     20025     20024     20023     20026     20025     20023     20026
     20023     20026     20027     20023     20026     20028     20023     20026     20029
     20027     20026     20028     20027     20026     20029     20028     20026     20029
     20026     20029     20030     20026     20029     20031     20030     20029     20031
     20029     20031     20032     20029     20031     20033     20032     20031     20033
     20031     20033     20034     20031     20033     20035     20031     20033     20036
     20034     20033     20035     20034     20033     20036     20035     20033     20036
     20033     20036     20037     20033     20036     20038     20033     20036     20039
     20037     20036     20038     20037     20036     20039     20038     20036     20039
     20036     20039     20040     20036     20039     20041     20036     20039     20042
     20040     20039     20041     20040     20039     20042     20041     20039     20042
     20039     20042     20043     20039     20042     20044     20039     20042     20045
     20043     20042     20044     20043     20042     20045     20044     20042     20045
     20042     20045     20046     20042     20045     20047     20042     20045     20048
     20046     20045     20047     20046     20045     20048     20047     20045     20048
     20045     20048     20049     20045     20048     20050     20045     20048     20051
     20049     20048     20050     20049     20048     20051     20050     20048     20051
     20048     20051     20052     20048     20051     20053     20048     20051     20054
     20052     20051     20053     20052     20051     20054     20053     20051     20054
     20051     20054     20055     20051     20054     20056     20051     20054     20057
     20055     20054     20056     20055     20054     20057     20056     20054     20057
     20008     20058     20059     20008     20058     20060     20008     20058     20061
     20059     20058     20060     20059     20058     20061     20060     20058     20061
     20058     20061     20062     20058     20061     20063     20058     20061     20064
     20062     20061     20063     20062     20061     20064     20063     20061     20064
     20061     20064     20065     20061     20064     20066     20061     20064     20067
     20065     20064     20066     20065     20064     20067     20066     20064     20067
     20064     20067     20068     20064     20067     20069     20064     20067     20070
     20068     20067     20069     20068     20067     20070     20069     20067     20070
     20067     20070     20071     20067     20070     20072     20067     20070     20073
     20071     20070     20072     20071     20070     20073     20072     20070     20073
     20070     20073     20074     20070     20073     20075     20070     20073     20076
     20074     20073     20075     20074     20073     20076     20075     20073     20076
     20073     20076     20077     20073     20076     20078     20073     20076     20079
     20077     20076     20078     20077     20076     20079     20078     20076     20079
     20076     20079     20080     20076     20079     20081     20076     20079     20082
     20080     20079     20081     20080     20079     20082     20081     20079     20082
     20079     20082     20083     20079     20082     20084     20079     20082     20085
     20083     20082     20084     20083     20082     20085     20084     20082     20085
     20082     20085     20086     20082     20085     20087     20082     20085     20088
     20086     20085     20087     20086     20085     20088     20087     20085     20088
     20085     20088     20089     20085     20088     20090     20085     20088     20091
     20089     20088     20090     20089     20088     20091     20090     20088     20091
     20088     20091     20092     20088     20091     20093     20088     20091     20094
     20092     20091     20093     20092     20091     20094     20093     20091     20094
     20091     20094     20095     20091     20094     20096     20091     20094     20097
     20095     20094     20096     20095     20094     20097     20096     20094     20097
     20094     20097     20098     20094     20097     20099     20094     20097     20100
     20098     20097     20099     20098     20097     20100     20099     20097     20100
     20102     20101     20105     20102     20101     20109     20102     20101     20113
     20105     20101     20109     20105     20101     20113     20109     20101     20113
     20101     20102     20103     20101     20102     20104     20101     20102     20117
     20103     20102     20104     20103     20102     20117     20104     20102     20117
     20101     20105     20106     20101     20105     20107     20101     20105     20108
     20106     20105     20107     20106     20105     20108     20107     20105     20108
     20101     20109     20110     20101     20109     20111     20101     20109     20112
     20110     20109     20111     20110     20109     20112     20111     20109     20112
     20101     20113     20114     20101     20113     20115     20101     20113     20116
     20114     20113     20115     20114     20113     20116     20115     20113     20116
     20102     20117     20118     20102     20117     20119     20102     20117     20123
     20118     20117     20119     20118     20117     20123     20119     20117     20123
     20121     20120     20122     20121     20120     20123     20121     20120     20124
     20122     20120     20123     20122     20120     20124     20123     20120     20124
     20117     20123     20120     20120     20124     20125     20124     20125     20126
     20124     20125     20127     20124     20125     20128     20126     20125     20127
     20126     20125     20128     20127     20125     20128     20125     20128     20129
     20125     20128     20130     20125     20128     20136     20129     20128     20130
     20129     20128     20136     20130     20128     20136     20128     20130     20131
     20130     20131     20132     20130     20131     20133     20132     20131     20133
     20131     20133     20134     20131     20133     20135     20131     20133     20145
     20134     20133     20135     20134     20133     20145     20135     20133     20145
     20128     20136     20137     20128     20136     20138     20128     20136     20139
     20137     20136     20138     20137     20136     20139     20138     20136     20139
     20136     20139     20140     20139     20140     20141     20139     20140     20142
     20141     20140     20142     20140     20142     20143     20140     20142     20144
     20140     20142     20192     20143     20142     20144     20143     20142     20192
     20144     20142     20192     20133     20145     20146     20133     20145     20147
     20133     20145     20148     20146     20145     20147     20146     20145     20148
     20147     20145     20148     20145     20148     20149     20145     20148     20150
     20145     20148     20151     20149     20148     20150     20149     20148     20151
     20150     20148     20151     20148     20151     20152     20148     20151     20153
     20148     20151     20154     20152     20151     20153     20152     20151     20154
     20153     20151     20154     20151     20154     20155     20151     20154     20156
     20151     20154     20157     20155     20154     20156     20155     20154     20157
     20156     20154     20157     20154     20157     20158     20154     20157     20159
     20154     20157     20160     20158     20157     20159     20158     20157     20160
     20159     20157     20160     20157     20160     20161     20157     20160     20162
     20157     20160     20163     20161     20160     20162     20161     20160     20163
     20162     20160     20163     20160     20163     20164     20160     20163     20165
     20164     20163     20165     20163     20165     20166     20163     20165     20167
     20166     20165     20167     20165     20167     20168     20165     20167     20169
     20165     20167     20170     20168     20167     20169     20168     20167     20170
     20169     20167     20170     20167     20170     20171     20167     20170     20172
     20167     20170     20173     20171     20170     20172     20171     20170     20173
     20172     20170     20173     20170     20173     20174     20170     20173     20175
     20170     20173     20176     20174     20173     20175     20174     20173     20176
     20175     20173     20176     20173     20176     20177     20173     20176     20178
     20173     20176     20179     20177     20176     20178     20177     20176     20179
     20178     20176     20179     20176     20179     20180     20176     20179     20181
     20176     20179     20182     20180     20179     20181     20180     20179     20182
     20181     20179     20182     20179     20182     20183     20179     20182     20184
     20179     20182     20185     20183     20182     20184     20183     20182     20185
     20184     20182     20185     20182     20185     20186     20182     20185     20187
     20182     20185     20188     20186     20185     20187     20186     20185     20188
     20187     20185     20188     20185     20188     20189     20185     20188     20190
     20185     20188     20191     20189     20188     20190     20189     20188     20191
     20190     20188     20191     20142     20192     20193     20142     20192     20194
     20142     20192     20195     20193     20192     20194     20193     20192     20195
     20194     20192     20195     20192     20195     20196     20192     20195     20197
     20192     20195     20198     20196     20195     20197     20196     20195     20198
     20197     20195     20198     20195     20198     20199     20195     20198     20200
     20195     20198     20201     20199     20198     20200     20199     20198     20201
     20200     20198     20201     20198     20201     20202     20198     20201     20203
     20198     20201     20204     20202     20201     20203     20202     20201     20204
     20203     20201     20204     20201     20204     20205     20201     20204     20206
     20201     20204     20207     20205     20204     20206     20205     20204     20207
     20206     20204     20207     20204     20207     20208     20204     20207     20209
     20204     20207     20210     20208     20207     20209     20208     20207     20210
     20209     20207     20210     20207     20210     20211     20207     20210     20212
     20207     20210     20213     20211     20210     20212     20211     20210     20213
     20212     20210     20213     20210     20213     20214     20210     20213     20215
     20210     20213     20216     20214     20213     20215     20214     20213     20216
     20215     20213     20216     20213     20216     20217     20213     20216     20218
     20213     20216     20219     20217     20216     20218     20217     20216     20219
     20218     20216     20219     20216     20219     20220     20216     20219     20221
     20216     20219     20222     20220     20219     20221     20220     20219     20222
     20221     20219     20222     20219     20222     20223     20219     20222     20224
     20219     20222     20225     20223     20222     20224     20223     20222     20225
     20224     20222     20225     20222     20225     20226     20222     20225     20227
     20222     20225     20228     20226     20225     20227     20226     20225     20228
     20227     20225     20228     20225     20228     20229     20225     20228     20230
     20225     20228     20231     20229     20228     20230     20229     20228     20231
     20230     20228     20231     20228     20231     20232     20228     20231     20233
     20228     20231     20234     20232     20231     20233     20232     20231     20234
     20233     20231     20234     20236     20235     20239     20236     20235     20243
     20236     20235     20247     20239     20235     20243     20239     20235     20247
     20243     20235     20247     20235     20236     20237     20235     20236     20238
     20235     20236     20251     20237     20236     20238     20237     20236     20251
     20238     20236     20251     20235     20239     20240     20235     20239     20241
     20235     20239     20242     20240     20239     20241     20240     20239     20242
     20241     20239     20242     20235     20243     20244     20235     20243     20245
     20235     20243     20246     20244     20243     20245     20244     20243     20246
     20245     20243     20246     20235     20247     20248     20235     20247     20249
     20235     20247     20250     20248     20247     20249     20248     20247     20250
     20249     20247     20250     20236     20251     20252     20236     20251     20253
     20236     20251     20257     20252     20251     20253     20252     20251     20257
     20253     20251     20257     20255     20254     20256     20255     20254     20257
     20255     20254     20258     20256     20254     20257     20256     20254     20258
     20257     20254     20258     20251     20257     20254     20254     20258     20259
     20258     20259     20260     20258     20259     20261     20258     20259     20262
     20260     20259     20261     20260     20259     20262     20261     20259     20262
     20259     20262     20263     20259     20262     20264     20259     20262     20270
     20263     20262     20264     20263     20262     20270     20264     20262     20270
     20262     20264     20265     20264     20265     20266     20264     20265     20267
     20266     20265     20267     20265     20267     20268     20265     20267     20269
     20265     20267     20279     20268     20267     20269     20268     20267     20279
     20269     20267     20279     20262     20270     20271     20262     20270     20272
     20262     20270     20273     20271     20270     20272     20271     20270     20273
     20272     20270     20273     20270     20273     20274     20273     20274     20275
     20273     20274     20276     20275     20274     20276     20274     20276     20277
     20274     20276     20278     20274     20276     20326     20277     20276     20278
     20277     20276     20326     20278     20276     20326     20267     20279     20280
     20267     20279     20281     20267     20279     20282     20280     20279     20281
     20280     20279     20282     20281     20279     20282     20279     20282     20283
     20279     20282     20284     20279     20282     20285     20283     20282     20284
     20283     20282     20285     20284     20282     20285     20282     20285     20286
     20282     20285     20287     20282     20285     20288     20286     20285     20287
     20286     20285     20288     20287     20285     20288     20285     20288     20289
     20285     20288     20290     20285     20288     20291     20289     20288     20290
     20289     20288     20291     20290     20288     20291     20288     20291     20292
     20288     20291     20293     20288     20291     20294     20292     20291     20293
     20292     20291     20294     20293     20291     20294     20291     20294     20295
     20291     20294     20296     20291     20294     20297     20295     20294     20296
     20295     20294     20297     20296     20294     20297     20294     20297     20298
     20294     20297     20299     20298     20297     20299     20297     20299     20300
     20297     20299     20301     20300     20299     20301     20299     20301     20302
     20299     20301     20303     20299     20301     20304     20302     20301     20303
     20302     20301     20304     20303     20301     20304     20301     20304     20305
     20301     20304     20306     20301     20304     20307     20305     20304     20306
     20305     20304     20307     20306     20304     20307     20304     20307     20308
     20304     20307     20309     20304     20307     20310     20308     20307     20309
     20308     20307     20310     20309     20307     20310     20307     20310     20311
     20307     20310     20312     20307     20310     20313     20311     20310     20312
     20311     20310     20313     20312     20310     20313     20310     20313     20314
     20310     20313     20315     20310     20313     20316     20314     20313     20315
     20314     20313     20316     20315     20313     20316     20313     20316     20317
     20313     20316     20318     20313     20316     20319     20317     20316     20318
     20317     20316     20319     20318     20316     20319     20316     20319     20320
     20316     20319     20321     20316     20319     20322     20320     20319     20321
     20320     20319     20322     20321     20319     20322     20319     20322     20323
     20319     20322     20324     20319     20322     20325     20323     20322     20324
     20323     20322     20325     20324     20322     20325     20276     20326     20327
     20276     20326     20328     20276     20326     20329     20327     20326     20328
     20327     20326     20329     20328     20326     20329     20326     20329     20330
     20326     20329     20331     20326     20329     20332     20330     20329     20331
     20330     20329     20332     20331     20329     20332     20329     20332     20333
     20329     20332     20334     20329     20332     20335     20333     20332     20334
     20333     20332     20335     20334     20332     20335     20332     20335     20336
     20332     20335     20337     20332     20335     20338     20336     20335     20337
     20336     20335     20338     20337     20335     20338     20335     20338     20339
     20335     20338     20340     20335     20338     20341     20339     20338     20340
     20339     20338     20341     20340     20338     20341     20338     20341     20342
     20338     20341     20343     20338     20341     20344     20342     20341     20343
     20342     20341     20344     20343     20341     20344     20341     20344     20345
     20341     20344     20346     20341     20344     20347     20345     20344     20346
     20345     20344     20347     20346     20344     20347     20344     20347     20348
     20344     20347     20349     20344     20347     20350     20348     20347     20349
     20348     20347     20350     20349     20347     20350     20347     20350     20351
     20347     20350     20352     20347     20350     20353     20351     20350     20352
     20351     20350     20353     20352     20350     20353     20350     20353     20354
     20350     20353     20355     20350     20353     20356     20354     20353     20355
     20354     20353     20356     20355     20353     20356     20353     20356     20357
     20353     20356     20358     20353     20356     20359     20357     20356     20358
     20357     20356     20359     20358     20356     20359     20356     20359     20360
     20356     20359     20361     20356     20359     20362     20360     20359     20361
     20360     20359     20362     20361     20359     20362     20359     20362     20363
     20359     20362     20364     20359     20362     20365     20363     20362     20364
     20363     20362     20365     20364     20362     20365     20362     20365     20366
     20362     20365     20367     20362     20365     20368     20366     20365     20367
     20366     20365     20368     20367     20365     20368     20370     20369     20373
     20370     20369     20377     20370     20369     20381     20373     20369     20377
     20373     20369     20381     20377     20369     20381     20369     20370     20371
     20369     20370     20372     20369     20370     20385     20371     20370     20372
     20371     20370     20385     20372     20370     20385     20369     20373     20374
     20369     20373     20375     20369     20373     20376     20374     20373     20375
     20374     20373     20376     20375     20373     20376     20369     20377     20378
     20369     20377     20379     20369     20377     20380     20378     20377     20379
     20378     20377     20380     20379     20377     20380     20369     20381     20382
     20369     20381     20383     20369     20381     20384     20382     20381     20383
     20382     20381     20384     20383     20381     20384     20370     20385     20386
     20370     20385     20387     20370     20385     20391     20386     20385     20387
     20386     20385     20391     20387     20385     20391     20389     20388     20390
     20389     20388     20391     20389     20388     20392     20390     20388     20391
     20390     20388     20392     20391     20388     20392     20385     20391     20388
     20388     20392     20393     20392     20393     20394     20392     20393     20395
     20392     20393     20396     20394     20393     20395     20394     20393     20396
     20395     20393     20396     20393     20396     20397     20393     20396     20398
     20393     20396     20404     20397     20396     20398     20397     20396     20404
     20398     20396     20404     20396     20398     20399     20398     20399     20400
     20398     20399     20401     20400     20399     20401     20399     20401     20402
     20399     20401     20403     20399     20401     20413     20402     20401     20403
     20402     20401     20413     20403     20401     20413     20396     20404     20405
     20396     20404     20406     20396     20404     20407     20405     20404     20406
     20405     20404     20407     20406     20404     20407     20404     20407     20408
     20407     20408     20409     20407     20408     20410     20409     20408     20410
     20408     20410     20411     20408     20410     20412     20408     20410     20460
     20411     20410     20412     20411     20410     20460     20412     20410     20460
     20401     20413     20414     20401     20413     20415     20401     20413     20416
     20414     20413     20415     20414     20413     20416     20415     20413     20416
     20413     20416     20417     20413     20416     20418     20413     20416     20419
     20417     20416     20418     20417     20416     20419     20418     20416     20419
     20416     20419     20420     20416     20419     20421     20416     20419     20422
     20420     20419     20421     20420     20419     20422     20421     20419     20422
     20419     20422     20423     20419     20422     20424     20419     20422     20425
     20423     20422     20424     20423     20422     20425     20424     20422     20425
     20422     20425     20426     20422     20425     20427     20422     20425     20428
     20426     20425     20427     20426     20425     20428     20427     20425     20428
     20425     20428     20429     20425     20428     20430     20425     20428     20431
     20429     20428     20430     20429     20428     20431     20430     20428     20431
     20428     20431     20432     20428     20431     20433     20432     20431     20433
     20431     20433     20434     20431     20433     20435     20434     20433     20435
     20433     20435     20436     20433     20435     20437     20433     20435     20438
     20436     20435     20437     20436     20435     20438     20437     20435     20438
     20435     20438     20439     20435     20438     20440     20435     20438     20441
     20439     20438     20440     20439     20438     20441     20440     20438     20441
     20438     20441     20442     20438     20441     20443     20438     20441     20444
     20442     20441     20443     20442     20441     20444     20443     20441     20444
     20441     20444     20445     20441     20444     20446     20441     20444     20447
     20445     20444     20446     20445     20444     20447     20446     20444     20447
     20444     20447     20448     20444     20447     20449     20444     20447     20450
     20448     20447     20449     20448     20447     20450     20449     20447     20450
     20447     20450     20451     20447     20450     20452     20447     20450     20453
     20451     20450     20452     20451     20450     20453     20452     20450     20453
     20450     20453     20454     20450     20453     20455     20450     20453     20456
     20454     20453     20455     20454     20453     20456     20455     20453     20456
     20453     20456     20457     20453     20456     20458     20453     20456     20459
     20457     20456     20458     20457     20456     20459     20458     20456     20459
     20410     20460     20461     20410     20460     20462     20410     20460     20463
     20461     20460     20462     20461     20460     20463     20462     20460     20463
     20460     20463     20464     20460     20463     20465     20460     20463     20466
     20464     20463     20465     20464     20463     20466     20465     20463     20466
     20463     20466     20467     20463     20466     20468     20463     20466     20469
     20467     20466     20468     20467     20466     20469     20468     20466     20469
     20466     20469     20470     20466     20469     20471     20466     20469     20472
     20470     20469     20471     20470     20469     20472     20471     20469     20472
     20469     20472     20473     20469     20472     20474     20469     20472     20475
     20473     20472     20474     20473     20472     20475     20474     20472     20475
     20472     20475     20476     20472     20475     20477     20472     20475     20478
     20476     20475     20477     20476     20475     20478     20477     20475     20478
     20475     20478     20479     20475     20478     20480     20475     20478     20481
     20479     20478     20480     20479     20478     20481     20480     20478     20481
     20478     20481     20482     20478     20481     20483     20478     20481     20484
     20482     20481     20483     20482     20481     20484     20483     20481     20484
     20481     20484     20485     20481     20484     20486     20481     20484     20487
     20485     20484     20486     20485     20484     20487     20486     20484     20487
     20484     20487     20488     20484     20487     20489     20484     20487     20490
     20488     20487     20489     20488     20487     20490     20489     20487     20490
     20487     20490     20491     20487     20490     20492     20487     20490     20493
     20491     20490     20492     20491     20490     20493     20492     20490     20493
     20490     20493     20494     20490     20493     20495     20490     20493     20496
     20494     20493     20495     20494     20493     20496     20495     20493     20496
     20493     20496     20497     20493     20496     20498     20493     20496     20499
     20497     20496     20498     20497     20496     20499     20498     20496     20499
     20496     20499     20500     20496     20499     20501     20496     20499     20502
     20500     20499     20501     20500     20499     20502     20501     20499     20502
     20504     20503     20507     20504     20503     20511     20504     20503     20515
     20507     20503     20511     20507     20503     20515     20511     20503     20515
     20503     20504     20505     20503     20504     20506     20503     20504     20519
     20505     20504     20506     20505     20504     20519     20506     20504     20519
     20503     20507     20508     20503     20507     20509     20503     20507     20510
     20508     20507     20509     20508     20507     20510     20509     20507     20510
     20503     20511     20512     20503     20511     20513     20503     20511     20514
     20512     20511     20513     20512     20511     20514     20513     20511     20514
     20503     20515     20516     20503     20515     20517     20503     20515     20518
     20516     20515     20517     20516     20515     20518     20517     20515     20518
     20504     20519     20520     20504     20519     20521     20504     20519     20525
     20520     20519     20521     20520     20519     20525     20521     20519     20525
     20523     20522     20524     20523     20522     20525     20523     20522     20526
     20524     20522     20525     20524     20522     20526     20525     20522     20526
     20519     20525     20522     20522     20526     20527     20526     20527     20528
     20526     20527     20529     20526     20527     20530     20528     20527     20529
     20528     20527     20530     20529     20527     20530     20527     20530     20531
     20527     20530     20532     20527     20530     20538     20531     20530     20532
     20531     20530     20538     20532     20530     20538     20530     20532     20533
     20532     20533     20534     20532     20533     20535     20534     20533     20535
     20533     20535     20536     20533     20535     20537     20533     20535     20547
     20536     20535     20537     20536     20535     20547     20537     20535     20547
     20530     20538     20539     20530     20538     20540     20530     20538     20541
     20539     20538     20540     20539     20538     20541     20540     20538     20541
     20538     20541     20542     20541     20542     20543     20541     20542     20544
     20543     20542     20544     20542     20544     20545     20542     20544     20546
     20542     20544     20594     20545     20544     20546     20545     20544     20594
     20546     20544     20594     20535     20547     20548     20535     20547     20549
     20535     20547     20550     20548     20547     20549     20548     20547     20550
     20549     20547     20550     20547     20550     20551     20547     20550     20552
     20547     20550     20553     20551     20550     20552     20551     20550     20553
     20552     20550     20553     20550     20553     20554     20550     20553     20555
     20550     20553     20556     20554     20553     20555     20554     20553     20556
     20555     20553     20556     20553     20556     20557     20553     20556     20558
     20553     20556     20559     20557     20556     20558     20557     20556     20559
     20558     20556     20559     20556     20559     20560     20556     20559     20561
     20556     20559     20562     20560     20559     20561     20560     20559     20562
     20561     20559     20562     20559     20562     20563     20559     20562     20564
     20559     20562     20565     20563     20562     20564     20563     20562     20565
     20564     20562     20565     20562     20565     20566     20562     20565     20567
     20566     20565     20567     20565     20567     20568     20565     20567     20569
     20568     20567     20569     20567     20569     20570     20567     20569     20571
     20567     20569     20572     20570     20569     20571     20570     20569     20572
     20571     20569     20572     20569     20572     20573     20569     20572     20574
     20569     20572     20575     20573     20572     20574     20573     20572     20575
     20574     20572     20575     20572     20575     20576     20572     20575     20577
     20572     20575     20578     20576     20575     20577     20576     20575     20578
     20577     20575     20578     20575     20578     20579     20575     20578     20580
     20575     20578     20581     20579     20578     20580     20579     20578     20581
     20580     20578     20581     20578     20581     20582     20578     20581     20583
     20578     20581     20584     20582     20581     20583     20582     20581     20584
     20583     20581     20584     20581     20584     20585     20581     20584     20586
     20581     20584     20587     20585     20584     20586     20585     20584     20587
     20586     20584     20587     20584     20587     20588     20584     20587     20589
     20584     20587     20590     20588     20587     20589     20588     20587     20590
     20589     20587     20590     20587     20590     20591     20587     20590     20592
     20587     20590     20593     20591     20590     20592     20591     20590     20593
     20592     20590     20593     20544     20594     20595     20544     20594     20596
     20544     20594     20597     20595     20594     20596     20595     20594     20597
     20596     20594     20597     20594     20597     20598     20594     20597     20599
     20594     20597     20600     20598     20597     20599     20598     20597     20600
     20599     20597     20600     20597     20600     20601     20597     20600     20602
     20597     20600     20603     20601     20600     20602     20601     20600     20603
     20602     20600     20603     20600     20603     20604     20600     20603     20605
     20600     20603     20606     20604     20603     20605     20604     20603     20606
     20605     20603     20606     20603     20606     20607     20603     20606     20608
     20603     20606     20609     20607     20606     20608     20607     20606     20609
     20608     20606     20609     20606     20609     20610     20606     20609     20611
     20606     20609     20612     20610     20609     20611     20610     20609     20612
     20611     20609     20612     20609     20612     20613     20609     20612     20614
     20609     20612     20615     20613     20612     20614     20613     20612     20615
     20614     20612     20615     20612     20615     20616     20612     20615     20617
     20612     20615     20618     20616     20615     20617     20616     20615     20618
     20617     20615     20618     20615     20618     20619     20615     20618     20620
     20615     20618     20621     20619     20618     20620     20619     20618     20621
     20620     20618     20621     20618     20621     20622     20618     20621     20623
     20618     20621     20624     20622     20621     20623     20622     20621     20624
     20623     20621     20624     20621     20624     20625     20621     20624     20626
     20621     20624     20627     20625     20624     20626     20625     20624     20627
     20626     20624     20627     20624     20627     20628     20624     20627     20629
     20624     20627     20630     20628     20627     20629     20628     20627     20630
     20629     20627     20630     20627     20630     20631     20627     20630     20632
     20627     20630     20633     20631     20630     20632     20631     20630     20633
     20632     20630     20633     20630     20633     20634     20630     20633     20635
     20630     20633     20636     20634     20633     20635     20634     20633     20636
     20635     20633     20636     20638     20637     20641     20638     20637     20645
     20638     20637     20649     20641     20637     20645     20641     20637     20649
     20645     20637     20649     20637     20638     20639     20637     20638     20640
     20637     20638     20653     20639     20638     20640     20639     20638     20653
     20640     20638     20653     20637     20641     20642     20637     20641     20643
     20637     20641     20644     20642     20641     20643     20642     20641     20644
     20643     20641     20644     20637     20645     20646     20637     20645     20647
     20637     20645     20648     20646     20645     20647     20646     20645     20648
     20647     20645     20648     20637     20649     20650     20637     20649     20651
     20637     20649     20652     20650     20649     20651     20650     20649     20652
     20651     20649     20652     20638     20653     20654     20638     20653     20655
     20638     20653     20659     20654     20653     20655     20654     20653     20659
     20655     20653     20659     20657     20656     20658     20657     20656     20659
     20657     20656     20660     20658     20656     20659     20658     20656     20660
     20659     20656     20660     20653     20659     20656     20656     20660     20661
     20660     20661     20662     20660     20661     20663     20660     20661     20664
     20662     20661     20663     20662     20661     20664     20663     20661     20664
     20661     20664     20665     20661     20664     20666     20661     20664     20672
     20665     20664     20666     20665     20664     20672     20666     20664     20672
     20664     20666     20667     20666     20667     20668     20666     20667     20669
     20668     20667     20669     20667     20669     20670     20667     20669     20671
     20667     20669     20681     20670     20669     20671     20670     20669     20681
     20671     20669     20681     20664     20672     20673     20664     20672     20674
     20664     20672     20675     20673     20672     20674     20673     20672     20675
     20674     20672     20675     20672     20675     20676     20675     20676     20677
     20675     20676     20678     20677     20676     20678     20676     20678     20679
     20676     20678     20680     20676     20678     20728     20679     20678     20680
     20679     20678     20728     20680     20678     20728     20669     20681     20682
     20669     20681     20683     20669     20681     20684     20682     20681     20683
     20682     20681     20684     20683     20681     20684     20681     20684     20685
     20681     20684     20686     20681     20684     20687     20685     20684     20686
     20685     20684     20687     20686     20684     20687     20684     20687     20688
     20684     20687     20689     20684     20687     20690     20688     20687     20689
     20688     20687     20690     20689     20687     20690     20687     20690     20691
     20687     20690     20692     20687     20690     20693     20691     20690     20692
     20691     20690     20693     20692     20690     20693     20690     20693     20694
     20690     20693     20695     20690     20693     20696     20694     20693     20695
     20694     20693     20696     20695     20693     20696     20693     20696     20697
     20693     20696     20698     20693     20696     20699     20697     20696     20698
     20697     20696     20699     20698     20696     20699     20696     20699     20700
     20696     20699     20701     20700     20699     20701     20699     20701     20702
     20699     20701     20703     20702     20701     20703     20701     20703     20704
     20701     20703     20705     20701     20703     20706     20704     20703     20705
     20704     20703     20706     20705     20703     20706     20703     20706     20707
     20703     20706     20708     20703     20706     20709     20707     20706     20708
     20707     20706     20709     20708     20706     20709     20706     20709     20710
     20706     20709     20711     20706     20709     20712     20710     20709     20711
     20710     20709     20712     20711     20709     20712     20709     20712     20713
     20709     20712     20714     20709     20712     20715     20713     20712     20714
     20713     20712     20715     20714     20712     20715     20712     20715     20716
     20712     20715     20717     20712     20715     20718     20716     20715     20717
     20716     20715     20718     20717     20715     20718     20715     20718     20719
     20715     20718     20720     20715     20718     20721     20719     20718     20720
     20719     20718     20721     20720     20718     20721     20718     20721     20722
     20718     20721     20723     20718     20721     20724     20722     20721     20723
     20722     20721     20724     20723     20721     20724     20721     20724     20725
     20721     20724     20726     20721     20724     20727     20725     20724     20726
     20725     20724     20727     20726     20724     20727     20678     20728     20729
     20678     20728     20730     20678     20728     20731     20729     20728     20730
     20729     20728     20731     20730     20728     20731     20728     20731     20732
     20728     20731     20733     20728     20731     20734     20732     20731     20733
     20732     20731     20734     20733     20731     20734     20731     20734     20735
     20731     20734     20736     20731     20734     20737     20735     20734     20736
     20735     20734     20737     20736     20734     20737     20734     20737     20738
     20734     20737     20739     20734     20737     20740     20738     20737     20739
     20738     20737     20740     20739     20737     20740     20737     20740     20741
     20737     20740     20742     20737     20740     20743     20741     20740     20742
     20741     20740     20743     20742     20740     20743     20740     20743     20744
     20740     20743     20745     20740     20743     20746     20744     20743     20745
     20744     20743     20746     20745     20743     20746     20743     20746     20747
     20743     20746     20748     20743     20746     20749     20747     20746     20748
     20747     20746     20749     20748     20746     20749     20746     20749     20750
     20746     20749     20751     20746     20749     20752     20750     20749     20751
     20750     20749     20752     20751     20749     20752     20749     20752     20753
     20749     20752     20754     20749     20752     20755     20753     20752     20754
     20753     20752     20755     20754     20752     20755     20752     20755     20756
     20752     20755     20757     20752     20755     20758     20756     20755     20757
     20756     20755     20758     20757     20755     20758     20755     20758     20759
     20755     20758     20760     20755     20758     20761     20759     20758     20760
     20759     20758     20761     20760     20758     20761     20758     20761     20762
     20758     20761     20763     20758     20761     20764     20762     20761     20763
     20762     20761     20764     20763     20761     20764     20761     20764     20765
     20761     20764     20766     20761     20764     20767     20765     20764     20766
     20765     20764     20767     20766     20764     20767     20764     20767     20768
     20764     20767     20769     20764     20767     20770     20768     20767     20769
     20768     20767     20770     20769     20767     20770     20772     20771     20775
     20772     20771     20779     20772     20771     20783     20775     20771     20779
     20775     20771     20783     20779     20771     20783     20771     20772     20773
     20771     20772     20774     20771     20772     20787     20773     20772     20774
     20773     20772     20787     20774     20772     20787     20771     20775     20776
     20771     20775     20777     20771     20775     20778     20776     20775     20777
     20776     20775     20778     20777     20775     20778     20771     20779     20780
     20771     20779     20781     20771     20779     20782     20780     20779     20781
     20780     20779     20782     20781     20779     20782     20771     20783     20784
     20771     20783     20785     20771     20783     20786     20784     20783     20785
     20784     20783     20786     20785     20783     20786     20772     20787     20788
     20772     20787     20789     20772     20787     20793     20788     20787     20789
     20788     20787     20793     20789     20787     20793     20791     20790     20792
     20791     20790     20793     20791     20790     20794     20792     20790     20793
     20792     20790     20794     20793     20790     20794     20787     20793     20790
     20790     20794     20795     20794     20795     20796     20794     20795     20797
     20794     20795     20798     20796     20795     20797     20796     20795     20798
     20797     20795     20798     20795     20798     20799     20795     20798     20800
     20795     20798     20806     20799     20798     20800     20799     20798     20806
     20800     20798     20806     20798     20800     20801     20800     20801     20802
     20800     20801     20803     20802     20801     20803     20801     20803     20804
     20801     20803     20805     20801     20803     20815     20804     20803     20805
     20804     20803     20815     20805     20803     20815     20798     20806     20807
     20798     20806     20808     20798     20806     20809     20807     20806     20808
     20807     20806     20809     20808     20806     20809     20806     20809     20810
     20809     20810     20811     20809     20810     20812     20811     20810     20812
     20810     20812     20813     20810     20812     20814     20810     20812     20862
     20813     20812     20814     20813     20812     20862     20814     20812     20862
     20803     20815     20816     20803     20815     20817     20803     20815     20818
     20816     20815     20817     20816     20815     20818     20817     20815     20818
     20815     20818     20819     20815     20818     20820     20815     20818     20821
     20819     20818     20820     20819     20818     20821     20820     20818     20821
     20818     20821     20822     20818     20821     20823     20818     20821     20824
     20822     20821     20823     20822     20821     20824     20823     20821     20824
     20821     20824     20825     20821     20824     20826     20821     20824     20827
     20825     20824     20826     20825     20824     20827     20826     20824     20827
     20824     20827     20828     20824     20827     20829     20824     20827     20830
     20828     20827     20829     20828     20827     20830     20829     20827     20830
     20827     20830     20831     20827     20830     20832     20827     20830     20833
     20831     20830     20832     20831     20830     20833     20832     20830     20833
     20830     20833     20834     20830     20833     20835     20834     20833     20835
     20833     20835     20836     20833     20835     20837     20836     20835     20837
     20835     20837     20838     20835     20837     20839     20835     20837     20840
     20838     20837     20839     20838     20837     20840     20839     20837     20840
     20837     20840     20841     20837     20840     20842     20837     20840     20843
     20841     20840     20842     20841     20840     20843     20842     20840     20843
     20840     20843     20844     20840     20843     20845     20840     20843     20846
     20844     20843     20845     20844     20843     20846     20845     20843     20846
     20843     20846     20847     20843     20846     20848     20843     20846     20849
     20847     20846     20848     20847     20846     20849     20848     20846     20849
     20846     20849     20850     20846     20849     20851     20846     20849     20852
     20850     20849     20851     20850     20849     20852     20851     20849     20852
     20849     20852     20853     20849     20852     20854     20849     20852     20855
     20853     20852     20854     20853     20852     20855     20854     20852     20855
     20852     20855     20856     20852     20855     20857     20852     20855     20858
     20856     20855     20857     20856     20855     20858     20857     20855     20858
     20855     20858     20859     20855     20858     20860     20855     20858     20861
     20859     20858     20860     20859     20858     20861     20860     20858     20861
     20812     20862     20863     20812     20862     20864     20812     20862     20865
     20863     20862     20864     20863     20862     20865     20864     20862     20865
     20862     20865     20866     20862     20865     20867     20862     20865     20868
     20866     20865     20867     20866     20865     20868     20867     20865     20868
     20865     20868     20869     20865     20868     20870     20865     20868     20871
     20869     20868     20870     20869     20868     20871     20870     20868     20871
     20868     20871     20872     20868     20871     20873     20868     20871     20874
     20872     20871     20873     20872     20871     20874     20873     20871     20874
     20871     20874     20875     20871     20874     20876     20871     20874     20877
     20875     20874     20876     20875     20874     20877     20876     20874     20877
     20874     20877     20878     20874     20877     20879     20874     20877     20880
     20878     20877     20879     20878     20877     20880     20879     20877     20880
     20877     20880     20881     20877     20880     20882     20877     20880     20883
     20881     20880     20882     20881     20880     20883     20882     20880     20883
     20880     20883     20884     20880     20883     20885     20880     20883     20886
     20884     20883     20885     20884     20883     20886     20885     20883     20886
     20883     20886     20887     20883     20886     20888     20883     20886     20889
     20887     20886     20888     20887     20886     20889     20888     20886     20889
     20886     20889     20890     20886     20889     20891     20886     20889     20892
     20890     20889     20891     20890     20889     20892     20891     20889     20892
     20889     20892     20893     20889     20892     20894     20889     20892     20895
     20893     20892     20894     20893     20892     20895     20894     20892     20895
     20892     20895     20896     20892     20895     20897     20892     20895     20898
     20896     20895     20897     20896     20895     20898     20897     20895     20898
     20895     20898     20899     20895     20898     20900     20895     20898     20901
     20899     20898     20900     20899     20898     20901     20900     20898     20901
     20898     20901     20902     20898     20901     20903     20898     20901     20904
     20902     20901     20903     20902     20901     20904     20903     20901     20904
     20906     20905     20909     20906     20905     20913     20906     20905     20917
     20909     20905     20913     20909     20905     20917     20913     20905     20917
     20905     20906     20907     20905     20906     20908     20905     20906     20921
     20907     20906     20908     20907     20906     20921     20908     20906     20921
     20905     20909     20910     20905     20909     20911     20905     20909     20912
     20910     20909     20911     20910     20909     20912     20911     20909     20912
     20905     20913     20914     20905     20913     20915     20905     20913     20916
     20914     20913     20915     20914     20913     20916     20915     20913     20916
     20905     20917     20918     20905     20917     20919     20905     20917     20920
     20918     20917     20919     20918     20917     20920     20919     20917     20920
     20906     20921     20922     20906     20921     20923     20906     20921     20927
     20922     20921     20923     20922     20921     20927     20923     20921     20927
     20925     20924     20926     20925     20924     20927     20925     20924     20928
     20926     20924     20927     20926     20924     20928     20927     20924     20928
     20921     20927     20924     20924     20928     20929     20928     20929     20930
     20928     20929     20931     20928     20929     20932     20930     20929     20931
     20930     20929     20932     20931     20929     20932     20929     20932     20933
     20929     20932     20934     20929     20932     20940     20933     20932     20934
     20933     20932     20940     20934     20932     20940     20932     20934     20935
     20934     20935     20936     20934     20935     20937     20936     20935     20937
     20935     20937     20938     20935     20937     20939     20935     20937     20949
     20938     20937     20939     20938     20937     20949     20939     20937     20949
     20932     20940     20941     20932     20940     20942     20932     20940     20943
     20941     20940     20942     20941     20940     20943     20942     20940     20943
     20940     20943     20944     20943     20944     20945     20943     20944     20946
     20945     20944     20946     20944     20946     20947     20944     20946     20948
     20944     20946     20996     20947     20946     20948     20947     20946     20996
     20948     20946     20996     20937     20949     20950     20937     20949     20951
     20937     20949     20952     20950     20949     20951     20950     20949     20952
     20951     20949     20952     20949     20952     20953     20949     20952     20954
     20949     20952     20955     20953     20952     20954     20953     20952     20955
     20954     20952     20955     20952     20955     20956     20952     20955     20957
     20952     20955     20958     20956     20955     20957     20956     20955     20958
     20957     20955     20958     20955     20958     20959     20955     20958     20960
     20955     20958     20961     20959     20958     20960     20959     20958     20961
     20960     20958     20961     20958     20961     20962     20958     20961     20963
     20958     20961     20964     20962     20961     20963     20962     20961     20964
     20963     20961     20964     20961     20964     20965     20961     20964     20966
     20961     20964     20967     20965     20964     20966     20965     20964     20967
     20966     20964     20967     20964     20967     20968     20964     20967     20969
     20968     20967     20969     20967     20969     20970     20967     20969     20971
     20970     20969     20971     20969     20971     20972     20969     20971     20973
     20969     20971     20974     20972     20971     20973     20972     20971     20974
     20973     20971     20974     20971     20974     20975     20971     20974     20976
     20971     20974     20977     20975     20974     20976     20975     20974     20977
     20976     20974     20977     20974     20977     20978     20974     20977     20979
     20974     20977     20980     20978     20977     20979     20978     20977     20980
     20979     20977     20980     20977     20980     20981     20977     20980     20982
     20977     20980     20983     20981     20980     20982     20981     20980     20983
     20982     20980     20983     20980     20983     20984     20980     20983     20985
     20980     20983     20986     20984     20983     20985     20984     20983     20986
     20985     20983     20986     20983     20986     20987     20983     20986     20988
     20983     20986     20989     20987     20986     20988     20987     20986     20989
     20988     20986     20989     20986     20989     20990     20986     20989     20991
     20986     20989     20992     20990     20989     20991     20990     20989     20992
     20991     20989     20992     20989     20992     20993     20989     20992     20994
     20989     20992     20995     20993     20992     20994     20993     20992     20995
     20994     20992     20995     20946     20996     20997     20946     20996     20998
     20946     20996     20999     20997     20996     20998     20997     20996     20999
     20998     20996     20999     20996     20999     21000     20996     20999     21001
     20996     20999     21002     21000     20999     21001     21000     20999     21002
     21001     20999     21002     20999     21002     21003     20999     21002     21004
     20999     21002     21005     21003     21002     21004     21003     21002     21005
     21004     21002     21005     21002     21005     21006     21002     21005     21007
     21002     21005     21008     21006     21005     21007     21006     21005     21008
     21007     21005     21008     21005     21008     21009     21005     21008     21010
     21005     21008     21011     21009     21008     21010     21009     21008     21011
     21010     21008     21011     21008     21011     21012     21008     21011     21013
     21008     21011     21014     21012     21011     21013     21012     21011     21014
     21013     21011     21014     21011     21014     21015     21011     21014     21016
     21011     21014     21017     21015     21014     21016     21015     21014     21017
     21016     21014     21017     21014     21017     21018     21014     21017     21019
     21014     21017     21020     21018     21017     21019     21018     21017     21020
     21019     21017     21020     21017     21020     21021     21017     21020     21022
     21017     21020     21023     21021     21020     21022     21021     21020     21023
     21022     21020     21023     21020     21023     21024     21020     21023     21025
     21020     21023     21026     21024     21023     21025     21024     21023     21026
     21025     21023     21026     21023     21026     21027     21023     21026     21028
     21023     21026     21029     21027     21026     21028     21027     21026     21029
     21028     21026     21029     21026     21029     21030     21026     21029     21031
     21026     21029     21032     21030     21029     21031     21030     21029     21032
     21031     21029     21032     21029     21032     21033     21029     21032     21034
     21029     21032     21035     21033     21032     21034     21033     21032     21035
     21034     21032     21035     21032     21035     21036     21032     21035     21037
     21032     21035     21038     21036     21035     21037     21036     21035     21038
     21037     21035     21038     21040     21039     21043     21040     21039     21047
     21040     21039     21051     21043     21039     21047     21043     21039     21051
     21047     21039     21051     21039     21040     21041     21039     21040     21042
     21039     21040     21055     21041     21040     21042     21041     21040     21055
     21042     21040     21055     21039     21043     21044     21039     21043     21045
     21039     21043     21046     21044     21043     21045     21044     21043     21046
     21045     21043     21046     21039     21047     21048     21039     21047     21049
     21039     21047     21050     21048     21047     21049     21048     21047     21050
     21049     21047     21050     21039     21051     21052     21039     21051     21053
     21039     21051     21054     21052     21051     21053     21052     21051     21054
     21053     21051     21054     21040     21055     21056     21040     21055     21057
     21040     21055     21061     21056     21055     21057     21056     21055     21061
     21057     21055     21061     21059     21058     21060     21059     21058     21061
     21059     21058     21062     21060     21058     21061     21060     21058     21062
     21061     21058     21062     21055     21061     21058     21058     21062     21063
     21062     21063     21064     21062     21063     21065     21062     21063     21066
     21064     21063     21065     21064     21063     21066     21065     21063     21066
     21063     21066     21067     21063     21066     21068     21063     21066     21074
     21067     21066     21068     21067     21066     21074     21068     21066     21074
     21066     21068     21069     21068     21069     21070     21068     21069     21071
     21070     21069     21071     21069     21071     21072     21069     21071     21073
     21069     21071     21083     21072     21071     21073     21072     21071     21083
     21073     21071     21083     21066     21074     21075     21066     21074     21076
     21066     21074     21077     21075     21074     21076     21075     21074     21077
     21076     21074     21077     21074     21077     21078     21077     21078     21079
     21077     21078     21080     21079     21078     21080     21078     21080     21081
     21078     21080     21082     21078     21080     21130     21081     21080     21082
     21081     21080     21130     21082     21080     21130     21071     21083     21084
     21071     21083     21085     21071     21083     21086     21084     21083     21085
     21084     21083     21086     21085     21083     21086     21083     21086     21087
     21083     21086     21088     21083     21086     21089     21087     21086     21088
     21087     21086     21089     21088     21086     21089     21086     21089     21090
     21086     21089     21091     21086     21089     21092     21090     21089     21091
     21090     21089     21092     21091     21089     21092     21089     21092     21093
     21089     21092     21094     21089     21092     21095     21093     21092     21094
     21093     21092     21095     21094     21092     21095     21092     21095     21096
     21092     21095     21097     21092     21095     21098     21096     21095     21097
     21096     21095     21098     21097     21095     21098     21095     21098     21099
     21095     21098     21100     21095     21098     21101     21099     21098     21100
     21099     21098     21101     21100     21098     21101     21098     21101     21102
     21098     21101     21103     21102     21101     21103     21101     21103     21104
     21101     21103     21105     21104     21103     21105     21103     21105     21106
     21103     21105     21107     21103     21105     21108     21106     21105     21107
     21106     21105     21108     21107     21105     21108     21105     21108     21109
     21105     21108     21110     21105     21108     21111     21109     21108     21110
     21109     21108     21111     21110     21108     21111     21108     21111     21112
     21108     21111     21113     21108     21111     21114     21112     21111     21113
     21112     21111     21114     21113     21111     21114     21111     21114     21115
     21111     21114     21116     21111     21114     21117     21115     21114     21116
     21115     21114     21117     21116     21114     21117     21114     21117     21118
     21114     21117     21119     21114     21117     21120     21118     21117     21119
     21118     21117     21120     21119     21117     21120     21117     21120     21121
     21117     21120     21122     21117     21120     21123     21121     21120     21122
     21121     21120     21123     21122     21120     21123     21120     21123     21124
     21120     21123     21125     21120     21123     21126     21124     21123     21125
     21124     21123     21126     21125     21123     21126     21123     21126     21127
     21123     21126     21128     21123     21126     21129     21127     21126     21128
     21127     21126     21129     21128     21126     21129     21080     21130     21131
     21080     21130     21132     21080     21130     21133     21131     21130     21132
     21131     21130     21133     21132     21130     21133     21130     21133     21134
     21130     21133     21135     21130     21133     21136     21134     21133     21135
     21134     21133     21136     21135     21133     21136     21133     21136     21137
     21133     21136     21138     21133     21136     21139     21137     21136     21138
     21137     21136     21139     21138     21136     21139     21136     21139     21140
     21136     21139     21141     21136     21139     21142     21140     21139     21141
     21140     21139     21142     21141     21139     21142     21139     21142     21143
     21139     21142     21144     21139     21142     21145     21143     21142     21144
     21143     21142     21145     21144     21142     21145     21142     21145     21146
     21142     21145     21147     21142     21145     21148     21146     21145     21147
     21146     21145     21148     21147     21145     21148     21145     21148     21149
     21145     21148     21150     21145     21148     21151     21149     21148     21150
     21149     21148     21151     21150     21148     21151     21148     21151     21152
     21148     21151     21153     21148     21151     21154     21152     21151     21153
     21152     21151     21154     21153     21151     21154     21151     21154     21155
     21151     21154     21156     21151     21154     21157     21155     21154     21156
     21155     21154     21157     21156     21154     21157     21154     21157     21158
     21154     21157     21159     21154     21157     21160     21158     21157     21159
     21158     21157     21160     21159     21157     21160     21157     21160     21161
     21157     21160     21162     21157     21160     21163     21161     21160     21162
     21161     21160     21163     21162     21160     21163     21160     21163     21164
     21160     21163     21165     21160     21163     21166     21164     21163     21165
     21164     21163     21166     21165     21163     21166     21163     21166     21167
     21163     21166     21168     21163     21166     21169     21167     21166     21168
     21167     21166     21169     21168     21166     21169     21166     21169     21170
     21166     21169     21171     21166     21169     21172     21170     21169     21171
     21170     21169     21172     21171     21169     21172     21174     21173     21177
     21174     21173     21181     21174     21173     21185     21177     21173     21181
     21177     21173     21185     21181     21173     21185     21173     21174     21175
     21173     21174     21176     21173     21174     21189     21175     21174     21176
     21175     21174     21189     21176     21174     21189     21173     21177     21178
     21173     21177     21179     21173     21177     21180     21178     21177     21179
     21178     21177     21180     21179     21177     21180     21173     21181     21182
     21173     21181     21183     21173     21181     21184     21182     21181     21183
     21182     21181     21184     21183     21181     21184     21173     21185     21186
     21173     21185     21187     21173     21185     21188     21186     21185     21187
     21186     21185     21188     21187     21185     21188     21174     21189     21190
     21174     21189     21191     21174     21189     21195     21190     21189     21191
     21190     21189     21195     21191     21189     21195     21193     21192     21194
     21193     21192     21195     21193     21192     21196     21194     21192     21195
     21194     21192     21196     21195     21192     21196     21189     21195     21192
     21192     21196     21197     21196     21197     21198     21196     21197     21199
     21196     21197     21200     21198     21197     21199     21198     21197     21200
     21199     21197     21200     21197     21200     21201     21197     21200     21202
     21197     21200     21208     21201     21200     21202     21201     21200     21208
     21202     21200     21208     21200     21202     21203     21202     21203     21204
     21202     21203     21205     21204     21203     21205     21203     21205     21206
     21203     21205     21207     21203     21205     21217     21206     21205     21207
     21206     21205     21217     21207     21205     21217     21200     21208     21209
     21200     21208     21210     21200     21208     21211     21209     21208     21210
     21209     21208     21211     21210     21208     21211     21208     21211     21212
     21211     21212     21213     21211     21212     21214     21213     21212     21214
     21212     21214     21215     21212     21214     21216     21212     21214     21264
     21215     21214     21216     21215     21214     21264     21216     21214     21264
     21205     21217     21218     21205     21217     21219     21205     21217     21220
     21218     21217     21219     21218     21217     21220     21219     21217     21220
     21217     21220     21221     21217     21220     21222     21217     21220     21223
     21221     21220     21222     21221     21220     21223     21222     21220     21223
     21220     21223     21224     21220     21223     21225     21220     21223     21226
     21224     21223     21225     21224     21223     21226     21225     21223     21226
     21223     21226     21227     21223     21226     21228     21223     21226     21229
     21227     21226     21228     21227     21226     21229     21228     21226     21229
     21226     21229     21230     21226     21229     21231     21226     21229     21232
     21230     21229     21231     21230     21229     21232     21231     21229     21232
     21229     21232     21233     21229     21232     21234     21229     21232     21235
     21233     21232     21234     21233     21232     21235     21234     21232     21235
     21232     21235     21236     21232     21235     21237     21236     21235     21237
     21235     21237     21238     21235     21237     21239     21238     21237     21239
     21237     21239     21240     21237     21239     21241     21237     21239     21242
     21240     21239     21241     21240     21239     21242     21241     21239     21242
     21239     21242     21243     21239     21242     21244     21239     21242     21245
     21243     21242     21244     21243     21242     21245     21244     21242     21245
     21242     21245     21246     21242     21245     21247     21242     21245     21248
     21246     21245     21247     21246     21245     21248     21247     21245     21248
     21245     21248     21249     21245     21248     21250     21245     21248     21251
     21249     21248     21250     21249     21248     21251     21250     21248     21251
     21248     21251     21252     21248     21251     21253     21248     21251     21254
     21252     21251     21253     21252     21251     21254     21253     21251     21254
     21251     21254     21255     21251     21254     21256     21251     21254     21257
     21255     21254     21256     21255     21254     21257     21256     21254     21257
     21254     21257     21258     21254     21257     21259     21254     21257     21260
     21258     21257     21259     21258     21257     21260     21259     21257     21260
     21257     21260     21261     21257     21260     21262     21257     21260     21263
     21261     21260     21262     21261     21260     21263     21262     21260     21263
     21214     21264     21265     21214     21264     21266     21214     21264     21267
     21265     21264     21266     21265     21264     21267     21266     21264     21267
     21264     21267     21268     21264     21267     21269     21264     21267     21270
     21268     21267     21269     21268     21267     21270     21269     21267     21270
     21267     21270     21271     21267     21270     21272     21267     21270     21273
     21271     21270     21272     21271     21270     21273     21272     21270     21273
     21270     21273     21274     21270     21273     21275     21270     21273     21276
     21274     21273     21275     21274     21273     21276     21275     21273     21276
     21273     21276     21277     21273     21276     21278     21273     21276     21279
     21277     21276     21278     21277     21276     21279     21278     21276     21279
     21276     21279     21280     21276     21279     21281     21276     21279     21282
     21280     21279     21281     21280     21279     21282     21281     21279     21282
     21279     21282     21283     21279     21282     21284     21279     21282     21285
     21283     21282     21284     21283     21282     21285     21284     21282     21285
     21282     21285     21286     21282     21285     21287     21282     21285     21288
     21286     21285     21287     21286     21285     21288     21287     21285     21288
     21285     21288     21289     21285     21288     21290     21285     21288     21291
     21289     21288     21290     21289     21288     21291     21290     21288     21291
     21288     21291     21292     21288     21291     21293     21288     21291     21294
     21292     21291     21293     21292     21291     21294     21293     21291     21294
     21291     21294     21295     21291     21294     21296     21291     21294     21297
     21295     21294     21296     21295     21294     21297     21296     21294     21297
     21294     21297     21298     21294     21297     21299     21294     21297     21300
     21298     21297     21299     21298     21297     21300     21299     21297     21300
     21297     21300     21301     21297     21300     21302     21297     21300     21303
     21301     21300     21302     21301     21300     21303     21302     21300     21303
     21300     21303     21304     21300     21303     21305     21300     21303     21306
     21304     21303     21305     21304     21303     21306     21305     21303     21306
     21308     21307     21311     21308     21307     21315     21308     21307     21319
     21311     21307     21315     21311     21307     21319     21315     21307     21319
     21307     21308     21309     21307     21308     21310     21307     21308     21323
     21309     21308     21310     21309     21308     21323     21310     21308     21323
     21307     21311     21312     21307     21311     21313     21307     21311     21314
     21312     21311     21313     21312     21311     21314     21313     21311     21314
     21307     21315     21316     21307     21315     21317     21307     21315     21318
     21316     21315     21317     21316     21315     21318     21317     21315     21318
     21307     21319     21320     21307     21319     21321     21307     21319     21322
     21320     21319     21321     21320     21319     21322     21321     21319     21322
     21308     21323     21324     21308     21323     21325     21308     21323     21329
     21324     21323     21325     21324     21323     21329     21325     21323     21329
     21327     21326     21328     21327     21326     21329     21327     21326     21330
     21328     21326     21329     21328     21326     21330     21329     21326     21330
     21323     21329     21326     21326     21330     21331     21330     21331     21332
     21330     21331     21333     21330     21331     21334     21332     21331     21333
     21332     21331     21334     21333     21331     21334     21331     21334     21335
     21331     21334     21336     21331     21334     21342     21335     21334     21336
     21335     21334     21342     21336     21334     21342     21334     21336     21337
     21336     21337     21338     21336     21337     21339     21338     21337     21339
     21337     21339     21340     21337     21339     21341     21337     21339     21351
     21340     21339     21341     21340     21339     21351     21341     21339     21351
     21334     21342     21343     21334     21342     21344     21334     21342     21345
     21343     21342     21344     21343     21342     21345     21344     21342     21345
     21342     21345     21346     21345     21346     21347     21345     21346     21348
     21347     21346     21348     21346     21348     21349     21346     21348     21350
     21346     21348     21398     21349     21348     21350     21349     21348     21398
     21350     21348     21398     21339     21351     21352     21339     21351     21353
     21339     21351     21354     21352     21351     21353     21352     21351     21354
     21353     21351     21354     21351     21354     21355     21351     21354     21356
     21351     21354     21357     21355     21354     21356     21355     21354     21357
     21356     21354     21357     21354     21357     21358     21354     21357     21359
     21354     21357     21360     21358     21357     21359     21358     21357     21360
     21359     21357     21360     21357     21360     21361     21357     21360     21362
     21357     21360     21363     21361     21360     21362     21361     21360     21363
     21362     21360     21363     21360     21363     21364     21360     21363     21365
     21360     21363     21366     21364     21363     21365     21364     21363     21366
     21365     21363     21366     21363     21366     21367     21363     21366     21368
     21363     21366     21369     21367     21366     21368     21367     21366     21369
     21368     21366     21369     21366     21369     21370     21366     21369     21371
     21370     21369     21371     21369     21371     21372     21369     21371     21373
     21372     21371     21373     21371     21373     21374     21371     21373     21375
     21371     21373     21376     21374     21373     21375     21374     21373     21376
     21375     21373     21376     21373     21376     21377     21373     21376     21378
     21373     21376     21379     21377     21376     21378     21377     21376     21379
     21378     21376     21379     21376     21379     21380     21376     21379     21381
     21376     21379     21382     21380     21379     21381     21380     21379     21382
     21381     21379     21382     21379     21382     21383     21379     21382     21384
     21379     21382     21385     21383     21382     21384     21383     21382     21385
     21384     21382     21385     21382     21385     21386     21382     21385     21387
     21382     21385     21388     21386     21385     21387     21386     21385     21388
     21387     21385     21388     21385     21388     21389     21385     21388     21390
     21385     21388     21391     21389     21388     21390     21389     21388     21391
     21390     21388     21391     21388     21391     21392     21388     21391     21393
     21388     21391     21394     21392     21391     21393     21392     21391     21394
     21393     21391     21394     21391     21394     21395     21391     21394     21396
     21391     21394     21397     21395     21394     21396     21395     21394     21397
     21396     21394     21397     21348     21398     21399     21348     21398     21400
     21348     21398     21401     21399     21398     21400     21399     21398     21401
     21400     21398     21401     21398     21401     21402     21398     21401     21403
     21398     21401     21404     21402     21401     21403     21402     21401     21404
     21403     21401     21404     21401     21404     21405     21401     21404     21406
     21401     21404     21407     21405     21404     21406     21405     21404     21407
     21406     21404     21407     21404     21407     21408     21404     21407     21409
     21404     21407     21410     21408     21407     21409     21408     21407     21410
     21409     21407     21410     21407     21410     21411     21407     21410     21412
     21407     21410     21413     21411     21410     21412     21411     21410     21413
     21412     21410     21413     21410     21413     21414     21410     21413     21415
     21410     21413     21416     21414     21413     21415     21414     21413     21416
     21415     21413     21416     21413     21416     21417     21413     21416     21418
     21413     21416     21419     21417     21416     21418     21417     21416     21419
     21418     21416     21419     21416     21419     21420     21416     21419     21421
     21416     21419     21422     21420     21419     21421     21420     21419     21422
     21421     21419     21422     21419     21422     21423     21419     21422     21424
     21419     21422     21425     21423     21422     21424     21423     21422     21425
     21424     21422     21425     21422     21425     21426     21422     21425     21427
     21422     21425     21428     21426     21425     21427     21426     21425     21428
     21427     21425     21428     21425     21428     21429     21425     21428     21430
     21425     21428     21431     21429     21428     21430     21429     21428     21431
     21430     21428     21431     21428     21431     21432     21428     21431     21433
     21428     21431     21434     21432     21431     21433     21432     21431     21434
     21433     21431     21434     21431     21434     21435     21431     21434     21436
     21431     21434     21437     21435     21434     21436     21435     21434     21437
     21436     21434     21437     21434     21437     21438     21434     21437     21439
     21434     21437     21440     21438     21437     21439     21438     21437     21440
     21439     21437     21440     21442     21441     21445     21442     21441     21449
     21442     21441     21453     21445     21441     21449     21445     21441     21453
     21449     21441     21453     21441     21442     21443     21441     21442     21444
     21441     21442     21457     21443     21442     21444     21443     21442     21457
     21444     21442     21457     21441     21445     21446     21441     21445     21447
     21441     21445     21448     21446     21445     21447     21446     21445     21448
     21447     21445     21448     21441     21449     21450     21441     21449     21451
     21441     21449     21452     21450     21449     21451     21450     21449     21452
     21451     21449     21452     21441     21453     21454     21441     21453     21455
     21441     21453     21456     21454     21453     21455     21454     21453     21456
     21455     21453     21456     21442     21457     21458     21442     21457     21459
     21442     21457     21463     21458     21457     21459     21458     21457     21463
     21459     21457     21463     21461     21460     21462     21461     21460     21463
     21461     21460     21464     21462     21460     21463     21462     21460     21464
     21463     21460     21464     21457     21463     21460     21460     21464     21465
     21464     21465     21466     21464     21465     21467     21464     21465     21468
     21466     21465     21467     21466     21465     21468     21467     21465     21468
     21465     21468     21469     21465     21468     21470     21465     21468     21476
     21469     21468     21470     21469     21468     21476     21470     21468     21476
     21468     21470     21471     21470     21471     21472     21470     21471     21473
     21472     21471     21473     21471     21473     21474     21471     21473     21475
     21471     21473     21485     21474     21473     21475     21474     21473     21485
     21475     21473     21485     21468     21476     21477     21468     21476     21478
     21468     21476     21479     21477     21476     21478     21477     21476     21479
     21478     21476     21479     21476     21479     21480     21479     21480     21481
     21479     21480     21482     21481     21480     21482     21480     21482     21483
     21480     21482     21484     21480     21482     21532     21483     21482     21484
     21483     21482     21532     21484     21482     21532     21473     21485     21486
     21473     21485     21487     21473     21485     21488     21486     21485     21487
     21486     21485     21488     21487     21485     21488     21485     21488     21489
     21485     21488     21490     21485     21488     21491     21489     21488     21490
     21489     21488     21491     21490     21488     21491     21488     21491     21492
     21488     21491     21493     21488     21491     21494     21492     21491     21493
     21492     21491     21494     21493     21491     21494     21491     21494     21495
     21491     21494     21496     21491     21494     21497     21495     21494     21496
     21495     21494     21497     21496     21494     21497     21494     21497     21498
     21494     21497     21499     21494     21497     21500     21498     21497     21499
     21498     21497     21500     21499     21497     21500     21497     21500     21501
     21497     21500     21502     21497     21500     21503     21501     21500     21502
     21501     21500     21503     21502     21500     21503     21500     21503     21504
     21500     21503     21505     21504     21503     21505     21503     21505     21506
     21503     21505     21507     21506     21505     21507     21505     21507     21508
     21505     21507     21509     21505     21507     21510     21508     21507     21509
     21508     21507     21510     21509     21507     21510     21507     21510     21511
     21507     21510     21512     21507     21510     21513     21511     21510     21512
     21511     21510     21513     21512     21510     21513     21510     21513     21514
     21510     21513     21515     21510     21513     21516     21514     21513     21515
     21514     21513     21516     21515     21513     21516     21513     21516     21517
     21513     21516     21518     21513     21516     21519     21517     21516     21518
     21517     21516     21519     21518     21516     21519     21516     21519     21520
     21516     21519     21521     21516     21519     21522     21520     21519     21521
     21520     21519     21522     21521     21519     21522     21519     21522     21523
     21519     21522     21524     21519     21522     21525     21523     21522     21524
     21523     21522     21525     21524     21522     21525     21522     21525     21526
     21522     21525     21527     21522     21525     21528     21526     21525     21527
     21526     21525     21528     21527     21525     21528     21525     21528     21529
     21525     21528     21530     21525     21528     21531     21529     21528     21530
     21529     21528     21531     21530     21528     21531     21482     21532     21533
     21482     21532     21534     21482     21532     21535     21533     21532     21534
     21533     21532     21535     21534     21532     21535     21532     21535     21536
     21532     21535     21537     21532     21535     21538     21536     21535     21537
     21536     21535     21538     21537     21535     21538     21535     21538     21539
     21535     21538     21540     21535     21538     21541     21539     21538     21540
     21539     21538     21541     21540     21538     21541     21538     21541     21542
     21538     21541     21543     21538     21541     21544     21542     21541     21543
     21542     21541     21544     21543     21541     21544     21541     21544     21545
     21541     21544     21546     21541     21544     21547     21545     21544     21546
     21545     21544     21547     21546     21544     21547     21544     21547     21548
     21544     21547     21549     21544     21547     21550     21548     21547     21549
     21548     21547     21550     21549     21547     21550     21547     21550     21551
     21547     21550     21552     21547     21550     21553     21551     21550     21552
     21551     21550     21553     21552     21550     21553     21550     21553     21554
     21550     21553     21555     21550     21553     21556     21554     21553     21555
     21554     21553     21556     21555     21553     21556     21553     21556     21557
     21553     21556     21558     21553     21556     21559     21557     21556     21558
     21557     21556     21559     21558     21556     21559     21556     21559     21560
     21556     21559     21561     21556     21559     21562     21560     21559     21561
     21560     21559     21562     21561     21559     21562     21559     21562     21563
     21559     21562     21564     21559     21562     21565     21563     21562     21564
     21563     21562     21565     21564     21562     21565     21562     21565     21566
     21562     21565     21567     21562     21565     21568     21566     21565     21567
     21566     21565     21568     21567     21565     21568     21565     21568     21569
     21565     21568     21570     21565     21568     21571     21569     21568     21570
     21569     21568     21571     21570     21568     21571     21568     21571     21572
     21568     21571     21573     21568     21571     21574     21572     21571     21573
     21572     21571     21574     21573     21571     21574     21576     21575     21579
     21576     21575     21583     21576     21575     21587     21579     21575     21583
     21579     21575     21587     21583     21575     21587     21575     21576     21577
     21575     21576     21578     21575     21576     21591     21577     21576     21578
     21577     21576     21591     21578     21576     21591     21575     21579     21580
     21575     21579     21581     21575     21579     21582     21580     21579     21581
     21580     21579     21582     21581     21579     21582     21575     21583     21584
     21575     21583     21585     21575     21583     21586     21584     21583     21585
     21584     21583     21586     21585     21583     21586     21575     21587     21588
     21575     21587     21589     21575     21587     21590     21588     21587     21589
     21588     21587     21590     21589     21587     21590     21576     21591     21592
     21576     21591     21593     21576     21591     21597     21592     21591     21593
     21592     21591     21597     21593     21591     21597     21595     21594     21596
     21595     21594     21597     21595     21594     21598     21596     21594     21597
     21596     21594     21598     21597     21594     21598     21591     21597     21594
     21594     21598     21599     21598     21599     21600     21598     21599     21601
     21598     21599     21602     21600     21599     21601     21600     21599     21602
     21601     21599     21602     21599     21602     21603     21599     21602     21604
     21599     21602     21610     21603     21602     21604     21603     21602     21610
     21604     21602     21610     21602     21604     21605     21604     21605     21606
     21604     21605     21607     21606     21605     21607     21605     21607     21608
     21605     21607     21609     21605     21607     21619     21608     21607     21609
     21608     21607     21619     21609     21607     21619     21602     21610     21611
     21602     21610     21612     21602     21610     21613     21611     21610     21612
     21611     21610     21613     21612     21610     21613     21610     21613     21614
     21613     21614     21615     21613     21614     21616     21615     21614     21616
     21614     21616     21617     21614     21616     21618     21614     21616     21666
     21617     21616     21618     21617     21616     21666     21618     21616     21666
     21607     21619     21620     21607     21619     21621     21607     21619     21622
     21620     21619     21621     21620     21619     21622     21621     21619     21622
     21619     21622     21623     21619     21622     21624     21619     21622     21625
     21623     21622     21624     21623     21622     21625     21624     21622     21625
     21622     21625     21626     21622     21625     21627     21622     21625     21628
     21626     21625     21627     21626     21625     21628     21627     21625     21628
     21625     21628     21629     21625     21628     21630     21625     21628     21631
     21629     21628     21630     21629     21628     21631     21630     21628     21631
     21628     21631     21632     21628     21631     21633     21628     21631     21634
     21632     21631     21633     21632     21631     21634     21633     21631     21634
     21631     21634     21635     21631     21634     21636     21631     21634     21637
     21635     21634     21636     21635     21634     21637     21636     21634     21637
     21634     21637     21638     21634     21637     21639     21638     21637     21639
     21637     21639     21640     21637     21639     21641     21640     21639     21641
     21639     21641     21642     21639     21641     21643     21639     21641     21644
     21642     21641     21643     21642     21641     21644     21643     21641     21644
     21641     21644     21645     21641     21644     21646     21641     21644     21647
     21645     21644     21646     21645     21644     21647     21646     21644     21647
     21644     21647     21648     21644     21647     21649     21644     21647     21650
     21648     21647     21649     21648     21647     21650     21649     21647     21650
     21647     21650     21651     21647     21650     21652     21647     21650     21653
     21651     21650     21652     21651     21650     21653     21652     21650     21653
     21650     21653     21654     21650     21653     21655     21650     21653     21656
     21654     21653     21655     21654     21653     21656     21655     21653     21656
     21653     21656     21657     21653     21656     21658     21653     21656     21659
     21657     21656     21658     21657     21656     21659     21658     21656     21659
     21656     21659     21660     21656     21659     21661     21656     21659     21662
     21660     21659     21661     21660     21659     21662     21661     21659     21662
     21659     21662     21663     21659     21662     21664     21659     21662     21665
     21663     21662     21664     21663     21662     21665     21664     21662     21665
     21616     21666     21667     21616     21666     21668     21616     21666     21669
     21667     21666     21668     21667     21666     21669     21668     21666     21669
     21666     21669     21670     21666     21669     21671     21666     21669     21672
     21670     21669     21671     21670     21669     21672     21671     21669     21672
     21669     21672     21673     21669     21672     21674     21669     21672     21675
     21673     21672     21674     21673     21672     21675     21674     21672     21675
     21672     21675     21676     21672     21675     21677     21672     21675     21678
     21676     21675     21677     21676     21675     21678     21677     21675     21678
     21675     21678     21679     21675     21678     21680     21675     21678     21681
     21679     21678     21680     21679     21678     21681     21680     21678     21681
     21678     21681     21682     21678     21681     21683     21678     21681     21684
     21682     21681     21683     21682     21681     21684     21683     21681     21684
     21681     21684     21685     21681     21684     21686     21681     21684     21687
     21685     21684     21686     21685     21684     21687     21686     21684     21687
     21684     21687     21688     21684     21687     21689     21684     21687     21690
     21688     21687     21689     21688     21687     21690     21689     21687     21690
     21687     21690     21691     21687     21690     21692     21687     21690     21693
     21691     21690     21692     21691     21690     21693     21692     21690     21693
     21690     21693     21694     21690     21693     21695     21690     21693     21696
     21694     21693     21695     21694     21693     21696     21695     21693     21696
     21693     21696     21697     21693     21696     21698     21693     21696     21699
     21697     21696     21698     21697     21696     21699     21698     21696     21699
     21696     21699     21700     21696     21699     21701     21696     21699     21702
     21700     21699     21701     21700     21699     21702     21701     21699     21702
     21699     21702     21703     21699     21702     21704     21699     21702     21705
     21703     21702     21704     21703     21702     21705     21704     21702     21705
     21702     21705     21706     21702     21705     21707     21702     21705     21708
     21706     21705     21707     21706     21705     21708     21707     21705     21708
     21710     21709     21713     21710     21709     21717     21710     21709     21721
     21713     21709     21717     21713     21709     21721     21717     21709     21721
     21709     21710     21711     21709     21710     21712     21709     21710     21725
     21711     21710     21712     21711     21710     21725     21712     21710     21725
     21709     21713     21714     21709     21713     21715     21709     21713     21716
     21714     21713     21715     21714     21713     21716     21715     21713     21716
     21709     21717     21718     21709     21717     21719     21709     21717     21720
     21718     21717     21719     21718     21717     21720     21719     21717     21720
     21709     21721     21722     21709     21721     21723     21709     21721     21724
     21722     21721     21723     21722     21721     21724     21723     21721     21724
     21710     21725     21726     21710     21725     21727     21710     21725     21731
     21726     21725     21727     21726     21725     21731     21727     21725     21731
     21729     21728     21730     21729     21728     21731     21729     21728     21732
     21730     21728     21731     21730     21728     21732     21731     21728     21732
     21725     21731     21728     21728     21732     21733     21732     21733     21734
     21732     21733     21735     21732     21733     21736     21734     21733     21735
     21734     21733     21736     21735     21733     21736     21733     21736     21737
     21733     21736     21738     21733     21736     21744     21737     21736     21738
     21737     21736     21744     21738     21736     21744     21736     21738     21739
     21738     21739     21740     21738     21739     21741     21740     21739     21741
     21739     21741     21742     21739     21741     21743     21739     21741     21753
     21742     21741     21743     21742     21741     21753     21743     21741     21753
     21736     21744     21745     21736     21744     21746     21736     21744     21747
     21745     21744     21746     21745     21744     21747     21746     21744     21747
     21744     21747     21748     21747     21748     21749     21747     21748     21750
     21749     21748     21750     21748     21750     21751     21748     21750     21752
     21748     21750     21800     21751     21750     21752     21751     21750     21800
     21752     21750     21800     21741     21753     21754     21741     21753     21755
     21741     21753     21756     21754     21753     21755     21754     21753     21756
     21755     21753     21756     21753     21756     21757     21753     21756     21758
     21753     21756     21759     21757     21756     21758     21757     21756     21759
     21758     21756     21759     21756     21759     21760     21756     21759     21761
     21756     21759     21762     21760     21759     21761     21760     21759     21762
     21761     21759     21762     21759     21762     21763     21759     21762     21764
     21759     21762     21765     21763     21762     21764     21763     21762     21765
     21764     21762     21765     21762     21765     21766     21762     21765     21767
     21762     21765     21768     21766     21765     21767     21766     21765     21768
     21767     21765     21768     21765     21768     21769     21765     21768     21770
     21765     21768     21771     21769     21768     21770     21769     21768     21771
     21770     21768     21771     21768     21771     21772     21768     21771     21773
     21772     21771     21773     21771     21773     21774     21771     21773     21775
     21774     21773     21775     21773     21775     21776     21773     21775     21777
     21773     21775     21778     21776     21775     21777     21776     21775     21778
     21777     21775     21778     21775     21778     21779     21775     21778     21780
     21775     21778     21781     21779     21778     21780     21779     21778     21781
     21780     21778     21781     21778     21781     21782     21778     21781     21783
     21778     21781     21784     21782     21781     21783     21782     21781     21784
     21783     21781     21784     21781     21784     21785     21781     21784     21786
     21781     21784     21787     21785     21784     21786     21785     21784     21787
     21786     21784     21787     21784     21787     21788     21784     21787     21789
     21784     21787     21790     21788     21787     21789     21788     21787     21790
     21789     21787     21790     21787     21790     21791     21787     21790     21792
     21787     21790     21793     21791     21790     21792     21791     21790     21793
     21792     21790     21793     21790     21793     21794     21790     21793     21795
     21790     21793     21796     21794     21793     21795     21794     21793     21796
     21795     21793     21796     21793     21796     21797     21793     21796     21798
     21793     21796     21799     21797     21796     21798     21797     21796     21799
     21798     21796     21799     21750     21800     21801     21750     21800     21802
     21750     21800     21803     21801     21800     21802     21801     21800     21803
     21802     21800     21803     21800     21803     21804     21800     21803     21805
     21800     21803     21806     21804     21803     21805     21804     21803     21806
     21805     21803     21806     21803     21806     21807     21803     21806     21808
     21803     21806     21809     21807     21806     21808     21807     21806     21809
     21808     21806     21809     21806     21809     21810     21806     21809     21811
     21806     21809     21812     21810     21809     21811     21810     21809     21812
     21811     21809     21812     21809     21812     21813     21809     21812     21814
     21809     21812     21815     21813     21812     21814     21813     21812     21815
     21814     21812     21815     21812     21815     21816     21812     21815     21817
     21812     21815     21818     21816     21815     21817     21816     21815     21818
     21817     21815     21818     21815     21818     21819     21815     21818     21820
     21815     21818     21821     21819     21818     21820     21819     21818     21821
     21820     21818     21821     21818     21821     21822     21818     21821     21823
     21818     21821     21824     21822     21821     21823     21822     21821     21824
     21823     21821     21824     21821     21824     21825     21821     21824     21826
     21821     21824     21827     21825     21824     21826     21825     21824     21827
     21826     21824     21827     21824     21827     21828     21824     21827     21829
     21824     21827     21830     21828     21827     21829     21828     21827     21830
     21829     21827     21830     21827     21830     21831     21827     21830     21832
     21827     21830     21833     21831     21830     21832     21831     21830     21833
     21832     21830     21833     21830     21833     21834     21830     21833     21835
     21830     21833     21836     21834     21833     21835     21834     21833     21836
     21835     21833     21836     21833     21836     21837     21833     21836     21838
     21833     21836     21839     21837     21836     21838     21837     21836     21839
     21838     21836     21839     21836     21839     21840     21836     21839     21841
     21836     21839     21842     21840     21839     21841     21840     21839     21842
     21841     21839     21842     21844     21843     21847     21844     21843     21851
     21844     21843     21855     21847     21843     21851     21847     21843     21855
     21851     21843     21855     21843     21844     21845     21843     21844     21846
     21843     21844     21859     21845     21844     21846     21845     21844     21859
     21846     21844     21859     21843     21847     21848     21843     21847     21849
     21843     21847     21850     21848     21847     21849     21848     21847     21850
     21849     21847     21850     21843     21851     21852     21843     21851     21853
     21843     21851     21854     21852     21851     21853     21852     21851     21854
     21853     21851     21854     21843     21855     21856     21843     21855     21857
     21843     21855     21858     21856     21855     21857     21856     21855     21858
     21857     21855     21858     21844     21859     21860     21844     21859     21861
     21844     21859     21865     21860     21859     21861     21860     21859     21865
     21861     21859     21865     21863     21862     21864     21863     21862     21865
     21863     21862     21866     21864     21862     21865     21864     21862     21866
     21865     21862     21866     21859     21865     21862     21862     21866     21867
     21866     21867     21868     21866     21867     21869     21866     21867     21870
     21868     21867     21869     21868     21867     21870     21869     21867     21870
     21867     21870     21871     21867     21870     21872     21867     21870     21878
     21871     21870     21872     21871     21870     21878     21872     21870     21878
     21870     21872     21873     21872     21873     21874     21872     21873     21875
     21874     21873     21875     21873     21875     21876     21873     21875     21877
     21873     21875     21887     21876     21875     21877     21876     21875     21887
     21877     21875     21887     21870     21878     21879     21870     21878     21880
     21870     21878     21881     21879     21878     21880     21879     21878     21881
     21880     21878     21881     21878     21881     21882     21881     21882     21883
     21881     21882     21884     21883     21882     21884     21882     21884     21885
     21882     21884     21886     21882     21884     21934     21885     21884     21886
     21885     21884     21934     21886     21884     21934     21875     21887     21888
     21875     21887     21889     21875     21887     21890     21888     21887     21889
     21888     21887     21890     21889     21887     21890     21887     21890     21891
     21887     21890     21892     21887     21890     21893     21891     21890     21892
     21891     21890     21893     21892     21890     21893     21890     21893     21894
     21890     21893     21895     21890     21893     21896     21894     21893     21895
     21894     21893     21896     21895     21893     21896     21893     21896     21897
     21893     21896     21898     21893     21896     21899     21897     21896     21898
     21897     21896     21899     21898     21896     21899     21896     21899     21900
     21896     21899     21901     21896     21899     21902     21900     21899     21901
     21900     21899     21902     21901     21899     21902     21899     21902     21903
     21899     21902     21904     21899     21902     21905     21903     21902     21904
     21903     21902     21905     21904     21902     21905     21902     21905     21906
     21902     21905     21907     21906     21905     21907     21905     21907     21908
     21905     21907     21909     21908     21907     21909     21907     21909     21910
     21907     21909     21911     21907     21909     21912     21910     21909     21911
     21910     21909     21912     21911     21909     21912     21909     21912     21913
     21909     21912     21914     21909     21912     21915     21913     21912     21914
     21913     21912     21915     21914     21912     21915     21912     21915     21916
     21912     21915     21917     21912     21915     21918     21916     21915     21917
     21916     21915     21918     21917     21915     21918     21915     21918     21919
     21915     21918     21920     21915     21918     21921     21919     21918     21920
     21919     21918     21921     21920     21918     21921     21918     21921     21922
     21918     21921     21923     21918     21921     21924     21922     21921     21923
     21922     21921     21924     21923     21921     21924     21921     21924     21925
     21921     21924     21926     21921     21924     21927     21925     21924     21926
     21925     21924     21927     21926     21924     21927     21924     21927     21928
     21924     21927     21929     21924     21927     21930     21928     21927     21929
     21928     21927     21930     21929     21927     21930     21927     21930     21931
     21927     21930     21932     21927     21930     21933     21931     21930     21932
     21931     21930     21933     21932     21930     21933     21884     21934     21935
     21884     21934     21936     21884     21934     21937     21935     21934     21936
     21935     21934     21937     21936     21934     21937     21934     21937     21938
     21934     21937     21939     21934     21937     21940     21938     21937     21939
     21938     21937     21940     21939     21937     21940     21937     21940     21941
     21937     21940     21942     21937     21940     21943     21941     21940     21942
     21941     21940     21943     21942     21940     21943     21940     21943     21944
     21940     21943     21945     21940     21943     21946     21944     21943     21945
     21944     21943     21946     21945     21943     21946     21943     21946     21947
     21943     21946     21948     21943     21946     21949     21947     21946     21948
     21947     21946     21949     21948     21946     21949     21946     21949     21950
     21946     21949     21951     21946     21949     21952     21950     21949     21951
     21950     21949     21952     21951     21949     21952     21949     21952     21953
     21949     21952     21954     21949     21952     21955     21953     21952     21954
     21953     21952     21955     21954     21952     21955     21952     21955     21956
     21952     21955     21957     21952     21955     21958     21956     21955     21957
     21956     21955     21958     21957     21955     21958     21955     21958     21959
     21955     21958     21960     21955     21958     21961     21959     21958     21960
     21959     21958     21961     21960     21958     21961     21958     21961     21962
     21958     21961     21963     21958     21961     21964     21962     21961     21963
     21962     21961     21964     21963     21961     21964     21961     21964     21965
     21961     21964     21966     21961     21964     21967     21965     21964     21966
     21965     21964     21967     21966     21964     21967     21964     21967     21968
     21964     21967     21969     21964     21967     21970     21968     21967     21969
     21968     21967     21970     21969     21967     21970     21967     21970     21971
     21967     21970     21972     21967     21970     21973     21971     21970     21972
     21971     21970     21973     21972     21970     21973     21970     21973     21974
     21970     21973     21975     21970     21973     21976     21974     21973     21975
     21974     21973     21976     21975     21973     21976     21978     21977     21981
     21978     21977     21985     21978     21977     21989     21981     21977     21985
     21981     21977     21989     21985     21977     21989     21977     21978     21979
     21977     21978     21980     21977     21978     21993     21979     21978     21980
     21979     21978     21993     21980     21978     21993     21977     21981     21982
     21977     21981     21983     21977     21981     21984     21982     21981     21983
     21982     21981     21984     21983     21981     21984     21977     21985     21986
     21977     21985     21987     21977     21985     21988     21986     21985     21987
     21986     21985     21988     21987     21985     21988     21977     21989     21990
     21977     21989     21991     21977     21989     21992     21990     21989     21991
     21990     21989     21992     21991     21989     21992     21978     21993     21994
     21978     21993     21995     21978     21993     21999     21994     21993     21995
     21994     21993     21999     21995     21993     21999     21997     21996     21998
     21997     21996     21999     21997     21996     22000     21998     21996     21999
     21998     21996     22000     21999     21996     22000     21993     21999     21996
     21996     22000     22001     22000     22001     22002     22000     22001     22003
     22000     22001     22004     22002     22001     22003     22002     22001     22004
     22003     22001     22004     22001     22004     22005     22001     22004     22006
     22001     22004     22012     22005     22004     22006     22005     22004     22012
     22006     22004     22012     22004     22006     22007     22006     22007     22008
     22006     22007     22009     22008     22007     22009     22007     22009     22010
     22007     22009     22011     22007     22009     22021     22010     22009     22011
     22010     22009     22021     22011     22009     22021     22004     22012     22013
     22004     22012     22014     22004     22012     22015     22013     22012     22014
     22013     22012     22015     22014     22012     22015     22012     22015     22016
     22015     22016     22017     22015     22016     22018     22017     22016     22018
     22016     22018     22019     22016     22018     22020     22016     22018     22068
     22019     22018     22020     22019     22018     22068     22020     22018     22068
     22009     22021     22022     22009     22021     22023     22009     22021     22024
     22022     22021     22023     22022     22021     22024     22023     22021     22024
     22021     22024     22025     22021     22024     22026     22021     22024     22027
     22025     22024     22026     22025     22024     22027     22026     22024     22027
     22024     22027     22028     22024     22027     22029     22024     22027     22030
     22028     22027     22029     22028     22027     22030     22029     22027     22030
     22027     22030     22031     22027     22030     22032     22027     22030     22033
     22031     22030     22032     22031     22030     22033     22032     22030     22033
     22030     22033     22034     22030     22033     22035     22030     22033     22036
     22034     22033     22035     22034     22033     22036     22035     22033     22036
     22033     22036     22037     22033     22036     22038     22033     22036     22039
     22037     22036     22038     22037     22036     22039     22038     22036     22039
     22036     22039     22040     22036     22039     22041     22040     22039     22041
     22039     22041     22042     22039     22041     22043     22042     22041     22043
     22041     22043     22044     22041     22043     22045     22041     22043     22046
     22044     22043     22045     22044     22043     22046     22045     22043     22046
     22043     22046     22047     22043     22046     22048     22043     22046     22049
     22047     22046     22048     22047     22046     22049     22048     22046     22049
     22046     22049     22050     22046     22049     22051     22046     22049     22052
     22050     22049     22051     22050     22049     22052     22051     22049     22052
     22049     22052     22053     22049     22052     22054     22049     22052     22055
     22053     22052     22054     22053     22052     22055     22054     22052     22055
     22052     22055     22056     22052     22055     22057     22052     22055     22058
     22056     22055     22057     22056     22055     22058     22057     22055     22058
     22055     22058     22059     22055     22058     22060     22055     22058     22061
     22059     22058     22060     22059     22058     22061     22060     22058     22061
     22058     22061     22062     22058     22061     22063     22058     22061     22064
     22062     22061     22063     22062     22061     22064     22063     22061     22064
     22061     22064     22065     22061     22064     22066     22061     22064     22067
     22065     22064     22066     22065     22064     22067     22066     22064     22067
     22018     22068     22069     22018     22068     22070     22018     22068     22071
     22069     22068     22070     22069     22068     22071     22070     22068     22071
     22068     22071     22072     22068     22071     22073     22068     22071     22074
     22072     22071     22073     22072     22071     22074     22073     22071     22074
     22071     22074     22075     22071     22074     22076     22071     22074     22077
     22075     22074     22076     22075     22074     22077     22076     22074     22077
     22074     22077     22078     22074     22077     22079     22074     22077     22080
     22078     22077     22079     22078     22077     22080     22079     22077     22080
     22077     22080     22081     22077     22080     22082     22077     22080     22083
     22081     22080     22082     22081     22080     22083     22082     22080     22083
     22080     22083     22084     22080     22083     22085     22080     22083     22086
     22084     22083     22085     22084     22083     22086     22085     22083     22086
     22083     22086     22087     22083     22086     22088     22083     22086     22089
     22087     22086     22088     22087     22086     22089     22088     22086     22089
     22086     22089     22090     22086     22089     22091     22086     22089     22092
     22090     22089     22091     22090     22089     22092     22091     22089     22092
     22089     22092     22093     22089     22092     22094     22089     22092     22095
     22093     22092     22094     22093     22092     22095     22094     22092     22095
     22092     22095     22096     22092     22095     22097     22092     22095     22098
     22096     22095     22097     22096     22095     22098     22097     22095     22098
     22095     22098     22099     22095     22098     22100     22095     22098     22101
     22099     22098     22100     22099     22098     22101     22100     22098     22101
     22098     22101     22102     22098     22101     22103     22098     22101     22104
     22102     22101     22103     22102     22101     22104     22103     22101     22104
     22101     22104     22105     22101     22104     22106     22101     22104     22107
     22105     22104     22106     22105     22104     22107     22106     22104     22107
     22104     22107     22108     22104     22107     22109     22104     22107     22110
     22108     22107     22109     22108     22107     22110     22109     22107     22110
     22112     22111     22115     22112     22111     22119     22112     22111     22123
     22115     22111     22119     22115     22111     22123     22119     22111     22123
     22111     22112     22113     22111     22112     22114     22111     22112     22127
     22113     22112     22114     22113     22112     22127     22114     22112     22127
     22111     22115     22116     22111     22115     22117     22111     22115     22118
     22116     22115     22117     22116     22115     22118     22117     22115     22118
     22111     22119     22120     22111     22119     22121     22111     22119     22122
     22120     22119     22121     22120     22119     22122     22121     22119     22122
     22111     22123     22124     22111     22123     22125     22111     22123     22126
     22124     22123     22125     22124     22123     22126     22125     22123     22126
     22112     22127     22128     22112     22127     22129     22112     22127     22133
     22128     22127     22129     22128     22127     22133     22129     22127     22133
     22131     22130     22132     22131     22130     22133     22131     22130     22134
     22132     22130     22133     22132     22130     22134     22133     22130     22134
     22127     22133     22130     22130     22134     22135     22134     22135     22136
     22134     22135     22137     22134     22135     22138     22136     22135     22137
     22136     22135     22138     22137     22135     22138     22135     22138     22139
     22135     22138     22140     22135     22138     22146     22139     22138     22140
     22139     22138     22146     22140     22138     22146     22138     22140     22141
     22140     22141     22142     22140     22141     22143     22142     22141     22143
     22141     22143     22144     22141     22143     22145     22141     22143     22155
     22144     22143     22145     22144     22143     22155     22145     22143     22155
     22138     22146     22147     22138     22146     22148     22138     22146     22149
     22147     22146     22148     22147     22146     22149     22148     22146     22149
     22146     22149     22150     22149     22150     22151     22149     22150     22152
     22151     22150     22152     22150     22152     22153     22150     22152     22154
     22150     22152     22202     22153     22152     22154     22153     22152     22202
     22154     22152     22202     22143     22155     22156     22143     22155     22157
     22143     22155     22158     22156     22155     22157     22156     22155     22158
     22157     22155     22158     22155     22158     22159     22155     22158     22160
     22155     22158     22161     22159     22158     22160     22159     22158     22161
     22160     22158     22161     22158     22161     22162     22158     22161     22163
     22158     22161     22164     22162     22161     22163     22162     22161     22164
     22163     22161     22164     22161     22164     22165     22161     22164     22166
     22161     22164     22167     22165     22164     22166     22165     22164     22167
     22166     22164     22167     22164     22167     22168     22164     22167     22169
     22164     22167     22170     22168     22167     22169     22168     22167     22170
     22169     22167     22170     22167     22170     22171     22167     22170     22172
     22167     22170     22173     22171     22170     22172     22171     22170     22173
     22172     22170     22173     22170     22173     22174     22170     22173     22175
     22174     22173     22175     22173     22175     22176     22173     22175     22177
     22176     22175     22177     22175     22177     22178     22175     22177     22179
     22175     22177     22180     22178     22177     22179     22178     22177     22180
     22179     22177     22180     22177     22180     22181     22177     22180     22182
     22177     22180     22183     22181     22180     22182     22181     22180     22183
     22182     22180     22183     22180     22183     22184     22180     22183     22185
     22180     22183     22186     22184     22183     22185     22184     22183     22186
     22185     22183     22186     22183     22186     22187     22183     22186     22188
     22183     22186     22189     22187     22186     22188     22187     22186     22189
     22188     22186     22189     22186     22189     22190     22186     22189     22191
     22186     22189     22192     22190     22189     22191     22190     22189     22192
     22191     22189     22192     22189     22192     22193     22189     22192     22194
     22189     22192     22195     22193     22192     22194     22193     22192     22195
     22194     22192     22195     22192     22195     22196     22192     22195     22197
     22192     22195     22198     22196     22195     22197     22196     22195     22198
     22197     22195     22198     22195     22198     22199     22195     22198     22200
     22195     22198     22201     22199     22198     22200     22199     22198     22201
     22200     22198     22201     22152     22202     22203     22152     22202     22204
     22152     22202     22205     22203     22202     22204     22203     22202     22205
     22204     22202     22205     22202     22205     22206     22202     22205     22207
     22202     22205     22208     22206     22205     22207     22206     22205     22208
     22207     22205     22208     22205     22208     22209     22205     22208     22210
     22205     22208     22211     22209     22208     22210     22209     22208     22211
     22210     22208     22211     22208     22211     22212     22208     22211     22213
     22208     22211     22214     22212     22211     22213     22212     22211     22214
     22213     22211     22214     22211     22214     22215     22211     22214     22216
     22211     22214     22217     22215     22214     22216     22215     22214     22217
     22216     22214     22217     22214     22217     22218     22214     22217     22219
     22214     22217     22220     22218     22217     22219     22218     22217     22220
     22219     22217     22220     22217     22220     22221     22217     22220     22222
     22217     22220     22223     22221     22220     22222     22221     22220     22223
     22222     22220     22223     22220     22223     22224     22220     22223     22225
     22220     22223     22226     22224     22223     22225     22224     22223     22226
     22225     22223     22226     22223     22226     22227     22223     22226     22228
     22223     22226     22229     22227     22226     22228     22227     22226     22229
     22228     22226     22229     22226     22229     22230     22226     22229     22231
     22226     22229     22232     22230     22229     22231     22230     22229     22232
     22231     22229     22232     22229     22232     22233     22229     22232     22234
     22229     22232     22235     22233     22232     22234     22233     22232     22235
     22234     22232     22235     22232     22235     22236     22232     22235     22237
     22232     22235     22238     22236     22235     22237     22236     22235     22238
     22237     22235     22238     22235     22238     22239     22235     22238     22240
     22235     22238     22241     22239     22238     22240     22239     22238     22241
     22240     22238     22241     22238     22241     22242     22238     22241     22243
     22238     22241     22244     22242     22241     22243     22242     22241     22244
     22243     22241     22244     22246     22245     22249     22246     22245     22253
     22246     22245     22257     22249     22245     22253     22249     22245     22257
     22253     22245     22257     22245     22246     22247     22245     22246     22248
     22245     22246     22261     22247     22246     22248     22247     22246     22261
     22248     22246     22261     22245     22249     22250     22245     22249     22251
     22245     22249     22252     22250     22249     22251     22250     22249     22252
     22251     22249     22252     22245     22253     22254     22245     22253     22255
     22245     22253     22256     22254     22253     22255     22254     22253     22256
     22255     22253     22256     22245     22257     22258     22245     22257     22259
     22245     22257     22260     22258     22257     22259     22258     22257     22260
     22259     22257     22260     22246     22261     22262     22246     22261     22263
     22246     22261     22267     22262     22261     22263     22262     22261     22267
     22263     22261     22267     22265     22264     22266     22265     22264     22267
     22265     22264     22268     22266     22264     22267     22266     22264     22268
     22267     22264     22268     22261     22267     22264     22264     22268     22269
     22268     22269     22270     22268     22269     22271     22268     22269     22272
     22270     22269     22271     22270     22269     22272     22271     22269     22272
     22269     22272     22273     22269     22272     22274     22269     22272     22280
     22273     22272     22274     22273     22272     22280     22274     22272     22280
     22272     22274     22275     22274     22275     22276     22274     22275     22277
     22276     22275     22277     22275     22277     22278     22275     22277     22279
     22275     22277     22289     22278     22277     22279     22278     22277     22289
     22279     22277     22289     22272     22280     22281     22272     22280     22282
     22272     22280     22283     22281     22280     22282     22281     22280     22283
     22282     22280     22283     22280     22283     22284     22283     22284     22285
     22283     22284     22286     22285     22284     22286     22284     22286     22287
     22284     22286     22288     22284     22286     22336     22287     22286     22288
     22287     22286     22336     22288     22286     22336     22277     22289     22290
     22277     22289     22291     22277     22289     22292     22290     22289     22291
     22290     22289     22292     22291     22289     22292     22289     22292     22293
     22289     22292     22294     22289     22292     22295     22293     22292     22294
     22293     22292     22295     22294     22292     22295     22292     22295     22296
     22292     22295     22297     22292     22295     22298     22296     22295     22297
     22296     22295     22298     22297     22295     22298     22295     22298     22299
     22295     22298     22300     22295     22298     22301     22299     22298     22300
     22299     22298     22301     22300     22298     22301     22298     22301     22302
     22298     22301     22303     22298     22301     22304     22302     22301     22303
     22302     22301     22304     22303     22301     22304     22301     22304     22305
     22301     22304     22306     22301     22304     22307     22305     22304     22306
     22305     22304     22307     22306     22304     22307     22304     22307     22308
     22304     22307     22309     22308     22307     22309     22307     22309     22310
     22307     22309     22311     22310     22309     22311     22309     22311     22312
     22309     22311     22313     22309     22311     22314     22312     22311     22313
     22312     22311     22314     22313     22311     22314     22311     22314     22315
     22311     22314     22316     22311     22314     22317     22315     22314     22316
     22315     22314     22317     22316     22314     22317     22314     22317     22318
     22314     22317     22319     22314     22317     22320     22318     22317     22319
     22318     22317     22320     22319     22317     22320     22317     22320     22321
     22317     22320     22322     22317     22320     22323     22321     22320     22322
     22321     22320     22323     22322     22320     22323     22320     22323     22324
     22320     22323     22325     22320     22323     22326     22324     22323     22325
     22324     22323     22326     22325     22323     22326     22323     22326     22327
     22323     22326     22328     22323     22326     22329     22327     22326     22328
     22327     22326     22329     22328     22326     22329     22326     22329     22330
     22326     22329     22331     22326     22329     22332     22330     22329     22331
     22330     22329     22332     22331     22329     22332     22329     22332     22333
     22329     22332     22334     22329     22332     22335     22333     22332     22334
     22333     22332     22335     22334     22332     22335     22286     22336     22337
     22286     22336     22338     22286     22336     22339     22337     22336     22338
     22337     22336     22339     22338     22336     22339     22336     22339     22340
     22336     22339     22341     22336     22339     22342     22340     22339     22341
     22340     22339     22342     22341     22339     22342     22339     22342     22343
     22339     22342     22344     22339     22342     22345     22343     22342     22344
     22343     22342     22345     22344     22342     22345     22342     22345     22346
     22342     22345     22347     22342     22345     22348     22346     22345     22347
     22346     22345     22348     22347     22345     22348     22345     22348     22349
     22345     22348     22350     22345     22348     22351     22349     22348     22350
     22349     22348     22351     22350     22348     22351     22348     22351     22352
     22348     22351     22353     22348     22351     22354     22352     22351     22353
     22352     22351     22354     22353     22351     22354     22351     22354     22355
     22351     22354     22356     22351     22354     22357     22355     22354     22356
     22355     22354     22357     22356     22354     22357     22354     22357     22358
     22354     22357     22359     22354     22357     22360     22358     22357     22359
     22358     22357     22360     22359     22357     22360     22357     22360     22361
     22357     22360     22362     22357     22360     22363     22361     22360     22362
     22361     22360     22363     22362     22360     22363     22360     22363     22364
     22360     22363     22365     22360     22363     22366     22364     22363     22365
     22364     22363     22366     22365     22363     22366     22363     22366     22367
     22363     22366     22368     22363     22366     22369     22367     22366     22368
     22367     22366     22369     22368     22366     22369     22366     22369     22370
     22366     22369     22371     22366     22369     22372     22370     22369     22371
     22370     22369     22372     22371     22369     22372     22369     22372     22373
     22369     22372     22374     22369     22372     22375     22373     22372     22374
     22373     22372     22375     22374     22372     22375     22372     22375     22376
     22372     22375     22377     22372     22375     22378     22376     22375     22377
     22376     22375     22378     22377     22375     22378     22380     22379     22383
     22380     22379     22387     22380     22379     22391     22383     22379     22387
     22383     22379     22391     22387     22379     22391     22379     22380     22381
     22379     22380     22382     22379     22380     22395     22381     22380     22382
     22381     22380     22395     22382     22380     22395     22379     22383     22384
     22379     22383     22385     22379     22383     22386     22384     22383     22385
     22384     22383     22386     22385     22383     22386     22379     22387     22388
     22379     22387     22389     22379     22387     22390     22388     22387     22389
     22388     22387     22390     22389     22387     22390     22379     22391     22392
     22379     22391     22393     22379     22391     22394     22392     22391     22393
     22392     22391     22394     22393     22391     22394     22380     22395     22396
     22380     22395     22397     22380     22395     22401     22396     22395     22397
     22396     22395     22401     22397     22395     22401     22399     22398     22400
     22399     22398     22401     22399     22398     22402     22400     22398     22401
     22400     22398     22402     22401     22398     22402     22395     22401     22398
     22398     22402     22403     22402     22403     22404     22402     22403     22405
     22402     22403     22406     22404     22403     22405     22404     22403     22406
     22405     22403     22406     22403     22406     22407     22403     22406     22408
     22403     22406     22414     22407     22406     22408     22407     22406     22414
     22408     22406     22414     22406     22408     22409     22408     22409     22410
     22408     22409     22411     22410     22409     22411     22409     22411     22412
     22409     22411     22413     22409     22411     22423     22412     22411     22413
     22412     22411     22423     22413     22411     22423     22406     22414     22415
     22406     22414     22416     22406     22414     22417     22415     22414     22416
     22415     22414     22417     22416     22414     22417     22414     22417     22418
     22417     22418     22419     22417     22418     22420     22419     22418     22420
     22418     22420     22421     22418     22420     22422     22418     22420     22470
     22421     22420     22422     22421     22420     22470     22422     22420     22470
     22411     22423     22424     22411     22423     22425     22411     22423     22426
     22424     22423     22425     22424     22423     22426     22425     22423     22426
     22423     22426     22427     22423     22426     22428     22423     22426     22429
     22427     22426     22428     22427     22426     22429     22428     22426     22429
     22426     22429     22430     22426     22429     22431     22426     22429     22432
     22430     22429     22431     22430     22429     22432     22431     22429     22432
     22429     22432     22433     22429     22432     22434     22429     22432     22435
     22433     22432     22434     22433     22432     22435     22434     22432     22435
     22432     22435     22436     22432     22435     22437     22432     22435     22438
     22436     22435     22437     22436     22435     22438     22437     22435     22438
     22435     22438     22439     22435     22438     22440     22435     22438     22441
     22439     22438     22440     22439     22438     22441     22440     22438     22441
     22438     22441     22442     22438     22441     22443     22442     22441     22443
     22441     22443     22444     22441     22443     22445     22444     22443     22445
     22443     22445     22446     22443     22445     22447     22443     22445     22448
     22446     22445     22447     22446     22445     22448     22447     22445     22448
     22445     22448     22449     22445     22448     22450     22445     22448     22451
     22449     22448     22450     22449     22448     22451     22450     22448     22451
     22448     22451     22452     22448     22451     22453     22448     22451     22454
     22452     22451     22453     22452     22451     22454     22453     22451     22454
     22451     22454     22455     22451     22454     22456     22451     22454     22457
     22455     22454     22456     22455     22454     22457     22456     22454     22457
     22454     22457     22458     22454     22457     22459     22454     22457     22460
     22458     22457     22459     22458     22457     22460     22459     22457     22460
     22457     22460     22461     22457     22460     22462     22457     22460     22463
     22461     22460     22462     22461     22460     22463     22462     22460     22463
     22460     22463     22464     22460     22463     22465     22460     22463     22466
     22464     22463     22465     22464     22463     22466     22465     22463     22466
     22463     22466     22467     22463     22466     22468     22463     22466     22469
     22467     22466     22468     22467     22466     22469     22468     22466     22469
     22420     22470     22471     22420     22470     22472     22420     22470     22473
     22471     22470     22472     22471     22470     22473     22472     22470     22473
     22470     22473     22474     22470     22473     22475     22470     22473     22476
     22474     22473     22475     22474     22473     22476     22475     22473     22476
     22473     22476     22477     22473     22476     22478     22473     22476     22479
     22477     22476     22478     22477     22476     22479     22478     22476     22479
     22476     22479     22480     22476     22479     22481     22476     22479     22482
     22480     22479     22481     22480     22479     22482     22481     22479     22482
     22479     22482     22483     22479     22482     22484     22479     22482     22485
     22483     22482     22484     22483     22482     22485     22484     22482     22485
     22482     22485     22486     22482     22485     22487     22482     22485     22488
     22486     22485     22487     22486     22485     22488     22487     22485     22488
     22485     22488     22489     22485     22488     22490     22485     22488     22491
     22489     22488     22490     22489     22488     22491     22490     22488     22491
     22488     22491     22492     22488     22491     22493     22488     22491     22494
     22492     22491     22493     22492     22491     22494     22493     22491     22494
     22491     22494     22495     22491     22494     22496     22491     22494     22497
     22495     22494     22496     22495     22494     22497     22496     22494     22497
     22494     22497     22498     22494     22497     22499     22494     22497     22500
     22498     22497     22499     22498     22497     22500     22499     22497     22500
     22497     22500     22501     22497     22500     22502     22497     22500     22503
     22501     22500     22502     22501     22500     22503     22502     22500     22503
     22500     22503     22504     22500     22503     22505     22500     22503     22506
     22504     22503     22505     22504     22503     22506     22505     22503     22506
     22503     22506     22507     22503     22506     22508     22503     22506     22509
     22507     22506     22508     22507     22506     22509     22508     22506     22509
     22506     22509     22510     22506     22509     22511     22506     22509     22512
     22510     22509     22511     22510     22509     22512     22511     22509     22512
     22514     22513     22517     22514     22513     22521     22514     22513     22525
     22517     22513     22521     22517     22513     22525     22521     22513     22525
     22513     22514     22515     22513     22514     22516     22513     22514     22529
     22515     22514     22516     22515     22514     22529     22516     22514     22529
     22513     22517     22518     22513     22517     22519     22513     22517     22520
     22518     22517     22519     22518     22517     22520     22519     22517     22520
     22513     22521     22522     22513     22521     22523     22513     22521     22524
     22522     22521     22523     22522     22521     22524     22523     22521     22524
     22513     22525     22526     22513     22525     22527     22513     22525     22528
     22526     22525     22527     22526     22525     22528     22527     22525     22528
     22514     22529     22530     22514     22529     22531     22514     22529     22535
     22530     22529     22531     22530     22529     22535     22531     22529     22535
     22533     22532     22534     22533     22532     22535     22533     22532     22536
     22534     22532     22535     22534     22532     22536     22535     22532     22536
     22529     22535     22532     22532     22536     22537     22536     22537     22538
     22536     22537     22539     22536     22537     22540     22538     22537     22539
     22538     22537     22540     22539     22537     22540     22537     22540     22541
     22537     22540     22542     22537     22540     22548     22541     22540     22542
     22541     22540     22548     22542     22540     22548     22540     22542     22543
     22542     22543     22544     22542     22543     22545     22544     22543     22545
     22543     22545     22546     22543     22545     22547     22543     22545     22557
     22546     22545     22547     22546     22545     22557     22547     22545     22557
     22540     22548     22549     22540     22548     22550     22540     22548     22551
     22549     22548     22550     22549     22548     22551     22550     22548     22551
     22548     22551     22552     22551     22552     22553     22551     22552     22554
     22553     22552     22554     22552     22554     22555     22552     22554     22556
     22552     22554     22604     22555     22554     22556     22555     22554     22604
     22556     22554     22604     22545     22557     22558     22545     22557     22559
     22545     22557     22560     22558     22557     22559     22558     22557     22560
     22559     22557     22560     22557     22560     22561     22557     22560     22562
     22557     22560     22563     22561     22560     22562     22561     22560     22563
     22562     22560     22563     22560     22563     22564     22560     22563     22565
     22560     22563     22566     22564     22563     22565     22564     22563     22566
     22565     22563     22566     22563     22566     22567     22563     22566     22568
     22563     22566     22569     22567     22566     22568     22567     22566     22569
     22568     22566     22569     22566     22569     22570     22566     22569     22571
     22566     22569     22572     22570     22569     22571     22570     22569     22572
     22571     22569     22572     22569     22572     22573     22569     22572     22574
     22569     22572     22575     22573     22572     22574     22573     22572     22575
     22574     22572     22575     22572     22575     22576     22572     22575     22577
     22576     22575     22577     22575     22577     22578     22575     22577     22579
     22578     22577     22579     22577     22579     22580     22577     22579     22581
     22577     22579     22582     22580     22579     22581     22580     22579     22582
     22581     22579     22582     22579     22582     22583     22579     22582     22584
     22579     22582     22585     22583     22582     22584     22583     22582     22585
     22584     22582     22585     22582     22585     22586     22582     22585     22587
     22582     22585     22588     22586     22585     22587     22586     22585     22588
     22587     22585     22588     22585     22588     22589     22585     22588     22590
     22585     22588     22591     22589     22588     22590     22589     22588     22591
     22590     22588     22591     22588     22591     22592     22588     22591     22593
     22588     22591     22594     22592     22591     22593     22592     22591     22594
     22593     22591     22594     22591     22594     22595     22591     22594     22596
     22591     22594     22597     22595     22594     22596     22595     22594     22597
     22596     22594     22597     22594     22597     22598     22594     22597     22599
     22594     22597     22600     22598     22597     22599     22598     22597     22600
     22599     22597     22600     22597     22600     22601     22597     22600     22602
     22597     22600     22603     22601     22600     22602     22601     22600     22603
     22602     22600     22603     22554     22604     22605     22554     22604     22606
     22554     22604     22607     22605     22604     22606     22605     22604     22607
     22606     22604     22607     22604     22607     22608     22604     22607     22609
     22604     22607     22610     22608     22607     22609     22608     22607     22610
     22609     22607     22610     22607     22610     22611     22607     22610     22612
     22607     22610     22613     22611     22610     22612     22611     22610     22613
     22612     22610     22613     22610     22613     22614     22610     22613     22615
     22610     22613     22616     22614     22613     22615     22614     22613     22616
     22615     22613     22616     22613     22616     22617     22613     22616     22618
     22613     22616     22619     22617     22616     22618     22617     22616     22619
     22618     22616     22619     22616     22619     22620     22616     22619     22621
     22616     22619     22622     22620     22619     22621     22620     22619     22622
     22621     22619     22622     22619     22622     22623     22619     22622     22624
     22619     22622     22625     22623     22622     22624     22623     22622     22625
     22624     22622     22625     22622     22625     22626     22622     22625     22627
     22622     22625     22628     22626     22625     22627     22626     22625     22628
     22627     22625     22628     22625     22628     22629     22625     22628     22630
     22625     22628     22631     22629     22628     22630     22629     22628     22631
     22630     22628     22631     22628     22631     22632     22628     22631     22633
     22628     22631     22634     22632     22631     22633     22632     22631     22634
     22633     22631     22634     22631     22634     22635     22631     22634     22636
     22631     22634     22637     22635     22634     22636     22635     22634     22637
     22636     22634     22637     22634     22637     22638     22634     22637     22639
     22634     22637     22640     22638     22637     22639     22638     22637     22640
     22639     22637     22640     22637     22640     22641     22637     22640     22642
     22637     22640     22643     22641     22640     22642     22641     22640     22643
     22642     22640     22643     22640     22643     22644     22640     22643     22645
     22640     22643     22646     22644     22643     22645     22644     22643     22646
     22645     22643     22646     22648     22647     22651     22648     22647     22655
     22648     22647     22659     22651     22647     22655     22651     22647     22659
     22655     22647     22659     22647     22648     22649     22647     22648     22650
     22647     22648     22663     22649     22648     22650     22649     22648     22663
     22650     22648     22663     22647     22651     22652     22647     22651     22653
     22647     22651     22654     22652     22651     22653     22652     22651     22654
     22653     22651     22654     22647     22655     22656     22647     22655     22657
     22647     22655     22658     22656     22655     22657     22656     22655     22658
     22657     22655     22658     22647     22659     22660     22647     22659     22661
     22647     22659     22662     22660     22659     22661     22660     22659     22662
     22661     22659     22662     22648     22663     22664     22648     22663     22665
     22648     22663     22669     22664     22663     22665     22664     22663     22669
     22665     22663     22669     22667     22666     22668     22667     22666     22669
     22667     22666     22670     22668     22666     22669     22668     22666     22670
     22669     22666     22670     22663     22669     22666     22666     22670     22671
     22670     22671     22672     22670     22671     22673     22670     22671     22674
     22672     22671     22673     22672     22671     22674     22673     22671     22674
     22671     22674     22675     22671     22674     22676     22671     22674     22682
     22675     22674     22676     22675     22674     22682     22676     22674     22682
     22674     22676     22677     22676     22677     22678     22676     22677     22679
     22678     22677     22679     22677     22679     22680     22677     22679     22681
     22677     22679     22691     22680     22679     22681     22680     22679     22691
     22681     22679     22691     22674     22682     22683     22674     22682     22684
     22674     22682     22685     22683     22682     22684     22683     22682     22685
     22684     22682     22685     22682     22685     22686     22685     22686     22687
     22685     22686     22688     22687     22686     22688     22686     22688     22689
     22686     22688     22690     22686     22688     22738     22689     22688     22690
     22689     22688     22738     22690     22688     22738     22679     22691     22692
     22679     22691     22693     22679     22691     22694     22692     22691     22693
     22692     22691     22694     22693     22691     22694     22691     22694     22695
     22691     22694     22696     22691     22694     22697     22695     22694     22696
     22695     22694     22697     22696     22694     22697     22694     22697     22698
     22694     22697     22699     22694     22697     22700     22698     22697     22699
     22698     22697     22700     22699     22697     22700     22697     22700     22701
     22697     22700     22702     22697     22700     22703     22701     22700     22702
     22701     22700     22703     22702     22700     22703     22700     22703     22704
     22700     22703     22705     22700     22703     22706     22704     22703     22705
     22704     22703     22706     22705     22703     22706     22703     22706     22707
     22703     22706     22708     22703     22706     22709     22707     22706     22708
     22707     22706     22709     22708     22706     22709     22706     22709     22710
     22706     22709     22711     22710     22709     22711     22709     22711     22712
     22709     22711     22713     22712     22711     22713     22711     22713     22714
     22711     22713     22715     22711     22713     22716     22714     22713     22715
     22714     22713     22716     22715     22713     22716     22713     22716     22717
     22713     22716     22718     22713     22716     22719     22717     22716     22718
     22717     22716     22719     22718     22716     22719     22716     22719     22720
     22716     22719     22721     22716     22719     22722     22720     22719     22721
     22720     22719     22722     22721     22719     22722     22719     22722     22723
     22719     22722     22724     22719     22722     22725     22723     22722     22724
     22723     22722     22725     22724     22722     22725     22722     22725     22726
     22722     22725     22727     22722     22725     22728     22726     22725     22727
     22726     22725     22728     22727     22725     22728     22725     22728     22729
     22725     22728     22730     22725     22728     22731     22729     22728     22730
     22729     22728     22731     22730     22728     22731     22728     22731     22732
     22728     22731     22733     22728     22731     22734     22732     22731     22733
     22732     22731     22734     22733     22731     22734     22731     22734     22735
     22731     22734     22736     22731     22734     22737     22735     22734     22736
     22735     22734     22737     22736     22734     22737     22688     22738     22739
     22688     22738     22740     22688     22738     22741     22739     22738     22740
     22739     22738     22741     22740     22738     22741     22738     22741     22742
     22738     22741     22743     22738     22741     22744     22742     22741     22743
     22742     22741     22744     22743     22741     22744     22741     22744     22745
     22741     22744     22746     22741     22744     22747     22745     22744     22746
     22745     22744     22747     22746     22744     22747     22744     22747     22748
     22744     22747     22749     22744     22747     22750     22748     22747     22749
     22748     22747     22750     22749     22747     22750     22747     22750     22751
     22747     22750     22752     22747     22750     22753     22751     22750     22752
     22751     22750     22753     22752     22750     22753     22750     22753     22754
     22750     22753     22755     22750     22753     22756     22754     22753     22755
     22754     22753     22756     22755     22753     22756     22753     22756     22757
     22753     22756     22758     22753     22756     22759     22757     22756     22758
     22757     22756     22759     22758     22756     22759     22756     22759     22760
     22756     22759     22761     22756     22759     22762     22760     22759     22761
     22760     22759     22762     22761     22759     22762     22759     22762     22763
     22759     22762     22764     22759     22762     22765     22763     22762     22764
     22763     22762     22765     22764     22762     22765     22762     22765     22766
     22762     22765     22767     22762     22765     22768     22766     22765     22767
     22766     22765     22768     22767     22765     22768     22765     22768     22769
     22765     22768     22770     22765     22768     22771     22769     22768     22770
     22769     22768     22771     22770     22768     22771     22768     22771     22772
     22768     22771     22773     22768     22771     22774     22772     22771     22773
     22772     22771     22774     22773     22771     22774     22771     22774     22775
     22771     22774     22776     22771     22774     22777     22775     22774     22776
     22775     22774     22777     22776     22774     22777     22774     22777     22778
     22774     22777     22779     22774     22777     22780     22778     22777     22779
     22778     22777     22780     22779     22777     22780     22782     22781     22785
     22782     22781     22789     22782     22781     22793     22785     22781     22789
     22785     22781     22793     22789     22781     22793     22781     22782     22783
     22781     22782     22784     22781     22782     22797     22783     22782     22784
     22783     22782     22797     22784     22782     22797     22781     22785     22786
     22781     22785     22787     22781     22785     22788     22786     22785     22787
     22786     22785     22788     22787     22785     22788     22781     22789     22790
     22781     22789     22791     22781     22789     22792     22790     22789     22791
     22790     22789     22792     22791     22789     22792     22781     22793     22794
     22781     22793     22795     22781     22793     22796     22794     22793     22795
     22794     22793     22796     22795     22793     22796     22782     22797     22798
     22782     22797     22799     22782     22797     22803     22798     22797     22799
     22798     22797     22803     22799     22797     22803     22801     22800     22802
     22801     22800     22803     22801     22800     22804     22802     22800     22803
     22802     22800     22804     22803     22800     22804     22797     22803     22800
     22800     22804     22805     22804     22805     22806     22804     22805     22807
     22804     22805     22808     22806     22805     22807     22806     22805     22808
     22807     22805     22808     22805     22808     22809     22805     22808     22810
     22805     22808     22816     22809     22808     22810     22809     22808     22816
     22810     22808     22816     22808     22810     22811     22810     22811     22812
     22810     22811     22813     22812     22811     22813     22811     22813     22814
     22811     22813     22815     22811     22813     22825     22814     22813     22815
     22814     22813     22825     22815     22813     22825     22808     22816     22817
     22808     22816     22818     22808     22816     22819     22817     22816     22818
     22817     22816     22819     22818     22816     22819     22816     22819     22820
     22819     22820     22821     22819     22820     22822     22821     22820     22822
     22820     22822     22823     22820     22822     22824     22820     22822     22872
     22823     22822     22824     22823     22822     22872     22824     22822     22872
     22813     22825     22826     22813     22825     22827     22813     22825     22828
     22826     22825     22827     22826     22825     22828     22827     22825     22828
     22825     22828     22829     22825     22828     22830     22825     22828     22831
     22829     22828     22830     22829     22828     22831     22830     22828     22831
     22828     22831     22832     22828     22831     22833     22828     22831     22834
     22832     22831     22833     22832     22831     22834     22833     22831     22834
     22831     22834     22835     22831     22834     22836     22831     22834     22837
     22835     22834     22836     22835     22834     22837     22836     22834     22837
     22834     22837     22838     22834     22837     22839     22834     22837     22840
     22838     22837     22839     22838     22837     22840     22839     22837     22840
     22837     22840     22841     22837     22840     22842     22837     22840     22843
     22841     22840     22842     22841     22840     22843     22842     22840     22843
     22840     22843     22844     22840     22843     22845     22844     22843     22845
     22843     22845     22846     22843     22845     22847     22846     22845     22847
     22845     22847     22848     22845     22847     22849     22845     22847     22850
     22848     22847     22849     22848     22847     22850     22849     22847     22850
     22847     22850     22851     22847     22850     22852     22847     22850     22853
     22851     22850     22852     22851     22850     22853     22852     22850     22853
     22850     22853     22854     22850     22853     22855     22850     22853     22856
     22854     22853     22855     22854     22853     22856     22855     22853     22856
     22853     22856     22857     22853     22856     22858     22853     22856     22859
     22857     22856     22858     22857     22856     22859     22858     22856     22859
     22856     22859     22860     22856     22859     22861     22856     22859     22862
     22860     22859     22861     22860     22859     22862     22861     22859     22862
     22859     22862     22863     22859     22862     22864     22859     22862     22865
     22863     22862     22864     22863     22862     22865     22864     22862     22865
     22862     22865     22866     22862     22865     22867     22862     22865     22868
     22866     22865     22867     22866     22865     22868     22867     22865     22868
     22865     22868     22869     22865     22868     22870     22865     22868     22871
     22869     22868     22870     22869     22868     22871     22870     22868     22871
     22822     22872     22873     22822     22872     22874     22822     22872     22875
     22873     22872     22874     22873     22872     22875     22874     22872     22875
     22872     22875     22876     22872     22875     22877     22872     22875     22878
     22876     22875     22877     22876     22875     22878     22877     22875     22878
     22875     22878     22879     22875     22878     22880     22875     22878     22881
     22879     22878     22880     22879     22878     22881     22880     22878     22881
     22878     22881     22882     22878     22881     22883     22878     22881     22884
     22882     22881     22883     22882     22881     22884     22883     22881     22884
     22881     22884     22885     22881     22884     22886     22881     22884     22887
     22885     22884     22886     22885     22884     22887     22886     22884     22887
     22884     22887     22888     22884     22887     22889     22884     22887     22890
     22888     22887     22889     22888     22887     22890     22889     22887     22890
     22887     22890     22891     22887     22890     22892     22887     22890     22893
     22891     22890     22892     22891     22890     22893     22892     22890     22893
     22890     22893     22894     22890     22893     22895     22890     22893     22896
     22894     22893     22895     22894     22893     22896     22895     22893     22896
     22893     22896     22897     22893     22896     22898     22893     22896     22899
     22897     22896     22898     22897     22896     22899     22898     22896     22899
     22896     22899     22900     22896     22899     22901     22896     22899     22902
     22900     22899     22901     22900     22899     22902     22901     22899     22902
     22899     22902     22903     22899     22902     22904     22899     22902     22905
     22903     22902     22904     22903     22902     22905     22904     22902     22905
     22902     22905     22906     22902     22905     22907     22902     22905     22908
     22906     22905     22907     22906     22905     22908     22907     22905     22908
     22905     22908     22909     22905     22908     22910     22905     22908     22911
     22909     22908     22910     22909     22908     22911     22910     22908     22911
     22908     22911     22912     22908     22911     22913     22908     22911     22914
     22912     22911     22913     22912     22911     22914     22913     22911     22914
     22916     22915     22919     22916     22915     22923     22916     22915     22927
     22919     22915     22923     22919     22915     22927     22923     22915     22927
     22915     22916     22917     22915     22916     22918     22915     22916     22931
     22917     22916     22918     22917     22916     22931     22918     22916     22931
     22915     22919     22920     22915     22919     22921     22915     22919     22922
     22920     22919     22921     22920     22919     22922     22921     22919     22922
     22915     22923     22924     22915     22923     22925     22915     22923     22926
     22924     22923     22925     22924     22923     22926     22925     22923     22926
     22915     22927     22928     22915     22927     22929     22915     22927     22930
     22928     22927     22929     22928     22927     22930     22929     22927     22930
     22916     22931     22932     22916     22931     22933     22916     22931     22937
     22932     22931     22933     22932     22931     22937     22933     22931     22937
     22935     22934     22936     22935     22934     22937     22935     22934     22938
     22936     22934     22937     22936     22934     22938     22937     22934     22938
     22931     22937     22934     22934     22938     22939     22938     22939     22940
     22938     22939     22941     22938     22939     22942     22940     22939     22941
     22940     22939     22942     22941     22939     22942     22939     22942     22943
     22939     22942     22944     22939     22942     22950     22943     22942     22944
     22943     22942     22950     22944     22942     22950     22942     22944     22945
     22944     22945     22946     22944     22945     22947     22946     22945     22947
     22945     22947     22948     22945     22947     22949     22945     22947     22959
     22948     22947     22949     22948     22947     22959     22949     22947     22959
     22942     22950     22951     22942     22950     22952     22942     22950     22953
     22951     22950     22952     22951     22950     22953     22952     22950     22953
     22950     22953     22954     22953     22954     22955     22953     22954     22956
     22955     22954     22956     22954     22956     22957     22954     22956     22958
     22954     22956     23006     22957     22956     22958     22957     22956     23006
     22958     22956     23006     22947     22959     22960     22947     22959     22961
     22947     22959     22962     22960     22959     22961     22960     22959     22962
     22961     22959     22962     22959     22962     22963     22959     22962     22964
     22959     22962     22965     22963     22962     22964     22963     22962     22965
     22964     22962     22965     22962     22965     22966     22962     22965     22967
     22962     22965     22968     22966     22965     22967     22966     22965     22968
     22967     22965     22968     22965     22968     22969     22965     22968     22970
     22965     22968     22971     22969     22968     22970     22969     22968     22971
     22970     22968     22971     22968     22971     22972     22968     22971     22973
     22968     22971     22974     22972     22971     22973     22972     22971     22974
     22973     22971     22974     22971     22974     22975     22971     22974     22976
     22971     22974     22977     22975     22974     22976     22975     22974     22977
     22976     22974     22977     22974     22977     22978     22974     22977     22979
     22978     22977     22979     22977     22979     22980     22977     22979     22981
     22980     22979     22981     22979     22981     22982     22979     22981     22983
     22979     22981     22984     22982     22981     22983     22982     22981     22984
     22983     22981     22984     22981     22984     22985     22981     22984     22986
     22981     22984     22987     22985     22984     22986     22985     22984     22987
     22986     22984     22987     22984     22987     22988     22984     22987     22989
     22984     22987     22990     22988     22987     22989     22988     22987     22990
     22989     22987     22990     22987     22990     22991     22987     22990     22992
     22987     22990     22993     22991     22990     22992     22991     22990     22993
     22992     22990     22993     22990     22993     22994     22990     22993     22995
     22990     22993     22996     22994     22993     22995     22994     22993     22996
     22995     22993     22996     22993     22996     22997     22993     22996     22998
     22993     22996     22999     22997     22996     22998     22997     22996     22999
     22998     22996     22999     22996     22999     23000     22996     22999     23001
     22996     22999     23002     23000     22999     23001     23000     22999     23002
     23001     22999     23002     22999     23002     23003     22999     23002     23004
     22999     23002     23005     23003     23002     23004     23003     23002     23005
     23004     23002     23005     22956     23006     23007     22956     23006     23008
     22956     23006     23009     23007     23006     23008     23007     23006     23009
     23008     23006     23009     23006     23009     23010     23006     23009     23011
     23006     23009     23012     23010     23009     23011     23010     23009     23012
     23011     23009     23012     23009     23012     23013     23009     23012     23014
     23009     23012     23015     23013     23012     23014     23013     23012     23015
     23014     23012     23015     23012     23015     23016     23012     23015     23017
     23012     23015     23018     23016     23015     23017     23016     23015     23018
     23017     23015     23018     23015     23018     23019     23015     23018     23020
     23015     23018     23021     23019     23018     23020     23019     23018     23021
     23020     23018     23021     23018     23021     23022     23018     23021     23023
     23018     23021     23024     23022     23021     23023     23022     23021     23024
     23023     23021     23024     23021     23024     23025     23021     23024     23026
     23021     23024     23027     23025     23024     23026     23025     23024     23027
     23026     23024     23027     23024     23027     23028     23024     23027     23029
     23024     23027     23030     23028     23027     23029     23028     23027     23030
     23029     23027     23030     23027     23030     23031     23027     23030     23032
     23027     23030     23033     23031     23030     23032     23031     23030     23033
     23032     23030     23033     23030     23033     23034     23030     23033     23035
     23030     23033     23036     23034     23033     23035     23034     23033     23036
     23035     23033     23036     23033     23036     23037     23033     23036     23038
     23033     23036     23039     23037     23036     23038     23037     23036     23039
     23038     23036     23039     23036     23039     23040     23036     23039     23041
     23036     23039     23042     23040     23039     23041     23040     23039     23042
     23041     23039     23042     23039     23042     23043     23039     23042     23044
     23039     23042     23045     23043     23042     23044     23043     23042     23045
     23044     23042     23045     23042     23045     23046     23042     23045     23047
     23042     23045     23048     23046     23045     23047     23046     23045     23048
     23047     23045     23048     23050     23049     23053     23050     23049     23057
     23050     23049     23061     23053     23049     23057     23053     23049     23061
     23057     23049     23061     23049     23050     23051     23049     23050     23052
     23049     23050     23065     23051     23050     23052     23051     23050     23065
     23052     23050     23065     23049     23053     23054     23049     23053     23055
     23049     23053     23056     23054     23053     23055     23054     23053     23056
     23055     23053     23056     23049     23057     23058     23049     23057     23059
     23049     23057     23060     23058     23057     23059     23058     23057     23060
     23059     23057     23060     23049     23061     23062     23049     23061     23063
     23049     23061     23064     23062     23061     23063     23062     23061     23064
     23063     23061     23064     23050     23065     23066     23050     23065     23067
     23050     23065     23071     23066     23065     23067     23066     23065     23071
     23067     23065     23071     23069     23068     23070     23069     23068     23071
     23069     23068     23072     23070     23068     23071     23070     23068     23072
     23071     23068     23072     23065     23071     23068     23068     23072     23073
     23072     23073     23074     23072     23073     23075     23072     23073     23076
     23074     23073     23075     23074     23073     23076     23075     23073     23076
     23073     23076     23077     23073     23076     23078     23073     23076     23084
     23077     23076     23078     23077     23076     23084     23078     23076     23084
     23076     23078     23079     23078     23079     23080     23078     23079     23081
     23080     23079     23081     23079     23081     23082     23079     23081     23083
     23079     23081     23093     23082     23081     23083     23082     23081     23093
     23083     23081     23093     23076     23084     23085     23076     23084     23086
     23076     23084     23087     23085     23084     23086     23085     23084     23087
     23086     23084     23087     23084     23087     23088     23087     23088     23089
     23087     23088     23090     23089     23088     23090     23088     23090     23091
     23088     23090     23092     23088     23090     23140     23091     23090     23092
     23091     23090     23140     23092     23090     23140     23081     23093     23094
     23081     23093     23095     23081     23093     23096     23094     23093     23095
     23094     23093     23096     23095     23093     23096     23093     23096     23097
     23093     23096     23098     23093     23096     23099     23097     23096     23098
     23097     23096     23099     23098     23096     23099     23096     23099     23100
     23096     23099     23101     23096     23099     23102     23100     23099     23101
     23100     23099     23102     23101     23099     23102     23099     23102     23103
     23099     23102     23104     23099     23102     23105     23103     23102     23104
     23103     23102     23105     23104     23102     23105     23102     23105     23106
     23102     23105     23107     23102     23105     23108     23106     23105     23107
     23106     23105     23108     23107     23105     23108     23105     23108     23109
     23105     23108     23110     23105     23108     23111     23109     23108     23110
     23109     23108     23111     23110     23108     23111     23108     23111     23112
     23108     23111     23113     23112     23111     23113     23111     23113     23114
     23111     23113     23115     23114     23113     23115     23113     23115     23116
     23113     23115     23117     23113     23115     23118     23116     23115     23117
     23116     23115     23118     23117     23115     23118     23115     23118     23119
     23115     23118     23120     23115     23118     23121     23119     23118     23120
     23119     23118     23121     23120     23118     23121     23118     23121     23122
     23118     23121     23123     23118     23121     23124     23122     23121     23123
     23122     23121     23124     23123     23121     23124     23121     23124     23125
     23121     23124     23126     23121     23124     23127     23125     23124     23126
     23125     23124     23127     23126     23124     23127     23124     23127     23128
     23124     23127     23129     23124     23127     23130     23128     23127     23129
     23128     23127     23130     23129     23127     23130     23127     23130     23131
     23127     23130     23132     23127     23130     23133     23131     23130     23132
     23131     23130     23133     23132     23130     23133     23130     23133     23134
     23130     23133     23135     23130     23133     23136     23134     23133     23135
     23134     23133     23136     23135     23133     23136     23133     23136     23137
     23133     23136     23138     23133     23136     23139     23137     23136     23138
     23137     23136     23139     23138     23136     23139     23090     23140     23141
     23090     23140     23142     23090     23140     23143     23141     23140     23142
     23141     23140     23143     23142     23140     23143     23140     23143     23144
     23140     23143     23145     23140     23143     23146     23144     23143     23145
     23144     23143     23146     23145     23143     23146     23143     23146     23147
     23143     23146     23148     23143     23146     23149     23147     23146     23148
     23147     23146     23149     23148     23146     23149     23146     23149     23150
     23146     23149     23151     23146     23149     23152     23150     23149     23151
     23150     23149     23152     23151     23149     23152     23149     23152     23153
     23149     23152     23154     23149     23152     23155     23153     23152     23154
     23153     23152     23155     23154     23152     23155     23152     23155     23156
     23152     23155     23157     23152     23155     23158     23156     23155     23157
     23156     23155     23158     23157     23155     23158     23155     23158     23159
     23155     23158     23160     23155     23158     23161     23159     23158     23160
     23159     23158     23161     23160     23158     23161     23158     23161     23162
     23158     23161     23163     23158     23161     23164     23162     23161     23163
     23162     23161     23164     23163     23161     23164     23161     23164     23165
     23161     23164     23166     23161     23164     23167     23165     23164     23166
     23165     23164     23167     23166     23164     23167     23164     23167     23168
     23164     23167     23169     23164     23167     23170     23168     23167     23169
     23168     23167     23170     23169     23167     23170     23167     23170     23171
     23167     23170     23172     23167     23170     23173     23171     23170     23172
     23171     23170     23173     23172     23170     23173     23170     23173     23174
     23170     23173     23175     23170     23173     23176     23174     23173     23175
     23174     23173     23176     23175     23173     23176     23173     23176     23177
     23173     23176     23178     23173     23176     23179     23177     23176     23178
     23177     23176     23179     23178     23176     23179     23176     23179     23180
     23176     23179     23181     23176     23179     23182     23180     23179     23181
     23180     23179     23182     23181     23179     23182     23184     23183     23187
     23184     23183     23191     23184     23183     23195     23187     23183     23191
     23187     23183     23195     23191     23183     23195     23183     23184     23185
     23183     23184     23186     23183     23184     23199     23185     23184     23186
     23185     23184     23199     23186     23184     23199     23183     23187     23188
     23183     23187     23189     23183     23187     23190     23188     23187     23189
     23188     23187     23190     23189     23187     23190     23183     23191     23192
     23183     23191     23193     23183     23191     23194     23192     23191     23193
     23192     23191     23194     23193     23191     23194     23183     23195     23196
     23183     23195     23197     23183     23195     23198     23196     23195     23197
     23196     23195     23198     23197     23195     23198     23184     23199     23200
     23184     23199     23201     23184     23199     23205     23200     23199     23201
     23200     23199     23205     23201     23199     23205     23203     23202     23204
     23203     23202     23205     23203     23202     23206     23204     23202     23205
     23204     23202     23206     23205     23202     23206     23199     23205     23202
     23202     23206     23207     23206     23207     23208     23206     23207     23209
     23206     23207     23210     23208     23207     23209     23208     23207     23210
     23209     23207     23210     23207     23210     23211     23207     23210     23212
     23207     23210     23218     23211     23210     23212     23211     23210     23218
     23212     23210     23218     23210     23212     23213     23212     23213     23214
     23212     23213     23215     23214     23213     23215     23213     23215     23216
     23213     23215     23217     23213     23215     23227     23216     23215     23217
     23216     23215     23227     23217     23215     23227     23210     23218     23219
     23210     23218     23220     23210     23218     23221     23219     23218     23220
     23219     23218     23221     23220     23218     23221     23218     23221     23222
     23221     23222     23223     23221     23222     23224     23223     23222     23224
     23222     23224     23225     23222     23224     23226     23222     23224     23274
     23225     23224     23226     23225     23224     23274     23226     23224     23274
     23215     23227     23228     23215     23227     23229     23215     23227     23230
     23228     23227     23229     23228     23227     23230     23229     23227     23230
     23227     23230     23231     23227     23230     23232     23227     23230     23233
     23231     23230     23232     23231     23230     23233     23232     23230     23233
     23230     23233     23234     23230     23233     23235     23230     23233     23236
     23234     23233     23235     23234     23233     23236     23235     23233     23236
     23233     23236     23237     23233     23236     23238     23233     23236     23239
     23237     23236     23238     23237     23236     23239     23238     23236     23239
     23236     23239     23240     23236     23239     23241     23236     23239     23242
     23240     23239     23241     23240     23239     23242     23241     23239     23242
     23239     23242     23243     23239     23242     23244     23239     23242     23245
     23243     23242     23244     23243     23242     23245     23244     23242     23245
     23242     23245     23246     23242     23245     23247     23246     23245     23247
     23245     23247     23248     23245     23247     23249     23248     23247     23249
     23247     23249     23250     23247     23249     23251     23247     23249     23252
     23250     23249     23251     23250     23249     23252     23251     23249     23252
     23249     23252     23253     23249     23252     23254     23249     23252     23255
     23253     23252     23254     23253     23252     23255     23254     23252     23255
     23252     23255     23256     23252     23255     23257     23252     23255     23258
     23256     23255     23257     23256     23255     23258     23257     23255     23258
     23255     23258     23259     23255     23258     23260     23255     23258     23261
     23259     23258     23260     23259     23258     23261     23260     23258     23261
     23258     23261     23262     23258     23261     23263     23258     23261     23264
     23262     23261     23263     23262     23261     23264     23263     23261     23264
     23261     23264     23265     23261     23264     23266     23261     23264     23267
     23265     23264     23266     23265     23264     23267     23266     23264     23267
     23264     23267     23268     23264     23267     23269     23264     23267     23270
     23268     23267     23269     23268     23267     23270     23269     23267     23270
     23267     23270     23271     23267     23270     23272     23267     23270     23273
     23271     23270     23272     23271     23270     23273     23272     23270     23273
     23224     23274     23275     23224     23274     23276     23224     23274     23277
     23275     23274     23276     23275     23274     23277     23276     23274     23277
     23274     23277     23278     23274     23277     23279     23274     23277     23280
     23278     23277     23279     23278     23277     23280     23279     23277     23280
     23277     23280     23281     23277     23280     23282     23277     23280     23283
     23281     23280     23282     23281     23280     23283     23282     23280     23283
     23280     23283     23284     23280     23283     23285     23280     23283     23286
     23284     23283     23285     23284     23283     23286     23285     23283     23286
     23283     23286     23287     23283     23286     23288     23283     23286     23289
     23287     23286     23288     23287     23286     23289     23288     23286     23289
     23286     23289     23290     23286     23289     23291     23286     23289     23292
     23290     23289     23291     23290     23289     23292     23291     23289     23292
     23289     23292     23293     23289     23292     23294     23289     23292     23295
     23293     23292     23294     23293     23292     23295     23294     23292     23295
     23292     23295     23296     23292     23295     23297     23292     23295     23298
     23296     23295     23297     23296     23295     23298     23297     23295     23298
     23295     23298     23299     23295     23298     23300     23295     23298     23301
     23299     23298     23300     23299     23298     23301     23300     23298     23301
     23298     23301     23302     23298     23301     23303     23298     23301     23304
     23302     23301     23303     23302     23301     23304     23303     23301     23304
     23301     23304     23305     23301     23304     23306     23301     23304     23307
     23305     23304     23306     23305     23304     23307     23306     23304     23307
     23304     23307     23308     23304     23307     23309     23304     23307     23310
     23308     23307     23309     23308     23307     23310     23309     23307     23310
     23307     23310     23311     23307     23310     23312     23307     23310     23313
     23311     23310     23312     23311     23310     23313     23312     23310     23313
     23310     23313     23314     23310     23313     23315     23310     23313     23316
     23314     23313     23315     23314     23313     23316     23315     23313     23316
     23318     23317     23321     23318     23317     23325     23318     23317     23329
     23321     23317     23325     23321     23317     23329     23325     23317     23329
     23317     23318     23319     23317     23318     23320     23317     23318     23333
     23319     23318     23320     23319     23318     23333     23320     23318     23333
     23317     23321     23322     23317     23321     23323     23317     23321     23324
     23322     23321     23323     23322     23321     23324     23323     23321     23324
     23317     23325     23326     23317     23325     23327     23317     23325     23328
     23326     23325     23327     23326     23325     23328     23327     23325     23328
     23317     23329     23330     23317     23329     23331     23317     23329     23332
     23330     23329     23331     23330     23329     23332     23331     23329     23332
     23318     23333     23334     23318     23333     23335     23318     23333     23339
     23334     23333     23335     23334     23333     23339     23335     23333     23339
     23337     23336     23338     23337     23336     23339     23337     23336     23340
     23338     23336     23339     23338     23336     23340     23339     23336     23340
     23333     23339     23336     23336     23340     23341     23340     23341     23342
     23340     23341     23343     23340     23341     23344     23342     23341     23343
     23342     23341     23344     23343     23341     23344     23341     23344     23345
     23341     23344     23346     23341     23344     23352     23345     23344     23346
     23345     23344     23352     23346     23344     23352     23344     23346     23347
     23346     23347     23348     23346     23347     23349     23348     23347     23349
     23347     23349     23350     23347     23349     23351     23347     23349     23361
     23350     23349     23351     23350     23349     23361     23351     23349     23361
     23344     23352     23353     23344     23352     23354     23344     23352     23355
     23353     23352     23354     23353     23352     23355     23354     23352     23355
     23352     23355     23356     23355     23356     23357     23355     23356     23358
     23357     23356     23358     23356     23358     23359     23356     23358     23360
     23356     23358     23408     23359     23358     23360     23359     23358     23408
     23360     23358     23408     23349     23361     23362     23349     23361     23363
     23349     23361     23364     23362     23361     23363     23362     23361     23364
     23363     23361     23364     23361     23364     23365     23361     23364     23366
     23361     23364     23367     23365     23364     23366     23365     23364     23367
     23366     23364     23367     23364     23367     23368     23364     23367     23369
     23364     23367     23370     23368     23367     23369     23368     23367     23370
     23369     23367     23370     23367     23370     23371     23367     23370     23372
     23367     23370     23373     23371     23370     23372     23371     23370     23373
     23372     23370     23373     23370     23373     23374     23370     23373     23375
     23370     23373     23376     23374     23373     23375     23374     23373     23376
     23375     23373     23376     23373     23376     23377     23373     23376     23378
     23373     23376     23379     23377     23376     23378     23377     23376     23379
     23378     23376     23379     23376     23379     23380     23376     23379     23381
     23380     23379     23381     23379     23381     23382     23379     23381     23383
     23382     23381     23383     23381     23383     23384     23381     23383     23385
     23381     23383     23386     23384     23383     23385     23384     23383     23386
     23385     23383     23386     23383     23386     23387     23383     23386     23388
     23383     23386     23389     23387     23386     23388     23387     23386     23389
     23388     23386     23389     23386     23389     23390     23386     23389     23391
     23386     23389     23392     23390     23389     23391     23390     23389     23392
     23391     23389     23392     23389     23392     23393     23389     23392     23394
     23389     23392     23395     23393     23392     23394     23393     23392     23395
     23394     23392     23395     23392     23395     23396     23392     23395     23397
     23392     23395     23398     23396     23395     23397     23396     23395     23398
     23397     23395     23398     23395     23398     23399     23395     23398     23400
     23395     23398     23401     23399     23398     23400     23399     23398     23401
     23400     23398     23401     23398     23401     23402     23398     23401     23403
     23398     23401     23404     23402     23401     23403     23402     23401     23404
     23403     23401     23404     23401     23404     23405     23401     23404     23406
     23401     23404     23407     23405     23404     23406     23405     23404     23407
     23406     23404     23407     23358     23408     23409     23358     23408     23410
     23358     23408     23411     23409     23408     23410     23409     23408     23411
     23410     23408     23411     23408     23411     23412     23408     23411     23413
     23408     23411     23414     23412     23411     23413     23412     23411     23414
     23413     23411     23414     23411     23414     23415     23411     23414     23416
     23411     23414     23417     23415     23414     23416     23415     23414     23417
     23416     23414     23417     23414     23417     23418     23414     23417     23419
     23414     23417     23420     23418     23417     23419     23418     23417     23420
     23419     23417     23420     23417     23420     23421     23417     23420     23422
     23417     23420     23423     23421     23420     23422     23421     23420     23423
     23422     23420     23423     23420     23423     23424     23420     23423     23425
     23420     23423     23426     23424     23423     23425     23424     23423     23426
     23425     23423     23426     23423     23426     23427     23423     23426     23428
     23423     23426     23429     23427     23426     23428     23427     23426     23429
     23428     23426     23429     23426     23429     23430     23426     23429     23431
     23426     23429     23432     23430     23429     23431     23430     23429     23432
     23431     23429     23432     23429     23432     23433     23429     23432     23434
     23429     23432     23435     23433     23432     23434     23433     23432     23435
     23434     23432     23435     23432     23435     23436     23432     23435     23437
     23432     23435     23438     23436     23435     23437     23436     23435     23438
     23437     23435     23438     23435     23438     23439     23435     23438     23440
     23435     23438     23441     23439     23438     23440     23439     23438     23441
     23440     23438     23441     23438     23441     23442     23438     23441     23443
     23438     23441     23444     23442     23441     23443     23442     23441     23444
     23443     23441     23444     23441     23444     23445     23441     23444     23446
     23441     23444     23447     23445     23444     23446     23445     23444     23447
     23446     23444     23447     23444     23447     23448     23444     23447     23449
     23444     23447     23450     23448     23447     23449     23448     23447     23450
     23449     23447     23450     23452     23451     23455     23452     23451     23459
     23452     23451     23463     23455     23451     23459     23455     23451     23463
     23459     23451     23463     23451     23452     23453     23451     23452     23454
     23451     23452     23467     23453     23452     23454     23453     23452     23467
     23454     23452     23467     23451     23455     23456     23451     23455     23457
     23451     23455     23458     23456     23455     23457     23456     23455     23458
     23457     23455     23458     23451     23459     23460     23451     23459     23461
     23451     23459     23462     23460     23459     23461     23460     23459     23462
     23461     23459     23462     23451     23463     23464     23451     23463     23465
     23451     23463     23466     23464     23463     23465     23464     23463     23466
     23465     23463     23466     23452     23467     23468     23452     23467     23469
     23452     23467     23473     23468     23467     23469     23468     23467     23473
     23469     23467     23473     23471     23470     23472     23471     23470     23473
     23471     23470     23474     23472     23470     23473     23472     23470     23474
     23473     23470     23474     23467     23473     23470     23470     23474     23475
     23474     23475     23476     23474     23475     23477     23474     23475     23478
     23476     23475     23477     23476     23475     23478     23477     23475     23478
     23475     23478     23479     23475     23478     23480     23475     23478     23486
     23479     23478     23480     23479     23478     23486     23480     23478     23486
     23478     23480     23481     23480     23481     23482     23480     23481     23483
     23482     23481     23483     23481     23483     23484     23481     23483     23485
     23481     23483     23495     23484     23483     23485     23484     23483     23495
     23485     23483     23495     23478     23486     23487     23478     23486     23488
     23478     23486     23489     23487     23486     23488     23487     23486     23489
     23488     23486     23489     23486     23489     23490     23489     23490     23491
     23489     23490     23492     23491     23490     23492     23490     23492     23493
     23490     23492     23494     23490     23492     23542     23493     23492     23494
     23493     23492     23542     23494     23492     23542     23483     23495     23496
     23483     23495     23497     23483     23495     23498     23496     23495     23497
     23496     23495     23498     23497     23495     23498     23495     23498     23499
     23495     23498     23500     23495     23498     23501     23499     23498     23500
     23499     23498     23501     23500     23498     23501     23498     23501     23502
     23498     23501     23503     23498     23501     23504     23502     23501     23503
     23502     23501     23504     23503     23501     23504     23501     23504     23505
     23501     23504     23506     23501     23504     23507     23505     23504     23506
     23505     23504     23507     23506     23504     23507     23504     23507     23508
     23504     23507     23509     23504     23507     23510     23508     23507     23509
     23508     23507     23510     23509     23507     23510     23507     23510     23511
     23507     23510     23512     23507     23510     23513     23511     23510     23512
     23511     23510     23513     23512     23510     23513     23510     23513     23514
     23510     23513     23515     23514     23513     23515     23513     23515     23516
     23513     23515     23517     23516     23515     23517     23515     23517     23518
     23515     23517     23519     23515     23517     23520     23518     23517     23519
     23518     23517     23520     23519     23517     23520     23517     23520     23521
     23517     23520     23522     23517     23520     23523     23521     23520     23522
     23521     23520     23523     23522     23520     23523     23520     23523     23524
     23520     23523     23525     23520     23523     23526     23524     23523     23525
     23524     23523     23526     23525     23523     23526     23523     23526     23527
     23523     23526     23528     23523     23526     23529     23527     23526     23528
     23527     23526     23529     23528     23526     23529     23526     23529     23530
     23526     23529     23531     23526     23529     23532     23530     23529     23531
     23530     23529     23532     23531     23529     23532     23529     23532     23533
     23529     23532     23534     23529     23532     23535     23533     23532     23534
     23533     23532     23535     23534     23532     23535     23532     23535     23536
     23532     23535     23537     23532     23535     23538     23536     23535     23537
     23536     23535     23538     23537     23535     23538     23535     23538     23539
     23535     23538     23540     23535     23538     23541     23539     23538     23540
     23539     23538     23541     23540     23538     23541     23492     23542     23543
     23492     23542     23544     23492     23542     23545     23543     23542     23544
     23543     23542     23545     23544     23542     23545     23542     23545     23546
     23542     23545     23547     23542     23545     23548     23546     23545     23547
     23546     23545     23548     23547     23545     23548     23545     23548     23549
     23545     23548     23550     23545     23548     23551     23549     23548     23550
     23549     23548     23551     23550     23548     23551     23548     23551     23552
     23548     23551     23553     23548     23551     23554     23552     23551     23553
     23552     23551     23554     23553     23551     23554     23551     23554     23555
     23551     23554     23556     23551     23554     23557     23555     23554     23556
     23555     23554     23557     23556     23554     23557     23554     23557     23558
     23554     23557     23559     23554     23557     23560     23558     23557     23559
     23558     23557     23560     23559     23557     23560     23557     23560     23561
     23557     23560     23562     23557     23560     23563     23561     23560     23562
     23561     23560     23563     23562     23560     23563     23560     23563     23564
     23560     23563     23565     23560     23563     23566     23564     23563     23565
     23564     23563     23566     23565     23563     23566     23563     23566     23567
     23563     23566     23568     23563     23566     23569     23567     23566     23568
     23567     23566     23569     23568     23566     23569     23566     23569     23570
     23566     23569     23571     23566     23569     23572     23570     23569     23571
     23570     23569     23572     23571     23569     23572     23569     23572     23573
     23569     23572     23574     23569     23572     23575     23573     23572     23574
     23573     23572     23575     23574     23572     23575     23572     23575     23576
     23572     23575     23577     23572     23575     23578     23576     23575     23577
     23576     23575     23578     23577     23575     23578     23575     23578     23579
     23575     23578     23580     23575     23578     23581     23579     23578     23580
     23579     23578     23581     23580     23578     23581     23578     23581     23582
     23578     23581     23583     23578     23581     23584     23582     23581     23583
     23582     23581     23584     23583     23581     23584     23586     23585     23589
     23586     23585     23593     23586     23585     23597     23589     23585     23593
     23589     23585     23597     23593     23585     23597     23585     23586     23587
     23585     23586     23588     23585     23586     23601     23587     23586     23588
     23587     23586     23601     23588     23586     23601     23585     23589     23590
     23585     23589     23591     23585     23589     23592     23590     23589     23591
     23590     23589     23592     23591     23589     23592     23585     23593     23594
     23585     23593     23595     23585     23593     23596     23594     23593     23595
     23594     23593     23596     23595     23593     23596     23585     23597     23598
     23585     23597     23599     23585     23597     23600     23598     23597     23599
     23598     23597     23600     23599     23597     23600     23586     23601     23602
     23586     23601     23603     23586     23601     23607     23602     23601     23603
     23602     23601     23607     23603     23601     23607     23605     23604     23606
     23605     23604     23607     23605     23604     23608     23606     23604     23607
     23606     23604     23608     23607     23604     23608     23601     23607     23604
     23604     23608     23609     23608     23609     23610     23608     23609     23611
     23608     23609     23612     23610     23609     23611     23610     23609     23612
     23611     23609     23612     23609     23612     23613     23609     23612     23614
     23609     23612     23620     23613     23612     23614     23613     23612     23620
     23614     23612     23620     23612     23614     23615     23614     23615     23616
     23614     23615     23617     23616     23615     23617     23615     23617     23618
     23615     23617     23619     23615     23617     23629     23618     23617     23619
     23618     23617     23629     23619     23617     23629     23612     23620     23621
     23612     23620     23622     23612     23620     23623     23621     23620     23622
     23621     23620     23623     23622     23620     23623     23620     23623     23624
     23623     23624     23625     23623     23624     23626     23625     23624     23626
     23624     23626     23627     23624     23626     23628     23624     23626     23676
     23627     23626     23628     23627     23626     23676     23628     23626     23676
     23617     23629     23630     23617     23629     23631     23617     23629     23632
     23630     23629     23631     23630     23629     23632     23631     23629     23632
     23629     23632     23633     23629     23632     23634     23629     23632     23635
     23633     23632     23634     23633     23632     23635     23634     23632     23635
     23632     23635     23636     23632     23635     23637     23632     23635     23638
     23636     23635     23637     23636     23635     23638     23637     23635     23638
     23635     23638     23639     23635     23638     23640     23635     23638     23641
     23639     23638     23640     23639     23638     23641     23640     23638     23641
     23638     23641     23642     23638     23641     23643     23638     23641     23644
     23642     23641     23643     23642     23641     23644     23643     23641     23644
     23641     23644     23645     23641     23644     23646     23641     23644     23647
     23645     23644     23646     23645     23644     23647     23646     23644     23647
     23644     23647     23648     23644     23647     23649     23648     23647     23649
     23647     23649     23650     23647     23649     23651     23650     23649     23651
     23649     23651     23652     23649     23651     23653     23649     23651     23654
     23652     23651     23653     23652     23651     23654     23653     23651     23654
     23651     23654     23655     23651     23654     23656     23651     23654     23657
     23655     23654     23656     23655     23654     23657     23656     23654     23657
     23654     23657     23658     23654     23657     23659     23654     23657     23660
     23658     23657     23659     23658     23657     23660     23659     23657     23660
     23657     23660     23661     23657     23660     23662     23657     23660     23663
     23661     23660     23662     23661     23660     23663     23662     23660     23663
     23660     23663     23664     23660     23663     23665     23660     23663     23666
     23664     23663     23665     23664     23663     23666     23665     23663     23666
     23663     23666     23667     23663     23666     23668     23663     23666     23669
     23667     23666     23668     23667     23666     23669     23668     23666     23669
     23666     23669     23670     23666     23669     23671     23666     23669     23672
     23670     23669     23671     23670     23669     23672     23671     23669     23672
     23669     23672     23673     23669     23672     23674     23669     23672     23675
     23673     23672     23674     23673     23672     23675     23674     23672     23675
     23626     23676     23677     23626     23676     23678     23626     23676     23679
     23677     23676     23678     23677     23676     23679     23678     23676     23679
     23676     23679     23680     23676     23679     23681     23676     23679     23682
     23680     23679     23681     23680     23679     23682     23681     23679     23682
     23679     23682     23683     23679     23682     23684     23679     23682     23685
     23683     23682     23684     23683     23682     23685     23684     23682     23685
     23682     23685     23686     23682     23685     23687     23682     23685     23688
     23686     23685     23687     23686     23685     23688     23687     23685     23688
     23685     23688     23689     23685     23688     23690     23685     23688     23691
     23689     23688     23690     23689     23688     23691     23690     23688     23691
     23688     23691     23692     23688     23691     23693     23688     23691     23694
     23692     23691     23693     23692     23691     23694     23693     23691     23694
     23691     23694     23695     23691     23694     23696     23691     23694     23697
     23695     23694     23696     23695     23694     23697     23696     23694     23697
     23694     23697     23698     23694     23697     23699     23694     23697     23700
     23698     23697     23699     23698     23697     23700     23699     23697     23700
     23697     23700     23701     23697     23700     23702     23697     23700     23703
     23701     23700     23702     23701     23700     23703     23702     23700     23703
     23700     23703     23704     23700     23703     23705     23700     23703     23706
     23704     23703     23705     23704     23703     23706     23705     23703     23706
     23703     23706     23707     23703     23706     23708     23703     23706     23709
     23707     23706     23708     23707     23706     23709     23708     23706     23709
     23706     23709     23710     23706     23709     23711     23706     23709     23712
     23710     23709     23711     23710     23709     23712     23711     23709     23712
     23709     23712     23713     23709     23712     23714     23709     23712     23715
     23713     23712     23714     23713     23712     23715     23714     23712     23715
     23712     23715     23716     23712     23715     23717     23712     23715     23718
     23716     23715     23717     23716     23715     23718     23717     23715     23718
     23720     23719     23723     23720     23719     23727     23720     23719     23731
     23723     23719     23727     23723     23719     23731     23727     23719     23731
     23719     23720     23721     23719     23720     23722     23719     23720     23735
     23721     23720     23722     23721     23720     23735     23722     23720     23735
     23719     23723     23724     23719     23723     23725     23719     23723     23726
     23724     23723     23725     23724     23723     23726     23725     23723     23726
     23719     23727     23728     23719     23727     23729     23719     23727     23730
     23728     23727     23729     23728     23727     23730     23729     23727     23730
     23719     23731     23732     23719     23731     23733     23719     23731     23734
     23732     23731     23733     23732     23731     23734     23733     23731     23734
     23720     23735     23736     23720     23735     23737     23720     23735     23741
     23736     23735     23737     23736     23735     23741     23737     23735     23741
     23739     23738     23740     23739     23738     23741     23739     23738     23742
     23740     23738     23741     23740     23738     23742     23741     23738     23742
     23735     23741     23738     23738     23742     23743     23742     23743     23744
     23742     23743     23745     23742     23743     23746     23744     23743     23745
     23744     23743     23746     23745     23743     23746     23743     23746     23747
     23743     23746     23748     23743     23746     23754     23747     23746     23748
     23747     23746     23754     23748     23746     23754     23746     23748     23749
     23748     23749     23750     23748     23749     23751     23750     23749     23751
     23749     23751     23752     23749     23751     23753     23749     23751     23763
     23752     23751     23753     23752     23751     23763     23753     23751     23763
     23746     23754     23755     23746     23754     23756     23746     23754     23757
     23755     23754     23756     23755     23754     23757     23756     23754     23757
     23754     23757     23758     23757     23758     23759     23757     23758     23760
     23759     23758     23760     23758     23760     23761     23758     23760     23762
     23758     23760     23810     23761     23760     23762     23761     23760     23810
     23762     23760     23810     23751     23763     23764     23751     23763     23765
     23751     23763     23766     23764     23763     23765     23764     23763     23766
     23765     23763     23766     23763     23766     23767     23763     23766     23768
     23763     23766     23769     23767     23766     23768     23767     23766     23769
     23768     23766     23769     23766     23769     23770     23766     23769     23771
     23766     23769     23772     23770     23769     23771     23770     23769     23772
     23771     23769     23772     23769     23772     23773     23769     23772     23774
     23769     23772     23775     23773     23772     23774     23773     23772     23775
     23774     23772     23775     23772     23775     23776     23772     23775     23777
     23772     23775     23778     23776     23775     23777     23776     23775     23778
     23777     23775     23778     23775     23778     23779     23775     23778     23780
     23775     23778     23781     23779     23778     23780     23779     23778     23781
     23780     23778     23781     23778     23781     23782     23778     23781     23783
     23782     23781     23783     23781     23783     23784     23781     23783     23785
     23784     23783     23785     23783     23785     23786     23783     23785     23787
     23783     23785     23788     23786     23785     23787     23786     23785     23788
     23787     23785     23788     23785     23788     23789     23785     23788     23790
     23785     23788     23791     23789     23788     23790     23789     23788     23791
     23790     23788     23791     23788     23791     23792     23788     23791     23793
     23788     23791     23794     23792     23791     23793     23792     23791     23794
     23793     23791     23794     23791     23794     23795     23791     23794     23796
     23791     23794     23797     23795     23794     23796     23795     23794     23797
     23796     23794     23797     23794     23797     23798     23794     23797     23799
     23794     23797     23800     23798     23797     23799     23798     23797     23800
     23799     23797     23800     23797     23800     23801     23797     23800     23802
     23797     23800     23803     23801     23800     23802     23801     23800     23803
     23802     23800     23803     23800     23803     23804     23800     23803     23805
     23800     23803     23806     23804     23803     23805     23804     23803     23806
     23805     23803     23806     23803     23806     23807     23803     23806     23808
     23803     23806     23809     23807     23806     23808     23807     23806     23809
     23808     23806     23809     23760     23810     23811     23760     23810     23812
     23760     23810     23813     23811     23810     23812     23811     23810     23813
     23812     23810     23813     23810     23813     23814     23810     23813     23815
     23810     23813     23816     23814     23813     23815     23814     23813     23816
     23815     23813     23816     23813     23816     23817     23813     23816     23818
     23813     23816     23819     23817     23816     23818     23817     23816     23819
     23818     23816     23819     23816     23819     23820     23816     23819     23821
     23816     23819     23822     23820     23819     23821     23820     23819     23822
     23821     23819     23822     23819     23822     23823     23819     23822     23824
     23819     23822     23825     23823     23822     23824     23823     23822     23825
     23824     23822     23825     23822     23825     23826     23822     23825     23827
     23822     23825     23828     23826     23825     23827     23826     23825     23828
     23827     23825     23828     23825     23828     23829     23825     23828     23830
     23825     23828     23831     23829     23828     23830     23829     23828     23831
     23830     23828     23831     23828     23831     23832     23828     23831     23833
     23828     23831     23834     23832     23831     23833     23832     23831     23834
     23833     23831     23834     23831     23834     23835     23831     23834     23836
     23831     23834     23837     23835     23834     23836     23835     23834     23837
     23836     23834     23837     23834     23837     23838     23834     23837     23839
     23834     23837     23840     23838     23837     23839     23838     23837     23840
     23839     23837     23840     23837     23840     23841     23837     23840     23842
     23837     23840     23843     23841     23840     23842     23841     23840     23843
     23842     23840     23843     23840     23843     23844     23840     23843     23845
     23840     23843     23846     23844     23843     23845     23844     23843     23846
     23845     23843     23846     23843     23846     23847     23843     23846     23848
     23843     23846     23849     23847     23846     23848     23847     23846     23849
     23848     23846     23849     23846     23849     23850     23846     23849     23851
     23846     23849     23852     23850     23849     23851     23850     23849     23852
     23851     23849     23852     23854     23853     23857     23854     23853     23861
     23854     23853     23865     23857     23853     23861     23857     23853     23865
     23861     23853     23865     23853     23854     23855     23853     23854     23856
     23853     23854     23869     23855     23854     23856     23855     23854     23869
     23856     23854     23869     23853     23857     23858     23853     23857     23859
     23853     23857     23860     23858     23857     23859     23858     23857     23860
     23859     23857     23860     23853     23861     23862     23853     23861     23863
     23853     23861     23864     23862     23861     23863     23862     23861     23864
     23863     23861     23864     23853     23865     23866     23853     23865     23867
     23853     23865     23868     23866     23865     23867     23866     23865     23868
     23867     23865     23868     23854     23869     23870     23854     23869     23871
     23854     23869     23875     23870     23869     23871     23870     23869     23875
     23871     23869     23875     23873     23872     23874     23873     23872     23875
     23873     23872     23876     23874     23872     23875     23874     23872     23876
     23875     23872     23876     23869     23875     23872     23872     23876     23877
     23876     23877     23878     23876     23877     23879     23876     23877     23880
     23878     23877     23879     23878     23877     23880     23879     23877     23880
     23877     23880     23881     23877     23880     23882     23877     23880     23888
     23881     23880     23882     23881     23880     23888     23882     23880     23888
     23880     23882     23883     23882     23883     23884     23882     23883     23885
     23884     23883     23885     23883     23885     23886     23883     23885     23887
     23883     23885     23897     23886     23885     23887     23886     23885     23897
     23887     23885     23897     23880     23888     23889     23880     23888     23890
     23880     23888     23891     23889     23888     23890     23889     23888     23891
     23890     23888     23891     23888     23891     23892     23891     23892     23893
     23891     23892     23894     23893     23892     23894     23892     23894     23895
     23892     23894     23896     23892     23894     23944     23895     23894     23896
     23895     23894     23944     23896     23894     23944     23885     23897     23898
     23885     23897     23899     23885     23897     23900     23898     23897     23899
     23898     23897     23900     23899     23897     23900     23897     23900     23901
     23897     23900     23902     23897     23900     23903     23901     23900     23902
     23901     23900     23903     23902     23900     23903     23900     23903     23904
     23900     23903     23905     23900     23903     23906     23904     23903     23905
     23904     23903     23906     23905     23903     23906     23903     23906     23907
     23903     23906     23908     23903     23906     23909     23907     23906     23908
     23907     23906     23909     23908     23906     23909     23906     23909     23910
     23906     23909     23911     23906     23909     23912     23910     23909     23911
     23910     23909     23912     23911     23909     23912     23909     23912     23913
     23909     23912     23914     23909     23912     23915     23913     23912     23914
     23913     23912     23915     23914     23912     23915     23912     23915     23916
     23912     23915     23917     23916     23915     23917     23915     23917     23918
     23915     23917     23919     23918     23917     23919     23917     23919     23920
     23917     23919     23921     23917     23919     23922     23920     23919     23921
     23920     23919     23922     23921     23919     23922     23919     23922     23923
     23919     23922     23924     23919     23922     23925     23923     23922     23924
     23923     23922     23925     23924     23922     23925     23922     23925     23926
     23922     23925     23927     23922     23925     23928     23926     23925     23927
     23926     23925     23928     23927     23925     23928     23925     23928     23929
     23925     23928     23930     23925     23928     23931     23929     23928     23930
     23929     23928     23931     23930     23928     23931     23928     23931     23932
     23928     23931     23933     23928     23931     23934     23932     23931     23933
     23932     23931     23934     23933     23931     23934     23931     23934     23935
     23931     23934     23936     23931     23934     23937     23935     23934     23936
     23935     23934     23937     23936     23934     23937     23934     23937     23938
     23934     23937     23939     23934     23937     23940     23938     23937     23939
     23938     23937     23940     23939     23937     23940     23937     23940     23941
     23937     23940     23942     23937     23940     23943     23941     23940     23942
     23941     23940     23943     23942     23940     23943     23894     23944     23945
     23894     23944     23946     23894     23944     23947     23945     23944     23946
     23945     23944     23947     23946     23944     23947     23944     23947     23948
     23944     23947     23949     23944     23947     23950     23948     23947     23949
     23948     23947     23950     23949     23947     23950     23947     23950     23951
     23947     23950     23952     23947     23950     23953     23951     23950     23952
     23951     23950     23953     23952     23950     23953     23950     23953     23954
     23950     23953     23955     23950     23953     23956     23954     23953     23955
     23954     23953     23956     23955     23953     23956     23953     23956     23957
     23953     23956     23958     23953     23956     23959     23957     23956     23958
     23957     23956     23959     23958     23956     23959     23956     23959     23960
     23956     23959     23961     23956     23959     23962     23960     23959     23961
     23960     23959     23962     23961     23959     23962     23959     23962     23963
     23959     23962     23964     23959     23962     23965     23963     23962     23964
     23963     23962     23965     23964     23962     23965     23962     23965     23966
     23962     23965     23967     23962     23965     23968     23966     23965     23967
     23966     23965     23968     23967     23965     23968     23965     23968     23969
     23965     23968     23970     23965     23968     23971     23969     23968     23970
     23969     23968     23971     23970     23968     23971     23968     23971     23972
     23968     23971     23973     23968     23971     23974     23972     23971     23973
     23972     23971     23974     23973     23971     23974     23971     23974     23975
     23971     23974     23976     23971     23974     23977     23975     23974     23976
     23975     23974     23977     23976     23974     23977     23974     23977     23978
     23974     23977     23979     23974     23977     23980     23978     23977     23979
     23978     23977     23980     23979     23977     23980     23977     23980     23981
     23977     23980     23982     23977     23980     23983     23981     23980     23982
     23981     23980     23983     23982     23980     23983     23980     23983     23984
     23980     23983     23985     23980     23983     23986     23984     23983     23985
     23984     23983     23986     23985     23983     23986     23988     23987     23991
     23988     23987     23995     23988     23987     23999     23991     23987     23995
     23991     23987     23999     23995     23987     23999     23987     23988     23989
     23987     23988     23990     23987     23988     24003     23989     23988     23990
     23989     23988     24003     23990     23988     24003     23987     23991     23992
     23987     23991     23993     23987     23991     23994     23992     23991     23993
     23992     23991     23994     23993     23991     23994     23987     23995     23996
     23987     23995     23997     23987     23995     23998     23996     23995     23997
     23996     23995     23998     23997     23995     23998     23987     23999     24000
     23987     23999     24001     23987     23999     24002     24000     23999     24001
     24000     23999     24002     24001     23999     24002     23988     24003     24004
     23988     24003     24005     23988     24003     24009     24004     24003     24005
     24004     24003     24009     24005     24003     24009     24007     24006     24008
     24007     24006     24009     24007     24006     24010     24008     24006     24009
     24008     24006     24010     24009     24006     24010     24003     24009     24006
     24006     24010     24011     24010     24011     24012     24010     24011     24013
     24010     24011     24014     24012     24011     24013     24012     24011     24014
     24013     24011     24014     24011     24014     24015     24011     24014     24016
     24011     24014     24022     24015     24014     24016     24015     24014     24022
     24016     24014     24022     24014     24016     24017     24016     24017     24018
     24016     24017     24019     24018     24017     24019     24017     24019     24020
     24017     24019     24021     24017     24019     24031     24020     24019     24021
     24020     24019     24031     24021     24019     24031     24014     24022     24023
     24014     24022     24024     24014     24022     24025     24023     24022     24024
     24023     24022     24025     24024     24022     24025     24022     24025     24026
     24025     24026     24027     24025     24026     24028     24027     24026     24028
     24026     24028     24029     24026     24028     24030     24026     24028     24078
     24029     24028     24030     24029     24028     24078     24030     24028     24078
     24019     24031     24032     24019     24031     24033     24019     24031     24034
     24032     24031     24033     24032     24031     24034     24033     24031     24034
     24031     24034     24035     24031     24034     24036     24031     24034     24037
     24035     24034     24036     24035     24034     24037     24036     24034     24037
     24034     24037     24038     24034     24037     24039     24034     24037     24040
     24038     24037     24039     24038     24037     24040     24039     24037     24040
     24037     24040     24041     24037     24040     24042     24037     24040     24043
     24041     24040     24042     24041     24040     24043     24042     24040     24043
     24040     24043     24044     24040     24043     24045     24040     24043     24046
     24044     24043     24045     24044     24043     24046     24045     24043     24046
     24043     24046     24047     24043     24046     24048     24043     24046     24049
     24047     24046     24048     24047     24046     24049     24048     24046     24049
     24046     24049     24050     24046     24049     24051     24050     24049     24051
     24049     24051     24052     24049     24051     24053     24052     24051     24053
     24051     24053     24054     24051     24053     24055     24051     24053     24056
     24054     24053     24055     24054     24053     24056     24055     24053     24056
     24053     24056     24057     24053     24056     24058     24053     24056     24059
     24057     24056     24058     24057     24056     24059     24058     24056     24059
     24056     24059     24060     24056     24059     24061     24056     24059     24062
     24060     24059     24061     24060     24059     24062     24061     24059     24062
     24059     24062     24063     24059     24062     24064     24059     24062     24065
     24063     24062     24064     24063     24062     24065     24064     24062     24065
     24062     24065     24066     24062     24065     24067     24062     24065     24068
     24066     24065     24067     24066     24065     24068     24067     24065     24068
     24065     24068     24069     24065     24068     24070     24065     24068     24071
     24069     24068     24070     24069     24068     24071     24070     24068     24071
     24068     24071     24072     24068     24071     24073     24068     24071     24074
     24072     24071     24073     24072     24071     24074     24073     24071     24074
     24071     24074     24075     24071     24074     24076     24071     24074     24077
     24075     24074     24076     24075     24074     24077     24076     24074     24077
     24028     24078     24079     24028     24078     24080     24028     24078     24081
     24079     24078     24080     24079     24078     24081     24080     24078     24081
     24078     24081     24082     24078     24081     24083     24078     24081     24084
     24082     24081     24083     24082     24081     24084     24083     24081     24084
     24081     24084     24085     24081     24084     24086     24081     24084     24087
     24085     24084     24086     24085     24084     24087     24086     24084     24087
     24084     24087     24088     24084     24087     24089     24084     24087     24090
     24088     24087     24089     24088     24087     24090     24089     24087     24090
     24087     24090     24091     24087     24090     24092     24087     24090     24093
     24091     24090     24092     24091     24090     24093     24092     24090     24093
     24090     24093     24094     24090     24093     24095     24090     24093     24096
     24094     24093     24095     24094     24093     24096     24095     24093     24096
     24093     24096     24097     24093     24096     24098     24093     24096     24099
     24097     24096     24098     24097     24096     24099     24098     24096     24099
     24096     24099     24100     24096     24099     24101     24096     24099     24102
     24100     24099     24101     24100     24099     24102     24101     24099     24102
     24099     24102     24103     24099     24102     24104     24099     24102     24105
     24103     24102     24104     24103     24102     24105     24104     24102     24105
     24102     24105     24106     24102     24105     24107     24102     24105     24108
     24106     24105     24107     24106     24105     24108     24107     24105     24108
     24105     24108     24109     24105     24108     24110     24105     24108     24111
     24109     24108     24110     24109     24108     24111     24110     24108     24111
     24108     24111     24112     24108     24111     24113     24108     24111     24114
     24112     24111     24113     24112     24111     24114     24113     24111     24114
     24111     24114     24115     24111     24114     24116     24111     24114     24117
     24115     24114     24116     24115     24114     24117     24116     24114     24117
     24114     24117     24118     24114     24117     24119     24114     24117     24120
     24118     24117     24119     24118     24117     24120     24119     24117     24120
     24122     24121     24125     24122     24121     24129     24122     24121     24133
     24125     24121     24129     24125     24121     24133     24129     24121     24133
     24121     24122     24123     24121     24122     24124     24121     24122     24137
     24123     24122     24124     24123     24122     24137     24124     24122     24137
     24121     24125     24126     24121     24125     24127     24121     24125     24128
     24126     24125     24127     24126     24125     24128     24127     24125     24128
     24121     24129     24130     24121     24129     24131     24121     24129     24132
     24130     24129     24131     24130     24129     24132     24131     24129     24132
     24121     24133     24134     24121     24133     24135     24121     24133     24136
     24134     24133     24135     24134     24133     24136     24135     24133     24136
     24122     24137     24138     24122     24137     24139     24122     24137     24143
     24138     24137     24139     24138     24137     24143     24139     24137     24143
     24141     24140     24142     24141     24140     24143     24141     24140     24144
     24142     24140     24143     24142     24140     24144     24143     24140     24144
     24137     24143     24140     24140     24144     24145     24144     24145     24146
     24144     24145     24147     24144     24145     24148     24146     24145     24147
     24146     24145     24148     24147     24145     24148     24145     24148     24149
     24145     24148     24150     24145     24148     24156     24149     24148     24150
     24149     24148     24156     24150     24148     24156     24148     24150     24151
     24150     24151     24152     24150     24151     24153     24152     24151     24153
     24151     24153     24154     24151     24153     24155     24151     24153     24165
     24154     24153     24155     24154     24153     24165     24155     24153     24165
     24148     24156     24157     24148     24156     24158     24148     24156     24159
     24157     24156     24158     24157     24156     24159     24158     24156     24159
     24156     24159     24160     24159     24160     24161     24159     24160     24162
     24161     24160     24162     24160     24162     24163     24160     24162     24164
     24160     24162     24212     24163     24162     24164     24163     24162     24212
     24164     24162     24212     24153     24165     24166     24153     24165     24167
     24153     24165     24168     24166     24165     24167     24166     24165     24168
     24167     24165     24168     24165     24168     24169     24165     24168     24170
     24165     24168     24171     24169     24168     24170     24169     24168     24171
     24170     24168     24171     24168     24171     24172     24168     24171     24173
     24168     24171     24174     24172     24171     24173     24172     24171     24174
     24173     24171     24174     24171     24174     24175     24171     24174     24176
     24171     24174     24177     24175     24174     24176     24175     24174     24177
     24176     24174     24177     24174     24177     24178     24174     24177     24179
     24174     24177     24180     24178     24177     24179     24178     24177     24180
     24179     24177     24180     24177     24180     24181     24177     24180     24182
     24177     24180     24183     24181     24180     24182     24181     24180     24183
     24182     24180     24183     24180     24183     24184     24180     24183     24185
     24184     24183     24185     24183     24185     24186     24183     24185     24187
     24186     24185     24187     24185     24187     24188     24185     24187     24189
     24185     24187     24190     24188     24187     24189     24188     24187     24190
     24189     24187     24190     24187     24190     24191     24187     24190     24192
     24187     24190     24193     24191     24190     24192     24191     24190     24193
     24192     24190     24193     24190     24193     24194     24190     24193     24195
     24190     24193     24196     24194     24193     24195     24194     24193     24196
     24195     24193     24196     24193     24196     24197     24193     24196     24198
     24193     24196     24199     24197     24196     24198     24197     24196     24199
     24198     24196     24199     24196     24199     24200     24196     24199     24201
     24196     24199     24202     24200     24199     24201     24200     24199     24202
     24201     24199     24202     24199     24202     24203     24199     24202     24204
     24199     24202     24205     24203     24202     24204     24203     24202     24205
     24204     24202     24205     24202     24205     24206     24202     24205     24207
     24202     24205     24208     24206     24205     24207     24206     24205     24208
     24207     24205     24208     24205     24208     24209     24205     24208     24210
     24205     24208     24211     24209     24208     24210     24209     24208     24211
     24210     24208     24211     24162     24212     24213     24162     24212     24214
     24162     24212     24215     24213     24212     24214     24213     24212     24215
     24214     24212     24215     24212     24215     24216     24212     24215     24217
     24212     24215     24218     24216     24215     24217     24216     24215     24218
     24217     24215     24218     24215     24218     24219     24215     24218     24220
     24215     24218     24221     24219     24218     24220     24219     24218     24221
     24220     24218     24221     24218     24221     24222     24218     24221     24223
     24218     24221     24224     24222     24221     24223     24222     24221     24224
     24223     24221     24224     24221     24224     24225     24221     24224     24226
     24221     24224     24227     24225     24224     24226     24225     24224     24227
     24226     24224     24227     24224     24227     24228     24224     24227     24229
     24224     24227     24230     24228     24227     24229     24228     24227     24230
     24229     24227     24230     24227     24230     24231     24227     24230     24232
     24227     24230     24233     24231     24230     24232     24231     24230     24233
     24232     24230     24233     24230     24233     24234     24230     24233     24235
     24230     24233     24236     24234     24233     24235     24234     24233     24236
     24235     24233     24236     24233     24236     24237     24233     24236     24238
     24233     24236     24239     24237     24236     24238     24237     24236     24239
     24238     24236     24239     24236     24239     24240     24236     24239     24241
     24236     24239     24242     24240     24239     24241     24240     24239     24242
     24241     24239     24242     24239     24242     24243     24239     24242     24244
     24239     24242     24245     24243     24242     24244     24243     24242     24245
     24244     24242     24245     24242     24245     24246     24242     24245     24247
     24242     24245     24248     24246     24245     24247     24246     24245     24248
     24247     24245     24248     24245     24248     24249     24245     24248     24250
     24245     24248     24251     24249     24248     24250     24249     24248     24251
     24250     24248     24251     24248     24251     24252     24248     24251     24253
     24248     24251     24254     24252     24251     24253     24252     24251     24254
     24253     24251     24254     24256     24255     24259     24256     24255     24263
     24256     24255     24267     24259     24255     24263     24259     24255     24267
     24263     24255     24267     24255     24256     24257     24255     24256     24258
     24255     24256     24271     24257     24256     24258     24257     24256     24271
     24258     24256     24271     24255     24259     24260     24255     24259     24261
     24255     24259     24262     24260     24259     24261     24260     24259     24262
     24261     24259     24262     24255     24263     24264     24255     24263     24265
     24255     24263     24266     24264     24263     24265     24264     24263     24266
     24265     24263     24266     24255     24267     24268     24255     24267     24269
     24255     24267     24270     24268     24267     24269     24268     24267     24270
     24269     24267     24270     24256     24271     24272     24256     24271     24273
     24256     24271     24277     24272     24271     24273     24272     24271     24277
     24273     24271     24277     24275     24274     24276     24275     24274     24277
     24275     24274     24278     24276     24274     24277     24276     24274     24278
     24277     24274     24278     24271     24277     24274     24274     24278     24279
     24278     24279     24280     24278     24279     24281     24278     24279     24282
     24280     24279     24281     24280     24279     24282     24281     24279     24282
     24279     24282     24283     24279     24282     24284     24279     24282     24290
     24283     24282     24284     24283     24282     24290     24284     24282     24290
     24282     24284     24285     24284     24285     24286     24284     24285     24287
     24286     24285     24287     24285     24287     24288     24285     24287     24289
     24285     24287     24299     24288     24287     24289     24288     24287     24299
     24289     24287     24299     24282     24290     24291     24282     24290     24292
     24282     24290     24293     24291     24290     24292     24291     24290     24293
     24292     24290     24293     24290     24293     24294     24293     24294     24295
     24293     24294     24296     24295     24294     24296     24294     24296     24297
     24294     24296     24298     24294     24296     24346     24297     24296     24298
     24297     24296     24346     24298     24296     24346     24287     24299     24300
     24287     24299     24301     24287     24299     24302     24300     24299     24301
     24300     24299     24302     24301     24299     24302     24299     24302     24303
     24299     24302     24304     24299     24302     24305     24303     24302     24304
     24303     24302     24305     24304     24302     24305     24302     24305     24306
     24302     24305     24307     24302     24305     24308     24306     24305     24307
     24306     24305     24308     24307     24305     24308     24305     24308     24309
     24305     24308     24310     24305     24308     24311     24309     24308     24310
     24309     24308     24311     24310     24308     24311     24308     24311     24312
     24308     24311     24313     24308     24311     24314     24312     24311     24313
     24312     24311     24314     24313     24311     24314     24311     24314     24315
     24311     24314     24316     24311     24314     24317     24315     24314     24316
     24315     24314     24317     24316     24314     24317     24314     24317     24318
     24314     24317     24319     24318     24317     24319     24317     24319     24320
     24317     24319     24321     24320     24319     24321     24319     24321     24322
     24319     24321     24323     24319     24321     24324     24322     24321     24323
     24322     24321     24324     24323     24321     24324     24321     24324     24325
     24321     24324     24326     24321     24324     24327     24325     24324     24326
     24325     24324     24327     24326     24324     24327     24324     24327     24328
     24324     24327     24329     24324     24327     24330     24328     24327     24329
     24328     24327     24330     24329     24327     24330     24327     24330     24331
     24327     24330     24332     24327     24330     24333     24331     24330     24332
     24331     24330     24333     24332     24330     24333     24330     24333     24334
     24330     24333     24335     24330     24333     24336     24334     24333     24335
     24334     24333     24336     24335     24333     24336     24333     24336     24337
     24333     24336     24338     24333     24336     24339     24337     24336     24338
     24337     24336     24339     24338     24336     24339     24336     24339     24340
     24336     24339     24341     24336     24339     24342     24340     24339     24341
     24340     24339     24342     24341     24339     24342     24339     24342     24343
     24339     24342     24344     24339     24342     24345     24343     24342     24344
     24343     24342     24345     24344     24342     24345     24296     24346     24347
     24296     24346     24348     24296     24346     24349     24347     24346     24348
     24347     24346     24349     24348     24346     24349     24346     24349     24350
     24346     24349     24351     24346     24349     24352     24350     24349     24351
     24350     24349     24352     24351     24349     24352     24349     24352     24353
     24349     24352     24354     24349     24352     24355     24353     24352     24354
     24353     24352     24355     24354     24352     24355     24352     24355     24356
     24352     24355     24357     24352     24355     24358     24356     24355     24357
     24356     24355     24358     24357     24355     24358     24355     24358     24359
     24355     24358     24360     24355     24358     24361     24359     24358     24360
     24359     24358     24361     24360     24358     24361     24358     24361     24362
     24358     24361     24363     24358     24361     24364     24362     24361     24363
     24362     24361     24364     24363     24361     24364     24361     24364     24365
     24361     24364     24366     24361     24364     24367     24365     24364     24366
     24365     24364     24367     24366     24364     24367     24364     24367     24368
     24364     24367     24369     24364     24367     24370     24368     24367     24369
     24368     24367     24370     24369     24367     24370     24367     24370     24371
     24367     24370     24372     24367     24370     24373     24371     24370     24372
     24371     24370     24373     24372     24370     24373     24370     24373     24374
     24370     24373     24375     24370     24373     24376     24374     24373     24375
     24374     24373     24376     24375     24373     24376     24373     24376     24377
     24373     24376     24378     24373     24376     24379     24377     24376     24378
     24377     24376     24379     24378     24376     24379     24376     24379     24380
     24376     24379     24381     24376     24379     24382     24380     24379     24381
     24380     24379     24382     24381     24379     24382     24379     24382     24383
     24379     24382     24384     24379     24382     24385     24383     24382     24384
     24383     24382     24385     24384     24382     24385     24382     24385     24386
     24382     24385     24387     24382     24385     24388     24386     24385     24387
     24386     24385     24388     24387     24385     24388     24390     24389     24393
     24390     24389     24397     24390     24389     24401     24393     24389     24397
     24393     24389     24401     24397     24389     24401     24389     24390     24391
     24389     24390     24392     24389     24390     24405     24391     24390     24392
     24391     24390     24405     24392     24390     24405     24389     24393     24394
     24389     24393     24395     24389     24393     24396     24394     24393     24395
     24394     24393     24396     24395     24393     24396     24389     24397     24398
     24389     24397     24399     24389     24397     24400     24398     24397     24399
     24398     24397     24400     24399     24397     24400     24389     24401     24402
     24389     24401     24403     24389     24401     24404     24402     24401     24403
     24402     24401     24404     24403     24401     24404     24390     24405     24406
     24390     24405     24407     24390     24405     24411     24406     24405     24407
     24406     24405     24411     24407     24405     24411     24409     24408     24410
     24409     24408     24411     24409     24408     24412     24410     24408     24411
     24410     24408     24412     24411     24408     24412     24405     24411     24408
     24408     24412     24413     24412     24413     24414     24412     24413     24415
     24412     24413     24416     24414     24413     24415     24414     24413     24416
     24415     24413     24416     24413     24416     24417     24413     24416     24418
     24413     24416     24424     24417     24416     24418     24417     24416     24424
     24418     24416     24424     24416     24418     24419     24418     24419     24420
     24418     24419     24421     24420     24419     24421     24419     24421     24422
     24419     24421     24423     24419     24421     24433     24422     24421     24423
     24422     24421     24433     24423     24421     24433     24416     24424     24425
     24416     24424     24426     24416     24424     24427     24425     24424     24426
     24425     24424     24427     24426     24424     24427     24424     24427     24428
     24427     24428     24429     24427     24428     24430     24429     24428     24430
     24428     24430     24431     24428     24430     24432     24428     24430     24480
     24431     24430     24432     24431     24430     24480     24432     24430     24480
     24421     24433     24434     24421     24433     24435     24421     24433     24436
     24434     24433     24435     24434     24433     24436     24435     24433     24436
     24433     24436     24437     24433     24436     24438     24433     24436     24439
     24437     24436     24438     24437     24436     24439     24438     24436     24439
     24436     24439     24440     24436     24439     24441     24436     24439     24442
     24440     24439     24441     24440     24439     24442     24441     24439     24442
     24439     24442     24443     24439     24442     24444     24439     24442     24445
     24443     24442     24444     24443     24442     24445     24444     24442     24445
     24442     24445     24446     24442     24445     24447     24442     24445     24448
     24446     24445     24447     24446     24445     24448     24447     24445     24448
     24445     24448     24449     24445     24448     24450     24445     24448     24451
     24449     24448     24450     24449     24448     24451     24450     24448     24451
     24448     24451     24452     24448     24451     24453     24452     24451     24453
     24451     24453     24454     24451     24453     24455     24454     24453     24455
     24453     24455     24456     24453     24455     24457     24453     24455     24458
     24456     24455     24457     24456     24455     24458     24457     24455     24458
     24455     24458     24459     24455     24458     24460     24455     24458     24461
     24459     24458     24460     24459     24458     24461     24460     24458     24461
     24458     24461     24462     24458     24461     24463     24458     24461     24464
     24462     24461     24463     24462     24461     24464     24463     24461     24464
     24461     24464     24465     24461     24464     24466     24461     24464     24467
     24465     24464     24466     24465     24464     24467     24466     24464     24467
     24464     24467     24468     24464     24467     24469     24464     24467     24470
     24468     24467     24469     24468     24467     24470     24469     24467     24470
     24467     24470     24471     24467     24470     24472     24467     24470     24473
     24471     24470     24472     24471     24470     24473     24472     24470     24473
     24470     24473     24474     24470     24473     24475     24470     24473     24476
     24474     24473     24475     24474     24473     24476     24475     24473     24476
     24473     24476     24477     24473     24476     24478     24473     24476     24479
     24477     24476     24478     24477     24476     24479     24478     24476     24479
     24430     24480     24481     24430     24480     24482     24430     24480     24483
     24481     24480     24482     24481     24480     24483     24482     24480     24483
     24480     24483     24484     24480     24483     24485     24480     24483     24486
     24484     24483     24485     24484     24483     24486     24485     24483     24486
     24483     24486     24487     24483     24486     24488     24483     24486     24489
     24487     24486     24488     24487     24486     24489     24488     24486     24489
     24486     24489     24490     24486     24489     24491     24486     24489     24492
     24490     24489     24491     24490     24489     24492     24491     24489     24492
     24489     24492     24493     24489     24492     24494     24489     24492     24495
     24493     24492     24494     24493     24492     24495     24494     24492     24495
     24492     24495     24496     24492     24495     24497     24492     24495     24498
     24496     24495     24497     24496     24495     24498     24497     24495     24498
     24495     24498     24499     24495     24498     24500     24495     24498     24501
     24499     24498     24500     24499     24498     24501     24500     24498     24501
     24498     24501     24502     24498     24501     24503     24498     24501     24504
     24502     24501     24503     24502     24501     24504     24503     24501     24504
     24501     24504     24505     24501     24504     24506     24501     24504     24507
     24505     24504     24506     24505     24504     24507     24506     24504     24507
     24504     24507     24508     24504     24507     24509     24504     24507     24510
     24508     24507     24509     24508     24507     24510     24509     24507     24510
     24507     24510     24511     24507     24510     24512     24507     24510     24513
     24511     24510     24512     24511     24510     24513     24512     24510     24513
     24510     24513     24514     24510     24513     24515     24510     24513     24516
     24514     24513     24515     24514     24513     24516     24515     24513     24516
     24513     24516     24517     24513     24516     24518     24513     24516     24519
     24517     24516     24518     24517     24516     24519     24518     24516     24519
     24516     24519     24520     24516     24519     24521     24516     24519     24522
     24520     24519     24521     24520     24519     24522     24521     24519     24522
     24524     24523     24527     24524     24523     24531     24524     24523     24535
     24527     24523     24531     24527     24523     24535     24531     24523     24535
     24523     24524     24525     24523     24524     24526     24523     24524     24539
     24525     24524     24526     24525     24524     24539     24526     24524     24539
     24523     24527     24528     24523     24527     24529     24523     24527     24530
     24528     24527     24529     24528     24527     24530     24529     24527     24530
     24523     24531     24532     24523     24531     24533     24523     24531     24534
     24532     24531     24533     24532     24531     24534     24533     24531     24534
     24523     24535     24536     24523     24535     24537     24523     24535     24538
     24536     24535     24537     24536     24535     24538     24537     24535     24538
     24524     24539     24540     24524     24539     24541     24524     24539     24545
     24540     24539     24541     24540     24539     24545     24541     24539     24545
     24543     24542     24544     24543     24542     24545     24543     24542     24546
     24544     24542     24545     24544     24542     24546     24545     24542     24546
     24539     24545     24542     24542     24546     24547     24546     24547     24548
     24546     24547     24549     24546     24547     24550     24548     24547     24549
     24548     24547     24550     24549     24547     24550     24547     24550     24551
     24547     24550     24552     24547     24550     24558     24551     24550     24552
     24551     24550     24558     24552     24550     24558     24550     24552     24553
     24552     24553     24554     24552     24553     24555     24554     24553     24555
     24553     24555     24556     24553     24555     24557     24553     24555     24567
     24556     24555     24557     24556     24555     24567     24557     24555     24567
     24550     24558     24559     24550     24558     24560     24550     24558     24561
     24559     24558     24560     24559     24558     24561     24560     24558     24561
     24558     24561     24562     24561     24562     24563     24561     24562     24564
     24563     24562     24564     24562     24564     24565     24562     24564     24566
     24562     24564     24614     24565     24564     24566     24565     24564     24614
     24566     24564     24614     24555     24567     24568     24555     24567     24569
     24555     24567     24570     24568     24567     24569     24568     24567     24570
     24569     24567     24570     24567     24570     24571     24567     24570     24572
     24567     24570     24573     24571     24570     24572     24571     24570     24573
     24572     24570     24573     24570     24573     24574     24570     24573     24575
     24570     24573     24576     24574     24573     24575     24574     24573     24576
     24575     24573     24576     24573     24576     24577     24573     24576     24578
     24573     24576     24579     24577     24576     24578     24577     24576     24579
     24578     24576     24579     24576     24579     24580     24576     24579     24581
     24576     24579     24582     24580     24579     24581     24580     24579     24582
     24581     24579     24582     24579     24582     24583     24579     24582     24584
     24579     24582     24585     24583     24582     24584     24583     24582     24585
     24584     24582     24585     24582     24585     24586     24582     24585     24587
     24586     24585     24587     24585     24587     24588     24585     24587     24589
     24588     24587     24589     24587     24589     24590     24587     24589     24591
     24587     24589     24592     24590     24589     24591     24590     24589     24592
     24591     24589     24592     24589     24592     24593     24589     24592     24594
     24589     24592     24595     24593     24592     24594     24593     24592     24595
     24594     24592     24595     24592     24595     24596     24592     24595     24597
     24592     24595     24598     24596     24595     24597     24596     24595     24598
     24597     24595     24598     24595     24598     24599     24595     24598     24600
     24595     24598     24601     24599     24598     24600     24599     24598     24601
     24600     24598     24601     24598     24601     24602     24598     24601     24603
     24598     24601     24604     24602     24601     24603     24602     24601     24604
     24603     24601     24604     24601     24604     24605     24601     24604     24606
     24601     24604     24607     24605     24604     24606     24605     24604     24607
     24606     24604     24607     24604     24607     24608     24604     24607     24609
     24604     24607     24610     24608     24607     24609     24608     24607     24610
     24609     24607     24610     24607     24610     24611     24607     24610     24612
     24607     24610     24613     24611     24610     24612     24611     24610     24613
     24612     24610     24613     24564     24614     24615     24564     24614     24616
     24564     24614     24617     24615     24614     24616     24615     24614     24617
     24616     24614     24617     24614     24617     24618     24614     24617     24619
     24614     24617     24620     24618     24617     24619     24618     24617     24620
     24619     24617     24620     24617     24620     24621     24617     24620     24622
     24617     24620     24623     24621     24620     24622     24621     24620     24623
     24622     24620     24623     24620     24623     24624     24620     24623     24625
     24620     24623     24626     24624     24623     24625     24624     24623     24626
     24625     24623     24626     24623     24626     24627     24623     24626     24628
     24623     24626     24629     24627     24626     24628     24627     24626     24629
     24628     24626     24629     24626     24629     24630     24626     24629     24631
     24626     24629     24632     24630     24629     24631     24630     24629     24632
     24631     24629     24632     24629     24632     24633     24629     24632     24634
     24629     24632     24635     24633     24632     24634     24633     24632     24635
     24634     24632     24635     24632     24635     24636     24632     24635     24637
     24632     24635     24638     24636     24635     24637     24636     24635     24638
     24637     24635     24638     24635     24638     24639     24635     24638     24640
     24635     24638     24641     24639     24638     24640     24639     24638     24641
     24640     24638     24641     24638     24641     24642     24638     24641     24643
     24638     24641     24644     24642     24641     24643     24642     24641     24644
     24643     24641     24644     24641     24644     24645     24641     24644     24646
     24641     24644     24647     24645     24644     24646     24645     24644     24647
     24646     24644     24647     24644     24647     24648     24644     24647     24649
     24644     24647     24650     24648     24647     24649     24648     24647     24650
     24649     24647     24650     24647     24650     24651     24647     24650     24652
     24647     24650     24653     24651     24650     24652     24651     24650     24653
     24652     24650     24653     24650     24653     24654     24650     24653     24655
     24650     24653     24656     24654     24653     24655     24654     24653     24656
     24655     24653     24656     24658     24657     24661     24658     24657     24665
     24658     24657     24669     24661     24657     24665     24661     24657     24669
     24665     24657     24669     24657     24658     24659     24657     24658     24660
     24657     24658     24673     24659     24658     24660     24659     24658     24673
     24660     24658     24673     24657     24661     24662     24657     24661     24663
     24657     24661     24664     24662     24661     24663     24662     24661     24664
     24663     24661     24664     24657     24665     24666     24657     24665     24667
     24657     24665     24668     24666     24665     24667     24666     24665     24668
     24667     24665     24668     24657     24669     24670     24657     24669     24671
     24657     24669     24672     24670     24669     24671     24670     24669     24672
     24671     24669     24672     24658     24673     24674     24658     24673     24675
     24658     24673     24679     24674     24673     24675     24674     24673     24679
     24675     24673     24679     24677     24676     24678     24677     24676     24679
     24677     24676     24680     24678     24676     24679     24678     24676     24680
     24679     24676     24680     24673     24679     24676     24676     24680     24681
     24680     24681     24682     24680     24681     24683     24680     24681     24684
     24682     24681     24683     24682     24681     24684     24683     24681     24684
     24681     24684     24685     24681     24684     24686     24681     24684     24692
     24685     24684     24686     24685     24684     24692     24686     24684     24692
     24684     24686     24687     24686     24687     24688     24686     24687     24689
     24688     24687     24689     24687     24689     24690     24687     24689     24691
     24687     24689     24701     24690     24689     24691     24690     24689     24701
     24691     24689     24701     24684     24692     24693     24684     24692     24694
     24684     24692     24695     24693     24692     24694     24693     24692     24695
     24694     24692     24695     24692     24695     24696     24695     24696     24697
     24695     24696     24698     24697     24696     24698     24696     24698     24699
     24696     24698     24700     24696     24698     24748     24699     24698     24700
     24699     24698     24748     24700     24698     24748     24689     24701     24702
     24689     24701     24703     24689     24701     24704     24702     24701     24703
     24702     24701     24704     24703     24701     24704     24701     24704     24705
     24701     24704     24706     24701     24704     24707     24705     24704     24706
     24705     24704     24707     24706     24704     24707     24704     24707     24708
     24704     24707     24709     24704     24707     24710     24708     24707     24709
     24708     24707     24710     24709     24707     24710     24707     24710     24711
     24707     24710     24712     24707     24710     24713     24711     24710     24712
     24711     24710     24713     24712     24710     24713     24710     24713     24714
     24710     24713     24715     24710     24713     24716     24714     24713     24715
     24714     24713     24716     24715     24713     24716     24713     24716     24717
     24713     24716     24718     24713     24716     24719     24717     24716     24718
     24717     24716     24719     24718     24716     24719     24716     24719     24720
     24716     24719     24721     24720     24719     24721     24719     24721     24722
     24719     24721     24723     24722     24721     24723     24721     24723     24724
     24721     24723     24725     24721     24723     24726     24724     24723     24725
     24724     24723     24726     24725     24723     24726     24723     24726     24727
     24723     24726     24728     24723     24726     24729     24727     24726     24728
     24727     24726     24729     24728     24726     24729     24726     24729     24730
     24726     24729     24731     24726     24729     24732     24730     24729     24731
     24730     24729     24732     24731     24729     24732     24729     24732     24733
     24729     24732     24734     24729     24732     24735     24733     24732     24734
     24733     24732     24735     24734     24732     24735     24732     24735     24736
     24732     24735     24737     24732     24735     24738     24736     24735     24737
     24736     24735     24738     24737     24735     24738     24735     24738     24739
     24735     24738     24740     24735     24738     24741     24739     24738     24740
     24739     24738     24741     24740     24738     24741     24738     24741     24742
     24738     24741     24743     24738     24741     24744     24742     24741     24743
     24742     24741     24744     24743     24741     24744     24741     24744     24745
     24741     24744     24746     24741     24744     24747     24745     24744     24746
     24745     24744     24747     24746     24744     24747     24698     24748     24749
     24698     24748     24750     24698     24748     24751     24749     24748     24750
     24749     24748     24751     24750     24748     24751     24748     24751     24752
     24748     24751     24753     24748     24751     24754     24752     24751     24753
     24752     24751     24754     24753     24751     24754     24751     24754     24755
     24751     24754     24756     24751     24754     24757     24755     24754     24756
     24755     24754     24757     24756     24754     24757     24754     24757     24758
     24754     24757     24759     24754     24757     24760     24758     24757     24759
     24758     24757     24760     24759     24757     24760     24757     24760     24761
     24757     24760     24762     24757     24760     24763     24761     24760     24762
     24761     24760     24763     24762     24760     24763     24760     24763     24764
     24760     24763     24765     24760     24763     24766     24764     24763     24765
     24764     24763     24766     24765     24763     24766     24763     24766     24767
     24763     24766     24768     24763     24766     24769     24767     24766     24768
     24767     24766     24769     24768     24766     24769     24766     24769     24770
     24766     24769     24771     24766     24769     24772     24770     24769     24771
     24770     24769     24772     24771     24769     24772     24769     24772     24773
     24769     24772     24774     24769     24772     24775     24773     24772     24774
     24773     24772     24775     24774     24772     24775     24772     24775     24776
     24772     24775     24777     24772     24775     24778     24776     24775     24777
     24776     24775     24778     24777     24775     24778     24775     24778     24779
     24775     24778     24780     24775     24778     24781     24779     24778     24780
     24779     24778     24781     24780     24778     24781     24778     24781     24782
     24778     24781     24783     24778     24781     24784     24782     24781     24783
     24782     24781     24784     24783     24781     24784     24781     24784     24785
     24781     24784     24786     24781     24784     24787     24785     24784     24786
     24785     24784     24787     24786     24784     24787     24784     24787     24788
     24784     24787     24789     24784     24787     24790     24788     24787     24789
     24788     24787     24790     24789     24787     24790     24792     24791     24795
     24792     24791     24799     24792     24791     24803     24795     24791     24799
     24795     24791     24803     24799     24791     24803     24791     24792     24793
     24791     24792     24794     24791     24792     24807     24793     24792     24794
     24793     24792     24807     24794     24792     24807     24791     24795     24796
     24791     24795     24797     24791     24795     24798     24796     24795     24797
     24796     24795     24798     24797     24795     24798     24791     24799     24800
     24791     24799     24801     24791     24799     24802     24800     24799     24801
     24800     24799     24802     24801     24799     24802     24791     24803     24804
     24791     24803     24805     24791     24803     24806     24804     24803     24805
     24804     24803     24806     24805     24803     24806     24792     24807     24808
     24792     24807     24809     24792     24807     24813     24808     24807     24809
     24808     24807     24813     24809     24807     24813     24811     24810     24812
     24811     24810     24813     24811     24810     24814     24812     24810     24813
     24812     24810     24814     24813     24810     24814     24807     24813     24810
     24810     24814     24815     24814     24815     24816     24814     24815     24817
     24814     24815     24818     24816     24815     24817     24816     24815     24818
     24817     24815     24818     24815     24818     24819     24815     24818     24820
     24815     24818     24826     24819     24818     24820     24819     24818     24826
     24820     24818     24826     24818     24820     24821     24820     24821     24822
     24820     24821     24823     24822     24821     24823     24821     24823     24824
     24821     24823     24825     24821     24823     24835     24824     24823     24825
     24824     24823     24835     24825     24823     24835     24818     24826     24827
     24818     24826     24828     24818     24826     24829     24827     24826     24828
     24827     24826     24829     24828     24826     24829     24826     24829     24830
     24829     24830     24831     24829     24830     24832     24831     24830     24832
     24830     24832     24833     24830     24832     24834     24830     24832     24882
     24833     24832     24834     24833     24832     24882     24834     24832     24882
     24823     24835     24836     24823     24835     24837     24823     24835     24838
     24836     24835     24837     24836     24835     24838     24837     24835     24838
     24835     24838     24839     24835     24838     24840     24835     24838     24841
     24839     24838     24840     24839     24838     24841     24840     24838     24841
     24838     24841     24842     24838     24841     24843     24838     24841     24844
     24842     24841     24843     24842     24841     24844     24843     24841     24844
     24841     24844     24845     24841     24844     24846     24841     24844     24847
     24845     24844     24846     24845     24844     24847     24846     24844     24847
     24844     24847     24848     24844     24847     24849     24844     24847     24850
     24848     24847     24849     24848     24847     24850     24849     24847     24850
     24847     24850     24851     24847     24850     24852     24847     24850     24853
     24851     24850     24852     24851     24850     24853     24852     24850     24853
     24850     24853     24854     24850     24853     24855     24854     24853     24855
     24853     24855     24856     24853     24855     24857     24856     24855     24857
     24855     24857     24858     24855     24857     24859     24855     24857     24860
     24858     24857     24859     24858     24857     24860     24859     24857     24860
     24857     24860     24861     24857     24860     24862     24857     24860     24863
     24861     24860     24862     24861     24860     24863     24862     24860     24863
     24860     24863     24864     24860     24863     24865     24860     24863     24866
     24864     24863     24865     24864     24863     24866     24865     24863     24866
     24863     24866     24867     24863     24866     24868     24863     24866     24869
     24867     24866     24868     24867     24866     24869     24868     24866     24869
     24866     24869     24870     24866     24869     24871     24866     24869     24872
     24870     24869     24871     24870     24869     24872     24871     24869     24872
     24869     24872     24873     24869     24872     24874     24869     24872     24875
     24873     24872     24874     24873     24872     24875     24874     24872     24875
     24872     24875     24876     24872     24875     24877     24872     24875     24878
     24876     24875     24877     24876     24875     24878     24877     24875     24878
     24875     24878     24879     24875     24878     24880     24875     24878     24881
     24879     24878     24880     24879     24878     24881     24880     24878     24881
     24832     24882     24883     24832     24882     24884     24832     24882     24885
     24883     24882     24884     24883     24882     24885     24884     24882     24885
     24882     24885     24886     24882     24885     24887     24882     24885     24888
     24886     24885     24887     24886     24885     24888     24887     24885     24888
     24885     24888     24889     24885     24888     24890     24885     24888     24891
     24889     24888     24890     24889     24888     24891     24890     24888     24891
     24888     24891     24892     24888     24891     24893     24888     24891     24894
     24892     24891     24893     24892     24891     24894     24893     24891     24894
     24891     24894     24895     24891     24894     24896     24891     24894     24897
     24895     24894     24896     24895     24894     24897     24896     24894     24897
     24894     24897     24898     24894     24897     24899     24894     24897     24900
     24898     24897     24899     24898     24897     24900     24899     24897     24900
     24897     24900     24901     24897     24900     24902     24897     24900     24903
     24901     24900     24902     24901     24900     24903     24902     24900     24903
     24900     24903     24904     24900     24903     24905     24900     24903     24906
     24904     24903     24905     24904     24903     24906     24905     24903     24906
     24903     24906     24907     24903     24906     24908     24903     24906     24909
     24907     24906     24908     24907     24906     24909     24908     24906     24909
     24906     24909     24910     24906     24909     24911     24906     24909     24912
     24910     24909     24911     24910     24909     24912     24911     24909     24912
     24909     24912     24913     24909     24912     24914     24909     24912     24915
     24913     24912     24914     24913     24912     24915     24914     24912     24915
     24912     24915     24916     24912     24915     24917     24912     24915     24918
     24916     24915     24917     24916     24915     24918     24917     24915     24918
     24915     24918     24919     24915     24918     24920     24915     24918     24921
     24919     24918     24920     24919     24918     24921     24920     24918     24921
     24918     24921     24922     24918     24921     24923     24918     24921     24924
     24922     24921     24923     24922     24921     24924     24923     24921     24924
     24926     24925     24929     24926     24925     24933     24926     24925     24937
     24929     24925     24933     24929     24925     24937     24933     24925     24937
     24925     24926     24927     24925     24926     24928     24925     24926     24941
     24927     24926     24928     24927     24926     24941     24928     24926     24941
     24925     24929     24930     24925     24929     24931     24925     24929     24932
     24930     24929     24931     24930     24929     24932     24931     24929     24932
     24925     24933     24934     24925     24933     24935     24925     24933     24936
     24934     24933     24935     24934     24933     24936     24935     24933     24936
     24925     24937     24938     24925     24937     24939     24925     24937     24940
     24938     24937     24939     24938     24937     24940     24939     24937     24940
     24926     24941     24942     24926     24941     24943     24926     24941     24947
     24942     24941     24943     24942     24941     24947     24943     24941     24947
     24945     24944     24946     24945     24944     24947     24945     24944     24948
     24946     24944     24947     24946     24944     24948     24947     24944     24948
     24941     24947     24944     24944     24948     24949     24948     24949     24950
     24948     24949     24951     24948     24949     24952     24950     24949     24951
     24950     24949     24952     24951     24949     24952     24949     24952     24953
     24949     24952     24954     24949     24952     24960     24953     24952     24954
     24953     24952     24960     24954     24952     24960     24952     24954     24955
     24954     24955     24956     24954     24955     24957     24956     24955     24957
     24955     24957     24958     24955     24957     24959     24955     24957     24969
     24958     24957     24959     24958     24957     24969     24959     24957     24969
     24952     24960     24961     24952     24960     24962     24952     24960     24963
     24961     24960     24962     24961     24960     24963     24962     24960     24963
     24960     24963     24964     24963     24964     24965     24963     24964     24966
     24965     24964     24966     24964     24966     24967     24964     24966     24968
     24964     24966     25016     24967     24966     24968     24967     24966     25016
     24968     24966     25016     24957     24969     24970     24957     24969     24971
     24957     24969     24972     24970     24969     24971     24970     24969     24972
     24971     24969     24972     24969     24972     24973     24969     24972     24974
     24969     24972     24975     24973     24972     24974     24973     24972     24975
     24974     24972     24975     24972     24975     24976     24972     24975     24977
     24972     24975     24978     24976     24975     24977     24976     24975     24978
     24977     24975     24978     24975     24978     24979     24975     24978     24980
     24975     24978     24981     24979     24978     24980     24979     24978     24981
     24980     24978     24981     24978     24981     24982     24978     24981     24983
     24978     24981     24984     24982     24981     24983     24982     24981     24984
     24983     24981     24984     24981     24984     24985     24981     24984     24986
     24981     24984     24987     24985     24984     24986     24985     24984     24987
     24986     24984     24987     24984     24987     24988     24984     24987     24989
     24988     24987     24989     24987     24989     24990     24987     24989     24991
     24990     24989     24991     24989     24991     24992     24989     24991     24993
     24989     24991     24994     24992     24991     24993     24992     24991     24994
     24993     24991     24994     24991     24994     24995     24991     24994     24996
     24991     24994     24997     24995     24994     24996     24995     24994     24997
     24996     24994     24997     24994     24997     24998     24994     24997     24999
     24994     24997     25000     24998     24997     24999     24998     24997     25000
     24999     24997     25000     24997     25000     25001     24997     25000     25002
     24997     25000     25003     25001     25000     25002     25001     25000     25003
     25002     25000     25003     25000     25003     25004     25000     25003     25005
     25000     25003     25006     25004     25003     25005     25004     25003     25006
     25005     25003     25006     25003     25006     25007     25003     25006     25008
     25003     25006     25009     25007     25006     25008     25007     25006     25009
     25008     25006     25009     25006     25009     25010     25006     25009     25011
     25006     25009     25012     25010     25009     25011     25010     25009     25012
     25011     25009     25012     25009     25012     25013     25009     25012     25014
     25009     25012     25015     25013     25012     25014     25013     25012     25015
     25014     25012     25015     24966     25016     25017     24966     25016     25018
     24966     25016     25019     25017     25016     25018     25017     25016     25019
     25018     25016     25019     25016     25019     25020     25016     25019     25021
     25016     25019     25022     25020     25019     25021     25020     25019     25022
     25021     25019     25022     25019     25022     25023     25019     25022     25024
     25019     25022     25025     25023     25022     25024     25023     25022     25025
     25024     25022     25025     25022     25025     25026     25022     25025     25027
     25022     25025     25028     25026     25025     25027     25026     25025     25028
     25027     25025     25028     25025     25028     25029     25025     25028     25030
     25025     25028     25031     25029     25028     25030     25029     25028     25031
     25030     25028     25031     25028     25031     25032     25028     25031     25033
     25028     25031     25034     25032     25031     25033     25032     25031     25034
     25033     25031     25034     25031     25034     25035     25031     25034     25036
     25031     25034     25037     25035     25034     25036     25035     25034     25037
     25036     25034     25037     25034     25037     25038     25034     25037     25039
     25034     25037     25040     25038     25037     25039     25038     25037     25040
     25039     25037     25040     25037     25040     25041     25037     25040     25042
     25037     25040     25043     25041     25040     25042     25041     25040     25043
     25042     25040     25043     25040     25043     25044     25040     25043     25045
     25040     25043     25046     25044     25043     25045     25044     25043     25046
     25045     25043     25046     25043     25046     25047     25043     25046     25048
     25043     25046     25049     25047     25046     25048     25047     25046     25049
     25048     25046     25049     25046     25049     25050     25046     25049     25051
     25046     25049     25052     25050     25049     25051     25050     25049     25052
     25051     25049     25052     25049     25052     25053     25049     25052     25054
     25049     25052     25055     25053     25052     25054     25053     25052     25055
     25054     25052     25055     25052     25055     25056     25052     25055     25057
     25052     25055     25058     25056     25055     25057     25056     25055     25058
     25057     25055     25058     25060     25059     25063     25060     25059     25067
     25060     25059     25071     25063     25059     25067     25063     25059     25071
     25067     25059     25071     25059     25060     25061     25059     25060     25062
     25059     25060     25075     25061     25060     25062     25061     25060     25075
     25062     25060     25075     25059     25063     25064     25059     25063     25065
     25059     25063     25066     25064     25063     25065     25064     25063     25066
     25065     25063     25066     25059     25067     25068     25059     25067     25069
     25059     25067     25070     25068     25067     25069     25068     25067     25070
     25069     25067     25070     25059     25071     25072     25059     25071     25073
     25059     25071     25074     25072     25071     25073     25072     25071     25074
     25073     25071     25074     25060     25075     25076     25060     25075     25077
     25060     25075     25081     25076     25075     25077     25076     25075     25081
     25077     25075     25081     25079     25078     25080     25079     25078     25081
     25079     25078     25082     25080     25078     25081     25080     25078     25082
     25081     25078     25082     25075     25081     25078     25078     25082     25083
     25082     25083     25084     25082     25083     25085     25082     25083     25086
     25084     25083     25085     25084     25083     25086     25085     25083     25086
     25083     25086     25087     25083     25086     25088     25083     25086     25094
     25087     25086     25088     25087     25086     25094     25088     25086     25094
     25086     25088     25089     25088     25089     25090     25088     25089     25091
     25090     25089     25091     25089     25091     25092     25089     25091     25093
     25089     25091     25103     25092     25091     25093     25092     25091     25103
     25093     25091     25103     25086     25094     25095     25086     25094     25096
     25086     25094     25097     25095     25094     25096     25095     25094     25097
     25096     25094     25097     25094     25097     25098     25097     25098     25099
     25097     25098     25100     25099     25098     25100     25098     25100     25101
     25098     25100     25102     25098     25100     25150     25101     25100     25102
     25101     25100     25150     25102     25100     25150     25091     25103     25104
     25091     25103     25105     25091     25103     25106     25104     25103     25105
     25104     25103     25106     25105     25103     25106     25103     25106     25107
     25103     25106     25108     25103     25106     25109     25107     25106     25108
     25107     25106     25109     25108     25106     25109     25106     25109     25110
     25106     25109     25111     25106     25109     25112     25110     25109     25111
     25110     25109     25112     25111     25109     25112     25109     25112     25113
     25109     25112     25114     25109     25112     25115     25113     25112     25114
     25113     25112     25115     25114     25112     25115     25112     25115     25116
     25112     25115     25117     25112     25115     25118     25116     25115     25117
     25116     25115     25118     25117     25115     25118     25115     25118     25119
     25115     25118     25120     25115     25118     25121     25119     25118     25120
     25119     25118     25121     25120     25118     25121     25118     25121     25122
     25118     25121     25123     25122     25121     25123     25121     25123     25124
     25121     25123     25125     25124     25123     25125     25123     25125     25126
     25123     25125     25127     25123     25125     25128     25126     25125     25127
     25126     25125     25128     25127     25125     25128     25125     25128     25129
     25125     25128     25130     25125     25128     25131     25129     25128     25130
     25129     25128     25131     25130     25128     25131     25128     25131     25132
     25128     25131     25133     25128     25131     25134     25132     25131     25133
     25132     25131     25134     25133     25131     25134     25131     25134     25135
     25131     25134     25136     25131     25134     25137     25135     25134     25136
     25135     25134     25137     25136     25134     25137     25134     25137     25138
     25134     25137     25139     25134     25137     25140     25138     25137     25139
     25138     25137     25140     25139     25137     25140     25137     25140     25141
     25137     25140     25142     25137     25140     25143     25141     25140     25142
     25141     25140     25143     25142     25140     25143     25140     25143     25144
     25140     25143     25145     25140     25143     25146     25144     25143     25145
     25144     25143     25146     25145     25143     25146     25143     25146     25147
     25143     25146     25148     25143     25146     25149     25147     25146     25148
     25147     25146     25149     25148     25146     25149     25100     25150     25151
     25100     25150     25152     25100     25150     25153     25151     25150     25152
     25151     25150     25153     25152     25150     25153     25150     25153     25154
     25150     25153     25155     25150     25153     25156     25154     25153     25155
     25154     25153     25156     25155     25153     25156     25153     25156     25157
     25153     25156     25158     25153     25156     25159     25157     25156     25158
     25157     25156     25159     25158     25156     25159     25156     25159     25160
     25156     25159     25161     25156     25159     25162     25160     25159     25161
     25160     25159     25162     25161     25159     25162     25159     25162     25163
     25159     25162     25164     25159     25162     25165     25163     25162     25164
     25163     25162     25165     25164     25162     25165     25162     25165     25166
     25162     25165     25167     25162     25165     25168     25166     25165     25167
     25166     25165     25168     25167     25165     25168     25165     25168     25169
     25165     25168     25170     25165     25168     25171     25169     25168     25170
     25169     25168     25171     25170     25168     25171     25168     25171     25172
     25168     25171     25173     25168     25171     25174     25172     25171     25173
     25172     25171     25174     25173     25171     25174     25171     25174     25175
     25171     25174     25176     25171     25174     25177     25175     25174     25176
     25175     25174     25177     25176     25174     25177     25174     25177     25178
     25174     25177     25179     25174     25177     25180     25178     25177     25179
     25178     25177     25180     25179     25177     25180     25177     25180     25181
     25177     25180     25182     25177     25180     25183     25181     25180     25182
     25181     25180     25183     25182     25180     25183     25180     25183     25184
     25180     25183     25185     25180     25183     25186     25184     25183     25185
     25184     25183     25186     25185     25183     25186     25183     25186     25187
     25183     25186     25188     25183     25186     25189     25187     25186     25188
     25187     25186     25189     25188     25186     25189     25186     25189     25190
     25186     25189     25191     25186     25189     25192     25190     25189     25191
     25190     25189     25192     25191     25189     25192     25194     25193     25197
     25194     25193     25201     25194     25193     25205     25197     25193     25201
     25197     25193     25205     25201     25193     25205     25193     25194     25195
     25193     25194     25196     25193     25194     25209     25195     25194     25196
     25195     25194     25209     25196     25194     25209     25193     25197     25198
     25193     25197     25199     25193     25197     25200     25198     25197     25199
     25198     25197     25200     25199     25197     25200     25193     25201     25202
     25193     25201     25203     25193     25201     25204     25202     25201     25203
     25202     25201     25204     25203     25201     25204     25193     25205     25206
     25193     25205     25207     25193     25205     25208     25206     25205     25207
     25206     25205     25208     25207     25205     25208     25194     25209     25210
     25194     25209     25211     25194     25209     25215     25210     25209     25211
     25210     25209     25215     25211     25209     25215     25213     25212     25214
     25213     25212     25215     25213     25212     25216     25214     25212     25215
     25214     25212     25216     25215     25212     25216     25209     25215     25212
     25212     25216     25217     25216     25217     25218     25216     25217     25219
     25216     25217     25220     25218     25217     25219     25218     25217     25220
     25219     25217     25220     25217     25220     25221     25217     25220     25222
     25217     25220     25228     25221     25220     25222     25221     25220     25228
     25222     25220     25228     25220     25222     25223     25222     25223     25224
     25222     25223     25225     25224     25223     25225     25223     25225     25226
     25223     25225     25227     25223     25225     25237     25226     25225     25227
     25226     25225     25237     25227     25225     25237     25220     25228     25229
     25220     25228     25230     25220     25228     25231     25229     25228     25230
     25229     25228     25231     25230     25228     25231     25228     25231     25232
     25231     25232     25233     25231     25232     25234     25233     25232     25234
     25232     25234     25235     25232     25234     25236     25232     25234     25284
     25235     25234     25236     25235     25234     25284     25236     25234     25284
     25225     25237     25238     25225     25237     25239     25225     25237     25240
     25238     25237     25239     25238     25237     25240     25239     25237     25240
     25237     25240     25241     25237     25240     25242     25237     25240     25243
     25241     25240     25242     25241     25240     25243     25242     25240     25243
     25240     25243     25244     25240     25243     25245     25240     25243     25246
     25244     25243     25245     25244     25243     25246     25245     25243     25246
     25243     25246     25247     25243     25246     25248     25243     25246     25249
     25247     25246     25248     25247     25246     25249     25248     25246     25249
     25246     25249     25250     25246     25249     25251     25246     25249     25252
     25250     25249     25251     25250     25249     25252     25251     25249     25252
     25249     25252     25253     25249     25252     25254     25249     25252     25255
     25253     25252     25254     25253     25252     25255     25254     25252     25255
     25252     25255     25256     25252     25255     25257     25256     25255     25257
     25255     25257     25258     25255     25257     25259     25258     25257     25259
     25257     25259     25260     25257     25259     25261     25257     25259     25262
     25260     25259     25261     25260     25259     25262     25261     25259     25262
     25259     25262     25263     25259     25262     25264     25259     25262     25265
     25263     25262     25264     25263     25262     25265     25264     25262     25265
     25262     25265     25266     25262     25265     25267     25262     25265     25268
     25266     25265     25267     25266     25265     25268     25267     25265     25268
     25265     25268     25269     25265     25268     25270     25265     25268     25271
     25269     25268     25270     25269     25268     25271     25270     25268     25271
     25268     25271     25272     25268     25271     25273     25268     25271     25274
     25272     25271     25273     25272     25271     25274     25273     25271     25274
     25271     25274     25275     25271     25274     25276     25271     25274     25277
     25275     25274     25276     25275     25274     25277     25276     25274     25277
     25274     25277     25278     25274     25277     25279     25274     25277     25280
     25278     25277     25279     25278     25277     25280     25279     25277     25280
     25277     25280     25281     25277     25280     25282     25277     25280     25283
     25281     25280     25282     25281     25280     25283     25282     25280     25283
     25234     25284     25285     25234     25284     25286     25234     25284     25287
     25285     25284     25286     25285     25284     25287     25286     25284     25287
     25284     25287     25288     25284     25287     25289     25284     25287     25290
     25288     25287     25289     25288     25287     25290     25289     25287     25290
     25287     25290     25291     25287     25290     25292     25287     25290     25293
     25291     25290     25292     25291     25290     25293     25292     25290     25293
     25290     25293     25294     25290     25293     25295     25290     25293     25296
     25294     25293     25295     25294     25293     25296     25295     25293     25296
     25293     25296     25297     25293     25296     25298     25293     25296     25299
     25297     25296     25298     25297     25296     25299     25298     25296     25299
     25296     25299     25300     25296     25299     25301     25296     25299     25302
     25300     25299     25301     25300     25299     25302     25301     25299     25302
     25299     25302     25303     25299     25302     25304     25299     25302     25305
     25303     25302     25304     25303     25302     25305     25304     25302     25305
     25302     25305     25306     25302     25305     25307     25302     25305     25308
     25306     25305     25307     25306     25305     25308     25307     25305     25308
     25305     25308     25309     25305     25308     25310     25305     25308     25311
     25309     25308     25310     25309     25308     25311     25310     25308     25311
     25308     25311     25312     25308     25311     25313     25308     25311     25314
     25312     25311     25313     25312     25311     25314     25313     25311     25314
     25311     25314     25315     25311     25314     25316     25311     25314     25317
     25315     25314     25316     25315     25314     25317     25316     25314     25317
     25314     25317     25318     25314     25317     25319     25314     25317     25320
     25318     25317     25319     25318     25317     25320     25319     25317     25320
     25317     25320     25321     25317     25320     25322     25317     25320     25323
     25321     25320     25322     25321     25320     25323     25322     25320     25323
     25320     25323     25324     25320     25323     25325     25320     25323     25326
     25324     25323     25325     25324     25323     25326     25325     25323     25326
     25328     25327     25331     25328     25327     25335     25328     25327     25339
     25331     25327     25335     25331     25327     25339     25335     25327     25339
     25327     25328     25329     25327     25328     25330     25327     25328     25343
     25329     25328     25330     25329     25328     25343     25330     25328     25343
     25327     25331     25332     25327     25331     25333     25327     25331     25334
     25332     25331     25333     25332     25331     25334     25333     25331     25334
     25327     25335     25336     25327     25335     25337     25327     25335     25338
     25336     25335     25337     25336     25335     25338     25337     25335     25338
     25327     25339     25340     25327     25339     25341     25327     25339     25342
     25340     25339     25341     25340     25339     25342     25341     25339     25342
     25328     25343     25344     25328     25343     25345     25328     25343     25349
     25344     25343     25345     25344     25343     25349     25345     25343     25349
     25347     25346     25348     25347     25346     25349     25347     25346     25350
     25348     25346     25349     25348     25346     25350     25349     25346     25350
     25343     25349     25346     25346     25350     25351     25350     25351     25352
     25350     25351     25353     25350     25351     25354     25352     25351     25353
     25352     25351     25354     25353     25351     25354     25351     25354     25355
     25351     25354     25356     25351     25354     25362     25355     25354     25356
     25355     25354     25362     25356     25354     25362     25354     25356     25357
     25356     25357     25358     25356     25357     25359     25358     25357     25359
     25357     25359     25360     25357     25359     25361     25357     25359     25371
     25360     25359     25361     25360     25359     25371     25361     25359     25371
     25354     25362     25363     25354     25362     25364     25354     25362     25365
     25363     25362     25364     25363     25362     25365     25364     25362     25365
     25362     25365     25366     25365     25366     25367     25365     25366     25368
     25367     25366     25368     25366     25368     25369     25366     25368     25370
     25366     25368     25418     25369     25368     25370     25369     25368     25418
     25370     25368     25418     25359     25371     25372     25359     25371     25373
     25359     25371     25374     25372     25371     25373     25372     25371     25374
     25373     25371     25374     25371     25374     25375     25371     25374     25376
     25371     25374     25377     25375     25374     25376     25375     25374     25377
     25376     25374     25377     25374     25377     25378     25374     25377     25379
     25374     25377     25380     25378     25377     25379     25378     25377     25380
     25379     25377     25380     25377     25380     25381     25377     25380     25382
     25377     25380     25383     25381     25380     25382     25381     25380     25383
     25382     25380     25383     25380     25383     25384     25380     25383     25385
     25380     25383     25386     25384     25383     25385     25384     25383     25386
     25385     25383     25386     25383     25386     25387     25383     25386     25388
     25383     25386     25389     25387     25386     25388     25387     25386     25389
     25388     25386     25389     25386     25389     25390     25386     25389     25391
     25390     25389     25391     25389     25391     25392     25389     25391     25393
     25392     25391     25393     25391     25393     25394     25391     25393     25395
     25391     25393     25396     25394     25393     25395     25394     25393     25396
     25395     25393     25396     25393     25396     25397     25393     25396     25398
     25393     25396     25399     25397     25396     25398     25397     25396     25399
     25398     25396     25399     25396     25399     25400     25396     25399     25401
     25396     25399     25402     25400     25399     25401     25400     25399     25402
     25401     25399     25402     25399     25402     25403     25399     25402     25404
     25399     25402     25405     25403     25402     25404     25403     25402     25405
     25404     25402     25405     25402     25405     25406     25402     25405     25407
     25402     25405     25408     25406     25405     25407     25406     25405     25408
     25407     25405     25408     25405     25408     25409     25405     25408     25410
     25405     25408     25411     25409     25408     25410     25409     25408     25411
     25410     25408     25411     25408     25411     25412     25408     25411     25413
     25408     25411     25414     25412     25411     25413     25412     25411     25414
     25413     25411     25414     25411     25414     25415     25411     25414     25416
     25411     25414     25417     25415     25414     25416     25415     25414     25417
     25416     25414     25417     25368     25418     25419     25368     25418     25420
     25368     25418     25421     25419     25418     25420     25419     25418     25421
     25420     25418     25421     25418     25421     25422     25418     25421     25423
     25418     25421     25424     25422     25421     25423     25422     25421     25424
     25423     25421     25424     25421     25424     25425     25421     25424     25426
     25421     25424     25427     25425     25424     25426     25425     25424     25427
     25426     25424     25427     25424     25427     25428     25424     25427     25429
     25424     25427     25430     25428     25427     25429     25428     25427     25430
     25429     25427     25430     25427     25430     25431     25427     25430     25432
     25427     25430     25433     25431     25430     25432     25431     25430     25433
     25432     25430     25433     25430     25433     25434     25430     25433     25435
     25430     25433     25436     25434     25433     25435     25434     25433     25436
     25435     25433     25436     25433     25436     25437     25433     25436     25438
     25433     25436     25439     25437     25436     25438     25437     25436     25439
     25438     25436     25439     25436     25439     25440     25436     25439     25441
     25436     25439     25442     25440     25439     25441     25440     25439     25442
     25441     25439     25442     25439     25442     25443     25439     25442     25444
     25439     25442     25445     25443     25442     25444     25443     25442     25445
     25444     25442     25445     25442     25445     25446     25442     25445     25447
     25442     25445     25448     25446     25445     25447     25446     25445     25448
     25447     25445     25448     25445     25448     25449     25445     25448     25450
     25445     25448     25451     25449     25448     25450     25449     25448     25451
     25450     25448     25451     25448     25451     25452     25448     25451     25453
     25448     25451     25454     25452     25451     25453     25452     25451     25454
     25453     25451     25454     25451     25454     25455     25451     25454     25456
     25451     25454     25457     25455     25454     25456     25455     25454     25457
     25456     25454     25457     25454     25457     25458     25454     25457     25459
     25454     25457     25460     25458     25457     25459     25458     25457     25460
     25459     25457     25460     25462     25461     25465     25462     25461     25469
     25462     25461     25473     25465     25461     25469     25465     25461     25473
     25469     25461     25473     25461     25462     25463     25461     25462     25464
     25461     25462     25477     25463     25462     25464     25463     25462     25477
     25464     25462     25477     25461     25465     25466     25461     25465     25467
     25461     25465     25468     25466     25465     25467     25466     25465     25468
     25467     25465     25468     25461     25469     25470     25461     25469     25471
     25461     25469     25472     25470     25469     25471     25470     25469     25472
     25471     25469     25472     25461     25473     25474     25461     25473     25475
     25461     25473     25476     25474     25473     25475     25474     25473     25476
     25475     25473     25476     25462     25477     25478     25462     25477     25479
     25462     25477     25483     25478     25477     25479     25478     25477     25483
     25479     25477     25483     25481     25480     25482     25481     25480     25483
     25481     25480     25484     25482     25480     25483     25482     25480     25484
     25483     25480     25484     25477     25483     25480     25480     25484     25485
     25484     25485     25486     25484     25485     25487     25484     25485     25488
     25486     25485     25487     25486     25485     25488     25487     25485     25488
     25485     25488     25489     25485     25488     25490     25485     25488     25496
     25489     25488     25490     25489     25488     25496     25490     25488     25496
     25488     25490     25491     25490     25491     25492     25490     25491     25493
     25492     25491     25493     25491     25493     25494     25491     25493     25495
     25491     25493     25505     25494     25493     25495     25494     25493     25505
     25495     25493     25505     25488     25496     25497     25488     25496     25498
     25488     25496     25499     25497     25496     25498     25497     25496     25499
     25498     25496     25499     25496     25499     25500     25499     25500     25501
     25499     25500     25502     25501     25500     25502     25500     25502     25503
     25500     25502     25504     25500     25502     25552     25503     25502     25504
     25503     25502     25552     25504     25502     25552     25493     25505     25506
     25493     25505     25507     25493     25505     25508     25506     25505     25507
     25506     25505     25508     25507     25505     25508     25505     25508     25509
     25505     25508     25510     25505     25508     25511     25509     25508     25510
     25509     25508     25511     25510     25508     25511     25508     25511     25512
     25508     25511     25513     25508     25511     25514     25512     25511     25513
     25512     25511     25514     25513     25511     25514     25511     25514     25515
     25511     25514     25516     25511     25514     25517     25515     25514     25516
     25515     25514     25517     25516     25514     25517     25514     25517     25518
     25514     25517     25519     25514     25517     25520     25518     25517     25519
     25518     25517     25520     25519     25517     25520     25517     25520     25521
     25517     25520     25522     25517     25520     25523     25521     25520     25522
     25521     25520     25523     25522     25520     25523     25520     25523     25524
     25520     25523     25525     25524     25523     25525     25523     25525     25526
     25523     25525     25527     25526     25525     25527     25525     25527     25528
     25525     25527     25529     25525     25527     25530     25528     25527     25529
     25528     25527     25530     25529     25527     25530     25527     25530     25531
     25527     25530     25532     25527     25530     25533     25531     25530     25532
     25531     25530     25533     25532     25530     25533     25530     25533     25534
     25530     25533     25535     25530     25533     25536     25534     25533     25535
     25534     25533     25536     25535     25533     25536     25533     25536     25537
     25533     25536     25538     25533     25536     25539     25537     25536     25538
     25537     25536     25539     25538     25536     25539     25536     25539     25540
     25536     25539     25541     25536     25539     25542     25540     25539     25541
     25540     25539     25542     25541     25539     25542     25539     25542     25543
     25539     25542     25544     25539     25542     25545     25543     25542     25544
     25543     25542     25545     25544     25542     25545     25542     25545     25546
     25542     25545     25547     25542     25545     25548     25546     25545     25547
     25546     25545     25548     25547     25545     25548     25545     25548     25549
     25545     25548     25550     25545     25548     25551     25549     25548     25550
     25549     25548     25551     25550     25548     25551     25502     25552     25553
     25502     25552     25554     25502     25552     25555     25553     25552     25554
     25553     25552     25555     25554     25552     25555     25552     25555     25556
     25552     25555     25557     25552     25555     25558     25556     25555     25557
     25556     25555     25558     25557     25555     25558     25555     25558     25559
     25555     25558     25560     25555     25558     25561     25559     25558     25560
     25559     25558     25561     25560     25558     25561     25558     25561     25562
     25558     25561     25563     25558     25561     25564     25562     25561     25563
     25562     25561     25564     25563     25561     25564     25561     25564     25565
     25561     25564     25566     25561     25564     25567     25565     25564     25566
     25565     25564     25567     25566     25564     25567     25564     25567     25568
     25564     25567     25569     25564     25567     25570     25568     25567     25569
     25568     25567     25570     25569     25567     25570     25567     25570     25571
     25567     25570     25572     25567     25570     25573     25571     25570     25572
     25571     25570     25573     25572     25570     25573     25570     25573     25574
     25570     25573     25575     25570     25573     25576     25574     25573     25575
     25574     25573     25576     25575     25573     25576     25573     25576     25577
     25573     25576     25578     25573     25576     25579     25577     25576     25578
     25577     25576     25579     25578     25576     25579     25576     25579     25580
     25576     25579     25581     25576     25579     25582     25580     25579     25581
     25580     25579     25582     25581     25579     25582     25579     25582     25583
     25579     25582     25584     25579     25582     25585     25583     25582     25584
     25583     25582     25585     25584     25582     25585     25582     25585     25586
     25582     25585     25587     25582     25585     25588     25586     25585     25587
     25586     25585     25588     25587     25585     25588     25585     25588     25589
     25585     25588     25590     25585     25588     25591     25589     25588     25590
     25589     25588     25591     25590     25588     25591     25588     25591     25592
     25588     25591     25593     25588     25591     25594     25592     25591     25593
     25592     25591     25594     25593     25591     25594     25596     25595     25599
     25596     25595     25603     25596     25595     25607     25599     25595     25603
     25599     25595     25607     25603     25595     25607     25595     25596     25597
     25595     25596     25598     25595     25596     25611     25597     25596     25598
     25597     25596     25611     25598     25596     25611     25595     25599     25600
     25595     25599     25601     25595     25599     25602     25600     25599     25601
     25600     25599     25602     25601     25599     25602     25595     25603     25604
     25595     25603     25605     25595     25603     25606     25604     25603     25605
     25604     25603     25606     25605     25603     25606     25595     25607     25608
     25595     25607     25609     25595     25607     25610     25608     25607     25609
     25608     25607     25610     25609     25607     25610     25596     25611     25612
     25596     25611     25613     25596     25611     25617     25612     25611     25613
     25612     25611     25617     25613     25611     25617     25615     25614     25616
     25615     25614     25617     25615     25614     25618     25616     25614     25617
     25616     25614     25618     25617     25614     25618     25611     25617     25614
     25614     25618     25619     25618     25619     25620     25618     25619     25621
     25618     25619     25622     25620     25619     25621     25620     25619     25622
     25621     25619     25622     25619     25622     25623     25619     25622     25624
     25619     25622     25630     25623     25622     25624     25623     25622     25630
     25624     25622     25630     25622     25624     25625     25624     25625     25626
     25624     25625     25627     25626     25625     25627     25625     25627     25628
     25625     25627     25629     25625     25627     25639     25628     25627     25629
     25628     25627     25639     25629     25627     25639     25622     25630     25631
     25622     25630     25632     25622     25630     25633     25631     25630     25632
     25631     25630     25633     25632     25630     25633     25630     25633     25634
     25633     25634     25635     25633     25634     25636     25635     25634     25636
     25634     25636     25637     25634     25636     25638     25634     25636     25686
     25637     25636     25638     25637     25636     25686     25638     25636     25686
     25627     25639     25640     25627     25639     25641     25627     25639     25642
     25640     25639     25641     25640     25639     25642     25641     25639     25642
     25639     25642     25643     25639     25642     25644     25639     25642     25645
     25643     25642     25644     25643     25642     25645     25644     25642     25645
     25642     25645     25646     25642     25645     25647     25642     25645     25648
     25646     25645     25647     25646     25645     25648     25647     25645     25648
     25645     25648     25649     25645     25648     25650     25645     25648     25651
     25649     25648     25650     25649     25648     25651     25650     25648     25651
     25648     25651     25652     25648     25651     25653     25648     25651     25654
     25652     25651     25653     25652     25651     25654     25653     25651     25654
     25651     25654     25655     25651     25654     25656     25651     25654     25657
     25655     25654     25656     25655     25654     25657     25656     25654     25657
     25654     25657     25658     25654     25657     25659     25658     25657     25659
     25657     25659     25660     25657     25659     25661     25660     25659     25661
     25659     25661     25662     25659     25661     25663     25659     25661     25664
     25662     25661     25663     25662     25661     25664     25663     25661     25664
     25661     25664     25665     25661     25664     25666     25661     25664     25667
     25665     25664     25666     25665     25664     25667     25666     25664     25667
     25664     25667     25668     25664     25667     25669     25664     25667     25670
     25668     25667     25669     25668     25667     25670     25669     25667     25670
     25667     25670     25671     25667     25670     25672     25667     25670     25673
     25671     25670     25672     25671     25670     25673     25672     25670     25673
     25670     25673     25674     25670     25673     25675     25670     25673     25676
     25674     25673     25675     25674     25673     25676     25675     25673     25676
     25673     25676     25677     25673     25676     25678     25673     25676     25679
     25677     25676     25678     25677     25676     25679     25678     25676     25679
     25676     25679     25680     25676     25679     25681     25676     25679     25682
     25680     25679     25681     25680     25679     25682     25681     25679     25682
     25679     25682     25683     25679     25682     25684     25679     25682     25685
     25683     25682     25684     25683     25682     25685     25684     25682     25685
     25636     25686     25687     25636     25686     25688     25636     25686     25689
     25687     25686     25688     25687     25686     25689     25688     25686     25689
     25686     25689     25690     25686     25689     25691     25686     25689     25692
     25690     25689     25691     25690     25689     25692     25691     25689     25692
     25689     25692     25693     25689     25692     25694     25689     25692     25695
     25693     25692     25694     25693     25692     25695     25694     25692     25695
     25692     25695     25696     25692     25695     25697     25692     25695     25698
     25696     25695     25697     25696     25695     25698     25697     25695     25698
     25695     25698     25699     25695     25698     25700     25695     25698     25701
     25699     25698     25700     25699     25698     25701     25700     25698     25701
     25698     25701     25702     25698     25701     25703     25698     25701     25704
     25702     25701     25703     25702     25701     25704     25703     25701     25704
     25701     25704     25705     25701     25704     25706     25701     25704     25707
     25705     25704     25706     25705     25704     25707     25706     25704     25707
     25704     25707     25708     25704     25707     25709     25704     25707     25710
     25708     25707     25709     25708     25707     25710     25709     25707     25710
     25707     25710     25711     25707     25710     25712     25707     25710     25713
     25711     25710     25712     25711     25710     25713     25712     25710     25713
     25710     25713     25714     25710     25713     25715     25710     25713     25716
     25714     25713     25715     25714     25713     25716     25715     25713     25716
     25713     25716     25717     25713     25716     25718     25713     25716     25719
     25717     25716     25718     25717     25716     25719     25718     25716     25719
     25716     25719     25720     25716     25719     25721     25716     25719     25722
     25720     25719     25721     25720     25719     25722     25721     25719     25722
     25719     25722     25723     25719     25722     25724     25719     25722     25725
     25723     25722     25724     25723     25722     25725     25724     25722     25725
     25722     25725     25726     25722     25725     25727     25722     25725     25728
     25726     25725     25727     25726     25725     25728     25727     25725     25728
     25730     25729     25733     25730     25729     25737     25730     25729     25741
     25733     25729     25737     25733     25729     25741     25737     25729     25741
     25729     25730     25731     25729     25730     25732     25729     25730     25745
     25731     25730     25732     25731     25730     25745     25732     25730     25745
     25729     25733     25734     25729     25733     25735     25729     25733     25736
     25734     25733     25735     25734     25733     25736     25735     25733     25736
     25729     25737     25738     25729     25737     25739     25729     25737     25740
     25738     25737     25739     25738     25737     25740     25739     25737     25740
     25729     25741     25742     25729     25741     25743     25729     25741     25744
     25742     25741     25743     25742     25741     25744     25743     25741     25744
     25730     25745     25746     25730     25745     25747     25730     25745     25751
     25746     25745     25747     25746     25745     25751     25747     25745     25751
     25749     25748     25750     25749     25748     25751     25749     25748     25752
     25750     25748     25751     25750     25748     25752     25751     25748     25752
     25745     25751     25748     25748     25752     25753     25752     25753     25754
     25752     25753     25755     25752     25753     25756     25754     25753     25755
     25754     25753     25756     25755     25753     25756     25753     25756     25757
     25753     25756     25758     25753     25756     25764     25757     25756     25758
     25757     25756     25764     25758     25756     25764     25756     25758     25759
     25758     25759     25760     25758     25759     25761     25760     25759     25761
     25759     25761     25762     25759     25761     25763     25759     25761     25773
     25762     25761     25763     25762     25761     25773     25763     25761     25773
     25756     25764     25765     25756     25764     25766     25756     25764     25767
     25765     25764     25766     25765     25764     25767     25766     25764     25767
     25764     25767     25768     25767     25768     25769     25767     25768     25770
     25769     25768     25770     25768     25770     25771     25768     25770     25772
     25768     25770     25820     25771     25770     25772     25771     25770     25820
     25772     25770     25820     25761     25773     25774     25761     25773     25775
     25761     25773     25776     25774     25773     25775     25774     25773     25776
     25775     25773     25776     25773     25776     25777     25773     25776     25778
     25773     25776     25779     25777     25776     25778     25777     25776     25779
     25778     25776     25779     25776     25779     25780     25776     25779     25781
     25776     25779     25782     25780     25779     25781     25780     25779     25782
     25781     25779     25782     25779     25782     25783     25779     25782     25784
     25779     25782     25785     25783     25782     25784     25783     25782     25785
     25784     25782     25785     25782     25785     25786     25782     25785     25787
     25782     25785     25788     25786     25785     25787     25786     25785     25788
     25787     25785     25788     25785     25788     25789     25785     25788     25790
     25785     25788     25791     25789     25788     25790     25789     25788     25791
     25790     25788     25791     25788     25791     25792     25788     25791     25793
     25792     25791     25793     25791     25793     25794     25791     25793     25795
     25794     25793     25795     25793     25795     25796     25793     25795     25797
     25793     25795     25798     25796     25795     25797     25796     25795     25798
     25797     25795     25798     25795     25798     25799     25795     25798     25800
     25795     25798     25801     25799     25798     25800     25799     25798     25801
     25800     25798     25801     25798     25801     25802     25798     25801     25803
     25798     25801     25804     25802     25801     25803     25802     25801     25804
     25803     25801     25804     25801     25804     25805     25801     25804     25806
     25801     25804     25807     25805     25804     25806     25805     25804     25807
     25806     25804     25807     25804     25807     25808     25804     25807     25809
     25804     25807     25810     25808     25807     25809     25808     25807     25810
     25809     25807     25810     25807     25810     25811     25807     25810     25812
     25807     25810     25813     25811     25810     25812     25811     25810     25813
     25812     25810     25813     25810     25813     25814     25810     25813     25815
     25810     25813     25816     25814     25813     25815     25814     25813     25816
     25815     25813     25816     25813     25816     25817     25813     25816     25818
     25813     25816     25819     25817     25816     25818     25817     25816     25819
     25818     25816     25819     25770     25820     25821     25770     25820     25822
     25770     25820     25823     25821     25820     25822     25821     25820     25823
     25822     25820     25823     25820     25823     25824     25820     25823     25825
     25820     25823     25826     25824     25823     25825     25824     25823     25826
     25825     25823     25826     25823     25826     25827     25823     25826     25828
     25823     25826     25829     25827     25826     25828     25827     25826     25829
     25828     25826     25829     25826     25829     25830     25826     25829     25831
     25826     25829     25832     25830     25829     25831     25830     25829     25832
     25831     25829     25832     25829     25832     25833     25829     25832     25834
     25829     25832     25835     25833     25832     25834     25833     25832     25835
     25834     25832     25835     25832     25835     25836     25832     25835     25837
     25832     25835     25838     25836     25835     25837     25836     25835     25838
     25837     25835     25838     25835     25838     25839     25835     25838     25840
     25835     25838     25841     25839     25838     25840     25839     25838     25841
     25840     25838     25841     25838     25841     25842     25838     25841     25843
     25838     25841     25844     25842     25841     25843     25842     25841     25844
     25843     25841     25844     25841     25844     25845     25841     25844     25846
     25841     25844     25847     25845     25844     25846     25845     25844     25847
     25846     25844     25847     25844     25847     25848     25844     25847     25849
     25844     25847     25850     25848     25847     25849     25848     25847     25850
     25849     25847     25850     25847     25850     25851     25847     25850     25852
     25847     25850     25853     25851     25850     25852     25851     25850     25853
     25852     25850     25853     25850     25853     25854     25850     25853     25855
     25850     25853     25856     25854     25853     25855     25854     25853     25856
     25855     25853     25856     25853     25856     25857     25853     25856     25858
     25853     25856     25859     25857     25856     25858     25857     25856     25859
     25858     25856     25859     25856     25859     25860     25856     25859     25861
     25856     25859     25862     25860     25859     25861     25860     25859     25862
     25861     25859     25862     25864     25863     25867     25864     25863     25871
     25864     25863     25875     25867     25863     25871     25867     25863     25875
     25871     25863     25875     25863     25864     25865     25863     25864     25866
     25863     25864     25879     25865     25864     25866     25865     25864     25879
     25866     25864     25879     25863     25867     25868     25863     25867     25869
     25863     25867     25870     25868     25867     25869     25868     25867     25870
     25869     25867     25870     25863     25871     25872     25863     25871     25873
     25863     25871     25874     25872     25871     25873     25872     25871     25874
     25873     25871     25874     25863     25875     25876     25863     25875     25877
     25863     25875     25878     25876     25875     25877     25876     25875     25878
     25877     25875     25878     25864     25879     25880     25864     25879     25881
     25864     25879     25885     25880     25879     25881     25880     25879     25885
     25881     25879     25885     25883     25882     25884     25883     25882     25885
     25883     25882     25886     25884     25882     25885     25884     25882     25886
     25885     25882     25886     25879     25885     25882     25882     25886     25887
     25886     25887     25888     25886     25887     25889     25886     25887     25890
     25888     25887     25889     25888     25887     25890     25889     25887     25890
     25887     25890     25891     25887     25890     25892     25887     25890     25898
     25891     25890     25892     25891     25890     25898     25892     25890     25898
     25890     25892     25893     25892     25893     25894     25892     25893     25895
     25894     25893     25895     25893     25895     25896     25893     25895     25897
     25893     25895     25907     25896     25895     25897     25896     25895     25907
     25897     25895     25907     25890     25898     25899     25890     25898     25900
     25890     25898     25901     25899     25898     25900     25899     25898     25901
     25900     25898     25901     25898     25901     25902     25901     25902     25903
     25901     25902     25904     25903     25902     25904     25902     25904     25905
     25902     25904     25906     25902     25904     25954     25905     25904     25906
     25905     25904     25954     25906     25904     25954     25895     25907     25908
     25895     25907     25909     25895     25907     25910     25908     25907     25909
     25908     25907     25910     25909     25907     25910     25907     25910     25911
     25907     25910     25912     25907     25910     25913     25911     25910     25912
     25911     25910     25913     25912     25910     25913     25910     25913     25914
     25910     25913     25915     25910     25913     25916     25914     25913     25915
     25914     25913     25916     25915     25913     25916     25913     25916     25917
     25913     25916     25918     25913     25916     25919     25917     25916     25918
     25917     25916     25919     25918     25916     25919     25916     25919     25920
     25916     25919     25921     25916     25919     25922     25920     25919     25921
     25920     25919     25922     25921     25919     25922     25919     25922     25923
     25919     25922     25924     25919     25922     25925     25923     25922     25924
     25923     25922     25925     25924     25922     25925     25922     25925     25926
     25922     25925     25927     25926     25925     25927     25925     25927     25928
     25925     25927     25929     25928     25927     25929     25927     25929     25930
     25927     25929     25931     25927     25929     25932     25930     25929     25931
     25930     25929     25932     25931     25929     25932     25929     25932     25933
     25929     25932     25934     25929     25932     25935     25933     25932     25934
     25933     25932     25935     25934     25932     25935     25932     25935     25936
     25932     25935     25937     25932     25935     25938     25936     25935     25937
     25936     25935     25938     25937     25935     25938     25935     25938     25939
     25935     25938     25940     25935     25938     25941     25939     25938     25940
     25939     25938     25941     25940     25938     25941     25938     25941     25942
     25938     25941     25943     25938     25941     25944     25942     25941     25943
     25942     25941     25944     25943     25941     25944     25941     25944     25945
     25941     25944     25946     25941     25944     25947     25945     25944     25946
     25945     25944     25947     25946     25944     25947     25944     25947     25948
     25944     25947     25949     25944     25947     25950     25948     25947     25949
     25948     25947     25950     25949     25947     25950     25947     25950     25951
     25947     25950     25952     25947     25950     25953     25951     25950     25952
     25951     25950     25953     25952     25950     25953     25904     25954     25955
     25904     25954     25956     25904     25954     25957     25955     25954     25956
     25955     25954     25957     25956     25954     25957     25954     25957     25958
     25954     25957     25959     25954     25957     25960     25958     25957     25959
     25958     25957     25960     25959     25957     25960     25957     25960     25961
     25957     25960     25962     25957     25960     25963     25961     25960     25962
     25961     25960     25963     25962     25960     25963     25960     25963     25964
     25960     25963     25965     25960     25963     25966     25964     25963     25965
     25964     25963     25966     25965     25963     25966     25963     25966     25967
     25963     25966     25968     25963     25966     25969     25967     25966     25968
     25967     25966     25969     25968     25966     25969     25966     25969     25970
     25966     25969     25971     25966     25969     25972     25970     25969     25971
     25970     25969     25972     25971     25969     25972     25969     25972     25973
     25969     25972     25974     25969     25972     25975     25973     25972     25974
     25973     25972     25975     25974     25972     25975     25972     25975     25976
     25972     25975     25977     25972     25975     25978     25976     25975     25977
     25976     25975     25978     25977     25975     25978     25975     25978     25979
     25975     25978     25980     25975     25978     25981     25979     25978     25980
     25979     25978     25981     25980     25978     25981     25978     25981     25982
     25978     25981     25983     25978     25981     25984     25982     25981     25983
     25982     25981     25984     25983     25981     25984     25981     25984     25985
     25981     25984     25986     25981     25984     25987     25985     25984     25986
     25985     25984     25987     25986     25984     25987     25984     25987     25988
     25984     25987     25989     25984     25987     25990     25988     25987     25989
     25988     25987     25990     25989     25987     25990     25987     25990     25991
     25987     25990     25992     25987     25990     25993     25991     25990     25992
     25991     25990     25993     25992     25990     25993     25990     25993     25994
     25990     25993     25995     25990     25993     25996     25994     25993     25995
     25994     25993     25996     25995     25993     25996     25998     25997     26001
     25998     25997     26005     25998     25997     26009     26001     25997     26005
     26001     25997     26009     26005     25997     26009     25997     25998     25999
     25997     25998     26000     25997     25998     26013     25999     25998     26000
     25999     25998     26013     26000     25998     26013     25997     26001     26002
     25997     26001     26003     25997     26001     26004     26002     26001     26003
     26002     26001     26004     26003     26001     26004     25997     26005     26006
     25997     26005     26007     25997     26005     26008     26006     26005     26007
     26006     26005     26008     26007     26005     26008     25997     26009     26010
     25997     26009     26011     25997     26009     26012     26010     26009     26011
     26010     26009     26012     26011     26009     26012     25998     26013     26014
     25998     26013     26015     25998     26013     26019     26014     26013     26015
     26014     26013     26019     26015     26013     26019     26017     26016     26018
     26017     26016     26019     26017     26016     26020     26018     26016     26019
     26018     26016     26020     26019     26016     26020     26013     26019     26016
     26016     26020     26021     26020     26021     26022     26020     26021     26023
     26020     26021     26024     26022     26021     26023     26022     26021     26024
     26023     26021     26024     26021     26024     26025     26021     26024     26026
     26021     26024     26032     26025     26024     26026     26025     26024     26032
     26026     26024     26032     26024     26026     26027     26026     26027     26028
     26026     26027     26029     26028     26027     26029     26027     26029     26030
     26027     26029     26031     26027     26029     26041     26030     26029     26031
     26030     26029     26041     26031     26029     26041     26024     26032     26033
     26024     26032     26034     26024     26032     26035     26033     26032     26034
     26033     26032     26035     26034     26032     26035     26032     26035     26036
     26035     26036     26037     26035     26036     26038     26037     26036     26038
     26036     26038     26039     26036     26038     26040     26036     26038     26088
     26039     26038     26040     26039     26038     26088     26040     26038     26088
     26029     26041     26042     26029     26041     26043     26029     26041     26044
     26042     26041     26043     26042     26041     26044     26043     26041     26044
     26041     26044     26045     26041     26044     26046     26041     26044     26047
     26045     26044     26046     26045     26044     26047     26046     26044     26047
     26044     26047     26048     26044     26047     26049     26044     26047     26050
     26048     26047     26049     26048     26047     26050     26049     26047     26050
     26047     26050     26051     26047     26050     26052     26047     26050     26053
     26051     26050     26052     26051     26050     26053     26052     26050     26053
     26050     26053     26054     26050     26053     26055     26050     26053     26056
     26054     26053     26055     26054     26053     26056     26055     26053     26056
     26053     26056     26057     26053     26056     26058     26053     26056     26059
     26057     26056     26058     26057     26056     26059     26058     26056     26059
     26056     26059     26060     26056     26059     26061     26060     26059     26061
     26059     26061     26062     26059     26061     26063     26062     26061     26063
     26061     26063     26064     26061     26063     26065     26061     26063     26066
     26064     26063     26065     26064     26063     26066     26065     26063     26066
     26063     26066     26067     26063     26066     26068     26063     26066     26069
     26067     26066     26068     26067     26066     26069     26068     26066     26069
     26066     26069     26070     26066     26069     26071     26066     26069     26072
     26070     26069     26071     26070     26069     26072     26071     26069     26072
     26069     26072     26073     26069     26072     26074     26069     26072     26075
     26073     26072     26074     26073     26072     26075     26074     26072     26075
     26072     26075     26076     26072     26075     26077     26072     26075     26078
     26076     26075     26077     26076     26075     26078     26077     26075     26078
     26075     26078     26079     26075     26078     26080     26075     26078     26081
     26079     26078     26080     26079     26078     26081     26080     26078     26081
     26078     26081     26082     26078     26081     26083     26078     26081     26084
     26082     26081     26083     26082     26081     26084     26083     26081     26084
     26081     26084     26085     26081     26084     26086     26081     26084     26087
     26085     26084     26086     26085     26084     26087     26086     26084     26087
     26038     26088     26089     26038     26088     26090     26038     26088     26091
     26089     26088     26090     26089     26088     26091     26090     26088     26091
     26088     26091     26092     26088     26091     26093     26088     26091     26094
     26092     26091     26093     26092     26091     26094     26093     26091     26094
     26091     26094     26095     26091     26094     26096     26091     26094     26097
     26095     26094     26096     26095     26094     26097     26096     26094     26097
     26094     26097     26098     26094     26097     26099     26094     26097     26100
     26098     26097     26099     26098     26097     26100     26099     26097     26100
     26097     26100     26101     26097     26100     26102     26097     26100     26103
     26101     26100     26102     26101     26100     26103     26102     26100     26103
     26100     26103     26104     26100     26103     26105     26100     26103     26106
     26104     26103     26105     26104     26103     26106     26105     26103     26106
     26103     26106     26107     26103     26106     26108     26103     26106     26109
     26107     26106     26108     26107     26106     26109     26108     26106     26109
     26106     26109     26110     26106     26109     26111     26106     26109     26112
     26110     26109     26111     26110     26109     26112     26111     26109     26112
     26109     26112     26113     26109     26112     26114     26109     26112     26115
     26113     26112     26114     26113     26112     26115     26114     26112     26115
     26112     26115     26116     26112     26115     26117     26112     26115     26118
     26116     26115     26117     26116     26115     26118     26117     26115     26118
     26115     26118     26119     26115     26118     26120     26115     26118     26121
     26119     26118     26120     26119     26118     26121     26120     26118     26121
     26118     26121     26122     26118     26121     26123     26118     26121     26124
     26122     26121     26123     26122     26121     26124     26123     26121     26124
     26121     26124     26125     26121     26124     26126     26121     26124     26127
     26125     26124     26126     26125     26124     26127     26126     26124     26127
     26124     26127     26128     26124     26127     26129     26124     26127     26130
     26128     26127     26129     26128     26127     26130     26129     26127     26130
     26132     26131     26135     26132     26131     26139     26132     26131     26143
     26135     26131     26139     26135     26131     26143     26139     26131     26143
     26131     26132     26133     26131     26132     26134     26131     26132     26147
     26133     26132     26134     26133     26132     26147     26134     26132     26147
     26131     26135     26136     26131     26135     26137     26131     26135     26138
     26136     26135     26137     26136     26135     26138     26137     26135     26138
     26131     26139     26140     26131     26139     26141     26131     26139     26142
     26140     26139     26141     26140     26139     26142     26141     26139     26142
     26131     26143     26144     26131     26143     26145     26131     26143     26146
     26144     26143     26145     26144     26143     26146     26145     26143     26146
     26132     26147     26148     26132     26147     26149     26132     26147     26153
     26148     26147     26149     26148     26147     26153     26149     26147     26153
     26151     26150     26152     26151     26150     26153     26151     26150     26154
     26152     26150     26153     26152     26150     26154     26153     26150     26154
     26147     26153     26150     26150     26154     26155     26154     26155     26156
     26154     26155     26157     26154     26155     26158     26156     26155     26157
     26156     26155     26158     26157     26155     26158     26155     26158     26159
     26155     26158     26160     26155     26158     26166     26159     26158     26160
     26159     26158     26166     26160     26158     26166     26158     26160     26161
     26160     26161     26162     26160     26161     26163     26162     26161     26163
     26161     26163     26164     26161     26163     26165     26161     26163     26175
     26164     26163     26165     26164     26163     26175     26165     26163     26175
     26158     26166     26167     26158     26166     26168     26158     26166     26169
     26167     26166     26168     26167     26166     26169     26168     26166     26169
     26166     26169     26170     26169     26170     26171     26169     26170     26172
     26171     26170     26172     26170     26172     26173     26170     26172     26174
     26170     26172     26222     26173     26172     26174     26173     26172     26222
     26174     26172     26222     26163     26175     26176     26163     26175     26177
     26163     26175     26178     26176     26175     26177     26176     26175     26178
     26177     26175     26178     26175     26178     26179     26175     26178     26180
     26175     26178     26181     26179     26178     26180     26179     26178     26181
     26180     26178     26181     26178     26181     26182     26178     26181     26183
     26178     26181     26184     26182     26181     26183     26182     26181     26184
     26183     26181     26184     26181     26184     26185     26181     26184     26186
     26181     26184     26187     26185     26184     26186     26185     26184     26187
     26186     26184     26187     26184     26187     26188     26184     26187     26189
     26184     26187     26190     26188     26187     26189     26188     26187     26190
     26189     26187     26190     26187     26190     26191     26187     26190     26192
     26187     26190     26193     26191     26190     26192     26191     26190     26193
     26192     26190     26193     26190     26193     26194     26190     26193     26195
     26194     26193     26195     26193     26195     26196     26193     26195     26197
     26196     26195     26197     26195     26197     26198     26195     26197     26199
     26195     26197     26200     26198     26197     26199     26198     26197     26200
     26199     26197     26200     26197     26200     26201     26197     26200     26202
     26197     26200     26203     26201     26200     26202     26201     26200     26203
     26202     26200     26203     26200     26203     26204     26200     26203     26205
     26200     26203     26206     26204     26203     26205     26204     26203     26206
     26205     26203     26206     26203     26206     26207     26203     26206     26208
     26203     26206     26209     26207     26206     26208     26207     26206     26209
     26208     26206     26209     26206     26209     26210     26206     26209     26211
     26206     26209     26212     26210     26209     26211     26210     26209     26212
     26211     26209     26212     26209     26212     26213     26209     26212     26214
     26209     26212     26215     26213     26212     26214     26213     26212     26215
     26214     26212     26215     26212     26215     26216     26212     26215     26217
     26212     26215     26218     26216     26215     26217     26216     26215     26218
     26217     26215     26218     26215     26218     26219     26215     26218     26220
     26215     26218     26221     26219     26218     26220     26219     26218     26221
     26220     26218     26221     26172     26222     26223     26172     26222     26224
     26172     26222     26225     26223     26222     26224     26223     26222     26225
     26224     26222     26225     26222     26225     26226     26222     26225     26227
     26222     26225     26228     26226     26225     26227     26226     26225     26228
     26227     26225     26228     26225     26228     26229     26225     26228     26230
     26225     26228     26231     26229     26228     26230     26229     26228     26231
     26230     26228     26231     26228     26231     26232     26228     26231     26233
     26228     26231     26234     26232     26231     26233     26232     26231     26234
     26233     26231     26234     26231     26234     26235     26231     26234     26236
     26231     26234     26237     26235     26234     26236     26235     26234     26237
     26236     26234     26237     26234     26237     26238     26234     26237     26239
     26234     26237     26240     26238     26237     26239     26238     26237     26240
     26239     26237     26240     26237     26240     26241     26237     26240     26242
     26237     26240     26243     26241     26240     26242     26241     26240     26243
     26242     26240     26243     26240     26243     26244     26240     26243     26245
     26240     26243     26246     26244     26243     26245     26244     26243     26246
     26245     26243     26246     26243     26246     26247     26243     26246     26248
     26243     26246     26249     26247     26246     26248     26247     26246     26249
     26248     26246     26249     26246     26249     26250     26246     26249     26251
     26246     26249     26252     26250     26249     26251     26250     26249     26252
     26251     26249     26252     26249     26252     26253     26249     26252     26254
     26249     26252     26255     26253     26252     26254     26253     26252     26255
     26254     26252     26255     26252     26255     26256     26252     26255     26257
     26252     26255     26258     26256     26255     26257     26256     26255     26258
     26257     26255     26258     26255     26258     26259     26255     26258     26260
     26255     26258     26261     26259     26258     26260     26259     26258     26261
     26260     26258     26261     26258     26261     26262     26258     26261     26263
     26258     26261     26264     26262     26261     26263     26262     26261     26264
     26263     26261     26264     26266     26265     26269     26266     26265     26273
     26266     26265     26277     26269     26265     26273     26269     26265     26277
     26273     26265     26277     26265     26266     26267     26265     26266     26268
     26265     26266     26281     26267     26266     26268     26267     26266     26281
     26268     26266     26281     26265     26269     26270     26265     26269     26271
     26265     26269     26272     26270     26269     26271     26270     26269     26272
     26271     26269     26272     26265     26273     26274     26265     26273     26275
     26265     26273     26276     26274     26273     26275     26274     26273     26276
     26275     26273     26276     26265     26277     26278     26265     26277     26279
     26265     26277     26280     26278     26277     26279     26278     26277     26280
     26279     26277     26280     26266     26281     26282     26266     26281     26283
     26266     26281     26287     26282     26281     26283     26282     26281     26287
     26283     26281     26287     26285     26284     26286     26285     26284     26287
     26285     26284     26288     26286     26284     26287     26286     26284     26288
     26287     26284     26288     26281     26287     26284     26284     26288     26289
     26288     26289     26290     26288     26289     26291     26288     26289     26292
     26290     26289     26291     26290     26289     26292     26291     26289     26292
     26289     26292     26293     26289     26292     26294     26289     26292     26300
     26293     26292     26294     26293     26292     26300     26294     26292     26300
     26292     26294     26295     26294     26295     26296     26294     26295     26297
     26296     26295     26297     26295     26297     26298     26295     26297     26299
     26295     26297     26309     26298     26297     26299     26298     26297     26309
     26299     26297     26309     26292     26300     26301     26292     26300     26302
     26292     26300     26303     26301     26300     26302     26301     26300     26303
     26302     26300     26303     26300     26303     26304     26303     26304     26305
     26303     26304     26306     26305     26304     26306     26304     26306     26307
     26304     26306     26308     26304     26306     26356     26307     26306     26308
     26307     26306     26356     26308     26306     26356     26297     26309     26310
     26297     26309     26311     26297     26309     26312     26310     26309     26311
     26310     26309     26312     26311     26309     26312     26309     26312     26313
     26309     26312     26314     26309     26312     26315     26313     26312     26314
     26313     26312     26315     26314     26312     26315     26312     26315     26316
     26312     26315     26317     26312     26315     26318     26316     26315     26317
     26316     26315     26318     26317     26315     26318     26315     26318     26319
     26315     26318     26320     26315     26318     26321     26319     26318     26320
     26319     26318     26321     26320     26318     26321     26318     26321     26322
     26318     26321     26323     26318     26321     26324     26322     26321     26323
     26322     26321     26324     26323     26321     26324     26321     26324     26325
     26321     26324     26326     26321     26324     26327     26325     26324     26326
     26325     26324     26327     26326     26324     26327     26324     26327     26328
     26324     26327     26329     26328     26327     26329     26327     26329     26330
     26327     26329     26331     26330     26329     26331     26329     26331     26332
     26329     26331     26333     26329     26331     26334     26332     26331     26333
     26332     26331     26334     26333     26331     26334     26331     26334     26335
     26331     26334     26336     26331     26334     26337     26335     26334     26336
     26335     26334     26337     26336     26334     26337     26334     26337     26338
     26334     26337     26339     26334     26337     26340     26338     26337     26339
     26338     26337     26340     26339     26337     26340     26337     26340     26341
     26337     26340     26342     26337     26340     26343     26341     26340     26342
     26341     26340     26343     26342     26340     26343     26340     26343     26344
     26340     26343     26345     26340     26343     26346     26344     26343     26345
     26344     26343     26346     26345     26343     26346     26343     26346     26347
     26343     26346     26348     26343     26346     26349     26347     26346     26348
     26347     26346     26349     26348     26346     26349     26346     26349     26350
     26346     26349     26351     26346     26349     26352     26350     26349     26351
     26350     26349     26352     26351     26349     26352     26349     26352     26353
     26349     26352     26354     26349     26352     26355     26353     26352     26354
     26353     26352     26355     26354     26352     26355     26306     26356     26357
     26306     26356     26358     26306     26356     26359     26357     26356     26358
     26357     26356     26359     26358     26356     26359     26356     26359     26360
     26356     26359     26361     26356     26359     26362     26360     26359     26361
     26360     26359     26362     26361     26359     26362     26359     26362     26363
     26359     26362     26364     26359     26362     26365     26363     26362     26364
     26363     26362     26365     26364     26362     26365     26362     26365     26366
     26362     26365     26367     26362     26365     26368     26366     26365     26367
     26366     26365     26368     26367     26365     26368     26365     26368     26369
     26365     26368     26370     26365     26368     26371     26369     26368     26370
     26369     26368     26371     26370     26368     26371     26368     26371     26372
     26368     26371     26373     26368     26371     26374     26372     26371     26373
     26372     26371     26374     26373     26371     26374     26371     26374     26375
     26371     26374     26376     26371     26374     26377     26375     26374     26376
     26375     26374     26377     26376     26374     26377     26374     26377     26378
     26374     26377     26379     26374     26377     26380     26378     26377     26379
     26378     26377     26380     26379     26377     26380     26377     26380     26381
     26377     26380     26382     26377     26380     26383     26381     26380     26382
     26381     26380     26383     26382     26380     26383     26380     26383     26384
     26380     26383     26385     26380     26383     26386     26384     26383     26385
     26384     26383     26386     26385     26383     26386     26383     26386     26387
     26383     26386     26388     26383     26386     26389     26387     26386     26388
     26387     26386     26389     26388     26386     26389     26386     26389     26390
     26386     26389     26391     26386     26389     26392     26390     26389     26391
     26390     26389     26392     26391     26389     26392     26389     26392     26393
     26389     26392     26394     26389     26392     26395     26393     26392     26394
     26393     26392     26395     26394     26392     26395     26392     26395     26396
     26392     26395     26397     26392     26395     26398     26396     26395     26397
     26396     26395     26398     26397     26395     26398     26400     26399     26403
     26400     26399     26407     26400     26399     26411     26403     26399     26407
     26403     26399     26411     26407     26399     26411     26399     26400     26401
     26399     26400     26402     26399     26400     26415     26401     26400     26402
     26401     26400     26415     26402     26400     26415     26399     26403     26404
     26399     26403     26405     26399     26403     26406     26404     26403     26405
     26404     26403     26406     26405     26403     26406     26399     26407     26408
     26399     26407     26409     26399     26407     26410     26408     26407     26409
     26408     26407     26410     26409     26407     26410     26399     26411     26412
     26399     26411     26413     26399     26411     26414     26412     26411     26413
     26412     26411     26414     26413     26411     26414     26400     26415     26416
     26400     26415     26417     26400     26415     26421     26416     26415     26417
     26416     26415     26421     26417     26415     26421     26419     26418     26420
     26419     26418     26421     26419     26418     26422     26420     26418     26421
     26420     26418     26422     26421     26418     26422     26415     26421     26418
     26418     26422     26423     26422     26423     26424     26422     26423     26425
     26422     26423     26426     26424     26423     26425     26424     26423     26426
     26425     26423     26426     26423     26426     26427     26423     26426     26428
     26423     26426     26434     26427     26426     26428     26427     26426     26434
     26428     26426     26434     26426     26428     26429     26428     26429     26430
     26428     26429     26431     26430     26429     26431     26429     26431     26432
     26429     26431     26433     26429     26431     26443     26432     26431     26433
     26432     26431     26443     26433     26431     26443     26426     26434     26435
     26426     26434     26436     26426     26434     26437     26435     26434     26436
     26435     26434     26437     26436     26434     26437     26434     26437     26438
     26437     26438     26439     26437     26438     26440     26439     26438     26440
     26438     26440     26441     26438     26440     26442     26438     26440     26490
     26441     26440     26442     26441     26440     26490     26442     26440     26490
     26431     26443     26444     26431     26443     26445     26431     26443     26446
     26444     26443     26445     26444     26443     26446     26445     26443     26446
     26443     26446     26447     26443     26446     26448     26443     26446     26449
     26447     26446     26448     26447     26446     26449     26448     26446     26449
     26446     26449     26450     26446     26449     26451     26446     26449     26452
     26450     26449     26451     26450     26449     26452     26451     26449     26452
     26449     26452     26453     26449     26452     26454     26449     26452     26455
     26453     26452     26454     26453     26452     26455     26454     26452     26455
     26452     26455     26456     26452     26455     26457     26452     26455     26458
     26456     26455     26457     26456     26455     26458     26457     26455     26458
     26455     26458     26459     26455     26458     26460     26455     26458     26461
     26459     26458     26460     26459     26458     26461     26460     26458     26461
     26458     26461     26462     26458     26461     26463     26462     26461     26463
     26461     26463     26464     26461     26463     26465     26464     26463     26465
     26463     26465     26466     26463     26465     26467     26463     26465     26468
     26466     26465     26467     26466     26465     26468     26467     26465     26468
     26465     26468     26469     26465     26468     26470     26465     26468     26471
     26469     26468     26470     26469     26468     26471     26470     26468     26471
     26468     26471     26472     26468     26471     26473     26468     26471     26474
     26472     26471     26473     26472     26471     26474     26473     26471     26474
     26471     26474     26475     26471     26474     26476     26471     26474     26477
     26475     26474     26476     26475     26474     26477     26476     26474     26477
     26474     26477     26478     26474     26477     26479     26474     26477     26480
     26478     26477     26479     26478     26477     26480     26479     26477     26480
     26477     26480     26481     26477     26480     26482     26477     26480     26483
     26481     26480     26482     26481     26480     26483     26482     26480     26483
     26480     26483     26484     26480     26483     26485     26480     26483     26486
     26484     26483     26485     26484     26483     26486     26485     26483     26486
     26483     26486     26487     26483     26486     26488     26483     26486     26489
     26487     26486     26488     26487     26486     26489     26488     26486     26489
     26440     26490     26491     26440     26490     26492     26440     26490     26493
     26491     26490     26492     26491     26490     26493     26492     26490     26493
     26490     26493     26494     26490     26493     26495     26490     26493     26496
     26494     26493     26495     26494     26493     26496     26495     26493     26496
     26493     26496     26497     26493     26496     26498     26493     26496     26499
     26497     26496     26498     26497     26496     26499     26498     26496     26499
     26496     26499     26500     26496     26499     26501     26496     26499     26502
     26500     26499     26501     26500     26499     26502     26501     26499     26502
     26499     26502     26503     26499     26502     26504     26499     26502     26505
     26503     26502     26504     26503     26502     26505     26504     26502     26505
     26502     26505     26506     26502     26505     26507     26502     26505     26508
     26506     26505     26507     26506     26505     26508     26507     26505     26508
     26505     26508     26509     26505     26508     26510     26505     26508     26511
     26509     26508     26510     26509     26508     26511     26510     26508     26511
     26508     26511     26512     26508     26511     26513     26508     26511     26514
     26512     26511     26513     26512     26511     26514     26513     26511     26514
     26511     26514     26515     26511     26514     26516     26511     26514     26517
     26515     26514     26516     26515     26514     26517     26516     26514     26517
     26514     26517     26518     26514     26517     26519     26514     26517     26520
     26518     26517     26519     26518     26517     26520     26519     26517     26520
     26517     26520     26521     26517     26520     26522     26517     26520     26523
     26521     26520     26522     26521     26520     26523     26522     26520     26523
     26520     26523     26524     26520     26523     26525     26520     26523     26526
     26524     26523     26525     26524     26523     26526     26525     26523     26526
     26523     26526     26527     26523     26526     26528     26523     26526     26529
     26527     26526     26528     26527     26526     26529     26528     26526     26529
     26526     26529     26530     26526     26529     26531     26526     26529     26532
     26530     26529     26531     26530     26529     26532     26531     26529     26532
     26534     26533     26537     26534     26533     26541     26534     26533     26545
     26537     26533     26541     26537     26533     26545     26541     26533     26545
     26533     26534     26535     26533     26534     26536     26533     26534     26549
     26535     26534     26536     26535     26534     26549     26536     26534     26549
     26533     26537     26538     26533     26537     26539     26533     26537     26540
     26538     26537     26539     26538     26537     26540     26539     26537     26540
     26533     26541     26542     26533     26541     26543     26533     26541     26544
     26542     26541     26543     26542     26541     26544     26543     26541     26544
     26533     26545     26546     26533     26545     26547     26533     26545     26548
     26546     26545     26547     26546     26545     26548     26547     26545     26548
     26534     26549     26550     26534     26549     26551     26534     26549     26555
     26550     26549     26551     26550     26549     26555     26551     26549     26555
     26553     26552     26554     26553     26552     26555     26553     26552     26556
     26554     26552     26555     26554     26552     26556     26555     26552     26556
     26549     26555     26552     26552     26556     26557     26556     26557     26558
     26556     26557     26559     26556     26557     26560     26558     26557     26559
     26558     26557     26560     26559     26557     26560     26557     26560     26561
     26557     26560     26562     26557     26560     26568     26561     26560     26562
     26561     26560     26568     26562     26560     26568     26560     26562     26563
     26562     26563     26564     26562     26563     26565     26564     26563     26565
     26563     26565     26566     26563     26565     26567     26563     26565     26577
     26566     26565     26567     26566     26565     26577     26567     26565     26577
     26560     26568     26569     26560     26568     26570     26560     26568     26571
     26569     26568     26570     26569     26568     26571     26570     26568     26571
     26568     26571     26572     26571     26572     26573     26571     26572     26574
     26573     26572     26574     26572     26574     26575     26572     26574     26576
     26572     26574     26624     26575     26574     26576     26575     26574     26624
     26576     26574     26624     26565     26577     26578     26565     26577     26579
     26565     26577     26580     26578     26577     26579     26578     26577     26580
     26579     26577     26580     26577     26580     26581     26577     26580     26582
     26577     26580     26583     26581     26580     26582     26581     26580     26583
     26582     26580     26583     26580     26583     26584     26580     26583     26585
     26580     26583     26586     26584     26583     26585     26584     26583     26586
     26585     26583     26586     26583     26586     26587     26583     26586     26588
     26583     26586     26589     26587     26586     26588     26587     26586     26589
     26588     26586     26589     26586     26589     26590     26586     26589     26591
     26586     26589     26592     26590     26589     26591     26590     26589     26592
     26591     26589     26592     26589     26592     26593     26589     26592     26594
     26589     26592     26595     26593     26592     26594     26593     26592     26595
     26594     26592     26595     26592     26595     26596     26592     26595     26597
     26596     26595     26597     26595     26597     26598     26595     26597     26599
     26598     26597     26599     26597     26599     26600     26597     26599     26601
     26597     26599     26602     26600     26599     26601     26600     26599     26602
     26601     26599     26602     26599     26602     26603     26599     26602     26604
     26599     26602     26605     26603     26602     26604     26603     26602     26605
     26604     26602     26605     26602     26605     26606     26602     26605     26607
     26602     26605     26608     26606     26605     26607     26606     26605     26608
     26607     26605     26608     26605     26608     26609     26605     26608     26610
     26605     26608     26611     26609     26608     26610     26609     26608     26611
     26610     26608     26611     26608     26611     26612     26608     26611     26613
     26608     26611     26614     26612     26611     26613     26612     26611     26614
     26613     26611     26614     26611     26614     26615     26611     26614     26616
     26611     26614     26617     26615     26614     26616     26615     26614     26617
     26616     26614     26617     26614     26617     26618     26614     26617     26619
     26614     26617     26620     26618     26617     26619     26618     26617     26620
     26619     26617     26620     26617     26620     26621     26617     26620     26622
     26617     26620     26623     26621     26620     26622     26621     26620     26623
     26622     26620     26623     26574     26624     26625     26574     26624     26626
     26574     26624     26627     26625     26624     26626     26625     26624     26627
     26626     26624     26627     26624     26627     26628     26624     26627     26629
     26624     26627     26630     26628     26627     26629     26628     26627     26630
     26629     26627     26630     26627     26630     26631     26627     26630     26632
     26627     26630     26633     26631     26630     26632     26631     26630     26633
     26632     26630     26633     26630     26633     26634     26630     26633     26635
     26630     26633     26636     26634     26633     26635     26634     26633     26636
     26635     26633     26636     26633     26636     26637     26633     26636     26638
     26633     26636     26639     26637     26636     26638     26637     26636     26639
     26638     26636     26639     26636     26639     26640     26636     26639     26641
     26636     26639     26642     26640     26639     26641     26640     26639     26642
     26641     26639     26642     26639     26642     26643     26639     26642     26644
     26639     26642     26645     26643     26642     26644     26643     26642     26645
     26644     26642     26645     26642     26645     26646     26642     26645     26647
     26642     26645     26648     26646     26645     26647     26646     26645     26648
     26647     26645     26648     26645     26648     26649     26645     26648     26650
     26645     26648     26651     26649     26648     26650     26649     26648     26651
     26650     26648     26651     26648     26651     26652     26648     26651     26653
     26648     26651     26654     26652     26651     26653     26652     26651     26654
     26653     26651     26654     26651     26654     26655     26651     26654     26656
     26651     26654     26657     26655     26654     26656     26655     26654     26657
     26656     26654     26657     26654     26657     26658     26654     26657     26659
     26654     26657     26660     26658     26657     26659     26658     26657     26660
     26659     26657     26660     26657     26660     26661     26657     26660     26662
     26657     26660     26663     26661     26660     26662     26661     26660     26663
     26662     26660     26663     26660     26663     26664     26660     26663     26665
     26660     26663     26666     26664     26663     26665     26664     26663     26666
     26665     26663     26666     26668     26667     26671     26668     26667     26675
     26668     26667     26679     26671     26667     26675     26671     26667     26679
     26675     26667     26679     26667     26668     26669     26667     26668     26670
     26667     26668     26683     26669     26668     26670     26669     26668     26683
     26670     26668     26683     26667     26671     26672     26667     26671     26673
     26667     26671     26674     26672     26671     26673     26672     26671     26674
     26673     26671     26674     26667     26675     26676     26667     26675     26677
     26667     26675     26678     26676     26675     26677     26676     26675     26678
     26677     26675     26678     26667     26679     26680     26667     26679     26681
     26667     26679     26682     26680     26679     26681     26680     26679     26682
     26681     26679     26682     26668     26683     26684     26668     26683     26685
     26668     26683     26689     26684     26683     26685     26684     26683     26689
     26685     26683     26689     26687     26686     26688     26687     26686     26689
     26687     26686     26690     26688     26686     26689     26688     26686     26690
     26689     26686     26690     26683     26689     26686     26686     26690     26691
     26690     26691     26692     26690     26691     26693     26690     26691     26694
     26692     26691     26693     26692     26691     26694     26693     26691     26694
     26691     26694     26695     26691     26694     26696     26691     26694     26702
     26695     26694     26696     26695     26694     26702     26696     26694     26702
     26694     26696     26697     26696     26697     26698     26696     26697     26699
     26698     26697     26699     26697     26699     26700     26697     26699     26701
     26697     26699     26711     26700     26699     26701     26700     26699     26711
     26701     26699     26711     26694     26702     26703     26694     26702     26704
     26694     26702     26705     26703     26702     26704     26703     26702     26705
     26704     26702     26705     26702     26705     26706     26705     26706     26707
     26705     26706     26708     26707     26706     26708     26706     26708     26709
     26706     26708     26710     26706     26708     26758     26709     26708     26710
     26709     26708     26758     26710     26708     26758     26699     26711     26712
     26699     26711     26713     26699     26711     26714     26712     26711     26713
     26712     26711     26714     26713     26711     26714     26711     26714     26715
     26711     26714     26716     26711     26714     26717     26715     26714     26716
     26715     26714     26717     26716     26714     26717     26714     26717     26718
     26714     26717     26719     26714     26717     26720     26718     26717     26719
     26718     26717     26720     26719     26717     26720     26717     26720     26721
     26717     26720     26722     26717     26720     26723     26721     26720     26722
     26721     26720     26723     26722     26720     26723     26720     26723     26724
     26720     26723     26725     26720     26723     26726     26724     26723     26725
     26724     26723     26726     26725     26723     26726     26723     26726     26727
     26723     26726     26728     26723     26726     26729     26727     26726     26728
     26727     26726     26729     26728     26726     26729     26726     26729     26730
     26726     26729     26731     26730     26729     26731     26729     26731     26732
     26729     26731     26733     26732     26731     26733     26731     26733     26734
     26731     26733     26735     26731     26733     26736     26734     26733     26735
     26734     26733     26736     26735     26733     26736     26733     26736     26737
     26733     26736     26738     26733     26736     26739     26737     26736     26738
     26737     26736     26739     26738     26736     26739     26736     26739     26740
     26736     26739     26741     26736     26739     26742     26740     26739     26741
     26740     26739     26742     26741     26739     26742     26739     26742     26743
     26739     26742     26744     26739     26742     26745     26743     26742     26744
     26743     26742     26745     26744     26742     26745     26742     26745     26746
     26742     26745     26747     26742     26745     26748     26746     26745     26747
     26746     26745     26748     26747     26745     26748     26745     26748     26749
     26745     26748     26750     26745     26748     26751     26749     26748     26750
     26749     26748     26751     26750     26748     26751     26748     26751     26752
     26748     26751     26753     26748     26751     26754     26752     26751     26753
     26752     26751     26754     26753     26751     26754     26751     26754     26755
     26751     26754     26756     26751     26754     26757     26755     26754     26756
     26755     26754     26757     26756     26754     26757     26708     26758     26759
     26708     26758     26760     26708     26758     26761     26759     26758     26760
     26759     26758     26761     26760     26758     26761     26758     26761     26762
     26758     26761     26763     26758     26761     26764     26762     26761     26763
     26762     26761     26764     26763     26761     26764     26761     26764     26765
     26761     26764     26766     26761     26764     26767     26765     26764     26766
     26765     26764     26767     26766     26764     26767     26764     26767     26768
     26764     26767     26769     26764     26767     26770     26768     26767     26769
     26768     26767     26770     26769     26767     26770     26767     26770     26771
     26767     26770     26772     26767     26770     26773     26771     26770     26772
     26771     26770     26773     26772     26770     26773     26770     26773     26774
     26770     26773     26775     26770     26773     26776     26774     26773     26775
     26774     26773     26776     26775     26773     26776     26773     26776     26777
     26773     26776     26778     26773     26776     26779     26777     26776     26778
     26777     26776     26779     26778     26776     26779     26776     26779     26780
     26776     26779     26781     26776     26779     26782     26780     26779     26781
     26780     26779     26782     26781     26779     26782     26779     26782     26783
     26779     26782     26784     26779     26782     26785     26783     26782     26784
     26783     26782     26785     26784     26782     26785     26782     26785     26786
     26782     26785     26787     26782     26785     26788     26786     26785     26787
     26786     26785     26788     26787     26785     26788     26785     26788     26789
     26785     26788     26790     26785     26788     26791     26789     26788     26790
     26789     26788     26791     26790     26788     26791     26788     26791     26792
     26788     26791     26793     26788     26791     26794     26792     26791     26793
     26792     26791     26794     26793     26791     26794     26791     26794     26795
     26791     26794     26796     26791     26794     26797     26795     26794     26796
     26795     26794     26797     26796     26794     26797     26794     26797     26798
     26794     26797     26799     26794     26797     26800     26798     26797     26799
     26798     26797     26800     26799     26797     26800     26802     26801     26805
     26802     26801     26809     26802     26801     26813     26805     26801     26809
     26805     26801     26813     26809     26801     26813     26801     26802     26803
     26801     26802     26804     26801     26802     26817     26803     26802     26804
     26803     26802     26817     26804     26802     26817     26801     26805     26806
     26801     26805     26807     26801     26805     26808     26806     26805     26807
     26806     26805     26808     26807     26805     26808     26801     26809     26810
     26801     26809     26811     26801     26809     26812     26810     26809     26811
     26810     26809     26812     26811     26809     26812     26801     26813     26814
     26801     26813     26815     26801     26813     26816     26814     26813     26815
     26814     26813     26816     26815     26813     26816     26802     26817     26818
     26802     26817     26819     26802     26817     26823     26818     26817     26819
     26818     26817     26823     26819     26817     26823     26821     26820     26822
     26821     26820     26823     26821     26820     26824     26822     26820     26823
     26822     26820     26824     26823     26820     26824     26817     26823     26820
     26820     26824     26825     26824     26825     26826     26824     26825     26827
     26824     26825     26828     26826     26825     26827     26826     26825     26828
     26827     26825     26828     26825     26828     26829     26825     26828     26830
     26825     26828     26836     26829     26828     26830     26829     26828     26836
     26830     26828     26836     26828     26830     26831     26830     26831     26832
     26830     26831     26833     26832     26831     26833     26831     26833     26834
     26831     26833     26835     26831     26833     26845     26834     26833     26835
     26834     26833     26845     26835     26833     26845     26828     26836     26837
     26828     26836     26838     26828     26836     26839     26837     26836     26838
     26837     26836     26839     26838     26836     26839     26836     26839     26840
     26839     26840     26841     26839     26840     26842     26841     26840     26842
     26840     26842     26843     26840     26842     26844     26840     26842     26892
     26843     26842     26844     26843     26842     26892     26844     26842     26892
     26833     26845     26846     26833     26845     26847     26833     26845     26848
     26846     26845     26847     26846     26845     26848     26847     26845     26848
     26845     26848     26849     26845     26848     26850     26845     26848     26851
     26849     26848     26850     26849     26848     26851     26850     26848     26851
     26848     26851     26852     26848     26851     26853     26848     26851     26854
     26852     26851     26853     26852     26851     26854     26853     26851     26854
     26851     26854     26855     26851     26854     26856     26851     26854     26857
     26855     26854     26856     26855     26854     26857     26856     26854     26857
     26854     26857     26858     26854     26857     26859     26854     26857     26860
     26858     26857     26859     26858     26857     26860     26859     26857     26860
     26857     26860     26861     26857     26860     26862     26857     26860     26863
     26861     26860     26862     26861     26860     26863     26862     26860     26863
     26860     26863     26864     26860     26863     26865     26864     26863     26865
     26863     26865     26866     26863     26865     26867     26866     26865     26867
     26865     26867     26868     26865     26867     26869     26865     26867     26870
     26868     26867     26869     26868     26867     26870     26869     26867     26870
     26867     26870     26871     26867     26870     26872     26867     26870     26873
     26871     26870     26872     26871     26870     26873     26872     26870     26873
     26870     26873     26874     26870     26873     26875     26870     26873     26876
     26874     26873     26875     26874     26873     26876     26875     26873     26876
     26873     26876     26877     26873     26876     26878     26873     26876     26879
     26877     26876     26878     26877     26876     26879     26878     26876     26879
     26876     26879     26880     26876     26879     26881     26876     26879     26882
     26880     26879     26881     26880     26879     26882     26881     26879     26882
     26879     26882     26883     26879     26882     26884     26879     26882     26885
     26883     26882     26884     26883     26882     26885     26884     26882     26885
     26882     26885     26886     26882     26885     26887     26882     26885     26888
     26886     26885     26887     26886     26885     26888     26887     26885     26888
     26885     26888     26889     26885     26888     26890     26885     26888     26891
     26889     26888     26890     26889     26888     26891     26890     26888     26891
     26842     26892     26893     26842     26892     26894     26842     26892     26895
     26893     26892     26894     26893     26892     26895     26894     26892     26895
     26892     26895     26896     26892     26895     26897     26892     26895     26898
     26896     26895     26897     26896     26895     26898     26897     26895     26898
     26895     26898     26899     26895     26898     26900     26895     26898     26901
     26899     26898     26900     26899     26898     26901     26900     26898     26901
     26898     26901     26902     26898     26901     26903     26898     26901     26904
     26902     26901     26903     26902     26901     26904     26903     26901     26904
     26901     26904     26905     26901     26904     26906     26901     26904     26907
     26905     26904     26906     26905     26904     26907     26906     26904     26907
     26904     26907     26908     26904     26907     26909     26904     26907     26910
     26908     26907     26909     26908     26907     26910     26909     26907     26910
     26907     26910     26911     26907     26910     26912     26907     26910     26913
     26911     26910     26912     26911     26910     26913     26912     26910     26913
     26910     26913     26914     26910     26913     26915     26910     26913     26916
     26914     26913     26915     26914     26913     26916     26915     26913     26916
     26913     26916     26917     26913     26916     26918     26913     26916     26919
     26917     26916     26918     26917     26916     26919     26918     26916     26919
     26916     26919     26920     26916     26919     26921     26916     26919     26922
     26920     26919     26921     26920     26919     26922     26921     26919     26922
     26919     26922     26923     26919     26922     26924     26919     26922     26925
     26923     26922     26924     26923     26922     26925     26924     26922     26925
     26922     26925     26926     26922     26925     26927     26922     26925     26928
     26926     26925     26927     26926     26925     26928     26927     26925     26928
     26925     26928     26929     26925     26928     26930     26925     26928     26931
     26929     26928     26930     26929     26928     26931     26930     26928     26931
     26928     26931     26932     26928     26931     26933     26928     26931     26934
     26932     26931     26933     26932     26931     26934     26933     26931     26934
     26936     26935     26939     26936     26935     26943     26936     26935     26947
     26939     26935     26943     26939     26935     26947     26943     26935     26947
     26935     26936     26937     26935     26936     26938     26935     26936     26951
     26937     26936     26938     26937     26936     26951     26938     26936     26951
     26935     26939     26940     26935     26939     26941     26935     26939     26942
     26940     26939     26941     26940     26939     26942     26941     26939     26942
     26935     26943     26944     26935     26943     26945     26935     26943     26946
     26944     26943     26945     26944     26943     26946     26945     26943     26946
     26935     26947     26948     26935     26947     26949     26935     26947     26950
     26948     26947     26949     26948     26947     26950     26949     26947     26950
     26936     26951     26952     26936     26951     26953     26936     26951     26957
     26952     26951     26953     26952     26951     26957     26953     26951     26957
     26955     26954     26956     26955     26954     26957     26955     26954     26958
     26956     26954     26957     26956     26954     26958     26957     26954     26958
     26951     26957     26954     26954     26958     26959     26958     26959     26960
     26958     26959     26961     26958     26959     26962     26960     26959     26961
     26960     26959     26962     26961     26959     26962     26959     26962     26963
     26959     26962     26964     26959     26962     26970     26963     26962     26964
     26963     26962     26970     26964     26962     26970     26962     26964     26965
     26964     26965     26966     26964     26965     26967     26966     26965     26967
     26965     26967     26968     26965     26967     26969     26965     26967     26979
     26968     26967     26969     26968     26967     26979     26969     26967     26979
     26962     26970     26971     26962     26970     26972     26962     26970     26973
     26971     26970     26972     26971     26970     26973     26972     26970     26973
     26970     26973     26974     26973     26974     26975     26973     26974     26976
     26975     26974     26976     26974     26976     26977     26974     26976     26978
     26974     26976     27026     26977     26976     26978     26977     26976     27026
     26978     26976     27026     26967     26979     26980     26967     26979     26981
     26967     26979     26982     26980     26979     26981     26980     26979     26982
     26981     26979     26982     26979     26982     26983     26979     26982     26984
     26979     26982     26985     26983     26982     26984     26983     26982     26985
     26984     26982     26985     26982     26985     26986     26982     26985     26987
     26982     26985     26988     26986     26985     26987     26986     26985     26988
     26987     26985     26988     26985     26988     26989     26985     26988     26990
     26985     26988     26991     26989     26988     26990     26989     26988     26991
     26990     26988     26991     26988     26991     26992     26988     26991     26993
     26988     26991     26994     26992     26991     26993     26992     26991     26994
     26993     26991     26994     26991     26994     26995     26991     26994     26996
     26991     26994     26997     26995     26994     26996     26995     26994     26997
     26996     26994     26997     26994     26997     26998     26994     26997     26999
     26998     26997     26999     26997     26999     27000     26997     26999     27001
     27000     26999     27001     26999     27001     27002     26999     27001     27003
     26999     27001     27004     27002     27001     27003     27002     27001     27004
     27003     27001     27004     27001     27004     27005     27001     27004     27006
     27001     27004     27007     27005     27004     27006     27005     27004     27007
     27006     27004     27007     27004     27007     27008     27004     27007     27009
     27004     27007     27010     27008     27007     27009     27008     27007     27010
     27009     27007     27010     27007     27010     27011     27007     27010     27012
     27007     27010     27013     27011     27010     27012     27011     27010     27013
     27012     27010     27013     27010     27013     27014     27010     27013     27015
     27010     27013     27016     27014     27013     27015     27014     27013     27016
     27015     27013     27016     27013     27016     27017     27013     27016     27018
     27013     27016     27019     27017     27016     27018     27017     27016     27019
     27018     27016     27019     27016     27019     27020     27016     27019     27021
     27016     27019     27022     27020     27019     27021     27020     27019     27022
     27021     27019     27022     27019     27022     27023     27019     27022     27024
     27019     27022     27025     27023     27022     27024     27023     27022     27025
     27024     27022     27025     26976     27026     27027     26976     27026     27028
     26976     27026     27029     27027     27026     27028     27027     27026     27029
     27028     27026     27029     27026     27029     27030     27026     27029     27031
     27026     27029     27032     27030     27029     27031     27030     27029     27032
     27031     27029     27032     27029     27032     27033     27029     27032     27034
     27029     27032     27035     27033     27032     27034     27033     27032     27035
     27034     27032     27035     27032     27035     27036     27032     27035     27037
     27032     27035     27038     27036     27035     27037     27036     27035     27038
     27037     27035     27038     27035     27038     27039     27035     27038     27040
     27035     27038     27041     27039     27038     27040     27039     27038     27041
     27040     27038     27041     27038     27041     27042     27038     27041     27043
     27038     27041     27044     27042     27041     27043     27042     27041     27044
     27043     27041     27044     27041     27044     27045     27041     27044     27046
     27041     27044     27047     27045     27044     27046     27045     27044     27047
     27046     27044     27047     27044     27047     27048     27044     27047     27049
     27044     27047     27050     27048     27047     27049     27048     27047     27050
     27049     27047     27050     27047     27050     27051     27047     27050     27052
     27047     27050     27053     27051     27050     27052     27051     27050     27053
     27052     27050     27053     27050     27053     27054     27050     27053     27055
     27050     27053     27056     27054     27053     27055     27054     27053     27056
     27055     27053     27056     27053     27056     27057     27053     27056     27058
     27053     27056     27059     27057     27056     27058     27057     27056     27059
     27058     27056     27059     27056     27059     27060     27056     27059     27061
     27056     27059     27062     27060     27059     27061     27060     27059     27062
     27061     27059     27062     27059     27062     27063     27059     27062     27064
     27059     27062     27065     27063     27062     27064     27063     27062     27065
     27064     27062     27065     27062     27065     27066     27062     27065     27067
     27062     27065     27068     27066     27065     27067     27066     27065     27068
     27067     27065     27068     27070     27069     27073     27070     27069     27077
     27070     27069     27081     27073     27069     27077     27073     27069     27081
     27077     27069     27081     27069     27070     27071     27069     27070     27072
     27069     27070     27085     27071     27070     27072     27071     27070     27085
     27072     27070     27085     27069     27073     27074     27069     27073     27075
     27069     27073     27076     27074     27073     27075     27074     27073     27076
     27075     27073     27076     27069     27077     27078     27069     27077     27079
     27069     27077     27080     27078     27077     27079     27078     27077     27080
     27079     27077     27080     27069     27081     27082     27069     27081     27083
     27069     27081     27084     27082     27081     27083     27082     27081     27084
     27083     27081     27084     27070     27085     27086     27070     27085     27087
     27070     27085     27091     27086     27085     27087     27086     27085     27091
     27087     27085     27091     27089     27088     27090     27089     27088     27091
     27089     27088     27092     27090     27088     27091     27090     27088     27092
     27091     27088     27092     27085     27091     27088     27088     27092     27093
     27092     27093     27094     27092     27093     27095     27092     27093     27096
     27094     27093     27095     27094     27093     27096     27095     27093     27096
     27093     27096     27097     27093     27096     27098     27093     27096     27104
     27097     27096     27098     27097     27096     27104     27098     27096     27104
     27096     27098     27099     27098     27099     27100     27098     27099     27101
     27100     27099     27101     27099     27101     27102     27099     27101     27103
     27099     27101     27113     27102     27101     27103     27102     27101     27113
     27103     27101     27113     27096     27104     27105     27096     27104     27106
     27096     27104     27107     27105     27104     27106     27105     27104     27107
     27106     27104     27107     27104     27107     27108     27107     27108     27109
     27107     27108     27110     27109     27108     27110     27108     27110     27111
     27108     27110     27112     27108     27110     27160     27111     27110     27112
     27111     27110     27160     27112     27110     27160     27101     27113     27114
     27101     27113     27115     27101     27113     27116     27114     27113     27115
     27114     27113     27116     27115     27113     27116     27113     27116     27117
     27113     27116     27118     27113     27116     27119     27117     27116     27118
     27117     27116     27119     27118     27116     27119     27116     27119     27120
     27116     27119     27121     27116     27119     27122     27120     27119     27121
     27120     27119     27122     27121     27119     27122     27119     27122     27123
     27119     27122     27124     27119     27122     27125     27123     27122     27124
     27123     27122     27125     27124     27122     27125     27122     27125     27126
     27122     27125     27127     27122     27125     27128     27126     27125     27127
     27126     27125     27128     27127     27125     27128     27125     27128     27129
     27125     27128     27130     27125     27128     27131     27129     27128     27130
     27129     27128     27131     27130     27128     27131     27128     27131     27132
     27128     27131     27133     27132     27131     27133     27131     27133     27134
     27131     27133     27135     27134     27133     27135     27133     27135     27136
     27133     27135     27137     27133     27135     27138     27136     27135     27137
     27136     27135     27138     27137     27135     27138     27135     27138     27139
     27135     27138     27140     27135     27138     27141     27139     27138     27140
     27139     27138     27141     27140     27138     27141     27138     27141     27142
     27138     27141     27143     27138     27141     27144     27142     27141     27143
     27142     27141     27144     27143     27141     27144     27141     27144     27145
     27141     27144     27146     27141     27144     27147     27145     27144     27146
     27145     27144     27147     27146     27144     27147     27144     27147     27148
     27144     27147     27149     27144     27147     27150     27148     27147     27149
     27148     27147     27150     27149     27147     27150     27147     27150     27151
     27147     27150     27152     27147     27150     27153     27151     27150     27152
     27151     27150     27153     27152     27150     27153     27150     27153     27154
     27150     27153     27155     27150     27153     27156     27154     27153     27155
     27154     27153     27156     27155     27153     27156     27153     27156     27157
     27153     27156     27158     27153     27156     27159     27157     27156     27158
     27157     27156     27159     27158     27156     27159     27110     27160     27161
     27110     27160     27162     27110     27160     27163     27161     27160     27162
     27161     27160     27163     27162     27160     27163     27160     27163     27164
     27160     27163     27165     27160     27163     27166     27164     27163     27165
     27164     27163     27166     27165     27163     27166     27163     27166     27167
     27163     27166     27168     27163     27166     27169     27167     27166     27168
     27167     27166     27169     27168     27166     27169     27166     27169     27170
     27166     27169     27171     27166     27169     27172     27170     27169     27171
     27170     27169     27172     27171     27169     27172     27169     27172     27173
     27169     27172     27174     27169     27172     27175     27173     27172     27174
     27173     27172     27175     27174     27172     27175     27172     27175     27176
     27172     27175     27177     27172     27175     27178     27176     27175     27177
     27176     27175     27178     27177     27175     27178     27175     27178     27179
     27175     27178     27180     27175     27178     27181     27179     27178     27180
     27179     27178     27181     27180     27178     27181     27178     27181     27182
     27178     27181     27183     27178     27181     27184     27182     27181     27183
     27182     27181     27184     27183     27181     27184     27181     27184     27185
     27181     27184     27186     27181     27184     27187     27185     27184     27186
     27185     27184     27187     27186     27184     27187     27184     27187     27188
     27184     27187     27189     27184     27187     27190     27188     27187     27189
     27188     27187     27190     27189     27187     27190     27187     27190     27191
     27187     27190     27192     27187     27190     27193     27191     27190     27192
     27191     27190     27193     27192     27190     27193     27190     27193     27194
     27190     27193     27195     27190     27193     27196     27194     27193     27195
     27194     27193     27196     27195     27193     27196     27193     27196     27197
     27193     27196     27198     27193     27196     27199     27197     27196     27198
     27197     27196     27199     27198     27196     27199     27196     27199     27200
     27196     27199     27201     27196     27199     27202     27200     27199     27201
     27200     27199     27202     27201     27199     27202     27204     27203     27207
     27204     27203     27211     27204     27203     27215     27207     27203     27211
     27207     27203     27215     27211     27203     27215     27203     27204     27205
     27203     27204     27206     27203     27204     27219     27205     27204     27206
     27205     27204     27219     27206     27204     27219     27203     27207     27208
     27203     27207     27209     27203     27207     27210     27208     27207     27209
     27208     27207     27210     27209     27207     27210     27203     27211     27212
     27203     27211     27213     27203     27211     27214     27212     27211     27213
     27212     27211     27214     27213     27211     27214     27203     27215     27216
     27203     27215     27217     27203     27215     27218     27216     27215     27217
     27216     27215     27218     27217     27215     27218     27204     27219     27220
     27204     27219     27221     27204     27219     27225     27220     27219     27221
     27220     27219     27225     27221     27219     27225     27223     27222     27224
     27223     27222     27225     27223     27222     27226     27224     27222     27225
     27224     27222     27226     27225     27222     27226     27219     27225     27222
     27222     27226     27227     27226     27227     27228     27226     27227     27229
     27226     27227     27230     27228     27227     27229     27228     27227     27230
     27229     27227     27230     27227     27230     27231     27227     27230     27232
     27227     27230     27238     27231     27230     27232     27231     27230     27238
     27232     27230     27238     27230     27232     27233     27232     27233     27234
     27232     27233     27235     27234     27233     27235     27233     27235     27236
     27233     27235     27237     27233     27235     27247     27236     27235     27237
     27236     27235     27247     27237     27235     27247     27230     27238     27239
     27230     27238     27240     27230     27238     27241     27239     27238     27240
     27239     27238     27241     27240     27238     27241     27238     27241     27242
     27241     27242     27243     27241     27242     27244     27243     27242     27244
     27242     27244     27245     27242     27244     27246     27242     27244     27294
     27245     27244     27246     27245     27244     27294     27246     27244     27294
     27235     27247     27248     27235     27247     27249     27235     27247     27250
     27248     27247     27249     27248     27247     27250     27249     27247     27250
     27247     27250     27251     27247     27250     27252     27247     27250     27253
     27251     27250     27252     27251     27250     27253     27252     27250     27253
     27250     27253     27254     27250     27253     27255     27250     27253     27256
     27254     27253     27255     27254     27253     27256     27255     27253     27256
     27253     27256     27257     27253     27256     27258     27253     27256     27259
     27257     27256     27258     27257     27256     27259     27258     27256     27259
     27256     27259     27260     27256     27259     27261     27256     27259     27262
     27260     27259     27261     27260     27259     27262     27261     27259     27262
     27259     27262     27263     27259     27262     27264     27259     27262     27265
     27263     27262     27264     27263     27262     27265     27264     27262     27265
     27262     27265     27266     27262     27265     27267     27266     27265     27267
     27265     27267     27268     27265     27267     27269     27268     27267     27269
     27267     27269     27270     27267     27269     27271     27267     27269     27272
     27270     27269     27271     27270     27269     27272     27271     27269     27272
     27269     27272     27273     27269     27272     27274     27269     27272     27275
     27273     27272     27274     27273     27272     27275     27274     27272     27275
     27272     27275     27276     27272     27275     27277     27272     27275     27278
     27276     27275     27277     27276     27275     27278     27277     27275     27278
     27275     27278     27279     27275     27278     27280     27275     27278     27281
     27279     27278     27280     27279     27278     27281     27280     27278     27281
     27278     27281     27282     27278     27281     27283     27278     27281     27284
     27282     27281     27283     27282     27281     27284     27283     27281     27284
     27281     27284     27285     27281     27284     27286     27281     27284     27287
     27285     27284     27286     27285     27284     27287     27286     27284     27287
     27284     27287     27288     27284     27287     27289     27284     27287     27290
     27288     27287     27289     27288     27287     27290     27289     27287     27290
     27287     27290     27291     27287     27290     27292     27287     27290     27293
     27291     27290     27292     27291     27290     27293     27292     27290     27293
     27244     27294     27295     27244     27294     27296     27244     27294     27297
     27295     27294     27296     27295     27294     27297     27296     27294     27297
     27294     27297     27298     27294     27297     27299     27294     27297     27300
     27298     27297     27299     27298     27297     27300     27299     27297     27300
     27297     27300     27301     27297     27300     27302     27297     27300     27303
     27301     27300     27302     27301     27300     27303     27302     27300     27303
     27300     27303     27304     27300     27303     27305     27300     27303     27306
     27304     27303     27305     27304     27303     27306     27305     27303     27306
     27303     27306     27307     27303     27306     27308     27303     27306     27309
     27307     27306     27308     27307     27306     27309     27308     27306     27309
     27306     27309     27310     27306     27309     27311     27306     27309     27312
     27310     27309     27311     27310     27309     27312     27311     27309     27312
     27309     27312     27313     27309     27312     27314     27309     27312     27315
     27313     27312     27314     27313     27312     27315     27314     27312     27315
     27312     27315     27316     27312     27315     27317     27312     27315     27318
     27316     27315     27317     27316     27315     27318     27317     27315     27318
     27315     27318     27319     27315     27318     27320     27315     27318     27321
     27319     27318     27320     27319     27318     27321     27320     27318     27321
     27318     27321     27322     27318     27321     27323     27318     27321     27324
     27322     27321     27323     27322     27321     27324     27323     27321     27324
     27321     27324     27325     27321     27324     27326     27321     27324     27327
     27325     27324     27326     27325     27324     27327     27326     27324     27327
     27324     27327     27328     27324     27327     27329     27324     27327     27330
     27328     27327     27329     27328     27327     27330     27329     27327     27330
     27327     27330     27331     27327     27330     27332     27327     27330     27333
     27331     27330     27332     27331     27330     27333     27332     27330     27333
     27330     27333     27334     27330     27333     27335     27330     27333     27336
     27334     27333     27335     27334     27333     27336     27335     27333     27336
     27338     27337     27341     27338     27337     27345     27338     27337     27349
     27341     27337     27345     27341     27337     27349     27345     27337     27349
     27337     27338     27339     27337     27338     27340     27337     27338     27353
     27339     27338     27340     27339     27338     27353     27340     27338     27353
     27337     27341     27342     27337     27341     27343     27337     27341     27344
     27342     27341     27343     27342     27341     27344     27343     27341     27344
     27337     27345     27346     27337     27345     27347     27337     27345     27348
     27346     27345     27347     27346     27345     27348     27347     27345     27348
     27337     27349     27350     27337     27349     27351     27337     27349     27352
     27350     27349     27351     27350     27349     27352     27351     27349     27352
     27338     27353     27354     27338     27353     27355     27338     27353     27359
     27354     27353     27355     27354     27353     27359     27355     27353     27359
     27357     27356     27358     27357     27356     27359     27357     27356     27360
     27358     27356     27359     27358     27356     27360     27359     27356     27360
     27353     27359     27356     27356     27360     27361     27360     27361     27362
     27360     27361     27363     27360     27361     27364     27362     27361     27363
     27362     27361     27364     27363     27361     27364     27361     27364     27365
     27361     27364     27366     27361     27364     27372     27365     27364     27366
     27365     27364     27372     27366     27364     27372     27364     27366     27367
     27366     27367     27368     27366     27367     27369     27368     27367     27369
     27367     27369     27370     27367     27369     27371     27367     27369     27381
     27370     27369     27371     27370     27369     27381     27371     27369     27381
     27364     27372     27373     27364     27372     27374     27364     27372     27375
     27373     27372     27374     27373     27372     27375     27374     27372     27375
     27372     27375     27376     27375     27376     27377     27375     27376     27378
     27377     27376     27378     27376     27378     27379     27376     27378     27380
     27376     27378     27428     27379     27378     27380     27379     27378     27428
     27380     27378     27428     27369     27381     27382     27369     27381     27383
     27369     27381     27384     27382     27381     27383     27382     27381     27384
     27383     27381     27384     27381     27384     27385     27381     27384     27386
     27381     27384     27387     27385     27384     27386     27385     27384     27387
     27386     27384     27387     27384     27387     27388     27384     27387     27389
     27384     27387     27390     27388     27387     27389     27388     27387     27390
     27389     27387     27390     27387     27390     27391     27387     27390     27392
     27387     27390     27393     27391     27390     27392     27391     27390     27393
     27392     27390     27393     27390     27393     27394     27390     27393     27395
     27390     27393     27396     27394     27393     27395     27394     27393     27396
     27395     27393     27396     27393     27396     27397     27393     27396     27398
     27393     27396     27399     27397     27396     27398     27397     27396     27399
     27398     27396     27399     27396     27399     27400     27396     27399     27401
     27400     27399     27401     27399     27401     27402     27399     27401     27403
     27402     27401     27403     27401     27403     27404     27401     27403     27405
     27401     27403     27406     27404     27403     27405     27404     27403     27406
     27405     27403     27406     27403     27406     27407     27403     27406     27408
     27403     27406     27409     27407     27406     27408     27407     27406     27409
     27408     27406     27409     27406     27409     27410     27406     27409     27411
     27406     27409     27412     27410     27409     27411     27410     27409     27412
     27411     27409     27412     27409     27412     27413     27409     27412     27414
     27409     27412     27415     27413     27412     27414     27413     27412     27415
     27414     27412     27415     27412     27415     27416     27412     27415     27417
     27412     27415     27418     27416     27415     27417     27416     27415     27418
     27417     27415     27418     27415     27418     27419     27415     27418     27420
     27415     27418     27421     27419     27418     27420     27419     27418     27421
     27420     27418     27421     27418     27421     27422     27418     27421     27423
     27418     27421     27424     27422     27421     27423     27422     27421     27424
     27423     27421     27424     27421     27424     27425     27421     27424     27426
     27421     27424     27427     27425     27424     27426     27425     27424     27427
     27426     27424     27427     27378     27428     27429     27378     27428     27430
     27378     27428     27431     27429     27428     27430     27429     27428     27431
     27430     27428     27431     27428     27431     27432     27428     27431     27433
     27428     27431     27434     27432     27431     27433     27432     27431     27434
     27433     27431     27434     27431     27434     27435     27431     27434     27436
     27431     27434     27437     27435     27434     27436     27435     27434     27437
     27436     27434     27437     27434     27437     27438     27434     27437     27439
     27434     27437     27440     27438     27437     27439     27438     27437     27440
     27439     27437     27440     27437     27440     27441     27437     27440     27442
     27437     27440     27443     27441     27440     27442     27441     27440     27443
     27442     27440     27443     27440     27443     27444     27440     27443     27445
     27440     27443     27446     27444     27443     27445     27444     27443     27446
     27445     27443     27446     27443     27446     27447     27443     27446     27448
     27443     27446     27449     27447     27446     27448     27447     27446     27449
     27448     27446     27449     27446     27449     27450     27446     27449     27451
     27446     27449     27452     27450     27449     27451     27450     27449     27452
     27451     27449     27452     27449     27452     27453     27449     27452     27454
     27449     27452     27455     27453     27452     27454     27453     27452     27455
     27454     27452     27455     27452     27455     27456     27452     27455     27457
     27452     27455     27458     27456     27455     27457     27456     27455     27458
     27457     27455     27458     27455     27458     27459     27455     27458     27460
     27455     27458     27461     27459     27458     27460     27459     27458     27461
     27460     27458     27461     27458     27461     27462     27458     27461     27463
     27458     27461     27464     27462     27461     27463     27462     27461     27464
     27463     27461     27464     27461     27464     27465     27461     27464     27466
     27461     27464     27467     27465     27464     27466     27465     27464     27467
     27466     27464     27467     27464     27467     27468     27464     27467     27469
     27464     27467     27470     27468     27467     27469     27468     27467     27470
     27469     27467     27470     27472     27471     27475     27472     27471     27479
     27472     27471     27483     27475     27471     27479     27475     27471     27483
     27479     27471     27483     27471     27472     27473     27471     27472     27474
     27471     27472     27487     27473     27472     27474     27473     27472     27487
     27474     27472     27487     27471     27475     27476     27471     27475     27477
     27471     27475     27478     27476     27475     27477     27476     27475     27478
     27477     27475     27478     27471     27479     27480     27471     27479     27481
     27471     27479     27482     27480     27479     27481     27480     27479     27482
     27481     27479     27482     27471     27483     27484     27471     27483     27485
     27471     27483     27486     27484     27483     27485     27484     27483     27486
     27485     27483     27486     27472     27487     27488     27472     27487     27489
     27472     27487     27493     27488     27487     27489     27488     27487     27493
     27489     27487     27493     27491     27490     27492     27491     27490     27493
     27491     27490     27494     27492     27490     27493     27492     27490     27494
     27493     27490     27494     27487     27493     27490     27490     27494     27495
     27494     27495     27496     27494     27495     27497     27494     27495     27498
     27496     27495     27497     27496     27495     27498     27497     27495     27498
     27495     27498     27499     27495     27498     27500     27495     27498     27506
     27499     27498     27500     27499     27498     27506     27500     27498     27506
     27498     27500     27501     27500     27501     27502     27500     27501     27503
     27502     27501     27503     27501     27503     27504     27501     27503     27505
     27501     27503     27515     27504     27503     27505     27504     27503     27515
     27505     27503     27515     27498     27506     27507     27498     27506     27508
     27498     27506     27509     27507     27506     27508     27507     27506     27509
     27508     27506     27509     27506     27509     27510     27509     27510     27511
     27509     27510     27512     27511     27510     27512     27510     27512     27513
     27510     27512     27514     27510     27512     27562     27513     27512     27514
     27513     27512     27562     27514     27512     27562     27503     27515     27516
     27503     27515     27517     27503     27515     27518     27516     27515     27517
     27516     27515     27518     27517     27515     27518     27515     27518     27519
     27515     27518     27520     27515     27518     27521     27519     27518     27520
     27519     27518     27521     27520     27518     27521     27518     27521     27522
     27518     27521     27523     27518     27521     27524     27522     27521     27523
     27522     27521     27524     27523     27521     27524     27521     27524     27525
     27521     27524     27526     27521     27524     27527     27525     27524     27526
     27525     27524     27527     27526     27524     27527     27524     27527     27528
     27524     27527     27529     27524     27527     27530     27528     27527     27529
     27528     27527     27530     27529     27527     27530     27527     27530     27531
     27527     27530     27532     27527     27530     27533     27531     27530     27532
     27531     27530     27533     27532     27530     27533     27530     27533     27534
     27530     27533     27535     27534     27533     27535     27533     27535     27536
     27533     27535     27537     27536     27535     27537     27535     27537     27538
     27535     27537     27539     27535     27537     27540     27538     27537     27539
     27538     27537     27540     27539     27537     27540     27537     27540     27541
     27537     27540     27542     27537     27540     27543     27541     27540     27542
     27541     27540     27543     27542     27540     27543     27540     27543     27544
     27540     27543     27545     27540     27543     27546     27544     27543     27545
     27544     27543     27546     27545     27543     27546     27543     27546     27547
     27543     27546     27548     27543     27546     27549     27547     27546     27548
     27547     27546     27549     27548     27546     27549     27546     27549     27550
     27546     27549     27551     27546     27549     27552     27550     27549     27551
     27550     27549     27552     27551     27549     27552     27549     27552     27553
     27549     27552     27554     27549     27552     27555     27553     27552     27554
     27553     27552     27555     27554     27552     27555     27552     27555     27556
     27552     27555     27557     27552     27555     27558     27556     27555     27557
     27556     27555     27558     27557     27555     27558     27555     27558     27559
     27555     27558     27560     27555     27558     27561     27559     27558     27560
     27559     27558     27561     27560     27558     27561     27512     27562     27563
     27512     27562     27564     27512     27562     27565     27563     27562     27564
     27563     27562     27565     27564     27562     27565     27562     27565     27566
     27562     27565     27567     27562     27565     27568     27566     27565     27567
     27566     27565     27568     27567     27565     27568     27565     27568     27569
     27565     27568     27570     27565     27568     27571     27569     27568     27570
     27569     27568     27571     27570     27568     27571     27568     27571     27572
     27568     27571     27573     27568     27571     27574     27572     27571     27573
     27572     27571     27574     27573     27571     27574     27571     27574     27575
     27571     27574     27576     27571     27574     27577     27575     27574     27576
     27575     27574     27577     27576     27574     27577     27574     27577     27578
     27574     27577     27579     27574     27577     27580     27578     27577     27579
     27578     27577     27580     27579     27577     27580     27577     27580     27581
     27577     27580     27582     27577     27580     27583     27581     27580     27582
     27581     27580     27583     27582     27580     27583     27580     27583     27584
     27580     27583     27585     27580     27583     27586     27584     27583     27585
     27584     27583     27586     27585     27583     27586     27583     27586     27587
     27583     27586     27588     27583     27586     27589     27587     27586     27588
     27587     27586     27589     27588     27586     27589     27586     27589     27590
     27586     27589     27591     27586     27589     27592     27590     27589     27591
     27590     27589     27592     27591     27589     27592     27589     27592     27593
     27589     27592     27594     27589     27592     27595     27593     27592     27594
     27593     27592     27595     27594     27592     27595     27592     27595     27596
     27592     27595     27597     27592     27595     27598     27596     27595     27597
     27596     27595     27598     27597     27595     27598     27595     27598     27599
     27595     27598     27600     27595     27598     27601     27599     27598     27600
     27599     27598     27601     27600     27598     27601     27598     27601     27602
     27598     27601     27603     27598     27601     27604     27602     27601     27603
     27602     27601     27604     27603     27601     27604     27606     27605     27609
     27606     27605     27613     27606     27605     27617     27609     27605     27613
     27609     27605     27617     27613     27605     27617     27605     27606     27607
     27605     27606     27608     27605     27606     27621     27607     27606     27608
     27607     27606     27621     27608     27606     27621     27605     27609     27610
     27605     27609     27611     27605     27609     27612     27610     27609     27611
     27610     27609     27612     27611     27609     27612     27605     27613     27614
     27605     27613     27615     27605     27613     27616     27614     27613     27615
     27614     27613     27616     27615     27613     27616     27605     27617     27618
     27605     27617     27619     27605     27617     27620     27618     27617     27619
     27618     27617     27620     27619     27617     27620     27606     27621     27622
     27606     27621     27623     27606     27621     27627     27622     27621     27623
     27622     27621     27627     27623     27621     27627     27625     27624     27626
     27625     27624     27627     27625     27624     27628     27626     27624     27627
     27626     27624     27628     27627     27624     27628     27621     27627     27624
     27624     27628     27629     27628     27629     27630     27628     27629     27631
     27628     27629     27632     27630     27629     27631     27630     27629     27632
     27631     27629     27632     27629     27632     27633     27629     27632     27634
     27629     27632     27640     27633     27632     27634     27633     27632     27640
     27634     27632     27640     27632     27634     27635     27634     27635     27636
     27634     27635     27637     27636     27635     27637     27635     27637     27638
     27635     27637     27639     27635     27637     27649     27638     27637     27639
     27638     27637     27649     27639     27637     27649     27632     27640     27641
     27632     27640     27642     27632     27640     27643     27641     27640     27642
     27641     27640     27643     27642     27640     27643     27640     27643     27644
     27643     27644     27645     27643     27644     27646     27645     27644     27646
     27644     27646     27647     27644     27646     27648     27644     27646     27696
     27647     27646     27648     27647     27646     27696     27648     27646     27696
     27637     27649     27650     27637     27649     27651     27637     27649     27652
     27650     27649     27651     27650     27649     27652     27651     27649     27652
     27649     27652     27653     27649     27652     27654     27649     27652     27655
     27653     27652     27654     27653     27652     27655     27654     27652     27655
     27652     27655     27656     27652     27655     27657     27652     27655     27658
     27656     27655     27657     27656     27655     27658     27657     27655     27658
     27655     27658     27659     27655     27658     27660     27655     27658     27661
     27659     27658     27660     27659     27658     27661     27660     27658     27661
     27658     27661     27662     27658     27661     27663     27658     27661     27664
     27662     27661     27663     27662     27661     27664     27663     27661     27664
     27661     27664     27665     27661     27664     27666     27661     27664     27667
     27665     27664     27666     27665     27664     27667     27666     27664     27667
     27664     27667     27668     27664     27667     27669     27668     27667     27669
     27667     27669     27670     27667     27669     27671     27670     27669     27671
     27669     27671     27672     27669     27671     27673     27669     27671     27674
     27672     27671     27673     27672     27671     27674     27673     27671     27674
     27671     27674     27675     27671     27674     27676     27671     27674     27677
     27675     27674     27676     27675     27674     27677     27676     27674     27677
     27674     27677     27678     27674     27677     27679     27674     27677     27680
     27678     27677     27679     27678     27677     27680     27679     27677     27680
     27677     27680     27681     27677     27680     27682     27677     27680     27683
     27681     27680     27682     27681     27680     27683     27682     27680     27683
     27680     27683     27684     27680     27683     27685     27680     27683     27686
     27684     27683     27685     27684     27683     27686     27685     27683     27686
     27683     27686     27687     27683     27686     27688     27683     27686     27689
     27687     27686     27688     27687     27686     27689     27688     27686     27689
     27686     27689     27690     27686     27689     27691     27686     27689     27692
     27690     27689     27691     27690     27689     27692     27691     27689     27692
     27689     27692     27693     27689     27692     27694     27689     27692     27695
     27693     27692     27694     27693     27692     27695     27694     27692     27695
     27646     27696     27697     27646     27696     27698     27646     27696     27699
     27697     27696     27698     27697     27696     27699     27698     27696     27699
     27696     27699     27700     27696     27699     27701     27696     27699     27702
     27700     27699     27701     27700     27699     27702     27701     27699     27702
     27699     27702     27703     27699     27702     27704     27699     27702     27705
     27703     27702     27704     27703     27702     27705     27704     27702     27705
     27702     27705     27706     27702     27705     27707     27702     27705     27708
     27706     27705     27707     27706     27705     27708     27707     27705     27708
     27705     27708     27709     27705     27708     27710     27705     27708     27711
     27709     27708     27710     27709     27708     27711     27710     27708     27711
     27708     27711     27712     27708     27711     27713     27708     27711     27714
     27712     27711     27713     27712     27711     27714     27713     27711     27714
     27711     27714     27715     27711     27714     27716     27711     27714     27717
     27715     27714     27716     27715     27714     27717     27716     27714     27717
     27714     27717     27718     27714     27717     27719     27714     27717     27720
     27718     27717     27719     27718     27717     27720     27719     27717     27720
     27717     27720     27721     27717     27720     27722     27717     27720     27723
     27721     27720     27722     27721     27720     27723     27722     27720     27723
     27720     27723     27724     27720     27723     27725     27720     27723     27726
     27724     27723     27725     27724     27723     27726     27725     27723     27726
     27723     27726     27727     27723     27726     27728     27723     27726     27729
     27727     27726     27728     27727     27726     27729     27728     27726     27729
     27726     27729     27730     27726     27729     27731     27726     27729     27732
     27730     27729     27731     27730     27729     27732     27731     27729     27732
     27729     27732     27733     27729     27732     27734     27729     27732     27735
     27733     27732     27734     27733     27732     27735     27734     27732     27735
     27732     27735     27736     27732     27735     27737     27732     27735     27738
     27736     27735     27737     27736     27735     27738     27737     27735     27738
     27740     27739     27743     27740     27739     27747     27740     27739     27751
     27743     27739     27747     27743     27739     27751     27747     27739     27751
     27739     27740     27741     27739     27740     27742     27739     27740     27755
     27741     27740     27742     27741     27740     27755     27742     27740     27755
     27739     27743     27744     27739     27743     27745     27739     27743     27746
     27744     27743     27745     27744     27743     27746     27745     27743     27746
     27739     27747     27748     27739     27747     27749     27739     27747     27750
     27748     27747     27749     27748     27747     27750     27749     27747     27750
     27739     27751     27752     27739     27751     27753     27739     27751     27754
     27752     27751     27753     27752     27751     27754     27753     27751     27754
     27740     27755     27756     27740     27755     27757     27740     27755     27761
     27756     27755     27757     27756     27755     27761     27757     27755     27761
     27759     27758     27760     27759     27758     27761     27759     27758     27762
     27760     27758     27761     27760     27758     27762     27761     27758     27762
     27755     27761     27758     27758     27762     27763     27762     27763     27764
     27762     27763     27765     27762     27763     27766     27764     27763     27765
     27764     27763     27766     27765     27763     27766     27763     27766     27767
     27763     27766     27768     27763     27766     27774     27767     27766     27768
     27767     27766     27774     27768     27766     27774     27766     27768     27769
     27768     27769     27770     27768     27769     27771     27770     27769     27771
     27769     27771     27772     27769     27771     27773     27769     27771     27783
     27772     27771     27773     27772     27771     27783     27773     27771     27783
     27766     27774     27775     27766     27774     27776     27766     27774     27777
     27775     27774     27776     27775     27774     27777     27776     27774     27777
     27774     27777     27778     27777     27778     27779     27777     27778     27780
     27779     27778     27780     27778     27780     27781     27778     27780     27782
     27778     27780     27830     27781     27780     27782     27781     27780     27830
     27782     27780     27830     27771     27783     27784     27771     27783     27785
     27771     27783     27786     27784     27783     27785     27784     27783     27786
     27785     27783     27786     27783     27786     27787     27783     27786     27788
     27783     27786     27789     27787     27786     27788     27787     27786     27789
     27788     27786     27789     27786     27789     27790     27786     27789     27791
     27786     27789     27792     27790     27789     27791     27790     27789     27792
     27791     27789     27792     27789     27792     27793     27789     27792     27794
     27789     27792     27795     27793     27792     27794     27793     27792     27795
     27794     27792     27795     27792     27795     27796     27792     27795     27797
     27792     27795     27798     27796     27795     27797     27796     27795     27798
     27797     27795     27798     27795     27798     27799     27795     27798     27800
     27795     27798     27801     27799     27798     27800     27799     27798     27801
     27800     27798     27801     27798     27801     27802     27798     27801     27803
     27802     27801     27803     27801     27803     27804     27801     27803     27805
     27804     27803     27805     27803     27805     27806     27803     27805     27807
     27803     27805     27808     27806     27805     27807     27806     27805     27808
     27807     27805     27808     27805     27808     27809     27805     27808     27810
     27805     27808     27811     27809     27808     27810     27809     27808     27811
     27810     27808     27811     27808     27811     27812     27808     27811     27813
     27808     27811     27814     27812     27811     27813     27812     27811     27814
     27813     27811     27814     27811     27814     27815     27811     27814     27816
     27811     27814     27817     27815     27814     27816     27815     27814     27817
     27816     27814     27817     27814     27817     27818     27814     27817     27819
     27814     27817     27820     27818     27817     27819     27818     27817     27820
     27819     27817     27820     27817     27820     27821     27817     27820     27822
     27817     27820     27823     27821     27820     27822     27821     27820     27823
     27822     27820     27823     27820     27823     27824     27820     27823     27825
     27820     27823     27826     27824     27823     27825     27824     27823     27826
     27825     27823     27826     27823     27826     27827     27823     27826     27828
     27823     27826     27829     27827     27826     27828     27827     27826     27829
     27828     27826     27829     27780     27830     27831     27780     27830     27832
     27780     27830     27833     27831     27830     27832     27831     27830     27833
     27832     27830     27833     27830     27833     27834     27830     27833     27835
     27830     27833     27836     27834     27833     27835     27834     27833     27836
     27835     27833     27836     27833     27836     27837     27833     27836     27838
     27833     27836     27839     27837     27836     27838     27837     27836     27839
     27838     27836     27839     27836     27839     27840     27836     27839     27841
     27836     27839     27842     27840     27839     27841     27840     27839     27842
     27841     27839     27842     27839     27842     27843     27839     27842     27844
     27839     27842     27845     27843     27842     27844     27843     27842     27845
     27844     27842     27845     27842     27845     27846     27842     27845     27847
     27842     27845     27848     27846     27845     27847     27846     27845     27848
     27847     27845     27848     27845     27848     27849     27845     27848     27850
     27845     27848     27851     27849     27848     27850     27849     27848     27851
     27850     27848     27851     27848     27851     27852     27848     27851     27853
     27848     27851     27854     27852     27851     27853     27852     27851     27854
     27853     27851     27854     27851     27854     27855     27851     27854     27856
     27851     27854     27857     27855     27854     27856     27855     27854     27857
     27856     27854     27857     27854     27857     27858     27854     27857     27859
     27854     27857     27860     27858     27857     27859     27858     27857     27860
     27859     27857     27860     27857     27860     27861     27857     27860     27862
     27857     27860     27863     27861     27860     27862     27861     27860     27863
     27862     27860     27863     27860     27863     27864     27860     27863     27865
     27860     27863     27866     27864     27863     27865     27864     27863     27866
     27865     27863     27866     27863     27866     27867     27863     27866     27868
     27863     27866     27869     27867     27866     27868     27867     27866     27869
     27868     27866     27869     27866     27869     27870     27866     27869     27871
     27866     27869     27872     27870     27869     27871     27870     27869     27872
     27871     27869     27872     27874     27873     27877     27874     27873     27881
     27874     27873     27885     27877     27873     27881     27877     27873     27885
     27881     27873     27885     27873     27874     27875     27873     27874     27876
     27873     27874     27889     27875     27874     27876     27875     27874     27889
     27876     27874     27889     27873     27877     27878     27873     27877     27879
     27873     27877     27880     27878     27877     27879     27878     27877     27880
     27879     27877     27880     27873     27881     27882     27873     27881     27883
     27873     27881     27884     27882     27881     27883     27882     27881     27884
     27883     27881     27884     27873     27885     27886     27873     27885     27887
     27873     27885     27888     27886     27885     27887     27886     27885     27888
     27887     27885     27888     27874     27889     27890     27874     27889     27891
     27874     27889     27895     27890     27889     27891     27890     27889     27895
     27891     27889     27895     27893     27892     27894     27893     27892     27895
     27893     27892     27896     27894     27892     27895     27894     27892     27896
     27895     27892     27896     27889     27895     27892     27892     27896     27897
     27896     27897     27898     27896     27897     27899     27896     27897     27900
     27898     27897     27899     27898     27897     27900     27899     27897     27900
     27897     27900     27901     27897     27900     27902     27897     27900     27908
     27901     27900     27902     27901     27900     27908     27902     27900     27908
     27900     27902     27903     27902     27903     27904     27902     27903     27905
     27904     27903     27905     27903     27905     27906     27903     27905     27907
     27903     27905     27917     27906     27905     27907     27906     27905     27917
     27907     27905     27917     27900     27908     27909     27900     27908     27910
     27900     27908     27911     27909     27908     27910     27909     27908     27911
     27910     27908     27911     27908     27911     27912     27911     27912     27913
     27911     27912     27914     27913     27912     27914     27912     27914     27915
     27912     27914     27916     27912     27914     27964     27915     27914     27916
     27915     27914     27964     27916     27914     27964     27905     27917     27918
     27905     27917     27919     27905     27917     27920     27918     27917     27919
     27918     27917     27920     27919     27917     27920     27917     27920     27921
     27917     27920     27922     27917     27920     27923     27921     27920     27922
     27921     27920     27923     27922     27920     27923     27920     27923     27924
     27920     27923     27925     27920     27923     27926     27924     27923     27925
     27924     27923     27926     27925     27923     27926     27923     27926     27927
     27923     27926     27928     27923     27926     27929     27927     27926     27928
     27927     27926     27929     27928     27926     27929     27926     27929     27930
     27926     27929     27931     27926     27929     27932     27930     27929     27931
     27930     27929     27932     27931     27929     27932     27929     27932     27933
     27929     27932     27934     27929     27932     27935     27933     27932     27934
     27933     27932     27935     27934     27932     27935     27932     27935     27936
     27932     27935     27937     27936     27935     27937     27935     27937     27938
     27935     27937     27939     27938     27937     27939     27937     27939     27940
     27937     27939     27941     27937     27939     27942     27940     27939     27941
     27940     27939     27942     27941     27939     27942     27939     27942     27943
     27939     27942     27944     27939     27942     27945     27943     27942     27944
     27943     27942     27945     27944     27942     27945     27942     27945     27946
     27942     27945     27947     27942     27945     27948     27946     27945     27947
     27946     27945     27948     27947     27945     27948     27945     27948     27949
     27945     27948     27950     27945     27948     27951     27949     27948     27950
     27949     27948     27951     27950     27948     27951     27948     27951     27952
     27948     27951     27953     27948     27951     27954     27952     27951     27953
     27952     27951     27954     27953     27951     27954     27951     27954     27955
     27951     27954     27956     27951     27954     27957     27955     27954     27956
     27955     27954     27957     27956     27954     27957     27954     27957     27958
     27954     27957     27959     27954     27957     27960     27958     27957     27959
     27958     27957     27960     27959     27957     27960     27957     27960     27961
     27957     27960     27962     27957     27960     27963     27961     27960     27962
     27961     27960     27963     27962     27960     27963     27914     27964     27965
     27914     27964     27966     27914     27964     27967     27965     27964     27966
     27965     27964     27967     27966     27964     27967     27964     27967     27968
     27964     27967     27969     27964     27967     27970     27968     27967     27969
     27968     27967     27970     27969     27967     27970     27967     27970     27971
     27967     27970     27972     27967     27970     27973     27971     27970     27972
     27971     27970     27973     27972     27970     27973     27970     27973     27974
     27970     27973     27975     27970     27973     27976     27974     27973     27975
     27974     27973     27976     27975     27973     27976     27973     27976     27977
     27973     27976     27978     27973     27976     27979     27977     27976     27978
     27977     27976     27979     27978     27976     27979     27976     27979     27980
     27976     27979     27981     27976     27979     27982     27980     27979     27981
     27980     27979     27982     27981     27979     27982     27979     27982     27983
     27979     27982     27984     27979     27982     27985     27983     27982     27984
     27983     27982     27985     27984     27982     27985     27982     27985     27986
     27982     27985     27987     27982     27985     27988     27986     27985     27987
     27986     27985     27988     27987     27985     27988     27985     27988     27989
     27985     27988     27990     27985     27988     27991     27989     27988     27990
     27989     27988     27991     27990     27988     27991     27988     27991     27992
     27988     27991     27993     27988     27991     27994     27992     27991     27993
     27992     27991     27994     27993     27991     27994     27991     27994     27995
     27991     27994     27996     27991     27994     27997     27995     27994     27996
     27995     27994     27997     27996     27994     27997     27994     27997     27998
     27994     27997     27999     27994     27997     28000     27998     27997     27999
     27998     27997     28000     27999     27997     28000     27997     28000     28001
     27997     28000     28002     27997     28000     28003     28001     28000     28002
     28001     28000     28003     28002     28000     28003     28000     28003     28004
     28000     28003     28005     28000     28003     28006     28004     28003     28005
     28004     28003     28006     28005     28003     28006     28008     28007     28011
     28008     28007     28015     28008     28007     28019     28011     28007     28015
     28011     28007     28019     28015     28007     28019     28007     28008     28009
     28007     28008     28010     28007     28008     28023     28009     28008     28010
     28009     28008     28023     28010     28008     28023     28007     28011     28012
     28007     28011     28013     28007     28011     28014     28012     28011     28013
     28012     28011     28014     28013     28011     28014     28007     28015     28016
     28007     28015     28017     28007     28015     28018     28016     28015     28017
     28016     28015     28018     28017     28015     28018     28007     28019     28020
     28007     28019     28021     28007     28019     28022     28020     28019     28021
     28020     28019     28022     28021     28019     28022     28008     28023     28024
     28008     28023     28025     28008     28023     28029     28024     28023     28025
     28024     28023     28029     28025     28023     28029     28027     28026     28028
     28027     28026     28029     28027     28026     28030     28028     28026     28029
     28028     28026     28030     28029     28026     28030     28023     28029     28026
     28026     28030     28031     28030     28031     28032     28030     28031     28033
     28030     28031     28034     28032     28031     28033     28032     28031     28034
     28033     28031     28034     28031     28034     28035     28031     28034     28036
     28031     28034     28042     28035     28034     28036     28035     28034     28042
     28036     28034     28042     28034     28036     28037     28036     28037     28038
     28036     28037     28039     28038     28037     28039     28037     28039     28040
     28037     28039     28041     28037     28039     28051     28040     28039     28041
     28040     28039     28051     28041     28039     28051     28034     28042     28043
     28034     28042     28044     28034     28042     28045     28043     28042     28044
     28043     28042     28045     28044     28042     28045     28042     28045     28046
     28045     28046     28047     28045     28046     28048     28047     28046     28048
     28046     28048     28049     28046     28048     28050     28046     28048     28098
     28049     28048     28050     28049     28048     28098     28050     28048     28098
     28039     28051     28052     28039     28051     28053     28039     28051     28054
     28052     28051     28053     28052     28051     28054     28053     28051     28054
     28051     28054     28055     28051     28054     28056     28051     28054     28057
     28055     28054     28056     28055     28054     28057     28056     28054     28057
     28054     28057     28058     28054     28057     28059     28054     28057     28060
     28058     28057     28059     28058     28057     28060     28059     28057     28060
     28057     28060     28061     28057     28060     28062     28057     28060     28063
     28061     28060     28062     28061     28060     28063     28062     28060     28063
     28060     28063     28064     28060     28063     28065     28060     28063     28066
     28064     28063     28065     28064     28063     28066     28065     28063     28066
     28063     28066     28067     28063     28066     28068     28063     28066     28069
     28067     28066     28068     28067     28066     28069     28068     28066     28069
     28066     28069     28070     28066     28069     28071     28070     28069     28071
     28069     28071     28072     28069     28071     28073     28072     28071     28073
     28071     28073     28074     28071     28073     28075     28071     28073     28076
     28074     28073     28075     28074     28073     28076     28075     28073     28076
     28073     28076     28077     28073     28076     28078     28073     28076     28079
     28077     28076     28078     28077     28076     28079     28078     28076     28079
     28076     28079     28080     28076     28079     28081     28076     28079     28082
     28080     28079     28081     28080     28079     28082     28081     28079     28082
     28079     28082     28083     28079     28082     28084     28079     28082     28085
     28083     28082     28084     28083     28082     28085     28084     28082     28085
     28082     28085     28086     28082     28085     28087     28082     28085     28088
     28086     28085     28087     28086     28085     28088     28087     28085     28088
     28085     28088     28089     28085     28088     28090     28085     28088     28091
     28089     28088     28090     28089     28088     28091     28090     28088     28091
     28088     28091     28092     28088     28091     28093     28088     28091     28094
     28092     28091     28093     28092     28091     28094     28093     28091     28094
     28091     28094     28095     28091     28094     28096     28091     28094     28097
     28095     28094     28096     28095     28094     28097     28096     28094     28097
     28048     28098     28099     28048     28098     28100     28048     28098     28101
     28099     28098     28100     28099     28098     28101     28100     28098     28101
     28098     28101     28102     28098     28101     28103     28098     28101     28104
     28102     28101     28103     28102     28101     28104     28103     28101     28104
     28101     28104     28105     28101     28104     28106     28101     28104     28107
     28105     28104     28106     28105     28104     28107     28106     28104     28107
     28104     28107     28108     28104     28107     28109     28104     28107     28110
     28108     28107     28109     28108     28107     28110     28109     28107     28110
     28107     28110     28111     28107     28110     28112     28107     28110     28113
     28111     28110     28112     28111     28110     28113     28112     28110     28113
     28110     28113     28114     28110     28113     28115     28110     28113     28116
     28114     28113     28115     28114     28113     28116     28115     28113     28116
     28113     28116     28117     28113     28116     28118     28113     28116     28119
     28117     28116     28118     28117     28116     28119     28118     28116     28119
     28116     28119     28120     28116     28119     28121     28116     28119     28122
     28120     28119     28121     28120     28119     28122     28121     28119     28122
     28119     28122     28123     28119     28122     28124     28119     28122     28125
     28123     28122     28124     28123     28122     28125     28124     28122     28125
     28122     28125     28126     28122     28125     28127     28122     28125     28128
     28126     28125     28127     28126     28125     28128     28127     28125     28128
     28125     28128     28129     28125     28128     28130     28125     28128     28131
     28129     28128     28130     28129     28128     28131     28130     28128     28131
     28128     28131     28132     28128     28131     28133     28128     28131     28134
     28132     28131     28133     28132     28131     28134     28133     28131     28134
     28131     28134     28135     28131     28134     28136     28131     28134     28137
     28135     28134     28136     28135     28134     28137     28136     28134     28137
     28134     28137     28138     28134     28137     28139     28134     28137     28140
     28138     28137     28139     28138     28137     28140     28139     28137     28140
     28142     28141     28145     28142     28141     28149     28142     28141     28153
     28145     28141     28149     28145     28141     28153     28149     28141     28153
     28141     28142     28143     28141     28142     28144     28141     28142     28157
     28143     28142     28144     28143     28142     28157     28144     28142     28157
     28141     28145     28146     28141     28145     28147     28141     28145     28148
     28146     28145     28147     28146     28145     28148     28147     28145     28148
     28141     28149     28150     28141     28149     28151     28141     28149     28152
     28150     28149     28151     28150     28149     28152     28151     28149     28152
     28141     28153     28154     28141     28153     28155     28141     28153     28156
     28154     28153     28155     28154     28153     28156     28155     28153     28156
     28142     28157     28158     28142     28157     28159     28142     28157     28163
     28158     28157     28159     28158     28157     28163     28159     28157     28163
     28161     28160     28162     28161     28160     28163     28161     28160     28164
     28162     28160     28163     28162     28160     28164     28163     28160     28164
     28157     28163     28160     28160     28164     28165     28164     28165     28166
     28164     28165     28167     28164     28165     28168     28166     28165     28167
     28166     28165     28168     28167     28165     28168     28165     28168     28169
     28165     28168     28170     28165     28168     28176     28169     28168     28170
     28169     28168     28176     28170     28168     28176     28168     28170     28171
     28170     28171     28172     28170     28171     28173     28172     28171     28173
     28171     28173     28174     28171     28173     28175     28171     28173     28185
     28174     28173     28175     28174     28173     28185     28175     28173     28185
     28168     28176     28177     28168     28176     28178     28168     28176     28179
     28177     28176     28178     28177     28176     28179     28178     28176     28179
     28176     28179     28180     28179     28180     28181     28179     28180     28182
     28181     28180     28182     28180     28182     28183     28180     28182     28184
     28180     28182     28232     28183     28182     28184     28183     28182     28232
     28184     28182     28232     28173     28185     28186     28173     28185     28187
     28173     28185     28188     28186     28185     28187     28186     28185     28188
     28187     28185     28188     28185     28188     28189     28185     28188     28190
     28185     28188     28191     28189     28188     28190     28189     28188     28191
     28190     28188     28191     28188     28191     28192     28188     28191     28193
     28188     28191     28194     28192     28191     28193     28192     28191     28194
     28193     28191     28194     28191     28194     28195     28191     28194     28196
     28191     28194     28197     28195     28194     28196     28195     28194     28197
     28196     28194     28197     28194     28197     28198     28194     28197     28199
     28194     28197     28200     28198     28197     28199     28198     28197     28200
     28199     28197     28200     28197     28200     28201     28197     28200     28202
     28197     28200     28203     28201     28200     28202     28201     28200     28203
     28202     28200     28203     28200     28203     28204     28200     28203     28205
     28204     28203     28205     28203     28205     28206     28203     28205     28207
     28206     28205     28207     28205     28207     28208     28205     28207     28209
     28205     28207     28210     28208     28207     28209     28208     28207     28210
     28209     28207     28210     28207     28210     28211     28207     28210     28212
     28207     28210     28213     28211     28210     28212     28211     28210     28213
     28212     28210     28213     28210     28213     28214     28210     28213     28215
     28210     28213     28216     28214     28213     28215     28214     28213     28216
     28215     28213     28216     28213     28216     28217     28213     28216     28218
     28213     28216     28219     28217     28216     28218     28217     28216     28219
     28218     28216     28219     28216     28219     28220     28216     28219     28221
     28216     28219     28222     28220     28219     28221     28220     28219     28222
     28221     28219     28222     28219     28222     28223     28219     28222     28224
     28219     28222     28225     28223     28222     28224     28223     28222     28225
     28224     28222     28225     28222     28225     28226     28222     28225     28227
     28222     28225     28228     28226     28225     28227     28226     28225     28228
     28227     28225     28228     28225     28228     28229     28225     28228     28230
     28225     28228     28231     28229     28228     28230     28229     28228     28231
     28230     28228     28231     28182     28232     28233     28182     28232     28234
     28182     28232     28235     28233     28232     28234     28233     28232     28235
     28234     28232     28235     28232     28235     28236     28232     28235     28237
     28232     28235     28238     28236     28235     28237     28236     28235     28238
     28237     28235     28238     28235     28238     28239     28235     28238     28240
     28235     28238     28241     28239     28238     28240     28239     28238     28241
     28240     28238     28241     28238     28241     28242     28238     28241     28243
     28238     28241     28244     28242     28241     28243     28242     28241     28244
     28243     28241     28244     28241     28244     28245     28241     28244     28246
     28241     28244     28247     28245     28244     28246     28245     28244     28247
     28246     28244     28247     28244     28247     28248     28244     28247     28249
     28244     28247     28250     28248     28247     28249     28248     28247     28250
     28249     28247     28250     28247     28250     28251     28247     28250     28252
     28247     28250     28253     28251     28250     28252     28251     28250     28253
     28252     28250     28253     28250     28253     28254     28250     28253     28255
     28250     28253     28256     28254     28253     28255     28254     28253     28256
     28255     28253     28256     28253     28256     28257     28253     28256     28258
     28253     28256     28259     28257     28256     28258     28257     28256     28259
     28258     28256     28259     28256     28259     28260     28256     28259     28261
     28256     28259     28262     28260     28259     28261     28260     28259     28262
     28261     28259     28262     28259     28262     28263     28259     28262     28264
     28259     28262     28265     28263     28262     28264     28263     28262     28265
     28264     28262     28265     28262     28265     28266     28262     28265     28267
     28262     28265     28268     28266     28265     28267     28266     28265     28268
     28267     28265     28268     28265     28268     28269     28265     28268     28270
     28265     28268     28271     28269     28268     28270     28269     28268     28271
     28270     28268     28271     28268     28271     28272     28268     28271     28273
     28268     28271     28274     28272     28271     28273     28272     28271     28274
     28273     28271     28274     28276     28275     28279     28276     28275     28283
     28276     28275     28287     28279     28275     28283     28279     28275     28287
     28283     28275     28287     28275     28276     28277     28275     28276     28278
     28275     28276     28291     28277     28276     28278     28277     28276     28291
     28278     28276     28291     28275     28279     28280     28275     28279     28281
     28275     28279     28282     28280     28279     28281     28280     28279     28282
     28281     28279     28282     28275     28283     28284     28275     28283     28285
     28275     28283     28286     28284     28283     28285     28284     28283     28286
     28285     28283     28286     28275     28287     28288     28275     28287     28289
     28275     28287     28290     28288     28287     28289     28288     28287     28290
     28289     28287     28290     28276     28291     28292     28276     28291     28293
     28276     28291     28297     28292     28291     28293     28292     28291     28297
     28293     28291     28297     28295     28294     28296     28295     28294     28297
     28295     28294     28298     28296     28294     28297     28296     28294     28298
     28297     28294     28298     28291     28297     28294     28294     28298     28299
     28298     28299     28300     28298     28299     28301     28298     28299     28302
     28300     28299     28301     28300     28299     28302     28301     28299     28302
     28299     28302     28303     28299     28302     28304     28299     28302     28310
     28303     28302     28304     28303     28302     28310     28304     28302     28310
     28302     28304     28305     28304     28305     28306     28304     28305     28307
     28306     28305     28307     28305     28307     28308     28305     28307     28309
     28305     28307     28319     28308     28307     28309     28308     28307     28319
     28309     28307     28319     28302     28310     28311     28302     28310     28312
     28302     28310     28313     28311     28310     28312     28311     28310     28313
     28312     28310     28313     28310     28313     28314     28313     28314     28315
     28313     28314     28316     28315     28314     28316     28314     28316     28317
     28314     28316     28318     28314     28316     28366     28317     28316     28318
     28317     28316     28366     28318     28316     28366     28307     28319     28320
     28307     28319     28321     28307     28319     28322     28320     28319     28321
     28320     28319     28322     28321     28319     28322     28319     28322     28323
     28319     28322     28324     28319     28322     28325     28323     28322     28324
     28323     28322     28325     28324     28322     28325     28322     28325     28326
     28322     28325     28327     28322     28325     28328     28326     28325     28327
     28326     28325     28328     28327     28325     28328     28325     28328     28329
     28325     28328     28330     28325     28328     28331     28329     28328     28330
     28329     28328     28331     28330     28328     28331     28328     28331     28332
     28328     28331     28333     28328     28331     28334     28332     28331     28333
     28332     28331     28334     28333     28331     28334     28331     28334     28335
     28331     28334     28336     28331     28334     28337     28335     28334     28336
     28335     28334     28337     28336     28334     28337     28334     28337     28338
     28334     28337     28339     28338     28337     28339     28337     28339     28340
     28337     28339     28341     28340     28339     28341     28339     28341     28342
     28339     28341     28343     28339     28341     28344     28342     28341     28343
     28342     28341     28344     28343     28341     28344     28341     28344     28345
     28341     28344     28346     28341     28344     28347     28345     28344     28346
     28345     28344     28347     28346     28344     28347     28344     28347     28348
     28344     28347     28349     28344     28347     28350     28348     28347     28349
     28348     28347     28350     28349     28347     28350     28347     28350     28351
     28347     28350     28352     28347     28350     28353     28351     28350     28352
     28351     28350     28353     28352     28350     28353     28350     28353     28354
     28350     28353     28355     28350     28353     28356     28354     28353     28355
     28354     28353     28356     28355     28353     28356     28353     28356     28357
     28353     28356     28358     28353     28356     28359     28357     28356     28358
     28357     28356     28359     28358     28356     28359     28356     28359     28360
     28356     28359     28361     28356     28359     28362     28360     28359     28361
     28360     28359     28362     28361     28359     28362     28359     28362     28363
     28359     28362     28364     28359     28362     28365     28363     28362     28364
     28363     28362     28365     28364     28362     28365     28316     28366     28367
     28316     28366     28368     28316     28366     28369     28367     28366     28368
     28367     28366     28369     28368     28366     28369     28366     28369     28370
     28366     28369     28371     28366     28369     28372     28370     28369     28371
     28370     28369     28372     28371     28369     28372     28369     28372     28373
     28369     28372     28374     28369     28372     28375     28373     28372     28374
     28373     28372     28375     28374     28372     28375     28372     28375     28376
     28372     28375     28377     28372     28375     28378     28376     28375     28377
     28376     28375     28378     28377     28375     28378     28375     28378     28379
     28375     28378     28380     28375     28378     28381     28379     28378     28380
     28379     28378     28381     28380     28378     28381     28378     28381     28382
     28378     28381     28383     28378     28381     28384     28382     28381     28383
     28382     28381     28384     28383     28381     28384     28381     28384     28385
     28381     28384     28386     28381     28384     28387     28385     28384     28386
     28385     28384     28387     28386     28384     28387     28384     28387     28388
     28384     28387     28389     28384     28387     28390     28388     28387     28389
     28388     28387     28390     28389     28387     28390     28387     28390     28391
     28387     28390     28392     28387     28390     28393     28391     28390     28392
     28391     28390     28393     28392     28390     28393     28390     28393     28394
     28390     28393     28395     28390     28393     28396     28394     28393     28395
     28394     28393     28396     28395     28393     28396     28393     28396     28397
     28393     28396     28398     28393     28396     28399     28397     28396     28398
     28397     28396     28399     28398     28396     28399     28396     28399     28400
     28396     28399     28401     28396     28399     28402     28400     28399     28401
     28400     28399     28402     28401     28399     28402     28399     28402     28403
     28399     28402     28404     28399     28402     28405     28403     28402     28404
     28403     28402     28405     28404     28402     28405     28402     28405     28406
     28402     28405     28407     28402     28405     28408     28406     28405     28407
     28406     28405     28408     28407     28405     28408     28410     28409     28413
     28410     28409     28417     28410     28409     28421     28413     28409     28417
     28413     28409     28421     28417     28409     28421     28409     28410     28411
     28409     28410     28412     28409     28410     28425     28411     28410     28412
     28411     28410     28425     28412     28410     28425     28409     28413     28414
     28409     28413     28415     28409     28413     28416     28414     28413     28415
     28414     28413     28416     28415     28413     28416     28409     28417     28418
     28409     28417     28419     28409     28417     28420     28418     28417     28419
     28418     28417     28420     28419     28417     28420     28409     28421     28422
     28409     28421     28423     28409     28421     28424     28422     28421     28423
     28422     28421     28424     28423     28421     28424     28410     28425     28426
     28410     28425     28427     28410     28425     28431     28426     28425     28427
     28426     28425     28431     28427     28425     28431     28429     28428     28430
     28429     28428     28431     28429     28428     28432     28430     28428     28431
     28430     28428     28432     28431     28428     28432     28425     28431     28428
     28428     28432     28433     28432     28433     28434     28432     28433     28435
     28432     28433     28436     28434     28433     28435     28434     28433     28436
     28435     28433     28436     28433     28436     28437     28433     28436     28438
     28433     28436     28444     28437     28436     28438     28437     28436     28444
     28438     28436     28444     28436     28438     28439     28438     28439     28440
     28438     28439     28441     28440     28439     28441     28439     28441     28442
     28439     28441     28443     28439     28441     28453     28442     28441     28443
     28442     28441     28453     28443     28441     28453     28436     28444     28445
     28436     28444     28446     28436     28444     28447     28445     28444     28446
     28445     28444     28447     28446     28444     28447     28444     28447     28448
     28447     28448     28449     28447     28448     28450     28449     28448     28450
     28448     28450     28451     28448     28450     28452     28448     28450     28500
     28451     28450     28452     28451     28450     28500     28452     28450     28500
     28441     28453     28454     28441     28453     28455     28441     28453     28456
     28454     28453     28455     28454     28453     28456     28455     28453     28456
     28453     28456     28457     28453     28456     28458     28453     28456     28459
     28457     28456     28458     28457     28456     28459     28458     28456     28459
     28456     28459     28460     28456     28459     28461     28456     28459     28462
     28460     28459     28461     28460     28459     28462     28461     28459     28462
     28459     28462     28463     28459     28462     28464     28459     28462     28465
     28463     28462     28464     28463     28462     28465     28464     28462     28465
     28462     28465     28466     28462     28465     28467     28462     28465     28468
     28466     28465     28467     28466     28465     28468     28467     28465     28468
     28465     28468     28469     28465     28468     28470     28465     28468     28471
     28469     28468     28470     28469     28468     28471     28470     28468     28471
     28468     28471     28472     28468     28471     28473     28472     28471     28473
     28471     28473     28474     28471     28473     28475     28474     28473     28475
     28473     28475     28476     28473     28475     28477     28473     28475     28478
     28476     28475     28477     28476     28475     28478     28477     28475     28478
     28475     28478     28479     28475     28478     28480     28475     28478     28481
     28479     28478     28480     28479     28478     28481     28480     28478     28481
     28478     28481     28482     28478     28481     28483     28478     28481     28484
     28482     28481     28483     28482     28481     28484     28483     28481     28484
     28481     28484     28485     28481     28484     28486     28481     28484     28487
     28485     28484     28486     28485     28484     28487     28486     28484     28487
     28484     28487     28488     28484     28487     28489     28484     28487     28490
     28488     28487     28489     28488     28487     28490     28489     28487     28490
     28487     28490     28491     28487     28490     28492     28487     28490     28493
     28491     28490     28492     28491     28490     28493     28492     28490     28493
     28490     28493     28494     28490     28493     28495     28490     28493     28496
     28494     28493     28495     28494     28493     28496     28495     28493     28496
     28493     28496     28497     28493     28496     28498     28493     28496     28499
     28497     28496     28498     28497     28496     28499     28498     28496     28499
     28450     28500     28501     28450     28500     28502     28450     28500     28503
     28501     28500     28502     28501     28500     28503     28502     28500     28503
     28500     28503     28504     28500     28503     28505     28500     28503     28506
     28504     28503     28505     28504     28503     28506     28505     28503     28506
     28503     28506     28507     28503     28506     28508     28503     28506     28509
     28507     28506     28508     28507     28506     28509     28508     28506     28509
     28506     28509     28510     28506     28509     28511     28506     28509     28512
     28510     28509     28511     28510     28509     28512     28511     28509     28512
     28509     28512     28513     28509     28512     28514     28509     28512     28515
     28513     28512     28514     28513     28512     28515     28514     28512     28515
     28512     28515     28516     28512     28515     28517     28512     28515     28518
     28516     28515     28517     28516     28515     28518     28517     28515     28518
     28515     28518     28519     28515     28518     28520     28515     28518     28521
     28519     28518     28520     28519     28518     28521     28520     28518     28521
     28518     28521     28522     28518     28521     28523     28518     28521     28524
     28522     28521     28523     28522     28521     28524     28523     28521     28524
     28521     28524     28525     28521     28524     28526     28521     28524     28527
     28525     28524     28526     28525     28524     28527     28526     28524     28527
     28524     28527     28528     28524     28527     28529     28524     28527     28530
     28528     28527     28529     28528     28527     28530     28529     28527     28530
     28527     28530     28531     28527     28530     28532     28527     28530     28533
     28531     28530     28532     28531     28530     28533     28532     28530     28533
     28530     28533     28534     28530     28533     28535     28530     28533     28536
     28534     28533     28535     28534     28533     28536     28535     28533     28536
     28533     28536     28537     28533     28536     28538     28533     28536     28539
     28537     28536     28538     28537     28536     28539     28538     28536     28539
     28536     28539     28540     28536     28539     28541     28536     28539     28542
     28540     28539     28541     28540     28539     28542     28541     28539     28542
     28544     28543     28547     28544     28543     28551     28544     28543     28555
     28547     28543     28551     28547     28543     28555     28551     28543     28555
     28543     28544     28545     28543     28544     28546     28543     28544     28559
     28545     28544     28546     28545     28544     28559     28546     28544     28559
     28543     28547     28548     28543     28547     28549     28543     28547     28550
     28548     28547     28549     28548     28547     28550     28549     28547     28550
     28543     28551     28552     28543     28551     28553     28543     28551     28554
     28552     28551     28553     28552     28551     28554     28553     28551     28554
     28543     28555     28556     28543     28555     28557     28543     28555     28558
     28556     28555     28557     28556     28555     28558     28557     28555     28558
     28544     28559     28560     28544     28559     28561     28544     28559     28565
     28560     28559     28561     28560     28559     28565     28561     28559     28565
     28563     28562     28564     28563     28562     28565     28563     28562     28566
     28564     28562     28565     28564     28562     28566     28565     28562     28566
     28559     28565     28562     28562     28566     28567     28566     28567     28568
     28566     28567     28569     28566     28567     28570     28568     28567     28569
     28568     28567     28570     28569     28567     28570     28567     28570     28571
     28567     28570     28572     28567     28570     28578     28571     28570     28572
     28571     28570     28578     28572     28570     28578     28570     28572     28573
     28572     28573     28574     28572     28573     28575     28574     28573     28575
     28573     28575     28576     28573     28575     28577     28573     28575     28587
     28576     28575     28577     28576     28575     28587     28577     28575     28587
     28570     28578     28579     28570     28578     28580     28570     28578     28581
     28579     28578     28580     28579     28578     28581     28580     28578     28581
     28578     28581     28582     28581     28582     28583     28581     28582     28584
     28583     28582     28584     28582     28584     28585     28582     28584     28586
     28582     28584     28634     28585     28584     28586     28585     28584     28634
     28586     28584     28634     28575     28587     28588     28575     28587     28589
     28575     28587     28590     28588     28587     28589     28588     28587     28590
     28589     28587     28590     28587     28590     28591     28587     28590     28592
     28587     28590     28593     28591     28590     28592     28591     28590     28593
     28592     28590     28593     28590     28593     28594     28590     28593     28595
     28590     28593     28596     28594     28593     28595     28594     28593     28596
     28595     28593     28596     28593     28596     28597     28593     28596     28598
     28593     28596     28599     28597     28596     28598     28597     28596     28599
     28598     28596     28599     28596     28599     28600     28596     28599     28601
     28596     28599     28602     28600     28599     28601     28600     28599     28602
     28601     28599     28602     28599     28602     28603     28599     28602     28604
     28599     28602     28605     28603     28602     28604     28603     28602     28605
     28604     28602     28605     28602     28605     28606     28602     28605     28607
     28606     28605     28607     28605     28607     28608     28605     28607     28609
     28608     28607     28609     28607     28609     28610     28607     28609     28611
     28607     28609     28612     28610     28609     28611     28610     28609     28612
     28611     28609     28612     28609     28612     28613     28609     28612     28614
     28609     28612     28615     28613     28612     28614     28613     28612     28615
     28614     28612     28615     28612     28615     28616     28612     28615     28617
     28612     28615     28618     28616     28615     28617     28616     28615     28618
     28617     28615     28618     28615     28618     28619     28615     28618     28620
     28615     28618     28621     28619     28618     28620     28619     28618     28621
     28620     28618     28621     28618     28621     28622     28618     28621     28623
     28618     28621     28624     28622     28621     28623     28622     28621     28624
     28623     28621     28624     28621     28624     28625     28621     28624     28626
     28621     28624     28627     28625     28624     28626     28625     28624     28627
     28626     28624     28627     28624     28627     28628     28624     28627     28629
     28624     28627     28630     28628     28627     28629     28628     28627     28630
     28629     28627     28630     28627     28630     28631     28627     28630     28632
     28627     28630     28633     28631     28630     28632     28631     28630     28633
     28632     28630     28633     28584     28634     28635     28584     28634     28636
     28584     28634     28637     28635     28634     28636     28635     28634     28637
     28636     28634     28637     28634     28637     28638     28634     28637     28639
     28634     28637     28640     28638     28637     28639     28638     28637     28640
     28639     28637     28640     28637     28640     28641     28637     28640     28642
     28637     28640     28643     28641     28640     28642     28641     28640     28643
     28642     28640     28643     28640     28643     28644     28640     28643     28645
     28640     28643     28646     28644     28643     28645     28644     28643     28646
     28645     28643     28646     28643     28646     28647     28643     28646     28648
     28643     28646     28649     28647     28646     28648     28647     28646     28649
     28648     28646     28649     28646     28649     28650     28646     28649     28651
     28646     28649     28652     28650     28649     28651     28650     28649     28652
     28651     28649     28652     28649     28652     28653     28649     28652     28654
     28649     28652     28655     28653     28652     28654     28653     28652     28655
     28654     28652     28655     28652     28655     28656     28652     28655     28657
     28652     28655     28658     28656     28655     28657     28656     28655     28658
     28657     28655     28658     28655     28658     28659     28655     28658     28660
     28655     28658     28661     28659     28658     28660     28659     28658     28661
     28660     28658     28661     28658     28661     28662     28658     28661     28663
     28658     28661     28664     28662     28661     28663     28662     28661     28664
     28663     28661     28664     28661     28664     28665     28661     28664     28666
     28661     28664     28667     28665     28664     28666     28665     28664     28667
     28666     28664     28667     28664     28667     28668     28664     28667     28669
     28664     28667     28670     28668     28667     28669     28668     28667     28670
     28669     28667     28670     28667     28670     28671     28667     28670     28672
     28667     28670     28673     28671     28670     28672     28671     28670     28673
     28672     28670     28673     28670     28673     28674     28670     28673     28675
     28670     28673     28676     28674     28673     28675     28674     28673     28676
     28675     28673     28676     28678     28677     28681     28678     28677     28685
     28678     28677     28689     28681     28677     28685     28681     28677     28689
     28685     28677     28689     28677     28678     28679     28677     28678     28680
     28677     28678     28693     28679     28678     28680     28679     28678     28693
     28680     28678     28693     28677     28681     28682     28677     28681     28683
     28677     28681     28684     28682     28681     28683     28682     28681     28684
     28683     28681     28684     28677     28685     28686     28677     28685     28687
     28677     28685     28688     28686     28685     28687     28686     28685     28688
     28687     28685     28688     28677     28689     28690     28677     28689     28691
     28677     28689     28692     28690     28689     28691     28690     28689     28692
     28691     28689     28692     28678     28693     28694     28678     28693     28695
     28678     28693     28699     28694     28693     28695     28694     28693     28699
     28695     28693     28699     28697     28696     28698     28697     28696     28699
     28697     28696     28700     28698     28696     28699     28698     28696     28700
     28699     28696     28700     28693     28699     28696     28696     28700     28701
     28700     28701     28702     28700     28701     28703     28700     28701     28704
     28702     28701     28703     28702     28701     28704     28703     28701     28704
     28701     28704     28705     28701     28704     28706     28701     28704     28712
     28705     28704     28706     28705     28704     28712     28706     28704     28712
     28704     28706     28707     28706     28707     28708     28706     28707     28709
     28708     28707     28709     28707     28709     28710     28707     28709     28711
     28707     28709     28721     28710     28709     28711     28710     28709     28721
     28711     28709     28721     28704     28712     28713     28704     28712     28714
     28704     28712     28715     28713     28712     28714     28713     28712     28715
     28714     28712     28715     28712     28715     28716     28715     28716     28717
     28715     28716     28718     28717     28716     28718     28716     28718     28719
     28716     28718     28720     28716     28718     28768     28719     28718     28720
     28719     28718     28768     28720     28718     28768     28709     28721     28722
     28709     28721     28723     28709     28721     28724     28722     28721     28723
     28722     28721     28724     28723     28721     28724     28721     28724     28725
     28721     28724     28726     28721     28724     28727     28725     28724     28726
     28725     28724     28727     28726     28724     28727     28724     28727     28728
     28724     28727     28729     28724     28727     28730     28728     28727     28729
     28728     28727     28730     28729     28727     28730     28727     28730     28731
     28727     28730     28732     28727     28730     28733     28731     28730     28732
     28731     28730     28733     28732     28730     28733     28730     28733     28734
     28730     28733     28735     28730     28733     28736     28734     28733     28735
     28734     28733     28736     28735     28733     28736     28733     28736     28737
     28733     28736     28738     28733     28736     28739     28737     28736     28738
     28737     28736     28739     28738     28736     28739     28736     28739     28740
     28736     28739     28741     28740     28739     28741     28739     28741     28742
     28739     28741     28743     28742     28741     28743     28741     28743     28744
     28741     28743     28745     28741     28743     28746     28744     28743     28745
     28744     28743     28746     28745     28743     28746     28743     28746     28747
     28743     28746     28748     28743     28746     28749     28747     28746     28748
     28747     28746     28749     28748     28746     28749     28746     28749     28750
     28746     28749     28751     28746     28749     28752     28750     28749     28751
     28750     28749     28752     28751     28749     28752     28749     28752     28753
     28749     28752     28754     28749     28752     28755     28753     28752     28754
     28753     28752     28755     28754     28752     28755     28752     28755     28756
     28752     28755     28757     28752     28755     28758     28756     28755     28757
     28756     28755     28758     28757     28755     28758     28755     28758     28759
     28755     28758     28760     28755     28758     28761     28759     28758     28760
     28759     28758     28761     28760     28758     28761     28758     28761     28762
     28758     28761     28763     28758     28761     28764     28762     28761     28763
     28762     28761     28764     28763     28761     28764     28761     28764     28765
     28761     28764     28766     28761     28764     28767     28765     28764     28766
     28765     28764     28767     28766     28764     28767     28718     28768     28769
     28718     28768     28770     28718     28768     28771     28769     28768     28770
     28769     28768     28771     28770     28768     28771     28768     28771     28772
     28768     28771     28773     28768     28771     28774     28772     28771     28773
     28772     28771     28774     28773     28771     28774     28771     28774     28775
     28771     28774     28776     28771     28774     28777     28775     28774     28776
     28775     28774     28777     28776     28774     28777     28774     28777     28778
     28774     28777     28779     28774     28777     28780     28778     28777     28779
     28778     28777     28780     28779     28777     28780     28777     28780     28781
     28777     28780     28782     28777     28780     28783     28781     28780     28782
     28781     28780     28783     28782     28780     28783     28780     28783     28784
     28780     28783     28785     28780     28783     28786     28784     28783     28785
     28784     28783     28786     28785     28783     28786     28783     28786     28787
     28783     28786     28788     28783     28786     28789     28787     28786     28788
     28787     28786     28789     28788     28786     28789     28786     28789     28790
     28786     28789     28791     28786     28789     28792     28790     28789     28791
     28790     28789     28792     28791     28789     28792     28789     28792     28793
     28789     28792     28794     28789     28792     28795     28793     28792     28794
     28793     28792     28795     28794     28792     28795     28792     28795     28796
     28792     28795     28797     28792     28795     28798     28796     28795     28797
     28796     28795     28798     28797     28795     28798     28795     28798     28799
     28795     28798     28800     28795     28798     28801     28799     28798     28800
     28799     28798     28801     28800     28798     28801     28798     28801     28802
     28798     28801     28803     28798     28801     28804     28802     28801     28803
     28802     28801     28804     28803     28801     28804     28801     28804     28805
     28801     28804     28806     28801     28804     28807     28805     28804     28806
     28805     28804     28807     28806     28804     28807     28804     28807     28808
     28804     28807     28809     28804     28807     28810     28808     28807     28809
     28808     28807     28810     28809     28807     28810     28812     28811     28815
     28812     28811     28819     28812     28811     28823     28815     28811     28819
     28815     28811     28823     28819     28811     28823     28811     28812     28813
     28811     28812     28814     28811     28812     28827     28813     28812     28814
     28813     28812     28827     28814     28812     28827     28811     28815     28816
     28811     28815     28817     28811     28815     28818     28816     28815     28817
     28816     28815     28818     28817     28815     28818     28811     28819     28820
     28811     28819     28821     28811     28819     28822     28820     28819     28821
     28820     28819     28822     28821     28819     28822     28811     28823     28824
     28811     28823     28825     28811     28823     28826     28824     28823     28825
     28824     28823     28826     28825     28823     28826     28812     28827     28828
     28812     28827     28829     28812     28827     28833     28828     28827     28829
     28828     28827     28833     28829     28827     28833     28831     28830     28832
     28831     28830     28833     28831     28830     28834     28832     28830     28833
     28832     28830     28834     28833     28830     28834     28827     28833     28830
     28830     28834     28835     28834     28835     28836     28834     28835     28837
     28834     28835     28838     28836     28835     28837     28836     28835     28838
     28837     28835     28838     28835     28838     28839     28835     28838     28840
     28835     28838     28846     28839     28838     28840     28839     28838     28846
     28840     28838     28846     28838     28840     28841     28840     28841     28842
     28840     28841     28843     28842     28841     28843     28841     28843     28844
     28841     28843     28845     28841     28843     28855     28844     28843     28845
     28844     28843     28855     28845     28843     28855     28838     28846     28847
     28838     28846     28848     28838     28846     28849     28847     28846     28848
     28847     28846     28849     28848     28846     28849     28846     28849     28850
     28849     28850     28851     28849     28850     28852     28851     28850     28852
     28850     28852     28853     28850     28852     28854     28850     28852     28902
     28853     28852     28854     28853     28852     28902     28854     28852     28902
     28843     28855     28856     28843     28855     28857     28843     28855     28858
     28856     28855     28857     28856     28855     28858     28857     28855     28858
     28855     28858     28859     28855     28858     28860     28855     28858     28861
     28859     28858     28860     28859     28858     28861     28860     28858     28861
     28858     28861     28862     28858     28861     28863     28858     28861     28864
     28862     28861     28863     28862     28861     28864     28863     28861     28864
     28861     28864     28865     28861     28864     28866     28861     28864     28867
     28865     28864     28866     28865     28864     28867     28866     28864     28867
     28864     28867     28868     28864     28867     28869     28864     28867     28870
     28868     28867     28869     28868     28867     28870     28869     28867     28870
     28867     28870     28871     28867     28870     28872     28867     28870     28873
     28871     28870     28872     28871     28870     28873     28872     28870     28873
     28870     28873     28874     28870     28873     28875     28874     28873     28875
     28873     28875     28876     28873     28875     28877     28876     28875     28877
     28875     28877     28878     28875     28877     28879     28875     28877     28880
     28878     28877     28879     28878     28877     28880     28879     28877     28880
     28877     28880     28881     28877     28880     28882     28877     28880     28883
     28881     28880     28882     28881     28880     28883     28882     28880     28883
     28880     28883     28884     28880     28883     28885     28880     28883     28886
     28884     28883     28885     28884     28883     28886     28885     28883     28886
     28883     28886     28887     28883     28886     28888     28883     28886     28889
     28887     28886     28888     28887     28886     28889     28888     28886     28889
     28886     28889     28890     28886     28889     28891     28886     28889     28892
     28890     28889     28891     28890     28889     28892     28891     28889     28892
     28889     28892     28893     28889     28892     28894     28889     28892     28895
     28893     28892     28894     28893     28892     28895     28894     28892     28895
     28892     28895     28896     28892     28895     28897     28892     28895     28898
     28896     28895     28897     28896     28895     28898     28897     28895     28898
     28895     28898     28899     28895     28898     28900     28895     28898     28901
     28899     28898     28900     28899     28898     28901     28900     28898     28901
     28852     28902     28903     28852     28902     28904     28852     28902     28905
     28903     28902     28904     28903     28902     28905     28904     28902     28905
     28902     28905     28906     28902     28905     28907     28902     28905     28908
     28906     28905     28907     28906     28905     28908     28907     28905     28908
     28905     28908     28909     28905     28908     28910     28905     28908     28911
     28909     28908     28910     28909     28908     28911     28910     28908     28911
     28908     28911     28912     28908     28911     28913     28908     28911     28914
     28912     28911     28913     28912     28911     28914     28913     28911     28914
     28911     28914     28915     28911     28914     28916     28911     28914     28917
     28915     28914     28916     28915     28914     28917     28916     28914     28917
     28914     28917     28918     28914     28917     28919     28914     28917     28920
     28918     28917     28919     28918     28917     28920     28919     28917     28920
     28917     28920     28921     28917     28920     28922     28917     28920     28923
     28921     28920     28922     28921     28920     28923     28922     28920     28923
     28920     28923     28924     28920     28923     28925     28920     28923     28926
     28924     28923     28925     28924     28923     28926     28925     28923     28926
     28923     28926     28927     28923     28926     28928     28923     28926     28929
     28927     28926     28928     28927     28926     28929     28928     28926     28929
     28926     28929     28930     28926     28929     28931     28926     28929     28932
     28930     28929     28931     28930     28929     28932     28931     28929     28932
     28929     28932     28933     28929     28932     28934     28929     28932     28935
     28933     28932     28934     28933     28932     28935     28934     28932     28935
     28932     28935     28936     28932     28935     28937     28932     28935     28938
     28936     28935     28937     28936     28935     28938     28937     28935     28938
     28935     28938     28939     28935     28938     28940     28935     28938     28941
     28939     28938     28940     28939     28938     28941     28940     28938     28941
     28938     28941     28942     28938     28941     28943     28938     28941     28944
     28942     28941     28943     28942     28941     28944     28943     28941     28944
     28946     28945     28949     28946     28945     28953     28946     28945     28957
     28949     28945     28953     28949     28945     28957     28953     28945     28957
     28945     28946     28947     28945     28946     28948     28945     28946     28961
     28947     28946     28948     28947     28946     28961     28948     28946     28961
     28945     28949     28950     28945     28949     28951     28945     28949     28952
     28950     28949     28951     28950     28949     28952     28951     28949     28952
     28945     28953     28954     28945     28953     28955     28945     28953     28956
     28954     28953     28955     28954     28953     28956     28955     28953     28956
     28945     28957     28958     28945     28957     28959     28945     28957     28960
     28958     28957     28959     28958     28957     28960     28959     28957     28960
     28946     28961     28962     28946     28961     28963     28946     28961     28967
     28962     28961     28963     28962     28961     28967     28963     28961     28967
     28965     28964     28966     28965     28964     28967     28965     28964     28968
     28966     28964     28967     28966     28964     28968     28967     28964     28968
     28961     28967     28964     28964     28968     28969     28968     28969     28970
     28968     28969     28971     28968     28969     28972     28970     28969     28971
     28970     28969     28972     28971     28969     28972     28969     28972     28973
     28969     28972     28974     28969     28972     28980     28973     28972     28974
     28973     28972     28980     28974     28972     28980     28972     28974     28975
     28974     28975     28976     28974     28975     28977     28976     28975     28977
     28975     28977     28978     28975     28977     28979     28975     28977     28989
     28978     28977     28979     28978     28977     28989     28979     28977     28989
     28972     28980     28981     28972     28980     28982     28972     28980     28983
     28981     28980     28982     28981     28980     28983     28982     28980     28983
     28980     28983     28984     28983     28984     28985     28983     28984     28986
     28985     28984     28986     28984     28986     28987     28984     28986     28988
     28984     28986     29036     28987     28986     28988     28987     28986     29036
     28988     28986     29036     28977     28989     28990     28977     28989     28991
     28977     28989     28992     28990     28989     28991     28990     28989     28992
     28991     28989     28992     28989     28992     28993     28989     28992     28994
     28989     28992     28995     28993     28992     28994     28993     28992     28995
     28994     28992     28995     28992     28995     28996     28992     28995     28997
     28992     28995     28998     28996     28995     28997     28996     28995     28998
     28997     28995     28998     28995     28998     28999     28995     28998     29000
     28995     28998     29001     28999     28998     29000     28999     28998     29001
     29000     28998     29001     28998     29001     29002     28998     29001     29003
     28998     29001     29004     29002     29001     29003     29002     29001     29004
     29003     29001     29004     29001     29004     29005     29001     29004     29006
     29001     29004     29007     29005     29004     29006     29005     29004     29007
     29006     29004     29007     29004     29007     29008     29004     29007     29009
     29008     29007     29009     29007     29009     29010     29007     29009     29011
     29010     29009     29011     29009     29011     29012     29009     29011     29013
     29009     29011     29014     29012     29011     29013     29012     29011     29014
     29013     29011     29014     29011     29014     29015     29011     29014     29016
     29011     29014     29017     29015     29014     29016     29015     29014     29017
     29016     29014     29017     29014     29017     29018     29014     29017     29019
     29014     29017     29020     29018     29017     29019     29018     29017     29020
     29019     29017     29020     29017     29020     29021     29017     29020     29022
     29017     29020     29023     29021     29020     29022     29021     29020     29023
     29022     29020     29023     29020     29023     29024     29020     29023     29025
     29020     29023     29026     29024     29023     29025     29024     29023     29026
     29025     29023     29026     29023     29026     29027     29023     29026     29028
     29023     29026     29029     29027     29026     29028     29027     29026     29029
     29028     29026     29029     29026     29029     29030     29026     29029     29031
     29026     29029     29032     29030     29029     29031     29030     29029     29032
     29031     29029     29032     29029     29032     29033     29029     29032     29034
     29029     29032     29035     29033     29032     29034     29033     29032     29035
     29034     29032     29035     28986     29036     29037     28986     29036     29038
     28986     29036     29039     29037     29036     29038     29037     29036     29039
     29038     29036     29039     29036     29039     29040     29036     29039     29041
     29036     29039     29042     29040     29039     29041     29040     29039     29042
     29041     29039     29042     29039     29042     29043     29039     29042     29044
     29039     29042     29045     29043     29042     29044     29043     29042     29045
     29044     29042     29045     29042     29045     29046     29042     29045     29047
     29042     29045     29048     29046     29045     29047     29046     29045     29048
     29047     29045     29048     29045     29048     29049     29045     29048     29050
     29045     29048     29051     29049     29048     29050     29049     29048     29051
     29050     29048     29051     29048     29051     29052     29048     29051     29053
     29048     29051     29054     29052     29051     29053     29052     29051     29054
     29053     29051     29054     29051     29054     29055     29051     29054     29056
     29051     29054     29057     29055     29054     29056     29055     29054     29057
     29056     29054     29057     29054     29057     29058     29054     29057     29059
     29054     29057     29060     29058     29057     29059     29058     29057     29060
     29059     29057     29060     29057     29060     29061     29057     29060     29062
     29057     29060     29063     29061     29060     29062     29061     29060     29063
     29062     29060     29063     29060     29063     29064     29060     29063     29065
     29060     29063     29066     29064     29063     29065     29064     29063     29066
     29065     29063     29066     29063     29066     29067     29063     29066     29068
     29063     29066     29069     29067     29066     29068     29067     29066     29069
     29068     29066     29069     29066     29069     29070     29066     29069     29071
     29066     29069     29072     29070     29069     29071     29070     29069     29072
     29071     29069     29072     29069     29072     29073     29069     29072     29074
     29069     29072     29075     29073     29072     29074     29073     29072     29075
     29074     29072     29075     29072     29075     29076     29072     29075     29077
     29072     29075     29078     29076     29075     29077     29076     29075     29078
     29077     29075     29078     29080     29079     29083     29080     29079     29087
     29080     29079     29091     29083     29079     29087     29083     29079     29091
     29087     29079     29091     29079     29080     29081     29079     29080     29082
     29079     29080     29095     29081     29080     29082     29081     29080     29095
     29082     29080     29095     29079     29083     29084     29079     29083     29085
     29079     29083     29086     29084     29083     29085     29084     29083     29086
     29085     29083     29086     29079     29087     29088     29079     29087     29089
     29079     29087     29090     29088     29087     29089     29088     29087     29090
     29089     29087     29090     29079     29091     29092     29079     29091     29093
     29079     29091     29094     29092     29091     29093     29092     29091     29094
     29093     29091     29094     29080     29095     29096     29080     29095     29097
     29080     29095     29101     29096     29095     29097     29096     29095     29101
     29097     29095     29101     29099     29098     29100     29099     29098     29101
     29099     29098     29102     29100     29098     29101     29100     29098     29102
     29101     29098     29102     29095     29101     29098     29098     29102     29103
     29102     29103     29104     29102     29103     29105     29102     29103     29106
     29104     29103     29105     29104     29103     29106     29105     29103     29106
     29103     29106     29107     29103     29106     29108     29103     29106     29114
     29107     29106     29108     29107     29106     29114     29108     29106     29114
     29106     29108     29109     29108     29109     29110     29108     29109     29111
     29110     29109     29111     29109     29111     29112     29109     29111     29113
     29109     29111     29123     29112     29111     29113     29112     29111     29123
     29113     29111     29123     29106     29114     29115     29106     29114     29116
     29106     29114     29117     29115     29114     29116     29115     29114     29117
     29116     29114     29117     29114     29117     29118     29117     29118     29119
     29117     29118     29120     29119     29118     29120     29118     29120     29121
     29118     29120     29122     29118     29120     29170     29121     29120     29122
     29121     29120     29170     29122     29120     29170     29111     29123     29124
     29111     29123     29125     29111     29123     29126     29124     29123     29125
     29124     29123     29126     29125     29123     29126     29123     29126     29127
     29123     29126     29128     29123     29126     29129     29127     29126     29128
     29127     29126     29129     29128     29126     29129     29126     29129     29130
     29126     29129     29131     29126     29129     29132     29130     29129     29131
     29130     29129     29132     29131     29129     29132     29129     29132     29133
     29129     29132     29134     29129     29132     29135     29133     29132     29134
     29133     29132     29135     29134     29132     29135     29132     29135     29136
     29132     29135     29137     29132     29135     29138     29136     29135     29137
     29136     29135     29138     29137     29135     29138     29135     29138     29139
     29135     29138     29140     29135     29138     29141     29139     29138     29140
     29139     29138     29141     29140     29138     29141     29138     29141     29142
     29138     29141     29143     29142     29141     29143     29141     29143     29144
     29141     29143     29145     29144     29143     29145     29143     29145     29146
     29143     29145     29147     29143     29145     29148     29146     29145     29147
     29146     29145     29148     29147     29145     29148     29145     29148     29149
     29145     29148     29150     29145     29148     29151     29149     29148     29150
     29149     29148     29151     29150     29148     29151     29148     29151     29152
     29148     29151     29153     29148     29151     29154     29152     29151     29153
     29152     29151     29154     29153     29151     29154     29151     29154     29155
     29151     29154     29156     29151     29154     29157     29155     29154     29156
     29155     29154     29157     29156     29154     29157     29154     29157     29158
     29154     29157     29159     29154     29157     29160     29158     29157     29159
     29158     29157     29160     29159     29157     29160     29157     29160     29161
     29157     29160     29162     29157     29160     29163     29161     29160     29162
     29161     29160     29163     29162     29160     29163     29160     29163     29164
     29160     29163     29165     29160     29163     29166     29164     29163     29165
     29164     29163     29166     29165     29163     29166     29163     29166     29167
     29163     29166     29168     29163     29166     29169     29167     29166     29168
     29167     29166     29169     29168     29166     29169     29120     29170     29171
     29120     29170     29172     29120     29170     29173     29171     29170     29172
     29171     29170     29173     29172     29170     29173     29170     29173     29174
     29170     29173     29175     29170     29173     29176     29174     29173     29175
     29174     29173     29176     29175     29173     29176     29173     29176     29177
     29173     29176     29178     29173     29176     29179     29177     29176     29178
     29177     29176     29179     29178     29176     29179     29176     29179     29180
     29176     29179     29181     29176     29179     29182     29180     29179     29181
     29180     29179     29182     29181     29179     29182     29179     29182     29183
     29179     29182     29184     29179     29182     29185     29183     29182     29184
     29183     29182     29185     29184     29182     29185     29182     29185     29186
     29182     29185     29187     29182     29185     29188     29186     29185     29187
     29186     29185     29188     29187     29185     29188     29185     29188     29189
     29185     29188     29190     29185     29188     29191     29189     29188     29190
     29189     29188     29191     29190     29188     29191     29188     29191     29192
     29188     29191     29193     29188     29191     29194     29192     29191     29193
     29192     29191     29194     29193     29191     29194     29191     29194     29195
     29191     29194     29196     29191     29194     29197     29195     29194     29196
     29195     29194     29197     29196     29194     29197     29194     29197     29198
     29194     29197     29199     29194     29197     29200     29198     29197     29199
     29198     29197     29200     29199     29197     29200     29197     29200     29201
     29197     29200     29202     29197     29200     29203     29201     29200     29202
     29201     29200     29203     29202     29200     29203     29200     29203     29204
     29200     29203     29205     29200     29203     29206     29204     29203     29205
     29204     29203     29206     29205     29203     29206     29203     29206     29207
     29203     29206     29208     29203     29206     29209     29207     29206     29208
     29207     29206     29209     29208     29206     29209     29206     29209     29210
     29206     29209     29211     29206     29209     29212     29210     29209     29211
     29210     29209     29212     29211     29209     29212     29214     29213     29217
     29214     29213     29221     29214     29213     29225     29217     29213     29221
     29217     29213     29225     29221     29213     29225     29213     29214     29215
     29213     29214     29216     29213     29214     29229     29215     29214     29216
     29215     29214     29229     29216     29214     29229     29213     29217     29218
     29213     29217     29219     29213     29217     29220     29218     29217     29219
     29218     29217     29220     29219     29217     29220     29213     29221     29222
     29213     29221     29223     29213     29221     29224     29222     29221     29223
     29222     29221     29224     29223     29221     29224     29213     29225     29226
     29213     29225     29227     29213     29225     29228     29226     29225     29227
     29226     29225     29228     29227     29225     29228     29214     29229     29230
     29214     29229     29231     29214     29229     29235     29230     29229     29231
     29230     29229     29235     29231     29229     29235     29233     29232     29234
     29233     29232     29235     29233     29232     29236     29234     29232     29235
     29234     29232     29236     29235     29232     29236     29229     29235     29232
     29232     29236     29237     29236     29237     29238     29236     29237     29239
     29236     29237     29240     29238     29237     29239     29238     29237     29240
     29239     29237     29240     29237     29240     29241     29237     29240     29242
     29237     29240     29248     29241     29240     29242     29241     29240     29248
     29242     29240     29248     29240     29242     29243     29242     29243     29244
     29242     29243     29245     29244     29243     29245     29243     29245     29246
     29243     29245     29247     29243     29245     29257     29246     29245     29247
     29246     29245     29257     29247     29245     29257     29240     29248     29249
     29240     29248     29250     29240     29248     29251     29249     29248     29250
     29249     29248     29251     29250     29248     29251     29248     29251     29252
     29251     29252     29253     29251     29252     29254     29253     29252     29254
     29252     29254     29255     29252     29254     29256     29252     29254     29304
     29255     29254     29256     29255     29254     29304     29256     29254     29304
     29245     29257     29258     29245     29257     29259     29245     29257     29260
     29258     29257     29259     29258     29257     29260     29259     29257     29260
     29257     29260     29261     29257     29260     29262     29257     29260     29263
     29261     29260     29262     29261     29260     29263     29262     29260     29263
     29260     29263     29264     29260     29263     29265     29260     29263     29266
     29264     29263     29265     29264     29263     29266     29265     29263     29266
     29263     29266     29267     29263     29266     29268     29263     29266     29269
     29267     29266     29268     29267     29266     29269     29268     29266     29269
     29266     29269     29270     29266     29269     29271     29266     29269     29272
     29270     29269     29271     29270     29269     29272     29271     29269     29272
     29269     29272     29273     29269     29272     29274     29269     29272     29275
     29273     29272     29274     29273     29272     29275     29274     29272     29275
     29272     29275     29276     29272     29275     29277     29276     29275     29277
     29275     29277     29278     29275     29277     29279     29278     29277     29279
     29277     29279     29280     29277     29279     29281     29277     29279     29282
     29280     29279     29281     29280     29279     29282     29281     29279     29282
     29279     29282     29283     29279     29282     29284     29279     29282     29285
     29283     29282     29284     29283     29282     29285     29284     29282     29285
     29282     29285     29286     29282     29285     29287     29282     29285     29288
     29286     29285     29287     29286     29285     29288     29287     29285     29288
     29285     29288     29289     29285     29288     29290     29285     29288     29291
     29289     29288     29290     29289     29288     29291     29290     29288     29291
     29288     29291     29292     29288     29291     29293     29288     29291     29294
     29292     29291     29293     29292     29291     29294     29293     29291     29294
     29291     29294     29295     29291     29294     29296     29291     29294     29297
     29295     29294     29296     29295     29294     29297     29296     29294     29297
     29294     29297     29298     29294     29297     29299     29294     29297     29300
     29298     29297     29299     29298     29297     29300     29299     29297     29300
     29297     29300     29301     29297     29300     29302     29297     29300     29303
     29301     29300     29302     29301     29300     29303     29302     29300     29303
     29254     29304     29305     29254     29304     29306     29254     29304     29307
     29305     29304     29306     29305     29304     29307     29306     29304     29307
     29304     29307     29308     29304     29307     29309     29304     29307     29310
     29308     29307     29309     29308     29307     29310     29309     29307     29310
     29307     29310     29311     29307     29310     29312     29307     29310     29313
     29311     29310     29312     29311     29310     29313     29312     29310     29313
     29310     29313     29314     29310     29313     29315     29310     29313     29316
     29314     29313     29315     29314     29313     29316     29315     29313     29316
     29313     29316     29317     29313     29316     29318     29313     29316     29319
     29317     29316     29318     29317     29316     29319     29318     29316     29319
     29316     29319     29320     29316     29319     29321     29316     29319     29322
     29320     29319     29321     29320     29319     29322     29321     29319     29322
     29319     29322     29323     29319     29322     29324     29319     29322     29325
     29323     29322     29324     29323     29322     29325     29324     29322     29325
     29322     29325     29326     29322     29325     29327     29322     29325     29328
     29326     29325     29327     29326     29325     29328     29327     29325     29328
     29325     29328     29329     29325     29328     29330     29325     29328     29331
     29329     29328     29330     29329     29328     29331     29330     29328     29331
     29328     29331     29332     29328     29331     29333     29328     29331     29334
     29332     29331     29333     29332     29331     29334     29333     29331     29334
     29331     29334     29335     29331     29334     29336     29331     29334     29337
     29335     29334     29336     29335     29334     29337     29336     29334     29337
     29334     29337     29338     29334     29337     29339     29334     29337     29340
     29338     29337     29339     29338     29337     29340     29339     29337     29340
     29337     29340     29341     29337     29340     29342     29337     29340     29343
     29341     29340     29342     29341     29340     29343     29342     29340     29343
     29340     29343     29344     29340     29343     29345     29340     29343     29346
     29344     29343     29345     29344     29343     29346     29345     29343     29346
     29348     29347     29351     29348     29347     29355     29348     29347     29359
     29351     29347     29355     29351     29347     29359     29355     29347     29359
     29347     29348     29349     29347     29348     29350     29347     29348     29363
     29349     29348     29350     29349     29348     29363     29350     29348     29363
     29347     29351     29352     29347     29351     29353     29347     29351     29354
     29352     29351     29353     29352     29351     29354     29353     29351     29354
     29347     29355     29356     29347     29355     29357     29347     29355     29358
     29356     29355     29357     29356     29355     29358     29357     29355     29358
     29347     29359     29360     29347     29359     29361     29347     29359     29362
     29360     29359     29361     29360     29359     29362     29361     29359     29362
     29348     29363     29364     29348     29363     29365     29348     29363     29369
     29364     29363     29365     29364     29363     29369     29365     29363     29369
     29367     29366     29368     29367     29366     29369     29367     29366     29370
     29368     29366     29369     29368     29366     29370     29369     29366     29370
     29363     29369     29366     29366     29370     29371     29370     29371     29372
     29370     29371     29373     29370     29371     29374     29372     29371     29373
     29372     29371     29374     29373     29371     29374     29371     29374     29375
     29371     29374     29376     29371     29374     29382     29375     29374     29376
     29375     29374     29382     29376     29374     29382     29374     29376     29377
     29376     29377     29378     29376     29377     29379     29378     29377     29379
     29377     29379     29380     29377     29379     29381     29377     29379     29391
     29380     29379     29381     29380     29379     29391     29381     29379     29391
     29374     29382     29383     29374     29382     29384     29374     29382     29385
     29383     29382     29384     29383     29382     29385     29384     29382     29385
     29382     29385     29386     29385     29386     29387     29385     29386     29388
     29387     29386     29388     29386     29388     29389     29386     29388     29390
     29386     29388     29438     29389     29388     29390     29389     29388     29438
     29390     29388     29438     29379     29391     29392     29379     29391     29393
     29379     29391     29394     29392     29391     29393     29392     29391     29394
     29393     29391     29394     29391     29394     29395     29391     29394     29396
     29391     29394     29397     29395     29394     29396     29395     29394     29397
     29396     29394     29397     29394     29397     29398     29394     29397     29399
     29394     29397     29400     29398     29397     29399     29398     29397     29400
     29399     29397     29400     29397     29400     29401     29397     29400     29402
     29397     29400     29403     29401     29400     29402     29401     29400     29403
     29402     29400     29403     29400     29403     29404     29400     29403     29405
     29400     29403     29406     29404     29403     29405     29404     29403     29406
     29405     29403     29406     29403     29406     29407     29403     29406     29408
     29403     29406     29409     29407     29406     29408     29407     29406     29409
     29408     29406     29409     29406     29409     29410     29406     29409     29411
     29410     29409     29411     29409     29411     29412     29409     29411     29413
     29412     29411     29413     29411     29413     29414     29411     29413     29415
     29411     29413     29416     29414     29413     29415     29414     29413     29416
     29415     29413     29416     29413     29416     29417     29413     29416     29418
     29413     29416     29419     29417     29416     29418     29417     29416     29419
     29418     29416     29419     29416     29419     29420     29416     29419     29421
     29416     29419     29422     29420     29419     29421     29420     29419     29422
     29421     29419     29422     29419     29422     29423     29419     29422     29424
     29419     29422     29425     29423     29422     29424     29423     29422     29425
     29424     29422     29425     29422     29425     29426     29422     29425     29427
     29422     29425     29428     29426     29425     29427     29426     29425     29428
     29427     29425     29428     29425     29428     29429     29425     29428     29430
     29425     29428     29431     29429     29428     29430     29429     29428     29431
     29430     29428     29431     29428     29431     29432     29428     29431     29433
     29428     29431     29434     29432     29431     29433     29432     29431     29434
     29433     29431     29434     29431     29434     29435     29431     29434     29436
     29431     29434     29437     29435     29434     29436     29435     29434     29437
     29436     29434     29437     29388     29438     29439     29388     29438     29440
     29388     29438     29441     29439     29438     29440     29439     29438     29441
     29440     29438     29441     29438     29441     29442     29438     29441     29443
     29438     29441     29444     29442     29441     29443     29442     29441     29444
     29443     29441     29444     29441     29444     29445     29441     29444     29446
     29441     29444     29447     29445     29444     29446     29445     29444     29447
     29446     29444     29447     29444     29447     29448     29444     29447     29449
     29444     29447     29450     29448     29447     29449     29448     29447     29450
     29449     29447     29450     29447     29450     29451     29447     29450     29452
     29447     29450     29453     29451     29450     29452     29451     29450     29453
     29452     29450     29453     29450     29453     29454     29450     29453     29455
     29450     29453     29456     29454     29453     29455     29454     29453     29456
     29455     29453     29456     29453     29456     29457     29453     29456     29458
     29453     29456     29459     29457     29456     29458     29457     29456     29459
     29458     29456     29459     29456     29459     29460     29456     29459     29461
     29456     29459     29462     29460     29459     29461     29460     29459     29462
     29461     29459     29462     29459     29462     29463     29459     29462     29464
     29459     29462     29465     29463     29462     29464     29463     29462     29465
     29464     29462     29465     29462     29465     29466     29462     29465     29467
     29462     29465     29468     29466     29465     29467     29466     29465     29468
     29467     29465     29468     29465     29468     29469     29465     29468     29470
     29465     29468     29471     29469     29468     29470     29469     29468     29471
     29470     29468     29471     29468     29471     29472     29468     29471     29473
     29468     29471     29474     29472     29471     29473     29472     29471     29474
     29473     29471     29474     29471     29474     29475     29471     29474     29476
     29471     29474     29477     29475     29474     29476     29475     29474     29477
     29476     29474     29477     29474     29477     29478     29474     29477     29479
     29474     29477     29480     29478     29477     29479     29478     29477     29480
     29479     29477     29480     29482     29481     29485     29482     29481     29489
     29482     29481     29493     29485     29481     29489     29485     29481     29493
     29489     29481     29493     29481     29482     29483     29481     29482     29484
     29481     29482     29497     29483     29482     29484     29483     29482     29497
     29484     29482     29497     29481     29485     29486     29481     29485     29487
     29481     29485     29488     29486     29485     29487     29486     29485     29488
     29487     29485     29488     29481     29489     29490     29481     29489     29491
     29481     29489     29492     29490     29489     29491     29490     29489     29492
     29491     29489     29492     29481     29493     29494     29481     29493     29495
     29481     29493     29496     29494     29493     29495     29494     29493     29496
     29495     29493     29496     29482     29497     29498     29482     29497     29499
     29482     29497     29503     29498     29497     29499     29498     29497     29503
     29499     29497     29503     29501     29500     29502     29501     29500     29503
     29501     29500     29504     29502     29500     29503     29502     29500     29504
     29503     29500     29504     29497     29503     29500     29500     29504     29505
     29504     29505     29506     29504     29505     29507     29504     29505     29508
     29506     29505     29507     29506     29505     29508     29507     29505     29508
     29505     29508     29509     29505     29508     29510     29505     29508     29516
     29509     29508     29510     29509     29508     29516     29510     29508     29516
     29508     29510     29511     29510     29511     29512     29510     29511     29513
     29512     29511     29513     29511     29513     29514     29511     29513     29515
     29511     29513     29525     29514     29513     29515     29514     29513     29525
     29515     29513     29525     29508     29516     29517     29508     29516     29518
     29508     29516     29519     29517     29516     29518     29517     29516     29519
     29518     29516     29519     29516     29519     29520     29519     29520     29521
     29519     29520     29522     29521     29520     29522     29520     29522     29523
     29520     29522     29524     29520     29522     29572     29523     29522     29524
     29523     29522     29572     29524     29522     29572     29513     29525     29526
     29513     29525     29527     29513     29525     29528     29526     29525     29527
     29526     29525     29528     29527     29525     29528     29525     29528     29529
     29525     29528     29530     29525     29528     29531     29529     29528     29530
     29529     29528     29531     29530     29528     29531     29528     29531     29532
     29528     29531     29533     29528     29531     29534     29532     29531     29533
     29532     29531     29534     29533     29531     29534     29531     29534     29535
     29531     29534     29536     29531     29534     29537     29535     29534     29536
     29535     29534     29537     29536     29534     29537     29534     29537     29538
     29534     29537     29539     29534     29537     29540     29538     29537     29539
     29538     29537     29540     29539     29537     29540     29537     29540     29541
     29537     29540     29542     29537     29540     29543     29541     29540     29542
     29541     29540     29543     29542     29540     29543     29540     29543     29544
     29540     29543     29545     29544     29543     29545     29543     29545     29546
     29543     29545     29547     29546     29545     29547     29545     29547     29548
     29545     29547     29549     29545     29547     29550     29548     29547     29549
     29548     29547     29550     29549     29547     29550     29547     29550     29551
     29547     29550     29552     29547     29550     29553     29551     29550     29552
     29551     29550     29553     29552     29550     29553     29550     29553     29554
     29550     29553     29555     29550     29553     29556     29554     29553     29555
     29554     29553     29556     29555     29553     29556     29553     29556     29557
     29553     29556     29558     29553     29556     29559     29557     29556     29558
     29557     29556     29559     29558     29556     29559     29556     29559     29560
     29556     29559     29561     29556     29559     29562     29560     29559     29561
     29560     29559     29562     29561     29559     29562     29559     29562     29563
     29559     29562     29564     29559     29562     29565     29563     29562     29564
     29563     29562     29565     29564     29562     29565     29562     29565     29566
     29562     29565     29567     29562     29565     29568     29566     29565     29567
     29566     29565     29568     29567     29565     29568     29565     29568     29569
     29565     29568     29570     29565     29568     29571     29569     29568     29570
     29569     29568     29571     29570     29568     29571     29522     29572     29573
     29522     29572     29574     29522     29572     29575     29573     29572     29574
     29573     29572     29575     29574     29572     29575     29572     29575     29576
     29572     29575     29577     29572     29575     29578     29576     29575     29577
     29576     29575     29578     29577     29575     29578     29575     29578     29579
     29575     29578     29580     29575     29578     29581     29579     29578     29580
     29579     29578     29581     29580     29578     29581     29578     29581     29582
     29578     29581     29583     29578     29581     29584     29582     29581     29583
     29582     29581     29584     29583     29581     29584     29581     29584     29585
     29581     29584     29586     29581     29584     29587     29585     29584     29586
     29585     29584     29587     29586     29584     29587     29584     29587     29588
     29584     29587     29589     29584     29587     29590     29588     29587     29589
     29588     29587     29590     29589     29587     29590     29587     29590     29591
     29587     29590     29592     29587     29590     29593     29591     29590     29592
     29591     29590     29593     29592     29590     29593     29590     29593     29594
     29590     29593     29595     29590     29593     29596     29594     29593     29595
     29594     29593     29596     29595     29593     29596     29593     29596     29597
     29593     29596     29598     29593     29596     29599     29597     29596     29598
     29597     29596     29599     29598     29596     29599     29596     29599     29600
     29596     29599     29601     29596     29599     29602     29600     29599     29601
     29600     29599     29602     29601     29599     29602     29599     29602     29603
     29599     29602     29604     29599     29602     29605     29603     29602     29604
     29603     29602     29605     29604     29602     29605     29602     29605     29606
     29602     29605     29607     29602     29605     29608     29606     29605     29607
     29606     29605     29608     29607     29605     29608     29605     29608     29609
     29605     29608     29610     29605     29608     29611     29609     29608     29610
     29609     29608     29611     29610     29608     29611     29608     29611     29612
     29608     29611     29613     29608     29611     29614     29612     29611     29613
     29612     29611     29614     29613     29611     29614     29616     29615     29619
     29616     29615     29623     29616     29615     29627     29619     29615     29623
     29619     29615     29627     29623     29615     29627     29615     29616     29617
     29615     29616     29618     29615     29616     29631     29617     29616     29618
     29617     29616     29631     29618     29616     29631     29615     29619     29620
     29615     29619     29621     29615     29619     29622     29620     29619     29621
     29620     29619     29622     29621     29619     29622     29615     29623     29624
     29615     29623     29625     29615     29623     29626     29624     29623     29625
     29624     29623     29626     29625     29623     29626     29615     29627     29628
     29615     29627     29629     29615     29627     29630     29628     29627     29629
     29628     29627     29630     29629     29627     29630     29616     29631     29632
     29616     29631     29633     29616     29631     29637     29632     29631     29633
     29632     29631     29637     29633     29631     29637     29635     29634     29636
     29635     29634     29637     29635     29634     29638     29636     29634     29637
     29636     29634     29638     29637     29634     29638     29631     29637     29634
     29634     29638     29639     29638     29639     29640     29638     29639     29641
     29638     29639     29642     29640     29639     29641     29640     29639     29642
     29641     29639     29642     29639     29642     29643     29639     29642     29644
     29639     29642     29650     29643     29642     29644     29643     29642     29650
     29644     29642     29650     29642     29644     29645     29644     29645     29646
     29644     29645     29647     29646     29645     29647     29645     29647     29648
     29645     29647     29649     29645     29647     29659     29648     29647     29649
     29648     29647     29659     29649     29647     29659     29642     29650     29651
     29642     29650     29652     29642     29650     29653     29651     29650     29652
     29651     29650     29653     29652     29650     29653     29650     29653     29654
     29653     29654     29655     29653     29654     29656     29655     29654     29656
     29654     29656     29657     29654     29656     29658     29654     29656     29706
     29657     29656     29658     29657     29656     29706     29658     29656     29706
     29647     29659     29660     29647     29659     29661     29647     29659     29662
     29660     29659     29661     29660     29659     29662     29661     29659     29662
     29659     29662     29663     29659     29662     29664     29659     29662     29665
     29663     29662     29664     29663     29662     29665     29664     29662     29665
     29662     29665     29666     29662     29665     29667     29662     29665     29668
     29666     29665     29667     29666     29665     29668     29667     29665     29668
     29665     29668     29669     29665     29668     29670     29665     29668     29671
     29669     29668     29670     29669     29668     29671     29670     29668     29671
     29668     29671     29672     29668     29671     29673     29668     29671     29674
     29672     29671     29673     29672     29671     29674     29673     29671     29674
     29671     29674     29675     29671     29674     29676     29671     29674     29677
     29675     29674     29676     29675     29674     29677     29676     29674     29677
     29674     29677     29678     29674     29677     29679     29678     29677     29679
     29677     29679     29680     29677     29679     29681     29680     29679     29681
     29679     29681     29682     29679     29681     29683     29679     29681     29684
     29682     29681     29683     29682     29681     29684     29683     29681     29684
     29681     29684     29685     29681     29684     29686     29681     29684     29687
     29685     29684     29686     29685     29684     29687     29686     29684     29687
     29684     29687     29688     29684     29687     29689     29684     29687     29690
     29688     29687     29689     29688     29687     29690     29689     29687     29690
     29687     29690     29691     29687     29690     29692     29687     29690     29693
     29691     29690     29692     29691     29690     29693     29692     29690     29693
     29690     29693     29694     29690     29693     29695     29690     29693     29696
     29694     29693     29695     29694     29693     29696     29695     29693     29696
     29693     29696     29697     29693     29696     29698     29693     29696     29699
     29697     29696     29698     29697     29696     29699     29698     29696     29699
     29696     29699     29700     29696     29699     29701     29696     29699     29702
     29700     29699     29701     29700     29699     29702     29701     29699     29702
     29699     29702     29703     29699     29702     29704     29699     29702     29705
     29703     29702     29704     29703     29702     29705     29704     29702     29705
     29656     29706     29707     29656     29706     29708     29656     29706     29709
     29707     29706     29708     29707     29706     29709     29708     29706     29709
     29706     29709     29710     29706     29709     29711     29706     29709     29712
     29710     29709     29711     29710     29709     29712     29711     29709     29712
     29709     29712     29713     29709     29712     29714     29709     29712     29715
     29713     29712     29714     29713     29712     29715     29714     29712     29715
     29712     29715     29716     29712     29715     29717     29712     29715     29718
     29716     29715     29717     29716     29715     29718     29717     29715     29718
     29715     29718     29719     29715     29718     29720     29715     29718     29721
     29719     29718     29720     29719     29718     29721     29720     29718     29721
     29718     29721     29722     29718     29721     29723     29718     29721     29724
     29722     29721     29723     29722     29721     29724     29723     29721     29724
     29721     29724     29725     29721     29724     29726     29721     29724     29727
     29725     29724     29726     29725     29724     29727     29726     29724     29727
     29724     29727     29728     29724     29727     29729     29724     29727     29730
     29728     29727     29729     29728     29727     29730     29729     29727     29730
     29727     29730     29731     29727     29730     29732     29727     29730     29733
     29731     29730     29732     29731     29730     29733     29732     29730     29733
     29730     29733     29734     29730     29733     29735     29730     29733     29736
     29734     29733     29735     29734     29733     29736     29735     29733     29736
     29733     29736     29737     29733     29736     29738     29733     29736     29739
     29737     29736     29738     29737     29736     29739     29738     29736     29739
     29736     29739     29740     29736     29739     29741     29736     29739     29742
     29740     29739     29741     29740     29739     29742     29741     29739     29742
     29739     29742     29743     29739     29742     29744     29739     29742     29745
     29743     29742     29744     29743     29742     29745     29744     29742     29745
     29742     29745     29746     29742     29745     29747     29742     29745     29748
     29746     29745     29747     29746     29745     29748     29747     29745     29748
     29750     29749     29753     29750     29749     29757     29750     29749     29761
     29753     29749     29757     29753     29749     29761     29757     29749     29761
     29749     29750     29751     29749     29750     29752     29749     29750     29765
     29751     29750     29752     29751     29750     29765     29752     29750     29765
     29749     29753     29754     29749     29753     29755     29749     29753     29756
     29754     29753     29755     29754     29753     29756     29755     29753     29756
     29749     29757     29758     29749     29757     29759     29749     29757     29760
     29758     29757     29759     29758     29757     29760     29759     29757     29760
     29749     29761     29762     29749     29761     29763     29749     29761     29764
     29762     29761     29763     29762     29761     29764     29763     29761     29764
     29750     29765     29766     29750     29765     29767     29750     29765     29771
     29766     29765     29767     29766     29765     29771     29767     29765     29771
     29769     29768     29770     29769     29768     29771     29769     29768     29772
     29770     29768     29771     29770     29768     29772     29771     29768     29772
     29765     29771     29768     29768     29772     29773     29772     29773     29774
     29772     29773     29775     29772     29773     29776     29774     29773     29775
     29774     29773     29776     29775     29773     29776     29773     29776     29777
     29773     29776     29778     29773     29776     29784     29777     29776     29778
     29777     29776     29784     29778     29776     29784     29776     29778     29779
     29778     29779     29780     29778     29779     29781     29780     29779     29781
     29779     29781     29782     29779     29781     29783     29779     29781     29793
     29782     29781     29783     29782     29781     29793     29783     29781     29793
     29776     29784     29785     29776     29784     29786     29776     29784     29787
     29785     29784     29786     29785     29784     29787     29786     29784     29787
     29784     29787     29788     29787     29788     29789     29787     29788     29790
     29789     29788     29790     29788     29790     29791     29788     29790     29792
     29788     29790     29840     29791     29790     29792     29791     29790     29840
     29792     29790     29840     29781     29793     29794     29781     29793     29795
     29781     29793     29796     29794     29793     29795     29794     29793     29796
     29795     29793     29796     29793     29796     29797     29793     29796     29798
     29793     29796     29799     29797     29796     29798     29797     29796     29799
     29798     29796     29799     29796     29799     29800     29796     29799     29801
     29796     29799     29802     29800     29799     29801     29800     29799     29802
     29801     29799     29802     29799     29802     29803     29799     29802     29804
     29799     29802     29805     29803     29802     29804     29803     29802     29805
     29804     29802     29805     29802     29805     29806     29802     29805     29807
     29802     29805     29808     29806     29805     29807     29806     29805     29808
     29807     29805     29808     29805     29808     29809     29805     29808     29810
     29805     29808     29811     29809     29808     29810     29809     29808     29811
     29810     29808     29811     29808     29811     29812     29808     29811     29813
     29812     29811     29813     29811     29813     29814     29811     29813     29815
     29814     29813     29815     29813     29815     29816     29813     29815     29817
     29813     29815     29818     29816     29815     29817     29816     29815     29818
     29817     29815     29818     29815     29818     29819     29815     29818     29820
     29815     29818     29821     29819     29818     29820     29819     29818     29821
     29820     29818     29821     29818     29821     29822     29818     29821     29823
     29818     29821     29824     29822     29821     29823     29822     29821     29824
     29823     29821     29824     29821     29824     29825     29821     29824     29826
     29821     29824     29827     29825     29824     29826     29825     29824     29827
     29826     29824     29827     29824     29827     29828     29824     29827     29829
     29824     29827     29830     29828     29827     29829     29828     29827     29830
     29829     29827     29830     29827     29830     29831     29827     29830     29832
     29827     29830     29833     29831     29830     29832     29831     29830     29833
     29832     29830     29833     29830     29833     29834     29830     29833     29835
     29830     29833     29836     29834     29833     29835     29834     29833     29836
     29835     29833     29836     29833     29836     29837     29833     29836     29838
     29833     29836     29839     29837     29836     29838     29837     29836     29839
     29838     29836     29839     29790     29840     29841     29790     29840     29842
     29790     29840     29843     29841     29840     29842     29841     29840     29843
     29842     29840     29843     29840     29843     29844     29840     29843     29845
     29840     29843     29846     29844     29843     29845     29844     29843     29846
     29845     29843     29846     29843     29846     29847     29843     29846     29848
     29843     29846     29849     29847     29846     29848     29847     29846     29849
     29848     29846     29849     29846     29849     29850     29846     29849     29851
     29846     29849     29852     29850     29849     29851     29850     29849     29852
     29851     29849     29852     29849     29852     29853     29849     29852     29854
     29849     29852     29855     29853     29852     29854     29853     29852     29855
     29854     29852     29855     29852     29855     29856     29852     29855     29857
     29852     29855     29858     29856     29855     29857     29856     29855     29858
     29857     29855     29858     29855     29858     29859     29855     29858     29860
     29855     29858     29861     29859     29858     29860     29859     29858     29861
     29860     29858     29861     29858     29861     29862     29858     29861     29863
     29858     29861     29864     29862     29861     29863     29862     29861     29864
     29863     29861     29864     29861     29864     29865     29861     29864     29866
     29861     29864     29867     29865     29864     29866     29865     29864     29867
     29866     29864     29867     29864     29867     29868     29864     29867     29869
     29864     29867     29870     29868     29867     29869     29868     29867     29870
     29869     29867     29870     29867     29870     29871     29867     29870     29872
     29867     29870     29873     29871     29870     29872     29871     29870     29873
     29872     29870     29873     29870     29873     29874     29870     29873     29875
     29870     29873     29876     29874     29873     29875     29874     29873     29876
     29875     29873     29876     29873     29876     29877     29873     29876     29878
     29873     29876     29879     29877     29876     29878     29877     29876     29879
     29878     29876     29879     29876     29879     29880     29876     29879     29881
     29876     29879     29882     29880     29879     29881     29880     29879     29882
     29881     29879     29882     29884     29883     29887     29884     29883     29891
     29884     29883     29895     29887     29883     29891     29887     29883     29895
     29891     29883     29895     29883     29884     29885     29883     29884     29886
     29883     29884     29899     29885     29884     29886     29885     29884     29899
     29886     29884     29899     29883     29887     29888     29883     29887     29889
     29883     29887     29890     29888     29887     29889     29888     29887     29890
     29889     29887     29890     29883     29891     29892     29883     29891     29893
     29883     29891     29894     29892     29891     29893     29892     29891     29894
     29893     29891     29894     29883     29895     29896     29883     29895     29897
     29883     29895     29898     29896     29895     29897     29896     29895     29898
     29897     29895     29898     29884     29899     29900     29884     29899     29901
     29884     29899     29905     29900     29899     29901     29900     29899     29905
     29901     29899     29905     29903     29902     29904     29903     29902     29905
     29903     29902     29906     29904     29902     29905     29904     29902     29906
     29905     29902     29906     29899     29905     29902     29902     29906     29907
     29906     29907     29908     29906     29907     29909     29906     29907     29910
     29908     29907     29909     29908     29907     29910     29909     29907     29910
     29907     29910     29911     29907     29910     29912     29907     29910     29918
     29911     29910     29912     29911     29910     29918     29912     29910     29918
     29910     29912     29913     29912     29913     29914     29912     29913     29915
     29914     29913     29915     29913     29915     29916     29913     29915     29917
     29913     29915     29927     29916     29915     29917     29916     29915     29927
     29917     29915     29927     29910     29918     29919     29910     29918     29920
     29910     29918     29921     29919     29918     29920     29919     29918     29921
     29920     29918     29921     29918     29921     29922     29921     29922     29923
     29921     29922     29924     29923     29922     29924     29922     29924     29925
     29922     29924     29926     29922     29924     29974     29925     29924     29926
     29925     29924     29974     29926     29924     29974     29915     29927     29928
     29915     29927     29929     29915     29927     29930     29928     29927     29929
     29928     29927     29930     29929     29927     29930     29927     29930     29931
     29927     29930     29932     29927     29930     29933     29931     29930     29932
     29931     29930     29933     29932     29930     29933     29930     29933     29934
     29930     29933     29935     29930     29933     29936     29934     29933     29935
     29934     29933     29936     29935     29933     29936     29933     29936     29937
     29933     29936     29938     29933     29936     29939     29937     29936     29938
     29937     29936     29939     29938     29936     29939     29936     29939     29940
     29936     29939     29941     29936     29939     29942     29940     29939     29941
     29940     29939     29942     29941     29939     29942     29939     29942     29943
     29939     29942     29944     29939     29942     29945     29943     29942     29944
     29943     29942     29945     29944     29942     29945     29942     29945     29946
     29942     29945     29947     29946     29945     29947     29945     29947     29948
     29945     29947     29949     29948     29947     29949     29947     29949     29950
     29947     29949     29951     29947     29949     29952     29950     29949     29951
     29950     29949     29952     29951     29949     29952     29949     29952     29953
     29949     29952     29954     29949     29952     29955     29953     29952     29954
     29953     29952     29955     29954     29952     29955     29952     29955     29956
     29952     29955     29957     29952     29955     29958     29956     29955     29957
     29956     29955     29958     29957     29955     29958     29955     29958     29959
     29955     29958     29960     29955     29958     29961     29959     29958     29960
     29959     29958     29961     29960     29958     29961     29958     29961     29962
     29958     29961     29963     29958     29961     29964     29962     29961     29963
     29962     29961     29964     29963     29961     29964     29961     29964     29965
     29961     29964     29966     29961     29964     29967     29965     29964     29966
     29965     29964     29967     29966     29964     29967     29964     29967     29968
     29964     29967     29969     29964     29967     29970     29968     29967     29969
     29968     29967     29970     29969     29967     29970     29967     29970     29971
     29967     29970     29972     29967     29970     29973     29971     29970     29972
     29971     29970     29973     29972     29970     29973     29924     29974     29975
     29924     29974     29976     29924     29974     29977     29975     29974     29976
     29975     29974     29977     29976     29974     29977     29974     29977     29978
     29974     29977     29979     29974     29977     29980     29978     29977     29979
     29978     29977     29980     29979     29977     29980     29977     29980     29981
     29977     29980     29982     29977     29980     29983     29981     29980     29982
     29981     29980     29983     29982     29980     29983     29980     29983     29984
     29980     29983     29985     29980     29983     29986     29984     29983     29985
     29984     29983     29986     29985     29983     29986     29983     29986     29987
     29983     29986     29988     29983     29986     29989     29987     29986     29988
     29987     29986     29989     29988     29986     29989     29986     29989     29990
     29986     29989     29991     29986     29989     29992     29990     29989     29991
     29990     29989     29992     29991     29989     29992     29989     29992     29993
     29989     29992     29994     29989     29992     29995     29993     29992     29994
     29993     29992     29995     29994     29992     29995     29992     29995     29996
     29992     29995     29997     29992     29995     29998     29996     29995     29997
     29996     29995     29998     29997     29995     29998     29995     29998     29999
     29995     29998     30000     29995     29998     30001     29999     29998     30000
     29999     29998     30001     30000     29998     30001     29998     30001     30002
     29998     30001     30003     29998     30001     30004     30002     30001     30003
     30002     30001     30004     30003     30001     30004     30001     30004     30005
     30001     30004     30006     30001     30004     30007     30005     30004     30006
     30005     30004     30007     30006     30004     30007     30004     30007     30008
     30004     30007     30009     30004     30007     30010     30008     30007     30009
     30008     30007     30010     30009     30007     30010     30007     30010     30011
     30007     30010     30012     30007     30010     30013     30011     30010     30012
     30011     30010     30013     30012     30010     30013     30010     30013     30014
     30010     30013     30015     30010     30013     30016     30014     30013     30015
     30014     30013     30016     30015     30013     30016     30018     30017     30021
     30018     30017     30025     30018     30017     30029     30021     30017     30025
     30021     30017     30029     30025     30017     30029     30017     30018     30019
     30017     30018     30020     30017     30018     30033     30019     30018     30020
     30019     30018     30033     30020     30018     30033     30017     30021     30022
     30017     30021     30023     30017     30021     30024     30022     30021     30023
     30022     30021     30024     30023     30021     30024     30017     30025     30026
     30017     30025     30027     30017     30025     30028     30026     30025     30027
     30026     30025     30028     30027     30025     30028     30017     30029     30030
     30017     30029     30031     30017     30029     30032     30030     30029     30031
     30030     30029     30032     30031     30029     30032     30018     30033     30034
     30018     30033     30035     30018     30033     30039     30034     30033     30035
     30034     30033     30039     30035     30033     30039     30037     30036     30038
     30037     30036     30039     30037     30036     30040     30038     30036     30039
     30038     30036     30040     30039     30036     30040     30033     30039     30036
     30036     30040     30041     30040     30041     30042     30040     30041     30043
     30040     30041     30044     30042     30041     30043     30042     30041     30044
     30043     30041     30044     30041     30044     30045     30041     30044     30046
     30041     30044     30052     30045     30044     30046     30045     30044     30052
     30046     30044     30052     30044     30046     30047     30046     30047     30048
     30046     30047     30049     30048     30047     30049     30047     30049     30050
     30047     30049     30051     30047     30049     30061     30050     30049     30051
     30050     30049     30061     30051     30049     30061     30044     30052     30053
     30044     30052     30054     30044     30052     30055     30053     30052     30054
     30053     30052     30055     30054     30052     30055     30052     30055     30056
     30055     30056     30057     30055     30056     30058     30057     30056     30058
     30056     30058     30059     30056     30058     30060     30056     30058     30108
     30059     30058     30060     30059     30058     30108     30060     30058     30108
     30049     30061     30062     30049     30061     30063     30049     30061     30064
     30062     30061     30063     30062     30061     30064     30063     30061     30064
     30061     30064     30065     30061     30064     30066     30061     30064     30067
     30065     30064     30066     30065     30064     30067     30066     30064     30067
     30064     30067     30068     30064     30067     30069     30064     30067     30070
     30068     30067     30069     30068     30067     30070     30069     30067     30070
     30067     30070     30071     30067     30070     30072     30067     30070     30073
     30071     30070     30072     30071     30070     30073     30072     30070     30073
     30070     30073     30074     30070     30073     30075     30070     30073     30076
     30074     30073     30075     30074     30073     30076     30075     30073     30076
     30073     30076     30077     30073     30076     30078     30073     30076     30079
     30077     30076     30078     30077     30076     30079     30078     30076     30079
     30076     30079     30080     30076     30079     30081     30080     30079     30081
     30079     30081     30082     30079     30081     30083     30082     30081     30083
     30081     30083     30084     30081     30083     30085     30081     30083     30086
     30084     30083     30085     30084     30083     30086     30085     30083     30086
     30083     30086     30087     30083     30086     30088     30083     30086     30089
     30087     30086     30088     30087     30086     30089     30088     30086     30089
     30086     30089     30090     30086     30089     30091     30086     30089     30092
     30090     30089     30091     30090     30089     30092     30091     30089     30092
     30089     30092     30093     30089     30092     30094     30089     30092     30095
     30093     30092     30094     30093     30092     30095     30094     30092     30095
     30092     30095     30096     30092     30095     30097     30092     30095     30098
     30096     30095     30097     30096     30095     30098     30097     30095     30098
     30095     30098     30099     30095     30098     30100     30095     30098     30101
     30099     30098     30100     30099     30098     30101     30100     30098     30101
     30098     30101     30102     30098     30101     30103     30098     30101     30104
     30102     30101     30103     30102     30101     30104     30103     30101     30104
     30101     30104     30105     30101     30104     30106     30101     30104     30107
     30105     30104     30106     30105     30104     30107     30106     30104     30107
     30058     30108     30109     30058     30108     30110     30058     30108     30111
     30109     30108     30110     30109     30108     30111     30110     30108     30111
     30108     30111     30112     30108     30111     30113     30108     30111     30114
     30112     30111     30113     30112     30111     30114     30113     30111     30114
     30111     30114     30115     30111     30114     30116     30111     30114     30117
     30115     30114     30116     30115     30114     30117     30116     30114     30117
     30114     30117     30118     30114     30117     30119     30114     30117     30120
     30118     30117     30119     30118     30117     30120     30119     30117     30120
     30117     30120     30121     30117     30120     30122     30117     30120     30123
     30121     30120     30122     30121     30120     30123     30122     30120     30123
     30120     30123     30124     30120     30123     30125     30120     30123     30126
     30124     30123     30125     30124     30123     30126     30125     30123     30126
     30123     30126     30127     30123     30126     30128     30123     30126     30129
     30127     30126     30128     30127     30126     30129     30128     30126     30129
     30126     30129     30130     30126     30129     30131     30126     30129     30132
     30130     30129     30131     30130     30129     30132     30131     30129     30132
     30129     30132     30133     30129     30132     30134     30129     30132     30135
     30133     30132     30134     30133     30132     30135     30134     30132     30135
     30132     30135     30136     30132     30135     30137     30132     30135     30138
     30136     30135     30137     30136     30135     30138     30137     30135     30138
     30135     30138     30139     30135     30138     30140     30135     30138     30141
     30139     30138     30140     30139     30138     30141     30140     30138     30141
     30138     30141     30142     30138     30141     30143     30138     30141     30144
     30142     30141     30143     30142     30141     30144     30143     30141     30144
     30141     30144     30145     30141     30144     30146     30141     30144     30147
     30145     30144     30146     30145     30144     30147     30146     30144     30147
     30144     30147     30148     30144     30147     30149     30144     30147     30150
     30148     30147     30149     30148     30147     30150     30149     30147     30150
     30152     30151     30155     30152     30151     30159     30152     30151     30163
     30155     30151     30159     30155     30151     30163     30159     30151     30163
     30151     30152     30153     30151     30152     30154     30151     30152     30167
     30153     30152     30154     30153     30152     30167     30154     30152     30167
     30151     30155     30156     30151     30155     30157     30151     30155     30158
     30156     30155     30157     30156     30155     30158     30157     30155     30158
     30151     30159     30160     30151     30159     30161     30151     30159     30162
     30160     30159     30161     30160     30159     30162     30161     30159     30162
     30151     30163     30164     30151     30163     30165     30151     30163     30166
     30164     30163     30165     30164     30163     30166     30165     30163     30166
     30152     30167     30168     30152     30167     30169     30152     30167     30173
     30168     30167     30169     30168     30167     30173     30169     30167     30173
     30171     30170     30172     30171     30170     30173     30171     30170     30174
     30172     30170     30173     30172     30170     30174     30173     30170     30174
     30167     30173     30170     30170     30174     30175     30174     30175     30176
     30174     30175     30177     30174     30175     30178     30176     30175     30177
     30176     30175     30178     30177     30175     30178     30175     30178     30179
     30175     30178     30180     30175     30178     30186     30179     30178     30180
     30179     30178     30186     30180     30178     30186     30178     30180     30181
     30180     30181     30182     30180     30181     30183     30182     30181     30183
     30181     30183     30184     30181     30183     30185     30181     30183     30195
     30184     30183     30185     30184     30183     30195     30185     30183     30195
     30178     30186     30187     30178     30186     30188     30178     30186     30189
     30187     30186     30188     30187     30186     30189     30188     30186     30189
     30186     30189     30190     30189     30190     30191     30189     30190     30192
     30191     30190     30192     30190     30192     30193     30190     30192     30194
     30190     30192     30242     30193     30192     30194     30193     30192     30242
     30194     30192     30242     30183     30195     30196     30183     30195     30197
     30183     30195     30198     30196     30195     30197     30196     30195     30198
     30197     30195     30198     30195     30198     30199     30195     30198     30200
     30195     30198     30201     30199     30198     30200     30199     30198     30201
     30200     30198     30201     30198     30201     30202     30198     30201     30203
     30198     30201     30204     30202     30201     30203     30202     30201     30204
     30203     30201     30204     30201     30204     30205     30201     30204     30206
     30201     30204     30207     30205     30204     30206     30205     30204     30207
     30206     30204     30207     30204     30207     30208     30204     30207     30209
     30204     30207     30210     30208     30207     30209     30208     30207     30210
     30209     30207     30210     30207     30210     30211     30207     30210     30212
     30207     30210     30213     30211     30210     30212     30211     30210     30213
     30212     30210     30213     30210     30213     30214     30210     30213     30215
     30214     30213     30215     30213     30215     30216     30213     30215     30217
     30216     30215     30217     30215     30217     30218     30215     30217     30219
     30215     30217     30220     30218     30217     30219     30218     30217     30220
     30219     30217     30220     30217     30220     30221     30217     30220     30222
     30217     30220     30223     30221     30220     30222     30221     30220     30223
     30222     30220     30223     30220     30223     30224     30220     30223     30225
     30220     30223     30226     30224     30223     30225     30224     30223     30226
     30225     30223     30226     30223     30226     30227     30223     30226     30228
     30223     30226     30229     30227     30226     30228     30227     30226     30229
     30228     30226     30229     30226     30229     30230     30226     30229     30231
     30226     30229     30232     30230     30229     30231     30230     30229     30232
     30231     30229     30232     30229     30232     30233     30229     30232     30234
     30229     30232     30235     30233     30232     30234     30233     30232     30235
     30234     30232     30235     30232     30235     30236     30232     30235     30237
     30232     30235     30238     30236     30235     30237     30236     30235     30238
     30237     30235     30238     30235     30238     30239     30235     30238     30240
     30235     30238     30241     30239     30238     30240     30239     30238     30241
     30240     30238     30241     30192     30242     30243     30192     30242     30244
     30192     30242     30245     30243     30242     30244     30243     30242     30245
     30244     30242     30245     30242     30245     30246     30242     30245     30247
     30242     30245     30248     30246     30245     30247     30246     30245     30248
     30247     30245     30248     30245     30248     30249     30245     30248     30250
     30245     30248     30251     30249     30248     30250     30249     30248     30251
     30250     30248     30251     30248     30251     30252     30248     30251     30253
     30248     30251     30254     30252     30251     30253     30252     30251     30254
     30253     30251     30254     30251     30254     30255     30251     30254     30256
     30251     30254     30257     30255     30254     30256     30255     30254     30257
     30256     30254     30257     30254     30257     30258     30254     30257     30259
     30254     30257     30260     30258     30257     30259     30258     30257     30260
     30259     30257     30260     30257     30260     30261     30257     30260     30262
     30257     30260     30263     30261     30260     30262     30261     30260     30263
     30262     30260     30263     30260     30263     30264     30260     30263     30265
     30260     30263     30266     30264     30263     30265     30264     30263     30266
     30265     30263     30266     30263     30266     30267     30263     30266     30268
     30263     30266     30269     30267     30266     30268     30267     30266     30269
     30268     30266     30269     30266     30269     30270     30266     30269     30271
     30266     30269     30272     30270     30269     30271     30270     30269     30272
     30271     30269     30272     30269     30272     30273     30269     30272     30274
     30269     30272     30275     30273     30272     30274     30273     30272     30275
     30274     30272     30275     30272     30275     30276     30272     30275     30277
     30272     30275     30278     30276     30275     30277     30276     30275     30278
     30277     30275     30278     30275     30278     30279     30275     30278     30280
     30275     30278     30281     30279     30278     30280     30279     30278     30281
     30280     30278     30281     30278     30281     30282     30278     30281     30283
     30278     30281     30284     30282     30281     30283     30282     30281     30284
     30283     30281     30284     30286     30285     30289     30286     30285     30293
     30286     30285     30297     30289     30285     30293     30289     30285     30297
     30293     30285     30297     30285     30286     30287     30285     30286     30288
     30285     30286     30301     30287     30286     30288     30287     30286     30301
     30288     30286     30301     30285     30289     30290     30285     30289     30291
     30285     30289     30292     30290     30289     30291     30290     30289     30292
     30291     30289     30292     30285     30293     30294     30285     30293     30295
     30285     30293     30296     30294     30293     30295     30294     30293     30296
     30295     30293     30296     30285     30297     30298     30285     30297     30299
     30285     30297     30300     30298     30297     30299     30298     30297     30300
     30299     30297     30300     30286     30301     30302     30286     30301     30303
     30286     30301     30307     30302     30301     30303     30302     30301     30307
     30303     30301     30307     30305     30304     30306     30305     30304     30307
     30305     30304     30308     30306     30304     30307     30306     30304     30308
     30307     30304     30308     30301     30307     30304     30304     30308     30309
     30308     30309     30310     30308     30309     30311     30308     30309     30312
     30310     30309     30311     30310     30309     30312     30311     30309     30312
     30309     30312     30313     30309     30312     30314     30309     30312     30320
     30313     30312     30314     30313     30312     30320     30314     30312     30320
     30312     30314     30315     30314     30315     30316     30314     30315     30317
     30316     30315     30317     30315     30317     30318     30315     30317     30319
     30315     30317     30329     30318     30317     30319     30318     30317     30329
     30319     30317     30329     30312     30320     30321     30312     30320     30322
     30312     30320     30323     30321     30320     30322     30321     30320     30323
     30322     30320     30323     30320     30323     30324     30323     30324     30325
     30323     30324     30326     30325     30324     30326     30324     30326     30327
     30324     30326     30328     30324     30326     30376     30327     30326     30328
     30327     30326     30376     30328     30326     30376     30317     30329     30330
     30317     30329     30331     30317     30329     30332     30330     30329     30331
     30330     30329     30332     30331     30329     30332     30329     30332     30333
     30329     30332     30334     30329     30332     30335     30333     30332     30334
     30333     30332     30335     30334     30332     30335     30332     30335     30336
     30332     30335     30337     30332     30335     30338     30336     30335     30337
     30336     30335     30338     30337     30335     30338     30335     30338     30339
     30335     30338     30340     30335     30338     30341     30339     30338     30340
     30339     30338     30341     30340     30338     30341     30338     30341     30342
     30338     30341     30343     30338     30341     30344     30342     30341     30343
     30342     30341     30344     30343     30341     30344     30341     30344     30345
     30341     30344     30346     30341     30344     30347     30345     30344     30346
     30345     30344     30347     30346     30344     30347     30344     30347     30348
     30344     30347     30349     30348     30347     30349     30347     30349     30350
     30347     30349     30351     30350     30349     30351     30349     30351     30352
     30349     30351     30353     30349     30351     30354     30352     30351     30353
     30352     30351     30354     30353     30351     30354     30351     30354     30355
     30351     30354     30356     30351     30354     30357     30355     30354     30356
     30355     30354     30357     30356     30354     30357     30354     30357     30358
     30354     30357     30359     30354     30357     30360     30358     30357     30359
     30358     30357     30360     30359     30357     30360     30357     30360     30361
     30357     30360     30362     30357     30360     30363     30361     30360     30362
     30361     30360     30363     30362     30360     30363     30360     30363     30364
     30360     30363     30365     30360     30363     30366     30364     30363     30365
     30364     30363     30366     30365     30363     30366     30363     30366     30367
     30363     30366     30368     30363     30366     30369     30367     30366     30368
     30367     30366     30369     30368     30366     30369     30366     30369     30370
     30366     30369     30371     30366     30369     30372     30370     30369     30371
     30370     30369     30372     30371     30369     30372     30369     30372     30373
     30369     30372     30374     30369     30372     30375     30373     30372     30374
     30373     30372     30375     30374     30372     30375     30326     30376     30377
     30326     30376     30378     30326     30376     30379     30377     30376     30378
     30377     30376     30379     30378     30376     30379     30376     30379     30380
     30376     30379     30381     30376     30379     30382     30380     30379     30381
     30380     30379     30382     30381     30379     30382     30379     30382     30383
     30379     30382     30384     30379     30382     30385     30383     30382     30384
     30383     30382     30385     30384     30382     30385     30382     30385     30386
     30382     30385     30387     30382     30385     30388     30386     30385     30387
     30386     30385     30388     30387     30385     30388     30385     30388     30389
     30385     30388     30390     30385     30388     30391     30389     30388     30390
     30389     30388     30391     30390     30388     30391     30388     30391     30392
     30388     30391     30393     30388     30391     30394     30392     30391     30393
     30392     30391     30394     30393     30391     30394     30391     30394     30395
     30391     30394     30396     30391     30394     30397     30395     30394     30396
     30395     30394     30397     30396     30394     30397     30394     30397     30398
     30394     30397     30399     30394     30397     30400     30398     30397     30399
     30398     30397     30400     30399     30397     30400     30397     30400     30401
     30397     30400     30402     30397     30400     30403     30401     30400     30402
     30401     30400     30403     30402     30400     30403     30400     30403     30404
     30400     30403     30405     30400     30403     30406     30404     30403     30405
     30404     30403     30406     30405     30403     30406     30403     30406     30407
     30403     30406     30408     30403     30406     30409     30407     30406     30408
     30407     30406     30409     30408     30406     30409     30406     30409     30410
     30406     30409     30411     30406     30409     30412     30410     30409     30411
     30410     30409     30412     30411     30409     30412     30409     30412     30413
     30409     30412     30414     30409     30412     30415     30413     30412     30414
     30413     30412     30415     30414     30412     30415     30412     30415     30416
     30412     30415     30417     30412     30415     30418     30416     30415     30417
     30416     30415     30418     30417     30415     30418     30420     30419     30423
     30420     30419     30427     30420     30419     30431     30423     30419     30427
     30423     30419     30431     30427     30419     30431     30419     30420     30421
     30419     30420     30422     30419     30420     30435     30421     30420     30422
     30421     30420     30435     30422     30420     30435     30419     30423     30424
     30419     30423     30425     30419     30423     30426     30424     30423     30425
     30424     30423     30426     30425     30423     30426     30419     30427     30428
     30419     30427     30429     30419     30427     30430     30428     30427     30429
     30428     30427     30430     30429     30427     30430     30419     30431     30432
     30419     30431     30433     30419     30431     30434     30432     30431     30433
     30432     30431     30434     30433     30431     30434     30420     30435     30436
     30420     30435     30437     30420     30435     30441     30436     30435     30437
     30436     30435     30441     30437     30435     30441     30439     30438     30440
     30439     30438     30441     30439     30438     30442     30440     30438     30441
     30440     30438     30442     30441     30438     30442     30435     30441     30438
     30438     30442     30443     30442     30443     30444     30442     30443     30445
     30442     30443     30446     30444     30443     30445     30444     30443     30446
     30445     30443     30446     30443     30446     30447     30443     30446     30448
     30443     30446     30454     30447     30446     30448     30447     30446     30454
     30448     30446     30454     30446     30448     30449     30448     30449     30450
     30448     30449     30451     30450     30449     30451     30449     30451     30452
     30449     30451     30453     30449     30451     30463     30452     30451     30453
     30452     30451     30463     30453     30451     30463     30446     30454     30455
     30446     30454     30456     30446     30454     30457     30455     30454     30456
     30455     30454     30457     30456     30454     30457     30454     30457     30458
     30457     30458     30459     30457     30458     30460     30459     30458     30460
     30458     30460     30461     30458     30460     30462     30458     30460     30510
     30461     30460     30462     30461     30460     30510     30462     30460     30510
     30451     30463     30464     30451     30463     30465     30451     30463     30466
     30464     30463     30465     30464     30463     30466     30465     30463     30466
     30463     30466     30467     30463     30466     30468     30463     30466     30469
     30467     30466     30468     30467     30466     30469     30468     30466     30469
     30466     30469     30470     30466     30469     30471     30466     30469     30472
     30470     30469     30471     30470     30469     30472     30471     30469     30472
     30469     30472     30473     30469     30472     30474     30469     30472     30475
     30473     30472     30474     30473     30472     30475     30474     30472     30475
     30472     30475     30476     30472     30475     30477     30472     30475     30478
     30476     30475     30477     30476     30475     30478     30477     30475     30478
     30475     30478     30479     30475     30478     30480     30475     30478     30481
     30479     30478     30480     30479     30478     30481     30480     30478     30481
     30478     30481     30482     30478     30481     30483     30482     30481     30483
     30481     30483     30484     30481     30483     30485     30484     30483     30485
     30483     30485     30486     30483     30485     30487     30483     30485     30488
     30486     30485     30487     30486     30485     30488     30487     30485     30488
     30485     30488     30489     30485     30488     30490     30485     30488     30491
     30489     30488     30490     30489     30488     30491     30490     30488     30491
     30488     30491     30492     30488     30491     30493     30488     30491     30494
     30492     30491     30493     30492     30491     30494     30493     30491     30494
     30491     30494     30495     30491     30494     30496     30491     30494     30497
     30495     30494     30496     30495     30494     30497     30496     30494     30497
     30494     30497     30498     30494     30497     30499     30494     30497     30500
     30498     30497     30499     30498     30497     30500     30499     30497     30500
     30497     30500     30501     30497     30500     30502     30497     30500     30503
     30501     30500     30502     30501     30500     30503     30502     30500     30503
     30500     30503     30504     30500     30503     30505     30500     30503     30506
     30504     30503     30505     30504     30503     30506     30505     30503     30506
     30503     30506     30507     30503     30506     30508     30503     30506     30509
     30507     30506     30508     30507     30506     30509     30508     30506     30509
     30460     30510     30511     30460     30510     30512     30460     30510     30513
     30511     30510     30512     30511     30510     30513     30512     30510     30513
     30510     30513     30514     30510     30513     30515     30510     30513     30516
     30514     30513     30515     30514     30513     30516     30515     30513     30516
     30513     30516     30517     30513     30516     30518     30513     30516     30519
     30517     30516     30518     30517     30516     30519     30518     30516     30519
     30516     30519     30520     30516     30519     30521     30516     30519     30522
     30520     30519     30521     30520     30519     30522     30521     30519     30522
     30519     30522     30523     30519     30522     30524     30519     30522     30525
     30523     30522     30524     30523     30522     30525     30524     30522     30525
     30522     30525     30526     30522     30525     30527     30522     30525     30528
     30526     30525     30527     30526     30525     30528     30527     30525     30528
     30525     30528     30529     30525     30528     30530     30525     30528     30531
     30529     30528     30530     30529     30528     30531     30530     30528     30531
     30528     30531     30532     30528     30531     30533     30528     30531     30534
     30532     30531     30533     30532     30531     30534     30533     30531     30534
     30531     30534     30535     30531     30534     30536     30531     30534     30537
     30535     30534     30536     30535     30534     30537     30536     30534     30537
     30534     30537     30538     30534     30537     30539     30534     30537     30540
     30538     30537     30539     30538     30537     30540     30539     30537     30540
     30537     30540     30541     30537     30540     30542     30537     30540     30543
     30541     30540     30542     30541     30540     30543     30542     30540     30543
     30540     30543     30544     30540     30543     30545     30540     30543     30546
     30544     30543     30545     30544     30543     30546     30545     30543     30546
     30543     30546     30547     30543     30546     30548     30543     30546     30549
     30547     30546     30548     30547     30546     30549     30548     30546     30549
     30546     30549     30550     30546     30549     30551     30546     30549     30552
     30550     30549     30551     30550     30549     30552     30551     30549     30552
     30554     30553     30557     30554     30553     30561     30554     30553     30565
     30557     30553     30561     30557     30553     30565     30561     30553     30565
     30553     30554     30555     30553     30554     30556     30553     30554     30569
     30555     30554     30556     30555     30554     30569     30556     30554     30569
     30553     30557     30558     30553     30557     30559     30553     30557     30560
     30558     30557     30559     30558     30557     30560     30559     30557     30560
     30553     30561     30562     30553     30561     30563     30553     30561     30564
     30562     30561     30563     30562     30561     30564     30563     30561     30564
     30553     30565     30566     30553     30565     30567     30553     30565     30568
     30566     30565     30567     30566     30565     30568     30567     30565     30568
     30554     30569     30570     30554     30569     30571     30554     30569     30575
     30570     30569     30571     30570     30569     30575     30571     30569     30575
     30573     30572     30574     30573     30572     30575     30573     30572     30576
     30574     30572     30575     30574     30572     30576     30575     30572     30576
     30569     30575     30572     30572     30576     30577     30576     30577     30578
     30576     30577     30579     30576     30577     30580     30578     30577     30579
     30578     30577     30580     30579     30577     30580     30577     30580     30581
     30577     30580     30582     30577     30580     30588     30581     30580     30582
     30581     30580     30588     30582     30580     30588     30580     30582     30583
     30582     30583     30584     30582     30583     30585     30584     30583     30585
     30583     30585     30586     30583     30585     30587     30583     30585     30597
     30586     30585     30587     30586     30585     30597     30587     30585     30597
     30580     30588     30589     30580     30588     30590     30580     30588     30591
     30589     30588     30590     30589     30588     30591     30590     30588     30591
     30588     30591     30592     30591     30592     30593     30591     30592     30594
     30593     30592     30594     30592     30594     30595     30592     30594     30596
     30592     30594     30644     30595     30594     30596     30595     30594     30644
     30596     30594     30644     30585     30597     30598     30585     30597     30599
     30585     30597     30600     30598     30597     30599     30598     30597     30600
     30599     30597     30600     30597     30600     30601     30597     30600     30602
     30597     30600     30603     30601     30600     30602     30601     30600     30603
     30602     30600     30603     30600     30603     30604     30600     30603     30605
     30600     30603     30606     30604     30603     30605     30604     30603     30606
     30605     30603     30606     30603     30606     30607     30603     30606     30608
     30603     30606     30609     30607     30606     30608     30607     30606     30609
     30608     30606     30609     30606     30609     30610     30606     30609     30611
     30606     30609     30612     30610     30609     30611     30610     30609     30612
     30611     30609     30612     30609     30612     30613     30609     30612     30614
     30609     30612     30615     30613     30612     30614     30613     30612     30615
     30614     30612     30615     30612     30615     30616     30612     30615     30617
     30616     30615     30617     30615     30617     30618     30615     30617     30619
     30618     30617     30619     30617     30619     30620     30617     30619     30621
     30617     30619     30622     30620     30619     30621     30620     30619     30622
     30621     30619     30622     30619     30622     30623     30619     30622     30624
     30619     30622     30625     30623     30622     30624     30623     30622     30625
     30624     30622     30625     30622     30625     30626     30622     30625     30627
     30622     30625     30628     30626     30625     30627     30626     30625     30628
     30627     30625     30628     30625     30628     30629     30625     30628     30630
     30625     30628     30631     30629     30628     30630     30629     30628     30631
     30630     30628     30631     30628     30631     30632     30628     30631     30633
     30628     30631     30634     30632     30631     30633     30632     30631     30634
     30633     30631     30634     30631     30634     30635     30631     30634     30636
     30631     30634     30637     30635     30634     30636     30635     30634     30637
     30636     30634     30637     30634     30637     30638     30634     30637     30639
     30634     30637     30640     30638     30637     30639     30638     30637     30640
     30639     30637     30640     30637     30640     30641     30637     30640     30642
     30637     30640     30643     30641     30640     30642     30641     30640     30643
     30642     30640     30643     30594     30644     30645     30594     30644     30646
     30594     30644     30647     30645     30644     30646     30645     30644     30647
     30646     30644     30647     30644     30647     30648     30644     30647     30649
     30644     30647     30650     30648     30647     30649     30648     30647     30650
     30649     30647     30650     30647     30650     30651     30647     30650     30652
     30647     30650     30653     30651     30650     30652     30651     30650     30653
     30652     30650     30653     30650     30653     30654     30650     30653     30655
     30650     30653     30656     30654     30653     30655     30654     30653     30656
     30655     30653     30656     30653     30656     30657     30653     30656     30658
     30653     30656     30659     30657     30656     30658     30657     30656     30659
     30658     30656     30659     30656     30659     30660     30656     30659     30661
     30656     30659     30662     30660     30659     30661     30660     30659     30662
     30661     30659     30662     30659     30662     30663     30659     30662     30664
     30659     30662     30665     30663     30662     30664     30663     30662     30665
     30664     30662     30665     30662     30665     30666     30662     30665     30667
     30662     30665     30668     30666     30665     30667     30666     30665     30668
     30667     30665     30668     30665     30668     30669     30665     30668     30670
     30665     30668     30671     30669     30668     30670     30669     30668     30671
     30670     30668     30671     30668     30671     30672     30668     30671     30673
     30668     30671     30674     30672     30671     30673     30672     30671     30674
     30673     30671     30674     30671     30674     30675     30671     30674     30676
     30671     30674     30677     30675     30674     30676     30675     30674     30677
     30676     30674     30677     30674     30677     30678     30674     30677     30679
     30674     30677     30680     30678     30677     30679     30678     30677     30680
     30679     30677     30680     30677     30680     30681     30677     30680     30682
     30677     30680     30683     30681     30680     30682     30681     30680     30683
     30682     30680     30683     30680     30683     30684     30680     30683     30685
     30680     30683     30686     30684     30683     30685     30684     30683     30686
     30685     30683     30686     30688     30687     30691     30688     30687     30695
     30688     30687     30699     30691     30687     30695     30691     30687     30699
     30695     30687     30699     30687     30688     30689     30687     30688     30690
     30687     30688     30703     30689     30688     30690     30689     30688     30703
     30690     30688     30703     30687     30691     30692     30687     30691     30693
     30687     30691     30694     30692     30691     30693     30692     30691     30694
     30693     30691     30694     30687     30695     30696     30687     30695     30697
     30687     30695     30698     30696     30695     30697     30696     30695     30698
     30697     30695     30698     30687     30699     30700     30687     30699     30701
     30687     30699     30702     30700     30699     30701     30700     30699     30702
     30701     30699     30702     30688     30703     30704     30688     30703     30705
     30688     30703     30709     30704     30703     30705     30704     30703     30709
     30705     30703     30709     30707     30706     30708     30707     30706     30709
     30707     30706     30710     30708     30706     30709     30708     30706     30710
     30709     30706     30710     30703     30709     30706     30706     30710     30711
     30710     30711     30712     30710     30711     30713     30710     30711     30714
     30712     30711     30713     30712     30711     30714     30713     30711     30714
     30711     30714     30715     30711     30714     30716     30711     30714     30722
     30715     30714     30716     30715     30714     30722     30716     30714     30722
     30714     30716     30717     30716     30717     30718     30716     30717     30719
     30718     30717     30719     30717     30719     30720     30717     30719     30721
     30717     30719     30731     30720     30719     30721     30720     30719     30731
     30721     30719     30731     30714     30722     30723     30714     30722     30724
     30714     30722     30725     30723     30722     30724     30723     30722     30725
     30724     30722     30725     30722     30725     30726     30725     30726     30727
     30725     30726     30728     30727     30726     30728     30726     30728     30729
     30726     30728     30730     30726     30728     30778     30729     30728     30730
     30729     30728     30778     30730     30728     30778     30719     30731     30732
     30719     30731     30733     30719     30731     30734     30732     30731     30733
     30732     30731     30734     30733     30731     30734     30731     30734     30735
     30731     30734     30736     30731     30734     30737     30735     30734     30736
     30735     30734     30737     30736     30734     30737     30734     30737     30738
     30734     30737     30739     30734     30737     30740     30738     30737     30739
     30738     30737     30740     30739     30737     30740     30737     30740     30741
     30737     30740     30742     30737     30740     30743     30741     30740     30742
     30741     30740     30743     30742     30740     30743     30740     30743     30744
     30740     30743     30745     30740     30743     30746     30744     30743     30745
     30744     30743     30746     30745     30743     30746     30743     30746     30747
     30743     30746     30748     30743     30746     30749     30747     30746     30748
     30747     30746     30749     30748     30746     30749     30746     30749     30750
     30746     30749     30751     30750     30749     30751     30749     30751     30752
     30749     30751     30753     30752     30751     30753     30751     30753     30754
     30751     30753     30755     30751     30753     30756     30754     30753     30755
     30754     30753     30756     30755     30753     30756     30753     30756     30757
     30753     30756     30758     30753     30756     30759     30757     30756     30758
     30757     30756     30759     30758     30756     30759     30756     30759     30760
     30756     30759     30761     30756     30759     30762     30760     30759     30761
     30760     30759     30762     30761     30759     30762     30759     30762     30763
     30759     30762     30764     30759     30762     30765     30763     30762     30764
     30763     30762     30765     30764     30762     30765     30762     30765     30766
     30762     30765     30767     30762     30765     30768     30766     30765     30767
     30766     30765     30768     30767     30765     30768     30765     30768     30769
     30765     30768     30770     30765     30768     30771     30769     30768     30770
     30769     30768     30771     30770     30768     30771     30768     30771     30772
     30768     30771     30773     30768     30771     30774     30772     30771     30773
     30772     30771     30774     30773     30771     30774     30771     30774     30775
     30771     30774     30776     30771     30774     30777     30775     30774     30776
     30775     30774     30777     30776     30774     30777     30728     30778     30779
     30728     30778     30780     30728     30778     30781     30779     30778     30780
     30779     30778     30781     30780     30778     30781     30778     30781     30782
     30778     30781     30783     30778     30781     30784     30782     30781     30783
     30782     30781     30784     30783     30781     30784     30781     30784     30785
     30781     30784     30786     30781     30784     30787     30785     30784     30786
     30785     30784     30787     30786     30784     30787     30784     30787     30788
     30784     30787     30789     30784     30787     30790     30788     30787     30789
     30788     30787     30790     30789     30787     30790     30787     30790     30791
     30787     30790     30792     30787     30790     30793     30791     30790     30792
     30791     30790     30793     30792     30790     30793     30790     30793     30794
     30790     30793     30795     30790     30793     30796     30794     30793     30795
     30794     30793     30796     30795     30793     30796     30793     30796     30797
     30793     30796     30798     30793     30796     30799     30797     30796     30798
     30797     30796     30799     30798     30796     30799     30796     30799     30800
     30796     30799     30801     30796     30799     30802     30800     30799     30801
     30800     30799     30802     30801     30799     30802     30799     30802     30803
     30799     30802     30804     30799     30802     30805     30803     30802     30804
     30803     30802     30805     30804     30802     30805     30802     30805     30806
     30802     30805     30807     30802     30805     30808     30806     30805     30807
     30806     30805     30808     30807     30805     30808     30805     30808     30809
     30805     30808     30810     30805     30808     30811     30809     30808     30810
     30809     30808     30811     30810     30808     30811     30808     30811     30812
     30808     30811     30813     30808     30811     30814     30812     30811     30813
     30812     30811     30814     30813     30811     30814     30811     30814     30815
     30811     30814     30816     30811     30814     30817     30815     30814     30816
     30815     30814     30817     30816     30814     30817     30814     30817     30818
     30814     30817     30819     30814     30817     30820     30818     30817     30819
     30818     30817     30820     30819     30817     30820     30822     30821     30825
     30822     30821     30829     30822     30821     30833     30825     30821     30829
     30825     30821     30833     30829     30821     30833     30821     30822     30823
     30821     30822     30824     30821     30822     30837     30823     30822     30824
     30823     30822     30837     30824     30822     30837     30821     30825     30826
     30821     30825     30827     30821     30825     30828     30826     30825     30827
     30826     30825     30828     30827     30825     30828     30821     30829     30830
     30821     30829     30831     30821     30829     30832     30830     30829     30831
     30830     30829     30832     30831     30829     30832     30821     30833     30834
     30821     30833     30835     30821     30833     30836     30834     30833     30835
     30834     30833     30836     30835     30833     30836     30822     30837     30838
     30822     30837     30839     30822     30837     30843     30838     30837     30839
     30838     30837     30843     30839     30837     30843     30841     30840     30842
     30841     30840     30843     30841     30840     30844     30842     30840     30843
     30842     30840     30844     30843     30840     30844     30837     30843     30840
     30840     30844     30845     30844     30845     30846     30844     30845     30847
     30844     30845     30848     30846     30845     30847     30846     30845     30848
     30847     30845     30848     30845     30848     30849     30845     30848     30850
     30845     30848     30856     30849     30848     30850     30849     30848     30856
     30850     30848     30856     30848     30850     30851     30850     30851     30852
     30850     30851     30853     30852     30851     30853     30851     30853     30854
     30851     30853     30855     30851     30853     30865     30854     30853     30855
     30854     30853     30865     30855     30853     30865     30848     30856     30857
     30848     30856     30858     30848     30856     30859     30857     30856     30858
     30857     30856     30859     30858     30856     30859     30856     30859     30860
     30859     30860     30861     30859     30860     30862     30861     30860     30862
     30860     30862     30863     30860     30862     30864     30860     30862     30912
     30863     30862     30864     30863     30862     30912     30864     30862     30912
     30853     30865     30866     30853     30865     30867     30853     30865     30868
     30866     30865     30867     30866     30865     30868     30867     30865     30868
     30865     30868     30869     30865     30868     30870     30865     30868     30871
     30869     30868     30870     30869     30868     30871     30870     30868     30871
     30868     30871     30872     30868     30871     30873     30868     30871     30874
     30872     30871     30873     30872     30871     30874     30873     30871     30874
     30871     30874     30875     30871     30874     30876     30871     30874     30877
     30875     30874     30876     30875     30874     30877     30876     30874     30877
     30874     30877     30878     30874     30877     30879     30874     30877     30880
     30878     30877     30879     30878     30877     30880     30879     30877     30880
     30877     30880     30881     30877     30880     30882     30877     30880     30883
     30881     30880     30882     30881     30880     30883     30882     30880     30883
     30880     30883     30884     30880     30883     30885     30884     30883     30885
     30883     30885     30886     30883     30885     30887     30886     30885     30887
     30885     30887     30888     30885     30887     30889     30885     30887     30890
     30888     30887     30889     30888     30887     30890     30889     30887     30890
     30887     30890     30891     30887     30890     30892     30887     30890     30893
     30891     30890     30892     30891     30890     30893     30892     30890     30893
     30890     30893     30894     30890     30893     30895     30890     30893     30896
     30894     30893     30895     30894     30893     30896     30895     30893     30896
     30893     30896     30897     30893     30896     30898     30893     30896     30899
     30897     30896     30898     30897     30896     30899     30898     30896     30899
     30896     30899     30900     30896     30899     30901     30896     30899     30902
     30900     30899     30901     30900     30899     30902     30901     30899     30902
     30899     30902     30903     30899     30902     30904     30899     30902     30905
     30903     30902     30904     30903     30902     30905     30904     30902     30905
     30902     30905     30906     30902     30905     30907     30902     30905     30908
     30906     30905     30907     30906     30905     30908     30907     30905     30908
     30905     30908     30909     30905     30908     30910     30905     30908     30911
     30909     30908     30910     30909     30908     30911     30910     30908     30911
     30862     30912     30913     30862     30912     30914     30862     30912     30915
     30913     30912     30914     30913     30912     30915     30914     30912     30915
     30912     30915     30916     30912     30915     30917     30912     30915     30918
     30916     30915     30917     30916     30915     30918     30917     30915     30918
     30915     30918     30919     30915     30918     30920     30915     30918     30921
     30919     30918     30920     30919     30918     30921     30920     30918     30921
     30918     30921     30922     30918     30921     30923     30918     30921     30924
     30922     30921     30923     30922     30921     30924     30923     30921     30924
     30921     30924     30925     30921     30924     30926     30921     30924     30927
     30925     30924     30926     30925     30924     30927     30926     30924     30927
     30924     30927     30928     30924     30927     30929     30924     30927     30930
     30928     30927     30929     30928     30927     30930     30929     30927     30930
     30927     30930     30931     30927     30930     30932     30927     30930     30933
     30931     30930     30932     30931     30930     30933     30932     30930     30933
     30930     30933     30934     30930     30933     30935     30930     30933     30936
     30934     30933     30935     30934     30933     30936     30935     30933     30936
     30933     30936     30937     30933     30936     30938     30933     30936     30939
     30937     30936     30938     30937     30936     30939     30938     30936     30939
     30936     30939     30940     30936     30939     30941     30936     30939     30942
     30940     30939     30941     30940     30939     30942     30941     30939     30942
     30939     30942     30943     30939     30942     30944     30939     30942     30945
     30943     30942     30944     30943     30942     30945     30944     30942     30945
     30942     30945     30946     30942     30945     30947     30942     30945     30948
     30946     30945     30947     30946     30945     30948     30947     30945     30948
     30945     30948     30949     30945     30948     30950     30945     30948     30951
     30949     30948     30950     30949     30948     30951     30950     30948     30951
     30948     30951     30952     30948     30951     30953     30948     30951     30954
     30952     30951     30953     30952     30951     30954     30953     30951     30954
     30956     30955     30959     30956     30955     30963     30956     30955     30967
     30959     30955     30963     30959     30955     30967     30963     30955     30967
     30955     30956     30957     30955     30956     30958     30955     30956     30971
     30957     30956     30958     30957     30956     30971     30958     30956     30971
     30955     30959     30960     30955     30959     30961     30955     30959     30962
     30960     30959     30961     30960     30959     30962     30961     30959     30962
     30955     30963     30964     30955     30963     30965     30955     30963     30966
     30964     30963     30965     30964     30963     30966     30965     30963     30966
     30955     30967     30968     30955     30967     30969     30955     30967     30970
     30968     30967     30969     30968     30967     30970     30969     30967     30970
     30956     30971     30972     30956     30971     30973     30956     30971     30977
     30972     30971     30973     30972     30971     30977     30973     30971     30977
     30975     30974     30976     30975     30974     30977     30975     30974     30978
     30976     30974     30977     30976     30974     30978     30977     30974     30978
     30971     30977     30974     30974     30978     30979     30978     30979     30980
     30978     30979     30981     30978     30979     30982     30980     30979     30981
     30980     30979     30982     30981     30979     30982     30979     30982     30983
     30979     30982     30984     30979     30982     30990     30983     30982     30984
     30983     30982     30990     30984     30982     30990     30982     30984     30985
     30984     30985     30986     30984     30985     30987     30986     30985     30987
     30985     30987     30988     30985     30987     30989     30985     30987     30999
     30988     30987     30989     30988     30987     30999     30989     30987     30999
     30982     30990     30991     30982     30990     30992     30982     30990     30993
     30991     30990     30992     30991     30990     30993     30992     30990     30993
     30990     30993     30994     30993     30994     30995     30993     30994     30996
     30995     30994     30996     30994     30996     30997     30994     30996     30998
     30994     30996     31046     30997     30996     30998     30997     30996     31046
     30998     30996     31046     30987     30999     31000     30987     30999     31001
     30987     30999     31002     31000     30999     31001     31000     30999     31002
     31001     30999     31002     30999     31002     31003     30999     31002     31004
     30999     31002     31005     31003     31002     31004     31003     31002     31005
     31004     31002     31005     31002     31005     31006     31002     31005     31007
     31002     31005     31008     31006     31005     31007     31006     31005     31008
     31007     31005     31008     31005     31008     31009     31005     31008     31010
     31005     31008     31011     31009     31008     31010     31009     31008     31011
     31010     31008     31011     31008     31011     31012     31008     31011     31013
     31008     31011     31014     31012     31011     31013     31012     31011     31014
     31013     31011     31014     31011     31014     31015     31011     31014     31016
     31011     31014     31017     31015     31014     31016     31015     31014     31017
     31016     31014     31017     31014     31017     31018     31014     31017     31019
     31018     31017     31019     31017     31019     31020     31017     31019     31021
     31020     31019     31021     31019     31021     31022     31019     31021     31023
     31019     31021     31024     31022     31021     31023     31022     31021     31024
     31023     31021     31024     31021     31024     31025     31021     31024     31026
     31021     31024     31027     31025     31024     31026     31025     31024     31027
     31026     31024     31027     31024     31027     31028     31024     31027     31029
     31024     31027     31030     31028     31027     31029     31028     31027     31030
     31029     31027     31030     31027     31030     31031     31027     31030     31032
     31027     31030     31033     31031     31030     31032     31031     31030     31033
     31032     31030     31033     31030     31033     31034     31030     31033     31035
     31030     31033     31036     31034     31033     31035     31034     31033     31036
     31035     31033     31036     31033     31036     31037     31033     31036     31038
     31033     31036     31039     31037     31036     31038     31037     31036     31039
     31038     31036     31039     31036     31039     31040     31036     31039     31041
     31036     31039     31042     31040     31039     31041     31040     31039     31042
     31041     31039     31042     31039     31042     31043     31039     31042     31044
     31039     31042     31045     31043     31042     31044     31043     31042     31045
     31044     31042     31045     30996     31046     31047     30996     31046     31048
     30996     31046     31049     31047     31046     31048     31047     31046     31049
     31048     31046     31049     31046     31049     31050     31046     31049     31051
     31046     31049     31052     31050     31049     31051     31050     31049     31052
     31051     31049     31052     31049     31052     31053     31049     31052     31054
     31049     31052     31055     31053     31052     31054     31053     31052     31055
     31054     31052     31055     31052     31055     31056     31052     31055     31057
     31052     31055     31058     31056     31055     31057     31056     31055     31058
     31057     31055     31058     31055     31058     31059     31055     31058     31060
     31055     31058     31061     31059     31058     31060     31059     31058     31061
     31060     31058     31061     31058     31061     31062     31058     31061     31063
     31058     31061     31064     31062     31061     31063     31062     31061     31064
     31063     31061     31064     31061     31064     31065     31061     31064     31066
     31061     31064     31067     31065     31064     31066     31065     31064     31067
     31066     31064     31067     31064     31067     31068     31064     31067     31069
     31064     31067     31070     31068     31067     31069     31068     31067     31070
     31069     31067     31070     31067     31070     31071     31067     31070     31072
     31067     31070     31073     31071     31070     31072     31071     31070     31073
     31072     31070     31073     31070     31073     31074     31070     31073     31075
     31070     31073     31076     31074     31073     31075     31074     31073     31076
     31075     31073     31076     31073     31076     31077     31073     31076     31078
     31073     31076     31079     31077     31076     31078     31077     31076     31079
     31078     31076     31079     31076     31079     31080     31076     31079     31081
     31076     31079     31082     31080     31079     31081     31080     31079     31082
     31081     31079     31082     31079     31082     31083     31079     31082     31084
     31079     31082     31085     31083     31082     31084     31083     31082     31085
     31084     31082     31085     31082     31085     31086     31082     31085     31087
     31082     31085     31088     31086     31085     31087     31086     31085     31088
     31087     31085     31088     31090     31089     31093     31090     31089     31097
     31090     31089     31101     31093     31089     31097     31093     31089     31101
     31097     31089     31101     31089     31090     31091     31089     31090     31092
     31089     31090     31105     31091     31090     31092     31091     31090     31105
     31092     31090     31105     31089     31093     31094     31089     31093     31095
     31089     31093     31096     31094     31093     31095     31094     31093     31096
     31095     31093     31096     31089     31097     31098     31089     31097     31099
     31089     31097     31100     31098     31097     31099     31098     31097     31100
     31099     31097     31100     31089     31101     31102     31089     31101     31103
     31089     31101     31104     31102     31101     31103     31102     31101     31104
     31103     31101     31104     31090     31105     31106     31090     31105     31107
     31090     31105     31111     31106     31105     31107     31106     31105     31111
     31107     31105     31111     31109     31108     31110     31109     31108     31111
     31109     31108     31112     31110     31108     31111     31110     31108     31112
     31111     31108     31112     31105     31111     31108     31108     31112     31113
     31112     31113     31114     31112     31113     31115     31112     31113     31116
     31114     31113     31115     31114     31113     31116     31115     31113     31116
     31113     31116     31117     31113     31116     31118     31113     31116     31124
     31117     31116     31118     31117     31116     31124     31118     31116     31124
     31116     31118     31119     31118     31119     31120     31118     31119     31121
     31120     31119     31121     31119     31121     31122     31119     31121     31123
     31119     31121     31133     31122     31121     31123     31122     31121     31133
     31123     31121     31133     31116     31124     31125     31116     31124     31126
     31116     31124     31127     31125     31124     31126     31125     31124     31127
     31126     31124     31127     31124     31127     31128     31127     31128     31129
     31127     31128     31130     31129     31128     31130     31128     31130     31131
     31128     31130     31132     31128     31130     31180     31131     31130     31132
     31131     31130     31180     31132     31130     31180     31121     31133     31134
     31121     31133     31135     31121     31133     31136     31134     31133     31135
     31134     31133     31136     31135     31133     31136     31133     31136     31137
     31133     31136     31138     31133     31136     31139     31137     31136     31138
     31137     31136     31139     31138     31136     31139     31136     31139     31140
     31136     31139     31141     31136     31139     31142     31140     31139     31141
     31140     31139     31142     31141     31139     31142     31139     31142     31143
     31139     31142     31144     31139     31142     31145     31143     31142     31144
     31143     31142     31145     31144     31142     31145     31142     31145     31146
     31142     31145     31147     31142     31145     31148     31146     31145     31147
     31146     31145     31148     31147     31145     31148     31145     31148     31149
     31145     31148     31150     31145     31148     31151     31149     31148     31150
     31149     31148     31151     31150     31148     31151     31148     31151     31152
     31148     31151     31153     31152     31151     31153     31151     31153     31154
     31151     31153     31155     31154     31153     31155     31153     31155     31156
     31153     31155     31157     31153     31155     31158     31156     31155     31157
     31156     31155     31158     31157     31155     31158     31155     31158     31159
     31155     31158     31160     31155     31158     31161     31159     31158     31160
     31159     31158     31161     31160     31158     31161     31158     31161     31162
     31158     31161     31163     31158     31161     31164     31162     31161     31163
     31162     31161     31164     31163     31161     31164     31161     31164     31165
     31161     31164     31166     31161     31164     31167     31165     31164     31166
     31165     31164     31167     31166     31164     31167     31164     31167     31168
     31164     31167     31169     31164     31167     31170     31168     31167     31169
     31168     31167     31170     31169     31167     31170     31167     31170     31171
     31167     31170     31172     31167     31170     31173     31171     31170     31172
     31171     31170     31173     31172     31170     31173     31170     31173     31174
     31170     31173     31175     31170     31173     31176     31174     31173     31175
     31174     31173     31176     31175     31173     31176     31173     31176     31177
     31173     31176     31178     31173     31176     31179     31177     31176     31178
     31177     31176     31179     31178     31176     31179     31130     31180     31181
     31130     31180     31182     31130     31180     31183     31181     31180     31182
     31181     31180     31183     31182     31180     31183     31180     31183     31184
     31180     31183     31185     31180     31183     31186     31184     31183     31185
     31184     31183     31186     31185     31183     31186     31183     31186     31187
     31183     31186     31188     31183     31186     31189     31187     31186     31188
     31187     31186     31189     31188     31186     31189     31186     31189     31190
     31186     31189     31191     31186     31189     31192     31190     31189     31191
     31190     31189     31192     31191     31189     31192     31189     31192     31193
     31189     31192     31194     31189     31192     31195     31193     31192     31194
     31193     31192     31195     31194     31192     31195     31192     31195     31196
     31192     31195     31197     31192     31195     31198     31196     31195     31197
     31196     31195     31198     31197     31195     31198     31195     31198     31199
     31195     31198     31200     31195     31198     31201     31199     31198     31200
     31199     31198     31201     31200     31198     31201     31198     31201     31202
     31198     31201     31203     31198     31201     31204     31202     31201     31203
     31202     31201     31204     31203     31201     31204     31201     31204     31205
     31201     31204     31206     31201     31204     31207     31205     31204     31206
     31205     31204     31207     31206     31204     31207     31204     31207     31208
     31204     31207     31209     31204     31207     31210     31208     31207     31209
     31208     31207     31210     31209     31207     31210     31207     31210     31211
     31207     31210     31212     31207     31210     31213     31211     31210     31212
     31211     31210     31213     31212     31210     31213     31210     31213     31214
     31210     31213     31215     31210     31213     31216     31214     31213     31215
     31214     31213     31216     31215     31213     31216     31213     31216     31217
     31213     31216     31218     31213     31216     31219     31217     31216     31218
     31217     31216     31219     31218     31216     31219     31216     31219     31220
     31216     31219     31221     31216     31219     31222     31220     31219     31221
     31220     31219     31222     31221     31219     31222     31224     31223     31227
     31224     31223     31231     31224     31223     31235     31227     31223     31231
     31227     31223     31235     31231     31223     31235     31223     31224     31225
     31223     31224     31226     31223     31224     31239     31225     31224     31226
     31225     31224     31239     31226     31224     31239     31223     31227     31228
     31223     31227     31229     31223     31227     31230     31228     31227     31229
     31228     31227     31230     31229     31227     31230     31223     31231     31232
     31223     31231     31233     31223     31231     31234     31232     31231     31233
     31232     31231     31234     31233     31231     31234     31223     31235     31236
     31223     31235     31237     31223     31235     31238     31236     31235     31237
     31236     31235     31238     31237     31235     31238     31224     31239     31240
     31224     31239     31241     31224     31239     31245     31240     31239     31241
     31240     31239     31245     31241     31239     31245     31243     31242     31244
     31243     31242     31245     31243     31242     31246     31244     31242     31245
     31244     31242     31246     31245     31242     31246     31239     31245     31242
     31242     31246     31247     31246     31247     31248     31246     31247     31249
     31246     31247     31250     31248     31247     31249     31248     31247     31250
     31249     31247     31250     31247     31250     31251     31247     31250     31252
     31247     31250     31258     31251     31250     31252     31251     31250     31258
     31252     31250     31258     31250     31252     31253     31252     31253     31254
     31252     31253     31255     31254     31253     31255     31253     31255     31256
     31253     31255     31257     31253     31255     31267     31256     31255     31257
     31256     31255     31267     31257     31255     31267     31250     31258     31259
     31250     31258     31260     31250     31258     31261     31259     31258     31260
     31259     31258     31261     31260     31258     31261     31258     31261     31262
     31261     31262     31263     31261     31262     31264     31263     31262     31264
     31262     31264     31265     31262     31264     31266     31262     31264     31314
     31265     31264     31266     31265     31264     31314     31266     31264     31314
     31255     31267     31268     31255     31267     31269     31255     31267     31270
     31268     31267     31269     31268     31267     31270     31269     31267     31270
     31267     31270     31271     31267     31270     31272     31267     31270     31273
     31271     31270     31272     31271     31270     31273     31272     31270     31273
     31270     31273     31274     31270     31273     31275     31270     31273     31276
     31274     31273     31275     31274     31273     31276     31275     31273     31276
     31273     31276     31277     31273     31276     31278     31273     31276     31279
     31277     31276     31278     31277     31276     31279     31278     31276     31279
     31276     31279     31280     31276     31279     31281     31276     31279     31282
     31280     31279     31281     31280     31279     31282     31281     31279     31282
     31279     31282     31283     31279     31282     31284     31279     31282     31285
     31283     31282     31284     31283     31282     31285     31284     31282     31285
     31282     31285     31286     31282     31285     31287     31286     31285     31287
     31285     31287     31288     31285     31287     31289     31288     31287     31289
     31287     31289     31290     31287     31289     31291     31287     31289     31292
     31290     31289     31291     31290     31289     31292     31291     31289     31292
     31289     31292     31293     31289     31292     31294     31289     31292     31295
     31293     31292     31294     31293     31292     31295     31294     31292     31295
     31292     31295     31296     31292     31295     31297     31292     31295     31298
     31296     31295     31297     31296     31295     31298     31297     31295     31298
     31295     31298     31299     31295     31298     31300     31295     31298     31301
     31299     31298     31300     31299     31298     31301     31300     31298     31301
     31298     31301     31302     31298     31301     31303     31298     31301     31304
     31302     31301     31303     31302     31301     31304     31303     31301     31304
     31301     31304     31305     31301     31304     31306     31301     31304     31307
     31305     31304     31306     31305     31304     31307     31306     31304     31307
     31304     31307     31308     31304     31307     31309     31304     31307     31310
     31308     31307     31309     31308     31307     31310     31309     31307     31310
     31307     31310     31311     31307     31310     31312     31307     31310     31313
     31311     31310     31312     31311     31310     31313     31312     31310     31313
     31264     31314     31315     31264     31314     31316     31264     31314     31317
     31315     31314     31316     31315     31314     31317     31316     31314     31317
     31314     31317     31318     31314     31317     31319     31314     31317     31320
     31318     31317     31319     31318     31317     31320     31319     31317     31320
     31317     31320     31321     31317     31320     31322     31317     31320     31323
     31321     31320     31322     31321     31320     31323     31322     31320     31323
     31320     31323     31324     31320     31323     31325     31320     31323     31326
     31324     31323     31325     31324     31323     31326     31325     31323     31326
     31323     31326     31327     31323     31326     31328     31323     31326     31329
     31327     31326     31328     31327     31326     31329     31328     31326     31329
     31326     31329     31330     31326     31329     31331     31326     31329     31332
     31330     31329     31331     31330     31329     31332     31331     31329     31332
     31329     31332     31333     31329     31332     31334     31329     31332     31335
     31333     31332     31334     31333     31332     31335     31334     31332     31335
     31332     31335     31336     31332     31335     31337     31332     31335     31338
     31336     31335     31337     31336     31335     31338     31337     31335     31338
     31335     31338     31339     31335     31338     31340     31335     31338     31341
     31339     31338     31340     31339     31338     31341     31340     31338     31341
     31338     31341     31342     31338     31341     31343     31338     31341     31344
     31342     31341     31343     31342     31341     31344     31343     31341     31344
     31341     31344     31345     31341     31344     31346     31341     31344     31347
     31345     31344     31346     31345     31344     31347     31346     31344     31347
     31344     31347     31348     31344     31347     31349     31344     31347     31350
     31348     31347     31349     31348     31347     31350     31349     31347     31350
     31347     31350     31351     31347     31350     31352     31347     31350     31353
     31351     31350     31352     31351     31350     31353     31352     31350     31353
     31350     31353     31354     31350     31353     31355     31350     31353     31356
     31354     31353     31355     31354     31353     31356     31355     31353     31356
     31358     31357     31361     31358     31357     31365     31358     31357     31369
     31361     31357     31365     31361     31357     31369     31365     31357     31369
     31357     31358     31359     31357     31358     31360     31357     31358     31373
     31359     31358     31360     31359     31358     31373     31360     31358     31373
     31357     31361     31362     31357     31361     31363     31357     31361     31364
     31362     31361     31363     31362     31361     31364     31363     31361     31364
     31357     31365     31366     31357     31365     31367     31357     31365     31368
     31366     31365     31367     31366     31365     31368     31367     31365     31368
     31357     31369     31370     31357     31369     31371     31357     31369     31372
     31370     31369     31371     31370     31369     31372     31371     31369     31372
     31358     31373     31374     31358     31373     31375     31358     31373     31379
     31374     31373     31375     31374     31373     31379     31375     31373     31379
     31377     31376     31378     31377     31376     31379     31377     31376     31380
     31378     31376     31379     31378     31376     31380     31379     31376     31380
     31373     31379     31376     31376     31380     31381     31380     31381     31382
     31380     31381     31383     31380     31381     31384     31382     31381     31383
     31382     31381     31384     31383     31381     31384     31381     31384     31385
     31381     31384     31386     31381     31384     31392     31385     31384     31386
     31385     31384     31392     31386     31384     31392     31384     31386     31387
     31386     31387     31388     31386     31387     31389     31388     31387     31389
     31387     31389     31390     31387     31389     31391     31387     31389     31401
     31390     31389     31391     31390     31389     31401     31391     31389     31401
     31384     31392     31393     31384     31392     31394     31384     31392     31395
     31393     31392     31394     31393     31392     31395     31394     31392     31395
     31392     31395     31396     31395     31396     31397     31395     31396     31398
     31397     31396     31398     31396     31398     31399     31396     31398     31400
     31396     31398     31448     31399     31398     31400     31399     31398     31448
     31400     31398     31448     31389     31401     31402     31389     31401     31403
     31389     31401     31404     31402     31401     31403     31402     31401     31404
     31403     31401     31404     31401     31404     31405     31401     31404     31406
     31401     31404     31407     31405     31404     31406     31405     31404     31407
     31406     31404     31407     31404     31407     31408     31404     31407     31409
     31404     31407     31410     31408     31407     31409     31408     31407     31410
     31409     31407     31410     31407     31410     31411     31407     31410     31412
     31407     31410     31413     31411     31410     31412     31411     31410     31413
     31412     31410     31413     31410     31413     31414     31410     31413     31415
     31410     31413     31416     31414     31413     31415     31414     31413     31416
     31415     31413     31416     31413     31416     31417     31413     31416     31418
     31413     31416     31419     31417     31416     31418     31417     31416     31419
     31418     31416     31419     31416     31419     31420     31416     31419     31421
     31420     31419     31421     31419     31421     31422     31419     31421     31423
     31422     31421     31423     31421     31423     31424     31421     31423     31425
     31421     31423     31426     31424     31423     31425     31424     31423     31426
     31425     31423     31426     31423     31426     31427     31423     31426     31428
     31423     31426     31429     31427     31426     31428     31427     31426     31429
     31428     31426     31429     31426     31429     31430     31426     31429     31431
     31426     31429     31432     31430     31429     31431     31430     31429     31432
     31431     31429     31432     31429     31432     31433     31429     31432     31434
     31429     31432     31435     31433     31432     31434     31433     31432     31435
     31434     31432     31435     31432     31435     31436     31432     31435     31437
     31432     31435     31438     31436     31435     31437     31436     31435     31438
     31437     31435     31438     31435     31438     31439     31435     31438     31440
     31435     31438     31441     31439     31438     31440     31439     31438     31441
     31440     31438     31441     31438     31441     31442     31438     31441     31443
     31438     31441     31444     31442     31441     31443     31442     31441     31444
     31443     31441     31444     31441     31444     31445     31441     31444     31446
     31441     31444     31447     31445     31444     31446     31445     31444     31447
     31446     31444     31447     31398     31448     31449     31398     31448     31450
     31398     31448     31451     31449     31448     31450     31449     31448     31451
     31450     31448     31451     31448     31451     31452     31448     31451     31453
     31448     31451     31454     31452     31451     31453     31452     31451     31454
     31453     31451     31454     31451     31454     31455     31451     31454     31456
     31451     31454     31457     31455     31454     31456     31455     31454     31457
     31456     31454     31457     31454     31457     31458     31454     31457     31459
     31454     31457     31460     31458     31457     31459     31458     31457     31460
     31459     31457     31460     31457     31460     31461     31457     31460     31462
     31457     31460     31463     31461     31460     31462     31461     31460     31463
     31462     31460     31463     31460     31463     31464     31460     31463     31465
     31460     31463     31466     31464     31463     31465     31464     31463     31466
     31465     31463     31466     31463     31466     31467     31463     31466     31468
     31463     31466     31469     31467     31466     31468     31467     31466     31469
     31468     31466     31469     31466     31469     31470     31466     31469     31471
     31466     31469     31472     31470     31469     31471     31470     31469     31472
     31471     31469     31472     31469     31472     31473     31469     31472     31474
     31469     31472     31475     31473     31472     31474     31473     31472     31475
     31474     31472     31475     31472     31475     31476     31472     31475     31477
     31472     31475     31478     31476     31475     31477     31476     31475     31478
     31477     31475     31478     31475     31478     31479     31475     31478     31480
     31475     31478     31481     31479     31478     31480     31479     31478     31481
     31480     31478     31481     31478     31481     31482     31478     31481     31483
     31478     31481     31484     31482     31481     31483     31482     31481     31484
     31483     31481     31484     31481     31484     31485     31481     31484     31486
     31481     31484     31487     31485     31484     31486     31485     31484     31487
     31486     31484     31487     31484     31487     31488     31484     31487     31489
     31484     31487     31490     31488     31487     31489     31488     31487     31490
     31489     31487     31490     31492     31491     31495     31492     31491     31499
     31492     31491     31503     31495     31491     31499     31495     31491     31503
     31499     31491     31503     31491     31492     31493     31491     31492     31494
     31491     31492     31507     31493     31492     31494     31493     31492     31507
     31494     31492     31507     31491     31495     31496     31491     31495     31497
     31491     31495     31498     31496     31495     31497     31496     31495     31498
     31497     31495     31498     31491     31499     31500     31491     31499     31501
     31491     31499     31502     31500     31499     31501     31500     31499     31502
     31501     31499     31502     31491     31503     31504     31491     31503     31505
     31491     31503     31506     31504     31503     31505     31504     31503     31506
     31505     31503     31506     31492     31507     31508     31492     31507     31509
     31492     31507     31513     31508     31507     31509     31508     31507     31513
     31509     31507     31513     31511     31510     31512     31511     31510     31513
     31511     31510     31514     31512     31510     31513     31512     31510     31514
     31513     31510     31514     31507     31513     31510     31510     31514     31515
     31514     31515     31516     31514     31515     31517     31514     31515     31518
     31516     31515     31517     31516     31515     31518     31517     31515     31518
     31515     31518     31519     31515     31518     31520     31515     31518     31526
     31519     31518     31520     31519     31518     31526     31520     31518     31526
     31518     31520     31521     31520     31521     31522     31520     31521     31523
     31522     31521     31523     31521     31523     31524     31521     31523     31525
     31521     31523     31535     31524     31523     31525     31524     31523     31535
     31525     31523     31535     31518     31526     31527     31518     31526     31528
     31518     31526     31529     31527     31526     31528     31527     31526     31529
     31528     31526     31529     31526     31529     31530     31529     31530     31531
     31529     31530     31532     31531     31530     31532     31530     31532     31533
     31530     31532     31534     31530     31532     31582     31533     31532     31534
     31533     31532     31582     31534     31532     31582     31523     31535     31536
     31523     31535     31537     31523     31535     31538     31536     31535     31537
     31536     31535     31538     31537     31535     31538     31535     31538     31539
     31535     31538     31540     31535     31538     31541     31539     31538     31540
     31539     31538     31541     31540     31538     31541     31538     31541     31542
     31538     31541     31543     31538     31541     31544     31542     31541     31543
     31542     31541     31544     31543     31541     31544     31541     31544     31545
     31541     31544     31546     31541     31544     31547     31545     31544     31546
     31545     31544     31547     31546     31544     31547     31544     31547     31548
     31544     31547     31549     31544     31547     31550     31548     31547     31549
     31548     31547     31550     31549     31547     31550     31547     31550     31551
     31547     31550     31552     31547     31550     31553     31551     31550     31552
     31551     31550     31553     31552     31550     31553     31550     31553     31554
     31550     31553     31555     31554     31553     31555     31553     31555     31556
     31553     31555     31557     31556     31555     31557     31555     31557     31558
     31555     31557     31559     31555     31557     31560     31558     31557     31559
     31558     31557     31560     31559     31557     31560     31557     31560     31561
     31557     31560     31562     31557     31560     31563     31561     31560     31562
     31561     31560     31563     31562     31560     31563     31560     31563     31564
     31560     31563     31565     31560     31563     31566     31564     31563     31565
     31564     31563     31566     31565     31563     31566     31563     31566     31567
     31563     31566     31568     31563     31566     31569     31567     31566     31568
     31567     31566     31569     31568     31566     31569     31566     31569     31570
     31566     31569     31571     31566     31569     31572     31570     31569     31571
     31570     31569     31572     31571     31569     31572     31569     31572     31573
     31569     31572     31574     31569     31572     31575     31573     31572     31574
     31573     31572     31575     31574     31572     31575     31572     31575     31576
     31572     31575     31577     31572     31575     31578     31576     31575     31577
     31576     31575     31578     31577     31575     31578     31575     31578     31579
     31575     31578     31580     31575     31578     31581     31579     31578     31580
     31579     31578     31581     31580     31578     31581     31532     31582     31583
     31532     31582     31584     31532     31582     31585     31583     31582     31584
     31583     31582     31585     31584     31582     31585     31582     31585     31586
     31582     31585     31587     31582     31585     31588     31586     31585     31587
     31586     31585     31588     31587     31585     31588     31585     31588     31589
     31585     31588     31590     31585     31588     31591     31589     31588     31590
     31589     31588     31591     31590     31588     31591     31588     31591     31592
     31588     31591     31593     31588     31591     31594     31592     31591     31593
     31592     31591     31594     31593     31591     31594     31591     31594     31595
     31591     31594     31596     31591     31594     31597     31595     31594     31596
     31595     31594     31597     31596     31594     31597     31594     31597     31598
     31594     31597     31599     31594     31597     31600     31598     31597     31599
     31598     31597     31600     31599     31597     31600     31597     31600     31601
     31597     31600     31602     31597     31600     31603     31601     31600     31602
     31601     31600     31603     31602     31600     31603     31600     31603     31604
     31600     31603     31605     31600     31603     31606     31604     31603     31605
     31604     31603     31606     31605     31603     31606     31603     31606     31607
     31603     31606     31608     31603     31606     31609     31607     31606     31608
     31607     31606     31609     31608     31606     31609     31606     31609     31610
     31606     31609     31611     31606     31609     31612     31610     31609     31611
     31610     31609     31612     31611     31609     31612     31609     31612     31613
     31609     31612     31614     31609     31612     31615     31613     31612     31614
     31613     31612     31615     31614     31612     31615     31612     31615     31616
     31612     31615     31617     31612     31615     31618     31616     31615     31617
     31616     31615     31618     31617     31615     31618     31615     31618     31619
     31615     31618     31620     31615     31618     31621     31619     31618     31620
     31619     31618     31621     31620     31618     31621     31618     31621     31622
     31618     31621     31623     31618     31621     31624     31622     31621     31623
     31622     31621     31624     31623     31621     31624     31626     31625     31629
     31626     31625     31633     31626     31625     31637     31629     31625     31633
     31629     31625     31637     31633     31625     31637     31625     31626     31627
     31625     31626     31628     31625     31626     31641     31627     31626     31628
     31627     31626     31641     31628     31626     31641     31625     31629     31630
     31625     31629     31631     31625     31629     31632     31630     31629     31631
     31630     31629     31632     31631     31629     31632     31625     31633     31634
     31625     31633     31635     31625     31633     31636     31634     31633     31635
     31634     31633     31636     31635     31633     31636     31625     31637     31638
     31625     31637     31639     31625     31637     31640     31638     31637     31639
     31638     31637     31640     31639     31637     31640     31626     31641     31642
     31626     31641     31643     31626     31641     31647     31642     31641     31643
     31642     31641     31647     31643     31641     31647     31645     31644     31646
     31645     31644     31647     31645     31644     31648     31646     31644     31647
     31646     31644     31648     31647     31644     31648     31641     31647     31644
     31644     31648     31649     31648     31649     31650     31648     31649     31651
     31648     31649     31652     31650     31649     31651     31650     31649     31652
     31651     31649     31652     31649     31652     31653     31649     31652     31654
     31649     31652     31660     31653     31652     31654     31653     31652     31660
     31654     31652     31660     31652     31654     31655     31654     31655     31656
     31654     31655     31657     31656     31655     31657     31655     31657     31658
     31655     31657     31659     31655     31657     31669     31658     31657     31659
     31658     31657     31669     31659     31657     31669     31652     31660     31661
     31652     31660     31662     31652     31660     31663     31661     31660     31662
     31661     31660     31663     31662     31660     31663     31660     31663     31664
     31663     31664     31665     31663     31664     31666     31665     31664     31666
     31664     31666     31667     31664     31666     31668     31664     31666     31716
     31667     31666     31668     31667     31666     31716     31668     31666     31716
     31657     31669     31670     31657     31669     31671     31657     31669     31672
     31670     31669     31671     31670     31669     31672     31671     31669     31672
     31669     31672     31673     31669     31672     31674     31669     31672     31675
     31673     31672     31674     31673     31672     31675     31674     31672     31675
     31672     31675     31676     31672     31675     31677     31672     31675     31678
     31676     31675     31677     31676     31675     31678     31677     31675     31678
     31675     31678     31679     31675     31678     31680     31675     31678     31681
     31679     31678     31680     31679     31678     31681     31680     31678     31681
     31678     31681     31682     31678     31681     31683     31678     31681     31684
     31682     31681     31683     31682     31681     31684     31683     31681     31684
     31681     31684     31685     31681     31684     31686     31681     31684     31687
     31685     31684     31686     31685     31684     31687     31686     31684     31687
     31684     31687     31688     31684     31687     31689     31688     31687     31689
     31687     31689     31690     31687     31689     31691     31690     31689     31691
     31689     31691     31692     31689     31691     31693     31689     31691     31694
     31692     31691     31693     31692     31691     31694     31693     31691     31694
     31691     31694     31695     31691     31694     31696     31691     31694     31697
     31695     31694     31696     31695     31694     31697     31696     31694     31697
     31694     31697     31698     31694     31697     31699     31694     31697     31700
     31698     31697     31699     31698     31697     31700     31699     31697     31700
     31697     31700     31701     31697     31700     31702     31697     31700     31703
     31701     31700     31702     31701     31700     31703     31702     31700     31703
     31700     31703     31704     31700     31703     31705     31700     31703     31706
     31704     31703     31705     31704     31703     31706     31705     31703     31706
     31703     31706     31707     31703     31706     31708     31703     31706     31709
     31707     31706     31708     31707     31706     31709     31708     31706     31709
     31706     31709     31710     31706     31709     31711     31706     31709     31712
     31710     31709     31711     31710     31709     31712     31711     31709     31712
     31709     31712     31713     31709     31712     31714     31709     31712     31715
     31713     31712     31714     31713     31712     31715     31714     31712     31715
     31666     31716     31717     31666     31716     31718     31666     31716     31719
     31717     31716     31718     31717     31716     31719     31718     31716     31719
     31716     31719     31720     31716     31719     31721     31716     31719     31722
     31720     31719     31721     31720     31719     31722     31721     31719     31722
     31719     31722     31723     31719     31722     31724     31719     31722     31725
     31723     31722     31724     31723     31722     31725     31724     31722     31725
     31722     31725     31726     31722     31725     31727     31722     31725     31728
     31726     31725     31727     31726     31725     31728     31727     31725     31728
     31725     31728     31729     31725     31728     31730     31725     31728     31731
     31729     31728     31730     31729     31728     31731     31730     31728     31731
     31728     31731     31732     31728     31731     31733     31728     31731     31734
     31732     31731     31733     31732     31731     31734     31733     31731     31734
     31731     31734     31735     31731     31734     31736     31731     31734     31737
     31735     31734     31736     31735     31734     31737     31736     31734     31737
     31734     31737     31738     31734     31737     31739     31734     31737     31740
     31738     31737     31739     31738     31737     31740     31739     31737     31740
     31737     31740     31741     31737     31740     31742     31737     31740     31743
     31741     31740     31742     31741     31740     31743     31742     31740     31743
     31740     31743     31744     31740     31743     31745     31740     31743     31746
     31744     31743     31745     31744     31743     31746     31745     31743     31746
     31743     31746     31747     31743     31746     31748     31743     31746     31749
     31747     31746     31748     31747     31746     31749     31748     31746     31749
     31746     31749     31750     31746     31749     31751     31746     31749     31752
     31750     31749     31751     31750     31749     31752     31751     31749     31752
     31749     31752     31753     31749     31752     31754     31749     31752     31755
     31753     31752     31754     31753     31752     31755     31754     31752     31755
     31752     31755     31756     31752     31755     31757     31752     31755     31758
     31756     31755     31757     31756     31755     31758     31757     31755     31758
     31760     31759     31763     31760     31759     31767     31760     31759     31771
     31763     31759     31767     31763     31759     31771     31767     31759     31771
     31759     31760     31761     31759     31760     31762     31759     31760     31775
     31761     31760     31762     31761     31760     31775     31762     31760     31775
     31759     31763     31764     31759     31763     31765     31759     31763     31766
     31764     31763     31765     31764     31763     31766     31765     31763     31766
     31759     31767     31768     31759     31767     31769     31759     31767     31770
     31768     31767     31769     31768     31767     31770     31769     31767     31770
     31759     31771     31772     31759     31771     31773     31759     31771     31774
     31772     31771     31773     31772     31771     31774     31773     31771     31774
     31760     31775     31776     31760     31775     31777     31760     31775     31781
     31776     31775     31777     31776     31775     31781     31777     31775     31781
     31779     31778     31780     31779     31778     31781     31779     31778     31782
     31780     31778     31781     31780     31778     31782     31781     31778     31782
     31775     31781     31778     31778     31782     31783     31782     31783     31784
     31782     31783     31785     31782     31783     31786     31784     31783     31785
     31784     31783     31786     31785     31783     31786     31783     31786     31787
     31783     31786     31788     31783     31786     31794     31787     31786     31788
     31787     31786     31794     31788     31786     31794     31786     31788     31789
     31788     31789     31790     31788     31789     31791     31790     31789     31791
     31789     31791     31792     31789     31791     31793     31789     31791     31803
     31792     31791     31793     31792     31791     31803     31793     31791     31803
     31786     31794     31795     31786     31794     31796     31786     31794     31797
     31795     31794     31796     31795     31794     31797     31796     31794     31797
     31794     31797     31798     31797     31798     31799     31797     31798     31800
     31799     31798     31800     31798     31800     31801     31798     31800     31802
     31798     31800     31850     31801     31800     31802     31801     31800     31850
     31802     31800     31850     31791     31803     31804     31791     31803     31805
     31791     31803     31806     31804     31803     31805     31804     31803     31806
     31805     31803     31806     31803     31806     31807     31803     31806     31808
     31803     31806     31809     31807     31806     31808     31807     31806     31809
     31808     31806     31809     31806     31809     31810     31806     31809     31811
     31806     31809     31812     31810     31809     31811     31810     31809     31812
     31811     31809     31812     31809     31812     31813     31809     31812     31814
     31809     31812     31815     31813     31812     31814     31813     31812     31815
     31814     31812     31815     31812     31815     31816     31812     31815     31817
     31812     31815     31818     31816     31815     31817     31816     31815     31818
     31817     31815     31818     31815     31818     31819     31815     31818     31820
     31815     31818     31821     31819     31818     31820     31819     31818     31821
     31820     31818     31821     31818     31821     31822     31818     31821     31823
     31822     31821     31823     31821     31823     31824     31821     31823     31825
     31824     31823     31825     31823     31825     31826     31823     31825     31827
     31823     31825     31828     31826     31825     31827     31826     31825     31828
     31827     31825     31828     31825     31828     31829     31825     31828     31830
     31825     31828     31831     31829     31828     31830     31829     31828     31831
     31830     31828     31831     31828     31831     31832     31828     31831     31833
     31828     31831     31834     31832     31831     31833     31832     31831     31834
     31833     31831     31834     31831     31834     31835     31831     31834     31836
     31831     31834     31837     31835     31834     31836     31835     31834     31837
     31836     31834     31837     31834     31837     31838     31834     31837     31839
     31834     31837     31840     31838     31837     31839     31838     31837     31840
     31839     31837     31840     31837     31840     31841     31837     31840     31842
     31837     31840     31843     31841     31840     31842     31841     31840     31843
     31842     31840     31843     31840     31843     31844     31840     31843     31845
     31840     31843     31846     31844     31843     31845     31844     31843     31846
     31845     31843     31846     31843     31846     31847     31843     31846     31848
     31843     31846     31849     31847     31846     31848     31847     31846     31849
     31848     31846     31849     31800     31850     31851     31800     31850     31852
     31800     31850     31853     31851     31850     31852     31851     31850     31853
     31852     31850     31853     31850     31853     31854     31850     31853     31855
     31850     31853     31856     31854     31853     31855     31854     31853     31856
     31855     31853     31856     31853     31856     31857     31853     31856     31858
     31853     31856     31859     31857     31856     31858     31857     31856     31859
     31858     31856     31859     31856     31859     31860     31856     31859     31861
     31856     31859     31862     31860     31859     31861     31860     31859     31862
     31861     31859     31862     31859     31862     31863     31859     31862     31864
     31859     31862     31865     31863     31862     31864     31863     31862     31865
     31864     31862     31865     31862     31865     31866     31862     31865     31867
     31862     31865     31868     31866     31865     31867     31866     31865     31868
     31867     31865     31868     31865     31868     31869     31865     31868     31870
     31865     31868     31871     31869     31868     31870     31869     31868     31871
     31870     31868     31871     31868     31871     31872     31868     31871     31873
     31868     31871     31874     31872     31871     31873     31872     31871     31874
     31873     31871     31874     31871     31874     31875     31871     31874     31876
     31871     31874     31877     31875     31874     31876     31875     31874     31877
     31876     31874     31877     31874     31877     31878     31874     31877     31879
     31874     31877     31880     31878     31877     31879     31878     31877     31880
     31879     31877     31880     31877     31880     31881     31877     31880     31882
     31877     31880     31883     31881     31880     31882     31881     31880     31883
     31882     31880     31883     31880     31883     31884     31880     31883     31885
     31880     31883     31886     31884     31883     31885     31884     31883     31886
     31885     31883     31886     31883     31886     31887     31883     31886     31888
     31883     31886     31889     31887     31886     31888     31887     31886     31889
     31888     31886     31889     31886     31889     31890     31886     31889     31891
     31886     31889     31892     31890     31889     31891     31890     31889     31892
     31891     31889     31892     31894     31893     31897     31894     31893     31901
     31894     31893     31905     31897     31893     31901     31897     31893     31905
     31901     31893     31905     31893     31894     31895     31893     31894     31896
     31893     31894     31909     31895     31894     31896     31895     31894     31909
     31896     31894     31909     31893     31897     31898     31893     31897     31899
     31893     31897     31900     31898     31897     31899     31898     31897     31900
     31899     31897     31900     31893     31901     31902     31893     31901     31903
     31893     31901     31904     31902     31901     31903     31902     31901     31904
     31903     31901     31904     31893     31905     31906     31893     31905     31907
     31893     31905     31908     31906     31905     31907     31906     31905     31908
     31907     31905     31908     31894     31909     31910     31894     31909     31911
     31894     31909     31915     31910     31909     31911     31910     31909     31915
     31911     31909     31915     31913     31912     31914     31913     31912     31915
     31913     31912     31916     31914     31912     31915     31914     31912     31916
     31915     31912     31916     31909     31915     31912     31912     31916     31917
     31916     31917     31918     31916     31917     31919     31916     31917     31920
     31918     31917     31919     31918     31917     31920     31919     31917     31920
     31917     31920     31921     31917     31920     31922     31917     31920     31928
     31921     31920     31922     31921     31920     31928     31922     31920     31928
     31920     31922     31923     31922     31923     31924     31922     31923     31925
     31924     31923     31925     31923     31925     31926     31923     31925     31927
     31923     31925     31937     31926     31925     31927     31926     31925     31937
     31927     31925     31937     31920     31928     31929     31920     31928     31930
     31920     31928     31931     31929     31928     31930     31929     31928     31931
     31930     31928     31931     31928     31931     31932     31931     31932     31933
     31931     31932     31934     31933     31932     31934     31932     31934     31935
     31932     31934     31936     31932     31934     31984     31935     31934     31936
     31935     31934     31984     31936     31934     31984     31925     31937     31938
     31925     31937     31939     31925     31937     31940     31938     31937     31939
     31938     31937     31940     31939     31937     31940     31937     31940     31941
     31937     31940     31942     31937     31940     31943     31941     31940     31942
     31941     31940     31943     31942     31940     31943     31940     31943     31944
     31940     31943     31945     31940     31943     31946     31944     31943     31945
     31944     31943     31946     31945     31943     31946     31943     31946     31947
     31943     31946     31948     31943     31946     31949     31947     31946     31948
     31947     31946     31949     31948     31946     31949     31946     31949     31950
     31946     31949     31951     31946     31949     31952     31950     31949     31951
     31950     31949     31952     31951     31949     31952     31949     31952     31953
     31949     31952     31954     31949     31952     31955     31953     31952     31954
     31953     31952     31955     31954     31952     31955     31952     31955     31956
     31952     31955     31957     31956     31955     31957     31955     31957     31958
     31955     31957     31959     31958     31957     31959     31957     31959     31960
     31957     31959     31961     31957     31959     31962     31960     31959     31961
     31960     31959     31962     31961     31959     31962     31959     31962     31963
     31959     31962     31964     31959     31962     31965     31963     31962     31964
     31963     31962     31965     31964     31962     31965     31962     31965     31966
     31962     31965     31967     31962     31965     31968     31966     31965     31967
     31966     31965     31968     31967     31965     31968     31965     31968     31969
     31965     31968     31970     31965     31968     31971     31969     31968     31970
     31969     31968     31971     31970     31968     31971     31968     31971     31972
     31968     31971     31973     31968     31971     31974     31972     31971     31973
     31972     31971     31974     31973     31971     31974     31971     31974     31975
     31971     31974     31976     31971     31974     31977     31975     31974     31976
     31975     31974     31977     31976     31974     31977     31974     31977     31978
     31974     31977     31979     31974     31977     31980     31978     31977     31979
     31978     31977     31980     31979     31977     31980     31977     31980     31981
     31977     31980     31982     31977     31980     31983     31981     31980     31982
     31981     31980     31983     31982     31980     31983     31934     31984     31985
     31934     31984     31986     31934     31984     31987     31985     31984     31986
     31985     31984     31987     31986     31984     31987     31984     31987     31988
     31984     31987     31989     31984     31987     31990     31988     31987     31989
     31988     31987     31990     31989     31987     31990     31987     31990     31991
     31987     31990     31992     31987     31990     31993     31991     31990     31992
     31991     31990     31993     31992     31990     31993     31990     31993     31994
     31990     31993     31995     31990     31993     31996     31994     31993     31995
     31994     31993     31996     31995     31993     31996     31993     31996     31997
     31993     31996     31998     31993     31996     31999     31997     31996     31998
     31997     31996     31999     31998     31996     31999     31996     31999     32000
     31996     31999     32001     31996     31999     32002     32000     31999     32001
     32000     31999     32002     32001     31999     32002     31999     32002     32003
     31999     32002     32004     31999     32002     32005     32003     32002     32004
     32003     32002     32005     32004     32002     32005     32002     32005     32006
     32002     32005     32007     32002     32005     32008     32006     32005     32007
     32006     32005     32008     32007     32005     32008     32005     32008     32009
     32005     32008     32010     32005     32008     32011     32009     32008     32010
     32009     32008     32011     32010     32008     32011     32008     32011     32012
     32008     32011     32013     32008     32011     32014     32012     32011     32013
     32012     32011     32014     32013     32011     32014     32011     32014     32015
     32011     32014     32016     32011     32014     32017     32015     32014     32016
     32015     32014     32017     32016     32014     32017     32014     32017     32018
     32014     32017     32019     32014     32017     32020     32018     32017     32019
     32018     32017     32020     32019     32017     32020     32017     32020     32021
     32017     32020     32022     32017     32020     32023     32021     32020     32022
     32021     32020     32023     32022     32020     32023     32020     32023     32024
     32020     32023     32025     32020     32023     32026     32024     32023     32025
     32024     32023     32026     32025     32023     32026     32028     32027     32031
     32028     32027     32035     32028     32027     32039     32031     32027     32035
     32031     32027     32039     32035     32027     32039     32027     32028     32029
     32027     32028     32030     32027     32028     32043     32029     32028     32030
     32029     32028     32043     32030     32028     32043     32027     32031     32032
     32027     32031     32033     32027     32031     32034     32032     32031     32033
     32032     32031     32034     32033     32031     32034     32027     32035     32036
     32027     32035     32037     32027     32035     32038     32036     32035     32037
     32036     32035     32038     32037     32035     32038     32027     32039     32040
     32027     32039     32041     32027     32039     32042     32040     32039     32041
     32040     32039     32042     32041     32039     32042     32028     32043     32044
     32028     32043     32045     32028     32043     32049     32044     32043     32045
     32044     32043     32049     32045     32043     32049     32047     32046     32048
     32047     32046     32049     32047     32046     32050     32048     32046     32049
     32048     32046     32050     32049     32046     32050     32043     32049     32046
     32046     32050     32051     32050     32051     32052     32050     32051     32053
     32050     32051     32054     32052     32051     32053     32052     32051     32054
     32053     32051     32054     32051     32054     32055     32051     32054     32056
     32051     32054     32062     32055     32054     32056     32055     32054     32062
     32056     32054     32062     32054     32056     32057     32056     32057     32058
     32056     32057     32059     32058     32057     32059     32057     32059     32060
     32057     32059     32061     32057     32059     32071     32060     32059     32061
     32060     32059     32071     32061     32059     32071     32054     32062     32063
     32054     32062     32064     32054     32062     32065     32063     32062     32064
     32063     32062     32065     32064     32062     32065     32062     32065     32066
     32065     32066     32067     32065     32066     32068     32067     32066     32068
     32066     32068     32069     32066     32068     32070     32066     32068     32118
     32069     32068     32070     32069     32068     32118     32070     32068     32118
     32059     32071     32072     32059     32071     32073     32059     32071     32074
     32072     32071     32073     32072     32071     32074     32073     32071     32074
     32071     32074     32075     32071     32074     32076     32071     32074     32077
     32075     32074     32076     32075     32074     32077     32076     32074     32077
     32074     32077     32078     32074     32077     32079     32074     32077     32080
     32078     32077     32079     32078     32077     32080     32079     32077     32080
     32077     32080     32081     32077     32080     32082     32077     32080     32083
     32081     32080     32082     32081     32080     32083     32082     32080     32083
     32080     32083     32084     32080     32083     32085     32080     32083     32086
     32084     32083     32085     32084     32083     32086     32085     32083     32086
     32083     32086     32087     32083     32086     32088     32083     32086     32089
     32087     32086     32088     32087     32086     32089     32088     32086     32089
     32086     32089     32090     32086     32089     32091     32090     32089     32091
     32089     32091     32092     32089     32091     32093     32092     32091     32093
     32091     32093     32094     32091     32093     32095     32091     32093     32096
     32094     32093     32095     32094     32093     32096     32095     32093     32096
     32093     32096     32097     32093     32096     32098     32093     32096     32099
     32097     32096     32098     32097     32096     32099     32098     32096     32099
     32096     32099     32100     32096     32099     32101     32096     32099     32102
     32100     32099     32101     32100     32099     32102     32101     32099     32102
     32099     32102     32103     32099     32102     32104     32099     32102     32105
     32103     32102     32104     32103     32102     32105     32104     32102     32105
     32102     32105     32106     32102     32105     32107     32102     32105     32108
     32106     32105     32107     32106     32105     32108     32107     32105     32108
     32105     32108     32109     32105     32108     32110     32105     32108     32111
     32109     32108     32110     32109     32108     32111     32110     32108     32111
     32108     32111     32112     32108     32111     32113     32108     32111     32114
     32112     32111     32113     32112     32111     32114     32113     32111     32114
     32111     32114     32115     32111     32114     32116     32111     32114     32117
     32115     32114     32116     32115     32114     32117     32116     32114     32117
     32068     32118     32119     32068     32118     32120     32068     32118     32121
     32119     32118     32120     32119     32118     32121     32120     32118     32121
     32118     32121     32122     32118     32121     32123     32118     32121     32124
     32122     32121     32123     32122     32121     32124     32123     32121     32124
     32121     32124     32125     32121     32124     32126     32121     32124     32127
     32125     32124     32126     32125     32124     32127     32126     32124     32127
     32124     32127     32128     32124     32127     32129     32124     32127     32130
     32128     32127     32129     32128     32127     32130     32129     32127     32130
     32127     32130     32131     32127     32130     32132     32127     32130     32133
     32131     32130     32132     32131     32130     32133     32132     32130     32133
     32130     32133     32134     32130     32133     32135     32130     32133     32136
     32134     32133     32135     32134     32133     32136     32135     32133     32136
     32133     32136     32137     32133     32136     32138     32133     32136     32139
     32137     32136     32138     32137     32136     32139     32138     32136     32139
     32136     32139     32140     32136     32139     32141     32136     32139     32142
     32140     32139     32141     32140     32139     32142     32141     32139     32142
     32139     32142     32143     32139     32142     32144     32139     32142     32145
     32143     32142     32144     32143     32142     32145     32144     32142     32145
     32142     32145     32146     32142     32145     32147     32142     32145     32148
     32146     32145     32147     32146     32145     32148     32147     32145     32148
     32145     32148     32149     32145     32148     32150     32145     32148     32151
     32149     32148     32150     32149     32148     32151     32150     32148     32151
     32148     32151     32152     32148     32151     32153     32148     32151     32154
     32152     32151     32153     32152     32151     32154     32153     32151     32154
     32151     32154     32155     32151     32154     32156     32151     32154     32157
     32155     32154     32156     32155     32154     32157     32156     32154     32157
     32154     32157     32158     32154     32157     32159     32154     32157     32160
     32158     32157     32159     32158     32157     32160     32159     32157     32160
     32162     32161     32165     32162     32161     32169     32162     32161     32173
     32165     32161     32169     32165     32161     32173     32169     32161     32173
     32161     32162     32163     32161     32162     32164     32161     32162     32177
     32163     32162     32164     32163     32162     32177     32164     32162     32177
     32161     32165     32166     32161     32165     32167     32161     32165     32168
     32166     32165     32167     32166     32165     32168     32167     32165     32168
     32161     32169     32170     32161     32169     32171     32161     32169     32172
     32170     32169     32171     32170     32169     32172     32171     32169     32172
     32161     32173     32174     32161     32173     32175     32161     32173     32176
     32174     32173     32175     32174     32173     32176     32175     32173     32176
     32162     32177     32178     32162     32177     32179     32162     32177     32183
     32178     32177     32179     32178     32177     32183     32179     32177     32183
     32181     32180     32182     32181     32180     32183     32181     32180     32184
     32182     32180     32183     32182     32180     32184     32183     32180     32184
     32177     32183     32180     32180     32184     32185     32184     32185     32186
     32184     32185     32187     32184     32185     32188     32186     32185     32187
     32186     32185     32188     32187     32185     32188     32185     32188     32189
     32185     32188     32190     32185     32188     32196     32189     32188     32190
     32189     32188     32196     32190     32188     32196     32188     32190     32191
     32190     32191     32192     32190     32191     32193     32192     32191     32193
     32191     32193     32194     32191     32193     32195     32191     32193     32205
     32194     32193     32195     32194     32193     32205     32195     32193     32205
     32188     32196     32197     32188     32196     32198     32188     32196     32199
     32197     32196     32198     32197     32196     32199     32198     32196     32199
     32196     32199     32200     32199     32200     32201     32199     32200     32202
     32201     32200     32202     32200     32202     32203     32200     32202     32204
     32200     32202     32252     32203     32202     32204     32203     32202     32252
     32204     32202     32252     32193     32205     32206     32193     32205     32207
     32193     32205     32208     32206     32205     32207     32206     32205     32208
     32207     32205     32208     32205     32208     32209     32205     32208     32210
     32205     32208     32211     32209     32208     32210     32209     32208     32211
     32210     32208     32211     32208     32211     32212     32208     32211     32213
     32208     32211     32214     32212     32211     32213     32212     32211     32214
     32213     32211     32214     32211     32214     32215     32211     32214     32216
     32211     32214     32217     32215     32214     32216     32215     32214     32217
     32216     32214     32217     32214     32217     32218     32214     32217     32219
     32214     32217     32220     32218     32217     32219     32218     32217     32220
     32219     32217     32220     32217     32220     32221     32217     32220     32222
     32217     32220     32223     32221     32220     32222     32221     32220     32223
     32222     32220     32223     32220     32223     32224     32220     32223     32225
     32224     32223     32225     32223     32225     32226     32223     32225     32227
     32226     32225     32227     32225     32227     32228     32225     32227     32229
     32225     32227     32230     32228     32227     32229     32228     32227     32230
     32229     32227     32230     32227     32230     32231     32227     32230     32232
     32227     32230     32233     32231     32230     32232     32231     32230     32233
     32232     32230     32233     32230     32233     32234     32230     32233     32235
     32230     32233     32236     32234     32233     32235     32234     32233     32236
     32235     32233     32236     32233     32236     32237     32233     32236     32238
     32233     32236     32239     32237     32236     32238     32237     32236     32239
     32238     32236     32239     32236     32239     32240     32236     32239     32241
     32236     32239     32242     32240     32239     32241     32240     32239     32242
     32241     32239     32242     32239     32242     32243     32239     32242     32244
     32239     32242     32245     32243     32242     32244     32243     32242     32245
     32244     32242     32245     32242     32245     32246     32242     32245     32247
     32242     32245     32248     32246     32245     32247     32246     32245     32248
     32247     32245     32248     32245     32248     32249     32245     32248     32250
     32245     32248     32251     32249     32248     32250     32249     32248     32251
     32250     32248     32251     32202     32252     32253     32202     32252     32254
     32202     32252     32255     32253     32252     32254     32253     32252     32255
     32254     32252     32255     32252     32255     32256     32252     32255     32257
     32252     32255     32258     32256     32255     32257     32256     32255     32258
     32257     32255     32258     32255     32258     32259     32255     32258     32260
     32255     32258     32261     32259     32258     32260     32259     32258     32261
     32260     32258     32261     32258     32261     32262     32258     32261     32263
     32258     32261     32264     32262     32261     32263     32262     32261     32264
     32263     32261     32264     32261     32264     32265     32261     32264     32266
     32261     32264     32267     32265     32264     32266     32265     32264     32267
     32266     32264     32267     32264     32267     32268     32264     32267     32269
     32264     32267     32270     32268     32267     32269     32268     32267     32270
     32269     32267     32270     32267     32270     32271     32267     32270     32272
     32267     32270     32273     32271     32270     32272     32271     32270     32273
     32272     32270     32273     32270     32273     32274     32270     32273     32275
     32270     32273     32276     32274     32273     32275     32274     32273     32276
     32275     32273     32276     32273     32276     32277     32273     32276     32278
     32273     32276     32279     32277     32276     32278     32277     32276     32279
     32278     32276     32279     32276     32279     32280     32276     32279     32281
     32276     32279     32282     32280     32279     32281     32280     32279     32282
     32281     32279     32282     32279     32282     32283     32279     32282     32284
     32279     32282     32285     32283     32282     32284     32283     32282     32285
     32284     32282     32285     32282     32285     32286     32282     32285     32287
     32282     32285     32288     32286     32285     32287     32286     32285     32288
     32287     32285     32288     32285     32288     32289     32285     32288     32290
     32285     32288     32291     32289     32288     32290     32289     32288     32291
     32290     32288     32291     32288     32291     32292     32288     32291     32293
     32288     32291     32294     32292     32291     32293     32292     32291     32294
     32293     32291     32294     32296     32295     32299     32296     32295     32303
     32296     32295     32307     32299     32295     32303     32299     32295     32307
     32303     32295     32307     32295     32296     32297     32295     32296     32298
     32295     32296     32311     32297     32296     32298     32297     32296     32311
     32298     32296     32311     32295     32299     32300     32295     32299     32301
     32295     32299     32302     32300     32299     32301     32300     32299     32302
     32301     32299     32302     32295     32303     32304     32295     32303     32305
     32295     32303     32306     32304     32303     32305     32304     32303     32306
     32305     32303     32306     32295     32307     32308     32295     32307     32309
     32295     32307     32310     32308     32307     32309     32308     32307     32310
     32309     32307     32310     32296     32311     32312     32296     32311     32313
     32296     32311     32317     32312     32311     32313     32312     32311     32317
     32313     32311     32317     32315     32314     32316     32315     32314     32317
     32315     32314     32318     32316     32314     32317     32316     32314     32318
     32317     32314     32318     32311     32317     32314     32314     32318     32319
     32318     32319     32320     32318     32319     32321     32318     32319     32322
     32320     32319     32321     32320     32319     32322     32321     32319     32322
     32319     32322     32323     32319     32322     32324     32319     32322     32330
     32323     32322     32324     32323     32322     32330     32324     32322     32330
     32322     32324     32325     32324     32325     32326     32324     32325     32327
     32326     32325     32327     32325     32327     32328     32325     32327     32329
     32325     32327     32339     32328     32327     32329     32328     32327     32339
     32329     32327     32339     32322     32330     32331     32322     32330     32332
     32322     32330     32333     32331     32330     32332     32331     32330     32333
     32332     32330     32333     32330     32333     32334     32333     32334     32335
     32333     32334     32336     32335     32334     32336     32334     32336     32337
     32334     32336     32338     32334     32336     32386     32337     32336     32338
     32337     32336     32386     32338     32336     32386     32327     32339     32340
     32327     32339     32341     32327     32339     32342     32340     32339     32341
     32340     32339     32342     32341     32339     32342     32339     32342     32343
     32339     32342     32344     32339     32342     32345     32343     32342     32344
     32343     32342     32345     32344     32342     32345     32342     32345     32346
     32342     32345     32347     32342     32345     32348     32346     32345     32347
     32346     32345     32348     32347     32345     32348     32345     32348     32349
     32345     32348     32350     32345     32348     32351     32349     32348     32350
     32349     32348     32351     32350     32348     32351     32348     32351     32352
     32348     32351     32353     32348     32351     32354     32352     32351     32353
     32352     32351     32354     32353     32351     32354     32351     32354     32355
     32351     32354     32356     32351     32354     32357     32355     32354     32356
     32355     32354     32357     32356     32354     32357     32354     32357     32358
     32354     32357     32359     32358     32357     32359     32357     32359     32360
     32357     32359     32361     32360     32359     32361     32359     32361     32362
     32359     32361     32363     32359     32361     32364     32362     32361     32363
     32362     32361     32364     32363     32361     32364     32361     32364     32365
     32361     32364     32366     32361     32364     32367     32365     32364     32366
     32365     32364     32367     32366     32364     32367     32364     32367     32368
     32364     32367     32369     32364     32367     32370     32368     32367     32369
     32368     32367     32370     32369     32367     32370     32367     32370     32371
     32367     32370     32372     32367     32370     32373     32371     32370     32372
     32371     32370     32373     32372     32370     32373     32370     32373     32374
     32370     32373     32375     32370     32373     32376     32374     32373     32375
     32374     32373     32376     32375     32373     32376     32373     32376     32377
     32373     32376     32378     32373     32376     32379     32377     32376     32378
     32377     32376     32379     32378     32376     32379     32376     32379     32380
     32376     32379     32381     32376     32379     32382     32380     32379     32381
     32380     32379     32382     32381     32379     32382     32379     32382     32383
     32379     32382     32384     32379     32382     32385     32383     32382     32384
     32383     32382     32385     32384     32382     32385     32336     32386     32387
     32336     32386     32388     32336     32386     32389     32387     32386     32388
     32387     32386     32389     32388     32386     32389     32386     32389     32390
     32386     32389     32391     32386     32389     32392     32390     32389     32391
     32390     32389     32392     32391     32389     32392     32389     32392     32393
     32389     32392     32394     32389     32392     32395     32393     32392     32394
     32393     32392     32395     32394     32392     32395     32392     32395     32396
     32392     32395     32397     32392     32395     32398     32396     32395     32397
     32396     32395     32398     32397     32395     32398     32395     32398     32399
     32395     32398     32400     32395     32398     32401     32399     32398     32400
     32399     32398     32401     32400     32398     32401     32398     32401     32402
     32398     32401     32403     32398     32401     32404     32402     32401     32403
     32402     32401     32404     32403     32401     32404     32401     32404     32405
     32401     32404     32406     32401     32404     32407     32405     32404     32406
     32405     32404     32407     32406     32404     32407     32404     32407     32408
     32404     32407     32409     32404     32407     32410     32408     32407     32409
     32408     32407     32410     32409     32407     32410     32407     32410     32411
     32407     32410     32412     32407     32410     32413     32411     32410     32412
     32411     32410     32413     32412     32410     32413     32410     32413     32414
     32410     32413     32415     32410     32413     32416     32414     32413     32415
     32414     32413     32416     32415     32413     32416     32413     32416     32417
     32413     32416     32418     32413     32416     32419     32417     32416     32418
     32417     32416     32419     32418     32416     32419     32416     32419     32420
     32416     32419     32421     32416     32419     32422     32420     32419     32421
     32420     32419     32422     32421     32419     32422     32419     32422     32423
     32419     32422     32424     32419     32422     32425     32423     32422     32424
     32423     32422     32425     32424     32422     32425     32422     32425     32426
     32422     32425     32427     32422     32425     32428     32426     32425     32427
     32426     32425     32428     32427     32425     32428     32430     32429     32433
     32430     32429     32437     32430     32429     32441     32433     32429     32437
     32433     32429     32441     32437     32429     32441     32429     32430     32431
     32429     32430     32432     32429     32430     32445     32431     32430     32432
     32431     32430     32445     32432     32430     32445     32429     32433     32434
     32429     32433     32435     32429     32433     32436     32434     32433     32435
     32434     32433     32436     32435     32433     32436     32429     32437     32438
     32429     32437     32439     32429     32437     32440     32438     32437     32439
     32438     32437     32440     32439     32437     32440     32429     32441     32442
     32429     32441     32443     32429     32441     32444     32442     32441     32443
     32442     32441     32444     32443     32441     32444     32430     32445     32446
     32430     32445     32447     32430     32445     32451     32446     32445     32447
     32446     32445     32451     32447     32445     32451     32449     32448     32450
     32449     32448     32451     32449     32448     32452     32450     32448     32451
     32450     32448     32452     32451     32448     32452     32445     32451     32448
     32448     32452     32453     32452     32453     32454     32452     32453     32455
     32452     32453     32456     32454     32453     32455     32454     32453     32456
     32455     32453     32456     32453     32456     32457     32453     32456     32458
     32453     32456     32464     32457     32456     32458     32457     32456     32464
     32458     32456     32464     32456     32458     32459     32458     32459     32460
     32458     32459     32461     32460     32459     32461     32459     32461     32462
     32459     32461     32463     32459     32461     32473     32462     32461     32463
     32462     32461     32473     32463     32461     32473     32456     32464     32465
     32456     32464     32466     32456     32464     32467     32465     32464     32466
     32465     32464     32467     32466     32464     32467     32464     32467     32468
     32467     32468     32469     32467     32468     32470     32469     32468     32470
     32468     32470     32471     32468     32470     32472     32468     32470     32520
     32471     32470     32472     32471     32470     32520     32472     32470     32520
     32461     32473     32474     32461     32473     32475     32461     32473     32476
     32474     32473     32475     32474     32473     32476     32475     32473     32476
     32473     32476     32477     32473     32476     32478     32473     32476     32479
     32477     32476     32478     32477     32476     32479     32478     32476     32479
     32476     32479     32480     32476     32479     32481     32476     32479     32482
     32480     32479     32481     32480     32479     32482     32481     32479     32482
     32479     32482     32483     32479     32482     32484     32479     32482     32485
     32483     32482     32484     32483     32482     32485     32484     32482     32485
     32482     32485     32486     32482     32485     32487     32482     32485     32488
     32486     32485     32487     32486     32485     32488     32487     32485     32488
     32485     32488     32489     32485     32488     32490     32485     32488     32491
     32489     32488     32490     32489     32488     32491     32490     32488     32491
     32488     32491     32492     32488     32491     32493     32492     32491     32493
     32491     32493     32494     32491     32493     32495     32494     32493     32495
     32493     32495     32496     32493     32495     32497     32493     32495     32498
     32496     32495     32497     32496     32495     32498     32497     32495     32498
     32495     32498     32499     32495     32498     32500     32495     32498     32501
     32499     32498     32500     32499     32498     32501     32500     32498     32501
     32498     32501     32502     32498     32501     32503     32498     32501     32504
     32502     32501     32503     32502     32501     32504     32503     32501     32504
     32501     32504     32505     32501     32504     32506     32501     32504     32507
     32505     32504     32506     32505     32504     32507     32506     32504     32507
     32504     32507     32508     32504     32507     32509     32504     32507     32510
     32508     32507     32509     32508     32507     32510     32509     32507     32510
     32507     32510     32511     32507     32510     32512     32507     32510     32513
     32511     32510     32512     32511     32510     32513     32512     32510     32513
     32510     32513     32514     32510     32513     32515     32510     32513     32516
     32514     32513     32515     32514     32513     32516     32515     32513     32516
     32513     32516     32517     32513     32516     32518     32513     32516     32519
     32517     32516     32518     32517     32516     32519     32518     32516     32519
     32470     32520     32521     32470     32520     32522     32470     32520     32523
     32521     32520     32522     32521     32520     32523     32522     32520     32523
     32520     32523     32524     32520     32523     32525     32520     32523     32526
     32524     32523     32525     32524     32523     32526     32525     32523     32526
     32523     32526     32527     32523     32526     32528     32523     32526     32529
     32527     32526     32528     32527     32526     32529     32528     32526     32529
     32526     32529     32530     32526     32529     32531     32526     32529     32532
     32530     32529     32531     32530     32529     32532     32531     32529     32532
     32529     32532     32533     32529     32532     32534     32529     32532     32535
     32533     32532     32534     32533     32532     32535     32534     32532     32535
     32532     32535     32536     32532     32535     32537     32532     32535     32538
     32536     32535     32537     32536     32535     32538     32537     32535     32538
     32535     32538     32539     32535     32538     32540     32535     32538     32541
     32539     32538     32540     32539     32538     32541     32540     32538     32541
     32538     32541     32542     32538     32541     32543     32538     32541     32544
     32542     32541     32543     32542     32541     32544     32543     32541     32544
     32541     32544     32545     32541     32544     32546     32541     32544     32547
     32545     32544     32546     32545     32544     32547     32546     32544     32547
     32544     32547     32548     32544     32547     32549     32544     32547     32550
     32548     32547     32549     32548     32547     32550     32549     32547     32550
     32547     32550     32551     32547     32550     32552     32547     32550     32553
     32551     32550     32552     32551     32550     32553     32552     32550     32553
     32550     32553     32554     32550     32553     32555     32550     32553     32556
     32554     32553     32555     32554     32553     32556     32555     32553     32556
     32553     32556     32557     32553     32556     32558     32553     32556     32559
     32557     32556     32558     32557     32556     32559     32558     32556     32559
     32556     32559     32560     32556     32559     32561     32556     32559     32562
     32560     32559     32561     32560     32559     32562     32561     32559     32562
     32564     32563     32567     32564     32563     32571     32564     32563     32575
     32567     32563     32571     32567     32563     32575     32571     32563     32575
     32563     32564     32565     32563     32564     32566     32563     32564     32579
     32565     32564     32566     32565     32564     32579     32566     32564     32579
     32563     32567     32568     32563     32567     32569     32563     32567     32570
     32568     32567     32569     32568     32567     32570     32569     32567     32570
     32563     32571     32572     32563     32571     32573     32563     32571     32574
     32572     32571     32573     32572     32571     32574     32573     32571     32574
     32563     32575     32576     32563     32575     32577     32563     32575     32578
     32576     32575     32577     32576     32575     32578     32577     32575     32578
     32564     32579     32580     32564     32579     32581     32564     32579     32585
     32580     32579     32581     32580     32579     32585     32581     32579     32585
     32583     32582     32584     32583     32582     32585     32583     32582     32586
     32584     32582     32585     32584     32582     32586     32585     32582     32586
     32579     32585     32582     32582     32586     32587     32586     32587     32588
     32586     32587     32589     32586     32587     32590     32588     32587     32589
     32588     32587     32590     32589     32587     32590     32587     32590     32591
     32587     32590     32592     32587     32590     32598     32591     32590     32592
     32591     32590     32598     32592     32590     32598     32590     32592     32593
     32592     32593     32594     32592     32593     32595     32594     32593     32595
     32593     32595     32596     32593     32595     32597     32593     32595     32607
     32596     32595     32597     32596     32595     32607     32597     32595     32607
     32590     32598     32599     32590     32598     32600     32590     32598     32601
     32599     32598     32600     32599     32598     32601     32600     32598     32601
     32598     32601     32602     32601     32602     32603     32601     32602     32604
     32603     32602     32604     32602     32604     32605     32602     32604     32606
     32602     32604     32654     32605     32604     32606     32605     32604     32654
     32606     32604     32654     32595     32607     32608     32595     32607     32609
     32595     32607     32610     32608     32607     32609     32608     32607     32610
     32609     32607     32610     32607     32610     32611     32607     32610     32612
     32607     32610     32613     32611     32610     32612     32611     32610     32613
     32612     32610     32613     32610     32613     32614     32610     32613     32615
     32610     32613     32616     32614     32613     32615     32614     32613     32616
     32615     32613     32616     32613     32616     32617     32613     32616     32618
     32613     32616     32619     32617     32616     32618     32617     32616     32619
     32618     32616     32619     32616     32619     32620     32616     32619     32621
     32616     32619     32622     32620     32619     32621     32620     32619     32622
     32621     32619     32622     32619     32622     32623     32619     32622     32624
     32619     32622     32625     32623     32622     32624     32623     32622     32625
     32624     32622     32625     32622     32625     32626     32622     32625     32627
     32626     32625     32627     32625     32627     32628     32625     32627     32629
     32628     32627     32629     32627     32629     32630     32627     32629     32631
     32627     32629     32632     32630     32629     32631     32630     32629     32632
     32631     32629     32632     32629     32632     32633     32629     32632     32634
     32629     32632     32635     32633     32632     32634     32633     32632     32635
     32634     32632     32635     32632     32635     32636     32632     32635     32637
     32632     32635     32638     32636     32635     32637     32636     32635     32638
     32637     32635     32638     32635     32638     32639     32635     32638     32640
     32635     32638     32641     32639     32638     32640     32639     32638     32641
     32640     32638     32641     32638     32641     32642     32638     32641     32643
     32638     32641     32644     32642     32641     32643     32642     32641     32644
     32643     32641     32644     32641     32644     32645     32641     32644     32646
     32641     32644     32647     32645     32644     32646     32645     32644     32647
     32646     32644     32647     32644     32647     32648     32644     32647     32649
     32644     32647     32650     32648     32647     32649     32648     32647     32650
     32649     32647     32650     32647     32650     32651     32647     32650     32652
     32647     32650     32653     32651     32650     32652     32651     32650     32653
     32652     32650     32653     32604     32654     32655     32604     32654     32656
     32604     32654     32657     32655     32654     32656     32655     32654     32657
     32656     32654     32657     32654     32657     32658     32654     32657     32659
     32654     32657     32660     32658     32657     32659     32658     32657     32660
     32659     32657     32660     32657     32660     32661     32657     32660     32662
     32657     32660     32663     32661     32660     32662     32661     32660     32663
     32662     32660     32663     32660     32663     32664     32660     32663     32665
     32660     32663     32666     32664     32663     32665     32664     32663     32666
     32665     32663     32666     32663     32666     32667     32663     32666     32668
     32663     32666     32669     32667     32666     32668     32667     32666     32669
     32668     32666     32669     32666     32669     32670     32666     32669     32671
     32666     32669     32672     32670     32669     32671     32670     32669     32672
     32671     32669     32672     32669     32672     32673     32669     32672     32674
     32669     32672     32675     32673     32672     32674     32673     32672     32675
     32674     32672     32675     32672     32675     32676     32672     32675     32677
     32672     32675     32678     32676     32675     32677     32676     32675     32678
     32677     32675     32678     32675     32678     32679     32675     32678     32680
     32675     32678     32681     32679     32678     32680     32679     32678     32681
     32680     32678     32681     32678     32681     32682     32678     32681     32683
     32678     32681     32684     32682     32681     32683     32682     32681     32684
     32683     32681     32684     32681     32684     32685     32681     32684     32686
     32681     32684     32687     32685     32684     32686     32685     32684     32687
     32686     32684     32687     32684     32687     32688     32684     32687     32689
     32684     32687     32690     32688     32687     32689     32688     32687     32690
     32689     32687     32690     32687     32690     32691     32687     32690     32692
     32687     32690     32693     32691     32690     32692     32691     32690     32693
     32692     32690     32693     32690     32693     32694     32690     32693     32695
     32690     32693     32696     32694     32693     32695     32694     32693     32696
     32695     32693     32696     32698     32697     32701     32698     32697     32705
     32698     32697     32709     32701     32697     32705     32701     32697     32709
     32705     32697     32709     32697     32698     32699     32697     32698     32700
     32697     32698     32713     32699     32698     32700     32699     32698     32713
     32700     32698     32713     32697     32701     32702     32697     32701     32703
     32697     32701     32704     32702     32701     32703     32702     32701     32704
     32703     32701     32704     32697     32705     32706     32697     32705     32707
     32697     32705     32708     32706     32705     32707     32706     32705     32708
     32707     32705     32708     32697     32709     32710     32697     32709     32711
     32697     32709     32712     32710     32709     32711     32710     32709     32712
     32711     32709     32712     32698     32713     32714     32698     32713     32715
     32698     32713     32719     32714     32713     32715     32714     32713     32719
     32715     32713     32719     32717     32716     32718     32717     32716     32719
     32717     32716     32720     32718     32716     32719     32718     32716     32720
     32719     32716     32720     32713     32719     32716     32716     32720     32721
     32720     32721     32722     32720     32721     32723     32720     32721     32724
     32722     32721     32723     32722     32721     32724     32723     32721     32724
     32721     32724     32725     32721     32724     32726     32721     32724     32732
     32725     32724     32726     32725     32724     32732     32726     32724     32732
     32724     32726     32727     32726     32727     32728     32726     32727     32729
     32728     32727     32729     32727     32729     32730     32727     32729     32731
     32727     32729     32741     32730     32729     32731     32730     32729     32741
     32731     32729     32741     32724     32732     32733     32724     32732     32734
     32724     32732     32735     32733     32732     32734     32733     32732     32735
     32734     32732     32735     32732     32735     32736     32735     32736     32737
     32735     32736     32738     32737     32736     32738     32736     32738     32739
     32736     32738     32740     32736     32738     32788     32739     32738     32740
     32739     32738     32788     32740     32738     32788     32729     32741     32742
     32729     32741     32743     32729     32741     32744     32742     32741     32743
     32742     32741     32744     32743     32741     32744     32741     32744     32745
     32741     32744     32746     32741     32744     32747     32745     32744     32746
     32745     32744     32747     32746     32744     32747     32744     32747     32748
     32744     32747     32749     32744     32747     32750     32748     32747     32749
     32748     32747     32750     32749     32747     32750     32747     32750     32751
     32747     32750     32752     32747     32750     32753     32751     32750     32752
     32751     32750     32753     32752     32750     32753     32750     32753     32754
     32750     32753     32755     32750     32753     32756     32754     32753     32755
     32754     32753     32756     32755     32753     32756     32753     32756     32757
     32753     32756     32758     32753     32756     32759     32757     32756     32758
     32757     32756     32759     32758     32756     32759     32756     32759     32760
     32756     32759     32761     32760     32759     32761     32759     32761     32762
     32759     32761     32763     32762     32761     32763     32761     32763     32764
     32761     32763     32765     32761     32763     32766     32764     32763     32765
     32764     32763     32766     32765     32763     32766     32763     32766     32767
     32763     32766     32768     32763     32766     32769     32767     32766     32768
     32767     32766     32769     32768     32766     32769     32766     32769     32770
     32766     32769     32771     32766     32769     32772     32770     32769     32771
     32770     32769     32772     32771     32769     32772     32769     32772     32773
     32769     32772     32774     32769     32772     32775     32773     32772     32774
     32773     32772     32775     32774     32772     32775     32772     32775     32776
     32772     32775     32777     32772     32775     32778     32776     32775     32777
     32776     32775     32778     32777     32775     32778     32775     32778     32779
     32775     32778     32780     32775     32778     32781     32779     32778     32780
     32779     32778     32781     32780     32778     32781     32778     32781     32782
     32778     32781     32783     32778     32781     32784     32782     32781     32783
     32782     32781     32784     32783     32781     32784     32781     32784     32785
     32781     32784     32786     32781     32784     32787     32785     32784     32786
     32785     32784     32787     32786     32784     32787     32738     32788     32789
     32738     32788     32790     32738     32788     32791     32789     32788     32790
     32789     32788     32791     32790     32788     32791     32788     32791     32792
     32788     32791     32793     32788     32791     32794     32792     32791     32793
     32792     32791     32794     32793     32791     32794     32791     32794     32795
     32791     32794     32796     32791     32794     32797     32795     32794     32796
     32795     32794     32797     32796     32794     32797     32794     32797     32798
     32794     32797     32799     32794     32797     32800     32798     32797     32799
     32798     32797     32800     32799     32797     32800     32797     32800     32801
     32797     32800     32802     32797     32800     32803     32801     32800     32802
     32801     32800     32803     32802     32800     32803     32800     32803     32804
     32800     32803     32805     32800     32803     32806     32804     32803     32805
     32804     32803     32806     32805     32803     32806     32803     32806     32807
     32803     32806     32808     32803     32806     32809     32807     32806     32808
     32807     32806     32809     32808     32806     32809     32806     32809     32810
     32806     32809     32811     32806     32809     32812     32810     32809     32811
     32810     32809     32812     32811     32809     32812     32809     32812     32813
     32809     32812     32814     32809     32812     32815     32813     32812     32814
     32813     32812     32815     32814     32812     32815     32812     32815     32816
     32812     32815     32817     32812     32815     32818     32816     32815     32817
     32816     32815     32818     32817     32815     32818     32815     32818     32819
     32815     32818     32820     32815     32818     32821     32819     32818     32820
     32819     32818     32821     32820     32818     32821     32818     32821     32822
     32818     32821     32823     32818     32821     32824     32822     32821     32823
     32822     32821     32824     32823     32821     32824     32821     32824     32825
     32821     32824     32826     32821     32824     32827     32825     32824     32826
     32825     32824     32827     32826     32824     32827     32824     32827     32828
     32824     32827     32829     32824     32827     32830     32828     32827     32829
     32828     32827     32830     32829     32827     32830     32832     32831     32835
     32832     32831     32839     32832     32831     32843     32835     32831     32839
     32835     32831     32843     32839     32831     32843     32831     32832     32833
     32831     32832     32834     32831     32832     32847     32833     32832     32834
     32833     32832     32847     32834     32832     32847     32831     32835     32836
     32831     32835     32837     32831     32835     32838     32836     32835     32837
     32836     32835     32838     32837     32835     32838     32831     32839     32840
     32831     32839     32841     32831     32839     32842     32840     32839     32841
     32840     32839     32842     32841     32839     32842     32831     32843     32844
     32831     32843     32845     32831     32843     32846     32844     32843     32845
     32844     32843     32846     32845     32843     32846     32832     32847     32848
     32832     32847     32849     32832     32847     32853     32848     32847     32849
     32848     32847     32853     32849     32847     32853     32851     32850     32852
     32851     32850     32853     32851     32850     32854     32852     32850     32853
     32852     32850     32854     32853     32850     32854     32847     32853     32850
     32850     32854     32855     32854     32855     32856     32854     32855     32857
     32854     32855     32858     32856     32855     32857     32856     32855     32858
     32857     32855     32858     32855     32858     32859     32855     32858     32860
     32855     32858     32866     32859     32858     32860     32859     32858     32866
     32860     32858     32866     32858     32860     32861     32860     32861     32862
     32860     32861     32863     32862     32861     32863     32861     32863     32864
     32861     32863     32865     32861     32863     32875     32864     32863     32865
     32864     32863     32875     32865     32863     32875     32858     32866     32867
     32858     32866     32868     32858     32866     32869     32867     32866     32868
     32867     32866     32869     32868     32866     32869     32866     32869     32870
     32869     32870     32871     32869     32870     32872     32871     32870     32872
     32870     32872     32873     32870     32872     32874     32870     32872     32922
     32873     32872     32874     32873     32872     32922     32874     32872     32922
     32863     32875     32876     32863     32875     32877     32863     32875     32878
     32876     32875     32877     32876     32875     32878     32877     32875     32878
     32875     32878     32879     32875     32878     32880     32875     32878     32881
     32879     32878     32880     32879     32878     32881     32880     32878     32881
     32878     32881     32882     32878     32881     32883     32878     32881     32884
     32882     32881     32883     32882     32881     32884     32883     32881     32884
     32881     32884     32885     32881     32884     32886     32881     32884     32887
     32885     32884     32886     32885     32884     32887     32886     32884     32887
     32884     32887     32888     32884     32887     32889     32884     32887     32890
     32888     32887     32889     32888     32887     32890     32889     32887     32890
     32887     32890     32891     32887     32890     32892     32887     32890     32893
     32891     32890     32892     32891     32890     32893     32892     32890     32893
     32890     32893     32894     32890     32893     32895     32894     32893     32895
     32893     32895     32896     32893     32895     32897     32896     32895     32897
     32895     32897     32898     32895     32897     32899     32895     32897     32900
     32898     32897     32899     32898     32897     32900     32899     32897     32900
     32897     32900     32901     32897     32900     32902     32897     32900     32903
     32901     32900     32902     32901     32900     32903     32902     32900     32903
     32900     32903     32904     32900     32903     32905     32900     32903     32906
     32904     32903     32905     32904     32903     32906     32905     32903     32906
     32903     32906     32907     32903     32906     32908     32903     32906     32909
     32907     32906     32908     32907     32906     32909     32908     32906     32909
     32906     32909     32910     32906     32909     32911     32906     32909     32912
     32910     32909     32911     32910     32909     32912     32911     32909     32912
     32909     32912     32913     32909     32912     32914     32909     32912     32915
     32913     32912     32914     32913     32912     32915     32914     32912     32915
     32912     32915     32916     32912     32915     32917     32912     32915     32918
     32916     32915     32917     32916     32915     32918     32917     32915     32918
     32915     32918     32919     32915     32918     32920     32915     32918     32921
     32919     32918     32920     32919     32918     32921     32920     32918     32921
     32872     32922     32923     32872     32922     32924     32872     32922     32925
     32923     32922     32924     32923     32922     32925     32924     32922     32925
     32922     32925     32926     32922     32925     32927     32922     32925     32928
     32926     32925     32927     32926     32925     32928     32927     32925     32928
     32925     32928     32929     32925     32928     32930     32925     32928     32931
     32929     32928     32930     32929     32928     32931     32930     32928     32931
     32928     32931     32932     32928     32931     32933     32928     32931     32934
     32932     32931     32933     32932     32931     32934     32933     32931     32934
     32931     32934     32935     32931     32934     32936     32931     32934     32937
     32935     32934     32936     32935     32934     32937     32936     32934     32937
     32934     32937     32938     32934     32937     32939     32934     32937     32940
     32938     32937     32939     32938     32937     32940     32939     32937     32940
     32937     32940     32941     32937     32940     32942     32937     32940     32943
     32941     32940     32942     32941     32940     32943     32942     32940     32943
     32940     32943     32944     32940     32943     32945     32940     32943     32946
     32944     32943     32945     32944     32943     32946     32945     32943     32946
     32943     32946     32947     32943     32946     32948     32943     32946     32949
     32947     32946     32948     32947     32946     32949     32948     32946     32949
     32946     32949     32950     32946     32949     32951     32946     32949     32952
     32950     32949     32951     32950     32949     32952     32951     32949     32952
     32949     32952     32953     32949     32952     32954     32949     32952     32955
     32953     32952     32954     32953     32952     32955     32954     32952     32955
     32952     32955     32956     32952     32955     32957     32952     32955     32958
     32956     32955     32957     32956     32955     32958     32957     32955     32958
     32955     32958     32959     32955     32958     32960     32955     32958     32961
     32959     32958     32960     32959     32958     32961     32960     32958     32961
     32958     32961     32962     32958     32961     32963     32958     32961     32964
     32962     32961     32963     32962     32961     32964     32963     32961     32964
     32966     32965     32969     32966     32965     32973     32966     32965     32977
     32969     32965     32973     32969     32965     32977     32973     32965     32977
     32965     32966     32967     32965     32966     32968     32965     32966     32981
     32967     32966     32968     32967     32966     32981     32968     32966     32981
     32965     32969     32970     32965     32969     32971     32965     32969     32972
     32970     32969     32971     32970     32969     32972     32971     32969     32972
     32965     32973     32974     32965     32973     32975     32965     32973     32976
     32974     32973     32975     32974     32973     32976     32975     32973     32976
     32965     32977     32978     32965     32977     32979     32965     32977     32980
     32978     32977     32979     32978     32977     32980     32979     32977     32980
     32966     32981     32982     32966     32981     32983     32966     32981     32987
     32982     32981     32983     32982     32981     32987     32983     32981     32987
     32985     32984     32986     32985     32984     32987     32985     32984     32988
     32986     32984     32987     32986     32984     32988     32987     32984     32988
     32981     32987     32984     32984     32988     32989     32988     32989     32990
     32988     32989     32991     32988     32989     32992     32990     32989     32991
     32990     32989     32992     32991     32989     32992     32989     32992     32993
     32989     32992     32994     32989     32992     33000     32993     32992     32994
     32993     32992     33000     32994     32992     33000     32992     32994     32995
     32994     32995     32996     32994     32995     32997     32996     32995     32997
     32995     32997     32998     32995     32997     32999     32995     32997     33009
     32998     32997     32999     32998     32997     33009     32999     32997     33009
     32992     33000     33001     32992     33000     33002     32992     33000     33003
     33001     33000     33002     33001     33000     33003     33002     33000     33003
     33000     33003     33004     33003     33004     33005     33003     33004     33006
     33005     33004     33006     33004     33006     33007     33004     33006     33008
     33004     33006     33056     33007     33006     33008     33007     33006     33056
     33008     33006     33056     32997     33009     33010     32997     33009     33011
     32997     33009     33012     33010     33009     33011     33010     33009     33012
     33011     33009     33012     33009     33012     33013     33009     33012     33014
     33009     33012     33015     33013     33012     33014     33013     33012     33015
     33014     33012     33015     33012     33015     33016     33012     33015     33017
     33012     33015     33018     33016     33015     33017     33016     33015     33018
     33017     33015     33018     33015     33018     33019     33015     33018     33020
     33015     33018     33021     33019     33018     33020     33019     33018     33021
     33020     33018     33021     33018     33021     33022     33018     33021     33023
     33018     33021     33024     33022     33021     33023     33022     33021     33024
     33023     33021     33024     33021     33024     33025     33021     33024     33026
     33021     33024     33027     33025     33024     33026     33025     33024     33027
     33026     33024     33027     33024     33027     33028     33024     33027     33029
     33028     33027     33029     33027     33029     33030     33027     33029     33031
     33030     33029     33031     33029     33031     33032     33029     33031     33033
     33029     33031     33034     33032     33031     33033     33032     33031     33034
     33033     33031     33034     33031     33034     33035     33031     33034     33036
     33031     33034     33037     33035     33034     33036     33035     33034     33037
     33036     33034     33037     33034     33037     33038     33034     33037     33039
     33034     33037     33040     33038     33037     33039     33038     33037     33040
     33039     33037     33040     33037     33040     33041     33037     33040     33042
     33037     33040     33043     33041     33040     33042     33041     33040     33043
     33042     33040     33043     33040     33043     33044     33040     33043     33045
     33040     33043     33046     33044     33043     33045     33044     33043     33046
     33045     33043     33046     33043     33046     33047     33043     33046     33048
     33043     33046     33049     33047     33046     33048     33047     33046     33049
     33048     33046     33049     33046     33049     33050     33046     33049     33051
     33046     33049     33052     33050     33049     33051     33050     33049     33052
     33051     33049     33052     33049     33052     33053     33049     33052     33054
     33049     33052     33055     33053     33052     33054     33053     33052     33055
     33054     33052     33055     33006     33056     33057     33006     33056     33058
     33006     33056     33059     33057     33056     33058     33057     33056     33059
     33058     33056     33059     33056     33059     33060     33056     33059     33061
     33056     33059     33062     33060     33059     33061     33060     33059     33062
     33061     33059     33062     33059     33062     33063     33059     33062     33064
     33059     33062     33065     33063     33062     33064     33063     33062     33065
     33064     33062     33065     33062     33065     33066     33062     33065     33067
     33062     33065     33068     33066     33065     33067     33066     33065     33068
     33067     33065     33068     33065     33068     33069     33065     33068     33070
     33065     33068     33071     33069     33068     33070     33069     33068     33071
     33070     33068     33071     33068     33071     33072     33068     33071     33073
     33068     33071     33074     33072     33071     33073     33072     33071     33074
     33073     33071     33074     33071     33074     33075     33071     33074     33076
     33071     33074     33077     33075     33074     33076     33075     33074     33077
     33076     33074     33077     33074     33077     33078     33074     33077     33079
     33074     33077     33080     33078     33077     33079     33078     33077     33080
     33079     33077     33080     33077     33080     33081     33077     33080     33082
     33077     33080     33083     33081     33080     33082     33081     33080     33083
     33082     33080     33083     33080     33083     33084     33080     33083     33085
     33080     33083     33086     33084     33083     33085     33084     33083     33086
     33085     33083     33086     33083     33086     33087     33083     33086     33088
     33083     33086     33089     33087     33086     33088     33087     33086     33089
     33088     33086     33089     33086     33089     33090     33086     33089     33091
     33086     33089     33092     33090     33089     33091     33090     33089     33092
     33091     33089     33092     33089     33092     33093     33089     33092     33094
     33089     33092     33095     33093     33092     33094     33093     33092     33095
     33094     33092     33095     33092     33095     33096     33092     33095     33097
     33092     33095     33098     33096     33095     33097     33096     33095     33098
     33097     33095     33098     33100     33099     33103     33100     33099     33107
     33100     33099     33111     33103     33099     33107     33103     33099     33111
     33107     33099     33111     33099     33100     33101     33099     33100     33102
     33099     33100     33115     33101     33100     33102     33101     33100     33115
     33102     33100     33115     33099     33103     33104     33099     33103     33105
     33099     33103     33106     33104     33103     33105     33104     33103     33106
     33105     33103     33106     33099     33107     33108     33099     33107     33109
     33099     33107     33110     33108     33107     33109     33108     33107     33110
     33109     33107     33110     33099     33111     33112     33099     33111     33113
     33099     33111     33114     33112     33111     33113     33112     33111     33114
     33113     33111     33114     33100     33115     33116     33100     33115     33117
     33100     33115     33121     33116     33115     33117     33116     33115     33121
     33117     33115     33121     33119     33118     33120     33119     33118     33121
     33119     33118     33122     33120     33118     33121     33120     33118     33122
     33121     33118     33122     33115     33121     33118     33118     33122     33123
     33122     33123     33124     33122     33123     33125     33122     33123     33126
     33124     33123     33125     33124     33123     33126     33125     33123     33126
     33123     33126     33127     33123     33126     33128     33123     33126     33134
     33127     33126     33128     33127     33126     33134     33128     33126     33134
     33126     33128     33129     33128     33129     33130     33128     33129     33131
     33130     33129     33131     33129     33131     33132     33129     33131     33133
     33129     33131     33143     33132     33131     33133     33132     33131     33143
     33133     33131     33143     33126     33134     33135     33126     33134     33136
     33126     33134     33137     33135     33134     33136     33135     33134     33137
     33136     33134     33137     33134     33137     33138     33137     33138     33139
     33137     33138     33140     33139     33138     33140     33138     33140     33141
     33138     33140     33142     33138     33140     33190     33141     33140     33142
     33141     33140     33190     33142     33140     33190     33131     33143     33144
     33131     33143     33145     33131     33143     33146     33144     33143     33145
     33144     33143     33146     33145     33143     33146     33143     33146     33147
     33143     33146     33148     33143     33146     33149     33147     33146     33148
     33147     33146     33149     33148     33146     33149     33146     33149     33150
     33146     33149     33151     33146     33149     33152     33150     33149     33151
     33150     33149     33152     33151     33149     33152     33149     33152     33153
     33149     33152     33154     33149     33152     33155     33153     33152     33154
     33153     33152     33155     33154     33152     33155     33152     33155     33156
     33152     33155     33157     33152     33155     33158     33156     33155     33157
     33156     33155     33158     33157     33155     33158     33155     33158     33159
     33155     33158     33160     33155     33158     33161     33159     33158     33160
     33159     33158     33161     33160     33158     33161     33158     33161     33162
     33158     33161     33163     33162     33161     33163     33161     33163     33164
     33161     33163     33165     33164     33163     33165     33163     33165     33166
     33163     33165     33167     33163     33165     33168     33166     33165     33167
     33166     33165     33168     33167     33165     33168     33165     33168     33169
     33165     33168     33170     33165     33168     33171     33169     33168     33170
     33169     33168     33171     33170     33168     33171     33168     33171     33172
     33168     33171     33173     33168     33171     33174     33172     33171     33173
     33172     33171     33174     33173     33171     33174     33171     33174     33175
     33171     33174     33176     33171     33174     33177     33175     33174     33176
     33175     33174     33177     33176     33174     33177     33174     33177     33178
     33174     33177     33179     33174     33177     33180     33178     33177     33179
     33178     33177     33180     33179     33177     33180     33177     33180     33181
     33177     33180     33182     33177     33180     33183     33181     33180     33182
     33181     33180     33183     33182     33180     33183     33180     33183     33184
     33180     33183     33185     33180     33183     33186     33184     33183     33185
     33184     33183     33186     33185     33183     33186     33183     33186     33187
     33183     33186     33188     33183     33186     33189     33187     33186     33188
     33187     33186     33189     33188     33186     33189     33140     33190     33191
     33140     33190     33192     33140     33190     33193     33191     33190     33192
     33191     33190     33193     33192     33190     33193     33190     33193     33194
     33190     33193     33195     33190     33193     33196     33194     33193     33195
     33194     33193     33196     33195     33193     33196     33193     33196     33197
     33193     33196     33198     33193     33196     33199     33197     33196     33198
     33197     33196     33199     33198     33196     33199     33196     33199     33200
     33196     33199     33201     33196     33199     33202     33200     33199     33201
     33200     33199     33202     33201     33199     33202     33199     33202     33203
     33199     33202     33204     33199     33202     33205     33203     33202     33204
     33203     33202     33205     33204     33202     33205     33202     33205     33206
     33202     33205     33207     33202     33205     33208     33206     33205     33207
     33206     33205     33208     33207     33205     33208     33205     33208     33209
     33205     33208     33210     33205     33208     33211     33209     33208     33210
     33209     33208     33211     33210     33208     33211     33208     33211     33212
     33208     33211     33213     33208     33211     33214     33212     33211     33213
     33212     33211     33214     33213     33211     33214     33211     33214     33215
     33211     33214     33216     33211     33214     33217     33215     33214     33216
     33215     33214     33217     33216     33214     33217     33214     33217     33218
     33214     33217     33219     33214     33217     33220     33218     33217     33219
     33218     33217     33220     33219     33217     33220     33217     33220     33221
     33217     33220     33222     33217     33220     33223     33221     33220     33222
     33221     33220     33223     33222     33220     33223     33220     33223     33224
     33220     33223     33225     33220     33223     33226     33224     33223     33225
     33224     33223     33226     33225     33223     33226     33223     33226     33227
     33223     33226     33228     33223     33226     33229     33227     33226     33228
     33227     33226     33229     33228     33226     33229     33226     33229     33230
     33226     33229     33231     33226     33229     33232     33230     33229     33231
     33230     33229     33232     33231     33229     33232     33234     33233     33237
     33234     33233     33241     33234     33233     33245     33237     33233     33241
     33237     33233     33245     33241     33233     33245     33233     33234     33235
     33233     33234     33236     33233     33234     33249     33235     33234     33236
     33235     33234     33249     33236     33234     33249     33233     33237     33238
     33233     33237     33239     33233     33237     33240     33238     33237     33239
     33238     33237     33240     33239     33237     33240     33233     33241     33242
     33233     33241     33243     33233     33241     33244     33242     33241     33243
     33242     33241     33244     33243     33241     33244     33233     33245     33246
     33233     33245     33247     33233     33245     33248     33246     33245     33247
     33246     33245     33248     33247     33245     33248     33234     33249     33250
     33234     33249     33251     33234     33249     33255     33250     33249     33251
     33250     33249     33255     33251     33249     33255     33253     33252     33254
     33253     33252     33255     33253     33252     33256     33254     33252     33255
     33254     33252     33256     33255     33252     33256     33249     33255     33252
     33252     33256     33257     33256     33257     33258     33256     33257     33259
     33256     33257     33260     33258     33257     33259     33258     33257     33260
     33259     33257     33260     33257     33260     33261     33257     33260     33262
     33257     33260     33268     33261     33260     33262     33261     33260     33268
     33262     33260     33268     33260     33262     33263     33262     33263     33264
     33262     33263     33265     33264     33263     33265     33263     33265     33266
     33263     33265     33267     33263     33265     33277     33266     33265     33267
     33266     33265     33277     33267     33265     33277     33260     33268     33269
     33260     33268     33270     33260     33268     33271     33269     33268     33270
     33269     33268     33271     33270     33268     33271     33268     33271     33272
     33271     33272     33273     33271     33272     33274     33273     33272     33274
     33272     33274     33275     33272     33274     33276     33272     33274     33324
     33275     33274     33276     33275     33274     33324     33276     33274     33324
     33265     33277     33278     33265     33277     33279     33265     33277     33280
     33278     33277     33279     33278     33277     33280     33279     33277     33280
     33277     33280     33281     33277     33280     33282     33277     33280     33283
     33281     33280     33282     33281     33280     33283     33282     33280     33283
     33280     33283     33284     33280     33283     33285     33280     33283     33286
     33284     33283     33285     33284     33283     33286     33285     33283     33286
     33283     33286     33287     33283     33286     33288     33283     33286     33289
     33287     33286     33288     33287     33286     33289     33288     33286     33289
     33286     33289     33290     33286     33289     33291     33286     33289     33292
     33290     33289     33291     33290     33289     33292     33291     33289     33292
     33289     33292     33293     33289     33292     33294     33289     33292     33295
     33293     33292     33294     33293     33292     33295     33294     33292     33295
     33292     33295     33296     33292     33295     33297     33296     33295     33297
     33295     33297     33298     33295     33297     33299     33298     33297     33299
     33297     33299     33300     33297     33299     33301     33297     33299     33302
     33300     33299     33301     33300     33299     33302     33301     33299     33302
     33299     33302     33303     33299     33302     33304     33299     33302     33305
     33303     33302     33304     33303     33302     33305     33304     33302     33305
     33302     33305     33306     33302     33305     33307     33302     33305     33308
     33306     33305     33307     33306     33305     33308     33307     33305     33308
     33305     33308     33309     33305     33308     33310     33305     33308     33311
     33309     33308     33310     33309     33308     33311     33310     33308     33311
     33308     33311     33312     33308     33311     33313     33308     33311     33314
     33312     33311     33313     33312     33311     33314     33313     33311     33314
     33311     33314     33315     33311     33314     33316     33311     33314     33317
     33315     33314     33316     33315     33314     33317     33316     33314     33317
     33314     33317     33318     33314     33317     33319     33314     33317     33320
     33318     33317     33319     33318     33317     33320     33319     33317     33320
     33317     33320     33321     33317     33320     33322     33317     33320     33323
     33321     33320     33322     33321     33320     33323     33322     33320     33323
     33274     33324     33325     33274     33324     33326     33274     33324     33327
     33325     33324     33326     33325     33324     33327     33326     33324     33327
     33324     33327     33328     33324     33327     33329     33324     33327     33330
     33328     33327     33329     33328     33327     33330     33329     33327     33330
     33327     33330     33331     33327     33330     33332     33327     33330     33333
     33331     33330     33332     33331     33330     33333     33332     33330     33333
     33330     33333     33334     33330     33333     33335     33330     33333     33336
     33334     33333     33335     33334     33333     33336     33335     33333     33336
     33333     33336     33337     33333     33336     33338     33333     33336     33339
     33337     33336     33338     33337     33336     33339     33338     33336     33339
     33336     33339     33340     33336     33339     33341     33336     33339     33342
     33340     33339     33341     33340     33339     33342     33341     33339     33342
     33339     33342     33343     33339     33342     33344     33339     33342     33345
     33343     33342     33344     33343     33342     33345     33344     33342     33345
     33342     33345     33346     33342     33345     33347     33342     33345     33348
     33346     33345     33347     33346     33345     33348     33347     33345     33348
     33345     33348     33349     33345     33348     33350     33345     33348     33351
     33349     33348     33350     33349     33348     33351     33350     33348     33351
     33348     33351     33352     33348     33351     33353     33348     33351     33354
     33352     33351     33353     33352     33351     33354     33353     33351     33354
     33351     33354     33355     33351     33354     33356     33351     33354     33357
     33355     33354     33356     33355     33354     33357     33356     33354     33357
     33354     33357     33358     33354     33357     33359     33354     33357     33360
     33358     33357     33359     33358     33357     33360     33359     33357     33360
     33357     33360     33361     33357     33360     33362     33357     33360     33363
     33361     33360     33362     33361     33360     33363     33362     33360     33363
     33360     33363     33364     33360     33363     33365     33360     33363     33366
     33364     33363     33365     33364     33363     33366     33365     33363     33366
     33368     33367     33371     33368     33367     33375     33368     33367     33379
     33371     33367     33375     33371     33367     33379     33375     33367     33379
     33367     33368     33369     33367     33368     33370     33367     33368     33383
     33369     33368     33370     33369     33368     33383     33370     33368     33383
     33367     33371     33372     33367     33371     33373     33367     33371     33374
     33372     33371     33373     33372     33371     33374     33373     33371     33374
     33367     33375     33376     33367     33375     33377     33367     33375     33378
     33376     33375     33377     33376     33375     33378     33377     33375     33378
     33367     33379     33380     33367     33379     33381     33367     33379     33382
     33380     33379     33381     33380     33379     33382     33381     33379     33382
     33368     33383     33384     33368     33383     33385     33368     33383     33389
     33384     33383     33385     33384     33383     33389     33385     33383     33389
     33387     33386     33388     33387     33386     33389     33387     33386     33390
     33388     33386     33389     33388     33386     33390     33389     33386     33390
     33383     33389     33386     33386     33390     33391     33390     33391     33392
     33390     33391     33393     33390     33391     33394     33392     33391     33393
     33392     33391     33394     33393     33391     33394     33391     33394     33395
     33391     33394     33396     33391     33394     33402     33395     33394     33396
     33395     33394     33402     33396     33394     33402     33394     33396     33397
     33396     33397     33398     33396     33397     33399     33398     33397     33399
     33397     33399     33400     33397     33399     33401     33397     33399     33411
     33400     33399     33401     33400     33399     33411     33401     33399     33411
     33394     33402     33403     33394     33402     33404     33394     33402     33405
     33403     33402     33404     33403     33402     33405     33404     33402     33405
     33402     33405     33406     33405     33406     33407     33405     33406     33408
     33407     33406     33408     33406     33408     33409     33406     33408     33410
     33406     33408     33458     33409     33408     33410     33409     33408     33458
     33410     33408     33458     33399     33411     33412     33399     33411     33413
     33399     33411     33414     33412     33411     33413     33412     33411     33414
     33413     33411     33414     33411     33414     33415     33411     33414     33416
     33411     33414     33417     33415     33414     33416     33415     33414     33417
     33416     33414     33417     33414     33417     33418     33414     33417     33419
     33414     33417     33420     33418     33417     33419     33418     33417     33420
     33419     33417     33420     33417     33420     33421     33417     33420     33422
     33417     33420     33423     33421     33420     33422     33421     33420     33423
     33422     33420     33423     33420     33423     33424     33420     33423     33425
     33420     33423     33426     33424     33423     33425     33424     33423     33426
     33425     33423     33426     33423     33426     33427     33423     33426     33428
     33423     33426     33429     33427     33426     33428     33427     33426     33429
     33428     33426     33429     33426     33429     33430     33426     33429     33431
     33430     33429     33431     33429     33431     33432     33429     33431     33433
     33432     33431     33433     33431     33433     33434     33431     33433     33435
     33431     33433     33436     33434     33433     33435     33434     33433     33436
     33435     33433     33436     33433     33436     33437     33433     33436     33438
     33433     33436     33439     33437     33436     33438     33437     33436     33439
     33438     33436     33439     33436     33439     33440     33436     33439     33441
     33436     33439     33442     33440     33439     33441     33440     33439     33442
     33441     33439     33442     33439     33442     33443     33439     33442     33444
     33439     33442     33445     33443     33442     33444     33443     33442     33445
     33444     33442     33445     33442     33445     33446     33442     33445     33447
     33442     33445     33448     33446     33445     33447     33446     33445     33448
     33447     33445     33448     33445     33448     33449     33445     33448     33450
     33445     33448     33451     33449     33448     33450     33449     33448     33451
     33450     33448     33451     33448     33451     33452     33448     33451     33453
     33448     33451     33454     33452     33451     33453     33452     33451     33454
     33453     33451     33454     33451     33454     33455     33451     33454     33456
     33451     33454     33457     33455     33454     33456     33455     33454     33457
     33456     33454     33457     33408     33458     33459     33408     33458     33460
     33408     33458     33461     33459     33458     33460     33459     33458     33461
     33460     33458     33461     33458     33461     33462     33458     33461     33463
     33458     33461     33464     33462     33461     33463     33462     33461     33464
     33463     33461     33464     33461     33464     33465     33461     33464     33466
     33461     33464     33467     33465     33464     33466     33465     33464     33467
     33466     33464     33467     33464     33467     33468     33464     33467     33469
     33464     33467     33470     33468     33467     33469     33468     33467     33470
     33469     33467     33470     33467     33470     33471     33467     33470     33472
     33467     33470     33473     33471     33470     33472     33471     33470     33473
     33472     33470     33473     33470     33473     33474     33470     33473     33475
     33470     33473     33476     33474     33473     33475     33474     33473     33476
     33475     33473     33476     33473     33476     33477     33473     33476     33478
     33473     33476     33479     33477     33476     33478     33477     33476     33479
     33478     33476     33479     33476     33479     33480     33476     33479     33481
     33476     33479     33482     33480     33479     33481     33480     33479     33482
     33481     33479     33482     33479     33482     33483     33479     33482     33484
     33479     33482     33485     33483     33482     33484     33483     33482     33485
     33484     33482     33485     33482     33485     33486     33482     33485     33487
     33482     33485     33488     33486     33485     33487     33486     33485     33488
     33487     33485     33488     33485     33488     33489     33485     33488     33490
     33485     33488     33491     33489     33488     33490     33489     33488     33491
     33490     33488     33491     33488     33491     33492     33488     33491     33493
     33488     33491     33494     33492     33491     33493     33492     33491     33494
     33493     33491     33494     33491     33494     33495     33491     33494     33496
     33491     33494     33497     33495     33494     33496     33495     33494     33497
     33496     33494     33497     33494     33497     33498     33494     33497     33499
     33494     33497     33500     33498     33497     33499     33498     33497     33500
     33499     33497     33500     33502     33501     33505     33502     33501     33509
     33502     33501     33513     33505     33501     33509     33505     33501     33513
     33509     33501     33513     33501     33502     33503     33501     33502     33504
     33501     33502     33517     33503     33502     33504     33503     33502     33517
     33504     33502     33517     33501     33505     33506     33501     33505     33507
     33501     33505     33508     33506     33505     33507     33506     33505     33508
     33507     33505     33508     33501     33509     33510     33501     33509     33511
     33501     33509     33512     33510     33509     33511     33510     33509     33512
     33511     33509     33512     33501     33513     33514     33501     33513     33515
     33501     33513     33516     33514     33513     33515     33514     33513     33516
     33515     33513     33516     33502     33517     33518     33502     33517     33519
     33502     33517     33523     33518     33517     33519     33518     33517     33523
     33519     33517     33523     33521     33520     33522     33521     33520     33523
     33521     33520     33524     33522     33520     33523     33522     33520     33524
     33523     33520     33524     33517     33523     33520     33520     33524     33525
     33524     33525     33526     33524     33525     33527     33524     33525     33528
     33526     33525     33527     33526     33525     33528     33527     33525     33528
     33525     33528     33529     33525     33528     33530     33525     33528     33536
     33529     33528     33530     33529     33528     33536     33530     33528     33536
     33528     33530     33531     33530     33531     33532     33530     33531     33533
     33532     33531     33533     33531     33533     33534     33531     33533     33535
     33531     33533     33545     33534     33533     33535     33534     33533     33545
     33535     33533     33545     33528     33536     33537     33528     33536     33538
     33528     33536     33539     33537     33536     33538     33537     33536     33539
     33538     33536     33539     33536     33539     33540     33539     33540     33541
     33539     33540     33542     33541     33540     33542     33540     33542     33543
     33540     33542     33544     33540     33542     33592     33543     33542     33544
     33543     33542     33592     33544     33542     33592     33533     33545     33546
     33533     33545     33547     33533     33545     33548     33546     33545     33547
     33546     33545     33548     33547     33545     33548     33545     33548     33549
     33545     33548     33550     33545     33548     33551     33549     33548     33550
     33549     33548     33551     33550     33548     33551     33548     33551     33552
     33548     33551     33553     33548     33551     33554     33552     33551     33553
     33552     33551     33554     33553     33551     33554     33551     33554     33555
     33551     33554     33556     33551     33554     33557     33555     33554     33556
     33555     33554     33557     33556     33554     33557     33554     33557     33558
     33554     33557     33559     33554     33557     33560     33558     33557     33559
     33558     33557     33560     33559     33557     33560     33557     33560     33561
     33557     33560     33562     33557     33560     33563     33561     33560     33562
     33561     33560     33563     33562     33560     33563     33560     33563     33564
     33560     33563     33565     33564     33563     33565     33563     33565     33566
     33563     33565     33567     33566     33565     33567     33565     33567     33568
     33565     33567     33569     33565     33567     33570     33568     33567     33569
     33568     33567     33570     33569     33567     33570     33567     33570     33571
     33567     33570     33572     33567     33570     33573     33571     33570     33572
     33571     33570     33573     33572     33570     33573     33570     33573     33574
     33570     33573     33575     33570     33573     33576     33574     33573     33575
     33574     33573     33576     33575     33573     33576     33573     33576     33577
     33573     33576     33578     33573     33576     33579     33577     33576     33578
     33577     33576     33579     33578     33576     33579     33576     33579     33580
     33576     33579     33581     33576     33579     33582     33580     33579     33581
     33580     33579     33582     33581     33579     33582     33579     33582     33583
     33579     33582     33584     33579     33582     33585     33583     33582     33584
     33583     33582     33585     33584     33582     33585     33582     33585     33586
     33582     33585     33587     33582     33585     33588     33586     33585     33587
     33586     33585     33588     33587     33585     33588     33585     33588     33589
     33585     33588     33590     33585     33588     33591     33589     33588     33590
     33589     33588     33591     33590     33588     33591     33542     33592     33593
     33542     33592     33594     33542     33592     33595     33593     33592     33594
     33593     33592     33595     33594     33592     33595     33592     33595     33596
     33592     33595     33597     33592     33595     33598     33596     33595     33597
     33596     33595     33598     33597     33595     33598     33595     33598     33599
     33595     33598     33600     33595     33598     33601     33599     33598     33600
     33599     33598     33601     33600     33598     33601     33598     33601     33602
     33598     33601     33603     33598     33601     33604     33602     33601     33603
     33602     33601     33604     33603     33601     33604     33601     33604     33605
     33601     33604     33606     33601     33604     33607     33605     33604     33606
     33605     33604     33607     33606     33604     33607     33604     33607     33608
     33604     33607     33609     33604     33607     33610     33608     33607     33609
     33608     33607     33610     33609     33607     33610     33607     33610     33611
     33607     33610     33612     33607     33610     33613     33611     33610     33612
     33611     33610     33613     33612     33610     33613     33610     33613     33614
     33610     33613     33615     33610     33613     33616     33614     33613     33615
     33614     33613     33616     33615     33613     33616     33613     33616     33617
     33613     33616     33618     33613     33616     33619     33617     33616     33618
     33617     33616     33619     33618     33616     33619     33616     33619     33620
     33616     33619     33621     33616     33619     33622     33620     33619     33621
     33620     33619     33622     33621     33619     33622     33619     33622     33623
     33619     33622     33624     33619     33622     33625     33623     33622     33624
     33623     33622     33625     33624     33622     33625     33622     33625     33626
     33622     33625     33627     33622     33625     33628     33626     33625     33627
     33626     33625     33628     33627     33625     33628     33625     33628     33629
     33625     33628     33630     33625     33628     33631     33629     33628     33630
     33629     33628     33631     33630     33628     33631     33628     33631     33632
     33628     33631     33633     33628     33631     33634     33632     33631     33633
     33632     33631     33634     33633     33631     33634     33636     33635     33639
     33636     33635     33643     33636     33635     33647     33639     33635     33643
     33639     33635     33647     33643     33635     33647     33635     33636     33637
     33635     33636     33638     33635     33636     33651     33637     33636     33638
     33637     33636     33651     33638     33636     33651     33635     33639     33640
     33635     33639     33641     33635     33639     33642     33640     33639     33641
     33640     33639     33642     33641     33639     33642     33635     33643     33644
     33635     33643     33645     33635     33643     33646     33644     33643     33645
     33644     33643     33646     33645     33643     33646     33635     33647     33648
     33635     33647     33649     33635     33647     33650     33648     33647     33649
     33648     33647     33650     33649     33647     33650     33636     33651     33652
     33636     33651     33653     33636     33651     33657     33652     33651     33653
     33652     33651     33657     33653     33651     33657     33655     33654     33656
     33655     33654     33657     33655     33654     33658     33656     33654     33657
     33656     33654     33658     33657     33654     33658     33651     33657     33654
     33654     33658     33659     33658     33659     33660     33658     33659     33661
     33658     33659     33662     33660     33659     33661     33660     33659     33662
     33661     33659     33662     33659     33662     33663     33659     33662     33664
     33659     33662     33670     33663     33662     33664     33663     33662     33670
     33664     33662     33670     33662     33664     33665     33664     33665     33666
     33664     33665     33667     33666     33665     33667     33665     33667     33668
     33665     33667     33669     33665     33667     33679     33668     33667     33669
     33668     33667     33679     33669     33667     33679     33662     33670     33671
     33662     33670     33672     33662     33670     33673     33671     33670     33672
     33671     33670     33673     33672     33670     33673     33670     33673     33674
     33673     33674     33675     33673     33674     33676     33675     33674     33676
     33674     33676     33677     33674     33676     33678     33674     33676     33726
     33677     33676     33678     33677     33676     33726     33678     33676     33726
     33667     33679     33680     33667     33679     33681     33667     33679     33682
     33680     33679     33681     33680     33679     33682     33681     33679     33682
     33679     33682     33683     33679     33682     33684     33679     33682     33685
     33683     33682     33684     33683     33682     33685     33684     33682     33685
     33682     33685     33686     33682     33685     33687     33682     33685     33688
     33686     33685     33687     33686     33685     33688     33687     33685     33688
     33685     33688     33689     33685     33688     33690     33685     33688     33691
     33689     33688     33690     33689     33688     33691     33690     33688     33691
     33688     33691     33692     33688     33691     33693     33688     33691     33694
     33692     33691     33693     33692     33691     33694     33693     33691     33694
     33691     33694     33695     33691     33694     33696     33691     33694     33697
     33695     33694     33696     33695     33694     33697     33696     33694     33697
     33694     33697     33698     33694     33697     33699     33698     33697     33699
     33697     33699     33700     33697     33699     33701     33700     33699     33701
     33699     33701     33702     33699     33701     33703     33699     33701     33704
     33702     33701     33703     33702     33701     33704     33703     33701     33704
     33701     33704     33705     33701     33704     33706     33701     33704     33707
     33705     33704     33706     33705     33704     33707     33706     33704     33707
     33704     33707     33708     33704     33707     33709     33704     33707     33710
     33708     33707     33709     33708     33707     33710     33709     33707     33710
     33707     33710     33711     33707     33710     33712     33707     33710     33713
     33711     33710     33712     33711     33710     33713     33712     33710     33713
     33710     33713     33714     33710     33713     33715     33710     33713     33716
     33714     33713     33715     33714     33713     33716     33715     33713     33716
     33713     33716     33717     33713     33716     33718     33713     33716     33719
     33717     33716     33718     33717     33716     33719     33718     33716     33719
     33716     33719     33720     33716     33719     33721     33716     33719     33722
     33720     33719     33721     33720     33719     33722     33721     33719     33722
     33719     33722     33723     33719     33722     33724     33719     33722     33725
     33723     33722     33724     33723     33722     33725     33724     33722     33725
     33676     33726     33727     33676     33726     33728     33676     33726     33729
     33727     33726     33728     33727     33726     33729     33728     33726     33729
     33726     33729     33730     33726     33729     33731     33726     33729     33732
     33730     33729     33731     33730     33729     33732     33731     33729     33732
     33729     33732     33733     33729     33732     33734     33729     33732     33735
     33733     33732     33734     33733     33732     33735     33734     33732     33735
     33732     33735     33736     33732     33735     33737     33732     33735     33738
     33736     33735     33737     33736     33735     33738     33737     33735     33738
     33735     33738     33739     33735     33738     33740     33735     33738     33741
     33739     33738     33740     33739     33738     33741     33740     33738     33741
     33738     33741     33742     33738     33741     33743     33738     33741     33744
     33742     33741     33743     33742     33741     33744     33743     33741     33744
     33741     33744     33745     33741     33744     33746     33741     33744     33747
     33745     33744     33746     33745     33744     33747     33746     33744     33747
     33744     33747     33748     33744     33747     33749     33744     33747     33750
     33748     33747     33749     33748     33747     33750     33749     33747     33750
     33747     33750     33751     33747     33750     33752     33747     33750     33753
     33751     33750     33752     33751     33750     33753     33752     33750     33753
     33750     33753     33754     33750     33753     33755     33750     33753     33756
     33754     33753     33755     33754     33753     33756     33755     33753     33756
     33753     33756     33757     33753     33756     33758     33753     33756     33759
     33757     33756     33758     33757     33756     33759     33758     33756     33759
     33756     33759     33760     33756     33759     33761     33756     33759     33762
     33760     33759     33761     33760     33759     33762     33761     33759     33762
     33759     33762     33763     33759     33762     33764     33759     33762     33765
     33763     33762     33764     33763     33762     33765     33764     33762     33765
     33762     33765     33766     33762     33765     33767     33762     33765     33768
     33766     33765     33767     33766     33765     33768     33767     33765     33768
     33770     33769     33773     33770     33769     33777     33770     33769     33781
     33773     33769     33777     33773     33769     33781     33777     33769     33781
     33769     33770     33771     33769     33770     33772     33769     33770     33785
     33771     33770     33772     33771     33770     33785     33772     33770     33785
     33769     33773     33774     33769     33773     33775     33769     33773     33776
     33774     33773     33775     33774     33773     33776     33775     33773     33776
     33769     33777     33778     33769     33777     33779     33769     33777     33780
     33778     33777     33779     33778     33777     33780     33779     33777     33780
     33769     33781     33782     33769     33781     33783     33769     33781     33784
     33782     33781     33783     33782     33781     33784     33783     33781     33784
     33770     33785     33786     33770     33785     33787     33770     33785     33791
     33786     33785     33787     33786     33785     33791     33787     33785     33791
     33789     33788     33790     33789     33788     33791     33789     33788     33792
     33790     33788     33791     33790     33788     33792     33791     33788     33792
     33785     33791     33788     33788     33792     33793     33792     33793     33794
     33792     33793     33795     33792     33793     33796     33794     33793     33795
     33794     33793     33796     33795     33793     33796     33793     33796     33797
     33793     33796     33798     33793     33796     33804     33797     33796     33798
     33797     33796     33804     33798     33796     33804     33796     33798     33799
     33798     33799     33800     33798     33799     33801     33800     33799     33801
     33799     33801     33802     33799     33801     33803     33799     33801     33813
     33802     33801     33803     33802     33801     33813     33803     33801     33813
     33796     33804     33805     33796     33804     33806     33796     33804     33807
     33805     33804     33806     33805     33804     33807     33806     33804     33807
     33804     33807     33808     33807     33808     33809     33807     33808     33810
     33809     33808     33810     33808     33810     33811     33808     33810     33812
     33808     33810     33860     33811     33810     33812     33811     33810     33860
     33812     33810     33860     33801     33813     33814     33801     33813     33815
     33801     33813     33816     33814     33813     33815     33814     33813     33816
     33815     33813     33816     33813     33816     33817     33813     33816     33818
     33813     33816     33819     33817     33816     33818     33817     33816     33819
     33818     33816     33819     33816     33819     33820     33816     33819     33821
     33816     33819     33822     33820     33819     33821     33820     33819     33822
     33821     33819     33822     33819     33822     33823     33819     33822     33824
     33819     33822     33825     33823     33822     33824     33823     33822     33825
     33824     33822     33825     33822     33825     33826     33822     33825     33827
     33822     33825     33828     33826     33825     33827     33826     33825     33828
     33827     33825     33828     33825     33828     33829     33825     33828     33830
     33825     33828     33831     33829     33828     33830     33829     33828     33831
     33830     33828     33831     33828     33831     33832     33828     33831     33833
     33832     33831     33833     33831     33833     33834     33831     33833     33835
     33834     33833     33835     33833     33835     33836     33833     33835     33837
     33833     33835     33838     33836     33835     33837     33836     33835     33838
     33837     33835     33838     33835     33838     33839     33835     33838     33840
     33835     33838     33841     33839     33838     33840     33839     33838     33841
     33840     33838     33841     33838     33841     33842     33838     33841     33843
     33838     33841     33844     33842     33841     33843     33842     33841     33844
     33843     33841     33844     33841     33844     33845     33841     33844     33846
     33841     33844     33847     33845     33844     33846     33845     33844     33847
     33846     33844     33847     33844     33847     33848     33844     33847     33849
     33844     33847     33850     33848     33847     33849     33848     33847     33850
     33849     33847     33850     33847     33850     33851     33847     33850     33852
     33847     33850     33853     33851     33850     33852     33851     33850     33853
     33852     33850     33853     33850     33853     33854     33850     33853     33855
     33850     33853     33856     33854     33853     33855     33854     33853     33856
     33855     33853     33856     33853     33856     33857     33853     33856     33858
     33853     33856     33859     33857     33856     33858     33857     33856     33859
     33858     33856     33859     33810     33860     33861     33810     33860     33862
     33810     33860     33863     33861     33860     33862     33861     33860     33863
     33862     33860     33863     33860     33863     33864     33860     33863     33865
     33860     33863     33866     33864     33863     33865     33864     33863     33866
     33865     33863     33866     33863     33866     33867     33863     33866     33868
     33863     33866     33869     33867     33866     33868     33867     33866     33869
     33868     33866     33869     33866     33869     33870     33866     33869     33871
     33866     33869     33872     33870     33869     33871     33870     33869     33872
     33871     33869     33872     33869     33872     33873     33869     33872     33874
     33869     33872     33875     33873     33872     33874     33873     33872     33875
     33874     33872     33875     33872     33875     33876     33872     33875     33877
     33872     33875     33878     33876     33875     33877     33876     33875     33878
     33877     33875     33878     33875     33878     33879     33875     33878     33880
     33875     33878     33881     33879     33878     33880     33879     33878     33881
     33880     33878     33881     33878     33881     33882     33878     33881     33883
     33878     33881     33884     33882     33881     33883     33882     33881     33884
     33883     33881     33884     33881     33884     33885     33881     33884     33886
     33881     33884     33887     33885     33884     33886     33885     33884     33887
     33886     33884     33887     33884     33887     33888     33884     33887     33889
     33884     33887     33890     33888     33887     33889     33888     33887     33890
     33889     33887     33890     33887     33890     33891     33887     33890     33892
     33887     33890     33893     33891     33890     33892     33891     33890     33893
     33892     33890     33893     33890     33893     33894     33890     33893     33895
     33890     33893     33896     33894     33893     33895     33894     33893     33896
     33895     33893     33896     33893     33896     33897     33893     33896     33898
     33893     33896     33899     33897     33896     33898     33897     33896     33899
     33898     33896     33899     33896     33899     33900     33896     33899     33901
     33896     33899     33902     33900     33899     33901     33900     33899     33902
     33901     33899     33902     33904     33903     33907     33904     33903     33911
     33904     33903     33915     33907     33903     33911     33907     33903     33915
     33911     33903     33915     33903     33904     33905     33903     33904     33906
     33903     33904     33919     33905     33904     33906     33905     33904     33919
     33906     33904     33919     33903     33907     33908     33903     33907     33909
     33903     33907     33910     33908     33907     33909     33908     33907     33910
     33909     33907     33910     33903     33911     33912     33903     33911     33913
     33903     33911     33914     33912     33911     33913     33912     33911     33914
     33913     33911     33914     33903     33915     33916     33903     33915     33917
     33903     33915     33918     33916     33915     33917     33916     33915     33918
     33917     33915     33918     33904     33919     33920     33904     33919     33921
     33904     33919     33925     33920     33919     33921     33920     33919     33925
     33921     33919     33925     33923     33922     33924     33923     33922     33925
     33923     33922     33926     33924     33922     33925     33924     33922     33926
     33925     33922     33926     33919     33925     33922     33922     33926     33927
     33926     33927     33928     33926     33927     33929     33926     33927     33930
     33928     33927     33929     33928     33927     33930     33929     33927     33930
     33927     33930     33931     33927     33930     33932     33927     33930     33938
     33931     33930     33932     33931     33930     33938     33932     33930     33938
     33930     33932     33933     33932     33933     33934     33932     33933     33935
     33934     33933     33935     33933     33935     33936     33933     33935     33937
     33933     33935     33947     33936     33935     33937     33936     33935     33947
     33937     33935     33947     33930     33938     33939     33930     33938     33940
     33930     33938     33941     33939     33938     33940     33939     33938     33941
     33940     33938     33941     33938     33941     33942     33941     33942     33943
     33941     33942     33944     33943     33942     33944     33942     33944     33945
     33942     33944     33946     33942     33944     33994     33945     33944     33946
     33945     33944     33994     33946     33944     33994     33935     33947     33948
     33935     33947     33949     33935     33947     33950     33948     33947     33949
     33948     33947     33950     33949     33947     33950     33947     33950     33951
     33947     33950     33952     33947     33950     33953     33951     33950     33952
     33951     33950     33953     33952     33950     33953     33950     33953     33954
     33950     33953     33955     33950     33953     33956     33954     33953     33955
     33954     33953     33956     33955     33953     33956     33953     33956     33957
     33953     33956     33958     33953     33956     33959     33957     33956     33958
     33957     33956     33959     33958     33956     33959     33956     33959     33960
     33956     33959     33961     33956     33959     33962     33960     33959     33961
     33960     33959     33962     33961     33959     33962     33959     33962     33963
     33959     33962     33964     33959     33962     33965     33963     33962     33964
     33963     33962     33965     33964     33962     33965     33962     33965     33966
     33962     33965     33967     33966     33965     33967     33965     33967     33968
     33965     33967     33969     33968     33967     33969     33967     33969     33970
     33967     33969     33971     33967     33969     33972     33970     33969     33971
     33970     33969     33972     33971     33969     33972     33969     33972     33973
     33969     33972     33974     33969     33972     33975     33973     33972     33974
     33973     33972     33975     33974     33972     33975     33972     33975     33976
     33972     33975     33977     33972     33975     33978     33976     33975     33977
     33976     33975     33978     33977     33975     33978     33975     33978     33979
     33975     33978     33980     33975     33978     33981     33979     33978     33980
     33979     33978     33981     33980     33978     33981     33978     33981     33982
     33978     33981     33983     33978     33981     33984     33982     33981     33983
     33982     33981     33984     33983     33981     33984     33981     33984     33985
     33981     33984     33986     33981     33984     33987     33985     33984     33986
     33985     33984     33987     33986     33984     33987     33984     33987     33988
     33984     33987     33989     33984     33987     33990     33988     33987     33989
     33988     33987     33990     33989     33987     33990     33987     33990     33991
     33987     33990     33992     33987     33990     33993     33991     33990     33992
     33991     33990     33993     33992     33990     33993     33944     33994     33995
     33944     33994     33996     33944     33994     33997     33995     33994     33996
     33995     33994     33997     33996     33994     33997     33994     33997     33998
     33994     33997     33999     33994     33997     34000     33998     33997     33999
     33998     33997     34000     33999     33997     34000     33997     34000     34001
     33997     34000     34002     33997     34000     34003     34001     34000     34002
     34001     34000     34003     34002     34000     34003     34000     34003     34004
     34000     34003     34005     34000     34003     34006     34004     34003     34005
     34004     34003     34006     34005     34003     34006     34003     34006     34007
     34003     34006     34008     34003     34006     34009     34007     34006     34008
     34007     34006     34009     34008     34006     34009     34006     34009     34010
     34006     34009     34011     34006     34009     34012     34010     34009     34011
     34010     34009     34012     34011     34009     34012     34009     34012     34013
     34009     34012     34014     34009     34012     34015     34013     34012     34014
     34013     34012     34015     34014     34012     34015     34012     34015     34016
     34012     34015     34017     34012     34015     34018     34016     34015     34017
     34016     34015     34018     34017     34015     34018     34015     34018     34019
     34015     34018     34020     34015     34018     34021     34019     34018     34020
     34019     34018     34021     34020     34018     34021     34018     34021     34022
     34018     34021     34023     34018     34021     34024     34022     34021     34023
     34022     34021     34024     34023     34021     34024     34021     34024     34025
     34021     34024     34026     34021     34024     34027     34025     34024     34026
     34025     34024     34027     34026     34024     34027     34024     34027     34028
     34024     34027     34029     34024     34027     34030     34028     34027     34029
     34028     34027     34030     34029     34027     34030     34027     34030     34031
     34027     34030     34032     34027     34030     34033     34031     34030     34032
     34031     34030     34033     34032     34030     34033     34030     34033     34034
     34030     34033     34035     34030     34033     34036     34034     34033     34035
     34034     34033     34036     34035     34033     34036     34038     34037     34041
     34038     34037     34045     34038     34037     34049     34041     34037     34045
     34041     34037     34049     34045     34037     34049     34037     34038     34039
     34037     34038     34040     34037     34038     34053     34039     34038     34040
     34039     34038     34053     34040     34038     34053     34037     34041     34042
     34037     34041     34043     34037     34041     34044     34042     34041     34043
     34042     34041     34044     34043     34041     34044     34037     34045     34046
     34037     34045     34047     34037     34045     34048     34046     34045     34047
     34046     34045     34048     34047     34045     34048     34037     34049     34050
     34037     34049     34051     34037     34049     34052     34050     34049     34051
     34050     34049     34052     34051     34049     34052     34038     34053     34054
     34038     34053     34055     34038     34053     34059     34054     34053     34055
     34054     34053     34059     34055     34053     34059     34057     34056     34058
     34057     34056     34059     34057     34056     34060     34058     34056     34059
     34058     34056     34060     34059     34056     34060     34053     34059     34056
     34056     34060     34061     34060     34061     34062     34060     34061     34063
     34060     34061     34064     34062     34061     34063     34062     34061     34064
     34063     34061     34064     34061     34064     34065     34061     34064     34066
     34061     34064     34072     34065     34064     34066     34065     34064     34072
     34066     34064     34072     34064     34066     34067     34066     34067     34068
     34066     34067     34069     34068     34067     34069     34067     34069     34070
     34067     34069     34071     34067     34069     34081     34070     34069     34071
     34070     34069     34081     34071     34069     34081     34064     34072     34073
     34064     34072     34074     34064     34072     34075     34073     34072     34074
     34073     34072     34075     34074     34072     34075     34072     34075     34076
     34075     34076     34077     34075     34076     34078     34077     34076     34078
     34076     34078     34079     34076     34078     34080     34076     34078     34128
     34079     34078     34080     34079     34078     34128     34080     34078     34128
     34069     34081     34082     34069     34081     34083     34069     34081     34084
     34082     34081     34083     34082     34081     34084     34083     34081     34084
     34081     34084     34085     34081     34084     34086     34081     34084     34087
     34085     34084     34086     34085     34084     34087     34086     34084     34087
     34084     34087     34088     34084     34087     34089     34084     34087     34090
     34088     34087     34089     34088     34087     34090     34089     34087     34090
     34087     34090     34091     34087     34090     34092     34087     34090     34093
     34091     34090     34092     34091     34090     34093     34092     34090     34093
     34090     34093     34094     34090     34093     34095     34090     34093     34096
     34094     34093     34095     34094     34093     34096     34095     34093     34096
     34093     34096     34097     34093     34096     34098     34093     34096     34099
     34097     34096     34098     34097     34096     34099     34098     34096     34099
     34096     34099     34100     34096     34099     34101     34100     34099     34101
     34099     34101     34102     34099     34101     34103     34102     34101     34103
     34101     34103     34104     34101     34103     34105     34101     34103     34106
     34104     34103     34105     34104     34103     34106     34105     34103     34106
     34103     34106     34107     34103     34106     34108     34103     34106     34109
     34107     34106     34108     34107     34106     34109     34108     34106     34109
     34106     34109     34110     34106     34109     34111     34106     34109     34112
     34110     34109     34111     34110     34109     34112     34111     34109     34112
     34109     34112     34113     34109     34112     34114     34109     34112     34115
     34113     34112     34114     34113     34112     34115     34114     34112     34115
     34112     34115     34116     34112     34115     34117     34112     34115     34118
     34116     34115     34117     34116     34115     34118     34117     34115     34118
     34115     34118     34119     34115     34118     34120     34115     34118     34121
     34119     34118     34120     34119     34118     34121     34120     34118     34121
     34118     34121     34122     34118     34121     34123     34118     34121     34124
     34122     34121     34123     34122     34121     34124     34123     34121     34124
     34121     34124     34125     34121     34124     34126     34121     34124     34127
     34125     34124     34126     34125     34124     34127     34126     34124     34127
     34078     34128     34129     34078     34128     34130     34078     34128     34131
     34129     34128     34130     34129     34128     34131     34130     34128     34131
     34128     34131     34132     34128     34131     34133     34128     34131     34134
     34132     34131     34133     34132     34131     34134     34133     34131     34134
     34131     34134     34135     34131     34134     34136     34131     34134     34137
     34135     34134     34136     34135     34134     34137     34136     34134     34137
     34134     34137     34138     34134     34137     34139     34134     34137     34140
     34138     34137     34139     34138     34137     34140     34139     34137     34140
     34137     34140     34141     34137     34140     34142     34137     34140     34143
     34141     34140     34142     34141     34140     34143     34142     34140     34143
     34140     34143     34144     34140     34143     34145     34140     34143     34146
     34144     34143     34145     34144     34143     34146     34145     34143     34146
     34143     34146     34147     34143     34146     34148     34143     34146     34149
     34147     34146     34148     34147     34146     34149     34148     34146     34149
     34146     34149     34150     34146     34149     34151     34146     34149     34152
     34150     34149     34151     34150     34149     34152     34151     34149     34152
     34149     34152     34153     34149     34152     34154     34149     34152     34155
     34153     34152     34154     34153     34152     34155     34154     34152     34155
     34152     34155     34156     34152     34155     34157     34152     34155     34158
     34156     34155     34157     34156     34155     34158     34157     34155     34158
     34155     34158     34159     34155     34158     34160     34155     34158     34161
     34159     34158     34160     34159     34158     34161     34160     34158     34161
     34158     34161     34162     34158     34161     34163     34158     34161     34164
     34162     34161     34163     34162     34161     34164     34163     34161     34164
     34161     34164     34165     34161     34164     34166     34161     34164     34167
     34165     34164     34166     34165     34164     34167     34166     34164     34167
     34164     34167     34168     34164     34167     34169     34164     34167     34170
     34168     34167     34169     34168     34167     34170     34169     34167     34170
     34172     34171     34175     34172     34171     34179     34172     34171     34183
     34175     34171     34179     34175     34171     34183     34179     34171     34183
     34171     34172     34173     34171     34172     34174     34171     34172     34187
     34173     34172     34174     34173     34172     34187     34174     34172     34187
     34171     34175     34176     34171     34175     34177     34171     34175     34178
     34176     34175     34177     34176     34175     34178     34177     34175     34178
     34171     34179     34180     34171     34179     34181     34171     34179     34182
     34180     34179     34181     34180     34179     34182     34181     34179     34182
     34171     34183     34184     34171     34183     34185     34171     34183     34186
     34184     34183     34185     34184     34183     34186     34185     34183     34186
     34172     34187     34188     34172     34187     34189     34172     34187     34193
     34188     34187     34189     34188     34187     34193     34189     34187     34193
     34191     34190     34192     34191     34190     34193     34191     34190     34194
     34192     34190     34193     34192     34190     34194     34193     34190     34194
     34187     34193     34190     34190     34194     34195     34194     34195     34196
     34194     34195     34197     34194     34195     34198     34196     34195     34197
     34196     34195     34198     34197     34195     34198     34195     34198     34199
     34195     34198     34200     34195     34198     34206     34199     34198     34200
     34199     34198     34206     34200     34198     34206     34198     34200     34201
     34200     34201     34202     34200     34201     34203     34202     34201     34203
     34201     34203     34204     34201     34203     34205     34201     34203     34215
     34204     34203     34205     34204     34203     34215     34205     34203     34215
     34198     34206     34207     34198     34206     34208     34198     34206     34209
     34207     34206     34208     34207     34206     34209     34208     34206     34209
     34206     34209     34210     34209     34210     34211     34209     34210     34212
     34211     34210     34212     34210     34212     34213     34210     34212     34214
     34210     34212     34262     34213     34212     34214     34213     34212     34262
     34214     34212     34262     34203     34215     34216     34203     34215     34217
     34203     34215     34218     34216     34215     34217     34216     34215     34218
     34217     34215     34218     34215     34218     34219     34215     34218     34220
     34215     34218     34221     34219     34218     34220     34219     34218     34221
     34220     34218     34221     34218     34221     34222     34218     34221     34223
     34218     34221     34224     34222     34221     34223     34222     34221     34224
     34223     34221     34224     34221     34224     34225     34221     34224     34226
     34221     34224     34227     34225     34224     34226     34225     34224     34227
     34226     34224     34227     34224     34227     34228     34224     34227     34229
     34224     34227     34230     34228     34227     34229     34228     34227     34230
     34229     34227     34230     34227     34230     34231     34227     34230     34232
     34227     34230     34233     34231     34230     34232     34231     34230     34233
     34232     34230     34233     34230     34233     34234     34230     34233     34235
     34234     34233     34235     34233     34235     34236     34233     34235     34237
     34236     34235     34237     34235     34237     34238     34235     34237     34239
     34235     34237     34240     34238     34237     34239     34238     34237     34240
     34239     34237     34240     34237     34240     34241     34237     34240     34242
     34237     34240     34243     34241     34240     34242     34241     34240     34243
     34242     34240     34243     34240     34243     34244     34240     34243     34245
     34240     34243     34246     34244     34243     34245     34244     34243     34246
     34245     34243     34246     34243     34246     34247     34243     34246     34248
     34243     34246     34249     34247     34246     34248     34247     34246     34249
     34248     34246     34249     34246     34249     34250     34246     34249     34251
     34246     34249     34252     34250     34249     34251     34250     34249     34252
     34251     34249     34252     34249     34252     34253     34249     34252     34254
     34249     34252     34255     34253     34252     34254     34253     34252     34255
     34254     34252     34255     34252     34255     34256     34252     34255     34257
     34252     34255     34258     34256     34255     34257     34256     34255     34258
     34257     34255     34258     34255     34258     34259     34255     34258     34260
     34255     34258     34261     34259     34258     34260     34259     34258     34261
     34260     34258     34261     34212     34262     34263     34212     34262     34264
     34212     34262     34265     34263     34262     34264     34263     34262     34265
     34264     34262     34265     34262     34265     34266     34262     34265     34267
     34262     34265     34268     34266     34265     34267     34266     34265     34268
     34267     34265     34268     34265     34268     34269     34265     34268     34270
     34265     34268     34271     34269     34268     34270     34269     34268     34271
     34270     34268     34271     34268     34271     34272     34268     34271     34273
     34268     34271     34274     34272     34271     34273     34272     34271     34274
     34273     34271     34274     34271     34274     34275     34271     34274     34276
     34271     34274     34277     34275     34274     34276     34275     34274     34277
     34276     34274     34277     34274     34277     34278     34274     34277     34279
     34274     34277     34280     34278     34277     34279     34278     34277     34280
     34279     34277     34280     34277     34280     34281     34277     34280     34282
     34277     34280     34283     34281     34280     34282     34281     34280     34283
     34282     34280     34283     34280     34283     34284     34280     34283     34285
     34280     34283     34286     34284     34283     34285     34284     34283     34286
     34285     34283     34286     34283     34286     34287     34283     34286     34288
     34283     34286     34289     34287     34286     34288     34287     34286     34289
     34288     34286     34289     34286     34289     34290     34286     34289     34291
     34286     34289     34292     34290     34289     34291     34290     34289     34292
     34291     34289     34292     34289     34292     34293     34289     34292     34294
     34289     34292     34295     34293     34292     34294     34293     34292     34295
     34294     34292     34295     34292     34295     34296     34292     34295     34297
     34292     34295     34298     34296     34295     34297     34296     34295     34298
     34297     34295     34298     34295     34298     34299     34295     34298     34300
     34295     34298     34301     34299     34298     34300     34299     34298     34301
     34300     34298     34301     34298     34301     34302     34298     34301     34303
     34298     34301     34304     34302     34301     34303     34302     34301     34304
     34303     34301     34304     34306     34305     34309     34306     34305     34313
     34306     34305     34317     34309     34305     34313     34309     34305     34317
     34313     34305     34317     34305     34306     34307     34305     34306     34308
     34305     34306     34321     34307     34306     34308     34307     34306     34321
     34308     34306     34321     34305     34309     34310     34305     34309     34311
     34305     34309     34312     34310     34309     34311     34310     34309     34312
     34311     34309     34312     34305     34313     34314     34305     34313     34315
     34305     34313     34316     34314     34313     34315     34314     34313     34316
     34315     34313     34316     34305     34317     34318     34305     34317     34319
     34305     34317     34320     34318     34317     34319     34318     34317     34320
     34319     34317     34320     34306     34321     34322     34306     34321     34323
     34306     34321     34327     34322     34321     34323     34322     34321     34327
     34323     34321     34327     34325     34324     34326     34325     34324     34327
     34325     34324     34328     34326     34324     34327     34326     34324     34328
     34327     34324     34328     34321     34327     34324     34324     34328     34329
     34328     34329     34330     34328     34329     34331     34328     34329     34332
     34330     34329     34331     34330     34329     34332     34331     34329     34332
     34329     34332     34333     34329     34332     34334     34329     34332     34340
     34333     34332     34334     34333     34332     34340     34334     34332     34340
     34332     34334     34335     34334     34335     34336     34334     34335     34337
     34336     34335     34337     34335     34337     34338     34335     34337     34339
     34335     34337     34349     34338     34337     34339     34338     34337     34349
     34339     34337     34349     34332     34340     34341     34332     34340     34342
     34332     34340     34343     34341     34340     34342     34341     34340     34343
     34342     34340     34343     34340     34343     34344     34343     34344     34345
     34343     34344     34346     34345     34344     34346     34344     34346     34347
     34344     34346     34348     34344     34346     34396     34347     34346     34348
     34347     34346     34396     34348     34346     34396     34337     34349     34350
     34337     34349     34351     34337     34349     34352     34350     34349     34351
     34350     34349     34352     34351     34349     34352     34349     34352     34353
     34349     34352     34354     34349     34352     34355     34353     34352     34354
     34353     34352     34355     34354     34352     34355     34352     34355     34356
     34352     34355     34357     34352     34355     34358     34356     34355     34357
     34356     34355     34358     34357     34355     34358     34355     34358     34359
     34355     34358     34360     34355     34358     34361     34359     34358     34360
     34359     34358     34361     34360     34358     34361     34358     34361     34362
     34358     34361     34363     34358     34361     34364     34362     34361     34363
     34362     34361     34364     34363     34361     34364     34361     34364     34365
     34361     34364     34366     34361     34364     34367     34365     34364     34366
     34365     34364     34367     34366     34364     34367     34364     34367     34368
     34364     34367     34369     34368     34367     34369     34367     34369     34370
     34367     34369     34371     34370     34369     34371     34369     34371     34372
     34369     34371     34373     34369     34371     34374     34372     34371     34373
     34372     34371     34374     34373     34371     34374     34371     34374     34375
     34371     34374     34376     34371     34374     34377     34375     34374     34376
     34375     34374     34377     34376     34374     34377     34374     34377     34378
     34374     34377     34379     34374     34377     34380     34378     34377     34379
     34378     34377     34380     34379     34377     34380     34377     34380     34381
     34377     34380     34382     34377     34380     34383     34381     34380     34382
     34381     34380     34383     34382     34380     34383     34380     34383     34384
     34380     34383     34385     34380     34383     34386     34384     34383     34385
     34384     34383     34386     34385     34383     34386     34383     34386     34387
     34383     34386     34388     34383     34386     34389     34387     34386     34388
     34387     34386     34389     34388     34386     34389     34386     34389     34390
     34386     34389     34391     34386     34389     34392     34390     34389     34391
     34390     34389     34392     34391     34389     34392     34389     34392     34393
     34389     34392     34394     34389     34392     34395     34393     34392     34394
     34393     34392     34395     34394     34392     34395     34346     34396     34397
     34346     34396     34398     34346     34396     34399     34397     34396     34398
     34397     34396     34399     34398     34396     34399     34396     34399     34400
     34396     34399     34401     34396     34399     34402     34400     34399     34401
     34400     34399     34402     34401     34399     34402     34399     34402     34403
     34399     34402     34404     34399     34402     34405     34403     34402     34404
     34403     34402     34405     34404     34402     34405     34402     34405     34406
     34402     34405     34407     34402     34405     34408     34406     34405     34407
     34406     34405     34408     34407     34405     34408     34405     34408     34409
     34405     34408     34410     34405     34408     34411     34409     34408     34410
     34409     34408     34411     34410     34408     34411     34408     34411     34412
     34408     34411     34413     34408     34411     34414     34412     34411     34413
     34412     34411     34414     34413     34411     34414     34411     34414     34415
     34411     34414     34416     34411     34414     34417     34415     34414     34416
     34415     34414     34417     34416     34414     34417     34414     34417     34418
     34414     34417     34419     34414     34417     34420     34418     34417     34419
     34418     34417     34420     34419     34417     34420     34417     34420     34421
     34417     34420     34422     34417     34420     34423     34421     34420     34422
     34421     34420     34423     34422     34420     34423     34420     34423     34424
     34420     34423     34425     34420     34423     34426     34424     34423     34425
     34424     34423     34426     34425     34423     34426     34423     34426     34427
     34423     34426     34428     34423     34426     34429     34427     34426     34428
     34427     34426     34429     34428     34426     34429     34426     34429     34430
     34426     34429     34431     34426     34429     34432     34430     34429     34431
     34430     34429     34432     34431     34429     34432     34429     34432     34433
     34429     34432     34434     34429     34432     34435     34433     34432     34434
     34433     34432     34435     34434     34432     34435     34432     34435     34436
     34432     34435     34437     34432     34435     34438     34436     34435     34437
     34436     34435     34438     34437     34435     34438     34440     34439     34443
     34440     34439     34447     34440     34439     34451     34443     34439     34447
     34443     34439     34451     34447     34439     34451     34439     34440     34441
     34439     34440     34442     34439     34440     34455     34441     34440     34442
     34441     34440     34455     34442     34440     34455     34439     34443     34444
     34439     34443     34445     34439     34443     34446     34444     34443     34445
     34444     34443     34446     34445     34443     34446     34439     34447     34448
     34439     34447     34449     34439     34447     34450     34448     34447     34449
     34448     34447     34450     34449     34447     34450     34439     34451     34452
     34439     34451     34453     34439     34451     34454     34452     34451     34453
     34452     34451     34454     34453     34451     34454     34440     34455     34456
     34440     34455     34457     34440     34455     34461     34456     34455     34457
     34456     34455     34461     34457     34455     34461     34459     34458     34460
     34459     34458     34461     34459     34458     34462     34460     34458     34461
     34460     34458     34462     34461     34458     34462     34455     34461     34458
     34458     34462     34463     34462     34463     34464     34462     34463     34465
     34462     34463     34466     34464     34463     34465     34464     34463     34466
     34465     34463     34466     34463     34466     34467     34463     34466     34468
     34463     34466     34474     34467     34466     34468     34467     34466     34474
     34468     34466     34474     34466     34468     34469     34468     34469     34470
     34468     34469     34471     34470     34469     34471     34469     34471     34472
     34469     34471     34473     34469     34471     34483     34472     34471     34473
     34472     34471     34483     34473     34471     34483     34466     34474     34475
     34466     34474     34476     34466     34474     34477     34475     34474     34476
     34475     34474     34477     34476     34474     34477     34474     34477     34478
     34477     34478     34479     34477     34478     34480     34479     34478     34480
     34478     34480     34481     34478     34480     34482     34478     34480     34530
     34481     34480     34482     34481     34480     34530     34482     34480     34530
     34471     34483     34484     34471     34483     34485     34471     34483     34486
     34484     34483     34485     34484     34483     34486     34485     34483     34486
     34483     34486     34487     34483     34486     34488     34483     34486     34489
     34487     34486     34488     34487     34486     34489     34488     34486     34489
     34486     34489     34490     34486     34489     34491     34486     34489     34492
     34490     34489     34491     34490     34489     34492     34491     34489     34492
     34489     34492     34493     34489     34492     34494     34489     34492     34495
     34493     34492     34494     34493     34492     34495     34494     34492     34495
     34492     34495     34496     34492     34495     34497     34492     34495     34498
     34496     34495     34497     34496     34495     34498     34497     34495     34498
     34495     34498     34499     34495     34498     34500     34495     34498     34501
     34499     34498     34500     34499     34498     34501     34500     34498     34501
     34498     34501     34502     34498     34501     34503     34502     34501     34503
     34501     34503     34504     34501     34503     34505     34504     34503     34505
     34503     34505     34506     34503     34505     34507     34503     34505     34508
     34506     34505     34507     34506     34505     34508     34507     34505     34508
     34505     34508     34509     34505     34508     34510     34505     34508     34511
     34509     34508     34510     34509     34508     34511     34510     34508     34511
     34508     34511     34512     34508     34511     34513     34508     34511     34514
     34512     34511     34513     34512     34511     34514     34513     34511     34514
     34511     34514     34515     34511     34514     34516     34511     34514     34517
     34515     34514     34516     34515     34514     34517     34516     34514     34517
     34514     34517     34518     34514     34517     34519     34514     34517     34520
     34518     34517     34519     34518     34517     34520     34519     34517     34520
     34517     34520     34521     34517     34520     34522     34517     34520     34523
     34521     34520     34522     34521     34520     34523     34522     34520     34523
     34520     34523     34524     34520     34523     34525     34520     34523     34526
     34524     34523     34525     34524     34523     34526     34525     34523     34526
     34523     34526     34527     34523     34526     34528     34523     34526     34529
     34527     34526     34528     34527     34526     34529     34528     34526     34529
     34480     34530     34531     34480     34530     34532     34480     34530     34533
     34531     34530     34532     34531     34530     34533     34532     34530     34533
     34530     34533     34534     34530     34533     34535     34530     34533     34536
     34534     34533     34535     34534     34533     34536     34535     34533     34536
     34533     34536     34537     34533     34536     34538     34533     34536     34539
     34537     34536     34538     34537     34536     34539     34538     34536     34539
     34536     34539     34540     34536     34539     34541     34536     34539     34542
     34540     34539     34541     34540     34539     34542     34541     34539     34542
     34539     34542     34543     34539     34542     34544     34539     34542     34545
     34543     34542     34544     34543     34542     34545     34544     34542     34545
     34542     34545     34546     34542     34545     34547     34542     34545     34548
     34546     34545     34547     34546     34545     34548     34547     34545     34548
     34545     34548     34549     34545     34548     34550     34545     34548     34551
     34549     34548     34550     34549     34548     34551     34550     34548     34551
     34548     34551     34552     34548     34551     34553     34548     34551     34554
     34552     34551     34553     34552     34551     34554     34553     34551     34554
     34551     34554     34555     34551     34554     34556     34551     34554     34557
     34555     34554     34556     34555     34554     34557     34556     34554     34557
     34554     34557     34558     34554     34557     34559     34554     34557     34560
     34558     34557     34559     34558     34557     34560     34559     34557     34560
     34557     34560     34561     34557     34560     34562     34557     34560     34563
     34561     34560     34562     34561     34560     34563     34562     34560     34563
     34560     34563     34564     34560     34563     34565     34560     34563     34566
     34564     34563     34565     34564     34563     34566     34565     34563     34566
     34563     34566     34567     34563     34566     34568     34563     34566     34569
     34567     34566     34568     34567     34566     34569     34568     34566     34569
     34566     34569     34570     34566     34569     34571     34566     34569     34572
     34570     34569     34571     34570     34569     34572     34571     34569     34572
     34574     34573     34577     34574     34573     34581     34574     34573     34585
     34577     34573     34581     34577     34573     34585     34581     34573     34585
     34573     34574     34575     34573     34574     34576     34573     34574     34589
     34575     34574     34576     34575     34574     34589     34576     34574     34589
     34573     34577     34578     34573     34577     34579     34573     34577     34580
     34578     34577     34579     34578     34577     34580     34579     34577     34580
     34573     34581     34582     34573     34581     34583     34573     34581     34584
     34582     34581     34583     34582     34581     34584     34583     34581     34584
     34573     34585     34586     34573     34585     34587     34573     34585     34588
     34586     34585     34587     34586     34585     34588     34587     34585     34588
     34574     34589     34590     34574     34589     34591     34574     34589     34595
     34590     34589     34591     34590     34589     34595     34591     34589     34595
     34593     34592     34594     34593     34592     34595     34593     34592     34596
     34594     34592     34595     34594     34592     34596     34595     34592     34596
     34589     34595     34592     34592     34596     34597     34596     34597     34598
     34596     34597     34599     34596     34597     34600     34598     34597     34599
     34598     34597     34600     34599     34597     34600     34597     34600     34601
     34597     34600     34602     34597     34600     34608     34601     34600     34602
     34601     34600     34608     34602     34600     34608     34600     34602     34603
     34602     34603     34604     34602     34603     34605     34604     34603     34605
     34603     34605     34606     34603     34605     34607     34603     34605     34617
     34606     34605     34607     34606     34605     34617     34607     34605     34617
     34600     34608     34609     34600     34608     34610     34600     34608     34611
     34609     34608     34610     34609     34608     34611     34610     34608     34611
     34608     34611     34612     34611     34612     34613     34611     34612     34614
     34613     34612     34614     34612     34614     34615     34612     34614     34616
     34612     34614     34664     34615     34614     34616     34615     34614     34664
     34616     34614     34664     34605     34617     34618     34605     34617     34619
     34605     34617     34620     34618     34617     34619     34618     34617     34620
     34619     34617     34620     34617     34620     34621     34617     34620     34622
     34617     34620     34623     34621     34620     34622     34621     34620     34623
     34622     34620     34623     34620     34623     34624     34620     34623     34625
     34620     34623     34626     34624     34623     34625     34624     34623     34626
     34625     34623     34626     34623     34626     34627     34623     34626     34628
     34623     34626     34629     34627     34626     34628     34627     34626     34629
     34628     34626     34629     34626     34629     34630     34626     34629     34631
     34626     34629     34632     34630     34629     34631     34630     34629     34632
     34631     34629     34632     34629     34632     34633     34629     34632     34634
     34629     34632     34635     34633     34632     34634     34633     34632     34635
     34634     34632     34635     34632     34635     34636     34632     34635     34637
     34636     34635     34637     34635     34637     34638     34635     34637     34639
     34638     34637     34639     34637     34639     34640     34637     34639     34641
     34637     34639     34642     34640     34639     34641     34640     34639     34642
     34641     34639     34642     34639     34642     34643     34639     34642     34644
     34639     34642     34645     34643     34642     34644     34643     34642     34645
     34644     34642     34645     34642     34645     34646     34642     34645     34647
     34642     34645     34648     34646     34645     34647     34646     34645     34648
     34647     34645     34648     34645     34648     34649     34645     34648     34650
     34645     34648     34651     34649     34648     34650     34649     34648     34651
     34650     34648     34651     34648     34651     34652     34648     34651     34653
     34648     34651     34654     34652     34651     34653     34652     34651     34654
     34653     34651     34654     34651     34654     34655     34651     34654     34656
     34651     34654     34657     34655     34654     34656     34655     34654     34657
     34656     34654     34657     34654     34657     34658     34654     34657     34659
     34654     34657     34660     34658     34657     34659     34658     34657     34660
     34659     34657     34660     34657     34660     34661     34657     34660     34662
     34657     34660     34663     34661     34660     34662     34661     34660     34663
     34662     34660     34663     34614     34664     34665     34614     34664     34666
     34614     34664     34667     34665     34664     34666     34665     34664     34667
     34666     34664     34667     34664     34667     34668     34664     34667     34669
     34664     34667     34670     34668     34667     34669     34668     34667     34670
     34669     34667     34670     34667     34670     34671     34667     34670     34672
     34667     34670     34673     34671     34670     34672     34671     34670     34673
     34672     34670     34673     34670     34673     34674     34670     34673     34675
     34670     34673     34676     34674     34673     34675     34674     34673     34676
     34675     34673     34676     34673     34676     34677     34673     34676     34678
     34673     34676     34679     34677     34676     34678     34677     34676     34679
     34678     34676     34679     34676     34679     34680     34676     34679     34681
     34676     34679     34682     34680     34679     34681     34680     34679     34682
     34681     34679     34682     34679     34682     34683     34679     34682     34684
     34679     34682     34685     34683     34682     34684     34683     34682     34685
     34684     34682     34685     34682     34685     34686     34682     34685     34687
     34682     34685     34688     34686     34685     34687     34686     34685     34688
     34687     34685     34688     34685     34688     34689     34685     34688     34690
     34685     34688     34691     34689     34688     34690     34689     34688     34691
     34690     34688     34691     34688     34691     34692     34688     34691     34693
     34688     34691     34694     34692     34691     34693     34692     34691     34694
     34693     34691     34694     34691     34694     34695     34691     34694     34696
     34691     34694     34697     34695     34694     34696     34695     34694     34697
     34696     34694     34697     34694     34697     34698     34694     34697     34699
     34694     34697     34700     34698     34697     34699     34698     34697     34700
     34699     34697     34700     34697     34700     34701     34697     34700     34702
     34697     34700     34703     34701     34700     34702     34701     34700     34703
     34702     34700     34703     34700     34703     34704     34700     34703     34705
     34700     34703     34706     34704     34703     34705     34704     34703     34706
     34705     34703     34706     34708     34707     34711     34708     34707     34715
     34708     34707     34719     34711     34707     34715     34711     34707     34719
     34715     34707     34719     34707     34708     34709     34707     34708     34710
     34707     34708     34723     34709     34708     34710     34709     34708     34723
     34710     34708     34723     34707     34711     34712     34707     34711     34713
     34707     34711     34714     34712     34711     34713     34712     34711     34714
     34713     34711     34714     34707     34715     34716     34707     34715     34717
     34707     34715     34718     34716     34715     34717     34716     34715     34718
     34717     34715     34718     34707     34719     34720     34707     34719     34721
     34707     34719     34722     34720     34719     34721     34720     34719     34722
     34721     34719     34722     34708     34723     34724     34708     34723     34725
     34708     34723     34729     34724     34723     34725     34724     34723     34729
     34725     34723     34729     34727     34726     34728     34727     34726     34729
     34727     34726     34730     34728     34726     34729     34728     34726     34730
     34729     34726     34730     34723     34729     34726     34726     34730     34731
     34730     34731     34732     34730     34731     34733     34730     34731     34734
     34732     34731     34733     34732     34731     34734     34733     34731     34734
     34731     34734     34735     34731     34734     34736     34731     34734     34742
     34735     34734     34736     34735     34734     34742     34736     34734     34742
     34734     34736     34737     34736     34737     34738     34736     34737     34739
     34738     34737     34739     34737     34739     34740     34737     34739     34741
     34737     34739     34751     34740     34739     34741     34740     34739     34751
     34741     34739     34751     34734     34742     34743     34734     34742     34744
     34734     34742     34745     34743     34742     34744     34743     34742     34745
     34744     34742     34745     34742     34745     34746     34745     34746     34747
     34745     34746     34748     34747     34746     34748     34746     34748     34749
     34746     34748     34750     34746     34748     34798     34749     34748     34750
     34749     34748     34798     34750     34748     34798     34739     34751     34752
     34739     34751     34753     34739     34751     34754     34752     34751     34753
     34752     34751     34754     34753     34751     34754     34751     34754     34755
     34751     34754     34756     34751     34754     34757     34755     34754     34756
     34755     34754     34757     34756     34754     34757     34754     34757     34758
     34754     34757     34759     34754     34757     34760     34758     34757     34759
     34758     34757     34760     34759     34757     34760     34757     34760     34761
     34757     34760     34762     34757     34760     34763     34761     34760     34762
     34761     34760     34763     34762     34760     34763     34760     34763     34764
     34760     34763     34765     34760     34763     34766     34764     34763     34765
     34764     34763     34766     34765     34763     34766     34763     34766     34767
     34763     34766     34768     34763     34766     34769     34767     34766     34768
     34767     34766     34769     34768     34766     34769     34766     34769     34770
     34766     34769     34771     34770     34769     34771     34769     34771     34772
     34769     34771     34773     34772     34771     34773     34771     34773     34774
     34771     34773     34775     34771     34773     34776     34774     34773     34775
     34774     34773     34776     34775     34773     34776     34773     34776     34777
     34773     34776     34778     34773     34776     34779     34777     34776     34778
     34777     34776     34779     34778     34776     34779     34776     34779     34780
     34776     34779     34781     34776     34779     34782     34780     34779     34781
     34780     34779     34782     34781     34779     34782     34779     34782     34783
     34779     34782     34784     34779     34782     34785     34783     34782     34784
     34783     34782     34785     34784     34782     34785     34782     34785     34786
     34782     34785     34787     34782     34785     34788     34786     34785     34787
     34786     34785     34788     34787     34785     34788     34785     34788     34789
     34785     34788     34790     34785     34788     34791     34789     34788     34790
     34789     34788     34791     34790     34788     34791     34788     34791     34792
     34788     34791     34793     34788     34791     34794     34792     34791     34793
     34792     34791     34794     34793     34791     34794     34791     34794     34795
     34791     34794     34796     34791     34794     34797     34795     34794     34796
     34795     34794     34797     34796     34794     34797     34748     34798     34799
     34748     34798     34800     34748     34798     34801     34799     34798     34800
     34799     34798     34801     34800     34798     34801     34798     34801     34802
     34798     34801     34803     34798     34801     34804     34802     34801     34803
     34802     34801     34804     34803     34801     34804     34801     34804     34805
     34801     34804     34806     34801     34804     34807     34805     34804     34806
     34805     34804     34807     34806     34804     34807     34804     34807     34808
     34804     34807     34809     34804     34807     34810     34808     34807     34809
     34808     34807     34810     34809     34807     34810     34807     34810     34811
     34807     34810     34812     34807     34810     34813     34811     34810     34812
     34811     34810     34813     34812     34810     34813     34810     34813     34814
     34810     34813     34815     34810     34813     34816     34814     34813     34815
     34814     34813     34816     34815     34813     34816     34813     34816     34817
     34813     34816     34818     34813     34816     34819     34817     34816     34818
     34817     34816     34819     34818     34816     34819     34816     34819     34820
     34816     34819     34821     34816     34819     34822     34820     34819     34821
     34820     34819     34822     34821     34819     34822     34819     34822     34823
     34819     34822     34824     34819     34822     34825     34823     34822     34824
     34823     34822     34825     34824     34822     34825     34822     34825     34826
     34822     34825     34827     34822     34825     34828     34826     34825     34827
     34826     34825     34828     34827     34825     34828     34825     34828     34829
     34825     34828     34830     34825     34828     34831     34829     34828     34830
     34829     34828     34831     34830     34828     34831     34828     34831     34832
     34828     34831     34833     34828     34831     34834     34832     34831     34833
     34832     34831     34834     34833     34831     34834     34831     34834     34835
     34831     34834     34836     34831     34834     34837     34835     34834     34836
     34835     34834     34837     34836     34834     34837     34834     34837     34838
     34834     34837     34839     34834     34837     34840     34838     34837     34839
     34838     34837     34840     34839     34837     34840     34842     34841     34845
     34842     34841     34849     34842     34841     34853     34845     34841     34849
     34845     34841     34853     34849     34841     34853     34841     34842     34843
     34841     34842     34844     34841     34842     34857     34843     34842     34844
     34843     34842     34857     34844     34842     34857     34841     34845     34846
     34841     34845     34847     34841     34845     34848     34846     34845     34847
     34846     34845     34848     34847     34845     34848     34841     34849     34850
     34841     34849     34851     34841     34849     34852     34850     34849     34851
     34850     34849     34852     34851     34849     34852     34841     34853     34854
     34841     34853     34855     34841     34853     34856     34854     34853     34855
     34854     34853     34856     34855     34853     34856     34842     34857     34858
     34842     34857     34859     34842     34857     34863     34858     34857     34859
     34858     34857     34863     34859     34857     34863     34861     34860     34862
     34861     34860     34863     34861     34860     34864     34862     34860     34863
     34862     34860     34864     34863     34860     34864     34857     34863     34860
     34860     34864     34865     34864     34865     34866     34864     34865     34867
     34864     34865     34868     34866     34865     34867     34866     34865     34868
     34867     34865     34868     34865     34868     34869     34865     34868     34870
     34865     34868     34876     34869     34868     34870     34869     34868     34876
     34870     34868     34876     34868     34870     34871     34870     34871     34872
     34870     34871     34873     34872     34871     34873     34871     34873     34874
     34871     34873     34875     34871     34873     34885     34874     34873     34875
     34874     34873     34885     34875     34873     34885     34868     34876     34877
     34868     34876     34878     34868     34876     34879     34877     34876     34878
     34877     34876     34879     34878     34876     34879     34876     34879     34880
     34879     34880     34881     34879     34880     34882     34881     34880     34882
     34880     34882     34883     34880     34882     34884     34880     34882     34932
     34883     34882     34884     34883     34882     34932     34884     34882     34932
     34873     34885     34886     34873     34885     34887     34873     34885     34888
     34886     34885     34887     34886     34885     34888     34887     34885     34888
     34885     34888     34889     34885     34888     34890     34885     34888     34891
     34889     34888     34890     34889     34888     34891     34890     34888     34891
     34888     34891     34892     34888     34891     34893     34888     34891     34894
     34892     34891     34893     34892     34891     34894     34893     34891     34894
     34891     34894     34895     34891     34894     34896     34891     34894     34897
     34895     34894     34896     34895     34894     34897     34896     34894     34897
     34894     34897     34898     34894     34897     34899     34894     34897     34900
     34898     34897     34899     34898     34897     34900     34899     34897     34900
     34897     34900     34901     34897     34900     34902     34897     34900     34903
     34901     34900     34902     34901     34900     34903     34902     34900     34903
     34900     34903     34904     34900     34903     34905     34904     34903     34905
     34903     34905     34906     34903     34905     34907     34906     34905     34907
     34905     34907     34908     34905     34907     34909     34905     34907     34910
     34908     34907     34909     34908     34907     34910     34909     34907     34910
     34907     34910     34911     34907     34910     34912     34907     34910     34913
     34911     34910     34912     34911     34910     34913     34912     34910     34913
     34910     34913     34914     34910     34913     34915     34910     34913     34916
     34914     34913     34915     34914     34913     34916     34915     34913     34916
     34913     34916     34917     34913     34916     34918     34913     34916     34919
     34917     34916     34918     34917     34916     34919     34918     34916     34919
     34916     34919     34920     34916     34919     34921     34916     34919     34922
     34920     34919     34921     34920     34919     34922     34921     34919     34922
     34919     34922     34923     34919     34922     34924     34919     34922     34925
     34923     34922     34924     34923     34922     34925     34924     34922     34925
     34922     34925     34926     34922     34925     34927     34922     34925     34928
     34926     34925     34927     34926     34925     34928     34927     34925     34928
     34925     34928     34929     34925     34928     34930     34925     34928     34931
     34929     34928     34930     34929     34928     34931     34930     34928     34931
     34882     34932     34933     34882     34932     34934     34882     34932     34935
     34933     34932     34934     34933     34932     34935     34934     34932     34935
     34932     34935     34936     34932     34935     34937     34932     34935     34938
     34936     34935     34937     34936     34935     34938     34937     34935     34938
     34935     34938     34939     34935     34938     34940     34935     34938     34941
     34939     34938     34940     34939     34938     34941     34940     34938     34941
     34938     34941     34942     34938     34941     34943     34938     34941     34944
     34942     34941     34943     34942     34941     34944     34943     34941     34944
     34941     34944     34945     34941     34944     34946     34941     34944     34947
     34945     34944     34946     34945     34944     34947     34946     34944     34947
     34944     34947     34948     34944     34947     34949     34944     34947     34950
     34948     34947     34949     34948     34947     34950     34949     34947     34950
     34947     34950     34951     34947     34950     34952     34947     34950     34953
     34951     34950     34952     34951     34950     34953     34952     34950     34953
     34950     34953     34954     34950     34953     34955     34950     34953     34956
     34954     34953     34955     34954     34953     34956     34955     34953     34956
     34953     34956     34957     34953     34956     34958     34953     34956     34959
     34957     34956     34958     34957     34956     34959     34958     34956     34959
     34956     34959     34960     34956     34959     34961     34956     34959     34962
     34960     34959     34961     34960     34959     34962     34961     34959     34962
     34959     34962     34963     34959     34962     34964     34959     34962     34965
     34963     34962     34964     34963     34962     34965     34964     34962     34965
     34962     34965     34966     34962     34965     34967     34962     34965     34968
     34966     34965     34967     34966     34965     34968     34967     34965     34968
     34965     34968     34969     34965     34968     34970     34965     34968     34971
     34969     34968     34970     34969     34968     34971     34970     34968     34971
     34968     34971     34972     34968     34971     34973     34968     34971     34974
     34972     34971     34973     34972     34971     34974     34973     34971     34974
     34976     34975     34979     34976     34975     34983     34976     34975     34987
     34979     34975     34983     34979     34975     34987     34983     34975     34987
     34975     34976     34977     34975     34976     34978     34975     34976     34991
     34977     34976     34978     34977     34976     34991     34978     34976     34991
     34975     34979     34980     34975     34979     34981     34975     34979     34982
     34980     34979     34981     34980     34979     34982     34981     34979     34982
     34975     34983     34984     34975     34983     34985     34975     34983     34986
     34984     34983     34985     34984     34983     34986     34985     34983     34986
     34975     34987     34988     34975     34987     34989     34975     34987     34990
     34988     34987     34989     34988     34987     34990     34989     34987     34990
     34976     34991     34992     34976     34991     34993     34976     34991     34997
     34992     34991     34993     34992     34991     34997     34993     34991     34997
     34995     34994     34996     34995     34994     34997     34995     34994     34998
     34996     34994     34997     34996     34994     34998     34997     34994     34998
     34991     34997     34994     34994     34998     34999     34998     34999     35000
     34998     34999     35001     34998     34999     35002     35000     34999     35001
     35000     34999     35002     35001     34999     35002     34999     35002     35003
     34999     35002     35004     34999     35002     35010     35003     35002     35004
     35003     35002     35010     35004     35002     35010     35002     35004     35005
     35004     35005     35006     35004     35005     35007     35006     35005     35007
     35005     35007     35008     35005     35007     35009     35005     35007     35019
     35008     35007     35009     35008     35007     35019     35009     35007     35019
     35002     35010     35011     35002     35010     35012     35002     35010     35013
     35011     35010     35012     35011     35010     35013     35012     35010     35013
     35010     35013     35014     35013     35014     35015     35013     35014     35016
     35015     35014     35016     35014     35016     35017     35014     35016     35018
     35014     35016     35066     35017     35016     35018     35017     35016     35066
     35018     35016     35066     35007     35019     35020     35007     35019     35021
     35007     35019     35022     35020     35019     35021     35020     35019     35022
     35021     35019     35022     35019     35022     35023     35019     35022     35024
     35019     35022     35025     35023     35022     35024     35023     35022     35025
     35024     35022     35025     35022     35025     35026     35022     35025     35027
     35022     35025     35028     35026     35025     35027     35026     35025     35028
     35027     35025     35028     35025     35028     35029     35025     35028     35030
     35025     35028     35031     35029     35028     35030     35029     35028     35031
     35030     35028     35031     35028     35031     35032     35028     35031     35033
     35028     35031     35034     35032     35031     35033     35032     35031     35034
     35033     35031     35034     35031     35034     35035     35031     35034     35036
     35031     35034     35037     35035     35034     35036     35035     35034     35037
     35036     35034     35037     35034     35037     35038     35034     35037     35039
     35038     35037     35039     35037     35039     35040     35037     35039     35041
     35040     35039     35041     35039     35041     35042     35039     35041     35043
     35039     35041     35044     35042     35041     35043     35042     35041     35044
     35043     35041     35044     35041     35044     35045     35041     35044     35046
     35041     35044     35047     35045     35044     35046     35045     35044     35047
     35046     35044     35047     35044     35047     35048     35044     35047     35049
     35044     35047     35050     35048     35047     35049     35048     35047     35050
     35049     35047     35050     35047     35050     35051     35047     35050     35052
     35047     35050     35053     35051     35050     35052     35051     35050     35053
     35052     35050     35053     35050     35053     35054     35050     35053     35055
     35050     35053     35056     35054     35053     35055     35054     35053     35056
     35055     35053     35056     35053     35056     35057     35053     35056     35058
     35053     35056     35059     35057     35056     35058     35057     35056     35059
     35058     35056     35059     35056     35059     35060     35056     35059     35061
     35056     35059     35062     35060     35059     35061     35060     35059     35062
     35061     35059     35062     35059     35062     35063     35059     35062     35064
     35059     35062     35065     35063     35062     35064     35063     35062     35065
     35064     35062     35065     35016     35066     35067     35016     35066     35068
     35016     35066     35069     35067     35066     35068     35067     35066     35069
     35068     35066     35069     35066     35069     35070     35066     35069     35071
     35066     35069     35072     35070     35069     35071     35070     35069     35072
     35071     35069     35072     35069     35072     35073     35069     35072     35074
     35069     35072     35075     35073     35072     35074     35073     35072     35075
     35074     35072     35075     35072     35075     35076     35072     35075     35077
     35072     35075     35078     35076     35075     35077     35076     35075     35078
     35077     35075     35078     35075     35078     35079     35075     35078     35080
     35075     35078     35081     35079     35078     35080     35079     35078     35081
     35080     35078     35081     35078     35081     35082     35078     35081     35083
     35078     35081     35084     35082     35081     35083     35082     35081     35084
     35083     35081     35084     35081     35084     35085     35081     35084     35086
     35081     35084     35087     35085     35084     35086     35085     35084     35087
     35086     35084     35087     35084     35087     35088     35084     35087     35089
     35084     35087     35090     35088     35087     35089     35088     35087     35090
     35089     35087     35090     35087     35090     35091     35087     35090     35092
     35087     35090     35093     35091     35090     35092     35091     35090     35093
     35092     35090     35093     35090     35093     35094     35090     35093     35095
     35090     35093     35096     35094     35093     35095     35094     35093     35096
     35095     35093     35096     35093     35096     35097     35093     35096     35098
     35093     35096     35099     35097     35096     35098     35097     35096     35099
     35098     35096     35099     35096     35099     35100     35096     35099     35101
     35096     35099     35102     35100     35099     35101     35100     35099     35102
     35101     35099     35102     35099     35102     35103     35099     35102     35104
     35099     35102     35105     35103     35102     35104     35103     35102     35105
     35104     35102     35105     35102     35105     35106     35102     35105     35107
     35102     35105     35108     35106     35105     35107     35106     35105     35108
     35107     35105     35108     35110     35109     35113     35110     35109     35117
     35110     35109     35121     35113     35109     35117     35113     35109     35121
     35117     35109     35121     35109     35110     35111     35109     35110     35112
     35109     35110     35125     35111     35110     35112     35111     35110     35125
     35112     35110     35125     35109     35113     35114     35109     35113     35115
     35109     35113     35116     35114     35113     35115     35114     35113     35116
     35115     35113     35116     35109     35117     35118     35109     35117     35119
     35109     35117     35120     35118     35117     35119     35118     35117     35120
     35119     35117     35120     35109     35121     35122     35109     35121     35123
     35109     35121     35124     35122     35121     35123     35122     35121     35124
     35123     35121     35124     35110     35125     35126     35110     35125     35127
     35110     35125     35131     35126     35125     35127     35126     35125     35131
     35127     35125     35131     35129     35128     35130     35129     35128     35131
     35129     35128     35132     35130     35128     35131     35130     35128     35132
     35131     35128     35132     35125     35131     35128     35128     35132     35133
     35132     35133     35134     35132     35133     35135     35132     35133     35136
     35134     35133     35135     35134     35133     35136     35135     35133     35136
     35133     35136     35137     35133     35136     35138     35133     35136     35144
     35137     35136     35138     35137     35136     35144     35138     35136     35144
     35136     35138     35139     35138     35139     35140     35138     35139     35141
     35140     35139     35141     35139     35141     35142     35139     35141     35143
     35139     35141     35153     35142     35141     35143     35142     35141     35153
     35143     35141     35153     35136     35144     35145     35136     35144     35146
     35136     35144     35147     35145     35144     35146     35145     35144     35147
     35146     35144     35147     35144     35147     35148     35147     35148     35149
     35147     35148     35150     35149     35148     35150     35148     35150     35151
     35148     35150     35152     35148     35150     35200     35151     35150     35152
     35151     35150     35200     35152     35150     35200     35141     35153     35154
     35141     35153     35155     35141     35153     35156     35154     35153     35155
     35154     35153     35156     35155     35153     35156     35153     35156     35157
     35153     35156     35158     35153     35156     35159     35157     35156     35158
     35157     35156     35159     35158     35156     35159     35156     35159     35160
     35156     35159     35161     35156     35159     35162     35160     35159     35161
     35160     35159     35162     35161     35159     35162     35159     35162     35163
     35159     35162     35164     35159     35162     35165     35163     35162     35164
     35163     35162     35165     35164     35162     35165     35162     35165     35166
     35162     35165     35167     35162     35165     35168     35166     35165     35167
     35166     35165     35168     35167     35165     35168     35165     35168     35169
     35165     35168     35170     35165     35168     35171     35169     35168     35170
     35169     35168     35171     35170     35168     35171     35168     35171     35172
     35168     35171     35173     35172     35171     35173     35171     35173     35174
     35171     35173     35175     35174     35173     35175     35173     35175     35176
     35173     35175     35177     35173     35175     35178     35176     35175     35177
     35176     35175     35178     35177     35175     35178     35175     35178     35179
     35175     35178     35180     35175     35178     35181     35179     35178     35180
     35179     35178     35181     35180     35178     35181     35178     35181     35182
     35178     35181     35183     35178     35181     35184     35182     35181     35183
     35182     35181     35184     35183     35181     35184     35181     35184     35185
     35181     35184     35186     35181     35184     35187     35185     35184     35186
     35185     35184     35187     35186     35184     35187     35184     35187     35188
     35184     35187     35189     35184     35187     35190     35188     35187     35189
     35188     35187     35190     35189     35187     35190     35187     35190     35191
     35187     35190     35192     35187     35190     35193     35191     35190     35192
     35191     35190     35193     35192     35190     35193     35190     35193     35194
     35190     35193     35195     35190     35193     35196     35194     35193     35195
     35194     35193     35196     35195     35193     35196     35193     35196     35197
     35193     35196     35198     35193     35196     35199     35197     35196     35198
     35197     35196     35199     35198     35196     35199     35150     35200     35201
     35150     35200     35202     35150     35200     35203     35201     35200     35202
     35201     35200     35203     35202     35200     35203     35200     35203     35204
     35200     35203     35205     35200     35203     35206     35204     35203     35205
     35204     35203     35206     35205     35203     35206     35203     35206     35207
     35203     35206     35208     35203     35206     35209     35207     35206     35208
     35207     35206     35209     35208     35206     35209     35206     35209     35210
     35206     35209     35211     35206     35209     35212     35210     35209     35211
     35210     35209     35212     35211     35209     35212     35209     35212     35213
     35209     35212     35214     35209     35212     35215     35213     35212     35214
     35213     35212     35215     35214     35212     35215     35212     35215     35216
     35212     35215     35217     35212     35215     35218     35216     35215     35217
     35216     35215     35218     35217     35215     35218     35215     35218     35219
     35215     35218     35220     35215     35218     35221     35219     35218     35220
     35219     35218     35221     35220     35218     35221     35218     35221     35222
     35218     35221     35223     35218     35221     35224     35222     35221     35223
     35222     35221     35224     35223     35221     35224     35221     35224     35225
     35221     35224     35226     35221     35224     35227     35225     35224     35226
     35225     35224     35227     35226     35224     35227     35224     35227     35228
     35224     35227     35229     35224     35227     35230     35228     35227     35229
     35228     35227     35230     35229     35227     35230     35227     35230     35231
     35227     35230     35232     35227     35230     35233     35231     35230     35232
     35231     35230     35233     35232     35230     35233     35230     35233     35234
     35230     35233     35235     35230     35233     35236     35234     35233     35235
     35234     35233     35236     35235     35233     35236     35233     35236     35237
     35233     35236     35238     35233     35236     35239     35237     35236     35238
     35237     35236     35239     35238     35236     35239     35236     35239     35240
     35236     35239     35241     35236     35239     35242     35240     35239     35241
     35240     35239     35242     35241     35239     35242     35244     35243     35247
     35244     35243     35251     35244     35243     35255     35247     35243     35251
     35247     35243     35255     35251     35243     35255     35243     35244     35245
     35243     35244     35246     35243     35244     35259     35245     35244     35246
     35245     35244     35259     35246     35244     35259     35243     35247     35248
     35243     35247     35249     35243     35247     35250     35248     35247     35249
     35248     35247     35250     35249     35247     35250     35243     35251     35252
     35243     35251     35253     35243     35251     35254     35252     35251     35253
     35252     35251     35254     35253     35251     35254     35243     35255     35256
     35243     35255     35257     35243     35255     35258     35256     35255     35257
     35256     35255     35258     35257     35255     35258     35244     35259     35260
     35244     35259     35261     35244     35259     35265     35260     35259     35261
     35260     35259     35265     35261     35259     35265     35263     35262     35264
     35263     35262     35265     35263     35262     35266     35264     35262     35265
     35264     35262     35266     35265     35262     35266     35259     35265     35262
     35262     35266     35267     35266     35267     35268     35266     35267     35269
     35266     35267     35270     35268     35267     35269     35268     35267     35270
     35269     35267     35270     35267     35270     35271     35267     35270     35272
     35267     35270     35278     35271     35270     35272     35271     35270     35278
     35272     35270     35278     35270     35272     35273     35272     35273     35274
     35272     35273     35275     35274     35273     35275     35273     35275     35276
     35273     35275     35277     35273     35275     35287     35276     35275     35277
     35276     35275     35287     35277     35275     35287     35270     35278     35279
     35270     35278     35280     35270     35278     35281     35279     35278     35280
     35279     35278     35281     35280     35278     35281     35278     35281     35282
     35281     35282     35283     35281     35282     35284     35283     35282     35284
     35282     35284     35285     35282     35284     35286     35282     35284     35334
     35285     35284     35286     35285     35284     35334     35286     35284     35334
     35275     35287     35288     35275     35287     35289     35275     35287     35290
     35288     35287     35289     35288     35287     35290     35289     35287     35290
     35287     35290     35291     35287     35290     35292     35287     35290     35293
     35291     35290     35292     35291     35290     35293     35292     35290     35293
     35290     35293     35294     35290     35293     35295     35290     35293     35296
     35294     35293     35295     35294     35293     35296     35295     35293     35296
     35293     35296     35297     35293     35296     35298     35293     35296     35299
     35297     35296     35298     35297     35296     35299     35298     35296     35299
     35296     35299     35300     35296     35299     35301     35296     35299     35302
     35300     35299     35301     35300     35299     35302     35301     35299     35302
     35299     35302     35303     35299     35302     35304     35299     35302     35305
     35303     35302     35304     35303     35302     35305     35304     35302     35305
     35302     35305     35306     35302     35305     35307     35306     35305     35307
     35305     35307     35308     35305     35307     35309     35308     35307     35309
     35307     35309     35310     35307     35309     35311     35307     35309     35312
     35310     35309     35311     35310     35309     35312     35311     35309     35312
     35309     35312     35313     35309     35312     35314     35309     35312     35315
     35313     35312     35314     35313     35312     35315     35314     35312     35315
     35312     35315     35316     35312     35315     35317     35312     35315     35318
     35316     35315     35317     35316     35315     35318     35317     35315     35318
     35315     35318     35319     35315     35318     35320     35315     35318     35321
     35319     35318     35320     35319     35318     35321     35320     35318     35321
     35318     35321     35322     35318     35321     35323     35318     35321     35324
     35322     35321     35323     35322     35321     35324     35323     35321     35324
     35321     35324     35325     35321     35324     35326     35321     35324     35327
     35325     35324     35326     35325     35324     35327     35326     35324     35327
     35324     35327     35328     35324     35327     35329     35324     35327     35330
     35328     35327     35329     35328     35327     35330     35329     35327     35330
     35327     35330     35331     35327     35330     35332     35327     35330     35333
     35331     35330     35332     35331     35330     35333     35332     35330     35333
     35284     35334     35335     35284     35334     35336     35284     35334     35337
     35335     35334     35336     35335     35334     35337     35336     35334     35337
     35334     35337     35338     35334     35337     35339     35334     35337     35340
     35338     35337     35339     35338     35337     35340     35339     35337     35340
     35337     35340     35341     35337     35340     35342     35337     35340     35343
     35341     35340     35342     35341     35340     35343     35342     35340     35343
     35340     35343     35344     35340     35343     35345     35340     35343     35346
     35344     35343     35345     35344     35343     35346     35345     35343     35346
     35343     35346     35347     35343     35346     35348     35343     35346     35349
     35347     35346     35348     35347     35346     35349     35348     35346     35349
     35346     35349     35350     35346     35349     35351     35346     35349     35352
     35350     35349     35351     35350     35349     35352     35351     35349     35352
     35349     35352     35353     35349     35352     35354     35349     35352     35355
     35353     35352     35354     35353     35352     35355     35354     35352     35355
     35352     35355     35356     35352     35355     35357     35352     35355     35358
     35356     35355     35357     35356     35355     35358     35357     35355     35358
     35355     35358     35359     35355     35358     35360     35355     35358     35361
     35359     35358     35360     35359     35358     35361     35360     35358     35361
     35358     35361     35362     35358     35361     35363     35358     35361     35364
     35362     35361     35363     35362     35361     35364     35363     35361     35364
     35361     35364     35365     35361     35364     35366     35361     35364     35367
     35365     35364     35366     35365     35364     35367     35366     35364     35367
     35364     35367     35368     35364     35367     35369     35364     35367     35370
     35368     35367     35369     35368     35367     35370     35369     35367     35370
     35367     35370     35371     35367     35370     35372     35367     35370     35373
     35371     35370     35372     35371     35370     35373     35372     35370     35373
     35370     35373     35374     35370     35373     35375     35370     35373     35376
     35374     35373     35375     35374     35373     35376     35375     35373     35376
     35378     35377     35381     35378     35377     35385     35378     35377     35389
     35381     35377     35385     35381     35377     35389     35385     35377     35389
     35377     35378     35379     35377     35378     35380     35377     35378     35393
     35379     35378     35380     35379     35378     35393     35380     35378     35393
     35377     35381     35382     35377     35381     35383     35377     35381     35384
     35382     35381     35383     35382     35381     35384     35383     35381     35384
     35377     35385     35386     35377     35385     35387     35377     35385     35388
     35386     35385     35387     35386     35385     35388     35387     35385     35388
     35377     35389     35390     35377     35389     35391     35377     35389     35392
     35390     35389     35391     35390     35389     35392     35391     35389     35392
     35378     35393     35394     35378     35393     35395     35378     35393     35399
     35394     35393     35395     35394     35393     35399     35395     35393     35399
     35397     35396     35398     35397     35396     35399     35397     35396     35400
     35398     35396     35399     35398     35396     35400     35399     35396     35400
     35393     35399     35396     35396     35400     35401     35400     35401     35402
     35400     35401     35403     35400     35401     35404     35402     35401     35403
     35402     35401     35404     35403     35401     35404     35401     35404     35405
     35401     35404     35406     35401     35404     35412     35405     35404     35406
     35405     35404     35412     35406     35404     35412     35404     35406     35407
     35406     35407     35408     35406     35407     35409     35408     35407     35409
     35407     35409     35410     35407     35409     35411     35407     35409     35421
     35410     35409     35411     35410     35409     35421     35411     35409     35421
     35404     35412     35413     35404     35412     35414     35404     35412     35415
     35413     35412     35414     35413     35412     35415     35414     35412     35415
     35412     35415     35416     35415     35416     35417     35415     35416     35418
     35417     35416     35418     35416     35418     35419     35416     35418     35420
     35416     35418     35468     35419     35418     35420     35419     35418     35468
     35420     35418     35468     35409     35421     35422     35409     35421     35423
     35409     35421     35424     35422     35421     35423     35422     35421     35424
     35423     35421     35424     35421     35424     35425     35421     35424     35426
     35421     35424     35427     35425     35424     35426     35425     35424     35427
     35426     35424     35427     35424     35427     35428     35424     35427     35429
     35424     35427     35430     35428     35427     35429     35428     35427     35430
     35429     35427     35430     35427     35430     35431     35427     35430     35432
     35427     35430     35433     35431     35430     35432     35431     35430     35433
     35432     35430     35433     35430     35433     35434     35430     35433     35435
     35430     35433     35436     35434     35433     35435     35434     35433     35436
     35435     35433     35436     35433     35436     35437     35433     35436     35438
     35433     35436     35439     35437     35436     35438     35437     35436     35439
     35438     35436     35439     35436     35439     35440     35436     35439     35441
     35440     35439     35441     35439     35441     35442     35439     35441     35443
     35442     35441     35443     35441     35443     35444     35441     35443     35445
     35441     35443     35446     35444     35443     35445     35444     35443     35446
     35445     35443     35446     35443     35446     35447     35443     35446     35448
     35443     35446     35449     35447     35446     35448     35447     35446     35449
     35448     35446     35449     35446     35449     35450     35446     35449     35451
     35446     35449     35452     35450     35449     35451     35450     35449     35452
     35451     35449     35452     35449     35452     35453     35449     35452     35454
     35449     35452     35455     35453     35452     35454     35453     35452     35455
     35454     35452     35455     35452     35455     35456     35452     35455     35457
     35452     35455     35458     35456     35455     35457     35456     35455     35458
     35457     35455     35458     35455     35458     35459     35455     35458     35460
     35455     35458     35461     35459     35458     35460     35459     35458     35461
     35460     35458     35461     35458     35461     35462     35458     35461     35463
     35458     35461     35464     35462     35461     35463     35462     35461     35464
     35463     35461     35464     35461     35464     35465     35461     35464     35466
     35461     35464     35467     35465     35464     35466     35465     35464     35467
     35466     35464     35467     35418     35468     35469     35418     35468     35470
     35418     35468     35471     35469     35468     35470     35469     35468     35471
     35470     35468     35471     35468     35471     35472     35468     35471     35473
     35468     35471     35474     35472     35471     35473     35472     35471     35474
     35473     35471     35474     35471     35474     35475     35471     35474     35476
     35471     35474     35477     35475     35474     35476     35475     35474     35477
     35476     35474     35477     35474     35477     35478     35474     35477     35479
     35474     35477     35480     35478     35477     35479     35478     35477     35480
     35479     35477     35480     35477     35480     35481     35477     35480     35482
     35477     35480     35483     35481     35480     35482     35481     35480     35483
     35482     35480     35483     35480     35483     35484     35480     35483     35485
     35480     35483     35486     35484     35483     35485     35484     35483     35486
     35485     35483     35486     35483     35486     35487     35483     35486     35488
     35483     35486     35489     35487     35486     35488     35487     35486     35489
     35488     35486     35489     35486     35489     35490     35486     35489     35491
     35486     35489     35492     35490     35489     35491     35490     35489     35492
     35491     35489     35492     35489     35492     35493     35489     35492     35494
     35489     35492     35495     35493     35492     35494     35493     35492     35495
     35494     35492     35495     35492     35495     35496     35492     35495     35497
     35492     35495     35498     35496     35495     35497     35496     35495     35498
     35497     35495     35498     35495     35498     35499     35495     35498     35500
     35495     35498     35501     35499     35498     35500     35499     35498     35501
     35500     35498     35501     35498     35501     35502     35498     35501     35503
     35498     35501     35504     35502     35501     35503     35502     35501     35504
     35503     35501     35504     35501     35504     35505     35501     35504     35506
     35501     35504     35507     35505     35504     35506     35505     35504     35507
     35506     35504     35507     35504     35507     35508     35504     35507     35509
     35504     35507     35510     35508     35507     35509     35508     35507     35510
     35509     35507     35510     35512     35511     35515     35512     35511     35519
     35512     35511     35523     35515     35511     35519     35515     35511     35523
     35519     35511     35523     35511     35512     35513     35511     35512     35514
     35511     35512     35527     35513     35512     35514     35513     35512     35527
     35514     35512     35527     35511     35515     35516     35511     35515     35517
     35511     35515     35518     35516     35515     35517     35516     35515     35518
     35517     35515     35518     35511     35519     35520     35511     35519     35521
     35511     35519     35522     35520     35519     35521     35520     35519     35522
     35521     35519     35522     35511     35523     35524     35511     35523     35525
     35511     35523     35526     35524     35523     35525     35524     35523     35526
     35525     35523     35526     35512     35527     35528     35512     35527     35529
     35512     35527     35533     35528     35527     35529     35528     35527     35533
     35529     35527     35533     35531     35530     35532     35531     35530     35533
     35531     35530     35534     35532     35530     35533     35532     35530     35534
     35533     35530     35534     35527     35533     35530     35530     35534     35535
     35534     35535     35536     35534     35535     35537     35534     35535     35538
     35536     35535     35537     35536     35535     35538     35537     35535     35538
     35535     35538     35539     35535     35538     35540     35535     35538     35546
     35539     35538     35540     35539     35538     35546     35540     35538     35546
     35538     35540     35541     35540     35541     35542     35540     35541     35543
     35542     35541     35543     35541     35543     35544     35541     35543     35545
     35541     35543     35555     35544     35543     35545     35544     35543     35555
     35545     35543     35555     35538     35546     35547     35538     35546     35548
     35538     35546     35549     35547     35546     35548     35547     35546     35549
     35548     35546     35549     35546     35549     35550     35549     35550     35551
     35549     35550     35552     35551     35550     35552     35550     35552     35553
     35550     35552     35554     35550     35552     35602     35553     35552     35554
     35553     35552     35602     35554     35552     35602     35543     35555     35556
     35543     35555     35557     35543     35555     35558     35556     35555     35557
     35556     35555     35558     35557     35555     35558     35555     35558     35559
     35555     35558     35560     35555     35558     35561     35559     35558     35560
     35559     35558     35561     35560     35558     35561     35558     35561     35562
     35558     35561     35563     35558     35561     35564     35562     35561     35563
     35562     35561     35564     35563     35561     35564     35561     35564     35565
     35561     35564     35566     35561     35564     35567     35565     35564     35566
     35565     35564     35567     35566     35564     35567     35564     35567     35568
     35564     35567     35569     35564     35567     35570     35568     35567     35569
     35568     35567     35570     35569     35567     35570     35567     35570     35571
     35567     35570     35572     35567     35570     35573     35571     35570     35572
     35571     35570     35573     35572     35570     35573     35570     35573     35574
     35570     35573     35575     35574     35573     35575     35573     35575     35576
     35573     35575     35577     35576     35575     35577     35575     35577     35578
     35575     35577     35579     35575     35577     35580     35578     35577     35579
     35578     35577     35580     35579     35577     35580     35577     35580     35581
     35577     35580     35582     35577     35580     35583     35581     35580     35582
     35581     35580     35583     35582     35580     35583     35580     35583     35584
     35580     35583     35585     35580     35583     35586     35584     35583     35585
     35584     35583     35586     35585     35583     35586     35583     35586     35587
     35583     35586     35588     35583     35586     35589     35587     35586     35588
     35587     35586     35589     35588     35586     35589     35586     35589     35590
     35586     35589     35591     35586     35589     35592     35590     35589     35591
     35590     35589     35592     35591     35589     35592     35589     35592     35593
     35589     35592     35594     35589     35592     35595     35593     35592     35594
     35593     35592     35595     35594     35592     35595     35592     35595     35596
     35592     35595     35597     35592     35595     35598     35596     35595     35597
     35596     35595     35598     35597     35595     35598     35595     35598     35599
     35595     35598     35600     35595     35598     35601     35599     35598     35600
     35599     35598     35601     35600     35598     35601     35552     35602     35603
     35552     35602     35604     35552     35602     35605     35603     35602     35604
     35603     35602     35605     35604     35602     35605     35602     35605     35606
     35602     35605     35607     35602     35605     35608     35606     35605     35607
     35606     35605     35608     35607     35605     35608     35605     35608     35609
     35605     35608     35610     35605     35608     35611     35609     35608     35610
     35609     35608     35611     35610     35608     35611     35608     35611     35612
     35608     35611     35613     35608     35611     35614     35612     35611     35613
     35612     35611     35614     35613     35611     35614     35611     35614     35615
     35611     35614     35616     35611     35614     35617     35615     35614     35616
     35615     35614     35617     35616     35614     35617     35614     35617     35618
     35614     35617     35619     35614     35617     35620     35618     35617     35619
     35618     35617     35620     35619     35617     35620     35617     35620     35621
     35617     35620     35622     35617     35620     35623     35621     35620     35622
     35621     35620     35623     35622     35620     35623     35620     35623     35624
     35620     35623     35625     35620     35623     35626     35624     35623     35625
     35624     35623     35626     35625     35623     35626     35623     35626     35627
     35623     35626     35628     35623     35626     35629     35627     35626     35628
     35627     35626     35629     35628     35626     35629     35626     35629     35630
     35626     35629     35631     35626     35629     35632     35630     35629     35631
     35630     35629     35632     35631     35629     35632     35629     35632     35633
     35629     35632     35634     35629     35632     35635     35633     35632     35634
     35633     35632     35635     35634     35632     35635     35632     35635     35636
     35632     35635     35637     35632     35635     35638     35636     35635     35637
     35636     35635     35638     35637     35635     35638     35635     35638     35639
     35635     35638     35640     35635     35638     35641     35639     35638     35640
     35639     35638     35641     35640     35638     35641     35638     35641     35642
     35638     35641     35643     35638     35641     35644     35642     35641     35643
     35642     35641     35644     35643     35641     35644     35646     35645     35649
     35646     35645     35653     35646     35645     35657     35649     35645     35653
     35649     35645     35657     35653     35645     35657     35645     35646     35647
     35645     35646     35648     35645     35646     35661     35647     35646     35648
     35647     35646     35661     35648     35646     35661     35645     35649     35650
     35645     35649     35651     35645     35649     35652     35650     35649     35651
     35650     35649     35652     35651     35649     35652     35645     35653     35654
     35645     35653     35655     35645     35653     35656     35654     35653     35655
     35654     35653     35656     35655     35653     35656     35645     35657     35658
     35645     35657     35659     35645     35657     35660     35658     35657     35659
     35658     35657     35660     35659     35657     35660     35646     35661     35662
     35646     35661     35663     35646     35661     35667     35662     35661     35663
     35662     35661     35667     35663     35661     35667     35665     35664     35666
     35665     35664     35667     35665     35664     35668     35666     35664     35667
     35666     35664     35668     35667     35664     35668     35661     35667     35664
     35664     35668     35669     35668     35669     35670     35668     35669     35671
     35668     35669     35672     35670     35669     35671     35670     35669     35672
     35671     35669     35672     35669     35672     35673     35669     35672     35674
     35669     35672     35680     35673     35672     35674     35673     35672     35680
     35674     35672     35680     35672     35674     35675     35674     35675     35676
     35674     35675     35677     35676     35675     35677     35675     35677     35678
     35675     35677     35679     35675     35677     35689     35678     35677     35679
     35678     35677     35689     35679     35677     35689     35672     35680     35681
     35672     35680     35682     35672     35680     35683     35681     35680     35682
     35681     35680     35683     35682     35680     35683     35680     35683     35684
     35683     35684     35685     35683     35684     35686     35685     35684     35686
     35684     35686     35687     35684     35686     35688     35684     35686     35736
     35687     35686     35688     35687     35686     35736     35688     35686     35736
     35677     35689     35690     35677     35689     35691     35677     35689     35692
     35690     35689     35691     35690     35689     35692     35691     35689     35692
     35689     35692     35693     35689     35692     35694     35689     35692     35695
     35693     35692     35694     35693     35692     35695     35694     35692     35695
     35692     35695     35696     35692     35695     35697     35692     35695     35698
     35696     35695     35697     35696     35695     35698     35697     35695     35698
     35695     35698     35699     35695     35698     35700     35695     35698     35701
     35699     35698     35700     35699     35698     35701     35700     35698     35701
     35698     35701     35702     35698     35701     35703     35698     35701     35704
     35702     35701     35703     35702     35701     35704     35703     35701     35704
     35701     35704     35705     35701     35704     35706     35701     35704     35707
     35705     35704     35706     35705     35704     35707     35706     35704     35707
     35704     35707     35708     35704     35707     35709     35708     35707     35709
     35707     35709     35710     35707     35709     35711     35710     35709     35711
     35709     35711     35712     35709     35711     35713     35709     35711     35714
     35712     35711     35713     35712     35711     35714     35713     35711     35714
     35711     35714     35715     35711     35714     35716     35711     35714     35717
     35715     35714     35716     35715     35714     35717     35716     35714     35717
     35714     35717     35718     35714     35717     35719     35714     35717     35720
     35718     35717     35719     35718     35717     35720     35719     35717     35720
     35717     35720     35721     35717     35720     35722     35717     35720     35723
     35721     35720     35722     35721     35720     35723     35722     35720     35723
     35720     35723     35724     35720     35723     35725     35720     35723     35726
     35724     35723     35725     35724     35723     35726     35725     35723     35726
     35723     35726     35727     35723     35726     35728     35723     35726     35729
     35727     35726     35728     35727     35726     35729     35728     35726     35729
     35726     35729     35730     35726     35729     35731     35726     35729     35732
     35730     35729     35731     35730     35729     35732     35731     35729     35732
     35729     35732     35733     35729     35732     35734     35729     35732     35735
     35733     35732     35734     35733     35732     35735     35734     35732     35735
     35686     35736     35737     35686     35736     35738     35686     35736     35739
     35737     35736     35738     35737     35736     35739     35738     35736     35739
     35736     35739     35740     35736     35739     35741     35736     35739     35742
     35740     35739     35741     35740     35739     35742     35741     35739     35742
     35739     35742     35743     35739     35742     35744     35739     35742     35745
     35743     35742     35744     35743     35742     35745     35744     35742     35745
     35742     35745     35746     35742     35745     35747     35742     35745     35748
     35746     35745     35747     35746     35745     35748     35747     35745     35748
     35745     35748     35749     35745     35748     35750     35745     35748     35751
     35749     35748     35750     35749     35748     35751     35750     35748     35751
     35748     35751     35752     35748     35751     35753     35748     35751     35754
     35752     35751     35753     35752     35751     35754     35753     35751     35754
     35751     35754     35755     35751     35754     35756     35751     35754     35757
     35755     35754     35756     35755     35754     35757     35756     35754     35757
     35754     35757     35758     35754     35757     35759     35754     35757     35760
     35758     35757     35759     35758     35757     35760     35759     35757     35760
     35757     35760     35761     35757     35760     35762     35757     35760     35763
     35761     35760     35762     35761     35760     35763     35762     35760     35763
     35760     35763     35764     35760     35763     35765     35760     35763     35766
     35764     35763     35765     35764     35763     35766     35765     35763     35766
     35763     35766     35767     35763     35766     35768     35763     35766     35769
     35767     35766     35768     35767     35766     35769     35768     35766     35769
     35766     35769     35770     35766     35769     35771     35766     35769     35772
     35770     35769     35771     35770     35769     35772     35771     35769     35772
     35769     35772     35773     35769     35772     35774     35769     35772     35775
     35773     35772     35774     35773     35772     35775     35774     35772     35775
     35772     35775     35776     35772     35775     35777     35772     35775     35778
     35776     35775     35777     35776     35775     35778     35777     35775     35778
     35780     35779     35783     35780     35779     35787     35780     35779     35791
     35783     35779     35787     35783     35779     35791     35787     35779     35791
     35779     35780     35781     35779     35780     35782     35779     35780     35795
     35781     35780     35782     35781     35780     35795     35782     35780     35795
     35779     35783     35784     35779     35783     35785     35779     35783     35786
     35784     35783     35785     35784     35783     35786     35785     35783     35786
     35779     35787     35788     35779     35787     35789     35779     35787     35790
     35788     35787     35789     35788     35787     35790     35789     35787     35790
     35779     35791     35792     35779     35791     35793     35779     35791     35794
     35792     35791     35793     35792     35791     35794     35793     35791     35794
     35780     35795     35796     35780     35795     35797     35780     35795     35801
     35796     35795     35797     35796     35795     35801     35797     35795     35801
     35799     35798     35800     35799     35798     35801     35799     35798     35802
     35800     35798     35801     35800     35798     35802     35801     35798     35802
     35795     35801     35798     35798     35802     35803     35802     35803     35804
     35802     35803     35805     35802     35803     35806     35804     35803     35805
     35804     35803     35806     35805     35803     35806     35803     35806     35807
     35803     35806     35808     35803     35806     35814     35807     35806     35808
     35807     35806     35814     35808     35806     35814     35806     35808     35809
     35808     35809     35810     35808     35809     35811     35810     35809     35811
     35809     35811     35812     35809     35811     35813     35809     35811     35823
     35812     35811     35813     35812     35811     35823     35813     35811     35823
     35806     35814     35815     35806     35814     35816     35806     35814     35817
     35815     35814     35816     35815     35814     35817     35816     35814     35817
     35814     35817     35818     35817     35818     35819     35817     35818     35820
     35819     35818     35820     35818     35820     35821     35818     35820     35822
     35818     35820     35870     35821     35820     35822     35821     35820     35870
     35822     35820     35870     35811     35823     35824     35811     35823     35825
     35811     35823     35826     35824     35823     35825     35824     35823     35826
     35825     35823     35826     35823     35826     35827     35823     35826     35828
     35823     35826     35829     35827     35826     35828     35827     35826     35829
     35828     35826     35829     35826     35829     35830     35826     35829     35831
     35826     35829     35832     35830     35829     35831     35830     35829     35832
     35831     35829     35832     35829     35832     35833     35829     35832     35834
     35829     35832     35835     35833     35832     35834     35833     35832     35835
     35834     35832     35835     35832     35835     35836     35832     35835     35837
     35832     35835     35838     35836     35835     35837     35836     35835     35838
     35837     35835     35838     35835     35838     35839     35835     35838     35840
     35835     35838     35841     35839     35838     35840     35839     35838     35841
     35840     35838     35841     35838     35841     35842     35838     35841     35843
     35842     35841     35843     35841     35843     35844     35841     35843     35845
     35844     35843     35845     35843     35845     35846     35843     35845     35847
     35843     35845     35848     35846     35845     35847     35846     35845     35848
     35847     35845     35848     35845     35848     35849     35845     35848     35850
     35845     35848     35851     35849     35848     35850     35849     35848     35851
     35850     35848     35851     35848     35851     35852     35848     35851     35853
     35848     35851     35854     35852     35851     35853     35852     35851     35854
     35853     35851     35854     35851     35854     35855     35851     35854     35856
     35851     35854     35857     35855     35854     35856     35855     35854     35857
     35856     35854     35857     35854     35857     35858     35854     35857     35859
     35854     35857     35860     35858     35857     35859     35858     35857     35860
     35859     35857     35860     35857     35860     35861     35857     35860     35862
     35857     35860     35863     35861     35860     35862     35861     35860     35863
     35862     35860     35863     35860     35863     35864     35860     35863     35865
     35860     35863     35866     35864     35863     35865     35864     35863     35866
     35865     35863     35866     35863     35866     35867     35863     35866     35868
     35863     35866     35869     35867     35866     35868     35867     35866     35869
     35868     35866     35869     35820     35870     35871     35820     35870     35872
     35820     35870     35873     35871     35870     35872     35871     35870     35873
     35872     35870     35873     35870     35873     35874     35870     35873     35875
     35870     35873     35876     35874     35873     35875     35874     35873     35876
     35875     35873     35876     35873     35876     35877     35873     35876     35878
     35873     35876     35879     35877     35876     35878     35877     35876     35879
     35878     35876     35879     35876     35879     35880     35876     35879     35881
     35876     35879     35882     35880     35879     35881     35880     35879     35882
     35881     35879     35882     35879     35882     35883     35879     35882     35884
     35879     35882     35885     35883     35882     35884     35883     35882     35885
     35884     35882     35885     35882     35885     35886     35882     35885     35887
     35882     35885     35888     35886     35885     35887     35886     35885     35888
     35887     35885     35888     35885     35888     35889     35885     35888     35890
     35885     35888     35891     35889     35888     35890     35889     35888     35891
     35890     35888     35891     35888     35891     35892     35888     35891     35893
     35888     35891     35894     35892     35891     35893     35892     35891     35894
     35893     35891     35894     35891     35894     35895     35891     35894     35896
     35891     35894     35897     35895     35894     35896     35895     35894     35897
     35896     35894     35897     35894     35897     35898     35894     35897     35899
     35894     35897     35900     35898     35897     35899     35898     35897     35900
     35899     35897     35900     35897     35900     35901     35897     35900     35902
     35897     35900     35903     35901     35900     35902     35901     35900     35903
     35902     35900     35903     35900     35903     35904     35900     35903     35905
     35900     35903     35906     35904     35903     35905     35904     35903     35906
     35905     35903     35906     35903     35906     35907     35903     35906     35908
     35903     35906     35909     35907     35906     35908     35907     35906     35909
     35908     35906     35909     35906     35909     35910     35906     35909     35911
     35906     35909     35912     35910     35909     35911     35910     35909     35912
     35911     35909     35912     35914     35913     35917     35914     35913     35921
     35914     35913     35925     35917     35913     35921     35917     35913     35925
     35921     35913     35925     35913     35914     35915     35913     35914     35916
     35913     35914     35929     35915     35914     35916     35915     35914     35929
     35916     35914     35929     35913     35917     35918     35913     35917     35919
     35913     35917     35920     35918     35917     35919     35918     35917     35920
     35919     35917     35920     35913     35921     35922     35913     35921     35923
     35913     35921     35924     35922     35921     35923     35922     35921     35924
     35923     35921     35924     35913     35925     35926     35913     35925     35927
     35913     35925     35928     35926     35925     35927     35926     35925     35928
     35927     35925     35928     35914     35929     35930     35914     35929     35931
     35914     35929     35935     35930     35929     35931     35930     35929     35935
     35931     35929     35935     35933     35932     35934     35933     35932     35935
     35933     35932     35936     35934     35932     35935     35934     35932     35936
     35935     35932     35936     35929     35935     35932     35932     35936     35937
     35936     35937     35938     35936     35937     35939     35936     35937     35940
     35938     35937     35939     35938     35937     35940     35939     35937     35940
     35937     35940     35941     35937     35940     35942     35937     35940     35948
     35941     35940     35942     35941     35940     35948     35942     35940     35948
     35940     35942     35943     35942     35943     35944     35942     35943     35945
     35944     35943     35945     35943     35945     35946     35943     35945     35947
     35943     35945     35957     35946     35945     35947     35946     35945     35957
     35947     35945     35957     35940     35948     35949     35940     35948     35950
     35940     35948     35951     35949     35948     35950     35949     35948     35951
     35950     35948     35951     35948     35951     35952     35951     35952     35953
     35951     35952     35954     35953     35952     35954     35952     35954     35955
     35952     35954     35956     35952     35954     36004     35955     35954     35956
     35955     35954     36004     35956     35954     36004     35945     35957     35958
     35945     35957     35959     35945     35957     35960     35958     35957     35959
     35958     35957     35960     35959     35957     35960     35957     35960     35961
     35957     35960     35962     35957     35960     35963     35961     35960     35962
     35961     35960     35963     35962     35960     35963     35960     35963     35964
     35960     35963     35965     35960     35963     35966     35964     35963     35965
     35964     35963     35966     35965     35963     35966     35963     35966     35967
     35963     35966     35968     35963     35966     35969     35967     35966     35968
     35967     35966     35969     35968     35966     35969     35966     35969     35970
     35966     35969     35971     35966     35969     35972     35970     35969     35971
     35970     35969     35972     35971     35969     35972     35969     35972     35973
     35969     35972     35974     35969     35972     35975     35973     35972     35974
     35973     35972     35975     35974     35972     35975     35972     35975     35976
     35972     35975     35977     35976     35975     35977     35975     35977     35978
     35975     35977     35979     35978     35977     35979     35977     35979     35980
     35977     35979     35981     35977     35979     35982     35980     35979     35981
     35980     35979     35982     35981     35979     35982     35979     35982     35983
     35979     35982     35984     35979     35982     35985     35983     35982     35984
     35983     35982     35985     35984     35982     35985     35982     35985     35986
     35982     35985     35987     35982     35985     35988     35986     35985     35987
     35986     35985     35988     35987     35985     35988     35985     35988     35989
     35985     35988     35990     35985     35988     35991     35989     35988     35990
     35989     35988     35991     35990     35988     35991     35988     35991     35992
     35988     35991     35993     35988     35991     35994     35992     35991     35993
     35992     35991     35994     35993     35991     35994     35991     35994     35995
     35991     35994     35996     35991     35994     35997     35995     35994     35996
     35995     35994     35997     35996     35994     35997     35994     35997     35998
     35994     35997     35999     35994     35997     36000     35998     35997     35999
     35998     35997     36000     35999     35997     36000     35997     36000     36001
     35997     36000     36002     35997     36000     36003     36001     36000     36002
     36001     36000     36003     36002     36000     36003     35954     36004     36005
     35954     36004     36006     35954     36004     36007     36005     36004     36006
     36005     36004     36007     36006     36004     36007     36004     36007     36008
     36004     36007     36009     36004     36007     36010     36008     36007     36009
     36008     36007     36010     36009     36007     36010     36007     36010     36011
     36007     36010     36012     36007     36010     36013     36011     36010     36012
     36011     36010     36013     36012     36010     36013     36010     36013     36014
     36010     36013     36015     36010     36013     36016     36014     36013     36015
     36014     36013     36016     36015     36013     36016     36013     36016     36017
     36013     36016     36018     36013     36016     36019     36017     36016     36018
     36017     36016     36019     36018     36016     36019     36016     36019     36020
     36016     36019     36021     36016     36019     36022     36020     36019     36021
     36020     36019     36022     36021     36019     36022     36019     36022     36023
     36019     36022     36024     36019     36022     36025     36023     36022     36024
     36023     36022     36025     36024     36022     36025     36022     36025     36026
     36022     36025     36027     36022     36025     36028     36026     36025     36027
     36026     36025     36028     36027     36025     36028     36025     36028     36029
     36025     36028     36030     36025     36028     36031     36029     36028     36030
     36029     36028     36031     36030     36028     36031     36028     36031     36032
     36028     36031     36033     36028     36031     36034     36032     36031     36033
     36032     36031     36034     36033     36031     36034     36031     36034     36035
     36031     36034     36036     36031     36034     36037     36035     36034     36036
     36035     36034     36037     36036     36034     36037     36034     36037     36038
     36034     36037     36039     36034     36037     36040     36038     36037     36039
     36038     36037     36040     36039     36037     36040     36037     36040     36041
     36037     36040     36042     36037     36040     36043     36041     36040     36042
     36041     36040     36043     36042     36040     36043     36040     36043     36044
     36040     36043     36045     36040     36043     36046     36044     36043     36045
     36044     36043     36046     36045     36043     36046     36048     36047     36051
     36048     36047     36055     36048     36047     36059     36051     36047     36055
     36051     36047     36059     36055     36047     36059     36047     36048     36049
     36047     36048     36050     36047     36048     36063     36049     36048     36050
     36049     36048     36063     36050     36048     36063     36047     36051     36052
     36047     36051     36053     36047     36051     36054     36052     36051     36053
     36052     36051     36054     36053     36051     36054     36047     36055     36056
     36047     36055     36057     36047     36055     36058     36056     36055     36057
     36056     36055     36058     36057     36055     36058     36047     36059     36060
     36047     36059     36061     36047     36059     36062     36060     36059     36061
     36060     36059     36062     36061     36059     36062     36048     36063     36064
     36048     36063     36065     36048     36063     36069     36064     36063     36065
     36064     36063     36069     36065     36063     36069     36067     36066     36068
     36067     36066     36069     36067     36066     36070     36068     36066     36069
     36068     36066     36070     36069     36066     36070     36063     36069     36066
     36066     36070     36071     36070     36071     36072     36070     36071     36073
     36070     36071     36074     36072     36071     36073     36072     36071     36074
     36073     36071     36074     36071     36074     36075     36071     36074     36076
     36071     36074     36082     36075     36074     36076     36075     36074     36082
     36076     36074     36082     36074     36076     36077     36076     36077     36078
     36076     36077     36079     36078     36077     36079     36077     36079     36080
     36077     36079     36081     36077     36079     36091     36080     36079     36081
     36080     36079     36091     36081     36079     36091     36074     36082     36083
     36074     36082     36084     36074     36082     36085     36083     36082     36084
     36083     36082     36085     36084     36082     36085     36082     36085     36086
     36085     36086     36087     36085     36086     36088     36087     36086     36088
     36086     36088     36089     36086     36088     36090     36086     36088     36138
     36089     36088     36090     36089     36088     36138     36090     36088     36138
     36079     36091     36092     36079     36091     36093     36079     36091     36094
     36092     36091     36093     36092     36091     36094     36093     36091     36094
     36091     36094     36095     36091     36094     36096     36091     36094     36097
     36095     36094     36096     36095     36094     36097     36096     36094     36097
     36094     36097     36098     36094     36097     36099     36094     36097     36100
     36098     36097     36099     36098     36097     36100     36099     36097     36100
     36097     36100     36101     36097     36100     36102     36097     36100     36103
     36101     36100     36102     36101     36100     36103     36102     36100     36103
     36100     36103     36104     36100     36103     36105     36100     36103     36106
     36104     36103     36105     36104     36103     36106     36105     36103     36106
     36103     36106     36107     36103     36106     36108     36103     36106     36109
     36107     36106     36108     36107     36106     36109     36108     36106     36109
     36106     36109     36110     36106     36109     36111     36110     36109     36111
     36109     36111     36112     36109     36111     36113     36112     36111     36113
     36111     36113     36114     36111     36113     36115     36111     36113     36116
     36114     36113     36115     36114     36113     36116     36115     36113     36116
     36113     36116     36117     36113     36116     36118     36113     36116     36119
     36117     36116     36118     36117     36116     36119     36118     36116     36119
     36116     36119     36120     36116     36119     36121     36116     36119     36122
     36120     36119     36121     36120     36119     36122     36121     36119     36122
     36119     36122     36123     36119     36122     36124     36119     36122     36125
     36123     36122     36124     36123     36122     36125     36124     36122     36125
     36122     36125     36126     36122     36125     36127     36122     36125     36128
     36126     36125     36127     36126     36125     36128     36127     36125     36128
     36125     36128     36129     36125     36128     36130     36125     36128     36131
     36129     36128     36130     36129     36128     36131     36130     36128     36131
     36128     36131     36132     36128     36131     36133     36128     36131     36134
     36132     36131     36133     36132     36131     36134     36133     36131     36134
     36131     36134     36135     36131     36134     36136     36131     36134     36137
     36135     36134     36136     36135     36134     36137     36136     36134     36137
     36088     36138     36139     36088     36138     36140     36088     36138     36141
     36139     36138     36140     36139     36138     36141     36140     36138     36141
     36138     36141     36142     36138     36141     36143     36138     36141     36144
     36142     36141     36143     36142     36141     36144     36143     36141     36144
     36141     36144     36145     36141     36144     36146     36141     36144     36147
     36145     36144     36146     36145     36144     36147     36146     36144     36147
     36144     36147     36148     36144     36147     36149     36144     36147     36150
     36148     36147     36149     36148     36147     36150     36149     36147     36150
     36147     36150     36151     36147     36150     36152     36147     36150     36153
     36151     36150     36152     36151     36150     36153     36152     36150     36153
     36150     36153     36154     36150     36153     36155     36150     36153     36156
     36154     36153     36155     36154     36153     36156     36155     36153     36156
     36153     36156     36157     36153     36156     36158     36153     36156     36159
     36157     36156     36158     36157     36156     36159     36158     36156     36159
     36156     36159     36160     36156     36159     36161     36156     36159     36162
     36160     36159     36161     36160     36159     36162     36161     36159     36162
     36159     36162     36163     36159     36162     36164     36159     36162     36165
     36163     36162     36164     36163     36162     36165     36164     36162     36165
     36162     36165     36166     36162     36165     36167     36162     36165     36168
     36166     36165     36167     36166     36165     36168     36167     36165     36168
     36165     36168     36169     36165     36168     36170     36165     36168     36171
     36169     36168     36170     36169     36168     36171     36170     36168     36171
     36168     36171     36172     36168     36171     36173     36168     36171     36174
     36172     36171     36173     36172     36171     36174     36173     36171     36174
     36171     36174     36175     36171     36174     36176     36171     36174     36177
     36175     36174     36176     36175     36174     36177     36176     36174     36177
     36174     36177     36178     36174     36177     36179     36174     36177     36180
     36178     36177     36179     36178     36177     36180     36179     36177     36180
     36182     36181     36185     36182     36181     36189     36182     36181     36193
     36185     36181     36189     36185     36181     36193     36189     36181     36193
     36181     36182     36183     36181     36182     36184     36181     36182     36197
     36183     36182     36184     36183     36182     36197     36184     36182     36197
     36181     36185     36186     36181     36185     36187     36181     36185     36188
     36186     36185     36187     36186     36185     36188     36187     36185     36188
     36181     36189     36190     36181     36189     36191     36181     36189     36192
     36190     36189     36191     36190     36189     36192     36191     36189     36192
     36181     36193     36194     36181     36193     36195     36181     36193     36196
     36194     36193     36195     36194     36193     36196     36195     36193     36196
     36182     36197     36198     36182     36197     36199     36182     36197     36203
     36198     36197     36199     36198     36197     36203     36199     36197     36203
     36201     36200     36202     36201     36200     36203     36201     36200     36204
     36202     36200     36203     36202     36200     36204     36203     36200     36204
     36197     36203     36200     36200     36204     36205     36204     36205     36206
     36204     36205     36207     36204     36205     36208     36206     36205     36207
     36206     36205     36208     36207     36205     36208     36205     36208     36209
     36205     36208     36210     36205     36208     36216     36209     36208     36210
     36209     36208     36216     36210     36208     36216     36208     36210     36211
     36210     36211     36212     36210     36211     36213     36212     36211     36213
     36211     36213     36214     36211     36213     36215     36211     36213     36225
     36214     36213     36215     36214     36213     36225     36215     36213     36225
     36208     36216     36217     36208     36216     36218     36208     36216     36219
     36217     36216     36218     36217     36216     36219     36218     36216     36219
     36216     36219     36220     36219     36220     36221     36219     36220     36222
     36221     36220     36222     36220     36222     36223     36220     36222     36224
     36220     36222     36272     36223     36222     36224     36223     36222     36272
     36224     36222     36272     36213     36225     36226     36213     36225     36227
     36213     36225     36228     36226     36225     36227     36226     36225     36228
     36227     36225     36228     36225     36228     36229     36225     36228     36230
     36225     36228     36231     36229     36228     36230     36229     36228     36231
     36230     36228     36231     36228     36231     36232     36228     36231     36233
     36228     36231     36234     36232     36231     36233     36232     36231     36234
     36233     36231     36234     36231     36234     36235     36231     36234     36236
     36231     36234     36237     36235     36234     36236     36235     36234     36237
     36236     36234     36237     36234     36237     36238     36234     36237     36239
     36234     36237     36240     36238     36237     36239     36238     36237     36240
     36239     36237     36240     36237     36240     36241     36237     36240     36242
     36237     36240     36243     36241     36240     36242     36241     36240     36243
     36242     36240     36243     36240     36243     36244     36240     36243     36245
     36244     36243     36245     36243     36245     36246     36243     36245     36247
     36246     36245     36247     36245     36247     36248     36245     36247     36249
     36245     36247     36250     36248     36247     36249     36248     36247     36250
     36249     36247     36250     36247     36250     36251     36247     36250     36252
     36247     36250     36253     36251     36250     36252     36251     36250     36253
     36252     36250     36253     36250     36253     36254     36250     36253     36255
     36250     36253     36256     36254     36253     36255     36254     36253     36256
     36255     36253     36256     36253     36256     36257     36253     36256     36258
     36253     36256     36259     36257     36256     36258     36257     36256     36259
     36258     36256     36259     36256     36259     36260     36256     36259     36261
     36256     36259     36262     36260     36259     36261     36260     36259     36262
     36261     36259     36262     36259     36262     36263     36259     36262     36264
     36259     36262     36265     36263     36262     36264     36263     36262     36265
     36264     36262     36265     36262     36265     36266     36262     36265     36267
     36262     36265     36268     36266     36265     36267     36266     36265     36268
     36267     36265     36268     36265     36268     36269     36265     36268     36270
     36265     36268     36271     36269     36268     36270     36269     36268     36271
     36270     36268     36271     36222     36272     36273     36222     36272     36274
     36222     36272     36275     36273     36272     36274     36273     36272     36275
     36274     36272     36275     36272     36275     36276     36272     36275     36277
     36272     36275     36278     36276     36275     36277     36276     36275     36278
     36277     36275     36278     36275     36278     36279     36275     36278     36280
     36275     36278     36281     36279     36278     36280     36279     36278     36281
     36280     36278     36281     36278     36281     36282     36278     36281     36283
     36278     36281     36284     36282     36281     36283     36282     36281     36284
     36283     36281     36284     36281     36284     36285     36281     36284     36286
     36281     36284     36287     36285     36284     36286     36285     36284     36287
     36286     36284     36287     36284     36287     36288     36284     36287     36289
     36284     36287     36290     36288     36287     36289     36288     36287     36290
     36289     36287     36290     36287     36290     36291     36287     36290     36292
     36287     36290     36293     36291     36290     36292     36291     36290     36293
     36292     36290     36293     36290     36293     36294     36290     36293     36295
     36290     36293     36296     36294     36293     36295     36294     36293     36296
     36295     36293     36296     36293     36296     36297     36293     36296     36298
     36293     36296     36299     36297     36296     36298     36297     36296     36299
     36298     36296     36299     36296     36299     36300     36296     36299     36301
     36296     36299     36302     36300     36299     36301     36300     36299     36302
     36301     36299     36302     36299     36302     36303     36299     36302     36304
     36299     36302     36305     36303     36302     36304     36303     36302     36305
     36304     36302     36305     36302     36305     36306     36302     36305     36307
     36302     36305     36308     36306     36305     36307     36306     36305     36308
     36307     36305     36308     36305     36308     36309     36305     36308     36310
     36305     36308     36311     36309     36308     36310     36309     36308     36311
     36310     36308     36311     36308     36311     36312     36308     36311     36313
     36308     36311     36314     36312     36311     36313     36312     36311     36314
     36313     36311     36314     36316     36315     36319     36316     36315     36323
     36316     36315     36327     36319     36315     36323     36319     36315     36327
     36323     36315     36327     36315     36316     36317     36315     36316     36318
     36315     36316     36331     36317     36316     36318     36317     36316     36331
     36318     36316     36331     36315     36319     36320     36315     36319     36321
     36315     36319     36322     36320     36319     36321     36320     36319     36322
     36321     36319     36322     36315     36323     36324     36315     36323     36325
     36315     36323     36326     36324     36323     36325     36324     36323     36326
     36325     36323     36326     36315     36327     36328     36315     36327     36329
     36315     36327     36330     36328     36327     36329     36328     36327     36330
     36329     36327     36330     36316     36331     36332     36316     36331     36333
     36316     36331     36337     36332     36331     36333     36332     36331     36337
     36333     36331     36337     36335     36334     36336     36335     36334     36337
     36335     36334     36338     36336     36334     36337     36336     36334     36338
     36337     36334     36338     36331     36337     36334     36334     36338     36339
     36338     36339     36340     36338     36339     36341     36338     36339     36342
     36340     36339     36341     36340     36339     36342     36341     36339     36342
     36339     36342     36343     36339     36342     36344     36339     36342     36350
     36343     36342     36344     36343     36342     36350     36344     36342     36350
     36342     36344     36345     36344     36345     36346     36344     36345     36347
     36346     36345     36347     36345     36347     36348     36345     36347     36349
     36345     36347     36359     36348     36347     36349     36348     36347     36359
     36349     36347     36359     36342     36350     36351     36342     36350     36352
     36342     36350     36353     36351     36350     36352     36351     36350     36353
     36352     36350     36353     36350     36353     36354     36353     36354     36355
     36353     36354     36356     36355     36354     36356     36354     36356     36357
     36354     36356     36358     36354     36356     36406     36357     36356     36358
     36357     36356     36406     36358     36356     36406     36347     36359     36360
     36347     36359     36361     36347     36359     36362     36360     36359     36361
     36360     36359     36362     36361     36359     36362     36359     36362     36363
     36359     36362     36364     36359     36362     36365     36363     36362     36364
     36363     36362     36365     36364     36362     36365     36362     36365     36366
     36362     36365     36367     36362     36365     36368     36366     36365     36367
     36366     36365     36368     36367     36365     36368     36365     36368     36369
     36365     36368     36370     36365     36368     36371     36369     36368     36370
     36369     36368     36371     36370     36368     36371     36368     36371     36372
     36368     36371     36373     36368     36371     36374     36372     36371     36373
     36372     36371     36374     36373     36371     36374     36371     36374     36375
     36371     36374     36376     36371     36374     36377     36375     36374     36376
     36375     36374     36377     36376     36374     36377     36374     36377     36378
     36374     36377     36379     36378     36377     36379     36377     36379     36380
     36377     36379     36381     36380     36379     36381     36379     36381     36382
     36379     36381     36383     36379     36381     36384     36382     36381     36383
     36382     36381     36384     36383     36381     36384     36381     36384     36385
     36381     36384     36386     36381     36384     36387     36385     36384     36386
     36385     36384     36387     36386     36384     36387     36384     36387     36388
     36384     36387     36389     36384     36387     36390     36388     36387     36389
     36388     36387     36390     36389     36387     36390     36387     36390     36391
     36387     36390     36392     36387     36390     36393     36391     36390     36392
     36391     36390     36393     36392     36390     36393     36390     36393     36394
     36390     36393     36395     36390     36393     36396     36394     36393     36395
     36394     36393     36396     36395     36393     36396     36393     36396     36397
     36393     36396     36398     36393     36396     36399     36397     36396     36398
     36397     36396     36399     36398     36396     36399     36396     36399     36400
     36396     36399     36401     36396     36399     36402     36400     36399     36401
     36400     36399     36402     36401     36399     36402     36399     36402     36403
     36399     36402     36404     36399     36402     36405     36403     36402     36404
     36403     36402     36405     36404     36402     36405     36356     36406     36407
     36356     36406     36408     36356     36406     36409     36407     36406     36408
     36407     36406     36409     36408     36406     36409     36406     36409     36410
     36406     36409     36411     36406     36409     36412     36410     36409     36411
     36410     36409     36412     36411     36409     36412     36409     36412     36413
     36409     36412     36414     36409     36412     36415     36413     36412     36414
     36413     36412     36415     36414     36412     36415     36412     36415     36416
     36412     36415     36417     36412     36415     36418     36416     36415     36417
     36416     36415     36418     36417     36415     36418     36415     36418     36419
     36415     36418     36420     36415     36418     36421     36419     36418     36420
     36419     36418     36421     36420     36418     36421     36418     36421     36422
     36418     36421     36423     36418     36421     36424     36422     36421     36423
     36422     36421     36424     36423     36421     36424     36421     36424     36425
     36421     36424     36426     36421     36424     36427     36425     36424     36426
     36425     36424     36427     36426     36424     36427     36424     36427     36428
     36424     36427     36429     36424     36427     36430     36428     36427     36429
     36428     36427     36430     36429     36427     36430     36427     36430     36431
     36427     36430     36432     36427     36430     36433     36431     36430     36432
     36431     36430     36433     36432     36430     36433     36430     36433     36434
     36430     36433     36435     36430     36433     36436     36434     36433     36435
     36434     36433     36436     36435     36433     36436     36433     36436     36437
     36433     36436     36438     36433     36436     36439     36437     36436     36438
     36437     36436     36439     36438     36436     36439     36436     36439     36440
     36436     36439     36441     36436     36439     36442     36440     36439     36441
     36440     36439     36442     36441     36439     36442     36439     36442     36443
     36439     36442     36444     36439     36442     36445     36443     36442     36444
     36443     36442     36445     36444     36442     36445     36442     36445     36446
     36442     36445     36447     36442     36445     36448     36446     36445     36447
     36446     36445     36448     36447     36445     36448     36450     36449     36453
     36450     36449     36457     36450     36449     36461     36453     36449     36457
     36453     36449     36461     36457     36449     36461     36449     36450     36451
     36449     36450     36452     36449     36450     36465     36451     36450     36452
     36451     36450     36465     36452     36450     36465     36449     36453     36454
     36449     36453     36455     36449     36453     36456     36454     36453     36455
     36454     36453     36456     36455     36453     36456     36449     36457     36458
     36449     36457     36459     36449     36457     36460     36458     36457     36459
     36458     36457     36460     36459     36457     36460     36449     36461     36462
     36449     36461     36463     36449     36461     36464     36462     36461     36463
     36462     36461     36464     36463     36461     36464     36450     36465     36466
     36450     36465     36467     36450     36465     36471     36466     36465     36467
     36466     36465     36471     36467     36465     36471     36469     36468     36470
     36469     36468     36471     36469     36468     36472     36470     36468     36471
     36470     36468     36472     36471     36468     36472     36465     36471     36468
     36468     36472     36473     36472     36473     36474     36472     36473     36475
     36472     36473     36476     36474     36473     36475     36474     36473     36476
     36475     36473     36476     36473     36476     36477     36473     36476     36478
     36473     36476     36484     36477     36476     36478     36477     36476     36484
     36478     36476     36484     36476     36478     36479     36478     36479     36480
     36478     36479     36481     36480     36479     36481     36479     36481     36482
     36479     36481     36483     36479     36481     36493     36482     36481     36483
     36482     36481     36493     36483     36481     36493     36476     36484     36485
     36476     36484     36486     36476     36484     36487     36485     36484     36486
     36485     36484     36487     36486     36484     36487     36484     36487     36488
     36487     36488     36489     36487     36488     36490     36489     36488     36490
     36488     36490     36491     36488     36490     36492     36488     36490     36540
     36491     36490     36492     36491     36490     36540     36492     36490     36540
     36481     36493     36494     36481     36493     36495     36481     36493     36496
     36494     36493     36495     36494     36493     36496     36495     36493     36496
     36493     36496     36497     36493     36496     36498     36493     36496     36499
     36497     36496     36498     36497     36496     36499     36498     36496     36499
     36496     36499     36500     36496     36499     36501     36496     36499     36502
     36500     36499     36501     36500     36499     36502     36501     36499     36502
     36499     36502     36503     36499     36502     36504     36499     36502     36505
     36503     36502     36504     36503     36502     36505     36504     36502     36505
     36502     36505     36506     36502     36505     36507     36502     36505     36508
     36506     36505     36507     36506     36505     36508     36507     36505     36508
     36505     36508     36509     36505     36508     36510     36505     36508     36511
     36509     36508     36510     36509     36508     36511     36510     36508     36511
     36508     36511     36512     36508     36511     36513     36512     36511     36513
     36511     36513     36514     36511     36513     36515     36514     36513     36515
     36513     36515     36516     36513     36515     36517     36513     36515     36518
     36516     36515     36517     36516     36515     36518     36517     36515     36518
     36515     36518     36519     36515     36518     36520     36515     36518     36521
     36519     36518     36520     36519     36518     36521     36520     36518     36521
     36518     36521     36522     36518     36521     36523     36518     36521     36524
     36522     36521     36523     36522     36521     36524     36523     36521     36524
     36521     36524     36525     36521     36524     36526     36521     36524     36527
     36525     36524     36526     36525     36524     36527     36526     36524     36527
     36524     36527     36528     36524     36527     36529     36524     36527     36530
     36528     36527     36529     36528     36527     36530     36529     36527     36530
     36527     36530     36531     36527     36530     36532     36527     36530     36533
     36531     36530     36532     36531     36530     36533     36532     36530     36533
     36530     36533     36534     36530     36533     36535     36530     36533     36536
     36534     36533     36535     36534     36533     36536     36535     36533     36536
     36533     36536     36537     36533     36536     36538     36533     36536     36539
     36537     36536     36538     36537     36536     36539     36538     36536     36539
     36490     36540     36541     36490     36540     36542     36490     36540     36543
     36541     36540     36542     36541     36540     36543     36542     36540     36543
     36540     36543     36544     36540     36543     36545     36540     36543     36546
     36544     36543     36545     36544     36543     36546     36545     36543     36546
     36543     36546     36547     36543     36546     36548     36543     36546     36549
     36547     36546     36548     36547     36546     36549     36548     36546     36549
     36546     36549     36550     36546     36549     36551     36546     36549     36552
     36550     36549     36551     36550     36549     36552     36551     36549     36552
     36549     36552     36553     36549     36552     36554     36549     36552     36555
     36553     36552     36554     36553     36552     36555     36554     36552     36555
     36552     36555     36556     36552     36555     36557     36552     36555     36558
     36556     36555     36557     36556     36555     36558     36557     36555     36558
     36555     36558     36559     36555     36558     36560     36555     36558     36561
     36559     36558     36560     36559     36558     36561     36560     36558     36561
     36558     36561     36562     36558     36561     36563     36558     36561     36564
     36562     36561     36563     36562     36561     36564     36563     36561     36564
     36561     36564     36565     36561     36564     36566     36561     36564     36567
     36565     36564     36566     36565     36564     36567     36566     36564     36567
     36564     36567     36568     36564     36567     36569     36564     36567     36570
     36568     36567     36569     36568     36567     36570     36569     36567     36570
     36567     36570     36571     36567     36570     36572     36567     36570     36573
     36571     36570     36572     36571     36570     36573     36572     36570     36573
     36570     36573     36574     36570     36573     36575     36570     36573     36576
     36574     36573     36575     36574     36573     36576     36575     36573     36576
     36573     36576     36577     36573     36576     36578     36573     36576     36579
     36577     36576     36578     36577     36576     36579     36578     36576     36579
     36576     36579     36580     36576     36579     36581     36576     36579     36582
     36580     36579     36581     36580     36579     36582     36581     36579     36582
     36584     36583     36587     36584     36583     36591     36584     36583     36595
     36587     36583     36591     36587     36583     36595     36591     36583     36595
     36583     36584     36585     36583     36584     36586     36583     36584     36599
     36585     36584     36586     36585     36584     36599     36586     36584     36599
     36583     36587     36588     36583     36587     36589     36583     36587     36590
     36588     36587     36589     36588     36587     36590     36589     36587     36590
     36583     36591     36592     36583     36591     36593     36583     36591     36594
     36592     36591     36593     36592     36591     36594     36593     36591     36594
     36583     36595     36596     36583     36595     36597     36583     36595     36598
     36596     36595     36597     36596     36595     36598     36597     36595     36598
     36584     36599     36600     36584     36599     36601     36584     36599     36605
     36600     36599     36601     36600     36599     36605     36601     36599     36605
     36603     36602     36604     36603     36602     36605     36603     36602     36606
     36604     36602     36605     36604     36602     36606     36605     36602     36606
     36599     36605     36602     36602     36606     36607     36606     36607     36608
     36606     36607     36609     36606     36607     36610     36608     36607     36609
     36608     36607     36610     36609     36607     36610     36607     36610     36611
     36607     36610     36612     36607     36610     36618     36611     36610     36612
     36611     36610     36618     36612     36610     36618     36610     36612     36613
     36612     36613     36614     36612     36613     36615     36614     36613     36615
     36613     36615     36616     36613     36615     36617     36613     36615     36627
     36616     36615     36617     36616     36615     36627     36617     36615     36627
     36610     36618     36619     36610     36618     36620     36610     36618     36621
     36619     36618     36620     36619     36618     36621     36620     36618     36621
     36618     36621     36622     36621     36622     36623     36621     36622     36624
     36623     36622     36624     36622     36624     36625     36622     36624     36626
     36622     36624     36674     36625     36624     36626     36625     36624     36674
     36626     36624     36674     36615     36627     36628     36615     36627     36629
     36615     36627     36630     36628     36627     36629     36628     36627     36630
     36629     36627     36630     36627     36630     36631     36627     36630     36632
     36627     36630     36633     36631     36630     36632     36631     36630     36633
     36632     36630     36633     36630     36633     36634     36630     36633     36635
     36630     36633     36636     36634     36633     36635     36634     36633     36636
     36635     36633     36636     36633     36636     36637     36633     36636     36638
     36633     36636     36639     36637     36636     36638     36637     36636     36639
     36638     36636     36639     36636     36639     36640     36636     36639     36641
     36636     36639     36642     36640     36639     36641     36640     36639     36642
     36641     36639     36642     36639     36642     36643     36639     36642     36644
     36639     36642     36645     36643     36642     36644     36643     36642     36645
     36644     36642     36645     36642     36645     36646     36642     36645     36647
     36646     36645     36647     36645     36647     36648     36645     36647     36649
     36648     36647     36649     36647     36649     36650     36647     36649     36651
     36647     36649     36652     36650     36649     36651     36650     36649     36652
     36651     36649     36652     36649     36652     36653     36649     36652     36654
     36649     36652     36655     36653     36652     36654     36653     36652     36655
     36654     36652     36655     36652     36655     36656     36652     36655     36657
     36652     36655     36658     36656     36655     36657     36656     36655     36658
     36657     36655     36658     36655     36658     36659     36655     36658     36660
     36655     36658     36661     36659     36658     36660     36659     36658     36661
     36660     36658     36661     36658     36661     36662     36658     36661     36663
     36658     36661     36664     36662     36661     36663     36662     36661     36664
     36663     36661     36664     36661     36664     36665     36661     36664     36666
     36661     36664     36667     36665     36664     36666     36665     36664     36667
     36666     36664     36667     36664     36667     36668     36664     36667     36669
     36664     36667     36670     36668     36667     36669     36668     36667     36670
     36669     36667     36670     36667     36670     36671     36667     36670     36672
     36667     36670     36673     36671     36670     36672     36671     36670     36673
     36672     36670     36673     36624     36674     36675     36624     36674     36676
     36624     36674     36677     36675     36674     36676     36675     36674     36677
     36676     36674     36677     36674     36677     36678     36674     36677     36679
     36674     36677     36680     36678     36677     36679     36678     36677     36680
     36679     36677     36680     36677     36680     36681     36677     36680     36682
     36677     36680     36683     36681     36680     36682     36681     36680     36683
     36682     36680     36683     36680     36683     36684     36680     36683     36685
     36680     36683     36686     36684     36683     36685     36684     36683     36686
     36685     36683     36686     36683     36686     36687     36683     36686     36688
     36683     36686     36689     36687     36686     36688     36687     36686     36689
     36688     36686     36689     36686     36689     36690     36686     36689     36691
     36686     36689     36692     36690     36689     36691     36690     36689     36692
     36691     36689     36692     36689     36692     36693     36689     36692     36694
     36689     36692     36695     36693     36692     36694     36693     36692     36695
     36694     36692     36695     36692     36695     36696     36692     36695     36697
     36692     36695     36698     36696     36695     36697     36696     36695     36698
     36697     36695     36698     36695     36698     36699     36695     36698     36700
     36695     36698     36701     36699     36698     36700     36699     36698     36701
     36700     36698     36701     36698     36701     36702     36698     36701     36703
     36698     36701     36704     36702     36701     36703     36702     36701     36704
     36703     36701     36704     36701     36704     36705     36701     36704     36706
     36701     36704     36707     36705     36704     36706     36705     36704     36707
     36706     36704     36707     36704     36707     36708     36704     36707     36709
     36704     36707     36710     36708     36707     36709     36708     36707     36710
     36709     36707     36710     36707     36710     36711     36707     36710     36712
     36707     36710     36713     36711     36710     36712     36711     36710     36713
     36712     36710     36713     36710     36713     36714     36710     36713     36715
     36710     36713     36716     36714     36713     36715     36714     36713     36716
     36715     36713     36716     36718     36717     36721     36718     36717     36725
     36718     36717     36729     36721     36717     36725     36721     36717     36729
     36725     36717     36729     36717     36718     36719     36717     36718     36720
     36717     36718     36733     36719     36718     36720     36719     36718     36733
     36720     36718     36733     36717     36721     36722     36717     36721     36723
     36717     36721     36724     36722     36721     36723     36722     36721     36724
     36723     36721     36724     36717     36725     36726     36717     36725     36727
     36717     36725     36728     36726     36725     36727     36726     36725     36728
     36727     36725     36728     36717     36729     36730     36717     36729     36731
     36717     36729     36732     36730     36729     36731     36730     36729     36732
     36731     36729     36732     36718     36733     36734     36718     36733     36735
     36718     36733     36739     36734     36733     36735     36734     36733     36739
     36735     36733     36739     36737     36736     36738     36737     36736     36739
     36737     36736     36740     36738     36736     36739     36738     36736     36740
     36739     36736     36740     36733     36739     36736     36736     36740     36741
     36740     36741     36742     36740     36741     36743     36740     36741     36744
     36742     36741     36743     36742     36741     36744     36743     36741     36744
     36741     36744     36745     36741     36744     36746     36741     36744     36752
     36745     36744     36746     36745     36744     36752     36746     36744     36752
     36744     36746     36747     36746     36747     36748     36746     36747     36749
     36748     36747     36749     36747     36749     36750     36747     36749     36751
     36747     36749     36761     36750     36749     36751     36750     36749     36761
     36751     36749     36761     36744     36752     36753     36744     36752     36754
     36744     36752     36755     36753     36752     36754     36753     36752     36755
     36754     36752     36755     36752     36755     36756     36755     36756     36757
     36755     36756     36758     36757     36756     36758     36756     36758     36759
     36756     36758     36760     36756     36758     36808     36759     36758     36760
     36759     36758     36808     36760     36758     36808     36749     36761     36762
     36749     36761     36763     36749     36761     36764     36762     36761     36763
     36762     36761     36764     36763     36761     36764     36761     36764     36765
     36761     36764     36766     36761     36764     36767     36765     36764     36766
     36765     36764     36767     36766     36764     36767     36764     36767     36768
     36764     36767     36769     36764     36767     36770     36768     36767     36769
     36768     36767     36770     36769     36767     36770     36767     36770     36771
     36767     36770     36772     36767     36770     36773     36771     36770     36772
     36771     36770     36773     36772     36770     36773     36770     36773     36774
     36770     36773     36775     36770     36773     36776     36774     36773     36775
     36774     36773     36776     36775     36773     36776     36773     36776     36777
     36773     36776     36778     36773     36776     36779     36777     36776     36778
     36777     36776     36779     36778     36776     36779     36776     36779     36780
     36776     36779     36781     36780     36779     36781     36779     36781     36782
     36779     36781     36783     36782     36781     36783     36781     36783     36784
     36781     36783     36785     36781     36783     36786     36784     36783     36785
     36784     36783     36786     36785     36783     36786     36783     36786     36787
     36783     36786     36788     36783     36786     36789     36787     36786     36788
     36787     36786     36789     36788     36786     36789     36786     36789     36790
     36786     36789     36791     36786     36789     36792     36790     36789     36791
     36790     36789     36792     36791     36789     36792     36789     36792     36793
     36789     36792     36794     36789     36792     36795     36793     36792     36794
     36793     36792     36795     36794     36792     36795     36792     36795     36796
     36792     36795     36797     36792     36795     36798     36796     36795     36797
     36796     36795     36798     36797     36795     36798     36795     36798     36799
     36795     36798     36800     36795     36798     36801     36799     36798     36800
     36799     36798     36801     36800     36798     36801     36798     36801     36802
     36798     36801     36803     36798     36801     36804     36802     36801     36803
     36802     36801     36804     36803     36801     36804     36801     36804     36805
     36801     36804     36806     36801     36804     36807     36805     36804     36806
     36805     36804     36807     36806     36804     36807     36758     36808     36809
     36758     36808     36810     36758     36808     36811     36809     36808     36810
     36809     36808     36811     36810     36808     36811     36808     36811     36812
     36808     36811     36813     36808     36811     36814     36812     36811     36813
     36812     36811     36814     36813     36811     36814     36811     36814     36815
     36811     36814     36816     36811     36814     36817     36815     36814     36816
     36815     36814     36817     36816     36814     36817     36814     36817     36818
     36814     36817     36819     36814     36817     36820     36818     36817     36819
     36818     36817     36820     36819     36817     36820     36817     36820     36821
     36817     36820     36822     36817     36820     36823     36821     36820     36822
     36821     36820     36823     36822     36820     36823     36820     36823     36824
     36820     36823     36825     36820     36823     36826     36824     36823     36825
     36824     36823     36826     36825     36823     36826     36823     36826     36827
     36823     36826     36828     36823     36826     36829     36827     36826     36828
     36827     36826     36829     36828     36826     36829     36826     36829     36830
     36826     36829     36831     36826     36829     36832     36830     36829     36831
     36830     36829     36832     36831     36829     36832     36829     36832     36833
     36829     36832     36834     36829     36832     36835     36833     36832     36834
     36833     36832     36835     36834     36832     36835     36832     36835     36836
     36832     36835     36837     36832     36835     36838     36836     36835     36837
     36836     36835     36838     36837     36835     36838     36835     36838     36839
     36835     36838     36840     36835     36838     36841     36839     36838     36840
     36839     36838     36841     36840     36838     36841     36838     36841     36842
     36838     36841     36843     36838     36841     36844     36842     36841     36843
     36842     36841     36844     36843     36841     36844     36841     36844     36845
     36841     36844     36846     36841     36844     36847     36845     36844     36846
     36845     36844     36847     36846     36844     36847     36844     36847     36848
     36844     36847     36849     36844     36847     36850     36848     36847     36849
     36848     36847     36850     36849     36847     36850     36852     36851     36855
     36852     36851     36859     36852     36851     36863     36855     36851     36859
     36855     36851     36863     36859     36851     36863     36851     36852     36853
     36851     36852     36854     36851     36852     36867     36853     36852     36854
     36853     36852     36867     36854     36852     36867     36851     36855     36856
     36851     36855     36857     36851     36855     36858     36856     36855     36857
     36856     36855     36858     36857     36855     36858     36851     36859     36860
     36851     36859     36861     36851     36859     36862     36860     36859     36861
     36860     36859     36862     36861     36859     36862     36851     36863     36864
     36851     36863     36865     36851     36863     36866     36864     36863     36865
     36864     36863     36866     36865     36863     36866     36852     36867     36868
     36852     36867     36869     36852     36867     36873     36868     36867     36869
     36868     36867     36873     36869     36867     36873     36871     36870     36872
     36871     36870     36873     36871     36870     36874     36872     36870     36873
     36872     36870     36874     36873     36870     36874     36867     36873     36870
     36870     36874     36875     36874     36875     36876     36874     36875     36877
     36874     36875     36878     36876     36875     36877     36876     36875     36878
     36877     36875     36878     36875     36878     36879     36875     36878     36880
     36875     36878     36886     36879     36878     36880     36879     36878     36886
     36880     36878     36886     36878     36880     36881     36880     36881     36882
     36880     36881     36883     36882     36881     36883     36881     36883     36884
     36881     36883     36885     36881     36883     36895     36884     36883     36885
     36884     36883     36895     36885     36883     36895     36878     36886     36887
     36878     36886     36888     36878     36886     36889     36887     36886     36888
     36887     36886     36889     36888     36886     36889     36886     36889     36890
     36889     36890     36891     36889     36890     36892     36891     36890     36892
     36890     36892     36893     36890     36892     36894     36890     36892     36942
     36893     36892     36894     36893     36892     36942     36894     36892     36942
     36883     36895     36896     36883     36895     36897     36883     36895     36898
     36896     36895     36897     36896     36895     36898     36897     36895     36898
     36895     36898     36899     36895     36898     36900     36895     36898     36901
     36899     36898     36900     36899     36898     36901     36900     36898     36901
     36898     36901     36902     36898     36901     36903     36898     36901     36904
     36902     36901     36903     36902     36901     36904     36903     36901     36904
     36901     36904     36905     36901     36904     36906     36901     36904     36907
     36905     36904     36906     36905     36904     36907     36906     36904     36907
     36904     36907     36908     36904     36907     36909     36904     36907     36910
     36908     36907     36909     36908     36907     36910     36909     36907     36910
     36907     36910     36911     36907     36910     36912     36907     36910     36913
     36911     36910     36912     36911     36910     36913     36912     36910     36913
     36910     36913     36914     36910     36913     36915     36914     36913     36915
     36913     36915     36916     36913     36915     36917     36916     36915     36917
     36915     36917     36918     36915     36917     36919     36915     36917     36920
     36918     36917     36919     36918     36917     36920     36919     36917     36920
     36917     36920     36921     36917     36920     36922     36917     36920     36923
     36921     36920     36922     36921     36920     36923     36922     36920     36923
     36920     36923     36924     36920     36923     36925     36920     36923     36926
     36924     36923     36925     36924     36923     36926     36925     36923     36926
     36923     36926     36927     36923     36926     36928     36923     36926     36929
     36927     36926     36928     36927     36926     36929     36928     36926     36929
     36926     36929     36930     36926     36929     36931     36926     36929     36932
     36930     36929     36931     36930     36929     36932     36931     36929     36932
     36929     36932     36933     36929     36932     36934     36929     36932     36935
     36933     36932     36934     36933     36932     36935     36934     36932     36935
     36932     36935     36936     36932     36935     36937     36932     36935     36938
     36936     36935     36937     36936     36935     36938     36937     36935     36938
     36935     36938     36939     36935     36938     36940     36935     36938     36941
     36939     36938     36940     36939     36938     36941     36940     36938     36941
     36892     36942     36943     36892     36942     36944     36892     36942     36945
     36943     36942     36944     36943     36942     36945     36944     36942     36945
     36942     36945     36946     36942     36945     36947     36942     36945     36948
     36946     36945     36947     36946     36945     36948     36947     36945     36948
     36945     36948     36949     36945     36948     36950     36945     36948     36951
     36949     36948     36950     36949     36948     36951     36950     36948     36951
     36948     36951     36952     36948     36951     36953     36948     36951     36954
     36952     36951     36953     36952     36951     36954     36953     36951     36954
     36951     36954     36955     36951     36954     36956     36951     36954     36957
     36955     36954     36956     36955     36954     36957     36956     36954     36957
     36954     36957     36958     36954     36957     36959     36954     36957     36960
     36958     36957     36959     36958     36957     36960     36959     36957     36960
     36957     36960     36961     36957     36960     36962     36957     36960     36963
     36961     36960     36962     36961     36960     36963     36962     36960     36963
     36960     36963     36964     36960     36963     36965     36960     36963     36966
     36964     36963     36965     36964     36963     36966     36965     36963     36966
     36963     36966     36967     36963     36966     36968     36963     36966     36969
     36967     36966     36968     36967     36966     36969     36968     36966     36969
     36966     36969     36970     36966     36969     36971     36966     36969     36972
     36970     36969     36971     36970     36969     36972     36971     36969     36972
     36969     36972     36973     36969     36972     36974     36969     36972     36975
     36973     36972     36974     36973     36972     36975     36974     36972     36975
     36972     36975     36976     36972     36975     36977     36972     36975     36978
     36976     36975     36977     36976     36975     36978     36977     36975     36978
     36975     36978     36979     36975     36978     36980     36975     36978     36981
     36979     36978     36980     36979     36978     36981     36980     36978     36981
     36978     36981     36982     36978     36981     36983     36978     36981     36984
     36982     36981     36983     36982     36981     36984     36983     36981     36984
     36986     36985     36989     36986     36985     36993     36986     36985     36997
     36989     36985     36993     36989     36985     36997     36993     36985     36997
     36985     36986     36987     36985     36986     36988     36985     36986     37001
     36987     36986     36988     36987     36986     37001     36988     36986     37001
     36985     36989     36990     36985     36989     36991     36985     36989     36992
     36990     36989     36991     36990     36989     36992     36991     36989     36992
     36985     36993     36994     36985     36993     36995     36985     36993     36996
     36994     36993     36995     36994     36993     36996     36995     36993     36996
     36985     36997     36998     36985     36997     36999     36985     36997     37000
     36998     36997     36999     36998     36997     37000     36999     36997     37000
     36986     37001     37002     36986     37001     37003     36986     37001     37007
     37002     37001     37003     37002     37001     37007     37003     37001     37007
     37005     37004     37006     37005     37004     37007     37005     37004     37008
     37006     37004     37007     37006     37004     37008     37007     37004     37008
     37001     37007     37004     37004     37008     37009     37008     37009     37010
     37008     37009     37011     37008     37009     37012     37010     37009     37011
     37010     37009     37012     37011     37009     37012     37009     37012     37013
     37009     37012     37014     37009     37012     37020     37013     37012     37014
     37013     37012     37020     37014     37012     37020     37012     37014     37015
     37014     37015     37016     37014     37015     37017     37016     37015     37017
     37015     37017     37018     37015     37017     37019     37015     37017     37029
     37018     37017     37019     37018     37017     37029     37019     37017     37029
     37012     37020     37021     37012     37020     37022     37012     37020     37023
     37021     37020     37022     37021     37020     37023     37022     37020     37023
     37020     37023     37024     37023     37024     37025     37023     37024     37026
     37025     37024     37026     37024     37026     37027     37024     37026     37028
     37024     37026     37076     37027     37026     37028     37027     37026     37076
     37028     37026     37076     37017     37029     37030     37017     37029     37031
     37017     37029     37032     37030     37029     37031     37030     37029     37032
     37031     37029     37032     37029     37032     37033     37029     37032     37034
     37029     37032     37035     37033     37032     37034     37033     37032     37035
     37034     37032     37035     37032     37035     37036     37032     37035     37037
     37032     37035     37038     37036     37035     37037     37036     37035     37038
     37037     37035     37038     37035     37038     37039     37035     37038     37040
     37035     37038     37041     37039     37038     37040     37039     37038     37041
     37040     37038     37041     37038     37041     37042     37038     37041     37043
     37038     37041     37044     37042     37041     37043     37042     37041     37044
     37043     37041     37044     37041     37044     37045     37041     37044     37046
     37041     37044     37047     37045     37044     37046     37045     37044     37047
     37046     37044     37047     37044     37047     37048     37044     37047     37049
     37048     37047     37049     37047     37049     37050     37047     37049     37051
     37050     37049     37051     37049     37051     37052     37049     37051     37053
     37049     37051     37054     37052     37051     37053     37052     37051     37054
     37053     37051     37054     37051     37054     37055     37051     37054     37056
     37051     37054     37057     37055     37054     37056     37055     37054     37057
     37056     37054     37057     37054     37057     37058     37054     37057     37059
     37054     37057     37060     37058     37057     37059     37058     37057     37060
     37059     37057     37060     37057     37060     37061     37057     37060     37062
     37057     37060     37063     37061     37060     37062     37061     37060     37063
     37062     37060     37063     37060     37063     37064     37060     37063     37065
     37060     37063     37066     37064     37063     37065     37064     37063     37066
     37065     37063     37066     37063     37066     37067     37063     37066     37068
     37063     37066     37069     37067     37066     37068     37067     37066     37069
     37068     37066     37069     37066     37069     37070     37066     37069     37071
     37066     37069     37072     37070     37069     37071     37070     37069     37072
     37071     37069     37072     37069     37072     37073     37069     37072     37074
     37069     37072     37075     37073     37072     37074     37073     37072     37075
     37074     37072     37075     37026     37076     37077     37026     37076     37078
     37026     37076     37079     37077     37076     37078     37077     37076     37079
     37078     37076     37079     37076     37079     37080     37076     37079     37081
     37076     37079     37082     37080     37079     37081     37080     37079     37082
     37081     37079     37082     37079     37082     37083     37079     37082     37084
     37079     37082     37085     37083     37082     37084     37083     37082     37085
     37084     37082     37085     37082     37085     37086     37082     37085     37087
     37082     37085     37088     37086     37085     37087     37086     37085     37088
     37087     37085     37088     37085     37088     37089     37085     37088     37090
     37085     37088     37091     37089     37088     37090     37089     37088     37091
     37090     37088     37091     37088     37091     37092     37088     37091     37093
     37088     37091     37094     37092     37091     37093     37092     37091     37094
     37093     37091     37094     37091     37094     37095     37091     37094     37096
     37091     37094     37097     37095     37094     37096     37095     37094     37097
     37096     37094     37097     37094     37097     37098     37094     37097     37099
     37094     37097     37100     37098     37097     37099     37098     37097     37100
     37099     37097     37100     37097     37100     37101     37097     37100     37102
     37097     37100     37103     37101     37100     37102     37101     37100     37103
     37102     37100     37103     37100     37103     37104     37100     37103     37105
     37100     37103     37106     37104     37103     37105     37104     37103     37106
     37105     37103     37106     37103     37106     37107     37103     37106     37108
     37103     37106     37109     37107     37106     37108     37107     37106     37109
     37108     37106     37109     37106     37109     37110     37106     37109     37111
     37106     37109     37112     37110     37109     37111     37110     37109     37112
     37111     37109     37112     37109     37112     37113     37109     37112     37114
     37109     37112     37115     37113     37112     37114     37113     37112     37115
     37114     37112     37115     37112     37115     37116     37112     37115     37117
     37112     37115     37118     37116     37115     37117     37116     37115     37118
     37117     37115     37118     37120     37119     37123     37120     37119     37127
     37120     37119     37131     37123     37119     37127     37123     37119     37131
     37127     37119     37131     37119     37120     37121     37119     37120     37122
     37119     37120     37135     37121     37120     37122     37121     37120     37135
     37122     37120     37135     37119     37123     37124     37119     37123     37125
     37119     37123     37126     37124     37123     37125     37124     37123     37126
     37125     37123     37126     37119     37127     37128     37119     37127     37129
     37119     37127     37130     37128     37127     37129     37128     37127     37130
     37129     37127     37130     37119     37131     37132     37119     37131     37133
     37119     37131     37134     37132     37131     37133     37132     37131     37134
     37133     37131     37134     37120     37135     37136     37120     37135     37137
     37120     37135     37141     37136     37135     37137     37136     37135     37141
     37137     37135     37141     37139     37138     37140     37139     37138     37141
     37139     37138     37142     37140     37138     37141     37140     37138     37142
     37141     37138     37142     37135     37141     37138     37138     37142     37143
     37142     37143     37144     37142     37143     37145     37142     37143     37146
     37144     37143     37145     37144     37143     37146     37145     37143     37146
     37143     37146     37147     37143     37146     37148     37143     37146     37154
     37147     37146     37148     37147     37146     37154     37148     37146     37154
     37146     37148     37149     37148     37149     37150     37148     37149     37151
     37150     37149     37151     37149     37151     37152     37149     37151     37153
     37149     37151     37163     37152     37151     37153     37152     37151     37163
     37153     37151     37163     37146     37154     37155     37146     37154     37156
     37146     37154     37157     37155     37154     37156     37155     37154     37157
     37156     37154     37157     37154     37157     37158     37157     37158     37159
     37157     37158     37160     37159     37158     37160     37158     37160     37161
     37158     37160     37162     37158     37160     37210     37161     37160     37162
     37161     37160     37210     37162     37160     37210     37151     37163     37164
     37151     37163     37165     37151     37163     37166     37164     37163     37165
     37164     37163     37166     37165     37163     37166     37163     37166     37167
     37163     37166     37168     37163     37166     37169     37167     37166     37168
     37167     37166     37169     37168     37166     37169     37166     37169     37170
     37166     37169     37171     37166     37169     37172     37170     37169     37171
     37170     37169     37172     37171     37169     37172     37169     37172     37173
     37169     37172     37174     37169     37172     37175     37173     37172     37174
     37173     37172     37175     37174     37172     37175     37172     37175     37176
     37172     37175     37177     37172     37175     37178     37176     37175     37177
     37176     37175     37178     37177     37175     37178     37175     37178     37179
     37175     37178     37180     37175     37178     37181     37179     37178     37180
     37179     37178     37181     37180     37178     37181     37178     37181     37182
     37178     37181     37183     37182     37181     37183     37181     37183     37184
     37181     37183     37185     37184     37183     37185     37183     37185     37186
     37183     37185     37187     37183     37185     37188     37186     37185     37187
     37186     37185     37188     37187     37185     37188     37185     37188     37189
     37185     37188     37190     37185     37188     37191     37189     37188     37190
     37189     37188     37191     37190     37188     37191     37188     37191     37192
     37188     37191     37193     37188     37191     37194     37192     37191     37193
     37192     37191     37194     37193     37191     37194     37191     37194     37195
     37191     37194     37196     37191     37194     37197     37195     37194     37196
     37195     37194     37197     37196     37194     37197     37194     37197     37198
     37194     37197     37199     37194     37197     37200     37198     37197     37199
     37198     37197     37200     37199     37197     37200     37197     37200     37201
     37197     37200     37202     37197     37200     37203     37201     37200     37202
     37201     37200     37203     37202     37200     37203     37200     37203     37204
     37200     37203     37205     37200     37203     37206     37204     37203     37205
     37204     37203     37206     37205     37203     37206     37203     37206     37207
     37203     37206     37208     37203     37206     37209     37207     37206     37208
     37207     37206     37209     37208     37206     37209     37160     37210     37211
     37160     37210     37212     37160     37210     37213     37211     37210     37212
     37211     37210     37213     37212     37210     37213     37210     37213     37214
     37210     37213     37215     37210     37213     37216     37214     37213     37215
     37214     37213     37216     37215     37213     37216     37213     37216     37217
     37213     37216     37218     37213     37216     37219     37217     37216     37218
     37217     37216     37219     37218     37216     37219     37216     37219     37220
     37216     37219     37221     37216     37219     37222     37220     37219     37221
     37220     37219     37222     37221     37219     37222     37219     37222     37223
     37219     37222     37224     37219     37222     37225     37223     37222     37224
     37223     37222     37225     37224     37222     37225     37222     37225     37226
     37222     37225     37227     37222     37225     37228     37226     37225     37227
     37226     37225     37228     37227     37225     37228     37225     37228     37229
     37225     37228     37230     37225     37228     37231     37229     37228     37230
     37229     37228     37231     37230     37228     37231     37228     37231     37232
     37228     37231     37233     37228     37231     37234     37232     37231     37233
     37232     37231     37234     37233     37231     37234     37231     37234     37235
     37231     37234     37236     37231     37234     37237     37235     37234     37236
     37235     37234     37237     37236     37234     37237     37234     37237     37238
     37234     37237     37239     37234     37237     37240     37238     37237     37239
     37238     37237     37240     37239     37237     37240     37237     37240     37241
     37237     37240     37242     37237     37240     37243     37241     37240     37242
     37241     37240     37243     37242     37240     37243     37240     37243     37244
     37240     37243     37245     37240     37243     37246     37244     37243     37245
     37244     37243     37246     37245     37243     37246     37243     37246     37247
     37243     37246     37248     37243     37246     37249     37247     37246     37248
     37247     37246     37249     37248     37246     37249     37246     37249     37250
     37246     37249     37251     37246     37249     37252     37250     37249     37251
     37250     37249     37252     37251     37249     37252     37254     37253     37257
     37254     37253     37261     37254     37253     37265     37257     37253     37261
     37257     37253     37265     37261     37253     37265     37253     37254     37255
     37253     37254     37256     37253     37254     37269     37255     37254     37256
     37255     37254     37269     37256     37254     37269     37253     37257     37258
     37253     37257     37259     37253     37257     37260     37258     37257     37259
     37258     37257     37260     37259     37257     37260     37253     37261     37262
     37253     37261     37263     37253     37261     37264     37262     37261     37263
     37262     37261     37264     37263     37261     37264     37253     37265     37266
     37253     37265     37267     37253     37265     37268     37266     37265     37267
     37266     37265     37268     37267     37265     37268     37254     37269     37270
     37254     37269     37271     37254     37269     37275     37270     37269     37271
     37270     37269     37275     37271     37269     37275     37273     37272     37274
     37273     37272     37275     37273     37272     37276     37274     37272     37275
     37274     37272     37276     37275     37272     37276     37269     37275     37272
     37272     37276     37277     37276     37277     37278     37276     37277     37279
     37276     37277     37280     37278     37277     37279     37278     37277     37280
     37279     37277     37280     37277     37280     37281     37277     37280     37282
     37277     37280     37288     37281     37280     37282     37281     37280     37288
     37282     37280     37288     37280     37282     37283     37282     37283     37284
     37282     37283     37285     37284     37283     37285     37283     37285     37286
     37283     37285     37287     37283     37285     37297     37286     37285     37287
     37286     37285     37297     37287     37285     37297     37280     37288     37289
     37280     37288     37290     37280     37288     37291     37289     37288     37290
     37289     37288     37291     37290     37288     37291     37288     37291     37292
     37291     37292     37293     37291     37292     37294     37293     37292     37294
     37292     37294     37295     37292     37294     37296     37292     37294     37344
     37295     37294     37296     37295     37294     37344     37296     37294     37344
     37285     37297     37298     37285     37297     37299     37285     37297     37300
     37298     37297     37299     37298     37297     37300     37299     37297     37300
     37297     37300     37301     37297     37300     37302     37297     37300     37303
     37301     37300     37302     37301     37300     37303     37302     37300     37303
     37300     37303     37304     37300     37303     37305     37300     37303     37306
     37304     37303     37305     37304     37303     37306     37305     37303     37306
     37303     37306     37307     37303     37306     37308     37303     37306     37309
     37307     37306     37308     37307     37306     37309     37308     37306     37309
     37306     37309     37310     37306     37309     37311     37306     37309     37312
     37310     37309     37311     37310     37309     37312     37311     37309     37312
     37309     37312     37313     37309     37312     37314     37309     37312     37315
     37313     37312     37314     37313     37312     37315     37314     37312     37315
     37312     37315     37316     37312     37315     37317     37316     37315     37317
     37315     37317     37318     37315     37317     37319     37318     37317     37319
     37317     37319     37320     37317     37319     37321     37317     37319     37322
     37320     37319     37321     37320     37319     37322     37321     37319     37322
     37319     37322     37323     37319     37322     37324     37319     37322     37325
     37323     37322     37324     37323     37322     37325     37324     37322     37325
     37322     37325     37326     37322     37325     37327     37322     37325     37328
     37326     37325     37327     37326     37325     37328     37327     37325     37328
     37325     37328     37329     37325     37328     37330     37325     37328     37331
     37329     37328     37330     37329     37328     37331     37330     37328     37331
     37328     37331     37332     37328     37331     37333     37328     37331     37334
     37332     37331     37333     37332     37331     37334     37333     37331     37334
     37331     37334     37335     37331     37334     37336     37331     37334     37337
     37335     37334     37336     37335     37334     37337     37336     37334     37337
     37334     37337     37338     37334     37337     37339     37334     37337     37340
     37338     37337     37339     37338     37337     37340     37339     37337     37340
     37337     37340     37341     37337     37340     37342     37337     37340     37343
     37341     37340     37342     37341     37340     37343     37342     37340     37343
     37294     37344     37345     37294     37344     37346     37294     37344     37347
     37345     37344     37346     37345     37344     37347     37346     37344     37347
     37344     37347     37348     37344     37347     37349     37344     37347     37350
     37348     37347     37349     37348     37347     37350     37349     37347     37350
     37347     37350     37351     37347     37350     37352     37347     37350     37353
     37351     37350     37352     37351     37350     37353     37352     37350     37353
     37350     37353     37354     37350     37353     37355     37350     37353     37356
     37354     37353     37355     37354     37353     37356     37355     37353     37356
     37353     37356     37357     37353     37356     37358     37353     37356     37359
     37357     37356     37358     37357     37356     37359     37358     37356     37359
     37356     37359     37360     37356     37359     37361     37356     37359     37362
     37360     37359     37361     37360     37359     37362     37361     37359     37362
     37359     37362     37363     37359     37362     37364     37359     37362     37365
     37363     37362     37364     37363     37362     37365     37364     37362     37365
     37362     37365     37366     37362     37365     37367     37362     37365     37368
     37366     37365     37367     37366     37365     37368     37367     37365     37368
     37365     37368     37369     37365     37368     37370     37365     37368     37371
     37369     37368     37370     37369     37368     37371     37370     37368     37371
     37368     37371     37372     37368     37371     37373     37368     37371     37374
     37372     37371     37373     37372     37371     37374     37373     37371     37374
     37371     37374     37375     37371     37374     37376     37371     37374     37377
     37375     37374     37376     37375     37374     37377     37376     37374     37377
     37374     37377     37378     37374     37377     37379     37374     37377     37380
     37378     37377     37379     37378     37377     37380     37379     37377     37380
     37377     37380     37381     37377     37380     37382     37377     37380     37383
     37381     37380     37382     37381     37380     37383     37382     37380     37383
     37380     37383     37384     37380     37383     37385     37380     37383     37386
     37384     37383     37385     37384     37383     37386     37385     37383     37386
     37388     37387     37391     37388     37387     37395     37388     37387     37399
     37391     37387     37395     37391     37387     37399     37395     37387     37399
     37387     37388     37389     37387     37388     37390     37387     37388     37403
     37389     37388     37390     37389     37388     37403     37390     37388     37403
     37387     37391     37392     37387     37391     37393     37387     37391     37394
     37392     37391     37393     37392     37391     37394     37393     37391     37394
     37387     37395     37396     37387     37395     37397     37387     37395     37398
     37396     37395     37397     37396     37395     37398     37397     37395     37398
     37387     37399     37400     37387     37399     37401     37387     37399     37402
     37400     37399     37401     37400     37399     37402     37401     37399     37402
     37388     37403     37404     37388     37403     37405     37388     37403     37409
     37404     37403     37405     37404     37403     37409     37405     37403     37409
     37407     37406     37408     37407     37406     37409     37407     37406     37410
     37408     37406     37409     37408     37406     37410     37409     37406     37410
     37403     37409     37406     37406     37410     37411     37410     37411     37412
     37410     37411     37413     37410     37411     37414     37412     37411     37413
     37412     37411     37414     37413     37411     37414     37411     37414     37415
     37411     37414     37416     37411     37414     37422     37415     37414     37416
     37415     37414     37422     37416     37414     37422     37414     37416     37417
     37416     37417     37418     37416     37417     37419     37418     37417     37419
     37417     37419     37420     37417     37419     37421     37417     37419     37431
     37420     37419     37421     37420     37419     37431     37421     37419     37431
     37414     37422     37423     37414     37422     37424     37414     37422     37425
     37423     37422     37424     37423     37422     37425     37424     37422     37425
     37422     37425     37426     37425     37426     37427     37425     37426     37428
     37427     37426     37428     37426     37428     37429     37426     37428     37430
     37426     37428     37478     37429     37428     37430     37429     37428     37478
     37430     37428     37478     37419     37431     37432     37419     37431     37433
     37419     37431     37434     37432     37431     37433     37432     37431     37434
     37433     37431     37434     37431     37434     37435     37431     37434     37436
     37431     37434     37437     37435     37434     37436     37435     37434     37437
     37436     37434     37437     37434     37437     37438     37434     37437     37439
     37434     37437     37440     37438     37437     37439     37438     37437     37440
     37439     37437     37440     37437     37440     37441     37437     37440     37442
     37437     37440     37443     37441     37440     37442     37441     37440     37443
     37442     37440     37443     37440     37443     37444     37440     37443     37445
     37440     37443     37446     37444     37443     37445     37444     37443     37446
     37445     37443     37446     37443     37446     37447     37443     37446     37448
     37443     37446     37449     37447     37446     37448     37447     37446     37449
     37448     37446     37449     37446     37449     37450     37446     37449     37451
     37450     37449     37451     37449     37451     37452     37449     37451     37453
     37452     37451     37453     37451     37453     37454     37451     37453     37455
     37451     37453     37456     37454     37453     37455     37454     37453     37456
     37455     37453     37456     37453     37456     37457     37453     37456     37458
     37453     37456     37459     37457     37456     37458     37457     37456     37459
     37458     37456     37459     37456     37459     37460     37456     37459     37461
     37456     37459     37462     37460     37459     37461     37460     37459     37462
     37461     37459     37462     37459     37462     37463     37459     37462     37464
     37459     37462     37465     37463     37462     37464     37463     37462     37465
     37464     37462     37465     37462     37465     37466     37462     37465     37467
     37462     37465     37468     37466     37465     37467     37466     37465     37468
     37467     37465     37468     37465     37468     37469     37465     37468     37470
     37465     37468     37471     37469     37468     37470     37469     37468     37471
     37470     37468     37471     37468     37471     37472     37468     37471     37473
     37468     37471     37474     37472     37471     37473     37472     37471     37474
     37473     37471     37474     37471     37474     37475     37471     37474     37476
     37471     37474     37477     37475     37474     37476     37475     37474     37477
     37476     37474     37477     37428     37478     37479     37428     37478     37480
     37428     37478     37481     37479     37478     37480     37479     37478     37481
     37480     37478     37481     37478     37481     37482     37478     37481     37483
     37478     37481     37484     37482     37481     37483     37482     37481     37484
     37483     37481     37484     37481     37484     37485     37481     37484     37486
     37481     37484     37487     37485     37484     37486     37485     37484     37487
     37486     37484     37487     37484     37487     37488     37484     37487     37489
     37484     37487     37490     37488     37487     37489     37488     37487     37490
     37489     37487     37490     37487     37490     37491     37487     37490     37492
     37487     37490     37493     37491     37490     37492     37491     37490     37493
     37492     37490     37493     37490     37493     37494     37490     37493     37495
     37490     37493     37496     37494     37493     37495     37494     37493     37496
     37495     37493     37496     37493     37496     37497     37493     37496     37498
     37493     37496     37499     37497     37496     37498     37497     37496     37499
     37498     37496     37499     37496     37499     37500     37496     37499     37501
     37496     37499     37502     37500     37499     37501     37500     37499     37502
     37501     37499     37502     37499     37502     37503     37499     37502     37504
     37499     37502     37505     37503     37502     37504     37503     37502     37505
     37504     37502     37505     37502     37505     37506     37502     37505     37507
     37502     37505     37508     37506     37505     37507     37506     37505     37508
     37507     37505     37508     37505     37508     37509     37505     37508     37510
     37505     37508     37511     37509     37508     37510     37509     37508     37511
     37510     37508     37511     37508     37511     37512     37508     37511     37513
     37508     37511     37514     37512     37511     37513     37512     37511     37514
     37513     37511     37514     37511     37514     37515     37511     37514     37516
     37511     37514     37517     37515     37514     37516     37515     37514     37517
     37516     37514     37517     37514     37517     37518     37514     37517     37519
     37514     37517     37520     37518     37517     37519     37518     37517     37520
     37519     37517     37520     37522     37521     37525     37522     37521     37529
     37522     37521     37533     37525     37521     37529     37525     37521     37533
     37529     37521     37533     37521     37522     37523     37521     37522     37524
     37521     37522     37537     37523     37522     37524     37523     37522     37537
     37524     37522     37537     37521     37525     37526     37521     37525     37527
     37521     37525     37528     37526     37525     37527     37526     37525     37528
     37527     37525     37528     37521     37529     37530     37521     37529     37531
     37521     37529     37532     37530     37529     37531     37530     37529     37532
     37531     37529     37532     37521     37533     37534     37521     37533     37535
     37521     37533     37536     37534     37533     37535     37534     37533     37536
     37535     37533     37536     37522     37537     37538     37522     37537     37539
     37522     37537     37543     37538     37537     37539     37538     37537     37543
     37539     37537     37543     37541     37540     37542     37541     37540     37543
     37541     37540     37544     37542     37540     37543     37542     37540     37544
     37543     37540     37544     37537     37543     37540     37540     37544     37545
     37544     37545     37546     37544     37545     37547     37544     37545     37548
     37546     37545     37547     37546     37545     37548     37547     37545     37548
     37545     37548     37549     37545     37548     37550     37545     37548     37556
     37549     37548     37550     37549     37548     37556     37550     37548     37556
     37548     37550     37551     37550     37551     37552     37550     37551     37553
     37552     37551     37553     37551     37553     37554     37551     37553     37555
     37551     37553     37565     37554     37553     37555     37554     37553     37565
     37555     37553     37565     37548     37556     37557     37548     37556     37558
     37548     37556     37559     37557     37556     37558     37557     37556     37559
     37558     37556     37559     37556     37559     37560     37559     37560     37561
     37559     37560     37562     37561     37560     37562     37560     37562     37563
     37560     37562     37564     37560     37562     37612     37563     37562     37564
     37563     37562     37612     37564     37562     37612     37553     37565     37566
     37553     37565     37567     37553     37565     37568     37566     37565     37567
     37566     37565     37568     37567     37565     37568     37565     37568     37569
     37565     37568     37570     37565     37568     37571     37569     37568     37570
     37569     37568     37571     37570     37568     37571     37568     37571     37572
     37568     37571     37573     37568     37571     37574     37572     37571     37573
     37572     37571     37574     37573     37571     37574     37571     37574     37575
     37571     37574     37576     37571     37574     37577     37575     37574     37576
     37575     37574     37577     37576     37574     37577     37574     37577     37578
     37574     37577     37579     37574     37577     37580     37578     37577     37579
     37578     37577     37580     37579     37577     37580     37577     37580     37581
     37577     37580     37582     37577     37580     37583     37581     37580     37582
     37581     37580     37583     37582     37580     37583     37580     37583     37584
     37580     37583     37585     37584     37583     37585     37583     37585     37586
     37583     37585     37587     37586     37585     37587     37585     37587     37588
     37585     37587     37589     37585     37587     37590     37588     37587     37589
     37588     37587     37590     37589     37587     37590     37587     37590     37591
     37587     37590     37592     37587     37590     37593     37591     37590     37592
     37591     37590     37593     37592     37590     37593     37590     37593     37594
     37590     37593     37595     37590     37593     37596     37594     37593     37595
     37594     37593     37596     37595     37593     37596     37593     37596     37597
     37593     37596     37598     37593     37596     37599     37597     37596     37598
     37597     37596     37599     37598     37596     37599     37596     37599     37600
     37596     37599     37601     37596     37599     37602     37600     37599     37601
     37600     37599     37602     37601     37599     37602     37599     37602     37603
     37599     37602     37604     37599     37602     37605     37603     37602     37604
     37603     37602     37605     37604     37602     37605     37602     37605     37606
     37602     37605     37607     37602     37605     37608     37606     37605     37607
     37606     37605     37608     37607     37605     37608     37605     37608     37609
     37605     37608     37610     37605     37608     37611     37609     37608     37610
     37609     37608     37611     37610     37608     37611     37562     37612     37613
     37562     37612     37614     37562     37612     37615     37613     37612     37614
     37613     37612     37615     37614     37612     37615     37612     37615     37616
     37612     37615     37617     37612     37615     37618     37616     37615     37617
     37616     37615     37618     37617     37615     37618     37615     37618     37619
     37615     37618     37620     37615     37618     37621     37619     37618     37620
     37619     37618     37621     37620     37618     37621     37618     37621     37622
     37618     37621     37623     37618     37621     37624     37622     37621     37623
     37622     37621     37624     37623     37621     37624     37621     37624     37625
     37621     37624     37626     37621     37624     37627     37625     37624     37626
     37625     37624     37627     37626     37624     37627     37624     37627     37628
     37624     37627     37629     37624     37627     37630     37628     37627     37629
     37628     37627     37630     37629     37627     37630     37627     37630     37631
     37627     37630     37632     37627     37630     37633     37631     37630     37632
     37631     37630     37633     37632     37630     37633     37630     37633     37634
     37630     37633     37635     37630     37633     37636     37634     37633     37635
     37634     37633     37636     37635     37633     37636     37633     37636     37637
     37633     37636     37638     37633     37636     37639     37637     37636     37638
     37637     37636     37639     37638     37636     37639     37636     37639     37640
     37636     37639     37641     37636     37639     37642     37640     37639     37641
     37640     37639     37642     37641     37639     37642     37639     37642     37643
     37639     37642     37644     37639     37642     37645     37643     37642     37644
     37643     37642     37645     37644     37642     37645     37642     37645     37646
     37642     37645     37647     37642     37645     37648     37646     37645     37647
     37646     37645     37648     37647     37645     37648     37645     37648     37649
     37645     37648     37650     37645     37648     37651     37649     37648     37650
     37649     37648     37651     37650     37648     37651     37648     37651     37652
     37648     37651     37653     37648     37651     37654     37652     37651     37653
     37652     37651     37654     37653     37651     37654     37656     37655     37659
     37656     37655     37663     37656     37655     37667     37659     37655     37663
     37659     37655     37667     37663     37655     37667     37655     37656     37657
     37655     37656     37658     37655     37656     37671     37657     37656     37658
     37657     37656     37671     37658     37656     37671     37655     37659     37660
     37655     37659     37661     37655     37659     37662     37660     37659     37661
     37660     37659     37662     37661     37659     37662     37655     37663     37664
     37655     37663     37665     37655     37663     37666     37664     37663     37665
     37664     37663     37666     37665     37663     37666     37655     37667     37668
     37655     37667     37669     37655     37667     37670     37668     37667     37669
     37668     37667     37670     37669     37667     37670     37656     37671     37672
     37656     37671     37673     37656     37671     37677     37672     37671     37673
     37672     37671     37677     37673     37671     37677     37675     37674     37676
     37675     37674     37677     37675     37674     37678     37676     37674     37677
     37676     37674     37678     37677     37674     37678     37671     37677     37674
     37674     37678     37679     37678     37679     37680     37678     37679     37681
     37678     37679     37682     37680     37679     37681     37680     37679     37682
     37681     37679     37682     37679     37682     37683     37679     37682     37684
     37679     37682     37690     37683     37682     37684     37683     37682     37690
     37684     37682     37690     37682     37684     37685     37684     37685     37686
     37684     37685     37687     37686     37685     37687     37685     37687     37688
     37685     37687     37689     37685     37687     37699     37688     37687     37689
     37688     37687     37699     37689     37687     37699     37682     37690     37691
     37682     37690     37692     37682     37690     37693     37691     37690     37692
     37691     37690     37693     37692     37690     37693     37690     37693     37694
     37693     37694     37695     37693     37694     37696     37695     37694     37696
     37694     37696     37697     37694     37696     37698     37694     37696     37746
     37697     37696     37698     37697     37696     37746     37698     37696     37746
     37687     37699     37700     37687     37699     37701     37687     37699     37702
     37700     37699     37701     37700     37699     37702     37701     37699     37702
     37699     37702     37703     37699     37702     37704     37699     37702     37705
     37703     37702     37704     37703     37702     37705     37704     37702     37705
     37702     37705     37706     37702     37705     37707     37702     37705     37708
     37706     37705     37707     37706     37705     37708     37707     37705     37708
     37705     37708     37709     37705     37708     37710     37705     37708     37711
     37709     37708     37710     37709     37708     37711     37710     37708     37711
     37708     37711     37712     37708     37711     37713     37708     37711     37714
     37712     37711     37713     37712     37711     37714     37713     37711     37714
     37711     37714     37715     37711     37714     37716     37711     37714     37717
     37715     37714     37716     37715     37714     37717     37716     37714     37717
     37714     37717     37718     37714     37717     37719     37718     37717     37719
     37717     37719     37720     37717     37719     37721     37720     37719     37721
     37719     37721     37722     37719     37721     37723     37719     37721     37724
     37722     37721     37723     37722     37721     37724     37723     37721     37724
     37721     37724     37725     37721     37724     37726     37721     37724     37727
     37725     37724     37726     37725     37724     37727     37726     37724     37727
     37724     37727     37728     37724     37727     37729     37724     37727     37730
     37728     37727     37729     37728     37727     37730     37729     37727     37730
     37727     37730     37731     37727     37730     37732     37727     37730     37733
     37731     37730     37732     37731     37730     37733     37732     37730     37733
     37730     37733     37734     37730     37733     37735     37730     37733     37736
     37734     37733     37735     37734     37733     37736     37735     37733     37736
     37733     37736     37737     37733     37736     37738     37733     37736     37739
     37737     37736     37738     37737     37736     37739     37738     37736     37739
     37736     37739     37740     37736     37739     37741     37736     37739     37742
     37740     37739     37741     37740     37739     37742     37741     37739     37742
     37739     37742     37743     37739     37742     37744     37739     37742     37745
     37743     37742     37744     37743     37742     37745     37744     37742     37745
     37696     37746     37747     37696     37746     37748     37696     37746     37749
     37747     37746     37748     37747     37746     37749     37748     37746     37749
     37746     37749     37750     37746     37749     37751     37746     37749     37752
     37750     37749     37751     37750     37749     37752     37751     37749     37752
     37749     37752     37753     37749     37752     37754     37749     37752     37755
     37753     37752     37754     37753     37752     37755     37754     37752     37755
     37752     37755     37756     37752     37755     37757     37752     37755     37758
     37756     37755     37757     37756     37755     37758     37757     37755     37758
     37755     37758     37759     37755     37758     37760     37755     37758     37761
     37759     37758     37760     37759     37758     37761     37760     37758     37761
     37758     37761     37762     37758     37761     37763     37758     37761     37764
     37762     37761     37763     37762     37761     37764     37763     37761     37764
     37761     37764     37765     37761     37764     37766     37761     37764     37767
     37765     37764     37766     37765     37764     37767     37766     37764     37767
     37764     37767     37768     37764     37767     37769     37764     37767     37770
     37768     37767     37769     37768     37767     37770     37769     37767     37770
     37767     37770     37771     37767     37770     37772     37767     37770     37773
     37771     37770     37772     37771     37770     37773     37772     37770     37773
     37770     37773     37774     37770     37773     37775     37770     37773     37776
     37774     37773     37775     37774     37773     37776     37775     37773     37776
     37773     37776     37777     37773     37776     37778     37773     37776     37779
     37777     37776     37778     37777     37776     37779     37778     37776     37779
     37776     37779     37780     37776     37779     37781     37776     37779     37782
     37780     37779     37781     37780     37779     37782     37781     37779     37782
     37779     37782     37783     37779     37782     37784     37779     37782     37785
     37783     37782     37784     37783     37782     37785     37784     37782     37785
     37782     37785     37786     37782     37785     37787     37782     37785     37788
     37786     37785     37787     37786     37785     37788     37787     37785     37788
     37790     37789     37793     37790     37789     37797     37790     37789     37801
     37793     37789     37797     37793     37789     37801     37797     37789     37801
     37789     37790     37791     37789     37790     37792     37789     37790     37805
     37791     37790     37792     37791     37790     37805     37792     37790     37805
     37789     37793     37794     37789     37793     37795     37789     37793     37796
     37794     37793     37795     37794     37793     37796     37795     37793     37796
     37789     37797     37798     37789     37797     37799     37789     37797     37800
     37798     37797     37799     37798     37797     37800     37799     37797     37800
     37789     37801     37802     37789     37801     37803     37789     37801     37804
     37802     37801     37803     37802     37801     37804     37803     37801     37804
     37790     37805     37806     37790     37805     37807     37790     37805     37811
     37806     37805     37807     37806     37805     37811     37807     37805     37811
     37809     37808     37810     37809     37808     37811     37809     37808     37812
     37810     37808     37811     37810     37808     37812     37811     37808     37812
     37805     37811     37808     37808     37812     37813     37812     37813     37814
     37812     37813     37815     37812     37813     37816     37814     37813     37815
     37814     37813     37816     37815     37813     37816     37813     37816     37817
     37813     37816     37818     37813     37816     37824     37817     37816     37818
     37817     37816     37824     37818     37816     37824     37816     37818     37819
     37818     37819     37820     37818     37819     37821     37820     37819     37821
     37819     37821     37822     37819     37821     37823     37819     37821     37833
     37822     37821     37823     37822     37821     37833     37823     37821     37833
     37816     37824     37825     37816     37824     37826     37816     37824     37827
     37825     37824     37826     37825     37824     37827     37826     37824     37827
     37824     37827     37828     37827     37828     37829     37827     37828     37830
     37829     37828     37830     37828     37830     37831     37828     37830     37832
     37828     37830     37880     37831     37830     37832     37831     37830     37880
     37832     37830     37880     37821     37833     37834     37821     37833     37835
     37821     37833     37836     37834     37833     37835     37834     37833     37836
     37835     37833     37836     37833     37836     37837     37833     37836     37838
     37833     37836     37839     37837     37836     37838     37837     37836     37839
     37838     37836     37839     37836     37839     37840     37836     37839     37841
     37836     37839     37842     37840     37839     37841     37840     37839     37842
     37841     37839     37842     37839     37842     37843     37839     37842     37844
     37839     37842     37845     37843     37842     37844     37843     37842     37845
     37844     37842     37845     37842     37845     37846     37842     37845     37847
     37842     37845     37848     37846     37845     37847     37846     37845     37848
     37847     37845     37848     37845     37848     37849     37845     37848     37850
     37845     37848     37851     37849     37848     37850     37849     37848     37851
     37850     37848     37851     37848     37851     37852     37848     37851     37853
     37852     37851     37853     37851     37853     37854     37851     37853     37855
     37854     37853     37855     37853     37855     37856     37853     37855     37857
     37853     37855     37858     37856     37855     37857     37856     37855     37858
     37857     37855     37858     37855     37858     37859     37855     37858     37860
     37855     37858     37861     37859     37858     37860     37859     37858     37861
     37860     37858     37861     37858     37861     37862     37858     37861     37863
     37858     37861     37864     37862     37861     37863     37862     37861     37864
     37863     37861     37864     37861     37864     37865     37861     37864     37866
     37861     37864     37867     37865     37864     37866     37865     37864     37867
     37866     37864     37867     37864     37867     37868     37864     37867     37869
     37864     37867     37870     37868     37867     37869     37868     37867     37870
     37869     37867     37870     37867     37870     37871     37867     37870     37872
     37867     37870     37873     37871     37870     37872     37871     37870     37873
     37872     37870     37873     37870     37873     37874     37870     37873     37875
     37870     37873     37876     37874     37873     37875     37874     37873     37876
     37875     37873     37876     37873     37876     37877     37873     37876     37878
     37873     37876     37879     37877     37876     37878     37877     37876     37879
     37878     37876     37879     37830     37880     37881     37830     37880     37882
     37830     37880     37883     37881     37880     37882     37881     37880     37883
     37882     37880     37883     37880     37883     37884     37880     37883     37885
     37880     37883     37886     37884     37883     37885     37884     37883     37886
     37885     37883     37886     37883     37886     37887     37883     37886     37888
     37883     37886     37889     37887     37886     37888     37887     37886     37889
     37888     37886     37889     37886     37889     37890     37886     37889     37891
     37886     37889     37892     37890     37889     37891     37890     37889     37892
     37891     37889     37892     37889     37892     37893     37889     37892     37894
     37889     37892     37895     37893     37892     37894     37893     37892     37895
     37894     37892     37895     37892     37895     37896     37892     37895     37897
     37892     37895     37898     37896     37895     37897     37896     37895     37898
     37897     37895     37898     37895     37898     37899     37895     37898     37900
     37895     37898     37901     37899     37898     37900     37899     37898     37901
     37900     37898     37901     37898     37901     37902     37898     37901     37903
     37898     37901     37904     37902     37901     37903     37902     37901     37904
     37903     37901     37904     37901     37904     37905     37901     37904     37906
     37901     37904     37907     37905     37904     37906     37905     37904     37907
     37906     37904     37907     37904     37907     37908     37904     37907     37909
     37904     37907     37910     37908     37907     37909     37908     37907     37910
     37909     37907     37910     37907     37910     37911     37907     37910     37912
     37907     37910     37913     37911     37910     37912     37911     37910     37913
     37912     37910     37913     37910     37913     37914     37910     37913     37915
     37910     37913     37916     37914     37913     37915     37914     37913     37916
     37915     37913     37916     37913     37916     37917     37913     37916     37918
     37913     37916     37919     37917     37916     37918     37917     37916     37919
     37918     37916     37919     37916     37919     37920     37916     37919     37921
     37916     37919     37922     37920     37919     37921     37920     37919     37922
     37921     37919     37922     37924     37923     37927     37924     37923     37931
     37924     37923     37935     37927     37923     37931     37927     37923     37935
     37931     37923     37935     37923     37924     37925     37923     37924     37926
     37923     37924     37939     37925     37924     37926     37925     37924     37939
     37926     37924     37939     37923     37927     37928     37923     37927     37929
     37923     37927     37930     37928     37927     37929     37928     37927     37930
     37929     37927     37930     37923     37931     37932     37923     37931     37933
     37923     37931     37934     37932     37931     37933     37932     37931     37934
     37933     37931     37934     37923     37935     37936     37923     37935     37937
     37923     37935     37938     37936     37935     37937     37936     37935     37938
     37937     37935     37938     37924     37939     37940     37924     37939     37941
     37924     37939     37945     37940     37939     37941     37940     37939     37945
     37941     37939     37945     37943     37942     37944     37943     37942     37945
     37943     37942     37946     37944     37942     37945     37944     37942     37946
     37945     37942     37946     37939     37945     37942     37942     37946     37947
     37946     37947     37948     37946     37947     37949     37946     37947     37950
     37948     37947     37949     37948     37947     37950     37949     37947     37950
     37947     37950     37951     37947     37950     37952     37947     37950     37958
     37951     37950     37952     37951     37950     37958     37952     37950     37958
     37950     37952     37953     37952     37953     37954     37952     37953     37955
     37954     37953     37955     37953     37955     37956     37953     37955     37957
     37953     37955     37967     37956     37955     37957     37956     37955     37967
     37957     37955     37967     37950     37958     37959     37950     37958     37960
     37950     37958     37961     37959     37958     37960     37959     37958     37961
     37960     37958     37961     37958     37961     37962     37961     37962     37963
     37961     37962     37964     37963     37962     37964     37962     37964     37965
     37962     37964     37966     37962     37964     38014     37965     37964     37966
     37965     37964     38014     37966     37964     38014     37955     37967     37968
     37955     37967     37969     37955     37967     37970     37968     37967     37969
     37968     37967     37970     37969     37967     37970     37967     37970     37971
     37967     37970     37972     37967     37970     37973     37971     37970     37972
     37971     37970     37973     37972     37970     37973     37970     37973     37974
     37970     37973     37975     37970     37973     37976     37974     37973     37975
     37974     37973     37976     37975     37973     37976     37973     37976     37977
     37973     37976     37978     37973     37976     37979     37977     37976     37978
     37977     37976     37979     37978     37976     37979     37976     37979     37980
     37976     37979     37981     37976     37979     37982     37980     37979     37981
     37980     37979     37982     37981     37979     37982     37979     37982     37983
     37979     37982     37984     37979     37982     37985     37983     37982     37984
     37983     37982     37985     37984     37982     37985     37982     37985     37986
     37982     37985     37987     37986     37985     37987     37985     37987     37988
     37985     37987     37989     37988     37987     37989     37987     37989     37990
     37987     37989     37991     37987     37989     37992     37990     37989     37991
     37990     37989     37992     37991     37989     37992     37989     37992     37993
     37989     37992     37994     37989     37992     37995     37993     37992     37994
     37993     37992     37995     37994     37992     37995     37992     37995     37996
     37992     37995     37997     37992     37995     37998     37996     37995     37997
     37996     37995     37998     37997     37995     37998     37995     37998     37999
     37995     37998     38000     37995     37998     38001     37999     37998     38000
     37999     37998     38001     38000     37998     38001     37998     38001     38002
     37998     38001     38003     37998     38001     38004     38002     38001     38003
     38002     38001     38004     38003     38001     38004     38001     38004     38005
     38001     38004     38006     38001     38004     38007     38005     38004     38006
     38005     38004     38007     38006     38004     38007     38004     38007     38008
     38004     38007     38009     38004     38007     38010     38008     38007     38009
     38008     38007     38010     38009     38007     38010     38007     38010     38011
     38007     38010     38012     38007     38010     38013     38011     38010     38012
     38011     38010     38013     38012     38010     38013     37964     38014     38015
     37964     38014     38016     37964     38014     38017     38015     38014     38016
     38015     38014     38017     38016     38014     38017     38014     38017     38018
     38014     38017     38019     38014     38017     38020     38018     38017     38019
     38018     38017     38020     38019     38017     38020     38017     38020     38021
     38017     38020     38022     38017     38020     38023     38021     38020     38022
     38021     38020     38023     38022     38020     38023     38020     38023     38024
     38020     38023     38025     38020     38023     38026     38024     38023     38025
     38024     38023     38026     38025     38023     38026     38023     38026     38027
     38023     38026     38028     38023     38026     38029     38027     38026     38028
     38027     38026     38029     38028     38026     38029     38026     38029     38030
     38026     38029     38031     38026     38029     38032     38030     38029     38031
     38030     38029     38032     38031     38029     38032     38029     38032     38033
     38029     38032     38034     38029     38032     38035     38033     38032     38034
     38033     38032     38035     38034     38032     38035     38032     38035     38036
     38032     38035     38037     38032     38035     38038     38036     38035     38037
     38036     38035     38038     38037     38035     38038     38035     38038     38039
     38035     38038     38040     38035     38038     38041     38039     38038     38040
     38039     38038     38041     38040     38038     38041     38038     38041     38042
     38038     38041     38043     38038     38041     38044     38042     38041     38043
     38042     38041     38044     38043     38041     38044     38041     38044     38045
     38041     38044     38046     38041     38044     38047     38045     38044     38046
     38045     38044     38047     38046     38044     38047     38044     38047     38048
     38044     38047     38049     38044     38047     38050     38048     38047     38049
     38048     38047     38050     38049     38047     38050     38047     38050     38051
     38047     38050     38052     38047     38050     38053     38051     38050     38052
     38051     38050     38053     38052     38050     38053     38050     38053     38054
     38050     38053     38055     38050     38053     38056     38054     38053     38055
     38054     38053     38056     38055     38053     38056     38058     38057     38061
     38058     38057     38065     38058     38057     38069     38061     38057     38065
     38061     38057     38069     38065     38057     38069     38057     38058     38059
     38057     38058     38060     38057     38058     38073     38059     38058     38060
     38059     38058     38073     38060     38058     38073     38057     38061     38062
     38057     38061     38063     38057     38061     38064     38062     38061     38063
     38062     38061     38064     38063     38061     38064     38057     38065     38066
     38057     38065     38067     38057     38065     38068     38066     38065     38067
     38066     38065     38068     38067     38065     38068     38057     38069     38070
     38057     38069     38071     38057     38069     38072     38070     38069     38071
     38070     38069     38072     38071     38069     38072     38058     38073     38074
     38058     38073     38075     38058     38073     38079     38074     38073     38075
     38074     38073     38079     38075     38073     38079     38077     38076     38078
     38077     38076     38079     38077     38076     38080     38078     38076     38079
     38078     38076     38080     38079     38076     38080     38073     38079     38076
     38076     38080     38081     38080     38081     38082     38080     38081     38083
     38080     38081     38084     38082     38081     38083     38082     38081     38084
     38083     38081     38084     38081     38084     38085     38081     38084     38086
     38081     38084     38092     38085     38084     38086     38085     38084     38092
     38086     38084     38092     38084     38086     38087     38086     38087     38088
     38086     38087     38089     38088     38087     38089     38087     38089     38090
     38087     38089     38091     38087     38089     38101     38090     38089     38091
     38090     38089     38101     38091     38089     38101     38084     38092     38093
     38084     38092     38094     38084     38092     38095     38093     38092     38094
     38093     38092     38095     38094     38092     38095     38092     38095     38096
     38095     38096     38097     38095     38096     38098     38097     38096     38098
     38096     38098     38099     38096     38098     38100     38096     38098     38148
     38099     38098     38100     38099     38098     38148     38100     38098     38148
     38089     38101     38102     38089     38101     38103     38089     38101     38104
     38102     38101     38103     38102     38101     38104     38103     38101     38104
     38101     38104     38105     38101     38104     38106     38101     38104     38107
     38105     38104     38106     38105     38104     38107     38106     38104     38107
     38104     38107     38108     38104     38107     38109     38104     38107     38110
     38108     38107     38109     38108     38107     38110     38109     38107     38110
     38107     38110     38111     38107     38110     38112     38107     38110     38113
     38111     38110     38112     38111     38110     38113     38112     38110     38113
     38110     38113     38114     38110     38113     38115     38110     38113     38116
     38114     38113     38115     38114     38113     38116     38115     38113     38116
     38113     38116     38117     38113     38116     38118     38113     38116     38119
     38117     38116     38118     38117     38116     38119     38118     38116     38119
     38116     38119     38120     38116     38119     38121     38120     38119     38121
     38119     38121     38122     38119     38121     38123     38122     38121     38123
     38121     38123     38124     38121     38123     38125     38121     38123     38126
     38124     38123     38125     38124     38123     38126     38125     38123     38126
     38123     38126     38127     38123     38126     38128     38123     38126     38129
     38127     38126     38128     38127     38126     38129     38128     38126     38129
     38126     38129     38130     38126     38129     38131     38126     38129     38132
     38130     38129     38131     38130     38129     38132     38131     38129     38132
     38129     38132     38133     38129     38132     38134     38129     38132     38135
     38133     38132     38134     38133     38132     38135     38134     38132     38135
     38132     38135     38136     38132     38135     38137     38132     38135     38138
     38136     38135     38137     38136     38135     38138     38137     38135     38138
     38135     38138     38139     38135     38138     38140     38135     38138     38141
     38139     38138     38140     38139     38138     38141     38140     38138     38141
     38138     38141     38142     38138     38141     38143     38138     38141     38144
     38142     38141     38143     38142     38141     38144     38143     38141     38144
     38141     38144     38145     38141     38144     38146     38141     38144     38147
     38145     38144     38146     38145     38144     38147     38146     38144     38147
     38098     38148     38149     38098     38148     38150     38098     38148     38151
     38149     38148     38150     38149     38148     38151     38150     38148     38151
     38148     38151     38152     38148     38151     38153     38148     38151     38154
     38152     38151     38153     38152     38151     38154     38153     38151     38154
     38151     38154     38155     38151     38154     38156     38151     38154     38157
     38155     38154     38156     38155     38154     38157     38156     38154     38157
     38154     38157     38158     38154     38157     38159     38154     38157     38160
     38158     38157     38159     38158     38157     38160     38159     38157     38160
     38157     38160     38161     38157     38160     38162     38157     38160     38163
     38161     38160     38162     38161     38160     38163     38162     38160     38163
     38160     38163     38164     38160     38163     38165     38160     38163     38166
     38164     38163     38165     38164     38163     38166     38165     38163     38166
     38163     38166     38167     38163     38166     38168     38163     38166     38169
     38167     38166     38168     38167     38166     38169     38168     38166     38169
     38166     38169     38170     38166     38169     38171     38166     38169     38172
     38170     38169     38171     38170     38169     38172     38171     38169     38172
     38169     38172     38173     38169     38172     38174     38169     38172     38175
     38173     38172     38174     38173     38172     38175     38174     38172     38175
     38172     38175     38176     38172     38175     38177     38172     38175     38178
     38176     38175     38177     38176     38175     38178     38177     38175     38178
     38175     38178     38179     38175     38178     38180     38175     38178     38181
     38179     38178     38180     38179     38178     38181     38180     38178     38181
     38178     38181     38182     38178     38181     38183     38178     38181     38184
     38182     38181     38183     38182     38181     38184     38183     38181     38184
     38181     38184     38185     38181     38184     38186     38181     38184     38187
     38185     38184     38186     38185     38184     38187     38186     38184     38187
     38184     38187     38188     38184     38187     38189     38184     38187     38190
     38188     38187     38189     38188     38187     38190     38189     38187     38190
     38192     38191     38195     38192     38191     38199     38192     38191     38203
     38195     38191     38199     38195     38191     38203     38199     38191     38203
     38191     38192     38193     38191     38192     38194     38191     38192     38207
     38193     38192     38194     38193     38192     38207     38194     38192     38207
     38191     38195     38196     38191     38195     38197     38191     38195     38198
     38196     38195     38197     38196     38195     38198     38197     38195     38198
     38191     38199     38200     38191     38199     38201     38191     38199     38202
     38200     38199     38201     38200     38199     38202     38201     38199     38202
     38191     38203     38204     38191     38203     38205     38191     38203     38206
     38204     38203     38205     38204     38203     38206     38205     38203     38206
     38192     38207     38208     38192     38207     38209     38192     38207     38213
     38208     38207     38209     38208     38207     38213     38209     38207     38213
     38211     38210     38212     38211     38210     38213     38211     38210     38214
     38212     38210     38213     38212     38210     38214     38213     38210     38214
     38207     38213     38210     38210     38214     38215     38214     38215     38216
     38214     38215     38217     38214     38215     38218     38216     38215     38217
     38216     38215     38218     38217     38215     38218     38215     38218     38219
     38215     38218     38220     38215     38218     38226     38219     38218     38220
     38219     38218     38226     38220     38218     38226     38218     38220     38221
     38220     38221     38222     38220     38221     38223     38222     38221     38223
     38221     38223     38224     38221     38223     38225     38221     38223     38235
     38224     38223     38225     38224     38223     38235     38225     38223     38235
     38218     38226     38227     38218     38226     38228     38218     38226     38229
     38227     38226     38228     38227     38226     38229     38228     38226     38229
     38226     38229     38230     38229     38230     38231     38229     38230     38232
     38231     38230     38232     38230     38232     38233     38230     38232     38234
     38230     38232     38282     38233     38232     38234     38233     38232     38282
     38234     38232     38282     38223     38235     38236     38223     38235     38237
     38223     38235     38238     38236     38235     38237     38236     38235     38238
     38237     38235     38238     38235     38238     38239     38235     38238     38240
     38235     38238     38241     38239     38238     38240     38239     38238     38241
     38240     38238     38241     38238     38241     38242     38238     38241     38243
     38238     38241     38244     38242     38241     38243     38242     38241     38244
     38243     38241     38244     38241     38244     38245     38241     38244     38246
     38241     38244     38247     38245     38244     38246     38245     38244     38247
     38246     38244     38247     38244     38247     38248     38244     38247     38249
     38244     38247     38250     38248     38247     38249     38248     38247     38250
     38249     38247     38250     38247     38250     38251     38247     38250     38252
     38247     38250     38253     38251     38250     38252     38251     38250     38253
     38252     38250     38253     38250     38253     38254     38250     38253     38255
     38254     38253     38255     38253     38255     38256     38253     38255     38257
     38256     38255     38257     38255     38257     38258     38255     38257     38259
     38255     38257     38260     38258     38257     38259     38258     38257     38260
     38259     38257     38260     38257     38260     38261     38257     38260     38262
     38257     38260     38263     38261     38260     38262     38261     38260     38263
     38262     38260     38263     38260     38263     38264     38260     38263     38265
     38260     38263     38266     38264     38263     38265     38264     38263     38266
     38265     38263     38266     38263     38266     38267     38263     38266     38268
     38263     38266     38269     38267     38266     38268     38267     38266     38269
     38268     38266     38269     38266     38269     38270     38266     38269     38271
     38266     38269     38272     38270     38269     38271     38270     38269     38272
     38271     38269     38272     38269     38272     38273     38269     38272     38274
     38269     38272     38275     38273     38272     38274     38273     38272     38275
     38274     38272     38275     38272     38275     38276     38272     38275     38277
     38272     38275     38278     38276     38275     38277     38276     38275     38278
     38277     38275     38278     38275     38278     38279     38275     38278     38280
     38275     38278     38281     38279     38278     38280     38279     38278     38281
     38280     38278     38281     38232     38282     38283     38232     38282     38284
     38232     38282     38285     38283     38282     38284     38283     38282     38285
     38284     38282     38285     38282     38285     38286     38282     38285     38287
     38282     38285     38288     38286     38285     38287     38286     38285     38288
     38287     38285     38288     38285     38288     38289     38285     38288     38290
     38285     38288     38291     38289     38288     38290     38289     38288     38291
     38290     38288     38291     38288     38291     38292     38288     38291     38293
     38288     38291     38294     38292     38291     38293     38292     38291     38294
     38293     38291     38294     38291     38294     38295     38291     38294     38296
     38291     38294     38297     38295     38294     38296     38295     38294     38297
     38296     38294     38297     38294     38297     38298     38294     38297     38299
     38294     38297     38300     38298     38297     38299     38298     38297     38300
     38299     38297     38300     38297     38300     38301     38297     38300     38302
     38297     38300     38303     38301     38300     38302     38301     38300     38303
     38302     38300     38303     38300     38303     38304     38300     38303     38305
     38300     38303     38306     38304     38303     38305     38304     38303     38306
     38305     38303     38306     38303     38306     38307     38303     38306     38308
     38303     38306     38309     38307     38306     38308     38307     38306     38309
     38308     38306     38309     38306     38309     38310     38306     38309     38311
     38306     38309     38312     38310     38309     38311     38310     38309     38312
     38311     38309     38312     38309     38312     38313     38309     38312     38314
     38309     38312     38315     38313     38312     38314     38313     38312     38315
     38314     38312     38315     38312     38315     38316     38312     38315     38317
     38312     38315     38318     38316     38315     38317     38316     38315     38318
     38317     38315     38318     38315     38318     38319     38315     38318     38320
     38315     38318     38321     38319     38318     38320     38319     38318     38321
     38320     38318     38321     38318     38321     38322     38318     38321     38323
     38318     38321     38324     38322     38321     38323     38322     38321     38324
     38323     38321     38324     38326     38325     38329     38326     38325     38333
     38326     38325     38337     38329     38325     38333     38329     38325     38337
     38333     38325     38337     38325     38326     38327     38325     38326     38328
     38325     38326     38341     38327     38326     38328     38327     38326     38341
     38328     38326     38341     38325     38329     38330     38325     38329     38331
     38325     38329     38332     38330     38329     38331     38330     38329     38332
     38331     38329     38332     38325     38333     38334     38325     38333     38335
     38325     38333     38336     38334     38333     38335     38334     38333     38336
     38335     38333     38336     38325     38337     38338     38325     38337     38339
     38325     38337     38340     38338     38337     38339     38338     38337     38340
     38339     38337     38340     38326     38341     38342     38326     38341     38343
     38326     38341     38347     38342     38341     38343     38342     38341     38347
     38343     38341     38347     38345     38344     38346     38345     38344     38347
     38345     38344     38348     38346     38344     38347     38346     38344     38348
     38347     38344     38348     38341     38347     38344     38344     38348     38349
     38348     38349     38350     38348     38349     38351     38348     38349     38352
     38350     38349     38351     38350     38349     38352     38351     38349     38352
     38349     38352     38353     38349     38352     38354     38349     38352     38360
     38353     38352     38354     38353     38352     38360     38354     38352     38360
     38352     38354     38355     38354     38355     38356     38354     38355     38357
     38356     38355     38357     38355     38357     38358     38355     38357     38359
     38355     38357     38369     38358     38357     38359     38358     38357     38369
     38359     38357     38369     38352     38360     38361     38352     38360     38362
     38352     38360     38363     38361     38360     38362     38361     38360     38363
     38362     38360     38363     38360     38363     38364     38363     38364     38365
     38363     38364     38366     38365     38364     38366     38364     38366     38367
     38364     38366     38368     38364     38366     38416     38367     38366     38368
     38367     38366     38416     38368     38366     38416     38357     38369     38370
     38357     38369     38371     38357     38369     38372     38370     38369     38371
     38370     38369     38372     38371     38369     38372     38369     38372     38373
     38369     38372     38374     38369     38372     38375     38373     38372     38374
     38373     38372     38375     38374     38372     38375     38372     38375     38376
     38372     38375     38377     38372     38375     38378     38376     38375     38377
     38376     38375     38378     38377     38375     38378     38375     38378     38379
     38375     38378     38380     38375     38378     38381     38379     38378     38380
     38379     38378     38381     38380     38378     38381     38378     38381     38382
     38378     38381     38383     38378     38381     38384     38382     38381     38383
     38382     38381     38384     38383     38381     38384     38381     38384     38385
     38381     38384     38386     38381     38384     38387     38385     38384     38386
     38385     38384     38387     38386     38384     38387     38384     38387     38388
     38384     38387     38389     38388     38387     38389     38387     38389     38390
     38387     38389     38391     38390     38389     38391     38389     38391     38392
     38389     38391     38393     38389     38391     38394     38392     38391     38393
     38392     38391     38394     38393     38391     38394     38391     38394     38395
     38391     38394     38396     38391     38394     38397     38395     38394     38396
     38395     38394     38397     38396     38394     38397     38394     38397     38398
     38394     38397     38399     38394     38397     38400     38398     38397     38399
     38398     38397     38400     38399     38397     38400     38397     38400     38401
     38397     38400     38402     38397     38400     38403     38401     38400     38402
     38401     38400     38403     38402     38400     38403     38400     38403     38404
     38400     38403     38405     38400     38403     38406     38404     38403     38405
     38404     38403     38406     38405     38403     38406     38403     38406     38407
     38403     38406     38408     38403     38406     38409     38407     38406     38408
     38407     38406     38409     38408     38406     38409     38406     38409     38410
     38406     38409     38411     38406     38409     38412     38410     38409     38411
     38410     38409     38412     38411     38409     38412     38409     38412     38413
     38409     38412     38414     38409     38412     38415     38413     38412     38414
     38413     38412     38415     38414     38412     38415     38366     38416     38417
     38366     38416     38418     38366     38416     38419     38417     38416     38418
     38417     38416     38419     38418     38416     38419     38416     38419     38420
     38416     38419     38421     38416     38419     38422     38420     38419     38421
     38420     38419     38422     38421     38419     38422     38419     38422     38423
     38419     38422     38424     38419     38422     38425     38423     38422     38424
     38423     38422     38425     38424     38422     38425     38422     38425     38426
     38422     38425     38427     38422     38425     38428     38426     38425     38427
     38426     38425     38428     38427     38425     38428     38425     38428     38429
     38425     38428     38430     38425     38428     38431     38429     38428     38430
     38429     38428     38431     38430     38428     38431     38428     38431     38432
     38428     38431     38433     38428     38431     38434     38432     38431     38433
     38432     38431     38434     38433     38431     38434     38431     38434     38435
     38431     38434     38436     38431     38434     38437     38435     38434     38436
     38435     38434     38437     38436     38434     38437     38434     38437     38438
     38434     38437     38439     38434     38437     38440     38438     38437     38439
     38438     38437     38440     38439     38437     38440     38437     38440     38441
     38437     38440     38442     38437     38440     38443     38441     38440     38442
     38441     38440     38443     38442     38440     38443     38440     38443     38444
     38440     38443     38445     38440     38443     38446     38444     38443     38445
     38444     38443     38446     38445     38443     38446     38443     38446     38447
     38443     38446     38448     38443     38446     38449     38447     38446     38448
     38447     38446     38449     38448     38446     38449     38446     38449     38450
     38446     38449     38451     38446     38449     38452     38450     38449     38451
     38450     38449     38452     38451     38449     38452     38449     38452     38453
     38449     38452     38454     38449     38452     38455     38453     38452     38454
     38453     38452     38455     38454     38452     38455     38452     38455     38456
     38452     38455     38457     38452     38455     38458     38456     38455     38457
     38456     38455     38458     38457     38455     38458     38460     38459     38463
     38460     38459     38467     38460     38459     38471     38463     38459     38467
     38463     38459     38471     38467     38459     38471     38459     38460     38461
     38459     38460     38462     38459     38460     38475     38461     38460     38462
     38461     38460     38475     38462     38460     38475     38459     38463     38464
     38459     38463     38465     38459     38463     38466     38464     38463     38465
     38464     38463     38466     38465     38463     38466     38459     38467     38468
     38459     38467     38469     38459     38467     38470     38468     38467     38469
     38468     38467     38470     38469     38467     38470     38459     38471     38472
     38459     38471     38473     38459     38471     38474     38472     38471     38473
     38472     38471     38474     38473     38471     38474     38460     38475     38476
     38460     38475     38477     38460     38475     38481     38476     38475     38477
     38476     38475     38481     38477     38475     38481     38479     38478     38480
     38479     38478     38481     38479     38478     38482     38480     38478     38481
     38480     38478     38482     38481     38478     38482     38475     38481     38478
     38478     38482     38483     38482     38483     38484     38482     38483     38485
     38482     38483     38486     38484     38483     38485     38484     38483     38486
     38485     38483     38486     38483     38486     38487     38483     38486     38488
     38483     38486     38494     38487     38486     38488     38487     38486     38494
     38488     38486     38494     38486     38488     38489     38488     38489     38490
     38488     38489     38491     38490     38489     38491     38489     38491     38492
     38489     38491     38493     38489     38491     38503     38492     38491     38493
     38492     38491     38503     38493     38491     38503     38486     38494     38495
     38486     38494     38496     38486     38494     38497     38495     38494     38496
     38495     38494     38497     38496     38494     38497     38494     38497     38498
     38497     38498     38499     38497     38498     38500     38499     38498     38500
     38498     38500     38501     38498     38500     38502     38498     38500     38550
     38501     38500     38502     38501     38500     38550     38502     38500     38550
     38491     38503     38504     38491     38503     38505     38491     38503     38506
     38504     38503     38505     38504     38503     38506     38505     38503     38506
     38503     38506     38507     38503     38506     38508     38503     38506     38509
     38507     38506     38508     38507     38506     38509     38508     38506     38509
     38506     38509     38510     38506     38509     38511     38506     38509     38512
     38510     38509     38511     38510     38509     38512     38511     38509     38512
     38509     38512     38513     38509     38512     38514     38509     38512     38515
     38513     38512     38514     38513     38512     38515     38514     38512     38515
     38512     38515     38516     38512     38515     38517     38512     38515     38518
     38516     38515     38517     38516     38515     38518     38517     38515     38518
     38515     38518     38519     38515     38518     38520     38515     38518     38521
     38519     38518     38520     38519     38518     38521     38520     38518     38521
     38518     38521     38522     38518     38521     38523     38522     38521     38523
     38521     38523     38524     38521     38523     38525     38524     38523     38525
     38523     38525     38526     38523     38525     38527     38523     38525     38528
     38526     38525     38527     38526     38525     38528     38527     38525     38528
     38525     38528     38529     38525     38528     38530     38525     38528     38531
     38529     38528     38530     38529     38528     38531     38530     38528     38531
     38528     38531     38532     38528     38531     38533     38528     38531     38534
     38532     38531     38533     38532     38531     38534     38533     38531     38534
     38531     38534     38535     38531     38534     38536     38531     38534     38537
     38535     38534     38536     38535     38534     38537     38536     38534     38537
     38534     38537     38538     38534     38537     38539     38534     38537     38540
     38538     38537     38539     38538     38537     38540     38539     38537     38540
     38537     38540     38541     38537     38540     38542     38537     38540     38543
     38541     38540     38542     38541     38540     38543     38542     38540     38543
     38540     38543     38544     38540     38543     38545     38540     38543     38546
     38544     38543     38545     38544     38543     38546     38545     38543     38546
     38543     38546     38547     38543     38546     38548     38543     38546     38549
     38547     38546     38548     38547     38546     38549     38548     38546     38549
     38500     38550     38551     38500     38550     38552     38500     38550     38553
     38551     38550     38552     38551     38550     38553     38552     38550     38553
     38550     38553     38554     38550     38553     38555     38550     38553     38556
     38554     38553     38555     38554     38553     38556     38555     38553     38556
     38553     38556     38557     38553     38556     38558     38553     38556     38559
     38557     38556     38558     38557     38556     38559     38558     38556     38559
     38556     38559     38560     38556     38559     38561     38556     38559     38562
     38560     38559     38561     38560     38559     38562     38561     38559     38562
     38559     38562     38563     38559     38562     38564     38559     38562     38565
     38563     38562     38564     38563     38562     38565     38564     38562     38565
     38562     38565     38566     38562     38565     38567     38562     38565     38568
     38566     38565     38567     38566     38565     38568     38567     38565     38568
     38565     38568     38569     38565     38568     38570     38565     38568     38571
     38569     38568     38570     38569     38568     38571     38570     38568     38571
     38568     38571     38572     38568     38571     38573     38568     38571     38574
     38572     38571     38573     38572     38571     38574     38573     38571     38574
     38571     38574     38575     38571     38574     38576     38571     38574     38577
     38575     38574     38576     38575     38574     38577     38576     38574     38577
     38574     38577     38578     38574     38577     38579     38574     38577     38580
     38578     38577     38579     38578     38577     38580     38579     38577     38580
     38577     38580     38581     38577     38580     38582     38577     38580     38583
     38581     38580     38582     38581     38580     38583     38582     38580     38583
     38580     38583     38584     38580     38583     38585     38580     38583     38586
     38584     38583     38585     38584     38583     38586     38585     38583     38586
     38583     38586     38587     38583     38586     38588     38583     38586     38589
     38587     38586     38588     38587     38586     38589     38588     38586     38589
     38586     38589     38590     38586     38589     38591     38586     38589     38592
     38590     38589     38591     38590     38589     38592     38591     38589     38592
     38594     38593     38597     38594     38593     38601     38594     38593     38605
     38597     38593     38601     38597     38593     38605     38601     38593     38605
     38593     38594     38595     38593     38594     38596     38593     38594     38609
     38595     38594     38596     38595     38594     38609     38596     38594     38609
     38593     38597     38598     38593     38597     38599     38593     38597     38600
     38598     38597     38599     38598     38597     38600     38599     38597     38600
     38593     38601     38602     38593     38601     38603     38593     38601     38604
     38602     38601     38603     38602     38601     38604     38603     38601     38604
     38593     38605     38606     38593     38605     38607     38593     38605     38608
     38606     38605     38607     38606     38605     38608     38607     38605     38608
     38594     38609     38610     38594     38609     38611     38594     38609     38615
     38610     38609     38611     38610     38609     38615     38611     38609     38615
     38613     38612     38614     38613     38612     38615     38613     38612     38616
     38614     38612     38615     38614     38612     38616     38615     38612     38616
     38609     38615     38612     38612     38616     38617     38616     38617     38618
     38616     38617     38619     38616     38617     38620     38618     38617     38619
     38618     38617     38620     38619     38617     38620     38617     38620     38621
     38617     38620     38622     38617     38620     38628     38621     38620     38622
     38621     38620     38628     38622     38620     38628     38620     38622     38623
     38622     38623     38624     38622     38623     38625     38624     38623     38625
     38623     38625     38626     38623     38625     38627     38623     38625     38637
     38626     38625     38627     38626     38625     38637     38627     38625     38637
     38620     38628     38629     38620     38628     38630     38620     38628     38631
     38629     38628     38630     38629     38628     38631     38630     38628     38631
     38628     38631     38632     38631     38632     38633     38631     38632     38634
     38633     38632     38634     38632     38634     38635     38632     38634     38636
     38632     38634     38684     38635     38634     38636     38635     38634     38684
     38636     38634     38684     38625     38637     38638     38625     38637     38639
     38625     38637     38640     38638     38637     38639     38638     38637     38640
     38639     38637     38640     38637     38640     38641     38637     38640     38642
     38637     38640     38643     38641     38640     38642     38641     38640     38643
     38642     38640     38643     38640     38643     38644     38640     38643     38645
     38640     38643     38646     38644     38643     38645     38644     38643     38646
     38645     38643     38646     38643     38646     38647     38643     38646     38648
     38643     38646     38649     38647     38646     38648     38647     38646     38649
     38648     38646     38649     38646     38649     38650     38646     38649     38651
     38646     38649     38652     38650     38649     38651     38650     38649     38652
     38651     38649     38652     38649     38652     38653     38649     38652     38654
     38649     38652     38655     38653     38652     38654     38653     38652     38655
     38654     38652     38655     38652     38655     38656     38652     38655     38657
     38656     38655     38657     38655     38657     38658     38655     38657     38659
     38658     38657     38659     38657     38659     38660     38657     38659     38661
     38657     38659     38662     38660     38659     38661     38660     38659     38662
     38661     38659     38662     38659     38662     38663     38659     38662     38664
     38659     38662     38665     38663     38662     38664     38663     38662     38665
     38664     38662     38665     38662     38665     38666     38662     38665     38667
     38662     38665     38668     38666     38665     38667     38666     38665     38668
     38667     38665     38668     38665     38668     38669     38665     38668     38670
     38665     38668     38671     38669     38668     38670     38669     38668     38671
     38670     38668     38671     38668     38671     38672     38668     38671     38673
     38668     38671     38674     38672     38671     38673     38672     38671     38674
     38673     38671     38674     38671     38674     38675     38671     38674     38676
     38671     38674     38677     38675     38674     38676     38675     38674     38677
     38676     38674     38677     38674     38677     38678     38674     38677     38679
     38674     38677     38680     38678     38677     38679     38678     38677     38680
     38679     38677     38680     38677     38680     38681     38677     38680     38682
     38677     38680     38683     38681     38680     38682     38681     38680     38683
     38682     38680     38683     38634     38684     38685     38634     38684     38686
     38634     38684     38687     38685     38684     38686     38685     38684     38687
     38686     38684     38687     38684     38687     38688     38684     38687     38689
     38684     38687     38690     38688     38687     38689     38688     38687     38690
     38689     38687     38690     38687     38690     38691     38687     38690     38692
     38687     38690     38693     38691     38690     38692     38691     38690     38693
     38692     38690     38693     38690     38693     38694     38690     38693     38695
     38690     38693     38696     38694     38693     38695     38694     38693     38696
     38695     38693     38696     38693     38696     38697     38693     38696     38698
     38693     38696     38699     38697     38696     38698     38697     38696     38699
     38698     38696     38699     38696     38699     38700     38696     38699     38701
     38696     38699     38702     38700     38699     38701     38700     38699     38702
     38701     38699     38702     38699     38702     38703     38699     38702     38704
     38699     38702     38705     38703     38702     38704     38703     38702     38705
     38704     38702     38705     38702     38705     38706     38702     38705     38707
     38702     38705     38708     38706     38705     38707     38706     38705     38708
     38707     38705     38708     38705     38708     38709     38705     38708     38710
     38705     38708     38711     38709     38708     38710     38709     38708     38711
     38710     38708     38711     38708     38711     38712     38708     38711     38713
     38708     38711     38714     38712     38711     38713     38712     38711     38714
     38713     38711     38714     38711     38714     38715     38711     38714     38716
     38711     38714     38717     38715     38714     38716     38715     38714     38717
     38716     38714     38717     38714     38717     38718     38714     38717     38719
     38714     38717     38720     38718     38717     38719     38718     38717     38720
     38719     38717     38720     38717     38720     38721     38717     38720     38722
     38717     38720     38723     38721     38720     38722     38721     38720     38723
     38722     38720     38723     38720     38723     38724     38720     38723     38725
     38720     38723     38726     38724     38723     38725     38724     38723     38726
     38725     38723     38726     38728     38727     38731     38728     38727     38735
     38728     38727     38739     38731     38727     38735     38731     38727     38739
     38735     38727     38739     38727     38728     38729     38727     38728     38730
     38727     38728     38743     38729     38728     38730     38729     38728     38743
     38730     38728     38743     38727     38731     38732     38727     38731     38733
     38727     38731     38734     38732     38731     38733     38732     38731     38734
     38733     38731     38734     38727     38735     38736     38727     38735     38737
     38727     38735     38738     38736     38735     38737     38736     38735     38738
     38737     38735     38738     38727     38739     38740     38727     38739     38741
     38727     38739     38742     38740     38739     38741     38740     38739     38742
     38741     38739     38742     38728     38743     38744     38728     38743     38745
     38728     38743     38749     38744     38743     38745     38744     38743     38749
     38745     38743     38749     38747     38746     38748     38747     38746     38749
     38747     38746     38750     38748     38746     38749     38748     38746     38750
     38749     38746     38750     38743     38749     38746     38746     38750     38751
     38750     38751     38752     38750     38751     38753     38750     38751     38754
     38752     38751     38753     38752     38751     38754     38753     38751     38754
     38751     38754     38755     38751     38754     38756     38751     38754     38762
     38755     38754     38756     38755     38754     38762     38756     38754     38762
     38754     38756     38757     38756     38757     38758     38756     38757     38759
     38758     38757     38759     38757     38759     38760     38757     38759     38761
     38757     38759     38771     38760     38759     38761     38760     38759     38771
     38761     38759     38771     38754     38762     38763     38754     38762     38764
     38754     38762     38765     38763     38762     38764     38763     38762     38765
     38764     38762     38765     38762     38765     38766     38765     38766     38767
     38765     38766     38768     38767     38766     38768     38766     38768     38769
     38766     38768     38770     38766     38768     38818     38769     38768     38770
     38769     38768     38818     38770     38768     38818     38759     38771     38772
     38759     38771     38773     38759     38771     38774     38772     38771     38773
     38772     38771     38774     38773     38771     38774     38771     38774     38775
     38771     38774     38776     38771     38774     38777     38775     38774     38776
     38775     38774     38777     38776     38774     38777     38774     38777     38778
     38774     38777     38779     38774     38777     38780     38778     38777     38779
     38778     38777     38780     38779     38777     38780     38777     38780     38781
     38777     38780     38782     38777     38780     38783     38781     38780     38782
     38781     38780     38783     38782     38780     38783     38780     38783     38784
     38780     38783     38785     38780     38783     38786     38784     38783     38785
     38784     38783     38786     38785     38783     38786     38783     38786     38787
     38783     38786     38788     38783     38786     38789     38787     38786     38788
     38787     38786     38789     38788     38786     38789     38786     38789     38790
     38786     38789     38791     38790     38789     38791     38789     38791     38792
     38789     38791     38793     38792     38791     38793     38791     38793     38794
     38791     38793     38795     38791     38793     38796     38794     38793     38795
     38794     38793     38796     38795     38793     38796     38793     38796     38797
     38793     38796     38798     38793     38796     38799     38797     38796     38798
     38797     38796     38799     38798     38796     38799     38796     38799     38800
     38796     38799     38801     38796     38799     38802     38800     38799     38801
     38800     38799     38802     38801     38799     38802     38799     38802     38803
     38799     38802     38804     38799     38802     38805     38803     38802     38804
     38803     38802     38805     38804     38802     38805     38802     38805     38806
     38802     38805     38807     38802     38805     38808     38806     38805     38807
     38806     38805     38808     38807     38805     38808     38805     38808     38809
     38805     38808     38810     38805     38808     38811     38809     38808     38810
     38809     38808     38811     38810     38808     38811     38808     38811     38812
     38808     38811     38813     38808     38811     38814     38812     38811     38813
     38812     38811     38814     38813     38811     38814     38811     38814     38815
     38811     38814     38816     38811     38814     38817     38815     38814     38816
     38815     38814     38817     38816     38814     38817     38768     38818     38819
     38768     38818     38820     38768     38818     38821     38819     38818     38820
     38819     38818     38821     38820     38818     38821     38818     38821     38822
     38818     38821     38823     38818     38821     38824     38822     38821     38823
     38822     38821     38824     38823     38821     38824     38821     38824     38825
     38821     38824     38826     38821     38824     38827     38825     38824     38826
     38825     38824     38827     38826     38824     38827     38824     38827     38828
     38824     38827     38829     38824     38827     38830     38828     38827     38829
     38828     38827     38830     38829     38827     38830     38827     38830     38831
     38827     38830     38832     38827     38830     38833     38831     38830     38832
     38831     38830     38833     38832     38830     38833     38830     38833     38834
     38830     38833     38835     38830     38833     38836     38834     38833     38835
     38834     38833     38836     38835     38833     38836     38833     38836     38837
     38833     38836     38838     38833     38836     38839     38837     38836     38838
     38837     38836     38839     38838     38836     38839     38836     38839     38840
     38836     38839     38841     38836     38839     38842     38840     38839     38841
     38840     38839     38842     38841     38839     38842     38839     38842     38843
     38839     38842     38844     38839     38842     38845     38843     38842     38844
     38843     38842     38845     38844     38842     38845     38842     38845     38846
     38842     38845     38847     38842     38845     38848     38846     38845     38847
     38846     38845     38848     38847     38845     38848     38845     38848     38849
     38845     38848     38850     38845     38848     38851     38849     38848     38850
     38849     38848     38851     38850     38848     38851     38848     38851     38852
     38848     38851     38853     38848     38851     38854     38852     38851     38853
     38852     38851     38854     38853     38851     38854     38851     38854     38855
     38851     38854     38856     38851     38854     38857     38855     38854     38856
     38855     38854     38857     38856     38854     38857     38854     38857     38858
     38854     38857     38859     38854     38857     38860     38858     38857     38859
     38858     38857     38860     38859     38857     38860     38862     38861     38865
     38862     38861     38869     38862     38861     38873     38865     38861     38869
     38865     38861     38873     38869     38861     38873     38861     38862     38863
     38861     38862     38864     38861     38862     38877     38863     38862     38864
     38863     38862     38877     38864     38862     38877     38861     38865     38866
     38861     38865     38867     38861     38865     38868     38866     38865     38867
     38866     38865     38868     38867     38865     38868     38861     38869     38870
     38861     38869     38871     38861     38869     38872     38870     38869     38871
     38870     38869     38872     38871     38869     38872     38861     38873     38874
     38861     38873     38875     38861     38873     38876     38874     38873     38875
     38874     38873     38876     38875     38873     38876     38862     38877     38878
     38862     38877     38879     38862     38877     38883     38878     38877     38879
     38878     38877     38883     38879     38877     38883     38881     38880     38882
     38881     38880     38883     38881     38880     38884     38882     38880     38883
     38882     38880     38884     38883     38880     38884     38877     38883     38880
     38880     38884     38885     38884     38885     38886     38884     38885     38887
     38884     38885     38888     38886     38885     38887     38886     38885     38888
     38887     38885     38888     38885     38888     38889     38885     38888     38890
     38885     38888     38896     38889     38888     38890     38889     38888     38896
     38890     38888     38896     38888     38890     38891     38890     38891     38892
     38890     38891     38893     38892     38891     38893     38891     38893     38894
     38891     38893     38895     38891     38893     38905     38894     38893     38895
     38894     38893     38905     38895     38893     38905     38888     38896     38897
     38888     38896     38898     38888     38896     38899     38897     38896     38898
     38897     38896     38899     38898     38896     38899     38896     38899     38900
     38899     38900     38901     38899     38900     38902     38901     38900     38902
     38900     38902     38903     38900     38902     38904     38900     38902     38952
     38903     38902     38904     38903     38902     38952     38904     38902     38952
     38893     38905     38906     38893     38905     38907     38893     38905     38908
     38906     38905     38907     38906     38905     38908     38907     38905     38908
     38905     38908     38909     38905     38908     38910     38905     38908     38911
     38909     38908     38910     38909     38908     38911     38910     38908     38911
     38908     38911     38912     38908     38911     38913     38908     38911     38914
     38912     38911     38913     38912     38911     38914     38913     38911     38914
     38911     38914     38915     38911     38914     38916     38911     38914     38917
     38915     38914     38916     38915     38914     38917     38916     38914     38917
     38914     38917     38918     38914     38917     38919     38914     38917     38920
     38918     38917     38919     38918     38917     38920     38919     38917     38920
     38917     38920     38921     38917     38920     38922     38917     38920     38923
     38921     38920     38922     38921     38920     38923     38922     38920     38923
     38920     38923     38924     38920     38923     38925     38924     38923     38925
     38923     38925     38926     38923     38925     38927     38926     38925     38927
     38925     38927     38928     38925     38927     38929     38925     38927     38930
     38928     38927     38929     38928     38927     38930     38929     38927     38930
     38927     38930     38931     38927     38930     38932     38927     38930     38933
     38931     38930     38932     38931     38930     38933     38932     38930     38933
     38930     38933     38934     38930     38933     38935     38930     38933     38936
     38934     38933     38935     38934     38933     38936     38935     38933     38936
     38933     38936     38937     38933     38936     38938     38933     38936     38939
     38937     38936     38938     38937     38936     38939     38938     38936     38939
     38936     38939     38940     38936     38939     38941     38936     38939     38942
     38940     38939     38941     38940     38939     38942     38941     38939     38942
     38939     38942     38943     38939     38942     38944     38939     38942     38945
     38943     38942     38944     38943     38942     38945     38944     38942     38945
     38942     38945     38946     38942     38945     38947     38942     38945     38948
     38946     38945     38947     38946     38945     38948     38947     38945     38948
     38945     38948     38949     38945     38948     38950     38945     38948     38951
     38949     38948     38950     38949     38948     38951     38950     38948     38951
     38902     38952     38953     38902     38952     38954     38902     38952     38955
     38953     38952     38954     38953     38952     38955     38954     38952     38955
     38952     38955     38956     38952     38955     38957     38952     38955     38958
     38956     38955     38957     38956     38955     38958     38957     38955     38958
     38955     38958     38959     38955     38958     38960     38955     38958     38961
     38959     38958     38960     38959     38958     38961     38960     38958     38961
     38958     38961     38962     38958     38961     38963     38958     38961     38964
     38962     38961     38963     38962     38961     38964     38963     38961     38964
     38961     38964     38965     38961     38964     38966     38961     38964     38967
     38965     38964     38966     38965     38964     38967     38966     38964     38967
     38964     38967     38968     38964     38967     38969     38964     38967     38970
     38968     38967     38969     38968     38967     38970     38969     38967     38970
     38967     38970     38971     38967     38970     38972     38967     38970     38973
     38971     38970     38972     38971     38970     38973     38972     38970     38973
     38970     38973     38974     38970     38973     38975     38970     38973     38976
     38974     38973     38975     38974     38973     38976     38975     38973     38976
     38973     38976     38977     38973     38976     38978     38973     38976     38979
     38977     38976     38978     38977     38976     38979     38978     38976     38979
     38976     38979     38980     38976     38979     38981     38976     38979     38982
     38980     38979     38981     38980     38979     38982     38981     38979     38982
     38979     38982     38983     38979     38982     38984     38979     38982     38985
     38983     38982     38984     38983     38982     38985     38984     38982     38985
     38982     38985     38986     38982     38985     38987     38982     38985     38988
     38986     38985     38987     38986     38985     38988     38987     38985     38988
     38985     38988     38989     38985     38988     38990     38985     38988     38991
     38989     38988     38990     38989     38988     38991     38990     38988     38991
     38988     38991     38992     38988     38991     38993     38988     38991     38994
     38992     38991     38993     38992     38991     38994     38993     38991     38994
     38996     38995     38999     38996     38995     39003     38996     38995     39007
     38999     38995     39003     38999     38995     39007     39003     38995     39007
     38995     38996     38997     38995     38996     38998     38995     38996     39011
     38997     38996     38998     38997     38996     39011     38998     38996     39011
     38995     38999     39000     38995     38999     39001     38995     38999     39002
     39000     38999     39001     39000     38999     39002     39001     38999     39002
     38995     39003     39004     38995     39003     39005     38995     39003     39006
     39004     39003     39005     39004     39003     39006     39005     39003     39006
     38995     39007     39008     38995     39007     39009     38995     39007     39010
     39008     39007     39009     39008     39007     39010     39009     39007     39010
     38996     39011     39012     38996     39011     39013     38996     39011     39017
     39012     39011     39013     39012     39011     39017     39013     39011     39017
     39015     39014     39016     39015     39014     39017     39015     39014     39018
     39016     39014     39017     39016     39014     39018     39017     39014     39018
     39011     39017     39014     39014     39018     39019     39018     39019     39020
     39018     39019     39021     39018     39019     39022     39020     39019     39021
     39020     39019     39022     39021     39019     39022     39019     39022     39023
     39019     39022     39024     39019     39022     39030     39023     39022     39024
     39023     39022     39030     39024     39022     39030     39022     39024     39025
     39024     39025     39026     39024     39025     39027     39026     39025     39027
     39025     39027     39028     39025     39027     39029     39025     39027     39039
     39028     39027     39029     39028     39027     39039     39029     39027     39039
     39022     39030     39031     39022     39030     39032     39022     39030     39033
     39031     39030     39032     39031     39030     39033     39032     39030     39033
     39030     39033     39034     39033     39034     39035     39033     39034     39036
     39035     39034     39036     39034     39036     39037     39034     39036     39038
     39034     39036     39086     39037     39036     39038     39037     39036     39086
     39038     39036     39086     39027     39039     39040     39027     39039     39041
     39027     39039     39042     39040     39039     39041     39040     39039     39042
     39041     39039     39042     39039     39042     39043     39039     39042     39044
     39039     39042     39045     39043     39042     39044     39043     39042     39045
     39044     39042     39045     39042     39045     39046     39042     39045     39047
     39042     39045     39048     39046     39045     39047     39046     39045     39048
     39047     39045     39048     39045     39048     39049     39045     39048     39050
     39045     39048     39051     39049     39048     39050     39049     39048     39051
     39050     39048     39051     39048     39051     39052     39048     39051     39053
     39048     39051     39054     39052     39051     39053     39052     39051     39054
     39053     39051     39054     39051     39054     39055     39051     39054     39056
     39051     39054     39057     39055     39054     39056     39055     39054     39057
     39056     39054     39057     39054     39057     39058     39054     39057     39059
     39058     39057     39059     39057     39059     39060     39057     39059     39061
     39060     39059     39061     39059     39061     39062     39059     39061     39063
     39059     39061     39064     39062     39061     39063     39062     39061     39064
     39063     39061     39064     39061     39064     39065     39061     39064     39066
     39061     39064     39067     39065     39064     39066     39065     39064     39067
     39066     39064     39067     39064     39067     39068     39064     39067     39069
     39064     39067     39070     39068     39067     39069     39068     39067     39070
     39069     39067     39070     39067     39070     39071     39067     39070     39072
     39067     39070     39073     39071     39070     39072     39071     39070     39073
     39072     39070     39073     39070     39073     39074     39070     39073     39075
     39070     39073     39076     39074     39073     39075     39074     39073     39076
     39075     39073     39076     39073     39076     39077     39073     39076     39078
     39073     39076     39079     39077     39076     39078     39077     39076     39079
     39078     39076     39079     39076     39079     39080     39076     39079     39081
     39076     39079     39082     39080     39079     39081     39080     39079     39082
     39081     39079     39082     39079     39082     39083     39079     39082     39084
     39079     39082     39085     39083     39082     39084     39083     39082     39085
     39084     39082     39085     39036     39086     39087     39036     39086     39088
     39036     39086     39089     39087     39086     39088     39087     39086     39089
     39088     39086     39089     39086     39089     39090     39086     39089     39091
     39086     39089     39092     39090     39089     39091     39090     39089     39092
     39091     39089     39092     39089     39092     39093     39089     39092     39094
     39089     39092     39095     39093     39092     39094     39093     39092     39095
     39094     39092     39095     39092     39095     39096     39092     39095     39097
     39092     39095     39098     39096     39095     39097     39096     39095     39098
     39097     39095     39098     39095     39098     39099     39095     39098     39100
     39095     39098     39101     39099     39098     39100     39099     39098     39101
     39100     39098     39101     39098     39101     39102     39098     39101     39103
     39098     39101     39104     39102     39101     39103     39102     39101     39104
     39103     39101     39104     39101     39104     39105     39101     39104     39106
     39101     39104     39107     39105     39104     39106     39105     39104     39107
     39106     39104     39107     39104     39107     39108     39104     39107     39109
     39104     39107     39110     39108     39107     39109     39108     39107     39110
     39109     39107     39110     39107     39110     39111     39107     39110     39112
     39107     39110     39113     39111     39110     39112     39111     39110     39113
     39112     39110     39113     39110     39113     39114     39110     39113     39115
     39110     39113     39116     39114     39113     39115     39114     39113     39116
     39115     39113     39116     39113     39116     39117     39113     39116     39118
     39113     39116     39119     39117     39116     39118     39117     39116     39119
     39118     39116     39119     39116     39119     39120     39116     39119     39121
     39116     39119     39122     39120     39119     39121     39120     39119     39122
     39121     39119     39122     39119     39122     39123     39119     39122     39124
     39119     39122     39125     39123     39122     39124     39123     39122     39125
     39124     39122     39125     39122     39125     39126     39122     39125     39127
     39122     39125     39128     39126     39125     39127     39126     39125     39128
     39127     39125     39128     39130     39129     39133     39130     39129     39137
     39130     39129     39141     39133     39129     39137     39133     39129     39141
     39137     39129     39141     39129     39130     39131     39129     39130     39132
     39129     39130     39145     39131     39130     39132     39131     39130     39145
     39132     39130     39145     39129     39133     39134     39129     39133     39135
     39129     39133     39136     39134     39133     39135     39134     39133     39136
     39135     39133     39136     39129     39137     39138     39129     39137     39139
     39129     39137     39140     39138     39137     39139     39138     39137     39140
     39139     39137     39140     39129     39141     39142     39129     39141     39143
     39129     39141     39144     39142     39141     39143     39142     39141     39144
     39143     39141     39144     39130     39145     39146     39130     39145     39147
     39130     39145     39151     39146     39145     39147     39146     39145     39151
     39147     39145     39151     39149     39148     39150     39149     39148     39151
     39149     39148     39152     39150     39148     39151     39150     39148     39152
     39151     39148     39152     39145     39151     39148     39148     39152     39153
     39152     39153     39154     39152     39153     39155     39152     39153     39156
     39154     39153     39155     39154     39153     39156     39155     39153     39156
     39153     39156     39157     39153     39156     39158     39153     39156     39164
     39157     39156     39158     39157     39156     39164     39158     39156     39164
     39156     39158     39159     39158     39159     39160     39158     39159     39161
     39160     39159     39161     39159     39161     39162     39159     39161     39163
     39159     39161     39173     39162     39161     39163     39162     39161     39173
     39163     39161     39173     39156     39164     39165     39156     39164     39166
     39156     39164     39167     39165     39164     39166     39165     39164     39167
     39166     39164     39167     39164     39167     39168     39167     39168     39169
     39167     39168     39170     39169     39168     39170     39168     39170     39171
     39168     39170     39172     39168     39170     39220     39171     39170     39172
     39171     39170     39220     39172     39170     39220     39161     39173     39174
     39161     39173     39175     39161     39173     39176     39174     39173     39175
     39174     39173     39176     39175     39173     39176     39173     39176     39177
     39173     39176     39178     39173     39176     39179     39177     39176     39178
     39177     39176     39179     39178     39176     39179     39176     39179     39180
     39176     39179     39181     39176     39179     39182     39180     39179     39181
     39180     39179     39182     39181     39179     39182     39179     39182     39183
     39179     39182     39184     39179     39182     39185     39183     39182     39184
     39183     39182     39185     39184     39182     39185     39182     39185     39186
     39182     39185     39187     39182     39185     39188     39186     39185     39187
     39186     39185     39188     39187     39185     39188     39185     39188     39189
     39185     39188     39190     39185     39188     39191     39189     39188     39190
     39189     39188     39191     39190     39188     39191     39188     39191     39192
     39188     39191     39193     39192     39191     39193     39191     39193     39194
     39191     39193     39195     39194     39193     39195     39193     39195     39196
     39193     39195     39197     39193     39195     39198     39196     39195     39197
     39196     39195     39198     39197     39195     39198     39195     39198     39199
     39195     39198     39200     39195     39198     39201     39199     39198     39200
     39199     39198     39201     39200     39198     39201     39198     39201     39202
     39198     39201     39203     39198     39201     39204     39202     39201     39203
     39202     39201     39204     39203     39201     39204     39201     39204     39205
     39201     39204     39206     39201     39204     39207     39205     39204     39206
     39205     39204     39207     39206     39204     39207     39204     39207     39208
     39204     39207     39209     39204     39207     39210     39208     39207     39209
     39208     39207     39210     39209     39207     39210     39207     39210     39211
     39207     39210     39212     39207     39210     39213     39211     39210     39212
     39211     39210     39213     39212     39210     39213     39210     39213     39214
     39210     39213     39215     39210     39213     39216     39214     39213     39215
     39214     39213     39216     39215     39213     39216     39213     39216     39217
     39213     39216     39218     39213     39216     39219     39217     39216     39218
     39217     39216     39219     39218     39216     39219     39170     39220     39221
     39170     39220     39222     39170     39220     39223     39221     39220     39222
     39221     39220     39223     39222     39220     39223     39220     39223     39224
     39220     39223     39225     39220     39223     39226     39224     39223     39225
     39224     39223     39226     39225     39223     39226     39223     39226     39227
     39223     39226     39228     39223     39226     39229     39227     39226     39228
     39227     39226     39229     39228     39226     39229     39226     39229     39230
     39226     39229     39231     39226     39229     39232     39230     39229     39231
     39230     39229     39232     39231     39229     39232     39229     39232     39233
     39229     39232     39234     39229     39232     39235     39233     39232     39234
     39233     39232     39235     39234     39232     39235     39232     39235     39236
     39232     39235     39237     39232     39235     39238     39236     39235     39237
     39236     39235     39238     39237     39235     39238     39235     39238     39239
     39235     39238     39240     39235     39238     39241     39239     39238     39240
     39239     39238     39241     39240     39238     39241     39238     39241     39242
     39238     39241     39243     39238     39241     39244     39242     39241     39243
     39242     39241     39244     39243     39241     39244     39241     39244     39245
     39241     39244     39246     39241     39244     39247     39245     39244     39246
     39245     39244     39247     39246     39244     39247     39244     39247     39248
     39244     39247     39249     39244     39247     39250     39248     39247     39249
     39248     39247     39250     39249     39247     39250     39247     39250     39251
     39247     39250     39252     39247     39250     39253     39251     39250     39252
     39251     39250     39253     39252     39250     39253     39250     39253     39254
     39250     39253     39255     39250     39253     39256     39254     39253     39255
     39254     39253     39256     39255     39253     39256     39253     39256     39257
     39253     39256     39258     39253     39256     39259     39257     39256     39258
     39257     39256     39259     39258     39256     39259     39256     39259     39260
     39256     39259     39261     39256     39259     39262     39260     39259     39261
     39260     39259     39262     39261     39259     39262     39264     39263     39267
     39264     39263     39271     39264     39263     39275     39267     39263     39271
     39267     39263     39275     39271     39263     39275     39263     39264     39265
     39263     39264     39266     39263     39264     39279     39265     39264     39266
     39265     39264     39279     39266     39264     39279     39263     39267     39268
     39263     39267     39269     39263     39267     39270     39268     39267     39269
     39268     39267     39270     39269     39267     39270     39263     39271     39272
     39263     39271     39273     39263     39271     39274     39272     39271     39273
     39272     39271     39274     39273     39271     39274     39263     39275     39276
     39263     39275     39277     39263     39275     39278     39276     39275     39277
     39276     39275     39278     39277     39275     39278     39264     39279     39280
     39264     39279     39281     39264     39279     39285     39280     39279     39281
     39280     39279     39285     39281     39279     39285     39283     39282     39284
     39283     39282     39285     39283     39282     39286     39284     39282     39285
     39284     39282     39286     39285     39282     39286     39279     39285     39282
     39282     39286     39287     39286     39287     39288     39286     39287     39289
     39286     39287     39290     39288     39287     39289     39288     39287     39290
     39289     39287     39290     39287     39290     39291     39287     39290     39292
     39287     39290     39298     39291     39290     39292     39291     39290     39298
     39292     39290     39298     39290     39292     39293     39292     39293     39294
     39292     39293     39295     39294     39293     39295     39293     39295     39296
     39293     39295     39297     39293     39295     39307     39296     39295     39297
     39296     39295     39307     39297     39295     39307     39290     39298     39299
     39290     39298     39300     39290     39298     39301     39299     39298     39300
     39299     39298     39301     39300     39298     39301     39298     39301     39302
     39301     39302     39303     39301     39302     39304     39303     39302     39304
     39302     39304     39305     39302     39304     39306     39302     39304     39354
     39305     39304     39306     39305     39304     39354     39306     39304     39354
     39295     39307     39308     39295     39307     39309     39295     39307     39310
     39308     39307     39309     39308     39307     39310     39309     39307     39310
     39307     39310     39311     39307     39310     39312     39307     39310     39313
     39311     39310     39312     39311     39310     39313     39312     39310     39313
     39310     39313     39314     39310     39313     39315     39310     39313     39316
     39314     39313     39315     39314     39313     39316     39315     39313     39316
     39313     39316     39317     39313     39316     39318     39313     39316     39319
     39317     39316     39318     39317     39316     39319     39318     39316     39319
     39316     39319     39320     39316     39319     39321     39316     39319     39322
     39320     39319     39321     39320     39319     39322     39321     39319     39322
     39319     39322     39323     39319     39322     39324     39319     39322     39325
     39323     39322     39324     39323     39322     39325     39324     39322     39325
     39322     39325     39326     39322     39325     39327     39326     39325     39327
     39325     39327     39328     39325     39327     39329     39328     39327     39329
     39327     39329     39330     39327     39329     39331     39327     39329     39332
     39330     39329     39331     39330     39329     39332     39331     39329     39332
     39329     39332     39333     39329     39332     39334     39329     39332     39335
     39333     39332     39334     39333     39332     39335     39334     39332     39335
     39332     39335     39336     39332     39335     39337     39332     39335     39338
     39336     39335     39337     39336     39335     39338     39337     39335     39338
     39335     39338     39339     39335     39338     39340     39335     39338     39341
     39339     39338     39340     39339     39338     39341     39340     39338     39341
     39338     39341     39342     39338     39341     39343     39338     39341     39344
     39342     39341     39343     39342     39341     39344     39343     39341     39344
     39341     39344     39345     39341     39344     39346     39341     39344     39347
     39345     39344     39346     39345     39344     39347     39346     39344     39347
     39344     39347     39348     39344     39347     39349     39344     39347     39350
     39348     39347     39349     39348     39347     39350     39349     39347     39350
     39347     39350     39351     39347     39350     39352     39347     39350     39353
     39351     39350     39352     39351     39350     39353     39352     39350     39353
     39304     39354     39355     39304     39354     39356     39304     39354     39357
     39355     39354     39356     39355     39354     39357     39356     39354     39357
     39354     39357     39358     39354     39357     39359     39354     39357     39360
     39358     39357     39359     39358     39357     39360     39359     39357     39360
     39357     39360     39361     39357     39360     39362     39357     39360     39363
     39361     39360     39362     39361     39360     39363     39362     39360     39363
     39360     39363     39364     39360     39363     39365     39360     39363     39366
     39364     39363     39365     39364     39363     39366     39365     39363     39366
     39363     39366     39367     39363     39366     39368     39363     39366     39369
     39367     39366     39368     39367     39366     39369     39368     39366     39369
     39366     39369     39370     39366     39369     39371     39366     39369     39372
     39370     39369     39371     39370     39369     39372     39371     39369     39372
     39369     39372     39373     39369     39372     39374     39369     39372     39375
     39373     39372     39374     39373     39372     39375     39374     39372     39375
     39372     39375     39376     39372     39375     39377     39372     39375     39378
     39376     39375     39377     39376     39375     39378     39377     39375     39378
     39375     39378     39379     39375     39378     39380     39375     39378     39381
     39379     39378     39380     39379     39378     39381     39380     39378     39381
     39378     39381     39382     39378     39381     39383     39378     39381     39384
     39382     39381     39383     39382     39381     39384     39383     39381     39384
     39381     39384     39385     39381     39384     39386     39381     39384     39387
     39385     39384     39386     39385     39384     39387     39386     39384     39387
     39384     39387     39388     39384     39387     39389     39384     39387     39390
     39388     39387     39389     39388     39387     39390     39389     39387     39390
     39387     39390     39391     39387     39390     39392     39387     39390     39393
     39391     39390     39392     39391     39390     39393     39392     39390     39393
     39390     39393     39394     39390     39393     39395     39390     39393     39396
     39394     39393     39395     39394     39393     39396     39395     39393     39396
     39398     39397     39399     39401     39400     39402     39404     39403     39405
     39407     39406     39408     39410     39409     39411     39413     39412     39414
     39416     39415     39417     39419     39418     39420     39422     39421     39423
     39425     39424     39426     39428     39427     39429     39431     39430     39432
     39434     39433     39435     39437     39436     39438     39440     39439     39441
     39443     39442     39444     39446     39445     39447     39449     39448     39450
     39452     39451     39453     39455     39454     39456     39458     39457     39459
     39461     39460     39462     39464     39463     39465     39467     39466     39468
     39470     39469     39471     39473     39472     39474     39476     39475     39477
     39479     39478     39480     39482     39481     39483     39485     39484     39486
     39488     39487     39489     39491     39490     39492     39494     39493     39495
     39497     39496     39498     39500     39499     39501     39503     39502     39504
     39506     39505     39507     39509     39508     39510     39512     39511     39513
     39515     39514     39516     39518     39517     39519     39521     39520     39522
     39524     39523     39525     39527     39526     39528     39530     39529     39531
     39533     39532     39534     39536     39535     39537     39539     39538     39540
     39542     39541     39543     39545     39544     39546     39548     39547     39549
     39551     39550     39552     39554     39553     39555     39557     39556     39558
     39560     39559     39561     39563     39562     39564     39566     39565     39567
     39569     39568     39570     39572     39571     39573     39575     39574     39576
     39578     39577     39579     39581     39580     39582     39584     39583     39585
     39587     39586     39588     39590     39589     39591     39593     39592     39594
     39596     39595     39597     39599     39598     39600     39602     39601     39603
     39605     39604     39606     39608     39607     39609     39611     39610     39612
     39614     39613     39615     39617     39616     39618     39620     39619     39621
     39623     39622     39624     39626     39625     39627     39629     39628     39630
     39632     39631     39633     39635     39634     39636     39638     39637     39639
     39641     39640     39642     39644     39643     39645     39647     39646     39648
     39650     39649     39651     39653     39652     39654     39656     39655     39657
     39659     39658     39660     39662     39661     39663     39665     39664     39666
     39668     39667     39669     39671     39670     39672     39674     39673     39675
     39677     39676     39678     39680     39679     39681     39683     39682     39684
     39686     39685     39687     39689     39688     39690     39692     39691     39693
     39695     39694     39696     39698     39697     39699     39701     39700     39702
     39704     39703     39705     39707     39706     39708     39710     39709     39711
     39713     39712     39714     39716     39715     39717     39719     39718     39720
     39722     39721     39723     39725     39724     39726     39728     39727     39729
     39731     39730     39732     39734     39733     39735     39737     39736     39738
     39740     39739     39741     39743     39742     39744     39746     39745     39747
     39749     39748     39750     39752     39751     39753     39755     39754     39756
     39758     39757     39759     39761     39760     39762     39764     39763     39765
     39767     39766     39768     39770     39769     39771     39773     39772     39774
     39776     39775     39777     39779     39778     39780     39782     39781     39783
     39785     39784     39786     39788     39787     39789     39791     39790     39792
     39794     39793     39795     39797     39796     39798     39800     39799     39801
     39803     39802     39804     39806     39805     39807     39809     39808     39810
     39812     39811     39813     39815     39814     39816     39818     39817     39819
     39821     39820     39822     39824     39823     39825     39827     39826     39828
     39830     39829     39831     39833     39832     39834     39836     39835     39837
     39839     39838     39840     39842     39841     39843     39845     39844     39846
     39848     39847     39849     39851     39850     39852     39854     39853     39855
     39857     39856     39858     39860     39859     39861     39863     39862     39864
     39866     39865     39867     39869     39868     39870     39872     39871     39873
     39875     39874     39876     39878     39877     39879     39881     39880     39882
     39884     39883     39885     39887     39886     39888     39890     39889     39891
     39893     39892     39894     39896     39895     39897     39899     39898     39900
     39902     39901     39903     39905     39904     39906     39908     39907     39909
     39911     39910     39912     39914     39913     39915     39917     39916     39918
     39920     39919     39921     39923     39922     39924     39926     39925     39927
     39929     39928     39930     39932     39931     39933     39935     39934     39936
     39938     39937     39939     39941     39940     39942     39944     39943     39945
     39947     39946     39948     39950     39949     39951     39953     39952     39954
     39956     39955     39957     39959     39958     39960     39962     39961     39963
     39965     39964     39966     39968     39967     39969     39971     39970     39972
     39974     39973     39975     39977     39976     39978     39980     39979     39981
     39983     39982     39984     39986     39985     39987     39989     39988     39990
     39992     39991     39993     39995     39994     39996     39998     39997     39999
     40001     40000     40002     40004     40003     40005     40007     40006     40008
     40010     40009     40011     40013     40012     40014     40016     40015     40017
     40019     40018     40020     40022     40021     40023     40025     40024     40026
     40028     40027     40029     40031     40030     40032     40034     40033     40035
     40037     40036     40038     40040     40039     40041     40043     40042     40044
     40046     40045     40047     40049     40048     40050     40052     40051     40053
     40055     40054     40056     40058     40057     40059     40061     40060     40062
     40064     40063     40065     40067     40066     40068     40070     40069     40071
     40073     40072     40074     40076     40075     40077     40079     40078     40080
     40082     40081     40083     40085     40084     40086     40088     40087     40089
     40091     40090     40092     40094     40093     40095     40097     40096     40098
     40100     40099     40101     40103     40102     40104     40106     40105     40107
     40109     40108     40110     40112     40111     40113     40115     40114     40116
     40118     40117     40119     40121     40120     40122     40124     40123     40125
     40127     40126     40128     40130     40129     40131     40133     40132     40134
     40136     40135     40137     40139     40138     40140     40142     40141     40143
     40145     40144     40146     40148     40147     40149     40151     40150     40152
     40154     40153     40155     40157     40156     40158     40160     40159     40161
     40163     40162     40164     40166     40165     40167     40169     40168     40170
     40172     40171     40173     40175     40174     40176     40178     40177     40179
     40181     40180     40182     40184     40183     40185     40187     40186     40188
     40190     40189     40191     40193     40192     40194     40196     40195     40197
     40199     40198     40200     40202     40201     40203     40205     40204     40206
     40208     40207     40209     40211     40210     40212     40214     40213     40215
     40217     40216     40218     40220     40219     40221     40223     40222     40224
     40226     40225     40227     40229     40228     40230     40232     40231     40233
     40235     40234     40236     40238     40237     40239     40241     40240     40242
     40244     40243     40245     40247     40246     40248     40250     40249     40251
     40253     40252     40254     40256     40255     40257     40259     40258     40260
     40262     40261     40263     40265     40264     40266     40268     40267     40269
     40271     40270     40272     40274     40273     40275     40277     40276     40278
     40280     40279     40281     40283     40282     40284     40286     40285     40287
     40289     40288     40290     40292     40291     40293     40295     40294     40296
     40298     40297     40299     40301     40300     40302     40304     40303     40305
     40307     40306     40308     40310     40309     40311     40313     40312     40314
     40316     40315     40317     40319     40318     40320     40322     40321     40323
     40325     40324     40326     40328     40327     40329     40331     40330     40332
     40334     40333     40335     40337     40336     40338     40340     40339     40341
     40343     40342     40344     40346     40345     40347     40349     40348     40350
     40352     40351     40353     40355     40354     40356     40358     40357     40359
     40361     40360     40362     40364     40363     40365     40367     40366     40368
     40370     40369     40371     40373     40372     40374     40376     40375     40377
     40379     40378     40380     40382     40381     40383     40385     40384     40386
     40388     40387     40389     40391     40390     40392     40394     40393     40395
     40397     40396     40398     40400     40399     40401     40403     40402     40404
     40406     40405     40407     40409     40408     40410     40412     40411     40413
     40415     40414     40416     40418     40417     40419     40421     40420     40422
     40424     40423     40425     40427     40426     40428     40430     40429     40431
     40433     40432     40434     40436     40435     40437     40439     40438     40440
     40442     40441     40443     40445     40444     40446     40448     40447     40449
     40451     40450     40452     40454     40453     40455     40457     40456     40458
     40460     40459     40461     40463     40462     40464     40466     40465     40467
     40469     40468     40470     40472     40471     40473     40475     40474     40476
     40478     40477     40479     40481     40480     40482     40484     40483     40485
     40487     40486     40488     40490     40489     40491     40493     40492     40494
     40496     40495     40497     40499     40498     40500     40502     40501     40503
     40505     40504     40506     40508     40507     40509     40511     40510     40512
     40514     40513     40515     40517     40516     40518     40520     40519     40521
     40523     40522     40524     40526     40525     40527     40529     40528     40530
     40532     40531     40533     40535     40534     40536     40538     40537     40539
     40541     40540     40542     40544     40543     40545     40547     40546     40548
     40550     40549     40551     40553     40552     40554     40556     40555     40557
     40559     40558     40560     40562     40561     40563     40565     40564     40566
     40568     40567     40569     40571     40570     40572     40574     40573     40575
     40577     40576     40578     40580     40579     40581     40583     40582     40584
     40586     40585     40587     40589     40588     40590     40592     40591     40593
     40595     40594     40596     40598     40597     40599     40601     40600     40602
     40604     40603     40605     40607     40606     40608     40610     40609     40611
     40613     40612     40614     40616     40615     40617     40619     40618     40620
     40622     40621     40623     40625     40624     40626     40628     40627     40629
     40631     40630     40632     40634     40633     40635     40637     40636     40638
     40640     40639     40641     40643     40642     40644     40646     40645     40647
     40649     40648     40650     40652     40651     40653     40655     40654     40656
     40658     40657     40659     40661     40660     40662     40664     40663     40665
     40667     40666     40668     40670     40669     40671     40673     40672     40674
     40676     40675     40677     40679     40678     40680     40682     40681     40683
     40685     40684     40686     40688     40687     40689     40691     40690     40692
     40694     40693     40695     40697     40696     40698     40700     40699     40701
     40703     40702     40704     40706     40705     40707     40709     40708     40710
     40712     40711     40713     40715     40714     40716     40718     40717     40719
     40721     40720     40722     40724     40723     40725     40727     40726     40728
     40730     40729     40731     40733     40732     40734     40736     40735     40737
     40739     40738     40740     40742     40741     40743     40745     40744     40746
     40748     40747     40749     40751     40750     40752     40754     40753     40755
     40757     40756     40758     40760     40759     40761     40763     40762     40764
     40766     40765     40767     40769     40768     40770     40772     40771     40773
     40775     40774     40776     40778     40777     40779     40781     40780     40782
     40784     40783     40785     40787     40786     40788     40790     40789     40791
     40793     40792     40794     40796     40795     40797     40799     40798     40800
     40802     40801     40803     40805     40804     40806     40808     40807     40809
     40811     40810     40812     40814     40813     40815     40817     40816     40818
     40820     40819     40821     40823     40822     40824     40826     40825     40827
     40829     40828     40830     40832     40831     40833     40835     40834     40836
     40838     40837     40839     40841     40840     40842     40844     40843     40845
     40847     40846     40848     40850     40849     40851     40853     40852     40854
     40856     40855     40857     40859     40858     40860     40862     40861     40863
     40865     40864     40866     40868     40867     40869     40871     40870     40872
     40874     40873     40875     40877     40876     40878     40880     40879     40881
     40883     40882     40884     40886     40885     40887     40889     40888     40890
     40892     40891     40893     40895     40894     40896     40898     40897     40899
     40901     40900     40902     40904     40903     40905     40907     40906     40908
     40910     40909     40911     40913     40912     40914     40916     40915     40917
     40919     40918     40920     40922     40921     40923     40925     40924     40926
     40928     40927     40929     40931     40930     40932     40934     40933     40935
     40937     40936     40938     40940     40939     40941     40943     40942     40944
     40946     40945     40947     40949     40948     40950     40952     40951     40953
     40955     40954     40956     40958     40957     40959     40961     40960     40962
     40964     40963     40965     40967     40966     40968     40970     40969     40971
     40973     40972     40974     40976     40975     40977     40979     40978     40980
     40982     40981     40983     40985     40984     40986     40988     40987     40989
     40991     40990     40992     40994     40993     40995     40997     40996     40998
     41000     40999     41001     41003     41002     41004     41006     41005     41007
     41009     41008     41010     41012     41011     41013     41015     41014     41016
     41018     41017     41019     41021     41020     41022     41024     41023     41025
     41027     41026     41028     41030     41029     41031     41033     41032     41034
     41036     41035     41037     41039     41038     41040     41042     41041     41043
     41045     41044     41046     41048     41047     41049     41051     41050     41052
     41054     41053     41055     41057     41056     41058     41060     41059     41061
     41063     41062     41064     41066     41065     41067     41069     41068     41070
     41072     41071     41073     41075     41074     41076     41078     41077     41079
     41081     41080     41082     41084     41083     41085     41087     41086     41088
     41090     41089     41091     41093     41092     41094     41096     41095     41097
     41099     41098     41100     41102     41101     41103     41105     41104     41106
     41108     41107     41109     41111     41110     41112     41114     41113     41115
     41117     41116     41118     41120     41119     41121     41123     41122     41124
     41126     41125     41127     41129     41128     41130     41132     41131     41133
     41135     41134     41136     41138     41137     41139     41141     41140     41142
     41144     41143     41145     41147     41146     41148     41150     41149     41151
     41153     41152     41154     41156     41155     41157     41159     41158     41160
     41162     41161     41163     41165     41164     41166     41168     41167     41169
     41171     41170     41172     41174     41173     41175     41177     41176     41178
     41180     41179     41181     41183     41182     41184     41186     41185     41187
     41189     41188     41190     41192     41191     41193     41195     41194     41196
     41198     41197     41199     41201     41200     41202     41204     41203     41205
     41207     41206     41208     41210     41209     41211     41213     41212     41214
     41216     41215     41217     41219     41218     41220     41222     41221     41223
     41225     41224     41226     41228     41227     41229     41231     41230     41232
     41234     41233     41235     41237     41236     41238     41240     41239     41241
     41243     41242     41244     41246     41245     41247     41249     41248     41250
     41252     41251     41253     41255     41254     41256     41258     41257     41259
     41261     41260     41262     41264     41263     41265     41267     41266     41268
     41270     41269     41271     41273     41272     41274     41276     41275     41277
     41279     41278     41280     41282     41281     41283     41285     41284     41286
     41288     41287     41289     41291     41290     41292     41294     41293     41295
     41297     41296     41298     41300     41299     41301     41303     41302     41304
     41306     41305     41307     41309     41308     41310     41312     41311     41313
     41315     41314     41316     41318     41317     41319     41321     41320     41322
     41324     41323     41325     41327     41326     41328     41330     41329     41331
     41333     41332     41334     41336     41335     41337     41339     41338     41340
     41342     41341     41343     41345     41344     41346     41348     41347     41349
     41351     41350     41352     41354     41353     41355     41357     41356     41358
     41360     41359     41361     41363     41362     41364     41366     41365     41367
     41369     41368     41370     41372     41371     41373     41375     41374     41376
     41378     41377     41379     41381     41380     41382     41384     41383     41385
     41387     41386     41388     41390     41389     41391     41393     41392     41394
     41396     41395     41397     41399     41398     41400     41402     41401     41403
     41405     41404     41406     41408     41407     41409     41411     41410     41412
     41414     41413     41415     41417     41416     41418     41420     41419     41421
     41423     41422     41424     41426     41425     41427     41429     41428     41430
     41432     41431     41433     41435     41434     41436     41438     41437     41439
     41441     41440     41442     41444     41443     41445     41447     41446     41448
     41450     41449     41451     41453     41452     41454     41456     41455     41457
     41459     41458     41460     41462     41461     41463     41465     41464     41466
     41468     41467     41469     41471     41470     41472     41474     41473     41475
     41477     41476     41478     41480     41479     41481     41483     41482     41484
     41486     41485     41487     41489     41488     41490     41492     41491     41493
     41495     41494     41496     41498     41497     41499     41501     41500     41502
     41504     41503     41505     41507     41506     41508     41510     41509     41511
     41513     41512     41514     41516     41515     41517     41519     41518     41520
     41522     41521     41523     41525     41524     41526     41528     41527     41529
     41531     41530     41532     41534     41533     41535     41537     41536     41538
     41540     41539     41541     41543     41542     41544     41546     41545     41547
     41549     41548     41550     41552     41551     41553     41555     41554     41556
     41558     41557     41559     41561     41560     41562     41564     41563     41565
     41567     41566     41568     41570     41569     41571     41573     41572     41574
     41576     41575     41577     41579     41578     41580     41582     41581     41583
     41585     41584     41586     41588     41587     41589     41591     41590     41592
     41594     41593     41595     41597     41596     41598     41600     41599     41601
     41603     41602     41604     41606     41605     41607     41609     41608     41610
     41612     41611     41613     41615     41614     41616     41618     41617     41619
     41621     41620     41622     41624     41623     41625     41627     41626     41628
     41630     41629     41631     41633     41632     41634     41636     41635     41637
     41639     41638     41640     41642     41641     41643     41645     41644     41646
     41648     41647     41649     41651     41650     41652     41654     41653     41655
     41657     41656     41658     41660     41659     41661     41663     41662     41664
     41666     41665     41667     41669     41668     41670     41672     41671     41673
     41675     41674     41676     41678     41677     41679     41681     41680     41682
     41684     41683     41685     41687     41686     41688     41690     41689     41691
     41693     41692     41694     41696     41695     41697     41699     41698     41700
     41702     41701     41703     41705     41704     41706     41708     41707     41709
     41711     41710     41712     41714     41713     41715     41717     41716     41718
     41720     41719     41721     41723     41722     41724     41726     41725     41727
     41729     41728     41730     41732     41731     41733     41735     41734     41736
     41738     41737     41739     41741     41740     41742     41744     41743     41745
     41747     41746     41748     41750     41749     41751     41753     41752     41754
     41756     41755     41757     41759     41758     41760     41762     41761     41763
     41765     41764     41766     41768     41767     41769     41771     41770     41772
     41774     41773     41775     41777     41776     41778     41780     41779     41781
     41783     41782     41784     41786     41785     41787     41789     41788     41790
     41792     41791     41793     41795     41794     41796     41798     41797     41799
     41801     41800     41802     41804     41803     41805     41807     41806     41808
     41810     41809     41811     41813     41812     41814     41816     41815     41817
     41819     41818     41820     41822     41821     41823     41825     41824     41826
     41828     41827     41829     41831     41830     41832     41834     41833     41835
     41837     41836     41838     41840     41839     41841     41843     41842     41844
     41846     41845     41847     41849     41848     41850     41852     41851     41853
     41855     41854     41856     41858     41857     41859     41861     41860     41862
     41864     41863     41865     41867     41866     41868     41870     41869     41871
     41873     41872     41874     41876     41875     41877     41879     41878     41880
     41882     41881     41883     41885     41884     41886     41888     41887     41889
     41891     41890     41892     41894     41893     41895     41897     41896     41898
     41900     41899     41901     41903     41902     41904     41906     41905     41907
     41909     41908     41910     41912     41911     41913     41915     41914     41916
     41918     41917     41919     41921     41920     41922     41924     41923     41925
     41927     41926     41928     41930     41929     41931     41933     41932     41934
     41936     41935     41937     41939     41938     41940     41942     41941     41943
     41945     41944     41946     41948     41947     41949     41951     41950     41952
     41954     41953     41955     41957     41956     41958     41960     41959     41961
     41963     41962     41964     41966     41965     41967     41969     41968     41970
     41972     41971     41973     41975     41974     41976     41978     41977     41979
     41981     41980     41982     41984     41983     41985     41987     41986     41988
     41990     41989     41991     41993     41992     41994     41996     41995     41997
     41999     41998     42000     42002     42001     42003     42005     42004     42006
     42008     42007     42009     42011     42010     42012     42014     42013     42015
     42017     42016     42018     42020     42019     42021     42023     42022     42024
     42026     42025     42027     42029     42028     42030     42032     42031     42033
     42035     42034     42036     42038     42037     42039     42041     42040     42042
     42044     42043     42045     42047     42046     42048     42050     42049     42051
     42053     42052     42054     42056     42055     42057     42059     42058     42060
     42062     42061     42063     42065     42064     42066     42068     42067     42069
     42071     42070     42072     42074     42073     42075     42077     42076     42078
     42080     42079     42081     42083     42082     42084     42086     42085     42087
     42089     42088     42090     42092     42091     42093     42095     42094     42096
     42098     42097     42099     42101     42100     42102     42104     42103     42105
     42107     42106     42108     42110     42109     42111     42113     42112     42114
     42116     42115     42117     42119     42118     42120     42122     42121     42123
     42125     42124     42126     42128     42127     42129     42131     42130     42132
     42134     42133     42135     42137     42136     42138     42140     42139     42141
     42143     42142     42144     42146     42145     42147     42149     42148     42150
     42152     42151     42153     42155     42154     42156     42158     42157     42159
     42161     42160     42162     42164     42163     42165     42167     42166     42168
     42170     42169     42171     42173     42172     42174     42176     42175     42177
     42179     42178     42180     42182     42181     42183     42185     42184     42186
     42188     42187     42189     42191     42190     42192     42194     42193     42195
     42197     42196     42198     42200     42199     42201     42203     42202     42204
     42206     42205     42207     42209     42208     42210     42212     42211     42213
     42215     42214     42216     42218     42217     42219     42221     42220     42222
     42224     42223     42225     42227     42226     42228     42230     42229     42231
     42233     42232     42234     42236     42235     42237     42239     42238     42240
     42242     42241     42243     42245     42244     42246     42248     42247     42249
     42251     42250     42252     42254     42253     42255     42257     42256     42258
     42260     42259     42261     42263     42262     42264     42266     42265     42267
     42269     42268     42270     42272     42271     42273     42275     42274     42276
     42278     42277     42279     42281     42280     42282     42284     42283     42285
     42287     42286     42288     42290     42289     42291     42293     42292     42294
     42296     42295     42297     42299     42298     42300     42302     42301     42303
     42305     42304     42306     42308     42307     42309     42311     42310     42312
     42314     42313     42315     42317     42316     42318     42320     42319     42321
     42323     42322     42324     42326     42325     42327     42329     42328     42330
     42332     42331     42333     42335     42334     42336     42338     42337     42339
     42341     42340     42342     42344     42343     42345     42347     42346     42348
     42350     42349     42351     42353     42352     42354     42356     42355     42357
     42359     42358     42360     42362     42361     42363     42365     42364     42366
     42368     42367     42369     42371     42370     42372     42374     42373     42375
     42377     42376     42378     42380     42379     42381     42383     42382     42384
     42386     42385     42387     42389     42388     42390     42392     42391     42393
     42395     42394     42396     42398     42397     42399     42401     42400     42402
     42404     42403     42405     42407     42406     42408     42410     42409     42411
     42413     42412     42414     42416     42415     42417     42419     42418     42420
     42422     42421     42423     42425     42424     42426     42428     42427     42429
     42431     42430     42432     42434     42433     42435     42437     42436     42438
     42440     42439     42441     42443     42442     42444     42446     42445     42447
     42449     42448     42450     42452     42451     42453     42455     42454     42456
     42458     42457     42459     42461     42460     42462     42464     42463     42465
     42467     42466     42468     42470     42469     42471     42473     42472     42474
     42476     42475     42477     42479     42478     42480     42482     42481     42483
     42485     42484     42486     42488     42487     42489     42491     42490     42492
     42494     42493     42495     42497     42496     42498     42500     42499     42501
     42503     42502     42504     42506     42505     42507     42509     42508     42510
     42512     42511     42513     42515     42514     42516     42518     42517     42519
     42521     42520     42522     42524     42523     42525     42527     42526     42528
     42530     42529     42531     42533     42532     42534     42536     42535     42537
     42539     42538     42540     42542     42541     42543     42545     42544     42546
     42548     42547     42549     42551     42550     42552     42554     42553     42555
     42557     42556     42558     42560     42559     42561     42563     42562     42564
     42566     42565     42567     42569     42568     42570     42572     42571     42573
     42575     42574     42576     42578     42577     42579     42581     42580     42582
     42584     42583     42585     42587     42586     42588     42590     42589     42591
     42593     42592     42594     42596     42595     42597     42599     42598     42600
     42602     42601     42603     42605     42604     42606     42608     42607     42609
     42611     42610     42612     42614     42613     42615     42617     42616     42618
     42620     42619     42621     42623     42622     42624     42626     42625     42627
     42629     42628     42630     42632     42631     42633     42635     42634     42636
     42638     42637     42639     42641     42640     42642     42644     42643     42645
     42647     42646     42648     42650     42649     42651     42653     42652     42654
     42656     42655     42657     42659     42658     42660     42662     42661     42663
     42665     42664     42666     42668     42667     42669     42671     42670     42672
     42674     42673     42675     42677     42676     42678     42680     42679     42681
     42683     42682     42684     42686     42685     42687     42689     42688     42690
     42692     42691     42693     42695     42694     42696     42698     42697     42699
     42701     42700     42702     42704     42703     42705     42707     42706     42708
     42710     42709     42711     42713     42712     42714     42716     42715     42717
     42719     42718     42720     42722     42721     42723     42725     42724     42726
     42728     42727     42729     42731     42730     42732     42734     42733     42735
     42737     42736     42738     42740     42739     42741     42743     42742     42744
     42746     42745     42747     42749     42748     42750     42752     42751     42753
     42755     42754     42756     42758     42757     42759     42761     42760     42762
     42764     42763     42765     42767     42766     42768     42770     42769     42771
     42773     42772     42774     42776     42775     42777     42779     42778     42780
     42782     42781     42783     42785     42784     42786     42788     42787     42789
     42791     42790     42792     42794     42793     42795     42797     42796     42798
     42800     42799     42801     42803     42802     42804     42806     42805     42807
     42809     42808     42810     42812     42811     42813     42815     42814     42816
     42818     42817     42819     42821     42820     42822     42824     42823     42825
     42827     42826     42828     42830     42829     42831     42833     42832     42834
     42836     42835     42837     42839     42838     42840     42842     42841     42843
     42845     42844     42846     42848     42847     42849     42851     42850     42852
     42854     42853     42855     42857     42856     42858     42860     42859     42861
     42863     42862     42864     42866     42865     42867     42869     42868     42870
     42872     42871     42873     42875     42874     42876     42878     42877     42879
     42881     42880     42882     42884     42883     42885     42887     42886     42888
     42890     42889     42891     42893     42892     42894     42896     42895     42897
     42899     42898     42900     42902     42901     42903     42905     42904     42906
     42908     42907     42909     42911     42910     42912     42914     42913     42915
     42917     42916     42918     42920     42919     42921     42923     42922     42924
     42926     42925     42927     42929     42928     42930     42932     42931     42933
     42935     42934     42936     42938     42937     42939     42941     42940     42942
     42944     42943     42945     42947     42946     42948     42950     42949     42951
     42953     42952     42954     42956     42955     42957     42959     42958     42960
     42962     42961     42963     42965     42964     42966     42968     42967     42969
     42971     42970     42972     42974     42973     42975     42977     42976     42978
     42980     42979     42981     42983     42982     42984     42986     42985     42987
     42989     42988     42990     42992     42991     42993     42995     42994     42996
     42998     42997     42999     43001     43000     43002     43004     43003     43005
     43007     43006     43008     43010     43009     43011     43013     43012     43014
     43016     43015     43017     43019     43018     43020     43022     43021     43023
     43025     43024     43026     43028     43027     43029     43031     43030     43032
     43034     43033     43035     43037     43036     43038     43040     43039     43041
     43043     43042     43044     43046     43045     43047     43049     43048     43050
     43052     43051     43053     43055     43054     43056     43058     43057     43059
     43061     43060     43062     43064     43063     43065     43067     43066     43068
     43070     43069     43071     43073     43072     43074     43076     43075     43077
     43079     43078     43080     43082     43081     43083     43085     43084     43086
     43088     43087     43089     43091     43090     43092     43094     43093     43095
     43097     43096     43098     43100     43099     43101     43103     43102     43104
     43106     43105     43107     43109     43108     43110     43112     43111     43113
     43115     43114     43116     43118     43117     43119     43121     43120     43122
     43124     43123     43125     43127     43126     43128     43130     43129     43131
     43133     43132     43134     43136     43135     43137     43139     43138     43140
     43142     43141     43143     43145     43144     43146     43148     43147     43149
     43151     43150     43152     43154     43153     43155     43157     43156     43158
     43160     43159     43161     43163     43162     43164     43166     43165     43167
     43169     43168     43170     43172     43171     43173     43175     43174     43176
     43178     43177     43179     43181     43180     43182     43184     43183     43185
     43187     43186     43188     43190     43189     43191     43193     43192     43194
     43196     43195     43197     43199     43198     43200     43202     43201     43203
     43205     43204     43206     43208     43207     43209     43211     43210     43212
     43214     43213     43215     43217     43216     43218     43220     43219     43221
     43223     43222     43224     43226     43225     43227     43229     43228     43230
     43232     43231     43233     43235     43234     43236     43238     43237     43239
     43241     43240     43242     43244     43243     43245     43247     43246     43248
     43250     43249     43251     43253     43252     43254     43256     43255     43257
     43259     43258     43260     43262     43261     43263     43265     43264     43266
     43268     43267     43269     43271     43270     43272     43274     43273     43275
     43277     43276     43278     43280     43279     43281     43283     43282     43284
     43286     43285     43287     43289     43288     43290     43292     43291     43293
     43295     43294     43296     43298     43297     43299     43301     43300     43302
     43304     43303     43305     43307     43306     43308     43310     43309     43311
     43313     43312     43314     43316     43315     43317     43319     43318     43320
     43322     43321     43323     43325     43324     43326     43328     43327     43329
     43331     43330     43332     43334     43333     43335     43337     43336     43338
     43340     43339     43341     43343     43342     43344     43346     43345     43347
     43349     43348     43350     43352     43351     43353     43355     43354     43356
     43358     43357     43359     43361     43360     43362     43364     43363     43365
     43367     43366     43368     43370     43369     43371     43373     43372     43374
     43376     43375     43377     43379     43378     43380     43382     43381     43383
     43385     43384     43386     43388     43387     43389     43391     43390     43392
     43394     43393     43395     43397     43396     43398     43400     43399     43401
     43403     43402     43404     43406     43405     43407     43409     43408     43410
     43412     43411     43413     43415     43414     43416     43418     43417     43419
     43421     43420     43422     43424     43423     43425     43427     43426     43428
     43430     43429     43431     43433     43432     43434     43436     43435     43437
     43439     43438     43440     43442     43441     43443     43445     43444     43446
     43448     43447     43449     43451     43450     43452     43454     43453     43455
     43457     43456     43458     43460     43459     43461     43463     43462     43464
     43466     43465     43467     43469     43468     43470     43472     43471     43473
     43475     43474     43476     43478     43477     43479     43481     43480     43482
     43484     43483     43485     43487     43486     43488     43490     43489     43491
     43493     43492     43494     43496     43495     43497     43499     43498     43500
     43502     43501     43503     43505     43504     43506     43508     43507     43509
     43511     43510     43512     43514     43513     43515     43517     43516     43518
     43520     43519     43521     43523     43522     43524     43526     43525     43527
     43529     43528     43530     43532     43531     43533     43535     43534     43536
     43538     43537     43539     43541     43540     43542     43544     43543     43545
     43547     43546     43548     43550     43549     43551     43553     43552     43554
     43556     43555     43557     43559     43558     43560     43562     43561     43563
     43565     43564     43566     43568     43567     43569     43571     43570     43572
     43574     43573     43575     43577     43576     43578     43580     43579     43581
     43583     43582     43584     43586     43585     43587     43589     43588     43590
     43592     43591     43593     43595     43594     43596     43598     43597     43599
     43601     43600     43602     43604     43603     43605     43607     43606     43608
     43610     43609     43611     43613     43612     43614     43616     43615     43617
     43619     43618     43620     43622     43621     43623     43625     43624     43626
     43628     43627     43629     43631     43630     43632     43634     43633     43635
     43637     43636     43638     43640     43639     43641     43643     43642     43644
     43646     43645     43647     43649     43648     43650     43652     43651     43653
     43655     43654     43656     43658     43657     43659     43661     43660     43662
     43664     43663     43665     43667     43666     43668     43670     43669     43671
     43673     43672     43674     43676     43675     43677     43679     43678     43680
     43682     43681     43683     43685     43684     43686     43688     43687     43689
     43691     43690     43692     43694     43693     43695     43697     43696     43698
     43700     43699     43701     43703     43702     43704     43706     43705     43707
     43709     43708     43710     43712     43711     43713     43715     43714     43716
     43718     43717     43719     43721     43720     43722     43724     43723     43725
     43727     43726     43728     43730     43729     43731     43733     43732     43734
     43736     43735     43737     43739     43738     43740     43742     43741     43743
     43745     43744     43746     43748     43747     43749     43751     43750     43752
     43754     43753     43755     43757     43756     43758     43760     43759     43761
     43763     43762     43764     43766     43765     43767     43769     43768     43770
     43772     43771     43773     43775     43774     43776     43778     43777     43779
     43781     43780     43782     43784     43783     43785     43787     43786     43788
     43790     43789     43791     43793     43792     43794     43796     43795     43797
     43799     43798     43800     43802     43801     43803     43805     43804     43806
     43808     43807     43809     43811     43810     43812     43814     43813     43815
     43817     43816     43818     43820     43819     43821     43823     43822     43824
     43826     43825     43827     43829     43828     43830     43832     43831     43833
     43835     43834     43836     43838     43837     43839     43841     43840     43842
     43844     43843     43845     43847     43846     43848     43850     43849     43851
     43853     43852     43854     43856     43855     43857     43859     43858     43860
     43862     43861     43863     43865     43864     43866     43868     43867     43869
     43871     43870     43872     43874     43873     43875     43877     43876     43878
     43880     43879     43881     43883     43882     43884     43886     43885     43887
     43889     43888     43890     43892     43891     43893     43895     43894     43896
     43898     43897     43899     43901     43900     43902     43904     43903     43905
     43907     43906     43908     43910     43909     43911     43913     43912     43914
     43916     43915     43917     43919     43918     43920     43922     43921     43923
     43925     43924     43926     43928     43927     43929     43931     43930     43932
     43934     43933     43935     43937     43936     43938     43940     43939     43941
     43943     43942     43944     43946     43945     43947     43949     43948     43950
     43952     43951     43953     43955     43954     43956     43958     43957     43959
     43961     43960     43962     43964     43963     43965     43967     43966     43968
     43970     43969     43971     43973     43972     43974     43976     43975     43977
     43979     43978     43980     43982     43981     43983     43985     43984     43986
     43988     43987     43989     43991     43990     43992     43994     43993     43995
     43997     43996     43998     44000     43999     44001     44003     44002     44004
     44006     44005     44007     44009     44008     44010     44012     44011     44013
     44015     44014     44016     44018     44017     44019     44021     44020     44022
     44024     44023     44025     44027     44026     44028     44030     44029     44031
     44033     44032     44034     44036     44035     44037     44039     44038     44040
     44042     44041     44043     44045     44044     44046     44048     44047     44049
     44051     44050     44052     44054     44053     44055     44057     44056     44058
     44060     44059     44061     44063     44062     44064     44066     44065     44067
     44069     44068     44070     44072     44071     44073     44075     44074     44076
     44078     44077     44079     44081     44080     44082     44084     44083     44085
     44087     44086     44088     44090     44089     44091     44093     44092     44094
     44096     44095     44097     44099     44098     44100     44102     44101     44103
     44105     44104     44106     44108     44107     44109     44111     44110     44112
     44114     44113     44115     44117     44116     44118     44120     44119     44121
     44123     44122     44124     44126     44125     44127     44129     44128     44130
     44132     44131     44133     44135     44134     44136     44138     44137     44139
     44141     44140     44142     44144     44143     44145     44147     44146     44148
     44150     44149     44151     44153     44152     44154     44156     44155     44157
     44159     44158     44160     44162     44161     44163     44165     44164     44166
     44168     44167     44169     44171     44170     44172     44174     44173     44175
     44177     44176     44178     44180     44179     44181     44183     44182     44184
     44186     44185     44187     44189     44188     44190     44192     44191     44193
     44195     44194     44196     44198     44197     44199     44201     44200     44202
     44204     44203     44205     44207     44206     44208     44210     44209     44211
     44213     44212     44214     44216     44215     44217     44219     44218     44220
     44222     44221     44223     44225     44224     44226     44228     44227     44229
     44231     44230     44232     44234     44233     44235     44237     44236     44238
     44240     44239     44241     44243     44242     44244     44246     44245     44247
     44249     44248     44250     44252     44251     44253     44255     44254     44256
     44258     44257     44259     44261     44260     44262     44264     44263     44265
     44267     44266     44268     44270     44269     44271     44273     44272     44274
     44276     44275     44277     44279     44278     44280     44282     44281     44283
     44285     44284     44286     44288     44287     44289     44291     44290     44292
     44294     44293     44295     44297     44296     44298     44300     44299     44301
     44303     44302     44304     44306     44305     44307     44309     44308     44310
     44312     44311     44313     44315     44314     44316     44318     44317     44319
     44321     44320     44322     44324     44323     44325     44327     44326     44328
     44330     44329     44331     44333     44332     44334     44336     44335     44337
     44339     44338     44340     44342     44341     44343     44345     44344     44346
     44348     44347     44349     44351     44350     44352     44354     44353     44355
     44357     44356     44358     44360     44359     44361     44363     44362     44364
     44366     44365     44367     44369     44368     44370     44372     44371     44373
     44375     44374     44376     44378     44377     44379     44381     44380     44382
     44384     44383     44385     44387     44386     44388     44390     44389     44391
     44393     44392     44394     44396     44395     44397     44399     44398     44400
     44402     44401     44403     44405     44404     44406     44408     44407     44409
     44411     44410     44412     44414     44413     44415     44417     44416     44418
     44420     44419     44421     44423     44422     44424     44426     44425     44427
     44429     44428     44430     44432     44431     44433     44435     44434     44436
     44438     44437     44439     44441     44440     44442     44444     44443     44445
     44447     44446     44448     44450     44449     44451     44453     44452     44454
     44456     44455     44457     44459     44458     44460     44462     44461     44463
     44465     44464     44466     44468     44467     44469     44471     44470     44472
     44474     44473     44475     44477     44476     44478     44480     44479     44481
     44483     44482     44484     44486     44485     44487     44489     44488     44490
     44492     44491     44493     44495     44494     44496     44498     44497     44499
     44501     44500     44502     44504     44503     44505     44507     44506     44508
     44510     44509     44511     44513     44512     44514     44516     44515     44517
     44519     44518     44520     44522     44521     44523     44525     44524     44526
     44528     44527     44529     44531     44530     44532     44534     44533     44535
     44537     44536     44538     44540     44539     44541     44543     44542     44544
     44546     44545     44547     44549     44548     44550     44552     44551     44553
     44555     44554     44556     44558     44557     44559     44561     44560     44562
     44564     44563     44565     44567     44566     44568     44570     44569     44571
     44573     44572     44574     44576     44575     44577     44579     44578     44580
     44582     44581     44583     44585     44584     44586     44588     44587     44589
     44591     44590     44592     44594     44593     44595     44597     44596     44598
     44600     44599     44601     44603     44602     44604     44606     44605     44607
     44609     44608     44610     44612     44611     44613     44615     44614     44616
     44618     44617     44619     44621     44620     44622     44624     44623     44625
     44627     44626     44628     44630     44629     44631     44633     44632     44634
     44636     44635     44637     44639     44638     44640     44642     44641     44643
     44645     44644     44646     44648     44647     44649     44651     44650     44652
     44654     44653     44655     44657     44656     44658     44660     44659     44661
     44663     44662     44664     44666     44665     44667     44669     44668     44670
     44672     44671     44673     44675     44674     44676     44678     44677     44679
     44681     44680     44682     44684     44683     44685     44687     44686     44688
     44690     44689     44691     44693     44692     44694     44696     44695     44697
     44699     44698     44700     44702     44701     44703     44705     44704     44706
     44708     44707     44709     44711     44710     44712     44714     44713     44715
     44717     44716     44718     44720     44719     44721     44723     44722     44724
     44726     44725     44727     44729     44728     44730     44732     44731     44733
     44735     44734     44736     44738     44737     44739     44741     44740     44742
     44744     44743     44745     44747     44746     44748     44750     44749     44751
     44753     44752     44754     44756     44755     44757     44759     44758     44760
     44762     44761     44763     44765     44764     44766     44768     44767     44769
     44771     44770     44772     44774     44773     44775     44777     44776     44778
     44780     44779     44781     44783     44782     44784     44786     44785     44787
     44789     44788     44790     44792     44791     44793     44795     44794     44796
     44798     44797     44799     44801     44800     44802     44804     44803     44805
     44807     44806     44808     44810     44809     44811     44813     44812     44814
     44816     44815     44817     44819     44818     44820     44822     44821     44823
     44825     44824     44826     44828     44827     44829     44831     44830     44832
     44834     44833     44835     44837     44836     44838     44840     44839     44841
     44843     44842     44844     44846     44845     44847     44849     44848     44850
     44852     44851     44853     44855     44854     44856     44858     44857     44859
     44861     44860     44862     44864     44863     44865     44867     44866     44868
     44870     44869     44871     44873     44872     44874     44876     44875     44877
     44879     44878     44880     44882     44881     44883     44885     44884     44886
     44888     44887     44889     44891     44890     44892     44894     44893     44895
     44897     44896     44898     44900     44899     44901     44903     44902     44904
     44906     44905     44907     44909     44908     44910     44912     44911     44913
     44915     44914     44916     44918     44917     44919     44921     44920     44922
     44924     44923     44925     44927     44926     44928     44930     44929     44931
     44933     44932     44934     44936     44935     44937     44939     44938     44940
     44942     44941     44943     44945     44944     44946     44948     44947     44949
     44951     44950     44952     44954     44953     44955     44957     44956     44958
     44960     44959     44961     44963     44962     44964     44966     44965     44967
     44969     44968     44970     44972     44971     44973     44975     44974     44976
     44978     44977     44979     44981     44980     44982     44984     44983     44985
     44987     44986     44988     44990     44989     44991     44993     44992     44994
     44996     44995     44997     44999     44998     45000     45002     45001     45003
     45005     45004     45006     45008     45007     45009     45011     45010     45012
     45014     45013     45015     45017     45016     45018     45020     45019     45021
     45023     45022     45024     45026     45025     45027     45029     45028     45030
     45032     45031     45033     45035     45034     45036     45038     45037     45039
     45041     45040     45042     45044     45043     45045     45047     45046     45048
     45050     45049     45051     45053     45052     45054     45056     45055     45057
     45059     45058     45060     45062     45061     45063     45065     45064     45066
     45068     45067     45069     45071     45070     45072     45074     45073     45075
     45077     45076     45078     45080     45079     45081     45083     45082     45084
     45086     45085     45087     45089     45088     45090     45092     45091     45093
     45095     45094     45096     45098     45097     45099     45101     45100     45102
     45104     45103     45105     45107     45106     45108     45110     45109     45111
     45113     45112     45114     45116     45115     45117     45119     45118     45120
     45122     45121     45123     45125     45124     45126     45128     45127     45129
     45131     45130     45132     45134     45133     45135     45137     45136     45138
     45140     45139     45141     45143     45142     45144     45146     45145     45147
     45149     45148     45150     45152     45151     45153     45155     45154     45156
     45158     45157     45159     45161     45160     45162     45164     45163     45165
     45167     45166     45168     45170     45169     45171     45173     45172     45174
     45176     45175     45177     45179     45178     45180     45182     45181     45183
     45185     45184     45186     45188     45187     45189     45191     45190     45192
     45194     45193     45195     45197     45196     45198     45200     45199     45201
     45203     45202     45204     45206     45205     45207     45209     45208     45210
     45212     45211     45213     45215     45214     45216     45218     45217     45219
     45221     45220     45222     45224     45223     45225     45227     45226     45228
     45230     45229     45231     45233     45232     45234     45236     45235     45237
     45239     45238     45240     45242     45241     45243     45245     45244     45246
     45248     45247     45249     45251     45250     45252     45254     45253     45255
     45257     45256     45258     45260     45259     45261     45263     45262     45264
     45266     45265     45267     45269     45268     45270     45272     45271     45273
     45275     45274     45276     45278     45277     45279     45281     45280     45282
     45284     45283     45285     45287     45286     45288     45290     45289     45291
     45293     45292     45294     45296     45295     45297     45299     45298     45300
     45302     45301     45303     45305     45304     45306     45308     45307     45309
     45311     45310     45312     45314     45313     45315     45317     45316     45318
     45320     45319     45321     45323     45322     45324     45326     45325     45327
     45329     45328     45330     45332     45331     45333     45335     45334     45336
     45338     45337     45339     45341     45340     45342     45344     45343     45345
     45347     45346     45348     45350     45349     45351     45353     45352     45354
     45356     45355     45357     45359     45358     45360     45362     45361     45363
     45365     45364     45366     45368     45367     45369     45371     45370     45372
     45374     45373     45375     45377     45376     45378     45380     45379     45381
     45383     45382     45384     45386     45385     45387     45389     45388     45390
     45392     45391     45393     45395     45394     45396     45398     45397     45399
     45401     45400     45402     45404     45403     45405     45407     45406     45408
     45410     45409     45411     45413     45412     45414     45416     45415     45417
     45419     45418     45420     45422     45421     45423     45425     45424     45426
     45428     45427     45429     45431     45430     45432     45434     45433     45435
     45437     45436     45438     45440     45439     45441     45443     45442     45444
     45446     45445     45447     45449     45448     45450     45452     45451     45453
     45455     45454     45456     45458     45457     45459     45461     45460     45462
     45464     45463     45465     45467     45466     45468     45470     45469     45471
     45473     45472     45474     45476     45475     45477     45479     45478     45480
     45482     45481     45483     45485     45484     45486     45488     45487     45489
     45491     45490     45492     45494     45493     45495     45497     45496     45498
     45500     45499     45501     45503     45502     45504     45506     45505     45507
     45509     45508     45510     45512     45511     45513     45515     45514     45516
     45518     45517     45519     45521     45520     45522     45524     45523     45525
     45527     45526     45528     45530     45529     45531     45533     45532     45534
     45536     45535     45537     45539     45538     45540     45542     45541     45543
     45545     45544     45546     45548     45547     45549     45551     45550     45552
     45554     45553     45555     45557     45556     45558     45560     45559     45561
     45563     45562     45564     45566     45565     45567     45569     45568     45570
     45572     45571     45573     45575     45574     45576     45578     45577     45579
     45581     45580     45582     45584     45583     45585     45587     45586     45588
     45590     45589     45591     45593     45592     45594     45596     45595     45597
     45599     45598     45600     45602     45601     45603     45605     45604     45606
     45608     45607     45609     45611     45610     45612     45614     45613     45615
     45617     45616     45618     45620     45619     45621     45623     45622     45624
     45626     45625     45627     45629     45628     45630     45632     45631     45633
     45635     45634     45636     45638     45637     45639     45641     45640     45642
     45644     45643     45645     45647     45646     45648     45650     45649     45651
     45653     45652     45654     45656     45655     45657     45659     45658     45660
     45662     45661     45663     45665     45664     45666     45668     45667     45669
     45671     45670     45672     45674     45673     45675     45677     45676     45678
     45680     45679     45681     45683     45682     45684     45686     45685     45687
     45689     45688     45690     45692     45691     45693     45695     45694     45696
     45698     45697     45699     45701     45700     45702     45704     45703     45705
     45707     45706     45708     45710     45709     45711     45713     45712     45714
     45716     45715     45717     45719     45718     45720     45722     45721     45723
     45725     45724     45726     45728     45727     45729     45731     45730     45732
     45734     45733     45735     45737     45736     45738     45740     45739     45741
     45743     45742     45744     45746     45745     45747     45749     45748     45750
     45752     45751     45753     45755     45754     45756     45758     45757     45759
     45761     45760     45762     45764     45763     45765     45767     45766     45768
     45770     45769     45771     45773     45772     45774     45776     45775     45777
     45779     45778     45780     45782     45781     45783     45785     45784     45786
     45788     45787     45789     45791     45790     45792     45794     45793     45795
     45797     45796     45798     45800     45799     45801     45803     45802     45804
     45806     45805     45807     45809     45808     45810     45812     45811     45813
     45815     45814     45816     45818     45817     45819     45821     45820     45822
     45824     45823     45825     45827     45826     45828     45830     45829     45831
     45833     45832     45834     45836     45835     45837     45839     45838     45840
     45842     45841     45843     45845     45844     45846     45848     45847     45849
     45851     45850     45852     45854     45853     45855     45857     45856     45858
     45860     45859     45861     45863     45862     45864     45866     45865     45867
     45869     45868     45870     45872     45871     45873     45875     45874     45876
     45878     45877     45879     45881     45880     45882     45884     45883     45885
     45887     45886     45888     45890     45889     45891     45893     45892     45894
     45896     45895     45897     45899     45898     45900     45902     45901     45903
     45905     45904     45906     45908     45907     45909     45911     45910     45912
     45914     45913     45915     45917     45916     45918     45920     45919     45921
     45923     45922     45924     45926     45925     45927     45929     45928     45930
     45932     45931     45933     45935     45934     45936     45938     45937     45939
     45941     45940     45942     45944     45943     45945     45947     45946     45948
     45950     45949     45951     45953     45952     45954     45956     45955     45957
     45959     45958     45960     45962     45961     45963     45965     45964     45966
     45968     45967     45969     45971     45970     45972     45974     45973     45975
     45977     45976     45978     45980     45979     45981     45983     45982     45984
     45986     45985     45987     45989     45988     45990     45992     45991     45993
     45995     45994     45996     45998     45997     45999     46001     46000     46002
     46004     46003     46005     46007     46006     46008     46010     46009     46011
     46013     46012     46014     46016     46015     46017     46019     46018     46020
     46022     46021     46023     46025     46024     46026     46028     46027     46029
     46031     46030     46032     46034     46033     46035     46037     46036     46038
     46040     46039     46041     46043     46042     46044     46046     46045     46047
     46049     46048     46050     46052     46051     46053     46055     46054     46056
     46058     46057     46059     46061     46060     46062     46064     46063     46065
     46067     46066     46068     46070     46069     46071     46073     46072     46074
     46076     46075     46077     46079     46078     46080     46082     46081     46083
     46085     46084     46086     46088     46087     46089     46091     46090     46092
     46094     46093     46095     46097     46096     46098     46100     46099     46101
     46103     46102     46104     46106     46105     46107     46109     46108     46110
     46112     46111     46113     46115     46114     46116     46118     46117     46119
     46121     46120     46122     46124     46123     46125     46127     46126     46128
     46130     46129     46131     46133     46132     46134     46136     46135     46137
     46139     46138     46140     46142     46141     46143     46145     46144     46146
     46148     46147     46149     46151     46150     46152     46154     46153     46155
     46157     46156     46158     46160     46159     46161     46163     46162     46164
     46166     46165     46167     46169     46168     46170     46172     46171     46173
     46175     46174     46176     46178     46177     46179     46181     46180     46182
     46184     46183     46185     46187     46186     46188     46190     46189     46191
     46193     46192     46194     46196     46195     46197     46199     46198     46200
     46202     46201     46203     46205     46204     46206     46208     46207     46209
     46211     46210     46212     46214     46213     46215     46217     46216     46218
     46220     46219     46221     46223     46222     46224     46226     46225     46227
     46229     46228     46230     46232     46231     46233     46235     46234     46236
     46238     46237     46239     46241     46240     46242     46244     46243     46245
     46247     46246     46248     46250     46249     46251     46253     46252     46254
     46256     46255     46257     46259     46258     46260     46262     46261     46263
     46265     46264     46266     46268     46267     46269     46271     46270     46272
     46274     46273     46275     46277     46276     46278     46280     46279     46281
     46283     46282     46284     46286     46285     46287     46289     46288     46290
     46292     46291     46293     46295     46294     46296     46298     46297     46299
     46301     46300     46302     46304     46303     46305     46307     46306     46308
     46310     46309     46311     46313     46312     46314     46316     46315     46317
     46319     46318     46320     46322     46321     46323     46325     46324     46326
     46328     46327     46329     46331     46330     46332     46334     46333     46335
     46337     46336     46338     46340     46339     46341     46343     46342     46344
     46346     46345     46347     46349     46348     46350     46352     46351     46353
     46355     46354     46356     46358     46357     46359     46361     46360     46362
     46364     46363     46365     46367     46366     46368     46370     46369     46371
     46373     46372     46374     46376     46375     46377     46379     46378     46380
     46382     46381     46383     46385     46384     46386     46388     46387     46389
     46391     46390     46392     46394     46393     46395     46397     46396     46398
     46400     46399     46401     46403     46402     46404     46406     46405     46407
     46409     46408     46410     46412     46411     46413     46415     46414     46416
     46418     46417     46419     46421     46420     46422     46424     46423     46425
     46427     46426     46428     46430     46429     46431     46433     46432     46434
     46436     46435     46437     46439     46438     46440     46442     46441     46443
     46445     46444     46446     46448     46447     46449     46451     46450     46452
     46454     46453     46455     46457     46456     46458     46460     46459     46461
     46463     46462     46464     46466     46465     46467     46469     46468     46470
     46472     46471     46473     46475     46474     46476     46478     46477     46479
     46481     46480     46482     46484     46483     46485     46487     46486     46488
     46490     46489     46491     46493     46492     46494     46496     46495     46497
     46499     46498     46500     46502     46501     46503     46505     46504     46506
     46508     46507     46509     46511     46510     46512     46514     46513     46515
     46517     46516     46518     46520     46519     46521     46523     46522     46524
     46526     46525     46527     46529     46528     46530     46532     46531     46533
     46535     46534     46536     46538     46537     46539     46541     46540     46542
     46544     46543     46545     46547     46546     46548     46550     46549     46551
     46553     46552     46554     46556     46555     46557     46559     46558     46560
     46562     46561     46563     46565     46564     46566     46568     46567     46569
     46571     46570     46572     46574     46573     46575     46577     46576     46578
     46580     46579     46581     46583     46582     46584     46586     46585     46587
     46589     46588     46590     46592     46591     46593     46595     46594     46596
     46598     46597     46599     46601     46600     46602     46604     46603     46605
     46607     46606     46608     46610     46609     46611     46613     46612     46614
     46616     46615     46617     46619     46618     46620     46622     46621     46623
     46625     46624     46626     46628     46627     46629     46631     46630     46632
     46634     46633     46635     46637     46636     46638     46640     46639     46641
     46643     46642     46644     46646     46645     46647     46649     46648     46650
     46652     46651     46653     46655     46654     46656     46658     46657     46659
     46661     46660     46662     46664     46663     46665     46667     46666     46668
     46670     46669     46671     46673     46672     46674     46676     46675     46677
     46679     46678     46680     46682     46681     46683     46685     46684     46686
     46688     46687     46689     46691     46690     46692     46694     46693     46695
     46697     46696     46698     46700     46699     46701     46703     46702     46704
     46706     46705     46707     46709     46708     46710     46712     46711     46713
     46715     46714     46716     46718     46717     46719     46721     46720     46722
     46724     46723     46725     46727     46726     46728     46730     46729     46731
     46733     46732     46734     46736     46735     46737     46739     46738     46740
     46742     46741     46743     46745     46744     46746     46748     46747     46749
     46751     46750     46752     46754     46753     46755     46757     46756     46758
     46760     46759     46761     46763     46762     46764     46766     46765     46767
     46769     46768     46770     46772     46771     46773     46775     46774     46776
     46778     46777     46779     46781     46780     46782     46784     46783     46785
     46787     46786     46788     46790     46789     46791     46793     46792     46794
     46796     46795     46797     46799     46798     46800     46802     46801     46803
     46805     46804     46806     46808     46807     46809     46811     46810     46812
     46814     46813     46815     46817     46816     46818     46820     46819     46821
     46823     46822     46824     46826     46825     46827     46829     46828     46830
     46832     46831     46833     46835     46834     46836     46838     46837     46839
     46841     46840     46842     46844     46843     46845     46847     46846     46848
     46850     46849     46851     46853     46852     46854     46856     46855     46857
     46859     46858     46860     46862     46861     46863     46865     46864     46866
     46868     46867     46869     46871     46870     46872     46874     46873     46875
     46877     46876     46878     46880     46879     46881     46883     46882     46884
     46886     46885     46887     46889     46888     46890     46892     46891     46893
     46895     46894     46896     46898     46897     46899     46901     46900     46902
     46904     46903     46905     46907     46906     46908     46910     46909     46911
     46913     46912     46914     46916     46915     46917     46919     46918     46920
     46922     46921     46923     46925     46924     46926     46928     46927     46929
     46931     46930     46932     46934     46933     46935     46937     46936     46938
     46940     46939     46941     46943     46942     46944     46946     46945     46947
     46949     46948     46950     46952     46951     46953     46955     46954     46956
     46958     46957     46959     46961     46960     46962     46964     46963     46965
     46967     46966     46968     46970     46969     46971     46973     46972     46974
     46976     46975     46977     46979     46978     46980     46982     46981     46983
     46985     46984     46986     46988     46987     46989     46991     46990     46992
     46994     46993     46995     46997     46996     46998     47000     46999     47001
     47003     47002     47004     47006     47005     47007     47009     47008     47010
     47012     47011     47013     47015     47014     47016     47018     47017     47019
     47021     47020     47022     47024     47023     47025     47027     47026     47028
     47030     47029     47031     47033     47032     47034     47036     47035     47037
     47039     47038     47040     47042     47041     47043     47045     47044     47046
     47048     47047     47049     47051     47050     47052     47054     47053     47055
     47057     47056     47058     47060     47059     47061     47063     47062     47064
     47066     47065     47067     47069     47068     47070     47072     47071     47073
     47075     47074     47076     47078     47077     47079     47081     47080     47082
     47084     47083     47085     47087     47086     47088     47090     47089     47091
     47093     47092     47094     47096     47095     47097     47099     47098     47100
     47102     47101     47103     47105     47104     47106     47108     47107     47109
     47111     47110     47112     47114     47113     47115     47117     47116     47118
     47120     47119     47121     47123     47122     47124     47126     47125     47127
     47129     47128     47130     47132     47131     47133     47135     47134     47136
     47138     47137     47139     47141     47140     47142     47144     47143     47145
     47147     47146     47148     47150     47149     47151     47153     47152     47154
     47156     47155     47157     47159     47158     47160     47162     47161     47163
     47165     47164     47166     47168     47167     47169     47171     47170     47172
     47174     47173     47175     47177     47176     47178     47180     47179     47181
     47183     47182     47184     47186     47185     47187     47189     47188     47190
     47192     47191     47193     47195     47194     47196     47198     47197     47199
     47201     47200     47202     47204     47203     47205     47207     47206     47208
     47210     47209     47211     47213     47212     47214     47216     47215     47217
     47219     47218     47220     47222     47221     47223     47225     47224     47226
     47228     47227     47229     47231     47230     47232     47234     47233     47235
     47237     47236     47238     47240     47239     47241     47243     47242     47244
     47246     47245     47247     47249     47248     47250     47252     47251     47253
     47255     47254     47256     47258     47257     47259     47261     47260     47262
     47264     47263     47265     47267     47266     47268     47270     47269     47271
     47273     47272     47274     47276     47275     47277     47279     47278     47280
     47282     47281     47283     47285     47284     47286     47288     47287     47289
     47291     47290     47292     47294     47293     47295     47297     47296     47298
     47300     47299     47301     47303     47302     47304     47306     47305     47307
     47309     47308     47310     47312     47311     47313     47315     47314     47316
     47318     47317     47319     47321     47320     47322     47324     47323     47325
     47327     47326     47328     47330     47329     47331     47333     47332     47334
     47336     47335     47337     47339     47338     47340     47342     47341     47343
     47345     47344     47346     47348     47347     47349     47351     47350     47352
     47354     47353     47355     47357     47356     47358     47360     47359     47361
     47363     47362     47364     47366     47365     47367     47369     47368     47370
     47372     47371     47373     47375     47374     47376     47378     47377     47379
     47381     47380     47382     47384     47383     47385     47387     47386     47388
     47390     47389     47391     47393     47392     47394     47396     47395     47397
     47399     47398     47400     47402     47401     47403     47405     47404     47406
     47408     47407     47409     47411     47410     47412     47414     47413     47415
     47417     47416     47418     47420     47419     47421     47423     47422     47424
     47426     47425     47427     47429     47428     47430     47432     47431     47433
     47435     47434     47436     47438     47437     47439     47441     47440     47442
     47444     47443     47445     47447     47446     47448     47450     47449     47451
     47453     47452     47454     47456     47455     47457     47459     47458     47460
     47462     47461     47463     47465     47464     47466     47468     47467     47469
     47471     47470     47472     47474     47473     47475     47477     47476     47478
     47480     47479     47481     47483     47482     47484     47486     47485     47487
     47489     47488     47490     47492     47491     47493     47495     47494     47496
     47498     47497     47499     47501     47500     47502     47504     47503     47505
     47507     47506     47508     47510     47509     47511     47513     47512     47514
     47516     47515     47517     47519     47518     47520     47522     47521     47523
     47525     47524     47526     47528     47527     47529     47531     47530     47532
     47534     47533     47535     47537     47536     47538     47540     47539     47541
     47543     47542     47544     47546     47545     47547     47549     47548     47550
     47552     47551     47553     47555     47554     47556     47558     47557     47559
     47561     47560     47562     47564     47563     47565     47567     47566     47568
     47570     47569     47571     47573     47572     47574     47576     47575     47577
     47579     47578     47580     47582     47581     47583     47585     47584     47586
     47588     47587     47589     47591     47590     47592     47594     47593     47595
     47597     47596     47598     47600     47599     47601     47603     47602     47604
     47606     47605     47607     47609     47608     47610     47612     47611     47613
     47615     47614     47616     47618     47617     47619     47621     47620     47622
     47624     47623     47625     47627     47626     47628     47630     47629     47631
     47633     47632     47634     47636     47635     47637     47639     47638     47640
     47642     47641     47643     47645     47644     47646     47648     47647     47649
     47651     47650     47652     47654     47653     47655     47657     47656     47658
     47660     47659     47661     47663     47662     47664     47666     47665     47667
     47669     47668     47670     47672     47671     47673     47675     47674     47676
     47678     47677     47679     47681     47680     47682     47684     47683     47685
     47687     47686     47688     47690     47689     47691     47693     47692     47694
     47696     47695     47697     47699     47698     47700     47702     47701     47703
     47705     47704     47706     47708     47707     47709     47711     47710     47712
     47714     47713     47715     47717     47716     47718     47720     47719     47721
     47723     47722     47724     47726     47725     47727     47729     47728     47730
     47732     47731     47733     47735     47734     47736     47738     47737     47739
     47741     47740     47742     47744     47743     47745     47747     47746     47748
     47750     47749     47751     47753     47752     47754     47756     47755     47757
     47759     47758     47760     47762     47761     47763     47765     47764     47766
     47768     47767     47769     47771     47770     47772     47774     47773     47775
     47777     47776     47778     47780     47779     47781     47783     47782     47784
     47786     47785     47787     47789     47788     47790     47792     47791     47793
     47795     47794     47796     47798     47797     47799     47801     47800     47802
     47804     47803     47805     47807     47806     47808     47810     47809     47811
     47813     47812     47814     47816     47815     47817     47819     47818     47820
     47822     47821     47823     47825     47824     47826     47828     47827     47829
     47831     47830     47832     47834     47833     47835     47837     47836     47838
     47840     47839     47841     47843     47842     47844     47846     47845     47847
     47849     47848     47850     47852     47851     47853     47855     47854     47856
     47858     47857     47859     47861     47860     47862     47864     47863     47865
     47867     47866     47868     47870     47869     47871     47873     47872     47874
     47876     47875     47877     47879     47878     47880     47882     47881     47883
     47885     47884     47886     47888     47887     47889     47891     47890     47892
     47894     47893     47895     47897     47896     47898     47900     47899     47901
     47903     47902     47904     47906     47905     47907     47909     47908     47910
     47912     47911     47913     47915     47914     47916     47918     47917     47919
     47921     47920     47922     47924     47923     47925     47927     47926     47928
     47930     47929     47931     47933     47932     47934     47936     47935     47937
     47939     47938     47940     47942     47941     47943     47945     47944     47946
     47948     47947     47949     47951     47950     47952     47954     47953     47955
     47957     47956     47958     47960     47959     47961     47963     47962     47964
     47966     47965     47967     47969     47968     47970     47972     47971     47973
     47975     47974     47976     47978     47977     47979     47981     47980     47982
     47984     47983     47985     47987     47986     47988     47990     47989     47991
     47993     47992     47994     47996     47995     47997     47999     47998     48000
     48002     48001     48003     48005     48004     48006     48008     48007     48009
     48011     48010     48012     48014     48013     48015     48017     48016     48018
     48020     48019     48021     48023     48022     48024     48026     48025     48027
     48029     48028     48030     48032     48031     48033     48035     48034     48036
     48038     48037     48039     48041     48040     48042     48044     48043     48045
     48047     48046     48048     48050     48049     48051     48053     48052     48054
     48056     48055     48057     48059     48058     48060     48062     48061     48063
     48065     48064     48066     48068     48067     48069     48071     48070     48072
     48074     48073     48075     48077     48076     48078     48080     48079     48081
     48083     48082     48084     48086     48085     48087     48089     48088     48090
     48092     48091     48093     48095     48094     48096     48098     48097     48099
     48101     48100     48102     48104     48103     48105     48107     48106     48108
     48110     48109     48111     48113     48112     48114     48116     48115     48117
     48119     48118     48120     48122     48121     48123     48125     48124     48126
     48128     48127     48129     48131     48130     48132     48134     48133     48135
     48137     48136     48138     48140     48139     48141     48143     48142     48144
     48146     48145     48147     48149     48148     48150     48152     48151     48153
     48155     48154     48156     48158     48157     48159     48161     48160     48162
     48164     48163     48165     48167     48166     48168     48170     48169     48171
     48173     48172     48174     48176     48175     48177     48179     48178     48180
     48182     48181     48183     48185     48184     48186     48188     48187     48189
     48191     48190     48192     48194     48193     48195     48197     48196     48198
     48200     48199     48201     48203     48202     48204     48206     48205     48207
     48209     48208     48210     48212     48211     48213     48215     48214     48216
     48218     48217     48219     48221     48220     48222     48224     48223     48225
     48227     48226     48228     48230     48229     48231     48233     48232     48234
     48236     48235     48237     48239     48238     48240     48242     48241     48243
     48245     48244     48246     48248     48247     48249     48251     48250     48252
     48254     48253     48255     48257     48256     48258     48260     48259     48261
     48263     48262     48264     48266     48265     48267     48269     48268     48270
     48272     48271     48273     48275     48274     48276     48278     48277     48279
     48281     48280     48282     48284     48283     48285     48287     48286     48288
     48290     48289     48291     48293     48292     48294     48296     48295     48297
     48299     48298     48300     48302     48301     48303     48305     48304     48306
     48308     48307     48309     48311     48310     48312     48314     48313     48315
     48317     48316     48318     48320     48319     48321     48323     48322     48324
     48326     48325     48327     48329     48328     48330     48332     48331     48333
     48335     48334     48336     48338     48337     48339     48341     48340     48342
     48344     48343     48345     48347     48346     48348     48350     48349     48351
     48353     48352     48354     48356     48355     48357     48359     48358     48360
     48362     48361     48363     48365     48364     48366     48368     48367     48369
     48371     48370     48372     48374     48373     48375     48377     48376     48378
     48380     48379     48381     48383     48382     48384     48386     48385     48387
     48389     48388     48390     48392     48391     48393     48395     48394     48396
     48398     48397     48399     48401     48400     48402     48404     48403     48405
     48407     48406     48408     48410     48409     48411     48413     48412     48414
     48416     48415     48417     48419     48418     48420     48422     48421     48423
     48425     48424     48426     48428     48427     48429     48431     48430     48432
     48434     48433     48435     48437     48436     48438     48440     48439     48441
     48443     48442     48444     48446     48445     48447     48449     48448     48450
     48452     48451     48453     48455     48454     48456     48458     48457     48459
     48461     48460     48462     48464     48463     48465     48467     48466     48468
     48470     48469     48471     48473     48472     48474     48476     48475     48477
     48479     48478     48480     48482     48481     48483     48485     48484     48486
     48488     48487     48489     48491     48490     48492     48494     48493     48495
     48497     48496     48498     48500     48499     48501     48503     48502     48504
     48506     48505     48507     48509     48508     48510     48512     48511     48513
     48515     48514     48516     48518     48517     48519     48521     48520     48522
     48524     48523     48525     48527     48526     48528     48530     48529     48531
     48533     48532     48534     48536     48535     48537     48539     48538     48540
     48542     48541     48543     48545     48544     48546     48548     48547     48549
     48551     48550     48552     48554     48553     48555     48557     48556     48558
     48560     48559     48561     48563     48562     48564     48566     48565     48567
     48569     48568     48570     48572     48571     48573     48575     48574     48576
     48578     48577     48579     48581     48580     48582     48584     48583     48585
     48587     48586     48588     48590     48589     48591     48593     48592     48594
     48596     48595     48597     48599     48598     48600     48602     48601     48603
     48605     48604     48606     48608     48607     48609     48611     48610     48612
     48614     48613     48615     48617     48616     48618     48620     48619     48621
     48623     48622     48624     48626     48625     48627     48629     48628     48630
     48632     48631     48633     48635     48634     48636     48638     48637     48639
     48641     48640     48642     48644     48643     48645     48647     48646     48648
     48650     48649     48651     48653     48652     48654     48656     48655     48657
     48659     48658     48660     48662     48661     48663     48665     48664     48666
     48668     48667     48669     48671     48670     48672     48674     48673     48675
     48677     48676     48678     48680     48679     48681     48683     48682     48684
     48686     48685     48687     48689     48688     48690     48692     48691     48693
     48695     48694     48696     48698     48697     48699     48701     48700     48702
     48704     48703     48705     48707     48706     48708     48710     48709     48711
     48713     48712     48714     48716     48715     48717     48719     48718     48720
     48722     48721     48723     48725     48724     48726     48728     48727     48729
     48731     48730     48732     48734     48733     48735     48737     48736     48738
     48740     48739     48741     48743     48742     48744     48746     48745     48747
     48749     48748     48750     48752     48751     48753     48755     48754     48756
     48758     48757     48759     48761     48760     48762     48764     48763     48765
     48767     48766     48768     48770     48769     48771     48773     48772     48774
     48776     48775     48777     48779     48778     48780     48782     48781     48783
     48785     48784     48786     48788     48787     48789     48791     48790     48792
     48794     48793     48795     48797     48796     48798     48800     48799     48801
     48803     48802     48804     48806     48805     48807     48809     48808     48810
     48812     48811     48813     48815     48814     48816     48818     48817     48819
     48821     48820     48822     48824     48823     48825     48827     48826     48828
     48830     48829     48831     48833     48832     48834     48836     48835     48837
     48839     48838     48840     48842     48841     48843     48845     48844     48846
     48848     48847     48849     48851     48850     48852     48854     48853     48855
     48857     48856     48858     48860     48859     48861     48863     48862     48864
     48866     48865     48867     48869     48868     48870     48872     48871     48873
     48875     48874     48876     48878     48877     48879     48881     48880     48882
     48884     48883     48885     48887     48886     48888     48890     48889     48891
     48893     48892     48894     48896     48895     48897     48899     48898     48900
     48902     48901     48903     48905     48904     48906     48908     48907     48909
     48911     48910     48912     48914     48913     48915     48917     48916     48918
     48920     48919     48921     48923     48922     48924     48926     48925     48927
     48929     48928     48930     48932     48931     48933     48935     48934     48936
     48938     48937     48939     48941     48940     48942     48944     48943     48945
     48947     48946     48948     48950     48949     48951     48953     48952     48954
     48956     48955     48957     48959     48958     48960     48962     48961     48963
     48965     48964     48966     48968     48967     48969     48971     48970     48972
     48974     48973     48975     48977     48976     48978     48980     48979     48981
     48983     48982     48984     48986     48985     48987     48989     48988     48990
     48992     48991     48993     48995     48994     48996     48998     48997     48999
     49001     49000     49002     49004     49003     49005     49007     49006     49008
     49010     49009     49011     49013     49012     49014     49016     49015     49017
     49019     49018     49020     49022     49021     49023     49025     49024     49026
     49028     49027     49029     49031     49030     49032     49034     49033     49035
     49037     49036     49038     49040     49039     49041     49043     49042     49044
     49046     49045     49047     49049     49048     49050     49052     49051     49053
     49055     49054     49056     49058     49057     49059     49061     49060     49062
     49064     49063     49065     49067     49066     49068     49070     49069     49071
     49073     49072     49074     49076     49075     49077     49079     49078     49080
     49082     49081     49083     49085     49084     49086     49088     49087     49089
     49091     49090     49092     49094     49093     49095     49097     49096     49098
     49100     49099     49101     49103     49102     49104     49106     49105     49107
     49109     49108     49110     49112     49111     49113     49115     49114     49116
     49118     49117     49119     49121     49120     49122     49124     49123     49125
     49127     49126     49128     49130     49129     49131     49133     49132     49134
     49136     49135     49137     49139     49138     49140     49142     49141     49143
     49145     49144     49146     49148     49147     49149     49151     49150     49152
     49154     49153     49155     49157     49156     49158     49160     49159     49161
     49163     49162     49164     49166     49165     49167     49169     49168     49170
     49172     49171     49173     49175     49174     49176     49178     49177     49179
     49181     49180     49182     49184     49183     49185     49187     49186     49188
     49190     49189     49191     49193     49192     49194     49196     49195     49197
     49199     49198     49200     49202     49201     49203     49205     49204     49206
     49208     49207     49209     49211     49210     49212     49214     49213     49215
     49217     49216     49218     49220     49219     49221     49223     49222     49224
     49226     49225     49227     49229     49228     49230     49232     49231     49233
     49235     49234     49236     49238     49237     49239     49241     49240     49242
     49244     49243     49245     49247     49246     49248     49250     49249     49251
     49253     49252     49254     49256     49255     49257     49259     49258     49260
     49262     49261     49263     49265     49264     49266     49268     49267     49269
     49271     49270     49272     49274     49273     49275     49277     49276     49278
     49280     49279     49281     49283     49282     49284     49286     49285     49287
     49289     49288     49290     49292     49291     49293     49295     49294     49296
     49298     49297     49299     49301     49300     49302     49304     49303     49305
     49307     49306     49308     49310     49309     49311     49313     49312     49314
     49316     49315     49317     49319     49318     49320     49322     49321     49323
     49325     49324     49326     49328     49327     49329     49331     49330     49332
     49334     49333     49335     49337     49336     49338     49340     49339     49341
     49343     49342     49344     49346     49345     49347     49349     49348     49350
     49352     49351     49353     49355     49354     49356     49358     49357     49359
     49361     49360     49362     49364     49363     49365     49367     49366     49368
     49370     49369     49371     49373     49372     49374     49376     49375     49377
     49379     49378     49380     49382     49381     49383     49385     49384     49386
     49388     49387     49389     49391     49390     49392     49394     49393     49395
     49397     49396     49398     49400     49399     49401     49403     49402     49404
     49406     49405     49407     49409     49408     49410     49412     49411     49413
     49415     49414     49416     49418     49417     49419     49421     49420     49422
     49424     49423     49425     49427     49426     49428     49430     49429     49431
     49433     49432     49434     49436     49435     49437     49439     49438     49440
     49442     49441     49443     49445     49444     49446     49448     49447     49449
     49451     49450     49452     49454     49453     49455     49457     49456     49458
     49460     49459     49461     49463     49462     49464     49466     49465     49467
     49469     49468     49470     49472     49471     49473     49475     49474     49476
     49478     49477     49479     49481     49480     49482     49484     49483     49485
     49487     49486     49488     49490     49489     49491     49493     49492     49494
     49496     49495     49497     49499     49498     49500     49502     49501     49503
     49505     49504     49506     49508     49507     49509     49511     49510     49512
     49514     49513     49515     49517     49516     49518     49520     49519     49521
     49523     49522     49524     49526     49525     49527     49529     49528     49530
     49532     49531     49533     49535     49534     49536     49538     49537     49539
     49541     49540     49542     49544     49543     49545     49547     49546     49548
     49550     49549     49551     49553     49552     49554     49556     49555     49557
     49559     49558     49560     49562     49561     49563     49565     49564     49566
     49568     49567     49569     49571     49570     49572     49574     49573     49575
     49577     49576     49578     49580     49579     49581     49583     49582     49584
     49586     49585     49587     49589     49588     49590     49592     49591     49593
     49595     49594     49596     49598     49597     49599     49601     49600     49602
     49604     49603     49605     49607     49606     49608     49610     49609     49611
     49613     49612     49614     49616     49615     49617     49619     49618     49620
     49622     49621     49623     49625     49624     49626     49628     49627     49629
     49631     49630     49632     49634     49633     49635     49637     49636     49638
     49640     49639     49641     49643     49642     49644     49646     49645     49647
     49649     49648     49650     49652     49651     49653     49655     49654     49656
     49658     49657     49659     49661     49660     49662     49664     49663     49665
     49667     49666     49668     49670     49669     49671     49673     49672     49674
     49676     49675     49677     49679     49678     49680     49682     49681     49683
     49685     49684     49686     49688     49687     49689     49691     49690     49692
     49694     49693     49695     49697     49696     49698     49700     49699     49701
     49703     49702     49704     49706     49705     49707     49709     49708     49710
     49712     49711     49713     49715     49714     49716     49718     49717     49719
     49721     49720     49722     49724     49723     49725     49727     49726     49728
     49730     49729     49731     49733     49732     49734     49736     49735     49737
     49739     49738     49740     49742     49741     49743     49745     49744     49746
     49748     49747     49749     49751     49750     49752     49754     49753     49755
     49757     49756     49758     49760     49759     49761     49763     49762     49764
     49766     49765     49767     49769     49768     49770     49772     49771     49773
     49775     49774     49776     49778     49777     49779     49781     49780     49782
     49784     49783     49785     49787     49786     49788     49790     49789     49791
     49793     49792     49794     49796     49795     49797     49799     49798     49800
     49802     49801     49803     49805     49804     49806     49808     49807     49809
     49811     49810     49812     49814     49813     49815     49817     49816     49818
     49820     49819     49821     49823     49822     49824     49826     49825     49827
     49829     49828     49830     49832     49831     49833     49835     49834     49836
     49838     49837     49839     49841     49840     49842     49844     49843     49845
     49847     49846     49848     49850     49849     49851     49853     49852     49854
     49856     49855     49857     49859     49858     49860     49862     49861     49863
     49865     49864     49866     49868     49867     49869     49871     49870     49872
     49874     49873     49875     49877     49876     49878     49880     49879     49881
     49883     49882     49884     49886     49885     49887     49889     49888     49890
     49892     49891     49893     49895     49894     49896     49898     49897     49899
     49901     49900     49902     49904     49903     49905     49907     49906     49908
     49910     49909     49911     49913     49912     49914     49916     49915     49917
     49919     49918     49920     49922     49921     49923     49925     49924     49926
     49928     49927     49929     49931     49930     49932     49934     49933     49935
     49937     49936     49938     49940     49939     49941     49943     49942     49944
     49946     49945     49947     49949     49948     49950     49952     49951     49953
     49955     49954     49956     49958     49957     49959     49961     49960     49962
     49964     49963     49965     49967     49966     49968     49970     49969     49971
     49973     49972     49974     49976     49975     49977     49979     49978     49980
     49982     49981     49983     49985     49984     49986     49988     49987     49989
     49991     49990     49992     49994     49993     49995     49997     49996     49998
     50000     49999     50001     50003     50002     50004     50006     50005     50007
     50009     50008     50010     50012     50011     50013     50015     50014     50016
     50018     50017     50019     50021     50020     50022     50024     50023     50025
     50027     50026     50028     50030     50029     50031     50033     50032     50034
     50036     50035     50037     50039     50038     50040     50042     50041     50043
     50045     50044     50046     50048     50047     50049     50051     50050     50052
     50054     50053     50055     50057     50056     50058     50060     50059     50061
     50063     50062     50064     50066     50065     50067     50069     50068     50070
     50072     50071     50073     50075     50074     50076     50078     50077     50079
     50081     50080     50082     50084     50083     50085     50087     50086     50088
     50090     50089     50091     50093     50092     50094     50096     50095     50097
     50099     50098     50100     50102     50101     50103     50105     50104     50106
     50108     50107     50109     50111     50110     50112     50114     50113     50115
     50117     50116     50118     50120     50119     50121     50123     50122     50124
     50126     50125     50127     50129     50128     50130     50132     50131     50133
     50135     50134     50136     50138     50137     50139     50141     50140     50142
     50144     50143     50145     50147     50146     50148     50150     50149     50151
     50153     50152     50154     50156     50155     50157     50159     50158     50160
     50162     50161     50163     50165     50164     50166     50168     50167     50169
     50171     50170     50172     50174     50173     50175     50177     50176     50178
     50180     50179     50181     50183     50182     50184     50186     50185     50187
     50189     50188     50190     50192     50191     50193     50195     50194     50196
     50198     50197     50199     50201     50200     50202     50204     50203     50205
     50207     50206     50208     50210     50209     50211     50213     50212     50214
     50216     50215     50217     50219     50218     50220     50222     50221     50223
     50225     50224     50226     50228     50227     50229     50231     50230     50232
     50234     50233     50235     50237     50236     50238     50240     50239     50241
     50243     50242     50244     50246     50245     50247     50249     50248     50250
     50252     50251     50253     50255     50254     50256     50258     50257     50259
     50261     50260     50262     50264     50263     50265     50267     50266     50268
     50270     50269     50271     50273     50272     50274     50276     50275     50277
     50279     50278     50280     50282     50281     50283     50285     50284     50286
     50288     50287     50289     50291     50290     50292     50294     50293     50295
     50297     50296     50298     50300     50299     50301     50303     50302     50304
     50306     50305     50307     50309     50308     50310     50312     50311     50313
     50315     50314     50316     50318     50317     50319     50321     50320     50322
     50324     50323     50325     50327     50326     50328     50330     50329     50331
     50333     50332     50334     50336     50335     50337     50339     50338     50340
     50342     50341     50343     50345     50344     50346     50348     50347     50349
     50351     50350     50352     50354     50353     50355     50357     50356     50358
     50360     50359     50361     50363     50362     50364     50366     50365     50367
     50369     50368     50370     50372     50371     50373     50375     50374     50376
     50378     50377     50379     50381     50380     50382     50384     50383     50385
     50387     50386     50388     50390     50389     50391     50393     50392     50394
     50396     50395     50397     50399     50398     50400     50402     50401     50403
     50405     50404     50406     50408     50407     50409     50411     50410     50412
     50414     50413     50415     50417     50416     50418     50420     50419     50421
     50423     50422     50424     50426     50425     50427     50429     50428     50430
     50432     50431     50433     50435     50434     50436     50438     50437     50439
     50441     50440     50442     50444     50443     50445     50447     50446     50448
     50450     50449     50451     50453     50452     50454     50456     50455     50457
     50459     50458     50460     50462     50461     50463     50465     50464     50466
     50468     50467     50469     50471     50470     50472     50474     50473     50475
     50477     50476     50478     50480     50479     50481     50483     50482     50484
     50486     50485     50487     50489     50488     50490     50492     50491     50493
     50495     50494     50496     50498     50497     50499     50501     50500     50502
     50504     50503     50505     50507     50506     50508     50510     50509     50511
     50513     50512     50514     50516     50515     50517     50519     50518     50520
     50522     50521     50523     50525     50524     50526     50528     50527     50529
     50531     50530     50532     50534     50533     50535     50537     50536     50538
     50540     50539     50541     50543     50542     50544     50546     50545     50547
     50549     50548     50550     50552     50551     50553     50555     50554     50556
     50558     50557     50559     50561     50560     50562     50564     50563     50565
     50567     50566     50568     50570     50569     50571     50573     50572     50574
     50576     50575     50577     50579     50578     50580     50582     50581     50583
     50585     50584     50586     50588     50587     50589     50591     50590     50592
     50594     50593     50595     50597     50596     50598     50600     50599     50601
     50603     50602     50604     50606     50605     50607     50609     50608     50610
     50612     50611     50613     50615     50614     50616     50618     50617     50619
     50621     50620     50622     50624     50623     50625     50627     50626     50628
     50630     50629     50631     50633     50632     50634     50636     50635     50637
     50639     50638     50640     50642     50641     50643     50645     50644     50646
     50648     50647     50649     50651     50650     50652     50654     50653     50655
     50657     50656     50658     50660     50659     50661     50663     50662     50664
     50666     50665     50667     50669     50668     50670     50672     50671     50673
     50675     50674     50676     50678     50677     50679     50681     50680     50682
     50684     50683     50685     50687     50686     50688     50690     50689     50691
     50693     50692     50694     50696     50695     50697     50699     50698     50700
     50702     50701     50703     50705     50704     50706     50708     50707     50709
     50711     50710     50712     50714     50713     50715     50717     50716     50718
     50720     50719     50721     50723     50722     50724     50726     50725     50727
     50729     50728     50730     50732     50731     50733     50735     50734     50736
     50738     50737     50739     50741     50740     50742     50744     50743     50745
     50747     50746     50748     50750     50749     50751     50753     50752     50754
     50756     50755     50757     50759     50758     50760     50762     50761     50763
     50765     50764     50766     50768     50767     50769     50771     50770     50772
     50774     50773     50775     50777     50776     50778     50780     50779     50781
     50783     50782     50784     50786     50785     50787     50789     50788     50790
     50792     50791     50793     50795     50794     50796     50798     50797     50799
     50801     50800     50802     50804     50803     50805     50807     50806     50808
     50810     50809     50811     50813     50812     50814     50816     50815     50817
     50819     50818     50820     50822     50821     50823     50825     50824     50826
     50828     50827     50829     50831     50830     50832     50834     50833     50835
     50837     50836     50838     50840     50839     50841     50843     50842     50844
     50846     50845     50847     50849     50848     50850     50852     50851     50853
     50855     50854     50856     50858     50857     50859     50861     50860     50862
     50864     50863     50865     50867     50866     50868     50870     50869     50871
     50873     50872     50874     50876     50875     50877     50879     50878     50880
     50882     50881     50883     50885     50884     50886     50888     50887     50889
     50891     50890     50892     50894     50893     50895     50897     50896     50898
     50900     50899     50901     50903     50902     50904     50906     50905     50907
     50909     50908     50910     50912     50911     50913     50915     50914     50916
     50918     50917     50919     50921     50920     50922     50924     50923     50925
     50927     50926     50928     50930     50929     50931     50933     50932     50934
     50936     50935     50937     50939     50938     50940     50942     50941     50943
     50945     50944     50946     50948     50947     50949     50951     50950     50952
     50954     50953     50955     50957     50956     50958     50960     50959     50961
     50963     50962     50964     50966     50965     50967     50969     50968     50970
     50972     50971     50973     50975     50974     50976     50978     50977     50979
     50981     50980     50982     50984     50983     50985     50987     50986     50988
     50990     50989     50991     50993     50992     50994     50996     50995     50997
     50999     50998     51000     51002     51001     51003     51005     51004     51006
     51008     51007     51009     51011     51010     51012     51014     51013     51015
     51017     51016     51018     51020     51019     51021     51023     51022     51024
     51026     51025     51027     51029     51028     51030     51032     51031     51033
     51035     51034     51036     51038     51037     51039     51041     51040     51042
     51044     51043     51045     51047     51046     51048     51050     51049     51051
     51053     51052     51054     51056     51055     51057     51059     51058     51060
     51062     51061     51063     51065     51064     51066     51068     51067     51069
     51071     51070     51072     51074     51073     51075     51077     51076     51078
     51080     51079     51081     51083     51082     51084     51086     51085     51087
     51089     51088     51090     51092     51091     51093     51095     51094     51096
     51098     51097     51099     51101     51100     51102     51104     51103     51105
     51107     51106     51108     51110     51109     51111     51113     51112     51114
     51116     51115     51117     51119     51118     51120     51122     51121     51123
     51125     51124     51126     51128     51127     51129     51131     51130     51132
     51134     51133     51135     51137     51136     51138     51140     51139     51141
     51143     51142     51144     51146     51145     51147     51149     51148     51150
     51152     51151     51153     51155     51154     51156     51158     51157     51159
     51161     51160     51162     51164     51163     51165     51167     51166     51168
     51170     51169     51171     51173     51172     51174     51176     51175     51177
     51179     51178     51180     51182     51181     51183     51185     51184     51186
     51188     51187     51189     51191     51190     51192     51194     51193     51195
     51197     51196     51198     51200     51199     51201     51203     51202     51204
     51206     51205     51207     51209     51208     51210     51212     51211     51213
     51215     51214     51216     51218     51217     51219     51221     51220     51222
     51224     51223     51225     51227     51226     51228     51230     51229     51231
     51233     51232     51234     51236     51235     51237     51239     51238     51240
     51242     51241     51243     51245     51244     51246     51248     51247     51249
     51251     51250     51252     51254     51253     51255     51257     51256     51258
     51260     51259     51261     51263     51262     51264     51266     51265     51267
     51269     51268     51270     51272     51271     51273     51275     51274     51276
     51278     51277     51279     51281     51280     51282     51284     51283     51285
     51287     51286     51288     51290     51289     51291     51293     51292     51294
     51296     51295     51297     51299     51298     51300     51302     51301     51303
     51305     51304     51306     51308     51307     51309     51311     51310     51312
     51314     51313     51315     51317     51316     51318     51320     51319     51321
     51323     51322     51324     51326     51325     51327     51329     51328     51330
     51332     51331     51333     51335     51334     51336     51338     51337     51339
     51341     51340     51342     51344     51343     51345     51347     51346     51348
     51350     51349     51351     51353     51352     51354     51356     51355     51357
     51359     51358     51360     51362     51361     51363     51365     51364     51366
     51368     51367     51369     51371     51370     51372     51374     51373     51375
     51377     51376     51378     51380     51379     51381     51383     51382     51384
     51386     51385     51387     51389     51388     51390     51392     51391     51393
     51395     51394     51396     51398     51397     51399     51401     51400     51402
     51404     51403     51405     51407     51406     51408     51410     51409     51411
     51413     51412     51414     51416     51415     51417     51419     51418     51420
     51422     51421     51423     51425     51424     51426     51428     51427     51429
     51431     51430     51432     51434     51433     51435     51437     51436     51438
     51440     51439     51441     51443     51442     51444     51446     51445     51447
     51449     51448     51450     51452     51451     51453     51455     51454     51456
     51458     51457     51459     51461     51460     51462     51464     51463     51465
     51467     51466     51468     51470     51469     51471     51473     51472     51474
     51476     51475     51477     51479     51478     51480     51482     51481     51483
     51485     51484     51486     51488     51487     51489     51491     51490     51492
     51494     51493     51495     51497     51496     51498     51500     51499     51501
     51503     51502     51504     51506     51505     51507     51509     51508     51510
     51512     51511     51513     51515     51514     51516     51518     51517     51519
     51521     51520     51522     51524     51523     51525     51527     51526     51528
     51530     51529     51531     51533     51532     51534     51536     51535     51537
     51539     51538     51540     51542     51541     51543     51545     51544     51546
     51548     51547     51549     51551     51550     51552     51554     51553     51555
     51557     51556     51558     51560     51559     51561     51563     51562     51564
     51566     51565     51567     51569     51568     51570     51572     51571     51573
     51575     51574     51576     51578     51577     51579     51581     51580     51582
     51584     51583     51585     51587     51586     51588     51590     51589     51591
     51593     51592     51594     51596     51595     51597     51599     51598     51600
     51602     51601     51603     51605     51604     51606     51608     51607     51609
     51611     51610     51612     51614     51613     51615     51617     51616     51618
     51620     51619     51621     51623     51622     51624     51626     51625     51627
     51629     51628     51630     51632     51631     51633     51635     51634     51636
     51638     51637     51639     51641     51640     51642     51644     51643     51645
     51647     51646     51648     51650     51649     51651     51653     51652     51654
     51656     51655     51657     51659     51658     51660     51662     51661     51663
     51665     51664     51666     51668     51667     51669     51671     51670     51672
     51674     51673     51675     51677     51676     51678     51680     51679     51681
     51683     51682     51684     51686     51685     51687     51689     51688     51690
     51692     51691     51693     51695     51694     51696     51698     51697     51699
     51701     51700     51702     51704     51703     51705     51707     51706     51708
     51710     51709     51711     51713     51712     51714     51716     51715     51717
     51719     51718     51720     51722     51721     51723     51725     51724     51726
     51728     51727     51729     51731     51730     51732     51734     51733     51735
     51737     51736     51738     51740     51739     51741     51743     51742     51744
     51746     51745     51747     51749     51748     51750     51752     51751     51753
     51755     51754     51756     51758     51757     51759     51761     51760     51762
     51764     51763     51765     51767     51766     51768     51770     51769     51771
     51773     51772     51774     51776     51775     51777     51779     51778     51780
     51782     51781     51783     51785     51784     51786     51788     51787     51789
     51791     51790     51792     51794     51793     51795     51797     51796     51798
     51800     51799     51801     51803     51802     51804     51806     51805     51807
     51809     51808     51810     51812     51811     51813     51815     51814     51816
     51818     51817     51819     51821     51820     51822     51824     51823     51825
     51827     51826     51828     51830     51829     51831     51833     51832     51834
     51836     51835     51837     51839     51838     51840     51842     51841     51843
     51845     51844     51846     51848     51847     51849     51851     51850     51852
     51854     51853     51855     51857     51856     51858     51860     51859     51861
     51863     51862     51864     51866     51865     51867     51869     51868     51870
     51872     51871     51873     51875     51874     51876     51878     51877     51879
     51881     51880     51882     51884     51883     51885     51887     51886     51888
     51890     51889     51891     51893     51892     51894     51896     51895     51897
     51899     51898     51900     51902     51901     51903     51905     51904     51906
     51908     51907     51909     51911     51910     51912     51914     51913     51915
     51917     51916     51918     51920     51919     51921     51923     51922     51924
     51926     51925     51927     51929     51928     51930     51932     51931     51933
     51935     51934     51936     51938     51937     51939     51941     51940     51942
     51944     51943     51945     51947     51946     51948     51950     51949     51951
     51953     51952     51954     51956     51955     51957     51959     51958     51960
     51962     51961     51963     51965     51964     51966     51968     51967     51969
     51971     51970     51972     51974     51973     51975     51977     51976     51978
     51980     51979     51981     51983     51982     51984     51986     51985     51987
     51989     51988     51990     51992     51991     51993     51995     51994     51996
     51998     51997     51999     52001     52000     52002     52004     52003     52005
     52007     52006     52008     52010     52009     52011     52013     52012     52014
     52016     52015     52017     52019     52018     52020     52022     52021     52023
     52025     52024     52026     52028     52027     52029     52031     52030     52032
     52034     52033     52035     52037     52036     52038     52040     52039     52041
     52043     52042     52044     52046     52045     52047     52049     52048     52050
     52052     52051     52053     52055     52054     52056     52058     52057     52059
     52061     52060     52062     52064     52063     52065     52067     52066     52068
     52070     52069     52071     52073     52072     52074     52076     52075     52077
     52079     52078     52080     52082     52081     52083     52085     52084     52086
     52088     52087     52089     52091     52090     52092     52094     52093     52095
     52097     52096     52098     52100     52099     52101     52103     52102     52104
     52106     52105     52107     52109     52108     52110     52112     52111     52113
     52115     52114     52116     52118     52117     52119     52121     52120     52122
     52124     52123     52125     52127     52126     52128     52130     52129     52131
     52133     52132     52134     52136     52135     52137     52139     52138     52140
     52142     52141     52143     52145     52144     52146     52148     52147     52149
     52151     52150     52152     52154     52153     52155     52157     52156     52158
     52160     52159     52161     52163     52162     52164     52166     52165     52167
     52169     52168     52170     52172     52171     52173     52175     52174     52176
     52178     52177     52179     52181     52180     52182     52184     52183     52185
     52187     52186     52188     52190     52189     52191     52193     52192     52194
     52196     52195     52197     52199     52198     52200     52202     52201     52203
     52205     52204     52206     52208     52207     52209     52211     52210     52212
     52214     52213     52215     52217     52216     52218     52220     52219     52221
     52223     52222     52224     52226     52225     52227     52229     52228     52230
     52232     52231     52233     52235     52234     52236     52238     52237     52239
     52241     52240     52242     52244     52243     52245     52247     52246     52248
     52250     52249     52251     52253     52252     52254     52256     52255     52257
     52259     52258     52260     52262     52261     52263     52265     52264     52266
     52268     52267     52269     52271     52270     52272     52274     52273     52275
     52277     52276     52278     52280     52279     52281     52283     52282     52284
     52286     52285     52287     52289     52288     52290     52292     52291     52293
     52295     52294     52296     52298     52297     52299     52301     52300     52302
     52304     52303     52305     52307     52306     52308     52310     52309     52311
     52313     52312     52314     52316     52315     52317     52319     52318     52320
     52322     52321     52323     52325     52324     52326     52328     52327     52329
     52331     52330     52332     52334     52333     52335     52337     52336     52338
     52340     52339     52341     52343     52342     52344     52346     52345     52347
     52349     52348     52350     52352     52351     52353     52355     52354     52356
     52358     52357     52359     52361     52360     52362     52364     52363     52365
     52367     52366     52368     52370     52369     52371     52373     52372     52374
     52376     52375     52377     52379     52378     52380     52382     52381     52383
     52385     52384     52386     52388     52387     52389     52391     52390     52392
     52394     52393     52395     52397     52396     52398     52400     52399     52401
     52403     52402     52404     52406     52405     52407     52409     52408     52410
     52412     52411     52413     52415     52414     52416     52418     52417     52419
     52421     52420     52422     52424     52423     52425     52427     52426     52428
     52430     52429     52431     52433     52432     52434     52436     52435     52437
     52439     52438     52440     52442     52441     52443     52445     52444     52446
     52448     52447     52449     52451     52450     52452     52454     52453     52455
     52457     52456     52458     52460     52459     52461     52463     52462     52464
     52466     52465     52467     52469     52468     52470     52472     52471     52473
     52475     52474     52476     52478     52477     52479     52481     52480     52482
     52484     52483     52485     52487     52486     52488     52490     52489     52491
     52493     52492     52494     52496     52495     52497     52499     52498     52500
     52502     52501     52503     52505     52504     52506     52508     52507     52509
     52511     52510     52512     52514     52513     52515     52517     52516     52518
     52520     52519     52521     52523     52522     52524     52526     52525     52527
     52529     52528     52530     52532     52531     52533     52535     52534     52536
     52538     52537     52539     52541     52540     52542     52544     52543     52545
     52547     52546     52548     52550     52549     52551     52553     52552     52554
     52556     52555     52557     52559     52558     52560     52562     52561     52563
     52565     52564     52566     52568     52567     52569     52571     52570     52572
     52574     52573     52575     52577     52576     52578     52580     52579     52581
     52583     52582     52584     52586     52585     52587     52589     52588     52590
     52592     52591     52593     52595     52594     52596     52598     52597     52599
     52601     52600     52602     52604     52603     52605     52607     52606     52608
     52610     52609     52611     52613     52612     52614     52616     52615     52617
     52619     52618     52620     52622     52621     52623     52625     52624     52626
     52628     52627     52629     52631     52630     52632     52634     52633     52635
     52637     52636     52638     52640     52639     52641     52643     52642     52644
     52646     52645     52647     52649     52648     52650     52652     52651     52653
     52655     52654     52656     52658     52657     52659     52661     52660     52662
     52664     52663     52665     52667     52666     52668     52670     52669     52671
     52673     52672     52674     52676     52675     52677     52679     52678     52680
     52682     52681     52683     52685     52684     52686     52688     52687     52689
     52691     52690     52692     52694     52693     52695     52697     52696     52698
     52700     52699     52701     52703     52702     52704     52706     52705     52707
     52709     52708     52710     52712     52711     52713     52715     52714     52716
     52718     52717     52719     52721     52720     52722     52724     52723     52725
     52727     52726     52728     52730     52729     52731     52733     52732     52734
     52736     52735     52737     52739     52738     52740     52742     52741     52743
     52745     52744     52746     52748     52747     52749     52751     52750     52752
     52754     52753     52755     52757     52756     52758     52760     52759     52761
     52763     52762     52764     52766     52765     52767     52769     52768     52770
     52772     52771     52773     52775     52774     52776     52778     52777     52779
     52781     52780     52782     52784     52783     52785     52787     52786     52788
     52790     52789     52791     52793     52792     52794     52796     52795     52797
     52799     52798     52800     52802     52801     52803     52805     52804     52806
     52808     52807     52809     52811     52810     52812     52814     52813     52815
     52817     52816     52818     52820     52819     52821     52823     52822     52824
     52826     52825     52827     52829     52828     52830     52832     52831     52833
     52835     52834     52836     52838     52837     52839     52841     52840     52842
     52844     52843     52845     52847     52846     52848     52850     52849     52851
     52853     52852     52854     52856     52855     52857     52859     52858     52860
     52862     52861     52863     52865     52864     52866     52868     52867     52869
     52871     52870     52872     52874     52873     52875     52877     52876     52878
     52880     52879     52881     52883     52882     52884     52886     52885     52887
     52889     52888     52890     52892     52891     52893     52895     52894     52896
     52898     52897     52899     52901     52900     52902     52904     52903     52905
     52907     52906     52908     52910     52909     52911     52913     52912     52914
     52916     52915     52917     52919     52918     52920     52922     52921     52923
     52925     52924     52926     52928     52927     52929     52931     52930     52932
     52934     52933     52935     52937     52936     52938     52940     52939     52941
     52943     52942     52944     52946     52945     52947     52949     52948     52950
     52952     52951     52953     52955     52954     52956     52958     52957     52959
     52961     52960     52962     52964     52963     52965     52967     52966     52968
     52970     52969     52971     52973     52972     52974     52976     52975     52977
     52979     52978     52980     52982     52981     52983     52985     52984     52986
     52988     52987     52989     52991     52990     52992     52994     52993     52995
     52997     52996     52998     53000     52999     53001     53003     53002     53004
     53006     53005     53007     53009     53008     53010     53012     53011     53013
     53015     53014     53016     53018     53017     53019     53021     53020     53022
     53024     53023     53025     53027     53026     53028     53030     53029     53031
     53033     53032     53034     53036     53035     53037     53039     53038     53040
     53042     53041     53043     53045     53044     53046     53048     53047     53049
     53051     53050     53052     53054     53053     53055     53057     53056     53058
     53060     53059     53061     53063     53062     53064     53066     53065     53067
     53069     53068     53070     53072     53071     53073     53075     53074     53076
     53078     53077     53079     53081     53080     53082     53084     53083     53085
     53087     53086     53088     53090     53089     53091     53093     53092     53094
     53096     53095     53097     53099     53098     53100     53102     53101     53103
     53105     53104     53106     53108     53107     53109     53111     53110     53112
     53114     53113     53115     53117     53116     53118     53120     53119     53121
     53123     53122     53124     53126     53125     53127     53129     53128     53130
     53132     53131     53133     53135     53134     53136     53138     53137     53139
     53141     53140     53142     53144     53143     53145     53147     53146     53148
     53150     53149     53151     53153     53152     53154     53156     53155     53157
     53159     53158     53160     53162     53161     53163     53165     53164     53166
     53168     53167     53169     53171     53170     53172     53174     53173     53175
     53177     53176     53178     53180     53179     53181     53183     53182     53184
     53186     53185     53187     53189     53188     53190     53192     53191     53193
     53195     53194     53196     53198     53197     53199     53201     53200     53202
     53204     53203     53205     53207     53206     53208     53210     53209     53211
     53213     53212     53214     53216     53215     53217     53219     53218     53220
     53222     53221     53223     53225     53224     53226     53228     53227     53229
     53231     53230     53232     53234     53233     53235     53237     53236     53238
     53240     53239     53241     53243     53242     53244     53246     53245     53247
     53249     53248     53250     53252     53251     53253     53255     53254     53256
     53258     53257     53259     53261     53260     53262     53264     53263     53265
     53267     53266     53268     53270     53269     53271     53273     53272     53274
     53276     53275     53277     53279     53278     53280     53282     53281     53283
     53285     53284     53286     53288     53287     53289     53291     53290     53292
     53294     53293     53295     53297     53296     53298     53300     53299     53301
     53303     53302     53304     53306     53305     53307     53309     53308     53310
     53312     53311     53313     53315     53314     53316     53318     53317     53319
     53321     53320     53322     53324     53323     53325     53327     53326     53328
     53330     53329     53331     53333     53332     53334     53336     53335     53337
     53339     53338     53340     53342     53341     53343     53345     53344     53346
     53348     53347     53349     53351     53350     53352     53354     53353     53355
     53357     53356     53358     53360     53359     53361     53363     53362     53364
     53366     53365     53367     53369     53368     53370     53372     53371     53373
     53375     53374     53376     53378     53377     53379     53381     53380     53382
     53384     53383     53385     53387     53386     53388     53390     53389     53391
     53393     53392     53394     53396     53395     53397     53399     53398     53400
     53402     53401     53403     53405     53404     53406     53408     53407     53409
     53411     53410     53412     53414     53413     53415     53417     53416     53418
     53420     53419     53421     53423     53422     53424     53426     53425     53427
     53429     53428     53430     53432     53431     53433     53435     53434     53436
     53438     53437     53439     53441     53440     53442     53444     53443     53445
     53447     53446     53448     53450     53449     53451     53453     53452     53454
     53456     53455     53457     53459     53458     53460     53462     53461     53463
     53465     53464     53466     53468     53467     53469     53471     53470     53472
     53474     53473     53475     53477     53476     53478     53480     53479     53481
     53483     53482     53484     53486     53485     53487     53489     53488     53490
     53492     53491     53493     53495     53494     53496     53498     53497     53499
     53501     53500     53502     53504     53503     53505     53507     53506     53508
     53510     53509     53511     53513     53512     53514     53516     53515     53517
     53519     53518     53520     53522     53521     53523     53525     53524     53526
     53528     53527     53529     53531     53530     53532     53534     53533     53535
     53537     53536     53538     53540     53539     53541     53543     53542     53544
     53546     53545     53547     53549     53548     53550     53552     53551     53553
     53555     53554     53556     53558     53557     53559     53561     53560     53562
     53564     53563     53565     53567     53566     53568     53570     53569     53571
     53573     53572     53574     53576     53575     53577     53579     53578     53580
     53582     53581     53583     53585     53584     53586     53588     53587     53589
     53591     53590     53592     53594     53593     53595     53597     53596     53598
     53600     53599     53601     53603     53602     53604     53606     53605     53607
     53609     53608     53610     53612     53611     53613     53615     53614     53616
     53618     53617     53619     53621     53620     53622     53624     53623     53625
     53627     53626     53628     53630     53629     53631     53633     53632     53634
     53636     53635     53637     53639     53638     53640     53642     53641     53643
     53645     53644     53646     53648     53647     53649     53651     53650     53652
     53654     53653     53655     53657     53656     53658     53660     53659     53661
     53663     53662     53664     53666     53665     53667     53669     53668     53670
     53672     53671     53673     53675     53674     53676     53678     53677     53679
     53681     53680     53682     53684     53683     53685     53687     53686     53688
     53690     53689     53691     53693     53692     53694     53696     53695     53697
     53699     53698     53700     53702     53701     53703     53705     53704     53706
     53708     53707     53709     53711     53710     53712     53714     53713     53715
     53717     53716     53718     53720     53719     53721     53723     53722     53724
     53726     53725     53727     53729     53728     53730     53732     53731     53733
     53735     53734     53736     53738     53737     53739     53741     53740     53742
     53744     53743     53745     53747     53746     53748     53750     53749     53751
     53753     53752     53754     53756     53755     53757     53759     53758     53760
     53762     53761     53763     53765     53764     53766     53768     53767     53769
     53771     53770     53772     53774     53773     53775     53777     53776     53778
     53780     53779     53781     53783     53782     53784     53786     53785     53787
     53789     53788     53790     53792     53791     53793     53795     53794     53796
     53798     53797     53799     53801     53800     53802     53804     53803     53805
     53807     53806     53808     53810     53809     53811     53813     53812     53814
     53816     53815     53817     53819     53818     53820     53822     53821     53823
     53825     53824     53826     53828     53827     53829     53831     53830     53832
     53834     53833     53835     53837     53836     53838     53840     53839     53841
     53843     53842     53844     53846     53845     53847     53849     53848     53850
     53852     53851     53853     53855     53854     53856     53858     53857     53859
     53861     53860     53862     53864     53863     53865     53867     53866     53868
     53870     53869     53871     53873     53872     53874     53876     53875     53877
     53879     53878     53880     53882     53881     53883     53885     53884     53886
     53888     53887     53889     53891     53890     53892     53894     53893     53895
     53897     53896     53898     53900     53899     53901     53903     53902     53904
     53906     53905     53907     53909     53908     53910     53912     53911     53913
     53915     53914     53916     53918     53917     53919     53921     53920     53922
     53924     53923     53925     53927     53926     53928     53930     53929     53931
     53933     53932     53934     53936     53935     53937     53939     53938     53940
     53942     53941     53943     53945     53944     53946     53948     53947     53949
     53951     53950     53952     53954     53953     53955     53957     53956     53958
     53960     53959     53961     53963     53962     53964     53966     53965     53967
     53969     53968     53970     53972     53971     53973     53975     53974     53976
     53978     53977     53979     53981     53980     53982     53984     53983     53985
     53987     53986     53988     53990     53989     53991     53993     53992     53994
     53996     53995     53997     53999     53998     54000     54002     54001     54003
     54005     54004     54006     54008     54007     54009     54011     54010     54012
     54014     54013     54015     54017     54016     54018     54020     54019     54021
     54023     54022     54024     54026     54025     54027     54029     54028     54030
     54032     54031     54033     54035     54034     54036     54038     54037     54039
     54041     54040     54042     54044     54043     54045     54047     54046     54048
     54050     54049     54051     54053     54052     54054     54056     54055     54057
     54059     54058     54060     54062     54061     54063     54065     54064     54066
     54068     54067     54069     54071     54070     54072     54074     54073     54075
     54077     54076     54078     54080     54079     54081     54083     54082     54084
     54086     54085     54087     54089     54088     54090     54092     54091     54093
     54095     54094     54096     54098     54097     54099     54101     54100     54102
     54104     54103     54105     54107     54106     54108     54110     54109     54111
     54113     54112     54114     54116     54115     54117     54119     54118     54120
     54122     54121     54123     54125     54124     54126     54128     54127     54129
     54131     54130     54132     54134     54133     54135     54137     54136     54138
     54140     54139     54141     54143     54142     54144     54146     54145     54147
     54149     54148     54150     54152     54151     54153     54155     54154     54156
     54158     54157     54159     54161     54160     54162     54164     54163     54165
     54167     54166     54168     54170     54169     54171     54173     54172     54174
     54176     54175     54177     54179     54178     54180     54182     54181     54183
     54185     54184     54186     54188     54187     54189     54191     54190     54192
     54194     54193     54195     54197     54196     54198     54200     54199     54201
     54203     54202     54204     54206     54205     54207     54209     54208     54210
     54212     54211     54213     54215     54214     54216     54218     54217     54219
     54221     54220     54222     54224     54223     54225     54227     54226     54228
     54230     54229     54231     54233     54232     54234     54236     54235     54237
     54239     54238     54240     54242     54241     54243     54245     54244     54246
     54248     54247     54249     54251     54250     54252     54254     54253     54255
     54257     54256     54258     54260     54259     54261     54263     54262     54264
     54266     54265     54267     54269     54268     54270     54272     54271     54273
     54275     54274     54276     54278     54277     54279     54281     54280     54282
     54284     54283     54285     54287     54286     54288     54290     54289     54291
     54293     54292     54294     54296     54295     54297     54299     54298     54300
     54302     54301     54303     54305     54304     54306     54308     54307     54309
     54311     54310     54312     54314     54313     54315     54317     54316     54318
     54320     54319     54321     54323     54322     54324     54326     54325     54327
     54329     54328     54330     54332     54331     54333     54335     54334     54336
     54338     54337     54339     54341     54340     54342     54344     54343     54345
     54347     54346     54348     54350     54349     54351     54353     54352     54354
     54356     54355     54357     54359     54358     54360     54362     54361     54363
     54365     54364     54366     54368     54367     54369     54371     54370     54372
     54374     54373     54375     54377     54376     54378     54380     54379     54381
     54383     54382     54384     54386     54385     54387     54389     54388     54390
     54392     54391     54393     54395     54394     54396     54398     54397     54399
     54401     54400     54402     54404     54403     54405     54407     54406     54408
     54410     54409     54411     54413     54412     54414     54416     54415     54417
     54419     54418     54420     54422     54421     54423     54425     54424     54426
     54428     54427     54429     54431     54430     54432     54434     54433     54435
     54437     54436     54438     54440     54439     54441     54443     54442     54444
     54446     54445     54447     54449     54448     54450     54452     54451     54453
     54455     54454     54456     54458     54457     54459     54461     54460     54462
     54464     54463     54465     54467     54466     54468     54470     54469     54471
     54473     54472     54474     54476     54475     54477     54479     54478     54480
     54482     54481     54483     54485     54484     54486     54488     54487     54489
     54491     54490     54492     54494     54493     54495     54497     54496     54498
     54500     54499     54501     54503     54502     54504     54506     54505     54507
     54509     54508     54510     54512     54511     54513     54515     54514     54516
     54518     54517     54519     54521     54520     54522     54524     54523     54525
     54527     54526     54528     54530     54529     54531     54533     54532     54534
     54536     54535     54537     54539     54538     54540     54542     54541     54543
     54545     54544     54546     54548     54547     54549     54551     54550     54552
     54554     54553     54555     54557     54556     54558     54560     54559     54561
     54563     54562     54564     54566     54565     54567     54569     54568     54570
     54572     54571     54573     54575     54574     54576     54578     54577     54579
     54581     54580     54582     54584     54583     54585     54587     54586     54588
     54590     54589     54591     54593     54592     54594     54596     54595     54597
     54599     54598     54600     54602     54601     54603     54605     54604     54606
     54608     54607     54609     54611     54610     54612     54614     54613     54615
     54617     54616     54618     54620     54619     54621     54623     54622     54624
     54626     54625     54627     54629     54628     54630     54632     54631     54633
     54635     54634     54636     54638     54637     54639     54641     54640     54642
     54644     54643     54645     54647     54646     54648     54650     54649     54651
     54653     54652     54654     54656     54655     54657     54659     54658     54660
     54662     54661     54663     54665     54664     54666     54668     54667     54669
     54671     54670     54672     54674     54673     54675     54677     54676     54678
     54680     54679     54681     54683     54682     54684     54686     54685     54687
     54689     54688     54690     54692     54691     54693     54695     54694     54696
     54698     54697     54699     54701     54700     54702     54704     54703     54705
     54707     54706     54708     54710     54709     54711     54713     54712     54714
     54716     54715     54717     54719     54718     54720     54722     54721     54723
     54725     54724     54726     54728     54727     54729     54731     54730     54732
     54734     54733     54735     54737     54736     54738     54740     54739     54741
     54743     54742     54744     54746     54745     54747     54749     54748     54750
     54752     54751     54753     54755     54754     54756     54758     54757     54759
     54761     54760     54762     54764     54763     54765     54767     54766     54768
     54770     54769     54771     54773     54772     54774     54776     54775     54777
     54779     54778     54780     54782     54781     54783     54785     54784     54786
     54788     54787     54789     54791     54790     54792     54794     54793     54795
     54797     54796     54798     54800     54799     54801     54803     54802     54804
     54806     54805     54807     54809     54808     54810     54812     54811     54813
     54815     54814     54816     54818     54817     54819     54821     54820     54822
     54824     54823     54825     54827     54826     54828     54830     54829     54831
     54833     54832     54834     54836     54835     54837     54839     54838     54840
     54842     54841     54843     54845     54844     54846     54848     54847     54849
     54851     54850     54852     54854     54853     54855     54857     54856     54858
     54860     54859     54861     54863     54862     54864     54866     54865     54867
     54869     54868     54870     54872     54871     54873     54875     54874     54876
     54878     54877     54879     54881     54880     54882     54884     54883     54885
     54887     54886     54888     54890     54889     54891     54893     54892     54894
     54896     54895     54897     54899     54898     54900     54902     54901     54903
     54905     54904     54906     54908     54907     54909     54911     54910     54912
     54914     54913     54915     54917     54916     54918     54920     54919     54921
     54923     54922     54924     54926     54925     54927     54929     54928     54930
     54932     54931     54933     54935     54934     54936     54938     54937     54939
     54941     54940     54942     54944     54943     54945     54947     54946     54948
     54950     54949     54951     54953     54952     54954     54956     54955     54957
     54959     54958     54960     54962     54961     54963     54965     54964     54966
     54968     54967     54969     54971     54970     54972     54974     54973     54975
     54977     54976     54978     54980     54979     54981     54983     54982     54984
     54986     54985     54987     54989     54988     54990     54992     54991     54993
     54995     54994     54996     54998     54997     54999     55001     55000     55002
     55004     55003     55005     55007     55006     55008     55010     55009     55011
     55013     55012     55014     55016     55015     55017     55019     55018     55020
     55022     55021     55023     55025     55024     55026     55028     55027     55029
     55031     55030     55032     55034     55033     55035     55037     55036     55038
     55040     55039     55041     55043     55042     55044     55046     55045     55047
     55049     55048     55050     55052     55051     55053     55055     55054     55056
     55058     55057     55059     55061     55060     55062     55064     55063     55065
     55067     55066     55068     55070     55069     55071     55073     55072     55074
     55076     55075     55077     55079     55078     55080     55082     55081     55083
     55085     55084     55086     55088     55087     55089     55091     55090     55092
     55094     55093     55095     55097     55096     55098     55100     55099     55101
     55103     55102     55104     55106     55105     55107     55109     55108     55110
     55112     55111     55113     55115     55114     55116     55118     55117     55119
     55121     55120     55122     55124     55123     55125     55127     55126     55128
     55130     55129     55131     55133     55132     55134     55136     55135     55137
     55139     55138     55140     55142     55141     55143     55145     55144     55146
     55148     55147     55149     55151     55150     55152     55154     55153     55155
     55157     55156     55158     55160     55159     55161     55163     55162     55164
     55166     55165     55167     55169     55168     55170     55172     55171     55173
     55175     55174     55176     55178     55177     55179     55181     55180     55182
     55184     55183     55185     55187     55186     55188     55190     55189     55191
     55193     55192     55194     55196     55195     55197     55199     55198     55200
     55202     55201     55203     55205     55204     55206     55208     55207     55209
     55211     55210     55212     55214     55213     55215     55217     55216     55218
     55220     55219     55221     55223     55222     55224     55226     55225     55227
     55229     55228     55230     55232     55231     55233     55235     55234     55236
     55238     55237     55239     55241     55240     55242     55244     55243     55245
     55247     55246     55248     55250     55249     55251     55253     55252     55254
     55256     55255     55257     55259     55258     55260     55262     55261     55263
     55265     55264     55266     55268     55267     55269     55271     55270     55272
     55274     55273     55275     55277     55276     55278     55280     55279     55281
     55283     55282     55284     55286     55285     55287     55289     55288     55290
     55292     55291     55293     55295     55294     55296     55298     55297     55299
     55301     55300     55302     55304     55303     55305     55307     55306     55308
     55310     55309     55311     55313     55312     55314     55316     55315     55317
     55319     55318     55320     55322     55321     55323     55325     55324     55326
     55328     55327     55329     55331     55330     55332     55334     55333     55335
     55337     55336     55338     55340     55339     55341     55343     55342     55344
     55346     55345     55347     55349     55348     55350     55352     55351     55353
     55355     55354     55356     55358     55357     55359     55361     55360     55362
     55364     55363     55365     55367     55366     55368     55370     55369     55371
     55373     55372     55374     55376     55375     55377     55379     55378     55380
     55382     55381     55383     55385     55384     55386     55388     55387     55389
     55391     55390     55392     55394     55393     55395     55397     55396     55398
     55400     55399     55401     55403     55402     55404     55406     55405     55407
     55409     55408     55410     55412     55411     55413     55415     55414     55416
     55418     55417     55419     55421     55420     55422     55424     55423     55425
     55427     55426     55428     55430     55429     55431     55433     55432     55434
     55436     55435     55437     55439     55438     55440     55442     55441     55443
     55445     55444     55446     55448     55447     55449     55451     55450     55452
     55454     55453     55455     55457     55456     55458     55460     55459     55461
     55463     55462     55464     55466     55465     55467     55469     55468     55470
     55472     55471     55473     55475     55474     55476     55478     55477     55479
     55481     55480     55482     55484     55483     55485     55487     55486     55488
     55490     55489     55491     55493     55492     55494     55496     55495     55497
     55499     55498     55500     55502     55501     55503     55505     55504     55506
     55508     55507     55509     55511     55510     55512     55514     55513     55515
     55517     55516     55518     55520     55519     55521     55523     55522     55524
     55526     55525     55527     55529     55528     55530     55532     55531     55533
     55535     55534     55536     55538     55537     55539     55541     55540     55542
     55544     55543     55545     55547     55546     55548     55550     55549     55551
     55553     55552     55554     55556     55555     55557     55559     55558     55560
     55562     55561     55563     55565     55564     55566     55568     55567     55569
     55571     55570     55572     55574     55573     55575     55577     55576     55578
     55580     55579     55581     55583     55582     55584     55586     55585     55587
     55589     55588     55590     55592     55591     55593     55595     55594     55596
     55598     55597     55599     55601     55600     55602     55604     55603     55605
     55607     55606     55608     55610     55609     55611     55613     55612     55614
     55616     55615     55617     55619     55618     55620     55622     55621     55623
     55625     55624     55626     55628     55627     55629     55631     55630     55632
     55634     55633     55635     55637     55636     55638     55640     55639     55641
     55643     55642     55644     55646     55645     55647     55649     55648     55650
     55652     55651     55653     55655     55654     55656     55658     55657     55659
     55661     55660     55662     55664     55663     55665     55667     55666     55668
     55670     55669     55671     55673     55672     55674     55676     55675     55677
     55679     55678     55680     55682     55681     55683     55685     55684     55686
     55688     55687     55689     55691     55690     55692     55694     55693     55695
     55697     55696     55698     55700     55699     55701     55703     55702     55704
     55706     55705     55707     55709     55708     55710     55712     55711     55713
     55715     55714     55716     55718     55717     55719     55721     55720     55722
     55724     55723     55725     55727     55726     55728     55730     55729     55731
     55733     55732     55734     55736     55735     55737     55739     55738     55740
     55742     55741     55743     55745     55744     55746     55748     55747     55749
     55751     55750     55752     55754     55753     55755     55757     55756     55758
     55760     55759     55761     55763     55762     55764     55766     55765     55767
     55769     55768     55770     55772     55771     55773     55775     55774     55776
     55778     55777     55779     55781     55780     55782     55784     55783     55785
     55787     55786     55788     55790     55789     55791     55793     55792     55794
     55796     55795     55797     55799     55798     55800     55802     55801     55803
     55805     55804     55806     55808     55807     55809     55811     55810     55812
     55814     55813     55815     55817     55816     55818     55820     55819     55821
     55823     55822     55824     55826     55825     55827     55829     55828     55830
     55832     55831     55833     55835     55834     55836     55838     55837     55839
     55841     55840     55842     55844     55843     55845     55847     55846     55848
     55850     55849     55851     55853     55852     55854     55856     55855     55857
     55859     55858     55860     55862     55861     55863     55865     55864     55866
     55868     55867     55869     55871     55870     55872     55874     55873     55875
     55877     55876     55878     55880     55879     55881     55883     55882     55884
     55886     55885     55887     55889     55888     55890     55892     55891     55893
     55895     55894     55896     55898     55897     55899     55901     55900     55902
     55904     55903     55905     55907     55906     55908     55910     55909     55911
     55913     55912     55914     55916     55915     55917     55919     55918     55920
     55922     55921     55923     55925     55924     55926     55928     55927     55929
     55931     55930     55932     55934     55933     55935     55937     55936     55938
     55940     55939     55941     55943     55942     55944     55946     55945     55947
     55949     55948     55950     55952     55951     55953     55955     55954     55956
     55958     55957     55959     55961     55960     55962     55964     55963     55965
     55967     55966     55968     55970     55969     55971     55973     55972     55974
     55976     55975     55977     55979     55978     55980     55982     55981     55983
     55985     55984     55986     55988     55987     55989     55991     55990     55992
     55994     55993     55995     55997     55996     55998     56000     55999     56001
     56003     56002     56004     56006     56005     56007     56009     56008     56010
     56012     56011     56013     56015     56014     56016     56018     56017     56019
     56021     56020     56022     56024     56023     56025     56027     56026     56028
     56030     56029     56031     56033     56032     56034     56036     56035     56037
     56039     56038     56040     56042     56041     56043     56045     56044     56046
     56048     56047     56049     56051     56050     56052     56054     56053     56055
     56057     56056     56058     56060     56059     56061     56063     56062     56064
     56066     56065     56067     56069     56068     56070     56072     56071     56073
     56075     56074     56076     56078     56077     56079     56081     56080     56082
     56084     56083     56085     56087     56086     56088     56090     56089     56091
     56093     56092     56094     56096     56095     56097     56099     56098     56100
     56102     56101     56103     56105     56104     56106     56108     56107     56109
     56111     56110     56112     56114     56113     56115     56117     56116     56118
     56120     56119     56121     56123     56122     56124     56126     56125     56127
     56129     56128     56130     56132     56131     56133     56135     56134     56136
     56138     56137     56139     56141     56140     56142     56144     56143     56145
     56147     56146     56148     56150     56149     56151     56153     56152     56154
     56156     56155     56157     56159     56158     56160     56162     56161     56163
     56165     56164     56166     56168     56167     56169     56171     56170     56172
     56174     56173     56175     56177     56176     56178     56180     56179     56181
     56183     56182     56184     56186     56185     56187     56189     56188     56190
     56192     56191     56193     56195     56194     56196     56198     56197     56199
     56201     56200     56202     56204     56203     56205     56207     56206     56208
     56210     56209     56211     56213     56212     56214     56216     56215     56217
     56219     56218     56220     56222     56221     56223     56225     56224     56226
     56228     56227     56229     56231     56230     56232     56234     56233     56235
     56237     56236     56238     56240     56239     56241     56243     56242     56244
     56246     56245     56247     56249     56248     56250     56252     56251     56253
     56255     56254     56256     56258     56257     56259     56261     56260     56262
     56264     56263     56265     56267     56266     56268     56270     56269     56271
     56273     56272     56274     56276     56275     56277     56279     56278     56280
     56282     56281     56283     56285     56284     56286     56288     56287     56289
     56291     56290     56292     56294     56293     56295     56297     56296     56298
     56300     56299     56301     56303     56302     56304     56306     56305     56307
     56309     56308     56310     56312     56311     56313     56315     56314     56316
     56318     56317     56319     56321     56320     56322     56324     56323     56325
     56327     56326     56328     56330     56329     56331     56333     56332     56334
     56336     56335     56337     56339     56338     56340     56342     56341     56343
     56345     56344     56346     56348     56347     56349     56351     56350     56352
     56354     56353     56355     56357     56356     56358     56360     56359     56361
     56363     56362     56364     56366     56365     56367     56369     56368     56370
     56372     56371     56373     56375     56374     56376     56378     56377     56379
     56381     56380     56382     56384     56383     56385     56387     56386     56388
     56390     56389     56391     56393     56392     56394     56396     56395     56397
     56399     56398     56400     56402     56401     56403     56405     56404     56406
     56408     56407     56409     56411     56410     56412     56414     56413     56415
     56417     56416     56418     56420     56419     56421     56423     56422     56424
     56426     56425     56427     56429     56428     56430     56432     56431     56433
     56435     56434     56436     56438     56437     56439     56441     56440     56442
     56444     56443     56445     56447     56446     56448     56450     56449     56451
     56453     56452     56454     56456     56455     56457     56459     56458     56460
     56462     56461     56463     56465     56464     56466     56468     56467     56469
     56471     56470     56472     56474     56473     56475     56477     56476     56478
     56480     56479     56481     56483     56482     56484     56486     56485     56487
     56489     56488     56490     56492     56491     56493     56495     56494     56496
     56498     56497     56499     56501     56500     56502     56504     56503     56505
     56507     56506     56508     56510     56509     56511     56513     56512     56514
     56516     56515     56517     56519     56518     56520     56522     56521     56523
     56525     56524     56526     56528     56527     56529     56531     56530     56532
     56534     56533     56535     56537     56536     56538     56540     56539     56541
     56543     56542     56544     56546     56545     56547     56549     56548     56550
     56552     56551     56553     56555     56554     56556     56558     56557     56559
     56561     56560     56562     56564     56563     56565     56567     56566     56568
     56570     56569     56571     56573     56572     56574     56576     56575     56577
     56579     56578     56580     56582     56581     56583     56585     56584     56586
     56588     56587     56589     56591     56590     56592     56594     56593     56595
     56597     56596     56598     56600     56599     56601     56603     56602     56604
     56606     56605     56607     56609     56608     56610     56612     56611     56613
     56615     56614     56616     56618     56617     56619     56621     56620     56622
     56624     56623     56625     56627     56626     56628     56630     56629     56631
     56633     56632     56634     56636     56635     56637     56639     56638     56640
     56642     56641     56643     56645     56644     56646     56648     56647     56649
     56651     56650     56652     56654     56653     56655     56657     56656     56658
     56660     56659     56661     56663     56662     56664     56666     56665     56667
     56669     56668     56670     56672     56671     56673     56675     56674     56676
     56678     56677     56679     56681     56680     56682     56684     56683     56685
     56687     56686     56688     56690     56689     56691     56693     56692     56694
     56696     56695     56697     56699     56698     56700     56702     56701     56703
     56705     56704     56706     56708     56707     56709     56711     56710     56712
     56714     56713     56715     56717     56716     56718     56720     56719     56721
     56723     56722     56724     56726     56725     56727     56729     56728     56730
     56732     56731     56733     56735     56734     56736     56738     56737     56739
     56741     56740     56742     56744     56743     56745     56747     56746     56748
     56750     56749     56751     56753     56752     56754     56756     56755     56757
     56759     56758     56760     56762     56761     56763     56765     56764     56766
     56768     56767     56769     56771     56770     56772     56774     56773     56775
     56777     56776     56778     56780     56779     56781     56783     56782     56784
     56786     56785     56787     56789     56788     56790     56792     56791     56793
     56795     56794     56796     56798     56797     56799     56801     56800     56802
     56804     56803     56805     56807     56806     56808     56810     56809     56811
     56813     56812     56814     56816     56815     56817     56819     56818     56820
     56822     56821     56823     56825     56824     56826     56828     56827     56829
     56831     56830     56832     56834     56833     56835     56837     56836     56838
     56840     56839     56841     56843     56842     56844     56846     56845     56847
     56849     56848     56850     56852     56851     56853     56855     56854     56856
     56858     56857     56859     56861     56860     56862     56864     56863     56865
     56867     56866     56868     56870     56869     56871     56873     56872     56874
     56876     56875     56877     56879     56878     56880     56882     56881     56883
     56885     56884     56886     56888     56887     56889     56891     56890     56892
     56894     56893     56895     56897     56896     56898     56900     56899     56901
     56903     56902     56904     56906     56905     56907     56909     56908     56910
     56912     56911     56913     56915     56914     56916     56918     56917     56919
     56921     56920     56922     56924     56923     56925     56927     56926     56928
     56930     56929     56931     56933     56932     56934     56936     56935     56937
     56939     56938     56940     56942     56941     56943     56945     56944     56946
     56948     56947     56949     56951     56950     56952     56954     56953     56955
     56957     56956     56958     56960     56959     56961     56963     56962     56964
     56966     56965     56967     56969     56968     56970     56972     56971     56973
     56975     56974     56976     56978     56977     56979     56981     56980     56982
     56984     56983     56985     56987     56986     56988     56990     56989     56991
     56993     56992     56994     56996     56995     56997     56999     56998     57000
     57002     57001     57003     57005     57004     57006     57008     57007     57009
     57011     57010     57012     57014     57013     57015     57017     57016     57018
     57020     57019     57021     57023     57022     57024     57026     57025     57027
     57029     57028     57030     57032     57031     57033     57035     57034     57036
     57038     57037     57039     57041     57040     57042     57044     57043     57045
     57047     57046     57048     57050     57049     57051     57053     57052     57054
     57056     57055     57057     57059     57058     57060     57062     57061     57063
     57065     57064     57066     57068     57067     57069     57071     57070     57072
     57074     57073     57075     57077     57076     57078     57080     57079     57081
     57083     57082     57084     57086     57085     57087     57089     57088     57090
     57092     57091     57093     57095     57094     57096     57098     57097     57099
     57101     57100     57102     57104     57103     57105     57107     57106     57108
     57110     57109     57111     57113     57112     57114     57116     57115     57117
     57119     57118     57120     57122     57121     57123     57125     57124     57126
     57128     57127     57129     57131     57130     57132     57134     57133     57135
     57137     57136     57138     57140     57139     57141     57143     57142     57144
     57146     57145     57147     57149     57148     57150     57152     57151     57153
     57155     57154     57156     57158     57157     57159     57161     57160     57162
     57164     57163     57165     57167     57166     57168     57170     57169     57171
     57173     57172     57174     57176     57175     57177     57179     57178     57180
     57182     57181     57183     57185     57184     57186     57188     57187     57189
     57191     57190     57192     57194     57193     57195     57197     57196     57198
     57200     57199     57201     57203     57202     57204     57206     57205     57207
     57209     57208     57210     57212     57211     57213     57215     57214     57216
     57218     57217     57219     57221     57220     57222     57224     57223     57225
     57227     57226     57228     57230     57229     57231     57233     57232     57234
     57236     57235     57237     57239     57238     57240     57242     57241     57243
     57245     57244     57246     57248     57247     57249     57251     57250     57252
     57254     57253     57255     57257     57256     57258     57260     57259     57261
     57263     57262     57264     57266     57265     57267     57269     57268     57270
     57272     57271     57273     57275     57274     57276     57278     57277     57279
     57281     57280     57282     57284     57283     57285     57287     57286     57288
     57290     57289     57291     57293     57292     57294     57296     57295     57297
     57299     57298     57300     57302     57301     57303     57305     57304     57306
     57308     57307     57309     57311     57310     57312     57314     57313     57315
     57317     57316     57318     57320     57319     57321     57323     57322     57324
     57326     57325     57327     57329     57328     57330     57332     57331     57333
     57335     57334     57336     57338     57337     57339     57341     57340     57342
     57344     57343     57345     57347     57346     57348     57350     57349     57351
     57353     57352     57354     57356     57355     57357     57359     57358     57360
     57362     57361     57363     57365     57364     57366     57368     57367     57369
     57371     57370     57372     57374     57373     57375     57377     57376     57378
     57380     57379     57381     57383     57382     57384     57386     57385     57387
     57389     57388     57390     57392     57391     57393     57395     57394     57396
     57398     57397     57399     57401     57400     57402     57404     57403     57405
     57407     57406     57408     57410     57409     57411     57413     57412     57414
     57416     57415     57417     57419     57418     57420     57422     57421     57423
     57425     57424     57426     57428     57427     57429     57431     57430     57432
     57434     57433     57435     57437     57436     57438     57440     57439     57441
     57443     57442     57444     57446     57445     57447     57449     57448     57450
     57452     57451     57453     57455     57454     57456     57458     57457     57459
     57461     57460     57462     57464     57463     57465     57467     57466     57468
     57470     57469     57471     57473     57472     57474     57476     57475     57477
     57479     57478     57480     57482     57481     57483     57485     57484     57486
     57488     57487     57489     57491     57490     57492     57494     57493     57495
     57497     57496     57498     57500     57499     57501     57503     57502     57504
     57506     57505     57507     57509     57508     57510     57512     57511     57513
     57515     57514     57516     57518     57517     57519     57521     57520     57522
     57524     57523     57525     57527     57526     57528     57530     57529     57531
     57533     57532     57534     57536     57535     57537     57539     57538     57540
     57542     57541     57543     57545     57544     57546     57548     57547     57549
     57551     57550     57552     57554     57553     57555     57557     57556     57558
     57560     57559     57561     57563     57562     57564     57566     57565     57567
     57569     57568     57570     57572     57571     57573     57575     57574     57576
     57578     57577     57579     57581     57580     57582     57584     57583     57585
     57587     57586     57588     57590     57589     57591     57593     57592     57594
     57596     57595     57597     57599     57598     57600     57602     57601     57603
     57605     57604     57606     57608     57607     57609     57611     57610     57612
     57614     57613     57615     57617     57616     57618     57620     57619     57621
     57623     57622     57624     57626     57625     57627     57629     57628     57630
     57632     57631     57633     57635     57634     57636     57638     57637     57639
     57641     57640     57642     57644     57643     57645     57647     57646     57648
     57650     57649     57651     57653     57652     57654     57656     57655     57657
     57659     57658     57660     57662     57661     57663     57665     57664     57666
     57668     57667     57669     57671     57670     57672     57674     57673     57675
     57677     57676     57678     57680     57679     57681     57683     57682     57684
     57686     57685     57687     57689     57688     57690     57692     57691     57693
     57695     57694     57696     57698     57697     57699     57701     57700     57702
     57704     57703     57705     57707     57706     57708     57710     57709     57711
     57713     57712     57714     57716     57715     57717     57719     57718     57720
     57722     57721     57723     57725     57724     57726     57728     57727     57729
     57731     57730     57732     57734     57733     57735     57737     57736     57738
     57740     57739     57741     57743     57742     57744     57746     57745     57747
     57749     57748     57750     57752     57751     57753     57755     57754     57756
     57758     57757     57759     57761     57760     57762     57764     57763     57765
     57767     57766     57768     57770     57769     57771     57773     57772     57774
     57776     57775     57777     57779     57778     57780     57782     57781     57783
     57785     57784     57786     57788     57787     57789     57791     57790     57792
     57794     57793     57795     57797     57796     57798     57800     57799     57801
     57803     57802     57804     57806     57805     57807     57809     57808     57810
     57812     57811     57813     57815     57814     57816     57818     57817     57819
     57821     57820     57822     57824     57823     57825     57827     57826     57828
     57830     57829     57831     57833     57832     57834     57836     57835     57837
     57839     57838     57840     57842     57841     57843     57845     57844     57846
     57848     57847     57849     57851     57850     57852     57854     57853     57855
     57857     57856     57858     57860     57859     57861     57863     57862     57864
     57866     57865     57867     57869     57868     57870     57872     57871     57873
     57875     57874     57876     57878     57877     57879     57881     57880     57882
     57884     57883     57885     57887     57886     57888     57890     57889     57891
     57893     57892     57894     57896     57895     57897     57899     57898     57900
     57902     57901     57903     57905     57904     57906     57908     57907     57909
     57911     57910     57912     57914     57913     57915     57917     57916     57918
     57920     57919     57921     57923     57922     57924     57926     57925     57927
     57929     57928     57930     57932     57931     57933     57935     57934     57936
     57938     57937     57939     57941     57940     57942     57944     57943     57945
     57947     57946     57948     57950     57949     57951     57953     57952     57954
     57956     57955     57957     57959     57958     57960     57962     57961     57963
     57965     57964     57966     57968     57967     57969     57971     57970     57972
     57974     57973     57975     57977     57976     57978     57980     57979     57981
     57983     57982     57984     57986     57985     57987     57989     57988     57990
     57992     57991     57993     57995     57994     57996     57998     57997     57999
     58001     58000     58002     58004     58003     58005     58007     58006     58008
     58010     58009     58011     58013     58012     58014     58016     58015     58017
     58019     58018     58020     58022     58021     58023     58025     58024     58026
     58028     58027     58029     58031     58030     58032     58034     58033     58035
     58037     58036     58038     58040     58039     58041     58043     58042     58044
     58046     58045     58047     58049     58048     58050     58052     58051     58053
     58055     58054     58056     58058     58057     58059     58061     58060     58062
     58064     58063     58065     58067     58066     58068     58070     58069     58071
     58073     58072     58074     58076     58075     58077     58079     58078     58080
     58082     58081     58083     58085     58084     58086     58088     58087     58089
     58091     58090     58092     58094     58093     58095     58097     58096     58098
     58100     58099     58101     58103     58102     58104     58106     58105     58107
     58109     58108     58110     58112     58111     58113     58115     58114     58116
     58118     58117     58119     58121     58120     58122     58124     58123     58125
     58127     58126     58128     58130     58129     58131     58133     58132     58134
     58136     58135     58137     58139     58138     58140     58142     58141     58143
     58145     58144     58146     58148     58147     58149     58151     58150     58152
     58154     58153     58155     58157     58156     58158     58160     58159     58161
     58163     58162     58164     58166     58165     58167     58169     58168     58170
     58172     58171     58173     58175     58174     58176     58178     58177     58179
     58181     58180     58182     58184     58183     58185     58187     58186     58188
     58190     58189     58191     58193     58192     58194     58196     58195     58197
     58199     58198     58200     58202     58201     58203     58205     58204     58206
     58208     58207     58209     58211     58210     58212     58214     58213     58215
     58217     58216     58218     58220     58219     58221     58223     58222     58224
     58226     58225     58227     58229     58228     58230     58232     58231     58233
     58235     58234     58236     58238     58237     58239     58241     58240     58242
     58244     58243     58245     58247     58246     58248     58250     58249     58251
     58253     58252     58254     58256     58255     58257     58259     58258     58260
     58262     58261     58263     58265     58264     58266     58268     58267     58269
     58271     58270     58272     58274     58273     58275     58277     58276     58278
     58280     58279     58281     58283     58282     58284     58286     58285     58287
     58289     58288     58290     58292     58291     58293     58295     58294     58296
     58298     58297     58299     58301     58300     58302     58304     58303     58305
     58307     58306     58308     58310     58309     58311     58313     58312     58314
     58316     58315     58317     58319     58318     58320     58322     58321     58323
     58325     58324     58326     58328     58327     58329     58331     58330     58332
     58334     58333     58335     58337     58336     58338     58340     58339     58341
     58343     58342     58344     58346     58345     58347     58349     58348     58350
     58352     58351     58353     58355     58354     58356     58358     58357     58359
     58361     58360     58362     58364     58363     58365     58367     58366     58368
     58370     58369     58371     58373     58372     58374     58376     58375     58377
     58379     58378     58380     58382     58381     58383     58385     58384     58386
     58388     58387     58389     58391     58390     58392     58394     58393     58395
     58397     58396     58398     58400     58399     58401     58403     58402     58404
     58406     58405     58407     58409     58408     58410     58412     58411     58413
     58415     58414     58416     58418     58417     58419     58421     58420     58422
     58424     58423     58425     58427     58426     58428     58430     58429     58431
     58433     58432     58434     58436     58435     58437     58439     58438     58440
     58442     58441     58443     58445     58444     58446     58448     58447     58449
     58451     58450     58452     58454     58453     58455     58457     58456     58458
     58460     58459     58461     58463     58462     58464     58466     58465     58467
     58469     58468     58470     58472     58471     58473     58475     58474     58476
     58478     58477     58479     58481     58480     58482     58484     58483     58485
     58487     58486     58488     58490     58489     58491     58493     58492     58494
     58496     58495     58497     58499     58498     58500     58502     58501     58503
     58505     58504     58506     58508     58507     58509     58511     58510     58512
     58514     58513     58515     58517     58516     58518     58520     58519     58521
     58523     58522     58524     58526     58525     58527     58529     58528     58530
     58532     58531     58533     58535     58534     58536     58538     58537     58539
     58541     58540     58542     58544     58543     58545     58547     58546     58548
     58550     58549     58551     58553     58552     58554     58556     58555     58557
     58559     58558     58560     58562     58561     58563     58565     58564     58566
     58568     58567     58569     58571     58570     58572     58574     58573     58575
     58577     58576     58578     58580     58579     58581     58583     58582     58584
     58586     58585     58587     58589     58588     58590     58592     58591     58593
     58595     58594     58596     58598     58597     58599     58601     58600     58602
     58604     58603     58605     58607     58606     58608     58610     58609     58611
     58613     58612     58614     58616     58615     58617     58619     58618     58620
     58622     58621     58623     58625     58624     58626     58628     58627     58629
     58631     58630     58632     58634     58633     58635     58637     58636     58638
     58640     58639     58641     58643     58642     58644     58646     58645     58647
     58649     58648     58650     58652     58651     58653     58655     58654     58656
     58658     58657     58659     58661     58660     58662     58664     58663     58665
     58667     58666     58668     58670     58669     58671     58673     58672     58674
     58676     58675     58677     58679     58678     58680     58682     58681     58683
     58685     58684     58686     58688     58687     58689     58691     58690     58692
     58694     58693     58695     58697     58696     58698     58700     58699     58701
     58703     58702     58704     58706     58705     58707     58709     58708     58710
     58712     58711     58713     58715     58714     58716     58718     58717     58719
     58721     58720     58722     58724     58723     58725     58727     58726     58728
     58730     58729     58731     58733     58732     58734     58736     58735     58737
     58739     58738     58740     58742     58741     58743     58745     58744     58746
     58748     58747     58749     58751     58750     58752     58754     58753     58755
     58757     58756     58758     58760     58759     58761     58763     58762     58764
     58766     58765     58767     58769     58768     58770     58772     58771     58773
     58775     58774     58776     58778     58777     58779     58781     58780     58782
     58784     58783     58785     58787     58786     58788     58790     58789     58791
     58793     58792     58794     58796     58795     58797     58799     58798     58800
     58802     58801     58803     58805     58804     58806     58808     58807     58809
     58811     58810     58812     58814     58813     58815     58817     58816     58818
     58820     58819     58821     58823     58822     58824     58826     58825     58827
     58829     58828     58830     58832     58831     58833     58835     58834     58836
     58838     58837     58839     58841     58840     58842     58844     58843     58845
     58847     58846     58848     58850     58849     58851     58853     58852     58854
     58856     58855     58857     58859     58858     58860     58862     58861     58863
     58865     58864     58866     58868     58867     58869     58871     58870     58872
     58874     58873     58875     58877     58876     58878     58880     58879     58881
     58883     58882     58884     58886     58885     58887     58889     58888     58890
     58892     58891     58893     58895     58894     58896     58898     58897     58899
     58901     58900     58902     58904     58903     58905     58907     58906     58908
     58910     58909     58911     58913     58912     58914     58916     58915     58917
     58919     58918     58920     58922     58921     58923     58925     58924     58926
     58928     58927     58929     58931     58930     58932     58934     58933     58935
     58937     58936     58938     58940     58939     58941     58943     58942     58944
     58946     58945     58947     58949     58948     58950     58952     58951     58953
     58955     58954     58956     58958     58957     58959     58961     58960     58962
     58964     58963     58965     58967     58966     58968     58970     58969     58971
     58973     58972     58974     58976     58975     58977     58979     58978     58980
     58982     58981     58983     58985     58984     58986     58988     58987     58989
     58991     58990     58992     58994     58993     58995     58997     58996     58998
     59000     58999     59001     59003     59002     59004     59006     59005     59007
     59009     59008     59010     59012     59011     59013     59015     59014     59016
     59018     59017     59019     59021     59020     59022     59024     59023     59025
     59027     59026     59028     59030     59029     59031     59033     59032     59034
     59036     59035     59037     59039     59038     59040     59042     59041     59043
     59045     59044     59046     59048     59047     59049     59051     59050     59052
     59054     59053     59055     59057     59056     59058     59060     59059     59061
     59063     59062     59064     59066     59065     59067     59069     59068     59070
     59072     59071     59073     59075     59074     59076     59078     59077     59079
     59081     59080     59082     59084     59083     59085     59087     59086     59088
     59090     59089     59091     59093     59092     59094     59096     59095     59097
     59099     59098     59100     59102     59101     59103     59105     59104     59106
     59108     59107     59109     59111     59110     59112     59114     59113     59115
     59117     59116     59118     59120     59119     59121     59123     59122     59124
     59126     59125     59127     59129     59128     59130     59132     59131     59133
     59135     59134     59136     59138     59137     59139     59141     59140     59142
     59144     59143     59145     59147     59146     59148     59150     59149     59151
     59153     59152     59154     59156     59155     59157     59159     59158     59160
     59162     59161     59163     59165     59164     59166     59168     59167     59169
     59171     59170     59172     59174     59173     59175     59177     59176     59178
     59180     59179     59181     59183     59182     59184     59186     59185     59187
     59189     59188     59190     59192     59191     59193     59195     59194     59196
     59198     59197     59199     59201     59200     59202     59204     59203     59205
     59207     59206     59208     59210     59209     59211     59213     59212     59214
     59216     59215     59217     59219     59218     59220     59222     59221     59223
     59225     59224     59226     59228     59227     59229     59231     59230     59232
     59234     59233     59235     59237     59236     59238     59240     59239     59241
     59243     59242     59244     59246     59245     59247     59249     59248     59250
     59252     59251     59253     59255     59254     59256     59258     59257     59259
     59261     59260     59262     59264     59263     59265     59267     59266     59268
     59270     59269     59271     59273     59272     59274     59276     59275     59277
     59279     59278     59280     59282     59281     59283     59285     59284     59286
     59288     59287     59289     59291     59290     59292     59294     59293     59295
     59297     59296     59298     59300     59299     59301     59303     59302     59304
     59306     59305     59307     59309     59308     59310     59312     59311     59313
     59315     59314     59316     59318     59317     59319     59321     59320     59322
     59324     59323     59325     59327     59326     59328     59330     59329     59331
     59333     59332     59334     59336     59335     59337     59339     59338     59340
     59342     59341     59343     59345     59344     59346     59348     59347     59349
     59351     59350     59352     59354     59353     59355     59357     59356     59358
     59360     59359     59361     59363     59362     59364     59366     59365     59367
     59369     59368     59370     59372     59371     59373     59375     59374     59376
     59378     59377     59379     59381     59380     59382     59384     59383     59385
     59387     59386     59388     59390     59389     59391     59393     59392     59394
     59396     59395     59397     59399     59398     59400     59402     59401     59403
     59405     59404     59406     59408     59407     59409     59411     59410     59412
     59414     59413     59415     59417     59416     59418     59420     59419     59421
     59423     59422     59424     59426     59425     59427     59429     59428     59430
     59432     59431     59433     59435     59434     59436     59438     59437     59439
     59441     59440     59442     59444     59443     59445     59447     59446     59448
     59450     59449     59451     59453     59452     59454     59456     59455     59457
     59459     59458     59460     59462     59461     59463     59465     59464     59466
     59468     59467     59469     59471     59470     59472     59474     59473     59475
     59477     59476     59478     59480     59479     59481     59483     59482     59484
     59486     59485     59487     59489     59488     59490     59492     59491     59493
     59495     59494     59496     59498     59497     59499     59501     59500     59502
     59504     59503     59505     59507     59506     59508     59510     59509     59511
     59513     59512     59514     59516     59515     59517     59519     59518     59520
     59522     59521     59523     59525     59524     59526     59528     59527     59529
     59531     59530     59532     59534     59533     59535     59537     59536     59538
     59540     59539     59541     59543     59542     59544     59546     59545     59547
     59549     59548     59550     59552     59551     59553     59555     59554     59556
     59558     59557     59559     59561     59560     59562     59564     59563     59565
     59567     59566     59568     59570     59569     59571     59573     59572     59574
     59576     59575     59577     59579     59578     59580     59582     59581     59583
     59585     59584     59586     59588     59587     59589     59591     59590     59592
     59594     59593     59595     59597     59596     59598     59600     59599     59601
     59603     59602     59604     59606     59605     59607     59609     59608     59610
     59612     59611     59613     59615     59614     59616     59618     59617     59619
     59621     59620     59622     59624     59623     59625     59627     59626     59628
     59630     59629     59631     59633     59632     59634     59636     59635     59637
     59639     59638     59640     59642     59641     59643     59645     59644     59646
     59648     59647     59649     59651     59650     59652     59654     59653     59655
     59657     59656     59658     59660     59659     59661     59663     59662     59664
     59666     59665     59667     59669     59668     59670     59672     59671     59673
     59675     59674     59676     59678     59677     59679     59681     59680     59682
     59684     59683     59685     59687     59686     59688     59690     59689     59691
     59693     59692     59694     59696     59695     59697     59699     59698     59700
     59702     59701     59703     59705     59704     59706     59708     59707     59709
     59711     59710     59712     59714     59713     59715     59717     59716     59718
     59720     59719     59721     59723     59722     59724     59726     59725     59727
     59729     59728     59730     59732     59731     59733     59735     59734     59736
     59738     59737     59739     59741     59740     59742     59744     59743     59745
     59747     59746     59748     59750     59749     59751     59753     59752     59754
     59756     59755     59757     59759     59758     59760     59762     59761     59763
     59765     59764     59766     59768     59767     59769     59771     59770     59772
     59774     59773     59775     59777     59776     59778     59780     59779     59781
     59783     59782     59784     59786     59785     59787     59789     59788     59790
     59792     59791     59793     59795     59794     59796     59798     59797     59799
     59801     59800     59802     59804     59803     59805     59807     59806     59808
     59810     59809     59811     59813     59812     59814     59816     59815     59817
     59819     59818     59820     59822     59821     59823     59825     59824     59826
     59828     59827     59829     59831     59830     59832     59834     59833     59835
     59837     59836     59838     59840     59839     59841     59843     59842     59844
     59846     59845     59847     59849     59848     59850     59852     59851     59853
     59855     59854     59856     59858     59857     59859     59861     59860     59862
     59864     59863     59865     59867     59866     59868     59870     59869     59871
     59873     59872     59874     59876     59875     59877     59879     59878     59880
     59882     59881     59883     59885     59884     59886     59888     59887     59889
     59891     59890     59892     59894     59893     59895     59897     59896     59898
     59900     59899     59901     59903     59902     59904     59906     59905     59907
     59909     59908     59910     59912     59911     59913     59915     59914     59916
     59918     59917     59919     59921     59920     59922     59924     59923     59925
     59927     59926     59928     59930     59929     59931     59933     59932     59934
     59936     59935     59937     59939     59938     59940     59942     59941     59943
     59945     59944     59946     59948     59947     59949     59951     59950     59952
     59954     59953     59955     59957     59956     59958     59960     59959     59961
     59963     59962     59964     59966     59965     59967     59969     59968     59970
     59972     59971     59973     59975     59974     59976     59978     59977     59979
     59981     59980     59982     59984     59983     59985     59987     59986     59988
     59990     59989     59991     59993     59992     59994     59996     59995     59997
     59999     59998     60000     60002     60001     60003     60005     60004     60006
     60008     60007     60009     60011     60010     60012     60014     60013     60015
     60017     60016     60018     60020     60019     60021     60023     60022     60024
     60026     60025     60027     60029     60028     60030     60032     60031     60033
     60035     60034     60036     60038     60037     60039     60041     60040     60042
     60044     60043     60045     60047     60046     60048     60050     60049     60051
     60053     60052     60054     60056     60055     60057     60059     60058     60060
     60062     60061     60063     60065     60064     60066     60068     60067     60069
     60071     60070     60072     60074     60073     60075     60077     60076     60078
     60080     60079     60081     60083     60082     60084     60086     60085     60087
     60089     60088     60090     60092     60091     60093     60095     60094     60096
     60098     60097     60099     60101     60100     60102     60104     60103     60105
     60107     60106     60108     60110     60109     60111     60113     60112     60114
     60116     60115     60117     60119     60118     60120     60122     60121     60123
     60125     60124     60126     60128     60127     60129     60131     60130     60132
     60134     60133     60135     60137     60136     60138     60140     60139     60141
     60143     60142     60144     60146     60145     60147     60149     60148     60150
     60152     60151     60153     60155     60154     60156     60158     60157     60159
     60161     60160     60162     60164     60163     60165     60167     60166     60168
     60170     60169     60171     60173     60172     60174     60176     60175     60177
     60179     60178     60180     60182     60181     60183     60185     60184     60186
     60188     60187     60189     60191     60190     60192     60194     60193     60195
     60197     60196     60198     60200     60199     60201     60203     60202     60204
     60206     60205     60207     60209     60208     60210     60212     60211     60213
     60215     60214     60216     60218     60217     60219     60221     60220     60222
     60224     60223     60225     60227     60226     60228     60230     60229     60231
     60233     60232     60234     60236     60235     60237     60239     60238     60240
     60242     60241     60243     60245     60244     60246     60248     60247     60249
     60251     60250     60252     60254     60253     60255     60257     60256     60258
     60260     60259     60261     60263     60262     60264     60266     60265     60267
     60269     60268     60270     60272     60271     60273     60275     60274     60276
     60278     60277     60279     60281     60280     60282     60284     60283     60285
     60287     60286     60288     60290     60289     60291     60293     60292     60294
     60296     60295     60297     60299     60298     60300     60302     60301     60303
     60305     60304     60306     60308     60307     60309     60311     60310     60312
     60314     60313     60315     60317     60316     60318     60320     60319     60321
     60323     60322     60324     60326     60325     60327     60329     60328     60330
     60332     60331     60333     60335     60334     60336     60338     60337     60339
     60341     60340     60342     60344     60343     60345     60347     60346     60348
     60350     60349     60351     60353     60352     60354     60356     60355     60357
     60359     60358     60360     60362     60361     60363     60365     60364     60366
     60368     60367     60369     60371     60370     60372     60374     60373     60375
     60377     60376     60378     60380     60379     60381     60383     60382     60384
     60386     60385     60387     60389     60388     60390     60392     60391     60393
     60395     60394     60396     60398     60397     60399     60401     60400     60402
     60404     60403     60405     60407     60406     60408     60410     60409     60411
     60413     60412     60414     60416     60415     60417     60419     60418     60420
     60422     60421     60423     60425     60424     60426     60428     60427     60429
     60431     60430     60432     60434     60433     60435     60437     60436     60438
     60440     60439     60441     60443     60442     60444     60446     60445     60447
     60449     60448     60450     60452     60451     60453     60455     60454     60456
     60458     60457     60459     60461     60460     60462     60464     60463     60465
     60467     60466     60468     60470     60469     60471     60473     60472     60474
     60476     60475     60477     60479     60478     60480     60482     60481     60483
     60485     60484     60486     60488     60487     60489     60491     60490     60492
     60494     60493     60495     60497     60496     60498     60500     60499     60501
     60503     60502     60504     60506     60505     60507     60509     60508     60510
     60512     60511     60513     60515     60514     60516     60518     60517     60519
     60521     60520     60522     60524     60523     60525     60527     60526     60528
     60530     60529     60531     60533     60532     60534     60536     60535     60537
     60539     60538     60540     60542     60541     60543     60545     60544     60546
     60548     60547     60549     60551     60550     60552     60554     60553     60555
     60557     60556     60558     60560     60559     60561     60563     60562     60564
     60566     60565     60567     60569     60568     60570     60572     60571     60573
     60575     60574     60576     60578     60577     60579     60581     60580     60582
     60584     60583     60585     60587     60586     60588     60590     60589     60591
     60593     60592     60594     60596     60595     60597     60599     60598     60600
     60602     60601     60603     60605     60604     60606     60608     60607     60609
     60611     60610     60612     60614     60613     60615     60617     60616     60618
     60620     60619     60621     60623     60622     60624     60626     60625     60627
     60629     60628     60630     60632     60631     60633     60635     60634     60636
     60638     60637     60639     60641     60640     60642     60644     60643     60645
     60647     60646     60648     60650     60649     60651     60653     60652     60654
     60656     60655     60657     60659     60658     60660     60662     60661     60663
     60665     60664     60666     60668     60667     60669     60671     60670     60672
     60674     60673     60675     60677     60676     60678     60680     60679     60681
     60683     60682     60684     60686     60685     60687     60689     60688     60690
     60692     60691     60693     60695     60694     60696     60698     60697     60699
     60701     60700     60702     60704     60703     60705     60707     60706     60708
     60710     60709     60711     60713     60712     60714     60716     60715     60717
     60719     60718     60720     60722     60721     60723     60725     60724     60726
     60728     60727     60729     60731     60730     60732     60734     60733     60735
     60737     60736     60738     60740     60739     60741     60743     60742     60744
     60746     60745     60747     60749     60748     60750     60752     60751     60753
     60755     60754     60756     60758     60757     60759     60761     60760     60762
     60764     60763     60765     60767     60766     60768     60770     60769     60771
     60773     60772     60774     60776     60775     60777     60779     60778     60780
     60782     60781     60783     60785     60784     60786     60788     60787     60789
     60791     60790     60792     60794     60793     60795     60797     60796     60798
     60800     60799     60801     60803     60802     60804     60806     60805     60807
     60809     60808     60810     60812     60811     60813     60815     60814     60816
     60818     60817     60819     60821     60820     60822     60824     60823     60825
     60827     60826     60828     60830     60829     60831     60833     60832     60834
     60836     60835     60837     60839     60838     60840     60842     60841     60843
     60845     60844     60846     60848     60847     60849     60851     60850     60852
     60854     60853     60855     60857     60856     60858     60860     60859     60861
     60863     60862     60864     60866     60865     60867     60869     60868     60870
     60872     60871     60873     60875     60874     60876     60878     60877     60879
     60881     60880     60882     60884     60883     60885     60887     60886     60888
     60890     60889     60891     60893     60892     60894     60896     60895     60897
     60899     60898     60900     60902     60901     60903     60905     60904     60906
     60908     60907     60909     60911     60910     60912     60914     60913     60915
     60917     60916     60918     60920     60919     60921     60923     60922     60924
     60926     60925     60927     60929     60928     60930     60932     60931     60933
     60935     60934     60936     60938     60937     60939     60941     60940     60942
     60944     60943     60945     60947     60946     60948     60950     60949     60951
     60953     60952     60954     60956     60955     60957     60959     60958     60960
     60962     60961     60963     60965     60964     60966     60968     60967     60969
     60971     60970     60972     60974     60973     60975     60977     60976     60978
     60980     60979     60981     60983     60982     60984     60986     60985     60987
     60989     60988     60990     60992     60991     60993     60995     60994     60996
     60998     60997     60999     61001     61000     61002     61004     61003     61005
     61007     61006     61008     61010     61009     61011     61013     61012     61014
     61016     61015     61017     61019     61018     61020     61022     61021     61023
     61025     61024     61026     61028     61027     61029     61031     61030     61032
     61034     61033     61035     61037     61036     61038     61040     61039     61041
     61043     61042     61044     61046     61045     61047     61049     61048     61050
     61052     61051     61053     61055     61054     61056     61058     61057     61059
     61061     61060     61062     61064     61063     61065     61067     61066     61068
     61070     61069     61071     61073     61072     61074     61076     61075     61077
     61079     61078     61080     61082     61081     61083     61085     61084     61086
     61088     61087     61089     61091     61090     61092     61094     61093     61095
     61097     61096     61098     61100     61099     61101     61103     61102     61104
     61106     61105     61107     61109     61108     61110     61112     61111     61113
     61115     61114     61116     61118     61117     61119     61121     61120     61122
     61124     61123     61125     61127     61126     61128     61130     61129     61131
     61133     61132     61134     61136     61135     61137     61139     61138     61140
     61142     61141     61143     61145     61144     61146     61148     61147     61149
     61151     61150     61152     61154     61153     61155     61157     61156     61158
     61160     61159     61161     61163     61162     61164     61166     61165     61167
     61169     61168     61170     61172     61171     61173     61175     61174     61176
     61178     61177     61179     61181     61180     61182     61184     61183     61185
     61187     61186     61188     61190     61189     61191     61193     61192     61194
     61196     61195     61197     61199     61198     61200     61202     61201     61203
     61205     61204     61206     61208     61207     61209     61211     61210     61212
     61214     61213     61215     61217     61216     61218     61220     61219     61221
     61223     61222     61224     61226     61225     61227     61229     61228     61230
     61232     61231     61233     61235     61234     61236     61238     61237     61239
     61241     61240     61242     61244     61243     61245     61247     61246     61248
     61250     61249     61251     61253     61252     61254     61256     61255     61257
     61259     61258     61260     61262     61261     61263     61265     61264     61266
     61268     61267     61269     61271     61270     61272     61274     61273     61275
     61277     61276     61278     61280     61279     61281     61283     61282     61284
     61286     61285     61287     61289     61288     61290     61292     61291     61293
     61295     61294     61296     61298     61297     61299     61301     61300     61302
     61304     61303     61305     61307     61306     61308     61310     61309     61311
     61313     61312     61314     61316     61315     61317     61319     61318     61320
     61322     61321     61323     61325     61324     61326     61328     61327     61329
     61331     61330     61332     61334     61333     61335     61337     61336     61338
     61340     61339     61341     61343     61342     61344     61346     61345     61347
     61349     61348     61350     61352     61351     61353     61355     61354     61356
     61358     61357     61359     61361     61360     61362     61364     61363     61365
     61367     61366     61368     61370     61369     61371     61373     61372     61374
     61376     61375     61377     61379     61378     61380     61382     61381     61383
     61385     61384     61386     61388     61387     61389     61391     61390     61392
     61394     61393     61395     61397     61396     61398     61400     61399     61401
     61403     61402     61404     61406     61405     61407     61409     61408     61410
     61412     61411     61413     61415     61414     61416     61418     61417     61419
     61421     61420     61422     61424     61423     61425     61427     61426     61428
     61430     61429     61431     61433     61432     61434     61436     61435     61437
     61439     61438     61440     61442     61441     61443     61445     61444     61446
     61448     61447     61449     61451     61450     61452     61454     61453     61455
     61457     61456     61458     61460     61459     61461     61463     61462     61464
     61466     61465     61467     61469     61468     61470     61472     61471     61473
     61475     61474     61476     61478     61477     61479     61481     61480     61482
     61484     61483     61485     61487     61486     61488     61490     61489     61491
     61493     61492     61494     61496     61495     61497     61499     61498     61500
     61502     61501     61503     61505     61504     61506     61508     61507     61509
     61511     61510     61512     61514     61513     61515     61517     61516     61518
     61520     61519     61521     61523     61522     61524     61526     61525     61527
     61529     61528     61530     61532     61531     61533     61535     61534     61536
     61538     61537     61539     61541     61540     61542     61544     61543     61545
     61547     61546     61548     61550     61549     61551     61553     61552     61554
     61556     61555     61557     61559     61558     61560     61562     61561     61563
     61565     61564     61566     61568     61567     61569     61571     61570     61572
     61574     61573     61575     61577     61576     61578     61580     61579     61581
     61583     61582     61584     61586     61585     61587     61589     61588     61590
     61592     61591     61593     61595     61594     61596     61598     61597     61599
     61601     61600     61602     61604     61603     61605     61607     61606     61608
     61610     61609     61611     61613     61612     61614     61616     61615     61617
     61619     61618     61620     61622     61621     61623     61625     61624     61626
     61628     61627     61629     61631     61630     61632     61634     61633     61635
     61637     61636     61638     61640     61639     61641     61643     61642     61644
     61646     61645     61647     61649     61648     61650     61652     61651     61653
     61655     61654     61656     61658     61657     61659     61661     61660     61662
     61664     61663     61665     61667     61666     61668     61670     61669     61671
     61673     61672     61674     61676     61675     61677     61679     61678     61680
     61682     61681     61683     61685     61684     61686     61688     61687     61689
     61691     61690     61692     61694     61693     61695     61697     61696     61698
     61700     61699     61701     61703     61702     61704     61706     61705     61707
     61709     61708     61710     61712     61711     61713     61715     61714     61716
     61718     61717     61719     61721     61720     61722     61724     61723     61725
     61727     61726     61728     61730     61729     61731     61733     61732     61734
     61736     61735     61737     61739     61738     61740     61742     61741     61743
     61745     61744     61746     61748     61747     61749     61751     61750     61752
     61754     61753     61755     61757     61756     61758     61760     61759     61761
     61763     61762     61764     61766     61765     61767     61769     61768     61770
     61772     61771     61773     61775     61774     61776     61778     61777     61779
     61781     61780     61782     61784     61783     61785     61787     61786     61788
     61790     61789     61791     61793     61792     61794     61796     61795     61797
     61799     61798     61800     61802     61801     61803     61805     61804     61806
     61808     61807     61809     61811     61810     61812     61814     61813     61815
     61817     61816     61818     61820     61819     61821     61823     61822     61824
     61826     61825     61827     61829     61828     61830     61832     61831     61833
     61835     61834     61836     61838     61837     61839     61841     61840     61842
     61844     61843     61845     61847     61846     61848     61850     61849     61851
     61853     61852     61854     61856     61855     61857     61859     61858     61860
     61862     61861     61863     61865     61864     61866     61868     61867     61869
     61871     61870     61872     61874     61873     61875     61877     61876     61878
     61880     61879     61881     61883     61882     61884     61886     61885     61887
     61889     61888     61890     61892     61891     61893     61895     61894     61896
     61898     61897     61899     61901     61900     61902     61904     61903     61905
     61907     61906     61908     61910     61909     61911     61913     61912     61914
     61916     61915     61917     61919     61918     61920     61922     61921     61923
     61925     61924     61926     61928     61927     61929     61931     61930     61932
     61934     61933     61935     61937     61936     61938     61940     61939     61941
     61943     61942     61944     61946     61945     61947     61949     61948     61950
     61952     61951     61953     61955     61954     61956     61958     61957     61959
     61961     61960     61962     61964     61963     61965     61967     61966     61968
     61970     61969     61971     61973     61972     61974     61976     61975     61977
     61979     61978     61980     61982     61981     61983     61985     61984     61986
     61988     61987     61989     61991     61990     61992     61994     61993     61995
     61997     61996     61998     62000     61999     62001     62003     62002     62004
     62006     62005     62007     62009     62008     62010     62012     62011     62013
     62015     62014     62016     62018     62017     62019     62021     62020     62022
     62024     62023     62025     62027     62026     62028     62030     62029     62031
     62033     62032     62034     62036     62035     62037     62039     62038     62040
     62042     62041     62043     62045     62044     62046     62048     62047     62049
     62051     62050     62052     62054     62053     62055     62057     62056     62058
     62060     62059     62061     62063     62062     62064     62066     62065     62067
     62069     62068     62070     62072     62071     62073     62075     62074     62076
     62078     62077     62079     62081     62080     62082     62084     62083     62085
     62087     62086     62088     62090     62089     62091     62093     62092     62094
     62096     62095     62097     62099     62098     62100     62102     62101     62103
     62105     62104     62106     62108     62107     62109     62111     62110     62112
     62114     62113     62115     62117     62116     62118     62120     62119     62121
     62123     62122     62124     62126     62125     62127     62129     62128     62130
     62132     62131     62133     62135     62134     62136     62138     62137     62139
     62141     62140     62142     62144     62143     62145     62147     62146     62148
     62150     62149     62151     62153     62152     62154     62156     62155     62157
     62159     62158     62160     62162     62161     62163     62165     62164     62166
     62168     62167     62169     62171     62170     62172     62174     62173     62175
     62177     62176     62178     62180     62179     62181     62183     62182     62184
     62186     62185     62187     62189     62188     62190     62192     62191     62193
     62195     62194     62196     62198     62197     62199     62201     62200     62202
     62204     62203     62205     62207     62206     62208     62210     62209     62211
     62213     62212     62214     62216     62215     62217     62219     62218     62220
     62222     62221     62223     62225     62224     62226     62228     62227     62229
     62231     62230     62232     62234     62233     62235     62237     62236     62238
     62240     62239     62241     62243     62242     62244     62246     62245     62247
     62249     62248     62250     62252     62251     62253     62255     62254     62256
     62258     62257     62259     62261     62260     62262     62264     62263     62265
     62267     62266     62268     62270     62269     62271     62273     62272     62274
     62276     62275     62277     62279     62278     62280     62282     62281     62283
     62285     62284     62286     62288     62287     62289     62291     62290     62292
     62294     62293     62295     62297     62296     62298     62300     62299     62301
     62303     62302     62304     62306     62305     62307     62309     62308     62310
     62312     62311     62313     62315     62314     62316     62318     62317     62319
     62321     62320     62322     62324     62323     62325     62327     62326     62328
     62330     62329     62331     62333     62332     62334     62336     62335     62337
     62339     62338     62340     62342     62341     62343     62345     62344     62346
     62348     62347     62349     62351     62350     62352     62354     62353     62355
     62357     62356     62358     62360     62359     62361     62363     62362     62364
     62366     62365     62367     62369     62368     62370     62372     62371     62373
     62375     62374     62376     62378     62377     62379     62381     62380     62382
     62384     62383     62385     62387     62386     62388     62390     62389     62391
     62393     62392     62394     62396     62395     62397     62399     62398     62400
     62402     62401     62403     62405     62404     62406     62408     62407     62409
     62411     62410     62412     62414     62413     62415     62417     62416     62418
     62420     62419     62421     62423     62422     62424     62426     62425     62427
     62429     62428     62430     62432     62431     62433     62435     62434     62436
     62438     62437     62439     62441     62440     62442     62444     62443     62445
     62447     62446     62448     62450     62449     62451     62453     62452     62454
     62456     62455     62457     62459     62458     62460     62462     62461     62463
     62465     62464     62466     62468     62467     62469     62471     62470     62472
     62474     62473     62475     62477     62476     62478     62480     62479     62481
     62483     62482     62484     62486     62485     62487     62489     62488     62490
     62492     62491     62493     62495     62494     62496     62498     62497     62499
     62501     62500     62502     62504     62503     62505     62507     62506     62508
     62510     62509     62511     62513     62512     62514     62516     62515     62517
     62519     62518     62520     62522     62521     62523     62525     62524     62526
     62528     62527     62529     62531     62530     62532     62534     62533     62535
     62537     62536     62538     62540     62539     62541     62543     62542     62544
     62546     62545     62547     62549     62548     62550     62552     62551     62553
     62555     62554     62556     62558     62557     62559     62561     62560     62562
     62564     62563     62565     62567     62566     62568     62570     62569     62571
     62573     62572     62574     62576     62575     62577     62579     62578     62580
     62582     62581     62583     62585     62584     62586     62588     62587     62589
     62591     62590     62592     62594     62593     62595     62597     62596     62598
     62600     62599     62601     62603     62602     62604     62606     62605     62607
     62609     62608     62610     62612     62611     62613     62615     62614     62616
     62618     62617     62619     62621     62620     62622     62624     62623     62625
     62627     62626     62628     62630     62629     62631     62633     62632     62634
     62636     62635     62637     62639     62638     62640     62642     62641     62643
     62645     62644     62646     62648     62647     62649     62651     62650     62652
     62654     62653     62655     62657     62656     62658     62660     62659     62661
     62663     62662     62664     62666     62665     62667     62669     62668     62670
     62672     62671     62673     62675     62674     62676     62678     62677     62679
     62681     62680     62682     62684     62683     62685     62687     62686     62688
     62690     62689     62691     62693     62692     62694     62696     62695     62697
     62699     62698     62700     62702     62701     62703     62705     62704     62706
     62708     62707     62709     62711     62710     62712     62714     62713     62715
     62717     62716     62718     62720     62719     62721     62723     62722     62724
     62726     62725     62727     62729     62728     62730     62732     62731     62733
     62735     62734     62736     62738     62737     62739     62741     62740     62742
     62744     62743     62745     62747     62746     62748     62750     62749     62751
     62753     62752     62754     62756     62755     62757     62759     62758     62760
     62762     62761     62763     62765     62764     62766     62768     62767     62769
     62771     62770     62772     62774     62773     62775     62777     62776     62778
     62780     62779     62781     62783     62782     62784     62786     62785     62787
     62789     62788     62790     62792     62791     62793     62795     62794     62796
     62798     62797     62799     62801     62800     62802     62804     62803     62805
     62807     62806     62808     62810     62809     62811     62813     62812     62814
     62816     62815     62817     62819     62818     62820     62822     62821     62823
     62825     62824     62826     62828     62827     62829     62831     62830     62832
     62834     62833     62835     62837     62836     62838     62840     62839     62841
     62843     62842     62844     62846     62845     62847     62849     62848     62850
     62852     62851     62853     62855     62854     62856     62858     62857     62859
     62861     62860     62862     62864     62863     62865     62867     62866     62868
     62870     62869     62871     62873     62872     62874     62876     62875     62877
     62879     62878     62880     62882     62881     62883     62885     62884     62886
     62888     62887     62889     62891     62890     62892     62894     62893     62895
     62897     62896     62898     62900     62899     62901     62903     62902     62904
     62906     62905     62907     62909     62908     62910     62912     62911     62913
     62915     62914     62916     62918     62917     62919     62921     62920     62922
     62924     62923     62925     62927     62926     62928     62930     62929     62931
     62933     62932     62934     62936     62935     62937     62939     62938     62940
     62942     62941     62943     62945     62944     62946     62948     62947     62949
     62951     62950     62952     62954     62953     62955     62957     62956     62958
     62960     62959     62961     62963     62962     62964     62966     62965     62967
     62969     62968     62970     62972     62971     62973     62975     62974     62976
     62978     62977     62979     62981     62980     62982     62984     62983     62985
     62987     62986     62988     62990     62989     62991     62993     62992     62994
     62996     62995     62997     62999     62998     63000     63002     63001     63003
     63005     63004     63006     63008     63007     63009     63011     63010     63012
     63014     63013     63015     63017     63016     63018     63020     63019     63021
     63023     63022     63024     63026     63025     63027     63029     63028     63030
     63032     63031     63033     63035     63034     63036     63038     63037     63039
     63041     63040     63042     63044     63043     63045     63047     63046     63048
     63050     63049     63051     63053     63052     63054     63056     63055     63057
     63059     63058     63060     63062     63061     63063     63065     63064     63066
     63068     63067     63069     63071     63070     63072     63074     63073     63075
     63077     63076     63078     63080     63079     63081     63083     63082     63084
     63086     63085     63087     63089     63088     63090     63092     63091     63093
     63095     63094     63096     63098     63097     63099     63101     63100     63102
     63104     63103     63105     63107     63106     63108     63110     63109     63111
     63113     63112     63114     63116     63115     63117     63119     63118     63120
     63122     63121     63123     63125     63124     63126     63128     63127     63129
     63131     63130     63132     63134     63133     63135     63137     63136     63138
     63140     63139     63141     63143     63142     63144     63146     63145     63147
     63149     63148     63150     63152     63151     63153     63155     63154     63156
     63158     63157     63159     63161     63160     63162     63164     63163     63165
     63167     63166     63168     63170     63169     63171     63173     63172     63174
     63176     63175     63177     63179     63178     63180     63182     63181     63183
     63185     63184     63186     63188     63187     63189     63191     63190     63192
     63194     63193     63195     63197     63196     63198     63200     63199     63201
     63203     63202     63204     63206     63205     63207     63209     63208     63210
     63212     63211     63213     63215     63214     63216     63218     63217     63219
     63221     63220     63222     63224     63223     63225     63227     63226     63228
     63230     63229     63231     63233     63232     63234     63236     63235     63237
     63239     63238     63240     63242     63241     63243     63245     63244     63246
     63248     63247     63249     63251     63250     63252     63254     63253     63255
     63257     63256     63258     63260     63259     63261     63263     63262     63264
     63266     63265     63267     63269     63268     63270     63272     63271     63273
     63275     63274     63276     63278     63277     63279     63281     63280     63282
     63284     63283     63285     63287     63286     63288     63290     63289     63291
     63293     63292     63294     63296     63295     63297     63299     63298     63300
     63302     63301     63303     63305     63304     63306     63308     63307     63309
     63311     63310     63312     63314     63313     63315     63317     63316     63318
     63320     63319     63321     63323     63322     63324     63326     63325     63327
     63329     63328     63330     63332     63331     63333     63335     63334     63336
     63338     63337     63339     63341     63340     63342     63344     63343     63345
     63347     63346     63348     63350     63349     63351     63353     63352     63354
     63356     63355     63357     63359     63358     63360     63362     63361     63363
     63365     63364     63366     63368     63367     63369     63371     63370     63372
     63374     63373     63375     63377     63376     63378     63380     63379     63381
     63383     63382     63384     63386     63385     63387     63389     63388     63390
     63392     63391     63393     63395     63394     63396     63398     63397     63399
     63401     63400     63402     63404     63403     63405     63407     63406     63408
     63410     63409     63411     63413     63412     63414     63416     63415     63417
     63419     63418     63420     63422     63421     63423     63425     63424     63426
     63428     63427     63429     63431     63430     63432     63434     63433     63435
     63437     63436     63438     63440     63439     63441     63443     63442     63444
     63446     63445     63447     63449     63448     63450     63452     63451     63453
     63455     63454     63456     63458     63457     63459     63461     63460     63462
     63464     63463     63465     63467     63466     63468     63470     63469     63471
     63473     63472     63474     63476     63475     63477     63479     63478     63480
     63482     63481     63483     63485     63484     63486     63488     63487     63489
     63491     63490     63492     63494     63493     63495     63497     63496     63498
     63500     63499     63501     63503     63502     63504     63506     63505     63507
     63509     63508     63510     63512     63511     63513     63515     63514     63516
     63518     63517     63519     63521     63520     63522     63524     63523     63525
     63527     63526     63528     63530     63529     63531     63533     63532     63534
     63536     63535     63537     63539     63538     63540     63542     63541     63543
     63545     63544     63546     63548     63547     63549     63551     63550     63552
     63554     63553     63555     63557     63556     63558     63560     63559     63561
     63563     63562     63564     63566     63565     63567     63569     63568     63570
     63572     63571     63573     63575     63574     63576     63578     63577     63579
     63581     63580     63582     63584     63583     63585     63587     63586     63588
     63590     63589     63591     63593     63592     63594     63596     63595     63597
     63599     63598     63600     63602     63601     63603     63605     63604     63606
     63608     63607     63609     63611     63610     63612     63614     63613     63615
     63617     63616     63618     63620     63619     63621     63623     63622     63624
     63626     63625     63627     63629     63628     63630     63632     63631     63633
     63635     63634     63636     63638     63637     63639     63641     63640     63642
     63644     63643     63645     63647     63646     63648     63650     63649     63651
     63653     63652     63654     63656     63655     63657     63659     63658     63660
     63662     63661     63663     63665     63664     63666     63668     63667     63669
     63671     63670     63672     63674     63673     63675     63677     63676     63678
     63680     63679     63681     63683     63682     63684     63686     63685     63687
     63689     63688     63690     63692     63691     63693     63695     63694     63696
     63698     63697     63699     63701     63700     63702     63704     63703     63705
     63707     63706     63708     63710     63709     63711     63713     63712     63714
     63716     63715     63717     63719     63718     63720     63722     63721     63723
     63725     63724     63726     63728     63727     63729     63731     63730     63732
     63734     63733     63735     63737     63736     63738     63740     63739     63741
     63743     63742     63744     63746     63745     63747     63749     63748     63750
     63752     63751     63753     63755     63754     63756     63758     63757     63759
     63761     63760     63762     63764     63763     63765     63767     63766     63768
     63770     63769     63771     63773     63772     63774     63776     63775     63777
     63779     63778     63780     63782     63781     63783     63785     63784     63786
     63788     63787     63789     63791     63790     63792     63794     63793     63795
     63797     63796     63798     63800     63799     63801     63803     63802     63804
     63806     63805     63807     63809     63808     63810     63812     63811     63813
     63815     63814     63816     63818     63817     63819     63821     63820     63822
     63824     63823     63825     63827     63826     63828     63830     63829     63831
     63833     63832     63834     63836     63835     63837     63839     63838     63840
     63842     63841     63843     63845     63844     63846     63848     63847     63849
     63851     63850     63852     63854     63853     63855     63857     63856     63858
     63860     63859     63861     63863     63862     63864     63866     63865     63867
     63869     63868     63870     63872     63871     63873     63875     63874     63876
     63878     63877     63879     63881     63880     63882     63884     63883     63885
     63887     63886     63888     63890     63889     63891     63893     63892     63894
     63896     63895     63897     63899     63898     63900     63902     63901     63903
     63905     63904     63906     63908     63907     63909     63911     63910     63912
     63914     63913     63915     63917     63916     63918     63920     63919     63921
     63923     63922     63924     63926     63925     63927     63929     63928     63930
     63932     63931     63933     63935     63934     63936     63938     63937     63939
     63941     63940     63942     63944     63943     63945     63947     63946     63948
     63950     63949     63951     63953     63952     63954     63956     63955     63957
     63959     63958     63960     63962     63961     63963     63965     63964     63966
     63968     63967     63969     63971     63970     63972     63974     63973     63975
     63977     63976     63978     63980     63979     63981     63983     63982     63984
     63986     63985     63987     63989     63988     63990     63992     63991     63993
     63995     63994     63996     63998     63997     63999     64001     64000     64002
     64004     64003     64005     64007     64006     64008     64010     64009     64011
     64013     64012     64014     64016     64015     64017     64019     64018     64020
     64022     64021     64023     64025     64024     64026     64028     64027     64029
     64031     64030     64032     64034     64033     64035     64037     64036     64038
     64040     64039     64041     64043     64042     64044     64046     64045     64047
     64049     64048     64050     64052     64051     64053     64055     64054     64056
     64058     64057     64059     64061     64060     64062     64064     64063     64065
     64067     64066     64068     64070     64069     64071     64073     64072     64074
     64076     64075     64077     64079     64078     64080     64082     64081     64083
     64085     64084     64086     64088     64087     64089     64091     64090     64092
     64094     64093     64095     64097     64096     64098     64100     64099     64101
     64103     64102     64104     64106     64105     64107     64109     64108     64110
     64112     64111     64113     64115     64114     64116     64118     64117     64119
     64121     64120     64122     64124     64123     64125     64127     64126     64128
     64130     64129     64131     64133     64132     64134     64136     64135     64137
     64139     64138     64140     64142     64141     64143     64145     64144     64146
     64148     64147     64149     64151     64150     64152     64154     64153     64155
     64157     64156     64158     64160     64159     64161     64163     64162     64164
     64166     64165     64167     64169     64168     64170     64172     64171     64173
     64175     64174     64176     64178     64177     64179     64181     64180     64182
     64184     64183     64185     64187     64186     64188     64190     64189     64191
     64193     64192     64194     64196     64195     64197     64199     64198     64200
     64202     64201     64203     64205     64204     64206     64208     64207     64209
     64211     64210     64212     64214     64213     64215     64217     64216     64218
     64220     64219     64221     64223     64222     64224     64226     64225     64227
     64229     64228     64230     64232     64231     64233     64235     64234     64236
     64238     64237     64239     64241     64240     64242     64244     64243     64245
     64247     64246     64248     64250     64249     64251     64253     64252     64254
     64256     64255     64257     64259     64258     64260     64262     64261     64263
     64265     64264     64266     64268     64267     64269     64271     64270     64272
     64274     64273     64275     64277     64276     64278     64280     64279     64281
     64283     64282     64284     64286     64285     64287     64289     64288     64290
     64292     64291     64293     64295     64294     64296     64298     64297     64299
     64301     64300     64302     64304     64303     64305     64307     64306     64308
     64310     64309     64311     64313     64312     64314     64316     64315     64317
     64319     64318     64320     64322     64321     64323     64325     64324     64326
     64328     64327     64329     64331     64330     64332     64334     64333     64335
     64337     64336     64338     64340     64339     64341     64343     64342     64344
     64346     64345     64347     64349     64348     64350     64352     64351     64353
     64355     64354     64356     64358     64357     64359     64361     64360     64362
     64364     64363     64365     64367     64366     64368     64370     64369     64371
     64373     64372     64374     64376     64375     64377     64379     64378     64380
     64382     64381     64383     64385     64384     64386     64388     64387     64389
     64391     64390     64392     64394     64393     64395     64397     64396     64398
     64400     64399     64401     64403     64402     64404     64406     64405     64407
     64409     64408     64410     64412     64411     64413     64415     64414     64416
     64418     64417     64419     64421     64420     64422     64424     64423     64425
     64427     64426     64428     64430     64429     64431     64433     64432     64434
     64436     64435     64437     64439     64438     64440     64442     64441     64443
     64445     64444     64446     64448     64447     64449     64451     64450     64452
     64454     64453     64455     64457     64456     64458     64460     64459     64461
     64463     64462     64464     64466     64465     64467     64469     64468     64470
     64472     64471     64473     64475     64474     64476     64478     64477     64479
     64481     64480     64482     64484     64483     64485     64487     64486     64488
     64490     64489     64491     64493     64492     64494     64496     64495     64497
     64499     64498     64500     64502     64501     64503     64505     64504     64506
     64508     64507     64509     64511     64510     64512     64514     64513     64515
     64517     64516     64518     64520     64519     64521     64523     64522     64524
     64526     64525     64527     64529     64528     64530     64532     64531     64533
     64535     64534     64536     64538     64537     64539     64541     64540     64542
     64544     64543     64545     64547     64546     64548     64550     64549     64551
     64553     64552     64554     64556     64555     64557     64559     64558     64560
     64562     64561     64563     64565     64564     64566     64568     64567     64569
     64571     64570     64572     64574     64573     64575     64577     64576     64578
     64580     64579     64581     64583     64582     64584     64586     64585     64587
     64589     64588     64590     64592     64591     64593     64595     64594     64596
     64598     64597     64599     64601     64600     64602     64604     64603     64605
     64607     64606     64608     64610     64609     64611     64613     64612     64614
     64616     64615     64617     64619     64618     64620     64622     64621     64623
     64625     64624     64626     64628     64627     64629     64631     64630     64632
     64634     64633     64635     64637     64636     64638     64640     64639     64641
     64643     64642     64644     64646     64645     64647     64649     64648     64650
     64652     64651     64653     64655     64654     64656     64658     64657     64659
     64661     64660     64662     64664     64663     64665     64667     64666     64668
     64670     64669     64671     64673     64672     64674     64676     64675     64677
     64679     64678     64680     64682     64681     64683     64685     64684     64686
     64688     64687     64689     64691     64690     64692     64694     64693     64695
     64697     64696     64698     64700     64699     64701     64703     64702     64704
     64706     64705     64707     64709     64708     64710     64712     64711     64713
     64715     64714     64716     64718     64717     64719     64721     64720     64722
     64724     64723     64725     64727     64726     64728     64730     64729     64731
     64733     64732     64734     64736     64735     64737     64739     64738     64740
     64742     64741     64743     64745     64744     64746     64748     64747     64749
     64751     64750     64752     64754     64753     64755     64757     64756     64758
     64760     64759     64761     64763     64762     64764     64766     64765     64767
     64769     64768     64770     64772     64771     64773     64775     64774     64776
     64778     64777     64779     64781     64780     64782     64784     64783     64785
     64787     64786     64788     64790     64789     64791     64793     64792     64794
     64796     64795     64797     64799     64798     64800     64802     64801     64803
     64805     64804     64806     64808     64807     64809     64811     64810     64812
     64814     64813     64815     64817     64816     64818     64820     64819     64821
     64823     64822     64824     64826     64825     64827     64829     64828     64830
     64832     64831     64833     64835     64834     64836     64838     64837     64839
     64841     64840     64842     64844     64843     64845     64847     64846     64848
     64850     64849     64851     64853     64852     64854     64856     64855     64857
     64859     64858     64860     64862     64861     64863     64865     64864     64866
     64868     64867     64869     64871     64870     64872     64874     64873     64875
     64877     64876     64878     64880     64879     64881     64883     64882     64884
     64886     64885     64887     64889     64888     64890     64892     64891     64893
     64895     64894     64896     64898     64897     64899     64901     64900     64902
     64904     64903     64905     64907     64906     64908     64910     64909     64911
     64913     64912     64914     64916     64915     64917     64919     64918     64920
     64922     64921     64923     64925     64924     64926     64928     64927     64929
     64931     64930     64932     64934     64933     64935     64937     64936     64938
     64940     64939     64941     64943     64942     64944     64946     64945     64947
     64949     64948     64950     64952     64951     64953     64955     64954     64956
     64958     64957     64959     64961     64960     64962     64964     64963     64965
     64967     64966     64968     64970     64969     64971     64973     64972     64974
     64976     64975     64977     64979     64978     64980     64982     64981     64983
     64985     64984     64986     64988     64987     64989     64991     64990     64992
     64994     64993     64995     64997     64996     64998     65000     64999     65001
     65003     65002     65004     65006     65005     65007     65009     65008     65010
     65012     65011     65013     65015     65014     65016     65018     65017     65019
     65021     65020     65022     65024     65023     65025     65027     65026     65028
     65030     65029     65031     65033     65032     65034     65036     65035     65037
     65039     65038     65040     65042     65041     65043     65045     65044     65046
     65048     65047     65049     65051     65050     65052     65054     65053     65055
     65057     65056     65058     65060     65059     65061     65063     65062     65064
     65066     65065     65067     65069     65068     65070     65072     65071     65073
     65075     65074     65076     65078     65077     65079     65081     65080     65082
     65084     65083     65085     65087     65086     65088     65090     65089     65091
     65093     65092     65094     65096     65095     65097     65099     65098     65100
     65102     65101     65103     65105     65104     65106     65108     65107     65109
     65111     65110     65112     65114     65113     65115     65117     65116     65118
     65120     65119     65121     65123     65122     65124     65126     65125     65127
     65129     65128     65130     65132     65131     65133     65135     65134     65136
     65138     65137     65139     65141     65140     65142     65144     65143     65145
     65147     65146     65148     65150     65149     65151     65153     65152     65154
     65156     65155     65157     65159     65158     65160     65162     65161     65163
     65165     65164     65166     65168     65167     65169     65171     65170     65172
     65174     65173     65175     65177     65176     65178     65180     65179     65181
     65183     65182     65184     65186     65185     65187     65189     65188     65190
     65192     65191     65193     65195     65194     65196     65198     65197     65199
     65201     65200     65202     65204     65203     65205     65207     65206     65208
     65210     65209     65211     65213     65212     65214     65216     65215     65217
     65219     65218     65220     65222     65221     65223     65225     65224     65226
     65228     65227     65229     65231     65230     65232     65234     65233     65235
     65237     65236     65238     65240     65239     65241     65243     65242     65244
     65246     65245     65247     65249     65248     65250     65252     65251     65253
     65255     65254     65256     65258     65257     65259     65261     65260     65262
     65264     65263     65265     65267     65266     65268     65270     65269     65271
     65273     65272     65274     65276     65275     65277     65279     65278     65280
     65282     65281     65283     65285     65284     65286     65288     65287     65289
     65291     65290     65292     65294     65293     65295     65297     65296     65298
     65300     65299     65301     65303     65302     65304     65306     65305     65307
     65309     65308     65310     65312     65311     65313     65315     65314     65316
     65318     65317     65319     65321     65320     65322     65324     65323     65325
     65327     65326     65328     65330     65329     65331     65333     65332     65334
     65336     65335     65337     65339     65338     65340     65342     65341     65343
     65345     65344     65346     65348     65347     65349     65351     65350     65352
     65354     65353     65355     65357     65356     65358     65360     65359     65361
     65363     65362     65364     65366     65365     65367     65369     65368     65370
     65372     65371     65373     65375     65374     65376     65378     65377     65379
     65381     65380     65382     65384     65383     65385     65387     65386     65388
     65390     65389     65391     65393     65392     65394     65396     65395     65397
     65399     65398     65400     65402     65401     65403     65405     65404     65406
     65408     65407     65409     65411     65410     65412     65414     65413     65415
     65417     65416     65418     65420     65419     65421     65423     65422     65424
     65426     65425     65427     65429     65428     65430     65432     65431     65433
     65435     65434     65436     65438     65437     65439     65441     65440     65442
     65444     65443     65445     65447     65446     65448     65450     65449     65451
     65453     65452     65454     65456     65455     65457     65459     65458     65460
     65462     65461     65463     65465     65464     65466     65468     65467     65469
     65471     65470     65472     65474     65473     65475     65477     65476     65478
     65480     65479     65481     65483     65482     65484     65486     65485     65487
     65489     65488     65490     65492     65491     65493     65495     65494     65496
     65498     65497     65499     65501     65500     65502     65504     65503     65505
     65507     65506     65508     65510     65509     65511     65513     65512     65514
     65516     65515     65517     65519     65518     65520     65522     65521     65523
     65525     65524     65526     65528     65527     65529     65531     65530     65532
     65534     65533     65535     65537     65536     65538     65540     65539     65541
     65543     65542     65544     65546     65545     65547     65549     65548     65550
     65552     65551     65553     65555     65554     65556     65558     65557     65559
     65561     65560     65562     65564     65563     65565     65567     65566     65568
     65570     65569     65571     65573     65572     65574     65576     65575     65577
     65579     65578     65580     65582     65581     65583     65585     65584     65586
     65588     65587     65589     65591     65590     65592     65594     65593     65595
     65597     65596     65598     65600     65599     65601     65603     65602     65604
     65606     65605     65607     65609     65608     65610     65612     65611     65613
     65615     65614     65616     65618     65617     65619     65621     65620     65622
     65624     65623     65625     65627     65626     65628     65630     65629     65631
     65633     65632     65634     65636     65635     65637     65639     65638     65640
     65642     65641     65643     65645     65644     65646     65648     65647     65649
     65651     65650     65652     65654     65653     65655     65657     65656     65658
     65660     65659     65661     65663     65662     65664     65666     65665     65667
     65669     65668     65670     65672     65671     65673     65675     65674     65676
     65678     65677     65679     65681     65680     65682     65684     65683     65685
     65687     65686     65688     65690     65689     65691     65693     65692     65694
     65696     65695     65697     65699     65698     65700     65702     65701     65703
     65705     65704     65706     65708     65707     65709     65711     65710     65712
     65714     65713     65715     65717     65716     65718     65720     65719     65721
     65723     65722     65724     65726     65725     65727     65729     65728     65730
     65732     65731     65733     65735     65734     65736     65738     65737     65739
     65741     65740     65742     65744     65743     65745     65747     65746     65748
     65750     65749     65751     65753     65752     65754     65756     65755     65757
     65759     65758     65760     65762     65761     65763     65765     65764     65766
     65768     65767     65769     65771     65770     65772     65774     65773     65775
     65777     65776     65778     65780     65779     65781     65783     65782     65784
     65786     65785     65787     65789     65788     65790     65792     65791     65793
     65795     65794     65796     65798     65797     65799     65801     65800     65802
     65804     65803     65805     65807     65806     65808     65810     65809     65811
     65813     65812     65814     65816     65815     65817     65819     65818     65820
     65822     65821     65823     65825     65824     65826     65828     65827     65829
     65831     65830     65832     65834     65833     65835     65837     65836     65838
     65840     65839     65841     65843     65842     65844     65846     65845     65847
     65849     65848     65850     65852     65851     65853     65855     65854     65856
     65858     65857     65859     65861     65860     65862     65864     65863     65865
     65867     65866     65868     65870     65869     65871     65873     65872     65874
     65876     65875     65877     65879     65878     65880     65882     65881     65883
     65885     65884     65886     65888     65887     65889     65891     65890     65892
     65894     65893     65895     65897     65896     65898     65900     65899     65901
     65903     65902     65904     65906     65905     65907     65909     65908     65910
     65912     65911     65913     65915     65914     65916     65918     65917     65919
     65921     65920     65922     65924     65923     65925     65927     65926     65928
     65930     65929     65931     65933     65932     65934     65936     65935     65937
     65939     65938     65940     65942     65941     65943     65945     65944     65946
     65948     65947     65949     65951     65950     65952     65954     65953     65955
     65957     65956     65958     65960     65959     65961     65963     65962     65964
     65966     65965     65967     65969     65968     65970     65972     65971     65973
     65975     65974     65976     65978     65977     65979     65981     65980     65982
     65984     65983     65985     65987     65986     65988     65990     65989     65991
     65993     65992     65994     65996     65995     65997     65999     65998     66000
     66002     66001     66003     66005     66004     66006     66008     66007     66009
     66011     66010     66012     66014     66013     66015     66017     66016     66018
     66020     66019     66021     66023     66022     66024     66026     66025     66027
     66029     66028     66030     66032     66031     66033     66035     66034     66036
     66038     66037     66039     66041     66040     66042     66044     66043     66045
     66047     66046     66048     66050     66049     66051     66053     66052     66054
     66056     66055     66057     66059     66058     66060     66062     66061     66063
     66065     66064     66066     66068     66067     66069     66071     66070     66072
     66074     66073     66075     66077     66076     66078     66080     66079     66081
     66083     66082     66084     66086     66085     66087     66089     66088     66090
     66092     66091     66093     66095     66094     66096     66098     66097     66099
     66101     66100     66102     66104     66103     66105     66107     66106     66108
     66110     66109     66111     66113     66112     66114     66116     66115     66117
     66119     66118     66120     66122     66121     66123     66125     66124     66126
     66128     66127     66129     66131     66130     66132     66134     66133     66135
     66137     66136     66138     66140     66139     66141     66143     66142     66144
     66146     66145     66147     66149     66148     66150     66152     66151     66153
     66155     66154     66156     66158     66157     66159     66161     66160     66162
     66164     66163     66165     66167     66166     66168     66170     66169     66171
     66173     66172     66174     66176     66175     66177     66179     66178     66180
     66182     66181     66183     66185     66184     66186     66188     66187     66189
     66191     66190     66192     66194     66193     66195     66197     66196     66198
     66200     66199     66201     66203     66202     66204     66206     66205     66207
     66209     66208     66210     66212     66211     66213     66215     66214     66216
     66218     66217     66219     66221     66220     66222     66224     66223     66225
     66227     66226     66228     66230     66229     66231     66233     66232     66234
     66236     66235     66237     66239     66238     66240     66242     66241     66243
     66245     66244     66246     66248     66247     66249     66251     66250     66252
     66254     66253     66255     66257     66256     66258     66260     66259     66261
     66263     66262     66264     66266     66265     66267     66269     66268     66270
     66272     66271     66273     66275     66274     66276     66278     66277     66279
     66281     66280     66282     66284     66283     66285     66287     66286     66288
     66290     66289     66291     66293     66292     66294     66296     66295     66297
     66299     66298     66300     66302     66301     66303     66305     66304     66306
     66308     66307     66309     66311     66310     66312     66314     66313     66315
     66317     66316     66318     66320     66319     66321     66323     66322     66324
     66326     66325     66327     66329     66328     66330     66332     66331     66333
     66335     66334     66336     66338     66337     66339     66341     66340     66342
     66344     66343     66345     66347     66346     66348     66350     66349     66351
     66353     66352     66354     66356     66355     66357     66359     66358     66360
     66362     66361     66363     66365     66364     66366     66368     66367     66369
     66371     66370     66372     66374     66373     66375     66377     66376     66378
     66380     66379     66381     66383     66382     66384     66386     66385     66387
     66389     66388     66390     66392     66391     66393     66395     66394     66396
     66398     66397     66399     66401     66400     66402     66404     66403     66405
     66407     66406     66408     66410     66409     66411     66413     66412     66414
     66416     66415     66417     66419     66418     66420     66422     66421     66423
     66425     66424     66426     66428     66427     66429     66431     66430     66432
     66434     66433     66435     66437     66436     66438     66440     66439     66441
     66443     66442     66444     66446     66445     66447     66449     66448     66450
     66452     66451     66453     66455     66454     66456     66458     66457     66459
     66461     66460     66462     66464     66463     66465     66467     66466     66468
     66470     66469     66471     66473     66472     66474     66476     66475     66477
     66479     66478     66480     66482     66481     66483     66485     66484     66486
     66488     66487     66489     66491     66490     66492     66494     66493     66495
     66497     66496     66498     66500     66499     66501     66503     66502     66504
     66506     66505     66507     66509     66508     66510     66512     66511     66513
     66515     66514     66516     66518     66517     66519     66521     66520     66522
     66524     66523     66525     66527     66526     66528     66530     66529     66531
     66533     66532     66534     66536     66535     66537     66539     66538     66540
     66542     66541     66543     66545     66544     66546     66548     66547     66549
     66551     66550     66552     66554     66553     66555     66557     66556     66558
     66560     66559     66561     66563     66562     66564     66566     66565     66567
     66569     66568     66570     66572     66571     66573     66575     66574     66576
     66578     66577     66579     66581     66580     66582     66584     66583     66585
     66587     66586     66588     66590     66589     66591     66593     66592     66594
     66596     66595     66597     66599     66598     66600     66602     66601     66603
     66605     66604     66606     66608     66607     66609     66611     66610     66612
     66614     66613     66615     66617     66616     66618     66620     66619     66621
     66623     66622     66624     66626     66625     66627     66629     66628     66630
     66632     66631     66633     66635     66634     66636     66638     66637     66639
     66641     66640     66642     66644     66643     66645     66647     66646     66648
     66650     66649     66651     66653     66652     66654     66656     66655     66657
     66659     66658     66660     66662     66661     66663     66665     66664     66666
     66668     66667     66669     66671     66670     66672     66674     66673     66675
     66677     66676     66678     66680     66679     66681     66683     66682     66684
     66686     66685     66687     66689     66688     66690     66692     66691     66693
     66695     66694     66696     66698     66697     66699     66701     66700     66702
     66704     66703     66705     66707     66706     66708     66710     66709     66711
     66713     66712     66714     66716     66715     66717     66719     66718     66720
     66722     66721     66723     66725     66724     66726     66728     66727     66729
     66731     66730     66732     66734     66733     66735     66737     66736     66738
     66740     66739     66741     66743     66742     66744     66746     66745     66747
     66749     66748     66750     66752     66751     66753     66755     66754     66756
     66758     66757     66759     66761     66760     66762     66764     66763     66765
     66767     66766     66768     66770     66769     66771     66773     66772     66774
     66776     66775     66777     66779     66778     66780     66782     66781     66783
     66785     66784     66786     66788     66787     66789     66791     66790     66792
     66794     66793     66795     66797     66796     66798     66800     66799     66801
     66803     66802     66804     66806     66805     66807     66809     66808     66810
     66812     66811     66813     66815     66814     66816     66818     66817     66819
     66821     66820     66822     66824     66823     66825     66827     66826     66828
     66830     66829     66831     66833     66832     66834     66836     66835     66837
     66839     66838     66840     66842     66841     66843     66845     66844     66846
     66848     66847     66849     66851     66850     66852     66854     66853     66855
     66857     66856     66858     66860     66859     66861     66863     66862     66864
     66866     66865     66867     66869     66868     66870     66872     66871     66873
     66875     66874     66876     66878     66877     66879     66881     66880     66882
     66884     66883     66885     66887     66886     66888     66890     66889     66891
     66893     66892     66894     66896     66895     66897     66899     66898     66900
     66902     66901     66903     66905     66904     66906     66908     66907     66909
     66911     66910     66912     66914     66913     66915     66917     66916     66918
     66920     66919     66921     66923     66922     66924     66926     66925     66927
     66929     66928     66930     66932     66931     66933     66935     66934     66936
     66938     66937     66939     66941     66940     66942     66944     66943     66945
     66947     66946     66948     66950     66949     66951     66953     66952     66954
     66956     66955     66957     66959     66958     66960     66962     66961     66963
     66965     66964     66966     66968     66967     66969     66971     66970     66972
     66974     66973     66975     66977     66976     66978     66980     66979     66981
     66983     66982     66984     66986     66985     66987     66989     66988     66990
     66992     66991     66993     66995     66994     66996     66998     66997     66999
     67001     67000     67002     67004     67003     67005     67007     67006     67008
     67010     67009     67011     67013     67012     67014     67016     67015     67017
     67019     67018     67020     67022     67021     67023     67025     67024     67026
     67028     67027     67029     67031     67030     67032     67034     67033     67035
     67037     67036     67038     67040     67039     67041     67043     67042     67044
     67046     67045     67047     67049     67048     67050     67052     67051     67053
     67055     67054     67056     67058     67057     67059     67061     67060     67062
     67064     67063     67065     67067     67066     67068     67070     67069     67071
     67073     67072     67074     67076     67075     67077     67079     67078     67080
     67082     67081     67083     67085     67084     67086     67088     67087     67089
     67091     67090     67092     67094     67093     67095     67097     67096     67098
     67100     67099     67101     67103     67102     67104     67106     67105     67107
     67109     67108     67110     67112     67111     67113     67115     67114     67116
     67118     67117     67119     67121     67120     67122     67124     67123     67125
     67127     67126     67128     67130     67129     67131     67133     67132     67134
     67136     67135     67137     67139     67138     67140     67142     67141     67143
     67145     67144     67146     67148     67147     67149     67151     67150     67152
     67154     67153     67155     67157     67156     67158     67160     67159     67161
     67163     67162     67164     67166     67165     67167     67169     67168     67170
     67172     67171     67173     67175     67174     67176     67178     67177     67179
     67181     67180     67182     67184     67183     67185     67187     67186     67188
     67190     67189     67191     67193     67192     67194     67196     67195     67197
     67199     67198     67200     67202     67201     67203     67205     67204     67206
     67208     67207     67209     67211     67210     67212     67214     67213     67215
     67217     67216     67218     67220     67219     67221     67223     67222     67224
     67226     67225     67227     67229     67228     67230     67232     67231     67233
     67235     67234     67236     67238     67237     67239     67241     67240     67242
     67244     67243     67245     67247     67246     67248     67250     67249     67251
     67253     67252     67254     67256     67255     67257     67259     67258     67260
     67262     67261     67263     67265     67264     67266     67268     67267     67269
     67271     67270     67272     67274     67273     67275     67277     67276     67278
     67280     67279     67281     67283     67282     67284     67286     67285     67287
     67289     67288     67290     67292     67291     67293     67295     67294     67296
     67298     67297     67299     67301     67300     67302     67304     67303     67305
     67307     67306     67308     67310     67309     67311     67313     67312     67314
     67316     67315     67317     67319     67318     67320     67322     67321     67323
     67325     67324     67326     67328     67327     67329     67331     67330     67332
     67334     67333     67335     67337     67336     67338     67340     67339     67341
     67343     67342     67344     67346     67345     67347     67349     67348     67350
     67352     67351     67353     67355     67354     67356     67358     67357     67359
     67361     67360     67362     67364     67363     67365     67367     67366     67368
     67370     67369     67371     67373     67372     67374     67376     67375     67377
     67379     67378     67380     67382     67381     67383     67385     67384     67386
     67388     67387     67389     67391     67390     67392     67394     67393     67395
     67397     67396     67398     67400     67399     67401     67403     67402     67404
     67406     67405     67407     67409     67408     67410     67412     67411     67413
     67415     67414     67416     67418     67417     67419     67421     67420     67422
     67424     67423     67425     67427     67426     67428     67430     67429     67431
     67433     67432     67434     67436     67435     67437     67439     67438     67440
     67442     67441     67443     67445     67444     67446     67448     67447     67449
     67451     67450     67452     67454     67453     67455     67457     67456     67458
     67460     67459     67461     67463     67462     67464     67466     67465     67467
     67469     67468     67470     67472     67471     67473     67475     67474     67476
     67478     67477     67479     67481     67480     67482     67484     67483     67485
     67487     67486     67488     67490     67489     67491     67493     67492     67494
     67496     67495     67497     67499     67498     67500     67502     67501     67503
     67505     67504     67506     67508     67507     67509     67511     67510     67512
     67514     67513     67515     67517     67516     67518     67520     67519     67521
     67523     67522     67524     67526     67525     67527     67529     67528     67530
     67532     67531     67533     67535     67534     67536     67538     67537     67539
     67541     67540     67542     67544     67543     67545     67547     67546     67548
     67550     67549     67551     67553     67552     67554     67556     67555     67557
     67559     67558     67560     67562     67561     67563     67565     67564     67566
     67568     67567     67569     67571     67570     67572     67574     67573     67575
     67577     67576     67578     67580     67579     67581     67583     67582     67584
     67586     67585     67587     67589     67588     67590     67592     67591     67593
     67595     67594     67596     67598     67597     67599     67601     67600     67602
     67604     67603     67605     67607     67606     67608     67610     67609     67611
     67613     67612     67614     67616     67615     67617     67619     67618     67620
     67622     67621     67623     67625     67624     67626     67628     67627     67629
     67631     67630     67632     67634     67633     67635     67637     67636     67638
     67640     67639     67641     67643     67642     67644     67646     67645     67647
     67649     67648     67650     67652     67651     67653     67655     67654     67656
     67658     67657     67659     67661     67660     67662     67664     67663     67665
     67667     67666     67668     67670     67669     67671     67673     67672     67674
     67676     67675     67677     67679     67678     67680     67682     67681     67683
     67685     67684     67686     67688     67687     67689     67691     67690     67692
     67694     67693     67695     67697     67696     67698     67700     67699     67701
     67703     67702     67704     67706     67705     67707     67709     67708     67710
     67712     67711     67713     67715     67714     67716     67718     67717     67719
     67721     67720     67722     67724     67723     67725     67727     67726     67728
     67730     67729     67731     67733     67732     67734     67736     67735     67737
     67739     67738     67740     67742     67741     67743     67745     67744     67746
     67748     67747     67749     67751     67750     67752     67754     67753     67755
     67757     67756     67758     67760     67759     67761     67763     67762     67764
     67766     67765     67767     67769     67768     67770     67772     67771     67773
     67775     67774     67776     67778     67777     67779     67781     67780     67782
     67784     67783     67785     67787     67786     67788     67790     67789     67791
     67793     67792     67794     67796     67795     67797     67799     67798     67800
     67802     67801     67803     67805     67804     67806     67808     67807     67809
     67811     67810     67812     67814     67813     67815     67817     67816     67818
     67820     67819     67821     67823     67822     67824     67826     67825     67827
     67829     67828     67830     67832     67831     67833     67835     67834     67836
     67838     67837     67839     67841     67840     67842     67844     67843     67845
     67847     67846     67848     67850     67849     67851     67853     67852     67854
     67856     67855     67857     67859     67858     67860     67862     67861     67863
     67865     67864     67866     67868     67867     67869     67871     67870     67872
     67874     67873     67875     67877     67876     67878     67880     67879     67881
     67883     67882     67884     67886     67885     67887     67889     67888     67890
     67892     67891     67893     67895     67894     67896     67898     67897     67899
     67901     67900     67902     67904     67903     67905     67907     67906     67908
     67910     67909     67911     67913     67912     67914     67916     67915     67917
     67919     67918     67920     67922     67921     67923     67925     67924     67926
     67928     67927     67929     67931     67930     67932     67934     67933     67935
     67937     67936     67938     67940     67939     67941     67943     67942     67944
     67946     67945     67947     67949     67948     67950     67952     67951     67953
     67955     67954     67956     67958     67957     67959     67961     67960     67962
     67964     67963     67965     67967     67966     67968     67970     67969     67971
     67973     67972     67974     67976     67975     67977     67979     67978     67980
     67982     67981     67983     67985     67984     67986     67988     67987     67989
     67991     67990     67992     67994     67993     67995     67997     67996     67998
     68000     67999     68001     68003     68002     68004     68006     68005     68007
     68009     68008     68010     68012     68011     68013     68015     68014     68016
     68018     68017     68019     68021     68020     68022     68024     68023     68025
     68027     68026     68028     68030     68029     68031     68033     68032     68034
     68036     68035     68037     68039     68038     68040     68042     68041     68043
     68045     68044     68046     68048     68047     68049     68051     68050     68052
     68054     68053     68055     68057     68056     68058     68060     68059     68061
     68063     68062     68064     68066     68065     68067     68069     68068     68070
     68072     68071     68073     68075     68074     68076     68078     68077     68079
     68081     68080     68082     68084     68083     68085     68087     68086     68088
     68090     68089     68091     68093     68092     68094     68096     68095     68097
     68099     68098     68100     68102     68101     68103     68105     68104     68106
     68108     68107     68109     68111     68110     68112     68114     68113     68115
     68117     68116     68118     68120     68119     68121     68123     68122     68124
     68126     68125     68127     68129     68128     68130     68132     68131     68133
     68135     68134     68136     68138     68137     68139     68141     68140     68142
     68144     68143     68145     68147     68146     68148     68150     68149     68151
     68153     68152     68154     68156     68155     68157     68159     68158     68160
     68162     68161     68163     68165     68164     68166     68168     68167     68169
     68171     68170     68172     68174     68173     68175     68177     68176     68178
     68180     68179     68181     68183     68182     68184     68186     68185     68187
     68189     68188     68190     68192     68191     68193     68195     68194     68196
     68198     68197     68199     68201     68200     68202     68204     68203     68205
     68207     68206     68208     68210     68209     68211     68213     68212     68214
     68216     68215     68217     68219     68218     68220     68222     68221     68223
     68225     68224     68226     68228     68227     68229     68231     68230     68232
     68234     68233     68235     68237     68236     68238     68240     68239     68241
     68243     68242     68244     68246     68245     68247     68249     68248     68250
     68252     68251     68253     68255     68254     68256     68258     68257     68259
     68261     68260     68262     68264     68263     68265     68267     68266     68268
     68270     68269     68271     68273     68272     68274     68276     68275     68277
     68279     68278     68280     68282     68281     68283     68285     68284     68286
     68288     68287     68289     68291     68290     68292     68294     68293     68295
     68297     68296     68298     68300     68299     68301     68303     68302     68304
     68306     68305     68307     68309     68308     68310     68312     68311     68313
     68315     68314     68316     68318     68317     68319     68321     68320     68322
     68324     68323     68325     68327     68326     68328     68330     68329     68331
     68333     68332     68334     68336     68335     68337     68339     68338     68340
     68342     68341     68343     68345     68344     68346     68348     68347     68349
     68351     68350     68352     68354     68353     68355     68357     68356     68358
     68360     68359     68361     68363     68362     68364     68366     68365     68367
     68369     68368     68370     68372     68371     68373     68375     68374     68376
     68378     68377     68379     68381     68380     68382     68384     68383     68385
     68387     68386     68388     68390     68389     68391     68393     68392     68394
     68396     68395     68397     68399     68398     68400     68402     68401     68403
     68405     68404     68406     68408     68407     68409     68411     68410     68412
     68414     68413     68415     68417     68416     68418     68420     68419     68421
     68423     68422     68424     68426     68425     68427     68429     68428     68430
     68432     68431     68433     68435     68434     68436     68438     68437     68439
     68441     68440     68442     68444     68443     68445     68447     68446     68448
     68450     68449     68451     68453     68452     68454     68456     68455     68457
     68459     68458     68460     68462     68461     68463     68465     68464     68466
     68468     68467     68469     68471     68470     68472     68474     68473     68475
     68477     68476     68478     68480     68479     68481     68483     68482     68484
     68486     68485     68487     68489     68488     68490     68492     68491     68493
     68495     68494     68496     68498     68497     68499     68501     68500     68502
     68504     68503     68505     68507     68506     68508     68510     68509     68511
     68513     68512     68514     68516     68515     68517     68519     68518     68520
     68522     68521     68523     68525     68524     68526     68528     68527     68529
     68531     68530     68532     68534     68533     68535     68537     68536     68538
     68540     68539     68541     68543     68542     68544     68546     68545     68547
     68549     68548     68550     68552     68551     68553     68555     68554     68556
     68558     68557     68559     68561     68560     68562     68564     68563     68565
     68567     68566     68568     68570     68569     68571     68573     68572     68574
     68576     68575     68577     68579     68578     68580     68582     68581     68583
     68585     68584     68586     68588     68587     68589     68591     68590     68592
     68594     68593     68595     68597     68596     68598     68600     68599     68601
     68603     68602     68604     68606     68605     68607     68609     68608     68610
     68612     68611     68613     68615     68614     68616     68618     68617     68619
     68621     68620     68622     68624     68623     68625     68627     68626     68628
     68630     68629     68631     68633     68632     68634     68636     68635     68637
     68639     68638     68640     68642     68641     68643     68645     68644     68646
     68648     68647     68649     68651     68650     68652     68654     68653     68655
     68657     68656     68658     68660     68659     68661     68663     68662     68664
     68666     68665     68667     68669     68668     68670     68672     68671     68673
     68675     68674     68676     68678     68677     68679     68681     68680     68682
     68684     68683     68685     68687     68686     68688     68690     68689     68691
     68693     68692     68694     68696     68695     68697     68699     68698     68700
     68702     68701     68703     68705     68704     68706     68708     68707     68709
     68711     68710     68712     68714     68713     68715     68717     68716     68718
     68720     68719     68721     68723     68722     68724     68726     68725     68727
     68729     68728     68730     68732     68731     68733     68735     68734     68736
     68738     68737     68739     68741     68740     68742     68744     68743     68745
     68747     68746     68748     68750     68749     68751     68753     68752     68754
     68756     68755     68757     68759     68758     68760     68762     68761     68763
     68765     68764     68766     68768     68767     68769     68771     68770     68772
     68774     68773     68775     68777     68776     68778     68780     68779     68781
     68783     68782     68784     68786     68785     68787     68789     68788     68790
     68792     68791     68793     68795     68794     68796     68798     68797     68799
     68801     68800     68802     68804     68803     68805     68807     68806     68808
     68810     68809     68811     68813     68812     68814     68816     68815     68817
     68819     68818     68820     68822     68821     68823     68825     68824     68826
     68828     68827     68829     68831     68830     68832     68834     68833     68835
     68837     68836     68838     68840     68839     68841     68843     68842     68844
     68846     68845     68847     68849     68848     68850     68852     68851     68853
     68855     68854     68856     68858     68857     68859     68861     68860     68862
     68864     68863     68865     68867     68866     68868     68870     68869     68871
     68873     68872     68874     68876     68875     68877     68879     68878     68880
     68882     68881     68883     68885     68884     68886     68888     68887     68889
     68891     68890     68892     68894     68893     68895     68897     68896     68898
     68900     68899     68901     68903     68902     68904     68906     68905     68907
     68909     68908     68910     68912     68911     68913     68915     68914     68916
     68918     68917     68919     68921     68920     68922     68924     68923     68925
     68927     68926     68928     68930     68929     68931     68933     68932     68934
     68936     68935     68937     68939     68938     68940     68942     68941     68943
     68945     68944     68946     68948     68947     68949     68951     68950     68952
     68954     68953     68955     68957     68956     68958     68960     68959     68961
     68963     68962     68964     68966     68965     68967     68969     68968     68970
     68972     68971     68973     68975     68974     68976     68978     68977     68979
     68981     68980     68982     68984     68983     68985     68987     68986     68988
     68990     68989     68991     68993     68992     68994     68996     68995     68997
     68999     68998     69000     69002     69001     69003     69005     69004     69006
     69008     69007     69009     69011     69010     69012     69014     69013     69015
     69017     69016     69018     69020     69019     69021     69023     69022     69024
     69026     69025     69027     69029     69028     69030     69032     69031     69033
     69035     69034     69036     69038     69037     69039     69041     69040     69042
     69044     69043     69045     69047     69046     69048     69050     69049     69051
     69053     69052     69054     69056     69055     69057     69059     69058     69060
     69062     69061     69063     69065     69064     69066     69068     69067     69069
     69071     69070     69072     69074     69073     69075     69077     69076     69078
     69080     69079     69081     69083     69082     69084     69086     69085     69087
     69089     69088     69090     69092     69091     69093     69095     69094     69096
     69098     69097     69099     69101     69100     69102     69104     69103     69105
     69107     69106     69108     69110     69109     69111     69113     69112     69114
     69116     69115     69117     69119     69118     69120     69122     69121     69123
     69125     69124     69126     69128     69127     69129     69131     69130     69132
     69134     69133     69135     69137     69136     69138     69140     69139     69141
     69143     69142     69144     69146     69145     69147     69149     69148     69150
     69152     69151     69153     69155     69154     69156     69158     69157     69159
     69161     69160     69162     69164     69163     69165     69167     69166     69168
     69170     69169     69171     69173     69172     69174     69176     69175     69177
     69179     69178     69180     69182     69181     69183     69185     69184     69186
     69188     69187     69189     69191     69190     69192     69194     69193     69195
     69197     69196     69198     69200     69199     69201     69203     69202     69204
     69206     69205     69207     69209     69208     69210     69212     69211     69213
     69215     69214     69216     69218     69217     69219     69221     69220     69222
     69224     69223     69225     69227     69226     69228     69230     69229     69231
     69233     69232     69234     69236     69235     69237     69239     69238     69240
     69242     69241     69243     69245     69244     69246     69248     69247     69249
     69251     69250     69252     69254     69253     69255     69257     69256     69258
     69260     69259     69261     69263     69262     69264     69266     69265     69267
     69269     69268     69270     69272     69271     69273     69275     69274     69276
     69278     69277     69279     69281     69280     69282     69284     69283     69285
     69287     69286     69288     69290     69289     69291     69293     69292     69294
     69296     69295     69297     69299     69298     69300     69302     69301     69303
     69305     69304     69306     69308     69307     69309     69311     69310     69312
     69314     69313     69315     69317     69316     69318     69320     69319     69321
     69323     69322     69324     69326     69325     69327     69329     69328     69330
     69332     69331     69333     69335     69334     69336     69338     69337     69339
     69341     69340     69342     69344     69343     69345     69347     69346     69348
     69350     69349     69351     69353     69352     69354     69356     69355     69357
     69359     69358     69360     69362     69361     69363     69365     69364     69366
     69368     69367     69369     69371     69370     69372     69374     69373     69375
     69377     69376     69378     69380     69379     69381     69383     69382     69384
     69386     69385     69387     69389     69388     69390     69392     69391     69393
     69395     69394     69396     69398     69397     69399     69401     69400     69402
     69404     69403     69405     69407     69406     69408     69410     69409     69411
     69413     69412     69414     69416     69415     69417     69419     69418     69420
     69422     69421     69423     69425     69424     69426     69428     69427     69429
     69431     69430     69432     69434     69433     69435     69437     69436     69438
     69440     69439     69441     69443     69442     69444     69446     69445     69447
     69449     69448     69450     69452     69451     69453     69455     69454     69456
     69458     69457     69459     69461     69460     69462     69464     69463     69465
     69467     69466     69468     69470     69469     69471     69473     69472     69474
     69476     69475     69477     69479     69478     69480     69482     69481     69483
     69485     69484     69486     69488     69487     69489     69491     69490     69492
     69494     69493     69495     69497     69496     69498     69500     69499     69501
     69503     69502     69504     69506     69505     69507     69509     69508     69510
     69512     69511     69513     69515     69514     69516     69518     69517     69519
     69521     69520     69522     69524     69523     69525     69527     69526     69528
     69530     69529     69531     69533     69532     69534     69536     69535     69537
     69539     69538     69540     69542     69541     69543     69545     69544     69546
     69548     69547     69549     69551     69550     69552     69554     69553     69555
     69557     69556     69558     69560     69559     69561     69563     69562     69564
     69566     69565     69567     69569     69568     69570     69572     69571     69573
     69575     69574     69576     69578     69577     69579     69581     69580     69582
     69584     69583     69585     69587     69586     69588     69590     69589     69591
     69593     69592     69594     69596     69595     69597     69599     69598     69600
     69602     69601     69603     69605     69604     69606     69608     69607     69609
     69611     69610     69612     69614     69613     69615     69617     69616     69618
     69620     69619     69621     69623     69622     69624     69626     69625     69627
     69629     69628     69630     69632     69631     69633     69635     69634     69636
     69638     69637     69639     69641     69640     69642     69644     69643     69645
     69647     69646     69648     69650     69649     69651     69653     69652     69654
     69656     69655     69657     69659     69658     69660     69662     69661     69663
     69665     69664     69666     69668     69667     69669     69671     69670     69672
     69674     69673     69675     69677     69676     69678     69680     69679     69681
     69683     69682     69684     69686     69685     69687     69689     69688     69690
     69692     69691     69693     69695     69694     69696     69698     69697     69699
     69701     69700     69702     69704     69703     69705     69707     69706     69708
     69710     69709     69711     69713     69712     69714     69716     69715     69717
     69719     69718     69720     69722     69721     69723     69725     69724     69726
     69728     69727     69729     69731     69730     69732     69734     69733     69735
     69737     69736     69738     69740     69739     69741     69743     69742     69744
     69746     69745     69747     69749     69748     69750     69752     69751     69753
     69755     69754     69756     69758     69757     69759     69761     69760     69762
     69764     69763     69765     69767     69766     69768     69770     69769     69771
     69773     69772     69774     69776     69775     69777     69779     69778     69780
     69782     69781     69783     69785     69784     69786     69788     69787     69789
     69791     69790     69792     69794     69793     69795     69797     69796     69798
     69800     69799     69801     69803     69802     69804     69806     69805     69807
     69809     69808     69810     69812     69811     69813     69815     69814     69816
     69818     69817     69819     69821     69820     69822     69824     69823     69825
     69827     69826     69828     69830     69829     69831     69833     69832     69834
     69836     69835     69837     69839     69838     69840     69842     69841     69843
     69845     69844     69846     69848     69847     69849     69851     69850     69852
     69854     69853     69855     69857     69856     69858     69860     69859     69861
     69863     69862     69864     69866     69865     69867     69869     69868     69870
     69872     69871     69873     69875     69874     69876     69878     69877     69879
     69881     69880     69882     69884     69883     69885     69887     69886     69888
     69890     69889     69891     69893     69892     69894     69896     69895     69897
     69899     69898     69900     69902     69901     69903     69905     69904     69906
     69908     69907     69909     69911     69910     69912     69914     69913     69915
     69917     69916     69918     69920     69919     69921     69923     69922     69924
     69926     69925     69927     69929     69928     69930     69932     69931     69933
     69935     69934     69936     69938     69937     69939     69941     69940     69942
     69944     69943     69945     69947     69946     69948     69950     69949     69951
     69953     69952     69954     69956     69955     69957     69959     69958     69960
     69962     69961     69963     69965     69964     69966     69968     69967     69969
     69971     69970     69972     69974     69973     69975     69977     69976     69978
     69980     69979     69981     69983     69982     69984     69986     69985     69987
     69989     69988     69990     69992     69991     69993     69995     69994     69996
     69998     69997     69999     70001     70000     70002     70004     70003     70005
     70007     70006     70008     70010     70009     70011     70013     70012     70014
     70016     70015     70017     70019     70018     70020     70022     70021     70023
     70025     70024     70026     70028     70027     70029     70031     70030     70032
     70034     70033     70035     70037     70036     70038     70040     70039     70041
     70043     70042     70044     70046     70045     70047     70049     70048     70050
     70052     70051     70053     70055     70054     70056     70058     70057     70059
     70061     70060     70062     70064     70063     70065     70067     70066     70068
     70070     70069     70071     70073     70072     70074     70076     70075     70077
     70079     70078     70080     70082     70081     70083     70085     70084     70086
     70088     70087     70089     70091     70090     70092     70094     70093     70095
     70097     70096     70098     70100     70099     70101     70103     70102     70104
     70106     70105     70107     70109     70108     70110     70112     70111     70113
     70115     70114     70116     70118     70117     70119     70121     70120     70122
     70124     70123     70125     70127     70126     70128     70130     70129     70131
     70133     70132     70134     70136     70135     70137     70139     70138     70140
     70142     70141     70143     70145     70144     70146     70148     70147     70149
     70151     70150     70152     70154     70153     70155     70157     70156     70158
     70160     70159     70161     70163     70162     70164     70166     70165     70167
     70169     70168     70170     70172     70171     70173     70175     70174     70176
     70178     70177     70179     70181     70180     70182     70184     70183     70185
     70187     70186     70188     70190     70189     70191     70193     70192     70194
     70196     70195     70197     70199     70198     70200     70202     70201     70203
     70205     70204     70206     70208     70207     70209     70211     70210     70212
     70214     70213     70215     70217     70216     70218     70220     70219     70221
     70223     70222     70224     70226     70225     70227     70229     70228     70230
     70232     70231     70233     70235     70234     70236     70238     70237     70239
     70241     70240     70242     70244     70243     70245     70247     70246     70248
     70250     70249     70251     70253     70252     70254     70256     70255     70257
     70259     70258     70260     70262     70261     70263     70265     70264     70266
     70268     70267     70269     70271     70270     70272     70274     70273     70275
     70277     70276     70278     70280     70279     70281     70283     70282     70284
     70286     70285     70287     70289     70288     70290     70292     70291     70293
     70295     70294     70296     70298     70297     70299     70301     70300     70302
     70304     70303     70305     70307     70306     70308     70310     70309     70311
     70313     70312     70314     70316     70315     70317     70319     70318     70320
     70322     70321     70323     70325     70324     70326     70328     70327     70329
     70331     70330     70332     70334     70333     70335     70337     70336     70338
     70340     70339     70341     70343     70342     70344     70346     70345     70347
     70349     70348     70350     70352     70351     70353     70355     70354     70356
     70358     70357     70359     70361     70360     70362     70364     70363     70365
     70367     70366     70368     70370     70369     70371     70373     70372     70374
     70376     70375     70377     70379     70378     70380     70382     70381     70383
     70385     70384     70386     70388     70387     70389     70391     70390     70392
     70394     70393     70395     70397     70396     70398     70400     70399     70401
     70403     70402     70404     70406     70405     70407     70409     70408     70410
     70412     70411     70413     70415     70414     70416     70418     70417     70419
     70421     70420     70422     70424     70423     70425     70427     70426     70428
     70430     70429     70431     70433     70432     70434     70436     70435     70437
     70439     70438     70440     70442     70441     70443     70445     70444     70446
     70448     70447     70449     70451     70450     70452     70454     70453     70455
     70457     70456     70458     70460     70459     70461     70463     70462     70464
     70466     70465     70467     70469     70468     70470     70472     70471     70473
     70475     70474     70476     70478     70477     70479     70481     70480     70482
     70484     70483     70485     70487     70486     70488     70490     70489     70491
     70493     70492     70494     70496     70495     70497     70499     70498     70500
     70502     70501     70503     70505     70504     70506     70508     70507     70509
     70511     70510     70512     70514     70513     70515     70517     70516     70518
     70520     70519     70521     70523     70522     70524     70526     70525     70527
     70529     70528     70530     70532     70531     70533     70535     70534     70536
     70538     70537     70539     70541     70540     70542     70544     70543     70545
     70547     70546     70548     70550     70549     70551     70553     70552     70554
     70556     70555     70557     70559     70558     70560     70562     70561     70563
     70565     70564     70566     70568     70567     70569     70571     70570     70572
     70574     70573     70575     70577     70576     70578     70580     70579     70581
     70583     70582     70584     70586     70585     70587     70589     70588     70590
     70592     70591     70593     70595     70594     70596     70598     70597     70599
     70601     70600     70602     70604     70603     70605     70607     70606     70608
     70610     70609     70611     70613     70612     70614     70616     70615     70617
     70619     70618     70620     70622     70621     70623     70625     70624     70626
     70628     70627     70629     70631     70630     70632     70634     70633     70635
     70637     70636     70638     70640     70639     70641     70643     70642     70644
     70646     70645     70647     70649     70648     70650     70652     70651     70653
     70655     70654     70656     70658     70657     70659     70661     70660     70662
     70664     70663     70665     70667     70666     70668     70670     70669     70671
     70673     70672     70674     70676     70675     70677     70679     70678     70680
     70682     70681     70683     70685     70684     70686     70688     70687     70689
     70691     70690     70692     70694     70693     70695     70697     70696     70698
     70700     70699     70701     70703     70702     70704     70706     70705     70707
     70709     70708     70710     70712     70711     70713     70715     70714     70716
     70718     70717     70719     70721     70720     70722     70724     70723     70725
     70727     70726     70728     70730     70729     70731     70733     70732     70734
     70736     70735     70737     70739     70738     70740     70742     70741     70743
     70745     70744     70746     70748     70747     70749     70751     70750     70752
     70754     70753     70755     70757     70756     70758     70760     70759     70761
     70763     70762     70764     70766     70765     70767     70769     70768     70770
     70772     70771     70773     70775     70774     70776     70778     70777     70779
     70781     70780     70782     70784     70783     70785     70787     70786     70788
     70790     70789     70791     70793     70792     70794     70796     70795     70797
     70799     70798     70800     70802     70801     70803     70805     70804     70806
     70808     70807     70809     70811     70810     70812     70814     70813     70815
     70817     70816     70818     70820     70819     70821     70823     70822     70824
     70826     70825     70827     70829     70828     70830     70832     70831     70833
     70835     70834     70836     70838     70837     70839     70841     70840     70842
     70844     70843     70845     70847     70846     70848     70850     70849     70851
     70853     70852     70854     70856     70855     70857     70859     70858     70860
     70862     70861     70863     70865     70864     70866     70868     70867     70869
     70871     70870     70872     70874     70873     70875     70877     70876     70878
     70880     70879     70881     70883     70882     70884     70886     70885     70887
     70889     70888     70890     70892     70891     70893     70895     70894     70896
     70898     70897     70899     70901     70900     70902     70904     70903     70905
     70907     70906     70908     70910     70909     70911     70913     70912     70914
     70916     70915     70917     70919     70918     70920     70922     70921     70923
     70925     70924     70926     70928     70927     70929     70931     70930     70932
     70934     70933     70935     70937     70936     70938     70940     70939     70941
     70943     70942     70944     70946     70945     70947     70949     70948     70950
     70952     70951     70953     70955     70954     70956     70958     70957     70959
     70961     70960     70962     70964     70963     70965     70967     70966     70968
     70970     70969     70971     70973     70972     70974     70976     70975     70977
     70979     70978     70980     70982     70981     70983     70985     70984     70986
     70988     70987     70989     70991     70990     70992     70994     70993     70995
     70997     70996     70998     71000     70999     71001     71003     71002     71004
     71006     71005     71007     71009     71008     71010     71012     71011     71013
     71015     71014     71016     71018     71017     71019     71021     71020     71022
     71024     71023     71025     71027     71026     71028     71030     71029     71031
     71033     71032     71034     71036     71035     71037     71039     71038     71040
     71042     71041     71043     71045     71044     71046     71048     71047     71049
     71051     71050     71052     71054     71053     71055     71057     71056     71058
     71060     71059     71061     71063     71062     71064     71066     71065     71067
     71069     71068     71070     71072     71071     71073     71075     71074     71076
     71078     71077     71079     71081     71080     71082     71084     71083     71085
     71087     71086     71088     71090     71089     71091     71093     71092     71094
     71096     71095     71097     71099     71098     71100     71102     71101     71103
     71105     71104     71106     71108     71107     71109     71111     71110     71112
     71114     71113     71115     71117     71116     71118     71120     71119     71121
     71123     71122     71124     71126     71125     71127     71129     71128     71130
     71132     71131     71133     71135     71134     71136     71138     71137     71139
     71141     71140     71142     71144     71143     71145     71147     71146     71148
     71150     71149     71151     71153     71152     71154     71156     71155     71157
     71159     71158     71160     71162     71161     71163     71165     71164     71166
     71168     71167     71169     71171     71170     71172     71174     71173     71175
     71177     71176     71178     71180     71179     71181     71183     71182     71184
     71186     71185     71187     71189     71188     71190     71192     71191     71193
     71195     71194     71196     71198     71197     71199     71201     71200     71202
     71204     71203     71205     71207     71206     71208     71210     71209     71211
     71213     71212     71214     71216     71215     71217     71219     71218     71220
     71222     71221     71223     71225     71224     71226     71228     71227     71229
     71231     71230     71232     71234     71233     71235     71237     71236     71238
     71240     71239     71241     71243     71242     71244     71246     71245     71247
     71249     71248     71250     71252     71251     71253     71255     71254     71256
     71258     71257     71259     71261     71260     71262     71264     71263     71265
     71267     71266     71268     71270     71269     71271     71273     71272     71274
     71276     71275     71277     71279     71278     71280     71282     71281     71283
     71285     71284     71286     71288     71287     71289     71291     71290     71292
     71294     71293     71295     71297     71296     71298     71300     71299     71301
     71303     71302     71304     71306     71305     71307     71309     71308     71310
     71312     71311     71313     71315     71314     71316     71318     71317     71319
     71321     71320     71322     71324     71323     71325     71327     71326     71328
     71330     71329     71331     71333     71332     71334     71336     71335     71337
     71339     71338     71340     71342     71341     71343     71345     71344     71346
     71348     71347     71349     71351     71350     71352     71354     71353     71355
     71357     71356     71358     71360     71359     71361     71363     71362     71364
     71366     71365     71367     71369     71368     71370     71372     71371     71373
     71375     71374     71376     71378     71377     71379     71381     71380     71382
     71384     71383     71385     71387     71386     71388     71390     71389     71391
     71393     71392     71394     71396     71395     71397     71399     71398     71400
     71402     71401     71403     71405     71404     71406     71408     71407     71409
     71411     71410     71412     71414     71413     71415     71417     71416     71418
     71420     71419     71421     71423     71422     71424     71426     71425     71427
     71429     71428     71430     71432     71431     71433     71435     71434     71436
     71438     71437     71439     71441     71440     71442     71444     71443     71445
     71447     71446     71448     71450     71449     71451     71453     71452     71454
     71456     71455     71457     71459     71458     71460     71462     71461     71463
     71465     71464     71466     71468     71467     71469     71471     71470     71472
     71474     71473     71475     71477     71476     71478     71480     71479     71481
     71483     71482     71484     71486     71485     71487     71489     71488     71490
     71492     71491     71493     71495     71494     71496     71498     71497     71499
     71501     71500     71502     71504     71503     71505     71507     71506     71508
     71510     71509     71511     71513     71512     71514     71516     71515     71517
     71519     71518     71520     71522     71521     71523     71525     71524     71526
     71528     71527     71529     71531     71530     71532     71534     71533     71535
     71537     71536     71538     71540     71539     71541     71543     71542     71544
     71546     71545     71547     71549     71548     71550     71552     71551     71553
     71555     71554     71556     71558     71557     71559     71561     71560     71562
     71564     71563     71565     71567     71566     71568     71570     71569     71571
     71573     71572     71574     71576     71575     71577     71579     71578     71580
     71582     71581     71583     71585     71584     71586     71588     71587     71589
     71591     71590     71592     71594     71593     71595     71597     71596     71598
     71600     71599     71601     71603     71602     71604     71606     71605     71607
     71609     71608     71610     71612     71611     71613     71615     71614     71616
     71618     71617     71619     71621     71620     71622     71624     71623     71625
     71627     71626     71628     71630     71629     71631     71633     71632     71634
     71636     71635     71637     71639     71638     71640     71642     71641     71643
     71645     71644     71646     71648     71647     71649     71651     71650     71652
     71654     71653     71655     71657     71656     71658     71660     71659     71661
     71663     71662     71664     71666     71665     71667     71669     71668     71670
     71672     71671     71673     71675     71674     71676     71678     71677     71679
     71681     71680     71682     71684     71683     71685     71687     71686     71688
     71690     71689     71691     71693     71692     71694     71696     71695     71697
     71699     71698     71700     71702     71701     71703     71705     71704     71706
     71708     71707     71709     71711     71710     71712     71714     71713     71715
     71717     71716     71718     71720     71719     71721     71723     71722     71724
     71726     71725     71727     71729     71728     71730     71732     71731     71733
     71735     71734     71736     71738     71737     71739     71741     71740     71742
     71744     71743     71745     71747     71746     71748     71750     71749     71751
     71753     71752     71754     71756     71755     71757     71759     71758     71760
     71762     71761     71763     71765     71764     71766     71768     71767     71769
     71771     71770     71772     71774     71773     71775     71777     71776     71778
     71780     71779     71781     71783     71782     71784     71786     71785     71787
     71789     71788     71790     71792     71791     71793     71795     71794     71796
     71798     71797     71799     71801     71800     71802     71804     71803     71805
     71807     71806     71808     71810     71809     71811     71813     71812     71814
     71816     71815     71817     71819     71818     71820     71822     71821     71823
     71825     71824     71826     71828     71827     71829     71831     71830     71832
     71834     71833     71835     71837     71836     71838     71840     71839     71841
     71843     71842     71844     71846     71845     71847     71849     71848     71850
     71852     71851     71853     71855     71854     71856     71858     71857     71859
     71861     71860     71862     71864     71863     71865     71867     71866     71868
     71870     71869     71871     71873     71872     71874     71876     71875     71877
     71879     71878     71880     71882     71881     71883     71885     71884     71886
     71888     71887     71889     71891     71890     71892     71894     71893     71895
     71897     71896     71898     71900     71899     71901     71903     71902     71904
     71906     71905     71907     71909     71908     71910     71912     71911     71913
     71915     71914     71916     71918     71917     71919     71921     71920     71922
     71924     71923     71925     71927     71926     71928     71930     71929     71931
     71933     71932     71934     71936     71935     71937     71939     71938     71940
     71942     71941     71943     71945     71944     71946     71948     71947     71949
     71951     71950     71952     71954     71953     71955     71957     71956     71958
     71960     71959     71961     71963     71962     71964     71966     71965     71967
     71969     71968     71970     71972     71971     71973     71975     71974     71976
     71978     71977     71979     71981     71980     71982     71984     71983     71985
     71987     71986     71988     71990     71989     71991     71993     71992     71994
     71996     71995     71997     71999     71998     72000     72002     72001     72003
     72005     72004     72006     72008     72007     72009     72011     72010     72012
     72014     72013     72015     72017     72016     72018     72020     72019     72021
     72023     72022     72024     72026     72025     72027     72029     72028     72030
     72032     72031     72033     72035     72034     72036     72038     72037     72039
     72041     72040     72042     72044     72043     72045     72047     72046     72048
     72050     72049     72051     72053     72052     72054     72056     72055     72057
     72059     72058     72060     72062     72061     72063     72065     72064     72066
     72068     72067     72069     72071     72070     72072     72074     72073     72075
     72077     72076     72078     72080     72079     72081     72083     72082     72084
     72086     72085     72087     72089     72088     72090     72092     72091     72093
     72095     72094     72096     72098     72097     72099     72101     72100     72102
     72104     72103     72105     72107     72106     72108     72110     72109     72111
     72113     72112     72114     72116     72115     72117     72119     72118     72120
     72122     72121     72123     72125     72124     72126     72128     72127     72129
     72131     72130     72132     72134     72133     72135     72137     72136     72138
     72140     72139     72141     72143     72142     72144     72146     72145     72147
     72149     72148     72150     72152     72151     72153     72155     72154     72156
     72158     72157     72159     72161     72160     72162     72164     72163     72165
     72167     72166     72168     72170     72169     72171     72173     72172     72174
     72176     72175     72177     72179     72178     72180     72182     72181     72183
     72185     72184     72186     72188     72187     72189     72191     72190     72192
     72194     72193     72195     72197     72196     72198     72200     72199     72201
     72203     72202     72204     72206     72205     72207     72209     72208     72210
     72212     72211     72213     72215     72214     72216     72218     72217     72219
     72221     72220     72222     72224     72223     72225     72227     72226     72228
     72230     72229     72231     72233     72232     72234     72236     72235     72237
     72239     72238     72240     72242     72241     72243     72245     72244     72246
     72248     72247     72249     72251     72250     72252     72254     72253     72255
     72257     72256     72258     72260     72259     72261     72263     72262     72264
     72266     72265     72267     72269     72268     72270     72272     72271     72273
     72275     72274     72276     72278     72277     72279     72281     72280     72282
     72284     72283     72285     72287     72286     72288     72290     72289     72291
     72293     72292     72294     72296     72295     72297     72299     72298     72300
     72302     72301     72303     72305     72304     72306     72308     72307     72309
     72311     72310     72312     72314     72313     72315     72317     72316     72318
     72320     72319     72321     72323     72322     72324     72326     72325     72327
     72329     72328     72330     72332     72331     72333     72335     72334     72336
     72338     72337     72339     72341     72340     72342     72344     72343     72345
     72347     72346     72348     72350     72349     72351     72353     72352     72354
     72356     72355     72357     72359     72358     72360     72362     72361     72363
     72365     72364     72366     72368     72367     72369     72371     72370     72372
     72374     72373     72375     72377     72376     72378     72380     72379     72381
     72383     72382     72384     72386     72385     72387     72389     72388     72390
     72392     72391     72393     72395     72394     72396     72398     72397     72399
     72401     72400     72402     72404     72403     72405     72407     72406     72408
     72410     72409     72411     72413     72412     72414     72416     72415     72417
     72419     72418     72420     72422     72421     72423     72425     72424     72426
     72428     72427     72429     72431     72430     72432     72434     72433     72435
     72437     72436     72438     72440     72439     72441     72443     72442     72444
     72446     72445     72447     72449     72448     72450     72452     72451     72453
     72455     72454     72456     72458     72457     72459     72461     72460     72462
     72464     72463     72465     72467     72466     72468     72470     72469     72471
     72473     72472     72474     72476     72475     72477     72479     72478     72480
     72482     72481     72483     72485     72484     72486     72488     72487     72489
     72491     72490     72492     72494     72493     72495     72497     72496     72498
     72500     72499     72501     72503     72502     72504     72506     72505     72507
     72509     72508     72510     72512     72511     72513     72515     72514     72516
     72518     72517     72519     72521     72520     72522     72524     72523     72525
     72527     72526     72528     72530     72529     72531     72533     72532     72534
     72536     72535     72537     72539     72538     72540     72542     72541     72543
     72545     72544     72546     72548     72547     72549     72551     72550     72552
     72554     72553     72555     72557     72556     72558     72560     72559     72561
     72563     72562     72564     72566     72565     72567     72569     72568     72570
     72572     72571     72573     72575     72574     72576     72578     72577     72579
     72581     72580     72582     72584     72583     72585     72587     72586     72588
     72590     72589     72591     72593     72592     72594     72596     72595     72597
     72599     72598     72600     72602     72601     72603     72605     72604     72606
     72608     72607     72609     72611     72610     72612     72614     72613     72615
     72617     72616     72618     72620     72619     72621     72623     72622     72624
     72626     72625     72627     72629     72628     72630     72632     72631     72633
     72635     72634     72636     72638     72637     72639     72641     72640     72642
     72644     72643     72645     72647     72646     72648     72650     72649     72651
     72653     72652     72654     72656     72655     72657     72659     72658     72660
     72662     72661     72663     72665     72664     72666     72668     72667     72669
     72671     72670     72672     72674     72673     72675     72677     72676     72678
     72680     72679     72681     72683     72682     72684     72686     72685     72687
     72689     72688     72690     72692     72691     72693     72695     72694     72696
     72698     72697     72699     72701     72700     72702     72704     72703     72705
     72707     72706     72708     72710     72709     72711     72713     72712     72714
     72716     72715     72717     72719     72718     72720     72722     72721     72723
     72725     72724     72726     72728     72727     72729     72731     72730     72732
     72734     72733     72735     72737     72736     72738     72740     72739     72741
     72743     72742     72744     72746     72745     72747     72749     72748     72750
     72752     72751     72753     72755     72754     72756     72758     72757     72759
     72761     72760     72762     72764     72763     72765     72767     72766     72768
     72770     72769     72771     72773     72772     72774     72776     72775     72777
     72779     72778     72780     72782     72781     72783     72785     72784     72786
     72788     72787     72789     72791     72790     72792     72794     72793     72795
     72797     72796     72798     72800     72799     72801     72803     72802     72804
     72806     72805     72807     72809     72808     72810     72812     72811     72813
     72815     72814     72816     72818     72817     72819     72821     72820     72822
     72824     72823     72825     72827     72826     72828     72830     72829     72831
     72833     72832     72834     72836     72835     72837     72839     72838     72840
     72842     72841     72843     72845     72844     72846     72848     72847     72849
     72851     72850     72852     72854     72853     72855     72857     72856     72858
     72860     72859     72861     72863     72862     72864     72866     72865     72867
     72869     72868     72870     72872     72871     72873     72875     72874     72876
     72878     72877     72879     72881     72880     72882     72884     72883     72885
     72887     72886     72888     72890     72889     72891     72893     72892     72894
     72896     72895     72897     72899     72898     72900     72902     72901     72903
     72905     72904     72906     72908     72907     72909     72911     72910     72912
     72914     72913     72915     72917     72916     72918     72920     72919     72921
     72923     72922     72924     72926     72925     72927     72929     72928     72930
     72932     72931     72933     72935     72934     72936     72938     72937     72939
     72941     72940     72942     72944     72943     72945     72947     72946     72948
     72950     72949     72951     72953     72952     72954     72956     72955     72957
     72959     72958     72960     72962     72961     72963     72965     72964     72966
     72968     72967     72969     72971     72970     72972     72974     72973     72975
     72977     72976     72978     72980     72979     72981     72983     72982     72984
     72986     72985     72987     72989     72988     72990     72992     72991     72993
     72995     72994     72996     72998     72997     72999     73001     73000     73002
     73004     73003     73005     73007     73006     73008     73010     73009     73011
     73013     73012     73014     73016     73015     73017     73019     73018     73020
     73022     73021     73023     73025     73024     73026     73028     73027     73029
     73031     73030     73032     73034     73033     73035     73037     73036     73038
     73040     73039     73041     73043     73042     73044     73046     73045     73047
     73049     73048     73050     73052     73051     73053     73055     73054     73056
     73058     73057     73059     73061     73060     73062     73064     73063     73065
     73067     73066     73068     73070     73069     73071     73073     73072     73074
     73076     73075     73077     73079     73078     73080     73082     73081     73083
     73085     73084     73086     73088     73087     73089     73091     73090     73092
     73094     73093     73095     73097     73096     73098     73100     73099     73101
     73103     73102     73104     73106     73105     73107     73109     73108     73110
     73112     73111     73113     73115     73114     73116     73118     73117     73119
     73121     73120     73122     73124     73123     73125     73127     73126     73128
     73130     73129     73131     73133     73132     73134     73136     73135     73137
     73139     73138     73140     73142     73141     73143     73145     73144     73146
     73148     73147     73149     73151     73150     73152     73154     73153     73155
     73157     73156     73158     73160     73159     73161     73163     73162     73164
     73166     73165     73167     73169     73168     73170     73172     73171     73173
     73175     73174     73176     73178     73177     73179     73181     73180     73182
     73184     73183     73185     73187     73186     73188     73190     73189     73191
     73193     73192     73194     73196     73195     73197     73199     73198     73200
     73202     73201     73203     73205     73204     73206     73208     73207     73209
     73211     73210     73212     73214     73213     73215     73217     73216     73218
     73220     73219     73221     73223     73222     73224     73226     73225     73227
     73229     73228     73230     73232     73231     73233     73235     73234     73236
     73238     73237     73239     73241     73240     73242     73244     73243     73245
     73247     73246     73248     73250     73249     73251     73253     73252     73254
     73256     73255     73257     73259     73258     73260     73262     73261     73263
     73265     73264     73266     73268     73267     73269     73271     73270     73272
     73274     73273     73275     73277     73276     73278     73280     73279     73281
     73283     73282     73284     73286     73285     73287     73289     73288     73290
     73292     73291     73293     73295     73294     73296     73298     73297     73299
     73301     73300     73302     73304     73303     73305     73307     73306     73308
     73310     73309     73311     73313     73312     73314     73316     73315     73317
     73319     73318     73320     73322     73321     73323     73325     73324     73326
     73328     73327     73329     73331     73330     73332     73334     73333     73335
     73337     73336     73338     73340     73339     73341     73343     73342     73344
     73346     73345     73347     73349     73348     73350     73352     73351     73353
     73355     73354     73356     73358     73357     73359     73361     73360     73362
     73364     73363     73365     73367     73366     73368     73370     73369     73371
     73373     73372     73374     73376     73375     73377     73379     73378     73380
     73382     73381     73383     73385     73384     73386     73388     73387     73389
     73391     73390     73392     73394     73393     73395     73397     73396     73398
     73400     73399     73401     73403     73402     73404     73406     73405     73407
     73409     73408     73410     73412     73411     73413     73415     73414     73416
     73418     73417     73419     73421     73420     73422     73424     73423     73425
     73427     73426     73428     73430     73429     73431     73433     73432     73434
     73436     73435     73437     73439     73438     73440     73442     73441     73443
     73445     73444     73446     73448     73447     73449     73451     73450     73452
     73454     73453     73455     73457     73456     73458     73460     73459     73461
     73463     73462     73464     73466     73465     73467     73469     73468     73470
     73472     73471     73473     73475     73474     73476     73478     73477     73479
     73481     73480     73482     73484     73483     73485     73487     73486     73488
     73490     73489     73491     73493     73492     73494     73496     73495     73497
     73499     73498     73500     73502     73501     73503     73505     73504     73506
     73508     73507     73509     73511     73510     73512     73514     73513     73515
     73517     73516     73518     73520     73519     73521     73523     73522     73524
     73526     73525     73527     73529     73528     73530     73532     73531     73533
     73535     73534     73536     73538     73537     73539     73541     73540     73542
     73544     73543     73545     73547     73546     73548     73550     73549     73551
     73553     73552     73554     73556     73555     73557     73559     73558     73560
     73562     73561     73563     73565     73564     73566     73568     73567     73569
     73571     73570     73572     73574     73573     73575     73577     73576     73578
     73580     73579     73581     73583     73582     73584     73586     73585     73587
     73589     73588     73590     73592     73591     73593     73595     73594     73596
     73598     73597     73599     73601     73600     73602     73604     73603     73605
     73607     73606     73608     73610     73609     73611     73613     73612     73614
     73616     73615     73617     73619     73618     73620     73622     73621     73623
     73625     73624     73626     73628     73627     73629     73631     73630     73632
     73634     73633     73635     73637     73636     73638     73640     73639     73641
     73643     73642     73644     73646     73645     73647     73649     73648     73650
     73652     73651     73653     73655     73654     73656     73658     73657     73659
     73661     73660     73662     73664     73663     73665     73667     73666     73668
     73670     73669     73671     73673     73672     73674     73676     73675     73677
     73679     73678     73680     73682     73681     73683     73685     73684     73686
     73688     73687     73689     73691     73690     73692     73694     73693     73695
     73697     73696     73698     73700     73699     73701     73703     73702     73704
     73706     73705     73707     73709     73708     73710     73712     73711     73713
     73715     73714     73716     73718     73717     73719     73721     73720     73722
     73724     73723     73725     73727     73726     73728     73730     73729     73731
     73733     73732     73734     73736     73735     73737     73739     73738     73740
     73742     73741     73743     73745     73744     73746     73748     73747     73749
     73751     73750     73752     73754     73753     73755     73757     73756     73758
     73760     73759     73761     73763     73762     73764     73766     73765     73767
     73769     73768     73770     73772     73771     73773     73775     73774     73776
     73778     73777     73779     73781     73780     73782     73784     73783     73785
     73787     73786     73788     73790     73789     73791     73793     73792     73794
     73796     73795     73797     73799     73798     73800     73802     73801     73803
     73805     73804     73806     73808     73807     73809     73811     73810     73812
     73814     73813     73815     73817     73816     73818     73820     73819     73821
     73823     73822     73824     73826     73825     73827     73829     73828     73830
     73832     73831     73833     73835     73834     73836     73838     73837     73839
     73841     73840     73842     73844     73843     73845     73847     73846     73848
     73850     73849     73851     73853     73852     73854     73856     73855     73857
     73859     73858     73860     73862     73861     73863     73865     73864     73866
     73868     73867     73869     73871     73870     73872     73874     73873     73875
     73877     73876     73878     73880     73879     73881     73883     73882     73884
     73886     73885     73887     73889     73888     73890     73892     73891     73893
     73895     73894     73896     73898     73897     73899     73901     73900     73902
     73904     73903     73905     73907     73906     73908     73910     73909     73911
     73913     73912     73914     73916     73915     73917     73919     73918     73920
     73922     73921     73923     73925     73924     73926     73928     73927     73929
     73931     73930     73932     73934     73933     73935     73937     73936     73938
     73940     73939     73941     73943     73942     73944     73946     73945     73947
     73949     73948     73950     73952     73951     73953     73955     73954     73956
     73958     73957     73959     73961     73960     73962     73964     73963     73965
     73967     73966     73968     73970     73969     73971     73973     73972     73974
     73976     73975     73977     73979     73978     73980     73982     73981     73983
     73985     73984     73986     73988     73987     73989     73991     73990     73992
     73994     73993     73995     73997     73996     73998     74000     73999     74001
     74003     74002     74004     74006     74005     74007     74009     74008     74010
     74012     74011     74013     74015     74014     74016     74018     74017     74019
     74021     74020     74022     74024     74023     74025     74027     74026     74028
     74030     74029     74031     74033     74032     74034     74036     74035     74037
     74039     74038     74040     74042     74041     74043     74045     74044     74046
     74048     74047     74049     74051     74050     74052     74054     74053     74055
     74057     74056     74058     74060     74059     74061     74063     74062     74064
     74066     74065     74067     74069     74068     74070     74072     74071     74073
     74075     74074     74076     74078     74077     74079     74081     74080     74082
     74084     74083     74085     74087     74086     74088     74090     74089     74091
     74093     74092     74094     74096     74095     74097     74099     74098     74100
     74102     74101     74103     74105     74104     74106     74108     74107     74109
     74111     74110     74112     74114     74113     74115     74117     74116     74118
     74120     74119     74121     74123     74122     74124     74126     74125     74127
     74129     74128     74130     74132     74131     74133     74135     74134     74136
     74138     74137     74139     74141     74140     74142     74144     74143     74145
     74147     74146     74148     74150     74149     74151     74153     74152     74154
     74156     74155     74157     74159     74158     74160     74162     74161     74163
     74165     74164     74166     74168     74167     74169     74171     74170     74172
     74174     74173     74175     74177     74176     74178     74180     74179     74181
     74183     74182     74184     74186     74185     74187     74189     74188     74190
     74192     74191     74193     74195     74194     74196     74198     74197     74199
     74201     74200     74202     74204     74203     74205     74207     74206     74208
     74210     74209     74211     74213     74212     74214     74216     74215     74217
     74219     74218     74220     74222     74221     74223     74225     74224     74226
     74228     74227     74229     74231     74230     74232     74234     74233     74235
     74237     74236     74238     74240     74239     74241     74243     74242     74244
     74246     74245     74247     74249     74248     74250     74252     74251     74253
     74255     74254     74256     74258     74257     74259     74261     74260     74262
     74264     74263     74265     74267     74266     74268     74270     74269     74271
     74273     74272     74274     74276     74275     74277     74279     74278     74280
     74282     74281     74283     74285     74284     74286     74288     74287     74289
     74291     74290     74292     74294     74293     74295     74297     74296     74298
     74300     74299     74301     74303     74302     74304     74306     74305     74307
     74309     74308     74310     74312     74311     74313     74315     74314     74316
     74318     74317     74319     74321     74320     74322     74324     74323     74325
     74327     74326     74328     74330     74329     74331     74333     74332     74334
     74336     74335     74337     74339     74338     74340     74342     74341     74343
     74345     74344     74346     74348     74347     74349     74351     74350     74352
     74354     74353     74355     74357     74356     74358     74360     74359     74361
     74363     74362     74364     74366     74365     74367     74369     74368     74370
     74372     74371     74373     74375     74374     74376     74378     74377     74379
     74381     74380     74382     74384     74383     74385     74387     74386     74388
     74390     74389     74391     74393     74392     74394     74396     74395     74397
     74399     74398     74400     74402     74401     74403     74405     74404     74406
     74408     74407     74409     74411     74410     74412     74414     74413     74415
     74417     74416     74418     74420     74419     74421     74423     74422     74424
     74426     74425     74427     74429     74428     74430     74432     74431     74433
     74435     74434     74436     74438     74437     74439     74441     74440     74442
     74444     74443     74445     74447     74446     74448     74450     74449     74451
     74453     74452     74454     74456     74455     74457     74459     74458     74460
     74462     74461     74463     74465     74464     74466     74468     74467     74469
     74471     74470     74472     74474     74473     74475     74477     74476     74478
     74480     74479     74481     74483     74482     74484     74486     74485     74487
     74489     74488     74490     74492     74491     74493     74495     74494     74496
     74498     74497     74499     74501     74500     74502     74504     74503     74505
     74507     74506     74508     74510     74509     74511     74513     74512     74514
     74516     74515     74517     74519     74518     74520     74522     74521     74523
     74525     74524     74526     74528     74527     74529     74531     74530     74532
     74534     74533     74535     74537     74536     74538     74540     74539     74541
     74543     74542     74544     74546     74545     74547     74549     74548     74550
     74552     74551     74553     74555     74554     74556     74558     74557     74559
     74561     74560     74562     74564     74563     74565     74567     74566     74568
     74570     74569     74571     74573     74572     74574     74576     74575     74577
     74579     74578     74580     74582     74581     74583     74585     74584     74586
     74588     74587     74589     74591     74590     74592     74594     74593     74595
     74597     74596     74598     74600     74599     74601     74603     74602     74604
     74606     74605     74607     74609     74608     74610     74612     74611     74613
     74615     74614     74616     74618     74617     74619     74621     74620     74622
     74624     74623     74625     74627     74626     74628     74630     74629     74631
     74633     74632     74634     74636     74635     74637     74639     74638     74640
     74642     74641     74643     74645     74644     74646     74648     74647     74649
     74651     74650     74652     74654     74653     74655     74657     74656     74658
     74660     74659     74661     74663     74662     74664     74666     74665     74667
     74669     74668     74670     74672     74671     74673     74675     74674     74676
     74678     74677     74679     74681     74680     74682     74684     74683     74685
     74687     74686     74688     74690     74689     74691     74693     74692     74694
     74696     74695     74697     74699     74698     74700     74702     74701     74703
     74705     74704     74706     74708     74707     74709     74711     74710     74712
     74714     74713     74715     74717     74716     74718     74720     74719     74721
     74723     74722     74724     74726     74725     74727     74729     74728     74730
     74732     74731     74733     74735     74734     74736     74738     74737     74739
     74741     74740     74742     74744     74743     74745     74747     74746     74748
     74750     74749     74751     74753     74752     74754     74756     74755     74757
     74759     74758     74760     74762     74761     74763     74765     74764     74766
     74768     74767     74769     74771     74770     74772     74774     74773     74775
     74777     74776     74778     74780     74779     74781     74783     74782     74784
     74786     74785     74787     74789     74788     74790     74792     74791     74793
     74795     74794     74796     74798     74797     74799     74801     74800     74802
     74804     74803     74805     74807     74806     74808     74810     74809     74811
     74813     74812     74814     74816     74815     74817     74819     74818     74820
     74822     74821     74823     74825     74824     74826     74828     74827     74829
     74831     74830     74832     74834     74833     74835     74837     74836     74838
     74840     74839     74841     74843     74842     74844     74846     74845     74847
     74849     74848     74850     74852     74851     74853     74855     74854     74856
     74858     74857     74859     74861     74860     74862     74864     74863     74865
     74867     74866     74868     74870     74869     74871     74873     74872     74874
     74876     74875     74877     74879     74878     74880     74882     74881     74883
     74885     74884     74886     74888     74887     74889     74891     74890     74892
     74894     74893     74895     74897     74896     74898     74900     74899     74901
     74903     74902     74904     74906     74905     74907     74909     74908     74910
     74912     74911     74913     74915     74914     74916     74918     74917     74919
     74921     74920     74922     74924     74923     74925     74927     74926     74928
     74930     74929     74931     74933     74932     74934     74936     74935     74937
     74939     74938     74940     74942     74941     74943     74945     74944     74946
     74948     74947     74949     74951     74950     74952     74954     74953     74955
     74957     74956     74958     74960     74959     74961     74963     74962     74964
     74966     74965     74967     74969     74968     74970     74972     74971     74973
     74975     74974     74976     74978     74977     74979     74981     74980     74982
     74984     74983     74985     74987     74986     74988     74990     74989     74991
     74993     74992     74994     74996     74995     74997     74999     74998     75000
     75002     75001     75003     75005     75004     75006     75008     75007     75009
     75011     75010     75012     75014     75013     75015     75017     75016     75018
     75020     75019     75021     75023     75022     75024     75026     75025     75027
     75029     75028     75030     75032     75031     75033     75035     75034     75036
     75038     75037     75039     75041     75040     75042     75044     75043     75045
     75047     75046     75048     75050     75049     75051     75053     75052     75054
     75056     75055     75057     75059     75058     75060     75062     75061     75063
     75065     75064     75066     75068     75067     75069     75071     75070     75072
     75074     75073     75075     75077     75076     75078     75080     75079     75081
     75083     75082     75084     75086     75085     75087     75089     75088     75090
     75092     75091     75093     75095     75094     75096     75098     75097     75099
     75101     75100     75102     75104     75103     75105     75107     75106     75108
     75110     75109     75111     75113     75112     75114     75116     75115     75117
     75119     75118     75120     75122     75121     75123     75125     75124     75126
     75128     75127     75129     75131     75130     75132     75134     75133     75135
     75137     75136     75138     75140     75139     75141     75143     75142     75144
     75146     75145     75147     75149     75148     75150     75152     75151     75153
     75155     75154     75156     75158     75157     75159     75161     75160     75162
     75164     75163     75165     75167     75166     75168     75170     75169     75171
     75173     75172     75174     75176     75175     75177     75179     75178     75180
     75182     75181     75183     75185     75184     75186     75188     75187     75189
     75191     75190     75192     75194     75193     75195     75197     75196     75198
     75200     75199     75201     75203     75202     75204     75206     75205     75207
     75209     75208     75210     75212     75211     75213     75215     75214     75216
     75218     75217     75219     75221     75220     75222     75224     75223     75225
     75227     75226     75228     75230     75229     75231     75233     75232     75234
     75236     75235     75237     75239     75238     75240     75242     75241     75243
     75245     75244     75246     75248     75247     75249     75251     75250     75252
     75254     75253     75255     75257     75256     75258     75260     75259     75261
     75263     75262     75264     75266     75265     75267     75269     75268     75270
     75272     75271     75273     75275     75274     75276     75278     75277     75279
     75281     75280     75282     75284     75283     75285     75287     75286     75288
     75290     75289     75291     75293     75292     75294     75296     75295     75297
     75299     75298     75300     75302     75301     75303     75305     75304     75306
     75308     75307     75309     75311     75310     75312     75314     75313     75315
     75317     75316     75318     75320     75319     75321     75323     75322     75324
     75326     75325     75327     75329     75328     75330     75332     75331     75333
     75335     75334     75336     75338     75337     75339     75341     75340     75342
     75344     75343     75345     75347     75346     75348     75350     75349     75351
     75353     75352     75354     75356     75355     75357     75359     75358     75360
     75362     75361     75363     75365     75364     75366     75368     75367     75369
     75371     75370     75372     75374     75373     75375     75377     75376     75378
     75380     75379     75381     75383     75382     75384     75386     75385     75387
     75389     75388     75390     75392     75391     75393     75395     75394     75396
     75398     75397     75399     75401     75400     75402     75404     75403     75405
     75407     75406     75408     75410     75409     75411     75413     75412     75414
     75416     75415     75417     75419     75418     75420     75422     75421     75423
     75425     75424     75426     75428     75427     75429     75431     75430     75432
     75434     75433     75435     75437     75436     75438     75440     75439     75441
     75443     75442     75444     75446     75445     75447     75449     75448     75450
     75452     75451     75453     75455     75454     75456     75458     75457     75459
     75461     75460     75462     75464     75463     75465     75467     75466     75468
     75470     75469     75471     75473     75472     75474     75476     75475     75477
     75479     75478     75480     75482     75481     75483     75485     75484     75486
     75488     75487     75489     75491     75490     75492     75494     75493     75495
     75497     75496     75498     75500     75499     75501     75503     75502     75504
     75506     75505     75507     75509     75508     75510     75512     75511     75513
     75515     75514     75516     75518     75517     75519     75521     75520     75522
     75524     75523     75525     75527     75526     75528     75530     75529     75531
     75533     75532     75534     75536     75535     75537     75539     75538     75540
     75542     75541     75543     75545     75544     75546     75548     75547     75549
     75551     75550     75552     75554     75553     75555     75557     75556     75558
     75560     75559     75561     75563     75562     75564     75566     75565     75567
     75569     75568     75570     75572     75571     75573     75575     75574     75576
     75578     75577     75579     75581     75580     75582     75584     75583     75585
     75587     75586     75588     75590     75589     75591     75593     75592     75594
     75596     75595     75597     75599     75598     75600     75602     75601     75603
     75605     75604     75606     75608     75607     75609     75611     75610     75612
     75614     75613     75615     75617     75616     75618     75620     75619     75621
     75623     75622     75624     75626     75625     75627     75629     75628     75630
     75632     75631     75633     75635     75634     75636     75638     75637     75639
     75641     75640     75642     75644     75643     75645     75647     75646     75648
     75650     75649     75651     75653     75652     75654     75656     75655     75657
     75659     75658     75660     75662     75661     75663     75665     75664     75666
     75668     75667     75669     75671     75670     75672     75674     75673     75675
     75677     75676     75678     75680     75679     75681     75683     75682     75684
     75686     75685     75687     75689     75688     75690     75692     75691     75693
     75695     75694     75696     75698     75697     75699     75701     75700     75702
     75704     75703     75705     75707     75706     75708     75710     75709     75711
     75713     75712     75714     75716     75715     75717     75719     75718     75720
     75722     75721     75723     75725     75724     75726     75728     75727     75729
     75731     75730     75732     75734     75733     75735     75737     75736     75738
     75740     75739     75741     75743     75742     75744     75746     75745     75747
     75749     75748     75750     75752     75751     75753     75755     75754     75756
     75758     75757     75759     75761     75760     75762     75764     75763     75765
     75767     75766     75768     75770     75769     75771     75773     75772     75774
     75776     75775     75777     75779     75778     75780     75782     75781     75783
     75785     75784     75786     75788     75787     75789     75791     75790     75792
     75794     75793     75795     75797     75796     75798     75800     75799     75801
     75803     75802     75804     75806     75805     75807     75809     75808     75810
     75812     75811     75813     75815     75814     75816     75818     75817     75819
     75821     75820     75822     75824     75823     75825     75827     75826     75828
     75830     75829     75831     75833     75832     75834     75836     75835     75837
     75839     75838     75840     75842     75841     75843     75845     75844     75846
     75848     75847     75849     75851     75850     75852     75854     75853     75855
     75857     75856     75858     75860     75859     75861     75863     75862     75864
     75866     75865     75867     75869     75868     75870     75872     75871     75873
     75875     75874     75876     75878     75877     75879     75881     75880     75882
     75884     75883     75885     75887     75886     75888     75890     75889     75891
     75893     75892     75894     75896     75895     75897     75899     75898     75900
     75902     75901     75903     75905     75904     75906     75908     75907     75909
     75911     75910     75912     75914     75913     75915     75917     75916     75918
     75920     75919     75921     75923     75922     75924     75926     75925     75927
     75929     75928     75930     75932     75931     75933     75935     75934     75936
     75938     75937     75939     75941     75940     75942     75944     75943     75945
     75947     75946     75948     75950     75949     75951     75953     75952     75954
     75956     75955     75957     75959     75958     75960     75962     75961     75963
     75965     75964     75966     75968     75967     75969     75971     75970     75972
     75974     75973     75975     75977     75976     75978     75980     75979     75981
     75983     75982     75984     75986     75985     75987     75989     75988     75990
     75992     75991     75993     75995     75994     75996     75998     75997     75999
     76001     76000     76002     76004     76003     76005     76007     76006     76008
     76010     76009     76011     76013     76012     76014     76016     76015     76017
     76019     76018     76020     76022     76021     76023     76025     76024     76026
     76028     76027     76029     76031     76030     76032     76034     76033     76035
     76037     76036     76038     76040     76039     76041     76043     76042     76044
     76046     76045     76047     76049     76048     76050     76052     76051     76053
     76055     76054     76056     76058     76057     76059     76061     76060     76062
     76064     76063     76065     76067     76066     76068     76070     76069     76071
     76073     76072     76074     76076     76075     76077     76079     76078     76080
     76082     76081     76083     76085     76084     76086     76088     76087     76089
     76091     76090     76092     76094     76093     76095     76097     76096     76098
     76100     76099     76101     76103     76102     76104     76106     76105     76107
     76109     76108     76110     76112     76111     76113     76115     76114     76116
     76118     76117     76119     76121     76120     76122     76124     76123     76125
     76127     76126     76128     76130     76129     76131     76133     76132     76134
     76136     76135     76137     76139     76138     76140     76142     76141     76143
     76145     76144     76146     76148     76147     76149     76151     76150     76152
     76154     76153     76155     76157     76156     76158     76160     76159     76161
     76163     76162     76164     76166     76165     76167     76169     76168     76170
     76172     76171     76173     76175     76174     76176     76178     76177     76179
     76181     76180     76182     76184     76183     76185     76187     76186     76188
     76190     76189     76191     76193     76192     76194     76196     76195     76197
     76199     76198     76200     76202     76201     76203     76205     76204     76206
     76208     76207     76209     76211     76210     76212     76214     76213     76215
     76217     76216     76218     76220     76219     76221     76223     76222     76224
     76226     76225     76227     76229     76228     76230     76232     76231     76233
     76235     76234     76236     76238     76237     76239     76241     76240     76242
     76244     76243     76245     76247     76246     76248     76250     76249     76251
     76253     76252     76254     76256     76255     76257     76259     76258     76260
     76262     76261     76263     76265     76264     76266     76268     76267     76269
     76271     76270     76272     76274     76273     76275     76277     76276     76278
     76280     76279     76281     76283     76282     76284     76286     76285     76287
     76289     76288     76290     76292     76291     76293     76295     76294     76296
     76298     76297     76299     76301     76300     76302     76304     76303     76305
     76307     76306     76308     76310     76309     76311     76313     76312     76314
     76316     76315     76317     76319     76318     76320     76322     76321     76323
     76325     76324     76326     76328     76327     76329     76331     76330     76332
     76334     76333     76335     76337     76336     76338     76340     76339     76341
     76343     76342     76344     76346     76345     76347     76349     76348     76350
     76352     76351     76353     76355     76354     76356     76358     76357     76359
     76361     76360     76362     76364     76363     76365     76367     76366     76368
     76370     76369     76371     76373     76372     76374     76376     76375     76377
     76379     76378     76380     76382     76381     76383     76385     76384     76386
     76388     76387     76389     76391     76390     76392     76394     76393     76395
     76397     76396     76398     76400     76399     76401     76403     76402     76404
     76406     76405     76407     76409     76408     76410     76412     76411     76413
     76415     76414     76416     76418     76417     76419     76421     76420     76422
     76424     76423     76425     76427     76426     76428     76430     76429     76431
     76433     76432     76434     76436     76435     76437     76439     76438     76440
     76442     76441     76443     76445     76444     76446     76448     76447     76449
     76451     76450     76452     76454     76453     76455     76457     76456     76458
     76460     76459     76461     76463     76462     76464     76466     76465     76467
     76469     76468     76470     76472     76471     76473     76475     76474     76476
     76478     76477     76479     76481     76480     76482     76484     76483     76485
     76487     76486     76488     76490     76489     76491     76493     76492     76494
     76496     76495     76497     76499     76498     76500     76502     76501     76503
     76505     76504     76506     76508     76507     76509     76511     76510     76512
     76514     76513     76515     76517     76516     76518     76520     76519     76521
     76523     76522     76524     76526     76525     76527     76529     76528     76530
     76532     76531     76533     76535     76534     76536     76538     76537     76539
     76541     76540     76542     76544     76543     76545     76547     76546     76548
     76550     76549     76551     76553     76552     76554     76556     76555     76557
     76559     76558     76560     76562     76561     76563     76565     76564     76566
     76568     76567     76569     76571     76570     76572     76574     76573     76575
     76577     76576     76578     76580     76579     76581     76583     76582     76584
     76586     76585     76587     76589     76588     76590     76592     76591     76593
     76595     76594     76596     76598     76597     76599     76601     76600     76602
     76604     76603     76605     76607     76606     76608     76610     76609     76611
     76613     76612     76614     76616     76615     76617     76619     76618     76620
     76622     76621     76623     76625     76624     76626     76628     76627     76629
     76631     76630     76632     76634     76633     76635     76637     76636     76638
     76640     76639     76641     76643     76642     76644     76646     76645     76647
     76649     76648     76650     76652     76651     76653     76655     76654     76656
     76658     76657     76659     76661     76660     76662     76664     76663     76665
     76667     76666     76668     76670     76669     76671     76673     76672     76674
     76676     76675     76677     76679     76678     76680     76682     76681     76683
     76685     76684     76686     76688     76687     76689     76691     76690     76692
     76694     76693     76695     76697     76696     76698     76700     76699     76701
     76703     76702     76704     76706     76705     76707     76709     76708     76710
     76712     76711     76713     76715     76714     76716     76718     76717     76719
     76721     76720     76722     76724     76723     76725     76727     76726     76728
     76730     76729     76731     76733     76732     76734     76736     76735     76737
     76739     76738     76740     76742     76741     76743     76745     76744     76746
     76748     76747     76749     76751     76750     76752     76754     76753     76755
     76757     76756     76758     76760     76759     76761     76763     76762     76764
     76766     76765     76767     76769     76768     76770     76772     76771     76773
     76775     76774     76776     76778     76777     76779     76781     76780     76782
     76784     76783     76785     76787     76786     76788     76790     76789     76791
     76793     76792     76794     76796     76795     76797     76799     76798     76800
     76802     76801     76803     76805     76804     76806     76808     76807     76809
     76811     76810     76812     76814     76813     76815     76817     76816     76818
     76820     76819     76821     76823     76822     76824     76826     76825     76827
     76829     76828     76830     76832     76831     76833     76835     76834     76836
     76838     76837     76839     76841     76840     76842     76844     76843     76845
     76847     76846     76848     76850     76849     76851     76853     76852     76854
     76856     76855     76857     76859     76858     76860     76862     76861     76863
     76865     76864     76866     76868     76867     76869     76871     76870     76872
     76874     76873     76875     76877     76876     76878     76880     76879     76881
     76883     76882     76884     76886     76885     76887     76889     76888     76890
     76892     76891     76893     76895     76894     76896     76898     76897     76899
     76901     76900     76902     76904     76903     76905     76907     76906     76908
     76910     76909     76911     76913     76912     76914     76916     76915     76917
     76919     76918     76920     76922     76921     76923     76925     76924     76926
     76928     76927     76929     76931     76930     76932     76934     76933     76935
     76937     76936     76938     76940     76939     76941     76943     76942     76944
     76946     76945     76947     76949     76948     76950     76952     76951     76953
     76955     76954     76956     76958     76957     76959     76961     76960     76962
     76964     76963     76965     76967     76966     76968     76970     76969     76971
     76973     76972     76974     76976     76975     76977     76979     76978     76980
     76982     76981     76983     76985     76984     76986     76988     76987     76989
     76991     76990     76992     76994     76993     76995     76997     76996     76998
     77000     76999     77001     77003     77002     77004     77006     77005     77007
     77009     77008     77010     77012     77011     77013     77015     77014     77016
     77018     77017     77019     77021     77020     77022     77024     77023     77025
     77027     77026     77028     77030     77029     77031     77033     77032     77034
     77036     77035     77037     77039     77038     77040     77042     77041     77043
     77045     77044     77046     77048     77047     77049     77051     77050     77052
     77054     77053     77055     77057     77056     77058     77060     77059     77061
     77063     77062     77064     77066     77065     77067     77069     77068     77070
     77072     77071     77073     77075     77074     77076     77078     77077     77079
     77081     77080     77082     77084     77083     77085     77087     77086     77088
     77090     77089     77091     77093     77092     77094     77096     77095     77097
     77099     77098     77100     77102     77101     77103     77105     77104     77106
     77108     77107     77109     77111     77110     77112     77114     77113     77115
     77117     77116     77118     77120     77119     77121     77123     77122     77124
     77126     77125     77127     77129     77128     77130     77132     77131     77133
     77135     77134     77136     77138     77137     77139     77141     77140     77142
     77144     77143     77145     77147     77146     77148     77150     77149     77151
     77153     77152     77154     77156     77155     77157     77159     77158     77160
     77162     77161     77163     77165     77164     77166     77168     77167     77169
     77171     77170     77172     77174     77173     77175     77177     77176     77178
     77180     77179     77181     77183     77182     77184     77186     77185     77187
     77189     77188     77190     77192     77191     77193     77195     77194     77196
     77198     77197     77199     77201     77200     77202     77204     77203     77205
     77207     77206     77208     77210     77209     77211     77213     77212     77214
     77216     77215     77217     77219     77218     77220     77222     77221     77223
     77225     77224     77226     77228     77227     77229     77231     77230     77232
     77234     77233     77235     77237     77236     77238     77240     77239     77241
     77243     77242     77244     77246     77245     77247     77249     77248     77250
     77252     77251     77253     77255     77254     77256     77258     77257     77259
     77261     77260     77262     77264     77263     77265     77267     77266     77268
     77270     77269     77271     77273     77272     77274     77276     77275     77277
     77279     77278     77280     77282     77281     77283     77285     77284     77286
     77288     77287     77289     77291     77290     77292     77294     77293     77295
     77297     77296     77298     77300     77299     77301     77303     77302     77304
     77306     77305     77307     77309     77308     77310     77312     77311     77313
     77315     77314     77316     77318     77317     77319     77321     77320     77322
     77324     77323     77325     77327     77326     77328     77330     77329     77331
     77333     77332     77334     77336     77335     77337     77339     77338     77340
     77342     77341     77343     77345     77344     77346     77348     77347     77349
     77351     77350     77352     77354     77353     77355     77357     77356     77358
     77360     77359     77361     77363     77362     77364     77366     77365     77367
     77369     77368     77370     77372     77371     77373     77375     77374     77376
     77378     77377     77379     77381     77380     77382     77384     77383     77385
     77387     77386     77388     77390     77389     77391     77393     77392     77394
     77396     77395     77397     77399     77398     77400     77402     77401     77403
     77405     77404     77406     77408     77407     77409     77411     77410     77412
     77414     77413     77415     77417     77416     77418     77420     77419     77421
     77423     77422     77424     77426     77425     77427     77429     77428     77430
     77432     77431     77433     77435     77434     77436     77438     77437     77439
     77441     77440     77442     77444     77443     77445     77447     77446     77448
     77450     77449     77451     77453     77452     77454     77456     77455     77457
     77459     77458     77460     77462     77461     77463     77465     77464     77466
     77468     77467     77469     77471     77470     77472     77474     77473     77475
     77477     77476     77478     77480     77479     77481     77483     77482     77484
     77486     77485     77487     77489     77488     77490     77492     77491     77493
     77495     77494     77496     77498     77497     77499     77501     77500     77502
     77504     77503     77505     77507     77506     77508     77510     77509     77511
     77513     77512     77514     77516     77515     77517     77519     77518     77520
     77522     77521     77523     77525     77524     77526     77528     77527     77529
     77531     77530     77532     77534     77533     77535     77537     77536     77538
     77540     77539     77541     77543     77542     77544     77546     77545     77547
     77549     77548     77550     77552     77551     77553     77555     77554     77556
     77558     77557     77559     77561     77560     77562     77564     77563     77565
     77567     77566     77568     77570     77569     77571     77573     77572     77574
     77576     77575     77577     77579     77578     77580     77582     77581     77583
     77585     77584     77586     77588     77587     77589     77591     77590     77592
     77594     77593     77595     77597     77596     77598     77600     77599     77601
     77603     77602     77604     77606     77605     77607     77609     77608     77610
     77612     77611     77613     77615     77614     77616     77618     77617     77619
     77621     77620     77622     77624     77623     77625     77627     77626     77628
     77630     77629     77631     77633     77632     77634     77636     77635     77637
     77639     77638     77640     77642     77641     77643     77645     77644     77646
     77648     77647     77649     77651     77650     77652     77654     77653     77655
     77657     77656     77658     77660     77659     77661     77663     77662     77664
     77666     77665     77667     77669     77668     77670     77672     77671     77673
     77675     77674     77676     77678     77677     77679     77681     77680     77682
     77684     77683     77685     77687     77686     77688     77690     77689     77691
     77693     77692     77694     77696     77695     77697     77699     77698     77700
     77702     77701     77703     77705     77704     77706     77708     77707     77709
     77711     77710     77712     77714     77713     77715     77717     77716     77718
     77720     77719     77721     77723     77722     77724     77726     77725     77727
     77729     77728     77730     77732     77731     77733     77735     77734     77736
     77738     77737     77739     77741     77740     77742     77744     77743     77745
     77747     77746     77748     77750     77749     77751     77753     77752     77754
     77756     77755     77757     77759     77758     77760     77762     77761     77763
     77765     77764     77766     77768     77767     77769     77771     77770     77772
     77774     77773     77775     77777     77776     77778     77780     77779     77781
     77783     77782     77784     77786     77785     77787     77789     77788     77790
     77792     77791     77793     77795     77794     77796     77798     77797     77799
     77801     77800     77802     77804     77803     77805     77807     77806     77808
     77810     77809     77811     77813     77812     77814     77816     77815     77817
     77819     77818     77820     77822     77821     77823     77825     77824     77826
     77828     77827     77829     77831     77830     77832     77834     77833     77835
     77837     77836     77838     77840     77839     77841     77843     77842     77844
     77846     77845     77847     77849     77848     77850     77852     77851     77853
     77855     77854     77856     77858     77857     77859     77861     77860     77862
     77864     77863     77865     77867     77866     77868     77870     77869     77871
     77873     77872     77874     77876     77875     77877     77879     77878     77880
     77882     77881     77883     77885     77884     77886     77888     77887     77889
     77891     77890     77892     77894     77893     77895     77897     77896     77898
     77900     77899     77901     77903     77902     77904     77906     77905     77907
     77909     77908     77910     77912     77911     77913     77915     77914     77916
     77918     77917     77919     77921     77920     77922     77924     77923     77925
     77927     77926     77928     77930     77929     77931     77933     77932     77934
     77936     77935     77937     77939     77938     77940     77942     77941     77943
     77945     77944     77946     77948     77947     77949     77951     77950     77952
     77954     77953     77955     77957     77956     77958     77960     77959     77961
     77963     77962     77964     77966     77965     77967     77969     77968     77970
     77972     77971     77973     77975     77974     77976     77978     77977     77979
     77981     77980     77982     77984     77983     77985     77987     77986     77988
     77990     77989     77991     77993     77992     77994     77996     77995     77997
     77999     77998     78000     78002     78001     78003     78005     78004     78006
     78008     78007     78009     78011     78010     78012     78014     78013     78015
     78017     78016     78018     78020     78019     78021     78023     78022     78024
     78026     78025     78027     78029     78028     78030     78032     78031     78033
     78035     78034     78036     78038     78037     78039     78041     78040     78042
     78044     78043     78045     78047     78046     78048     78050     78049     78051
     78053     78052     78054     78056     78055     78057     78059     78058     78060
     78062     78061     78063     78065     78064     78066     78068     78067     78069
     78071     78070     78072     78074     78073     78075     78077     78076     78078
     78080     78079     78081     78083     78082     78084     78086     78085     78087
     78089     78088     78090     78092     78091     78093     78095     78094     78096
     78098     78097     78099     78101     78100     78102     78104     78103     78105
     78107     78106     78108     78110     78109     78111     78113     78112     78114
     78116     78115     78117     78119     78118     78120     78122     78121     78123
     78125     78124     78126     78128     78127     78129     78131     78130     78132
     78134     78133     78135     78137     78136     78138     78140     78139     78141
     78143     78142     78144     78146     78145     78147     78149     78148     78150
     78152     78151     78153     78155     78154     78156     78158     78157     78159
     78161     78160     78162     78164     78163     78165     78167     78166     78168
     78170     78169     78171     78173     78172     78174     78176     78175     78177
     78179     78178     78180     78182     78181     78183     78185     78184     78186
     78188     78187     78189     78191     78190     78192     78194     78193     78195
     78197     78196     78198     78200     78199     78201     78203     78202     78204
     78206     78205     78207     78209     78208     78210     78212     78211     78213
     78215     78214     78216     78218     78217     78219     78221     78220     78222
     78224     78223     78225     78227     78226     78228     78230     78229     78231
     78233     78232     78234     78236     78235     78237     78239     78238     78240
     78242     78241     78243     78245     78244     78246     78248     78247     78249
     78251     78250     78252     78254     78253     78255     78257     78256     78258
     78260     78259     78261     78263     78262     78264     78266     78265     78267
     78269     78268     78270     78272     78271     78273     78275     78274     78276
     78278     78277     78279     78281     78280     78282     78284     78283     78285
     78287     78286     78288     78290     78289     78291     78293     78292     78294
     78296     78295     78297     78299     78298     78300     78302     78301     78303
     78305     78304     78306     78308     78307     78309     78311     78310     78312
     78314     78313     78315     78317     78316     78318     78320     78319     78321
     78323     78322     78324     78326     78325     78327     78329     78328     78330
     78332     78331     78333     78335     78334     78336     78338     78337     78339
     78341     78340     78342     78344     78343     78345     78347     78346     78348
     78350     78349     78351     78353     78352     78354     78356     78355     78357
     78359     78358     78360     78362     78361     78363     78365     78364     78366
     78368     78367     78369     78371     78370     78372     78374     78373     78375
     78377     78376     78378     78380     78379     78381     78383     78382     78384
     78386     78385     78387     78389     78388     78390     78392     78391     78393
     78395     78394     78396     78398     78397     78399     78401     78400     78402
     78404     78403     78405     78407     78406     78408     78410     78409     78411
     78413     78412     78414     78416     78415     78417     78419     78418     78420
     78422     78421     78423     78425     78424     78426     78428     78427     78429
     78431     78430     78432     78434     78433     78435     78437     78436     78438
     78440     78439     78441     78443     78442     78444     78446     78445     78447
     78449     78448     78450     78452     78451     78453     78455     78454     78456
     78458     78457     78459     78461     78460     78462     78464     78463     78465
     78467     78466     78468     78470     78469     78471     78473     78472     78474
     78476     78475     78477     78479     78478     78480     78482     78481     78483
     78485     78484     78486     78488     78487     78489     78491     78490     78492
     78494     78493     78495     78497     78496     78498     78500     78499     78501
     78503     78502     78504     78506     78505     78507     78509     78508     78510
     78512     78511     78513     78515     78514     78516     78518     78517     78519
     78521     78520     78522     78524     78523     78525     78527     78526     78528
     78530     78529     78531     78533     78532     78534     78536     78535     78537
     78539     78538     78540     78542     78541     78543     78545     78544     78546
     78548     78547     78549     78551     78550     78552     78554     78553     78555
     78557     78556     78558     78560     78559     78561     78563     78562     78564
     78566     78565     78567     78569     78568     78570     78572     78571     78573
     78575     78574     78576     78578     78577     78579     78581     78580     78582
     78584     78583     78585     78587     78586     78588     78590     78589     78591
     78593     78592     78594     78596     78595     78597     78599     78598     78600
     78602     78601     78603     78605     78604     78606     78608     78607     78609
     78611     78610     78612     78614     78613     78615     78617     78616     78618
     78620     78619     78621     78623     78622     78624     78626     78625     78627
     78629     78628     78630     78632     78631     78633     78635     78634     78636
     78638     78637     78639     78641     78640     78642     78644     78643     78645
     78647     78646     78648     78650     78649     78651     78653     78652     78654
     78656     78655     78657     78659     78658     78660     78662     78661     78663
     78665     78664     78666     78668     78667     78669     78671     78670     78672
     78674     78673     78675     78677     78676     78678     78680     78679     78681
     78683     78682     78684     78686     78685     78687     78689     78688     78690
     78692     78691     78693     78695     78694     78696     78698     78697     78699
     78701     78700     78702     78704     78703     78705     78707     78706     78708
     78710     78709     78711     78713     78712     78714     78716     78715     78717
     78719     78718     78720     78722     78721     78723     78725     78724     78726
     78728     78727     78729     78731     78730     78732     78734     78733     78735
     78737     78736     78738     78740     78739     78741     78743     78742     78744
     78746     78745     78747     78749     78748     78750     78752     78751     78753
     78755     78754     78756     78758     78757     78759     78761     78760     78762
     78764     78763     78765     78767     78766     78768     78770     78769     78771
     78773     78772     78774     78776     78775     78777     78779     78778     78780
     78782     78781     78783     78785     78784     78786     78788     78787     78789
     78791     78790     78792     78794     78793     78795     78797     78796     78798
     78800     78799     78801     78803     78802     78804     78806     78805     78807
     78809     78808     78810     78812     78811     78813     78815     78814     78816
     78818     78817     78819     78821     78820     78822     78824     78823     78825
     78827     78826     78828     78830     78829     78831     78833     78832     78834
     78836     78835     78837     78839     78838     78840     78842     78841     78843
     78845     78844     78846     78848     78847     78849     78851     78850     78852
     78854     78853     78855     78857     78856     78858     78860     78859     78861
     78863     78862     78864     78866     78865     78867     78869     78868     78870
     78872     78871     78873     78875     78874     78876     78878     78877     78879
     78881     78880     78882     78884     78883     78885     78887     78886     78888
     78890     78889     78891     78893     78892     78894     78896     78895     78897
     78899     78898     78900     78902     78901     78903     78905     78904     78906

    104664 !NPHI: dihedrals
         1         2        17        18         1         2        17        19
         1         2        17        23         2         1         5         6
         2         1         5         7         2         1         5         8
         2         1         9        10         2         1         9        11
         2         1         9        12         2         1        13        14
         2         1        13        15         2         1        13        16
         2        17        23        20         3         2         1         5
         3         2         1         9         3         2         1        13
         3         2        17        18         3         2        17        19
         3         2        17        23         4         2         1         5
         4         2         1         9         4         2         1        13
         4         2        17        18         4         2        17        19
         4         2        17        23         5         1         2        17
         5         1         9        10         5         1         9        11
         5         1         9        12         5         1        13        14
         5         1        13        15         5         1        13        16
         6         5         1         9         6         5         1        13
         7         5         1         9         7         5         1        13
         8         5         1         9         8         5         1        13
         9         1         2        17         9         1        13        14
         9         1        13        15         9         1        13        16
        10         9         1        13        11         9         1        13
        12         9         1        13        13         1         2        17
        17        23        20        21        17        23        20        22
        17        23        20        24        18        17        23        20
        19        17        23        20        20        24        25        26
        20        24        25        27        20        24        25        28
        21        20        24        25        22        20        24        25
        23        20        24        25        24        25        28        29
        24        25        28        30        24        25        28        36
        25        28        30        31        25        28        36        37
        25        28        36        38        25        28        36        39
        26        25        28        29        26        25        28        30
        26        25        28        36        27        25        28        29
        27        25        28        30        27        25        28        36
        28        30        31        32        28        30        31        33
        28        36        39        40        29        28        30        31
        29        28        36        37        29        28        36        38
        29        28        36        39        30        28        36        37
        30        28        36        38        30        28        36        39
        30        31        33        34        30        31        33        35
        30        31        33        45        31        30        28        36
        31        33        45        46        31        33        45        47
        31        33        45        48        32        31        33        34
        32        31        33        35        32        31        33        45
        33        45        48        49        33        45        48        50
        33        45        48        51        34        33        45        46
        34        33        45        47        34        33        45        48
        35        33        45        46        35        33        45        47
        35        33        45        48        36        39        40        41
        36        39        40        42        37        36        39        40
        38        36        39        40        39        40        42        43
        39        40        42        44        39        40        42        92
        40        42        92        93        40        42        92        94
        40        42        92        95        41        40        42        43
        41        40        42        44        41        40        42        92
        42        92        95        96        42        92        95        97
        42        92        95        98        43        42        92        93
        43        42        92        94        43        42        92        95
        44        42        92        93        44        42        92        94
        44        42        92        95        45        48        51        52
        45        48        51        53        45        48        51        54
        46        45        48        49        46        45        48        50
        46        45        48        51        47        45        48        49
        47        45        48        50        47        45        48        51
        48        51        54        55        48        51        54        56
        48        51        54        57        49        48        51        52
        49        48        51        53        49        48        51        54
        50        48        51        52        50        48        51        53
        50        48        51        54        51        54        57        58
        51        54        57        59        51        54        57        60
        52        51        54        55        52        51        54        56
        52        51        54        57        53        51        54        55
        53        51        54        56        53        51        54        57
        54        57        60        61        54        57        60        62
        54        57        60        63        55        54        57        58
        55        54        57        59        55        54        57        60
        56        54        57        58        56        54        57        59
        56        54        57        60        57        60        63        64
        57        60        63        65        58        57        60        61
        58        57        60        62        58        57        60        63
        59        57        60        61        59        57        60        62
        59        57        60        63        60        63        65        66
        60        63        65        67        61        60        63        64
        61        60        63        65        62        60        63        64
        62        60        63        65        63        65        67        68
        63        65        67        69        63        65        67        70
        64        63        65        66        64        63        65        67
        65        67        70        71        65        67        70        72
        65        67        70        73        66        65        67        68
        66        65        67        69        66        65        67        70
        67        70        73        74        67        70        73        75
        67        70        73        76        68        67        70        71
        68        67        70        72        68        67        70        73
        69        67        70        71        69        67        70        72
        69        67        70        73        70        73        76        77
        70        73        76        78        70        73        76        79
        71        70        73        74        71        70        73        75
        71        70        73        76        72        70        73        74
        72        70        73        75        72        70        73        76
        73        76        79        80        73        76        79        81
        73        76        79        82        74        73        76        77
        74        73        76        78        74        73        76        79
        75        73        76        77        75        73        76        78
        75        73        76        79        76        79        82        83
        76        79        82        84        76        79        82        85
        77        76        79        80        77        76        79        81
        77        76        79        82        78        76        79        80
        78        76        79        81        78        76        79        82
        79        82        85        86        79        82        85        87
        79        82        85        88        80        79        82        83
        80        79        82        84        80        79        82        85
        81        79        82        83        81        79        82        84
        81        79        82        85        82        85        88        89
        82        85        88        90        82        85        88        91
        83        82        85        86        83        82        85        87
        83        82        85        88        84        82        85        86
        84        82        85        87        84        82        85        88
        86        85        88        89        86        85        88        90
        86        85        88        91        87        85        88        89
        87        85        88        90        87        85        88        91
        92        95        98        99        92        95        98       100
        92        95        98       101        93        92        95        96
        93        92        95        97        93        92        95        98
        94        92        95        96        94        92        95        97
        94        92        95        98        95        98       101       102
        95        98       101       103        95        98       101       104
        96        95        98        99        96        95        98       100
        96        95        98       101        97        95        98        99
        97        95        98       100        97        95        98       101
        98       101       104       105        98       101       104       106
        98       101       104       107        99        98       101       102
        99        98       101       103        99        98       101       104
       100        98       101       102       100        98       101       103
       100        98       101       104       101       104       107       108
       101       104       107       109       101       104       107       110
       102       101       104       105       102       101       104       106
       102       101       104       107       103       101       104       105
       103       101       104       106       103       101       104       107
       104       107       110       111       104       107       110       112
       104       107       110       113       105       104       107       108
       105       104       107       109       105       104       107       110
       106       104       107       108       106       104       107       109
       106       104       107       110       107       110       113       114
       107       110       113       115       107       110       113       116
       108       107       110       111       108       107       110       112
       108       107       110       113       109       107       110       111
       109       107       110       112       109       107       110       113
       110       113       116       117       110       113       116       118
       110       113       116       119       111       110       113       114
       111       110       113       115       111       110       113       116
       112       110       113       114       112       110       113       115
       112       110       113       116       113       116       119       120
       113       116       119       121       113       116       119       122
       114       113       116       117       114       113       116       118
       114       113       116       119       115       113       116       117
       115       113       116       118       115       113       116       119
       116       119       122       123       116       119       122       124
       116       119       122       125       117       116       119       120
       117       116       119       121       117       116       119       122
       118       116       119       120       118       116       119       121
       118       116       119       122       119       122       125       126
       119       122       125       127       119       122       125       128
       120       119       122       123       120       119       122       124
       120       119       122       125       121       119       122       123
       121       119       122       124       121       119       122       125
       122       125       128       129       122       125       128       130
       122       125       128       131       123       122       125       126
       123       122       125       127       123       122       125       128
       124       122       125       126       124       122       125       127
       124       122       125       128       125       128       131       132
       125       128       131       133       125       128       131       134
       126       125       128       129       126       125       128       130
       126       125       128       131       127       125       128       129
       127       125       128       130       127       125       128       131
       129       128       131       132       129       128       131       133
       129       128       131       134       130       128       131       132
       130       128       131       133       130       128       131       134
       135       136       151       152       135       136       151       153
       135       136       151       157       136       135       139       140
       136       135       139       141       136       135       139       142
       136       135       143       144       136       135       143       145
       136       135       143       146       136       135       147       148
       136       135       147       149       136       135       147       150
       136       151       157       154       137       136       135       139
       137       136       135       143       137       136       135       147
       137       136       151       152       137       136       151       153
       137       136       151       157       138       136       135       139
       138       136       135       143       138       136       135       147
       138       136       151       152       138       136       151       153
       138       136       151       157       139       135       136       151
       139       135       143       144       139       135       143       145
       139       135       143       146       139       135       147       148
       139       135       147       149       139       135       147       150
       140       139       135       143       140       139       135       147
       141       139       135       143       141       139       135       147
       142       139       135       143       142       139       135       147
       143       135       136       151       143       135       147       148
       143       135       147       149       143       135       147       150
       144       143       135       147       145       143       135       147
       146       143       135       147       147       135       136       151
       151       157       154       155       151       157       154       156
       151       157       154       158       152       151       157       154
       153       151       157       154       154       158       159       160
       154       158       159       161       154       158       159       162
       155       154       158       159       156       154       158       159
       157       154       158       159       158       159       162       163
       158       159       162       164       158       159       162       170
       159       162       164       165       159       162       170       171
       159       162       170       172       159       162       170       173
       160       159       162       163       160       159       162       164
       160       159       162       170       161       159       162       163
       161       159       162       164       161       159       162       170
       162       164       165       166       162       164       165       167
       162       170       173       174       163       162       164       165
       163       162       170       171       163       162       170       172
       163       162       170       173       164       162       170       171
       164       162       170       172       164       162       170       173
       164       165       167       168       164       165       167       169
       164       165       167       179       165       164       162       170
       165       167       179       180       165       167       179       181
       165       167       179       182       166       165       167       168
       166       165       167       169       166       165       167       179
       167       179       182       183       167       179       182       184
       167       179       182       185       168       167       179       180
       168       167       179       181       168       167       179       182
       169       167       179       180       169       167       179       181
       169       167       179       182       170       173       174       175
       170       173       174       176       171       170       173       174
       172       170       173       174       173       174       176       177
       173       174       176       178       173       174       176       226
       174       176       226       227       174       176       226       228
       174       176       226       229       175       174       176       177
       175       174       176       178       175       174       176       226
       176       226       229       230       176       226       229       231
       176       226       229       232       177       176       226       227
       177       176       226       228       177       176       226       229
       178       176       226       227       178       176       226       228
       178       176       226       229       179       182       185       186
       179       182       185       187       179       182       185       188
       180       179       182       183       180       179       182       184
       180       179       182       185       181       179       182       183
       181       179       182       184       181       179       182       185
       182       185       188       189       182       185       188       190
       182       185       188       191       183       182       185       186
       183       182       185       187       183       182       185       188
       184       182       185       186       184       182       185       187
       184       182       185       188       185       188       191       192
       185       188       191       193       185       188       191       194
       186       185       188       189       186       185       188       190
       186       185       188       191       187       185       188       189
       187       185       188       190       187       185       188       191
       188       191       194       195       188       191       194       196
       188       191       194       197       189       188       191       192
       189       188       191       193       189       188       191       194
       190       188       191       192       190       188       191       193
       190       188       191       194       191       194       197       198
       191       194       197       199       192       191       194       195
       192       191       194       196       192       191       194       197
       193       191       194       195       193       191       194       196
       193       191       194       197       194       197       199       200
       194       197       199       201       195       194       197       198
       195       194       197       199       196       194       197       198
       196       194       197       199       197       199       201       202
       197       199       201       203       197       199       201       204
       198       197       199       200       198       197       199       201
       199       201       204       205       199       201       204       206
       199       201       204       207       200       199       201       202
       200       199       201       203       200       199       201       204
       201       204       207       208       201       204       207       209
       201       204       207       210       202       201       204       205
       202       201       204       206       202       201       204       207
       203       201       204       205       203       201       204       206
       203       201       204       207       204       207       210       211
       204       207       210       212       204       207       210       213
       205       204       207       208       205       204       207       209
       205       204       207       210       206       204       207       208
       206       204       207       209       206       204       207       210
       207       210       213       214       207       210       213       215
       207       210       213       216       208       207       210       211
       208       207       210       212       208       207       210       213
       209       207       210       211       209       207       210       212
       209       207       210       213       210       213       216       217
       210       213       216       218       210       213       216       219
       211       210       213       214       211       210       213       215
       211       210       213       216       212       210       213       214
       212       210       213       215       212       210       213       216
       213       216       219       220       213       216       219       221
       213       216       219       222       214       213       216       217
       214       213       216       218       214       213       216       219
       215       213       216       217       215       213       216       218
       215       213       216       219       216       219       222       223
       216       219       222       224       216       219       222       225
       217       216       219       220       217       216       219       221
       217       216       219       222       218       216       219       220
       218       216       219       221       218       216       219       222
       220       219       222       223       220       219       222       224
       220       219       222       225       221       219       222       223
       221       219       222       224       221       219       222       225
       226       229       232       233       226       229       232       234
       226       229       232       235       227       226       229       230
       227       226       229       231       227       226       229       232
       228       226       229       230       228       226       229       231
       228       226       229       232       229       232       235       236
       229       232       235       237       229       232       235       238
       230       229       232       233       230       229       232       234
       230       229       232       235       231       229       232       233
       231       229       232       234       231       229       232       235
       232       235       238       239       232       235       238       240
       232       235       238       241       233       232       235       236
       233       232       235       237       233       232       235       238
       234       232       235       236       234       232       235       237
       234       232       235       238       235       238       241       242
       235       238       241       243       235       238       241       244
       236       235       238       239       236       235       238       240
       236       235       238       241       237       235       238       239
       237       235       238       240       237       235       238       241
       238       241       244       245       238       241       244       246
       238       241       244       247       239       238       241       242
       239       238       241       243       239       238       241       244
       240       238       241       242       240       238       241       243
       240       238       241       244       241       244       247       248
       241       244       247       249       241       244       247       250
       242       241       244       245       242       241       244       246
       242       241       244       247       243       241       244       245
       243       241       244       246       243       241       244       247
       244       247       250       251       244       247       250       252
       244       247       250       253       245       244       247       248
       245       244       247       249       245       244       247       250
       246       244       247       248       246       244       247       249
       246       244       247       250       247       250       253       254
       247       250       253       255       247       250       253       256
       248       247       250       251       248       247       250       252
       248       247       250       253       249       247       250       251
       249       247       250       252       249       247       250       253
       250       253       256       257       250       253       256       258
       250       253       256       259       251       250       253       254
       251       250       253       255       251       250       253       256
       252       250       253       254       252       250       253       255
       252       250       253       256       253       256       259       260
       253       256       259       261       253       256       259       262
       254       253       256       257       254       253       256       258
       254       253       256       259       255       253       256       257
       255       253       256       258       255       253       256       259
       256       259       262       263       256       259       262       264
       256       259       262       265       257       256       259       260
       257       256       259       261       257       256       259       262
       258       256       259       260       258       256       259       261
       258       256       259       262       259       262       265       266
       259       262       265       267       259       262       265       268
       260       259       262       263       260       259       262       264
       260       259       262       265       261       259       262       263
       261       259       262       264       261       259       262       265
       263       262       265       266       263       262       265       267
       263       262       265       268       264       262       265       266
       264       262       265       267       264       262       265       268
       269       270       285       286       269       270       285       287
       269       270       285       291       270       269       273       274
       270       269       273       275       270       269       273       276
       270       269       277       278       270       269       277       279
       270       269       277       280       270       269       281       282
       270       269       281       283       270       269       281       284
       270       285       291       288       271       270       269       273
       271       270       269       277       271       270       269       281
       271       270       285       286       271       270       285       287
       271       270       285       291       272       270       269       273
       272       270       269       277       272       270       269       281
       272       270       285       286       272       270       285       287
       272       270       285       291       273       269       270       285
       273       269       277       278       273       269       277       279
       273       269       277       280       273       269       281       282
       273       269       281       283       273       269       281       284
       274       273       269       277       274       273       269       281
       275       273       269       277       275       273       269       281
       276       273       269       277       276       273       269       281
       277       269       270       285       277       269       281       282
       277       269       281       283       277       269       281       284
       278       277       269       281       279       277       269       281
       280       277       269       281       281       269       270       285
       285       291       288       289       285       291       288       290
       285       291       288       292       286       285       291       288
       287       285       291       288       288       292       293       294
       288       292       293       295       288       292       293       296
       289       288       292       293       290       288       292       293
       291       288       292       293       292       293       296       297
       292       293       296       298       292       293       296       304
       293       296       298       299       293       296       304       305
       293       296       304       306       293       296       304       307
       294       293       296       297       294       293       296       298
       294       293       296       304       295       293       296       297
       295       293       296       298       295       293       296       304
       296       298       299       300       296       298       299       301
       296       304       307       308       297       296       298       299
       297       296       304       305       297       296       304       306
       297       296       304       307       298       296       304       305
       298       296       304       306       298       296       304       307
       298       299       301       302       298       299       301       303
       298       299       301       313       299       298       296       304
       299       301       313       314       299       301       313       315
       299       301       313       316       300       299       301       302
       300       299       301       303       300       299       301       313
       301       313       316       317       301       313       316       318
       301       313       316       319       302       301       313       314
       302       301       313       315       302       301       313       316
       303       301       313       314       303       301       313       315
       303       301       313       316       304       307       308       309
       304       307       308       310       305       304       307       308
       306       304       307       308       307       308       310       311
       307       308       310       312       307       308       310       360
       308       310       360       361       308       310       360       362
       308       310       360       363       309       308       310       311
       309       308       310       312       309       308       310       360
       310       360       363       364       310       360       363       365
       310       360       363       366       311       310       360       361
       311       310       360       362       311       310       360       363
       312       310       360       361       312       310       360       362
       312       310       360       363       313       316       319       320
       313       316       319       321       313       316       319       322
       314       313       316       317       314       313       316       318
       314       313       316       319       315       313       316       317
       315       313       316       318       315       313       316       319
       316       319       322       323       316       319       322       324
       316       319       322       325       317       316       319       320
       317       316       319       321       317       316       319       322
       318       316       319       320       318       316       319       321
       318       316       319       322       319       322       325       326
       319       322       325       327       319       322       325       328
       320       319       322       323       320       319       322       324
       320       319       322       325       321       319       322       323
       321       319       322       324       321       319       322       325
       322       325       328       329       322       325       328       330
       322       325       328       331       323       322       325       326
       323       322       325       327       323       322       325       328
       324       322       325       326       324       322       325       327
       324       322       325       328       325       328       331       332
       325       328       331       333       326       325       328       329
       326       325       328       330       326       325       328       331
       327       325       328       329       327       325       328       330
       327       325       328       331       328       331       333       334
       328       331       333       335       329       328       331       332
       329       328       331       333       330       328       331       332
       330       328       331       333       331       333       335       336
       331       333       335       337       331       333       335       338
       332       331       333       334       332       331       333       335
       333       335       338       339       333       335       338       340
       333       335       338       341       334       333       335       336
       334       333       335       337       334       333       335       338
       335       338       341       342       335       338       341       343
       335       338       341       344       336       335       338       339
       336       335       338       340       336       335       338       341
       337       335       338       339       337       335       338       340
       337       335       338       341       338       341       344       345
       338       341       344       346       338       341       344       347
       339       338       341       342       339       338       341       343
       339       338       341       344       340       338       341       342
       340       338       341       343       340       338       341       344
       341       344       347       348       341       344       347       349
       341       344       347       350       342       341       344       345
       342       341       344       346       342       341       344       347
       343       341       344       345       343       341       344       346
       343       341       344       347       344       347       350       351
       344       347       350       352       344       347       350       353
       345       344       347       348       345       344       347       349
       345       344       347       350       346       344       347       348
       346       344       347       349       346       344       347       350
       347       350       353       354       347       350       353       355
       347       350       353       356       348       347       350       351
       348       347       350       352       348       347       350       353
       349       347       350       351       349       347       350       352
       349       347       350       353       350       353       356       357
       350       353       356       358       350       353       356       359
       351       350       353       354       351       350       353       355
       351       350       353       356       352       350       353       354
       352       350       353       355       352       350       353       356
       354       353       356       357       354       353       356       358
       354       353       356       359       355       353       356       357
       355       353       356       358       355       353       356       359
       360       363       366       367       360       363       366       368
       360       363       366       369       361       360       363       364
       361       360       363       365       361       360       363       366
       362       360       363       364       362       360       363       365
       362       360       363       366       363       366       369       370
       363       366       369       371       363       366       369       372
       364       363       366       367       364       363       366       368
       364       363       366       369       365       363       366       367
       365       363       366       368       365       363       366       369
       366       369       372       373       366       369       372       374
       366       369       372       375       367       366       369       370
       367       366       369       371       367       366       369       372
       368       366       369       370       368       366       369       371
       368       366       369       372       369       372       375       376
       369       372       375       377       369       372       375       378
       370       369       372       373       370       369       372       374
       370       369       372       375       371       369       372       373
       371       369       372       374       371       369       372       375
       372       375       378       379       372       375       378       380
       372       375       378       381       373       372       375       376
       373       372       375       377       373       372       375       378
       374       372       375       376       374       372       375       377
       374       372       375       378       375       378       381       382
       375       378       381       383       375       378       381       384
       376       375       378       379       376       375       378       380
       376       375       378       381       377       375       378       379
       377       375       378       380       377       375       378       381
       378       381       384       385       378       381       384       386
       378       381       384       387       379       378       381       382
       379       378       381       383       379       378       381       384
       380       378       381       382       380       378       381       383
       380       378       381       384       381       384       387       388
       381       384       387       389       381       384       387       390
       382       381       384       385       382       381       384       386
       382       381       384       387       383       381       384       385
       383       381       384       386       383       381       384       387
       384       387       390       391       384       387       390       392
       384       387       390       393       385       384       387       388
       385       384       387       389       385       384       387       390
       386       384       387       388       386       384       387       389
       386       384       387       390       387       390       393       394
       387       390       393       395       387       390       393       396
       388       387       390       391       388       387       390       392
       388       387       390       393       389       387       390       391
       389       387       390       392       389       387       390       393
       390       393       396       397       390       393       396       398
       390       393       396       399       391       390       393       394
       391       390       393       395       391       390       393       396
       392       390       393       394       392       390       393       395
       392       390       393       396       393       396       399       400
       393       396       399       401       393       396       399       402
       394       393       396       397       394       393       396       398
       394       393       396       399       395       393       396       397
       395       393       396       398       395       393       396       399
       397       396       399       400       397       396       399       401
       397       396       399       402       398       396       399       400
       398       396       399       401       398       396       399       402
       403       404       419       420       403       404       419       421
       403       404       419       425       404       403       407       408
       404       403       407       409       404       403       407       410
       404       403       411       412       404       403       411       413
       404       403       411       414       404       403       415       416
       404       403       415       417       404       403       415       418
       404       419       425       422       405       404       403       407
       405       404       403       411       405       404       403       415
       405       404       419       420       405       404       419       421
       405       404       419       425       406       404       403       407
       406       404       403       411       406       404       403       415
       406       404       419       420       406       404       419       421
       406       404       419       425       407       403       404       419
       407       403       411       412       407       403       411       413
       407       403       411       414       407       403       415       416
       407       403       415       417       407       403       415       418
       408       407       403       411       408       407       403       415
       409       407       403       411       409       407       403       415
       410       407       403       411       410       407       403       415
       411       403       404       419       411       403       415       416
       411       403       415       417       411       403       415       418
       412       411       403       415       413       411       403       415
       414       411       403       415       415       403       404       419
       419       425       422       423       419       425       422       424
       419       425       422       426       420       419       425       422
       421       419       425       422       422       426       427       428
       422       426       427       429       422       426       427       430
       423       422       426       427       424       422       426       427
       425       422       426       427       426       427       430       431
       426       427       430       432       426       427       430       438
       427       430       432       433       427       430       438       439
       427       430       438       440       427       430       438       441
       428       427       430       431       428       427       430       432
       428       427       430       438       429       427       430       431
       429       427       430       432       429       427       430       438
       430       432       433       434       430       432       433       435
       430       438       441       442       431       430       432       433
       431       430       438       439       431       430       438       440
       431       430       438       441       432       430       438       439
       432       430       438       440       432       430       438       441
       432       433       435       436       432       433       435       437
       432       433       435       447       433       432       430       438
       433       435       447       448       433       435       447       449
       433       435       447       450       434       433       435       436
       434       433       435       437       434       433       435       447
       435       447       450       451       435       447       450       452
       435       447       450       453       436       435       447       448
       436       435       447       449       436       435       447       450
       437       435       447       448       437       435       447       449
       437       435       447       450       438       441       442       443
       438       441       442       444       439       438       441       442
       440       438       441       442       441       442       444       445
       441       442       444       446       441       442       444       494
       442       444       494       495       442       444       494       496
       442       444       494       497       443       442       444       445
       443       442       444       446       443       442       444       494
       444       494       497       498       444       494       497       499
       444       494       497       500       445       444       494       495
       445       444       494       496       445       444       494       497
       446       444       494       495       446       444       494       496
       446       444       494       497       447       450       453       454
       447       450       453       455       447       450       453       456
       448       447       450       451       448       447       450       452
       448       447       450       453       449       447       450       451
       449       447       450       452       449       447       450       453
       450       453       456       457       450       453       456       458
       450       453       456       459       451       450       453       454
       451       450       453       455       451       450       453       456
       452       450       453       454       452       450       453       455
       452       450       453       456       453       456       459       460
       453       456       459       461       453       456       459       462
       454       453       456       457       454       453       456       458
       454       453       456       459       455       453       456       457
       455       453       456       458       455       453       456       459
       456       459       462       463       456       459       462       464
       456       459       462       465       457       456       459       460
       457       456       459       461       457       456       459       462
       458       456       459       460       458       456       459       461
       458       456       459       462       459       462       465       466
       459       462       465       467       460       459       462       463
       460       459       462       464       460       459       462       465
       461       459       462       463       461       459       462       464
       461       459       462       465       462       465       467       468
       462       465       467       469       463       462       465       466
       463       462       465       467       464       462       465       466
       464       462       465       467       465       467       469       470
       465       467       469       471       465       467       469       472
       466       465       467       468       466       465       467       469
       467       469       472       473       467       469       472       474
       467       469       472       475       468       467       469       470
       468       467       469       471       468       467       469       472
       469       472       475       476       469       472       475       477
       469       472       475       478       470       469       472       473
       470       469       472       474       470       469       472       475
       471       469       472       473       471       469       472       474
       471       469       472       475       472       475       478       479
       472       475       478       480       472       475       478       481
       473       472       475       476       473       472       475       477
       473       472       475       478       474       472       475       476
       474       472       475       477       474       472       475       478
       475       478       481       482       475       478       481       483
       475       478       481       484       476       475       478       479
       476       475       478       480       476       475       478       481
       477       475       478       479       477       475       478       480
       477       475       478       481       478       481       484       485
       478       481       484       486       478       481       484       487
       479       478       481       482       479       478       481       483
       479       478       481       484       480       478       481       482
       480       478       481       483       480       478       481       484
       481       484       487       488       481       484       487       489
       481       484       487       490       482       481       484       485
       482       481       484       486       482       481       484       487
       483       481       484       485       483       481       484       486
       483       481       484       487       484       487       490       491
       484       487       490       492       484       487       490       493
       485       484       487       488       485       484       487       489
       485       484       487       490       486       484       487       488
       486       484       487       489       486       484       487       490
       488       487       490       491       488       487       490       492
       488       487       490       493       489       487       490       491
       489       487       490       492       489       487       490       493
       494       497       500       501       494       497       500       502
       494       497       500       503       495       494       497       498
       495       494       497       499       495       494       497       500
       496       494       497       498       496       494       497       499
       496       494       497       500       497       500       503       504
       497       500       503       505       497       500       503       506
       498       497       500       501       498       497       500       502
       498       497       500       503       499       497       500       501
       499       497       500       502       499       497       500       503
       500       503       506       507       500       503       506       508
       500       503       506       509       501       500       503       504
       501       500       503       505       501       500       503       506
       502       500       503       504       502       500       503       505
       502       500       503       506       503       506       509       510
       503       506       509       511       503       506       509       512
       504       503       506       507       504       503       506       508
       504       503       506       509       505       503       506       507
       505       503       506       508       505       503       506       509
       506       509       512       513       506       509       512       514
       506       509       512       515       507       506       509       510
       507       506       509       511       507       506       509       512
       508       506       509       510       508       506       509       511
       508       506       509       512       509       512       515       516
       509       512       515       517       509       512       515       518
       510       509       512       513       510       509       512       514
       510       509       512       515       511       509       512       513
       511       509       512       514       511       509       512       515
       512       515       518       519       512       515       518       520
       512       515       518       521       513       512       515       516
       513       512       515       517       513       512       515       518
       514       512       515       516       514       512       515       517
       514       512       515       518       515       518       521       522
       515       518       521       523       515       518       521       524
       516       515       518       519       516       515       518       520
       516       515       518       521       517       515       518       519
       517       515       518       520       517       515       518       521
       518       521       524       525       518       521       524       526
       518       521       524       527       519       518       521       522
       519       518       521       523       519       518       521       524
       520       518       521       522       520       518       521       523
       520       518       521       524       521       524       527       528
       521       524       527       529       521       524       527       530
       522       521       524       525       522       521       524       526
       522       521       524       527       523       521       524       525
       523       521       524       526       523       521       524       527
       524       527       530       531       524       527       530       532
       524       527       530       533       525       524       527       528
       525       524       527       529       525       524       527       530
       526       524       527       528       526       524       527       529
       526       524       527       530       527       530       533       534
       527       530       533       535       527       530       533       536
       528       527       530       531       528       527       530       532
       528       527       530       533       529       527       530       531
       529       527       530       532       529       527       530       533
       531       530       533       534       531       530       533       535
       531       530       533       536       532       530       533       534
       532       530       533       535       532       530       533       536
       537       538       553       554       537       538       553       555
       537       538       553       559       538       537       541       542
       538       537       541       543       538       537       541       544
       538       537       545       546       538       537       545       547
       538       537       545       548       538       537       549       550
       538       537       549       551       538       537       549       552
       538       553       559       556       539       538       537       541
       539       538       537       545       539       538       537       549
       539       538       553       554       539       538       553       555
       539       538       553       559       540       538       537       541
       540       538       537       545       540       538       537       549
       540       538       553       554       540       538       553       555
       540       538       553       559       541       537       538       553
       541       537       545       546       541       537       545       547
       541       537       545       548       541       537       549       550
       541       537       549       551       541       537       549       552
       542       541       537       545       542       541       537       549
       543       541       537       545       543       541       537       549
       544       541       537       545       544       541       537       549
       545       537       538       553       545       537       549       550
       545       537       549       551       545       537       549       552
       546       545       537       549       547       545       537       549
       548       545       537       549       549       537       538       553
       553       559       556       557       553       559       556       558
       553       559       556       560       554       553       559       556
       555       553       559       556       556       560       561       562
       556       560       561       563       556       560       561       564
       557       556       560       561       558       556       560       561
       559       556       560       561       560       561       564       565
       560       561       564       566       560       561       564       572
       561       564       566       567       561       564       572       573
       561       564       572       574       561       564       572       575
       562       561       564       565       562       561       564       566
       562       561       564       572       563       561       564       565
       563       561       564       566       563       561       564       572
       564       566       567       568       564       566       567       569
       564       572       575       576       565       564       566       567
       565       564       572       573       565       564       572       574
       565       564       572       575       566       564       572       573
       566       564       572       574       566       564       572       575
       566       567       569       570       566       567       569       571
       566       567       569       581       567       566       564       572
       567       569       581       582       567       569       581       583
       567       569       581       584       568       567       569       570
       568       567       569       571       568       567       569       581
       569       581       584       585       569       581       584       586
       569       581       584       587       570       569       581       582
       570       569       581       583       570       569       581       584
       571       569       581       582       571       569       581       583
       571       569       581       584       572       575       576       577
       572       575       576       578       573       572       575       576
       574       572       575       576       575       576       578       579
       575       576       578       580       575       576       578       628
       576       578       628       629       576       578       628       630
       576       578       628       631       577       576       578       579
       577       576       578       580       577       576       578       628
       578       628       631       632       578       628       631       633
       578       628       631       634       579       578       628       629
       579       578       628       630       579       578       628       631
       580       578       628       629       580       578       628       630
       580       578       628       631       581       584       587       588
       581       584       587       589       581       584       587       590
       582       581       584       585       582       581       584       586
       582       581       584       587       583       581       584       585
       583       581       584       586       583       581       584       587
       584       587       590       591       584       587       590       592
       584       587       590       593       585       584       587       588
       585       584       587       589       585       584       587       590
       586       584       587       588       586       584       587       589
       586       584       587       590       587       590       593       594
       587       590       593       595       587       590       593       596
       588       587       590       591       588       587       590       592
       588       587       590       593       589       587       590       591
       589       587       590       592       589       587       590       593
       590       593       596       597       590       593       596       598
       590       593       596       599       591       590       593       594
       591       590       593       595       591       590       593       596
       592       590       593       594       592       590       593       595
       592       590       593       596       593       596       599       600
       593       596       599       601       594       593       596       597
       594       593       596       598       594       593       596       599
       595       593       596       597       595       593       596       598
       595       593       596       599       596       599       601       602
       596       599       601       603       597       596       599       600
       597       596       599       601       598       596       599       600
       598       596       599       601       599       601       603       604
       599       601       603       605       599       601       603       606
       600       599       601       602       600       599       601       603
       601       603       606       607       601       603       606       608
       601       603       606       609       602       601       603       604
       602       601       603       605       602       601       603       606
       603       606       609       610       603       606       609       611
       603       606       609       612       604       603       606       607
       604       603       606       608       604       603       606       609
       605       603       606       607       605       603       606       608
       605       603       606       609       606       609       612       613
       606       609       612       614       606       609       612       615
       607       606       609       610       607       606       609       611
       607       606       609       612       608       606       609       610
       608       606       609       611       608       606       609       612
       609       612       615       616       609       612       615       617
       609       612       615       618       610       609       612       613
       610       609       612       614       610       609       612       615
       611       609       612       613       611       609       612       614
       611       609       612       615       612       615       618       619
       612       615       618       620       612       615       618       621
       613       612       615       616       613       612       615       617
       613       612       615       618       614       612       615       616
       614       612       615       617       614       612       615       618
       615       618       621       622       615       618       621       623
       615       618       621       624       616       615       618       619
       616       615       618       620       616       615       618       621
       617       615       618       619       617       615       618       620
       617       615       618       621       618       621       624       625
       618       621       624       626       618       621       624       627
       619       618       621       622       619       618       621       623
       619       618       621       624       620       618       621       622
       620       618       621       623       620       618       621       624
       622       621       624       625       622       621       624       626
       622       621       624       627       623       621       624       625
       623       621       624       626       623       621       624       627
       628       631       634       635       628       631       634       636
       628       631       634       637       629       628       631       632
       629       628       631       633       629       628       631       634
       630       628       631       632       630       628       631       633
       630       628       631       634       631       634       637       638
       631       634       637       639       631       634       637       640
       632       631       634       635       632       631       634       636
       632       631       634       637       633       631       634       635
       633       631       634       636       633       631       634       637
       634       637       640       641       634       637       640       642
       634       637       640       643       635       634       637       638
       635       634       637       639       635       634       637       640
       636       634       637       638       636       634       637       639
       636       634       637       640       637       640       643       644
       637       640       643       645       637       640       643       646
       638       637       640       641       638       637       640       642
       638       637       640       643       639       637       640       641
       639       637       640       642       639       637       640       643
       640       643       646       647       640       643       646       648
       640       643       646       649       641       640       643       644
       641       640       643       645       641       640       643       646
       642       640       643       644       642       640       643       645
       642       640       643       646       643       646       649       650
       643       646       649       651       643       646       649       652
       644       643       646       647       644       643       646       648
       644       643       646       649       645       643       646       647
       645       643       646       648       645       643       646       649
       646       649       652       653       646       649       652       654
       646       649       652       655       647       646       649       650
       647       646       649       651       647       646       649       652
       648       646       649       650       648       646       649       651
       648       646       649       652       649       652       655       656
       649       652       655       657       649       652       655       658
       650       649       652       653       650       649       652       654
       650       649       652       655       651       649       652       653
       651       649       652       654       651       649       652       655
       652       655       658       659       652       655       658       660
       652       655       658       661       653       652       655       656
       653       652       655       657       653       652       655       658
       654       652       655       656       654       652       655       657
       654       652       655       658       655       658       661       662
       655       658       661       663       655       658       661       664
       656       655       658       659       656       655       658       660
       656       655       658       661       657       655       658       659
       657       655       658       660       657       655       658       661
       658       661       664       665       658       661       664       666
       658       661       664       667       659       658       661       662
       659       658       661       663       659       658       661       664
       660       658       661       662       660       658       661       663
       660       658       661       664       661       664       667       668
       661       664       667       669       661       664       667       670
       662       661       664       665       662       661       664       666
       662       661       664       667       663       661       664       665
       663       661       664       666       663       661       664       667
       665       664       667       668       665       664       667       669
       665       664       667       670       666       664       667       668
       666       664       667       669       666       664       667       670
       671       672       687       688       671       672       687       689
       671       672       687       693       672       671       675       676
       672       671       675       677       672       671       675       678
       672       671       679       680       672       671       679       681
       672       671       679       682       672       671       683       684
       672       671       683       685       672       671       683       686
       672       687       693       690       673       672       671       675
       673       672       671       679       673       672       671       683
       673       672       687       688       673       672       687       689
       673       672       687       693       674       672       671       675
       674       672       671       679       674       672       671       683
       674       672       687       688       674       672       687       689
       674       672       687       693       675       671       672       687
       675       671       679       680       675       671       679       681
       675       671       679       682       675       671       683       684
       675       671       683       685       675       671       683       686
       676       675       671       679       676       675       671       683
       677       675       671       679       677       675       671       683
       678       675       671       679       678       675       671       683
       679       671       672       687       679       671       683       684
       679       671       683       685       679       671       683       686
       680       679       671       683       681       679       671       683
       682       679       671       683       683       671       672       687
       687       693       690       691       687       693       690       692
       687       693       690       694       688       687       693       690
       689       687       693       690       690       694       695       696
       690       694       695       697       690       694       695       698
       691       690       694       695       692       690       694       695
       693       690       694       695       694       695       698       699
       694       695       698       700       694       695       698       706
       695       698       700       701       695       698       706       707
       695       698       706       708       695       698       706       709
       696       695       698       699       696       695       698       700
       696       695       698       706       697       695       698       699
       697       695       698       700       697       695       698       706
       698       700       701       702       698       700       701       703
       698       706       709       710       699       698       700       701
       699       698       706       707       699       698       706       708
       699       698       706       709       700       698       706       707
       700       698       706       708       700       698       706       709
       700       701       703       704       700       701       703       705
       700       701       703       715       701       700       698       706
       701       703       715       716       701       703       715       717
       701       703       715       718       702       701       703       704
       702       701       703       705       702       701       703       715
       703       715       718       719       703       715       718       720
       703       715       718       721       704       703       715       716
       704       703       715       717       704       703       715       718
       705       703       715       716       705       703       715       717
       705       703       715       718       706       709       710       711
       706       709       710       712       707       706       709       710
       708       706       709       710       709       710       712       713
       709       710       712       714       709       710       712       762
       710       712       762       763       710       712       762       764
       710       712       762       765       711       710       712       713
       711       710       712       714       711       710       712       762
       712       762       765       766       712       762       765       767
       712       762       765       768       713       712       762       763
       713       712       762       764       713       712       762       765
       714       712       762       763       714       712       762       764
       714       712       762       765       715       718       721       722
       715       718       721       723       715       718       721       724
       716       715       718       719       716       715       718       720
       716       715       718       721       717       715       718       719
       717       715       718       720       717       715       718       721
       718       721       724       725       718       721       724       726
       718       721       724       727       719       718       721       722
       719       718       721       723       719       718       721       724
       720       718       721       722       720       718       721       723
       720       718       721       724       721       724       727       728
       721       724       727       729       721       724       727       730
       722       721       724       725       722       721       724       726
       722       721       724       727       723       721       724       725
       723       721       724       726       723       721       724       727
       724       727       730       731       724       727       730       732
       724       727       730       733       725       724       727       728
       725       724       727       729       725       724       727       730
       726       724       727       728       726       724       727       729
       726       724       727       730       727       730       733       734
       727       730       733       735       728       727       730       731
       728       727       730       732       728       727       730       733
       729       727       730       731       729       727       730       732
       729       727       730       733       730       733       735       736
       730       733       735       737       731       730       733       734
       731       730       733       735       732       730       733       734
       732       730       733       735       733       735       737       738
       733       735       737       739       733       735       737       740
       734       733       735       736       734       733       735       737
       735       737       740       741       735       737       740       742
       735       737       740       743       736       735       737       738
       736       735       737       739       736       735       737       740
       737       740       743       744       737       740       743       745
       737       740       743       746       738       737       740       741
       738       737       740       742       738       737       740       743
       739       737       740       741       739       737       740       742
       739       737       740       743       740       743       746       747
       740       743       746       748       740       743       746       749
       741       740       743       744       741       740       743       745
       741       740       743       746       742       740       743       744
       742       740       743       745       742       740       743       746
       743       746       749       750       743       746       749       751
       743       746       749       752       744       743       746       747
       744       743       746       748       744       743       746       749
       745       743       746       747       745       743       746       748
       745       743       746       749       746       749       752       753
       746       749       752       754       746       749       752       755
       747       746       749       750       747       746       749       751
       747       746       749       752       748       746       749       750
       748       746       749       751       748       746       749       752
       749       752       755       756       749       752       755       757
       749       752       755       758       750       749       752       753
       750       749       752       754       750       749       752       755
       751       749       752       753       751       749       752       754
       751       749       752       755       752       755       758       759
       752       755       758       760       752       755       758       761
       753       752       755       756       753       752       755       757
       753       752       755       758       754       752       755       756
       754       752       755       757       754       752       755       758
       756       755       758       759       756       755       758       760
       756       755       758       761       757       755       758       759
       757       755       758       760       757       755       758       761
       762       765       768       769       762       765       768       770
       762       765       768       771       763       762       765       766
       763       762       765       767       763       762       765       768
       764       762       765       766       764       762       765       767
       764       762       765       768       765       768       771       772
       765       768       771       773       765       768       771       774
       766       765       768       769       766       765       768       770
       766       765       768       771       767       765       768       769
       767       765       768       770       767       765       768       771
       768       771       774       775       768       771       774       776
       768       771       774       777       769       768       771       772
       769       768       771       773       769       768       771       774
       770       768       771       772       770       768       771       773
       770       768       771       774       771       774       777       778
       771       774       777       779       771       774       777       780
       772       771       774       775       772       771       774       776
       772       771       774       777       773       771       774       775
       773       771       774       776       773       771       774       777
       774       777       780       781       774       777       780       782
       774       777       780       783       775       774       777       778
       775       774       777       779       775       774       777       780
       776       774       777       778       776       774       777       779
       776       774       777       780       777       780       783       784
       777       780       783       785       777       780       783       786
       778       777       780       781       778       777       780       782
       778       777       780       783       779       777       780       781
       779       777       780       782       779       777       780       783
       780       783       786       787       780       783       786       788
       780       783       786       789       781       780       783       784
       781       780       783       785       781       780       783       786
       782       780       783       784       782       780       783       785
       782       780       783       786       783       786       789       790
       783       786       789       791       783       786       789       792
       784       783       786       787       784       783       786       788
       784       783       786       789       785       783       786       787
       785       783       786       788       785       783       786       789
       786       789       792       793       786       789       792       794
       786       789       792       795       787       786       789       790
       787       786       789       791       787       786       789       792
       788       786       789       790       788       786       789       791
       788       786       789       792       789       792       795       796
       789       792       795       797       789       792       795       798
       790       789       792       793       790       789       792       794
       790       789       792       795       791       789       792       793
       791       789       792       794       791       789       792       795
       792       795       798       799       792       795       798       800
       792       795       798       801       793       792       795       796
       793       792       795       797       793       792       795       798
       794       792       795       796       794       792       795       797
       794       792       795       798       795       798       801       802
       795       798       801       803       795       798       801       804
       796       795       798       799       796       795       798       800
       796       795       798       801       797       795       798       799
       797       795       798       800       797       795       798       801
       799       798       801       802       799       798       801       803
       799       798       801       804       800       798       801       802
       800       798       801       803       800       798       801       804
       805       806       821       822       805       806       821       823
       805       806       821       827       806       805       809       810
       806       805       809       811       806       805       809       812
       806       805       813       814       806       805       813       815
       806       805       813       816       806       805       817       818
       806       805       817       819       806       805       817       820
       806       821       827       824       807       806       805       809
       807       806       805       813       807       806       805       817
       807       806       821       822       807       806       821       823
       807       806       821       827       808       806       805       809
       808       806       805       813       808       806       805       817
       808       806       821       822       808       806       821       823
       808       806       821       827       809       805       806       821
       809       805       813       814       809       805       813       815
       809       805       813       816       809       805       817       818
       809       805       817       819       809       805       817       820
       810       809       805       813       810       809       805       817
       811       809       805       813       811       809       805       817
       812       809       805       813       812       809       805       817
       813       805       806       821       813       805       817       818
       813       805       817       819       813       805       817       820
       814       813       805       817       815       813       805       817
       816       813       805       817       817       805       806       821
       821       827       824       825       821       827       824       826
       821       827       824       828       822       821       827       824
       823       821       827       824       824       828       829       830
       824       828       829       831       824       828       829       832
       825       824       828       829       826       824       828       829
       827       824       828       829       828       829       832       833
       828       829       832       834       828       829       832       840
       829       832       834       835       829       832       840       841
       829       832       840       842       829       832       840       843
       830       829       832       833       830       829       832       834
       830       829       832       840       831       829       832       833
       831       829       832       834       831       829       832       840
       832       834       835       836       832       834       835       837
       832       840       843       844       833       832       834       835
       833       832       840       841       833       832       840       842
       833       832       840       843       834       832       840       841
       834       832       840       842       834       832       840       843
       834       835       837       838       834       835       837       839
       834       835       837       849       835       834       832       840
       835       837       849       850       835       837       849       851
       835       837       849       852       836       835       837       838
       836       835       837       839       836       835       837       849
       837       849       852       853       837       849       852       854
       837       849       852       855       838       837       849       850
       838       837       849       851       838       837       849       852
       839       837       849       850       839       837       849       851
       839       837       849       852       840       843       844       845
       840       843       844       846       841       840       843       844
       842       840       843       844       843       844       846       847
       843       844       846       848       843       844       846       896
       844       846       896       897       844       846       896       898
       844       846       896       899       845       844       846       847
       845       844       846       848       845       844       846       896
       846       896       899       900       846       896       899       901
       846       896       899       902       847       846       896       897
       847       846       896       898       847       846       896       899
       848       846       896       897       848       846       896       898
       848       846       896       899       849       852       855       856
       849       852       855       857       849       852       855       858
       850       849       852       853       850       849       852       854
       850       849       852       855       851       849       852       853
       851       849       852       854       851       849       852       855
       852       855       858       859       852       855       858       860
       852       855       858       861       853       852       855       856
       853       852       855       857       853       852       855       858
       854       852       855       856       854       852       855       857
       854       852       855       858       855       858       861       862
       855       858       861       863       855       858       861       864
       856       855       858       859       856       855       858       860
       856       855       858       861       857       855       858       859
       857       855       858       860       857       855       858       861
       858       861       864       865       858       861       864       866
       858       861       864       867       859       858       861       862
       859       858       861       863       859       858       861       864
       860       858       861       862       860       858       861       863
       860       858       861       864       861       864       867       868
       861       864       867       869       862       861       864       865
       862       861       864       866       862       861       864       867
       863       861       864       865       863       861       864       866
       863       861       864       867       864       867       869       870
       864       867       869       871       865       864       867       868
       865       864       867       869       866       864       867       868
       866       864       867       869       867       869       871       872
       867       869       871       873       867       869       871       874
       868       867       869       870       868       867       869       871
       869       871       874       875       869       871       874       876
       869       871       874       877       870       869       871       872
       870       869       871       873       870       869       871       874
       871       874       877       878       871       874       877       879
       871       874       877       880       872       871       874       875
       872       871       874       876       872       871       874       877
       873       871       874       875       873       871       874       876
       873       871       874       877       874       877       880       881
       874       877       880       882       874       877       880       883
       875       874       877       878       875       874       877       879
       875       874       877       880       876       874       877       878
       876       874       877       879       876       874       877       880
       877       880       883       884       877       880       883       885
       877       880       883       886       878       877       880       881
       878       877       880       882       878       877       880       883
       879       877       880       881       879       877       880       882
       879       877       880       883       880       883       886       887
       880       883       886       888       880       883       886       889
       881       880       883       884       881       880       883       885
       881       880       883       886       882       880       883       884
       882       880       883       885       882       880       883       886
       883       886       889       890       883       886       889       891
       883       886       889       892       884       883       886       887
       884       883       886       888       884       883       886       889
       885       883       886       887       885       883       886       888
       885       883       886       889       886       889       892       893
       886       889       892       894       886       889       892       895
       887       886       889       890       887       886       889       891
       887       886       889       892       888       886       889       890
       888       886       889       891       888       886       889       892
       890       889       892       893       890       889       892       894
       890       889       892       895       891       889       892       893
       891       889       892       894       891       889       892       895
       896       899       902       903       896       899       902       904
       896       899       902       905       897       896       899       900
       897       896       899       901       897       896       899       902
       898       896       899       900       898       896       899       901
       898       896       899       902       899       902       905       906
       899       902       905       907       899       902       905       908
       900       899       902       903       900       899       902       904
       900       899       902       905       901       899       902       903
       901       899       902       904       901       899       902       905
       902       905       908       909       902       905       908       910
       902       905       908       911       903       902       905       906
       903       902       905       907       903       902       905       908
       904       902       905       906       904       902       905       907
       904       902       905       908       905       908       911       912
       905       908       911       913       905       908       911       914
       906       905       908       909       906       905       908       910
       906       905       908       911       907       905       908       909
       907       905       908       910       907       905       908       911
       908       911       914       915       908       911       914       916
       908       911       914       917       909       908       911       912
       909       908       911       913       909       908       911       914
       910       908       911       912       910       908       911       913
       910       908       911       914       911       914       917       918
       911       914       917       919       911       914       917       920
       912       911       914       915       912       911       914       916
       912       911       914       917       913       911       914       915
       913       911       914       916       913       911       914       917
       914       917       920       921       914       917       920       922
       914       917       920       923       915       914       917       918
       915       914       917       919       915       914       917       920
       916       914       917       918       916       914       917       919
       916       914       917       920       917       920       923       924
       917       920       923       925       917       920       923       926
       918       917       920       921       918       917       920       922
       918       917       920       923       919       917       920       921
       919       917       920       922       919       917       920       923
       920       923       926       927       920       923       926       928
       920       923       926       929       921       920       923       924
       921       920       923       925       921       920       923       926
       922       920       923       924       922       920       923       925
       922       920       923       926       923       926       929       930
       923       926       929       931       923       926       929       932
       924       923       926       927       924       923       926       928
       924       923       926       929       925       923       926       927
       925       923       926       928       925       923       926       929
       926       929       932       933       926       929       932       934
       926       929       932       935       927       926       929       930
       927       926       929       931       927       926       929       932
       928       926       929       930       928       926       929       931
       928       926       929       932       929       932       935       936
       929       932       935       937       929       932       935       938
       930       929       932       933       930       929       932       934
       930       929       932       935       931       929       932       933
       931       929       932       934       931       929       932       935
       933       932       935       936       933       932       935       937
       933       932       935       938       934       932       935       936
       934       932       935       937       934       932       935       938
       939       940       955       956       939       940       955       957
       939       940       955       961       940       939       943       944
       940       939       943       945       940       939       943       946
       940       939       947       948       940       939       947       949
       940       939       947       950       940       939       951       952
       940       939       951       953       940       939       951       954
       940       955       961       958       941       940       939       943
       941       940       939       947       941       940       939       951
       941       940       955       956       941       940       955       957
       941       940       955       961       942       940       939       943
       942       940       939       947       942       940       939       951
       942       940       955       956       942       940       955       957
       942       940       955       961       943       939       940       955
       943       939       947       948       943       939       947       949
       943       939       947       950       943       939       951       952
       943       939       951       953       943       939       951       954
       944       943       939       947       944       943       939       951
       945       943       939       947       945       943       939       951
       946       943       939       947       946       943       939       951
       947       939       940       955       947       939       951       952
       947       939       951       953       947       939       951       954
       948       947       939       951       949       947       939       951
       950       947       939       951       951       939       940       955
       955       961       958       959       955       961       958       960
       955       961       958       962       956       955       961       958
       957       955       961       958       958       962       963       964
       958       962       963       965       958       962       963       966
       959       958       962       963       960       958       962       963
       961       958       962       963       962       963       966       967
       962       963       966       968       962       963       966       974
       963       966       968       969       963       966       974       975
       963       966       974       976       963       966       974       977
       964       963       966       967       964       963       966       968
       964       963       966       974       965       963       966       967
       965       963       966       968       965       963       966       974
       966       968       969       970       966       968       969       971
       966       974       977       978       967       966       968       969
       967       966       974       975       967       966       974       976
       967       966       974       977       968       966       974       975
       968       966       974       976       968       966       974       977
       968       969       971       972       968       969       971       973
       968       969       971       983       969       968       966       974
       969       971       983       984       969       971       983       985
       969       971       983       986       970       969       971       972
       970       969       971       973       970       969       971       983
       971       983       986       987       971       983       986       988
       971       983       986       989       972       971       983       984
       972       971       983       985       972       971       983       986
       973       971       983       984       973       971       983       985
       973       971       983       986       974       977       978       979
       974       977       978       980       975       974       977       978
       976       974       977       978       977       978       980       981
       977       978       980       982       977       978       980      1030
       978       980      1030      1031       978       980      1030      1032
       978       980      1030      1033       979       978       980       981
       979       978       980       982       979       978       980      1030
       980      1030      1033      1034       980      1030      1033      1035
       980      1030      1033      1036       981       980      1030      1031
       981       980      1030      1032       981       980      1030      1033
       982       980      1030      1031       982       980      1030      1032
       982       980      1030      1033       983       986       989       990
       983       986       989       991       983       986       989       992
       984       983       986       987       984       983       986       988
       984       983       986       989       985       983       986       987
       985       983       986       988       985       983       986       989
       986       989       992       993       986       989       992       994
       986       989       992       995       987       986       989       990
       987       986       989       991       987       986       989       992
       988       986       989       990       988       986       989       991
       988       986       989       992       989       992       995       996
       989       992       995       997       989       992       995       998
       990       989       992       993       990       989       992       994
       990       989       992       995       991       989       992       993
       991       989       992       994       991       989       992       995
       992       995       998       999       992       995       998      1000
       992       995       998      1001       993       992       995       996
       993       992       995       997       993       992       995       998
       994       992       995       996       994       992       995       997
       994       992       995       998       995       998      1001      1002
       995       998      1001      1003       996       995       998       999
       996       995       998      1000       996       995       998      1001
       997       995       998       999       997       995       998      1000
       997       995       998      1001       998      1001      1003      1004
       998      1001      1003      1005       999       998      1001      1002
       999       998      1001      1003      1000       998      1001      1002
      1000       998      1001      1003      1001      1003      1005      1006
      1001      1003      1005      1007      1001      1003      1005      1008
      1002      1001      1003      1004      1002      1001      1003      1005
      1003      1005      1008      1009      1003      1005      1008      1010
      1003      1005      1008      1011      1004      1003      1005      1006
      1004      1003      1005      1007      1004      1003      1005      1008
      1005      1008      1011      1012      1005      1008      1011      1013
      1005      1008      1011      1014      1006      1005      1008      1009
      1006      1005      1008      1010      1006      1005      1008      1011
      1007      1005      1008      1009      1007      1005      1008      1010
      1007      1005      1008      1011      1008      1011      1014      1015
      1008      1011      1014      1016      1008      1011      1014      1017
      1009      1008      1011      1012      1009      1008      1011      1013
      1009      1008      1011      1014      1010      1008      1011      1012
      1010      1008      1011      1013      1010      1008      1011      1014
      1011      1014      1017      1018      1011      1014      1017      1019
      1011      1014      1017      1020      1012      1011      1014      1015
      1012      1011      1014      1016      1012      1011      1014      1017
      1013      1011      1014      1015      1013      1011      1014      1016
      1013      1011      1014      1017      1014      1017      1020      1021
      1014      1017      1020      1022      1014      1017      1020      1023
      1015      1014      1017      1018      1015      1014      1017      1019
      1015      1014      1017      1020      1016      1014      1017      1018
      1016      1014      1017      1019      1016      1014      1017      1020
      1017      1020      1023      1024      1017      1020      1023      1025
      1017      1020      1023      1026      1018      1017      1020      1021
      1018      1017      1020      1022      1018      1017      1020      1023
      1019      1017      1020      1021      1019      1017      1020      1022
      1019      1017      1020      1023      1020      1023      1026      1027
      1020      1023      1026      1028      1020      1023      1026      1029
      1021      1020      1023      1024      1021      1020      1023      1025
      1021      1020      1023      1026      1022      1020      1023      1024
      1022      1020      1023      1025      1022      1020      1023      1026
      1024      1023      1026      1027      1024      1023      1026      1028
      1024      1023      1026      1029      1025      1023      1026      1027
      1025      1023      1026      1028      1025      1023      1026      1029
      1030      1033      1036      1037      1030      1033      1036      1038
      1030      1033      1036      1039      1031      1030      1033      1034
      1031      1030      1033      1035      1031      1030      1033      1036
      1032      1030      1033      1034      1032      1030      1033      1035
      1032      1030      1033      1036      1033      1036      1039      1040
      1033      1036      1039      1041      1033      1036      1039      1042
      1034      1033      1036      1037      1034      1033      1036      1038
      1034      1033      1036      1039      1035      1033      1036      1037
      1035      1033      1036      1038      1035      1033      1036      1039
      1036      1039      1042      1043      1036      1039      1042      1044
      1036      1039      1042      1045      1037      1036      1039      1040
      1037      1036      1039      1041      1037      1036      1039      1042
      1038      1036      1039      1040      1038      1036      1039      1041
      1038      1036      1039      1042      1039      1042      1045      1046
      1039      1042      1045      1047      1039      1042      1045      1048
      1040      1039      1042      1043      1040      1039      1042      1044
      1040      1039      1042      1045      1041      1039      1042      1043
      1041      1039      1042      1044      1041      1039      1042      1045
      1042      1045      1048      1049      1042      1045      1048      1050
      1042      1045      1048      1051      1043      1042      1045      1046
      1043      1042      1045      1047      1043      1042      1045      1048
      1044      1042      1045      1046      1044      1042      1045      1047
      1044      1042      1045      1048      1045      1048      1051      1052
      1045      1048      1051      1053      1045      1048      1051      1054
      1046      1045      1048      1049      1046      1045      1048      1050
      1046      1045      1048      1051      1047      1045      1048      1049
      1047      1045      1048      1050      1047      1045      1048      1051
      1048      1051      1054      1055      1048      1051      1054      1056
      1048      1051      1054      1057      1049      1048      1051      1052
      1049      1048      1051      1053      1049      1048      1051      1054
      1050      1048      1051      1052      1050      1048      1051      1053
      1050      1048      1051      1054      1051      1054      1057      1058
      1051      1054      1057      1059      1051      1054      1057      1060
      1052      1051      1054      1055      1052      1051      1054      1056
      1052      1051      1054      1057      1053      1051      1054      1055
      1053      1051      1054      1056      1053      1051      1054      1057
      1054      1057      1060      1061      1054      1057      1060      1062
      1054      1057      1060      1063      1055      1054      1057      1058
      1055      1054      1057      1059      1055      1054      1057      1060
      1056      1054      1057      1058      1056      1054      1057      1059
      1056      1054      1057      1060      1057      1060      1063      1064
      1057      1060      1063      1065      1057      1060      1063      1066
      1058      1057      1060      1061      1058      1057      1060      1062
      1058      1057      1060      1063      1059      1057      1060      1061
      1059      1057      1060      1062      1059      1057      1060      1063
      1060      1063      1066      1067      1060      1063      1066      1068
      1060      1063      1066      1069      1061      1060      1063      1064
      1061      1060      1063      1065      1061      1060      1063      1066
      1062      1060      1063      1064      1062      1060      1063      1065
      1062      1060      1063      1066      1063      1066      1069      1070
      1063      1066      1069      1071      1063      1066      1069      1072
      1064      1063      1066      1067      1064      1063      1066      1068
      1064      1063      1066      1069      1065      1063      1066      1067
      1065      1063      1066      1068      1065      1063      1066      1069
      1067      1066      1069      1070      1067      1066      1069      1071
      1067      1066      1069      1072      1068      1066      1069      1070
      1068      1066      1069      1071      1068      1066      1069      1072
      1073      1074      1089      1090      1073      1074      1089      1091
      1073      1074      1089      1095      1074      1073      1077      1078
      1074      1073      1077      1079      1074      1073      1077      1080
      1074      1073      1081      1082      1074      1073      1081      1083
      1074      1073      1081      1084      1074      1073      1085      1086
      1074      1073      1085      1087      1074      1073      1085      1088
      1074      1089      1095      1092      1075      1074      1073      1077
      1075      1074      1073      1081      1075      1074      1073      1085
      1075      1074      1089      1090      1075      1074      1089      1091
      1075      1074      1089      1095      1076      1074      1073      1077
      1076      1074      1073      1081      1076      1074      1073      1085
      1076      1074      1089      1090      1076      1074      1089      1091
      1076      1074      1089      1095      1077      1073      1074      1089
      1077      1073      1081      1082      1077      1073      1081      1083
      1077      1073      1081      1084      1077      1073      1085      1086
      1077      1073      1085      1087      1077      1073      1085      1088
      1078      1077      1073      1081      1078      1077      1073      1085
      1079      1077      1073      1081      1079      1077      1073      1085
      1080      1077      1073      1081      1080      1077      1073      1085
      1081      1073      1074      1089      1081      1073      1085      1086
      1081      1073      1085      1087      1081      1073      1085      1088
      1082      1081      1073      1085      1083      1081      1073      1085
      1084      1081      1073      1085      1085      1073      1074      1089
      1089      1095      1092      1093      1089      1095      1092      1094
      1089      1095      1092      1096      1090      1089      1095      1092
      1091      1089      1095      1092      1092      1096      1097      1098
      1092      1096      1097      1099      1092      1096      1097      1100
      1093      1092      1096      1097      1094      1092      1096      1097
      1095      1092      1096      1097      1096      1097      1100      1101
      1096      1097      1100      1102      1096      1097      1100      1108
      1097      1100      1102      1103      1097      1100      1108      1109
      1097      1100      1108      1110      1097      1100      1108      1111
      1098      1097      1100      1101      1098      1097      1100      1102
      1098      1097      1100      1108      1099      1097      1100      1101
      1099      1097      1100      1102      1099      1097      1100      1108
      1100      1102      1103      1104      1100      1102      1103      1105
      1100      1108      1111      1112      1101      1100      1102      1103
      1101      1100      1108      1109      1101      1100      1108      1110
      1101      1100      1108      1111      1102      1100      1108      1109
      1102      1100      1108      1110      1102      1100      1108      1111
      1102      1103      1105      1106      1102      1103      1105      1107
      1102      1103      1105      1117      1103      1102      1100      1108
      1103      1105      1117      1118      1103      1105      1117      1119
      1103      1105      1117      1120      1104      1103      1105      1106
      1104      1103      1105      1107      1104      1103      1105      1117
      1105      1117      1120      1121      1105      1117      1120      1122
      1105      1117      1120      1123      1106      1105      1117      1118
      1106      1105      1117      1119      1106      1105      1117      1120
      1107      1105      1117      1118      1107      1105      1117      1119
      1107      1105      1117      1120      1108      1111      1112      1113
      1108      1111      1112      1114      1109      1108      1111      1112
      1110      1108      1111      1112      1111      1112      1114      1115
      1111      1112      1114      1116      1111      1112      1114      1164
      1112      1114      1164      1165      1112      1114      1164      1166
      1112      1114      1164      1167      1113      1112      1114      1115
      1113      1112      1114      1116      1113      1112      1114      1164
      1114      1164      1167      1168      1114      1164      1167      1169
      1114      1164      1167      1170      1115      1114      1164      1165
      1115      1114      1164      1166      1115      1114      1164      1167
      1116      1114      1164      1165      1116      1114      1164      1166
      1116      1114      1164      1167      1117      1120      1123      1124
      1117      1120      1123      1125      1117      1120      1123      1126
      1118      1117      1120      1121      1118      1117      1120      1122
      1118      1117      1120      1123      1119      1117      1120      1121
      1119      1117      1120      1122      1119      1117      1120      1123
      1120      1123      1126      1127      1120      1123      1126      1128
      1120      1123      1126      1129      1121      1120      1123      1124
      1121      1120      1123      1125      1121      1120      1123      1126
      1122      1120      1123      1124      1122      1120      1123      1125
      1122      1120      1123      1126      1123      1126      1129      1130
      1123      1126      1129      1131      1123      1126      1129      1132
      1124      1123      1126      1127      1124      1123      1126      1128
      1124      1123      1126      1129      1125      1123      1126      1127
      1125      1123      1126      1128      1125      1123      1126      1129
      1126      1129      1132      1133      1126      1129      1132      1134
      1126      1129      1132      1135      1127      1126      1129      1130
      1127      1126      1129      1131      1127      1126      1129      1132
      1128      1126      1129      1130      1128      1126      1129      1131
      1128      1126      1129      1132      1129      1132      1135      1136
      1129      1132      1135      1137      1130      1129      1132      1133
      1130      1129      1132      1134      1130      1129      1132      1135
      1131      1129      1132      1133      1131      1129      1132      1134
      1131      1129      1132      1135      1132      1135      1137      1138
      1132      1135      1137      1139      1133      1132      1135      1136
      1133      1132      1135      1137      1134      1132      1135      1136
      1134      1132      1135      1137      1135      1137      1139      1140
      1135      1137      1139      1141      1135      1137      1139      1142
      1136      1135      1137      1138      1136      1135      1137      1139
      1137      1139      1142      1143      1137      1139      1142      1144
      1137      1139      1142      1145      1138      1137      1139      1140
      1138      1137      1139      1141      1138      1137      1139      1142
      1139      1142      1145      1146      1139      1142      1145      1147
      1139      1142      1145      1148      1140      1139      1142      1143
      1140      1139      1142      1144      1140      1139      1142      1145
      1141      1139      1142      1143      1141      1139      1142      1144
      1141      1139      1142      1145      1142      1145      1148      1149
      1142      1145      1148      1150      1142      1145      1148      1151
      1143      1142      1145      1146      1143      1142      1145      1147
      1143      1142      1145      1148      1144      1142      1145      1146
      1144      1142      1145      1147      1144      1142      1145      1148
      1145      1148      1151      1152      1145      1148      1151      1153
      1145      1148      1151      1154      1146      1145      1148      1149
      1146      1145      1148      1150      1146      1145      1148      1151
      1147      1145      1148      1149      1147      1145      1148      1150
      1147      1145      1148      1151      1148      1151      1154      1155
      1148      1151      1154      1156      1148      1151      1154      1157
      1149      1148      1151      1152      1149      1148      1151      1153
      1149      1148      1151      1154      1150      1148      1151      1152
      1150      1148      1151      1153      1150      1148      1151      1154
      1151      1154      1157      1158      1151      1154      1157      1159
      1151      1154      1157      1160      1152      1151      1154      1155
      1152      1151      1154      1156      1152      1151      1154      1157
      1153      1151      1154      1155      1153      1151      1154      1156
      1153      1151      1154      1157      1154      1157      1160      1161
      1154      1157      1160      1162      1154      1157      1160      1163
      1155      1154      1157      1158      1155      1154      1157      1159
      1155      1154      1157      1160      1156      1154      1157      1158
      1156      1154      1157      1159      1156      1154      1157      1160
      1158      1157      1160      1161      1158      1157      1160      1162
      1158      1157      1160      1163      1159      1157      1160      1161
      1159      1157      1160      1162      1159      1157      1160      1163
      1164      1167      1170      1171      1164      1167      1170      1172
      1164      1167      1170      1173      1165      1164      1167      1168
      1165      1164      1167      1169      1165      1164      1167      1170
      1166      1164      1167      1168      1166      1164      1167      1169
      1166      1164      1167      1170      1167      1170      1173      1174
      1167      1170      1173      1175      1167      1170      1173      1176
      1168      1167      1170      1171      1168      1167      1170      1172
      1168      1167      1170      1173      1169      1167      1170      1171
      1169      1167      1170      1172      1169      1167      1170      1173
      1170      1173      1176      1177      1170      1173      1176      1178
      1170      1173      1176      1179      1171      1170      1173      1174
      1171      1170      1173      1175      1171      1170      1173      1176
      1172      1170      1173      1174      1172      1170      1173      1175
      1172      1170      1173      1176      1173      1176      1179      1180
      1173      1176      1179      1181      1173      1176      1179      1182
      1174      1173      1176      1177      1174      1173      1176      1178
      1174      1173      1176      1179      1175      1173      1176      1177
      1175      1173      1176      1178      1175      1173      1176      1179
      1176      1179      1182      1183      1176      1179      1182      1184
      1176      1179      1182      1185      1177      1176      1179      1180
      1177      1176      1179      1181      1177      1176      1179      1182
      1178      1176      1179      1180      1178      1176      1179      1181
      1178      1176      1179      1182      1179      1182      1185      1186
      1179      1182      1185      1187      1179      1182      1185      1188
      1180      1179      1182      1183      1180      1179      1182      1184
      1180      1179      1182      1185      1181      1179      1182      1183
      1181      1179      1182      1184      1181      1179      1182      1185
      1182      1185      1188      1189      1182      1185      1188      1190
      1182      1185      1188      1191      1183      1182      1185      1186
      1183      1182      1185      1187      1183      1182      1185      1188
      1184      1182      1185      1186      1184      1182      1185      1187
      1184      1182      1185      1188      1185      1188      1191      1192
      1185      1188      1191      1193      1185      1188      1191      1194
      1186      1185      1188      1189      1186      1185      1188      1190
      1186      1185      1188      1191      1187      1185      1188      1189
      1187      1185      1188      1190      1187      1185      1188      1191
      1188      1191      1194      1195      1188      1191      1194      1196
      1188      1191      1194      1197      1189      1188      1191      1192
      1189      1188      1191      1193      1189      1188      1191      1194
      1190      1188      1191      1192      1190      1188      1191      1193
      1190      1188      1191      1194      1191      1194      1197      1198
      1191      1194      1197      1199      1191      1194      1197      1200
      1192      1191      1194      1195      1192      1191      1194      1196
      1192      1191      1194      1197      1193      1191      1194      1195
      1193      1191      1194      1196      1193      1191      1194      1197
      1194      1197      1200      1201      1194      1197      1200      1202
      1194      1197      1200      1203      1195      1194      1197      1198
      1195      1194      1197      1199      1195      1194      1197      1200
      1196      1194      1197      1198      1196      1194      1197      1199
      1196      1194      1197      1200      1197      1200      1203      1204
      1197      1200      1203      1205      1197      1200      1203      1206
      1198      1197      1200      1201      1198      1197      1200      1202
      1198      1197      1200      1203      1199      1197      1200      1201
      1199      1197      1200      1202      1199      1197      1200      1203
      1201      1200      1203      1204      1201      1200      1203      1205
      1201      1200      1203      1206      1202      1200      1203      1204
      1202      1200      1203      1205      1202      1200      1203      1206
      1207      1208      1223      1224      1207      1208      1223      1225
      1207      1208      1223      1229      1208      1207      1211      1212
      1208      1207      1211      1213      1208      1207      1211      1214
      1208      1207      1215      1216      1208      1207      1215      1217
      1208      1207      1215      1218      1208      1207      1219      1220
      1208      1207      1219      1221      1208      1207      1219      1222
      1208      1223      1229      1226      1209      1208      1207      1211
      1209      1208      1207      1215      1209      1208      1207      1219
      1209      1208      1223      1224      1209      1208      1223      1225
      1209      1208      1223      1229      1210      1208      1207      1211
      1210      1208      1207      1215      1210      1208      1207      1219
      1210      1208      1223      1224      1210      1208      1223      1225
      1210      1208      1223      1229      1211      1207      1208      1223
      1211      1207      1215      1216      1211      1207      1215      1217
      1211      1207      1215      1218      1211      1207      1219      1220
      1211      1207      1219      1221      1211      1207      1219      1222
      1212      1211      1207      1215      1212      1211      1207      1219
      1213      1211      1207      1215      1213      1211      1207      1219
      1214      1211      1207      1215      1214      1211      1207      1219
      1215      1207      1208      1223      1215      1207      1219      1220
      1215      1207      1219      1221      1215      1207      1219      1222
      1216      1215      1207      1219      1217      1215      1207      1219
      1218      1215      1207      1219      1219      1207      1208      1223
      1223      1229      1226      1227      1223      1229      1226      1228
      1223      1229      1226      1230      1224      1223      1229      1226
      1225      1223      1229      1226      1226      1230      1231      1232
      1226      1230      1231      1233      1226      1230      1231      1234
      1227      1226      1230      1231      1228      1226      1230      1231
      1229      1226      1230      1231      1230      1231      1234      1235
      1230      1231      1234      1236      1230      1231      1234      1242
      1231      1234      1236      1237      1231      1234      1242      1243
      1231      1234      1242      1244      1231      1234      1242      1245
      1232      1231      1234      1235      1232      1231      1234      1236
      1232      1231      1234      1242      1233      1231      1234      1235
      1233      1231      1234      1236      1233      1231      1234      1242
      1234      1236      1237      1238      1234      1236      1237      1239
      1234      1242      1245      1246      1235      1234      1236      1237
      1235      1234      1242      1243      1235      1234      1242      1244
      1235      1234      1242      1245      1236      1234      1242      1243
      1236      1234      1242      1244      1236      1234      1242      1245
      1236      1237      1239      1240      1236      1237      1239      1241
      1236      1237      1239      1251      1237      1236      1234      1242
      1237      1239      1251      1252      1237      1239      1251      1253
      1237      1239      1251      1254      1238      1237      1239      1240
      1238      1237      1239      1241      1238      1237      1239      1251
      1239      1251      1254      1255      1239      1251      1254      1256
      1239      1251      1254      1257      1240      1239      1251      1252
      1240      1239      1251      1253      1240      1239      1251      1254
      1241      1239      1251      1252      1241      1239      1251      1253
      1241      1239      1251      1254      1242      1245      1246      1247
      1242      1245      1246      1248      1243      1242      1245      1246
      1244      1242      1245      1246      1245      1246      1248      1249
      1245      1246      1248      1250      1245      1246      1248      1298
      1246      1248      1298      1299      1246      1248      1298      1300
      1246      1248      1298      1301      1247      1246      1248      1249
      1247      1246      1248      1250      1247      1246      1248      1298
      1248      1298      1301      1302      1248      1298      1301      1303
      1248      1298      1301      1304      1249      1248      1298      1299
      1249      1248      1298      1300      1249      1248      1298      1301
      1250      1248      1298      1299      1250      1248      1298      1300
      1250      1248      1298      1301      1251      1254      1257      1258
      1251      1254      1257      1259      1251      1254      1257      1260
      1252      1251      1254      1255      1252      1251      1254      1256
      1252      1251      1254      1257      1253      1251      1254      1255
      1253      1251      1254      1256      1253      1251      1254      1257
      1254      1257      1260      1261      1254      1257      1260      1262
      1254      1257      1260      1263      1255      1254      1257      1258
      1255      1254      1257      1259      1255      1254      1257      1260
      1256      1254      1257      1258      1256      1254      1257      1259
      1256      1254      1257      1260      1257      1260      1263      1264
      1257      1260      1263      1265      1257      1260      1263      1266
      1258      1257      1260      1261      1258      1257      1260      1262
      1258      1257      1260      1263      1259      1257      1260      1261
      1259      1257      1260      1262      1259      1257      1260      1263
      1260      1263      1266      1267      1260      1263      1266      1268
      1260      1263      1266      1269      1261      1260      1263      1264
      1261      1260      1263      1265      1261      1260      1263      1266
      1262      1260      1263      1264      1262      1260      1263      1265
      1262      1260      1263      1266      1263      1266      1269      1270
      1263      1266      1269      1271      1264      1263      1266      1267
      1264      1263      1266      1268      1264      1263      1266      1269
      1265      1263      1266      1267      1265      1263      1266      1268
      1265      1263      1266      1269      1266      1269      1271      1272
      1266      1269      1271      1273      1267      1266      1269      1270
      1267      1266      1269      1271      1268      1266      1269      1270
      1268      1266      1269      1271      1269      1271      1273      1274
      1269      1271      1273      1275      1269      1271      1273      1276
      1270      1269      1271      1272      1270      1269      1271      1273
      1271      1273      1276      1277      1271      1273      1276      1278
      1271      1273      1276      1279      1272      1271      1273      1274
      1272      1271      1273      1275      1272      1271      1273      1276
      1273      1276      1279      1280      1273      1276      1279      1281
      1273      1276      1279      1282      1274      1273      1276      1277
      1274      1273      1276      1278      1274      1273      1276      1279
      1275      1273      1276      1277      1275      1273      1276      1278
      1275      1273      1276      1279      1276      1279      1282      1283
      1276      1279      1282      1284      1276      1279      1282      1285
      1277      1276      1279      1280      1277      1276      1279      1281
      1277      1276      1279      1282      1278      1276      1279      1280
      1278      1276      1279      1281      1278      1276      1279      1282
      1279      1282      1285      1286      1279      1282      1285      1287
      1279      1282      1285      1288      1280      1279      1282      1283
      1280      1279      1282      1284      1280      1279      1282      1285
      1281      1279      1282      1283      1281      1279      1282      1284
      1281      1279      1282      1285      1282      1285      1288      1289
      1282      1285      1288      1290      1282      1285      1288      1291
      1283      1282      1285      1286      1283      1282      1285      1287
      1283      1282      1285      1288      1284      1282      1285      1286
      1284      1282      1285      1287      1284      1282      1285      1288
      1285      1288      1291      1292      1285      1288      1291      1293
      1285      1288      1291      1294      1286      1285      1288      1289
      1286      1285      1288      1290      1286      1285      1288      1291
      1287      1285      1288      1289      1287      1285      1288      1290
      1287      1285      1288      1291      1288      1291      1294      1295
      1288      1291      1294      1296      1288      1291      1294      1297
      1289      1288      1291      1292      1289      1288      1291      1293
      1289      1288      1291      1294      1290      1288      1291      1292
      1290      1288      1291      1293      1290      1288      1291      1294
      1292      1291      1294      1295      1292      1291      1294      1296
      1292      1291      1294      1297      1293      1291      1294      1295
      1293      1291      1294      1296      1293      1291      1294      1297
      1298      1301      1304      1305      1298      1301      1304      1306
      1298      1301      1304      1307      1299      1298      1301      1302
      1299      1298      1301      1303      1299      1298      1301      1304
      1300      1298      1301      1302      1300      1298      1301      1303
      1300      1298      1301      1304      1301      1304      1307      1308
      1301      1304      1307      1309      1301      1304      1307      1310
      1302      1301      1304      1305      1302      1301      1304      1306
      1302      1301      1304      1307      1303      1301      1304      1305
      1303      1301      1304      1306      1303      1301      1304      1307
      1304      1307      1310      1311      1304      1307      1310      1312
      1304      1307      1310      1313      1305      1304      1307      1308
      1305      1304      1307      1309      1305      1304      1307      1310
      1306      1304      1307      1308      1306      1304      1307      1309
      1306      1304      1307      1310      1307      1310      1313      1314
      1307      1310      1313      1315      1307      1310      1313      1316
      1308      1307      1310      1311      1308      1307      1310      1312
      1308      1307      1310      1313      1309      1307      1310      1311
      1309      1307      1310      1312      1309      1307      1310      1313
      1310      1313      1316      1317      1310      1313      1316      1318
      1310      1313      1316      1319      1311      1310      1313      1314
      1311      1310      1313      1315      1311      1310      1313      1316
      1312      1310      1313      1314      1312      1310      1313      1315
      1312      1310      1313      1316      1313      1316      1319      1320
      1313      1316      1319      1321      1313      1316      1319      1322
      1314      1313      1316      1317      1314      1313      1316      1318
      1314      1313      1316      1319      1315      1313      1316      1317
      1315      1313      1316      1318      1315      1313      1316      1319
      1316      1319      1322      1323      1316      1319      1322      1324
      1316      1319      1322      1325      1317      1316      1319      1320
      1317      1316      1319      1321      1317      1316      1319      1322
      1318      1316      1319      1320      1318      1316      1319      1321
      1318      1316      1319      1322      1319      1322      1325      1326
      1319      1322      1325      1327      1319      1322      1325      1328
      1320      1319      1322      1323      1320      1319      1322      1324
      1320      1319      1322      1325      1321      1319      1322      1323
      1321      1319      1322      1324      1321      1319      1322      1325
      1322      1325      1328      1329      1322      1325      1328      1330
      1322      1325      1328      1331      1323      1322      1325      1326
      1323      1322      1325      1327      1323      1322      1325      1328
      1324      1322      1325      1326      1324      1322      1325      1327
      1324      1322      1325      1328      1325      1328      1331      1332
      1325      1328      1331      1333      1325      1328      1331      1334
      1326      1325      1328      1329      1326      1325      1328      1330
      1326      1325      1328      1331      1327      1325      1328      1329
      1327      1325      1328      1330      1327      1325      1328      1331
      1328      1331      1334      1335      1328      1331      1334      1336
      1328      1331      1334      1337      1329      1328      1331      1332
      1329      1328      1331      1333      1329      1328      1331      1334
      1330      1328      1331      1332      1330      1328      1331      1333
      1330      1328      1331      1334      1331      1334      1337      1338
      1331      1334      1337      1339      1331      1334      1337      1340
      1332      1331      1334      1335      1332      1331      1334      1336
      1332      1331      1334      1337      1333      1331      1334      1335
      1333      1331      1334      1336      1333      1331      1334      1337
      1335      1334      1337      1338      1335      1334      1337      1339
      1335      1334      1337      1340      1336      1334      1337      1338
      1336      1334      1337      1339      1336      1334      1337      1340
      1341      1342      1357      1358      1341      1342      1357      1359
      1341      1342      1357      1363      1342      1341      1345      1346
      1342      1341      1345      1347      1342      1341      1345      1348
      1342      1341      1349      1350      1342      1341      1349      1351
      1342      1341      1349      1352      1342      1341      1353      1354
      1342      1341      1353      1355      1342      1341      1353      1356
      1342      1357      1363      1360      1343      1342      1341      1345
      1343      1342      1341      1349      1343      1342      1341      1353
      1343      1342      1357      1358      1343      1342      1357      1359
      1343      1342      1357      1363      1344      1342      1341      1345
      1344      1342      1341      1349      1344      1342      1341      1353
      1344      1342      1357      1358      1344      1342      1357      1359
      1344      1342      1357      1363      1345      1341      1342      1357
      1345      1341      1349      1350      1345      1341      1349      1351
      1345      1341      1349      1352      1345      1341      1353      1354
      1345      1341      1353      1355      1345      1341      1353      1356
      1346      1345      1341      1349      1346      1345      1341      1353
      1347      1345      1341      1349      1347      1345      1341      1353
      1348      1345      1341      1349      1348      1345      1341      1353
      1349      1341      1342      1357      1349      1341      1353      1354
      1349      1341      1353      1355      1349      1341      1353      1356
      1350      1349      1341      1353      1351      1349      1341      1353
      1352      1349      1341      1353      1353      1341      1342      1357
      1357      1363      1360      1361      1357      1363      1360      1362
      1357      1363      1360      1364      1358      1357      1363      1360
      1359      1357      1363      1360      1360      1364      1365      1366
      1360      1364      1365      1367      1360      1364      1365      1368
      1361      1360      1364      1365      1362      1360      1364      1365
      1363      1360      1364      1365      1364      1365      1368      1369
      1364      1365      1368      1370      1364      1365      1368      1376
      1365      1368      1370      1371      1365      1368      1376      1377
      1365      1368      1376      1378      1365      1368      1376      1379
      1366      1365      1368      1369      1366      1365      1368      1370
      1366      1365      1368      1376      1367      1365      1368      1369
      1367      1365      1368      1370      1367      1365      1368      1376
      1368      1370      1371      1372      1368      1370      1371      1373
      1368      1376      1379      1380      1369      1368      1370      1371
      1369      1368      1376      1377      1369      1368      1376      1378
      1369      1368      1376      1379      1370      1368      1376      1377
      1370      1368      1376      1378      1370      1368      1376      1379
      1370      1371      1373      1374      1370      1371      1373      1375
      1370      1371      1373      1385      1371      1370      1368      1376
      1371      1373      1385      1386      1371      1373      1385      1387
      1371      1373      1385      1388      1372      1371      1373      1374
      1372      1371      1373      1375      1372      1371      1373      1385
      1373      1385      1388      1389      1373      1385      1388      1390
      1373      1385      1388      1391      1374      1373      1385      1386
      1374      1373      1385      1387      1374      1373      1385      1388
      1375      1373      1385      1386      1375      1373      1385      1387
      1375      1373      1385      1388      1376      1379      1380      1381
      1376      1379      1380      1382      1377      1376      1379      1380
      1378      1376      1379      1380      1379      1380      1382      1383
      1379      1380      1382      1384      1379      1380      1382      1432
      1380      1382      1432      1433      1380      1382      1432      1434
      1380      1382      1432      1435      1381      1380      1382      1383
      1381      1380      1382      1384      1381      1380      1382      1432
      1382      1432      1435      1436      1382      1432      1435      1437
      1382      1432      1435      1438      1383      1382      1432      1433
      1383      1382      1432      1434      1383      1382      1432      1435
      1384      1382      1432      1433      1384      1382      1432      1434
      1384      1382      1432      1435      1385      1388      1391      1392
      1385      1388      1391      1393      1385      1388      1391      1394
      1386      1385      1388      1389      1386      1385      1388      1390
      1386      1385      1388      1391      1387      1385      1388      1389
      1387      1385      1388      1390      1387      1385      1388      1391
      1388      1391      1394      1395      1388      1391      1394      1396
      1388      1391      1394      1397      1389      1388      1391      1392
      1389      1388      1391      1393      1389      1388      1391      1394
      1390      1388      1391      1392      1390      1388      1391      1393
      1390      1388      1391      1394      1391      1394      1397      1398
      1391      1394      1397      1399      1391      1394      1397      1400
      1392      1391      1394      1395      1392      1391      1394      1396
      1392      1391      1394      1397      1393      1391      1394      1395
      1393      1391      1394      1396      1393      1391      1394      1397
      1394      1397      1400      1401      1394      1397      1400      1402
      1394      1397      1400      1403      1395      1394      1397      1398
      1395      1394      1397      1399      1395      1394      1397      1400
      1396      1394      1397      1398      1396      1394      1397      1399
      1396      1394      1397      1400      1397      1400      1403      1404
      1397      1400      1403      1405      1398      1397      1400      1401
      1398      1397      1400      1402      1398      1397      1400      1403
      1399      1397      1400      1401      1399      1397      1400      1402
      1399      1397      1400      1403      1400      1403      1405      1406
      1400      1403      1405      1407      1401      1400      1403      1404
      1401      1400      1403      1405      1402      1400      1403      1404
      1402      1400      1403      1405      1403      1405      1407      1408
      1403      1405      1407      1409      1403      1405      1407      1410
      1404      1403      1405      1406      1404      1403      1405      1407
      1405      1407      1410      1411      1405      1407      1410      1412
      1405      1407      1410      1413      1406      1405      1407      1408
      1406      1405      1407      1409      1406      1405      1407      1410
      1407      1410      1413      1414      1407      1410      1413      1415
      1407      1410      1413      1416      1408      1407      1410      1411
      1408      1407      1410      1412      1408      1407      1410      1413
      1409      1407      1410      1411      1409      1407      1410      1412
      1409      1407      1410      1413      1410      1413      1416      1417
      1410      1413      1416      1418      1410      1413      1416      1419
      1411      1410      1413      1414      1411      1410      1413      1415
      1411      1410      1413      1416      1412      1410      1413      1414
      1412      1410      1413      1415      1412      1410      1413      1416
      1413      1416      1419      1420      1413      1416      1419      1421
      1413      1416      1419      1422      1414      1413      1416      1417
      1414      1413      1416      1418      1414      1413      1416      1419
      1415      1413      1416      1417      1415      1413      1416      1418
      1415      1413      1416      1419      1416      1419      1422      1423
      1416      1419      1422      1424      1416      1419      1422      1425
      1417      1416      1419      1420      1417      1416      1419      1421
      1417      1416      1419      1422      1418      1416      1419      1420
      1418      1416      1419      1421      1418      1416      1419      1422
      1419      1422      1425      1426      1419      1422      1425      1427
      1419      1422      1425      1428      1420      1419      1422      1423
      1420      1419      1422      1424      1420      1419      1422      1425
      1421      1419      1422      1423      1421      1419      1422      1424
      1421      1419      1422      1425      1422      1425      1428      1429
      1422      1425      1428      1430      1422      1425      1428      1431
      1423      1422      1425      1426      1423      1422      1425      1427
      1423      1422      1425      1428      1424      1422      1425      1426
      1424      1422      1425      1427      1424      1422      1425      1428
      1426      1425      1428      1429      1426      1425      1428      1430
      1426      1425      1428      1431      1427      1425      1428      1429
      1427      1425      1428      1430      1427      1425      1428      1431
      1432      1435      1438      1439      1432      1435      1438      1440
      1432      1435      1438      1441      1433      1432      1435      1436
      1433      1432      1435      1437      1433      1432      1435      1438
      1434      1432      1435      1436      1434      1432      1435      1437
      1434      1432      1435      1438      1435      1438      1441      1442
      1435      1438      1441      1443      1435      1438      1441      1444
      1436      1435      1438      1439      1436      1435      1438      1440
      1436      1435      1438      1441      1437      1435      1438      1439
      1437      1435      1438      1440      1437      1435      1438      1441
      1438      1441      1444      1445      1438      1441      1444      1446
      1438      1441      1444      1447      1439      1438      1441      1442
      1439      1438      1441      1443      1439      1438      1441      1444
      1440      1438      1441      1442      1440      1438      1441      1443
      1440      1438      1441      1444      1441      1444      1447      1448
      1441      1444      1447      1449      1441      1444      1447      1450
      1442      1441      1444      1445      1442      1441      1444      1446
      1442      1441      1444      1447      1443      1441      1444      1445
      1443      1441      1444      1446      1443      1441      1444      1447
      1444      1447      1450      1451      1444      1447      1450      1452
      1444      1447      1450      1453      1445      1444      1447      1448
      1445      1444      1447      1449      1445      1444      1447      1450
      1446      1444      1447      1448      1446      1444      1447      1449
      1446      1444      1447      1450      1447      1450      1453      1454
      1447      1450      1453      1455      1447      1450      1453      1456
      1448      1447      1450      1451      1448      1447      1450      1452
      1448      1447      1450      1453      1449      1447      1450      1451
      1449      1447      1450      1452      1449      1447      1450      1453
      1450      1453      1456      1457      1450      1453      1456      1458
      1450      1453      1456      1459      1451      1450      1453      1454
      1451      1450      1453      1455      1451      1450      1453      1456
      1452      1450      1453      1454      1452      1450      1453      1455
      1452      1450      1453      1456      1453      1456      1459      1460
      1453      1456      1459      1461      1453      1456      1459      1462
      1454      1453      1456      1457      1454      1453      1456      1458
      1454      1453      1456      1459      1455      1453      1456      1457
      1455      1453      1456      1458      1455      1453      1456      1459
      1456      1459      1462      1463      1456      1459      1462      1464
      1456      1459      1462      1465      1457      1456      1459      1460
      1457      1456      1459      1461      1457      1456      1459      1462
      1458      1456      1459      1460      1458      1456      1459      1461
      1458      1456      1459      1462      1459      1462      1465      1466
      1459      1462      1465      1467      1459      1462      1465      1468
      1460      1459      1462      1463      1460      1459      1462      1464
      1460      1459      1462      1465      1461      1459      1462      1463
      1461      1459      1462      1464      1461      1459      1462      1465
      1462      1465      1468      1469      1462      1465      1468      1470
      1462      1465      1468      1471      1463      1462      1465      1466
      1463      1462      1465      1467      1463      1462      1465      1468
      1464      1462      1465      1466      1464      1462      1465      1467
      1464      1462      1465      1468      1465      1468      1471      1472
      1465      1468      1471      1473      1465      1468      1471      1474
      1466      1465      1468      1469      1466      1465      1468      1470
      1466      1465      1468      1471      1467      1465      1468      1469
      1467      1465      1468      1470      1467      1465      1468      1471
      1469      1468      1471      1472      1469      1468      1471      1473
      1469      1468      1471      1474      1470      1468      1471      1472
      1470      1468      1471      1473      1470      1468      1471      1474
      1475      1476      1491      1492      1475      1476      1491      1493
      1475      1476      1491      1497      1476      1475      1479      1480
      1476      1475      1479      1481      1476      1475      1479      1482
      1476      1475      1483      1484      1476      1475      1483      1485
      1476      1475      1483      1486      1476      1475      1487      1488
      1476      1475      1487      1489      1476      1475      1487      1490
      1476      1491      1497      1494      1477      1476      1475      1479
      1477      1476      1475      1483      1477      1476      1475      1487
      1477      1476      1491      1492      1477      1476      1491      1493
      1477      1476      1491      1497      1478      1476      1475      1479
      1478      1476      1475      1483      1478      1476      1475      1487
      1478      1476      1491      1492      1478      1476      1491      1493
      1478      1476      1491      1497      1479      1475      1476      1491
      1479      1475      1483      1484      1479      1475      1483      1485
      1479      1475      1483      1486      1479      1475      1487      1488
      1479      1475      1487      1489      1479      1475      1487      1490
      1480      1479      1475      1483      1480      1479      1475      1487
      1481      1479      1475      1483      1481      1479      1475      1487
      1482      1479      1475      1483      1482      1479      1475      1487
      1483      1475      1476      1491      1483      1475      1487      1488
      1483      1475      1487      1489      1483      1475      1487      1490
      1484      1483      1475      1487      1485      1483      1475      1487
      1486      1483      1475      1487      1487      1475      1476      1491
      1491      1497      1494      1495      1491      1497      1494      1496
      1491      1497      1494      1498      1492      1491      1497      1494
      1493      1491      1497      1494      1494      1498      1499      1500
      1494      1498      1499      1501      1494      1498      1499      1502
      1495      1494      1498      1499      1496      1494      1498      1499
      1497      1494      1498      1499      1498      1499      1502      1503
      1498      1499      1502      1504      1498      1499      1502      1510
      1499      1502      1504      1505      1499      1502      1510      1511
      1499      1502      1510      1512      1499      1502      1510      1513
      1500      1499      1502      1503      1500      1499      1502      1504
      1500      1499      1502      1510      1501      1499      1502      1503
      1501      1499      1502      1504      1501      1499      1502      1510
      1502      1504      1505      1506      1502      1504      1505      1507
      1502      1510      1513      1514      1503      1502      1504      1505
      1503      1502      1510      1511      1503      1502      1510      1512
      1503      1502      1510      1513      1504      1502      1510      1511
      1504      1502      1510      1512      1504      1502      1510      1513
      1504      1505      1507      1508      1504      1505      1507      1509
      1504      1505      1507      1519      1505      1504      1502      1510
      1505      1507      1519      1520      1505      1507      1519      1521
      1505      1507      1519      1522      1506      1505      1507      1508
      1506      1505      1507      1509      1506      1505      1507      1519
      1507      1519      1522      1523      1507      1519      1522      1524
      1507      1519      1522      1525      1508      1507      1519      1520
      1508      1507      1519      1521      1508      1507      1519      1522
      1509      1507      1519      1520      1509      1507      1519      1521
      1509      1507      1519      1522      1510      1513      1514      1515
      1510      1513      1514      1516      1511      1510      1513      1514
      1512      1510      1513      1514      1513      1514      1516      1517
      1513      1514      1516      1518      1513      1514      1516      1566
      1514      1516      1566      1567      1514      1516      1566      1568
      1514      1516      1566      1569      1515      1514      1516      1517
      1515      1514      1516      1518      1515      1514      1516      1566
      1516      1566      1569      1570      1516      1566      1569      1571
      1516      1566      1569      1572      1517      1516      1566      1567
      1517      1516      1566      1568      1517      1516      1566      1569
      1518      1516      1566      1567      1518      1516      1566      1568
      1518      1516      1566      1569      1519      1522      1525      1526
      1519      1522      1525      1527      1519      1522      1525      1528
      1520      1519      1522      1523      1520      1519      1522      1524
      1520      1519      1522      1525      1521      1519      1522      1523
      1521      1519      1522      1524      1521      1519      1522      1525
      1522      1525      1528      1529      1522      1525      1528      1530
      1522      1525      1528      1531      1523      1522      1525      1526
      1523      1522      1525      1527      1523      1522      1525      1528
      1524      1522      1525      1526      1524      1522      1525      1527
      1524      1522      1525      1528      1525      1528      1531      1532
      1525      1528      1531      1533      1525      1528      1531      1534
      1526      1525      1528      1529      1526      1525      1528      1530
      1526      1525      1528      1531      1527      1525      1528      1529
      1527      1525      1528      1530      1527      1525      1528      1531
      1528      1531      1534      1535      1528      1531      1534      1536
      1528      1531      1534      1537      1529      1528      1531      1532
      1529      1528      1531      1533      1529      1528      1531      1534
      1530      1528      1531      1532      1530      1528      1531      1533
      1530      1528      1531      1534      1531      1534      1537      1538
      1531      1534      1537      1539      1532      1531      1534      1535
      1532      1531      1534      1536      1532      1531      1534      1537
      1533      1531      1534      1535      1533      1531      1534      1536
      1533      1531      1534      1537      1534      1537      1539      1540
      1534      1537      1539      1541      1535      1534      1537      1538
      1535      1534      1537      1539      1536      1534      1537      1538
      1536      1534      1537      1539      1537      1539      1541      1542
      1537      1539      1541      1543      1537      1539      1541      1544
      1538      1537      1539      1540      1538      1537      1539      1541
      1539      1541      1544      1545      1539      1541      1544      1546
      1539      1541      1544      1547      1540      1539      1541      1542
      1540      1539      1541      1543      1540      1539      1541      1544
      1541      1544      1547      1548      1541      1544      1547      1549
      1541      1544      1547      1550      1542      1541      1544      1545
      1542      1541      1544      1546      1542      1541      1544      1547
      1543      1541      1544      1545      1543      1541      1544      1546
      1543      1541      1544      1547      1544      1547      1550      1551
      1544      1547      1550      1552      1544      1547      1550      1553
      1545      1544      1547      1548      1545      1544      1547      1549
      1545      1544      1547      1550      1546      1544      1547      1548
      1546      1544      1547      1549      1546      1544      1547      1550
      1547      1550      1553      1554      1547      1550      1553      1555
      1547      1550      1553      1556      1548      1547      1550      1551
      1548      1547      1550      1552      1548      1547      1550      1553
      1549      1547      1550      1551      1549      1547      1550      1552
      1549      1547      1550      1553      1550      1553      1556      1557
      1550      1553      1556      1558      1550      1553      1556      1559
      1551      1550      1553      1554      1551      1550      1553      1555
      1551      1550      1553      1556      1552      1550      1553      1554
      1552      1550      1553      1555      1552      1550      1553      1556
      1553      1556      1559      1560      1553      1556      1559      1561
      1553      1556      1559      1562      1554      1553      1556      1557
      1554      1553      1556      1558      1554      1553      1556      1559
      1555      1553      1556      1557      1555      1553      1556      1558
      1555      1553      1556      1559      1556      1559      1562      1563
      1556      1559      1562      1564      1556      1559      1562      1565
      1557      1556      1559      1560      1557      1556      1559      1561
      1557      1556      1559      1562      1558      1556      1559      1560
      1558      1556      1559      1561      1558      1556      1559      1562
      1560      1559      1562      1563      1560      1559      1562      1564
      1560      1559      1562      1565      1561      1559      1562      1563
      1561      1559      1562      1564      1561      1559      1562      1565
      1566      1569      1572      1573      1566      1569      1572      1574
      1566      1569      1572      1575      1567      1566      1569      1570
      1567      1566      1569      1571      1567      1566      1569      1572
      1568      1566      1569      1570      1568      1566      1569      1571
      1568      1566      1569      1572      1569      1572      1575      1576
      1569      1572      1575      1577      1569      1572      1575      1578
      1570      1569      1572      1573      1570      1569      1572      1574
      1570      1569      1572      1575      1571      1569      1572      1573
      1571      1569      1572      1574      1571      1569      1572      1575
      1572      1575      1578      1579      1572      1575      1578      1580
      1572      1575      1578      1581      1573      1572      1575      1576
      1573      1572      1575      1577      1573      1572      1575      1578
      1574      1572      1575      1576      1574      1572      1575      1577
      1574      1572      1575      1578      1575      1578      1581      1582
      1575      1578      1581      1583      1575      1578      1581      1584
      1576      1575      1578      1579      1576      1575      1578      1580
      1576      1575      1578      1581      1577      1575      1578      1579
      1577      1575      1578      1580      1577      1575      1578      1581
      1578      1581      1584      1585      1578      1581      1584      1586
      1578      1581      1584      1587      1579      1578      1581      1582
      1579      1578      1581      1583      1579      1578      1581      1584
      1580      1578      1581      1582      1580      1578      1581      1583
      1580      1578      1581      1584      1581      1584      1587      1588
      1581      1584      1587      1589      1581      1584      1587      1590
      1582      1581      1584      1585      1582      1581      1584      1586
      1582      1581      1584      1587      1583      1581      1584      1585
      1583      1581      1584      1586      1583      1581      1584      1587
      1584      1587      1590      1591      1584      1587      1590      1592
      1584      1587      1590      1593      1585      1584      1587      1588
      1585      1584      1587      1589      1585      1584      1587      1590
      1586      1584      1587      1588      1586      1584      1587      1589
      1586      1584      1587      1590      1587      1590      1593      1594
      1587      1590      1593      1595      1587      1590      1593      1596
      1588      1587      1590      1591      1588      1587      1590      1592
      1588      1587      1590      1593      1589      1587      1590      1591
      1589      1587      1590      1592      1589      1587      1590      1593
      1590      1593      1596      1597      1590      1593      1596      1598
      1590      1593      1596      1599      1591      1590      1593      1594
      1591      1590      1593      1595      1591      1590      1593      1596
      1592      1590      1593      1594      1592      1590      1593      1595
      1592      1590      1593      1596      1593      1596      1599      1600
      1593      1596      1599      1601      1593      1596      1599      1602
      1594      1593      1596      1597      1594      1593      1596      1598
      1594      1593      1596      1599      1595      1593      1596      1597
      1595      1593      1596      1598      1595      1593      1596      1599
      1596      1599      1602      1603      1596      1599      1602      1604
      1596      1599      1602      1605      1597      1596      1599      1600
      1597      1596      1599      1601      1597      1596      1599      1602
      1598      1596      1599      1600      1598      1596      1599      1601
      1598      1596      1599      1602      1599      1602      1605      1606
      1599      1602      1605      1607      1599      1602      1605      1608
      1600      1599      1602      1603      1600      1599      1602      1604
      1600      1599      1602      1605      1601      1599      1602      1603
      1601      1599      1602      1604      1601      1599      1602      1605
      1603      1602      1605      1606      1603      1602      1605      1607
      1603      1602      1605      1608      1604      1602      1605      1606
      1604      1602      1605      1607      1604      1602      1605      1608
      1609      1610      1625      1626      1609      1610      1625      1627
      1609      1610      1625      1631      1610      1609      1613      1614
      1610      1609      1613      1615      1610      1609      1613      1616
      1610      1609      1617      1618      1610      1609      1617      1619
      1610      1609      1617      1620      1610      1609      1621      1622
      1610      1609      1621      1623      1610      1609      1621      1624
      1610      1625      1631      1628      1611      1610      1609      1613
      1611      1610      1609      1617      1611      1610      1609      1621
      1611      1610      1625      1626      1611      1610      1625      1627
      1611      1610      1625      1631      1612      1610      1609      1613
      1612      1610      1609      1617      1612      1610      1609      1621
      1612      1610      1625      1626      1612      1610      1625      1627
      1612      1610      1625      1631      1613      1609      1610      1625
      1613      1609      1617      1618      1613      1609      1617      1619
      1613      1609      1617      1620      1613      1609      1621      1622
      1613      1609      1621      1623      1613      1609      1621      1624
      1614      1613      1609      1617      1614      1613      1609      1621
      1615      1613      1609      1617      1615      1613      1609      1621
      1616      1613      1609      1617      1616      1613      1609      1621
      1617      1609      1610      1625      1617      1609      1621      1622
      1617      1609      1621      1623      1617      1609      1621      1624
      1618      1617      1609      1621      1619      1617      1609      1621
      1620      1617      1609      1621      1621      1609      1610      1625
      1625      1631      1628      1629      1625      1631      1628      1630
      1625      1631      1628      1632      1626      1625      1631      1628
      1627      1625      1631      1628      1628      1632      1633      1634
      1628      1632      1633      1635      1628      1632      1633      1636
      1629      1628      1632      1633      1630      1628      1632      1633
      1631      1628      1632      1633      1632      1633      1636      1637
      1632      1633      1636      1638      1632      1633      1636      1644
      1633      1636      1638      1639      1633      1636      1644      1645
      1633      1636      1644      1646      1633      1636      1644      1647
      1634      1633      1636      1637      1634      1633      1636      1638
      1634      1633      1636      1644      1635      1633      1636      1637
      1635      1633      1636      1638      1635      1633      1636      1644
      1636      1638      1639      1640      1636      1638      1639      1641
      1636      1644      1647      1648      1637      1636      1638      1639
      1637      1636      1644      1645      1637      1636      1644      1646
      1637      1636      1644      1647      1638      1636      1644      1645
      1638      1636      1644      1646      1638      1636      1644      1647
      1638      1639      1641      1642      1638      1639      1641      1643
      1638      1639      1641      1653      1639      1638      1636      1644
      1639      1641      1653      1654      1639      1641      1653      1655
      1639      1641      1653      1656      1640      1639      1641      1642
      1640      1639      1641      1643      1640      1639      1641      1653
      1641      1653      1656      1657      1641      1653      1656      1658
      1641      1653      1656      1659      1642      1641      1653      1654
      1642      1641      1653      1655      1642      1641      1653      1656
      1643      1641      1653      1654      1643      1641      1653      1655
      1643      1641      1653      1656      1644      1647      1648      1649
      1644      1647      1648      1650      1645      1644      1647      1648
      1646      1644      1647      1648      1647      1648      1650      1651
      1647      1648      1650      1652      1647      1648      1650      1700
      1648      1650      1700      1701      1648      1650      1700      1702
      1648      1650      1700      1703      1649      1648      1650      1651
      1649      1648      1650      1652      1649      1648      1650      1700
      1650      1700      1703      1704      1650      1700      1703      1705
      1650      1700      1703      1706      1651      1650      1700      1701
      1651      1650      1700      1702      1651      1650      1700      1703
      1652      1650      1700      1701      1652      1650      1700      1702
      1652      1650      1700      1703      1653      1656      1659      1660
      1653      1656      1659      1661      1653      1656      1659      1662
      1654      1653      1656      1657      1654      1653      1656      1658
      1654      1653      1656      1659      1655      1653      1656      1657
      1655      1653      1656      1658      1655      1653      1656      1659
      1656      1659      1662      1663      1656      1659      1662      1664
      1656      1659      1662      1665      1657      1656      1659      1660
      1657      1656      1659      1661      1657      1656      1659      1662
      1658      1656      1659      1660      1658      1656      1659      1661
      1658      1656      1659      1662      1659      1662      1665      1666
      1659      1662      1665      1667      1659      1662      1665      1668
      1660      1659      1662      1663      1660      1659      1662      1664
      1660      1659      1662      1665      1661      1659      1662      1663
      1661      1659      1662      1664      1661      1659      1662      1665
      1662      1665      1668      1669      1662      1665      1668      1670
      1662      1665      1668      1671      1663      1662      1665      1666
      1663      1662      1665      1667      1663      1662      1665      1668
      1664      1662      1665      1666      1664      1662      1665      1667
      1664      1662      1665      1668      1665      1668      1671      1672
      1665      1668      1671      1673      1666      1665      1668      1669
      1666      1665      1668      1670      1666      1665      1668      1671
      1667      1665      1668      1669      1667      1665      1668      1670
      1667      1665      1668      1671      1668      1671      1673      1674
      1668      1671      1673      1675      1669      1668      1671      1672
      1669      1668      1671      1673      1670      1668      1671      1672
      1670      1668      1671      1673      1671      1673      1675      1676
      1671      1673      1675      1677      1671      1673      1675      1678
      1672      1671      1673      1674      1672      1671      1673      1675
      1673      1675      1678      1679      1673      1675      1678      1680
      1673      1675      1678      1681      1674      1673      1675      1676
      1674      1673      1675      1677      1674      1673      1675      1678
      1675      1678      1681      1682      1675      1678      1681      1683
      1675      1678      1681      1684      1676      1675      1678      1679
      1676      1675      1678      1680      1676      1675      1678      1681
      1677      1675      1678      1679      1677      1675      1678      1680
      1677      1675      1678      1681      1678      1681      1684      1685
      1678      1681      1684      1686      1678      1681      1684      1687
      1679      1678      1681      1682      1679      1678      1681      1683
      1679      1678      1681      1684      1680      1678      1681      1682
      1680      1678      1681      1683      1680      1678      1681      1684
      1681      1684      1687      1688      1681      1684      1687      1689
      1681      1684      1687      1690      1682      1681      1684      1685
      1682      1681      1684      1686      1682      1681      1684      1687
      1683      1681      1684      1685      1683      1681      1684      1686
      1683      1681      1684      1687      1684      1687      1690      1691
      1684      1687      1690      1692      1684      1687      1690      1693
      1685      1684      1687      1688      1685      1684      1687      1689
      1685      1684      1687      1690      1686      1684      1687      1688
      1686      1684      1687      1689      1686      1684      1687      1690
      1687      1690      1693      1694      1687      1690      1693      1695
      1687      1690      1693      1696      1688      1687      1690      1691
      1688      1687      1690      1692      1688      1687      1690      1693
      1689      1687      1690      1691      1689      1687      1690      1692
      1689      1687      1690      1693      1690      1693      1696      1697
      1690      1693      1696      1698      1690      1693      1696      1699
      1691      1690      1693      1694      1691      1690      1693      1695
      1691      1690      1693      1696      1692      1690      1693      1694
      1692      1690      1693      1695      1692      1690      1693      1696
      1694      1693      1696      1697      1694      1693      1696      1698
      1694      1693      1696      1699      1695      1693      1696      1697
      1695      1693      1696      1698      1695      1693      1696      1699
      1700      1703      1706      1707      1700      1703      1706      1708
      1700      1703      1706      1709      1701      1700      1703      1704
      1701      1700      1703      1705      1701      1700      1703      1706
      1702      1700      1703      1704      1702      1700      1703      1705
      1702      1700      1703      1706      1703      1706      1709      1710
      1703      1706      1709      1711      1703      1706      1709      1712
      1704      1703      1706      1707      1704      1703      1706      1708
      1704      1703      1706      1709      1705      1703      1706      1707
      1705      1703      1706      1708      1705      1703      1706      1709
      1706      1709      1712      1713      1706      1709      1712      1714
      1706      1709      1712      1715      1707      1706      1709      1710
      1707      1706      1709      1711      1707      1706      1709      1712
      1708      1706      1709      1710      1708      1706      1709      1711
      1708      1706      1709      1712      1709      1712      1715      1716
      1709      1712      1715      1717      1709      1712      1715      1718
      1710      1709      1712      1713      1710      1709      1712      1714
      1710      1709      1712      1715      1711      1709      1712      1713
      1711      1709      1712      1714      1711      1709      1712      1715
      1712      1715      1718      1719      1712      1715      1718      1720
      1712      1715      1718      1721      1713      1712      1715      1716
      1713      1712      1715      1717      1713      1712      1715      1718
      1714      1712      1715      1716      1714      1712      1715      1717
      1714      1712      1715      1718      1715      1718      1721      1722
      1715      1718      1721      1723      1715      1718      1721      1724
      1716      1715      1718      1719      1716      1715      1718      1720
      1716      1715      1718      1721      1717      1715      1718      1719
      1717      1715      1718      1720      1717      1715      1718      1721
      1718      1721      1724      1725      1718      1721      1724      1726
      1718      1721      1724      1727      1719      1718      1721      1722
      1719      1718      1721      1723      1719      1718      1721      1724
      1720      1718      1721      1722      1720      1718      1721      1723
      1720      1718      1721      1724      1721      1724      1727      1728
      1721      1724      1727      1729      1721      1724      1727      1730
      1722      1721      1724      1725      1722      1721      1724      1726
      1722      1721      1724      1727      1723      1721      1724      1725
      1723      1721      1724      1726      1723      1721      1724      1727
      1724      1727      1730      1731      1724      1727      1730      1732
      1724      1727      1730      1733      1725      1724      1727      1728
      1725      1724      1727      1729      1725      1724      1727      1730
      1726      1724      1727      1728      1726      1724      1727      1729
      1726      1724      1727      1730      1727      1730      1733      1734
      1727      1730      1733      1735      1727      1730      1733      1736
      1728      1727      1730      1731      1728      1727      1730      1732
      1728      1727      1730      1733      1729      1727      1730      1731
      1729      1727      1730      1732      1729      1727      1730      1733
      1730      1733      1736      1737      1730      1733      1736      1738
      1730      1733      1736      1739      1731      1730      1733      1734
      1731      1730      1733      1735      1731      1730      1733      1736
      1732      1730      1733      1734      1732      1730      1733      1735
      1732      1730      1733      1736      1733      1736      1739      1740
      1733      1736      1739      1741      1733      1736      1739      1742
      1734      1733      1736      1737      1734      1733      1736      1738
      1734      1733      1736      1739      1735      1733      1736      1737
      1735      1733      1736      1738      1735      1733      1736      1739
      1737      1736      1739      1740      1737      1736      1739      1741
      1737      1736      1739      1742      1738      1736      1739      1740
      1738      1736      1739      1741      1738      1736      1739      1742
      1743      1744      1759      1760      1743      1744      1759      1761
      1743      1744      1759      1765      1744      1743      1747      1748
      1744      1743      1747      1749      1744      1743      1747      1750
      1744      1743      1751      1752      1744      1743      1751      1753
      1744      1743      1751      1754      1744      1743      1755      1756
      1744      1743      1755      1757      1744      1743      1755      1758
      1744      1759      1765      1762      1745      1744      1743      1747
      1745      1744      1743      1751      1745      1744      1743      1755
      1745      1744      1759      1760      1745      1744      1759      1761
      1745      1744      1759      1765      1746      1744      1743      1747
      1746      1744      1743      1751      1746      1744      1743      1755
      1746      1744      1759      1760      1746      1744      1759      1761
      1746      1744      1759      1765      1747      1743      1744      1759
      1747      1743      1751      1752      1747      1743      1751      1753
      1747      1743      1751      1754      1747      1743      1755      1756
      1747      1743      1755      1757      1747      1743      1755      1758
      1748      1747      1743      1751      1748      1747      1743      1755
      1749      1747      1743      1751      1749      1747      1743      1755
      1750      1747      1743      1751      1750      1747      1743      1755
      1751      1743      1744      1759      1751      1743      1755      1756
      1751      1743      1755      1757      1751      1743      1755      1758
      1752      1751      1743      1755      1753      1751      1743      1755
      1754      1751      1743      1755      1755      1743      1744      1759
      1759      1765      1762      1763      1759      1765      1762      1764
      1759      1765      1762      1766      1760      1759      1765      1762
      1761      1759      1765      1762      1762      1766      1767      1768
      1762      1766      1767      1769      1762      1766      1767      1770
      1763      1762      1766      1767      1764      1762      1766      1767
      1765      1762      1766      1767      1766      1767      1770      1771
      1766      1767      1770      1772      1766      1767      1770      1778
      1767      1770      1772      1773      1767      1770      1778      1779
      1767      1770      1778      1780      1767      1770      1778      1781
      1768      1767      1770      1771      1768      1767      1770      1772
      1768      1767      1770      1778      1769      1767      1770      1771
      1769      1767      1770      1772      1769      1767      1770      1778
      1770      1772      1773      1774      1770      1772      1773      1775
      1770      1778      1781      1782      1771      1770      1772      1773
      1771      1770      1778      1779      1771      1770      1778      1780
      1771      1770      1778      1781      1772      1770      1778      1779
      1772      1770      1778      1780      1772      1770      1778      1781
      1772      1773      1775      1776      1772      1773      1775      1777
      1772      1773      1775      1787      1773      1772      1770      1778
      1773      1775      1787      1788      1773      1775      1787      1789
      1773      1775      1787      1790      1774      1773      1775      1776
      1774      1773      1775      1777      1774      1773      1775      1787
      1775      1787      1790      1791      1775      1787      1790      1792
      1775      1787      1790      1793      1776      1775      1787      1788
      1776      1775      1787      1789      1776      1775      1787      1790
      1777      1775      1787      1788      1777      1775      1787      1789
      1777      1775      1787      1790      1778      1781      1782      1783
      1778      1781      1782      1784      1779      1778      1781      1782
      1780      1778      1781      1782      1781      1782      1784      1785
      1781      1782      1784      1786      1781      1782      1784      1834
      1782      1784      1834      1835      1782      1784      1834      1836
      1782      1784      1834      1837      1783      1782      1784      1785
      1783      1782      1784      1786      1783      1782      1784      1834
      1784      1834      1837      1838      1784      1834      1837      1839
      1784      1834      1837      1840      1785      1784      1834      1835
      1785      1784      1834      1836      1785      1784      1834      1837
      1786      1784      1834      1835      1786      1784      1834      1836
      1786      1784      1834      1837      1787      1790      1793      1794
      1787      1790      1793      1795      1787      1790      1793      1796
      1788      1787      1790      1791      1788      1787      1790      1792
      1788      1787      1790      1793      1789      1787      1790      1791
      1789      1787      1790      1792      1789      1787      1790      1793
      1790      1793      1796      1797      1790      1793      1796      1798
      1790      1793      1796      1799      1791      1790      1793      1794
      1791      1790      1793      1795      1791      1790      1793      1796
      1792      1790      1793      1794      1792      1790      1793      1795
      1792      1790      1793      1796      1793      1796      1799      1800
      1793      1796      1799      1801      1793      1796      1799      1802
      1794      1793      1796      1797      1794      1793      1796      1798
      1794      1793      1796      1799      1795      1793      1796      1797
      1795      1793      1796      1798      1795      1793      1796      1799
      1796      1799      1802      1803      1796      1799      1802      1804
      1796      1799      1802      1805      1797      1796      1799      1800
      1797      1796      1799      1801      1797      1796      1799      1802
      1798      1796      1799      1800      1798      1796      1799      1801
      1798      1796      1799      1802      1799      1802      1805      1806
      1799      1802      1805      1807      1800      1799      1802      1803
      1800      1799      1802      1804      1800      1799      1802      1805
      1801      1799      1802      1803      1801      1799      1802      1804
      1801      1799      1802      1805      1802      1805      1807      1808
      1802      1805      1807      1809      1803      1802      1805      1806
      1803      1802      1805      1807      1804      1802      1805      1806
      1804      1802      1805      1807      1805      1807      1809      1810
      1805      1807      1809      1811      1805      1807      1809      1812
      1806      1805      1807      1808      1806      1805      1807      1809
      1807      1809      1812      1813      1807      1809      1812      1814
      1807      1809      1812      1815      1808      1807      1809      1810
      1808      1807      1809      1811      1808      1807      1809      1812
      1809      1812      1815      1816      1809      1812      1815      1817
      1809      1812      1815      1818      1810      1809      1812      1813
      1810      1809      1812      1814      1810      1809      1812      1815
      1811      1809      1812      1813      1811      1809      1812      1814
      1811      1809      1812      1815      1812      1815      1818      1819
      1812      1815      1818      1820      1812      1815      1818      1821
      1813      1812      1815      1816      1813      1812      1815      1817
      1813      1812      1815      1818      1814      1812      1815      1816
      1814      1812      1815      1817      1814      1812      1815      1818
      1815      1818      1821      1822      1815      1818      1821      1823
      1815      1818      1821      1824      1816      1815      1818      1819
      1816      1815      1818      1820      1816      1815      1818      1821
      1817      1815      1818      1819      1817      1815      1818      1820
      1817      1815      1818      1821      1818      1821      1824      1825
      1818      1821      1824      1826      1818      1821      1824      1827
      1819      1818      1821      1822      1819      1818      1821      1823
      1819      1818      1821      1824      1820      1818      1821      1822
      1820      1818      1821      1823      1820      1818      1821      1824
      1821      1824      1827      1828      1821      1824      1827      1829
      1821      1824      1827      1830      1822      1821      1824      1825
      1822      1821      1824      1826      1822      1821      1824      1827
      1823      1821      1824      1825      1823      1821      1824      1826
      1823      1821      1824      1827      1824      1827      1830      1831
      1824      1827      1830      1832      1824      1827      1830      1833
      1825      1824      1827      1828      1825      1824      1827      1829
      1825      1824      1827      1830      1826      1824      1827      1828
      1826      1824      1827      1829      1826      1824      1827      1830
      1828      1827      1830      1831      1828      1827      1830      1832
      1828      1827      1830      1833      1829      1827      1830      1831
      1829      1827      1830      1832      1829      1827      1830      1833
      1834      1837      1840      1841      1834      1837      1840      1842
      1834      1837      1840      1843      1835      1834      1837      1838
      1835      1834      1837      1839      1835      1834      1837      1840
      1836      1834      1837      1838      1836      1834      1837      1839
      1836      1834      1837      1840      1837      1840      1843      1844
      1837      1840      1843      1845      1837      1840      1843      1846
      1838      1837      1840      1841      1838      1837      1840      1842
      1838      1837      1840      1843      1839      1837      1840      1841
      1839      1837      1840      1842      1839      1837      1840      1843
      1840      1843      1846      1847      1840      1843      1846      1848
      1840      1843      1846      1849      1841      1840      1843      1844
      1841      1840      1843      1845      1841      1840      1843      1846
      1842      1840      1843      1844      1842      1840      1843      1845
      1842      1840      1843      1846      1843      1846      1849      1850
      1843      1846      1849      1851      1843      1846      1849      1852
      1844      1843      1846      1847      1844      1843      1846      1848
      1844      1843      1846      1849      1845      1843      1846      1847
      1845      1843      1846      1848      1845      1843      1846      1849
      1846      1849      1852      1853      1846      1849      1852      1854
      1846      1849      1852      1855      1847      1846      1849      1850
      1847      1846      1849      1851      1847      1846      1849      1852
      1848      1846      1849      1850      1848      1846      1849      1851
      1848      1846      1849      1852      1849      1852      1855      1856
      1849      1852      1855      1857      1849      1852      1855      1858
      1850      1849      1852      1853      1850      1849      1852      1854
      1850      1849      1852      1855      1851      1849      1852      1853
      1851      1849      1852      1854      1851      1849      1852      1855
      1852      1855      1858      1859      1852      1855      1858      1860
      1852      1855      1858      1861      1853      1852      1855      1856
      1853      1852      1855      1857      1853      1852      1855      1858
      1854      1852      1855      1856      1854      1852      1855      1857
      1854      1852      1855      1858      1855      1858      1861      1862
      1855      1858      1861      1863      1855      1858      1861      1864
      1856      1855      1858      1859      1856      1855      1858      1860
      1856      1855      1858      1861      1857      1855      1858      1859
      1857      1855      1858      1860      1857      1855      1858      1861
      1858      1861      1864      1865      1858      1861      1864      1866
      1858      1861      1864      1867      1859      1858      1861      1862
      1859      1858      1861      1863      1859      1858      1861      1864
      1860      1858      1861      1862      1860      1858      1861      1863
      1860      1858      1861      1864      1861      1864      1867      1868
      1861      1864      1867      1869      1861      1864      1867      1870
      1862      1861      1864      1865      1862      1861      1864      1866
      1862      1861      1864      1867      1863      1861      1864      1865
      1863      1861      1864      1866      1863      1861      1864      1867
      1864      1867      1870      1871      1864      1867      1870      1872
      1864      1867      1870      1873      1865      1864      1867      1868
      1865      1864      1867      1869      1865      1864      1867      1870
      1866      1864      1867      1868      1866      1864      1867      1869
      1866      1864      1867      1870      1867      1870      1873      1874
      1867      1870      1873      1875      1867      1870      1873      1876
      1868      1867      1870      1871      1868      1867      1870      1872
      1868      1867      1870      1873      1869      1867      1870      1871
      1869      1867      1870      1872      1869      1867      1870      1873
      1871      1870      1873      1874      1871      1870      1873      1875
      1871      1870      1873      1876      1872      1870      1873      1874
      1872      1870      1873      1875      1872      1870      1873      1876
      1877      1878      1893      1894      1877      1878      1893      1895
      1877      1878      1893      1899      1878      1877      1881      1882
      1878      1877      1881      1883      1878      1877      1881      1884
      1878      1877      1885      1886      1878      1877      1885      1887
      1878      1877      1885      1888      1878      1877      1889      1890
      1878      1877      1889      1891      1878      1877      1889      1892
      1878      1893      1899      1896      1879      1878      1877      1881
      1879      1878      1877      1885      1879      1878      1877      1889
      1879      1878      1893      1894      1879      1878      1893      1895
      1879      1878      1893      1899      1880      1878      1877      1881
      1880      1878      1877      1885      1880      1878      1877      1889
      1880      1878      1893      1894      1880      1878      1893      1895
      1880      1878      1893      1899      1881      1877      1878      1893
      1881      1877      1885      1886      1881      1877      1885      1887
      1881      1877      1885      1888      1881      1877      1889      1890
      1881      1877      1889      1891      1881      1877      1889      1892
      1882      1881      1877      1885      1882      1881      1877      1889
      1883      1881      1877      1885      1883      1881      1877      1889
      1884      1881      1877      1885      1884      1881      1877      1889
      1885      1877      1878      1893      1885      1877      1889      1890
      1885      1877      1889      1891      1885      1877      1889      1892
      1886      1885      1877      1889      1887      1885      1877      1889
      1888      1885      1877      1889      1889      1877      1878      1893
      1893      1899      1896      1897      1893      1899      1896      1898
      1893      1899      1896      1900      1894      1893      1899      1896
      1895      1893      1899      1896      1896      1900      1901      1902
      1896      1900      1901      1903      1896      1900      1901      1904
      1897      1896      1900      1901      1898      1896      1900      1901
      1899      1896      1900      1901      1900      1901      1904      1905
      1900      1901      1904      1906      1900      1901      1904      1912
      1901      1904      1906      1907      1901      1904      1912      1913
      1901      1904      1912      1914      1901      1904      1912      1915
      1902      1901      1904      1905      1902      1901      1904      1906
      1902      1901      1904      1912      1903      1901      1904      1905
      1903      1901      1904      1906      1903      1901      1904      1912
      1904      1906      1907      1908      1904      1906      1907      1909
      1904      1912      1915      1916      1905      1904      1906      1907
      1905      1904      1912      1913      1905      1904      1912      1914
      1905      1904      1912      1915      1906      1904      1912      1913
      1906      1904      1912      1914      1906      1904      1912      1915
      1906      1907      1909      1910      1906      1907      1909      1911
      1906      1907      1909      1921      1907      1906      1904      1912
      1907      1909      1921      1922      1907      1909      1921      1923
      1907      1909      1921      1924      1908      1907      1909      1910
      1908      1907      1909      1911      1908      1907      1909      1921
      1909      1921      1924      1925      1909      1921      1924      1926
      1909      1921      1924      1927      1910      1909      1921      1922
      1910      1909      1921      1923      1910      1909      1921      1924
      1911      1909      1921      1922      1911      1909      1921      1923
      1911      1909      1921      1924      1912      1915      1916      1917
      1912      1915      1916      1918      1913      1912      1915      1916
      1914      1912      1915      1916      1915      1916      1918      1919
      1915      1916      1918      1920      1915      1916      1918      1968
      1916      1918      1968      1969      1916      1918      1968      1970
      1916      1918      1968      1971      1917      1916      1918      1919
      1917      1916      1918      1920      1917      1916      1918      1968
      1918      1968      1971      1972      1918      1968      1971      1973
      1918      1968      1971      1974      1919      1918      1968      1969
      1919      1918      1968      1970      1919      1918      1968      1971
      1920      1918      1968      1969      1920      1918      1968      1970
      1920      1918      1968      1971      1921      1924      1927      1928
      1921      1924      1927      1929      1921      1924      1927      1930
      1922      1921      1924      1925      1922      1921      1924      1926
      1922      1921      1924      1927      1923      1921      1924      1925
      1923      1921      1924      1926      1923      1921      1924      1927
      1924      1927      1930      1931      1924      1927      1930      1932
      1924      1927      1930      1933      1925      1924      1927      1928
      1925      1924      1927      1929      1925      1924      1927      1930
      1926      1924      1927      1928      1926      1924      1927      1929
      1926      1924      1927      1930      1927      1930      1933      1934
      1927      1930      1933      1935      1927      1930      1933      1936
      1928      1927      1930      1931      1928      1927      1930      1932
      1928      1927      1930      1933      1929      1927      1930      1931
      1929      1927      1930      1932      1929      1927      1930      1933
      1930      1933      1936      1937      1930      1933      1936      1938
      1930      1933      1936      1939      1931      1930      1933      1934
      1931      1930      1933      1935      1931      1930      1933      1936
      1932      1930      1933      1934      1932      1930      1933      1935
      1932      1930      1933      1936      1933      1936      1939      1940
      1933      1936      1939      1941      1934      1933      1936      1937
      1934      1933      1936      1938      1934      1933      1936      1939
      1935      1933      1936      1937      1935      1933      1936      1938
      1935      1933      1936      1939      1936      1939      1941      1942
      1936      1939      1941      1943      1937      1936      1939      1940
      1937      1936      1939      1941      1938      1936      1939      1940
      1938      1936      1939      1941      1939      1941      1943      1944
      1939      1941      1943      1945      1939      1941      1943      1946
      1940      1939      1941      1942      1940      1939      1941      1943
      1941      1943      1946      1947      1941      1943      1946      1948
      1941      1943      1946      1949      1942      1941      1943      1944
      1942      1941      1943      1945      1942      1941      1943      1946
      1943      1946      1949      1950      1943      1946      1949      1951
      1943      1946      1949      1952      1944      1943      1946      1947
      1944      1943      1946      1948      1944      1943      1946      1949
      1945      1943      1946      1947      1945      1943      1946      1948
      1945      1943      1946      1949      1946      1949      1952      1953
      1946      1949      1952      1954      1946      1949      1952      1955
      1947      1946      1949      1950      1947      1946      1949      1951
      1947      1946      1949      1952      1948      1946      1949      1950
      1948      1946      1949      1951      1948      1946      1949      1952
      1949      1952      1955      1956      1949      1952      1955      1957
      1949      1952      1955      1958      1950      1949      1952      1953
      1950      1949      1952      1954      1950      1949      1952      1955
      1951      1949      1952      1953      1951      1949      1952      1954
      1951      1949      1952      1955      1952      1955      1958      1959
      1952      1955      1958      1960      1952      1955      1958      1961
      1953      1952      1955      1956      1953      1952      1955      1957
      1953      1952      1955      1958      1954      1952      1955      1956
      1954      1952      1955      1957      1954      1952      1955      1958
      1955      1958      1961      1962      1955      1958      1961      1963
      1955      1958      1961      1964      1956      1955      1958      1959
      1956      1955      1958      1960      1956      1955      1958      1961
      1957      1955      1958      1959      1957      1955      1958      1960
      1957      1955      1958      1961      1958      1961      1964      1965
      1958      1961      1964      1966      1958      1961      1964      1967
      1959      1958      1961      1962      1959      1958      1961      1963
      1959      1958      1961      1964      1960      1958      1961      1962
      1960      1958      1961      1963      1960      1958      1961      1964
      1962      1961      1964      1965      1962      1961      1964      1966
      1962      1961      1964      1967      1963      1961      1964      1965
      1963      1961      1964      1966      1963      1961      1964      1967
      1968      1971      1974      1975      1968      1971      1974      1976
      1968      1971      1974      1977      1969      1968      1971      1972
      1969      1968      1971      1973      1969      1968      1971      1974
      1970      1968      1971      1972      1970      1968      1971      1973
      1970      1968      1971      1974      1971      1974      1977      1978
      1971      1974      1977      1979      1971      1974      1977      1980
      1972      1971      1974      1975      1972      1971      1974      1976
      1972      1971      1974      1977      1973      1971      1974      1975
      1973      1971      1974      1976      1973      1971      1974      1977
      1974      1977      1980      1981      1974      1977      1980      1982
      1974      1977      1980      1983      1975      1974      1977      1978
      1975      1974      1977      1979      1975      1974      1977      1980
      1976      1974      1977      1978      1976      1974      1977      1979
      1976      1974      1977      1980      1977      1980      1983      1984
      1977      1980      1983      1985      1977      1980      1983      1986
      1978      1977      1980      1981      1978      1977      1980      1982
      1978      1977      1980      1983      1979      1977      1980      1981
      1979      1977      1980      1982      1979      1977      1980      1983
      1980      1983      1986      1987      1980      1983      1986      1988
      1980      1983      1986      1989      1981      1980      1983      1984
      1981      1980      1983      1985      1981      1980      1983      1986
      1982      1980      1983      1984      1982      1980      1983      1985
      1982      1980      1983      1986      1983      1986      1989      1990
      1983      1986      1989      1991      1983      1986      1989      1992
      1984      1983      1986      1987      1984      1983      1986      1988
      1984      1983      1986      1989      1985      1983      1986      1987
      1985      1983      1986      1988      1985      1983      1986      1989
      1986      1989      1992      1993      1986      1989      1992      1994
      1986      1989      1992      1995      1987      1986      1989      1990
      1987      1986      1989      1991      1987      1986      1989      1992
      1988      1986      1989      1990      1988      1986      1989      1991
      1988      1986      1989      1992      1989      1992      1995      1996
      1989      1992      1995      1997      1989      1992      1995      1998
      1990      1989      1992      1993      1990      1989      1992      1994
      1990      1989      1992      1995      1991      1989      1992      1993
      1991      1989      1992      1994      1991      1989      1992      1995
      1992      1995      1998      1999      1992      1995      1998      2000
      1992      1995      1998      2001      1993      1992      1995      1996
      1993      1992      1995      1997      1993      1992      1995      1998
      1994      1992      1995      1996      1994      1992      1995      1997
      1994      1992      1995      1998      1995      1998      2001      2002
      1995      1998      2001      2003      1995      1998      2001      2004
      1996      1995      1998      1999      1996      1995      1998      2000
      1996      1995      1998      2001      1997      1995      1998      1999
      1997      1995      1998      2000      1997      1995      1998      2001
      1998      2001      2004      2005      1998      2001      2004      2006
      1998      2001      2004      2007      1999      1998      2001      2002
      1999      1998      2001      2003      1999      1998      2001      2004
      2000      1998      2001      2002      2000      1998      2001      2003
      2000      1998      2001      2004      2001      2004      2007      2008
      2001      2004      2007      2009      2001      2004      2007      2010
      2002      2001      2004      2005      2002      2001      2004      2006
      2002      2001      2004      2007      2003      2001      2004      2005
      2003      2001      2004      2006      2003      2001      2004      2007
      2005      2004      2007      2008      2005      2004      2007      2009
      2005      2004      2007      2010      2006      2004      2007      2008
      2006      2004      2007      2009      2006      2004      2007      2010
      2011      2012      2027      2028      2011      2012      2027      2029
      2011      2012      2027      2033      2012      2011      2015      2016
      2012      2011      2015      2017      2012      2011      2015      2018
      2012      2011      2019      2020      2012      2011      2019      2021
      2012      2011      2019      2022      2012      2011      2023      2024
      2012      2011      2023      2025      2012      2011      2023      2026
      2012      2027      2033      2030      2013      2012      2011      2015
      2013      2012      2011      2019      2013      2012      2011      2023
      2013      2012      2027      2028      2013      2012      2027      2029
      2013      2012      2027      2033      2014      2012      2011      2015
      2014      2012      2011      2019      2014      2012      2011      2023
      2014      2012      2027      2028      2014      2012      2027      2029
      2014      2012      2027      2033      2015      2011      2012      2027
      2015      2011      2019      2020      2015      2011      2019      2021
      2015      2011      2019      2022      2015      2011      2023      2024
      2015      2011      2023      2025      2015      2011      2023      2026
      2016      2015      2011      2019      2016      2015      2011      2023
      2017      2015      2011      2019      2017      2015      2011      2023
      2018      2015      2011      2019      2018      2015      2011      2023
      2019      2011      2012      2027      2019      2011      2023      2024
      2019      2011      2023      2025      2019      2011      2023      2026
      2020      2019      2011      2023      2021      2019      2011      2023
      2022      2019      2011      2023      2023      2011      2012      2027
      2027      2033      2030      2031      2027      2033      2030      2032
      2027      2033      2030      2034      2028      2027      2033      2030
      2029      2027      2033      2030      2030      2034      2035      2036
      2030      2034      2035      2037      2030      2034      2035      2038
      2031      2030      2034      2035      2032      2030      2034      2035
      2033      2030      2034      2035      2034      2035      2038      2039
      2034      2035      2038      2040      2034      2035      2038      2046
      2035      2038      2040      2041      2035      2038      2046      2047
      2035      2038      2046      2048      2035      2038      2046      2049
      2036      2035      2038      2039      2036      2035      2038      2040
      2036      2035      2038      2046      2037      2035      2038      2039
      2037      2035      2038      2040      2037      2035      2038      2046
      2038      2040      2041      2042      2038      2040      2041      2043
      2038      2046      2049      2050      2039      2038      2040      2041
      2039      2038      2046      2047      2039      2038      2046      2048
      2039      2038      2046      2049      2040      2038      2046      2047
      2040      2038      2046      2048      2040      2038      2046      2049
      2040      2041      2043      2044      2040      2041      2043      2045
      2040      2041      2043      2055      2041      2040      2038      2046
      2041      2043      2055      2056      2041      2043      2055      2057
      2041      2043      2055      2058      2042      2041      2043      2044
      2042      2041      2043      2045      2042      2041      2043      2055
      2043      2055      2058      2059      2043      2055      2058      2060
      2043      2055      2058      2061      2044      2043      2055      2056
      2044      2043      2055      2057      2044      2043      2055      2058
      2045      2043      2055      2056      2045      2043      2055      2057
      2045      2043      2055      2058      2046      2049      2050      2051
      2046      2049      2050      2052      2047      2046      2049      2050
      2048      2046      2049      2050      2049      2050      2052      2053
      2049      2050      2052      2054      2049      2050      2052      2102
      2050      2052      2102      2103      2050      2052      2102      2104
      2050      2052      2102      2105      2051      2050      2052      2053
      2051      2050      2052      2054      2051      2050      2052      2102
      2052      2102      2105      2106      2052      2102      2105      2107
      2052      2102      2105      2108      2053      2052      2102      2103
      2053      2052      2102      2104      2053      2052      2102      2105
      2054      2052      2102      2103      2054      2052      2102      2104
      2054      2052      2102      2105      2055      2058      2061      2062
      2055      2058      2061      2063      2055      2058      2061      2064
      2056      2055      2058      2059      2056      2055      2058      2060
      2056      2055      2058      2061      2057      2055      2058      2059
      2057      2055      2058      2060      2057      2055      2058      2061
      2058      2061      2064      2065      2058      2061      2064      2066
      2058      2061      2064      2067      2059      2058      2061      2062
      2059      2058      2061      2063      2059      2058      2061      2064
      2060      2058      2061      2062      2060      2058      2061      2063
      2060      2058      2061      2064      2061      2064      2067      2068
      2061      2064      2067      2069      2061      2064      2067      2070
      2062      2061      2064      2065      2062      2061      2064      2066
      2062      2061      2064      2067      2063      2061      2064      2065
      2063      2061      2064      2066      2063      2061      2064      2067
      2064      2067      2070      2071      2064      2067      2070      2072
      2064      2067      2070      2073      2065      2064      2067      2068
      2065      2064      2067      2069      2065      2064      2067      2070
      2066      2064      2067      2068      2066      2064      2067      2069
      2066      2064      2067      2070      2067      2070      2073      2074
      2067      2070      2073      2075      2068      2067      2070      2071
      2068      2067      2070      2072      2068      2067      2070      2073
      2069      2067      2070      2071      2069      2067      2070      2072
      2069      2067      2070      2073      2070      2073      2075      2076
      2070      2073      2075      2077      2071      2070      2073      2074
      2071      2070      2073      2075      2072      2070      2073      2074
      2072      2070      2073      2075      2073      2075      2077      2078
      2073      2075      2077      2079      2073      2075      2077      2080
      2074      2073      2075      2076      2074      2073      2075      2077
      2075      2077      2080      2081      2075      2077      2080      2082
      2075      2077      2080      2083      2076      2075      2077      2078
      2076      2075      2077      2079      2076      2075      2077      2080
      2077      2080      2083      2084      2077      2080      2083      2085
      2077      2080      2083      2086      2078      2077      2080      2081
      2078      2077      2080      2082      2078      2077      2080      2083
      2079      2077      2080      2081      2079      2077      2080      2082
      2079      2077      2080      2083      2080      2083      2086      2087
      2080      2083      2086      2088      2080      2083      2086      2089
      2081      2080      2083      2084      2081      2080      2083      2085
      2081      2080      2083      2086      2082      2080      2083      2084
      2082      2080      2083      2085      2082      2080      2083      2086
      2083      2086      2089      2090      2083      2086      2089      2091
      2083      2086      2089      2092      2084      2083      2086      2087
      2084      2083      2086      2088      2084      2083      2086      2089
      2085      2083      2086      2087      2085      2083      2086      2088
      2085      2083      2086      2089      2086      2089      2092      2093
      2086      2089      2092      2094      2086      2089      2092      2095
      2087      2086      2089      2090      2087      2086      2089      2091
      2087      2086      2089      2092      2088      2086      2089      2090
      2088      2086      2089      2091      2088      2086      2089      2092
      2089      2092      2095      2096      2089      2092      2095      2097
      2089      2092      2095      2098      2090      2089      2092      2093
      2090      2089      2092      2094      2090      2089      2092      2095
      2091      2089      2092      2093      2091      2089      2092      2094
      2091      2089      2092      2095      2092      2095      2098      2099
      2092      2095      2098      2100      2092      2095      2098      2101
      2093      2092      2095      2096      2093      2092      2095      2097
      2093      2092      2095      2098      2094      2092      2095      2096
      2094      2092      2095      2097      2094      2092      2095      2098
      2096      2095      2098      2099      2096      2095      2098      2100
      2096      2095      2098      2101      2097      2095      2098      2099
      2097      2095      2098      2100      2097      2095      2098      2101
      2102      2105      2108      2109      2102      2105      2108      2110
      2102      2105      2108      2111      2103      2102      2105      2106
      2103      2102      2105      2107      2103      2102      2105      2108
      2104      2102      2105      2106      2104      2102      2105      2107
      2104      2102      2105      2108      2105      2108      2111      2112
      2105      2108      2111      2113      2105      2108      2111      2114
      2106      2105      2108      2109      2106      2105      2108      2110
      2106      2105      2108      2111      2107      2105      2108      2109
      2107      2105      2108      2110      2107      2105      2108      2111
      2108      2111      2114      2115      2108      2111      2114      2116
      2108      2111      2114      2117      2109      2108      2111      2112
      2109      2108      2111      2113      2109      2108      2111      2114
      2110      2108      2111      2112      2110      2108      2111      2113
      2110      2108      2111      2114      2111      2114      2117      2118
      2111      2114      2117      2119      2111      2114      2117      2120
      2112      2111      2114      2115      2112      2111      2114      2116
      2112      2111      2114      2117      2113      2111      2114      2115
      2113      2111      2114      2116      2113      2111      2114      2117
      2114      2117      2120      2121      2114      2117      2120      2122
      2114      2117      2120      2123      2115      2114      2117      2118
      2115      2114      2117      2119      2115      2114      2117      2120
      2116      2114      2117      2118      2116      2114      2117      2119
      2116      2114      2117      2120      2117      2120      2123      2124
      2117      2120      2123      2125      2117      2120      2123      2126
      2118      2117      2120      2121      2118      2117      2120      2122
      2118      2117      2120      2123      2119      2117      2120      2121
      2119      2117      2120      2122      2119      2117      2120      2123
      2120      2123      2126      2127      2120      2123      2126      2128
      2120      2123      2126      2129      2121      2120      2123      2124
      2121      2120      2123      2125      2121      2120      2123      2126
      2122      2120      2123      2124      2122      2120      2123      2125
      2122      2120      2123      2126      2123      2126      2129      2130
      2123      2126      2129      2131      2123      2126      2129      2132
      2124      2123      2126      2127      2124      2123      2126      2128
      2124      2123      2126      2129      2125      2123      2126      2127
      2125      2123      2126      2128      2125      2123      2126      2129
      2126      2129      2132      2133      2126      2129      2132      2134
      2126      2129      2132      2135      2127      2126      2129      2130
      2127      2126      2129      2131      2127      2126      2129      2132
      2128      2126      2129      2130      2128      2126      2129      2131
      2128      2126      2129      2132      2129      2132      2135      2136
      2129      2132      2135      2137      2129      2132      2135      2138
      2130      2129      2132      2133      2130      2129      2132      2134
      2130      2129      2132      2135      2131      2129      2132      2133
      2131      2129      2132      2134      2131      2129      2132      2135
      2132      2135      2138      2139      2132      2135      2138      2140
      2132      2135      2138      2141      2133      2132      2135      2136
      2133      2132      2135      2137      2133      2132      2135      2138
      2134      2132      2135      2136      2134      2132      2135      2137
      2134      2132      2135      2138      2135      2138      2141      2142
      2135      2138      2141      2143      2135      2138      2141      2144
      2136      2135      2138      2139      2136      2135      2138      2140
      2136      2135      2138      2141      2137      2135      2138      2139
      2137      2135      2138      2140      2137      2135      2138      2141
      2139      2138      2141      2142      2139      2138      2141      2143
      2139      2138      2141      2144      2140      2138      2141      2142
      2140      2138      2141      2143      2140      2138      2141      2144
      2145      2146      2161      2162      2145      2146      2161      2163
      2145      2146      2161      2167      2146      2145      2149      2150
      2146      2145      2149      2151      2146      2145      2149      2152
      2146      2145      2153      2154      2146      2145      2153      2155
      2146      2145      2153      2156      2146      2145      2157      2158
      2146      2145      2157      2159      2146      2145      2157      2160
      2146      2161      2167      2164      2147      2146      2145      2149
      2147      2146      2145      2153      2147      2146      2145      2157
      2147      2146      2161      2162      2147      2146      2161      2163
      2147      2146      2161      2167      2148      2146      2145      2149
      2148      2146      2145      2153      2148      2146      2145      2157
      2148      2146      2161      2162      2148      2146      2161      2163
      2148      2146      2161      2167      2149      2145      2146      2161
      2149      2145      2153      2154      2149      2145      2153      2155
      2149      2145      2153      2156      2149      2145      2157      2158
      2149      2145      2157      2159      2149      2145      2157      2160
      2150      2149      2145      2153      2150      2149      2145      2157
      2151      2149      2145      2153      2151      2149      2145      2157
      2152      2149      2145      2153      2152      2149      2145      2157
      2153      2145      2146      2161      2153      2145      2157      2158
      2153      2145      2157      2159      2153      2145      2157      2160
      2154      2153      2145      2157      2155      2153      2145      2157
      2156      2153      2145      2157      2157      2145      2146      2161
      2161      2167      2164      2165      2161      2167      2164      2166
      2161      2167      2164      2168      2162      2161      2167      2164
      2163      2161      2167      2164      2164      2168      2169      2170
      2164      2168      2169      2171      2164      2168      2169      2172
      2165      2164      2168      2169      2166      2164      2168      2169
      2167      2164      2168      2169      2168      2169      2172      2173
      2168      2169      2172      2174      2168      2169      2172      2180
      2169      2172      2174      2175      2169      2172      2180      2181
      2169      2172      2180      2182      2169      2172      2180      2183
      2170      2169      2172      2173      2170      2169      2172      2174
      2170      2169      2172      2180      2171      2169      2172      2173
      2171      2169      2172      2174      2171      2169      2172      2180
      2172      2174      2175      2176      2172      2174      2175      2177
      2172      2180      2183      2184      2173      2172      2174      2175
      2173      2172      2180      2181      2173      2172      2180      2182
      2173      2172      2180      2183      2174      2172      2180      2181
      2174      2172      2180      2182      2174      2172      2180      2183
      2174      2175      2177      2178      2174      2175      2177      2179
      2174      2175      2177      2189      2175      2174      2172      2180
      2175      2177      2189      2190      2175      2177      2189      2191
      2175      2177      2189      2192      2176      2175      2177      2178
      2176      2175      2177      2179      2176      2175      2177      2189
      2177      2189      2192      2193      2177      2189      2192      2194
      2177      2189      2192      2195      2178      2177      2189      2190
      2178      2177      2189      2191      2178      2177      2189      2192
      2179      2177      2189      2190      2179      2177      2189      2191
      2179      2177      2189      2192      2180      2183      2184      2185
      2180      2183      2184      2186      2181      2180      2183      2184
      2182      2180      2183      2184      2183      2184      2186      2187
      2183      2184      2186      2188      2183      2184      2186      2236
      2184      2186      2236      2237      2184      2186      2236      2238
      2184      2186      2236      2239      2185      2184      2186      2187
      2185      2184      2186      2188      2185      2184      2186      2236
      2186      2236      2239      2240      2186      2236      2239      2241
      2186      2236      2239      2242      2187      2186      2236      2237
      2187      2186      2236      2238      2187      2186      2236      2239
      2188      2186      2236      2237      2188      2186      2236      2238
      2188      2186      2236      2239      2189      2192      2195      2196
      2189      2192      2195      2197      2189      2192      2195      2198
      2190      2189      2192      2193      2190      2189      2192      2194
      2190      2189      2192      2195      2191      2189      2192      2193
      2191      2189      2192      2194      2191      2189      2192      2195
      2192      2195      2198      2199      2192      2195      2198      2200
      2192      2195      2198      2201      2193      2192      2195      2196
      2193      2192      2195      2197      2193      2192      2195      2198
      2194      2192      2195      2196      2194      2192      2195      2197
      2194      2192      2195      2198      2195      2198      2201      2202
      2195      2198      2201      2203      2195      2198      2201      2204
      2196      2195      2198      2199      2196      2195      2198      2200
      2196      2195      2198      2201      2197      2195      2198      2199
      2197      2195      2198      2200      2197      2195      2198      2201
      2198      2201      2204      2205      2198      2201      2204      2206
      2198      2201      2204      2207      2199      2198      2201      2202
      2199      2198      2201      2203      2199      2198      2201      2204
      2200      2198      2201      2202      2200      2198      2201      2203
      2200      2198      2201      2204      2201      2204      2207      2208
      2201      2204      2207      2209      2202      2201      2204      2205
      2202      2201      2204      2206      2202      2201      2204      2207
      2203      2201      2204      2205      2203      2201      2204      2206
      2203      2201      2204      2207      2204      2207      2209      2210
      2204      2207      2209      2211      2205      2204      2207      2208
      2205      2204      2207      2209      2206      2204      2207      2208
      2206      2204      2207      2209      2207      2209      2211      2212
      2207      2209      2211      2213      2207      2209      2211      2214
      2208      2207      2209      2210      2208      2207      2209      2211
      2209      2211      2214      2215      2209      2211      2214      2216
      2209      2211      2214      2217      2210      2209      2211      2212
      2210      2209      2211      2213      2210      2209      2211      2214
      2211      2214      2217      2218      2211      2214      2217      2219
      2211      2214      2217      2220      2212      2211      2214      2215
      2212      2211      2214      2216      2212      2211      2214      2217
      2213      2211      2214      2215      2213      2211      2214      2216
      2213      2211      2214      2217      2214      2217      2220      2221
      2214      2217      2220      2222      2214      2217      2220      2223
      2215      2214      2217      2218      2215      2214      2217      2219
      2215      2214      2217      2220      2216      2214      2217      2218
      2216      2214      2217      2219      2216      2214      2217      2220
      2217      2220      2223      2224      2217      2220      2223      2225
      2217      2220      2223      2226      2218      2217      2220      2221
      2218      2217      2220      2222      2218      2217      2220      2223
      2219      2217      2220      2221      2219      2217      2220      2222
      2219      2217      2220      2223      2220      2223      2226      2227
      2220      2223      2226      2228      2220      2223      2226      2229
      2221      2220      2223      2224      2221      2220      2223      2225
      2221      2220      2223      2226      2222      2220      2223      2224
      2222      2220      2223      2225      2222      2220      2223      2226
      2223      2226      2229      2230      2223      2226      2229      2231
      2223      2226      2229      2232      2224      2223      2226      2227
      2224      2223      2226      2228      2224      2223      2226      2229
      2225      2223      2226      2227      2225      2223      2226      2228
      2225      2223      2226      2229      2226      2229      2232      2233
      2226      2229      2232      2234      2226      2229      2232      2235
      2227      2226      2229      2230      2227      2226      2229      2231
      2227      2226      2229      2232      2228      2226      2229      2230
      2228      2226      2229      2231      2228      2226      2229      2232
      2230      2229      2232      2233      2230      2229      2232      2234
      2230      2229      2232      2235      2231      2229      2232      2233
      2231      2229      2232      2234      2231      2229      2232      2235
      2236      2239      2242      2243      2236      2239      2242      2244
      2236      2239      2242      2245      2237      2236      2239      2240
      2237      2236      2239      2241      2237      2236      2239      2242
      2238      2236      2239      2240      2238      2236      2239      2241
      2238      2236      2239      2242      2239      2242      2245      2246
      2239      2242      2245      2247      2239      2242      2245      2248
      2240      2239      2242      2243      2240      2239      2242      2244
      2240      2239      2242      2245      2241      2239      2242      2243
      2241      2239      2242      2244      2241      2239      2242      2245
      2242      2245      2248      2249      2242      2245      2248      2250
      2242      2245      2248      2251      2243      2242      2245      2246
      2243      2242      2245      2247      2243      2242      2245      2248
      2244      2242      2245      2246      2244      2242      2245      2247
      2244      2242      2245      2248      2245      2248      2251      2252
      2245      2248      2251      2253      2245      2248      2251      2254
      2246      2245      2248      2249      2246      2245      2248      2250
      2246      2245      2248      2251      2247      2245      2248      2249
      2247      2245      2248      2250      2247      2245      2248      2251
      2248      2251      2254      2255      2248      2251      2254      2256
      2248      2251      2254      2257      2249      2248      2251      2252
      2249      2248      2251      2253      2249      2248      2251      2254
      2250      2248      2251      2252      2250      2248      2251      2253
      2250      2248      2251      2254      2251      2254      2257      2258
      2251      2254      2257      2259      2251      2254      2257      2260
      2252      2251      2254      2255      2252      2251      2254      2256
      2252      2251      2254      2257      2253      2251      2254      2255
      2253      2251      2254      2256      2253      2251      2254      2257
      2254      2257      2260      2261      2254      2257      2260      2262
      2254      2257      2260      2263      2255      2254      2257      2258
      2255      2254      2257      2259      2255      2254      2257      2260
      2256      2254      2257      2258      2256      2254      2257      2259
      2256      2254      2257      2260      2257      2260      2263      2264
      2257      2260      2263      2265      2257      2260      2263      2266
      2258      2257      2260      2261      2258      2257      2260      2262
      2258      2257      2260      2263      2259      2257      2260      2261
      2259      2257      2260      2262      2259      2257      2260      2263
      2260      2263      2266      2267      2260      2263      2266      2268
      2260      2263      2266      2269      2261      2260      2263      2264
      2261      2260      2263      2265      2261      2260      2263      2266
      2262      2260      2263      2264      2262      2260      2263      2265
      2262      2260      2263      2266      2263      2266      2269      2270
      2263      2266      2269      2271      2263      2266      2269      2272
      2264      2263      2266      2267      2264      2263      2266      2268
      2264      2263      2266      2269      2265      2263      2266      2267
      2265      2263      2266      2268      2265      2263      2266      2269
      2266      2269      2272      2273      2266      2269      2272      2274
      2266      2269      2272      2275      2267      2266      2269      2270
      2267      2266      2269      2271      2267      2266      2269      2272
      2268      2266      2269      2270      2268      2266      2269      2271
      2268      2266      2269      2272      2269      2272      2275      2276
      2269      2272      2275      2277      2269      2272      2275      2278
      2270      2269      2272      2273      2270      2269      2272      2274
      2270      2269      2272      2275      2271      2269      2272      2273
      2271      2269      2272      2274      2271      2269      2272      2275
      2273      2272      2275      2276      2273      2272      2275      2277
      2273      2272      2275      2278      2274      2272      2275      2276
      2274      2272      2275      2277      2274      2272      2275      2278
      2279      2280      2295      2296      2279      2280      2295      2297
      2279      2280      2295      2301      2280      2279      2283      2284
      2280      2279      2283      2285      2280      2279      2283      2286
      2280      2279      2287      2288      2280      2279      2287      2289
      2280      2279      2287      2290      2280      2279      2291      2292
      2280      2279      2291      2293      2280      2279      2291      2294
      2280      2295      2301      2298      2281      2280      2279      2283
      2281      2280      2279      2287      2281      2280      2279      2291
      2281      2280      2295      2296      2281      2280      2295      2297
      2281      2280      2295      2301      2282      2280      2279      2283
      2282      2280      2279      2287      2282      2280      2279      2291
      2282      2280      2295      2296      2282      2280      2295      2297
      2282      2280      2295      2301      2283      2279      2280      2295
      2283      2279      2287      2288      2283      2279      2287      2289
      2283      2279      2287      2290      2283      2279      2291      2292
      2283      2279      2291      2293      2283      2279      2291      2294
      2284      2283      2279      2287      2284      2283      2279      2291
      2285      2283      2279      2287      2285      2283      2279      2291
      2286      2283      2279      2287      2286      2283      2279      2291
      2287      2279      2280      2295      2287      2279      2291      2292
      2287      2279      2291      2293      2287      2279      2291      2294
      2288      2287      2279      2291      2289      2287      2279      2291
      2290      2287      2279      2291      2291      2279      2280      2295
      2295      2301      2298      2299      2295      2301      2298      2300
      2295      2301      2298      2302      2296      2295      2301      2298
      2297      2295      2301      2298      2298      2302      2303      2304
      2298      2302      2303      2305      2298      2302      2303      2306
      2299      2298      2302      2303      2300      2298      2302      2303
      2301      2298      2302      2303      2302      2303      2306      2307
      2302      2303      2306      2308      2302      2303      2306      2314
      2303      2306      2308      2309      2303      2306      2314      2315
      2303      2306      2314      2316      2303      2306      2314      2317
      2304      2303      2306      2307      2304      2303      2306      2308
      2304      2303      2306      2314      2305      2303      2306      2307
      2305      2303      2306      2308      2305      2303      2306      2314
      2306      2308      2309      2310      2306      2308      2309      2311
      2306      2314      2317      2318      2307      2306      2308      2309
      2307      2306      2314      2315      2307      2306      2314      2316
      2307      2306      2314      2317      2308      2306      2314      2315
      2308      2306      2314      2316      2308      2306      2314      2317
      2308      2309      2311      2312      2308      2309      2311      2313
      2308      2309      2311      2323      2309      2308      2306      2314
      2309      2311      2323      2324      2309      2311      2323      2325
      2309      2311      2323      2326      2310      2309      2311      2312
      2310      2309      2311      2313      2310      2309      2311      2323
      2311      2323      2326      2327      2311      2323      2326      2328
      2311      2323      2326      2329      2312      2311      2323      2324
      2312      2311      2323      2325      2312      2311      2323      2326
      2313      2311      2323      2324      2313      2311      2323      2325
      2313      2311      2323      2326      2314      2317      2318      2319
      2314      2317      2318      2320      2315      2314      2317      2318
      2316      2314      2317      2318      2317      2318      2320      2321
      2317      2318      2320      2322      2317      2318      2320      2370
      2318      2320      2370      2371      2318      2320      2370      2372
      2318      2320      2370      2373      2319      2318      2320      2321
      2319      2318      2320      2322      2319      2318      2320      2370
      2320      2370      2373      2374      2320      2370      2373      2375
      2320      2370      2373      2376      2321      2320      2370      2371
      2321      2320      2370      2372      2321      2320      2370      2373
      2322      2320      2370      2371      2322      2320      2370      2372
      2322      2320      2370      2373      2323      2326      2329      2330
      2323      2326      2329      2331      2323      2326      2329      2332
      2324      2323      2326      2327      2324      2323      2326      2328
      2324      2323      2326      2329      2325      2323      2326      2327
      2325      2323      2326      2328      2325      2323      2326      2329
      2326      2329      2332      2333      2326      2329      2332      2334
      2326      2329      2332      2335      2327      2326      2329      2330
      2327      2326      2329      2331      2327      2326      2329      2332
      2328      2326      2329      2330      2328      2326      2329      2331
      2328      2326      2329      2332      2329      2332      2335      2336
      2329      2332      2335      2337      2329      2332      2335      2338
      2330      2329      2332      2333      2330      2329      2332      2334
      2330      2329      2332      2335      2331      2329      2332      2333
      2331      2329      2332      2334      2331      2329      2332      2335
      2332      2335      2338      2339      2332      2335      2338      2340
      2332      2335      2338      2341      2333      2332      2335      2336
      2333      2332      2335      2337      2333      2332      2335      2338
      2334      2332      2335      2336      2334      2332      2335      2337
      2334      2332      2335      2338      2335      2338      2341      2342
      2335      2338      2341      2343      2336      2335      2338      2339
      2336      2335      2338      2340      2336      2335      2338      2341
      2337      2335      2338      2339      2337      2335      2338      2340
      2337      2335      2338      2341      2338      2341      2343      2344
      2338      2341      2343      2345      2339      2338      2341      2342
      2339      2338      2341      2343      2340      2338      2341      2342
      2340      2338      2341      2343      2341      2343      2345      2346
      2341      2343      2345      2347      2341      2343      2345      2348
      2342      2341      2343      2344      2342      2341      2343      2345
      2343      2345      2348      2349      2343      2345      2348      2350
      2343      2345      2348      2351      2344      2343      2345      2346
      2344      2343      2345      2347      2344      2343      2345      2348
      2345      2348      2351      2352      2345      2348      2351      2353
      2345      2348      2351      2354      2346      2345      2348      2349
      2346      2345      2348      2350      2346      2345      2348      2351
      2347      2345      2348      2349      2347      2345      2348      2350
      2347      2345      2348      2351      2348      2351      2354      2355
      2348      2351      2354      2356      2348      2351      2354      2357
      2349      2348      2351      2352      2349      2348      2351      2353
      2349      2348      2351      2354      2350      2348      2351      2352
      2350      2348      2351      2353      2350      2348      2351      2354
      2351      2354      2357      2358      2351      2354      2357      2359
      2351      2354      2357      2360      2352      2351      2354      2355
      2352      2351      2354      2356      2352      2351      2354      2357
      2353      2351      2354      2355      2353      2351      2354      2356
      2353      2351      2354      2357      2354      2357      2360      2361
      2354      2357      2360      2362      2354      2357      2360      2363
      2355      2354      2357      2358      2355      2354      2357      2359
      2355      2354      2357      2360      2356      2354      2357      2358
      2356      2354      2357      2359      2356      2354      2357      2360
      2357      2360      2363      2364      2357      2360      2363      2365
      2357      2360      2363      2366      2358      2357      2360      2361
      2358      2357      2360      2362      2358      2357      2360      2363
      2359      2357      2360      2361      2359      2357      2360      2362
      2359      2357      2360      2363      2360      2363      2366      2367
      2360      2363      2366      2368      2360      2363      2366      2369
      2361      2360      2363      2364      2361      2360      2363      2365
      2361      2360      2363      2366      2362      2360      2363      2364
      2362      2360      2363      2365      2362      2360      2363      2366
      2364      2363      2366      2367      2364      2363      2366      2368
      2364      2363      2366      2369      2365      2363      2366      2367
      2365      2363      2366      2368      2365      2363      2366      2369
      2370      2373      2376      2377      2370      2373      2376      2378
      2370      2373      2376      2379      2371      2370      2373      2374
      2371      2370      2373      2375      2371      2370      2373      2376
      2372      2370      2373      2374      2372      2370      2373      2375
      2372      2370      2373      2376      2373      2376      2379      2380
      2373      2376      2379      2381      2373      2376      2379      2382
      2374      2373      2376      2377      2374      2373      2376      2378
      2374      2373      2376      2379      2375      2373      2376      2377
      2375      2373      2376      2378      2375      2373      2376      2379
      2376      2379      2382      2383      2376      2379      2382      2384
      2376      2379      2382      2385      2377      2376      2379      2380
      2377      2376      2379      2381      2377      2376      2379      2382
      2378      2376      2379      2380      2378      2376      2379      2381
      2378      2376      2379      2382      2379      2382      2385      2386
      2379      2382      2385      2387      2379      2382      2385      2388
      2380      2379      2382      2383      2380      2379      2382      2384
      2380      2379      2382      2385      2381      2379      2382      2383
      2381      2379      2382      2384      2381      2379      2382      2385
      2382      2385      2388      2389      2382      2385      2388      2390
      2382      2385      2388      2391      2383      2382      2385      2386
      2383      2382      2385      2387      2383      2382      2385      2388
      2384      2382      2385      2386      2384      2382      2385      2387
      2384      2382      2385      2388      2385      2388      2391      2392
      2385      2388      2391      2393      2385      2388      2391      2394
      2386      2385      2388      2389      2386      2385      2388      2390
      2386      2385      2388      2391      2387      2385      2388      2389
      2387      2385      2388      2390      2387      2385      2388      2391
      2388      2391      2394      2395      2388      2391      2394      2396
      2388      2391      2394      2397      2389      2388      2391      2392
      2389      2388      2391      2393      2389      2388      2391      2394
      2390      2388      2391      2392      2390      2388      2391      2393
      2390      2388      2391      2394      2391      2394      2397      2398
      2391      2394      2397      2399      2391      2394      2397      2400
      2392      2391      2394      2395      2392      2391      2394      2396
      2392      2391      2394      2397      2393      2391      2394      2395
      2393      2391      2394      2396      2393      2391      2394      2397
      2394      2397      2400      2401      2394      2397      2400      2402
      2394      2397      2400      2403      2395      2394      2397      2398
      2395      2394      2397      2399      2395      2394      2397      2400
      2396      2394      2397      2398      2396      2394      2397      2399
      2396      2394      2397      2400      2397      2400      2403      2404
      2397      2400      2403      2405      2397      2400      2403      2406
      2398      2397      2400      2401      2398      2397      2400      2402
      2398      2397      2400      2403      2399      2397      2400      2401
      2399      2397      2400      2402      2399      2397      2400      2403
      2400      2403      2406      2407      2400      2403      2406      2408
      2400      2403      2406      2409      2401      2400      2403      2404
      2401      2400      2403      2405      2401      2400      2403      2406
      2402      2400      2403      2404      2402      2400      2403      2405
      2402      2400      2403      2406      2403      2406      2409      2410
      2403      2406      2409      2411      2403      2406      2409      2412
      2404      2403      2406      2407      2404      2403      2406      2408
      2404      2403      2406      2409      2405      2403      2406      2407
      2405      2403      2406      2408      2405      2403      2406      2409
      2407      2406      2409      2410      2407      2406      2409      2411
      2407      2406      2409      2412      2408      2406      2409      2410
      2408      2406      2409      2411      2408      2406      2409      2412
      2413      2414      2429      2430      2413      2414      2429      2431
      2413      2414      2429      2435      2414      2413      2417      2418
      2414      2413      2417      2419      2414      2413      2417      2420
      2414      2413      2421      2422      2414      2413      2421      2423
      2414      2413      2421      2424      2414      2413      2425      2426
      2414      2413      2425      2427      2414      2413      2425      2428
      2414      2429      2435      2432      2415      2414      2413      2417
      2415      2414      2413      2421      2415      2414      2413      2425
      2415      2414      2429      2430      2415      2414      2429      2431
      2415      2414      2429      2435      2416      2414      2413      2417
      2416      2414      2413      2421      2416      2414      2413      2425
      2416      2414      2429      2430      2416      2414      2429      2431
      2416      2414      2429      2435      2417      2413      2414      2429
      2417      2413      2421      2422      2417      2413      2421      2423
      2417      2413      2421      2424      2417      2413      2425      2426
      2417      2413      2425      2427      2417      2413      2425      2428
      2418      2417      2413      2421      2418      2417      2413      2425
      2419      2417      2413      2421      2419      2417      2413      2425
      2420      2417      2413      2421      2420      2417      2413      2425
      2421      2413      2414      2429      2421      2413      2425      2426
      2421      2413      2425      2427      2421      2413      2425      2428
      2422      2421      2413      2425      2423      2421      2413      2425
      2424      2421      2413      2425      2425      2413      2414      2429
      2429      2435      2432      2433      2429      2435      2432      2434
      2429      2435      2432      2436      2430      2429      2435      2432
      2431      2429      2435      2432      2432      2436      2437      2438
      2432      2436      2437      2439      2432      2436      2437      2440
      2433      2432      2436      2437      2434      2432      2436      2437
      2435      2432      2436      2437      2436      2437      2440      2441
      2436      2437      2440      2442      2436      2437      2440      2448
      2437      2440      2442      2443      2437      2440      2448      2449
      2437      2440      2448      2450      2437      2440      2448      2451
      2438      2437      2440      2441      2438      2437      2440      2442
      2438      2437      2440      2448      2439      2437      2440      2441
      2439      2437      2440      2442      2439      2437      2440      2448
      2440      2442      2443      2444      2440      2442      2443      2445
      2440      2448      2451      2452      2441      2440      2442      2443
      2441      2440      2448      2449      2441      2440      2448      2450
      2441      2440      2448      2451      2442      2440      2448      2449
      2442      2440      2448      2450      2442      2440      2448      2451
      2442      2443      2445      2446      2442      2443      2445      2447
      2442      2443      2445      2457      2443      2442      2440      2448
      2443      2445      2457      2458      2443      2445      2457      2459
      2443      2445      2457      2460      2444      2443      2445      2446
      2444      2443      2445      2447      2444      2443      2445      2457
      2445      2457      2460      2461      2445      2457      2460      2462
      2445      2457      2460      2463      2446      2445      2457      2458
      2446      2445      2457      2459      2446      2445      2457      2460
      2447      2445      2457      2458      2447      2445      2457      2459
      2447      2445      2457      2460      2448      2451      2452      2453
      2448      2451      2452      2454      2449      2448      2451      2452
      2450      2448      2451      2452      2451      2452      2454      2455
      2451      2452      2454      2456      2451      2452      2454      2504
      2452      2454      2504      2505      2452      2454      2504      2506
      2452      2454      2504      2507      2453      2452      2454      2455
      2453      2452      2454      2456      2453      2452      2454      2504
      2454      2504      2507      2508      2454      2504      2507      2509
      2454      2504      2507      2510      2455      2454      2504      2505
      2455      2454      2504      2506      2455      2454      2504      2507
      2456      2454      2504      2505      2456      2454      2504      2506
      2456      2454      2504      2507      2457      2460      2463      2464
      2457      2460      2463      2465      2457      2460      2463      2466
      2458      2457      2460      2461      2458      2457      2460      2462
      2458      2457      2460      2463      2459      2457      2460      2461
      2459      2457      2460      2462      2459      2457      2460      2463
      2460      2463      2466      2467      2460      2463      2466      2468
      2460      2463      2466      2469      2461      2460      2463      2464
      2461      2460      2463      2465      2461      2460      2463      2466
      2462      2460      2463      2464      2462      2460      2463      2465
      2462      2460      2463      2466      2463      2466      2469      2470
      2463      2466      2469      2471      2463      2466      2469      2472
      2464      2463      2466      2467      2464      2463      2466      2468
      2464      2463      2466      2469      2465      2463      2466      2467
      2465      2463      2466      2468      2465      2463      2466      2469
      2466      2469      2472      2473      2466      2469      2472      2474
      2466      2469      2472      2475      2467      2466      2469      2470
      2467      2466      2469      2471      2467      2466      2469      2472
      2468      2466      2469      2470      2468      2466      2469      2471
      2468      2466      2469      2472      2469      2472      2475      2476
      2469      2472      2475      2477      2470      2469      2472      2473
      2470      2469      2472      2474      2470      2469      2472      2475
      2471      2469      2472      2473      2471      2469      2472      2474
      2471      2469      2472      2475      2472      2475      2477      2478
      2472      2475      2477      2479      2473      2472      2475      2476
      2473      2472      2475      2477      2474      2472      2475      2476
      2474      2472      2475      2477      2475      2477      2479      2480
      2475      2477      2479      2481      2475      2477      2479      2482
      2476      2475      2477      2478      2476      2475      2477      2479
      2477      2479      2482      2483      2477      2479      2482      2484
      2477      2479      2482      2485      2478      2477      2479      2480
      2478      2477      2479      2481      2478      2477      2479      2482
      2479      2482      2485      2486      2479      2482      2485      2487
      2479      2482      2485      2488      2480      2479      2482      2483
      2480      2479      2482      2484      2480      2479      2482      2485
      2481      2479      2482      2483      2481      2479      2482      2484
      2481      2479      2482      2485      2482      2485      2488      2489
      2482      2485      2488      2490      2482      2485      2488      2491
      2483      2482      2485      2486      2483      2482      2485      2487
      2483      2482      2485      2488      2484      2482      2485      2486
      2484      2482      2485      2487      2484      2482      2485      2488
      2485      2488      2491      2492      2485      2488      2491      2493
      2485      2488      2491      2494      2486      2485      2488      2489
      2486      2485      2488      2490      2486      2485      2488      2491
      2487      2485      2488      2489      2487      2485      2488      2490
      2487      2485      2488      2491      2488      2491      2494      2495
      2488      2491      2494      2496      2488      2491      2494      2497
      2489      2488      2491      2492      2489      2488      2491      2493
      2489      2488      2491      2494      2490      2488      2491      2492
      2490      2488      2491      2493      2490      2488      2491      2494
      2491      2494      2497      2498      2491      2494      2497      2499
      2491      2494      2497      2500      2492      2491      2494      2495
      2492      2491      2494      2496      2492      2491      2494      2497
      2493      2491      2494      2495      2493      2491      2494      2496
      2493      2491      2494      2497      2494      2497      2500      2501
      2494      2497      2500      2502      2494      2497      2500      2503
      2495      2494      2497      2498      2495      2494      2497      2499
      2495      2494      2497      2500      2496      2494      2497      2498
      2496      2494      2497      2499      2496      2494      2497      2500
      2498      2497      2500      2501      2498      2497      2500      2502
      2498      2497      2500      2503      2499      2497      2500      2501
      2499      2497      2500      2502      2499      2497      2500      2503
      2504      2507      2510      2511      2504      2507      2510      2512
      2504      2507      2510      2513      2505      2504      2507      2508
      2505      2504      2507      2509      2505      2504      2507      2510
      2506      2504      2507      2508      2506      2504      2507      2509
      2506      2504      2507      2510      2507      2510      2513      2514
      2507      2510      2513      2515      2507      2510      2513      2516
      2508      2507      2510      2511      2508      2507      2510      2512
      2508      2507      2510      2513      2509      2507      2510      2511
      2509      2507      2510      2512      2509      2507      2510      2513
      2510      2513      2516      2517      2510      2513      2516      2518
      2510      2513      2516      2519      2511      2510      2513      2514
      2511      2510      2513      2515      2511      2510      2513      2516
      2512      2510      2513      2514      2512      2510      2513      2515
      2512      2510      2513      2516      2513      2516      2519      2520
      2513      2516      2519      2521      2513      2516      2519      2522
      2514      2513      2516      2517      2514      2513      2516      2518
      2514      2513      2516      2519      2515      2513      2516      2517
      2515      2513      2516      2518      2515      2513      2516      2519
      2516      2519      2522      2523      2516      2519      2522      2524
      2516      2519      2522      2525      2517      2516      2519      2520
      2517      2516      2519      2521      2517      2516      2519      2522
      2518      2516      2519      2520      2518      2516      2519      2521
      2518      2516      2519      2522      2519      2522      2525      2526
      2519      2522      2525      2527      2519      2522      2525      2528
      2520      2519      2522      2523      2520      2519      2522      2524
      2520      2519      2522      2525      2521      2519      2522      2523
      2521      2519      2522      2524      2521      2519      2522      2525
      2522      2525      2528      2529      2522      2525      2528      2530
      2522      2525      2528      2531      2523      2522      2525      2526
      2523      2522      2525      2527      2523      2522      2525      2528
      2524      2522      2525      2526      2524      2522      2525      2527
      2524      2522      2525      2528      2525      2528      2531      2532
      2525      2528      2531      2533      2525      2528      2531      2534
      2526      2525      2528      2529      2526      2525      2528      2530
      2526      2525      2528      2531      2527      2525      2528      2529
      2527      2525      2528      2530      2527      2525      2528      2531
      2528      2531      2534      2535      2528      2531      2534      2536
      2528      2531      2534      2537      2529      2528      2531      2532
      2529      2528      2531      2533      2529      2528      2531      2534
      2530      2528      2531      2532      2530      2528      2531      2533
      2530      2528      2531      2534      2531      2534      2537      2538
      2531      2534      2537      2539      2531      2534      2537      2540
      2532      2531      2534      2535      2532      2531      2534      2536
      2532      2531      2534      2537      2533      2531      2534      2535
      2533      2531      2534      2536      2533      2531      2534      2537
      2534      2537      2540      2541      2534      2537      2540      2542
      2534      2537      2540      2543      2535      2534      2537      2538
      2535      2534      2537      2539      2535      2534      2537      2540
      2536      2534      2537      2538      2536      2534      2537      2539
      2536      2534      2537      2540      2537      2540      2543      2544
      2537      2540      2543      2545      2537      2540      2543      2546
      2538      2537      2540      2541      2538      2537      2540      2542
      2538      2537      2540      2543      2539      2537      2540      2541
      2539      2537      2540      2542      2539      2537      2540      2543
      2541      2540      2543      2544      2541      2540      2543      2545
      2541      2540      2543      2546      2542      2540      2543      2544
      2542      2540      2543      2545      2542      2540      2543      2546
      2547      2548      2563      2564      2547      2548      2563      2565
      2547      2548      2563      2569      2548      2547      2551      2552
      2548      2547      2551      2553      2548      2547      2551      2554
      2548      2547      2555      2556      2548      2547      2555      2557
      2548      2547      2555      2558      2548      2547      2559      2560
      2548      2547      2559      2561      2548      2547      2559      2562
      2548      2563      2569      2566      2549      2548      2547      2551
      2549      2548      2547      2555      2549      2548      2547      2559
      2549      2548      2563      2564      2549      2548      2563      2565
      2549      2548      2563      2569      2550      2548      2547      2551
      2550      2548      2547      2555      2550      2548      2547      2559
      2550      2548      2563      2564      2550      2548      2563      2565
      2550      2548      2563      2569      2551      2547      2548      2563
      2551      2547      2555      2556      2551      2547      2555      2557
      2551      2547      2555      2558      2551      2547      2559      2560
      2551      2547      2559      2561      2551      2547      2559      2562
      2552      2551      2547      2555      2552      2551      2547      2559
      2553      2551      2547      2555      2553      2551      2547      2559
      2554      2551      2547      2555      2554      2551      2547      2559
      2555      2547      2548      2563      2555      2547      2559      2560
      2555      2547      2559      2561      2555      2547      2559      2562
      2556      2555      2547      2559      2557      2555      2547      2559
      2558      2555      2547      2559      2559      2547      2548      2563
      2563      2569      2566      2567      2563      2569      2566      2568
      2563      2569      2566      2570      2564      2563      2569      2566
      2565      2563      2569      2566      2566      2570      2571      2572
      2566      2570      2571      2573      2566      2570      2571      2574
      2567      2566      2570      2571      2568      2566      2570      2571
      2569      2566      2570      2571      2570      2571      2574      2575
      2570      2571      2574      2576      2570      2571      2574      2582
      2571      2574      2576      2577      2571      2574      2582      2583
      2571      2574      2582      2584      2571      2574      2582      2585
      2572      2571      2574      2575      2572      2571      2574      2576
      2572      2571      2574      2582      2573      2571      2574      2575
      2573      2571      2574      2576      2573      2571      2574      2582
      2574      2576      2577      2578      2574      2576      2577      2579
      2574      2582      2585      2586      2575      2574      2576      2577
      2575      2574      2582      2583      2575      2574      2582      2584
      2575      2574      2582      2585      2576      2574      2582      2583
      2576      2574      2582      2584      2576      2574      2582      2585
      2576      2577      2579      2580      2576      2577      2579      2581
      2576      2577      2579      2591      2577      2576      2574      2582
      2577      2579      2591      2592      2577      2579      2591      2593
      2577      2579      2591      2594      2578      2577      2579      2580
      2578      2577      2579      2581      2578      2577      2579      2591
      2579      2591      2594      2595      2579      2591      2594      2596
      2579      2591      2594      2597      2580      2579      2591      2592
      2580      2579      2591      2593      2580      2579      2591      2594
      2581      2579      2591      2592      2581      2579      2591      2593
      2581      2579      2591      2594      2582      2585      2586      2587
      2582      2585      2586      2588      2583      2582      2585      2586
      2584      2582      2585      2586      2585      2586      2588      2589
      2585      2586      2588      2590      2585      2586      2588      2638
      2586      2588      2638      2639      2586      2588      2638      2640
      2586      2588      2638      2641      2587      2586      2588      2589
      2587      2586      2588      2590      2587      2586      2588      2638
      2588      2638      2641      2642      2588      2638      2641      2643
      2588      2638      2641      2644      2589      2588      2638      2639
      2589      2588      2638      2640      2589      2588      2638      2641
      2590      2588      2638      2639      2590      2588      2638      2640
      2590      2588      2638      2641      2591      2594      2597      2598
      2591      2594      2597      2599      2591      2594      2597      2600
      2592      2591      2594      2595      2592      2591      2594      2596
      2592      2591      2594      2597      2593      2591      2594      2595
      2593      2591      2594      2596      2593      2591      2594      2597
      2594      2597      2600      2601      2594      2597      2600      2602
      2594      2597      2600      2603      2595      2594      2597      2598
      2595      2594      2597      2599      2595      2594      2597      2600
      2596      2594      2597      2598      2596      2594      2597      2599
      2596      2594      2597      2600      2597      2600      2603      2604
      2597      2600      2603      2605      2597      2600      2603      2606
      2598      2597      2600      2601      2598      2597      2600      2602
      2598      2597      2600      2603      2599      2597      2600      2601
      2599      2597      2600      2602      2599      2597      2600      2603
      2600      2603      2606      2607      2600      2603      2606      2608
      2600      2603      2606      2609      2601      2600      2603      2604
      2601      2600      2603      2605      2601      2600      2603      2606
      2602      2600      2603      2604      2602      2600      2603      2605
      2602      2600      2603      2606      2603      2606      2609      2610
      2603      2606      2609      2611      2604      2603      2606      2607
      2604      2603      2606      2608      2604      2603      2606      2609
      2605      2603      2606      2607      2605      2603      2606      2608
      2605      2603      2606      2609      2606      2609      2611      2612
      2606      2609      2611      2613      2607      2606      2609      2610
      2607      2606      2609      2611      2608      2606      2609      2610
      2608      2606      2609      2611      2609      2611      2613      2614
      2609      2611      2613      2615      2609      2611      2613      2616
      2610      2609      2611      2612      2610      2609      2611      2613
      2611      2613      2616      2617      2611      2613      2616      2618
      2611      2613      2616      2619      2612      2611      2613      2614
      2612      2611      2613      2615      2612      2611      2613      2616
      2613      2616      2619      2620      2613      2616      2619      2621
      2613      2616      2619      2622      2614      2613      2616      2617
      2614      2613      2616      2618      2614      2613      2616      2619
      2615      2613      2616      2617      2615      2613      2616      2618
      2615      2613      2616      2619      2616      2619      2622      2623
      2616      2619      2622      2624      2616      2619      2622      2625
      2617      2616      2619      2620      2617      2616      2619      2621
      2617      2616      2619      2622      2618      2616      2619      2620
      2618      2616      2619      2621      2618      2616      2619      2622
      2619      2622      2625      2626      2619      2622      2625      2627
      2619      2622      2625      2628      2620      2619      2622      2623
      2620      2619      2622      2624      2620      2619      2622      2625
      2621      2619      2622      2623      2621      2619      2622      2624
      2621      2619      2622      2625      2622      2625      2628      2629
      2622      2625      2628      2630      2622      2625      2628      2631
      2623      2622      2625      2626      2623      2622      2625      2627
      2623      2622      2625      2628      2624      2622      2625      2626
      2624      2622      2625      2627      2624      2622      2625      2628
      2625      2628      2631      2632      2625      2628      2631      2633
      2625      2628      2631      2634      2626      2625      2628      2629
      2626      2625      2628      2630      2626      2625      2628      2631
      2627      2625      2628      2629      2627      2625      2628      2630
      2627      2625      2628      2631      2628      2631      2634      2635
      2628      2631      2634      2636      2628      2631      2634      2637
      2629      2628      2631      2632      2629      2628      2631      2633
      2629      2628      2631      2634      2630      2628      2631      2632
      2630      2628      2631      2633      2630      2628      2631      2634
      2632      2631      2634      2635      2632      2631      2634      2636
      2632      2631      2634      2637      2633      2631      2634      2635
      2633      2631      2634      2636      2633      2631      2634      2637
      2638      2641      2644      2645      2638      2641      2644      2646
      2638      2641      2644      2647      2639      2638      2641      2642
      2639      2638      2641      2643      2639      2638      2641      2644
      2640      2638      2641      2642      2640      2638      2641      2643
      2640      2638      2641      2644      2641      2644      2647      2648
      2641      2644      2647      2649      2641      2644      2647      2650
      2642      2641      2644      2645      2642      2641      2644      2646
      2642      2641      2644      2647      2643      2641      2644      2645
      2643      2641      2644      2646      2643      2641      2644      2647
      2644      2647      2650      2651      2644      2647      2650      2652
      2644      2647      2650      2653      2645      2644      2647      2648
      2645      2644      2647      2649      2645      2644      2647      2650
      2646      2644      2647      2648      2646      2644      2647      2649
      2646      2644      2647      2650      2647      2650      2653      2654
      2647      2650      2653      2655      2647      2650      2653      2656
      2648      2647      2650      2651      2648      2647      2650      2652
      2648      2647      2650      2653      2649      2647      2650      2651
      2649      2647      2650      2652      2649      2647      2650      2653
      2650      2653      2656      2657      2650      2653      2656      2658
      2650      2653      2656      2659      2651      2650      2653      2654
      2651      2650      2653      2655      2651      2650      2653      2656
      2652      2650      2653      2654      2652      2650      2653      2655
      2652      2650      2653      2656      2653      2656      2659      2660
      2653      2656      2659      2661      2653      2656      2659      2662
      2654      2653      2656      2657      2654      2653      2656      2658
      2654      2653      2656      2659      2655      2653      2656      2657
      2655      2653      2656      2658      2655      2653      2656      2659
      2656      2659      2662      2663      2656      2659      2662      2664
      2656      2659      2662      2665      2657      2656      2659      2660
      2657      2656      2659      2661      2657      2656      2659      2662
      2658      2656      2659      2660      2658      2656      2659      2661
      2658      2656      2659      2662      2659      2662      2665      2666
      2659      2662      2665      2667      2659      2662      2665      2668
      2660      2659      2662      2663      2660      2659      2662      2664
      2660      2659      2662      2665      2661      2659      2662      2663
      2661      2659      2662      2664      2661      2659      2662      2665
      2662      2665      2668      2669      2662      2665      2668      2670
      2662      2665      2668      2671      2663      2662      2665      2666
      2663      2662      2665      2667      2663      2662      2665      2668
      2664      2662      2665      2666      2664      2662      2665      2667
      2664      2662      2665      2668      2665      2668      2671      2672
      2665      2668      2671      2673      2665      2668      2671      2674
      2666      2665      2668      2669      2666      2665      2668      2670
      2666      2665      2668      2671      2667      2665      2668      2669
      2667      2665      2668      2670      2667      2665      2668      2671
      2668      2671      2674      2675      2668      2671      2674      2676
      2668      2671      2674      2677      2669      2668      2671      2672
      2669      2668      2671      2673      2669      2668      2671      2674
      2670      2668      2671      2672      2670      2668      2671      2673
      2670      2668      2671      2674      2671      2674      2677      2678
      2671      2674      2677      2679      2671      2674      2677      2680
      2672      2671      2674      2675      2672      2671      2674      2676
      2672      2671      2674      2677      2673      2671      2674      2675
      2673      2671      2674      2676      2673      2671      2674      2677
      2675      2674      2677      2678      2675      2674      2677      2679
      2675      2674      2677      2680      2676      2674      2677      2678
      2676      2674      2677      2679      2676      2674      2677      2680
      2681      2682      2697      2698      2681      2682      2697      2699
      2681      2682      2697      2703      2682      2681      2685      2686
      2682      2681      2685      2687      2682      2681      2685      2688
      2682      2681      2689      2690      2682      2681      2689      2691
      2682      2681      2689      2692      2682      2681      2693      2694
      2682      2681      2693      2695      2682      2681      2693      2696
      2682      2697      2703      2700      2683      2682      2681      2685
      2683      2682      2681      2689      2683      2682      2681      2693
      2683      2682      2697      2698      2683      2682      2697      2699
      2683      2682      2697      2703      2684      2682      2681      2685
      2684      2682      2681      2689      2684      2682      2681      2693
      2684      2682      2697      2698      2684      2682      2697      2699
      2684      2682      2697      2703      2685      2681      2682      2697
      2685      2681      2689      2690      2685      2681      2689      2691
      2685      2681      2689      2692      2685      2681      2693      2694
      2685      2681      2693      2695      2685      2681      2693      2696
      2686      2685      2681      2689      2686      2685      2681      2693
      2687      2685      2681      2689      2687      2685      2681      2693
      2688      2685      2681      2689      2688      2685      2681      2693
      2689      2681      2682      2697      2689      2681      2693      2694
      2689      2681      2693      2695      2689      2681      2693      2696
      2690      2689      2681      2693      2691      2689      2681      2693
      2692      2689      2681      2693      2693      2681      2682      2697
      2697      2703      2700      2701      2697      2703      2700      2702
      2697      2703      2700      2704      2698      2697      2703      2700
      2699      2697      2703      2700      2700      2704      2705      2706
      2700      2704      2705      2707      2700      2704      2705      2708
      2701      2700      2704      2705      2702      2700      2704      2705
      2703      2700      2704      2705      2704      2705      2708      2709
      2704      2705      2708      2710      2704      2705      2708      2716
      2705      2708      2710      2711      2705      2708      2716      2717
      2705      2708      2716      2718      2705      2708      2716      2719
      2706      2705      2708      2709      2706      2705      2708      2710
      2706      2705      2708      2716      2707      2705      2708      2709
      2707      2705      2708      2710      2707      2705      2708      2716
      2708      2710      2711      2712      2708      2710      2711      2713
      2708      2716      2719      2720      2709      2708      2710      2711
      2709      2708      2716      2717      2709      2708      2716      2718
      2709      2708      2716      2719      2710      2708      2716      2717
      2710      2708      2716      2718      2710      2708      2716      2719
      2710      2711      2713      2714      2710      2711      2713      2715
      2710      2711      2713      2725      2711      2710      2708      2716
      2711      2713      2725      2726      2711      2713      2725      2727
      2711      2713      2725      2728      2712      2711      2713      2714
      2712      2711      2713      2715      2712      2711      2713      2725
      2713      2725      2728      2729      2713      2725      2728      2730
      2713      2725      2728      2731      2714      2713      2725      2726
      2714      2713      2725      2727      2714      2713      2725      2728
      2715      2713      2725      2726      2715      2713      2725      2727
      2715      2713      2725      2728      2716      2719      2720      2721
      2716      2719      2720      2722      2717      2716      2719      2720
      2718      2716      2719      2720      2719      2720      2722      2723
      2719      2720      2722      2724      2719      2720      2722      2772
      2720      2722      2772      2773      2720      2722      2772      2774
      2720      2722      2772      2775      2721      2720      2722      2723
      2721      2720      2722      2724      2721      2720      2722      2772
      2722      2772      2775      2776      2722      2772      2775      2777
      2722      2772      2775      2778      2723      2722      2772      2773
      2723      2722      2772      2774      2723      2722      2772      2775
      2724      2722      2772      2773      2724      2722      2772      2774
      2724      2722      2772      2775      2725      2728      2731      2732
      2725      2728      2731      2733      2725      2728      2731      2734
      2726      2725      2728      2729      2726      2725      2728      2730
      2726      2725      2728      2731      2727      2725      2728      2729
      2727      2725      2728      2730      2727      2725      2728      2731
      2728      2731      2734      2735      2728      2731      2734      2736
      2728      2731      2734      2737      2729      2728      2731      2732
      2729      2728      2731      2733      2729      2728      2731      2734
      2730      2728      2731      2732      2730      2728      2731      2733
      2730      2728      2731      2734      2731      2734      2737      2738
      2731      2734      2737      2739      2731      2734      2737      2740
      2732      2731      2734      2735      2732      2731      2734      2736
      2732      2731      2734      2737      2733      2731      2734      2735
      2733      2731      2734      2736      2733      2731      2734      2737
      2734      2737      2740      2741      2734      2737      2740      2742
      2734      2737      2740      2743      2735      2734      2737      2738
      2735      2734      2737      2739      2735      2734      2737      2740
      2736      2734      2737      2738      2736      2734      2737      2739
      2736      2734      2737      2740      2737      2740      2743      2744
      2737      2740      2743      2745      2738      2737      2740      2741
      2738      2737      2740      2742      2738      2737      2740      2743
      2739      2737      2740      2741      2739      2737      2740      2742
      2739      2737      2740      2743      2740      2743      2745      2746
      2740      2743      2745      2747      2741      2740      2743      2744
      2741      2740      2743      2745      2742      2740      2743      2744
      2742      2740      2743      2745      2743      2745      2747      2748
      2743      2745      2747      2749      2743      2745      2747      2750
      2744      2743      2745      2746      2744      2743      2745      2747
      2745      2747      2750      2751      2745      2747      2750      2752
      2745      2747      2750      2753      2746      2745      2747      2748
      2746      2745      2747      2749      2746      2745      2747      2750
      2747      2750      2753      2754      2747      2750      2753      2755
      2747      2750      2753      2756      2748      2747      2750      2751
      2748      2747      2750      2752      2748      2747      2750      2753
      2749      2747      2750      2751      2749      2747      2750      2752
      2749      2747      2750      2753      2750      2753      2756      2757
      2750      2753      2756      2758      2750      2753      2756      2759
      2751      2750      2753      2754      2751      2750      2753      2755
      2751      2750      2753      2756      2752      2750      2753      2754
      2752      2750      2753      2755      2752      2750      2753      2756
      2753      2756      2759      2760      2753      2756      2759      2761
      2753      2756      2759      2762      2754      2753      2756      2757
      2754      2753      2756      2758      2754      2753      2756      2759
      2755      2753      2756      2757      2755      2753      2756      2758
      2755      2753      2756      2759      2756      2759      2762      2763
      2756      2759      2762      2764      2756      2759      2762      2765
      2757      2756      2759      2760      2757      2756      2759      2761
      2757      2756      2759      2762      2758      2756      2759      2760
      2758      2756      2759      2761      2758      2756      2759      2762
      2759      2762      2765      2766      2759      2762      2765      2767
      2759      2762      2765      2768      2760      2759      2762      2763
      2760      2759      2762      2764      2760      2759      2762      2765
      2761      2759      2762      2763      2761      2759      2762      2764
      2761      2759      2762      2765      2762      2765      2768      2769
      2762      2765      2768      2770      2762      2765      2768      2771
      2763      2762      2765      2766      2763      2762      2765      2767
      2763      2762      2765      2768      2764      2762      2765      2766
      2764      2762      2765      2767      2764      2762      2765      2768
      2766      2765      2768      2769      2766      2765      2768      2770
      2766      2765      2768      2771      2767      2765      2768      2769
      2767      2765      2768      2770      2767      2765      2768      2771
      2772      2775      2778      2779      2772      2775      2778      2780
      2772      2775      2778      2781      2773      2772      2775      2776
      2773      2772      2775      2777      2773      2772      2775      2778
      2774      2772      2775      2776      2774      2772      2775      2777
      2774      2772      2775      2778      2775      2778      2781      2782
      2775      2778      2781      2783      2775      2778      2781      2784
      2776      2775      2778      2779      2776      2775      2778      2780
      2776      2775      2778      2781      2777      2775      2778      2779
      2777      2775      2778      2780      2777      2775      2778      2781
      2778      2781      2784      2785      2778      2781      2784      2786
      2778      2781      2784      2787      2779      2778      2781      2782
      2779      2778      2781      2783      2779      2778      2781      2784
      2780      2778      2781      2782      2780      2778      2781      2783
      2780      2778      2781      2784      2781      2784      2787      2788
      2781      2784      2787      2789      2781      2784      2787      2790
      2782      2781      2784      2785      2782      2781      2784      2786
      2782      2781      2784      2787      2783      2781      2784      2785
      2783      2781      2784      2786      2783      2781      2784      2787
      2784      2787      2790      2791      2784      2787      2790      2792
      2784      2787      2790      2793      2785      2784      2787      2788
      2785      2784      2787      2789      2785      2784      2787      2790
      2786      2784      2787      2788      2786      2784      2787      2789
      2786      2784      2787      2790      2787      2790      2793      2794
      2787      2790      2793      2795      2787      2790      2793      2796
      2788      2787      2790      2791      2788      2787      2790      2792
      2788      2787      2790      2793      2789      2787      2790      2791
      2789      2787      2790      2792      2789      2787      2790      2793
      2790      2793      2796      2797      2790      2793      2796      2798
      2790      2793      2796      2799      2791      2790      2793      2794
      2791      2790      2793      2795      2791      2790      2793      2796
      2792      2790      2793      2794      2792      2790      2793      2795
      2792      2790      2793      2796      2793      2796      2799      2800
      2793      2796      2799      2801      2793      2796      2799      2802
      2794      2793      2796      2797      2794      2793      2796      2798
      2794      2793      2796      2799      2795      2793      2796      2797
      2795      2793      2796      2798      2795      2793      2796      2799
      2796      2799      2802      2803      2796      2799      2802      2804
      2796      2799      2802      2805      2797      2796      2799      2800
      2797      2796      2799      2801      2797      2796      2799      2802
      2798      2796      2799      2800      2798      2796      2799      2801
      2798      2796      2799      2802      2799      2802      2805      2806
      2799      2802      2805      2807      2799      2802      2805      2808
      2800      2799      2802      2803      2800      2799      2802      2804
      2800      2799      2802      2805      2801      2799      2802      2803
      2801      2799      2802      2804      2801      2799      2802      2805
      2802      2805      2808      2809      2802      2805      2808      2810
      2802      2805      2808      2811      2803      2802      2805      2806
      2803      2802      2805      2807      2803      2802      2805      2808
      2804      2802      2805      2806      2804      2802      2805      2807
      2804      2802      2805      2808      2805      2808      2811      2812
      2805      2808      2811      2813      2805      2808      2811      2814
      2806      2805      2808      2809      2806      2805      2808      2810
      2806      2805      2808      2811      2807      2805      2808      2809
      2807      2805      2808      2810      2807      2805      2808      2811
      2809      2808      2811      2812      2809      2808      2811      2813
      2809      2808      2811      2814      2810      2808      2811      2812
      2810      2808      2811      2813      2810      2808      2811      2814
      2815      2816      2831      2832      2815      2816      2831      2833
      2815      2816      2831      2837      2816      2815      2819      2820
      2816      2815      2819      2821      2816      2815      2819      2822
      2816      2815      2823      2824      2816      2815      2823      2825
      2816      2815      2823      2826      2816      2815      2827      2828
      2816      2815      2827      2829      2816      2815      2827      2830
      2816      2831      2837      2834      2817      2816      2815      2819
      2817      2816      2815      2823      2817      2816      2815      2827
      2817      2816      2831      2832      2817      2816      2831      2833
      2817      2816      2831      2837      2818      2816      2815      2819
      2818      2816      2815      2823      2818      2816      2815      2827
      2818      2816      2831      2832      2818      2816      2831      2833
      2818      2816      2831      2837      2819      2815      2816      2831
      2819      2815      2823      2824      2819      2815      2823      2825
      2819      2815      2823      2826      2819      2815      2827      2828
      2819      2815      2827      2829      2819      2815      2827      2830
      2820      2819      2815      2823      2820      2819      2815      2827
      2821      2819      2815      2823      2821      2819      2815      2827
      2822      2819      2815      2823      2822      2819      2815      2827
      2823      2815      2816      2831      2823      2815      2827      2828
      2823      2815      2827      2829      2823      2815      2827      2830
      2824      2823      2815      2827      2825      2823      2815      2827
      2826      2823      2815      2827      2827      2815      2816      2831
      2831      2837      2834      2835      2831      2837      2834      2836
      2831      2837      2834      2838      2832      2831      2837      2834
      2833      2831      2837      2834      2834      2838      2839      2840
      2834      2838      2839      2841      2834      2838      2839      2842
      2835      2834      2838      2839      2836      2834      2838      2839
      2837      2834      2838      2839      2838      2839      2842      2843
      2838      2839      2842      2844      2838      2839      2842      2850
      2839      2842      2844      2845      2839      2842      2850      2851
      2839      2842      2850      2852      2839      2842      2850      2853
      2840      2839      2842      2843      2840      2839      2842      2844
      2840      2839      2842      2850      2841      2839      2842      2843
      2841      2839      2842      2844      2841      2839      2842      2850
      2842      2844      2845      2846      2842      2844      2845      2847
      2842      2850      2853      2854      2843      2842      2844      2845
      2843      2842      2850      2851      2843      2842      2850      2852
      2843      2842      2850      2853      2844      2842      2850      2851
      2844      2842      2850      2852      2844      2842      2850      2853
      2844      2845      2847      2848      2844      2845      2847      2849
      2844      2845      2847      2859      2845      2844      2842      2850
      2845      2847      2859      2860      2845      2847      2859      2861
      2845      2847      2859      2862      2846      2845      2847      2848
      2846      2845      2847      2849      2846      2845      2847      2859
      2847      2859      2862      2863      2847      2859      2862      2864
      2847      2859      2862      2865      2848      2847      2859      2860
      2848      2847      2859      2861      2848      2847      2859      2862
      2849      2847      2859      2860      2849      2847      2859      2861
      2849      2847      2859      2862      2850      2853      2854      2855
      2850      2853      2854      2856      2851      2850      2853      2854
      2852      2850      2853      2854      2853      2854      2856      2857
      2853      2854      2856      2858      2853      2854      2856      2906
      2854      2856      2906      2907      2854      2856      2906      2908
      2854      2856      2906      2909      2855      2854      2856      2857
      2855      2854      2856      2858      2855      2854      2856      2906
      2856      2906      2909      2910      2856      2906      2909      2911
      2856      2906      2909      2912      2857      2856      2906      2907
      2857      2856      2906      2908      2857      2856      2906      2909
      2858      2856      2906      2907      2858      2856      2906      2908
      2858      2856      2906      2909      2859      2862      2865      2866
      2859      2862      2865      2867      2859      2862      2865      2868
      2860      2859      2862      2863      2860      2859      2862      2864
      2860      2859      2862      2865      2861      2859      2862      2863
      2861      2859      2862      2864      2861      2859      2862      2865
      2862      2865      2868      2869      2862      2865      2868      2870
      2862      2865      2868      2871      2863      2862      2865      2866
      2863      2862      2865      2867      2863      2862      2865      2868
      2864      2862      2865      2866      2864      2862      2865      2867
      2864      2862      2865      2868      2865      2868      2871      2872
      2865      2868      2871      2873      2865      2868      2871      2874
      2866      2865      2868      2869      2866      2865      2868      2870
      2866      2865      2868      2871      2867      2865      2868      2869
      2867      2865      2868      2870      2867      2865      2868      2871
      2868      2871      2874      2875      2868      2871      2874      2876
      2868      2871      2874      2877      2869      2868      2871      2872
      2869      2868      2871      2873      2869      2868      2871      2874
      2870      2868      2871      2872      2870      2868      2871      2873
      2870      2868      2871      2874      2871      2874      2877      2878
      2871      2874      2877      2879      2872      2871      2874      2875
      2872      2871      2874      2876      2872      2871      2874      2877
      2873      2871      2874      2875      2873      2871      2874      2876
      2873      2871      2874      2877      2874      2877      2879      2880
      2874      2877      2879      2881      2875      2874      2877      2878
      2875      2874      2877      2879      2876      2874      2877      2878
      2876      2874      2877      2879      2877      2879      2881      2882
      2877      2879      2881      2883      2877      2879      2881      2884
      2878      2877      2879      2880      2878      2877      2879      2881
      2879      2881      2884      2885      2879      2881      2884      2886
      2879      2881      2884      2887      2880      2879      2881      2882
      2880      2879      2881      2883      2880      2879      2881      2884
      2881      2884      2887      2888      2881      2884      2887      2889
      2881      2884      2887      2890      2882      2881      2884      2885
      2882      2881      2884      2886      2882      2881      2884      2887
      2883      2881      2884      2885      2883      2881      2884      2886
      2883      2881      2884      2887      2884      2887      2890      2891
      2884      2887      2890      2892      2884      2887      2890      2893
      2885      2884      2887      2888      2885      2884      2887      2889
      2885      2884      2887      2890      2886      2884      2887      2888
      2886      2884      2887      2889      2886      2884      2887      2890
      2887      2890      2893      2894      2887      2890      2893      2895
      2887      2890      2893      2896      2888      2887      2890      2891
      2888      2887      2890      2892      2888      2887      2890      2893
      2889      2887      2890      2891      2889      2887      2890      2892
      2889      2887      2890      2893      2890      2893      2896      2897
      2890      2893      2896      2898      2890      2893      2896      2899
      2891      2890      2893      2894      2891      2890      2893      2895
      2891      2890      2893      2896      2892      2890      2893      2894
      2892      2890      2893      2895      2892      2890      2893      2896
      2893      2896      2899      2900      2893      2896      2899      2901
      2893      2896      2899      2902      2894      2893      2896      2897
      2894      2893      2896      2898      2894      2893      2896      2899
      2895      2893      2896      2897      2895      2893      2896      2898
      2895      2893      2896      2899      2896      2899      2902      2903
      2896      2899      2902      2904      2896      2899      2902      2905
      2897      2896      2899      2900      2897      2896      2899      2901
      2897      2896      2899      2902      2898      2896      2899      2900
      2898      2896      2899      2901      2898      2896      2899      2902
      2900      2899      2902      2903      2900      2899      2902      2904
      2900      2899      2902      2905      2901      2899      2902      2903
      2901      2899      2902      2904      2901      2899      2902      2905
      2906      2909      2912      2913      2906      2909      2912      2914
      2906      2909      2912      2915      2907      2906      2909      2910
      2907      2906      2909      2911      2907      2906      2909      2912
      2908      2906      2909      2910      2908      2906      2909      2911
      2908      2906      2909      2912      2909      2912      2915      2916
      2909      2912      2915      2917      2909      2912      2915      2918
      2910      2909      2912      2913      2910      2909      2912      2914
      2910      2909      2912      2915      2911      2909      2912      2913
      2911      2909      2912      2914      2911      2909      2912      2915
      2912      2915      2918      2919      2912      2915      2918      2920
      2912      2915      2918      2921      2913      2912      2915      2916
      2913      2912      2915      2917      2913      2912      2915      2918
      2914      2912      2915      2916      2914      2912      2915      2917
      2914      2912      2915      2918      2915      2918      2921      2922
      2915      2918      2921      2923      2915      2918      2921      2924
      2916      2915      2918      2919      2916      2915      2918      2920
      2916      2915      2918      2921      2917      2915      2918      2919
      2917      2915      2918      2920      2917      2915      2918      2921
      2918      2921      2924      2925      2918      2921      2924      2926
      2918      2921      2924      2927      2919      2918      2921      2922
      2919      2918      2921      2923      2919      2918      2921      2924
      2920      2918      2921      2922      2920      2918      2921      2923
      2920      2918      2921      2924      2921      2924      2927      2928
      2921      2924      2927      2929      2921      2924      2927      2930
      2922      2921      2924      2925      2922      2921      2924      2926
      2922      2921      2924      2927      2923      2921      2924      2925
      2923      2921      2924      2926      2923      2921      2924      2927
      2924      2927      2930      2931      2924      2927      2930      2932
      2924      2927      2930      2933      2925      2924      2927      2928
      2925      2924      2927      2929      2925      2924      2927      2930
      2926      2924      2927      2928      2926      2924      2927      2929
      2926      2924      2927      2930      2927      2930      2933      2934
      2927      2930      2933      2935      2927      2930      2933      2936
      2928      2927      2930      2931      2928      2927      2930      2932
      2928      2927      2930      2933      2929      2927      2930      2931
      2929      2927      2930      2932      2929      2927      2930      2933
      2930      2933      2936      2937      2930      2933      2936      2938
      2930      2933      2936      2939      2931      2930      2933      2934
      2931      2930      2933      2935      2931      2930      2933      2936
      2932      2930      2933      2934      2932      2930      2933      2935
      2932      2930      2933      2936      2933      2936      2939      2940
      2933      2936      2939      2941      2933      2936      2939      2942
      2934      2933      2936      2937      2934      2933      2936      2938
      2934      2933      2936      2939      2935      2933      2936      2937
      2935      2933      2936      2938      2935      2933      2936      2939
      2936      2939      2942      2943      2936      2939      2942      2944
      2936      2939      2942      2945      2937      2936      2939      2940
      2937      2936      2939      2941      2937      2936      2939      2942
      2938      2936      2939      2940      2938      2936      2939      2941
      2938      2936      2939      2942      2939      2942      2945      2946
      2939      2942      2945      2947      2939      2942      2945      2948
      2940      2939      2942      2943      2940      2939      2942      2944
      2940      2939      2942      2945      2941      2939      2942      2943
      2941      2939      2942      2944      2941      2939      2942      2945
      2943      2942      2945      2946      2943      2942      2945      2947
      2943      2942      2945      2948      2944      2942      2945      2946
      2944      2942      2945      2947      2944      2942      2945      2948
      2949      2950      2965      2966      2949      2950      2965      2967
      2949      2950      2965      2971      2950      2949      2953      2954
      2950      2949      2953      2955      2950      2949      2953      2956
      2950      2949      2957      2958      2950      2949      2957      2959
      2950      2949      2957      2960      2950      2949      2961      2962
      2950      2949      2961      2963      2950      2949      2961      2964
      2950      2965      2971      2968      2951      2950      2949      2953
      2951      2950      2949      2957      2951      2950      2949      2961
      2951      2950      2965      2966      2951      2950      2965      2967
      2951      2950      2965      2971      2952      2950      2949      2953
      2952      2950      2949      2957      2952      2950      2949      2961
      2952      2950      2965      2966      2952      2950      2965      2967
      2952      2950      2965      2971      2953      2949      2950      2965
      2953      2949      2957      2958      2953      2949      2957      2959
      2953      2949      2957      2960      2953      2949      2961      2962
      2953      2949      2961      2963      2953      2949      2961      2964
      2954      2953      2949      2957      2954      2953      2949      2961
      2955      2953      2949      2957      2955      2953      2949      2961
      2956      2953      2949      2957      2956      2953      2949      2961
      2957      2949      2950      2965      2957      2949      2961      2962
      2957      2949      2961      2963      2957      2949      2961      2964
      2958      2957      2949      2961      2959      2957      2949      2961
      2960      2957      2949      2961      2961      2949      2950      2965
      2965      2971      2968      2969      2965      2971      2968      2970
      2965      2971      2968      2972      2966      2965      2971      2968
      2967      2965      2971      2968      2968      2972      2973      2974
      2968      2972      2973      2975      2968      2972      2973      2976
      2969      2968      2972      2973      2970      2968      2972      2973
      2971      2968      2972      2973      2972      2973      2976      2977
      2972      2973      2976      2978      2972      2973      2976      2984
      2973      2976      2978      2979      2973      2976      2984      2985
      2973      2976      2984      2986      2973      2976      2984      2987
      2974      2973      2976      2977      2974      2973      2976      2978
      2974      2973      2976      2984      2975      2973      2976      2977
      2975      2973      2976      2978      2975      2973      2976      2984
      2976      2978      2979      2980      2976      2978      2979      2981
      2976      2984      2987      2988      2977      2976      2978      2979
      2977      2976      2984      2985      2977      2976      2984      2986
      2977      2976      2984      2987      2978      2976      2984      2985
      2978      2976      2984      2986      2978      2976      2984      2987
      2978      2979      2981      2982      2978      2979      2981      2983
      2978      2979      2981      2993      2979      2978      2976      2984
      2979      2981      2993      2994      2979      2981      2993      2995
      2979      2981      2993      2996      2980      2979      2981      2982
      2980      2979      2981      2983      2980      2979      2981      2993
      2981      2993      2996      2997      2981      2993      2996      2998
      2981      2993      2996      2999      2982      2981      2993      2994
      2982      2981      2993      2995      2982      2981      2993      2996
      2983      2981      2993      2994      2983      2981      2993      2995
      2983      2981      2993      2996      2984      2987      2988      2989
      2984      2987      2988      2990      2985      2984      2987      2988
      2986      2984      2987      2988      2987      2988      2990      2991
      2987      2988      2990      2992      2987      2988      2990      3040
      2988      2990      3040      3041      2988      2990      3040      3042
      2988      2990      3040      3043      2989      2988      2990      2991
      2989      2988      2990      2992      2989      2988      2990      3040
      2990      3040      3043      3044      2990      3040      3043      3045
      2990      3040      3043      3046      2991      2990      3040      3041
      2991      2990      3040      3042      2991      2990      3040      3043
      2992      2990      3040      3041      2992      2990      3040      3042
      2992      2990      3040      3043      2993      2996      2999      3000
      2993      2996      2999      3001      2993      2996      2999      3002
      2994      2993      2996      2997      2994      2993      2996      2998
      2994      2993      2996      2999      2995      2993      2996      2997
      2995      2993      2996      2998      2995      2993      2996      2999
      2996      2999      3002      3003      2996      2999      3002      3004
      2996      2999      3002      3005      2997      2996      2999      3000
      2997      2996      2999      3001      2997      2996      2999      3002
      2998      2996      2999      3000      2998      2996      2999      3001
      2998      2996      2999      3002      2999      3002      3005      3006
      2999      3002      3005      3007      2999      3002      3005      3008
      3000      2999      3002      3003      3000      2999      3002      3004
      3000      2999      3002      3005      3001      2999      3002      3003
      3001      2999      3002      3004      3001      2999      3002      3005
      3002      3005      3008      3009      3002      3005      3008      3010
      3002      3005      3008      3011      3003      3002      3005      3006
      3003      3002      3005      3007      3003      3002      3005      3008
      3004      3002      3005      3006      3004      3002      3005      3007
      3004      3002      3005      3008      3005      3008      3011      3012
      3005      3008      3011      3013      3006      3005      3008      3009
      3006      3005      3008      3010      3006      3005      3008      3011
      3007      3005      3008      3009      3007      3005      3008      3010
      3007      3005      3008      3011      3008      3011      3013      3014
      3008      3011      3013      3015      3009      3008      3011      3012
      3009      3008      3011      3013      3010      3008      3011      3012
      3010      3008      3011      3013      3011      3013      3015      3016
      3011      3013      3015      3017      3011      3013      3015      3018
      3012      3011      3013      3014      3012      3011      3013      3015
      3013      3015      3018      3019      3013      3015      3018      3020
      3013      3015      3018      3021      3014      3013      3015      3016
      3014      3013      3015      3017      3014      3013      3015      3018
      3015      3018      3021      3022      3015      3018      3021      3023
      3015      3018      3021      3024      3016      3015      3018      3019
      3016      3015      3018      3020      3016      3015      3018      3021
      3017      3015      3018      3019      3017      3015      3018      3020
      3017      3015      3018      3021      3018      3021      3024      3025
      3018      3021      3024      3026      3018      3021      3024      3027
      3019      3018      3021      3022      3019      3018      3021      3023
      3019      3018      3021      3024      3020      3018      3021      3022
      3020      3018      3021      3023      3020      3018      3021      3024
      3021      3024      3027      3028      3021      3024      3027      3029
      3021      3024      3027      3030      3022      3021      3024      3025
      3022      3021      3024      3026      3022      3021      3024      3027
      3023      3021      3024      3025      3023      3021      3024      3026
      3023      3021      3024      3027      3024      3027      3030      3031
      3024      3027      3030      3032      3024      3027      3030      3033
      3025      3024      3027      3028      3025      3024      3027      3029
      3025      3024      3027      3030      3026      3024      3027      3028
      3026      3024      3027      3029      3026      3024      3027      3030
      3027      3030      3033      3034      3027      3030      3033      3035
      3027      3030      3033      3036      3028      3027      3030      3031
      3028      3027      3030      3032      3028      3027      3030      3033
      3029      3027      3030      3031      3029      3027      3030      3032
      3029      3027      3030      3033      3030      3033      3036      3037
      3030      3033      3036      3038      3030      3033      3036      3039
      3031      3030      3033      3034      3031      3030      3033      3035
      3031      3030      3033      3036      3032      3030      3033      3034
      3032      3030      3033      3035      3032      3030      3033      3036
      3034      3033      3036      3037      3034      3033      3036      3038
      3034      3033      3036      3039      3035      3033      3036      3037
      3035      3033      3036      3038      3035      3033      3036      3039
      3040      3043      3046      3047      3040      3043      3046      3048
      3040      3043      3046      3049      3041      3040      3043      3044
      3041      3040      3043      3045      3041      3040      3043      3046
      3042      3040      3043      3044      3042      3040      3043      3045
      3042      3040      3043      3046      3043      3046      3049      3050
      3043      3046      3049      3051      3043      3046      3049      3052
      3044      3043      3046      3047      3044      3043      3046      3048
      3044      3043      3046      3049      3045      3043      3046      3047
      3045      3043      3046      3048      3045      3043      3046      3049
      3046      3049      3052      3053      3046      3049      3052      3054
      3046      3049      3052      3055      3047      3046      3049      3050
      3047      3046      3049      3051      3047      3046      3049      3052
      3048      3046      3049      3050      3048      3046      3049      3051
      3048      3046      3049      3052      3049      3052      3055      3056
      3049      3052      3055      3057      3049      3052      3055      3058
      3050      3049      3052      3053      3050      3049      3052      3054
      3050      3049      3052      3055      3051      3049      3052      3053
      3051      3049      3052      3054      3051      3049      3052      3055
      3052      3055      3058      3059      3052      3055      3058      3060
      3052      3055      3058      3061      3053      3052      3055      3056
      3053      3052      3055      3057      3053      3052      3055      3058
      3054      3052      3055      3056      3054      3052      3055      3057
      3054      3052      3055      3058      3055      3058      3061      3062
      3055      3058      3061      3063      3055      3058      3061      3064
      3056      3055      3058      3059      3056      3055      3058      3060
      3056      3055      3058      3061      3057      3055      3058      3059
      3057      3055      3058      3060      3057      3055      3058      3061
      3058      3061      3064      3065      3058      3061      3064      3066
      3058      3061      3064      3067      3059      3058      3061      3062
      3059      3058      3061      3063      3059      3058      3061      3064
      3060      3058      3061      3062      3060      3058      3061      3063
      3060      3058      3061      3064      3061      3064      3067      3068
      3061      3064      3067      3069      3061      3064      3067      3070
      3062      3061      3064      3065      3062      3061      3064      3066
      3062      3061      3064      3067      3063      3061      3064      3065
      3063      3061      3064      3066      3063      3061      3064      3067
      3064      3067      3070      3071      3064      3067      3070      3072
      3064      3067      3070      3073      3065      3064      3067      3068
      3065      3064      3067      3069      3065      3064      3067      3070
      3066      3064      3067      3068      3066      3064      3067      3069
      3066      3064      3067      3070      3067      3070      3073      3074
      3067      3070      3073      3075      3067      3070      3073      3076
      3068      3067      3070      3071      3068      3067      3070      3072
      3068      3067      3070      3073      3069      3067      3070      3071
      3069      3067      3070      3072      3069      3067      3070      3073
      3070      3073      3076      3077      3070      3073      3076      3078
      3070      3073      3076      3079      3071      3070      3073      3074
      3071      3070      3073      3075      3071      3070      3073      3076
      3072      3070      3073      3074      3072      3070      3073      3075
      3072      3070      3073      3076      3073      3076      3079      3080
      3073      3076      3079      3081      3073      3076      3079      3082
      3074      3073      3076      3077      3074      3073      3076      3078
      3074      3073      3076      3079      3075      3073      3076      3077
      3075      3073      3076      3078      3075      3073      3076      3079
      3077      3076      3079      3080      3077      3076      3079      3081
      3077      3076      3079      3082      3078      3076      3079      3080
      3078      3076      3079      3081      3078      3076      3079      3082
      3083      3084      3099      3100      3083      3084      3099      3101
      3083      3084      3099      3105      3084      3083      3087      3088
      3084      3083      3087      3089      3084      3083      3087      3090
      3084      3083      3091      3092      3084      3083      3091      3093
      3084      3083      3091      3094      3084      3083      3095      3096
      3084      3083      3095      3097      3084      3083      3095      3098
      3084      3099      3105      3102      3085      3084      3083      3087
      3085      3084      3083      3091      3085      3084      3083      3095
      3085      3084      3099      3100      3085      3084      3099      3101
      3085      3084      3099      3105      3086      3084      3083      3087
      3086      3084      3083      3091      3086      3084      3083      3095
      3086      3084      3099      3100      3086      3084      3099      3101
      3086      3084      3099      3105      3087      3083      3084      3099
      3087      3083      3091      3092      3087      3083      3091      3093
      3087      3083      3091      3094      3087      3083      3095      3096
      3087      3083      3095      3097      3087      3083      3095      3098
      3088      3087      3083      3091      3088      3087      3083      3095
      3089      3087      3083      3091      3089      3087      3083      3095
      3090      3087      3083      3091      3090      3087      3083      3095
      3091      3083      3084      3099      3091      3083      3095      3096
      3091      3083      3095      3097      3091      3083      3095      3098
      3092      3091      3083      3095      3093      3091      3083      3095
      3094      3091      3083      3095      3095      3083      3084      3099
      3099      3105      3102      3103      3099      3105      3102      3104
      3099      3105      3102      3106      3100      3099      3105      3102
      3101      3099      3105      3102      3102      3106      3107      3108
      3102      3106      3107      3109      3102      3106      3107      3110
      3103      3102      3106      3107      3104      3102      3106      3107
      3105      3102      3106      3107      3106      3107      3110      3111
      3106      3107      3110      3112      3106      3107      3110      3118
      3107      3110      3112      3113      3107      3110      3118      3119
      3107      3110      3118      3120      3107      3110      3118      3121
      3108      3107      3110      3111      3108      3107      3110      3112
      3108      3107      3110      3118      3109      3107      3110      3111
      3109      3107      3110      3112      3109      3107      3110      3118
      3110      3112      3113      3114      3110      3112      3113      3115
      3110      3118      3121      3122      3111      3110      3112      3113
      3111      3110      3118      3119      3111      3110      3118      3120
      3111      3110      3118      3121      3112      3110      3118      3119
      3112      3110      3118      3120      3112      3110      3118      3121
      3112      3113      3115      3116      3112      3113      3115      3117
      3112      3113      3115      3127      3113      3112      3110      3118
      3113      3115      3127      3128      3113      3115      3127      3129
      3113      3115      3127      3130      3114      3113      3115      3116
      3114      3113      3115      3117      3114      3113      3115      3127
      3115      3127      3130      3131      3115      3127      3130      3132
      3115      3127      3130      3133      3116      3115      3127      3128
      3116      3115      3127      3129      3116      3115      3127      3130
      3117      3115      3127      3128      3117      3115      3127      3129
      3117      3115      3127      3130      3118      3121      3122      3123
      3118      3121      3122      3124      3119      3118      3121      3122
      3120      3118      3121      3122      3121      3122      3124      3125
      3121      3122      3124      3126      3121      3122      3124      3174
      3122      3124      3174      3175      3122      3124      3174      3176
      3122      3124      3174      3177      3123      3122      3124      3125
      3123      3122      3124      3126      3123      3122      3124      3174
      3124      3174      3177      3178      3124      3174      3177      3179
      3124      3174      3177      3180      3125      3124      3174      3175
      3125      3124      3174      3176      3125      3124      3174      3177
      3126      3124      3174      3175      3126      3124      3174      3176
      3126      3124      3174      3177      3127      3130      3133      3134
      3127      3130      3133      3135      3127      3130      3133      3136
      3128      3127      3130      3131      3128      3127      3130      3132
      3128      3127      3130      3133      3129      3127      3130      3131
      3129      3127      3130      3132      3129      3127      3130      3133
      3130      3133      3136      3137      3130      3133      3136      3138
      3130      3133      3136      3139      3131      3130      3133      3134
      3131      3130      3133      3135      3131      3130      3133      3136
      3132      3130      3133      3134      3132      3130      3133      3135
      3132      3130      3133      3136      3133      3136      3139      3140
      3133      3136      3139      3141      3133      3136      3139      3142
      3134      3133      3136      3137      3134      3133      3136      3138
      3134      3133      3136      3139      3135      3133      3136      3137
      3135      3133      3136      3138      3135      3133      3136      3139
      3136      3139      3142      3143      3136      3139      3142      3144
      3136      3139      3142      3145      3137      3136      3139      3140
      3137      3136      3139      3141      3137      3136      3139      3142
      3138      3136      3139      3140      3138      3136      3139      3141
      3138      3136      3139      3142      3139      3142      3145      3146
      3139      3142      3145      3147      3140      3139      3142      3143
      3140      3139      3142      3144      3140      3139      3142      3145
      3141      3139      3142      3143      3141      3139      3142      3144
      3141      3139      3142      3145      3142      3145      3147      3148
      3142      3145      3147      3149      3143      3142      3145      3146
      3143      3142      3145      3147      3144      3142      3145      3146
      3144      3142      3145      3147      3145      3147      3149      3150
      3145      3147      3149      3151      3145      3147      3149      3152
      3146      3145      3147      3148      3146      3145      3147      3149
      3147      3149      3152      3153      3147      3149      3152      3154
      3147      3149      3152      3155      3148      3147      3149      3150
      3148      3147      3149      3151      3148      3147      3149      3152
      3149      3152      3155      3156      3149      3152      3155      3157
      3149      3152      3155      3158      3150      3149      3152      3153
      3150      3149      3152      3154      3150      3149      3152      3155
      3151      3149      3152      3153      3151      3149      3152      3154
      3151      3149      3152      3155      3152      3155      3158      3159
      3152      3155      3158      3160      3152      3155      3158      3161
      3153      3152      3155      3156      3153      3152      3155      3157
      3153      3152      3155      3158      3154      3152      3155      3156
      3154      3152      3155      3157      3154      3152      3155      3158
      3155      3158      3161      3162      3155      3158      3161      3163
      3155      3158      3161      3164      3156      3155      3158      3159
      3156      3155      3158      3160      3156      3155      3158      3161
      3157      3155      3158      3159      3157      3155      3158      3160
      3157      3155      3158      3161      3158      3161      3164      3165
      3158      3161      3164      3166      3158      3161      3164      3167
      3159      3158      3161      3162      3159      3158      3161      3163
      3159      3158      3161      3164      3160      3158      3161      3162
      3160      3158      3161      3163      3160      3158      3161      3164
      3161      3164      3167      3168      3161      3164      3167      3169
      3161      3164      3167      3170      3162      3161      3164      3165
      3162      3161      3164      3166      3162      3161      3164      3167
      3163      3161      3164      3165      3163      3161      3164      3166
      3163      3161      3164      3167      3164      3167      3170      3171
      3164      3167      3170      3172      3164      3167      3170      3173
      3165      3164      3167      3168      3165      3164      3167      3169
      3165      3164      3167      3170      3166      3164      3167      3168
      3166      3164      3167      3169      3166      3164      3167      3170
      3168      3167      3170      3171      3168      3167      3170      3172
      3168      3167      3170      3173      3169      3167      3170      3171
      3169      3167      3170      3172      3169      3167      3170      3173
      3174      3177      3180      3181      3174      3177      3180      3182
      3174      3177      3180      3183      3175      3174      3177      3178
      3175      3174      3177      3179      3175      3174      3177      3180
      3176      3174      3177      3178      3176      3174      3177      3179
      3176      3174      3177      3180      3177      3180      3183      3184
      3177      3180      3183      3185      3177      3180      3183      3186
      3178      3177      3180      3181      3178      3177      3180      3182
      3178      3177      3180      3183      3179      3177      3180      3181
      3179      3177      3180      3182      3179      3177      3180      3183
      3180      3183      3186      3187      3180      3183      3186      3188
      3180      3183      3186      3189      3181      3180      3183      3184
      3181      3180      3183      3185      3181      3180      3183      3186
      3182      3180      3183      3184      3182      3180      3183      3185
      3182      3180      3183      3186      3183      3186      3189      3190
      3183      3186      3189      3191      3183      3186      3189      3192
      3184      3183      3186      3187      3184      3183      3186      3188
      3184      3183      3186      3189      3185      3183      3186      3187
      3185      3183      3186      3188      3185      3183      3186      3189
      3186      3189      3192      3193      3186      3189      3192      3194
      3186      3189      3192      3195      3187      3186      3189      3190
      3187      3186      3189      3191      3187      3186      3189      3192
      3188      3186      3189      3190      3188      3186      3189      3191
      3188      3186      3189      3192      3189      3192      3195      3196
      3189      3192      3195      3197      3189      3192      3195      3198
      3190      3189      3192      3193      3190      3189      3192      3194
      3190      3189      3192      3195      3191      3189      3192      3193
      3191      3189      3192      3194      3191      3189      3192      3195
      3192      3195      3198      3199      3192      3195      3198      3200
      3192      3195      3198      3201      3193      3192      3195      3196
      3193      3192      3195      3197      3193      3192      3195      3198
      3194      3192      3195      3196      3194      3192      3195      3197
      3194      3192      3195      3198      3195      3198      3201      3202
      3195      3198      3201      3203      3195      3198      3201      3204
      3196      3195      3198      3199      3196      3195      3198      3200
      3196      3195      3198      3201      3197      3195      3198      3199
      3197      3195      3198      3200      3197      3195      3198      3201
      3198      3201      3204      3205      3198      3201      3204      3206
      3198      3201      3204      3207      3199      3198      3201      3202
      3199      3198      3201      3203      3199      3198      3201      3204
      3200      3198      3201      3202      3200      3198      3201      3203
      3200      3198      3201      3204      3201      3204      3207      3208
      3201      3204      3207      3209      3201      3204      3207      3210
      3202      3201      3204      3205      3202      3201      3204      3206
      3202      3201      3204      3207      3203      3201      3204      3205
      3203      3201      3204      3206      3203      3201      3204      3207
      3204      3207      3210      3211      3204      3207      3210      3212
      3204      3207      3210      3213      3205      3204      3207      3208
      3205      3204      3207      3209      3205      3204      3207      3210
      3206      3204      3207      3208      3206      3204      3207      3209
      3206      3204      3207      3210      3207      3210      3213      3214
      3207      3210      3213      3215      3207      3210      3213      3216
      3208      3207      3210      3211      3208      3207      3210      3212
      3208      3207      3210      3213      3209      3207      3210      3211
      3209      3207      3210      3212      3209      3207      3210      3213
      3211      3210      3213      3214      3211      3210      3213      3215
      3211      3210      3213      3216      3212      3210      3213      3214
      3212      3210      3213      3215      3212      3210      3213      3216
      3217      3218      3233      3234      3217      3218      3233      3235
      3217      3218      3233      3239      3218      3217      3221      3222
      3218      3217      3221      3223      3218      3217      3221      3224
      3218      3217      3225      3226      3218      3217      3225      3227
      3218      3217      3225      3228      3218      3217      3229      3230
      3218      3217      3229      3231      3218      3217      3229      3232
      3218      3233      3239      3236      3219      3218      3217      3221
      3219      3218      3217      3225      3219      3218      3217      3229
      3219      3218      3233      3234      3219      3218      3233      3235
      3219      3218      3233      3239      3220      3218      3217      3221
      3220      3218      3217      3225      3220      3218      3217      3229
      3220      3218      3233      3234      3220      3218      3233      3235
      3220      3218      3233      3239      3221      3217      3218      3233
      3221      3217      3225      3226      3221      3217      3225      3227
      3221      3217      3225      3228      3221      3217      3229      3230
      3221      3217      3229      3231      3221      3217      3229      3232
      3222      3221      3217      3225      3222      3221      3217      3229
      3223      3221      3217      3225      3223      3221      3217      3229
      3224      3221      3217      3225      3224      3221      3217      3229
      3225      3217      3218      3233      3225      3217      3229      3230
      3225      3217      3229      3231      3225      3217      3229      3232
      3226      3225      3217      3229      3227      3225      3217      3229
      3228      3225      3217      3229      3229      3217      3218      3233
      3233      3239      3236      3237      3233      3239      3236      3238
      3233      3239      3236      3240      3234      3233      3239      3236
      3235      3233      3239      3236      3236      3240      3241      3242
      3236      3240      3241      3243      3236      3240      3241      3244
      3237      3236      3240      3241      3238      3236      3240      3241
      3239      3236      3240      3241      3240      3241      3244      3245
      3240      3241      3244      3246      3240      3241      3244      3252
      3241      3244      3246      3247      3241      3244      3252      3253
      3241      3244      3252      3254      3241      3244      3252      3255
      3242      3241      3244      3245      3242      3241      3244      3246
      3242      3241      3244      3252      3243      3241      3244      3245
      3243      3241      3244      3246      3243      3241      3244      3252
      3244      3246      3247      3248      3244      3246      3247      3249
      3244      3252      3255      3256      3245      3244      3246      3247
      3245      3244      3252      3253      3245      3244      3252      3254
      3245      3244      3252      3255      3246      3244      3252      3253
      3246      3244      3252      3254      3246      3244      3252      3255
      3246      3247      3249      3250      3246      3247      3249      3251
      3246      3247      3249      3261      3247      3246      3244      3252
      3247      3249      3261      3262      3247      3249      3261      3263
      3247      3249      3261      3264      3248      3247      3249      3250
      3248      3247      3249      3251      3248      3247      3249      3261
      3249      3261      3264      3265      3249      3261      3264      3266
      3249      3261      3264      3267      3250      3249      3261      3262
      3250      3249      3261      3263      3250      3249      3261      3264
      3251      3249      3261      3262      3251      3249      3261      3263
      3251      3249      3261      3264      3252      3255      3256      3257
      3252      3255      3256      3258      3253      3252      3255      3256
      3254      3252      3255      3256      3255      3256      3258      3259
      3255      3256      3258      3260      3255      3256      3258      3308
      3256      3258      3308      3309      3256      3258      3308      3310
      3256      3258      3308      3311      3257      3256      3258      3259
      3257      3256      3258      3260      3257      3256      3258      3308
      3258      3308      3311      3312      3258      3308      3311      3313
      3258      3308      3311      3314      3259      3258      3308      3309
      3259      3258      3308      3310      3259      3258      3308      3311
      3260      3258      3308      3309      3260      3258      3308      3310
      3260      3258      3308      3311      3261      3264      3267      3268
      3261      3264      3267      3269      3261      3264      3267      3270
      3262      3261      3264      3265      3262      3261      3264      3266
      3262      3261      3264      3267      3263      3261      3264      3265
      3263      3261      3264      3266      3263      3261      3264      3267
      3264      3267      3270      3271      3264      3267      3270      3272
      3264      3267      3270      3273      3265      3264      3267      3268
      3265      3264      3267      3269      3265      3264      3267      3270
      3266      3264      3267      3268      3266      3264      3267      3269
      3266      3264      3267      3270      3267      3270      3273      3274
      3267      3270      3273      3275      3267      3270      3273      3276
      3268      3267      3270      3271      3268      3267      3270      3272
      3268      3267      3270      3273      3269      3267      3270      3271
      3269      3267      3270      3272      3269      3267      3270      3273
      3270      3273      3276      3277      3270      3273      3276      3278
      3270      3273      3276      3279      3271      3270      3273      3274
      3271      3270      3273      3275      3271      3270      3273      3276
      3272      3270      3273      3274      3272      3270      3273      3275
      3272      3270      3273      3276      3273      3276      3279      3280
      3273      3276      3279      3281      3274      3273      3276      3277
      3274      3273      3276      3278      3274      3273      3276      3279
      3275      3273      3276      3277      3275      3273      3276      3278
      3275      3273      3276      3279      3276      3279      3281      3282
      3276      3279      3281      3283      3277      3276      3279      3280
      3277      3276      3279      3281      3278      3276      3279      3280
      3278      3276      3279      3281      3279      3281      3283      3284
      3279      3281      3283      3285      3279      3281      3283      3286
      3280      3279      3281      3282      3280      3279      3281      3283
      3281      3283      3286      3287      3281      3283      3286      3288
      3281      3283      3286      3289      3282      3281      3283      3284
      3282      3281      3283      3285      3282      3281      3283      3286
      3283      3286      3289      3290      3283      3286      3289      3291
      3283      3286      3289      3292      3284      3283      3286      3287
      3284      3283      3286      3288      3284      3283      3286      3289
      3285      3283      3286      3287      3285      3283      3286      3288
      3285      3283      3286      3289      3286      3289      3292      3293
      3286      3289      3292      3294      3286      3289      3292      3295
      3287      3286      3289      3290      3287      3286      3289      3291
      3287      3286      3289      3292      3288      3286      3289      3290
      3288      3286      3289      3291      3288      3286      3289      3292
      3289      3292      3295      3296      3289      3292      3295      3297
      3289      3292      3295      3298      3290      3289      3292      3293
      3290      3289      3292      3294      3290      3289      3292      3295
      3291      3289      3292      3293      3291      3289      3292      3294
      3291      3289      3292      3295      3292      3295      3298      3299
      3292      3295      3298      3300      3292      3295      3298      3301
      3293      3292      3295      3296      3293      3292      3295      3297
      3293      3292      3295      3298      3294      3292      3295      3296
      3294      3292      3295      3297      3294      3292      3295      3298
      3295      3298      3301      3302      3295      3298      3301      3303
      3295      3298      3301      3304      3296      3295      3298      3299
      3296      3295      3298      3300      3296      3295      3298      3301
      3297      3295      3298      3299      3297      3295      3298      3300
      3297      3295      3298      3301      3298      3301      3304      3305
      3298      3301      3304      3306      3298      3301      3304      3307
      3299      3298      3301      3302      3299      3298      3301      3303
      3299      3298      3301      3304      3300      3298      3301      3302
      3300      3298      3301      3303      3300      3298      3301      3304
      3302      3301      3304      3305      3302      3301      3304      3306
      3302      3301      3304      3307      3303      3301      3304      3305
      3303      3301      3304      3306      3303      3301      3304      3307
      3308      3311      3314      3315      3308      3311      3314      3316
      3308      3311      3314      3317      3309      3308      3311      3312
      3309      3308      3311      3313      3309      3308      3311      3314
      3310      3308      3311      3312      3310      3308      3311      3313
      3310      3308      3311      3314      3311      3314      3317      3318
      3311      3314      3317      3319      3311      3314      3317      3320
      3312      3311      3314      3315      3312      3311      3314      3316
      3312      3311      3314      3317      3313      3311      3314      3315
      3313      3311      3314      3316      3313      3311      3314      3317
      3314      3317      3320      3321      3314      3317      3320      3322
      3314      3317      3320      3323      3315      3314      3317      3318
      3315      3314      3317      3319      3315      3314      3317      3320
      3316      3314      3317      3318      3316      3314      3317      3319
      3316      3314      3317      3320      3317      3320      3323      3324
      3317      3320      3323      3325      3317      3320      3323      3326
      3318      3317      3320      3321      3318      3317      3320      3322
      3318      3317      3320      3323      3319      3317      3320      3321
      3319      3317      3320      3322      3319      3317      3320      3323
      3320      3323      3326      3327      3320      3323      3326      3328
      3320      3323      3326      3329      3321      3320      3323      3324
      3321      3320      3323      3325      3321      3320      3323      3326
      3322      3320      3323      3324      3322      3320      3323      3325
      3322      3320      3323      3326      3323      3326      3329      3330
      3323      3326      3329      3331      3323      3326      3329      3332
      3324      3323      3326      3327      3324      3323      3326      3328
      3324      3323      3326      3329      3325      3323      3326      3327
      3325      3323      3326      3328      3325      3323      3326      3329
      3326      3329      3332      3333      3326      3329      3332      3334
      3326      3329      3332      3335      3327      3326      3329      3330
      3327      3326      3329      3331      3327      3326      3329      3332
      3328      3326      3329      3330      3328      3326      3329      3331
      3328      3326      3329      3332      3329      3332      3335      3336
      3329      3332      3335      3337      3329      3332      3335      3338
      3330      3329      3332      3333      3330      3329      3332      3334
      3330      3329      3332      3335      3331      3329      3332      3333
      3331      3329      3332      3334      3331      3329      3332      3335
      3332      3335      3338      3339      3332      3335      3338      3340
      3332      3335      3338      3341      3333      3332      3335      3336
      3333      3332      3335      3337      3333      3332      3335      3338
      3334      3332      3335      3336      3334      3332      3335      3337
      3334      3332      3335      3338      3335      3338      3341      3342
      3335      3338      3341      3343      3335      3338      3341      3344
      3336      3335      3338      3339      3336      3335      3338      3340
      3336      3335      3338      3341      3337      3335      3338      3339
      3337      3335      3338      3340      3337      3335      3338      3341
      3338      3341      3344      3345      3338      3341      3344      3346
      3338      3341      3344      3347      3339      3338      3341      3342
      3339      3338      3341      3343      3339      3338      3341      3344
      3340      3338      3341      3342      3340      3338      3341      3343
      3340      3338      3341      3344      3341      3344      3347      3348
      3341      3344      3347      3349      3341      3344      3347      3350
      3342      3341      3344      3345      3342      3341      3344      3346
      3342      3341      3344      3347      3343      3341      3344      3345
      3343      3341      3344      3346      3343      3341      3344      3347
      3345      3344      3347      3348      3345      3344      3347      3349
      3345      3344      3347      3350      3346      3344      3347      3348
      3346      3344      3347      3349      3346      3344      3347      3350
      3351      3352      3367      3368      3351      3352      3367      3369
      3351      3352      3367      3373      3352      3351      3355      3356
      3352      3351      3355      3357      3352      3351      3355      3358
      3352      3351      3359      3360      3352      3351      3359      3361
      3352      3351      3359      3362      3352      3351      3363      3364
      3352      3351      3363      3365      3352      3351      3363      3366
      3352      3367      3373      3370      3353      3352      3351      3355
      3353      3352      3351      3359      3353      3352      3351      3363
      3353      3352      3367      3368      3353      3352      3367      3369
      3353      3352      3367      3373      3354      3352      3351      3355
      3354      3352      3351      3359      3354      3352      3351      3363
      3354      3352      3367      3368      3354      3352      3367      3369
      3354      3352      3367      3373      3355      3351      3352      3367
      3355      3351      3359      3360      3355      3351      3359      3361
      3355      3351      3359      3362      3355      3351      3363      3364
      3355      3351      3363      3365      3355      3351      3363      3366
      3356      3355      3351      3359      3356      3355      3351      3363
      3357      3355      3351      3359      3357      3355      3351      3363
      3358      3355      3351      3359      3358      3355      3351      3363
      3359      3351      3352      3367      3359      3351      3363      3364
      3359      3351      3363      3365      3359      3351      3363      3366
      3360      3359      3351      3363      3361      3359      3351      3363
      3362      3359      3351      3363      3363      3351      3352      3367
      3367      3373      3370      3371      3367      3373      3370      3372
      3367      3373      3370      3374      3368      3367      3373      3370
      3369      3367      3373      3370      3370      3374      3375      3376
      3370      3374      3375      3377      3370      3374      3375      3378
      3371      3370      3374      3375      3372      3370      3374      3375
      3373      3370      3374      3375      3374      3375      3378      3379
      3374      3375      3378      3380      3374      3375      3378      3386
      3375      3378      3380      3381      3375      3378      3386      3387
      3375      3378      3386      3388      3375      3378      3386      3389
      3376      3375      3378      3379      3376      3375      3378      3380
      3376      3375      3378      3386      3377      3375      3378      3379
      3377      3375      3378      3380      3377      3375      3378      3386
      3378      3380      3381      3382      3378      3380      3381      3383
      3378      3386      3389      3390      3379      3378      3380      3381
      3379      3378      3386      3387      3379      3378      3386      3388
      3379      3378      3386      3389      3380      3378      3386      3387
      3380      3378      3386      3388      3380      3378      3386      3389
      3380      3381      3383      3384      3380      3381      3383      3385
      3380      3381      3383      3395      3381      3380      3378      3386
      3381      3383      3395      3396      3381      3383      3395      3397
      3381      3383      3395      3398      3382      3381      3383      3384
      3382      3381      3383      3385      3382      3381      3383      3395
      3383      3395      3398      3399      3383      3395      3398      3400
      3383      3395      3398      3401      3384      3383      3395      3396
      3384      3383      3395      3397      3384      3383      3395      3398
      3385      3383      3395      3396      3385      3383      3395      3397
      3385      3383      3395      3398      3386      3389      3390      3391
      3386      3389      3390      3392      3387      3386      3389      3390
      3388      3386      3389      3390      3389      3390      3392      3393
      3389      3390      3392      3394      3389      3390      3392      3442
      3390      3392      3442      3443      3390      3392      3442      3444
      3390      3392      3442      3445      3391      3390      3392      3393
      3391      3390      3392      3394      3391      3390      3392      3442
      3392      3442      3445      3446      3392      3442      3445      3447
      3392      3442      3445      3448      3393      3392      3442      3443
      3393      3392      3442      3444      3393      3392      3442      3445
      3394      3392      3442      3443      3394      3392      3442      3444
      3394      3392      3442      3445      3395      3398      3401      3402
      3395      3398      3401      3403      3395      3398      3401      3404
      3396      3395      3398      3399      3396      3395      3398      3400
      3396      3395      3398      3401      3397      3395      3398      3399
      3397      3395      3398      3400      3397      3395      3398      3401
      3398      3401      3404      3405      3398      3401      3404      3406
      3398      3401      3404      3407      3399      3398      3401      3402
      3399      3398      3401      3403      3399      3398      3401      3404
      3400      3398      3401      3402      3400      3398      3401      3403
      3400      3398      3401      3404      3401      3404      3407      3408
      3401      3404      3407      3409      3401      3404      3407      3410
      3402      3401      3404      3405      3402      3401      3404      3406
      3402      3401      3404      3407      3403      3401      3404      3405
      3403      3401      3404      3406      3403      3401      3404      3407
      3404      3407      3410      3411      3404      3407      3410      3412
      3404      3407      3410      3413      3405      3404      3407      3408
      3405      3404      3407      3409      3405      3404      3407      3410
      3406      3404      3407      3408      3406      3404      3407      3409
      3406      3404      3407      3410      3407      3410      3413      3414
      3407      3410      3413      3415      3408      3407      3410      3411
      3408      3407      3410      3412      3408      3407      3410      3413
      3409      3407      3410      3411      3409      3407      3410      3412
      3409      3407      3410      3413      3410      3413      3415      3416
      3410      3413      3415      3417      3411      3410      3413      3414
      3411      3410      3413      3415      3412      3410      3413      3414
      3412      3410      3413      3415      3413      3415      3417      3418
      3413      3415      3417      3419      3413      3415      3417      3420
      3414      3413      3415      3416      3414      3413      3415      3417
      3415      3417      3420      3421      3415      3417      3420      3422
      3415      3417      3420      3423      3416      3415      3417      3418
      3416      3415      3417      3419      3416      3415      3417      3420
      3417      3420      3423      3424      3417      3420      3423      3425
      3417      3420      3423      3426      3418      3417      3420      3421
      3418      3417      3420      3422      3418      3417      3420      3423
      3419      3417      3420      3421      3419      3417      3420      3422
      3419      3417      3420      3423      3420      3423      3426      3427
      3420      3423      3426      3428      3420      3423      3426      3429
      3421      3420      3423      3424      3421      3420      3423      3425
      3421      3420      3423      3426      3422      3420      3423      3424
      3422      3420      3423      3425      3422      3420      3423      3426
      3423      3426      3429      3430      3423      3426      3429      3431
      3423      3426      3429      3432      3424      3423      3426      3427
      3424      3423      3426      3428      3424      3423      3426      3429
      3425      3423      3426      3427      3425      3423      3426      3428
      3425      3423      3426      3429      3426      3429      3432      3433
      3426      3429      3432      3434      3426      3429      3432      3435
      3427      3426      3429      3430      3427      3426      3429      3431
      3427      3426      3429      3432      3428      3426      3429      3430
      3428      3426      3429      3431      3428      3426      3429      3432
      3429      3432      3435      3436      3429      3432      3435      3437
      3429      3432      3435      3438      3430      3429      3432      3433
      3430      3429      3432      3434      3430      3429      3432      3435
      3431      3429      3432      3433      3431      3429      3432      3434
      3431      3429      3432      3435      3432      3435      3438      3439
      3432      3435      3438      3440      3432      3435      3438      3441
      3433      3432      3435      3436      3433      3432      3435      3437
      3433      3432      3435      3438      3434      3432      3435      3436
      3434      3432      3435      3437      3434      3432      3435      3438
      3436      3435      3438      3439      3436      3435      3438      3440
      3436      3435      3438      3441      3437      3435      3438      3439
      3437      3435      3438      3440      3437      3435      3438      3441
      3442      3445      3448      3449      3442      3445      3448      3450
      3442      3445      3448      3451      3443      3442      3445      3446
      3443      3442      3445      3447      3443      3442      3445      3448
      3444      3442      3445      3446      3444      3442      3445      3447
      3444      3442      3445      3448      3445      3448      3451      3452
      3445      3448      3451      3453      3445      3448      3451      3454
      3446      3445      3448      3449      3446      3445      3448      3450
      3446      3445      3448      3451      3447      3445      3448      3449
      3447      3445      3448      3450      3447      3445      3448      3451
      3448      3451      3454      3455      3448      3451      3454      3456
      3448      3451      3454      3457      3449      3448      3451      3452
      3449      3448      3451      3453      3449      3448      3451      3454
      3450      3448      3451      3452      3450      3448      3451      3453
      3450      3448      3451      3454      3451      3454      3457      3458
      3451      3454      3457      3459      3451      3454      3457      3460
      3452      3451      3454      3455      3452      3451      3454      3456
      3452      3451      3454      3457      3453      3451      3454      3455
      3453      3451      3454      3456      3453      3451      3454      3457
      3454      3457      3460      3461      3454      3457      3460      3462
      3454      3457      3460      3463      3455      3454      3457      3458
      3455      3454      3457      3459      3455      3454      3457      3460
      3456      3454      3457      3458      3456      3454      3457      3459
      3456      3454      3457      3460      3457      3460      3463      3464
      3457      3460      3463      3465      3457      3460      3463      3466
      3458      3457      3460      3461      3458      3457      3460      3462
      3458      3457      3460      3463      3459      3457      3460      3461
      3459      3457      3460      3462      3459      3457      3460      3463
      3460      3463      3466      3467      3460      3463      3466      3468
      3460      3463      3466      3469      3461      3460      3463      3464
      3461      3460      3463      3465      3461      3460      3463      3466
      3462      3460      3463      3464      3462      3460      3463      3465
      3462      3460      3463      3466      3463      3466      3469      3470
      3463      3466      3469      3471      3463      3466      3469      3472
      3464      3463      3466      3467      3464      3463      3466      3468
      3464      3463      3466      3469      3465      3463      3466      3467
      3465      3463      3466      3468      3465      3463      3466      3469
      3466      3469      3472      3473      3466      3469      3472      3474
      3466      3469      3472      3475      3467      3466      3469      3470
      3467      3466      3469      3471      3467      3466      3469      3472
      3468      3466      3469      3470      3468      3466      3469      3471
      3468      3466      3469      3472      3469      3472      3475      3476
      3469      3472      3475      3477      3469      3472      3475      3478
      3470      3469      3472      3473      3470      3469      3472      3474
      3470      3469      3472      3475      3471      3469      3472      3473
      3471      3469      3472      3474      3471      3469      3472      3475
      3472      3475      3478      3479      3472      3475      3478      3480
      3472      3475      3478      3481      3473      3472      3475      3476
      3473      3472      3475      3477      3473      3472      3475      3478
      3474      3472      3475      3476      3474      3472      3475      3477
      3474      3472      3475      3478      3475      3478      3481      3482
      3475      3478      3481      3483      3475      3478      3481      3484
      3476      3475      3478      3479      3476      3475      3478      3480
      3476      3475      3478      3481      3477      3475      3478      3479
      3477      3475      3478      3480      3477      3475      3478      3481
      3479      3478      3481      3482      3479      3478      3481      3483
      3479      3478      3481      3484      3480      3478      3481      3482
      3480      3478      3481      3483      3480      3478      3481      3484
      3485      3486      3501      3502      3485      3486      3501      3503
      3485      3486      3501      3507      3486      3485      3489      3490
      3486      3485      3489      3491      3486      3485      3489      3492
      3486      3485      3493      3494      3486      3485      3493      3495
      3486      3485      3493      3496      3486      3485      3497      3498
      3486      3485      3497      3499      3486      3485      3497      3500
      3486      3501      3507      3504      3487      3486      3485      3489
      3487      3486      3485      3493      3487      3486      3485      3497
      3487      3486      3501      3502      3487      3486      3501      3503
      3487      3486      3501      3507      3488      3486      3485      3489
      3488      3486      3485      3493      3488      3486      3485      3497
      3488      3486      3501      3502      3488      3486      3501      3503
      3488      3486      3501      3507      3489      3485      3486      3501
      3489      3485      3493      3494      3489      3485      3493      3495
      3489      3485      3493      3496      3489      3485      3497      3498
      3489      3485      3497      3499      3489      3485      3497      3500
      3490      3489      3485      3493      3490      3489      3485      3497
      3491      3489      3485      3493      3491      3489      3485      3497
      3492      3489      3485      3493      3492      3489      3485      3497
      3493      3485      3486      3501      3493      3485      3497      3498
      3493      3485      3497      3499      3493      3485      3497      3500
      3494      3493      3485      3497      3495      3493      3485      3497
      3496      3493      3485      3497      3497      3485      3486      3501
      3501      3507      3504      3505      3501      3507      3504      3506
      3501      3507      3504      3508      3502      3501      3507      3504
      3503      3501      3507      3504      3504      3508      3509      3510
      3504      3508      3509      3511      3504      3508      3509      3512
      3505      3504      3508      3509      3506      3504      3508      3509
      3507      3504      3508      3509      3508      3509      3512      3513
      3508      3509      3512      3514      3508      3509      3512      3520
      3509      3512      3514      3515      3509      3512      3520      3521
      3509      3512      3520      3522      3509      3512      3520      3523
      3510      3509      3512      3513      3510      3509      3512      3514
      3510      3509      3512      3520      3511      3509      3512      3513
      3511      3509      3512      3514      3511      3509      3512      3520
      3512      3514      3515      3516      3512      3514      3515      3517
      3512      3520      3523      3524      3513      3512      3514      3515
      3513      3512      3520      3521      3513      3512      3520      3522
      3513      3512      3520      3523      3514      3512      3520      3521
      3514      3512      3520      3522      3514      3512      3520      3523
      3514      3515      3517      3518      3514      3515      3517      3519
      3514      3515      3517      3529      3515      3514      3512      3520
      3515      3517      3529      3530      3515      3517      3529      3531
      3515      3517      3529      3532      3516      3515      3517      3518
      3516      3515      3517      3519      3516      3515      3517      3529
      3517      3529      3532      3533      3517      3529      3532      3534
      3517      3529      3532      3535      3518      3517      3529      3530
      3518      3517      3529      3531      3518      3517      3529      3532
      3519      3517      3529      3530      3519      3517      3529      3531
      3519      3517      3529      3532      3520      3523      3524      3525
      3520      3523      3524      3526      3521      3520      3523      3524
      3522      3520      3523      3524      3523      3524      3526      3527
      3523      3524      3526      3528      3523      3524      3526      3576
      3524      3526      3576      3577      3524      3526      3576      3578
      3524      3526      3576      3579      3525      3524      3526      3527
      3525      3524      3526      3528      3525      3524      3526      3576
      3526      3576      3579      3580      3526      3576      3579      3581
      3526      3576      3579      3582      3527      3526      3576      3577
      3527      3526      3576      3578      3527      3526      3576      3579
      3528      3526      3576      3577      3528      3526      3576      3578
      3528      3526      3576      3579      3529      3532      3535      3536
      3529      3532      3535      3537      3529      3532      3535      3538
      3530      3529      3532      3533      3530      3529      3532      3534
      3530      3529      3532      3535      3531      3529      3532      3533
      3531      3529      3532      3534      3531      3529      3532      3535
      3532      3535      3538      3539      3532      3535      3538      3540
      3532      3535      3538      3541      3533      3532      3535      3536
      3533      3532      3535      3537      3533      3532      3535      3538
      3534      3532      3535      3536      3534      3532      3535      3537
      3534      3532      3535      3538      3535      3538      3541      3542
      3535      3538      3541      3543      3535      3538      3541      3544
      3536      3535      3538      3539      3536      3535      3538      3540
      3536      3535      3538      3541      3537      3535      3538      3539
      3537      3535      3538      3540      3537      3535      3538      3541
      3538      3541      3544      3545      3538      3541      3544      3546
      3538      3541      3544      3547      3539      3538      3541      3542
      3539      3538      3541      3543      3539      3538      3541      3544
      3540      3538      3541      3542      3540      3538      3541      3543
      3540      3538      3541      3544      3541      3544      3547      3548
      3541      3544      3547      3549      3542      3541      3544      3545
      3542      3541      3544      3546      3542      3541      3544      3547
      3543      3541      3544      3545      3543      3541      3544      3546
      3543      3541      3544      3547      3544      3547      3549      3550
      3544      3547      3549      3551      3545      3544      3547      3548
      3545      3544      3547      3549      3546      3544      3547      3548
      3546      3544      3547      3549      3547      3549      3551      3552
      3547      3549      3551      3553      3547      3549      3551      3554
      3548      3547      3549      3550      3548      3547      3549      3551
      3549      3551      3554      3555      3549      3551      3554      3556
      3549      3551      3554      3557      3550      3549      3551      3552
      3550      3549      3551      3553      3550      3549      3551      3554
      3551      3554      3557      3558      3551      3554      3557      3559
      3551      3554      3557      3560      3552      3551      3554      3555
      3552      3551      3554      3556      3552      3551      3554      3557
      3553      3551      3554      3555      3553      3551      3554      3556
      3553      3551      3554      3557      3554      3557      3560      3561
      3554      3557      3560      3562      3554      3557      3560      3563
      3555      3554      3557      3558      3555      3554      3557      3559
      3555      3554      3557      3560      3556      3554      3557      3558
      3556      3554      3557      3559      3556      3554      3557      3560
      3557      3560      3563      3564      3557      3560      3563      3565
      3557      3560      3563      3566      3558      3557      3560      3561
      3558      3557      3560      3562      3558      3557      3560      3563
      3559      3557      3560      3561      3559      3557      3560      3562
      3559      3557      3560      3563      3560      3563      3566      3567
      3560      3563      3566      3568      3560      3563      3566      3569
      3561      3560      3563      3564      3561      3560      3563      3565
      3561      3560      3563      3566      3562      3560      3563      3564
      3562      3560      3563      3565      3562      3560      3563      3566
      3563      3566      3569      3570      3563      3566      3569      3571
      3563      3566      3569      3572      3564      3563      3566      3567
      3564      3563      3566      3568      3564      3563      3566      3569
      3565      3563      3566      3567      3565      3563      3566      3568
      3565      3563      3566      3569      3566      3569      3572      3573
      3566      3569      3572      3574      3566      3569      3572      3575
      3567      3566      3569      3570      3567      3566      3569      3571
      3567      3566      3569      3572      3568      3566      3569      3570
      3568      3566      3569      3571      3568      3566      3569      3572
      3570      3569      3572      3573      3570      3569      3572      3574
      3570      3569      3572      3575      3571      3569      3572      3573
      3571      3569      3572      3574      3571      3569      3572      3575
      3576      3579      3582      3583      3576      3579      3582      3584
      3576      3579      3582      3585      3577      3576      3579      3580
      3577      3576      3579      3581      3577      3576      3579      3582
      3578      3576      3579      3580      3578      3576      3579      3581
      3578      3576      3579      3582      3579      3582      3585      3586
      3579      3582      3585      3587      3579      3582      3585      3588
      3580      3579      3582      3583      3580      3579      3582      3584
      3580      3579      3582      3585      3581      3579      3582      3583
      3581      3579      3582      3584      3581      3579      3582      3585
      3582      3585      3588      3589      3582      3585      3588      3590
      3582      3585      3588      3591      3583      3582      3585      3586
      3583      3582      3585      3587      3583      3582      3585      3588
      3584      3582      3585      3586      3584      3582      3585      3587
      3584      3582      3585      3588      3585      3588      3591      3592
      3585      3588      3591      3593      3585      3588      3591      3594
      3586      3585      3588      3589      3586      3585      3588      3590
      3586      3585      3588      3591      3587      3585      3588      3589
      3587      3585      3588      3590      3587      3585      3588      3591
      3588      3591      3594      3595      3588      3591      3594      3596
      3588      3591      3594      3597      3589      3588      3591      3592
      3589      3588      3591      3593      3589      3588      3591      3594
      3590      3588      3591      3592      3590      3588      3591      3593
      3590      3588      3591      3594      3591      3594      3597      3598
      3591      3594      3597      3599      3591      3594      3597      3600
      3592      3591      3594      3595      3592      3591      3594      3596
      3592      3591      3594      3597      3593      3591      3594      3595
      3593      3591      3594      3596      3593      3591      3594      3597
      3594      3597      3600      3601      3594      3597      3600      3602
      3594      3597      3600      3603      3595      3594      3597      3598
      3595      3594      3597      3599      3595      3594      3597      3600
      3596      3594      3597      3598      3596      3594      3597      3599
      3596      3594      3597      3600      3597      3600      3603      3604
      3597      3600      3603      3605      3597      3600      3603      3606
      3598      3597      3600      3601      3598      3597      3600      3602
      3598      3597      3600      3603      3599      3597      3600      3601
      3599      3597      3600      3602      3599      3597      3600      3603
      3600      3603      3606      3607      3600      3603      3606      3608
      3600      3603      3606      3609      3601      3600      3603      3604
      3601      3600      3603      3605      3601      3600      3603      3606
      3602      3600      3603      3604      3602      3600      3603      3605
      3602      3600      3603      3606      3603      3606      3609      3610
      3603      3606      3609      3611      3603      3606      3609      3612
      3604      3603      3606      3607      3604      3603      3606      3608
      3604      3603      3606      3609      3605      3603      3606      3607
      3605      3603      3606      3608      3605      3603      3606      3609
      3606      3609      3612      3613      3606      3609      3612      3614
      3606      3609      3612      3615      3607      3606      3609      3610
      3607      3606      3609      3611      3607      3606      3609      3612
      3608      3606      3609      3610      3608      3606      3609      3611
      3608      3606      3609      3612      3609      3612      3615      3616
      3609      3612      3615      3617      3609      3612      3615      3618
      3610      3609      3612      3613      3610      3609      3612      3614
      3610      3609      3612      3615      3611      3609      3612      3613
      3611      3609      3612      3614      3611      3609      3612      3615
      3613      3612      3615      3616      3613      3612      3615      3617
      3613      3612      3615      3618      3614      3612      3615      3616
      3614      3612      3615      3617      3614      3612      3615      3618
      3619      3620      3635      3636      3619      3620      3635      3637
      3619      3620      3635      3641      3620      3619      3623      3624
      3620      3619      3623      3625      3620      3619      3623      3626
      3620      3619      3627      3628      3620      3619      3627      3629
      3620      3619      3627      3630      3620      3619      3631      3632
      3620      3619      3631      3633      3620      3619      3631      3634
      3620      3635      3641      3638      3621      3620      3619      3623
      3621      3620      3619      3627      3621      3620      3619      3631
      3621      3620      3635      3636      3621      3620      3635      3637
      3621      3620      3635      3641      3622      3620      3619      3623
      3622      3620      3619      3627      3622      3620      3619      3631
      3622      3620      3635      3636      3622      3620      3635      3637
      3622      3620      3635      3641      3623      3619      3620      3635
      3623      3619      3627      3628      3623      3619      3627      3629
      3623      3619      3627      3630      3623      3619      3631      3632
      3623      3619      3631      3633      3623      3619      3631      3634
      3624      3623      3619      3627      3624      3623      3619      3631
      3625      3623      3619      3627      3625      3623      3619      3631
      3626      3623      3619      3627      3626      3623      3619      3631
      3627      3619      3620      3635      3627      3619      3631      3632
      3627      3619      3631      3633      3627      3619      3631      3634
      3628      3627      3619      3631      3629      3627      3619      3631
      3630      3627      3619      3631      3631      3619      3620      3635
      3635      3641      3638      3639      3635      3641      3638      3640
      3635      3641      3638      3642      3636      3635      3641      3638
      3637      3635      3641      3638      3638      3642      3643      3644
      3638      3642      3643      3645      3638      3642      3643      3646
      3639      3638      3642      3643      3640      3638      3642      3643
      3641      3638      3642      3643      3642      3643      3646      3647
      3642      3643      3646      3648      3642      3643      3646      3654
      3643      3646      3648      3649      3643      3646      3654      3655
      3643      3646      3654      3656      3643      3646      3654      3657
      3644      3643      3646      3647      3644      3643      3646      3648
      3644      3643      3646      3654      3645      3643      3646      3647
      3645      3643      3646      3648      3645      3643      3646      3654
      3646      3648      3649      3650      3646      3648      3649      3651
      3646      3654      3657      3658      3647      3646      3648      3649
      3647      3646      3654      3655      3647      3646      3654      3656
      3647      3646      3654      3657      3648      3646      3654      3655
      3648      3646      3654      3656      3648      3646      3654      3657
      3648      3649      3651      3652      3648      3649      3651      3653
      3648      3649      3651      3663      3649      3648      3646      3654
      3649      3651      3663      3664      3649      3651      3663      3665
      3649      3651      3663      3666      3650      3649      3651      3652
      3650      3649      3651      3653      3650      3649      3651      3663
      3651      3663      3666      3667      3651      3663      3666      3668
      3651      3663      3666      3669      3652      3651      3663      3664
      3652      3651      3663      3665      3652      3651      3663      3666
      3653      3651      3663      3664      3653      3651      3663      3665
      3653      3651      3663      3666      3654      3657      3658      3659
      3654      3657      3658      3660      3655      3654      3657      3658
      3656      3654      3657      3658      3657      3658      3660      3661
      3657      3658      3660      3662      3657      3658      3660      3710
      3658      3660      3710      3711      3658      3660      3710      3712
      3658      3660      3710      3713      3659      3658      3660      3661
      3659      3658      3660      3662      3659      3658      3660      3710
      3660      3710      3713      3714      3660      3710      3713      3715
      3660      3710      3713      3716      3661      3660      3710      3711
      3661      3660      3710      3712      3661      3660      3710      3713
      3662      3660      3710      3711      3662      3660      3710      3712
      3662      3660      3710      3713      3663      3666      3669      3670
      3663      3666      3669      3671      3663      3666      3669      3672
      3664      3663      3666      3667      3664      3663      3666      3668
      3664      3663      3666      3669      3665      3663      3666      3667
      3665      3663      3666      3668      3665      3663      3666      3669
      3666      3669      3672      3673      3666      3669      3672      3674
      3666      3669      3672      3675      3667      3666      3669      3670
      3667      3666      3669      3671      3667      3666      3669      3672
      3668      3666      3669      3670      3668      3666      3669      3671
      3668      3666      3669      3672      3669      3672      3675      3676
      3669      3672      3675      3677      3669      3672      3675      3678
      3670      3669      3672      3673      3670      3669      3672      3674
      3670      3669      3672      3675      3671      3669      3672      3673
      3671      3669      3672      3674      3671      3669      3672      3675
      3672      3675      3678      3679      3672      3675      3678      3680
      3672      3675      3678      3681      3673      3672      3675      3676
      3673      3672      3675      3677      3673      3672      3675      3678
      3674      3672      3675      3676      3674      3672      3675      3677
      3674      3672      3675      3678      3675      3678      3681      3682
      3675      3678      3681      3683      3676      3675      3678      3679
      3676      3675      3678      3680      3676      3675      3678      3681
      3677      3675      3678      3679      3677      3675      3678      3680
      3677      3675      3678      3681      3678      3681      3683      3684
      3678      3681      3683      3685      3679      3678      3681      3682
      3679      3678      3681      3683      3680      3678      3681      3682
      3680      3678      3681      3683      3681      3683      3685      3686
      3681      3683      3685      3687      3681      3683      3685      3688
      3682      3681      3683      3684      3682      3681      3683      3685
      3683      3685      3688      3689      3683      3685      3688      3690
      3683      3685      3688      3691      3684      3683      3685      3686
      3684      3683      3685      3687      3684      3683      3685      3688
      3685      3688      3691      3692      3685      3688      3691      3693
      3685      3688      3691      3694      3686      3685      3688      3689
      3686      3685      3688      3690      3686      3685      3688      3691
      3687      3685      3688      3689      3687      3685      3688      3690
      3687      3685      3688      3691      3688      3691      3694      3695
      3688      3691      3694      3696      3688      3691      3694      3697
      3689      3688      3691      3692      3689      3688      3691      3693
      3689      3688      3691      3694      3690      3688      3691      3692
      3690      3688      3691      3693      3690      3688      3691      3694
      3691      3694      3697      3698      3691      3694      3697      3699
      3691      3694      3697      3700      3692      3691      3694      3695
      3692      3691      3694      3696      3692      3691      3694      3697
      3693      3691      3694      3695      3693      3691      3694      3696
      3693      3691      3694      3697      3694      3697      3700      3701
      3694      3697      3700      3702      3694      3697      3700      3703
      3695      3694      3697      3698      3695      3694      3697      3699
      3695      3694      3697      3700      3696      3694      3697      3698
      3696      3694      3697      3699      3696      3694      3697      3700
      3697      3700      3703      3704      3697      3700      3703      3705
      3697      3700      3703      3706      3698      3697      3700      3701
      3698      3697      3700      3702      3698      3697      3700      3703
      3699      3697      3700      3701      3699      3697      3700      3702
      3699      3697      3700      3703      3700      3703      3706      3707
      3700      3703      3706      3708      3700      3703      3706      3709
      3701      3700      3703      3704      3701      3700      3703      3705
      3701      3700      3703      3706      3702      3700      3703      3704
      3702      3700      3703      3705      3702      3700      3703      3706
      3704      3703      3706      3707      3704      3703      3706      3708
      3704      3703      3706      3709      3705      3703      3706      3707
      3705      3703      3706      3708      3705      3703      3706      3709
      3710      3713      3716      3717      3710      3713      3716      3718
      3710      3713      3716      3719      3711      3710      3713      3714
      3711      3710      3713      3715      3711      3710      3713      3716
      3712      3710      3713      3714      3712      3710      3713      3715
      3712      3710      3713      3716      3713      3716      3719      3720
      3713      3716      3719      3721      3713      3716      3719      3722
      3714      3713      3716      3717      3714      3713      3716      3718
      3714      3713      3716      3719      3715      3713      3716      3717
      3715      3713      3716      3718      3715      3713      3716      3719
      3716      3719      3722      3723      3716      3719      3722      3724
      3716      3719      3722      3725      3717      3716      3719      3720
      3717      3716      3719      3721      3717      3716      3719      3722
      3718      3716      3719      3720      3718      3716      3719      3721
      3718      3716      3719      3722      3719      3722      3725      3726
      3719      3722      3725      3727      3719      3722      3725      3728
      3720      3719      3722      3723      3720      3719      3722      3724
      3720      3719      3722      3725      3721      3719      3722      3723
      3721      3719      3722      3724      3721      3719      3722      3725
      3722      3725      3728      3729      3722      3725      3728      3730
      3722      3725      3728      3731      3723      3722      3725      3726
      3723      3722      3725      3727      3723      3722      3725      3728
      3724      3722      3725      3726      3724      3722      3725      3727
      3724      3722      3725      3728      3725      3728      3731      3732
      3725      3728      3731      3733      3725      3728      3731      3734
      3726      3725      3728      3729      3726      3725      3728      3730
      3726      3725      3728      3731      3727      3725      3728      3729
      3727      3725      3728      3730      3727      3725      3728      3731
      3728      3731      3734      3735      3728      3731      3734      3736
      3728      3731      3734      3737      3729      3728      3731      3732
      3729      3728      3731      3733      3729      3728      3731      3734
      3730      3728      3731      3732      3730      3728      3731      3733
      3730      3728      3731      3734      3731      3734      3737      3738
      3731      3734      3737      3739      3731      3734      3737      3740
      3732      3731      3734      3735      3732      3731      3734      3736
      3732      3731      3734      3737      3733      3731      3734      3735
      3733      3731      3734      3736      3733      3731      3734      3737
      3734      3737      3740      3741      3734      3737      3740      3742
      3734      3737      3740      3743      3735      3734      3737      3738
      3735      3734      3737      3739      3735      3734      3737      3740
      3736      3734      3737      3738      3736      3734      3737      3739
      3736      3734      3737      3740      3737      3740      3743      3744
      3737      3740      3743      3745      3737      3740      3743      3746
      3738      3737      3740      3741      3738      3737      3740      3742
      3738      3737      3740      3743      3739      3737      3740      3741
      3739      3737      3740      3742      3739      3737      3740      3743
      3740      3743      3746      3747      3740      3743      3746      3748
      3740      3743      3746      3749      3741      3740      3743      3744
      3741      3740      3743      3745      3741      3740      3743      3746
      3742      3740      3743      3744      3742      3740      3743      3745
      3742      3740      3743      3746      3743      3746      3749      3750
      3743      3746      3749      3751      3743      3746      3749      3752
      3744      3743      3746      3747      3744      3743      3746      3748
      3744      3743      3746      3749      3745      3743      3746      3747
      3745      3743      3746      3748      3745      3743      3746      3749
      3747      3746      3749      3750      3747      3746      3749      3751
      3747      3746      3749      3752      3748      3746      3749      3750
      3748      3746      3749      3751      3748      3746      3749      3752
      3753      3754      3769      3770      3753      3754      3769      3771
      3753      3754      3769      3775      3754      3753      3757      3758
      3754      3753      3757      3759      3754      3753      3757      3760
      3754      3753      3761      3762      3754      3753      3761      3763
      3754      3753      3761      3764      3754      3753      3765      3766
      3754      3753      3765      3767      3754      3753      3765      3768
      3754      3769      3775      3772      3755      3754      3753      3757
      3755      3754      3753      3761      3755      3754      3753      3765
      3755      3754      3769      3770      3755      3754      3769      3771
      3755      3754      3769      3775      3756      3754      3753      3757
      3756      3754      3753      3761      3756      3754      3753      3765
      3756      3754      3769      3770      3756      3754      3769      3771
      3756      3754      3769      3775      3757      3753      3754      3769
      3757      3753      3761      3762      3757      3753      3761      3763
      3757      3753      3761      3764      3757      3753      3765      3766
      3757      3753      3765      3767      3757      3753      3765      3768
      3758      3757      3753      3761      3758      3757      3753      3765
      3759      3757      3753      3761      3759      3757      3753      3765
      3760      3757      3753      3761      3760      3757      3753      3765
      3761      3753      3754      3769      3761      3753      3765      3766
      3761      3753      3765      3767      3761      3753      3765      3768
      3762      3761      3753      3765      3763      3761      3753      3765
      3764      3761      3753      3765      3765      3753      3754      3769
      3769      3775      3772      3773      3769      3775      3772      3774
      3769      3775      3772      3776      3770      3769      3775      3772
      3771      3769      3775      3772      3772      3776      3777      3778
      3772      3776      3777      3779      3772      3776      3777      3780
      3773      3772      3776      3777      3774      3772      3776      3777
      3775      3772      3776      3777      3776      3777      3780      3781
      3776      3777      3780      3782      3776      3777      3780      3788
      3777      3780      3782      3783      3777      3780      3788      3789
      3777      3780      3788      3790      3777      3780      3788      3791
      3778      3777      3780      3781      3778      3777      3780      3782
      3778      3777      3780      3788      3779      3777      3780      3781
      3779      3777      3780      3782      3779      3777      3780      3788
      3780      3782      3783      3784      3780      3782      3783      3785
      3780      3788      3791      3792      3781      3780      3782      3783
      3781      3780      3788      3789      3781      3780      3788      3790
      3781      3780      3788      3791      3782      3780      3788      3789
      3782      3780      3788      3790      3782      3780      3788      3791
      3782      3783      3785      3786      3782      3783      3785      3787
      3782      3783      3785      3797      3783      3782      3780      3788
      3783      3785      3797      3798      3783      3785      3797      3799
      3783      3785      3797      3800      3784      3783      3785      3786
      3784      3783      3785      3787      3784      3783      3785      3797
      3785      3797      3800      3801      3785      3797      3800      3802
      3785      3797      3800      3803      3786      3785      3797      3798
      3786      3785      3797      3799      3786      3785      3797      3800
      3787      3785      3797      3798      3787      3785      3797      3799
      3787      3785      3797      3800      3788      3791      3792      3793
      3788      3791      3792      3794      3789      3788      3791      3792
      3790      3788      3791      3792      3791      3792      3794      3795
      3791      3792      3794      3796      3791      3792      3794      3844
      3792      3794      3844      3845      3792      3794      3844      3846
      3792      3794      3844      3847      3793      3792      3794      3795
      3793      3792      3794      3796      3793      3792      3794      3844
      3794      3844      3847      3848      3794      3844      3847      3849
      3794      3844      3847      3850      3795      3794      3844      3845
      3795      3794      3844      3846      3795      3794      3844      3847
      3796      3794      3844      3845      3796      3794      3844      3846
      3796      3794      3844      3847      3797      3800      3803      3804
      3797      3800      3803      3805      3797      3800      3803      3806
      3798      3797      3800      3801      3798      3797      3800      3802
      3798      3797      3800      3803      3799      3797      3800      3801
      3799      3797      3800      3802      3799      3797      3800      3803
      3800      3803      3806      3807      3800      3803      3806      3808
      3800      3803      3806      3809      3801      3800      3803      3804
      3801      3800      3803      3805      3801      3800      3803      3806
      3802      3800      3803      3804      3802      3800      3803      3805
      3802      3800      3803      3806      3803      3806      3809      3810
      3803      3806      3809      3811      3803      3806      3809      3812
      3804      3803      3806      3807      3804      3803      3806      3808
      3804      3803      3806      3809      3805      3803      3806      3807
      3805      3803      3806      3808      3805      3803      3806      3809
      3806      3809      3812      3813      3806      3809      3812      3814
      3806      3809      3812      3815      3807      3806      3809      3810
      3807      3806      3809      3811      3807      3806      3809      3812
      3808      3806      3809      3810      3808      3806      3809      3811
      3808      3806      3809      3812      3809      3812      3815      3816
      3809      3812      3815      3817      3810      3809      3812      3813
      3810      3809      3812      3814      3810      3809      3812      3815
      3811      3809      3812      3813      3811      3809      3812      3814
      3811      3809      3812      3815      3812      3815      3817      3818
      3812      3815      3817      3819      3813      3812      3815      3816
      3813      3812      3815      3817      3814      3812      3815      3816
      3814      3812      3815      3817      3815      3817      3819      3820
      3815      3817      3819      3821      3815      3817      3819      3822
      3816      3815      3817      3818      3816      3815      3817      3819
      3817      3819      3822      3823      3817      3819      3822      3824
      3817      3819      3822      3825      3818      3817      3819      3820
      3818      3817      3819      3821      3818      3817      3819      3822
      3819      3822      3825      3826      3819      3822      3825      3827
      3819      3822      3825      3828      3820      3819      3822      3823
      3820      3819      3822      3824      3820      3819      3822      3825
      3821      3819      3822      3823      3821      3819      3822      3824
      3821      3819      3822      3825      3822      3825      3828      3829
      3822      3825      3828      3830      3822      3825      3828      3831
      3823      3822      3825      3826      3823      3822      3825      3827
      3823      3822      3825      3828      3824      3822      3825      3826
      3824      3822      3825      3827      3824      3822      3825      3828
      3825      3828      3831      3832      3825      3828      3831      3833
      3825      3828      3831      3834      3826      3825      3828      3829
      3826      3825      3828      3830      3826      3825      3828      3831
      3827      3825      3828      3829      3827      3825      3828      3830
      3827      3825      3828      3831      3828      3831      3834      3835
      3828      3831      3834      3836      3828      3831      3834      3837
      3829      3828      3831      3832      3829      3828      3831      3833
      3829      3828      3831      3834      3830      3828      3831      3832
      3830      3828      3831      3833      3830      3828      3831      3834
      3831      3834      3837      3838      3831      3834      3837      3839
      3831      3834      3837      3840      3832      3831      3834      3835
      3832      3831      3834      3836      3832      3831      3834      3837
      3833      3831      3834      3835      3833      3831      3834      3836
      3833      3831      3834      3837      3834      3837      3840      3841
      3834      3837      3840      3842      3834      3837      3840      3843
      3835      3834      3837      3838      3835      3834      3837      3839
      3835      3834      3837      3840      3836      3834      3837      3838
      3836      3834      3837      3839      3836      3834      3837      3840
      3838      3837      3840      3841      3838      3837      3840      3842
      3838      3837      3840      3843      3839      3837      3840      3841
      3839      3837      3840      3842      3839      3837      3840      3843
      3844      3847      3850      3851      3844      3847      3850      3852
      3844      3847      3850      3853      3845      3844      3847      3848
      3845      3844      3847      3849      3845      3844      3847      3850
      3846      3844      3847      3848      3846      3844      3847      3849
      3846      3844      3847      3850      3847      3850      3853      3854
      3847      3850      3853      3855      3847      3850      3853      3856
      3848      3847      3850      3851      3848      3847      3850      3852
      3848      3847      3850      3853      3849      3847      3850      3851
      3849      3847      3850      3852      3849      3847      3850      3853
      3850      3853      3856      3857      3850      3853      3856      3858
      3850      3853      3856      3859      3851      3850      3853      3854
      3851      3850      3853      3855      3851      3850      3853      3856
      3852      3850      3853      3854      3852      3850      3853      3855
      3852      3850      3853      3856      3853      3856      3859      3860
      3853      3856      3859      3861      3853      3856      3859      3862
      3854      3853      3856      3857      3854      3853      3856      3858
      3854      3853      3856      3859      3855      3853      3856      3857
      3855      3853      3856      3858      3855      3853      3856      3859
      3856      3859      3862      3863      3856      3859      3862      3864
      3856      3859      3862      3865      3857      3856      3859      3860
      3857      3856      3859      3861      3857      3856      3859      3862
      3858      3856      3859      3860      3858      3856      3859      3861
      3858      3856      3859      3862      3859      3862      3865      3866
      3859      3862      3865      3867      3859      3862      3865      3868
      3860      3859      3862      3863      3860      3859      3862      3864
      3860      3859      3862      3865      3861      3859      3862      3863
      3861      3859      3862      3864      3861      3859      3862      3865
      3862      3865      3868      3869      3862      3865      3868      3870
      3862      3865      3868      3871      3863      3862      3865      3866
      3863      3862      3865      3867      3863      3862      3865      3868
      3864      3862      3865      3866      3864      3862      3865      3867
      3864      3862      3865      3868      3865      3868      3871      3872
      3865      3868      3871      3873      3865      3868      3871      3874
      3866      3865      3868      3869      3866      3865      3868      3870
      3866      3865      3868      3871      3867      3865      3868      3869
      3867      3865      3868      3870      3867      3865      3868      3871
      3868      3871      3874      3875      3868      3871      3874      3876
      3868      3871      3874      3877      3869      3868      3871      3872
      3869      3868      3871      3873      3869      3868      3871      3874
      3870      3868      3871      3872      3870      3868      3871      3873
      3870      3868      3871      3874      3871      3874      3877      3878
      3871      3874      3877      3879      3871      3874      3877      3880
      3872      3871      3874      3875      3872      3871      3874      3876
      3872      3871      3874      3877      3873      3871      3874      3875
      3873      3871      3874      3876      3873      3871      3874      3877
      3874      3877      3880      3881      3874      3877      3880      3882
      3874      3877      3880      3883      3875      3874      3877      3878
      3875      3874      3877      3879      3875      3874      3877      3880
      3876      3874      3877      3878      3876      3874      3877      3879
      3876      3874      3877      3880      3877      3880      3883      3884
      3877      3880      3883      3885      3877      3880      3883      3886
      3878      3877      3880      3881      3878      3877      3880      3882
      3878      3877      3880      3883      3879      3877      3880      3881
      3879      3877      3880      3882      3879      3877      3880      3883
      3881      3880      3883      3884      3881      3880      3883      3885
      3881      3880      3883      3886      3882      3880      3883      3884
      3882      3880      3883      3885      3882      3880      3883      3886
      3887      3888      3903      3904      3887      3888      3903      3905
      3887      3888      3903      3909      3888      3887      3891      3892
      3888      3887      3891      3893      3888      3887      3891      3894
      3888      3887      3895      3896      3888      3887      3895      3897
      3888      3887      3895      3898      3888      3887      3899      3900
      3888      3887      3899      3901      3888      3887      3899      3902
      3888      3903      3909      3906      3889      3888      3887      3891
      3889      3888      3887      3895      3889      3888      3887      3899
      3889      3888      3903      3904      3889      3888      3903      3905
      3889      3888      3903      3909      3890      3888      3887      3891
      3890      3888      3887      3895      3890      3888      3887      3899
      3890      3888      3903      3904      3890      3888      3903      3905
      3890      3888      3903      3909      3891      3887      3888      3903
      3891      3887      3895      3896      3891      3887      3895      3897
      3891      3887      3895      3898      3891      3887      3899      3900
      3891      3887      3899      3901      3891      3887      3899      3902
      3892      3891      3887      3895      3892      3891      3887      3899
      3893      3891      3887      3895      3893      3891      3887      3899
      3894      3891      3887      3895      3894      3891      3887      3899
      3895      3887      3888      3903      3895      3887      3899      3900
      3895      3887      3899      3901      3895      3887      3899      3902
      3896      3895      3887      3899      3897      3895      3887      3899
      3898      3895      3887      3899      3899      3887      3888      3903
      3903      3909      3906      3907      3903      3909      3906      3908
      3903      3909      3906      3910      3904      3903      3909      3906
      3905      3903      3909      3906      3906      3910      3911      3912
      3906      3910      3911      3913      3906      3910      3911      3914
      3907      3906      3910      3911      3908      3906      3910      3911
      3909      3906      3910      3911      3910      3911      3914      3915
      3910      3911      3914      3916      3910      3911      3914      3922
      3911      3914      3916      3917      3911      3914      3922      3923
      3911      3914      3922      3924      3911      3914      3922      3925
      3912      3911      3914      3915      3912      3911      3914      3916
      3912      3911      3914      3922      3913      3911      3914      3915
      3913      3911      3914      3916      3913      3911      3914      3922
      3914      3916      3917      3918      3914      3916      3917      3919
      3914      3922      3925      3926      3915      3914      3916      3917
      3915      3914      3922      3923      3915      3914      3922      3924
      3915      3914      3922      3925      3916      3914      3922      3923
      3916      3914      3922      3924      3916      3914      3922      3925
      3916      3917      3919      3920      3916      3917      3919      3921
      3916      3917      3919      3931      3917      3916      3914      3922
      3917      3919      3931      3932      3917      3919      3931      3933
      3917      3919      3931      3934      3918      3917      3919      3920
      3918      3917      3919      3921      3918      3917      3919      3931
      3919      3931      3934      3935      3919      3931      3934      3936
      3919      3931      3934      3937      3920      3919      3931      3932
      3920      3919      3931      3933      3920      3919      3931      3934
      3921      3919      3931      3932      3921      3919      3931      3933
      3921      3919      3931      3934      3922      3925      3926      3927
      3922      3925      3926      3928      3923      3922      3925      3926
      3924      3922      3925      3926      3925      3926      3928      3929
      3925      3926      3928      3930      3925      3926      3928      3978
      3926      3928      3978      3979      3926      3928      3978      3980
      3926      3928      3978      3981      3927      3926      3928      3929
      3927      3926      3928      3930      3927      3926      3928      3978
      3928      3978      3981      3982      3928      3978      3981      3983
      3928      3978      3981      3984      3929      3928      3978      3979
      3929      3928      3978      3980      3929      3928      3978      3981
      3930      3928      3978      3979      3930      3928      3978      3980
      3930      3928      3978      3981      3931      3934      3937      3938
      3931      3934      3937      3939      3931      3934      3937      3940
      3932      3931      3934      3935      3932      3931      3934      3936
      3932      3931      3934      3937      3933      3931      3934      3935
      3933      3931      3934      3936      3933      3931      3934      3937
      3934      3937      3940      3941      3934      3937      3940      3942
      3934      3937      3940      3943      3935      3934      3937      3938
      3935      3934      3937      3939      3935      3934      3937      3940
      3936      3934      3937      3938      3936      3934      3937      3939
      3936      3934      3937      3940      3937      3940      3943      3944
      3937      3940      3943      3945      3937      3940      3943      3946
      3938      3937      3940      3941      3938      3937      3940      3942
      3938      3937      3940      3943      3939      3937      3940      3941
      3939      3937      3940      3942      3939      3937      3940      3943
      3940      3943      3946      3947      3940      3943      3946      3948
      3940      3943      3946      3949      3941      3940      3943      3944
      3941      3940      3943      3945      3941      3940      3943      3946
      3942      3940      3943      3944      3942      3940      3943      3945
      3942      3940      3943      3946      3943      3946      3949      3950
      3943      3946      3949      3951      3944      3943      3946      3947
      3944      3943      3946      3948      3944      3943      3946      3949
      3945      3943      3946      3947      3945      3943      3946      3948
      3945      3943      3946      3949      3946      3949      3951      3952
      3946      3949      3951      3953      3947      3946      3949      3950
      3947      3946      3949      3951      3948      3946      3949      3950
      3948      3946      3949      3951      3949      3951      3953      3954
      3949      3951      3953      3955      3949      3951      3953      3956
      3950      3949      3951      3952      3950      3949      3951      3953
      3951      3953      3956      3957      3951      3953      3956      3958
      3951      3953      3956      3959      3952      3951      3953      3954
      3952      3951      3953      3955      3952      3951      3953      3956
      3953      3956      3959      3960      3953      3956      3959      3961
      3953      3956      3959      3962      3954      3953      3956      3957
      3954      3953      3956      3958      3954      3953      3956      3959
      3955      3953      3956      3957      3955      3953      3956      3958
      3955      3953      3956      3959      3956      3959      3962      3963
      3956      3959      3962      3964      3956      3959      3962      3965
      3957      3956      3959      3960      3957      3956      3959      3961
      3957      3956      3959      3962      3958      3956      3959      3960
      3958      3956      3959      3961      3958      3956      3959      3962
      3959      3962      3965      3966      3959      3962      3965      3967
      3959      3962      3965      3968      3960      3959      3962      3963
      3960      3959      3962      3964      3960      3959      3962      3965
      3961      3959      3962      3963      3961      3959      3962      3964
      3961      3959      3962      3965      3962      3965      3968      3969
      3962      3965      3968      3970      3962      3965      3968      3971
      3963      3962      3965      3966      3963      3962      3965      3967
      3963      3962      3965      3968      3964      3962      3965      3966
      3964      3962      3965      3967      3964      3962      3965      3968
      3965      3968      3971      3972      3965      3968      3971      3973
      3965      3968      3971      3974      3966      3965      3968      3969
      3966      3965      3968      3970      3966      3965      3968      3971
      3967      3965      3968      3969      3967      3965      3968      3970
      3967      3965      3968      3971      3968      3971      3974      3975
      3968      3971      3974      3976      3968      3971      3974      3977
      3969      3968      3971      3972      3969      3968      3971      3973
      3969      3968      3971      3974      3970      3968      3971      3972
      3970      3968      3971      3973      3970      3968      3971      3974
      3972      3971      3974      3975      3972      3971      3974      3976
      3972      3971      3974      3977      3973      3971      3974      3975
      3973      3971      3974      3976      3973      3971      3974      3977
      3978      3981      3984      3985      3978      3981      3984      3986
      3978      3981      3984      3987      3979      3978      3981      3982
      3979      3978      3981      3983      3979      3978      3981      3984
      3980      3978      3981      3982      3980      3978      3981      3983
      3980      3978      3981      3984      3981      3984      3987      3988
      3981      3984      3987      3989      3981      3984      3987      3990
      3982      3981      3984      3985      3982      3981      3984      3986
      3982      3981      3984      3987      3983      3981      3984      3985
      3983      3981      3984      3986      3983      3981      3984      3987
      3984      3987      3990      3991      3984      3987      3990      3992
      3984      3987      3990      3993      3985      3984      3987      3988
      3985      3984      3987      3989      3985      3984      3987      3990
      3986      3984      3987      3988      3986      3984      3987      3989
      3986      3984      3987      3990      3987      3990      3993      3994
      3987      3990      3993      3995      3987      3990      3993      3996
      3988      3987      3990      3991      3988      3987      3990      3992
      3988      3987      3990      3993      3989      3987      3990      3991
      3989      3987      3990      3992      3989      3987      3990      3993
      3990      3993      3996      3997      3990      3993      3996      3998
      3990      3993      3996      3999      3991      3990      3993      3994
      3991      3990      3993      3995      3991      3990      3993      3996
      3992      3990      3993      3994      3992      3990      3993      3995
      3992      3990      3993      3996      3993      3996      3999      4000
      3993      3996      3999      4001      3993      3996      3999      4002
      3994      3993      3996      3997      3994      3993      3996      3998
      3994      3993      3996      3999      3995      3993      3996      3997
      3995      3993      3996      3998      3995      3993      3996      3999
      3996      3999      4002      4003      3996      3999      4002      4004
      3996      3999      4002      4005      3997      3996      3999      4000
      3997      3996      3999      4001      3997      3996      3999      4002
      3998      3996      3999      4000      3998      3996      3999      4001
      3998      3996      3999      4002      3999      4002      4005      4006
      3999      4002      4005      4007      3999      4002      4005      4008
      4000      3999      4002      4003      4000      3999      4002      4004
      4000      3999      4002      4005      4001      3999      4002      4003
      4001      3999      4002      4004      4001      3999      4002      4005
      4002      4005      4008      4009      4002      4005      4008      4010
      4002      4005      4008      4011      4003      4002      4005      4006
      4003      4002      4005      4007      4003      4002      4005      4008
      4004      4002      4005      4006      4004      4002      4005      4007
      4004      4002      4005      4008      4005      4008      4011      4012
      4005      4008      4011      4013      4005      4008      4011      4014
      4006      4005      4008      4009      4006      4005      4008      4010
      4006      4005      4008      4011      4007      4005      4008      4009
      4007      4005      4008      4010      4007      4005      4008      4011
      4008      4011      4014      4015      4008      4011      4014      4016
      4008      4011      4014      4017      4009      4008      4011      4012
      4009      4008      4011      4013      4009      4008      4011      4014
      4010      4008      4011      4012      4010      4008      4011      4013
      4010      4008      4011      4014      4011      4014      4017      4018
      4011      4014      4017      4019      4011      4014      4017      4020
      4012      4011      4014      4015      4012      4011      4014      4016
      4012      4011      4014      4017      4013      4011      4014      4015
      4013      4011      4014      4016      4013      4011      4014      4017
      4015      4014      4017      4018      4015      4014      4017      4019
      4015      4014      4017      4020      4016      4014      4017      4018
      4016      4014      4017      4019      4016      4014      4017      4020
      4021      4022      4037      4038      4021      4022      4037      4039
      4021      4022      4037      4043      4022      4021      4025      4026
      4022      4021      4025      4027      4022      4021      4025      4028
      4022      4021      4029      4030      4022      4021      4029      4031
      4022      4021      4029      4032      4022      4021      4033      4034
      4022      4021      4033      4035      4022      4021      4033      4036
      4022      4037      4043      4040      4023      4022      4021      4025
      4023      4022      4021      4029      4023      4022      4021      4033
      4023      4022      4037      4038      4023      4022      4037      4039
      4023      4022      4037      4043      4024      4022      4021      4025
      4024      4022      4021      4029      4024      4022      4021      4033
      4024      4022      4037      4038      4024      4022      4037      4039
      4024      4022      4037      4043      4025      4021      4022      4037
      4025      4021      4029      4030      4025      4021      4029      4031
      4025      4021      4029      4032      4025      4021      4033      4034
      4025      4021      4033      4035      4025      4021      4033      4036
      4026      4025      4021      4029      4026      4025      4021      4033
      4027      4025      4021      4029      4027      4025      4021      4033
      4028      4025      4021      4029      4028      4025      4021      4033
      4029      4021      4022      4037      4029      4021      4033      4034
      4029      4021      4033      4035      4029      4021      4033      4036
      4030      4029      4021      4033      4031      4029      4021      4033
      4032      4029      4021      4033      4033      4021      4022      4037
      4037      4043      4040      4041      4037      4043      4040      4042
      4037      4043      4040      4044      4038      4037      4043      4040
      4039      4037      4043      4040      4040      4044      4045      4046
      4040      4044      4045      4047      4040      4044      4045      4048
      4041      4040      4044      4045      4042      4040      4044      4045
      4043      4040      4044      4045      4044      4045      4048      4049
      4044      4045      4048      4050      4044      4045      4048      4056
      4045      4048      4050      4051      4045      4048      4056      4057
      4045      4048      4056      4058      4045      4048      4056      4059
      4046      4045      4048      4049      4046      4045      4048      4050
      4046      4045      4048      4056      4047      4045      4048      4049
      4047      4045      4048      4050      4047      4045      4048      4056
      4048      4050      4051      4052      4048      4050      4051      4053
      4048      4056      4059      4060      4049      4048      4050      4051
      4049      4048      4056      4057      4049      4048      4056      4058
      4049      4048      4056      4059      4050      4048      4056      4057
      4050      4048      4056      4058      4050      4048      4056      4059
      4050      4051      4053      4054      4050      4051      4053      4055
      4050      4051      4053      4065      4051      4050      4048      4056
      4051      4053      4065      4066      4051      4053      4065      4067
      4051      4053      4065      4068      4052      4051      4053      4054
      4052      4051      4053      4055      4052      4051      4053      4065
      4053      4065      4068      4069      4053      4065      4068      4070
      4053      4065      4068      4071      4054      4053      4065      4066
      4054      4053      4065      4067      4054      4053      4065      4068
      4055      4053      4065      4066      4055      4053      4065      4067
      4055      4053      4065      4068      4056      4059      4060      4061
      4056      4059      4060      4062      4057      4056      4059      4060
      4058      4056      4059      4060      4059      4060      4062      4063
      4059      4060      4062      4064      4059      4060      4062      4112
      4060      4062      4112      4113      4060      4062      4112      4114
      4060      4062      4112      4115      4061      4060      4062      4063
      4061      4060      4062      4064      4061      4060      4062      4112
      4062      4112      4115      4116      4062      4112      4115      4117
      4062      4112      4115      4118      4063      4062      4112      4113
      4063      4062      4112      4114      4063      4062      4112      4115
      4064      4062      4112      4113      4064      4062      4112      4114
      4064      4062      4112      4115      4065      4068      4071      4072
      4065      4068      4071      4073      4065      4068      4071      4074
      4066      4065      4068      4069      4066      4065      4068      4070
      4066      4065      4068      4071      4067      4065      4068      4069
      4067      4065      4068      4070      4067      4065      4068      4071
      4068      4071      4074      4075      4068      4071      4074      4076
      4068      4071      4074      4077      4069      4068      4071      4072
      4069      4068      4071      4073      4069      4068      4071      4074
      4070      4068      4071      4072      4070      4068      4071      4073
      4070      4068      4071      4074      4071      4074      4077      4078
      4071      4074      4077      4079      4071      4074      4077      4080
      4072      4071      4074      4075      4072      4071      4074      4076
      4072      4071      4074      4077      4073      4071      4074      4075
      4073      4071      4074      4076      4073      4071      4074      4077
      4074      4077      4080      4081      4074      4077      4080      4082
      4074      4077      4080      4083      4075      4074      4077      4078
      4075      4074      4077      4079      4075      4074      4077      4080
      4076      4074      4077      4078      4076      4074      4077      4079
      4076      4074      4077      4080      4077      4080      4083      4084
      4077      4080      4083      4085      4078      4077      4080      4081
      4078      4077      4080      4082      4078      4077      4080      4083
      4079      4077      4080      4081      4079      4077      4080      4082
      4079      4077      4080      4083      4080      4083      4085      4086
      4080      4083      4085      4087      4081      4080      4083      4084
      4081      4080      4083      4085      4082      4080      4083      4084
      4082      4080      4083      4085      4083      4085      4087      4088
      4083      4085      4087      4089      4083      4085      4087      4090
      4084      4083      4085      4086      4084      4083      4085      4087
      4085      4087      4090      4091      4085      4087      4090      4092
      4085      4087      4090      4093      4086      4085      4087      4088
      4086      4085      4087      4089      4086      4085      4087      4090
      4087      4090      4093      4094      4087      4090      4093      4095
      4087      4090      4093      4096      4088      4087      4090      4091
      4088      4087      4090      4092      4088      4087      4090      4093
      4089      4087      4090      4091      4089      4087      4090      4092
      4089      4087      4090      4093      4090      4093      4096      4097
      4090      4093      4096      4098      4090      4093      4096      4099
      4091      4090      4093      4094      4091      4090      4093      4095
      4091      4090      4093      4096      4092      4090      4093      4094
      4092      4090      4093      4095      4092      4090      4093      4096
      4093      4096      4099      4100      4093      4096      4099      4101
      4093      4096      4099      4102      4094      4093      4096      4097
      4094      4093      4096      4098      4094      4093      4096      4099
      4095      4093      4096      4097      4095      4093      4096      4098
      4095      4093      4096      4099      4096      4099      4102      4103
      4096      4099      4102      4104      4096      4099      4102      4105
      4097      4096      4099      4100      4097      4096      4099      4101
      4097      4096      4099      4102      4098      4096      4099      4100
      4098      4096      4099      4101      4098      4096      4099      4102
      4099      4102      4105      4106      4099      4102      4105      4107
      4099      4102      4105      4108      4100      4099      4102      4103
      4100      4099      4102      4104      4100      4099      4102      4105
      4101      4099      4102      4103      4101      4099      4102      4104
      4101      4099      4102      4105      4102      4105      4108      4109
      4102      4105      4108      4110      4102      4105      4108      4111
      4103      4102      4105      4106      4103      4102      4105      4107
      4103      4102      4105      4108      4104      4102      4105      4106
      4104      4102      4105      4107      4104      4102      4105      4108
      4106      4105      4108      4109      4106      4105      4108      4110
      4106      4105      4108      4111      4107      4105      4108      4109
      4107      4105      4108      4110      4107      4105      4108      4111
      4112      4115      4118      4119      4112      4115      4118      4120
      4112      4115      4118      4121      4113      4112      4115      4116
      4113      4112      4115      4117      4113      4112      4115      4118
      4114      4112      4115      4116      4114      4112      4115      4117
      4114      4112      4115      4118      4115      4118      4121      4122
      4115      4118      4121      4123      4115      4118      4121      4124
      4116      4115      4118      4119      4116      4115      4118      4120
      4116      4115      4118      4121      4117      4115      4118      4119
      4117      4115      4118      4120      4117      4115      4118      4121
      4118      4121      4124      4125      4118      4121      4124      4126
      4118      4121      4124      4127      4119      4118      4121      4122
      4119      4118      4121      4123      4119      4118      4121      4124
      4120      4118      4121      4122      4120      4118      4121      4123
      4120      4118      4121      4124      4121      4124      4127      4128
      4121      4124      4127      4129      4121      4124      4127      4130
      4122      4121      4124      4125      4122      4121      4124      4126
      4122      4121      4124      4127      4123      4121      4124      4125
      4123      4121      4124      4126      4123      4121      4124      4127
      4124      4127      4130      4131      4124      4127      4130      4132
      4124      4127      4130      4133      4125      4124      4127      4128
      4125      4124      4127      4129      4125      4124      4127      4130
      4126      4124      4127      4128      4126      4124      4127      4129
      4126      4124      4127      4130      4127      4130      4133      4134
      4127      4130      4133      4135      4127      4130      4133      4136
      4128      4127      4130      4131      4128      4127      4130      4132
      4128      4127      4130      4133      4129      4127      4130      4131
      4129      4127      4130      4132      4129      4127      4130      4133
      4130      4133      4136      4137      4130      4133      4136      4138
      4130      4133      4136      4139      4131      4130      4133      4134
      4131      4130      4133      4135      4131      4130      4133      4136
      4132      4130      4133      4134      4132      4130      4133      4135
      4132      4130      4133      4136      4133      4136      4139      4140
      4133      4136      4139      4141      4133      4136      4139      4142
      4134      4133      4136      4137      4134      4133      4136      4138
      4134      4133      4136      4139      4135      4133      4136      4137
      4135      4133      4136      4138      4135      4133      4136      4139
      4136      4139      4142      4143      4136      4139      4142      4144
      4136      4139      4142      4145      4137      4136      4139      4140
      4137      4136      4139      4141      4137      4136      4139      4142
      4138      4136      4139      4140      4138      4136      4139      4141
      4138      4136      4139      4142      4139      4142      4145      4146
      4139      4142      4145      4147      4139      4142      4145      4148
      4140      4139      4142      4143      4140      4139      4142      4144
      4140      4139      4142      4145      4141      4139      4142      4143
      4141      4139      4142      4144      4141      4139      4142      4145
      4142      4145      4148      4149      4142      4145      4148      4150
      4142      4145      4148      4151      4143      4142      4145      4146
      4143      4142      4145      4147      4143      4142      4145      4148
      4144      4142      4145      4146      4144      4142      4145      4147
      4144      4142      4145      4148      4145      4148      4151      4152
      4145      4148      4151      4153      4145      4148      4151      4154
      4146      4145      4148      4149      4146      4145      4148      4150
      4146      4145      4148      4151      4147      4145      4148      4149
      4147      4145      4148      4150      4147      4145      4148      4151
      4149      4148      4151      4152      4149      4148      4151      4153
      4149      4148      4151      4154      4150      4148      4151      4152
      4150      4148      4151      4153      4150      4148      4151      4154
      4155      4156      4171      4172      4155      4156      4171      4173
      4155      4156      4171      4177      4156      4155      4159      4160
      4156      4155      4159      4161      4156      4155      4159      4162
      4156      4155      4163      4164      4156      4155      4163      4165
      4156      4155      4163      4166      4156      4155      4167      4168
      4156      4155      4167      4169      4156      4155      4167      4170
      4156      4171      4177      4174      4157      4156      4155      4159
      4157      4156      4155      4163      4157      4156      4155      4167
      4157      4156      4171      4172      4157      4156      4171      4173
      4157      4156      4171      4177      4158      4156      4155      4159
      4158      4156      4155      4163      4158      4156      4155      4167
      4158      4156      4171      4172      4158      4156      4171      4173
      4158      4156      4171      4177      4159      4155      4156      4171
      4159      4155      4163      4164      4159      4155      4163      4165
      4159      4155      4163      4166      4159      4155      4167      4168
      4159      4155      4167      4169      4159      4155      4167      4170
      4160      4159      4155      4163      4160      4159      4155      4167
      4161      4159      4155      4163      4161      4159      4155      4167
      4162      4159      4155      4163      4162      4159      4155      4167
      4163      4155      4156      4171      4163      4155      4167      4168
      4163      4155      4167      4169      4163      4155      4167      4170
      4164      4163      4155      4167      4165      4163      4155      4167
      4166      4163      4155      4167      4167      4155      4156      4171
      4171      4177      4174      4175      4171      4177      4174      4176
      4171      4177      4174      4178      4172      4171      4177      4174
      4173      4171      4177      4174      4174      4178      4179      4180
      4174      4178      4179      4181      4174      4178      4179      4182
      4175      4174      4178      4179      4176      4174      4178      4179
      4177      4174      4178      4179      4178      4179      4182      4183
      4178      4179      4182      4184      4178      4179      4182      4190
      4179      4182      4184      4185      4179      4182      4190      4191
      4179      4182      4190      4192      4179      4182      4190      4193
      4180      4179      4182      4183      4180      4179      4182      4184
      4180      4179      4182      4190      4181      4179      4182      4183
      4181      4179      4182      4184      4181      4179      4182      4190
      4182      4184      4185      4186      4182      4184      4185      4187
      4182      4190      4193      4194      4183      4182      4184      4185
      4183      4182      4190      4191      4183      4182      4190      4192
      4183      4182      4190      4193      4184      4182      4190      4191
      4184      4182      4190      4192      4184      4182      4190      4193
      4184      4185      4187      4188      4184      4185      4187      4189
      4184      4185      4187      4199      4185      4184      4182      4190
      4185      4187      4199      4200      4185      4187      4199      4201
      4185      4187      4199      4202      4186      4185      4187      4188
      4186      4185      4187      4189      4186      4185      4187      4199
      4187      4199      4202      4203      4187      4199      4202      4204
      4187      4199      4202      4205      4188      4187      4199      4200
      4188      4187      4199      4201      4188      4187      4199      4202
      4189      4187      4199      4200      4189      4187      4199      4201
      4189      4187      4199      4202      4190      4193      4194      4195
      4190      4193      4194      4196      4191      4190      4193      4194
      4192      4190      4193      4194      4193      4194      4196      4197
      4193      4194      4196      4198      4193      4194      4196      4246
      4194      4196      4246      4247      4194      4196      4246      4248
      4194      4196      4246      4249      4195      4194      4196      4197
      4195      4194      4196      4198      4195      4194      4196      4246
      4196      4246      4249      4250      4196      4246      4249      4251
      4196      4246      4249      4252      4197      4196      4246      4247
      4197      4196      4246      4248      4197      4196      4246      4249
      4198      4196      4246      4247      4198      4196      4246      4248
      4198      4196      4246      4249      4199      4202      4205      4206
      4199      4202      4205      4207      4199      4202      4205      4208
      4200      4199      4202      4203      4200      4199      4202      4204
      4200      4199      4202      4205      4201      4199      4202      4203
      4201      4199      4202      4204      4201      4199      4202      4205
      4202      4205      4208      4209      4202      4205      4208      4210
      4202      4205      4208      4211      4203      4202      4205      4206
      4203      4202      4205      4207      4203      4202      4205      4208
      4204      4202      4205      4206      4204      4202      4205      4207
      4204      4202      4205      4208      4205      4208      4211      4212
      4205      4208      4211      4213      4205      4208      4211      4214
      4206      4205      4208      4209      4206      4205      4208      4210
      4206      4205      4208      4211      4207      4205      4208      4209
      4207      4205      4208      4210      4207      4205      4208      4211
      4208      4211      4214      4215      4208      4211      4214      4216
      4208      4211      4214      4217      4209      4208      4211      4212
      4209      4208      4211      4213      4209      4208      4211      4214
      4210      4208      4211      4212      4210      4208      4211      4213
      4210      4208      4211      4214      4211      4214      4217      4218
      4211      4214      4217      4219      4212      4211      4214      4215
      4212      4211      4214      4216      4212      4211      4214      4217
      4213      4211      4214      4215      4213      4211      4214      4216
      4213      4211      4214      4217      4214      4217      4219      4220
      4214      4217      4219      4221      4215      4214      4217      4218
      4215      4214      4217      4219      4216      4214      4217      4218
      4216      4214      4217      4219      4217      4219      4221      4222
      4217      4219      4221      4223      4217      4219      4221      4224
      4218      4217      4219      4220      4218      4217      4219      4221
      4219      4221      4224      4225      4219      4221      4224      4226
      4219      4221      4224      4227      4220      4219      4221      4222
      4220      4219      4221      4223      4220      4219      4221      4224
      4221      4224      4227      4228      4221      4224      4227      4229
      4221      4224      4227      4230      4222      4221      4224      4225
      4222      4221      4224      4226      4222      4221      4224      4227
      4223      4221      4224      4225      4223      4221      4224      4226
      4223      4221      4224      4227      4224      4227      4230      4231
      4224      4227      4230      4232      4224      4227      4230      4233
      4225      4224      4227      4228      4225      4224      4227      4229
      4225      4224      4227      4230      4226      4224      4227      4228
      4226      4224      4227      4229      4226      4224      4227      4230
      4227      4230      4233      4234      4227      4230      4233      4235
      4227      4230      4233      4236      4228      4227      4230      4231
      4228      4227      4230      4232      4228      4227      4230      4233
      4229      4227      4230      4231      4229      4227      4230      4232
      4229      4227      4230      4233      4230      4233      4236      4237
      4230      4233      4236      4238      4230      4233      4236      4239
      4231      4230      4233      4234      4231      4230      4233      4235
      4231      4230      4233      4236      4232      4230      4233      4234
      4232      4230      4233      4235      4232      4230      4233      4236
      4233      4236      4239      4240      4233      4236      4239      4241
      4233      4236      4239      4242      4234      4233      4236      4237
      4234      4233      4236      4238      4234      4233      4236      4239
      4235      4233      4236      4237      4235      4233      4236      4238
      4235      4233      4236      4239      4236      4239      4242      4243
      4236      4239      4242      4244      4236      4239      4242      4245
      4237      4236      4239      4240      4237      4236      4239      4241
      4237      4236      4239      4242      4238      4236      4239      4240
      4238      4236      4239      4241      4238      4236      4239      4242
      4240      4239      4242      4243      4240      4239      4242      4244
      4240      4239      4242      4245      4241      4239      4242      4243
      4241      4239      4242      4244      4241      4239      4242      4245
      4246      4249      4252      4253      4246      4249      4252      4254
      4246      4249      4252      4255      4247      4246      4249      4250
      4247      4246      4249      4251      4247      4246      4249      4252
      4248      4246      4249      4250      4248      4246      4249      4251
      4248      4246      4249      4252      4249      4252      4255      4256
      4249      4252      4255      4257      4249      4252      4255      4258
      4250      4249      4252      4253      4250      4249      4252      4254
      4250      4249      4252      4255      4251      4249      4252      4253
      4251      4249      4252      4254      4251      4249      4252      4255
      4252      4255      4258      4259      4252      4255      4258      4260
      4252      4255      4258      4261      4253      4252      4255      4256
      4253      4252      4255      4257      4253      4252      4255      4258
      4254      4252      4255      4256      4254      4252      4255      4257
      4254      4252      4255      4258      4255      4258      4261      4262
      4255      4258      4261      4263      4255      4258      4261      4264
      4256      4255      4258      4259      4256      4255      4258      4260
      4256      4255      4258      4261      4257      4255      4258      4259
      4257      4255      4258      4260      4257      4255      4258      4261
      4258      4261      4264      4265      4258      4261      4264      4266
      4258      4261      4264      4267      4259      4258      4261      4262
      4259      4258      4261      4263      4259      4258      4261      4264
      4260      4258      4261      4262      4260      4258      4261      4263
      4260      4258      4261      4264      4261      4264      4267      4268
      4261      4264      4267      4269      4261      4264      4267      4270
      4262      4261      4264      4265      4262      4261      4264      4266
      4262      4261      4264      4267      4263      4261      4264      4265
      4263      4261      4264      4266      4263      4261      4264      4267
      4264      4267      4270      4271      4264      4267      4270      4272
      4264      4267      4270      4273      4265      4264      4267      4268
      4265      4264      4267      4269      4265      4264      4267      4270
      4266      4264      4267      4268      4266      4264      4267      4269
      4266      4264      4267      4270      4267      4270      4273      4274
      4267      4270      4273      4275      4267      4270      4273      4276
      4268      4267      4270      4271      4268      4267      4270      4272
      4268      4267      4270      4273      4269      4267      4270      4271
      4269      4267      4270      4272      4269      4267      4270      4273
      4270      4273      4276      4277      4270      4273      4276      4278
      4270      4273      4276      4279      4271      4270      4273      4274
      4271      4270      4273      4275      4271      4270      4273      4276
      4272      4270      4273      4274      4272      4270      4273      4275
      4272      4270      4273      4276      4273      4276      4279      4280
      4273      4276      4279      4281      4273      4276      4279      4282
      4274      4273      4276      4277      4274      4273      4276      4278
      4274      4273      4276      4279      4275      4273      4276      4277
      4275      4273      4276      4278      4275      4273      4276      4279
      4276      4279      4282      4283      4276      4279      4282      4284
      4276      4279      4282      4285      4277      4276      4279      4280
      4277      4276      4279      4281      4277      4276      4279      4282
      4278      4276      4279      4280      4278      4276      4279      4281
      4278      4276      4279      4282      4279      4282      4285      4286
      4279      4282      4285      4287      4279      4282      4285      4288
      4280      4279      4282      4283      4280      4279      4282      4284
      4280      4279      4282      4285      4281      4279      4282      4283
      4281      4279      4282      4284      4281      4279      4282      4285
      4283      4282      4285      4286      4283      4282      4285      4287
      4283      4282      4285      4288      4284      4282      4285      4286
      4284      4282      4285      4287      4284      4282      4285      4288
      4289      4290      4305      4306      4289      4290      4305      4307
      4289      4290      4305      4311      4290      4289      4293      4294
      4290      4289      4293      4295      4290      4289      4293      4296
      4290      4289      4297      4298      4290      4289      4297      4299
      4290      4289      4297      4300      4290      4289      4301      4302
      4290      4289      4301      4303      4290      4289      4301      4304
      4290      4305      4311      4308      4291      4290      4289      4293
      4291      4290      4289      4297      4291      4290      4289      4301
      4291      4290      4305      4306      4291      4290      4305      4307
      4291      4290      4305      4311      4292      4290      4289      4293
      4292      4290      4289      4297      4292      4290      4289      4301
      4292      4290      4305      4306      4292      4290      4305      4307
      4292      4290      4305      4311      4293      4289      4290      4305
      4293      4289      4297      4298      4293      4289      4297      4299
      4293      4289      4297      4300      4293      4289      4301      4302
      4293      4289      4301      4303      4293      4289      4301      4304
      4294      4293      4289      4297      4294      4293      4289      4301
      4295      4293      4289      4297      4295      4293      4289      4301
      4296      4293      4289      4297      4296      4293      4289      4301
      4297      4289      4290      4305      4297      4289      4301      4302
      4297      4289      4301      4303      4297      4289      4301      4304
      4298      4297      4289      4301      4299      4297      4289      4301
      4300      4297      4289      4301      4301      4289      4290      4305
      4305      4311      4308      4309      4305      4311      4308      4310
      4305      4311      4308      4312      4306      4305      4311      4308
      4307      4305      4311      4308      4308      4312      4313      4314
      4308      4312      4313      4315      4308      4312      4313      4316
      4309      4308      4312      4313      4310      4308      4312      4313
      4311      4308      4312      4313      4312      4313      4316      4317
      4312      4313      4316      4318      4312      4313      4316      4324
      4313      4316      4318      4319      4313      4316      4324      4325
      4313      4316      4324      4326      4313      4316      4324      4327
      4314      4313      4316      4317      4314      4313      4316      4318
      4314      4313      4316      4324      4315      4313      4316      4317
      4315      4313      4316      4318      4315      4313      4316      4324
      4316      4318      4319      4320      4316      4318      4319      4321
      4316      4324      4327      4328      4317      4316      4318      4319
      4317      4316      4324      4325      4317      4316      4324      4326
      4317      4316      4324      4327      4318      4316      4324      4325
      4318      4316      4324      4326      4318      4316      4324      4327
      4318      4319      4321      4322      4318      4319      4321      4323
      4318      4319      4321      4333      4319      4318      4316      4324
      4319      4321      4333      4334      4319      4321      4333      4335
      4319      4321      4333      4336      4320      4319      4321      4322
      4320      4319      4321      4323      4320      4319      4321      4333
      4321      4333      4336      4337      4321      4333      4336      4338
      4321      4333      4336      4339      4322      4321      4333      4334
      4322      4321      4333      4335      4322      4321      4333      4336
      4323      4321      4333      4334      4323      4321      4333      4335
      4323      4321      4333      4336      4324      4327      4328      4329
      4324      4327      4328      4330      4325      4324      4327      4328
      4326      4324      4327      4328      4327      4328      4330      4331
      4327      4328      4330      4332      4327      4328      4330      4380
      4328      4330      4380      4381      4328      4330      4380      4382
      4328      4330      4380      4383      4329      4328      4330      4331
      4329      4328      4330      4332      4329      4328      4330      4380
      4330      4380      4383      4384      4330      4380      4383      4385
      4330      4380      4383      4386      4331      4330      4380      4381
      4331      4330      4380      4382      4331      4330      4380      4383
      4332      4330      4380      4381      4332      4330      4380      4382
      4332      4330      4380      4383      4333      4336      4339      4340
      4333      4336      4339      4341      4333      4336      4339      4342
      4334      4333      4336      4337      4334      4333      4336      4338
      4334      4333      4336      4339      4335      4333      4336      4337
      4335      4333      4336      4338      4335      4333      4336      4339
      4336      4339      4342      4343      4336      4339      4342      4344
      4336      4339      4342      4345      4337      4336      4339      4340
      4337      4336      4339      4341      4337      4336      4339      4342
      4338      4336      4339      4340      4338      4336      4339      4341
      4338      4336      4339      4342      4339      4342      4345      4346
      4339      4342      4345      4347      4339      4342      4345      4348
      4340      4339      4342      4343      4340      4339      4342      4344
      4340      4339      4342      4345      4341      4339      4342      4343
      4341      4339      4342      4344      4341      4339      4342      4345
      4342      4345      4348      4349      4342      4345      4348      4350
      4342      4345      4348      4351      4343      4342      4345      4346
      4343      4342      4345      4347      4343      4342      4345      4348
      4344      4342      4345      4346      4344      4342      4345      4347
      4344      4342      4345      4348      4345      4348      4351      4352
      4345      4348      4351      4353      4346      4345      4348      4349
      4346      4345      4348      4350      4346      4345      4348      4351
      4347      4345      4348      4349      4347      4345      4348      4350
      4347      4345      4348      4351      4348      4351      4353      4354
      4348      4351      4353      4355      4349      4348      4351      4352
      4349      4348      4351      4353      4350      4348      4351      4352
      4350      4348      4351      4353      4351      4353      4355      4356
      4351      4353      4355      4357      4351      4353      4355      4358
      4352      4351      4353      4354      4352      4351      4353      4355
      4353      4355      4358      4359      4353      4355      4358      4360
      4353      4355      4358      4361      4354      4353      4355      4356
      4354      4353      4355      4357      4354      4353      4355      4358
      4355      4358      4361      4362      4355      4358      4361      4363
      4355      4358      4361      4364      4356      4355      4358      4359
      4356      4355      4358      4360      4356      4355      4358      4361
      4357      4355      4358      4359      4357      4355      4358      4360
      4357      4355      4358      4361      4358      4361      4364      4365
      4358      4361      4364      4366      4358      4361      4364      4367
      4359      4358      4361      4362      4359      4358      4361      4363
      4359      4358      4361      4364      4360      4358      4361      4362
      4360      4358      4361      4363      4360      4358      4361      4364
      4361      4364      4367      4368      4361      4364      4367      4369
      4361      4364      4367      4370      4362      4361      4364      4365
      4362      4361      4364      4366      4362      4361      4364      4367
      4363      4361      4364      4365      4363      4361      4364      4366
      4363      4361      4364      4367      4364      4367      4370      4371
      4364      4367      4370      4372      4364      4367      4370      4373
      4365      4364      4367      4368      4365      4364      4367      4369
      4365      4364      4367      4370      4366      4364      4367      4368
      4366      4364      4367      4369      4366      4364      4367      4370
      4367      4370      4373      4374      4367      4370      4373      4375
      4367      4370      4373      4376      4368      4367      4370      4371
      4368      4367      4370      4372      4368      4367      4370      4373
      4369      4367      4370      4371      4369      4367      4370      4372
      4369      4367      4370      4373      4370      4373      4376      4377
      4370      4373      4376      4378      4370      4373      4376      4379
      4371      4370      4373      4374      4371      4370      4373      4375
      4371      4370      4373      4376      4372      4370      4373      4374
      4372      4370      4373      4375      4372      4370      4373      4376
      4374      4373      4376      4377      4374      4373      4376      4378
      4374      4373      4376      4379      4375      4373      4376      4377
      4375      4373      4376      4378      4375      4373      4376      4379
      4380      4383      4386      4387      4380      4383      4386      4388
      4380      4383      4386      4389      4381      4380      4383      4384
      4381      4380      4383      4385      4381      4380      4383      4386
      4382      4380      4383      4384      4382      4380      4383      4385
      4382      4380      4383      4386      4383      4386      4389      4390
      4383      4386      4389      4391      4383      4386      4389      4392
      4384      4383      4386      4387      4384      4383      4386      4388
      4384      4383      4386      4389      4385      4383      4386      4387
      4385      4383      4386      4388      4385      4383      4386      4389
      4386      4389      4392      4393      4386      4389      4392      4394
      4386      4389      4392      4395      4387      4386      4389      4390
      4387      4386      4389      4391      4387      4386      4389      4392
      4388      4386      4389      4390      4388      4386      4389      4391
      4388      4386      4389      4392      4389      4392      4395      4396
      4389      4392      4395      4397      4389      4392      4395      4398
      4390      4389      4392      4393      4390      4389      4392      4394
      4390      4389      4392      4395      4391      4389      4392      4393
      4391      4389      4392      4394      4391      4389      4392      4395
      4392      4395      4398      4399      4392      4395      4398      4400
      4392      4395      4398      4401      4393      4392      4395      4396
      4393      4392      4395      4397      4393      4392      4395      4398
      4394      4392      4395      4396      4394      4392      4395      4397
      4394      4392      4395      4398      4395      4398      4401      4402
      4395      4398      4401      4403      4395      4398      4401      4404
      4396      4395      4398      4399      4396      4395      4398      4400
      4396      4395      4398      4401      4397      4395      4398      4399
      4397      4395      4398      4400      4397      4395      4398      4401
      4398      4401      4404      4405      4398      4401      4404      4406
      4398      4401      4404      4407      4399      4398      4401      4402
      4399      4398      4401      4403      4399      4398      4401      4404
      4400      4398      4401      4402      4400      4398      4401      4403
      4400      4398      4401      4404      4401      4404      4407      4408
      4401      4404      4407      4409      4401      4404      4407      4410
      4402      4401      4404      4405      4402      4401      4404      4406
      4402      4401      4404      4407      4403      4401      4404      4405
      4403      4401      4404      4406      4403      4401      4404      4407
      4404      4407      4410      4411      4404      4407      4410      4412
      4404      4407      4410      4413      4405      4404      4407      4408
      4405      4404      4407      4409      4405      4404      4407      4410
      4406      4404      4407      4408      4406      4404      4407      4409
      4406      4404      4407      4410      4407      4410      4413      4414
      4407      4410      4413      4415      4407      4410      4413      4416
      4408      4407      4410      4411      4408      4407      4410      4412
      4408      4407      4410      4413      4409      4407      4410      4411
      4409      4407      4410      4412      4409      4407      4410      4413
      4410      4413      4416      4417      4410      4413      4416      4418
      4410      4413      4416      4419      4411      4410      4413      4414
      4411      4410      4413      4415      4411      4410      4413      4416
      4412      4410      4413      4414      4412      4410      4413      4415
      4412      4410      4413      4416      4413      4416      4419      4420
      4413      4416      4419      4421      4413      4416      4419      4422
      4414      4413      4416      4417      4414      4413      4416      4418
      4414      4413      4416      4419      4415      4413      4416      4417
      4415      4413      4416      4418      4415      4413      4416      4419
      4417      4416      4419      4420      4417      4416      4419      4421
      4417      4416      4419      4422      4418      4416      4419      4420
      4418      4416      4419      4421      4418      4416      4419      4422
      4423      4424      4439      4440      4423      4424      4439      4441
      4423      4424      4439      4445      4424      4423      4427      4428
      4424      4423      4427      4429      4424      4423      4427      4430
      4424      4423      4431      4432      4424      4423      4431      4433
      4424      4423      4431      4434      4424      4423      4435      4436
      4424      4423      4435      4437      4424      4423      4435      4438
      4424      4439      4445      4442      4425      4424      4423      4427
      4425      4424      4423      4431      4425      4424      4423      4435
      4425      4424      4439      4440      4425      4424      4439      4441
      4425      4424      4439      4445      4426      4424      4423      4427
      4426      4424      4423      4431      4426      4424      4423      4435
      4426      4424      4439      4440      4426      4424      4439      4441
      4426      4424      4439      4445      4427      4423      4424      4439
      4427      4423      4431      4432      4427      4423      4431      4433
      4427      4423      4431      4434      4427      4423      4435      4436
      4427      4423      4435      4437      4427      4423      4435      4438
      4428      4427      4423      4431      4428      4427      4423      4435
      4429      4427      4423      4431      4429      4427      4423      4435
      4430      4427      4423      4431      4430      4427      4423      4435
      4431      4423      4424      4439      4431      4423      4435      4436
      4431      4423      4435      4437      4431      4423      4435      4438
      4432      4431      4423      4435      4433      4431      4423      4435
      4434      4431      4423      4435      4435      4423      4424      4439
      4439      4445      4442      4443      4439      4445      4442      4444
      4439      4445      4442      4446      4440      4439      4445      4442
      4441      4439      4445      4442      4442      4446      4447      4448
      4442      4446      4447      4449      4442      4446      4447      4450
      4443      4442      4446      4447      4444      4442      4446      4447
      4445      4442      4446      4447      4446      4447      4450      4451
      4446      4447      4450      4452      4446      4447      4450      4458
      4447      4450      4452      4453      4447      4450      4458      4459
      4447      4450      4458      4460      4447      4450      4458      4461
      4448      4447      4450      4451      4448      4447      4450      4452
      4448      4447      4450      4458      4449      4447      4450      4451
      4449      4447      4450      4452      4449      4447      4450      4458
      4450      4452      4453      4454      4450      4452      4453      4455
      4450      4458      4461      4462      4451      4450      4452      4453
      4451      4450      4458      4459      4451      4450      4458      4460
      4451      4450      4458      4461      4452      4450      4458      4459
      4452      4450      4458      4460      4452      4450      4458      4461
      4452      4453      4455      4456      4452      4453      4455      4457
      4452      4453      4455      4467      4453      4452      4450      4458
      4453      4455      4467      4468      4453      4455      4467      4469
      4453      4455      4467      4470      4454      4453      4455      4456
      4454      4453      4455      4457      4454      4453      4455      4467
      4455      4467      4470      4471      4455      4467      4470      4472
      4455      4467      4470      4473      4456      4455      4467      4468
      4456      4455      4467      4469      4456      4455      4467      4470
      4457      4455      4467      4468      4457      4455      4467      4469
      4457      4455      4467      4470      4458      4461      4462      4463
      4458      4461      4462      4464      4459      4458      4461      4462
      4460      4458      4461      4462      4461      4462      4464      4465
      4461      4462      4464      4466      4461      4462      4464      4514
      4462      4464      4514      4515      4462      4464      4514      4516
      4462      4464      4514      4517      4463      4462      4464      4465
      4463      4462      4464      4466      4463      4462      4464      4514
      4464      4514      4517      4518      4464      4514      4517      4519
      4464      4514      4517      4520      4465      4464      4514      4515
      4465      4464      4514      4516      4465      4464      4514      4517
      4466      4464      4514      4515      4466      4464      4514      4516
      4466      4464      4514      4517      4467      4470      4473      4474
      4467      4470      4473      4475      4467      4470      4473      4476
      4468      4467      4470      4471      4468      4467      4470      4472
      4468      4467      4470      4473      4469      4467      4470      4471
      4469      4467      4470      4472      4469      4467      4470      4473
      4470      4473      4476      4477      4470      4473      4476      4478
      4470      4473      4476      4479      4471      4470      4473      4474
      4471      4470      4473      4475      4471      4470      4473      4476
      4472      4470      4473      4474      4472      4470      4473      4475
      4472      4470      4473      4476      4473      4476      4479      4480
      4473      4476      4479      4481      4473      4476      4479      4482
      4474      4473      4476      4477      4474      4473      4476      4478
      4474      4473      4476      4479      4475      4473      4476      4477
      4475      4473      4476      4478      4475      4473      4476      4479
      4476      4479      4482      4483      4476      4479      4482      4484
      4476      4479      4482      4485      4477      4476      4479      4480
      4477      4476      4479      4481      4477      4476      4479      4482
      4478      4476      4479      4480      4478      4476      4479      4481
      4478      4476      4479      4482      4479      4482      4485      4486
      4479      4482      4485      4487      4480      4479      4482      4483
      4480      4479      4482      4484      4480      4479      4482      4485
      4481      4479      4482      4483      4481      4479      4482      4484
      4481      4479      4482      4485      4482      4485      4487      4488
      4482      4485      4487      4489      4483      4482      4485      4486
      4483      4482      4485      4487      4484      4482      4485      4486
      4484      4482      4485      4487      4485      4487      4489      4490
      4485      4487      4489      4491      4485      4487      4489      4492
      4486      4485      4487      4488      4486      4485      4487      4489
      4487      4489      4492      4493      4487      4489      4492      4494
      4487      4489      4492      4495      4488      4487      4489      4490
      4488      4487      4489      4491      4488      4487      4489      4492
      4489      4492      4495      4496      4489      4492      4495      4497
      4489      4492      4495      4498      4490      4489      4492      4493
      4490      4489      4492      4494      4490      4489      4492      4495
      4491      4489      4492      4493      4491      4489      4492      4494
      4491      4489      4492      4495      4492      4495      4498      4499
      4492      4495      4498      4500      4492      4495      4498      4501
      4493      4492      4495      4496      4493      4492      4495      4497
      4493      4492      4495      4498      4494      4492      4495      4496
      4494      4492      4495      4497      4494      4492      4495      4498
      4495      4498      4501      4502      4495      4498      4501      4503
      4495      4498      4501      4504      4496      4495      4498      4499
      4496      4495      4498      4500      4496      4495      4498      4501
      4497      4495      4498      4499      4497      4495      4498      4500
      4497      4495      4498      4501      4498      4501      4504      4505
      4498      4501      4504      4506      4498      4501      4504      4507
      4499      4498      4501      4502      4499      4498      4501      4503
      4499      4498      4501      4504      4500      4498      4501      4502
      4500      4498      4501      4503      4500      4498      4501      4504
      4501      4504      4507      4508      4501      4504      4507      4509
      4501      4504      4507      4510      4502      4501      4504      4505
      4502      4501      4504      4506      4502      4501      4504      4507
      4503      4501      4504      4505      4503      4501      4504      4506
      4503      4501      4504      4507      4504      4507      4510      4511
      4504      4507      4510      4512      4504      4507      4510      4513
      4505      4504      4507      4508      4505      4504      4507      4509
      4505      4504      4507      4510      4506      4504      4507      4508
      4506      4504      4507      4509      4506      4504      4507      4510
      4508      4507      4510      4511      4508      4507      4510      4512
      4508      4507      4510      4513      4509      4507      4510      4511
      4509      4507      4510      4512      4509      4507      4510      4513
      4514      4517      4520      4521      4514      4517      4520      4522
      4514      4517      4520      4523      4515      4514      4517      4518
      4515      4514      4517      4519      4515      4514      4517      4520
      4516      4514      4517      4518      4516      4514      4517      4519
      4516      4514      4517      4520      4517      4520      4523      4524
      4517      4520      4523      4525      4517      4520      4523      4526
      4518      4517      4520      4521      4518      4517      4520      4522
      4518      4517      4520      4523      4519      4517      4520      4521
      4519      4517      4520      4522      4519      4517      4520      4523
      4520      4523      4526      4527      4520      4523      4526      4528
      4520      4523      4526      4529      4521      4520      4523      4524
      4521      4520      4523      4525      4521      4520      4523      4526
      4522      4520      4523      4524      4522      4520      4523      4525
      4522      4520      4523      4526      4523      4526      4529      4530
      4523      4526      4529      4531      4523      4526      4529      4532
      4524      4523      4526      4527      4524      4523      4526      4528
      4524      4523      4526      4529      4525      4523      4526      4527
      4525      4523      4526      4528      4525      4523      4526      4529
      4526      4529      4532      4533      4526      4529      4532      4534
      4526      4529      4532      4535      4527      4526      4529      4530
      4527      4526      4529      4531      4527      4526      4529      4532
      4528      4526      4529      4530      4528      4526      4529      4531
      4528      4526      4529      4532      4529      4532      4535      4536
      4529      4532      4535      4537      4529      4532      4535      4538
      4530      4529      4532      4533      4530      4529      4532      4534
      4530      4529      4532      4535      4531      4529      4532      4533
      4531      4529      4532      4534      4531      4529      4532      4535
      4532      4535      4538      4539      4532      4535      4538      4540
      4532      4535      4538      4541      4533      4532      4535      4536
      4533      4532      4535      4537      4533      4532      4535      4538
      4534      4532      4535      4536      4534      4532      4535      4537
      4534      4532      4535      4538      4535      4538      4541      4542
      4535      4538      4541      4543      4535      4538      4541      4544
      4536      4535      4538      4539      4536      4535      4538      4540
      4536      4535      4538      4541      4537      4535      4538      4539
      4537      4535      4538      4540      4537      4535      4538      4541
      4538      4541      4544      4545      4538      4541      4544      4546
      4538      4541      4544      4547      4539      4538      4541      4542
      4539      4538      4541      4543      4539      4538      4541      4544
      4540      4538      4541      4542      4540      4538      4541      4543
      4540      4538      4541      4544      4541      4544      4547      4548
      4541      4544      4547      4549      4541      4544      4547      4550
      4542      4541      4544      4545      4542      4541      4544      4546
      4542      4541      4544      4547      4543      4541      4544      4545
      4543      4541      4544      4546      4543      4541      4544      4547
      4544      4547      4550      4551      4544      4547      4550      4552
      4544      4547      4550      4553      4545      4544      4547      4548
      4545      4544      4547      4549      4545      4544      4547      4550
      4546      4544      4547      4548      4546      4544      4547      4549
      4546      4544      4547      4550      4547      4550      4553      4554
      4547      4550      4553      4555      4547      4550      4553      4556
      4548      4547      4550      4551      4548      4547      4550      4552
      4548      4547      4550      4553      4549      4547      4550      4551
      4549      4547      4550      4552      4549      4547      4550      4553
      4551      4550      4553      4554      4551      4550      4553      4555
      4551      4550      4553      4556      4552      4550      4553      4554
      4552      4550      4553      4555      4552      4550      4553      4556
      4557      4558      4573      4574      4557      4558      4573      4575
      4557      4558      4573      4579      4558      4557      4561      4562
      4558      4557      4561      4563      4558      4557      4561      4564
      4558      4557      4565      4566      4558      4557      4565      4567
      4558      4557      4565      4568      4558      4557      4569      4570
      4558      4557      4569      4571      4558      4557      4569      4572
      4558      4573      4579      4576      4559      4558      4557      4561
      4559      4558      4557      4565      4559      4558      4557      4569
      4559      4558      4573      4574      4559      4558      4573      4575
      4559      4558      4573      4579      4560      4558      4557      4561
      4560      4558      4557      4565      4560      4558      4557      4569
      4560      4558      4573      4574      4560      4558      4573      4575
      4560      4558      4573      4579      4561      4557      4558      4573
      4561      4557      4565      4566      4561      4557      4565      4567
      4561      4557      4565      4568      4561      4557      4569      4570
      4561      4557      4569      4571      4561      4557      4569      4572
      4562      4561      4557      4565      4562      4561      4557      4569
      4563      4561      4557      4565      4563      4561      4557      4569
      4564      4561      4557      4565      4564      4561      4557      4569
      4565      4557      4558      4573      4565      4557      4569      4570
      4565      4557      4569      4571      4565      4557      4569      4572
      4566      4565      4557      4569      4567      4565      4557      4569
      4568      4565      4557      4569      4569      4557      4558      4573
      4573      4579      4576      4577      4573      4579      4576      4578
      4573      4579      4576      4580      4574      4573      4579      4576
      4575      4573      4579      4576      4576      4580      4581      4582
      4576      4580      4581      4583      4576      4580      4581      4584
      4577      4576      4580      4581      4578      4576      4580      4581
      4579      4576      4580      4581      4580      4581      4584      4585
      4580      4581      4584      4586      4580      4581      4584      4592
      4581      4584      4586      4587      4581      4584      4592      4593
      4581      4584      4592      4594      4581      4584      4592      4595
      4582      4581      4584      4585      4582      4581      4584      4586
      4582      4581      4584      4592      4583      4581      4584      4585
      4583      4581      4584      4586      4583      4581      4584      4592
      4584      4586      4587      4588      4584      4586      4587      4589
      4584      4592      4595      4596      4585      4584      4586      4587
      4585      4584      4592      4593      4585      4584      4592      4594
      4585      4584      4592      4595      4586      4584      4592      4593
      4586      4584      4592      4594      4586      4584      4592      4595
      4586      4587      4589      4590      4586      4587      4589      4591
      4586      4587      4589      4601      4587      4586      4584      4592
      4587      4589      4601      4602      4587      4589      4601      4603
      4587      4589      4601      4604      4588      4587      4589      4590
      4588      4587      4589      4591      4588      4587      4589      4601
      4589      4601      4604      4605      4589      4601      4604      4606
      4589      4601      4604      4607      4590      4589      4601      4602
      4590      4589      4601      4603      4590      4589      4601      4604
      4591      4589      4601      4602      4591      4589      4601      4603
      4591      4589      4601      4604      4592      4595      4596      4597
      4592      4595      4596      4598      4593      4592      4595      4596
      4594      4592      4595      4596      4595      4596      4598      4599
      4595      4596      4598      4600      4595      4596      4598      4648
      4596      4598      4648      4649      4596      4598      4648      4650
      4596      4598      4648      4651      4597      4596      4598      4599
      4597      4596      4598      4600      4597      4596      4598      4648
      4598      4648      4651      4652      4598      4648      4651      4653
      4598      4648      4651      4654      4599      4598      4648      4649
      4599      4598      4648      4650      4599      4598      4648      4651
      4600      4598      4648      4649      4600      4598      4648      4650
      4600      4598      4648      4651      4601      4604      4607      4608
      4601      4604      4607      4609      4601      4604      4607      4610
      4602      4601      4604      4605      4602      4601      4604      4606
      4602      4601      4604      4607      4603      4601      4604      4605
      4603      4601      4604      4606      4603      4601      4604      4607
      4604      4607      4610      4611      4604      4607      4610      4612
      4604      4607      4610      4613      4605      4604      4607      4608
      4605      4604      4607      4609      4605      4604      4607      4610
      4606      4604      4607      4608      4606      4604      4607      4609
      4606      4604      4607      4610      4607      4610      4613      4614
      4607      4610      4613      4615      4607      4610      4613      4616
      4608      4607      4610      4611      4608      4607      4610      4612
      4608      4607      4610      4613      4609      4607      4610      4611
      4609      4607      4610      4612      4609      4607      4610      4613
      4610      4613      4616      4617      4610      4613      4616      4618
      4610      4613      4616      4619      4611      4610      4613      4614
      4611      4610      4613      4615      4611      4610      4613      4616
      4612      4610      4613      4614      4612      4610      4613      4615
      4612      4610      4613      4616      4613      4616      4619      4620
      4613      4616      4619      4621      4614      4613      4616      4617
      4614      4613      4616      4618      4614      4613      4616      4619
      4615      4613      4616      4617      4615      4613      4616      4618
      4615      4613      4616      4619      4616      4619      4621      4622
      4616      4619      4621      4623      4617      4616      4619      4620
      4617      4616      4619      4621      4618      4616      4619      4620
      4618      4616      4619      4621      4619      4621      4623      4624
      4619      4621      4623      4625      4619      4621      4623      4626
      4620      4619      4621      4622      4620      4619      4621      4623
      4621      4623      4626      4627      4621      4623      4626      4628
      4621      4623      4626      4629      4622      4621      4623      4624
      4622      4621      4623      4625      4622      4621      4623      4626
      4623      4626      4629      4630      4623      4626      4629      4631
      4623      4626      4629      4632      4624      4623      4626      4627
      4624      4623      4626      4628      4624      4623      4626      4629
      4625      4623      4626      4627      4625      4623      4626      4628
      4625      4623      4626      4629      4626      4629      4632      4633
      4626      4629      4632      4634      4626      4629      4632      4635
      4627      4626      4629      4630      4627      4626      4629      4631
      4627      4626      4629      4632      4628      4626      4629      4630
      4628      4626      4629      4631      4628      4626      4629      4632
      4629      4632      4635      4636      4629      4632      4635      4637
      4629      4632      4635      4638      4630      4629      4632      4633
      4630      4629      4632      4634      4630      4629      4632      4635
      4631      4629      4632      4633      4631      4629      4632      4634
      4631      4629      4632      4635      4632      4635      4638      4639
      4632      4635      4638      4640      4632      4635      4638      4641
      4633      4632      4635      4636      4633      4632      4635      4637
      4633      4632      4635      4638      4634      4632      4635      4636
      4634      4632      4635      4637      4634      4632      4635      4638
      4635      4638      4641      4642      4635      4638      4641      4643
      4635      4638      4641      4644      4636      4635      4638      4639
      4636      4635      4638      4640      4636      4635      4638      4641
      4637      4635      4638      4639      4637      4635      4638      4640
      4637      4635      4638      4641      4638      4641      4644      4645
      4638      4641      4644      4646      4638      4641      4644      4647
      4639      4638      4641      4642      4639      4638      4641      4643
      4639      4638      4641      4644      4640      4638      4641      4642
      4640      4638      4641      4643      4640      4638      4641      4644
      4642      4641      4644      4645      4642      4641      4644      4646
      4642      4641      4644      4647      4643      4641      4644      4645
      4643      4641      4644      4646      4643      4641      4644      4647
      4648      4651      4654      4655      4648      4651      4654      4656
      4648      4651      4654      4657      4649      4648      4651      4652
      4649      4648      4651      4653      4649      4648      4651      4654
      4650      4648      4651      4652      4650      4648      4651      4653
      4650      4648      4651      4654      4651      4654      4657      4658
      4651      4654      4657      4659      4651      4654      4657      4660
      4652      4651      4654      4655      4652      4651      4654      4656
      4652      4651      4654      4657      4653      4651      4654      4655
      4653      4651      4654      4656      4653      4651      4654      4657
      4654      4657      4660      4661      4654      4657      4660      4662
      4654      4657      4660      4663      4655      4654      4657      4658
      4655      4654      4657      4659      4655      4654      4657      4660
      4656      4654      4657      4658      4656      4654      4657      4659
      4656      4654      4657      4660      4657      4660      4663      4664
      4657      4660      4663      4665      4657      4660      4663      4666
      4658      4657      4660      4661      4658      4657      4660      4662
      4658      4657      4660      4663      4659      4657      4660      4661
      4659      4657      4660      4662      4659      4657      4660      4663
      4660      4663      4666      4667      4660      4663      4666      4668
      4660      4663      4666      4669      4661      4660      4663      4664
      4661      4660      4663      4665      4661      4660      4663      4666
      4662      4660      4663      4664      4662      4660      4663      4665
      4662      4660      4663      4666      4663      4666      4669      4670
      4663      4666      4669      4671      4663      4666      4669      4672
      4664      4663      4666      4667      4664      4663      4666      4668
      4664      4663      4666      4669      4665      4663      4666      4667
      4665      4663      4666      4668      4665      4663      4666      4669
      4666      4669      4672      4673      4666      4669      4672      4674
      4666      4669      4672      4675      4667      4666      4669      4670
      4667      4666      4669      4671      4667      4666      4669      4672
      4668      4666      4669      4670      4668      4666      4669      4671
      4668      4666      4669      4672      4669      4672      4675      4676
      4669      4672      4675      4677      4669      4672      4675      4678
      4670      4669      4672      4673      4670      4669      4672      4674
      4670      4669      4672      4675      4671      4669      4672      4673
      4671      4669      4672      4674      4671      4669      4672      4675
      4672      4675      4678      4679      4672      4675      4678      4680
      4672      4675      4678      4681      4673      4672      4675      4676
      4673      4672      4675      4677      4673      4672      4675      4678
      4674      4672      4675      4676      4674      4672      4675      4677
      4674      4672      4675      4678      4675      4678      4681      4682
      4675      4678      4681      4683      4675      4678      4681      4684
      4676      4675      4678      4679      4676      4675      4678      4680
      4676      4675      4678      4681      4677      4675      4678      4679
      4677      4675      4678      4680      4677      4675      4678      4681
      4678      4681      4684      4685      4678      4681      4684      4686
      4678      4681      4684      4687      4679      4678      4681      4682
      4679      4678      4681      4683      4679      4678      4681      4684
      4680      4678      4681      4682      4680      4678      4681      4683
      4680      4678      4681      4684      4681      4684      4687      4688
      4681      4684      4687      4689      4681      4684      4687      4690
      4682      4681      4684      4685      4682      4681      4684      4686
      4682      4681      4684      4687      4683      4681      4684      4685
      4683      4681      4684      4686      4683      4681      4684      4687
      4685      4684      4687      4688      4685      4684      4687      4689
      4685      4684      4687      4690      4686      4684      4687      4688
      4686      4684      4687      4689      4686      4684      4687      4690
      4691      4692      4707      4708      4691      4692      4707      4709
      4691      4692      4707      4713      4692      4691      4695      4696
      4692      4691      4695      4697      4692      4691      4695      4698
      4692      4691      4699      4700      4692      4691      4699      4701
      4692      4691      4699      4702      4692      4691      4703      4704
      4692      4691      4703      4705      4692      4691      4703      4706
      4692      4707      4713      4710      4693      4692      4691      4695
      4693      4692      4691      4699      4693      4692      4691      4703
      4693      4692      4707      4708      4693      4692      4707      4709
      4693      4692      4707      4713      4694      4692      4691      4695
      4694      4692      4691      4699      4694      4692      4691      4703
      4694      4692      4707      4708      4694      4692      4707      4709
      4694      4692      4707      4713      4695      4691      4692      4707
      4695      4691      4699      4700      4695      4691      4699      4701
      4695      4691      4699      4702      4695      4691      4703      4704
      4695      4691      4703      4705      4695      4691      4703      4706
      4696      4695      4691      4699      4696      4695      4691      4703
      4697      4695      4691      4699      4697      4695      4691      4703
      4698      4695      4691      4699      4698      4695      4691      4703
      4699      4691      4692      4707      4699      4691      4703      4704
      4699      4691      4703      4705      4699      4691      4703      4706
      4700      4699      4691      4703      4701      4699      4691      4703
      4702      4699      4691      4703      4703      4691      4692      4707
      4707      4713      4710      4711      4707      4713      4710      4712
      4707      4713      4710      4714      4708      4707      4713      4710
      4709      4707      4713      4710      4710      4714      4715      4716
      4710      4714      4715      4717      4710      4714      4715      4718
      4711      4710      4714      4715      4712      4710      4714      4715
      4713      4710      4714      4715      4714      4715      4718      4719
      4714      4715      4718      4720      4714      4715      4718      4726
      4715      4718      4720      4721      4715      4718      4726      4727
      4715      4718      4726      4728      4715      4718      4726      4729
      4716      4715      4718      4719      4716      4715      4718      4720
      4716      4715      4718      4726      4717      4715      4718      4719
      4717      4715      4718      4720      4717      4715      4718      4726
      4718      4720      4721      4722      4718      4720      4721      4723
      4718      4726      4729      4730      4719      4718      4720      4721
      4719      4718      4726      4727      4719      4718      4726      4728
      4719      4718      4726      4729      4720      4718      4726      4727
      4720      4718      4726      4728      4720      4718      4726      4729
      4720      4721      4723      4724      4720      4721      4723      4725
      4720      4721      4723      4735      4721      4720      4718      4726
      4721      4723      4735      4736      4721      4723      4735      4737
      4721      4723      4735      4738      4722      4721      4723      4724
      4722      4721      4723      4725      4722      4721      4723      4735
      4723      4735      4738      4739      4723      4735      4738      4740
      4723      4735      4738      4741      4724      4723      4735      4736
      4724      4723      4735      4737      4724      4723      4735      4738
      4725      4723      4735      4736      4725      4723      4735      4737
      4725      4723      4735      4738      4726      4729      4730      4731
      4726      4729      4730      4732      4727      4726      4729      4730
      4728      4726      4729      4730      4729      4730      4732      4733
      4729      4730      4732      4734      4729      4730      4732      4782
      4730      4732      4782      4783      4730      4732      4782      4784
      4730      4732      4782      4785      4731      4730      4732      4733
      4731      4730      4732      4734      4731      4730      4732      4782
      4732      4782      4785      4786      4732      4782      4785      4787
      4732      4782      4785      4788      4733      4732      4782      4783
      4733      4732      4782      4784      4733      4732      4782      4785
      4734      4732      4782      4783      4734      4732      4782      4784
      4734      4732      4782      4785      4735      4738      4741      4742
      4735      4738      4741      4743      4735      4738      4741      4744
      4736      4735      4738      4739      4736      4735      4738      4740
      4736      4735      4738      4741      4737      4735      4738      4739
      4737      4735      4738      4740      4737      4735      4738      4741
      4738      4741      4744      4745      4738      4741      4744      4746
      4738      4741      4744      4747      4739      4738      4741      4742
      4739      4738      4741      4743      4739      4738      4741      4744
      4740      4738      4741      4742      4740      4738      4741      4743
      4740      4738      4741      4744      4741      4744      4747      4748
      4741      4744      4747      4749      4741      4744      4747      4750
      4742      4741      4744      4745      4742      4741      4744      4746
      4742      4741      4744      4747      4743      4741      4744      4745
      4743      4741      4744      4746      4743      4741      4744      4747
      4744      4747      4750      4751      4744      4747      4750      4752
      4744      4747      4750      4753      4745      4744      4747      4748
      4745      4744      4747      4749      4745      4744      4747      4750
      4746      4744      4747      4748      4746      4744      4747      4749
      4746      4744      4747      4750      4747      4750      4753      4754
      4747      4750      4753      4755      4748      4747      4750      4751
      4748      4747      4750      4752      4748      4747      4750      4753
      4749      4747      4750      4751      4749      4747      4750      4752
      4749      4747      4750      4753      4750      4753      4755      4756
      4750      4753      4755      4757      4751      4750      4753      4754
      4751      4750      4753      4755      4752      4750      4753      4754
      4752      4750      4753      4755      4753      4755      4757      4758
      4753      4755      4757      4759      4753      4755      4757      4760
      4754      4753      4755      4756      4754      4753      4755      4757
      4755      4757      4760      4761      4755      4757      4760      4762
      4755      4757      4760      4763      4756      4755      4757      4758
      4756      4755      4757      4759      4756      4755      4757      4760
      4757      4760      4763      4764      4757      4760      4763      4765
      4757      4760      4763      4766      4758      4757      4760      4761
      4758      4757      4760      4762      4758      4757      4760      4763
      4759      4757      4760      4761      4759      4757      4760      4762
      4759      4757      4760      4763      4760      4763      4766      4767
      4760      4763      4766      4768      4760      4763      4766      4769
      4761      4760      4763      4764      4761      4760      4763      4765
      4761      4760      4763      4766      4762      4760      4763      4764
      4762      4760      4763      4765      4762      4760      4763      4766
      4763      4766      4769      4770      4763      4766      4769      4771
      4763      4766      4769      4772      4764      4763      4766      4767
      4764      4763      4766      4768      4764      4763      4766      4769
      4765      4763      4766      4767      4765      4763      4766      4768
      4765      4763      4766      4769      4766      4769      4772      4773
      4766      4769      4772      4774      4766      4769      4772      4775
      4767      4766      4769      4770      4767      4766      4769      4771
      4767      4766      4769      4772      4768      4766      4769      4770
      4768      4766      4769      4771      4768      4766      4769      4772
      4769      4772      4775      4776      4769      4772      4775      4777
      4769      4772      4775      4778      4770      4769      4772      4773
      4770      4769      4772      4774      4770      4769      4772      4775
      4771      4769      4772      4773      4771      4769      4772      4774
      4771      4769      4772      4775      4772      4775      4778      4779
      4772      4775      4778      4780      4772      4775      4778      4781
      4773      4772      4775      4776      4773      4772      4775      4777
      4773      4772      4775      4778      4774      4772      4775      4776
      4774      4772      4775      4777      4774      4772      4775      4778
      4776      4775      4778      4779      4776      4775      4778      4780
      4776      4775      4778      4781      4777      4775      4778      4779
      4777      4775      4778      4780      4777      4775      4778      4781
      4782      4785      4788      4789      4782      4785      4788      4790
      4782      4785      4788      4791      4783      4782      4785      4786
      4783      4782      4785      4787      4783      4782      4785      4788
      4784      4782      4785      4786      4784      4782      4785      4787
      4784      4782      4785      4788      4785      4788      4791      4792
      4785      4788      4791      4793      4785      4788      4791      4794
      4786      4785      4788      4789      4786      4785      4788      4790
      4786      4785      4788      4791      4787      4785      4788      4789
      4787      4785      4788      4790      4787      4785      4788      4791
      4788      4791      4794      4795      4788      4791      4794      4796
      4788      4791      4794      4797      4789      4788      4791      4792
      4789      4788      4791      4793      4789      4788      4791      4794
      4790      4788      4791      4792      4790      4788      4791      4793
      4790      4788      4791      4794      4791      4794      4797      4798
      4791      4794      4797      4799      4791      4794      4797      4800
      4792      4791      4794      4795      4792      4791      4794      4796
      4792      4791      4794      4797      4793      4791      4794      4795
      4793      4791      4794      4796      4793      4791      4794      4797
      4794      4797      4800      4801      4794      4797      4800      4802
      4794      4797      4800      4803      4795      4794      4797      4798
      4795      4794      4797      4799      4795      4794      4797      4800
      4796      4794      4797      4798      4796      4794      4797      4799
      4796      4794      4797      4800      4797      4800      4803      4804
      4797      4800      4803      4805      4797      4800      4803      4806
      4798      4797      4800      4801      4798      4797      4800      4802
      4798      4797      4800      4803      4799      4797      4800      4801
      4799      4797      4800      4802      4799      4797      4800      4803
      4800      4803      4806      4807      4800      4803      4806      4808
      4800      4803      4806      4809      4801      4800      4803      4804
      4801      4800      4803      4805      4801      4800      4803      4806
      4802      4800      4803      4804      4802      4800      4803      4805
      4802      4800      4803      4806      4803      4806      4809      4810
      4803      4806      4809      4811      4803      4806      4809      4812
      4804      4803      4806      4807      4804      4803      4806      4808
      4804      4803      4806      4809      4805      4803      4806      4807
      4805      4803      4806      4808      4805      4803      4806      4809
      4806      4809      4812      4813      4806      4809      4812      4814
      4806      4809      4812      4815      4807      4806      4809      4810
      4807      4806      4809      4811      4807      4806      4809      4812
      4808      4806      4809      4810      4808      4806      4809      4811
      4808      4806      4809      4812      4809      4812      4815      4816
      4809      4812      4815      4817      4809      4812      4815      4818
      4810      4809      4812      4813      4810      4809      4812      4814
      4810      4809      4812      4815      4811      4809      4812      4813
      4811      4809      4812      4814      4811      4809      4812      4815
      4812      4815      4818      4819      4812      4815      4818      4820
      4812      4815      4818      4821      4813      4812      4815      4816
      4813      4812      4815      4817      4813      4812      4815      4818
      4814      4812      4815      4816      4814      4812      4815      4817
      4814      4812      4815      4818      4815      4818      4821      4822
      4815      4818      4821      4823      4815      4818      4821      4824
      4816      4815      4818      4819      4816      4815      4818      4820
      4816      4815      4818      4821      4817      4815      4818      4819
      4817      4815      4818      4820      4817      4815      4818      4821
      4819      4818      4821      4822      4819      4818      4821      4823
      4819      4818      4821      4824      4820      4818      4821      4822
      4820      4818      4821      4823      4820      4818      4821      4824
      4825      4826      4841      4842      4825      4826      4841      4843
      4825      4826      4841      4847      4826      4825      4829      4830
      4826      4825      4829      4831      4826      4825      4829      4832
      4826      4825      4833      4834      4826      4825      4833      4835
      4826      4825      4833      4836      4826      4825      4837      4838
      4826      4825      4837      4839      4826      4825      4837      4840
      4826      4841      4847      4844      4827      4826      4825      4829
      4827      4826      4825      4833      4827      4826      4825      4837
      4827      4826      4841      4842      4827      4826      4841      4843
      4827      4826      4841      4847      4828      4826      4825      4829
      4828      4826      4825      4833      4828      4826      4825      4837
      4828      4826      4841      4842      4828      4826      4841      4843
      4828      4826      4841      4847      4829      4825      4826      4841
      4829      4825      4833      4834      4829      4825      4833      4835
      4829      4825      4833      4836      4829      4825      4837      4838
      4829      4825      4837      4839      4829      4825      4837      4840
      4830      4829      4825      4833      4830      4829      4825      4837
      4831      4829      4825      4833      4831      4829      4825      4837
      4832      4829      4825      4833      4832      4829      4825      4837
      4833      4825      4826      4841      4833      4825      4837      4838
      4833      4825      4837      4839      4833      4825      4837      4840
      4834      4833      4825      4837      4835      4833      4825      4837
      4836      4833      4825      4837      4837      4825      4826      4841
      4841      4847      4844      4845      4841      4847      4844      4846
      4841      4847      4844      4848      4842      4841      4847      4844
      4843      4841      4847      4844      4844      4848      4849      4850
      4844      4848      4849      4851      4844      4848      4849      4852
      4845      4844      4848      4849      4846      4844      4848      4849
      4847      4844      4848      4849      4848      4849      4852      4853
      4848      4849      4852      4854      4848      4849      4852      4860
      4849      4852      4854      4855      4849      4852      4860      4861
      4849      4852      4860      4862      4849      4852      4860      4863
      4850      4849      4852      4853      4850      4849      4852      4854
      4850      4849      4852      4860      4851      4849      4852      4853
      4851      4849      4852      4854      4851      4849      4852      4860
      4852      4854      4855      4856      4852      4854      4855      4857
      4852      4860      4863      4864      4853      4852      4854      4855
      4853      4852      4860      4861      4853      4852      4860      4862
      4853      4852      4860      4863      4854      4852      4860      4861
      4854      4852      4860      4862      4854      4852      4860      4863
      4854      4855      4857      4858      4854      4855      4857      4859
      4854      4855      4857      4869      4855      4854      4852      4860
      4855      4857      4869      4870      4855      4857      4869      4871
      4855      4857      4869      4872      4856      4855      4857      4858
      4856      4855      4857      4859      4856      4855      4857      4869
      4857      4869      4872      4873      4857      4869      4872      4874
      4857      4869      4872      4875      4858      4857      4869      4870
      4858      4857      4869      4871      4858      4857      4869      4872
      4859      4857      4869      4870      4859      4857      4869      4871
      4859      4857      4869      4872      4860      4863      4864      4865
      4860      4863      4864      4866      4861      4860      4863      4864
      4862      4860      4863      4864      4863      4864      4866      4867
      4863      4864      4866      4868      4863      4864      4866      4916
      4864      4866      4916      4917      4864      4866      4916      4918
      4864      4866      4916      4919      4865      4864      4866      4867
      4865      4864      4866      4868      4865      4864      4866      4916
      4866      4916      4919      4920      4866      4916      4919      4921
      4866      4916      4919      4922      4867      4866      4916      4917
      4867      4866      4916      4918      4867      4866      4916      4919
      4868      4866      4916      4917      4868      4866      4916      4918
      4868      4866      4916      4919      4869      4872      4875      4876
      4869      4872      4875      4877      4869      4872      4875      4878
      4870      4869      4872      4873      4870      4869      4872      4874
      4870      4869      4872      4875      4871      4869      4872      4873
      4871      4869      4872      4874      4871      4869      4872      4875
      4872      4875      4878      4879      4872      4875      4878      4880
      4872      4875      4878      4881      4873      4872      4875      4876
      4873      4872      4875      4877      4873      4872      4875      4878
      4874      4872      4875      4876      4874      4872      4875      4877
      4874      4872      4875      4878      4875      4878      4881      4882
      4875      4878      4881      4883      4875      4878      4881      4884
      4876      4875      4878      4879      4876      4875      4878      4880
      4876      4875      4878      4881      4877      4875      4878      4879
      4877      4875      4878      4880      4877      4875      4878      4881
      4878      4881      4884      4885      4878      4881      4884      4886
      4878      4881      4884      4887      4879      4878      4881      4882
      4879      4878      4881      4883      4879      4878      4881      4884
      4880      4878      4881      4882      4880      4878      4881      4883
      4880      4878      4881      4884      4881      4884      4887      4888
      4881      4884      4887      4889      4882      4881      4884      4885
      4882      4881      4884      4886      4882      4881      4884      4887
      4883      4881      4884      4885      4883      4881      4884      4886
      4883      4881      4884      4887      4884      4887      4889      4890
      4884      4887      4889      4891      4885      4884      4887      4888
      4885      4884      4887      4889      4886      4884      4887      4888
      4886      4884      4887      4889      4887      4889      4891      4892
      4887      4889      4891      4893      4887      4889      4891      4894
      4888      4887      4889      4890      4888      4887      4889      4891
      4889      4891      4894      4895      4889      4891      4894      4896
      4889      4891      4894      4897      4890      4889      4891      4892
      4890      4889      4891      4893      4890      4889      4891      4894
      4891      4894      4897      4898      4891      4894      4897      4899
      4891      4894      4897      4900      4892      4891      4894      4895
      4892      4891      4894      4896      4892      4891      4894      4897
      4893      4891      4894      4895      4893      4891      4894      4896
      4893      4891      4894      4897      4894      4897      4900      4901
      4894      4897      4900      4902      4894      4897      4900      4903
      4895      4894      4897      4898      4895      4894      4897      4899
      4895      4894      4897      4900      4896      4894      4897      4898
      4896      4894      4897      4899      4896      4894      4897      4900
      4897      4900      4903      4904      4897      4900      4903      4905
      4897      4900      4903      4906      4898      4897      4900      4901
      4898      4897      4900      4902      4898      4897      4900      4903
      4899      4897      4900      4901      4899      4897      4900      4902
      4899      4897      4900      4903      4900      4903      4906      4907
      4900      4903      4906      4908      4900      4903      4906      4909
      4901      4900      4903      4904      4901      4900      4903      4905
      4901      4900      4903      4906      4902      4900      4903      4904
      4902      4900      4903      4905      4902      4900      4903      4906
      4903      4906      4909      4910      4903      4906      4909      4911
      4903      4906      4909      4912      4904      4903      4906      4907
      4904      4903      4906      4908      4904      4903      4906      4909
      4905      4903      4906      4907      4905      4903      4906      4908
      4905      4903      4906      4909      4906      4909      4912      4913
      4906      4909      4912      4914      4906      4909      4912      4915
      4907      4906      4909      4910      4907      4906      4909      4911
      4907      4906      4909      4912      4908      4906      4909      4910
      4908      4906      4909      4911      4908      4906      4909      4912
      4910      4909      4912      4913      4910      4909      4912      4914
      4910      4909      4912      4915      4911      4909      4912      4913
      4911      4909      4912      4914      4911      4909      4912      4915
      4916      4919      4922      4923      4916      4919      4922      4924
      4916      4919      4922      4925      4917      4916      4919      4920
      4917      4916      4919      4921      4917      4916      4919      4922
      4918      4916      4919      4920      4918      4916      4919      4921
      4918      4916      4919      4922      4919      4922      4925      4926
      4919      4922      4925      4927      4919      4922      4925      4928
      4920      4919      4922      4923      4920      4919      4922      4924
      4920      4919      4922      4925      4921      4919      4922      4923
      4921      4919      4922      4924      4921      4919      4922      4925
      4922      4925      4928      4929      4922      4925      4928      4930
      4922      4925      4928      4931      4923      4922      4925      4926
      4923      4922      4925      4927      4923      4922      4925      4928
      4924      4922      4925      4926      4924      4922      4925      4927
      4924      4922      4925      4928      4925      4928      4931      4932
      4925      4928      4931      4933      4925      4928      4931      4934
      4926      4925      4928      4929      4926      4925      4928      4930
      4926      4925      4928      4931      4927      4925      4928      4929
      4927      4925      4928      4930      4927      4925      4928      4931
      4928      4931      4934      4935      4928      4931      4934      4936
      4928      4931      4934      4937      4929      4928      4931      4932
      4929      4928      4931      4933      4929      4928      4931      4934
      4930      4928      4931      4932      4930      4928      4931      4933
      4930      4928      4931      4934      4931      4934      4937      4938
      4931      4934      4937      4939      4931      4934      4937      4940
      4932      4931      4934      4935      4932      4931      4934      4936
      4932      4931      4934      4937      4933      4931      4934      4935
      4933      4931      4934      4936      4933      4931      4934      4937
      4934      4937      4940      4941      4934      4937      4940      4942
      4934      4937      4940      4943      4935      4934      4937      4938
      4935      4934      4937      4939      4935      4934      4937      4940
      4936      4934      4937      4938      4936      4934      4937      4939
      4936      4934      4937      4940      4937      4940      4943      4944
      4937      4940      4943      4945      4937      4940      4943      4946
      4938      4937      4940      4941      4938      4937      4940      4942
      4938      4937      4940      4943      4939      4937      4940      4941
      4939      4937      4940      4942      4939      4937      4940      4943
      4940      4943      4946      4947      4940      4943      4946      4948
      4940      4943      4946      4949      4941      4940      4943      4944
      4941      4940      4943      4945      4941      4940      4943      4946
      4942      4940      4943      4944      4942      4940      4943      4945
      4942      4940      4943      4946      4943      4946      4949      4950
      4943      4946      4949      4951      4943      4946      4949      4952
      4944      4943      4946      4947      4944      4943      4946      4948
      4944      4943      4946      4949      4945      4943      4946      4947
      4945      4943      4946      4948      4945      4943      4946      4949
      4946      4949      4952      4953      4946      4949      4952      4954
      4946      4949      4952      4955      4947      4946      4949      4950
      4947      4946      4949      4951      4947      4946      4949      4952
      4948      4946      4949      4950      4948      4946      4949      4951
      4948      4946      4949      4952      4949      4952      4955      4956
      4949      4952      4955      4957      4949      4952      4955      4958
      4950      4949      4952      4953      4950      4949      4952      4954
      4950      4949      4952      4955      4951      4949      4952      4953
      4951      4949      4952      4954      4951      4949      4952      4955
      4953      4952      4955      4956      4953      4952      4955      4957
      4953      4952      4955      4958      4954      4952      4955      4956
      4954      4952      4955      4957      4954      4952      4955      4958
      4959      4960      4975      4976      4959      4960      4975      4977
      4959      4960      4975      4981      4960      4959      4963      4964
      4960      4959      4963      4965      4960      4959      4963      4966
      4960      4959      4967      4968      4960      4959      4967      4969
      4960      4959      4967      4970      4960      4959      4971      4972
      4960      4959      4971      4973      4960      4959      4971      4974
      4960      4975      4981      4978      4961      4960      4959      4963
      4961      4960      4959      4967      4961      4960      4959      4971
      4961      4960      4975      4976      4961      4960      4975      4977
      4961      4960      4975      4981      4962      4960      4959      4963
      4962      4960      4959      4967      4962      4960      4959      4971
      4962      4960      4975      4976      4962      4960      4975      4977
      4962      4960      4975      4981      4963      4959      4960      4975
      4963      4959      4967      4968      4963      4959      4967      4969
      4963      4959      4967      4970      4963      4959      4971      4972
      4963      4959      4971      4973      4963      4959      4971      4974
      4964      4963      4959      4967      4964      4963      4959      4971
      4965      4963      4959      4967      4965      4963      4959      4971
      4966      4963      4959      4967      4966      4963      4959      4971
      4967      4959      4960      4975      4967      4959      4971      4972
      4967      4959      4971      4973      4967      4959      4971      4974
      4968      4967      4959      4971      4969      4967      4959      4971
      4970      4967      4959      4971      4971      4959      4960      4975
      4975      4981      4978      4979      4975      4981      4978      4980
      4975      4981      4978      4982      4976      4975      4981      4978
      4977      4975      4981      4978      4978      4982      4983      4984
      4978      4982      4983      4985      4978      4982      4983      4986
      4979      4978      4982      4983      4980      4978      4982      4983
      4981      4978      4982      4983      4982      4983      4986      4987
      4982      4983      4986      4988      4982      4983      4986      4994
      4983      4986      4988      4989      4983      4986      4994      4995
      4983      4986      4994      4996      4983      4986      4994      4997
      4984      4983      4986      4987      4984      4983      4986      4988
      4984      4983      4986      4994      4985      4983      4986      4987
      4985      4983      4986      4988      4985      4983      4986      4994
      4986      4988      4989      4990      4986      4988      4989      4991
      4986      4994      4997      4998      4987      4986      4988      4989
      4987      4986      4994      4995      4987      4986      4994      4996
      4987      4986      4994      4997      4988      4986      4994      4995
      4988      4986      4994      4996      4988      4986      4994      4997
      4988      4989      4991      4992      4988      4989      4991      4993
      4988      4989      4991      5003      4989      4988      4986      4994
      4989      4991      5003      5004      4989      4991      5003      5005
      4989      4991      5003      5006      4990      4989      4991      4992
      4990      4989      4991      4993      4990      4989      4991      5003
      4991      5003      5006      5007      4991      5003      5006      5008
      4991      5003      5006      5009      4992      4991      5003      5004
      4992      4991      5003      5005      4992      4991      5003      5006
      4993      4991      5003      5004      4993      4991      5003      5005
      4993      4991      5003      5006      4994      4997      4998      4999
      4994      4997      4998      5000      4995      4994      4997      4998
      4996      4994      4997      4998      4997      4998      5000      5001
      4997      4998      5000      5002      4997      4998      5000      5050
      4998      5000      5050      5051      4998      5000      5050      5052
      4998      5000      5050      5053      4999      4998      5000      5001
      4999      4998      5000      5002      4999      4998      5000      5050
      5000      5050      5053      5054      5000      5050      5053      5055
      5000      5050      5053      5056      5001      5000      5050      5051
      5001      5000      5050      5052      5001      5000      5050      5053
      5002      5000      5050      5051      5002      5000      5050      5052
      5002      5000      5050      5053      5003      5006      5009      5010
      5003      5006      5009      5011      5003      5006      5009      5012
      5004      5003      5006      5007      5004      5003      5006      5008
      5004      5003      5006      5009      5005      5003      5006      5007
      5005      5003      5006      5008      5005      5003      5006      5009
      5006      5009      5012      5013      5006      5009      5012      5014
      5006      5009      5012      5015      5007      5006      5009      5010
      5007      5006      5009      5011      5007      5006      5009      5012
      5008      5006      5009      5010      5008      5006      5009      5011
      5008      5006      5009      5012      5009      5012      5015      5016
      5009      5012      5015      5017      5009      5012      5015      5018
      5010      5009      5012      5013      5010      5009      5012      5014
      5010      5009      5012      5015      5011      5009      5012      5013
      5011      5009      5012      5014      5011      5009      5012      5015
      5012      5015      5018      5019      5012      5015      5018      5020
      5012      5015      5018      5021      5013      5012      5015      5016
      5013      5012      5015      5017      5013      5012      5015      5018
      5014      5012      5015      5016      5014      5012      5015      5017
      5014      5012      5015      5018      5015      5018      5021      5022
      5015      5018      5021      5023      5016      5015      5018      5019
      5016      5015      5018      5020      5016      5015      5018      5021
      5017      5015      5018      5019      5017      5015      5018      5020
      5017      5015      5018      5021      5018      5021      5023      5024
      5018      5021      5023      5025      5019      5018      5021      5022
      5019      5018      5021      5023      5020      5018      5021      5022
      5020      5018      5021      5023      5021      5023      5025      5026
      5021      5023      5025      5027      5021      5023      5025      5028
      5022      5021      5023      5024      5022      5021      5023      5025
      5023      5025      5028      5029      5023      5025      5028      5030
      5023      5025      5028      5031      5024      5023      5025      5026
      5024      5023      5025      5027      5024      5023      5025      5028
      5025      5028      5031      5032      5025      5028      5031      5033
      5025      5028      5031      5034      5026      5025      5028      5029
      5026      5025      5028      5030      5026      5025      5028      5031
      5027      5025      5028      5029      5027      5025      5028      5030
      5027      5025      5028      5031      5028      5031      5034      5035
      5028      5031      5034      5036      5028      5031      5034      5037
      5029      5028      5031      5032      5029      5028      5031      5033
      5029      5028      5031      5034      5030      5028      5031      5032
      5030      5028      5031      5033      5030      5028      5031      5034
      5031      5034      5037      5038      5031      5034      5037      5039
      5031      5034      5037      5040      5032      5031      5034      5035
      5032      5031      5034      5036      5032      5031      5034      5037
      5033      5031      5034      5035      5033      5031      5034      5036
      5033      5031      5034      5037      5034      5037      5040      5041
      5034      5037      5040      5042      5034      5037      5040      5043
      5035      5034      5037      5038      5035      5034      5037      5039
      5035      5034      5037      5040      5036      5034      5037      5038
      5036      5034      5037      5039      5036      5034      5037      5040
      5037      5040      5043      5044      5037      5040      5043      5045
      5037      5040      5043      5046      5038      5037      5040      5041
      5038      5037      5040      5042      5038      5037      5040      5043
      5039      5037      5040      5041      5039      5037      5040      5042
      5039      5037      5040      5043      5040      5043      5046      5047
      5040      5043      5046      5048      5040      5043      5046      5049
      5041      5040      5043      5044      5041      5040      5043      5045
      5041      5040      5043      5046      5042      5040      5043      5044
      5042      5040      5043      5045      5042      5040      5043      5046
      5044      5043      5046      5047      5044      5043      5046      5048
      5044      5043      5046      5049      5045      5043      5046      5047
      5045      5043      5046      5048      5045      5043      5046      5049
      5050      5053      5056      5057      5050      5053      5056      5058
      5050      5053      5056      5059      5051      5050      5053      5054
      5051      5050      5053      5055      5051      5050      5053      5056
      5052      5050      5053      5054      5052      5050      5053      5055
      5052      5050      5053      5056      5053      5056      5059      5060
      5053      5056      5059      5061      5053      5056      5059      5062
      5054      5053      5056      5057      5054      5053      5056      5058
      5054      5053      5056      5059      5055      5053      5056      5057
      5055      5053      5056      5058      5055      5053      5056      5059
      5056      5059      5062      5063      5056      5059      5062      5064
      5056      5059      5062      5065      5057      5056      5059      5060
      5057      5056      5059      5061      5057      5056      5059      5062
      5058      5056      5059      5060      5058      5056      5059      5061
      5058      5056      5059      5062      5059      5062      5065      5066
      5059      5062      5065      5067      5059      5062      5065      5068
      5060      5059      5062      5063      5060      5059      5062      5064
      5060      5059      5062      5065      5061      5059      5062      5063
      5061      5059      5062      5064      5061      5059      5062      5065
      5062      5065      5068      5069      5062      5065      5068      5070
      5062      5065      5068      5071      5063      5062      5065      5066
      5063      5062      5065      5067      5063      5062      5065      5068
      5064      5062      5065      5066      5064      5062      5065      5067
      5064      5062      5065      5068      5065      5068      5071      5072
      5065      5068      5071      5073      5065      5068      5071      5074
      5066      5065      5068      5069      5066      5065      5068      5070
      5066      5065      5068      5071      5067      5065      5068      5069
      5067      5065      5068      5070      5067      5065      5068      5071
      5068      5071      5074      5075      5068      5071      5074      5076
      5068      5071      5074      5077      5069      5068      5071      5072
      5069      5068      5071      5073      5069      5068      5071      5074
      5070      5068      5071      5072      5070      5068      5071      5073
      5070      5068      5071      5074      5071      5074      5077      5078
      5071      5074      5077      5079      5071      5074      5077      5080
      5072      5071      5074      5075      5072      5071      5074      5076
      5072      5071      5074      5077      5073      5071      5074      5075
      5073      5071      5074      5076      5073      5071      5074      5077
      5074      5077      5080      5081      5074      5077      5080      5082
      5074      5077      5080      5083      5075      5074      5077      5078
      5075      5074      5077      5079      5075      5074      5077      5080
      5076      5074      5077      5078      5076      5074      5077      5079
      5076      5074      5077      5080      5077      5080      5083      5084
      5077      5080      5083      5085      5077      5080      5083      5086
      5078      5077      5080      5081      5078      5077      5080      5082
      5078      5077      5080      5083      5079      5077      5080      5081
      5079      5077      5080      5082      5079      5077      5080      5083
      5080      5083      5086      5087      5080      5083      5086      5088
      5080      5083      5086      5089      5081      5080      5083      5084
      5081      5080      5083      5085      5081      5080      5083      5086
      5082      5080      5083      5084      5082      5080      5083      5085
      5082      5080      5083      5086      5083      5086      5089      5090
      5083      5086      5089      5091      5083      5086      5089      5092
      5084      5083      5086      5087      5084      5083      5086      5088
      5084      5083      5086      5089      5085      5083      5086      5087
      5085      5083      5086      5088      5085      5083      5086      5089
      5087      5086      5089      5090      5087      5086      5089      5091
      5087      5086      5089      5092      5088      5086      5089      5090
      5088      5086      5089      5091      5088      5086      5089      5092
      5093      5094      5109      5110      5093      5094      5109      5111
      5093      5094      5109      5115      5094      5093      5097      5098
      5094      5093      5097      5099      5094      5093      5097      5100
      5094      5093      5101      5102      5094      5093      5101      5103
      5094      5093      5101      5104      5094      5093      5105      5106
      5094      5093      5105      5107      5094      5093      5105      5108
      5094      5109      5115      5112      5095      5094      5093      5097
      5095      5094      5093      5101      5095      5094      5093      5105
      5095      5094      5109      5110      5095      5094      5109      5111
      5095      5094      5109      5115      5096      5094      5093      5097
      5096      5094      5093      5101      5096      5094      5093      5105
      5096      5094      5109      5110      5096      5094      5109      5111
      5096      5094      5109      5115      5097      5093      5094      5109
      5097      5093      5101      5102      5097      5093      5101      5103
      5097      5093      5101      5104      5097      5093      5105      5106
      5097      5093      5105      5107      5097      5093      5105      5108
      5098      5097      5093      5101      5098      5097      5093      5105
      5099      5097      5093      5101      5099      5097      5093      5105
      5100      5097      5093      5101      5100      5097      5093      5105
      5101      5093      5094      5109      5101      5093      5105      5106
      5101      5093      5105      5107      5101      5093      5105      5108
      5102      5101      5093      5105      5103      5101      5093      5105
      5104      5101      5093      5105      5105      5093      5094      5109
      5109      5115      5112      5113      5109      5115      5112      5114
      5109      5115      5112      5116      5110      5109      5115      5112
      5111      5109      5115      5112      5112      5116      5117      5118
      5112      5116      5117      5119      5112      5116      5117      5120
      5113      5112      5116      5117      5114      5112      5116      5117
      5115      5112      5116      5117      5116      5117      5120      5121
      5116      5117      5120      5122      5116      5117      5120      5128
      5117      5120      5122      5123      5117      5120      5128      5129
      5117      5120      5128      5130      5117      5120      5128      5131
      5118      5117      5120      5121      5118      5117      5120      5122
      5118      5117      5120      5128      5119      5117      5120      5121
      5119      5117      5120      5122      5119      5117      5120      5128
      5120      5122      5123      5124      5120      5122      5123      5125
      5120      5128      5131      5132      5121      5120      5122      5123
      5121      5120      5128      5129      5121      5120      5128      5130
      5121      5120      5128      5131      5122      5120      5128      5129
      5122      5120      5128      5130      5122      5120      5128      5131
      5122      5123      5125      5126      5122      5123      5125      5127
      5122      5123      5125      5137      5123      5122      5120      5128
      5123      5125      5137      5138      5123      5125      5137      5139
      5123      5125      5137      5140      5124      5123      5125      5126
      5124      5123      5125      5127      5124      5123      5125      5137
      5125      5137      5140      5141      5125      5137      5140      5142
      5125      5137      5140      5143      5126      5125      5137      5138
      5126      5125      5137      5139      5126      5125      5137      5140
      5127      5125      5137      5138      5127      5125      5137      5139
      5127      5125      5137      5140      5128      5131      5132      5133
      5128      5131      5132      5134      5129      5128      5131      5132
      5130      5128      5131      5132      5131      5132      5134      5135
      5131      5132      5134      5136      5131      5132      5134      5184
      5132      5134      5184      5185      5132      5134      5184      5186
      5132      5134      5184      5187      5133      5132      5134      5135
      5133      5132      5134      5136      5133      5132      5134      5184
      5134      5184      5187      5188      5134      5184      5187      5189
      5134      5184      5187      5190      5135      5134      5184      5185
      5135      5134      5184      5186      5135      5134      5184      5187
      5136      5134      5184      5185      5136      5134      5184      5186
      5136      5134      5184      5187      5137      5140      5143      5144
      5137      5140      5143      5145      5137      5140      5143      5146
      5138      5137      5140      5141      5138      5137      5140      5142
      5138      5137      5140      5143      5139      5137      5140      5141
      5139      5137      5140      5142      5139      5137      5140      5143
      5140      5143      5146      5147      5140      5143      5146      5148
      5140      5143      5146      5149      5141      5140      5143      5144
      5141      5140      5143      5145      5141      5140      5143      5146
      5142      5140      5143      5144      5142      5140      5143      5145
      5142      5140      5143      5146      5143      5146      5149      5150
      5143      5146      5149      5151      5143      5146      5149      5152
      5144      5143      5146      5147      5144      5143      5146      5148
      5144      5143      5146      5149      5145      5143      5146      5147
      5145      5143      5146      5148      5145      5143      5146      5149
      5146      5149      5152      5153      5146      5149      5152      5154
      5146      5149      5152      5155      5147      5146      5149      5150
      5147      5146      5149      5151      5147      5146      5149      5152
      5148      5146      5149      5150      5148      5146      5149      5151
      5148      5146      5149      5152      5149      5152      5155      5156
      5149      5152      5155      5157      5150      5149      5152      5153
      5150      5149      5152      5154      5150      5149      5152      5155
      5151      5149      5152      5153      5151      5149      5152      5154
      5151      5149      5152      5155      5152      5155      5157      5158
      5152      5155      5157      5159      5153      5152      5155      5156
      5153      5152      5155      5157      5154      5152      5155      5156
      5154      5152      5155      5157      5155      5157      5159      5160
      5155      5157      5159      5161      5155      5157      5159      5162
      5156      5155      5157      5158      5156      5155      5157      5159
      5157      5159      5162      5163      5157      5159      5162      5164
      5157      5159      5162      5165      5158      5157      5159      5160
      5158      5157      5159      5161      5158      5157      5159      5162
      5159      5162      5165      5166      5159      5162      5165      5167
      5159      5162      5165      5168      5160      5159      5162      5163
      5160      5159      5162      5164      5160      5159      5162      5165
      5161      5159      5162      5163      5161      5159      5162      5164
      5161      5159      5162      5165      5162      5165      5168      5169
      5162      5165      5168      5170      5162      5165      5168      5171
      5163      5162      5165      5166      5163      5162      5165      5167
      5163      5162      5165      5168      5164      5162      5165      5166
      5164      5162      5165      5167      5164      5162      5165      5168
      5165      5168      5171      5172      5165      5168      5171      5173
      5165      5168      5171      5174      5166      5165      5168      5169
      5166      5165      5168      5170      5166      5165      5168      5171
      5167      5165      5168      5169      5167      5165      5168      5170
      5167      5165      5168      5171      5168      5171      5174      5175
      5168      5171      5174      5176      5168      5171      5174      5177
      5169      5168      5171      5172      5169      5168      5171      5173
      5169      5168      5171      5174      5170      5168      5171      5172
      5170      5168      5171      5173      5170      5168      5171      5174
      5171      5174      5177      5178      5171      5174      5177      5179
      5171      5174      5177      5180      5172      5171      5174      5175
      5172      5171      5174      5176      5172      5171      5174      5177
      5173      5171      5174      5175      5173      5171      5174      5176
      5173      5171      5174      5177      5174      5177      5180      5181
      5174      5177      5180      5182      5174      5177      5180      5183
      5175      5174      5177      5178      5175      5174      5177      5179
      5175      5174      5177      5180      5176      5174      5177      5178
      5176      5174      5177      5179      5176      5174      5177      5180
      5178      5177      5180      5181      5178      5177      5180      5182
      5178      5177      5180      5183      5179      5177      5180      5181
      5179      5177      5180      5182      5179      5177      5180      5183
      5184      5187      5190      5191      5184      5187      5190      5192
      5184      5187      5190      5193      5185      5184      5187      5188
      5185      5184      5187      5189      5185      5184      5187      5190
      5186      5184      5187      5188      5186      5184      5187      5189
      5186      5184      5187      5190      5187      5190      5193      5194
      5187      5190      5193      5195      5187      5190      5193      5196
      5188      5187      5190      5191      5188      5187      5190      5192
      5188      5187      5190      5193      5189      5187      5190      5191
      5189      5187      5190      5192      5189      5187      5190      5193
      5190      5193      5196      5197      5190      5193      5196      5198
      5190      5193      5196      5199      5191      5190      5193      5194
      5191      5190      5193      5195      5191      5190      5193      5196
      5192      5190      5193      5194      5192      5190      5193      5195
      5192      5190      5193      5196      5193      5196      5199      5200
      5193      5196      5199      5201      5193      5196      5199      5202
      5194      5193      5196      5197      5194      5193      5196      5198
      5194      5193      5196      5199      5195      5193      5196      5197
      5195      5193      5196      5198      5195      5193      5196      5199
      5196      5199      5202      5203      5196      5199      5202      5204
      5196      5199      5202      5205      5197      5196      5199      5200
      5197      5196      5199      5201      5197      5196      5199      5202
      5198      5196      5199      5200      5198      5196      5199      5201
      5198      5196      5199      5202      5199      5202      5205      5206
      5199      5202      5205      5207      5199      5202      5205      5208
      5200      5199      5202      5203      5200      5199      5202      5204
      5200      5199      5202      5205      5201      5199      5202      5203
      5201      5199      5202      5204      5201      5199      5202      5205
      5202      5205      5208      5209      5202      5205      5208      5210
      5202      5205      5208      5211      5203      5202      5205      5206
      5203      5202      5205      5207      5203      5202      5205      5208
      5204      5202      5205      5206      5204      5202      5205      5207
      5204      5202      5205      5208      5205      5208      5211      5212
      5205      5208      5211      5213      5205      5208      5211      5214
      5206      5205      5208      5209      5206      5205      5208      5210
      5206      5205      5208      5211      5207      5205      5208      5209
      5207      5205      5208      5210      5207      5205      5208      5211
      5208      5211      5214      5215      5208      5211      5214      5216
      5208      5211      5214      5217      5209      5208      5211      5212
      5209      5208      5211      5213      5209      5208      5211      5214
      5210      5208      5211      5212      5210      5208      5211      5213
      5210      5208      5211      5214      5211      5214      5217      5218
      5211      5214      5217      5219      5211      5214      5217      5220
      5212      5211      5214      5215      5212      5211      5214      5216
      5212      5211      5214      5217      5213      5211      5214      5215
      5213      5211      5214      5216      5213      5211      5214      5217
      5214      5217      5220      5221      5214      5217      5220      5222
      5214      5217      5220      5223      5215      5214      5217      5218
      5215      5214      5217      5219      5215      5214      5217      5220
      5216      5214      5217      5218      5216      5214      5217      5219
      5216      5214      5217      5220      5217      5220      5223      5224
      5217      5220      5223      5225      5217      5220      5223      5226
      5218      5217      5220      5221      5218      5217      5220      5222
      5218      5217      5220      5223      5219      5217      5220      5221
      5219      5217      5220      5222      5219      5217      5220      5223
      5221      5220      5223      5224      5221      5220      5223      5225
      5221      5220      5223      5226      5222      5220      5223      5224
      5222      5220      5223      5225      5222      5220      5223      5226
      5227      5228      5243      5244      5227      5228      5243      5245
      5227      5228      5243      5249      5228      5227      5231      5232
      5228      5227      5231      5233      5228      5227      5231      5234
      5228      5227      5235      5236      5228      5227      5235      5237
      5228      5227      5235      5238      5228      5227      5239      5240
      5228      5227      5239      5241      5228      5227      5239      5242
      5228      5243      5249      5246      5229      5228      5227      5231
      5229      5228      5227      5235      5229      5228      5227      5239
      5229      5228      5243      5244      5229      5228      5243      5245
      5229      5228      5243      5249      5230      5228      5227      5231
      5230      5228      5227      5235      5230      5228      5227      5239
      5230      5228      5243      5244      5230      5228      5243      5245
      5230      5228      5243      5249      5231      5227      5228      5243
      5231      5227      5235      5236      5231      5227      5235      5237
      5231      5227      5235      5238      5231      5227      5239      5240
      5231      5227      5239      5241      5231      5227      5239      5242
      5232      5231      5227      5235      5232      5231      5227      5239
      5233      5231      5227      5235      5233      5231      5227      5239
      5234      5231      5227      5235      5234      5231      5227      5239
      5235      5227      5228      5243      5235      5227      5239      5240
      5235      5227      5239      5241      5235      5227      5239      5242
      5236      5235      5227      5239      5237      5235      5227      5239
      5238      5235      5227      5239      5239      5227      5228      5243
      5243      5249      5246      5247      5243      5249      5246      5248
      5243      5249      5246      5250      5244      5243      5249      5246
      5245      5243      5249      5246      5246      5250      5251      5252
      5246      5250      5251      5253      5246      5250      5251      5254
      5247      5246      5250      5251      5248      5246      5250      5251
      5249      5246      5250      5251      5250      5251      5254      5255
      5250      5251      5254      5256      5250      5251      5254      5262
      5251      5254      5256      5257      5251      5254      5262      5263
      5251      5254      5262      5264      5251      5254      5262      5265
      5252      5251      5254      5255      5252      5251      5254      5256
      5252      5251      5254      5262      5253      5251      5254      5255
      5253      5251      5254      5256      5253      5251      5254      5262
      5254      5256      5257      5258      5254      5256      5257      5259
      5254      5262      5265      5266      5255      5254      5256      5257
      5255      5254      5262      5263      5255      5254      5262      5264
      5255      5254      5262      5265      5256      5254      5262      5263
      5256      5254      5262      5264      5256      5254      5262      5265
      5256      5257      5259      5260      5256      5257      5259      5261
      5256      5257      5259      5271      5257      5256      5254      5262
      5257      5259      5271      5272      5257      5259      5271      5273
      5257      5259      5271      5274      5258      5257      5259      5260
      5258      5257      5259      5261      5258      5257      5259      5271
      5259      5271      5274      5275      5259      5271      5274      5276
      5259      5271      5274      5277      5260      5259      5271      5272
      5260      5259      5271      5273      5260      5259      5271      5274
      5261      5259      5271      5272      5261      5259      5271      5273
      5261      5259      5271      5274      5262      5265      5266      5267
      5262      5265      5266      5268      5263      5262      5265      5266
      5264      5262      5265      5266      5265      5266      5268      5269
      5265      5266      5268      5270      5265      5266      5268      5318
      5266      5268      5318      5319      5266      5268      5318      5320
      5266      5268      5318      5321      5267      5266      5268      5269
      5267      5266      5268      5270      5267      5266      5268      5318
      5268      5318      5321      5322      5268      5318      5321      5323
      5268      5318      5321      5324      5269      5268      5318      5319
      5269      5268      5318      5320      5269      5268      5318      5321
      5270      5268      5318      5319      5270      5268      5318      5320
      5270      5268      5318      5321      5271      5274      5277      5278
      5271      5274      5277      5279      5271      5274      5277      5280
      5272      5271      5274      5275      5272      5271      5274      5276
      5272      5271      5274      5277      5273      5271      5274      5275
      5273      5271      5274      5276      5273      5271      5274      5277
      5274      5277      5280      5281      5274      5277      5280      5282
      5274      5277      5280      5283      5275      5274      5277      5278
      5275      5274      5277      5279      5275      5274      5277      5280
      5276      5274      5277      5278      5276      5274      5277      5279
      5276      5274      5277      5280      5277      5280      5283      5284
      5277      5280      5283      5285      5277      5280      5283      5286
      5278      5277      5280      5281      5278      5277      5280      5282
      5278      5277      5280      5283      5279      5277      5280      5281
      5279      5277      5280      5282      5279      5277      5280      5283
      5280      5283      5286      5287      5280      5283      5286      5288
      5280      5283      5286      5289      5281      5280      5283      5284
      5281      5280      5283      5285      5281      5280      5283      5286
      5282      5280      5283      5284      5282      5280      5283      5285
      5282      5280      5283      5286      5283      5286      5289      5290
      5283      5286      5289      5291      5284      5283      5286      5287
      5284      5283      5286      5288      5284      5283      5286      5289
      5285      5283      5286      5287      5285      5283      5286      5288
      5285      5283      5286      5289      5286      5289      5291      5292
      5286      5289      5291      5293      5287      5286      5289      5290
      5287      5286      5289      5291      5288      5286      5289      5290
      5288      5286      5289      5291      5289      5291      5293      5294
      5289      5291      5293      5295      5289      5291      5293      5296
      5290      5289      5291      5292      5290      5289      5291      5293
      5291      5293      5296      5297      5291      5293      5296      5298
      5291      5293      5296      5299      5292      5291      5293      5294
      5292      5291      5293      5295      5292      5291      5293      5296
      5293      5296      5299      5300      5293      5296      5299      5301
      5293      5296      5299      5302      5294      5293      5296      5297
      5294      5293      5296      5298      5294      5293      5296      5299
      5295      5293      5296      5297      5295      5293      5296      5298
      5295      5293      5296      5299      5296      5299      5302      5303
      5296      5299      5302      5304      5296      5299      5302      5305
      5297      5296      5299      5300      5297      5296      5299      5301
      5297      5296      5299      5302      5298      5296      5299      5300
      5298      5296      5299      5301      5298      5296      5299      5302
      5299      5302      5305      5306      5299      5302      5305      5307
      5299      5302      5305      5308      5300      5299      5302      5303
      5300      5299      5302      5304      5300      5299      5302      5305
      5301      5299      5302      5303      5301      5299      5302      5304
      5301      5299      5302      5305      5302      5305      5308      5309
      5302      5305      5308      5310      5302      5305      5308      5311
      5303      5302      5305      5306      5303      5302      5305      5307
      5303      5302      5305      5308      5304      5302      5305      5306
      5304      5302      5305      5307      5304      5302      5305      5308
      5305      5308      5311      5312      5305      5308      5311      5313
      5305      5308      5311      5314      5306      5305      5308      5309
      5306      5305      5308      5310      5306      5305      5308      5311
      5307      5305      5308      5309      5307      5305      5308      5310
      5307      5305      5308      5311      5308      5311      5314      5315
      5308      5311      5314      5316      5308      5311      5314      5317
      5309      5308      5311      5312      5309      5308      5311      5313
      5309      5308      5311      5314      5310      5308      5311      5312
      5310      5308      5311      5313      5310      5308      5311      5314
      5312      5311      5314      5315      5312      5311      5314      5316
      5312      5311      5314      5317      5313      5311      5314      5315
      5313      5311      5314      5316      5313      5311      5314      5317
      5318      5321      5324      5325      5318      5321      5324      5326
      5318      5321      5324      5327      5319      5318      5321      5322
      5319      5318      5321      5323      5319      5318      5321      5324
      5320      5318      5321      5322      5320      5318      5321      5323
      5320      5318      5321      5324      5321      5324      5327      5328
      5321      5324      5327      5329      5321      5324      5327      5330
      5322      5321      5324      5325      5322      5321      5324      5326
      5322      5321      5324      5327      5323      5321      5324      5325
      5323      5321      5324      5326      5323      5321      5324      5327
      5324      5327      5330      5331      5324      5327      5330      5332
      5324      5327      5330      5333      5325      5324      5327      5328
      5325      5324      5327      5329      5325      5324      5327      5330
      5326      5324      5327      5328      5326      5324      5327      5329
      5326      5324      5327      5330      5327      5330      5333      5334
      5327      5330      5333      5335      5327      5330      5333      5336
      5328      5327      5330      5331      5328      5327      5330      5332
      5328      5327      5330      5333      5329      5327      5330      5331
      5329      5327      5330      5332      5329      5327      5330      5333
      5330      5333      5336      5337      5330      5333      5336      5338
      5330      5333      5336      5339      5331      5330      5333      5334
      5331      5330      5333      5335      5331      5330      5333      5336
      5332      5330      5333      5334      5332      5330      5333      5335
      5332      5330      5333      5336      5333      5336      5339      5340
      5333      5336      5339      5341      5333      5336      5339      5342
      5334      5333      5336      5337      5334      5333      5336      5338
      5334      5333      5336      5339      5335      5333      5336      5337
      5335      5333      5336      5338      5335      5333      5336      5339
      5336      5339      5342      5343      5336      5339      5342      5344
      5336      5339      5342      5345      5337      5336      5339      5340
      5337      5336      5339      5341      5337      5336      5339      5342
      5338      5336      5339      5340      5338      5336      5339      5341
      5338      5336      5339      5342      5339      5342      5345      5346
      5339      5342      5345      5347      5339      5342      5345      5348
      5340      5339      5342      5343      5340      5339      5342      5344
      5340      5339      5342      5345      5341      5339      5342      5343
      5341      5339      5342      5344      5341      5339      5342      5345
      5342      5345      5348      5349      5342      5345      5348      5350
      5342      5345      5348      5351      5343      5342      5345      5346
      5343      5342      5345      5347      5343      5342      5345      5348
      5344      5342      5345      5346      5344      5342      5345      5347
      5344      5342      5345      5348      5345      5348      5351      5352
      5345      5348      5351      5353      5345      5348      5351      5354
      5346      5345      5348      5349      5346      5345      5348      5350
      5346      5345      5348      5351      5347      5345      5348      5349
      5347      5345      5348      5350      5347      5345      5348      5351
      5348      5351      5354      5355      5348      5351      5354      5356
      5348      5351      5354      5357      5349      5348      5351      5352
      5349      5348      5351      5353      5349      5348      5351      5354
      5350      5348      5351      5352      5350      5348      5351      5353
      5350      5348      5351      5354      5351      5354      5357      5358
      5351      5354      5357      5359      5351      5354      5357      5360
      5352      5351      5354      5355      5352      5351      5354      5356
      5352      5351      5354      5357      5353      5351      5354      5355
      5353      5351      5354      5356      5353      5351      5354      5357
      5355      5354      5357      5358      5355      5354      5357      5359
      5355      5354      5357      5360      5356      5354      5357      5358
      5356      5354      5357      5359      5356      5354      5357      5360
      5361      5362      5377      5378      5361      5362      5377      5379
      5361      5362      5377      5383      5362      5361      5365      5366
      5362      5361      5365      5367      5362      5361      5365      5368
      5362      5361      5369      5370      5362      5361      5369      5371
      5362      5361      5369      5372      5362      5361      5373      5374
      5362      5361      5373      5375      5362      5361      5373      5376
      5362      5377      5383      5380      5363      5362      5361      5365
      5363      5362      5361      5369      5363      5362      5361      5373
      5363      5362      5377      5378      5363      5362      5377      5379
      5363      5362      5377      5383      5364      5362      5361      5365
      5364      5362      5361      5369      5364      5362      5361      5373
      5364      5362      5377      5378      5364      5362      5377      5379
      5364      5362      5377      5383      5365      5361      5362      5377
      5365      5361      5369      5370      5365      5361      5369      5371
      5365      5361      5369      5372      5365      5361      5373      5374
      5365      5361      5373      5375      5365      5361      5373      5376
      5366      5365      5361      5369      5366      5365      5361      5373
      5367      5365      5361      5369      5367      5365      5361      5373
      5368      5365      5361      5369      5368      5365      5361      5373
      5369      5361      5362      5377      5369      5361      5373      5374
      5369      5361      5373      5375      5369      5361      5373      5376
      5370      5369      5361      5373      5371      5369      5361      5373
      5372      5369      5361      5373      5373      5361      5362      5377
      5377      5383      5380      5381      5377      5383      5380      5382
      5377      5383      5380      5384      5378      5377      5383      5380
      5379      5377      5383      5380      5380      5384      5385      5386
      5380      5384      5385      5387      5380      5384      5385      5388
      5381      5380      5384      5385      5382      5380      5384      5385
      5383      5380      5384      5385      5384      5385      5388      5389
      5384      5385      5388      5390      5384      5385      5388      5396
      5385      5388      5390      5391      5385      5388      5396      5397
      5385      5388      5396      5398      5385      5388      5396      5399
      5386      5385      5388      5389      5386      5385      5388      5390
      5386      5385      5388      5396      5387      5385      5388      5389
      5387      5385      5388      5390      5387      5385      5388      5396
      5388      5390      5391      5392      5388      5390      5391      5393
      5388      5396      5399      5400      5389      5388      5390      5391
      5389      5388      5396      5397      5389      5388      5396      5398
      5389      5388      5396      5399      5390      5388      5396      5397
      5390      5388      5396      5398      5390      5388      5396      5399
      5390      5391      5393      5394      5390      5391      5393      5395
      5390      5391      5393      5405      5391      5390      5388      5396
      5391      5393      5405      5406      5391      5393      5405      5407
      5391      5393      5405      5408      5392      5391      5393      5394
      5392      5391      5393      5395      5392      5391      5393      5405
      5393      5405      5408      5409      5393      5405      5408      5410
      5393      5405      5408      5411      5394      5393      5405      5406
      5394      5393      5405      5407      5394      5393      5405      5408
      5395      5393      5405      5406      5395      5393      5405      5407
      5395      5393      5405      5408      5396      5399      5400      5401
      5396      5399      5400      5402      5397      5396      5399      5400
      5398      5396      5399      5400      5399      5400      5402      5403
      5399      5400      5402      5404      5399      5400      5402      5452
      5400      5402      5452      5453      5400      5402      5452      5454
      5400      5402      5452      5455      5401      5400      5402      5403
      5401      5400      5402      5404      5401      5400      5402      5452
      5402      5452      5455      5456      5402      5452      5455      5457
      5402      5452      5455      5458      5403      5402      5452      5453
      5403      5402      5452      5454      5403      5402      5452      5455
      5404      5402      5452      5453      5404      5402      5452      5454
      5404      5402      5452      5455      5405      5408      5411      5412
      5405      5408      5411      5413      5405      5408      5411      5414
      5406      5405      5408      5409      5406      5405      5408      5410
      5406      5405      5408      5411      5407      5405      5408      5409
      5407      5405      5408      5410      5407      5405      5408      5411
      5408      5411      5414      5415      5408      5411      5414      5416
      5408      5411      5414      5417      5409      5408      5411      5412
      5409      5408      5411      5413      5409      5408      5411      5414
      5410      5408      5411      5412      5410      5408      5411      5413
      5410      5408      5411      5414      5411      5414      5417      5418
      5411      5414      5417      5419      5411      5414      5417      5420
      5412      5411      5414      5415      5412      5411      5414      5416
      5412      5411      5414      5417      5413      5411      5414      5415
      5413      5411      5414      5416      5413      5411      5414      5417
      5414      5417      5420      5421      5414      5417      5420      5422
      5414      5417      5420      5423      5415      5414      5417      5418
      5415      5414      5417      5419      5415      5414      5417      5420
      5416      5414      5417      5418      5416      5414      5417      5419
      5416      5414      5417      5420      5417      5420      5423      5424
      5417      5420      5423      5425      5418      5417      5420      5421
      5418      5417      5420      5422      5418      5417      5420      5423
      5419      5417      5420      5421      5419      5417      5420      5422
      5419      5417      5420      5423      5420      5423      5425      5426
      5420      5423      5425      5427      5421      5420      5423      5424
      5421      5420      5423      5425      5422      5420      5423      5424
      5422      5420      5423      5425      5423      5425      5427      5428
      5423      5425      5427      5429      5423      5425      5427      5430
      5424      5423      5425      5426      5424      5423      5425      5427
      5425      5427      5430      5431      5425      5427      5430      5432
      5425      5427      5430      5433      5426      5425      5427      5428
      5426      5425      5427      5429      5426      5425      5427      5430
      5427      5430      5433      5434      5427      5430      5433      5435
      5427      5430      5433      5436      5428      5427      5430      5431
      5428      5427      5430      5432      5428      5427      5430      5433
      5429      5427      5430      5431      5429      5427      5430      5432
      5429      5427      5430      5433      5430      5433      5436      5437
      5430      5433      5436      5438      5430      5433      5436      5439
      5431      5430      5433      5434      5431      5430      5433      5435
      5431      5430      5433      5436      5432      5430      5433      5434
      5432      5430      5433      5435      5432      5430      5433      5436
      5433      5436      5439      5440      5433      5436      5439      5441
      5433      5436      5439      5442      5434      5433      5436      5437
      5434      5433      5436      5438      5434      5433      5436      5439
      5435      5433      5436      5437      5435      5433      5436      5438
      5435      5433      5436      5439      5436      5439      5442      5443
      5436      5439      5442      5444      5436      5439      5442      5445
      5437      5436      5439      5440      5437      5436      5439      5441
      5437      5436      5439      5442      5438      5436      5439      5440
      5438      5436      5439      5441      5438      5436      5439      5442
      5439      5442      5445      5446      5439      5442      5445      5447
      5439      5442      5445      5448      5440      5439      5442      5443
      5440      5439      5442      5444      5440      5439      5442      5445
      5441      5439      5442      5443      5441      5439      5442      5444
      5441      5439      5442      5445      5442      5445      5448      5449
      5442      5445      5448      5450      5442      5445      5448      5451
      5443      5442      5445      5446      5443      5442      5445      5447
      5443      5442      5445      5448      5444      5442      5445      5446
      5444      5442      5445      5447      5444      5442      5445      5448
      5446      5445      5448      5449      5446      5445      5448      5450
      5446      5445      5448      5451      5447      5445      5448      5449
      5447      5445      5448      5450      5447      5445      5448      5451
      5452      5455      5458      5459      5452      5455      5458      5460
      5452      5455      5458      5461      5453      5452      5455      5456
      5453      5452      5455      5457      5453      5452      5455      5458
      5454      5452      5455      5456      5454      5452      5455      5457
      5454      5452      5455      5458      5455      5458      5461      5462
      5455      5458      5461      5463      5455      5458      5461      5464
      5456      5455      5458      5459      5456      5455      5458      5460
      5456      5455      5458      5461      5457      5455      5458      5459
      5457      5455      5458      5460      5457      5455      5458      5461
      5458      5461      5464      5465      5458      5461      5464      5466
      5458      5461      5464      5467      5459      5458      5461      5462
      5459      5458      5461      5463      5459      5458      5461      5464
      5460      5458      5461      5462      5460      5458      5461      5463
      5460      5458      5461      5464      5461      5464      5467      5468
      5461      5464      5467      5469      5461      5464      5467      5470
      5462      5461      5464      5465      5462      5461      5464      5466
      5462      5461      5464      5467      5463      5461      5464      5465
      5463      5461      5464      5466      5463      5461      5464      5467
      5464      5467      5470      5471      5464      5467      5470      5472
      5464      5467      5470      5473      5465      5464      5467      5468
      5465      5464      5467      5469      5465      5464      5467      5470
      5466      5464      5467      5468      5466      5464      5467      5469
      5466      5464      5467      5470      5467      5470      5473      5474
      5467      5470      5473      5475      5467      5470      5473      5476
      5468      5467      5470      5471      5468      5467      5470      5472
      5468      5467      5470      5473      5469      5467      5470      5471
      5469      5467      5470      5472      5469      5467      5470      5473
      5470      5473      5476      5477      5470      5473      5476      5478
      5470      5473      5476      5479      5471      5470      5473      5474
      5471      5470      5473      5475      5471      5470      5473      5476
      5472      5470      5473      5474      5472      5470      5473      5475
      5472      5470      5473      5476      5473      5476      5479      5480
      5473      5476      5479      5481      5473      5476      5479      5482
      5474      5473      5476      5477      5474      5473      5476      5478
      5474      5473      5476      5479      5475      5473      5476      5477
      5475      5473      5476      5478      5475      5473      5476      5479
      5476      5479      5482      5483      5476      5479      5482      5484
      5476      5479      5482      5485      5477      5476      5479      5480
      5477      5476      5479      5481      5477      5476      5479      5482
      5478      5476      5479      5480      5478      5476      5479      5481
      5478      5476      5479      5482      5479      5482      5485      5486
      5479      5482      5485      5487      5479      5482      5485      5488
      5480      5479      5482      5483      5480      5479      5482      5484
      5480      5479      5482      5485      5481      5479      5482      5483
      5481      5479      5482      5484      5481      5479      5482      5485
      5482      5485      5488      5489      5482      5485      5488      5490
      5482      5485      5488      5491      5483      5482      5485      5486
      5483      5482      5485      5487      5483      5482      5485      5488
      5484      5482      5485      5486      5484      5482      5485      5487
      5484      5482      5485      5488      5485      5488      5491      5492
      5485      5488      5491      5493      5485      5488      5491      5494
      5486      5485      5488      5489      5486      5485      5488      5490
      5486      5485      5488      5491      5487      5485      5488      5489
      5487      5485      5488      5490      5487      5485      5488      5491
      5489      5488      5491      5492      5489      5488      5491      5493
      5489      5488      5491      5494      5490      5488      5491      5492
      5490      5488      5491      5493      5490      5488      5491      5494
      5495      5496      5511      5512      5495      5496      5511      5513
      5495      5496      5511      5517      5496      5495      5499      5500
      5496      5495      5499      5501      5496      5495      5499      5502
      5496      5495      5503      5504      5496      5495      5503      5505
      5496      5495      5503      5506      5496      5495      5507      5508
      5496      5495      5507      5509      5496      5495      5507      5510
      5496      5511      5517      5514      5497      5496      5495      5499
      5497      5496      5495      5503      5497      5496      5495      5507
      5497      5496      5511      5512      5497      5496      5511      5513
      5497      5496      5511      5517      5498      5496      5495      5499
      5498      5496      5495      5503      5498      5496      5495      5507
      5498      5496      5511      5512      5498      5496      5511      5513
      5498      5496      5511      5517      5499      5495      5496      5511
      5499      5495      5503      5504      5499      5495      5503      5505
      5499      5495      5503      5506      5499      5495      5507      5508
      5499      5495      5507      5509      5499      5495      5507      5510
      5500      5499      5495      5503      5500      5499      5495      5507
      5501      5499      5495      5503      5501      5499      5495      5507
      5502      5499      5495      5503      5502      5499      5495      5507
      5503      5495      5496      5511      5503      5495      5507      5508
      5503      5495      5507      5509      5503      5495      5507      5510
      5504      5503      5495      5507      5505      5503      5495      5507
      5506      5503      5495      5507      5507      5495      5496      5511
      5511      5517      5514      5515      5511      5517      5514      5516
      5511      5517      5514      5518      5512      5511      5517      5514
      5513      5511      5517      5514      5514      5518      5519      5520
      5514      5518      5519      5521      5514      5518      5519      5522
      5515      5514      5518      5519      5516      5514      5518      5519
      5517      5514      5518      5519      5518      5519      5522      5523
      5518      5519      5522      5524      5518      5519      5522      5530
      5519      5522      5524      5525      5519      5522      5530      5531
      5519      5522      5530      5532      5519      5522      5530      5533
      5520      5519      5522      5523      5520      5519      5522      5524
      5520      5519      5522      5530      5521      5519      5522      5523
      5521      5519      5522      5524      5521      5519      5522      5530
      5522      5524      5525      5526      5522      5524      5525      5527
      5522      5530      5533      5534      5523      5522      5524      5525
      5523      5522      5530      5531      5523      5522      5530      5532
      5523      5522      5530      5533      5524      5522      5530      5531
      5524      5522      5530      5532      5524      5522      5530      5533
      5524      5525      5527      5528      5524      5525      5527      5529
      5524      5525      5527      5539      5525      5524      5522      5530
      5525      5527      5539      5540      5525      5527      5539      5541
      5525      5527      5539      5542      5526      5525      5527      5528
      5526      5525      5527      5529      5526      5525      5527      5539
      5527      5539      5542      5543      5527      5539      5542      5544
      5527      5539      5542      5545      5528      5527      5539      5540
      5528      5527      5539      5541      5528      5527      5539      5542
      5529      5527      5539      5540      5529      5527      5539      5541
      5529      5527      5539      5542      5530      5533      5534      5535
      5530      5533      5534      5536      5531      5530      5533      5534
      5532      5530      5533      5534      5533      5534      5536      5537
      5533      5534      5536      5538      5533      5534      5536      5586
      5534      5536      5586      5587      5534      5536      5586      5588
      5534      5536      5586      5589      5535      5534      5536      5537
      5535      5534      5536      5538      5535      5534      5536      5586
      5536      5586      5589      5590      5536      5586      5589      5591
      5536      5586      5589      5592      5537      5536      5586      5587
      5537      5536      5586      5588      5537      5536      5586      5589
      5538      5536      5586      5587      5538      5536      5586      5588
      5538      5536      5586      5589      5539      5542      5545      5546
      5539      5542      5545      5547      5539      5542      5545      5548
      5540      5539      5542      5543      5540      5539      5542      5544
      5540      5539      5542      5545      5541      5539      5542      5543
      5541      5539      5542      5544      5541      5539      5542      5545
      5542      5545      5548      5549      5542      5545      5548      5550
      5542      5545      5548      5551      5543      5542      5545      5546
      5543      5542      5545      5547      5543      5542      5545      5548
      5544      5542      5545      5546      5544      5542      5545      5547
      5544      5542      5545      5548      5545      5548      5551      5552
      5545      5548      5551      5553      5545      5548      5551      5554
      5546      5545      5548      5549      5546      5545      5548      5550
      5546      5545      5548      5551      5547      5545      5548      5549
      5547      5545      5548      5550      5547      5545      5548      5551
      5548      5551      5554      5555      5548      5551      5554      5556
      5548      5551      5554      5557      5549      5548      5551      5552
      5549      5548      5551      5553      5549      5548      5551      5554
      5550      5548      5551      5552      5550      5548      5551      5553
      5550      5548      5551      5554      5551      5554      5557      5558
      5551      5554      5557      5559      5552      5551      5554      5555
      5552      5551      5554      5556      5552      5551      5554      5557
      5553      5551      5554      5555      5553      5551      5554      5556
      5553      5551      5554      5557      5554      5557      5559      5560
      5554      5557      5559      5561      5555      5554      5557      5558
      5555      5554      5557      5559      5556      5554      5557      5558
      5556      5554      5557      5559      5557      5559      5561      5562
      5557      5559      5561      5563      5557      5559      5561      5564
      5558      5557      5559      5560      5558      5557      5559      5561
      5559      5561      5564      5565      5559      5561      5564      5566
      5559      5561      5564      5567      5560      5559      5561      5562
      5560      5559      5561      5563      5560      5559      5561      5564
      5561      5564      5567      5568      5561      5564      5567      5569
      5561      5564      5567      5570      5562      5561      5564      5565
      5562      5561      5564      5566      5562      5561      5564      5567
      5563      5561      5564      5565      5563      5561      5564      5566
      5563      5561      5564      5567      5564      5567      5570      5571
      5564      5567      5570      5572      5564      5567      5570      5573
      5565      5564      5567      5568      5565      5564      5567      5569
      5565      5564      5567      5570      5566      5564      5567      5568
      5566      5564      5567      5569      5566      5564      5567      5570
      5567      5570      5573      5574      5567      5570      5573      5575
      5567      5570      5573      5576      5568      5567      5570      5571
      5568      5567      5570      5572      5568      5567      5570      5573
      5569      5567      5570      5571      5569      5567      5570      5572
      5569      5567      5570      5573      5570      5573      5576      5577
      5570      5573      5576      5578      5570      5573      5576      5579
      5571      5570      5573      5574      5571      5570      5573      5575
      5571      5570      5573      5576      5572      5570      5573      5574
      5572      5570      5573      5575      5572      5570      5573      5576
      5573      5576      5579      5580      5573      5576      5579      5581
      5573      5576      5579      5582      5574      5573      5576      5577
      5574      5573      5576      5578      5574      5573      5576      5579
      5575      5573      5576      5577      5575      5573      5576      5578
      5575      5573      5576      5579      5576      5579      5582      5583
      5576      5579      5582      5584      5576      5579      5582      5585
      5577      5576      5579      5580      5577      5576      5579      5581
      5577      5576      5579      5582      5578      5576      5579      5580
      5578      5576      5579      5581      5578      5576      5579      5582
      5580      5579      5582      5583      5580      5579      5582      5584
      5580      5579      5582      5585      5581      5579      5582      5583
      5581      5579      5582      5584      5581      5579      5582      5585
      5586      5589      5592      5593      5586      5589      5592      5594
      5586      5589      5592      5595      5587      5586      5589      5590
      5587      5586      5589      5591      5587      5586      5589      5592
      5588      5586      5589      5590      5588      5586      5589      5591
      5588      5586      5589      5592      5589      5592      5595      5596
      5589      5592      5595      5597      5589      5592      5595      5598
      5590      5589      5592      5593      5590      5589      5592      5594
      5590      5589      5592      5595      5591      5589      5592      5593
      5591      5589      5592      5594      5591      5589      5592      5595
      5592      5595      5598      5599      5592      5595      5598      5600
      5592      5595      5598      5601      5593      5592      5595      5596
      5593      5592      5595      5597      5593      5592      5595      5598
      5594      5592      5595      5596      5594      5592      5595      5597
      5594      5592      5595      5598      5595      5598      5601      5602
      5595      5598      5601      5603      5595      5598      5601      5604
      5596      5595      5598      5599      5596      5595      5598      5600
      5596      5595      5598      5601      5597      5595      5598      5599
      5597      5595      5598      5600      5597      5595      5598      5601
      5598      5601      5604      5605      5598      5601      5604      5606
      5598      5601      5604      5607      5599      5598      5601      5602
      5599      5598      5601      5603      5599      5598      5601      5604
      5600      5598      5601      5602      5600      5598      5601      5603
      5600      5598      5601      5604      5601      5604      5607      5608
      5601      5604      5607      5609      5601      5604      5607      5610
      5602      5601      5604      5605      5602      5601      5604      5606
      5602      5601      5604      5607      5603      5601      5604      5605
      5603      5601      5604      5606      5603      5601      5604      5607
      5604      5607      5610      5611      5604      5607      5610      5612
      5604      5607      5610      5613      5605      5604      5607      5608
      5605      5604      5607      5609      5605      5604      5607      5610
      5606      5604      5607      5608      5606      5604      5607      5609
      5606      5604      5607      5610      5607      5610      5613      5614
      5607      5610      5613      5615      5607      5610      5613      5616
      5608      5607      5610      5611      5608      5607      5610      5612
      5608      5607      5610      5613      5609      5607      5610      5611
      5609      5607      5610      5612      5609      5607      5610      5613
      5610      5613      5616      5617      5610      5613      5616      5618
      5610      5613      5616      5619      5611      5610      5613      5614
      5611      5610      5613      5615      5611      5610      5613      5616
      5612      5610      5613      5614      5612      5610      5613      5615
      5612      5610      5613      5616      5613      5616      5619      5620
      5613      5616      5619      5621      5613      5616      5619      5622
      5614      5613      5616      5617      5614      5613      5616      5618
      5614      5613      5616      5619      5615      5613      5616      5617
      5615      5613      5616      5618      5615      5613      5616      5619
      5616      5619      5622      5623      5616      5619      5622      5624
      5616      5619      5622      5625      5617      5616      5619      5620
      5617      5616      5619      5621      5617      5616      5619      5622
      5618      5616      5619      5620      5618      5616      5619      5621
      5618      5616      5619      5622      5619      5622      5625      5626
      5619      5622      5625      5627      5619      5622      5625      5628
      5620      5619      5622      5623      5620      5619      5622      5624
      5620      5619      5622      5625      5621      5619      5622      5623
      5621      5619      5622      5624      5621      5619      5622      5625
      5623      5622      5625      5626      5623      5622      5625      5627
      5623      5622      5625      5628      5624      5622      5625      5626
      5624      5622      5625      5627      5624      5622      5625      5628
      5629      5630      5645      5646      5629      5630      5645      5647
      5629      5630      5645      5651      5630      5629      5633      5634
      5630      5629      5633      5635      5630      5629      5633      5636
      5630      5629      5637      5638      5630      5629      5637      5639
      5630      5629      5637      5640      5630      5629      5641      5642
      5630      5629      5641      5643      5630      5629      5641      5644
      5630      5645      5651      5648      5631      5630      5629      5633
      5631      5630      5629      5637      5631      5630      5629      5641
      5631      5630      5645      5646      5631      5630      5645      5647
      5631      5630      5645      5651      5632      5630      5629      5633
      5632      5630      5629      5637      5632      5630      5629      5641
      5632      5630      5645      5646      5632      5630      5645      5647
      5632      5630      5645      5651      5633      5629      5630      5645
      5633      5629      5637      5638      5633      5629      5637      5639
      5633      5629      5637      5640      5633      5629      5641      5642
      5633      5629      5641      5643      5633      5629      5641      5644
      5634      5633      5629      5637      5634      5633      5629      5641
      5635      5633      5629      5637      5635      5633      5629      5641
      5636      5633      5629      5637      5636      5633      5629      5641
      5637      5629      5630      5645      5637      5629      5641      5642
      5637      5629      5641      5643      5637      5629      5641      5644
      5638      5637      5629      5641      5639      5637      5629      5641
      5640      5637      5629      5641      5641      5629      5630      5645
      5645      5651      5648      5649      5645      5651      5648      5650
      5645      5651      5648      5652      5646      5645      5651      5648
      5647      5645      5651      5648      5648      5652      5653      5654
      5648      5652      5653      5655      5648      5652      5653      5656
      5649      5648      5652      5653      5650      5648      5652      5653
      5651      5648      5652      5653      5652      5653      5656      5657
      5652      5653      5656      5658      5652      5653      5656      5664
      5653      5656      5658      5659      5653      5656      5664      5665
      5653      5656      5664      5666      5653      5656      5664      5667
      5654      5653      5656      5657      5654      5653      5656      5658
      5654      5653      5656      5664      5655      5653      5656      5657
      5655      5653      5656      5658      5655      5653      5656      5664
      5656      5658      5659      5660      5656      5658      5659      5661
      5656      5664      5667      5668      5657      5656      5658      5659
      5657      5656      5664      5665      5657      5656      5664      5666
      5657      5656      5664      5667      5658      5656      5664      5665
      5658      5656      5664      5666      5658      5656      5664      5667
      5658      5659      5661      5662      5658      5659      5661      5663
      5658      5659      5661      5673      5659      5658      5656      5664
      5659      5661      5673      5674      5659      5661      5673      5675
      5659      5661      5673      5676      5660      5659      5661      5662
      5660      5659      5661      5663      5660      5659      5661      5673
      5661      5673      5676      5677      5661      5673      5676      5678
      5661      5673      5676      5679      5662      5661      5673      5674
      5662      5661      5673      5675      5662      5661      5673      5676
      5663      5661      5673      5674      5663      5661      5673      5675
      5663      5661      5673      5676      5664      5667      5668      5669
      5664      5667      5668      5670      5665      5664      5667      5668
      5666      5664      5667      5668      5667      5668      5670      5671
      5667      5668      5670      5672      5667      5668      5670      5720
      5668      5670      5720      5721      5668      5670      5720      5722
      5668      5670      5720      5723      5669      5668      5670      5671
      5669      5668      5670      5672      5669      5668      5670      5720
      5670      5720      5723      5724      5670      5720      5723      5725
      5670      5720      5723      5726      5671      5670      5720      5721
      5671      5670      5720      5722      5671      5670      5720      5723
      5672      5670      5720      5721      5672      5670      5720      5722
      5672      5670      5720      5723      5673      5676      5679      5680
      5673      5676      5679      5681      5673      5676      5679      5682
      5674      5673      5676      5677      5674      5673      5676      5678
      5674      5673      5676      5679      5675      5673      5676      5677
      5675      5673      5676      5678      5675      5673      5676      5679
      5676      5679      5682      5683      5676      5679      5682      5684
      5676      5679      5682      5685      5677      5676      5679      5680
      5677      5676      5679      5681      5677      5676      5679      5682
      5678      5676      5679      5680      5678      5676      5679      5681
      5678      5676      5679      5682      5679      5682      5685      5686
      5679      5682      5685      5687      5679      5682      5685      5688
      5680      5679      5682      5683      5680      5679      5682      5684
      5680      5679      5682      5685      5681      5679      5682      5683
      5681      5679      5682      5684      5681      5679      5682      5685
      5682      5685      5688      5689      5682      5685      5688      5690
      5682      5685      5688      5691      5683      5682      5685      5686
      5683      5682      5685      5687      5683      5682      5685      5688
      5684      5682      5685      5686      5684      5682      5685      5687
      5684      5682      5685      5688      5685      5688      5691      5692
      5685      5688      5691      5693      5686      5685      5688      5689
      5686      5685      5688      5690      5686      5685      5688      5691
      5687      5685      5688      5689      5687      5685      5688      5690
      5687      5685      5688      5691      5688      5691      5693      5694
      5688      5691      5693      5695      5689      5688      5691      5692
      5689      5688      5691      5693      5690      5688      5691      5692
      5690      5688      5691      5693      5691      5693      5695      5696
      5691      5693      5695      5697      5691      5693      5695      5698
      5692      5691      5693      5694      5692      5691      5693      5695
      5693      5695      5698      5699      5693      5695      5698      5700
      5693      5695      5698      5701      5694      5693      5695      5696
      5694      5693      5695      5697      5694      5693      5695      5698
      5695      5698      5701      5702      5695      5698      5701      5703
      5695      5698      5701      5704      5696      5695      5698      5699
      5696      5695      5698      5700      5696      5695      5698      5701
      5697      5695      5698      5699      5697      5695      5698      5700
      5697      5695      5698      5701      5698      5701      5704      5705
      5698      5701      5704      5706      5698      5701      5704      5707
      5699      5698      5701      5702      5699      5698      5701      5703
      5699      5698      5701      5704      5700      5698      5701      5702
      5700      5698      5701      5703      5700      5698      5701      5704
      5701      5704      5707      5708      5701      5704      5707      5709
      5701      5704      5707      5710      5702      5701      5704      5705
      5702      5701      5704      5706      5702      5701      5704      5707
      5703      5701      5704      5705      5703      5701      5704      5706
      5703      5701      5704      5707      5704      5707      5710      5711
      5704      5707      5710      5712      5704      5707      5710      5713
      5705      5704      5707      5708      5705      5704      5707      5709
      5705      5704      5707      5710      5706      5704      5707      5708
      5706      5704      5707      5709      5706      5704      5707      5710
      5707      5710      5713      5714      5707      5710      5713      5715
      5707      5710      5713      5716      5708      5707      5710      5711
      5708      5707      5710      5712      5708      5707      5710      5713
      5709      5707      5710      5711      5709      5707      5710      5712
      5709      5707      5710      5713      5710      5713      5716      5717
      5710      5713      5716      5718      5710      5713      5716      5719
      5711      5710      5713      5714      5711      5710      5713      5715
      5711      5710      5713      5716      5712      5710      5713      5714
      5712      5710      5713      5715      5712      5710      5713      5716
      5714      5713      5716      5717      5714      5713      5716      5718
      5714      5713      5716      5719      5715      5713      5716      5717
      5715      5713      5716      5718      5715      5713      5716      5719
      5720      5723      5726      5727      5720      5723      5726      5728
      5720      5723      5726      5729      5721      5720      5723      5724
      5721      5720      5723      5725      5721      5720      5723      5726
      5722      5720      5723      5724      5722      5720      5723      5725
      5722      5720      5723      5726      5723      5726      5729      5730
      5723      5726      5729      5731      5723      5726      5729      5732
      5724      5723      5726      5727      5724      5723      5726      5728
      5724      5723      5726      5729      5725      5723      5726      5727
      5725      5723      5726      5728      5725      5723      5726      5729
      5726      5729      5732      5733      5726      5729      5732      5734
      5726      5729      5732      5735      5727      5726      5729      5730
      5727      5726      5729      5731      5727      5726      5729      5732
      5728      5726      5729      5730      5728      5726      5729      5731
      5728      5726      5729      5732      5729      5732      5735      5736
      5729      5732      5735      5737      5729      5732      5735      5738
      5730      5729      5732      5733      5730      5729      5732      5734
      5730      5729      5732      5735      5731      5729      5732      5733
      5731      5729      5732      5734      5731      5729      5732      5735
      5732      5735      5738      5739      5732      5735      5738      5740
      5732      5735      5738      5741      5733      5732      5735      5736
      5733      5732      5735      5737      5733      5732      5735      5738
      5734      5732      5735      5736      5734      5732      5735      5737
      5734      5732      5735      5738      5735      5738      5741      5742
      5735      5738      5741      5743      5735      5738      5741      5744
      5736      5735      5738      5739      5736      5735      5738      5740
      5736      5735      5738      5741      5737      5735      5738      5739
      5737      5735      5738      5740      5737      5735      5738      5741
      5738      5741      5744      5745      5738      5741      5744      5746
      5738      5741      5744      5747      5739      5738      5741      5742
      5739      5738      5741      5743      5739      5738      5741      5744
      5740      5738      5741      5742      5740      5738      5741      5743
      5740      5738      5741      5744      5741      5744      5747      5748
      5741      5744      5747      5749      5741      5744      5747      5750
      5742      5741      5744      5745      5742      5741      5744      5746
      5742      5741      5744      5747      5743      5741      5744      5745
      5743      5741      5744      5746      5743      5741      5744      5747
      5744      5747      5750      5751      5744      5747      5750      5752
      5744      5747      5750      5753      5745      5744      5747      5748
      5745      5744      5747      5749      5745      5744      5747      5750
      5746      5744      5747      5748      5746      5744      5747      5749
      5746      5744      5747      5750      5747      5750      5753      5754
      5747      5750      5753      5755      5747      5750      5753      5756
      5748      5747      5750      5751      5748      5747      5750      5752
      5748      5747      5750      5753      5749      5747      5750      5751
      5749      5747      5750      5752      5749      5747      5750      5753
      5750      5753      5756      5757      5750      5753      5756      5758
      5750      5753      5756      5759      5751      5750      5753      5754
      5751      5750      5753      5755      5751      5750      5753      5756
      5752      5750      5753      5754      5752      5750      5753      5755
      5752      5750      5753      5756      5753      5756      5759      5760
      5753      5756      5759      5761      5753      5756      5759      5762
      5754      5753      5756      5757      5754      5753      5756      5758
      5754      5753      5756      5759      5755      5753      5756      5757
      5755      5753      5756      5758      5755      5753      5756      5759
      5757      5756      5759      5760      5757      5756      5759      5761
      5757      5756      5759      5762      5758      5756      5759      5760
      5758      5756      5759      5761      5758      5756      5759      5762
      5763      5764      5779      5780      5763      5764      5779      5781
      5763      5764      5779      5785      5764      5763      5767      5768
      5764      5763      5767      5769      5764      5763      5767      5770
      5764      5763      5771      5772      5764      5763      5771      5773
      5764      5763      5771      5774      5764      5763      5775      5776
      5764      5763      5775      5777      5764      5763      5775      5778
      5764      5779      5785      5782      5765      5764      5763      5767
      5765      5764      5763      5771      5765      5764      5763      5775
      5765      5764      5779      5780      5765      5764      5779      5781
      5765      5764      5779      5785      5766      5764      5763      5767
      5766      5764      5763      5771      5766      5764      5763      5775
      5766      5764      5779      5780      5766      5764      5779      5781
      5766      5764      5779      5785      5767      5763      5764      5779
      5767      5763      5771      5772      5767      5763      5771      5773
      5767      5763      5771      5774      5767      5763      5775      5776
      5767      5763      5775      5777      5767      5763      5775      5778
      5768      5767      5763      5771      5768      5767      5763      5775
      5769      5767      5763      5771      5769      5767      5763      5775
      5770      5767      5763      5771      5770      5767      5763      5775
      5771      5763      5764      5779      5771      5763      5775      5776
      5771      5763      5775      5777      5771      5763      5775      5778
      5772      5771      5763      5775      5773      5771      5763      5775
      5774      5771      5763      5775      5775      5763      5764      5779
      5779      5785      5782      5783      5779      5785      5782      5784
      5779      5785      5782      5786      5780      5779      5785      5782
      5781      5779      5785      5782      5782      5786      5787      5788
      5782      5786      5787      5789      5782      5786      5787      5790
      5783      5782      5786      5787      5784      5782      5786      5787
      5785      5782      5786      5787      5786      5787      5790      5791
      5786      5787      5790      5792      5786      5787      5790      5798
      5787      5790      5792      5793      5787      5790      5798      5799
      5787      5790      5798      5800      5787      5790      5798      5801
      5788      5787      5790      5791      5788      5787      5790      5792
      5788      5787      5790      5798      5789      5787      5790      5791
      5789      5787      5790      5792      5789      5787      5790      5798
      5790      5792      5793      5794      5790      5792      5793      5795
      5790      5798      5801      5802      5791      5790      5792      5793
      5791      5790      5798      5799      5791      5790      5798      5800
      5791      5790      5798      5801      5792      5790      5798      5799
      5792      5790      5798      5800      5792      5790      5798      5801
      5792      5793      5795      5796      5792      5793      5795      5797
      5792      5793      5795      5807      5793      5792      5790      5798
      5793      5795      5807      5808      5793      5795      5807      5809
      5793      5795      5807      5810      5794      5793      5795      5796
      5794      5793      5795      5797      5794      5793      5795      5807
      5795      5807      5810      5811      5795      5807      5810      5812
      5795      5807      5810      5813      5796      5795      5807      5808
      5796      5795      5807      5809      5796      5795      5807      5810
      5797      5795      5807      5808      5797      5795      5807      5809
      5797      5795      5807      5810      5798      5801      5802      5803
      5798      5801      5802      5804      5799      5798      5801      5802
      5800      5798      5801      5802      5801      5802      5804      5805
      5801      5802      5804      5806      5801      5802      5804      5854
      5802      5804      5854      5855      5802      5804      5854      5856
      5802      5804      5854      5857      5803      5802      5804      5805
      5803      5802      5804      5806      5803      5802      5804      5854
      5804      5854      5857      5858      5804      5854      5857      5859
      5804      5854      5857      5860      5805      5804      5854      5855
      5805      5804      5854      5856      5805      5804      5854      5857
      5806      5804      5854      5855      5806      5804      5854      5856
      5806      5804      5854      5857      5807      5810      5813      5814
      5807      5810      5813      5815      5807      5810      5813      5816
      5808      5807      5810      5811      5808      5807      5810      5812
      5808      5807      5810      5813      5809      5807      5810      5811
      5809      5807      5810      5812      5809      5807      5810      5813
      5810      5813      5816      5817      5810      5813      5816      5818
      5810      5813      5816      5819      5811      5810      5813      5814
      5811      5810      5813      5815      5811      5810      5813      5816
      5812      5810      5813      5814      5812      5810      5813      5815
      5812      5810      5813      5816      5813      5816      5819      5820
      5813      5816      5819      5821      5813      5816      5819      5822
      5814      5813      5816      5817      5814      5813      5816      5818
      5814      5813      5816      5819      5815      5813      5816      5817
      5815      5813      5816      5818      5815      5813      5816      5819
      5816      5819      5822      5823      5816      5819      5822      5824
      5816      5819      5822      5825      5817      5816      5819      5820
      5817      5816      5819      5821      5817      5816      5819      5822
      5818      5816      5819      5820      5818      5816      5819      5821
      5818      5816      5819      5822      5819      5822      5825      5826
      5819      5822      5825      5827      5820      5819      5822      5823
      5820      5819      5822      5824      5820      5819      5822      5825
      5821      5819      5822      5823      5821      5819      5822      5824
      5821      5819      5822      5825      5822      5825      5827      5828
      5822      5825      5827      5829      5823      5822      5825      5826
      5823      5822      5825      5827      5824      5822      5825      5826
      5824      5822      5825      5827      5825      5827      5829      5830
      5825      5827      5829      5831      5825      5827      5829      5832
      5826      5825      5827      5828      5826      5825      5827      5829
      5827      5829      5832      5833      5827      5829      5832      5834
      5827      5829      5832      5835      5828      5827      5829      5830
      5828      5827      5829      5831      5828      5827      5829      5832
      5829      5832      5835      5836      5829      5832      5835      5837
      5829      5832      5835      5838      5830      5829      5832      5833
      5830      5829      5832      5834      5830      5829      5832      5835
      5831      5829      5832      5833      5831      5829      5832      5834
      5831      5829      5832      5835      5832      5835      5838      5839
      5832      5835      5838      5840      5832      5835      5838      5841
      5833      5832      5835      5836      5833      5832      5835      5837
      5833      5832      5835      5838      5834      5832      5835      5836
      5834      5832      5835      5837      5834      5832      5835      5838
      5835      5838      5841      5842      5835      5838      5841      5843
      5835      5838      5841      5844      5836      5835      5838      5839
      5836      5835      5838      5840      5836      5835      5838      5841
      5837      5835      5838      5839      5837      5835      5838      5840
      5837      5835      5838      5841      5838      5841      5844      5845
      5838      5841      5844      5846      5838      5841      5844      5847
      5839      5838      5841      5842      5839      5838      5841      5843
      5839      5838      5841      5844      5840      5838      5841      5842
      5840      5838      5841      5843      5840      5838      5841      5844
      5841      5844      5847      5848      5841      5844      5847      5849
      5841      5844      5847      5850      5842      5841      5844      5845
      5842      5841      5844      5846      5842      5841      5844      5847
      5843      5841      5844      5845      5843      5841      5844      5846
      5843      5841      5844      5847      5844      5847      5850      5851
      5844      5847      5850      5852      5844      5847      5850      5853
      5845      5844      5847      5848      5845      5844      5847      5849
      5845      5844      5847      5850      5846      5844      5847      5848
      5846      5844      5847      5849      5846      5844      5847      5850
      5848      5847      5850      5851      5848      5847      5850      5852
      5848      5847      5850      5853      5849      5847      5850      5851
      5849      5847      5850      5852      5849      5847      5850      5853
      5854      5857      5860      5861      5854      5857      5860      5862
      5854      5857      5860      5863      5855      5854      5857      5858
      5855      5854      5857      5859      5855      5854      5857      5860
      5856      5854      5857      5858      5856      5854      5857      5859
      5856      5854      5857      5860      5857      5860      5863      5864
      5857      5860      5863      5865      5857      5860      5863      5866
      5858      5857      5860      5861      5858      5857      5860      5862
      5858      5857      5860      5863      5859      5857      5860      5861
      5859      5857      5860      5862      5859      5857      5860      5863
      5860      5863      5866      5867      5860      5863      5866      5868
      5860      5863      5866      5869      5861      5860      5863      5864
      5861      5860      5863      5865      5861      5860      5863      5866
      5862      5860      5863      5864      5862      5860      5863      5865
      5862      5860      5863      5866      5863      5866      5869      5870
      5863      5866      5869      5871      5863      5866      5869      5872
      5864      5863      5866      5867      5864      5863      5866      5868
      5864      5863      5866      5869      5865      5863      5866      5867
      5865      5863      5866      5868      5865      5863      5866      5869
      5866      5869      5872      5873      5866      5869      5872      5874
      5866      5869      5872      5875      5867      5866      5869      5870
      5867      5866      5869      5871      5867      5866      5869      5872
      5868      5866      5869      5870      5868      5866      5869      5871
      5868      5866      5869      5872      5869      5872      5875      5876
      5869      5872      5875      5877      5869      5872      5875      5878
      5870      5869      5872      5873      5870      5869      5872      5874
      5870      5869      5872      5875      5871      5869      5872      5873
      5871      5869      5872      5874      5871      5869      5872      5875
      5872      5875      5878      5879      5872      5875      5878      5880
      5872      5875      5878      5881      5873      5872      5875      5876
      5873      5872      5875      5877      5873      5872      5875      5878
      5874      5872      5875      5876      5874      5872      5875      5877
      5874      5872      5875      5878      5875      5878      5881      5882
      5875      5878      5881      5883      5875      5878      5881      5884
      5876      5875      5878      5879      5876      5875      5878      5880
      5876      5875      5878      5881      5877      5875      5878      5879
      5877      5875      5878      5880      5877      5875      5878      5881
      5878      5881      5884      5885      5878      5881      5884      5886
      5878      5881      5884      5887      5879      5878      5881      5882
      5879      5878      5881      5883      5879      5878      5881      5884
      5880      5878      5881      5882      5880      5878      5881      5883
      5880      5878      5881      5884      5881      5884      5887      5888
      5881      5884      5887      5889      5881      5884      5887      5890
      5882      5881      5884      5885      5882      5881      5884      5886
      5882      5881      5884      5887      5883      5881      5884      5885
      5883      5881      5884      5886      5883      5881      5884      5887
      5884      5887      5890      5891      5884      5887      5890      5892
      5884      5887      5890      5893      5885      5884      5887      5888
      5885      5884      5887      5889      5885      5884      5887      5890
      5886      5884      5887      5888      5886      5884      5887      5889
      5886      5884      5887      5890      5887      5890      5893      5894
      5887      5890      5893      5895      5887      5890      5893      5896
      5888      5887      5890      5891      5888      5887      5890      5892
      5888      5887      5890      5893      5889      5887      5890      5891
      5889      5887      5890      5892      5889      5887      5890      5893
      5891      5890      5893      5894      5891      5890      5893      5895
      5891      5890      5893      5896      5892      5890      5893      5894
      5892      5890      5893      5895      5892      5890      5893      5896
      5897      5898      5913      5914      5897      5898      5913      5915
      5897      5898      5913      5919      5898      5897      5901      5902
      5898      5897      5901      5903      5898      5897      5901      5904
      5898      5897      5905      5906      5898      5897      5905      5907
      5898      5897      5905      5908      5898      5897      5909      5910
      5898      5897      5909      5911      5898      5897      5909      5912
      5898      5913      5919      5916      5899      5898      5897      5901
      5899      5898      5897      5905      5899      5898      5897      5909
      5899      5898      5913      5914      5899      5898      5913      5915
      5899      5898      5913      5919      5900      5898      5897      5901
      5900      5898      5897      5905      5900      5898      5897      5909
      5900      5898      5913      5914      5900      5898      5913      5915
      5900      5898      5913      5919      5901      5897      5898      5913
      5901      5897      5905      5906      5901      5897      5905      5907
      5901      5897      5905      5908      5901      5897      5909      5910
      5901      5897      5909      5911      5901      5897      5909      5912
      5902      5901      5897      5905      5902      5901      5897      5909
      5903      5901      5897      5905      5903      5901      5897      5909
      5904      5901      5897      5905      5904      5901      5897      5909
      5905      5897      5898      5913      5905      5897      5909      5910
      5905      5897      5909      5911      5905      5897      5909      5912
      5906      5905      5897      5909      5907      5905      5897      5909
      5908      5905      5897      5909      5909      5897      5898      5913
      5913      5919      5916      5917      5913      5919      5916      5918
      5913      5919      5916      5920      5914      5913      5919      5916
      5915      5913      5919      5916      5916      5920      5921      5922
      5916      5920      5921      5923      5916      5920      5921      5924
      5917      5916      5920      5921      5918      5916      5920      5921
      5919      5916      5920      5921      5920      5921      5924      5925
      5920      5921      5924      5926      5920      5921      5924      5932
      5921      5924      5926      5927      5921      5924      5932      5933
      5921      5924      5932      5934      5921      5924      5932      5935
      5922      5921      5924      5925      5922      5921      5924      5926
      5922      5921      5924      5932      5923      5921      5924      5925
      5923      5921      5924      5926      5923      5921      5924      5932
      5924      5926      5927      5928      5924      5926      5927      5929
      5924      5932      5935      5936      5925      5924      5926      5927
      5925      5924      5932      5933      5925      5924      5932      5934
      5925      5924      5932      5935      5926      5924      5932      5933
      5926      5924      5932      5934      5926      5924      5932      5935
      5926      5927      5929      5930      5926      5927      5929      5931
      5926      5927      5929      5941      5927      5926      5924      5932
      5927      5929      5941      5942      5927      5929      5941      5943
      5927      5929      5941      5944      5928      5927      5929      5930
      5928      5927      5929      5931      5928      5927      5929      5941
      5929      5941      5944      5945      5929      5941      5944      5946
      5929      5941      5944      5947      5930      5929      5941      5942
      5930      5929      5941      5943      5930      5929      5941      5944
      5931      5929      5941      5942      5931      5929      5941      5943
      5931      5929      5941      5944      5932      5935      5936      5937
      5932      5935      5936      5938      5933      5932      5935      5936
      5934      5932      5935      5936      5935      5936      5938      5939
      5935      5936      5938      5940      5935      5936      5938      5988
      5936      5938      5988      5989      5936      5938      5988      5990
      5936      5938      5988      5991      5937      5936      5938      5939
      5937      5936      5938      5940      5937      5936      5938      5988
      5938      5988      5991      5992      5938      5988      5991      5993
      5938      5988      5991      5994      5939      5938      5988      5989
      5939      5938      5988      5990      5939      5938      5988      5991
      5940      5938      5988      5989      5940      5938      5988      5990
      5940      5938      5988      5991      5941      5944      5947      5948
      5941      5944      5947      5949      5941      5944      5947      5950
      5942      5941      5944      5945      5942      5941      5944      5946
      5942      5941      5944      5947      5943      5941      5944      5945
      5943      5941      5944      5946      5943      5941      5944      5947
      5944      5947      5950      5951      5944      5947      5950      5952
      5944      5947      5950      5953      5945      5944      5947      5948
      5945      5944      5947      5949      5945      5944      5947      5950
      5946      5944      5947      5948      5946      5944      5947      5949
      5946      5944      5947      5950      5947      5950      5953      5954
      5947      5950      5953      5955      5947      5950      5953      5956
      5948      5947      5950      5951      5948      5947      5950      5952
      5948      5947      5950      5953      5949      5947      5950      5951
      5949      5947      5950      5952      5949      5947      5950      5953
      5950      5953      5956      5957      5950      5953      5956      5958
      5950      5953      5956      5959      5951      5950      5953      5954
      5951      5950      5953      5955      5951      5950      5953      5956
      5952      5950      5953      5954      5952      5950      5953      5955
      5952      5950      5953      5956      5953      5956      5959      5960
      5953      5956      5959      5961      5954      5953      5956      5957
      5954      5953      5956      5958      5954      5953      5956      5959
      5955      5953      5956      5957      5955      5953      5956      5958
      5955      5953      5956      5959      5956      5959      5961      5962
      5956      5959      5961      5963      5957      5956      5959      5960
      5957      5956      5959      5961      5958      5956      5959      5960
      5958      5956      5959      5961      5959      5961      5963      5964
      5959      5961      5963      5965      5959      5961      5963      5966
      5960      5959      5961      5962      5960      5959      5961      5963
      5961      5963      5966      5967      5961      5963      5966      5968
      5961      5963      5966      5969      5962      5961      5963      5964
      5962      5961      5963      5965      5962      5961      5963      5966
      5963      5966      5969      5970      5963      5966      5969      5971
      5963      5966      5969      5972      5964      5963      5966      5967
      5964      5963      5966      5968      5964      5963      5966      5969
      5965      5963      5966      5967      5965      5963      5966      5968
      5965      5963      5966      5969      5966      5969      5972      5973
      5966      5969      5972      5974      5966      5969      5972      5975
      5967      5966      5969      5970      5967      5966      5969      5971
      5967      5966      5969      5972      5968      5966      5969      5970
      5968      5966      5969      5971      5968      5966      5969      5972
      5969      5972      5975      5976      5969      5972      5975      5977
      5969      5972      5975      5978      5970      5969      5972      5973
      5970      5969      5972      5974      5970      5969      5972      5975
      5971      5969      5972      5973      5971      5969      5972      5974
      5971      5969      5972      5975      5972      5975      5978      5979
      5972      5975      5978      5980      5972      5975      5978      5981
      5973      5972      5975      5976      5973      5972      5975      5977
      5973      5972      5975      5978      5974      5972      5975      5976
      5974      5972      5975      5977      5974      5972      5975      5978
      5975      5978      5981      5982      5975      5978      5981      5983
      5975      5978      5981      5984      5976      5975      5978      5979
      5976      5975      5978      5980      5976      5975      5978      5981
      5977      5975      5978      5979      5977      5975      5978      5980
      5977      5975      5978      5981      5978      5981      5984      5985
      5978      5981      5984      5986      5978      5981      5984      5987
      5979      5978      5981      5982      5979      5978      5981      5983
      5979      5978      5981      5984      5980      5978      5981      5982
      5980      5978      5981      5983      5980      5978      5981      5984
      5982      5981      5984      5985      5982      5981      5984      5986
      5982      5981      5984      5987      5983      5981      5984      5985
      5983      5981      5984      5986      5983      5981      5984      5987
      5988      5991      5994      5995      5988      5991      5994      5996
      5988      5991      5994      5997      5989      5988      5991      5992
      5989      5988      5991      5993      5989      5988      5991      5994
      5990      5988      5991      5992      5990      5988      5991      5993
      5990      5988      5991      5994      5991      5994      5997      5998
      5991      5994      5997      5999      5991      5994      5997      6000
      5992      5991      5994      5995      5992      5991      5994      5996
      5992      5991      5994      5997      5993      5991      5994      5995
      5993      5991      5994      5996      5993      5991      5994      5997
      5994      5997      6000      6001      5994      5997      6000      6002
      5994      5997      6000      6003      5995      5994      5997      5998
      5995      5994      5997      5999      5995      5994      5997      6000
      5996      5994      5997      5998      5996      5994      5997      5999
      5996      5994      5997      6000      5997      6000      6003      6004
      5997      6000      6003      6005      5997      6000      6003      6006
      5998      5997      6000      6001      5998      5997      6000      6002
      5998      5997      6000      6003      5999      5997      6000      6001
      5999      5997      6000      6002      5999      5997      6000      6003
      6000      6003      6006      6007      6000      6003      6006      6008
      6000      6003      6006      6009      6001      6000      6003      6004
      6001      6000      6003      6005      6001      6000      6003      6006
      6002      6000      6003      6004      6002      6000      6003      6005
      6002      6000      6003      6006      6003      6006      6009      6010
      6003      6006      6009      6011      6003      6006      6009      6012
      6004      6003      6006      6007      6004      6003      6006      6008
      6004      6003      6006      6009      6005      6003      6006      6007
      6005      6003      6006      6008      6005      6003      6006      6009
      6006      6009      6012      6013      6006      6009      6012      6014
      6006      6009      6012      6015      6007      6006      6009      6010
      6007      6006      6009      6011      6007      6006      6009      6012
      6008      6006      6009      6010      6008      6006      6009      6011
      6008      6006      6009      6012      6009      6012      6015      6016
      6009      6012      6015      6017      6009      6012      6015      6018
      6010      6009      6012      6013      6010      6009      6012      6014
      6010      6009      6012      6015      6011      6009      6012      6013
      6011      6009      6012      6014      6011      6009      6012      6015
      6012      6015      6018      6019      6012      6015      6018      6020
      6012      6015      6018      6021      6013      6012      6015      6016
      6013      6012      6015      6017      6013      6012      6015      6018
      6014      6012      6015      6016      6014      6012      6015      6017
      6014      6012      6015      6018      6015      6018      6021      6022
      6015      6018      6021      6023      6015      6018      6021      6024
      6016      6015      6018      6019      6016      6015      6018      6020
      6016      6015      6018      6021      6017      6015      6018      6019
      6017      6015      6018      6020      6017      6015      6018      6021
      6018      6021      6024      6025      6018      6021      6024      6026
      6018      6021      6024      6027      6019      6018      6021      6022
      6019      6018      6021      6023      6019      6018      6021      6024
      6020      6018      6021      6022      6020      6018      6021      6023
      6020      6018      6021      6024      6021      6024      6027      6028
      6021      6024      6027      6029      6021      6024      6027      6030
      6022      6021      6024      6025      6022      6021      6024      6026
      6022      6021      6024      6027      6023      6021      6024      6025
      6023      6021      6024      6026      6023      6021      6024      6027
      6025      6024      6027      6028      6025      6024      6027      6029
      6025      6024      6027      6030      6026      6024      6027      6028
      6026      6024      6027      6029      6026      6024      6027      6030
      6031      6032      6047      6048      6031      6032      6047      6049
      6031      6032      6047      6053      6032      6031      6035      6036
      6032      6031      6035      6037      6032      6031      6035      6038
      6032      6031      6039      6040      6032      6031      6039      6041
      6032      6031      6039      6042      6032      6031      6043      6044
      6032      6031      6043      6045      6032      6031      6043      6046
      6032      6047      6053      6050      6033      6032      6031      6035
      6033      6032      6031      6039      6033      6032      6031      6043
      6033      6032      6047      6048      6033      6032      6047      6049
      6033      6032      6047      6053      6034      6032      6031      6035
      6034      6032      6031      6039      6034      6032      6031      6043
      6034      6032      6047      6048      6034      6032      6047      6049
      6034      6032      6047      6053      6035      6031      6032      6047
      6035      6031      6039      6040      6035      6031      6039      6041
      6035      6031      6039      6042      6035      6031      6043      6044
      6035      6031      6043      6045      6035      6031      6043      6046
      6036      6035      6031      6039      6036      6035      6031      6043
      6037      6035      6031      6039      6037      6035      6031      6043
      6038      6035      6031      6039      6038      6035      6031      6043
      6039      6031      6032      6047      6039      6031      6043      6044
      6039      6031      6043      6045      6039      6031      6043      6046
      6040      6039      6031      6043      6041      6039      6031      6043
      6042      6039      6031      6043      6043      6031      6032      6047
      6047      6053      6050      6051      6047      6053      6050      6052
      6047      6053      6050      6054      6048      6047      6053      6050
      6049      6047      6053      6050      6050      6054      6055      6056
      6050      6054      6055      6057      6050      6054      6055      6058
      6051      6050      6054      6055      6052      6050      6054      6055
      6053      6050      6054      6055      6054      6055      6058      6059
      6054      6055      6058      6060      6054      6055      6058      6066
      6055      6058      6060      6061      6055      6058      6066      6067
      6055      6058      6066      6068      6055      6058      6066      6069
      6056      6055      6058      6059      6056      6055      6058      6060
      6056      6055      6058      6066      6057      6055      6058      6059
      6057      6055      6058      6060      6057      6055      6058      6066
      6058      6060      6061      6062      6058      6060      6061      6063
      6058      6066      6069      6070      6059      6058      6060      6061
      6059      6058      6066      6067      6059      6058      6066      6068
      6059      6058      6066      6069      6060      6058      6066      6067
      6060      6058      6066      6068      6060      6058      6066      6069
      6060      6061      6063      6064      6060      6061      6063      6065
      6060      6061      6063      6075      6061      6060      6058      6066
      6061      6063      6075      6076      6061      6063      6075      6077
      6061      6063      6075      6078      6062      6061      6063      6064
      6062      6061      6063      6065      6062      6061      6063      6075
      6063      6075      6078      6079      6063      6075      6078      6080
      6063      6075      6078      6081      6064      6063      6075      6076
      6064      6063      6075      6077      6064      6063      6075      6078
      6065      6063      6075      6076      6065      6063      6075      6077
      6065      6063      6075      6078      6066      6069      6070      6071
      6066      6069      6070      6072      6067      6066      6069      6070
      6068      6066      6069      6070      6069      6070      6072      6073
      6069      6070      6072      6074      6069      6070      6072      6122
      6070      6072      6122      6123      6070      6072      6122      6124
      6070      6072      6122      6125      6071      6070      6072      6073
      6071      6070      6072      6074      6071      6070      6072      6122
      6072      6122      6125      6126      6072      6122      6125      6127
      6072      6122      6125      6128      6073      6072      6122      6123
      6073      6072      6122      6124      6073      6072      6122      6125
      6074      6072      6122      6123      6074      6072      6122      6124
      6074      6072      6122      6125      6075      6078      6081      6082
      6075      6078      6081      6083      6075      6078      6081      6084
      6076      6075      6078      6079      6076      6075      6078      6080
      6076      6075      6078      6081      6077      6075      6078      6079
      6077      6075      6078      6080      6077      6075      6078      6081
      6078      6081      6084      6085      6078      6081      6084      6086
      6078      6081      6084      6087      6079      6078      6081      6082
      6079      6078      6081      6083      6079      6078      6081      6084
      6080      6078      6081      6082      6080      6078      6081      6083
      6080      6078      6081      6084      6081      6084      6087      6088
      6081      6084      6087      6089      6081      6084      6087      6090
      6082      6081      6084      6085      6082      6081      6084      6086
      6082      6081      6084      6087      6083      6081      6084      6085
      6083      6081      6084      6086      6083      6081      6084      6087
      6084      6087      6090      6091      6084      6087      6090      6092
      6084      6087      6090      6093      6085      6084      6087      6088
      6085      6084      6087      6089      6085      6084      6087      6090
      6086      6084      6087      6088      6086      6084      6087      6089
      6086      6084      6087      6090      6087      6090      6093      6094
      6087      6090      6093      6095      6088      6087      6090      6091
      6088      6087      6090      6092      6088      6087      6090      6093
      6089      6087      6090      6091      6089      6087      6090      6092
      6089      6087      6090      6093      6090      6093      6095      6096
      6090      6093      6095      6097      6091      6090      6093      6094
      6091      6090      6093      6095      6092      6090      6093      6094
      6092      6090      6093      6095      6093      6095      6097      6098
      6093      6095      6097      6099      6093      6095      6097      6100
      6094      6093      6095      6096      6094      6093      6095      6097
      6095      6097      6100      6101      6095      6097      6100      6102
      6095      6097      6100      6103      6096      6095      6097      6098
      6096      6095      6097      6099      6096      6095      6097      6100
      6097      6100      6103      6104      6097      6100      6103      6105
      6097      6100      6103      6106      6098      6097      6100      6101
      6098      6097      6100      6102      6098      6097      6100      6103
      6099      6097      6100      6101      6099      6097      6100      6102
      6099      6097      6100      6103      6100      6103      6106      6107
      6100      6103      6106      6108      6100      6103      6106      6109
      6101      6100      6103      6104      6101      6100      6103      6105
      6101      6100      6103      6106      6102      6100      6103      6104
      6102      6100      6103      6105      6102      6100      6103      6106
      6103      6106      6109      6110      6103      6106      6109      6111
      6103      6106      6109      6112      6104      6103      6106      6107
      6104      6103      6106      6108      6104      6103      6106      6109
      6105      6103      6106      6107      6105      6103      6106      6108
      6105      6103      6106      6109      6106      6109      6112      6113
      6106      6109      6112      6114      6106      6109      6112      6115
      6107      6106      6109      6110      6107      6106      6109      6111
      6107      6106      6109      6112      6108      6106      6109      6110
      6108      6106      6109      6111      6108      6106      6109      6112
      6109      6112      6115      6116      6109      6112      6115      6117
      6109      6112      6115      6118      6110      6109      6112      6113
      6110      6109      6112      6114      6110      6109      6112      6115
      6111      6109      6112      6113      6111      6109      6112      6114
      6111      6109      6112      6115      6112      6115      6118      6119
      6112      6115      6118      6120      6112      6115      6118      6121
      6113      6112      6115      6116      6113      6112      6115      6117
      6113      6112      6115      6118      6114      6112      6115      6116
      6114      6112      6115      6117      6114      6112      6115      6118
      6116      6115      6118      6119      6116      6115      6118      6120
      6116      6115      6118      6121      6117      6115      6118      6119
      6117      6115      6118      6120      6117      6115      6118      6121
      6122      6125      6128      6129      6122      6125      6128      6130
      6122      6125      6128      6131      6123      6122      6125      6126
      6123      6122      6125      6127      6123      6122      6125      6128
      6124      6122      6125      6126      6124      6122      6125      6127
      6124      6122      6125      6128      6125      6128      6131      6132
      6125      6128      6131      6133      6125      6128      6131      6134
      6126      6125      6128      6129      6126      6125      6128      6130
      6126      6125      6128      6131      6127      6125      6128      6129
      6127      6125      6128      6130      6127      6125      6128      6131
      6128      6131      6134      6135      6128      6131      6134      6136
      6128      6131      6134      6137      6129      6128      6131      6132
      6129      6128      6131      6133      6129      6128      6131      6134
      6130      6128      6131      6132      6130      6128      6131      6133
      6130      6128      6131      6134      6131      6134      6137      6138
      6131      6134      6137      6139      6131      6134      6137      6140
      6132      6131      6134      6135      6132      6131      6134      6136
      6132      6131      6134      6137      6133      6131      6134      6135
      6133      6131      6134      6136      6133      6131      6134      6137
      6134      6137      6140      6141      6134      6137      6140      6142
      6134      6137      6140      6143      6135      6134      6137      6138
      6135      6134      6137      6139      6135      6134      6137      6140
      6136      6134      6137      6138      6136      6134      6137      6139
      6136      6134      6137      6140      6137      6140      6143      6144
      6137      6140      6143      6145      6137      6140      6143      6146
      6138      6137      6140      6141      6138      6137      6140      6142
      6138      6137      6140      6143      6139      6137      6140      6141
      6139      6137      6140      6142      6139      6137      6140      6143
      6140      6143      6146      6147      6140      6143      6146      6148
      6140      6143      6146      6149      6141      6140      6143      6144
      6141      6140      6143      6145      6141      6140      6143      6146
      6142      6140      6143      6144      6142      6140      6143      6145
      6142      6140      6143      6146      6143      6146      6149      6150
      6143      6146      6149      6151      6143      6146      6149      6152
      6144      6143      6146      6147      6144      6143      6146      6148
      6144      6143      6146      6149      6145      6143      6146      6147
      6145      6143      6146      6148      6145      6143      6146      6149
      6146      6149      6152      6153      6146      6149      6152      6154
      6146      6149      6152      6155      6147      6146      6149      6150
      6147      6146      6149      6151      6147      6146      6149      6152
      6148      6146      6149      6150      6148      6146      6149      6151
      6148      6146      6149      6152      6149      6152      6155      6156
      6149      6152      6155      6157      6149      6152      6155      6158
      6150      6149      6152      6153      6150      6149      6152      6154
      6150      6149      6152      6155      6151      6149      6152      6153
      6151      6149      6152      6154      6151      6149      6152      6155
      6152      6155      6158      6159      6152      6155      6158      6160
      6152      6155      6158      6161      6153      6152      6155      6156
      6153      6152      6155      6157      6153      6152      6155      6158
      6154      6152      6155      6156      6154      6152      6155      6157
      6154      6152      6155      6158      6155      6158      6161      6162
      6155      6158      6161      6163      6155      6158      6161      6164
      6156      6155      6158      6159      6156      6155      6158      6160
      6156      6155      6158      6161      6157      6155      6158      6159
      6157      6155      6158      6160      6157      6155      6158      6161
      6159      6158      6161      6162      6159      6158      6161      6163
      6159      6158      6161      6164      6160      6158      6161      6162
      6160      6158      6161      6163      6160      6158      6161      6164
      6165      6166      6181      6182      6165      6166      6181      6183
      6165      6166      6181      6187      6166      6165      6169      6170
      6166      6165      6169      6171      6166      6165      6169      6172
      6166      6165      6173      6174      6166      6165      6173      6175
      6166      6165      6173      6176      6166      6165      6177      6178
      6166      6165      6177      6179      6166      6165      6177      6180
      6166      6181      6187      6184      6167      6166      6165      6169
      6167      6166      6165      6173      6167      6166      6165      6177
      6167      6166      6181      6182      6167      6166      6181      6183
      6167      6166      6181      6187      6168      6166      6165      6169
      6168      6166      6165      6173      6168      6166      6165      6177
      6168      6166      6181      6182      6168      6166      6181      6183
      6168      6166      6181      6187      6169      6165      6166      6181
      6169      6165      6173      6174      6169      6165      6173      6175
      6169      6165      6173      6176      6169      6165      6177      6178
      6169      6165      6177      6179      6169      6165      6177      6180
      6170      6169      6165      6173      6170      6169      6165      6177
      6171      6169      6165      6173      6171      6169      6165      6177
      6172      6169      6165      6173      6172      6169      6165      6177
      6173      6165      6166      6181      6173      6165      6177      6178
      6173      6165      6177      6179      6173      6165      6177      6180
      6174      6173      6165      6177      6175      6173      6165      6177
      6176      6173      6165      6177      6177      6165      6166      6181
      6181      6187      6184      6185      6181      6187      6184      6186
      6181      6187      6184      6188      6182      6181      6187      6184
      6183      6181      6187      6184      6184      6188      6189      6190
      6184      6188      6189      6191      6184      6188      6189      6192
      6185      6184      6188      6189      6186      6184      6188      6189
      6187      6184      6188      6189      6188      6189      6192      6193
      6188      6189      6192      6194      6188      6189      6192      6200
      6189      6192      6194      6195      6189      6192      6200      6201
      6189      6192      6200      6202      6189      6192      6200      6203
      6190      6189      6192      6193      6190      6189      6192      6194
      6190      6189      6192      6200      6191      6189      6192      6193
      6191      6189      6192      6194      6191      6189      6192      6200
      6192      6194      6195      6196      6192      6194      6195      6197
      6192      6200      6203      6204      6193      6192      6194      6195
      6193      6192      6200      6201      6193      6192      6200      6202
      6193      6192      6200      6203      6194      6192      6200      6201
      6194      6192      6200      6202      6194      6192      6200      6203
      6194      6195      6197      6198      6194      6195      6197      6199
      6194      6195      6197      6209      6195      6194      6192      6200
      6195      6197      6209      6210      6195      6197      6209      6211
      6195      6197      6209      6212      6196      6195      6197      6198
      6196      6195      6197      6199      6196      6195      6197      6209
      6197      6209      6212      6213      6197      6209      6212      6214
      6197      6209      6212      6215      6198      6197      6209      6210
      6198      6197      6209      6211      6198      6197      6209      6212
      6199      6197      6209      6210      6199      6197      6209      6211
      6199      6197      6209      6212      6200      6203      6204      6205
      6200      6203      6204      6206      6201      6200      6203      6204
      6202      6200      6203      6204      6203      6204      6206      6207
      6203      6204      6206      6208      6203      6204      6206      6256
      6204      6206      6256      6257      6204      6206      6256      6258
      6204      6206      6256      6259      6205      6204      6206      6207
      6205      6204      6206      6208      6205      6204      6206      6256
      6206      6256      6259      6260      6206      6256      6259      6261
      6206      6256      6259      6262      6207      6206      6256      6257
      6207      6206      6256      6258      6207      6206      6256      6259
      6208      6206      6256      6257      6208      6206      6256      6258
      6208      6206      6256      6259      6209      6212      6215      6216
      6209      6212      6215      6217      6209      6212      6215      6218
      6210      6209      6212      6213      6210      6209      6212      6214
      6210      6209      6212      6215      6211      6209      6212      6213
      6211      6209      6212      6214      6211      6209      6212      6215
      6212      6215      6218      6219      6212      6215      6218      6220
      6212      6215      6218      6221      6213      6212      6215      6216
      6213      6212      6215      6217      6213      6212      6215      6218
      6214      6212      6215      6216      6214      6212      6215      6217
      6214      6212      6215      6218      6215      6218      6221      6222
      6215      6218      6221      6223      6215      6218      6221      6224
      6216      6215      6218      6219      6216      6215      6218      6220
      6216      6215      6218      6221      6217      6215      6218      6219
      6217      6215      6218      6220      6217      6215      6218      6221
      6218      6221      6224      6225      6218      6221      6224      6226
      6218      6221      6224      6227      6219      6218      6221      6222
      6219      6218      6221      6223      6219      6218      6221      6224
      6220      6218      6221      6222      6220      6218      6221      6223
      6220      6218      6221      6224      6221      6224      6227      6228
      6221      6224      6227      6229      6222      6221      6224      6225
      6222      6221      6224      6226      6222      6221      6224      6227
      6223      6221      6224      6225      6223      6221      6224      6226
      6223      6221      6224      6227      6224      6227      6229      6230
      6224      6227      6229      6231      6225      6224      6227      6228
      6225      6224      6227      6229      6226      6224      6227      6228
      6226      6224      6227      6229      6227      6229      6231      6232
      6227      6229      6231      6233      6227      6229      6231      6234
      6228      6227      6229      6230      6228      6227      6229      6231
      6229      6231      6234      6235      6229      6231      6234      6236
      6229      6231      6234      6237      6230      6229      6231      6232
      6230      6229      6231      6233      6230      6229      6231      6234
      6231      6234      6237      6238      6231      6234      6237      6239
      6231      6234      6237      6240      6232      6231      6234      6235
      6232      6231      6234      6236      6232      6231      6234      6237
      6233      6231      6234      6235      6233      6231      6234      6236
      6233      6231      6234      6237      6234      6237      6240      6241
      6234      6237      6240      6242      6234      6237      6240      6243
      6235      6234      6237      6238      6235      6234      6237      6239
      6235      6234      6237      6240      6236      6234      6237      6238
      6236      6234      6237      6239      6236      6234      6237      6240
      6237      6240      6243      6244      6237      6240      6243      6245
      6237      6240      6243      6246      6238      6237      6240      6241
      6238      6237      6240      6242      6238      6237      6240      6243
      6239      6237      6240      6241      6239      6237      6240      6242
      6239      6237      6240      6243      6240      6243      6246      6247
      6240      6243      6246      6248      6240      6243      6246      6249
      6241      6240      6243      6244      6241      6240      6243      6245
      6241      6240      6243      6246      6242      6240      6243      6244
      6242      6240      6243      6245      6242      6240      6243      6246
      6243      6246      6249      6250      6243      6246      6249      6251
      6243      6246      6249      6252      6244      6243      6246      6247
      6244      6243      6246      6248      6244      6243      6246      6249
      6245      6243      6246      6247      6245      6243      6246      6248
      6245      6243      6246      6249      6246      6249      6252      6253
      6246      6249      6252      6254      6246      6249      6252      6255
      6247      6246      6249      6250      6247      6246      6249      6251
      6247      6246      6249      6252      6248      6246      6249      6250
      6248      6246      6249      6251      6248      6246      6249      6252
      6250      6249      6252      6253      6250      6249      6252      6254
      6250      6249      6252      6255      6251      6249      6252      6253
      6251      6249      6252      6254      6251      6249      6252      6255
      6256      6259      6262      6263      6256      6259      6262      6264
      6256      6259      6262      6265      6257      6256      6259      6260
      6257      6256      6259      6261      6257      6256      6259      6262
      6258      6256      6259      6260      6258      6256      6259      6261
      6258      6256      6259      6262      6259      6262      6265      6266
      6259      6262      6265      6267      6259      6262      6265      6268
      6260      6259      6262      6263      6260      6259      6262      6264
      6260      6259      6262      6265      6261      6259      6262      6263
      6261      6259      6262      6264      6261      6259      6262      6265
      6262      6265      6268      6269      6262      6265      6268      6270
      6262      6265      6268      6271      6263      6262      6265      6266
      6263      6262      6265      6267      6263      6262      6265      6268
      6264      6262      6265      6266      6264      6262      6265      6267
      6264      6262      6265      6268      6265      6268      6271      6272
      6265      6268      6271      6273      6265      6268      6271      6274
      6266      6265      6268      6269      6266      6265      6268      6270
      6266      6265      6268      6271      6267      6265      6268      6269
      6267      6265      6268      6270      6267      6265      6268      6271
      6268      6271      6274      6275      6268      6271      6274      6276
      6268      6271      6274      6277      6269      6268      6271      6272
      6269      6268      6271      6273      6269      6268      6271      6274
      6270      6268      6271      6272      6270      6268      6271      6273
      6270      6268      6271      6274      6271      6274      6277      6278
      6271      6274      6277      6279      6271      6274      6277      6280
      6272      6271      6274      6275      6272      6271      6274      6276
      6272      6271      6274      6277      6273      6271      6274      6275
      6273      6271      6274      6276      6273      6271      6274      6277
      6274      6277      6280      6281      6274      6277      6280      6282
      6274      6277      6280      6283      6275      6274      6277      6278
      6275      6274      6277      6279      6275      6274      6277      6280
      6276      6274      6277      6278      6276      6274      6277      6279
      6276      6274      6277      6280      6277      6280      6283      6284
      6277      6280      6283      6285      6277      6280      6283      6286
      6278      6277      6280      6281      6278      6277      6280      6282
      6278      6277      6280      6283      6279      6277      6280      6281
      6279      6277      6280      6282      6279      6277      6280      6283
      6280      6283      6286      6287      6280      6283      6286      6288
      6280      6283      6286      6289      6281      6280      6283      6284
      6281      6280      6283      6285      6281      6280      6283      6286
      6282      6280      6283      6284      6282      6280      6283      6285
      6282      6280      6283      6286      6283      6286      6289      6290
      6283      6286      6289      6291      6283      6286      6289      6292
      6284      6283      6286      6287      6284      6283      6286      6288
      6284      6283      6286      6289      6285      6283      6286      6287
      6285      6283      6286      6288      6285      6283      6286      6289
      6286      6289      6292      6293      6286      6289      6292      6294
      6286      6289      6292      6295      6287      6286      6289      6290
      6287      6286      6289      6291      6287      6286      6289      6292
      6288      6286      6289      6290      6288      6286      6289      6291
      6288      6286      6289      6292      6289      6292      6295      6296
      6289      6292      6295      6297      6289      6292      6295      6298
      6290      6289      6292      6293      6290      6289      6292      6294
      6290      6289      6292      6295      6291      6289      6292      6293
      6291      6289      6292      6294      6291      6289      6292      6295
      6293      6292      6295      6296      6293      6292      6295      6297
      6293      6292      6295      6298      6294      6292      6295      6296
      6294      6292      6295      6297      6294      6292      6295      6298
      6299      6300      6315      6316      6299      6300      6315      6317
      6299      6300      6315      6321      6300      6299      6303      6304
      6300      6299      6303      6305      6300      6299      6303      6306
      6300      6299      6307      6308      6300      6299      6307      6309
      6300      6299      6307      6310      6300      6299      6311      6312
      6300      6299      6311      6313      6300      6299      6311      6314
      6300      6315      6321      6318      6301      6300      6299      6303
      6301      6300      6299      6307      6301      6300      6299      6311
      6301      6300      6315      6316      6301      6300      6315      6317
      6301      6300      6315      6321      6302      6300      6299      6303
      6302      6300      6299      6307      6302      6300      6299      6311
      6302      6300      6315      6316      6302      6300      6315      6317
      6302      6300      6315      6321      6303      6299      6300      6315
      6303      6299      6307      6308      6303      6299      6307      6309
      6303      6299      6307      6310      6303      6299      6311      6312
      6303      6299      6311      6313      6303      6299      6311      6314
      6304      6303      6299      6307      6304      6303      6299      6311
      6305      6303      6299      6307      6305      6303      6299      6311
      6306      6303      6299      6307      6306      6303      6299      6311
      6307      6299      6300      6315      6307      6299      6311      6312
      6307      6299      6311      6313      6307      6299      6311      6314
      6308      6307      6299      6311      6309      6307      6299      6311
      6310      6307      6299      6311      6311      6299      6300      6315
      6315      6321      6318      6319      6315      6321      6318      6320
      6315      6321      6318      6322      6316      6315      6321      6318
      6317      6315      6321      6318      6318      6322      6323      6324
      6318      6322      6323      6325      6318      6322      6323      6326
      6319      6318      6322      6323      6320      6318      6322      6323
      6321      6318      6322      6323      6322      6323      6326      6327
      6322      6323      6326      6328      6322      6323      6326      6334
      6323      6326      6328      6329      6323      6326      6334      6335
      6323      6326      6334      6336      6323      6326      6334      6337
      6324      6323      6326      6327      6324      6323      6326      6328
      6324      6323      6326      6334      6325      6323      6326      6327
      6325      6323      6326      6328      6325      6323      6326      6334
      6326      6328      6329      6330      6326      6328      6329      6331
      6326      6334      6337      6338      6327      6326      6328      6329
      6327      6326      6334      6335      6327      6326      6334      6336
      6327      6326      6334      6337      6328      6326      6334      6335
      6328      6326      6334      6336      6328      6326      6334      6337
      6328      6329      6331      6332      6328      6329      6331      6333
      6328      6329      6331      6343      6329      6328      6326      6334
      6329      6331      6343      6344      6329      6331      6343      6345
      6329      6331      6343      6346      6330      6329      6331      6332
      6330      6329      6331      6333      6330      6329      6331      6343
      6331      6343      6346      6347      6331      6343      6346      6348
      6331      6343      6346      6349      6332      6331      6343      6344
      6332      6331      6343      6345      6332      6331      6343      6346
      6333      6331      6343      6344      6333      6331      6343      6345
      6333      6331      6343      6346      6334      6337      6338      6339
      6334      6337      6338      6340      6335      6334      6337      6338
      6336      6334      6337      6338      6337      6338      6340      6341
      6337      6338      6340      6342      6337      6338      6340      6390
      6338      6340      6390      6391      6338      6340      6390      6392
      6338      6340      6390      6393      6339      6338      6340      6341
      6339      6338      6340      6342      6339      6338      6340      6390
      6340      6390      6393      6394      6340      6390      6393      6395
      6340      6390      6393      6396      6341      6340      6390      6391
      6341      6340      6390      6392      6341      6340      6390      6393
      6342      6340      6390      6391      6342      6340      6390      6392
      6342      6340      6390      6393      6343      6346      6349      6350
      6343      6346      6349      6351      6343      6346      6349      6352
      6344      6343      6346      6347      6344      6343      6346      6348
      6344      6343      6346      6349      6345      6343      6346      6347
      6345      6343      6346      6348      6345      6343      6346      6349
      6346      6349      6352      6353      6346      6349      6352      6354
      6346      6349      6352      6355      6347      6346      6349      6350
      6347      6346      6349      6351      6347      6346      6349      6352
      6348      6346      6349      6350      6348      6346      6349      6351
      6348      6346      6349      6352      6349      6352      6355      6356
      6349      6352      6355      6357      6349      6352      6355      6358
      6350      6349      6352      6353      6350      6349      6352      6354
      6350      6349      6352      6355      6351      6349      6352      6353
      6351      6349      6352      6354      6351      6349      6352      6355
      6352      6355      6358      6359      6352      6355      6358      6360
      6352      6355      6358      6361      6353      6352      6355      6356
      6353      6352      6355      6357      6353      6352      6355      6358
      6354      6352      6355      6356      6354      6352      6355      6357
      6354      6352      6355      6358      6355      6358      6361      6362
      6355      6358      6361      6363      6356      6355      6358      6359
      6356      6355      6358      6360      6356      6355      6358      6361
      6357      6355      6358      6359      6357      6355      6358      6360
      6357      6355      6358      6361      6358      6361      6363      6364
      6358      6361      6363      6365      6359      6358      6361      6362
      6359      6358      6361      6363      6360      6358      6361      6362
      6360      6358      6361      6363      6361      6363      6365      6366
      6361      6363      6365      6367      6361      6363      6365      6368
      6362      6361      6363      6364      6362      6361      6363      6365
      6363      6365      6368      6369      6363      6365      6368      6370
      6363      6365      6368      6371      6364      6363      6365      6366
      6364      6363      6365      6367      6364      6363      6365      6368
      6365      6368      6371      6372      6365      6368      6371      6373
      6365      6368      6371      6374      6366      6365      6368      6369
      6366      6365      6368      6370      6366      6365      6368      6371
      6367      6365      6368      6369      6367      6365      6368      6370
      6367      6365      6368      6371      6368      6371      6374      6375
      6368      6371      6374      6376      6368      6371      6374      6377
      6369      6368      6371      6372      6369      6368      6371      6373
      6369      6368      6371      6374      6370      6368      6371      6372
      6370      6368      6371      6373      6370      6368      6371      6374
      6371      6374      6377      6378      6371      6374      6377      6379
      6371      6374      6377      6380      6372      6371      6374      6375
      6372      6371      6374      6376      6372      6371      6374      6377
      6373      6371      6374      6375      6373      6371      6374      6376
      6373      6371      6374      6377      6374      6377      6380      6381
      6374      6377      6380      6382      6374      6377      6380      6383
      6375      6374      6377      6378      6375      6374      6377      6379
      6375      6374      6377      6380      6376      6374      6377      6378
      6376      6374      6377      6379      6376      6374      6377      6380
      6377      6380      6383      6384      6377      6380      6383      6385
      6377      6380      6383      6386      6378      6377      6380      6381
      6378      6377      6380      6382      6378      6377      6380      6383
      6379      6377      6380      6381      6379      6377      6380      6382
      6379      6377      6380      6383      6380      6383      6386      6387
      6380      6383      6386      6388      6380      6383      6386      6389
      6381      6380      6383      6384      6381      6380      6383      6385
      6381      6380      6383      6386      6382      6380      6383      6384
      6382      6380      6383      6385      6382      6380      6383      6386
      6384      6383      6386      6387      6384      6383      6386      6388
      6384      6383      6386      6389      6385      6383      6386      6387
      6385      6383      6386      6388      6385      6383      6386      6389
      6390      6393      6396      6397      6390      6393      6396      6398
      6390      6393      6396      6399      6391      6390      6393      6394
      6391      6390      6393      6395      6391      6390      6393      6396
      6392      6390      6393      6394      6392      6390      6393      6395
      6392      6390      6393      6396      6393      6396      6399      6400
      6393      6396      6399      6401      6393      6396      6399      6402
      6394      6393      6396      6397      6394      6393      6396      6398
      6394      6393      6396      6399      6395      6393      6396      6397
      6395      6393      6396      6398      6395      6393      6396      6399
      6396      6399      6402      6403      6396      6399      6402      6404
      6396      6399      6402      6405      6397      6396      6399      6400
      6397      6396      6399      6401      6397      6396      6399      6402
      6398      6396      6399      6400      6398      6396      6399      6401
      6398      6396      6399      6402      6399      6402      6405      6406
      6399      6402      6405      6407      6399      6402      6405      6408
      6400      6399      6402      6403      6400      6399      6402      6404
      6400      6399      6402      6405      6401      6399      6402      6403
      6401      6399      6402      6404      6401      6399      6402      6405
      6402      6405      6408      6409      6402      6405      6408      6410
      6402      6405      6408      6411      6403      6402      6405      6406
      6403      6402      6405      6407      6403      6402      6405      6408
      6404      6402      6405      6406      6404      6402      6405      6407
      6404      6402      6405      6408      6405      6408      6411      6412
      6405      6408      6411      6413      6405      6408      6411      6414
      6406      6405      6408      6409      6406      6405      6408      6410
      6406      6405      6408      6411      6407      6405      6408      6409
      6407      6405      6408      6410      6407      6405      6408      6411
      6408      6411      6414      6415      6408      6411      6414      6416
      6408      6411      6414      6417      6409      6408      6411      6412
      6409      6408      6411      6413      6409      6408      6411      6414
      6410      6408      6411      6412      6410      6408      6411      6413
      6410      6408      6411      6414      6411      6414      6417      6418
      6411      6414      6417      6419      6411      6414      6417      6420
      6412      6411      6414      6415      6412      6411      6414      6416
      6412      6411      6414      6417      6413      6411      6414      6415
      6413      6411      6414      6416      6413      6411      6414      6417
      6414      6417      6420      6421      6414      6417      6420      6422
      6414      6417      6420      6423      6415      6414      6417      6418
      6415      6414      6417      6419      6415      6414      6417      6420
      6416      6414      6417      6418      6416      6414      6417      6419
      6416      6414      6417      6420      6417      6420      6423      6424
      6417      6420      6423      6425      6417      6420      6423      6426
      6418      6417      6420      6421      6418      6417      6420      6422
      6418      6417      6420      6423      6419      6417      6420      6421
      6419      6417      6420      6422      6419      6417      6420      6423
      6420      6423      6426      6427      6420      6423      6426      6428
      6420      6423      6426      6429      6421      6420      6423      6424
      6421      6420      6423      6425      6421      6420      6423      6426
      6422      6420      6423      6424      6422      6420      6423      6425
      6422      6420      6423      6426      6423      6426      6429      6430
      6423      6426      6429      6431      6423      6426      6429      6432
      6424      6423      6426      6427      6424      6423      6426      6428
      6424      6423      6426      6429      6425      6423      6426      6427
      6425      6423      6426      6428      6425      6423      6426      6429
      6427      6426      6429      6430      6427      6426      6429      6431
      6427      6426      6429      6432      6428      6426      6429      6430
      6428      6426      6429      6431      6428      6426      6429      6432
      6433      6434      6449      6450      6433      6434      6449      6451
      6433      6434      6449      6455      6434      6433      6437      6438
      6434      6433      6437      6439      6434      6433      6437      6440
      6434      6433      6441      6442      6434      6433      6441      6443
      6434      6433      6441      6444      6434      6433      6445      6446
      6434      6433      6445      6447      6434      6433      6445      6448
      6434      6449      6455      6452      6435      6434      6433      6437
      6435      6434      6433      6441      6435      6434      6433      6445
      6435      6434      6449      6450      6435      6434      6449      6451
      6435      6434      6449      6455      6436      6434      6433      6437
      6436      6434      6433      6441      6436      6434      6433      6445
      6436      6434      6449      6450      6436      6434      6449      6451
      6436      6434      6449      6455      6437      6433      6434      6449
      6437      6433      6441      6442      6437      6433      6441      6443
      6437      6433      6441      6444      6437      6433      6445      6446
      6437      6433      6445      6447      6437      6433      6445      6448
      6438      6437      6433      6441      6438      6437      6433      6445
      6439      6437      6433      6441      6439      6437      6433      6445
      6440      6437      6433      6441      6440      6437      6433      6445
      6441      6433      6434      6449      6441      6433      6445      6446
      6441      6433      6445      6447      6441      6433      6445      6448
      6442      6441      6433      6445      6443      6441      6433      6445
      6444      6441      6433      6445      6445      6433      6434      6449
      6449      6455      6452      6453      6449      6455      6452      6454
      6449      6455      6452      6456      6450      6449      6455      6452
      6451      6449      6455      6452      6452      6456      6457      6458
      6452      6456      6457      6459      6452      6456      6457      6460
      6453      6452      6456      6457      6454      6452      6456      6457
      6455      6452      6456      6457      6456      6457      6460      6461
      6456      6457      6460      6462      6456      6457      6460      6468
      6457      6460      6462      6463      6457      6460      6468      6469
      6457      6460      6468      6470      6457      6460      6468      6471
      6458      6457      6460      6461      6458      6457      6460      6462
      6458      6457      6460      6468      6459      6457      6460      6461
      6459      6457      6460      6462      6459      6457      6460      6468
      6460      6462      6463      6464      6460      6462      6463      6465
      6460      6468      6471      6472      6461      6460      6462      6463
      6461      6460      6468      6469      6461      6460      6468      6470
      6461      6460      6468      6471      6462      6460      6468      6469
      6462      6460      6468      6470      6462      6460      6468      6471
      6462      6463      6465      6466      6462      6463      6465      6467
      6462      6463      6465      6477      6463      6462      6460      6468
      6463      6465      6477      6478      6463      6465      6477      6479
      6463      6465      6477      6480      6464      6463      6465      6466
      6464      6463      6465      6467      6464      6463      6465      6477
      6465      6477      6480      6481      6465      6477      6480      6482
      6465      6477      6480      6483      6466      6465      6477      6478
      6466      6465      6477      6479      6466      6465      6477      6480
      6467      6465      6477      6478      6467      6465      6477      6479
      6467      6465      6477      6480      6468      6471      6472      6473
      6468      6471      6472      6474      6469      6468      6471      6472
      6470      6468      6471      6472      6471      6472      6474      6475
      6471      6472      6474      6476      6471      6472      6474      6524
      6472      6474      6524      6525      6472      6474      6524      6526
      6472      6474      6524      6527      6473      6472      6474      6475
      6473      6472      6474      6476      6473      6472      6474      6524
      6474      6524      6527      6528      6474      6524      6527      6529
      6474      6524      6527      6530      6475      6474      6524      6525
      6475      6474      6524      6526      6475      6474      6524      6527
      6476      6474      6524      6525      6476      6474      6524      6526
      6476      6474      6524      6527      6477      6480      6483      6484
      6477      6480      6483      6485      6477      6480      6483      6486
      6478      6477      6480      6481      6478      6477      6480      6482
      6478      6477      6480      6483      6479      6477      6480      6481
      6479      6477      6480      6482      6479      6477      6480      6483
      6480      6483      6486      6487      6480      6483      6486      6488
      6480      6483      6486      6489      6481      6480      6483      6484
      6481      6480      6483      6485      6481      6480      6483      6486
      6482      6480      6483      6484      6482      6480      6483      6485
      6482      6480      6483      6486      6483      6486      6489      6490
      6483      6486      6489      6491      6483      6486      6489      6492
      6484      6483      6486      6487      6484      6483      6486      6488
      6484      6483      6486      6489      6485      6483      6486      6487
      6485      6483      6486      6488      6485      6483      6486      6489
      6486      6489      6492      6493      6486      6489      6492      6494
      6486      6489      6492      6495      6487      6486      6489      6490
      6487      6486      6489      6491      6487      6486      6489      6492
      6488      6486      6489      6490      6488      6486      6489      6491
      6488      6486      6489      6492      6489      6492      6495      6496
      6489      6492      6495      6497      6490      6489      6492      6493
      6490      6489      6492      6494      6490      6489      6492      6495
      6491      6489      6492      6493      6491      6489      6492      6494
      6491      6489      6492      6495      6492      6495      6497      6498
      6492      6495      6497      6499      6493      6492      6495      6496
      6493      6492      6495      6497      6494      6492      6495      6496
      6494      6492      6495      6497      6495      6497      6499      6500
      6495      6497      6499      6501      6495      6497      6499      6502
      6496      6495      6497      6498      6496      6495      6497      6499
      6497      6499      6502      6503      6497      6499      6502      6504
      6497      6499      6502      6505      6498      6497      6499      6500
      6498      6497      6499      6501      6498      6497      6499      6502
      6499      6502      6505      6506      6499      6502      6505      6507
      6499      6502      6505      6508      6500      6499      6502      6503
      6500      6499      6502      6504      6500      6499      6502      6505
      6501      6499      6502      6503      6501      6499      6502      6504
      6501      6499      6502      6505      6502      6505      6508      6509
      6502      6505      6508      6510      6502      6505      6508      6511
      6503      6502      6505      6506      6503      6502      6505      6507
      6503      6502      6505      6508      6504      6502      6505      6506
      6504      6502      6505      6507      6504      6502      6505      6508
      6505      6508      6511      6512      6505      6508      6511      6513
      6505      6508      6511      6514      6506      6505      6508      6509
      6506      6505      6508      6510      6506      6505      6508      6511
      6507      6505      6508      6509      6507      6505      6508      6510
      6507      6505      6508      6511      6508      6511      6514      6515
      6508      6511      6514      6516      6508      6511      6514      6517
      6509      6508      6511      6512      6509      6508      6511      6513
      6509      6508      6511      6514      6510      6508      6511      6512
      6510      6508      6511      6513      6510      6508      6511      6514
      6511      6514      6517      6518      6511      6514      6517      6519
      6511      6514      6517      6520      6512      6511      6514      6515
      6512      6511      6514      6516      6512      6511      6514      6517
      6513      6511      6514      6515      6513      6511      6514      6516
      6513      6511      6514      6517      6514      6517      6520      6521
      6514      6517      6520      6522      6514      6517      6520      6523
      6515      6514      6517      6518      6515      6514      6517      6519
      6515      6514      6517      6520      6516      6514      6517      6518
      6516      6514      6517      6519      6516      6514      6517      6520
      6518      6517      6520      6521      6518      6517      6520      6522
      6518      6517      6520      6523      6519      6517      6520      6521
      6519      6517      6520      6522      6519      6517      6520      6523
      6524      6527      6530      6531      6524      6527      6530      6532
      6524      6527      6530      6533      6525      6524      6527      6528
      6525      6524      6527      6529      6525      6524      6527      6530
      6526      6524      6527      6528      6526      6524      6527      6529
      6526      6524      6527      6530      6527      6530      6533      6534
      6527      6530      6533      6535      6527      6530      6533      6536
      6528      6527      6530      6531      6528      6527      6530      6532
      6528      6527      6530      6533      6529      6527      6530      6531
      6529      6527      6530      6532      6529      6527      6530      6533
      6530      6533      6536      6537      6530      6533      6536      6538
      6530      6533      6536      6539      6531      6530      6533      6534
      6531      6530      6533      6535      6531      6530      6533      6536
      6532      6530      6533      6534      6532      6530      6533      6535
      6532      6530      6533      6536      6533      6536      6539      6540
      6533      6536      6539      6541      6533      6536      6539      6542
      6534      6533      6536      6537      6534      6533      6536      6538
      6534      6533      6536      6539      6535      6533      6536      6537
      6535      6533      6536      6538      6535      6533      6536      6539
      6536      6539      6542      6543      6536      6539      6542      6544
      6536      6539      6542      6545      6537      6536      6539      6540
      6537      6536      6539      6541      6537      6536      6539      6542
      6538      6536      6539      6540      6538      6536      6539      6541
      6538      6536      6539      6542      6539      6542      6545      6546
      6539      6542      6545      6547      6539      6542      6545      6548
      6540      6539      6542      6543      6540      6539      6542      6544
      6540      6539      6542      6545      6541      6539      6542      6543
      6541      6539      6542      6544      6541      6539      6542      6545
      6542      6545      6548      6549      6542      6545      6548      6550
      6542      6545      6548      6551      6543      6542      6545      6546
      6543      6542      6545      6547      6543      6542      6545      6548
      6544      6542      6545      6546      6544      6542      6545      6547
      6544      6542      6545      6548      6545      6548      6551      6552
      6545      6548      6551      6553      6545      6548      6551      6554
      6546      6545      6548      6549      6546      6545      6548      6550
      6546      6545      6548      6551      6547      6545      6548      6549
      6547      6545      6548      6550      6547      6545      6548      6551
      6548      6551      6554      6555      6548      6551      6554      6556
      6548      6551      6554      6557      6549      6548      6551      6552
      6549      6548      6551      6553      6549      6548      6551      6554
      6550      6548      6551      6552      6550      6548      6551      6553
      6550      6548      6551      6554      6551      6554      6557      6558
      6551      6554      6557      6559      6551      6554      6557      6560
      6552      6551      6554      6555      6552      6551      6554      6556
      6552      6551      6554      6557      6553      6551      6554      6555
      6553      6551      6554      6556      6553      6551      6554      6557
      6554      6557      6560      6561      6554      6557      6560      6562
      6554      6557      6560      6563      6555      6554      6557      6558
      6555      6554      6557      6559      6555      6554      6557      6560
      6556      6554      6557      6558      6556      6554      6557      6559
      6556      6554      6557      6560      6557      6560      6563      6564
      6557      6560      6563      6565      6557      6560      6563      6566
      6558      6557      6560      6561      6558      6557      6560      6562
      6558      6557      6560      6563      6559      6557      6560      6561
      6559      6557      6560      6562      6559      6557      6560      6563
      6561      6560      6563      6564      6561      6560      6563      6565
      6561      6560      6563      6566      6562      6560      6563      6564
      6562      6560      6563      6565      6562      6560      6563      6566
      6567      6568      6583      6584      6567      6568      6583      6585
      6567      6568      6583      6589      6568      6567      6571      6572
      6568      6567      6571      6573      6568      6567      6571      6574
      6568      6567      6575      6576      6568      6567      6575      6577
      6568      6567      6575      6578      6568      6567      6579      6580
      6568      6567      6579      6581      6568      6567      6579      6582
      6568      6583      6589      6586      6569      6568      6567      6571
      6569      6568      6567      6575      6569      6568      6567      6579
      6569      6568      6583      6584      6569      6568      6583      6585
      6569      6568      6583      6589      6570      6568      6567      6571
      6570      6568      6567      6575      6570      6568      6567      6579
      6570      6568      6583      6584      6570      6568      6583      6585
      6570      6568      6583      6589      6571      6567      6568      6583
      6571      6567      6575      6576      6571      6567      6575      6577
      6571      6567      6575      6578      6571      6567      6579      6580
      6571      6567      6579      6581      6571      6567      6579      6582
      6572      6571      6567      6575      6572      6571      6567      6579
      6573      6571      6567      6575      6573      6571      6567      6579
      6574      6571      6567      6575      6574      6571      6567      6579
      6575      6567      6568      6583      6575      6567      6579      6580
      6575      6567      6579      6581      6575      6567      6579      6582
      6576      6575      6567      6579      6577      6575      6567      6579
      6578      6575      6567      6579      6579      6567      6568      6583
      6583      6589      6586      6587      6583      6589      6586      6588
      6583      6589      6586      6590      6584      6583      6589      6586
      6585      6583      6589      6586      6586      6590      6591      6592
      6586      6590      6591      6593      6586      6590      6591      6594
      6587      6586      6590      6591      6588      6586      6590      6591
      6589      6586      6590      6591      6590      6591      6594      6595
      6590      6591      6594      6596      6590      6591      6594      6602
      6591      6594      6596      6597      6591      6594      6602      6603
      6591      6594      6602      6604      6591      6594      6602      6605
      6592      6591      6594      6595      6592      6591      6594      6596
      6592      6591      6594      6602      6593      6591      6594      6595
      6593      6591      6594      6596      6593      6591      6594      6602
      6594      6596      6597      6598      6594      6596      6597      6599
      6594      6602      6605      6606      6595      6594      6596      6597
      6595      6594      6602      6603      6595      6594      6602      6604
      6595      6594      6602      6605      6596      6594      6602      6603
      6596      6594      6602      6604      6596      6594      6602      6605
      6596      6597      6599      6600      6596      6597      6599      6601
      6596      6597      6599      6611      6597      6596      6594      6602
      6597      6599      6611      6612      6597      6599      6611      6613
      6597      6599      6611      6614      6598      6597      6599      6600
      6598      6597      6599      6601      6598      6597      6599      6611
      6599      6611      6614      6615      6599      6611      6614      6616
      6599      6611      6614      6617      6600      6599      6611      6612
      6600      6599      6611      6613      6600      6599      6611      6614
      6601      6599      6611      6612      6601      6599      6611      6613
      6601      6599      6611      6614      6602      6605      6606      6607
      6602      6605      6606      6608      6603      6602      6605      6606
      6604      6602      6605      6606      6605      6606      6608      6609
      6605      6606      6608      6610      6605      6606      6608      6658
      6606      6608      6658      6659      6606      6608      6658      6660
      6606      6608      6658      6661      6607      6606      6608      6609
      6607      6606      6608      6610      6607      6606      6608      6658
      6608      6658      6661      6662      6608      6658      6661      6663
      6608      6658      6661      6664      6609      6608      6658      6659
      6609      6608      6658      6660      6609      6608      6658      6661
      6610      6608      6658      6659      6610      6608      6658      6660
      6610      6608      6658      6661      6611      6614      6617      6618
      6611      6614      6617      6619      6611      6614      6617      6620
      6612      6611      6614      6615      6612      6611      6614      6616
      6612      6611      6614      6617      6613      6611      6614      6615
      6613      6611      6614      6616      6613      6611      6614      6617
      6614      6617      6620      6621      6614      6617      6620      6622
      6614      6617      6620      6623      6615      6614      6617      6618
      6615      6614      6617      6619      6615      6614      6617      6620
      6616      6614      6617      6618      6616      6614      6617      6619
      6616      6614      6617      6620      6617      6620      6623      6624
      6617      6620      6623      6625      6617      6620      6623      6626
      6618      6617      6620      6621      6618      6617      6620      6622
      6618      6617      6620      6623      6619      6617      6620      6621
      6619      6617      6620      6622      6619      6617      6620      6623
      6620      6623      6626      6627      6620      6623      6626      6628
      6620      6623      6626      6629      6621      6620      6623      6624
      6621      6620      6623      6625      6621      6620      6623      6626
      6622      6620      6623      6624      6622      6620      6623      6625
      6622      6620      6623      6626      6623      6626      6629      6630
      6623      6626      6629      6631      6624      6623      6626      6627
      6624      6623      6626      6628      6624      6623      6626      6629
      6625      6623      6626      6627      6625      6623      6626      6628
      6625      6623      6626      6629      6626      6629      6631      6632
      6626      6629      6631      6633      6627      6626      6629      6630
      6627      6626      6629      6631      6628      6626      6629      6630
      6628      6626      6629      6631      6629      6631      6633      6634
      6629      6631      6633      6635      6629      6631      6633      6636
      6630      6629      6631      6632      6630      6629      6631      6633
      6631      6633      6636      6637      6631      6633      6636      6638
      6631      6633      6636      6639      6632      6631      6633      6634
      6632      6631      6633      6635      6632      6631      6633      6636
      6633      6636      6639      6640      6633      6636      6639      6641
      6633      6636      6639      6642      6634      6633      6636      6637
      6634      6633      6636      6638      6634      6633      6636      6639
      6635      6633      6636      6637      6635      6633      6636      6638
      6635      6633      6636      6639      6636      6639      6642      6643
      6636      6639      6642      6644      6636      6639      6642      6645
      6637      6636      6639      6640      6637      6636      6639      6641
      6637      6636      6639      6642      6638      6636      6639      6640
      6638      6636      6639      6641      6638      6636      6639      6642
      6639      6642      6645      6646      6639      6642      6645      6647
      6639      6642      6645      6648      6640      6639      6642      6643
      6640      6639      6642      6644      6640      6639      6642      6645
      6641      6639      6642      6643      6641      6639      6642      6644
      6641      6639      6642      6645      6642      6645      6648      6649
      6642      6645      6648      6650      6642      6645      6648      6651
      6643      6642      6645      6646      6643      6642      6645      6647
      6643      6642      6645      6648      6644      6642      6645      6646
      6644      6642      6645      6647      6644      6642      6645      6648
      6645      6648      6651      6652      6645      6648      6651      6653
      6645      6648      6651      6654      6646      6645      6648      6649
      6646      6645      6648      6650      6646      6645      6648      6651
      6647      6645      6648      6649      6647      6645      6648      6650
      6647      6645      6648      6651      6648      6651      6654      6655
      6648      6651      6654      6656      6648      6651      6654      6657
      6649      6648      6651      6652      6649      6648      6651      6653
      6649      6648      6651      6654      6650      6648      6651      6652
      6650      6648      6651      6653      6650      6648      6651      6654
      6652      6651      6654      6655      6652      6651      6654      6656
      6652      6651      6654      6657      6653      6651      6654      6655
      6653      6651      6654      6656      6653      6651      6654      6657
      6658      6661      6664      6665      6658      6661      6664      6666
      6658      6661      6664      6667      6659      6658      6661      6662
      6659      6658      6661      6663      6659      6658      6661      6664
      6660      6658      6661      6662      6660      6658      6661      6663
      6660      6658      6661      6664      6661      6664      6667      6668
      6661      6664      6667      6669      6661      6664      6667      6670
      6662      6661      6664      6665      6662      6661      6664      6666
      6662      6661      6664      6667      6663      6661      6664      6665
      6663      6661      6664      6666      6663      6661      6664      6667
      6664      6667      6670      6671      6664      6667      6670      6672
      6664      6667      6670      6673      6665      6664      6667      6668
      6665      6664      6667      6669      6665      6664      6667      6670
      6666      6664      6667      6668      6666      6664      6667      6669
      6666      6664      6667      6670      6667      6670      6673      6674
      6667      6670      6673      6675      6667      6670      6673      6676
      6668      6667      6670      6671      6668      6667      6670      6672
      6668      6667      6670      6673      6669      6667      6670      6671
      6669      6667      6670      6672      6669      6667      6670      6673
      6670      6673      6676      6677      6670      6673      6676      6678
      6670      6673      6676      6679      6671      6670      6673      6674
      6671      6670      6673      6675      6671      6670      6673      6676
      6672      6670      6673      6674      6672      6670      6673      6675
      6672      6670      6673      6676      6673      6676      6679      6680
      6673      6676      6679      6681      6673      6676      6679      6682
      6674      6673      6676      6677      6674      6673      6676      6678
      6674      6673      6676      6679      6675      6673      6676      6677
      6675      6673      6676      6678      6675      6673      6676      6679
      6676      6679      6682      6683      6676      6679      6682      6684
      6676      6679      6682      6685      6677      6676      6679      6680
      6677      6676      6679      6681      6677      6676      6679      6682
      6678      6676      6679      6680      6678      6676      6679      6681
      6678      6676      6679      6682      6679      6682      6685      6686
      6679      6682      6685      6687      6679      6682      6685      6688
      6680      6679      6682      6683      6680      6679      6682      6684
      6680      6679      6682      6685      6681      6679      6682      6683
      6681      6679      6682      6684      6681      6679      6682      6685
      6682      6685      6688      6689      6682      6685      6688      6690
      6682      6685      6688      6691      6683      6682      6685      6686
      6683      6682      6685      6687      6683      6682      6685      6688
      6684      6682      6685      6686      6684      6682      6685      6687
      6684      6682      6685      6688      6685      6688      6691      6692
      6685      6688      6691      6693      6685      6688      6691      6694
      6686      6685      6688      6689      6686      6685      6688      6690
      6686      6685      6688      6691      6687      6685      6688      6689
      6687      6685      6688      6690      6687      6685      6688      6691
      6688      6691      6694      6695      6688      6691      6694      6696
      6688      6691      6694      6697      6689      6688      6691      6692
      6689      6688      6691      6693      6689      6688      6691      6694
      6690      6688      6691      6692      6690      6688      6691      6693
      6690      6688      6691      6694      6691      6694      6697      6698
      6691      6694      6697      6699      6691      6694      6697      6700
      6692      6691      6694      6695      6692      6691      6694      6696
      6692      6691      6694      6697      6693      6691      6694      6695
      6693      6691      6694      6696      6693      6691      6694      6697
      6695      6694      6697      6698      6695      6694      6697      6699
      6695      6694      6697      6700      6696      6694      6697      6698
      6696      6694      6697      6699      6696      6694      6697      6700
      6701      6702      6717      6718      6701      6702      6717      6719
      6701      6702      6717      6723      6702      6701      6705      6706
      6702      6701      6705      6707      6702      6701      6705      6708
      6702      6701      6709      6710      6702      6701      6709      6711
      6702      6701      6709      6712      6702      6701      6713      6714
      6702      6701      6713      6715      6702      6701      6713      6716
      6702      6717      6723      6720      6703      6702      6701      6705
      6703      6702      6701      6709      6703      6702      6701      6713
      6703      6702      6717      6718      6703      6702      6717      6719
      6703      6702      6717      6723      6704      6702      6701      6705
      6704      6702      6701      6709      6704      6702      6701      6713
      6704      6702      6717      6718      6704      6702      6717      6719
      6704      6702      6717      6723      6705      6701      6702      6717
      6705      6701      6709      6710      6705      6701      6709      6711
      6705      6701      6709      6712      6705      6701      6713      6714
      6705      6701      6713      6715      6705      6701      6713      6716
      6706      6705      6701      6709      6706      6705      6701      6713
      6707      6705      6701      6709      6707      6705      6701      6713
      6708      6705      6701      6709      6708      6705      6701      6713
      6709      6701      6702      6717      6709      6701      6713      6714
      6709      6701      6713      6715      6709      6701      6713      6716
      6710      6709      6701      6713      6711      6709      6701      6713
      6712      6709      6701      6713      6713      6701      6702      6717
      6717      6723      6720      6721      6717      6723      6720      6722
      6717      6723      6720      6724      6718      6717      6723      6720
      6719      6717      6723      6720      6720      6724      6725      6726
      6720      6724      6725      6727      6720      6724      6725      6728
      6721      6720      6724      6725      6722      6720      6724      6725
      6723      6720      6724      6725      6724      6725      6728      6729
      6724      6725      6728      6730      6724      6725      6728      6736
      6725      6728      6730      6731      6725      6728      6736      6737
      6725      6728      6736      6738      6725      6728      6736      6739
      6726      6725      6728      6729      6726      6725      6728      6730
      6726      6725      6728      6736      6727      6725      6728      6729
      6727      6725      6728      6730      6727      6725      6728      6736
      6728      6730      6731      6732      6728      6730      6731      6733
      6728      6736      6739      6740      6729      6728      6730      6731
      6729      6728      6736      6737      6729      6728      6736      6738
      6729      6728      6736      6739      6730      6728      6736      6737
      6730      6728      6736      6738      6730      6728      6736      6739
      6730      6731      6733      6734      6730      6731      6733      6735
      6730      6731      6733      6745      6731      6730      6728      6736
      6731      6733      6745      6746      6731      6733      6745      6747
      6731      6733      6745      6748      6732      6731      6733      6734
      6732      6731      6733      6735      6732      6731      6733      6745
      6733      6745      6748      6749      6733      6745      6748      6750
      6733      6745      6748      6751      6734      6733      6745      6746
      6734      6733      6745      6747      6734      6733      6745      6748
      6735      6733      6745      6746      6735      6733      6745      6747
      6735      6733      6745      6748      6736      6739      6740      6741
      6736      6739      6740      6742      6737      6736      6739      6740
      6738      6736      6739      6740      6739      6740      6742      6743
      6739      6740      6742      6744      6739      6740      6742      6792
      6740      6742      6792      6793      6740      6742      6792      6794
      6740      6742      6792      6795      6741      6740      6742      6743
      6741      6740      6742      6744      6741      6740      6742      6792
      6742      6792      6795      6796      6742      6792      6795      6797
      6742      6792      6795      6798      6743      6742      6792      6793
      6743      6742      6792      6794      6743      6742      6792      6795
      6744      6742      6792      6793      6744      6742      6792      6794
      6744      6742      6792      6795      6745      6748      6751      6752
      6745      6748      6751      6753      6745      6748      6751      6754
      6746      6745      6748      6749      6746      6745      6748      6750
      6746      6745      6748      6751      6747      6745      6748      6749
      6747      6745      6748      6750      6747      6745      6748      6751
      6748      6751      6754      6755      6748      6751      6754      6756
      6748      6751      6754      6757      6749      6748      6751      6752
      6749      6748      6751      6753      6749      6748      6751      6754
      6750      6748      6751      6752      6750      6748      6751      6753
      6750      6748      6751      6754      6751      6754      6757      6758
      6751      6754      6757      6759      6751      6754      6757      6760
      6752      6751      6754      6755      6752      6751      6754      6756
      6752      6751      6754      6757      6753      6751      6754      6755
      6753      6751      6754      6756      6753      6751      6754      6757
      6754      6757      6760      6761      6754      6757      6760      6762
      6754      6757      6760      6763      6755      6754      6757      6758
      6755      6754      6757      6759      6755      6754      6757      6760
      6756      6754      6757      6758      6756      6754      6757      6759
      6756      6754      6757      6760      6757      6760      6763      6764
      6757      6760      6763      6765      6758      6757      6760      6761
      6758      6757      6760      6762      6758      6757      6760      6763
      6759      6757      6760      6761      6759      6757      6760      6762
      6759      6757      6760      6763      6760      6763      6765      6766
      6760      6763      6765      6767      6761      6760      6763      6764
      6761      6760      6763      6765      6762      6760      6763      6764
      6762      6760      6763      6765      6763      6765      6767      6768
      6763      6765      6767      6769      6763      6765      6767      6770
      6764      6763      6765      6766      6764      6763      6765      6767
      6765      6767      6770      6771      6765      6767      6770      6772
      6765      6767      6770      6773      6766      6765      6767      6768
      6766      6765      6767      6769      6766      6765      6767      6770
      6767      6770      6773      6774      6767      6770      6773      6775
      6767      6770      6773      6776      6768      6767      6770      6771
      6768      6767      6770      6772      6768      6767      6770      6773
      6769      6767      6770      6771      6769      6767      6770      6772
      6769      6767      6770      6773      6770      6773      6776      6777
      6770      6773      6776      6778      6770      6773      6776      6779
      6771      6770      6773      6774      6771      6770      6773      6775
      6771      6770      6773      6776      6772      6770      6773      6774
      6772      6770      6773      6775      6772      6770      6773      6776
      6773      6776      6779      6780      6773      6776      6779      6781
      6773      6776      6779      6782      6774      6773      6776      6777
      6774      6773      6776      6778      6774      6773      6776      6779
      6775      6773      6776      6777      6775      6773      6776      6778
      6775      6773      6776      6779      6776      6779      6782      6783
      6776      6779      6782      6784      6776      6779      6782      6785
      6777      6776      6779      6780      6777      6776      6779      6781
      6777      6776      6779      6782      6778      6776      6779      6780
      6778      6776      6779      6781      6778      6776      6779      6782
      6779      6782      6785      6786      6779      6782      6785      6787
      6779      6782      6785      6788      6780      6779      6782      6783
      6780      6779      6782      6784      6780      6779      6782      6785
      6781      6779      6782      6783      6781      6779      6782      6784
      6781      6779      6782      6785      6782      6785      6788      6789
      6782      6785      6788      6790      6782      6785      6788      6791
      6783      6782      6785      6786      6783      6782      6785      6787
      6783      6782      6785      6788      6784      6782      6785      6786
      6784      6782      6785      6787      6784      6782      6785      6788
      6786      6785      6788      6789      6786      6785      6788      6790
      6786      6785      6788      6791      6787      6785      6788      6789
      6787      6785      6788      6790      6787      6785      6788      6791
      6792      6795      6798      6799      6792      6795      6798      6800
      6792      6795      6798      6801      6793      6792      6795      6796
      6793      6792      6795      6797      6793      6792      6795      6798
      6794      6792      6795      6796      6794      6792      6795      6797
      6794      6792      6795      6798      6795      6798      6801      6802
      6795      6798      6801      6803      6795      6798      6801      6804
      6796      6795      6798      6799      6796      6795      6798      6800
      6796      6795      6798      6801      6797      6795      6798      6799
      6797      6795      6798      6800      6797      6795      6798      6801
      6798      6801      6804      6805      6798      6801      6804      6806
      6798      6801      6804      6807      6799      6798      6801      6802
      6799      6798      6801      6803      6799      6798      6801      6804
      6800      6798      6801      6802      6800      6798      6801      6803
      6800      6798      6801      6804      6801      6804      6807      6808
      6801      6804      6807      6809      6801      6804      6807      6810
      6802      6801      6804      6805      6802      6801      6804      6806
      6802      6801      6804      6807      6803      6801      6804      6805
      6803      6801      6804      6806      6803      6801      6804      6807
      6804      6807      6810      6811      6804      6807      6810      6812
      6804      6807      6810      6813      6805      6804      6807      6808
      6805      6804      6807      6809      6805      6804      6807      6810
      6806      6804      6807      6808      6806      6804      6807      6809
      6806      6804      6807      6810      6807      6810      6813      6814
      6807      6810      6813      6815      6807      6810      6813      6816
      6808      6807      6810      6811      6808      6807      6810      6812
      6808      6807      6810      6813      6809      6807      6810      6811
      6809      6807      6810      6812      6809      6807      6810      6813
      6810      6813      6816      6817      6810      6813      6816      6818
      6810      6813      6816      6819      6811      6810      6813      6814
      6811      6810      6813      6815      6811      6810      6813      6816
      6812      6810      6813      6814      6812      6810      6813      6815
      6812      6810      6813      6816      6813      6816      6819      6820
      6813      6816      6819      6821      6813      6816      6819      6822
      6814      6813      6816      6817      6814      6813      6816      6818
      6814      6813      6816      6819      6815      6813      6816      6817
      6815      6813      6816      6818      6815      6813      6816      6819
      6816      6819      6822      6823      6816      6819      6822      6824
      6816      6819      6822      6825      6817      6816      6819      6820
      6817      6816      6819      6821      6817      6816      6819      6822
      6818      6816      6819      6820      6818      6816      6819      6821
      6818      6816      6819      6822      6819      6822      6825      6826
      6819      6822      6825      6827      6819      6822      6825      6828
      6820      6819      6822      6823      6820      6819      6822      6824
      6820      6819      6822      6825      6821      6819      6822      6823
      6821      6819      6822      6824      6821      6819      6822      6825
      6822      6825      6828      6829      6822      6825      6828      6830
      6822      6825      6828      6831      6823      6822      6825      6826
      6823      6822      6825      6827      6823      6822      6825      6828
      6824      6822      6825      6826      6824      6822      6825      6827
      6824      6822      6825      6828      6825      6828      6831      6832
      6825      6828      6831      6833      6825      6828      6831      6834
      6826      6825      6828      6829      6826      6825      6828      6830
      6826      6825      6828      6831      6827      6825      6828      6829
      6827      6825      6828      6830      6827      6825      6828      6831
      6829      6828      6831      6832      6829      6828      6831      6833
      6829      6828      6831      6834      6830      6828      6831      6832
      6830      6828      6831      6833      6830      6828      6831      6834
      6835      6836      6851      6852      6835      6836      6851      6853
      6835      6836      6851      6857      6836      6835      6839      6840
      6836      6835      6839      6841      6836      6835      6839      6842
      6836      6835      6843      6844      6836      6835      6843      6845
      6836      6835      6843      6846      6836      6835      6847      6848
      6836      6835      6847      6849      6836      6835      6847      6850
      6836      6851      6857      6854      6837      6836      6835      6839
      6837      6836      6835      6843      6837      6836      6835      6847
      6837      6836      6851      6852      6837      6836      6851      6853
      6837      6836      6851      6857      6838      6836      6835      6839
      6838      6836      6835      6843      6838      6836      6835      6847
      6838      6836      6851      6852      6838      6836      6851      6853
      6838      6836      6851      6857      6839      6835      6836      6851
      6839      6835      6843      6844      6839      6835      6843      6845
      6839      6835      6843      6846      6839      6835      6847      6848
      6839      6835      6847      6849      6839      6835      6847      6850
      6840      6839      6835      6843      6840      6839      6835      6847
      6841      6839      6835      6843      6841      6839      6835      6847
      6842      6839      6835      6843      6842      6839      6835      6847
      6843      6835      6836      6851      6843      6835      6847      6848
      6843      6835      6847      6849      6843      6835      6847      6850
      6844      6843      6835      6847      6845      6843      6835      6847
      6846      6843      6835      6847      6847      6835      6836      6851
      6851      6857      6854      6855      6851      6857      6854      6856
      6851      6857      6854      6858      6852      6851      6857      6854
      6853      6851      6857      6854      6854      6858      6859      6860
      6854      6858      6859      6861      6854      6858      6859      6862
      6855      6854      6858      6859      6856      6854      6858      6859
      6857      6854      6858      6859      6858      6859      6862      6863
      6858      6859      6862      6864      6858      6859      6862      6870
      6859      6862      6864      6865      6859      6862      6870      6871
      6859      6862      6870      6872      6859      6862      6870      6873
      6860      6859      6862      6863      6860      6859      6862      6864
      6860      6859      6862      6870      6861      6859      6862      6863
      6861      6859      6862      6864      6861      6859      6862      6870
      6862      6864      6865      6866      6862      6864      6865      6867
      6862      6870      6873      6874      6863      6862      6864      6865
      6863      6862      6870      6871      6863      6862      6870      6872
      6863      6862      6870      6873      6864      6862      6870      6871
      6864      6862      6870      6872      6864      6862      6870      6873
      6864      6865      6867      6868      6864      6865      6867      6869
      6864      6865      6867      6879      6865      6864      6862      6870
      6865      6867      6879      6880      6865      6867      6879      6881
      6865      6867      6879      6882      6866      6865      6867      6868
      6866      6865      6867      6869      6866      6865      6867      6879
      6867      6879      6882      6883      6867      6879      6882      6884
      6867      6879      6882      6885      6868      6867      6879      6880
      6868      6867      6879      6881      6868      6867      6879      6882
      6869      6867      6879      6880      6869      6867      6879      6881
      6869      6867      6879      6882      6870      6873      6874      6875
      6870      6873      6874      6876      6871      6870      6873      6874
      6872      6870      6873      6874      6873      6874      6876      6877
      6873      6874      6876      6878      6873      6874      6876      6926
      6874      6876      6926      6927      6874      6876      6926      6928
      6874      6876      6926      6929      6875      6874      6876      6877
      6875      6874      6876      6878      6875      6874      6876      6926
      6876      6926      6929      6930      6876      6926      6929      6931
      6876      6926      6929      6932      6877      6876      6926      6927
      6877      6876      6926      6928      6877      6876      6926      6929
      6878      6876      6926      6927      6878      6876      6926      6928
      6878      6876      6926      6929      6879      6882      6885      6886
      6879      6882      6885      6887      6879      6882      6885      6888
      6880      6879      6882      6883      6880      6879      6882      6884
      6880      6879      6882      6885      6881      6879      6882      6883
      6881      6879      6882      6884      6881      6879      6882      6885
      6882      6885      6888      6889      6882      6885      6888      6890
      6882      6885      6888      6891      6883      6882      6885      6886
      6883      6882      6885      6887      6883      6882      6885      6888
      6884      6882      6885      6886      6884      6882      6885      6887
      6884      6882      6885      6888      6885      6888      6891      6892
      6885      6888      6891      6893      6885      6888      6891      6894
      6886      6885      6888      6889      6886      6885      6888      6890
      6886      6885      6888      6891      6887      6885      6888      6889
      6887      6885      6888      6890      6887      6885      6888      6891
      6888      6891      6894      6895      6888      6891      6894      6896
      6888      6891      6894      6897      6889      6888      6891      6892
      6889      6888      6891      6893      6889      6888      6891      6894
      6890      6888      6891      6892      6890      6888      6891      6893
      6890      6888      6891      6894      6891      6894      6897      6898
      6891      6894      6897      6899      6892      6891      6894      6895
      6892      6891      6894      6896      6892      6891      6894      6897
      6893      6891      6894      6895      6893      6891      6894      6896
      6893      6891      6894      6897      6894      6897      6899      6900
      6894      6897      6899      6901      6895      6894      6897      6898
      6895      6894      6897      6899      6896      6894      6897      6898
      6896      6894      6897      6899      6897      6899      6901      6902
      6897      6899      6901      6903      6897      6899      6901      6904
      6898      6897      6899      6900      6898      6897      6899      6901
      6899      6901      6904      6905      6899      6901      6904      6906
      6899      6901      6904      6907      6900      6899      6901      6902
      6900      6899      6901      6903      6900      6899      6901      6904
      6901      6904      6907      6908      6901      6904      6907      6909
      6901      6904      6907      6910      6902      6901      6904      6905
      6902      6901      6904      6906      6902      6901      6904      6907
      6903      6901      6904      6905      6903      6901      6904      6906
      6903      6901      6904      6907      6904      6907      6910      6911
      6904      6907      6910      6912      6904      6907      6910      6913
      6905      6904      6907      6908      6905      6904      6907      6909
      6905      6904      6907      6910      6906      6904      6907      6908
      6906      6904      6907      6909      6906      6904      6907      6910
      6907      6910      6913      6914      6907      6910      6913      6915
      6907      6910      6913      6916      6908      6907      6910      6911
      6908      6907      6910      6912      6908      6907      6910      6913
      6909      6907      6910      6911      6909      6907      6910      6912
      6909      6907      6910      6913      6910      6913      6916      6917
      6910      6913      6916      6918      6910      6913      6916      6919
      6911      6910      6913      6914      6911      6910      6913      6915
      6911      6910      6913      6916      6912      6910      6913      6914
      6912      6910      6913      6915      6912      6910      6913      6916
      6913      6916      6919      6920      6913      6916      6919      6921
      6913      6916      6919      6922      6914      6913      6916      6917
      6914      6913      6916      6918      6914      6913      6916      6919
      6915      6913      6916      6917      6915      6913      6916      6918
      6915      6913      6916      6919      6916      6919      6922      6923
      6916      6919      6922      6924      6916      6919      6922      6925
      6917      6916      6919      6920      6917      6916      6919      6921
      6917      6916      6919      6922      6918      6916      6919      6920
      6918      6916      6919      6921      6918      6916      6919      6922
      6920      6919      6922      6923      6920      6919      6922      6924
      6920      6919      6922      6925      6921      6919      6922      6923
      6921      6919      6922      6924      6921      6919      6922      6925
      6926      6929      6932      6933      6926      6929      6932      6934
      6926      6929      6932      6935      6927      6926      6929      6930
      6927      6926      6929      6931      6927      6926      6929      6932
      6928      6926      6929      6930      6928      6926      6929      6931
      6928      6926      6929      6932      6929      6932      6935      6936
      6929      6932      6935      6937      6929      6932      6935      6938
      6930      6929      6932      6933      6930      6929      6932      6934
      6930      6929      6932      6935      6931      6929      6932      6933
      6931      6929      6932      6934      6931      6929      6932      6935
      6932      6935      6938      6939      6932      6935      6938      6940
      6932      6935      6938      6941      6933      6932      6935      6936
      6933      6932      6935      6937      6933      6932      6935      6938
      6934      6932      6935      6936      6934      6932      6935      6937
      6934      6932      6935      6938      6935      6938      6941      6942
      6935      6938      6941      6943      6935      6938      6941      6944
      6936      6935      6938      6939      6936      6935      6938      6940
      6936      6935      6938      6941      6937      6935      6938      6939
      6937      6935      6938      6940      6937      6935      6938      6941
      6938      6941      6944      6945      6938      6941      6944      6946
      6938      6941      6944      6947      6939      6938      6941      6942
      6939      6938      6941      6943      6939      6938      6941      6944
      6940      6938      6941      6942      6940      6938      6941      6943
      6940      6938      6941      6944      6941      6944      6947      6948
      6941      6944      6947      6949      6941      6944      6947      6950
      6942      6941      6944      6945      6942      6941      6944      6946
      6942      6941      6944      6947      6943      6941      6944      6945
      6943      6941      6944      6946      6943      6941      6944      6947
      6944      6947      6950      6951      6944      6947      6950      6952
      6944      6947      6950      6953      6945      6944      6947      6948
      6945      6944      6947      6949      6945      6944      6947      6950
      6946      6944      6947      6948      6946      6944      6947      6949
      6946      6944      6947      6950      6947      6950      6953      6954
      6947      6950      6953      6955      6947      6950      6953      6956
      6948      6947      6950      6951      6948      6947      6950      6952
      6948      6947      6950      6953      6949      6947      6950      6951
      6949      6947      6950      6952      6949      6947      6950      6953
      6950      6953      6956      6957      6950      6953      6956      6958
      6950      6953      6956      6959      6951      6950      6953      6954
      6951      6950      6953      6955      6951      6950      6953      6956
      6952      6950      6953      6954      6952      6950      6953      6955
      6952      6950      6953      6956      6953      6956      6959      6960
      6953      6956      6959      6961      6953      6956      6959      6962
      6954      6953      6956      6957      6954      6953      6956      6958
      6954      6953      6956      6959      6955      6953      6956      6957
      6955      6953      6956      6958      6955      6953      6956      6959
      6956      6959      6962      6963      6956      6959      6962      6964
      6956      6959      6962      6965      6957      6956      6959      6960
      6957      6956      6959      6961      6957      6956      6959      6962
      6958      6956      6959      6960      6958      6956      6959      6961
      6958      6956      6959      6962      6959      6962      6965      6966
      6959      6962      6965      6967      6959      6962      6965      6968
      6960      6959      6962      6963      6960      6959      6962      6964
      6960      6959      6962      6965      6961      6959      6962      6963
      6961      6959      6962      6964      6961      6959      6962      6965
      6963      6962      6965      6966      6963      6962      6965      6967
      6963      6962      6965      6968      6964      6962      6965      6966
      6964      6962      6965      6967      6964      6962      6965      6968
      6969      6970      6985      6986      6969      6970      6985      6987
      6969      6970      6985      6991      6970      6969      6973      6974
      6970      6969      6973      6975      6970      6969      6973      6976
      6970      6969      6977      6978      6970      6969      6977      6979
      6970      6969      6977      6980      6970      6969      6981      6982
      6970      6969      6981      6983      6970      6969      6981      6984
      6970      6985      6991      6988      6971      6970      6969      6973
      6971      6970      6969      6977      6971      6970      6969      6981
      6971      6970      6985      6986      6971      6970      6985      6987
      6971      6970      6985      6991      6972      6970      6969      6973
      6972      6970      6969      6977      6972      6970      6969      6981
      6972      6970      6985      6986      6972      6970      6985      6987
      6972      6970      6985      6991      6973      6969      6970      6985
      6973      6969      6977      6978      6973      6969      6977      6979
      6973      6969      6977      6980      6973      6969      6981      6982
      6973      6969      6981      6983      6973      6969      6981      6984
      6974      6973      6969      6977      6974      6973      6969      6981
      6975      6973      6969      6977      6975      6973      6969      6981
      6976      6973      6969      6977      6976      6973      6969      6981
      6977      6969      6970      6985      6977      6969      6981      6982
      6977      6969      6981      6983      6977      6969      6981      6984
      6978      6977      6969      6981      6979      6977      6969      6981
      6980      6977      6969      6981      6981      6969      6970      6985
      6985      6991      6988      6989      6985      6991      6988      6990
      6985      6991      6988      6992      6986      6985      6991      6988
      6987      6985      6991      6988      6988      6992      6993      6994
      6988      6992      6993      6995      6988      6992      6993      6996
      6989      6988      6992      6993      6990      6988      6992      6993
      6991      6988      6992      6993      6992      6993      6996      6997
      6992      6993      6996      6998      6992      6993      6996      7004
      6993      6996      6998      6999      6993      6996      7004      7005
      6993      6996      7004      7006      6993      6996      7004      7007
      6994      6993      6996      6997      6994      6993      6996      6998
      6994      6993      6996      7004      6995      6993      6996      6997
      6995      6993      6996      6998      6995      6993      6996      7004
      6996      6998      6999      7000      6996      6998      6999      7001
      6996      7004      7007      7008      6997      6996      6998      6999
      6997      6996      7004      7005      6997      6996      7004      7006
      6997      6996      7004      7007      6998      6996      7004      7005
      6998      6996      7004      7006      6998      6996      7004      7007
      6998      6999      7001      7002      6998      6999      7001      7003
      6998      6999      7001      7013      6999      6998      6996      7004
      6999      7001      7013      7014      6999      7001      7013      7015
      6999      7001      7013      7016      7000      6999      7001      7002
      7000      6999      7001      7003      7000      6999      7001      7013
      7001      7013      7016      7017      7001      7013      7016      7018
      7001      7013      7016      7019      7002      7001      7013      7014
      7002      7001      7013      7015      7002      7001      7013      7016
      7003      7001      7013      7014      7003      7001      7013      7015
      7003      7001      7013      7016      7004      7007      7008      7009
      7004      7007      7008      7010      7005      7004      7007      7008
      7006      7004      7007      7008      7007      7008      7010      7011
      7007      7008      7010      7012      7007      7008      7010      7060
      7008      7010      7060      7061      7008      7010      7060      7062
      7008      7010      7060      7063      7009      7008      7010      7011
      7009      7008      7010      7012      7009      7008      7010      7060
      7010      7060      7063      7064      7010      7060      7063      7065
      7010      7060      7063      7066      7011      7010      7060      7061
      7011      7010      7060      7062      7011      7010      7060      7063
      7012      7010      7060      7061      7012      7010      7060      7062
      7012      7010      7060      7063      7013      7016      7019      7020
      7013      7016      7019      7021      7013      7016      7019      7022
      7014      7013      7016      7017      7014      7013      7016      7018
      7014      7013      7016      7019      7015      7013      7016      7017
      7015      7013      7016      7018      7015      7013      7016      7019
      7016      7019      7022      7023      7016      7019      7022      7024
      7016      7019      7022      7025      7017      7016      7019      7020
      7017      7016      7019      7021      7017      7016      7019      7022
      7018      7016      7019      7020      7018      7016      7019      7021
      7018      7016      7019      7022      7019      7022      7025      7026
      7019      7022      7025      7027      7019      7022      7025      7028
      7020      7019      7022      7023      7020      7019      7022      7024
      7020      7019      7022      7025      7021      7019      7022      7023
      7021      7019      7022      7024      7021      7019      7022      7025
      7022      7025      7028      7029      7022      7025      7028      7030
      7022      7025      7028      7031      7023      7022      7025      7026
      7023      7022      7025      7027      7023      7022      7025      7028
      7024      7022      7025      7026      7024      7022      7025      7027
      7024      7022      7025      7028      7025      7028      7031      7032
      7025      7028      7031      7033      7026      7025      7028      7029
      7026      7025      7028      7030      7026      7025      7028      7031
      7027      7025      7028      7029      7027      7025      7028      7030
      7027      7025      7028      7031      7028      7031      7033      7034
      7028      7031      7033      7035      7029      7028      7031      7032
      7029      7028      7031      7033      7030      7028      7031      7032
      7030      7028      7031      7033      7031      7033      7035      7036
      7031      7033      7035      7037      7031      7033      7035      7038
      7032      7031      7033      7034      7032      7031      7033      7035
      7033      7035      7038      7039      7033      7035      7038      7040
      7033      7035      7038      7041      7034      7033      7035      7036
      7034      7033      7035      7037      7034      7033      7035      7038
      7035      7038      7041      7042      7035      7038      7041      7043
      7035      7038      7041      7044      7036      7035      7038      7039
      7036      7035      7038      7040      7036      7035      7038      7041
      7037      7035      7038      7039      7037      7035      7038      7040
      7037      7035      7038      7041      7038      7041      7044      7045
      7038      7041      7044      7046      7038      7041      7044      7047
      7039      7038      7041      7042      7039      7038      7041      7043
      7039      7038      7041      7044      7040      7038      7041      7042
      7040      7038      7041      7043      7040      7038      7041      7044
      7041      7044      7047      7048      7041      7044      7047      7049
      7041      7044      7047      7050      7042      7041      7044      7045
      7042      7041      7044      7046      7042      7041      7044      7047
      7043      7041      7044      7045      7043      7041      7044      7046
      7043      7041      7044      7047      7044      7047      7050      7051
      7044      7047      7050      7052      7044      7047      7050      7053
      7045      7044      7047      7048      7045      7044      7047      7049
      7045      7044      7047      7050      7046      7044      7047      7048
      7046      7044      7047      7049      7046      7044      7047      7050
      7047      7050      7053      7054      7047      7050      7053      7055
      7047      7050      7053      7056      7048      7047      7050      7051
      7048      7047      7050      7052      7048      7047      7050      7053
      7049      7047      7050      7051      7049      7047      7050      7052
      7049      7047      7050      7053      7050      7053      7056      7057
      7050      7053      7056      7058      7050      7053      7056      7059
      7051      7050      7053      7054      7051      7050      7053      7055
      7051      7050      7053      7056      7052      7050      7053      7054
      7052      7050      7053      7055      7052      7050      7053      7056
      7054      7053      7056      7057      7054      7053      7056      7058
      7054      7053      7056      7059      7055      7053      7056      7057
      7055      7053      7056      7058      7055      7053      7056      7059
      7060      7063      7066      7067      7060      7063      7066      7068
      7060      7063      7066      7069      7061      7060      7063      7064
      7061      7060      7063      7065      7061      7060      7063      7066
      7062      7060      7063      7064      7062      7060      7063      7065
      7062      7060      7063      7066      7063      7066      7069      7070
      7063      7066      7069      7071      7063      7066      7069      7072
      7064      7063      7066      7067      7064      7063      7066      7068
      7064      7063      7066      7069      7065      7063      7066      7067
      7065      7063      7066      7068      7065      7063      7066      7069
      7066      7069      7072      7073      7066      7069      7072      7074
      7066      7069      7072      7075      7067      7066      7069      7070
      7067      7066      7069      7071      7067      7066      7069      7072
      7068      7066      7069      7070      7068      7066      7069      7071
      7068      7066      7069      7072      7069      7072      7075      7076
      7069      7072      7075      7077      7069      7072      7075      7078
      7070      7069      7072      7073      7070      7069      7072      7074
      7070      7069      7072      7075      7071      7069      7072      7073
      7071      7069      7072      7074      7071      7069      7072      7075
      7072      7075      7078      7079      7072      7075      7078      7080
      7072      7075      7078      7081      7073      7072      7075      7076
      7073      7072      7075      7077      7073      7072      7075      7078
      7074      7072      7075      7076      7074      7072      7075      7077
      7074      7072      7075      7078      7075      7078      7081      7082
      7075      7078      7081      7083      7075      7078      7081      7084
      7076      7075      7078      7079      7076      7075      7078      7080
      7076      7075      7078      7081      7077      7075      7078      7079
      7077      7075      7078      7080      7077      7075      7078      7081
      7078      7081      7084      7085      7078      7081      7084      7086
      7078      7081      7084      7087      7079      7078      7081      7082
      7079      7078      7081      7083      7079      7078      7081      7084
      7080      7078      7081      7082      7080      7078      7081      7083
      7080      7078      7081      7084      7081      7084      7087      7088
      7081      7084      7087      7089      7081      7084      7087      7090
      7082      7081      7084      7085      7082      7081      7084      7086
      7082      7081      7084      7087      7083      7081      7084      7085
      7083      7081      7084      7086      7083      7081      7084      7087
      7084      7087      7090      7091      7084      7087      7090      7092
      7084      7087      7090      7093      7085      7084      7087      7088
      7085      7084      7087      7089      7085      7084      7087      7090
      7086      7084      7087      7088      7086      7084      7087      7089
      7086      7084      7087      7090      7087      7090      7093      7094
      7087      7090      7093      7095      7087      7090      7093      7096
      7088      7087      7090      7091      7088      7087      7090      7092
      7088      7087      7090      7093      7089      7087      7090      7091
      7089      7087      7090      7092      7089      7087      7090      7093
      7090      7093      7096      7097      7090      7093      7096      7098
      7090      7093      7096      7099      7091      7090      7093      7094
      7091      7090      7093      7095      7091      7090      7093      7096
      7092      7090      7093      7094      7092      7090      7093      7095
      7092      7090      7093      7096      7093      7096      7099      7100
      7093      7096      7099      7101      7093      7096      7099      7102
      7094      7093      7096      7097      7094      7093      7096      7098
      7094      7093      7096      7099      7095      7093      7096      7097
      7095      7093      7096      7098      7095      7093      7096      7099
      7097      7096      7099      7100      7097      7096      7099      7101
      7097      7096      7099      7102      7098      7096      7099      7100
      7098      7096      7099      7101      7098      7096      7099      7102
      7103      7104      7119      7120      7103      7104      7119      7121
      7103      7104      7119      7125      7104      7103      7107      7108
      7104      7103      7107      7109      7104      7103      7107      7110
      7104      7103      7111      7112      7104      7103      7111      7113
      7104      7103      7111      7114      7104      7103      7115      7116
      7104      7103      7115      7117      7104      7103      7115      7118
      7104      7119      7125      7122      7105      7104      7103      7107
      7105      7104      7103      7111      7105      7104      7103      7115
      7105      7104      7119      7120      7105      7104      7119      7121
      7105      7104      7119      7125      7106      7104      7103      7107
      7106      7104      7103      7111      7106      7104      7103      7115
      7106      7104      7119      7120      7106      7104      7119      7121
      7106      7104      7119      7125      7107      7103      7104      7119
      7107      7103      7111      7112      7107      7103      7111      7113
      7107      7103      7111      7114      7107      7103      7115      7116
      7107      7103      7115      7117      7107      7103      7115      7118
      7108      7107      7103      7111      7108      7107      7103      7115
      7109      7107      7103      7111      7109      7107      7103      7115
      7110      7107      7103      7111      7110      7107      7103      7115
      7111      7103      7104      7119      7111      7103      7115      7116
      7111      7103      7115      7117      7111      7103      7115      7118
      7112      7111      7103      7115      7113      7111      7103      7115
      7114      7111      7103      7115      7115      7103      7104      7119
      7119      7125      7122      7123      7119      7125      7122      7124
      7119      7125      7122      7126      7120      7119      7125      7122
      7121      7119      7125      7122      7122      7126      7127      7128
      7122      7126      7127      7129      7122      7126      7127      7130
      7123      7122      7126      7127      7124      7122      7126      7127
      7125      7122      7126      7127      7126      7127      7130      7131
      7126      7127      7130      7132      7126      7127      7130      7138
      7127      7130      7132      7133      7127      7130      7138      7139
      7127      7130      7138      7140      7127      7130      7138      7141
      7128      7127      7130      7131      7128      7127      7130      7132
      7128      7127      7130      7138      7129      7127      7130      7131
      7129      7127      7130      7132      7129      7127      7130      7138
      7130      7132      7133      7134      7130      7132      7133      7135
      7130      7138      7141      7142      7131      7130      7132      7133
      7131      7130      7138      7139      7131      7130      7138      7140
      7131      7130      7138      7141      7132      7130      7138      7139
      7132      7130      7138      7140      7132      7130      7138      7141
      7132      7133      7135      7136      7132      7133      7135      7137
      7132      7133      7135      7147      7133      7132      7130      7138
      7133      7135      7147      7148      7133      7135      7147      7149
      7133      7135      7147      7150      7134      7133      7135      7136
      7134      7133      7135      7137      7134      7133      7135      7147
      7135      7147      7150      7151      7135      7147      7150      7152
      7135      7147      7150      7153      7136      7135      7147      7148
      7136      7135      7147      7149      7136      7135      7147      7150
      7137      7135      7147      7148      7137      7135      7147      7149
      7137      7135      7147      7150      7138      7141      7142      7143
      7138      7141      7142      7144      7139      7138      7141      7142
      7140      7138      7141      7142      7141      7142      7144      7145
      7141      7142      7144      7146      7141      7142      7144      7194
      7142      7144      7194      7195      7142      7144      7194      7196
      7142      7144      7194      7197      7143      7142      7144      7145
      7143      7142      7144      7146      7143      7142      7144      7194
      7144      7194      7197      7198      7144      7194      7197      7199
      7144      7194      7197      7200      7145      7144      7194      7195
      7145      7144      7194      7196      7145      7144      7194      7197
      7146      7144      7194      7195      7146      7144      7194      7196
      7146      7144      7194      7197      7147      7150      7153      7154
      7147      7150      7153      7155      7147      7150      7153      7156
      7148      7147      7150      7151      7148      7147      7150      7152
      7148      7147      7150      7153      7149      7147      7150      7151
      7149      7147      7150      7152      7149      7147      7150      7153
      7150      7153      7156      7157      7150      7153      7156      7158
      7150      7153      7156      7159      7151      7150      7153      7154
      7151      7150      7153      7155      7151      7150      7153      7156
      7152      7150      7153      7154      7152      7150      7153      7155
      7152      7150      7153      7156      7153      7156      7159      7160
      7153      7156      7159      7161      7153      7156      7159      7162
      7154      7153      7156      7157      7154      7153      7156      7158
      7154      7153      7156      7159      7155      7153      7156      7157
      7155      7153      7156      7158      7155      7153      7156      7159
      7156      7159      7162      7163      7156      7159      7162      7164
      7156      7159      7162      7165      7157      7156      7159      7160
      7157      7156      7159      7161      7157      7156      7159      7162
      7158      7156      7159      7160      7158      7156      7159      7161
      7158      7156      7159      7162      7159      7162      7165      7166
      7159      7162      7165      7167      7160      7159      7162      7163
      7160      7159      7162      7164      7160      7159      7162      7165
      7161      7159      7162      7163      7161      7159      7162      7164
      7161      7159      7162      7165      7162      7165      7167      7168
      7162      7165      7167      7169      7163      7162      7165      7166
      7163      7162      7165      7167      7164      7162      7165      7166
      7164      7162      7165      7167      7165      7167      7169      7170
      7165      7167      7169      7171      7165      7167      7169      7172
      7166      7165      7167      7168      7166      7165      7167      7169
      7167      7169      7172      7173      7167      7169      7172      7174
      7167      7169      7172      7175      7168      7167      7169      7170
      7168      7167      7169      7171      7168      7167      7169      7172
      7169      7172      7175      7176      7169      7172      7175      7177
      7169      7172      7175      7178      7170      7169      7172      7173
      7170      7169      7172      7174      7170      7169      7172      7175
      7171      7169      7172      7173      7171      7169      7172      7174
      7171      7169      7172      7175      7172      7175      7178      7179
      7172      7175      7178      7180      7172      7175      7178      7181
      7173      7172      7175      7176      7173      7172      7175      7177
      7173      7172      7175      7178      7174      7172      7175      7176
      7174      7172      7175      7177      7174      7172      7175      7178
      7175      7178      7181      7182      7175      7178      7181      7183
      7175      7178      7181      7184      7176      7175      7178      7179
      7176      7175      7178      7180      7176      7175      7178      7181
      7177      7175      7178      7179      7177      7175      7178      7180
      7177      7175      7178      7181      7178      7181      7184      7185
      7178      7181      7184      7186      7178      7181      7184      7187
      7179      7178      7181      7182      7179      7178      7181      7183
      7179      7178      7181      7184      7180      7178      7181      7182
      7180      7178      7181      7183      7180      7178      7181      7184
      7181      7184      7187      7188      7181      7184      7187      7189
      7181      7184      7187      7190      7182      7181      7184      7185
      7182      7181      7184      7186      7182      7181      7184      7187
      7183      7181      7184      7185      7183      7181      7184      7186
      7183      7181      7184      7187      7184      7187      7190      7191
      7184      7187      7190      7192      7184      7187      7190      7193
      7185      7184      7187      7188      7185      7184      7187      7189
      7185      7184      7187      7190      7186      7184      7187      7188
      7186      7184      7187      7189      7186      7184      7187      7190
      7188      7187      7190      7191      7188      7187      7190      7192
      7188      7187      7190      7193      7189      7187      7190      7191
      7189      7187      7190      7192      7189      7187      7190      7193
      7194      7197      7200      7201      7194      7197      7200      7202
      7194      7197      7200      7203      7195      7194      7197      7198
      7195      7194      7197      7199      7195      7194      7197      7200
      7196      7194      7197      7198      7196      7194      7197      7199
      7196      7194      7197      7200      7197      7200      7203      7204
      7197      7200      7203      7205      7197      7200      7203      7206
      7198      7197      7200      7201      7198      7197      7200      7202
      7198      7197      7200      7203      7199      7197      7200      7201
      7199      7197      7200      7202      7199      7197      7200      7203
      7200      7203      7206      7207      7200      7203      7206      7208
      7200      7203      7206      7209      7201      7200      7203      7204
      7201      7200      7203      7205      7201      7200      7203      7206
      7202      7200      7203      7204      7202      7200      7203      7205
      7202      7200      7203      7206      7203      7206      7209      7210
      7203      7206      7209      7211      7203      7206      7209      7212
      7204      7203      7206      7207      7204      7203      7206      7208
      7204      7203      7206      7209      7205      7203      7206      7207
      7205      7203      7206      7208      7205      7203      7206      7209
      7206      7209      7212      7213      7206      7209      7212      7214
      7206      7209      7212      7215      7207      7206      7209      7210
      7207      7206      7209      7211      7207      7206      7209      7212
      7208      7206      7209      7210      7208      7206      7209      7211
      7208      7206      7209      7212      7209      7212      7215      7216
      7209      7212      7215      7217      7209      7212      7215      7218
      7210      7209      7212      7213      7210      7209      7212      7214
      7210      7209      7212      7215      7211      7209      7212      7213
      7211      7209      7212      7214      7211      7209      7212      7215
      7212      7215      7218      7219      7212      7215      7218      7220
      7212      7215      7218      7221      7213      7212      7215      7216
      7213      7212      7215      7217      7213      7212      7215      7218
      7214      7212      7215      7216      7214      7212      7215      7217
      7214      7212      7215      7218      7215      7218      7221      7222
      7215      7218      7221      7223      7215      7218      7221      7224
      7216      7215      7218      7219      7216      7215      7218      7220
      7216      7215      7218      7221      7217      7215      7218      7219
      7217      7215      7218      7220      7217      7215      7218      7221
      7218      7221      7224      7225      7218      7221      7224      7226
      7218      7221      7224      7227      7219      7218      7221      7222
      7219      7218      7221      7223      7219      7218      7221      7224
      7220      7218      7221      7222      7220      7218      7221      7223
      7220      7218      7221      7224      7221      7224      7227      7228
      7221      7224      7227      7229      7221      7224      7227      7230
      7222      7221      7224      7225      7222      7221      7224      7226
      7222      7221      7224      7227      7223      7221      7224      7225
      7223      7221      7224      7226      7223      7221      7224      7227
      7224      7227      7230      7231      7224      7227      7230      7232
      7224      7227      7230      7233      7225      7224      7227      7228
      7225      7224      7227      7229      7225      7224      7227      7230
      7226      7224      7227      7228      7226      7224      7227      7229
      7226      7224      7227      7230      7227      7230      7233      7234
      7227      7230      7233      7235      7227      7230      7233      7236
      7228      7227      7230      7231      7228      7227      7230      7232
      7228      7227      7230      7233      7229      7227      7230      7231
      7229      7227      7230      7232      7229      7227      7230      7233
      7231      7230      7233      7234      7231      7230      7233      7235
      7231      7230      7233      7236      7232      7230      7233      7234
      7232      7230      7233      7235      7232      7230      7233      7236
      7237      7238      7253      7254      7237      7238      7253      7255
      7237      7238      7253      7259      7238      7237      7241      7242
      7238      7237      7241      7243      7238      7237      7241      7244
      7238      7237      7245      7246      7238      7237      7245      7247
      7238      7237      7245      7248      7238      7237      7249      7250
      7238      7237      7249      7251      7238      7237      7249      7252
      7238      7253      7259      7256      7239      7238      7237      7241
      7239      7238      7237      7245      7239      7238      7237      7249
      7239      7238      7253      7254      7239      7238      7253      7255
      7239      7238      7253      7259      7240      7238      7237      7241
      7240      7238      7237      7245      7240      7238      7237      7249
      7240      7238      7253      7254      7240      7238      7253      7255
      7240      7238      7253      7259      7241      7237      7238      7253
      7241      7237      7245      7246      7241      7237      7245      7247
      7241      7237      7245      7248      7241      7237      7249      7250
      7241      7237      7249      7251      7241      7237      7249      7252
      7242      7241      7237      7245      7242      7241      7237      7249
      7243      7241      7237      7245      7243      7241      7237      7249
      7244      7241      7237      7245      7244      7241      7237      7249
      7245      7237      7238      7253      7245      7237      7249      7250
      7245      7237      7249      7251      7245      7237      7249      7252
      7246      7245      7237      7249      7247      7245      7237      7249
      7248      7245      7237      7249      7249      7237      7238      7253
      7253      7259      7256      7257      7253      7259      7256      7258
      7253      7259      7256      7260      7254      7253      7259      7256
      7255      7253      7259      7256      7256      7260      7261      7262
      7256      7260      7261      7263      7256      7260      7261      7264
      7257      7256      7260      7261      7258      7256      7260      7261
      7259      7256      7260      7261      7260      7261      7264      7265
      7260      7261      7264      7266      7260      7261      7264      7272
      7261      7264      7266      7267      7261      7264      7272      7273
      7261      7264      7272      7274      7261      7264      7272      7275
      7262      7261      7264      7265      7262      7261      7264      7266
      7262      7261      7264      7272      7263      7261      7264      7265
      7263      7261      7264      7266      7263      7261      7264      7272
      7264      7266      7267      7268      7264      7266      7267      7269
      7264      7272      7275      7276      7265      7264      7266      7267
      7265      7264      7272      7273      7265      7264      7272      7274
      7265      7264      7272      7275      7266      7264      7272      7273
      7266      7264      7272      7274      7266      7264      7272      7275
      7266      7267      7269      7270      7266      7267      7269      7271
      7266      7267      7269      7281      7267      7266      7264      7272
      7267      7269      7281      7282      7267      7269      7281      7283
      7267      7269      7281      7284      7268      7267      7269      7270
      7268      7267      7269      7271      7268      7267      7269      7281
      7269      7281      7284      7285      7269      7281      7284      7286
      7269      7281      7284      7287      7270      7269      7281      7282
      7270      7269      7281      7283      7270      7269      7281      7284
      7271      7269      7281      7282      7271      7269      7281      7283
      7271      7269      7281      7284      7272      7275      7276      7277
      7272      7275      7276      7278      7273      7272      7275      7276
      7274      7272      7275      7276      7275      7276      7278      7279
      7275      7276      7278      7280      7275      7276      7278      7328
      7276      7278      7328      7329      7276      7278      7328      7330
      7276      7278      7328      7331      7277      7276      7278      7279
      7277      7276      7278      7280      7277      7276      7278      7328
      7278      7328      7331      7332      7278      7328      7331      7333
      7278      7328      7331      7334      7279      7278      7328      7329
      7279      7278      7328      7330      7279      7278      7328      7331
      7280      7278      7328      7329      7280      7278      7328      7330
      7280      7278      7328      7331      7281      7284      7287      7288
      7281      7284      7287      7289      7281      7284      7287      7290
      7282      7281      7284      7285      7282      7281      7284      7286
      7282      7281      7284      7287      7283      7281      7284      7285
      7283      7281      7284      7286      7283      7281      7284      7287
      7284      7287      7290      7291      7284      7287      7290      7292
      7284      7287      7290      7293      7285      7284      7287      7288
      7285      7284      7287      7289      7285      7284      7287      7290
      7286      7284      7287      7288      7286      7284      7287      7289
      7286      7284      7287      7290      7287      7290      7293      7294
      7287      7290      7293      7295      7287      7290      7293      7296
      7288      7287      7290      7291      7288      7287      7290      7292
      7288      7287      7290      7293      7289      7287      7290      7291
      7289      7287      7290      7292      7289      7287      7290      7293
      7290      7293      7296      7297      7290      7293      7296      7298
      7290      7293      7296      7299      7291      7290      7293      7294
      7291      7290      7293      7295      7291      7290      7293      7296
      7292      7290      7293      7294      7292      7290      7293      7295
      7292      7290      7293      7296      7293      7296      7299      7300
      7293      7296      7299      7301      7294      7293      7296      7297
      7294      7293      7296      7298      7294      7293      7296      7299
      7295      7293      7296      7297      7295      7293      7296      7298
      7295      7293      7296      7299      7296      7299      7301      7302
      7296      7299      7301      7303      7297      7296      7299      7300
      7297      7296      7299      7301      7298      7296      7299      7300
      7298      7296      7299      7301      7299      7301      7303      7304
      7299      7301      7303      7305      7299      7301      7303      7306
      7300      7299      7301      7302      7300      7299      7301      7303
      7301      7303      7306      7307      7301      7303      7306      7308
      7301      7303      7306      7309      7302      7301      7303      7304
      7302      7301      7303      7305      7302      7301      7303      7306
      7303      7306      7309      7310      7303      7306      7309      7311
      7303      7306      7309      7312      7304      7303      7306      7307
      7304      7303      7306      7308      7304      7303      7306      7309
      7305      7303      7306      7307      7305      7303      7306      7308
      7305      7303      7306      7309      7306      7309      7312      7313
      7306      7309      7312      7314      7306      7309      7312      7315
      7307      7306      7309      7310      7307      7306      7309      7311
      7307      7306      7309      7312      7308      7306      7309      7310
      7308      7306      7309      7311      7308      7306      7309      7312
      7309      7312      7315      7316      7309      7312      7315      7317
      7309      7312      7315      7318      7310      7309      7312      7313
      7310      7309      7312      7314      7310      7309      7312      7315
      7311      7309      7312      7313      7311      7309      7312      7314
      7311      7309      7312      7315      7312      7315      7318      7319
      7312      7315      7318      7320      7312      7315      7318      7321
      7313      7312      7315      7316      7313      7312      7315      7317
      7313      7312      7315      7318      7314      7312      7315      7316
      7314      7312      7315      7317      7314      7312      7315      7318
      7315      7318      7321      7322      7315      7318      7321      7323
      7315      7318      7321      7324      7316      7315      7318      7319
      7316      7315      7318      7320      7316      7315      7318      7321
      7317      7315      7318      7319      7317      7315      7318      7320
      7317      7315      7318      7321      7318      7321      7324      7325
      7318      7321      7324      7326      7318      7321      7324      7327
      7319      7318      7321      7322      7319      7318      7321      7323
      7319      7318      7321      7324      7320      7318      7321      7322
      7320      7318      7321      7323      7320      7318      7321      7324
      7322      7321      7324      7325      7322      7321      7324      7326
      7322      7321      7324      7327      7323      7321      7324      7325
      7323      7321      7324      7326      7323      7321      7324      7327
      7328      7331      7334      7335      7328      7331      7334      7336
      7328      7331      7334      7337      7329      7328      7331      7332
      7329      7328      7331      7333      7329      7328      7331      7334
      7330      7328      7331      7332      7330      7328      7331      7333
      7330      7328      7331      7334      7331      7334      7337      7338
      7331      7334      7337      7339      7331      7334      7337      7340
      7332      7331      7334      7335      7332      7331      7334      7336
      7332      7331      7334      7337      7333      7331      7334      7335
      7333      7331      7334      7336      7333      7331      7334      7337
      7334      7337      7340      7341      7334      7337      7340      7342
      7334      7337      7340      7343      7335      7334      7337      7338
      7335      7334      7337      7339      7335      7334      7337      7340
      7336      7334      7337      7338      7336      7334      7337      7339
      7336      7334      7337      7340      7337      7340      7343      7344
      7337      7340      7343      7345      7337      7340      7343      7346
      7338      7337      7340      7341      7338      7337      7340      7342
      7338      7337      7340      7343      7339      7337      7340      7341
      7339      7337      7340      7342      7339      7337      7340      7343
      7340      7343      7346      7347      7340      7343      7346      7348
      7340      7343      7346      7349      7341      7340      7343      7344
      7341      7340      7343      7345      7341      7340      7343      7346
      7342      7340      7343      7344      7342      7340      7343      7345
      7342      7340      7343      7346      7343      7346      7349      7350
      7343      7346      7349      7351      7343      7346      7349      7352
      7344      7343      7346      7347      7344      7343      7346      7348
      7344      7343      7346      7349      7345      7343      7346      7347
      7345      7343      7346      7348      7345      7343      7346      7349
      7346      7349      7352      7353      7346      7349      7352      7354
      7346      7349      7352      7355      7347      7346      7349      7350
      7347      7346      7349      7351      7347      7346      7349      7352
      7348      7346      7349      7350      7348      7346      7349      7351
      7348      7346      7349      7352      7349      7352      7355      7356
      7349      7352      7355      7357      7349      7352      7355      7358
      7350      7349      7352      7353      7350      7349      7352      7354
      7350      7349      7352      7355      7351      7349      7352      7353
      7351      7349      7352      7354      7351      7349      7352      7355
      7352      7355      7358      7359      7352      7355      7358      7360
      7352      7355      7358      7361      7353      7352      7355      7356
      7353      7352      7355      7357      7353      7352      7355      7358
      7354      7352      7355      7356      7354      7352      7355      7357
      7354      7352      7355      7358      7355      7358      7361      7362
      7355      7358      7361      7363      7355      7358      7361      7364
      7356      7355      7358      7359      7356      7355      7358      7360
      7356      7355      7358      7361      7357      7355      7358      7359
      7357      7355      7358      7360      7357      7355      7358      7361
      7358      7361      7364      7365      7358      7361      7364      7366
      7358      7361      7364      7367      7359      7358      7361      7362
      7359      7358      7361      7363      7359      7358      7361      7364
      7360      7358      7361      7362      7360      7358      7361      7363
      7360      7358      7361      7364      7361      7364      7367      7368
      7361      7364      7367      7369      7361      7364      7367      7370
      7362      7361      7364      7365      7362      7361      7364      7366
      7362      7361      7364      7367      7363      7361      7364      7365
      7363      7361      7364      7366      7363      7361      7364      7367
      7365      7364      7367      7368      7365      7364      7367      7369
      7365      7364      7367      7370      7366      7364      7367      7368
      7366      7364      7367      7369      7366      7364      7367      7370
      7371      7372      7387      7388      7371      7372      7387      7389
      7371      7372      7387      7393      7372      7371      7375      7376
      7372      7371      7375      7377      7372      7371      7375      7378
      7372      7371      7379      7380      7372      7371      7379      7381
      7372      7371      7379      7382      7372      7371      7383      7384
      7372      7371      7383      7385      7372      7371      7383      7386
      7372      7387      7393      7390      7373      7372      7371      7375
      7373      7372      7371      7379      7373      7372      7371      7383
      7373      7372      7387      7388      7373      7372      7387      7389
      7373      7372      7387      7393      7374      7372      7371      7375
      7374      7372      7371      7379      7374      7372      7371      7383
      7374      7372      7387      7388      7374      7372      7387      7389
      7374      7372      7387      7393      7375      7371      7372      7387
      7375      7371      7379      7380      7375      7371      7379      7381
      7375      7371      7379      7382      7375      7371      7383      7384
      7375      7371      7383      7385      7375      7371      7383      7386
      7376      7375      7371      7379      7376      7375      7371      7383
      7377      7375      7371      7379      7377      7375      7371      7383
      7378      7375      7371      7379      7378      7375      7371      7383
      7379      7371      7372      7387      7379      7371      7383      7384
      7379      7371      7383      7385      7379      7371      7383      7386
      7380      7379      7371      7383      7381      7379      7371      7383
      7382      7379      7371      7383      7383      7371      7372      7387
      7387      7393      7390      7391      7387      7393      7390      7392
      7387      7393      7390      7394      7388      7387      7393      7390
      7389      7387      7393      7390      7390      7394      7395      7396
      7390      7394      7395      7397      7390      7394      7395      7398
      7391      7390      7394      7395      7392      7390      7394      7395
      7393      7390      7394      7395      7394      7395      7398      7399
      7394      7395      7398      7400      7394      7395      7398      7406
      7395      7398      7400      7401      7395      7398      7406      7407
      7395      7398      7406      7408      7395      7398      7406      7409
      7396      7395      7398      7399      7396      7395      7398      7400
      7396      7395      7398      7406      7397      7395      7398      7399
      7397      7395      7398      7400      7397      7395      7398      7406
      7398      7400      7401      7402      7398      7400      7401      7403
      7398      7406      7409      7410      7399      7398      7400      7401
      7399      7398      7406      7407      7399      7398      7406      7408
      7399      7398      7406      7409      7400      7398      7406      7407
      7400      7398      7406      7408      7400      7398      7406      7409
      7400      7401      7403      7404      7400      7401      7403      7405
      7400      7401      7403      7415      7401      7400      7398      7406
      7401      7403      7415      7416      7401      7403      7415      7417
      7401      7403      7415      7418      7402      7401      7403      7404
      7402      7401      7403      7405      7402      7401      7403      7415
      7403      7415      7418      7419      7403      7415      7418      7420
      7403      7415      7418      7421      7404      7403      7415      7416
      7404      7403      7415      7417      7404      7403      7415      7418
      7405      7403      7415      7416      7405      7403      7415      7417
      7405      7403      7415      7418      7406      7409      7410      7411
      7406      7409      7410      7412      7407      7406      7409      7410
      7408      7406      7409      7410      7409      7410      7412      7413
      7409      7410      7412      7414      7409      7410      7412      7462
      7410      7412      7462      7463      7410      7412      7462      7464
      7410      7412      7462      7465      7411      7410      7412      7413
      7411      7410      7412      7414      7411      7410      7412      7462
      7412      7462      7465      7466      7412      7462      7465      7467
      7412      7462      7465      7468      7413      7412      7462      7463
      7413      7412      7462      7464      7413      7412      7462      7465
      7414      7412      7462      7463      7414      7412      7462      7464
      7414      7412      7462      7465      7415      7418      7421      7422
      7415      7418      7421      7423      7415      7418      7421      7424
      7416      7415      7418      7419      7416      7415      7418      7420
      7416      7415      7418      7421      7417      7415      7418      7419
      7417      7415      7418      7420      7417      7415      7418      7421
      7418      7421      7424      7425      7418      7421      7424      7426
      7418      7421      7424      7427      7419      7418      7421      7422
      7419      7418      7421      7423      7419      7418      7421      7424
      7420      7418      7421      7422      7420      7418      7421      7423
      7420      7418      7421      7424      7421      7424      7427      7428
      7421      7424      7427      7429      7421      7424      7427      7430
      7422      7421      7424      7425      7422      7421      7424      7426
      7422      7421      7424      7427      7423      7421      7424      7425
      7423      7421      7424      7426      7423      7421      7424      7427
      7424      7427      7430      7431      7424      7427      7430      7432
      7424      7427      7430      7433      7425      7424      7427      7428
      7425      7424      7427      7429      7425      7424      7427      7430
      7426      7424      7427      7428      7426      7424      7427      7429
      7426      7424      7427      7430      7427      7430      7433      7434
      7427      7430      7433      7435      7428      7427      7430      7431
      7428      7427      7430      7432      7428      7427      7430      7433
      7429      7427      7430      7431      7429      7427      7430      7432
      7429      7427      7430      7433      7430      7433      7435      7436
      7430      7433      7435      7437      7431      7430      7433      7434
      7431      7430      7433      7435      7432      7430      7433      7434
      7432      7430      7433      7435      7433      7435      7437      7438
      7433      7435      7437      7439      7433      7435      7437      7440
      7434      7433      7435      7436      7434      7433      7435      7437
      7435      7437      7440      7441      7435      7437      7440      7442
      7435      7437      7440      7443      7436      7435      7437      7438
      7436      7435      7437      7439      7436      7435      7437      7440
      7437      7440      7443      7444      7437      7440      7443      7445
      7437      7440      7443      7446      7438      7437      7440      7441
      7438      7437      7440      7442      7438      7437      7440      7443
      7439      7437      7440      7441      7439      7437      7440      7442
      7439      7437      7440      7443      7440      7443      7446      7447
      7440      7443      7446      7448      7440      7443      7446      7449
      7441      7440      7443      7444      7441      7440      7443      7445
      7441      7440      7443      7446      7442      7440      7443      7444
      7442      7440      7443      7445      7442      7440      7443      7446
      7443      7446      7449      7450      7443      7446      7449      7451
      7443      7446      7449      7452      7444      7443      7446      7447
      7444      7443      7446      7448      7444      7443      7446      7449
      7445      7443      7446      7447      7445      7443      7446      7448
      7445      7443      7446      7449      7446      7449      7452      7453
      7446      7449      7452      7454      7446      7449      7452      7455
      7447      7446      7449      7450      7447      7446      7449      7451
      7447      7446      7449      7452      7448      7446      7449      7450
      7448      7446      7449      7451      7448      7446      7449      7452
      7449      7452      7455      7456      7449      7452      7455      7457
      7449      7452      7455      7458      7450      7449      7452      7453
      7450      7449      7452      7454      7450      7449      7452      7455
      7451      7449      7452      7453      7451      7449      7452      7454
      7451      7449      7452      7455      7452      7455      7458      7459
      7452      7455      7458      7460      7452      7455      7458      7461
      7453      7452      7455      7456      7453      7452      7455      7457
      7453      7452      7455      7458      7454      7452      7455      7456
      7454      7452      7455      7457      7454      7452      7455      7458
      7456      7455      7458      7459      7456      7455      7458      7460
      7456      7455      7458      7461      7457      7455      7458      7459
      7457      7455      7458      7460      7457      7455      7458      7461
      7462      7465      7468      7469      7462      7465      7468      7470
      7462      7465      7468      7471      7463      7462      7465      7466
      7463      7462      7465      7467      7463      7462      7465      7468
      7464      7462      7465      7466      7464      7462      7465      7467
      7464      7462      7465      7468      7465      7468      7471      7472
      7465      7468      7471      7473      7465      7468      7471      7474
      7466      7465      7468      7469      7466      7465      7468      7470
      7466      7465      7468      7471      7467      7465      7468      7469
      7467      7465      7468      7470      7467      7465      7468      7471
      7468      7471      7474      7475      7468      7471      7474      7476
      7468      7471      7474      7477      7469      7468      7471      7472
      7469      7468      7471      7473      7469      7468      7471      7474
      7470      7468      7471      7472      7470      7468      7471      7473
      7470      7468      7471      7474      7471      7474      7477      7478
      7471      7474      7477      7479      7471      7474      7477      7480
      7472      7471      7474      7475      7472      7471      7474      7476
      7472      7471      7474      7477      7473      7471      7474      7475
      7473      7471      7474      7476      7473      7471      7474      7477
      7474      7477      7480      7481      7474      7477      7480      7482
      7474      7477      7480      7483      7475      7474      7477      7478
      7475      7474      7477      7479      7475      7474      7477      7480
      7476      7474      7477      7478      7476      7474      7477      7479
      7476      7474      7477      7480      7477      7480      7483      7484
      7477      7480      7483      7485      7477      7480      7483      7486
      7478      7477      7480      7481      7478      7477      7480      7482
      7478      7477      7480      7483      7479      7477      7480      7481
      7479      7477      7480      7482      7479      7477      7480      7483
      7480      7483      7486      7487      7480      7483      7486      7488
      7480      7483      7486      7489      7481      7480      7483      7484
      7481      7480      7483      7485      7481      7480      7483      7486
      7482      7480      7483      7484      7482      7480      7483      7485
      7482      7480      7483      7486      7483      7486      7489      7490
      7483      7486      7489      7491      7483      7486      7489      7492
      7484      7483      7486      7487      7484      7483      7486      7488
      7484      7483      7486      7489      7485      7483      7486      7487
      7485      7483      7486      7488      7485      7483      7486      7489
      7486      7489      7492      7493      7486      7489      7492      7494
      7486      7489      7492      7495      7487      7486      7489      7490
      7487      7486      7489      7491      7487      7486      7489      7492
      7488      7486      7489      7490      7488      7486      7489      7491
      7488      7486      7489      7492      7489      7492      7495      7496
      7489      7492      7495      7497      7489      7492      7495      7498
      7490      7489      7492      7493      7490      7489      7492      7494
      7490      7489      7492      7495      7491      7489      7492      7493
      7491      7489      7492      7494      7491      7489      7492      7495
      7492      7495      7498      7499      7492      7495      7498      7500
      7492      7495      7498      7501      7493      7492      7495      7496
      7493      7492      7495      7497      7493      7492      7495      7498
      7494      7492      7495      7496      7494      7492      7495      7497
      7494      7492      7495      7498      7495      7498      7501      7502
      7495      7498      7501      7503      7495      7498      7501      7504
      7496      7495      7498      7499      7496      7495      7498      7500
      7496      7495      7498      7501      7497      7495      7498      7499
      7497      7495      7498      7500      7497      7495      7498      7501
      7499      7498      7501      7502      7499      7498      7501      7503
      7499      7498      7501      7504      7500      7498      7501      7502
      7500      7498      7501      7503      7500      7498      7501      7504
      7505      7506      7521      7522      7505      7506      7521      7523
      7505      7506      7521      7527      7506      7505      7509      7510
      7506      7505      7509      7511      7506      7505      7509      7512
      7506      7505      7513      7514      7506      7505      7513      7515
      7506      7505      7513      7516      7506      7505      7517      7518
      7506      7505      7517      7519      7506      7505      7517      7520
      7506      7521      7527      7524      7507      7506      7505      7509
      7507      7506      7505      7513      7507      7506      7505      7517
      7507      7506      7521      7522      7507      7506      7521      7523
      7507      7506      7521      7527      7508      7506      7505      7509
      7508      7506      7505      7513      7508      7506      7505      7517
      7508      7506      7521      7522      7508      7506      7521      7523
      7508      7506      7521      7527      7509      7505      7506      7521
      7509      7505      7513      7514      7509      7505      7513      7515
      7509      7505      7513      7516      7509      7505      7517      7518
      7509      7505      7517      7519      7509      7505      7517      7520
      7510      7509      7505      7513      7510      7509      7505      7517
      7511      7509      7505      7513      7511      7509      7505      7517
      7512      7509      7505      7513      7512      7509      7505      7517
      7513      7505      7506      7521      7513      7505      7517      7518
      7513      7505      7517      7519      7513      7505      7517      7520
      7514      7513      7505      7517      7515      7513      7505      7517
      7516      7513      7505      7517      7517      7505      7506      7521
      7521      7527      7524      7525      7521      7527      7524      7526
      7521      7527      7524      7528      7522      7521      7527      7524
      7523      7521      7527      7524      7524      7528      7529      7530
      7524      7528      7529      7531      7524      7528      7529      7532
      7525      7524      7528      7529      7526      7524      7528      7529
      7527      7524      7528      7529      7528      7529      7532      7533
      7528      7529      7532      7534      7528      7529      7532      7540
      7529      7532      7534      7535      7529      7532      7540      7541
      7529      7532      7540      7542      7529      7532      7540      7543
      7530      7529      7532      7533      7530      7529      7532      7534
      7530      7529      7532      7540      7531      7529      7532      7533
      7531      7529      7532      7534      7531      7529      7532      7540
      7532      7534      7535      7536      7532      7534      7535      7537
      7532      7540      7543      7544      7533      7532      7534      7535
      7533      7532      7540      7541      7533      7532      7540      7542
      7533      7532      7540      7543      7534      7532      7540      7541
      7534      7532      7540      7542      7534      7532      7540      7543
      7534      7535      7537      7538      7534      7535      7537      7539
      7534      7535      7537      7549      7535      7534      7532      7540
      7535      7537      7549      7550      7535      7537      7549      7551
      7535      7537      7549      7552      7536      7535      7537      7538
      7536      7535      7537      7539      7536      7535      7537      7549
      7537      7549      7552      7553      7537      7549      7552      7554
      7537      7549      7552      7555      7538      7537      7549      7550
      7538      7537      7549      7551      7538      7537      7549      7552
      7539      7537      7549      7550      7539      7537      7549      7551
      7539      7537      7549      7552      7540      7543      7544      7545
      7540      7543      7544      7546      7541      7540      7543      7544
      7542      7540      7543      7544      7543      7544      7546      7547
      7543      7544      7546      7548      7543      7544      7546      7596
      7544      7546      7596      7597      7544      7546      7596      7598
      7544      7546      7596      7599      7545      7544      7546      7547
      7545      7544      7546      7548      7545      7544      7546      7596
      7546      7596      7599      7600      7546      7596      7599      7601
      7546      7596      7599      7602      7547      7546      7596      7597
      7547      7546      7596      7598      7547      7546      7596      7599
      7548      7546      7596      7597      7548      7546      7596      7598
      7548      7546      7596      7599      7549      7552      7555      7556
      7549      7552      7555      7557      7549      7552      7555      7558
      7550      7549      7552      7553      7550      7549      7552      7554
      7550      7549      7552      7555      7551      7549      7552      7553
      7551      7549      7552      7554      7551      7549      7552      7555
      7552      7555      7558      7559      7552      7555      7558      7560
      7552      7555      7558      7561      7553      7552      7555      7556
      7553      7552      7555      7557      7553      7552      7555      7558
      7554      7552      7555      7556      7554      7552      7555      7557
      7554      7552      7555      7558      7555      7558      7561      7562
      7555      7558      7561      7563      7555      7558      7561      7564
      7556      7555      7558      7559      7556      7555      7558      7560
      7556      7555      7558      7561      7557      7555      7558      7559
      7557      7555      7558      7560      7557      7555      7558      7561
      7558      7561      7564      7565      7558      7561      7564      7566
      7558      7561      7564      7567      7559      7558      7561      7562
      7559      7558      7561      7563      7559      7558      7561      7564
      7560      7558      7561      7562      7560      7558      7561      7563
      7560      7558      7561      7564      7561      7564      7567      7568
      7561      7564      7567      7569      7562      7561      7564      7565
      7562      7561      7564      7566      7562      7561      7564      7567
      7563      7561      7564      7565      7563      7561      7564      7566
      7563      7561      7564      7567      7564      7567      7569      7570
      7564      7567      7569      7571      7565      7564      7567      7568
      7565      7564      7567      7569      7566      7564      7567      7568
      7566      7564      7567      7569      7567      7569      7571      7572
      7567      7569      7571      7573      7567      7569      7571      7574
      7568      7567      7569      7570      7568      7567      7569      7571
      7569      7571      7574      7575      7569      7571      7574      7576
      7569      7571      7574      7577      7570      7569      7571      7572
      7570      7569      7571      7573      7570      7569      7571      7574
      7571      7574      7577      7578      7571      7574      7577      7579
      7571      7574      7577      7580      7572      7571      7574      7575
      7572      7571      7574      7576      7572      7571      7574      7577
      7573      7571      7574      7575      7573      7571      7574      7576
      7573      7571      7574      7577      7574      7577      7580      7581
      7574      7577      7580      7582      7574      7577      7580      7583
      7575      7574      7577      7578      7575      7574      7577      7579
      7575      7574      7577      7580      7576      7574      7577      7578
      7576      7574      7577      7579      7576      7574      7577      7580
      7577      7580      7583      7584      7577      7580      7583      7585
      7577      7580      7583      7586      7578      7577      7580      7581
      7578      7577      7580      7582      7578      7577      7580      7583
      7579      7577      7580      7581      7579      7577      7580      7582
      7579      7577      7580      7583      7580      7583      7586      7587
      7580      7583      7586      7588      7580      7583      7586      7589
      7581      7580      7583      7584      7581      7580      7583      7585
      7581      7580      7583      7586      7582      7580      7583      7584
      7582      7580      7583      7585      7582      7580      7583      7586
      7583      7586      7589      7590      7583      7586      7589      7591
      7583      7586      7589      7592      7584      7583      7586      7587
      7584      7583      7586      7588      7584      7583      7586      7589
      7585      7583      7586      7587      7585      7583      7586      7588
      7585      7583      7586      7589      7586      7589      7592      7593
      7586      7589      7592      7594      7586      7589      7592      7595
      7587      7586      7589      7590      7587      7586      7589      7591
      7587      7586      7589      7592      7588      7586      7589      7590
      7588      7586      7589      7591      7588      7586      7589      7592
      7590      7589      7592      7593      7590      7589      7592      7594
      7590      7589      7592      7595      7591      7589      7592      7593
      7591      7589      7592      7594      7591      7589      7592      7595
      7596      7599      7602      7603      7596      7599      7602      7604
      7596      7599      7602      7605      7597      7596      7599      7600
      7597      7596      7599      7601      7597      7596      7599      7602
      7598      7596      7599      7600      7598      7596      7599      7601
      7598      7596      7599      7602      7599      7602      7605      7606
      7599      7602      7605      7607      7599      7602      7605      7608
      7600      7599      7602      7603      7600      7599      7602      7604
      7600      7599      7602      7605      7601      7599      7602      7603
      7601      7599      7602      7604      7601      7599      7602      7605
      7602      7605      7608      7609      7602      7605      7608      7610
      7602      7605      7608      7611      7603      7602      7605      7606
      7603      7602      7605      7607      7603      7602      7605      7608
      7604      7602      7605      7606      7604      7602      7605      7607
      7604      7602      7605      7608      7605      7608      7611      7612
      7605      7608      7611      7613      7605      7608      7611      7614
      7606      7605      7608      7609      7606      7605      7608      7610
      7606      7605      7608      7611      7607      7605      7608      7609
      7607      7605      7608      7610      7607      7605      7608      7611
      7608      7611      7614      7615      7608      7611      7614      7616
      7608      7611      7614      7617      7609      7608      7611      7612
      7609      7608      7611      7613      7609      7608      7611      7614
      7610      7608      7611      7612      7610      7608      7611      7613
      7610      7608      7611      7614      7611      7614      7617      7618
      7611      7614      7617      7619      7611      7614      7617      7620
      7612      7611      7614      7615      7612      7611      7614      7616
      7612      7611      7614      7617      7613      7611      7614      7615
      7613      7611      7614      7616      7613      7611      7614      7617
      7614      7617      7620      7621      7614      7617      7620      7622
      7614      7617      7620      7623      7615      7614      7617      7618
      7615      7614      7617      7619      7615      7614      7617      7620
      7616      7614      7617      7618      7616      7614      7617      7619
      7616      7614      7617      7620      7617      7620      7623      7624
      7617      7620      7623      7625      7617      7620      7623      7626
      7618      7617      7620      7621      7618      7617      7620      7622
      7618      7617      7620      7623      7619      7617      7620      7621
      7619      7617      7620      7622      7619      7617      7620      7623
      7620      7623      7626      7627      7620      7623      7626      7628
      7620      7623      7626      7629      7621      7620      7623      7624
      7621      7620      7623      7625      7621      7620      7623      7626
      7622      7620      7623      7624      7622      7620      7623      7625
      7622      7620      7623      7626      7623      7626      7629      7630
      7623      7626      7629      7631      7623      7626      7629      7632
      7624      7623      7626      7627      7624      7623      7626      7628
      7624      7623      7626      7629      7625      7623      7626      7627
      7625      7623      7626      7628      7625      7623      7626      7629
      7626      7629      7632      7633      7626      7629      7632      7634
      7626      7629      7632      7635      7627      7626      7629      7630
      7627      7626      7629      7631      7627      7626      7629      7632
      7628      7626      7629      7630      7628      7626      7629      7631
      7628      7626      7629      7632      7629      7632      7635      7636
      7629      7632      7635      7637      7629      7632      7635      7638
      7630      7629      7632      7633      7630      7629      7632      7634
      7630      7629      7632      7635      7631      7629      7632      7633
      7631      7629      7632      7634      7631      7629      7632      7635
      7633      7632      7635      7636      7633      7632      7635      7637
      7633      7632      7635      7638      7634      7632      7635      7636
      7634      7632      7635      7637      7634      7632      7635      7638
      7639      7640      7655      7656      7639      7640      7655      7657
      7639      7640      7655      7661      7640      7639      7643      7644
      7640      7639      7643      7645      7640      7639      7643      7646
      7640      7639      7647      7648      7640      7639      7647      7649
      7640      7639      7647      7650      7640      7639      7651      7652
      7640      7639      7651      7653      7640      7639      7651      7654
      7640      7655      7661      7658      7641      7640      7639      7643
      7641      7640      7639      7647      7641      7640      7639      7651
      7641      7640      7655      7656      7641      7640      7655      7657
      7641      7640      7655      7661      7642      7640      7639      7643
      7642      7640      7639      7647      7642      7640      7639      7651
      7642      7640      7655      7656      7642      7640      7655      7657
      7642      7640      7655      7661      7643      7639      7640      7655
      7643      7639      7647      7648      7643      7639      7647      7649
      7643      7639      7647      7650      7643      7639      7651      7652
      7643      7639      7651      7653      7643      7639      7651      7654
      7644      7643      7639      7647      7644      7643      7639      7651
      7645      7643      7639      7647      7645      7643      7639      7651
      7646      7643      7639      7647      7646      7643      7639      7651
      7647      7639      7640      7655      7647      7639      7651      7652
      7647      7639      7651      7653      7647      7639      7651      7654
      7648      7647      7639      7651      7649      7647      7639      7651
      7650      7647      7639      7651      7651      7639      7640      7655
      7655      7661      7658      7659      7655      7661      7658      7660
      7655      7661      7658      7662      7656      7655      7661      7658
      7657      7655      7661      7658      7658      7662      7663      7664
      7658      7662      7663      7665      7658      7662      7663      7666
      7659      7658      7662      7663      7660      7658      7662      7663
      7661      7658      7662      7663      7662      7663      7666      7667
      7662      7663      7666      7668      7662      7663      7666      7674
      7663      7666      7668      7669      7663      7666      7674      7675
      7663      7666      7674      7676      7663      7666      7674      7677
      7664      7663      7666      7667      7664      7663      7666      7668
      7664      7663      7666      7674      7665      7663      7666      7667
      7665      7663      7666      7668      7665      7663      7666      7674
      7666      7668      7669      7670      7666      7668      7669      7671
      7666      7674      7677      7678      7667      7666      7668      7669
      7667      7666      7674      7675      7667      7666      7674      7676
      7667      7666      7674      7677      7668      7666      7674      7675
      7668      7666      7674      7676      7668      7666      7674      7677
      7668      7669      7671      7672      7668      7669      7671      7673
      7668      7669      7671      7683      7669      7668      7666      7674
      7669      7671      7683      7684      7669      7671      7683      7685
      7669      7671      7683      7686      7670      7669      7671      7672
      7670      7669      7671      7673      7670      7669      7671      7683
      7671      7683      7686      7687      7671      7683      7686      7688
      7671      7683      7686      7689      7672      7671      7683      7684
      7672      7671      7683      7685      7672      7671      7683      7686
      7673      7671      7683      7684      7673      7671      7683      7685
      7673      7671      7683      7686      7674      7677      7678      7679
      7674      7677      7678      7680      7675      7674      7677      7678
      7676      7674      7677      7678      7677      7678      7680      7681
      7677      7678      7680      7682      7677      7678      7680      7730
      7678      7680      7730      7731      7678      7680      7730      7732
      7678      7680      7730      7733      7679      7678      7680      7681
      7679      7678      7680      7682      7679      7678      7680      7730
      7680      7730      7733      7734      7680      7730      7733      7735
      7680      7730      7733      7736      7681      7680      7730      7731
      7681      7680      7730      7732      7681      7680      7730      7733
      7682      7680      7730      7731      7682      7680      7730      7732
      7682      7680      7730      7733      7683      7686      7689      7690
      7683      7686      7689      7691      7683      7686      7689      7692
      7684      7683      7686      7687      7684      7683      7686      7688
      7684      7683      7686      7689      7685      7683      7686      7687
      7685      7683      7686      7688      7685      7683      7686      7689
      7686      7689      7692      7693      7686      7689      7692      7694
      7686      7689      7692      7695      7687      7686      7689      7690
      7687      7686      7689      7691      7687      7686      7689      7692
      7688      7686      7689      7690      7688      7686      7689      7691
      7688      7686      7689      7692      7689      7692      7695      7696
      7689      7692      7695      7697      7689      7692      7695      7698
      7690      7689      7692      7693      7690      7689      7692      7694
      7690      7689      7692      7695      7691      7689      7692      7693
      7691      7689      7692      7694      7691      7689      7692      7695
      7692      7695      7698      7699      7692      7695      7698      7700
      7692      7695      7698      7701      7693      7692      7695      7696
      7693      7692      7695      7697      7693      7692      7695      7698
      7694      7692      7695      7696      7694      7692      7695      7697
      7694      7692      7695      7698      7695      7698      7701      7702
      7695      7698      7701      7703      7696      7695      7698      7699
      7696      7695      7698      7700      7696      7695      7698      7701
      7697      7695      7698      7699      7697      7695      7698      7700
      7697      7695      7698      7701      7698      7701      7703      7704
      7698      7701      7703      7705      7699      7698      7701      7702
      7699      7698      7701      7703      7700      7698      7701      7702
      7700      7698      7701      7703      7701      7703      7705      7706
      7701      7703      7705      7707      7701      7703      7705      7708
      7702      7701      7703      7704      7702      7701      7703      7705
      7703      7705      7708      7709      7703      7705      7708      7710
      7703      7705      7708      7711      7704      7703      7705      7706
      7704      7703      7705      7707      7704      7703      7705      7708
      7705      7708      7711      7712      7705      7708      7711      7713
      7705      7708      7711      7714      7706      7705      7708      7709
      7706      7705      7708      7710      7706      7705      7708      7711
      7707      7705      7708      7709      7707      7705      7708      7710
      7707      7705      7708      7711      7708      7711      7714      7715
      7708      7711      7714      7716      7708      7711      7714      7717
      7709      7708      7711      7712      7709      7708      7711      7713
      7709      7708      7711      7714      7710      7708      7711      7712
      7710      7708      7711      7713      7710      7708      7711      7714
      7711      7714      7717      7718      7711      7714      7717      7719
      7711      7714      7717      7720      7712      7711      7714      7715
      7712      7711      7714      7716      7712      7711      7714      7717
      7713      7711      7714      7715      7713      7711      7714      7716
      7713      7711      7714      7717      7714      7717      7720      7721
      7714      7717      7720      7722      7714      7717      7720      7723
      7715      7714      7717      7718      7715      7714      7717      7719
      7715      7714      7717      7720      7716      7714      7717      7718
      7716      7714      7717      7719      7716      7714      7717      7720
      7717      7720      7723      7724      7717      7720      7723      7725
      7717      7720      7723      7726      7718      7717      7720      7721
      7718      7717      7720      7722      7718      7717      7720      7723
      7719      7717      7720      7721      7719      7717      7720      7722
      7719      7717      7720      7723      7720      7723      7726      7727
      7720      7723      7726      7728      7720      7723      7726      7729
      7721      7720      7723      7724      7721      7720      7723      7725
      7721      7720      7723      7726      7722      7720      7723      7724
      7722      7720      7723      7725      7722      7720      7723      7726
      7724      7723      7726      7727      7724      7723      7726      7728
      7724      7723      7726      7729      7725      7723      7726      7727
      7725      7723      7726      7728      7725      7723      7726      7729
      7730      7733      7736      7737      7730      7733      7736      7738
      7730      7733      7736      7739      7731      7730      7733      7734
      7731      7730      7733      7735      7731      7730      7733      7736
      7732      7730      7733      7734      7732      7730      7733      7735
      7732      7730      7733      7736      7733      7736      7739      7740
      7733      7736      7739      7741      7733      7736      7739      7742
      7734      7733      7736      7737      7734      7733      7736      7738
      7734      7733      7736      7739      7735      7733      7736      7737
      7735      7733      7736      7738      7735      7733      7736      7739
      7736      7739      7742      7743      7736      7739      7742      7744
      7736      7739      7742      7745      7737      7736      7739      7740
      7737      7736      7739      7741      7737      7736      7739      7742
      7738      7736      7739      7740      7738      7736      7739      7741
      7738      7736      7739      7742      7739      7742      7745      7746
      7739      7742      7745      7747      7739      7742      7745      7748
      7740      7739      7742      7743      7740      7739      7742      7744
      7740      7739      7742      7745      7741      7739      7742      7743
      7741      7739      7742      7744      7741      7739      7742      7745
      7742      7745      7748      7749      7742      7745      7748      7750
      7742      7745      7748      7751      7743      7742      7745      7746
      7743      7742      7745      7747      7743      7742      7745      7748
      7744      7742      7745      7746      7744      7742      7745      7747
      7744      7742      7745      7748      7745      7748      7751      7752
      7745      7748      7751      7753      7745      7748      7751      7754
      7746      7745      7748      7749      7746      7745      7748      7750
      7746      7745      7748      7751      7747      7745      7748      7749
      7747      7745      7748      7750      7747      7745      7748      7751
      7748      7751      7754      7755      7748      7751      7754      7756
      7748      7751      7754      7757      7749      7748      7751      7752
      7749      7748      7751      7753      7749      7748      7751      7754
      7750      7748      7751      7752      7750      7748      7751      7753
      7750      7748      7751      7754      7751      7754      7757      7758
      7751      7754      7757      7759      7751      7754      7757      7760
      7752      7751      7754      7755      7752      7751      7754      7756
      7752      7751      7754      7757      7753      7751      7754      7755
      7753      7751      7754      7756      7753      7751      7754      7757
      7754      7757      7760      7761      7754      7757      7760      7762
      7754      7757      7760      7763      7755      7754      7757      7758
      7755      7754      7757      7759      7755      7754      7757      7760
      7756      7754      7757      7758      7756      7754      7757      7759
      7756      7754      7757      7760      7757      7760      7763      7764
      7757      7760      7763      7765      7757      7760      7763      7766
      7758      7757      7760      7761      7758      7757      7760      7762
      7758      7757      7760      7763      7759      7757      7760      7761
      7759      7757      7760      7762      7759      7757      7760      7763
      7760      7763      7766      7767      7760      7763      7766      7768
      7760      7763      7766      7769      7761      7760      7763      7764
      7761      7760      7763      7765      7761      7760      7763      7766
      7762      7760      7763      7764      7762      7760      7763      7765
      7762      7760      7763      7766      7763      7766      7769      7770
      7763      7766      7769      7771      7763      7766      7769      7772
      7764      7763      7766      7767      7764      7763      7766      7768
      7764      7763      7766      7769      7765      7763      7766      7767
      7765      7763      7766      7768      7765      7763      7766      7769
      7767      7766      7769      7770      7767      7766      7769      7771
      7767      7766      7769      7772      7768      7766      7769      7770
      7768      7766      7769      7771      7768      7766      7769      7772
      7773      7774      7789      7790      7773      7774      7789      7791
      7773      7774      7789      7795      7774      7773      7777      7778
      7774      7773      7777      7779      7774      7773      7777      7780
      7774      7773      7781      7782      7774      7773      7781      7783
      7774      7773      7781      7784      7774      7773      7785      7786
      7774      7773      7785      7787      7774      7773      7785      7788
      7774      7789      7795      7792      7775      7774      7773      7777
      7775      7774      7773      7781      7775      7774      7773      7785
      7775      7774      7789      7790      7775      7774      7789      7791
      7775      7774      7789      7795      7776      7774      7773      7777
      7776      7774      7773      7781      7776      7774      7773      7785
      7776      7774      7789      7790      7776      7774      7789      7791
      7776      7774      7789      7795      7777      7773      7774      7789
      7777      7773      7781      7782      7777      7773      7781      7783
      7777      7773      7781      7784      7777      7773      7785      7786
      7777      7773      7785      7787      7777      7773      7785      7788
      7778      7777      7773      7781      7778      7777      7773      7785
      7779      7777      7773      7781      7779      7777      7773      7785
      7780      7777      7773      7781      7780      7777      7773      7785
      7781      7773      7774      7789      7781      7773      7785      7786
      7781      7773      7785      7787      7781      7773      7785      7788
      7782      7781      7773      7785      7783      7781      7773      7785
      7784      7781      7773      7785      7785      7773      7774      7789
      7789      7795      7792      7793      7789      7795      7792      7794
      7789      7795      7792      7796      7790      7789      7795      7792
      7791      7789      7795      7792      7792      7796      7797      7798
      7792      7796      7797      7799      7792      7796      7797      7800
      7793      7792      7796      7797      7794      7792      7796      7797
      7795      7792      7796      7797      7796      7797      7800      7801
      7796      7797      7800      7802      7796      7797      7800      7808
      7797      7800      7802      7803      7797      7800      7808      7809
      7797      7800      7808      7810      7797      7800      7808      7811
      7798      7797      7800      7801      7798      7797      7800      7802
      7798      7797      7800      7808      7799      7797      7800      7801
      7799      7797      7800      7802      7799      7797      7800      7808
      7800      7802      7803      7804      7800      7802      7803      7805
      7800      7808      7811      7812      7801      7800      7802      7803
      7801      7800      7808      7809      7801      7800      7808      7810
      7801      7800      7808      7811      7802      7800      7808      7809
      7802      7800      7808      7810      7802      7800      7808      7811
      7802      7803      7805      7806      7802      7803      7805      7807
      7802      7803      7805      7817      7803      7802      7800      7808
      7803      7805      7817      7818      7803      7805      7817      7819
      7803      7805      7817      7820      7804      7803      7805      7806
      7804      7803      7805      7807      7804      7803      7805      7817
      7805      7817      7820      7821      7805      7817      7820      7822
      7805      7817      7820      7823      7806      7805      7817      7818
      7806      7805      7817      7819      7806      7805      7817      7820
      7807      7805      7817      7818      7807      7805      7817      7819
      7807      7805      7817      7820      7808      7811      7812      7813
      7808      7811      7812      7814      7809      7808      7811      7812
      7810      7808      7811      7812      7811      7812      7814      7815
      7811      7812      7814      7816      7811      7812      7814      7864
      7812      7814      7864      7865      7812      7814      7864      7866
      7812      7814      7864      7867      7813      7812      7814      7815
      7813      7812      7814      7816      7813      7812      7814      7864
      7814      7864      7867      7868      7814      7864      7867      7869
      7814      7864      7867      7870      7815      7814      7864      7865
      7815      7814      7864      7866      7815      7814      7864      7867
      7816      7814      7864      7865      7816      7814      7864      7866
      7816      7814      7864      7867      7817      7820      7823      7824
      7817      7820      7823      7825      7817      7820      7823      7826
      7818      7817      7820      7821      7818      7817      7820      7822
      7818      7817      7820      7823      7819      7817      7820      7821
      7819      7817      7820      7822      7819      7817      7820      7823
      7820      7823      7826      7827      7820      7823      7826      7828
      7820      7823      7826      7829      7821      7820      7823      7824
      7821      7820      7823      7825      7821      7820      7823      7826
      7822      7820      7823      7824      7822      7820      7823      7825
      7822      7820      7823      7826      7823      7826      7829      7830
      7823      7826      7829      7831      7823      7826      7829      7832
      7824      7823      7826      7827      7824      7823      7826      7828
      7824      7823      7826      7829      7825      7823      7826      7827
      7825      7823      7826      7828      7825      7823      7826      7829
      7826      7829      7832      7833      7826      7829      7832      7834
      7826      7829      7832      7835      7827      7826      7829      7830
      7827      7826      7829      7831      7827      7826      7829      7832
      7828      7826      7829      7830      7828      7826      7829      7831
      7828      7826      7829      7832      7829      7832      7835      7836
      7829      7832      7835      7837      7830      7829      7832      7833
      7830      7829      7832      7834      7830      7829      7832      7835
      7831      7829      7832      7833      7831      7829      7832      7834
      7831      7829      7832      7835      7832      7835      7837      7838
      7832      7835      7837      7839      7833      7832      7835      7836
      7833      7832      7835      7837      7834      7832      7835      7836
      7834      7832      7835      7837      7835      7837      7839      7840
      7835      7837      7839      7841      7835      7837      7839      7842
      7836      7835      7837      7838      7836      7835      7837      7839
      7837      7839      7842      7843      7837      7839      7842      7844
      7837      7839      7842      7845      7838      7837      7839      7840
      7838      7837      7839      7841      7838      7837      7839      7842
      7839      7842      7845      7846      7839      7842      7845      7847
      7839      7842      7845      7848      7840      7839      7842      7843
      7840      7839      7842      7844      7840      7839      7842      7845
      7841      7839      7842      7843      7841      7839      7842      7844
      7841      7839      7842      7845      7842      7845      7848      7849
      7842      7845      7848      7850      7842      7845      7848      7851
      7843      7842      7845      7846      7843      7842      7845      7847
      7843      7842      7845      7848      7844      7842      7845      7846
      7844      7842      7845      7847      7844      7842      7845      7848
      7845      7848      7851      7852      7845      7848      7851      7853
      7845      7848      7851      7854      7846      7845      7848      7849
      7846      7845      7848      7850      7846      7845      7848      7851
      7847      7845      7848      7849      7847      7845      7848      7850
      7847      7845      7848      7851      7848      7851      7854      7855
      7848      7851      7854      7856      7848      7851      7854      7857
      7849      7848      7851      7852      7849      7848      7851      7853
      7849      7848      7851      7854      7850      7848      7851      7852
      7850      7848      7851      7853      7850      7848      7851      7854
      7851      7854      7857      7858      7851      7854      7857      7859
      7851      7854      7857      7860      7852      7851      7854      7855
      7852      7851      7854      7856      7852      7851      7854      7857
      7853      7851      7854      7855      7853      7851      7854      7856
      7853      7851      7854      7857      7854      7857      7860      7861
      7854      7857      7860      7862      7854      7857      7860      7863
      7855      7854      7857      7858      7855      7854      7857      7859
      7855      7854      7857      7860      7856      7854      7857      7858
      7856      7854      7857      7859      7856      7854      7857      7860
      7858      7857      7860      7861      7858      7857      7860      7862
      7858      7857      7860      7863      7859      7857      7860      7861
      7859      7857      7860      7862      7859      7857      7860      7863
      7864      7867      7870      7871      7864      7867      7870      7872
      7864      7867      7870      7873      7865      7864      7867      7868
      7865      7864      7867      7869      7865      7864      7867      7870
      7866      7864      7867      7868      7866      7864      7867      7869
      7866      7864      7867      7870      7867      7870      7873      7874
      7867      7870      7873      7875      7867      7870      7873      7876
      7868      7867      7870      7871      7868      7867      7870      7872
      7868      7867      7870      7873      7869      7867      7870      7871
      7869      7867      7870      7872      7869      7867      7870      7873
      7870      7873      7876      7877      7870      7873      7876      7878
      7870      7873      7876      7879      7871      7870      7873      7874
      7871      7870      7873      7875      7871      7870      7873      7876
      7872      7870      7873      7874      7872      7870      7873      7875
      7872      7870      7873      7876      7873      7876      7879      7880
      7873      7876      7879      7881      7873      7876      7879      7882
      7874      7873      7876      7877      7874      7873      7876      7878
      7874      7873      7876      7879      7875      7873      7876      7877
      7875      7873      7876      7878      7875      7873      7876      7879
      7876      7879      7882      7883      7876      7879      7882      7884
      7876      7879      7882      7885      7877      7876      7879      7880
      7877      7876      7879      7881      7877      7876      7879      7882
      7878      7876      7879      7880      7878      7876      7879      7881
      7878      7876      7879      7882      7879      7882      7885      7886
      7879      7882      7885      7887      7879      7882      7885      7888
      7880      7879      7882      7883      7880      7879      7882      7884
      7880      7879      7882      7885      7881      7879      7882      7883
      7881      7879      7882      7884      7881      7879      7882      7885
      7882      7885      7888      7889      7882      7885      7888      7890
      7882      7885      7888      7891      7883      7882      7885      7886
      7883      7882      7885      7887      7883      7882      7885      7888
      7884      7882      7885      7886      7884      7882      7885      7887
      7884      7882      7885      7888      7885      7888      7891      7892
      7885      7888      7891      7893      7885      7888      7891      7894
      7886      7885      7888      7889      7886      7885      7888      7890
      7886      7885      7888      7891      7887      7885      7888      7889
      7887      7885      7888      7890      7887      7885      7888      7891
      7888      7891      7894      7895      7888      7891      7894      7896
      7888      7891      7894      7897      7889      7888      7891      7892
      7889      7888      7891      7893      7889      7888      7891      7894
      7890      7888      7891      7892      7890      7888      7891      7893
      7890      7888      7891      7894      7891      7894      7897      7898
      7891      7894      7897      7899      7891      7894      7897      7900
      7892      7891      7894      7895      7892      7891      7894      7896
      7892      7891      7894      7897      7893      7891      7894      7895
      7893      7891      7894      7896      7893      7891      7894      7897
      7894      7897      7900      7901      7894      7897      7900      7902
      7894      7897      7900      7903      7895      7894      7897      7898
      7895      7894      7897      7899      7895      7894      7897      7900
      7896      7894      7897      7898      7896      7894      7897      7899
      7896      7894      7897      7900      7897      7900      7903      7904
      7897      7900      7903      7905      7897      7900      7903      7906
      7898      7897      7900      7901      7898      7897      7900      7902
      7898      7897      7900      7903      7899      7897      7900      7901
      7899      7897      7900      7902      7899      7897      7900      7903
      7901      7900      7903      7904      7901      7900      7903      7905
      7901      7900      7903      7906      7902      7900      7903      7904
      7902      7900      7903      7905      7902      7900      7903      7906
      7907      7908      7923      7924      7907      7908      7923      7925
      7907      7908      7923      7929      7908      7907      7911      7912
      7908      7907      7911      7913      7908      7907      7911      7914
      7908      7907      7915      7916      7908      7907      7915      7917
      7908      7907      7915      7918      7908      7907      7919      7920
      7908      7907      7919      7921      7908      7907      7919      7922
      7908      7923      7929      7926      7909      7908      7907      7911
      7909      7908      7907      7915      7909      7908      7907      7919
      7909      7908      7923      7924      7909      7908      7923      7925
      7909      7908      7923      7929      7910      7908      7907      7911
      7910      7908      7907      7915      7910      7908      7907      7919
      7910      7908      7923      7924      7910      7908      7923      7925
      7910      7908      7923      7929      7911      7907      7908      7923
      7911      7907      7915      7916      7911      7907      7915      7917
      7911      7907      7915      7918      7911      7907      7919      7920
      7911      7907      7919      7921      7911      7907      7919      7922
      7912      7911      7907      7915      7912      7911      7907      7919
      7913      7911      7907      7915      7913      7911      7907      7919
      7914      7911      7907      7915      7914      7911      7907      7919
      7915      7907      7908      7923      7915      7907      7919      7920
      7915      7907      7919      7921      7915      7907      7919      7922
      7916      7915      7907      7919      7917      7915      7907      7919
      7918      7915      7907      7919      7919      7907      7908      7923
      7923      7929      7926      7927      7923      7929      7926      7928
      7923      7929      7926      7930      7924      7923      7929      7926
      7925      7923      7929      7926      7926      7930      7931      7932
      7926      7930      7931      7933      7926      7930      7931      7934
      7927      7926      7930      7931      7928      7926      7930      7931
      7929      7926      7930      7931      7930      7931      7934      7935
      7930      7931      7934      7936      7930      7931      7934      7942
      7931      7934      7936      7937      7931      7934      7942      7943
      7931      7934      7942      7944      7931      7934      7942      7945
      7932      7931      7934      7935      7932      7931      7934      7936
      7932      7931      7934      7942      7933      7931      7934      7935
      7933      7931      7934      7936      7933      7931      7934      7942
      7934      7936      7937      7938      7934      7936      7937      7939
      7934      7942      7945      7946      7935      7934      7936      7937
      7935      7934      7942      7943      7935      7934      7942      7944
      7935      7934      7942      7945      7936      7934      7942      7943
      7936      7934      7942      7944      7936      7934      7942      7945
      7936      7937      7939      7940      7936      7937      7939      7941
      7936      7937      7939      7951      7937      7936      7934      7942
      7937      7939      7951      7952      7937      7939      7951      7953
      7937      7939      7951      7954      7938      7937      7939      7940
      7938      7937      7939      7941      7938      7937      7939      7951
      7939      7951      7954      7955      7939      7951      7954      7956
      7939      7951      7954      7957      7940      7939      7951      7952
      7940      7939      7951      7953      7940      7939      7951      7954
      7941      7939      7951      7952      7941      7939      7951      7953
      7941      7939      7951      7954      7942      7945      7946      7947
      7942      7945      7946      7948      7943      7942      7945      7946
      7944      7942      7945      7946      7945      7946      7948      7949
      7945      7946      7948      7950      7945      7946      7948      7998
      7946      7948      7998      7999      7946      7948      7998      8000
      7946      7948      7998      8001      7947      7946      7948      7949
      7947      7946      7948      7950      7947      7946      7948      7998
      7948      7998      8001      8002      7948      7998      8001      8003
      7948      7998      8001      8004      7949      7948      7998      7999
      7949      7948      7998      8000      7949      7948      7998      8001
      7950      7948      7998      7999      7950      7948      7998      8000
      7950      7948      7998      8001      7951      7954      7957      7958
      7951      7954      7957      7959      7951      7954      7957      7960
      7952      7951      7954      7955      7952      7951      7954      7956
      7952      7951      7954      7957      7953      7951      7954      7955
      7953      7951      7954      7956      7953      7951      7954      7957
      7954      7957      7960      7961      7954      7957      7960      7962
      7954      7957      7960      7963      7955      7954      7957      7958
      7955      7954      7957      7959      7955      7954      7957      7960
      7956      7954      7957      7958      7956      7954      7957      7959
      7956      7954      7957      7960      7957      7960      7963      7964
      7957      7960      7963      7965      7957      7960      7963      7966
      7958      7957      7960      7961      7958      7957      7960      7962
      7958      7957      7960      7963      7959      7957      7960      7961
      7959      7957      7960      7962      7959      7957      7960      7963
      7960      7963      7966      7967      7960      7963      7966      7968
      7960      7963      7966      7969      7961      7960      7963      7964
      7961      7960      7963      7965      7961      7960      7963      7966
      7962      7960      7963      7964      7962      7960      7963      7965
      7962      7960      7963      7966      7963      7966      7969      7970
      7963      7966      7969      7971      7964      7963      7966      7967
      7964      7963      7966      7968      7964      7963      7966      7969
      7965      7963      7966      7967      7965      7963      7966      7968
      7965      7963      7966      7969      7966      7969      7971      7972
      7966      7969      7971      7973      7967      7966      7969      7970
      7967      7966      7969      7971      7968      7966      7969      7970
      7968      7966      7969      7971      7969      7971      7973      7974
      7969      7971      7973      7975      7969      7971      7973      7976
      7970      7969      7971      7972      7970      7969      7971      7973
      7971      7973      7976      7977      7971      7973      7976      7978
      7971      7973      7976      7979      7972      7971      7973      7974
      7972      7971      7973      7975      7972      7971      7973      7976
      7973      7976      7979      7980      7973      7976      7979      7981
      7973      7976      7979      7982      7974      7973      7976      7977
      7974      7973      7976      7978      7974      7973      7976      7979
      7975      7973      7976      7977      7975      7973      7976      7978
      7975      7973      7976      7979      7976      7979      7982      7983
      7976      7979      7982      7984      7976      7979      7982      7985
      7977      7976      7979      7980      7977      7976      7979      7981
      7977      7976      7979      7982      7978      7976      7979      7980
      7978      7976      7979      7981      7978      7976      7979      7982
      7979      7982      7985      7986      7979      7982      7985      7987
      7979      7982      7985      7988      7980      7979      7982      7983
      7980      7979      7982      7984      7980      7979      7982      7985
      7981      7979      7982      7983      7981      7979      7982      7984
      7981      7979      7982      7985      7982      7985      7988      7989
      7982      7985      7988      7990      7982      7985      7988      7991
      7983      7982      7985      7986      7983      7982      7985      7987
      7983      7982      7985      7988      7984      7982      7985      7986
      7984      7982      7985      7987      7984      7982      7985      7988
      7985      7988      7991      7992      7985      7988      7991      7993
      7985      7988      7991      7994      7986      7985      7988      7989
      7986      7985      7988      7990      7986      7985      7988      7991
      7987      7985      7988      7989      7987      7985      7988      7990
      7987      7985      7988      7991      7988      7991      7994      7995
      7988      7991      7994      7996      7988      7991      7994      7997
      7989      7988      7991      7992      7989      7988      7991      7993
      7989      7988      7991      7994      7990      7988      7991      7992
      7990      7988      7991      7993      7990      7988      7991      7994
      7992      7991      7994      7995      7992      7991      7994      7996
      7992      7991      7994      7997      7993      7991      7994      7995
      7993      7991      7994      7996      7993      7991      7994      7997
      7998      8001      8004      8005      7998      8001      8004      8006
      7998      8001      8004      8007      7999      7998      8001      8002
      7999      7998      8001      8003      7999      7998      8001      8004
      8000      7998      8001      8002      8000      7998      8001      8003
      8000      7998      8001      8004      8001      8004      8007      8008
      8001      8004      8007      8009      8001      8004      8007      8010
      8002      8001      8004      8005      8002      8001      8004      8006
      8002      8001      8004      8007      8003      8001      8004      8005
      8003      8001      8004      8006      8003      8001      8004      8007
      8004      8007      8010      8011      8004      8007      8010      8012
      8004      8007      8010      8013      8005      8004      8007      8008
      8005      8004      8007      8009      8005      8004      8007      8010
      8006      8004      8007      8008      8006      8004      8007      8009
      8006      8004      8007      8010      8007      8010      8013      8014
      8007      8010      8013      8015      8007      8010      8013      8016
      8008      8007      8010      8011      8008      8007      8010      8012
      8008      8007      8010      8013      8009      8007      8010      8011
      8009      8007      8010      8012      8009      8007      8010      8013
      8010      8013      8016      8017      8010      8013      8016      8018
      8010      8013      8016      8019      8011      8010      8013      8014
      8011      8010      8013      8015      8011      8010      8013      8016
      8012      8010      8013      8014      8012      8010      8013      8015
      8012      8010      8013      8016      8013      8016      8019      8020
      8013      8016      8019      8021      8013      8016      8019      8022
      8014      8013      8016      8017      8014      8013      8016      8018
      8014      8013      8016      8019      8015      8013      8016      8017
      8015      8013      8016      8018      8015      8013      8016      8019
      8016      8019      8022      8023      8016      8019      8022      8024
      8016      8019      8022      8025      8017      8016      8019      8020
      8017      8016      8019      8021      8017      8016      8019      8022
      8018      8016      8019      8020      8018      8016      8019      8021
      8018      8016      8019      8022      8019      8022      8025      8026
      8019      8022      8025      8027      8019      8022      8025      8028
      8020      8019      8022      8023      8020      8019      8022      8024
      8020      8019      8022      8025      8021      8019      8022      8023
      8021      8019      8022      8024      8021      8019      8022      8025
      8022      8025      8028      8029      8022      8025      8028      8030
      8022      8025      8028      8031      8023      8022      8025      8026
      8023      8022      8025      8027      8023      8022      8025      8028
      8024      8022      8025      8026      8024      8022      8025      8027
      8024      8022      8025      8028      8025      8028      8031      8032
      8025      8028      8031      8033      8025      8028      8031      8034
      8026      8025      8028      8029      8026      8025      8028      8030
      8026      8025      8028      8031      8027      8025      8028      8029
      8027      8025      8028      8030      8027      8025      8028      8031
      8028      8031      8034      8035      8028      8031      8034      8036
      8028      8031      8034      8037      8029      8028      8031      8032
      8029      8028      8031      8033      8029      8028      8031      8034
      8030      8028      8031      8032      8030      8028      8031      8033
      8030      8028      8031      8034      8031      8034      8037      8038
      8031      8034      8037      8039      8031      8034      8037      8040
      8032      8031      8034      8035      8032      8031      8034      8036
      8032      8031      8034      8037      8033      8031      8034      8035
      8033      8031      8034      8036      8033      8031      8034      8037
      8035      8034      8037      8038      8035      8034      8037      8039
      8035      8034      8037      8040      8036      8034      8037      8038
      8036      8034      8037      8039      8036      8034      8037      8040
      8041      8042      8057      8058      8041      8042      8057      8059
      8041      8042      8057      8063      8042      8041      8045      8046
      8042      8041      8045      8047      8042      8041      8045      8048
      8042      8041      8049      8050      8042      8041      8049      8051
      8042      8041      8049      8052      8042      8041      8053      8054
      8042      8041      8053      8055      8042      8041      8053      8056
      8042      8057      8063      8060      8043      8042      8041      8045
      8043      8042      8041      8049      8043      8042      8041      8053
      8043      8042      8057      8058      8043      8042      8057      8059
      8043      8042      8057      8063      8044      8042      8041      8045
      8044      8042      8041      8049      8044      8042      8041      8053
      8044      8042      8057      8058      8044      8042      8057      8059
      8044      8042      8057      8063      8045      8041      8042      8057
      8045      8041      8049      8050      8045      8041      8049      8051
      8045      8041      8049      8052      8045      8041      8053      8054
      8045      8041      8053      8055      8045      8041      8053      8056
      8046      8045      8041      8049      8046      8045      8041      8053
      8047      8045      8041      8049      8047      8045      8041      8053
      8048      8045      8041      8049      8048      8045      8041      8053
      8049      8041      8042      8057      8049      8041      8053      8054
      8049      8041      8053      8055      8049      8041      8053      8056
      8050      8049      8041      8053      8051      8049      8041      8053
      8052      8049      8041      8053      8053      8041      8042      8057
      8057      8063      8060      8061      8057      8063      8060      8062
      8057      8063      8060      8064      8058      8057      8063      8060
      8059      8057      8063      8060      8060      8064      8065      8066
      8060      8064      8065      8067      8060      8064      8065      8068
      8061      8060      8064      8065      8062      8060      8064      8065
      8063      8060      8064      8065      8064      8065      8068      8069
      8064      8065      8068      8070      8064      8065      8068      8076
      8065      8068      8070      8071      8065      8068      8076      8077
      8065      8068      8076      8078      8065      8068      8076      8079
      8066      8065      8068      8069      8066      8065      8068      8070
      8066      8065      8068      8076      8067      8065      8068      8069
      8067      8065      8068      8070      8067      8065      8068      8076
      8068      8070      8071      8072      8068      8070      8071      8073
      8068      8076      8079      8080      8069      8068      8070      8071
      8069      8068      8076      8077      8069      8068      8076      8078
      8069      8068      8076      8079      8070      8068      8076      8077
      8070      8068      8076      8078      8070      8068      8076      8079
      8070      8071      8073      8074      8070      8071      8073      8075
      8070      8071      8073      8085      8071      8070      8068      8076
      8071      8073      8085      8086      8071      8073      8085      8087
      8071      8073      8085      8088      8072      8071      8073      8074
      8072      8071      8073      8075      8072      8071      8073      8085
      8073      8085      8088      8089      8073      8085      8088      8090
      8073      8085      8088      8091      8074      8073      8085      8086
      8074      8073      8085      8087      8074      8073      8085      8088
      8075      8073      8085      8086      8075      8073      8085      8087
      8075      8073      8085      8088      8076      8079      8080      8081
      8076      8079      8080      8082      8077      8076      8079      8080
      8078      8076      8079      8080      8079      8080      8082      8083
      8079      8080      8082      8084      8079      8080      8082      8132
      8080      8082      8132      8133      8080      8082      8132      8134
      8080      8082      8132      8135      8081      8080      8082      8083
      8081      8080      8082      8084      8081      8080      8082      8132
      8082      8132      8135      8136      8082      8132      8135      8137
      8082      8132      8135      8138      8083      8082      8132      8133
      8083      8082      8132      8134      8083      8082      8132      8135
      8084      8082      8132      8133      8084      8082      8132      8134
      8084      8082      8132      8135      8085      8088      8091      8092
      8085      8088      8091      8093      8085      8088      8091      8094
      8086      8085      8088      8089      8086      8085      8088      8090
      8086      8085      8088      8091      8087      8085      8088      8089
      8087      8085      8088      8090      8087      8085      8088      8091
      8088      8091      8094      8095      8088      8091      8094      8096
      8088      8091      8094      8097      8089      8088      8091      8092
      8089      8088      8091      8093      8089      8088      8091      8094
      8090      8088      8091      8092      8090      8088      8091      8093
      8090      8088      8091      8094      8091      8094      8097      8098
      8091      8094      8097      8099      8091      8094      8097      8100
      8092      8091      8094      8095      8092      8091      8094      8096
      8092      8091      8094      8097      8093      8091      8094      8095
      8093      8091      8094      8096      8093      8091      8094      8097
      8094      8097      8100      8101      8094      8097      8100      8102
      8094      8097      8100      8103      8095      8094      8097      8098
      8095      8094      8097      8099      8095      8094      8097      8100
      8096      8094      8097      8098      8096      8094      8097      8099
      8096      8094      8097      8100      8097      8100      8103      8104
      8097      8100      8103      8105      8098      8097      8100      8101
      8098      8097      8100      8102      8098      8097      8100      8103
      8099      8097      8100      8101      8099      8097      8100      8102
      8099      8097      8100      8103      8100      8103      8105      8106
      8100      8103      8105      8107      8101      8100      8103      8104
      8101      8100      8103      8105      8102      8100      8103      8104
      8102      8100      8103      8105      8103      8105      8107      8108
      8103      8105      8107      8109      8103      8105      8107      8110
      8104      8103      8105      8106      8104      8103      8105      8107
      8105      8107      8110      8111      8105      8107      8110      8112
      8105      8107      8110      8113      8106      8105      8107      8108
      8106      8105      8107      8109      8106      8105      8107      8110
      8107      8110      8113      8114      8107      8110      8113      8115
      8107      8110      8113      8116      8108      8107      8110      8111
      8108      8107      8110      8112      8108      8107      8110      8113
      8109      8107      8110      8111      8109      8107      8110      8112
      8109      8107      8110      8113      8110      8113      8116      8117
      8110      8113      8116      8118      8110      8113      8116      8119
      8111      8110      8113      8114      8111      8110      8113      8115
      8111      8110      8113      8116      8112      8110      8113      8114
      8112      8110      8113      8115      8112      8110      8113      8116
      8113      8116      8119      8120      8113      8116      8119      8121
      8113      8116      8119      8122      8114      8113      8116      8117
      8114      8113      8116      8118      8114      8113      8116      8119
      8115      8113      8116      8117      8115      8113      8116      8118
      8115      8113      8116      8119      8116      8119      8122      8123
      8116      8119      8122      8124      8116      8119      8122      8125
      8117      8116      8119      8120      8117      8116      8119      8121
      8117      8116      8119      8122      8118      8116      8119      8120
      8118      8116      8119      8121      8118      8116      8119      8122
      8119      8122      8125      8126      8119      8122      8125      8127
      8119      8122      8125      8128      8120      8119      8122      8123
      8120      8119      8122      8124      8120      8119      8122      8125
      8121      8119      8122      8123      8121      8119      8122      8124
      8121      8119      8122      8125      8122      8125      8128      8129
      8122      8125      8128      8130      8122      8125      8128      8131
      8123      8122      8125      8126      8123      8122      8125      8127
      8123      8122      8125      8128      8124      8122      8125      8126
      8124      8122      8125      8127      8124      8122      8125      8128
      8126      8125      8128      8129      8126      8125      8128      8130
      8126      8125      8128      8131      8127      8125      8128      8129
      8127      8125      8128      8130      8127      8125      8128      8131
      8132      8135      8138      8139      8132      8135      8138      8140
      8132      8135      8138      8141      8133      8132      8135      8136
      8133      8132      8135      8137      8133      8132      8135      8138
      8134      8132      8135      8136      8134      8132      8135      8137
      8134      8132      8135      8138      8135      8138      8141      8142
      8135      8138      8141      8143      8135      8138      8141      8144
      8136      8135      8138      8139      8136      8135      8138      8140
      8136      8135      8138      8141      8137      8135      8138      8139
      8137      8135      8138      8140      8137      8135      8138      8141
      8138      8141      8144      8145      8138      8141      8144      8146
      8138      8141      8144      8147      8139      8138      8141      8142
      8139      8138      8141      8143      8139      8138      8141      8144
      8140      8138      8141      8142      8140      8138      8141      8143
      8140      8138      8141      8144      8141      8144      8147      8148
      8141      8144      8147      8149      8141      8144      8147      8150
      8142      8141      8144      8145      8142      8141      8144      8146
      8142      8141      8144      8147      8143      8141      8144      8145
      8143      8141      8144      8146      8143      8141      8144      8147
      8144      8147      8150      8151      8144      8147      8150      8152
      8144      8147      8150      8153      8145      8144      8147      8148
      8145      8144      8147      8149      8145      8144      8147      8150
      8146      8144      8147      8148      8146      8144      8147      8149
      8146      8144      8147      8150      8147      8150      8153      8154
      8147      8150      8153      8155      8147      8150      8153      8156
      8148      8147      8150      8151      8148      8147      8150      8152
      8148      8147      8150      8153      8149      8147      8150      8151
      8149      8147      8150      8152      8149      8147      8150      8153
      8150      8153      8156      8157      8150      8153      8156      8158
      8150      8153      8156      8159      8151      8150      8153      8154
      8151      8150      8153      8155      8151      8150      8153      8156
      8152      8150      8153      8154      8152      8150      8153      8155
      8152      8150      8153      8156      8153      8156      8159      8160
      8153      8156      8159      8161      8153      8156      8159      8162
      8154      8153      8156      8157      8154      8153      8156      8158
      8154      8153      8156      8159      8155      8153      8156      8157
      8155      8153      8156      8158      8155      8153      8156      8159
      8156      8159      8162      8163      8156      8159      8162      8164
      8156      8159      8162      8165      8157      8156      8159      8160
      8157      8156      8159      8161      8157      8156      8159      8162
      8158      8156      8159      8160      8158      8156      8159      8161
      8158      8156      8159      8162      8159      8162      8165      8166
      8159      8162      8165      8167      8159      8162      8165      8168
      8160      8159      8162      8163      8160      8159      8162      8164
      8160      8159      8162      8165      8161      8159      8162      8163
      8161      8159      8162      8164      8161      8159      8162      8165
      8162      8165      8168      8169      8162      8165      8168      8170
      8162      8165      8168      8171      8163      8162      8165      8166
      8163      8162      8165      8167      8163      8162      8165      8168
      8164      8162      8165      8166      8164      8162      8165      8167
      8164      8162      8165      8168      8165      8168      8171      8172
      8165      8168      8171      8173      8165      8168      8171      8174
      8166      8165      8168      8169      8166      8165      8168      8170
      8166      8165      8168      8171      8167      8165      8168      8169
      8167      8165      8168      8170      8167      8165      8168      8171
      8169      8168      8171      8172      8169      8168      8171      8173
      8169      8168      8171      8174      8170      8168      8171      8172
      8170      8168      8171      8173      8170      8168      8171      8174
      8175      8176      8191      8192      8175      8176      8191      8193
      8175      8176      8191      8197      8176      8175      8179      8180
      8176      8175      8179      8181      8176      8175      8179      8182
      8176      8175      8183      8184      8176      8175      8183      8185
      8176      8175      8183      8186      8176      8175      8187      8188
      8176      8175      8187      8189      8176      8175      8187      8190
      8176      8191      8197      8194      8177      8176      8175      8179
      8177      8176      8175      8183      8177      8176      8175      8187
      8177      8176      8191      8192      8177      8176      8191      8193
      8177      8176      8191      8197      8178      8176      8175      8179
      8178      8176      8175      8183      8178      8176      8175      8187
      8178      8176      8191      8192      8178      8176      8191      8193
      8178      8176      8191      8197      8179      8175      8176      8191
      8179      8175      8183      8184      8179      8175      8183      8185
      8179      8175      8183      8186      8179      8175      8187      8188
      8179      8175      8187      8189      8179      8175      8187      8190
      8180      8179      8175      8183      8180      8179      8175      8187
      8181      8179      8175      8183      8181      8179      8175      8187
      8182      8179      8175      8183      8182      8179      8175      8187
      8183      8175      8176      8191      8183      8175      8187      8188
      8183      8175      8187      8189      8183      8175      8187      8190
      8184      8183      8175      8187      8185      8183      8175      8187
      8186      8183      8175      8187      8187      8175      8176      8191
      8191      8197      8194      8195      8191      8197      8194      8196
      8191      8197      8194      8198      8192      8191      8197      8194
      8193      8191      8197      8194      8194      8198      8199      8200
      8194      8198      8199      8201      8194      8198      8199      8202
      8195      8194      8198      8199      8196      8194      8198      8199
      8197      8194      8198      8199      8198      8199      8202      8203
      8198      8199      8202      8204      8198      8199      8202      8210
      8199      8202      8204      8205      8199      8202      8210      8211
      8199      8202      8210      8212      8199      8202      8210      8213
      8200      8199      8202      8203      8200      8199      8202      8204
      8200      8199      8202      8210      8201      8199      8202      8203
      8201      8199      8202      8204      8201      8199      8202      8210
      8202      8204      8205      8206      8202      8204      8205      8207
      8202      8210      8213      8214      8203      8202      8204      8205
      8203      8202      8210      8211      8203      8202      8210      8212
      8203      8202      8210      8213      8204      8202      8210      8211
      8204      8202      8210      8212      8204      8202      8210      8213
      8204      8205      8207      8208      8204      8205      8207      8209
      8204      8205      8207      8219      8205      8204      8202      8210
      8205      8207      8219      8220      8205      8207      8219      8221
      8205      8207      8219      8222      8206      8205      8207      8208
      8206      8205      8207      8209      8206      8205      8207      8219
      8207      8219      8222      8223      8207      8219      8222      8224
      8207      8219      8222      8225      8208      8207      8219      8220
      8208      8207      8219      8221      8208      8207      8219      8222
      8209      8207      8219      8220      8209      8207      8219      8221
      8209      8207      8219      8222      8210      8213      8214      8215
      8210      8213      8214      8216      8211      8210      8213      8214
      8212      8210      8213      8214      8213      8214      8216      8217
      8213      8214      8216      8218      8213      8214      8216      8266
      8214      8216      8266      8267      8214      8216      8266      8268
      8214      8216      8266      8269      8215      8214      8216      8217
      8215      8214      8216      8218      8215      8214      8216      8266
      8216      8266      8269      8270      8216      8266      8269      8271
      8216      8266      8269      8272      8217      8216      8266      8267
      8217      8216      8266      8268      8217      8216      8266      8269
      8218      8216      8266      8267      8218      8216      8266      8268
      8218      8216      8266      8269      8219      8222      8225      8226
      8219      8222      8225      8227      8219      8222      8225      8228
      8220      8219      8222      8223      8220      8219      8222      8224
      8220      8219      8222      8225      8221      8219      8222      8223
      8221      8219      8222      8224      8221      8219      8222      8225
      8222      8225      8228      8229      8222      8225      8228      8230
      8222      8225      8228      8231      8223      8222      8225      8226
      8223      8222      8225      8227      8223      8222      8225      8228
      8224      8222      8225      8226      8224      8222      8225      8227
      8224      8222      8225      8228      8225      8228      8231      8232
      8225      8228      8231      8233      8225      8228      8231      8234
      8226      8225      8228      8229      8226      8225      8228      8230
      8226      8225      8228      8231      8227      8225      8228      8229
      8227      8225      8228      8230      8227      8225      8228      8231
      8228      8231      8234      8235      8228      8231      8234      8236
      8228      8231      8234      8237      8229      8228      8231      8232
      8229      8228      8231      8233      8229      8228      8231      8234
      8230      8228      8231      8232      8230      8228      8231      8233
      8230      8228      8231      8234      8231      8234      8237      8238
      8231      8234      8237      8239      8232      8231      8234      8235
      8232      8231      8234      8236      8232      8231      8234      8237
      8233      8231      8234      8235      8233      8231      8234      8236
      8233      8231      8234      8237      8234      8237      8239      8240
      8234      8237      8239      8241      8235      8234      8237      8238
      8235      8234      8237      8239      8236      8234      8237      8238
      8236      8234      8237      8239      8237      8239      8241      8242
      8237      8239      8241      8243      8237      8239      8241      8244
      8238      8237      8239      8240      8238      8237      8239      8241
      8239      8241      8244      8245      8239      8241      8244      8246
      8239      8241      8244      8247      8240      8239      8241      8242
      8240      8239      8241      8243      8240      8239      8241      8244
      8241      8244      8247      8248      8241      8244      8247      8249
      8241      8244      8247      8250      8242      8241      8244      8245
      8242      8241      8244      8246      8242      8241      8244      8247
      8243      8241      8244      8245      8243      8241      8244      8246
      8243      8241      8244      8247      8244      8247      8250      8251
      8244      8247      8250      8252      8244      8247      8250      8253
      8245      8244      8247      8248      8245      8244      8247      8249
      8245      8244      8247      8250      8246      8244      8247      8248
      8246      8244      8247      8249      8246      8244      8247      8250
      8247      8250      8253      8254      8247      8250      8253      8255
      8247      8250      8253      8256      8248      8247      8250      8251
      8248      8247      8250      8252      8248      8247      8250      8253
      8249      8247      8250      8251      8249      8247      8250      8252
      8249      8247      8250      8253      8250      8253      8256      8257
      8250      8253      8256      8258      8250      8253      8256      8259
      8251      8250      8253      8254      8251      8250      8253      8255
      8251      8250      8253      8256      8252      8250      8253      8254
      8252      8250      8253      8255      8252      8250      8253      8256
      8253      8256      8259      8260      8253      8256      8259      8261
      8253      8256      8259      8262      8254      8253      8256      8257
      8254      8253      8256      8258      8254      8253      8256      8259
      8255      8253      8256      8257      8255      8253      8256      8258
      8255      8253      8256      8259      8256      8259      8262      8263
      8256      8259      8262      8264      8256      8259      8262      8265
      8257      8256      8259      8260      8257      8256      8259      8261
      8257      8256      8259      8262      8258      8256      8259      8260
      8258      8256      8259      8261      8258      8256      8259      8262
      8260      8259      8262      8263      8260      8259      8262      8264
      8260      8259      8262      8265      8261      8259      8262      8263
      8261      8259      8262      8264      8261      8259      8262      8265
      8266      8269      8272      8273      8266      8269      8272      8274
      8266      8269      8272      8275      8267      8266      8269      8270
      8267      8266      8269      8271      8267      8266      8269      8272
      8268      8266      8269      8270      8268      8266      8269      8271
      8268      8266      8269      8272      8269      8272      8275      8276
      8269      8272      8275      8277      8269      8272      8275      8278
      8270      8269      8272      8273      8270      8269      8272      8274
      8270      8269      8272      8275      8271      8269      8272      8273
      8271      8269      8272      8274      8271      8269      8272      8275
      8272      8275      8278      8279      8272      8275      8278      8280
      8272      8275      8278      8281      8273      8272      8275      8276
      8273      8272      8275      8277      8273      8272      8275      8278
      8274      8272      8275      8276      8274      8272      8275      8277
      8274      8272      8275      8278      8275      8278      8281      8282
      8275      8278      8281      8283      8275      8278      8281      8284
      8276      8275      8278      8279      8276      8275      8278      8280
      8276      8275      8278      8281      8277      8275      8278      8279
      8277      8275      8278      8280      8277      8275      8278      8281
      8278      8281      8284      8285      8278      8281      8284      8286
      8278      8281      8284      8287      8279      8278      8281      8282
      8279      8278      8281      8283      8279      8278      8281      8284
      8280      8278      8281      8282      8280      8278      8281      8283
      8280      8278      8281      8284      8281      8284      8287      8288
      8281      8284      8287      8289      8281      8284      8287      8290
      8282      8281      8284      8285      8282      8281      8284      8286
      8282      8281      8284      8287      8283      8281      8284      8285
      8283      8281      8284      8286      8283      8281      8284      8287
      8284      8287      8290      8291      8284      8287      8290      8292
      8284      8287      8290      8293      8285      8284      8287      8288
      8285      8284      8287      8289      8285      8284      8287      8290
      8286      8284      8287      8288      8286      8284      8287      8289
      8286      8284      8287      8290      8287      8290      8293      8294
      8287      8290      8293      8295      8287      8290      8293      8296
      8288      8287      8290      8291      8288      8287      8290      8292
      8288      8287      8290      8293      8289      8287      8290      8291
      8289      8287      8290      8292      8289      8287      8290      8293
      8290      8293      8296      8297      8290      8293      8296      8298
      8290      8293      8296      8299      8291      8290      8293      8294
      8291      8290      8293      8295      8291      8290      8293      8296
      8292      8290      8293      8294      8292      8290      8293      8295
      8292      8290      8293      8296      8293      8296      8299      8300
      8293      8296      8299      8301      8293      8296      8299      8302
      8294      8293      8296      8297      8294      8293      8296      8298
      8294      8293      8296      8299      8295      8293      8296      8297
      8295      8293      8296      8298      8295      8293      8296      8299
      8296      8299      8302      8303      8296      8299      8302      8304
      8296      8299      8302      8305      8297      8296      8299      8300
      8297      8296      8299      8301      8297      8296      8299      8302
      8298      8296      8299      8300      8298      8296      8299      8301
      8298      8296      8299      8302      8299      8302      8305      8306
      8299      8302      8305      8307      8299      8302      8305      8308
      8300      8299      8302      8303      8300      8299      8302      8304
      8300      8299      8302      8305      8301      8299      8302      8303
      8301      8299      8302      8304      8301      8299      8302      8305
      8303      8302      8305      8306      8303      8302      8305      8307
      8303      8302      8305      8308      8304      8302      8305      8306
      8304      8302      8305      8307      8304      8302      8305      8308
      8309      8310      8325      8326      8309      8310      8325      8327
      8309      8310      8325      8331      8310      8309      8313      8314
      8310      8309      8313      8315      8310      8309      8313      8316
      8310      8309      8317      8318      8310      8309      8317      8319
      8310      8309      8317      8320      8310      8309      8321      8322
      8310      8309      8321      8323      8310      8309      8321      8324
      8310      8325      8331      8328      8311      8310      8309      8313
      8311      8310      8309      8317      8311      8310      8309      8321
      8311      8310      8325      8326      8311      8310      8325      8327
      8311      8310      8325      8331      8312      8310      8309      8313
      8312      8310      8309      8317      8312      8310      8309      8321
      8312      8310      8325      8326      8312      8310      8325      8327
      8312      8310      8325      8331      8313      8309      8310      8325
      8313      8309      8317      8318      8313      8309      8317      8319
      8313      8309      8317      8320      8313      8309      8321      8322
      8313      8309      8321      8323      8313      8309      8321      8324
      8314      8313      8309      8317      8314      8313      8309      8321
      8315      8313      8309      8317      8315      8313      8309      8321
      8316      8313      8309      8317      8316      8313      8309      8321
      8317      8309      8310      8325      8317      8309      8321      8322
      8317      8309      8321      8323      8317      8309      8321      8324
      8318      8317      8309      8321      8319      8317      8309      8321
      8320      8317      8309      8321      8321      8309      8310      8325
      8325      8331      8328      8329      8325      8331      8328      8330
      8325      8331      8328      8332      8326      8325      8331      8328
      8327      8325      8331      8328      8328      8332      8333      8334
      8328      8332      8333      8335      8328      8332      8333      8336
      8329      8328      8332      8333      8330      8328      8332      8333
      8331      8328      8332      8333      8332      8333      8336      8337
      8332      8333      8336      8338      8332      8333      8336      8344
      8333      8336      8338      8339      8333      8336      8344      8345
      8333      8336      8344      8346      8333      8336      8344      8347
      8334      8333      8336      8337      8334      8333      8336      8338
      8334      8333      8336      8344      8335      8333      8336      8337
      8335      8333      8336      8338      8335      8333      8336      8344
      8336      8338      8339      8340      8336      8338      8339      8341
      8336      8344      8347      8348      8337      8336      8338      8339
      8337      8336      8344      8345      8337      8336      8344      8346
      8337      8336      8344      8347      8338      8336      8344      8345
      8338      8336      8344      8346      8338      8336      8344      8347
      8338      8339      8341      8342      8338      8339      8341      8343
      8338      8339      8341      8353      8339      8338      8336      8344
      8339      8341      8353      8354      8339      8341      8353      8355
      8339      8341      8353      8356      8340      8339      8341      8342
      8340      8339      8341      8343      8340      8339      8341      8353
      8341      8353      8356      8357      8341      8353      8356      8358
      8341      8353      8356      8359      8342      8341      8353      8354
      8342      8341      8353      8355      8342      8341      8353      8356
      8343      8341      8353      8354      8343      8341      8353      8355
      8343      8341      8353      8356      8344      8347      8348      8349
      8344      8347      8348      8350      8345      8344      8347      8348
      8346      8344      8347      8348      8347      8348      8350      8351
      8347      8348      8350      8352      8347      8348      8350      8400
      8348      8350      8400      8401      8348      8350      8400      8402
      8348      8350      8400      8403      8349      8348      8350      8351
      8349      8348      8350      8352      8349      8348      8350      8400
      8350      8400      8403      8404      8350      8400      8403      8405
      8350      8400      8403      8406      8351      8350      8400      8401
      8351      8350      8400      8402      8351      8350      8400      8403
      8352      8350      8400      8401      8352      8350      8400      8402
      8352      8350      8400      8403      8353      8356      8359      8360
      8353      8356      8359      8361      8353      8356      8359      8362
      8354      8353      8356      8357      8354      8353      8356      8358
      8354      8353      8356      8359      8355      8353      8356      8357
      8355      8353      8356      8358      8355      8353      8356      8359
      8356      8359      8362      8363      8356      8359      8362      8364
      8356      8359      8362      8365      8357      8356      8359      8360
      8357      8356      8359      8361      8357      8356      8359      8362
      8358      8356      8359      8360      8358      8356      8359      8361
      8358      8356      8359      8362      8359      8362      8365      8366
      8359      8362      8365      8367      8359      8362      8365      8368
      8360      8359      8362      8363      8360      8359      8362      8364
      8360      8359      8362      8365      8361      8359      8362      8363
      8361      8359      8362      8364      8361      8359      8362      8365
      8362      8365      8368      8369      8362      8365      8368      8370
      8362      8365      8368      8371      8363      8362      8365      8366
      8363      8362      8365      8367      8363      8362      8365      8368
      8364      8362      8365      8366      8364      8362      8365      8367
      8364      8362      8365      8368      8365      8368      8371      8372
      8365      8368      8371      8373      8366      8365      8368      8369
      8366      8365      8368      8370      8366      8365      8368      8371
      8367      8365      8368      8369      8367      8365      8368      8370
      8367      8365      8368      8371      8368      8371      8373      8374
      8368      8371      8373      8375      8369      8368      8371      8372
      8369      8368      8371      8373      8370      8368      8371      8372
      8370      8368      8371      8373      8371      8373      8375      8376
      8371      8373      8375      8377      8371      8373      8375      8378
      8372      8371      8373      8374      8372      8371      8373      8375
      8373      8375      8378      8379      8373      8375      8378      8380
      8373      8375      8378      8381      8374      8373      8375      8376
      8374      8373      8375      8377      8374      8373      8375      8378
      8375      8378      8381      8382      8375      8378      8381      8383
      8375      8378      8381      8384      8376      8375      8378      8379
      8376      8375      8378      8380      8376      8375      8378      8381
      8377      8375      8378      8379      8377      8375      8378      8380
      8377      8375      8378      8381      8378      8381      8384      8385
      8378      8381      8384      8386      8378      8381      8384      8387
      8379      8378      8381      8382      8379      8378      8381      8383
      8379      8378      8381      8384      8380      8378      8381      8382
      8380      8378      8381      8383      8380      8378      8381      8384
      8381      8384      8387      8388      8381      8384      8387      8389
      8381      8384      8387      8390      8382      8381      8384      8385
      8382      8381      8384      8386      8382      8381      8384      8387
      8383      8381      8384      8385      8383      8381      8384      8386
      8383      8381      8384      8387      8384      8387      8390      8391
      8384      8387      8390      8392      8384      8387      8390      8393
      8385      8384      8387      8388      8385      8384      8387      8389
      8385      8384      8387      8390      8386      8384      8387      8388
      8386      8384      8387      8389      8386      8384      8387      8390
      8387      8390      8393      8394      8387      8390      8393      8395
      8387      8390      8393      8396      8388      8387      8390      8391
      8388      8387      8390      8392      8388      8387      8390      8393
      8389      8387      8390      8391      8389      8387      8390      8392
      8389      8387      8390      8393      8390      8393      8396      8397
      8390      8393      8396      8398      8390      8393      8396      8399
      8391      8390      8393      8394      8391      8390      8393      8395
      8391      8390      8393      8396      8392      8390      8393      8394
      8392      8390      8393      8395      8392      8390      8393      8396
      8394      8393      8396      8397      8394      8393      8396      8398
      8394      8393      8396      8399      8395      8393      8396      8397
      8395      8393      8396      8398      8395      8393      8396      8399
      8400      8403      8406      8407      8400      8403      8406      8408
      8400      8403      8406      8409      8401      8400      8403      8404
      8401      8400      8403      8405      8401      8400      8403      8406
      8402      8400      8403      8404      8402      8400      8403      8405
      8402      8400      8403      8406      8403      8406      8409      8410
      8403      8406      8409      8411      8403      8406      8409      8412
      8404      8403      8406      8407      8404      8403      8406      8408
      8404      8403      8406      8409      8405      8403      8406      8407
      8405      8403      8406      8408      8405      8403      8406      8409
      8406      8409      8412      8413      8406      8409      8412      8414
      8406      8409      8412      8415      8407      8406      8409      8410
      8407      8406      8409      8411      8407      8406      8409      8412
      8408      8406      8409      8410      8408      8406      8409      8411
      8408      8406      8409      8412      8409      8412      8415      8416
      8409      8412      8415      8417      8409      8412      8415      8418
      8410      8409      8412      8413      8410      8409      8412      8414
      8410      8409      8412      8415      8411      8409      8412      8413
      8411      8409      8412      8414      8411      8409      8412      8415
      8412      8415      8418      8419      8412      8415      8418      8420
      8412      8415      8418      8421      8413      8412      8415      8416
      8413      8412      8415      8417      8413      8412      8415      8418
      8414      8412      8415      8416      8414      8412      8415      8417
      8414      8412      8415      8418      8415      8418      8421      8422
      8415      8418      8421      8423      8415      8418      8421      8424
      8416      8415      8418      8419      8416      8415      8418      8420
      8416      8415      8418      8421      8417      8415      8418      8419
      8417      8415      8418      8420      8417      8415      8418      8421
      8418      8421      8424      8425      8418      8421      8424      8426
      8418      8421      8424      8427      8419      8418      8421      8422
      8419      8418      8421      8423      8419      8418      8421      8424
      8420      8418      8421      8422      8420      8418      8421      8423
      8420      8418      8421      8424      8421      8424      8427      8428
      8421      8424      8427      8429      8421      8424      8427      8430
      8422      8421      8424      8425      8422      8421      8424      8426
      8422      8421      8424      8427      8423      8421      8424      8425
      8423      8421      8424      8426      8423      8421      8424      8427
      8424      8427      8430      8431      8424      8427      8430      8432
      8424      8427      8430      8433      8425      8424      8427      8428
      8425      8424      8427      8429      8425      8424      8427      8430
      8426      8424      8427      8428      8426      8424      8427      8429
      8426      8424      8427      8430      8427      8430      8433      8434
      8427      8430      8433      8435      8427      8430      8433      8436
      8428      8427      8430      8431      8428      8427      8430      8432
      8428      8427      8430      8433      8429      8427      8430      8431
      8429      8427      8430      8432      8429      8427      8430      8433
      8430      8433      8436      8437      8430      8433      8436      8438
      8430      8433      8436      8439      8431      8430      8433      8434
      8431      8430      8433      8435      8431      8430      8433      8436
      8432      8430      8433      8434      8432      8430      8433      8435
      8432      8430      8433      8436      8433      8436      8439      8440
      8433      8436      8439      8441      8433      8436      8439      8442
      8434      8433      8436      8437      8434      8433      8436      8438
      8434      8433      8436      8439      8435      8433      8436      8437
      8435      8433      8436      8438      8435      8433      8436      8439
      8437      8436      8439      8440      8437      8436      8439      8441
      8437      8436      8439      8442      8438      8436      8439      8440
      8438      8436      8439      8441      8438      8436      8439      8442
      8443      8444      8459      8460      8443      8444      8459      8461
      8443      8444      8459      8465      8444      8443      8447      8448
      8444      8443      8447      8449      8444      8443      8447      8450
      8444      8443      8451      8452      8444      8443      8451      8453
      8444      8443      8451      8454      8444      8443      8455      8456
      8444      8443      8455      8457      8444      8443      8455      8458
      8444      8459      8465      8462      8445      8444      8443      8447
      8445      8444      8443      8451      8445      8444      8443      8455
      8445      8444      8459      8460      8445      8444      8459      8461
      8445      8444      8459      8465      8446      8444      8443      8447
      8446      8444      8443      8451      8446      8444      8443      8455
      8446      8444      8459      8460      8446      8444      8459      8461
      8446      8444      8459      8465      8447      8443      8444      8459
      8447      8443      8451      8452      8447      8443      8451      8453
      8447      8443      8451      8454      8447      8443      8455      8456
      8447      8443      8455      8457      8447      8443      8455      8458
      8448      8447      8443      8451      8448      8447      8443      8455
      8449      8447      8443      8451      8449      8447      8443      8455
      8450      8447      8443      8451      8450      8447      8443      8455
      8451      8443      8444      8459      8451      8443      8455      8456
      8451      8443      8455      8457      8451      8443      8455      8458
      8452      8451      8443      8455      8453      8451      8443      8455
      8454      8451      8443      8455      8455      8443      8444      8459
      8459      8465      8462      8463      8459      8465      8462      8464
      8459      8465      8462      8466      8460      8459      8465      8462
      8461      8459      8465      8462      8462      8466      8467      8468
      8462      8466      8467      8469      8462      8466      8467      8470
      8463      8462      8466      8467      8464      8462      8466      8467
      8465      8462      8466      8467      8466      8467      8470      8471
      8466      8467      8470      8472      8466      8467      8470      8478
      8467      8470      8472      8473      8467      8470      8478      8479
      8467      8470      8478      8480      8467      8470      8478      8481
      8468      8467      8470      8471      8468      8467      8470      8472
      8468      8467      8470      8478      8469      8467      8470      8471
      8469      8467      8470      8472      8469      8467      8470      8478
      8470      8472      8473      8474      8470      8472      8473      8475
      8470      8478      8481      8482      8471      8470      8472      8473
      8471      8470      8478      8479      8471      8470      8478      8480
      8471      8470      8478      8481      8472      8470      8478      8479
      8472      8470      8478      8480      8472      8470      8478      8481
      8472      8473      8475      8476      8472      8473      8475      8477
      8472      8473      8475      8487      8473      8472      8470      8478
      8473      8475      8487      8488      8473      8475      8487      8489
      8473      8475      8487      8490      8474      8473      8475      8476
      8474      8473      8475      8477      8474      8473      8475      8487
      8475      8487      8490      8491      8475      8487      8490      8492
      8475      8487      8490      8493      8476      8475      8487      8488
      8476      8475      8487      8489      8476      8475      8487      8490
      8477      8475      8487      8488      8477      8475      8487      8489
      8477      8475      8487      8490      8478      8481      8482      8483
      8478      8481      8482      8484      8479      8478      8481      8482
      8480      8478      8481      8482      8481      8482      8484      8485
      8481      8482      8484      8486      8481      8482      8484      8534
      8482      8484      8534      8535      8482      8484      8534      8536
      8482      8484      8534      8537      8483      8482      8484      8485
      8483      8482      8484      8486      8483      8482      8484      8534
      8484      8534      8537      8538      8484      8534      8537      8539
      8484      8534      8537      8540      8485      8484      8534      8535
      8485      8484      8534      8536      8485      8484      8534      8537
      8486      8484      8534      8535      8486      8484      8534      8536
      8486      8484      8534      8537      8487      8490      8493      8494
      8487      8490      8493      8495      8487      8490      8493      8496
      8488      8487      8490      8491      8488      8487      8490      8492
      8488      8487      8490      8493      8489      8487      8490      8491
      8489      8487      8490      8492      8489      8487      8490      8493
      8490      8493      8496      8497      8490      8493      8496      8498
      8490      8493      8496      8499      8491      8490      8493      8494
      8491      8490      8493      8495      8491      8490      8493      8496
      8492      8490      8493      8494      8492      8490      8493      8495
      8492      8490      8493      8496      8493      8496      8499      8500
      8493      8496      8499      8501      8493      8496      8499      8502
      8494      8493      8496      8497      8494      8493      8496      8498
      8494      8493      8496      8499      8495      8493      8496      8497
      8495      8493      8496      8498      8495      8493      8496      8499
      8496      8499      8502      8503      8496      8499      8502      8504
      8496      8499      8502      8505      8497      8496      8499      8500
      8497      8496      8499      8501      8497      8496      8499      8502
      8498      8496      8499      8500      8498      8496      8499      8501
      8498      8496      8499      8502      8499      8502      8505      8506
      8499      8502      8505      8507      8500      8499      8502      8503
      8500      8499      8502      8504      8500      8499      8502      8505
      8501      8499      8502      8503      8501      8499      8502      8504
      8501      8499      8502      8505      8502      8505      8507      8508
      8502      8505      8507      8509      8503      8502      8505      8506
      8503      8502      8505      8507      8504      8502      8505      8506
      8504      8502      8505      8507      8505      8507      8509      8510
      8505      8507      8509      8511      8505      8507      8509      8512
      8506      8505      8507      8508      8506      8505      8507      8509
      8507      8509      8512      8513      8507      8509      8512      8514
      8507      8509      8512      8515      8508      8507      8509      8510
      8508      8507      8509      8511      8508      8507      8509      8512
      8509      8512      8515      8516      8509      8512      8515      8517
      8509      8512      8515      8518      8510      8509      8512      8513
      8510      8509      8512      8514      8510      8509      8512      8515
      8511      8509      8512      8513      8511      8509      8512      8514
      8511      8509      8512      8515      8512      8515      8518      8519
      8512      8515      8518      8520      8512      8515      8518      8521
      8513      8512      8515      8516      8513      8512      8515      8517
      8513      8512      8515      8518      8514      8512      8515      8516
      8514      8512      8515      8517      8514      8512      8515      8518
      8515      8518      8521      8522      8515      8518      8521      8523
      8515      8518      8521      8524      8516      8515      8518      8519
      8516      8515      8518      8520      8516      8515      8518      8521
      8517      8515      8518      8519      8517      8515      8518      8520
      8517      8515      8518      8521      8518      8521      8524      8525
      8518      8521      8524      8526      8518      8521      8524      8527
      8519      8518      8521      8522      8519      8518      8521      8523
      8519      8518      8521      8524      8520      8518      8521      8522
      8520      8518      8521      8523      8520      8518      8521      8524
      8521      8524      8527      8528      8521      8524      8527      8529
      8521      8524      8527      8530      8522      8521      8524      8525
      8522      8521      8524      8526      8522      8521      8524      8527
      8523      8521      8524      8525      8523      8521      8524      8526
      8523      8521      8524      8527      8524      8527      8530      8531
      8524      8527      8530      8532      8524      8527      8530      8533
      8525      8524      8527      8528      8525      8524      8527      8529
      8525      8524      8527      8530      8526      8524      8527      8528
      8526      8524      8527      8529      8526      8524      8527      8530
      8528      8527      8530      8531      8528      8527      8530      8532
      8528      8527      8530      8533      8529      8527      8530      8531
      8529      8527      8530      8532      8529      8527      8530      8533
      8534      8537      8540      8541      8534      8537      8540      8542
      8534      8537      8540      8543      8535      8534      8537      8538
      8535      8534      8537      8539      8535      8534      8537      8540
      8536      8534      8537      8538      8536      8534      8537      8539
      8536      8534      8537      8540      8537      8540      8543      8544
      8537      8540      8543      8545      8537      8540      8543      8546
      8538      8537      8540      8541      8538      8537      8540      8542
      8538      8537      8540      8543      8539      8537      8540      8541
      8539      8537      8540      8542      8539      8537      8540      8543
      8540      8543      8546      8547      8540      8543      8546      8548
      8540      8543      8546      8549      8541      8540      8543      8544
      8541      8540      8543      8545      8541      8540      8543      8546
      8542      8540      8543      8544      8542      8540      8543      8545
      8542      8540      8543      8546      8543      8546      8549      8550
      8543      8546      8549      8551      8543      8546      8549      8552
      8544      8543      8546      8547      8544      8543      8546      8548
      8544      8543      8546      8549      8545      8543      8546      8547
      8545      8543      8546      8548      8545      8543      8546      8549
      8546      8549      8552      8553      8546      8549      8552      8554
      8546      8549      8552      8555      8547      8546      8549      8550
      8547      8546      8549      8551      8547      8546      8549      8552
      8548      8546      8549      8550      8548      8546      8549      8551
      8548      8546      8549      8552      8549      8552      8555      8556
      8549      8552      8555      8557      8549      8552      8555      8558
      8550      8549      8552      8553      8550      8549      8552      8554
      8550      8549      8552      8555      8551      8549      8552      8553
      8551      8549      8552      8554      8551      8549      8552      8555
      8552      8555      8558      8559      8552      8555      8558      8560
      8552      8555      8558      8561      8553      8552      8555      8556
      8553      8552      8555      8557      8553      8552      8555      8558
      8554      8552      8555      8556      8554      8552      8555      8557
      8554      8552      8555      8558      8555      8558      8561      8562
      8555      8558      8561      8563      8555      8558      8561      8564
      8556      8555      8558      8559      8556      8555      8558      8560
      8556      8555      8558      8561      8557      8555      8558      8559
      8557      8555      8558      8560      8557      8555      8558      8561
      8558      8561      8564      8565      8558      8561      8564      8566
      8558      8561      8564      8567      8559      8558      8561      8562
      8559      8558      8561      8563      8559      8558      8561      8564
      8560      8558      8561      8562      8560      8558      8561      8563
      8560      8558      8561      8564      8561      8564      8567      8568
      8561      8564      8567      8569      8561      8564      8567      8570
      8562      8561      8564      8565      8562      8561      8564      8566
      8562      8561      8564      8567      8563      8561      8564      8565
      8563      8561      8564      8566      8563      8561      8564      8567
      8564      8567      8570      8571      8564      8567      8570      8572
      8564      8567      8570      8573      8565      8564      8567      8568
      8565      8564      8567      8569      8565      8564      8567      8570
      8566      8564      8567      8568      8566      8564      8567      8569
      8566      8564      8567      8570      8567      8570      8573      8574
      8567      8570      8573      8575      8567      8570      8573      8576
      8568      8567      8570      8571      8568      8567      8570      8572
      8568      8567      8570      8573      8569      8567      8570      8571
      8569      8567      8570      8572      8569      8567      8570      8573
      8571      8570      8573      8574      8571      8570      8573      8575
      8571      8570      8573      8576      8572      8570      8573      8574
      8572      8570      8573      8575      8572      8570      8573      8576
      8577      8578      8593      8594      8577      8578      8593      8595
      8577      8578      8593      8599      8578      8577      8581      8582
      8578      8577      8581      8583      8578      8577      8581      8584
      8578      8577      8585      8586      8578      8577      8585      8587
      8578      8577      8585      8588      8578      8577      8589      8590
      8578      8577      8589      8591      8578      8577      8589      8592
      8578      8593      8599      8596      8579      8578      8577      8581
      8579      8578      8577      8585      8579      8578      8577      8589
      8579      8578      8593      8594      8579      8578      8593      8595
      8579      8578      8593      8599      8580      8578      8577      8581
      8580      8578      8577      8585      8580      8578      8577      8589
      8580      8578      8593      8594      8580      8578      8593      8595
      8580      8578      8593      8599      8581      8577      8578      8593
      8581      8577      8585      8586      8581      8577      8585      8587
      8581      8577      8585      8588      8581      8577      8589      8590
      8581      8577      8589      8591      8581      8577      8589      8592
      8582      8581      8577      8585      8582      8581      8577      8589
      8583      8581      8577      8585      8583      8581      8577      8589
      8584      8581      8577      8585      8584      8581      8577      8589
      8585      8577      8578      8593      8585      8577      8589      8590
      8585      8577      8589      8591      8585      8577      8589      8592
      8586      8585      8577      8589      8587      8585      8577      8589
      8588      8585      8577      8589      8589      8577      8578      8593
      8593      8599      8596      8597      8593      8599      8596      8598
      8593      8599      8596      8600      8594      8593      8599      8596
      8595      8593      8599      8596      8596      8600      8601      8602
      8596      8600      8601      8603      8596      8600      8601      8604
      8597      8596      8600      8601      8598      8596      8600      8601
      8599      8596      8600      8601      8600      8601      8604      8605
      8600      8601      8604      8606      8600      8601      8604      8612
      8601      8604      8606      8607      8601      8604      8612      8613
      8601      8604      8612      8614      8601      8604      8612      8615
      8602      8601      8604      8605      8602      8601      8604      8606
      8602      8601      8604      8612      8603      8601      8604      8605
      8603      8601      8604      8606      8603      8601      8604      8612
      8604      8606      8607      8608      8604      8606      8607      8609
      8604      8612      8615      8616      8605      8604      8606      8607
      8605      8604      8612      8613      8605      8604      8612      8614
      8605      8604      8612      8615      8606      8604      8612      8613
      8606      8604      8612      8614      8606      8604      8612      8615
      8606      8607      8609      8610      8606      8607      8609      8611
      8606      8607      8609      8621      8607      8606      8604      8612
      8607      8609      8621      8622      8607      8609      8621      8623
      8607      8609      8621      8624      8608      8607      8609      8610
      8608      8607      8609      8611      8608      8607      8609      8621
      8609      8621      8624      8625      8609      8621      8624      8626
      8609      8621      8624      8627      8610      8609      8621      8622
      8610      8609      8621      8623      8610      8609      8621      8624
      8611      8609      8621      8622      8611      8609      8621      8623
      8611      8609      8621      8624      8612      8615      8616      8617
      8612      8615      8616      8618      8613      8612      8615      8616
      8614      8612      8615      8616      8615      8616      8618      8619
      8615      8616      8618      8620      8615      8616      8618      8668
      8616      8618      8668      8669      8616      8618      8668      8670
      8616      8618      8668      8671      8617      8616      8618      8619
      8617      8616      8618      8620      8617      8616      8618      8668
      8618      8668      8671      8672      8618      8668      8671      8673
      8618      8668      8671      8674      8619      8618      8668      8669
      8619      8618      8668      8670      8619      8618      8668      8671
      8620      8618      8668      8669      8620      8618      8668      8670
      8620      8618      8668      8671      8621      8624      8627      8628
      8621      8624      8627      8629      8621      8624      8627      8630
      8622      8621      8624      8625      8622      8621      8624      8626
      8622      8621      8624      8627      8623      8621      8624      8625
      8623      8621      8624      8626      8623      8621      8624      8627
      8624      8627      8630      8631      8624      8627      8630      8632
      8624      8627      8630      8633      8625      8624      8627      8628
      8625      8624      8627      8629      8625      8624      8627      8630
      8626      8624      8627      8628      8626      8624      8627      8629
      8626      8624      8627      8630      8627      8630      8633      8634
      8627      8630      8633      8635      8627      8630      8633      8636
      8628      8627      8630      8631      8628      8627      8630      8632
      8628      8627      8630      8633      8629      8627      8630      8631
      8629      8627      8630      8632      8629      8627      8630      8633
      8630      8633      8636      8637      8630      8633      8636      8638
      8630      8633      8636      8639      8631      8630      8633      8634
      8631      8630      8633      8635      8631      8630      8633      8636
      8632      8630      8633      8634      8632      8630      8633      8635
      8632      8630      8633      8636      8633      8636      8639      8640
      8633      8636      8639      8641      8634      8633      8636      8637
      8634      8633      8636      8638      8634      8633      8636      8639
      8635      8633      8636      8637      8635      8633      8636      8638
      8635      8633      8636      8639      8636      8639      8641      8642
      8636      8639      8641      8643      8637      8636      8639      8640
      8637      8636      8639      8641      8638      8636      8639      8640
      8638      8636      8639      8641      8639      8641      8643      8644
      8639      8641      8643      8645      8639      8641      8643      8646
      8640      8639      8641      8642      8640      8639      8641      8643
      8641      8643      8646      8647      8641      8643      8646      8648
      8641      8643      8646      8649      8642      8641      8643      8644
      8642      8641      8643      8645      8642      8641      8643      8646
      8643      8646      8649      8650      8643      8646      8649      8651
      8643      8646      8649      8652      8644      8643      8646      8647
      8644      8643      8646      8648      8644      8643      8646      8649
      8645      8643      8646      8647      8645      8643      8646      8648
      8645      8643      8646      8649      8646      8649      8652      8653
      8646      8649      8652      8654      8646      8649      8652      8655
      8647      8646      8649      8650      8647      8646      8649      8651
      8647      8646      8649      8652      8648      8646      8649      8650
      8648      8646      8649      8651      8648      8646      8649      8652
      8649      8652      8655      8656      8649      8652      8655      8657
      8649      8652      8655      8658      8650      8649      8652      8653
      8650      8649      8652      8654      8650      8649      8652      8655
      8651      8649      8652      8653      8651      8649      8652      8654
      8651      8649      8652      8655      8652      8655      8658      8659
      8652      8655      8658      8660      8652      8655      8658      8661
      8653      8652      8655      8656      8653      8652      8655      8657
      8653      8652      8655      8658      8654      8652      8655      8656
      8654      8652      8655      8657      8654      8652      8655      8658
      8655      8658      8661      8662      8655      8658      8661      8663
      8655      8658      8661      8664      8656      8655      8658      8659
      8656      8655      8658      8660      8656      8655      8658      8661
      8657      8655      8658      8659      8657      8655      8658      8660
      8657      8655      8658      8661      8658      8661      8664      8665
      8658      8661      8664      8666      8658      8661      8664      8667
      8659      8658      8661      8662      8659      8658      8661      8663
      8659      8658      8661      8664      8660      8658      8661      8662
      8660      8658      8661      8663      8660      8658      8661      8664
      8662      8661      8664      8665      8662      8661      8664      8666
      8662      8661      8664      8667      8663      8661      8664      8665
      8663      8661      8664      8666      8663      8661      8664      8667
      8668      8671      8674      8675      8668      8671      8674      8676
      8668      8671      8674      8677      8669      8668      8671      8672
      8669      8668      8671      8673      8669      8668      8671      8674
      8670      8668      8671      8672      8670      8668      8671      8673
      8670      8668      8671      8674      8671      8674      8677      8678
      8671      8674      8677      8679      8671      8674      8677      8680
      8672      8671      8674      8675      8672      8671      8674      8676
      8672      8671      8674      8677      8673      8671      8674      8675
      8673      8671      8674      8676      8673      8671      8674      8677
      8674      8677      8680      8681      8674      8677      8680      8682
      8674      8677      8680      8683      8675      8674      8677      8678
      8675      8674      8677      8679      8675      8674      8677      8680
      8676      8674      8677      8678      8676      8674      8677      8679
      8676      8674      8677      8680      8677      8680      8683      8684
      8677      8680      8683      8685      8677      8680      8683      8686
      8678      8677      8680      8681      8678      8677      8680      8682
      8678      8677      8680      8683      8679      8677      8680      8681
      8679      8677      8680      8682      8679      8677      8680      8683
      8680      8683      8686      8687      8680      8683      8686      8688
      8680      8683      8686      8689      8681      8680      8683      8684
      8681      8680      8683      8685      8681      8680      8683      8686
      8682      8680      8683      8684      8682      8680      8683      8685
      8682      8680      8683      8686      8683      8686      8689      8690
      8683      8686      8689      8691      8683      8686      8689      8692
      8684      8683      8686      8687      8684      8683      8686      8688
      8684      8683      8686      8689      8685      8683      8686      8687
      8685      8683      8686      8688      8685      8683      8686      8689
      8686      8689      8692      8693      8686      8689      8692      8694
      8686      8689      8692      8695      8687      8686      8689      8690
      8687      8686      8689      8691      8687      8686      8689      8692
      8688      8686      8689      8690      8688      8686      8689      8691
      8688      8686      8689      8692      8689      8692      8695      8696
      8689      8692      8695      8697      8689      8692      8695      8698
      8690      8689      8692      8693      8690      8689      8692      8694
      8690      8689      8692      8695      8691      8689      8692      8693
      8691      8689      8692      8694      8691      8689      8692      8695
      8692      8695      8698      8699      8692      8695      8698      8700
      8692      8695      8698      8701      8693      8692      8695      8696
      8693      8692      8695      8697      8693      8692      8695      8698
      8694      8692      8695      8696      8694      8692      8695      8697
      8694      8692      8695      8698      8695      8698      8701      8702
      8695      8698      8701      8703      8695      8698      8701      8704
      8696      8695      8698      8699      8696      8695      8698      8700
      8696      8695      8698      8701      8697      8695      8698      8699
      8697      8695      8698      8700      8697      8695      8698      8701
      8698      8701      8704      8705      8698      8701      8704      8706
      8698      8701      8704      8707      8699      8698      8701      8702
      8699      8698      8701      8703      8699      8698      8701      8704
      8700      8698      8701      8702      8700      8698      8701      8703
      8700      8698      8701      8704      8701      8704      8707      8708
      8701      8704      8707      8709      8701      8704      8707      8710
      8702      8701      8704      8705      8702      8701      8704      8706
      8702      8701      8704      8707      8703      8701      8704      8705
      8703      8701      8704      8706      8703      8701      8704      8707
      8705      8704      8707      8708      8705      8704      8707      8709
      8705      8704      8707      8710      8706      8704      8707      8708
      8706      8704      8707      8709      8706      8704      8707      8710
      8711      8712      8727      8728      8711      8712      8727      8729
      8711      8712      8727      8733      8712      8711      8715      8716
      8712      8711      8715      8717      8712      8711      8715      8718
      8712      8711      8719      8720      8712      8711      8719      8721
      8712      8711      8719      8722      8712      8711      8723      8724
      8712      8711      8723      8725      8712      8711      8723      8726
      8712      8727      8733      8730      8713      8712      8711      8715
      8713      8712      8711      8719      8713      8712      8711      8723
      8713      8712      8727      8728      8713      8712      8727      8729
      8713      8712      8727      8733      8714      8712      8711      8715
      8714      8712      8711      8719      8714      8712      8711      8723
      8714      8712      8727      8728      8714      8712      8727      8729
      8714      8712      8727      8733      8715      8711      8712      8727
      8715      8711      8719      8720      8715      8711      8719      8721
      8715      8711      8719      8722      8715      8711      8723      8724
      8715      8711      8723      8725      8715      8711      8723      8726
      8716      8715      8711      8719      8716      8715      8711      8723
      8717      8715      8711      8719      8717      8715      8711      8723
      8718      8715      8711      8719      8718      8715      8711      8723
      8719      8711      8712      8727      8719      8711      8723      8724
      8719      8711      8723      8725      8719      8711      8723      8726
      8720      8719      8711      8723      8721      8719      8711      8723
      8722      8719      8711      8723      8723      8711      8712      8727
      8727      8733      8730      8731      8727      8733      8730      8732
      8727      8733      8730      8734      8728      8727      8733      8730
      8729      8727      8733      8730      8730      8734      8735      8736
      8730      8734      8735      8737      8730      8734      8735      8738
      8731      8730      8734      8735      8732      8730      8734      8735
      8733      8730      8734      8735      8734      8735      8738      8739
      8734      8735      8738      8740      8734      8735      8738      8746
      8735      8738      8740      8741      8735      8738      8746      8747
      8735      8738      8746      8748      8735      8738      8746      8749
      8736      8735      8738      8739      8736      8735      8738      8740
      8736      8735      8738      8746      8737      8735      8738      8739
      8737      8735      8738      8740      8737      8735      8738      8746
      8738      8740      8741      8742      8738      8740      8741      8743
      8738      8746      8749      8750      8739      8738      8740      8741
      8739      8738      8746      8747      8739      8738      8746      8748
      8739      8738      8746      8749      8740      8738      8746      8747
      8740      8738      8746      8748      8740      8738      8746      8749
      8740      8741      8743      8744      8740      8741      8743      8745
      8740      8741      8743      8755      8741      8740      8738      8746
      8741      8743      8755      8756      8741      8743      8755      8757
      8741      8743      8755      8758      8742      8741      8743      8744
      8742      8741      8743      8745      8742      8741      8743      8755
      8743      8755      8758      8759      8743      8755      8758      8760
      8743      8755      8758      8761      8744      8743      8755      8756
      8744      8743      8755      8757      8744      8743      8755      8758
      8745      8743      8755      8756      8745      8743      8755      8757
      8745      8743      8755      8758      8746      8749      8750      8751
      8746      8749      8750      8752      8747      8746      8749      8750
      8748      8746      8749      8750      8749      8750      8752      8753
      8749      8750      8752      8754      8749      8750      8752      8802
      8750      8752      8802      8803      8750      8752      8802      8804
      8750      8752      8802      8805      8751      8750      8752      8753
      8751      8750      8752      8754      8751      8750      8752      8802
      8752      8802      8805      8806      8752      8802      8805      8807
      8752      8802      8805      8808      8753      8752      8802      8803
      8753      8752      8802      8804      8753      8752      8802      8805
      8754      8752      8802      8803      8754      8752      8802      8804
      8754      8752      8802      8805      8755      8758      8761      8762
      8755      8758      8761      8763      8755      8758      8761      8764
      8756      8755      8758      8759      8756      8755      8758      8760
      8756      8755      8758      8761      8757      8755      8758      8759
      8757      8755      8758      8760      8757      8755      8758      8761
      8758      8761      8764      8765      8758      8761      8764      8766
      8758      8761      8764      8767      8759      8758      8761      8762
      8759      8758      8761      8763      8759      8758      8761      8764
      8760      8758      8761      8762      8760      8758      8761      8763
      8760      8758      8761      8764      8761      8764      8767      8768
      8761      8764      8767      8769      8761      8764      8767      8770
      8762      8761      8764      8765      8762      8761      8764      8766
      8762      8761      8764      8767      8763      8761      8764      8765
      8763      8761      8764      8766      8763      8761      8764      8767
      8764      8767      8770      8771      8764      8767      8770      8772
      8764      8767      8770      8773      8765      8764      8767      8768
      8765      8764      8767      8769      8765      8764      8767      8770
      8766      8764      8767      8768      8766      8764      8767      8769
      8766      8764      8767      8770      8767      8770      8773      8774
      8767      8770      8773      8775      8768      8767      8770      8771
      8768      8767      8770      8772      8768      8767      8770      8773
      8769      8767      8770      8771      8769      8767      8770      8772
      8769      8767      8770      8773      8770      8773      8775      8776
      8770      8773      8775      8777      8771      8770      8773      8774
      8771      8770      8773      8775      8772      8770      8773      8774
      8772      8770      8773      8775      8773      8775      8777      8778
      8773      8775      8777      8779      8773      8775      8777      8780
      8774      8773      8775      8776      8774      8773      8775      8777
      8775      8777      8780      8781      8775      8777      8780      8782
      8775      8777      8780      8783      8776      8775      8777      8778
      8776      8775      8777      8779      8776      8775      8777      8780
      8777      8780      8783      8784      8777      8780      8783      8785
      8777      8780      8783      8786      8778      8777      8780      8781
      8778      8777      8780      8782      8778      8777      8780      8783
      8779      8777      8780      8781      8779      8777      8780      8782
      8779      8777      8780      8783      8780      8783      8786      8787
      8780      8783      8786      8788      8780      8783      8786      8789
      8781      8780      8783      8784      8781      8780      8783      8785
      8781      8780      8783      8786      8782      8780      8783      8784
      8782      8780      8783      8785      8782      8780      8783      8786
      8783      8786      8789      8790      8783      8786      8789      8791
      8783      8786      8789      8792      8784      8783      8786      8787
      8784      8783      8786      8788      8784      8783      8786      8789
      8785      8783      8786      8787      8785      8783      8786      8788
      8785      8783      8786      8789      8786      8789      8792      8793
      8786      8789      8792      8794      8786      8789      8792      8795
      8787      8786      8789      8790      8787      8786      8789      8791
      8787      8786      8789      8792      8788      8786      8789      8790
      8788      8786      8789      8791      8788      8786      8789      8792
      8789      8792      8795      8796      8789      8792      8795      8797
      8789      8792      8795      8798      8790      8789      8792      8793
      8790      8789      8792      8794      8790      8789      8792      8795
      8791      8789      8792      8793      8791      8789      8792      8794
      8791      8789      8792      8795      8792      8795      8798      8799
      8792      8795      8798      8800      8792      8795      8798      8801
      8793      8792      8795      8796      8793      8792      8795      8797
      8793      8792      8795      8798      8794      8792      8795      8796
      8794      8792      8795      8797      8794      8792      8795      8798
      8796      8795      8798      8799      8796      8795      8798      8800
      8796      8795      8798      8801      8797      8795      8798      8799
      8797      8795      8798      8800      8797      8795      8798      8801
      8802      8805      8808      8809      8802      8805      8808      8810
      8802      8805      8808      8811      8803      8802      8805      8806
      8803      8802      8805      8807      8803      8802      8805      8808
      8804      8802      8805      8806      8804      8802      8805      8807
      8804      8802      8805      8808      8805      8808      8811      8812
      8805      8808      8811      8813      8805      8808      8811      8814
      8806      8805      8808      8809      8806      8805      8808      8810
      8806      8805      8808      8811      8807      8805      8808      8809
      8807      8805      8808      8810      8807      8805      8808      8811
      8808      8811      8814      8815      8808      8811      8814      8816
      8808      8811      8814      8817      8809      8808      8811      8812
      8809      8808      8811      8813      8809      8808      8811      8814
      8810      8808      8811      8812      8810      8808      8811      8813
      8810      8808      8811      8814      8811      8814      8817      8818
      8811      8814      8817      8819      8811      8814      8817      8820
      8812      8811      8814      8815      8812      8811      8814      8816
      8812      8811      8814      8817      8813      8811      8814      8815
      8813      8811      8814      8816      8813      8811      8814      8817
      8814      8817      8820      8821      8814      8817      8820      8822
      8814      8817      8820      8823      8815      8814      8817      8818
      8815      8814      8817      8819      8815      8814      8817      8820
      8816      8814      8817      8818      8816      8814      8817      8819
      8816      8814      8817      8820      8817      8820      8823      8824
      8817      8820      8823      8825      8817      8820      8823      8826
      8818      8817      8820      8821      8818      8817      8820      8822
      8818      8817      8820      8823      8819      8817      8820      8821
      8819      8817      8820      8822      8819      8817      8820      8823
      8820      8823      8826      8827      8820      8823      8826      8828
      8820      8823      8826      8829      8821      8820      8823      8824
      8821      8820      8823      8825      8821      8820      8823      8826
      8822      8820      8823      8824      8822      8820      8823      8825
      8822      8820      8823      8826      8823      8826      8829      8830
      8823      8826      8829      8831      8823      8826      8829      8832
      8824      8823      8826      8827      8824      8823      8826      8828
      8824      8823      8826      8829      8825      8823      8826      8827
      8825      8823      8826      8828      8825      8823      8826      8829
      8826      8829      8832      8833      8826      8829      8832      8834
      8826      8829      8832      8835      8827      8826      8829      8830
      8827      8826      8829      8831      8827      8826      8829      8832
      8828      8826      8829      8830      8828      8826      8829      8831
      8828      8826      8829      8832      8829      8832      8835      8836
      8829      8832      8835      8837      8829      8832      8835      8838
      8830      8829      8832      8833      8830      8829      8832      8834
      8830      8829      8832      8835      8831      8829      8832      8833
      8831      8829      8832      8834      8831      8829      8832      8835
      8832      8835      8838      8839      8832      8835      8838      8840
      8832      8835      8838      8841      8833      8832      8835      8836
      8833      8832      8835      8837      8833      8832      8835      8838
      8834      8832      8835      8836      8834      8832      8835      8837
      8834      8832      8835      8838      8835      8838      8841      8842
      8835      8838      8841      8843      8835      8838      8841      8844
      8836      8835      8838      8839      8836      8835      8838      8840
      8836      8835      8838      8841      8837      8835      8838      8839
      8837      8835      8838      8840      8837      8835      8838      8841
      8839      8838      8841      8842      8839      8838      8841      8843
      8839      8838      8841      8844      8840      8838      8841      8842
      8840      8838      8841      8843      8840      8838      8841      8844
      8845      8846      8861      8862      8845      8846      8861      8863
      8845      8846      8861      8867      8846      8845      8849      8850
      8846      8845      8849      8851      8846      8845      8849      8852
      8846      8845      8853      8854      8846      8845      8853      8855
      8846      8845      8853      8856      8846      8845      8857      8858
      8846      8845      8857      8859      8846      8845      8857      8860
      8846      8861      8867      8864      8847      8846      8845      8849
      8847      8846      8845      8853      8847      8846      8845      8857
      8847      8846      8861      8862      8847      8846      8861      8863
      8847      8846      8861      8867      8848      8846      8845      8849
      8848      8846      8845      8853      8848      8846      8845      8857
      8848      8846      8861      8862      8848      8846      8861      8863
      8848      8846      8861      8867      8849      8845      8846      8861
      8849      8845      8853      8854      8849      8845      8853      8855
      8849      8845      8853      8856      8849      8845      8857      8858
      8849      8845      8857      8859      8849      8845      8857      8860
      8850      8849      8845      8853      8850      8849      8845      8857
      8851      8849      8845      8853      8851      8849      8845      8857
      8852      8849      8845      8853      8852      8849      8845      8857
      8853      8845      8846      8861      8853      8845      8857      8858
      8853      8845      8857      8859      8853      8845      8857      8860
      8854      8853      8845      8857      8855      8853      8845      8857
      8856      8853      8845      8857      8857      8845      8846      8861
      8861      8867      8864      8865      8861      8867      8864      8866
      8861      8867      8864      8868      8862      8861      8867      8864
      8863      8861      8867      8864      8864      8868      8869      8870
      8864      8868      8869      8871      8864      8868      8869      8872
      8865      8864      8868      8869      8866      8864      8868      8869
      8867      8864      8868      8869      8868      8869      8872      8873
      8868      8869      8872      8874      8868      8869      8872      8880
      8869      8872      8874      8875      8869      8872      8880      8881
      8869      8872      8880      8882      8869      8872      8880      8883
      8870      8869      8872      8873      8870      8869      8872      8874
      8870      8869      8872      8880      8871      8869      8872      8873
      8871      8869      8872      8874      8871      8869      8872      8880
      8872      8874      8875      8876      8872      8874      8875      8877
      8872      8880      8883      8884      8873      8872      8874      8875
      8873      8872      8880      8881      8873      8872      8880      8882
      8873      8872      8880      8883      8874      8872      8880      8881
      8874      8872      8880      8882      8874      8872      8880      8883
      8874      8875      8877      8878      8874      8875      8877      8879
      8874      8875      8877      8889      8875      8874      8872      8880
      8875      8877      8889      8890      8875      8877      8889      8891
      8875      8877      8889      8892      8876      8875      8877      8878
      8876      8875      8877      8879      8876      8875      8877      8889
      8877      8889      8892      8893      8877      8889      8892      8894
      8877      8889      8892      8895      8878      8877      8889      8890
      8878      8877      8889      8891      8878      8877      8889      8892
      8879      8877      8889      8890      8879      8877      8889      8891
      8879      8877      8889      8892      8880      8883      8884      8885
      8880      8883      8884      8886      8881      8880      8883      8884
      8882      8880      8883      8884      8883      8884      8886      8887
      8883      8884      8886      8888      8883      8884      8886      8936
      8884      8886      8936      8937      8884      8886      8936      8938
      8884      8886      8936      8939      8885      8884      8886      8887
      8885      8884      8886      8888      8885      8884      8886      8936
      8886      8936      8939      8940      8886      8936      8939      8941
      8886      8936      8939      8942      8887      8886      8936      8937
      8887      8886      8936      8938      8887      8886      8936      8939
      8888      8886      8936      8937      8888      8886      8936      8938
      8888      8886      8936      8939      8889      8892      8895      8896
      8889      8892      8895      8897      8889      8892      8895      8898
      8890      8889      8892      8893      8890      8889      8892      8894
      8890      8889      8892      8895      8891      8889      8892      8893
      8891      8889      8892      8894      8891      8889      8892      8895
      8892      8895      8898      8899      8892      8895      8898      8900
      8892      8895      8898      8901      8893      8892      8895      8896
      8893      8892      8895      8897      8893      8892      8895      8898
      8894      8892      8895      8896      8894      8892      8895      8897
      8894      8892      8895      8898      8895      8898      8901      8902
      8895      8898      8901      8903      8895      8898      8901      8904
      8896      8895      8898      8899      8896      8895      8898      8900
      8896      8895      8898      8901      8897      8895      8898      8899
      8897      8895      8898      8900      8897      8895      8898      8901
      8898      8901      8904      8905      8898      8901      8904      8906
      8898      8901      8904      8907      8899      8898      8901      8902
      8899      8898      8901      8903      8899      8898      8901      8904
      8900      8898      8901      8902      8900      8898      8901      8903
      8900      8898      8901      8904      8901      8904      8907      8908
      8901      8904      8907      8909      8902      8901      8904      8905
      8902      8901      8904      8906      8902      8901      8904      8907
      8903      8901      8904      8905      8903      8901      8904      8906
      8903      8901      8904      8907      8904      8907      8909      8910
      8904      8907      8909      8911      8905      8904      8907      8908
      8905      8904      8907      8909      8906      8904      8907      8908
      8906      8904      8907      8909      8907      8909      8911      8912
      8907      8909      8911      8913      8907      8909      8911      8914
      8908      8907      8909      8910      8908      8907      8909      8911
      8909      8911      8914      8915      8909      8911      8914      8916
      8909      8911      8914      8917      8910      8909      8911      8912
      8910      8909      8911      8913      8910      8909      8911      8914
      8911      8914      8917      8918      8911      8914      8917      8919
      8911      8914      8917      8920      8912      8911      8914      8915
      8912      8911      8914      8916      8912      8911      8914      8917
      8913      8911      8914      8915      8913      8911      8914      8916
      8913      8911      8914      8917      8914      8917      8920      8921
      8914      8917      8920      8922      8914      8917      8920      8923
      8915      8914      8917      8918      8915      8914      8917      8919
      8915      8914      8917      8920      8916      8914      8917      8918
      8916      8914      8917      8919      8916      8914      8917      8920
      8917      8920      8923      8924      8917      8920      8923      8925
      8917      8920      8923      8926      8918      8917      8920      8921
      8918      8917      8920      8922      8918      8917      8920      8923
      8919      8917      8920      8921      8919      8917      8920      8922
      8919      8917      8920      8923      8920      8923      8926      8927
      8920      8923      8926      8928      8920      8923      8926      8929
      8921      8920      8923      8924      8921      8920      8923      8925
      8921      8920      8923      8926      8922      8920      8923      8924
      8922      8920      8923      8925      8922      8920      8923      8926
      8923      8926      8929      8930      8923      8926      8929      8931
      8923      8926      8929      8932      8924      8923      8926      8927
      8924      8923      8926      8928      8924      8923      8926      8929
      8925      8923      8926      8927      8925      8923      8926      8928
      8925      8923      8926      8929      8926      8929      8932      8933
      8926      8929      8932      8934      8926      8929      8932      8935
      8927      8926      8929      8930      8927      8926      8929      8931
      8927      8926      8929      8932      8928      8926      8929      8930
      8928      8926      8929      8931      8928      8926      8929      8932
      8930      8929      8932      8933      8930      8929      8932      8934
      8930      8929      8932      8935      8931      8929      8932      8933
      8931      8929      8932      8934      8931      8929      8932      8935
      8936      8939      8942      8943      8936      8939      8942      8944
      8936      8939      8942      8945      8937      8936      8939      8940
      8937      8936      8939      8941      8937      8936      8939      8942
      8938      8936      8939      8940      8938      8936      8939      8941
      8938      8936      8939      8942      8939      8942      8945      8946
      8939      8942      8945      8947      8939      8942      8945      8948
      8940      8939      8942      8943      8940      8939      8942      8944
      8940      8939      8942      8945      8941      8939      8942      8943
      8941      8939      8942      8944      8941      8939      8942      8945
      8942      8945      8948      8949      8942      8945      8948      8950
      8942      8945      8948      8951      8943      8942      8945      8946
      8943      8942      8945      8947      8943      8942      8945      8948
      8944      8942      8945      8946      8944      8942      8945      8947
      8944      8942      8945      8948      8945      8948      8951      8952
      8945      8948      8951      8953      8945      8948      8951      8954
      8946      8945      8948      8949      8946      8945      8948      8950
      8946      8945      8948      8951      8947      8945      8948      8949
      8947      8945      8948      8950      8947      8945      8948      8951
      8948      8951      8954      8955      8948      8951      8954      8956
      8948      8951      8954      8957      8949      8948      8951      8952
      8949      8948      8951      8953      8949      8948      8951      8954
      8950      8948      8951      8952      8950      8948      8951      8953
      8950      8948      8951      8954      8951      8954      8957      8958
      8951      8954      8957      8959      8951      8954      8957      8960
      8952      8951      8954      8955      8952      8951      8954      8956
      8952      8951      8954      8957      8953      8951      8954      8955
      8953      8951      8954      8956      8953      8951      8954      8957
      8954      8957      8960      8961      8954      8957      8960      8962
      8954      8957      8960      8963      8955      8954      8957      8958
      8955      8954      8957      8959      8955      8954      8957      8960
      8956      8954      8957      8958      8956      8954      8957      8959
      8956      8954      8957      8960      8957      8960      8963      8964
      8957      8960      8963      8965      8957      8960      8963      8966
      8958      8957      8960      8961      8958      8957      8960      8962
      8958      8957      8960      8963      8959      8957      8960      8961
      8959      8957      8960      8962      8959      8957      8960      8963
      8960      8963      8966      8967      8960      8963      8966      8968
      8960      8963      8966      8969      8961      8960      8963      8964
      8961      8960      8963      8965      8961      8960      8963      8966
      8962      8960      8963      8964      8962      8960      8963      8965
      8962      8960      8963      8966      8963      8966      8969      8970
      8963      8966      8969      8971      8963      8966      8969      8972
      8964      8963      8966      8967      8964      8963      8966      8968
      8964      8963      8966      8969      8965      8963      8966      8967
      8965      8963      8966      8968      8965      8963      8966      8969
      8966      8969      8972      8973      8966      8969      8972      8974
      8966      8969      8972      8975      8967      8966      8969      8970
      8967      8966      8969      8971      8967      8966      8969      8972
      8968      8966      8969      8970      8968      8966      8969      8971
      8968      8966      8969      8972      8969      8972      8975      8976
      8969      8972      8975      8977      8969      8972      8975      8978
      8970      8969      8972      8973      8970      8969      8972      8974
      8970      8969      8972      8975      8971      8969      8972      8973
      8971      8969      8972      8974      8971      8969      8972      8975
      8973      8972      8975      8976      8973      8972      8975      8977
      8973      8972      8975      8978      8974      8972      8975      8976
      8974      8972      8975      8977      8974      8972      8975      8978
      8979      8980      8995      8996      8979      8980      8995      8997
      8979      8980      8995      9001      8980      8979      8983      8984
      8980      8979      8983      8985      8980      8979      8983      8986
      8980      8979      8987      8988      8980      8979      8987      8989
      8980      8979      8987      8990      8980      8979      8991      8992
      8980      8979      8991      8993      8980      8979      8991      8994
      8980      8995      9001      8998      8981      8980      8979      8983
      8981      8980      8979      8987      8981      8980      8979      8991
      8981      8980      8995      8996      8981      8980      8995      8997
      8981      8980      8995      9001      8982      8980      8979      8983
      8982      8980      8979      8987      8982      8980      8979      8991
      8982      8980      8995      8996      8982      8980      8995      8997
      8982      8980      8995      9001      8983      8979      8980      8995
      8983      8979      8987      8988      8983      8979      8987      8989
      8983      8979      8987      8990      8983      8979      8991      8992
      8983      8979      8991      8993      8983      8979      8991      8994
      8984      8983      8979      8987      8984      8983      8979      8991
      8985      8983      8979      8987      8985      8983      8979      8991
      8986      8983      8979      8987      8986      8983      8979      8991
      8987      8979      8980      8995      8987      8979      8991      8992
      8987      8979      8991      8993      8987      8979      8991      8994
      8988      8987      8979      8991      8989      8987      8979      8991
      8990      8987      8979      8991      8991      8979      8980      8995
      8995      9001      8998      8999      8995      9001      8998      9000
      8995      9001      8998      9002      8996      8995      9001      8998
      8997      8995      9001      8998      8998      9002      9003      9004
      8998      9002      9003      9005      8998      9002      9003      9006
      8999      8998      9002      9003      9000      8998      9002      9003
      9001      8998      9002      9003      9002      9003      9006      9007
      9002      9003      9006      9008      9002      9003      9006      9014
      9003      9006      9008      9009      9003      9006      9014      9015
      9003      9006      9014      9016      9003      9006      9014      9017
      9004      9003      9006      9007      9004      9003      9006      9008
      9004      9003      9006      9014      9005      9003      9006      9007
      9005      9003      9006      9008      9005      9003      9006      9014
      9006      9008      9009      9010      9006      9008      9009      9011
      9006      9014      9017      9018      9007      9006      9008      9009
      9007      9006      9014      9015      9007      9006      9014      9016
      9007      9006      9014      9017      9008      9006      9014      9015
      9008      9006      9014      9016      9008      9006      9014      9017
      9008      9009      9011      9012      9008      9009      9011      9013
      9008      9009      9011      9023      9009      9008      9006      9014
      9009      9011      9023      9024      9009      9011      9023      9025
      9009      9011      9023      9026      9010      9009      9011      9012
      9010      9009      9011      9013      9010      9009      9011      9023
      9011      9023      9026      9027      9011      9023      9026      9028
      9011      9023      9026      9029      9012      9011      9023      9024
      9012      9011      9023      9025      9012      9011      9023      9026
      9013      9011      9023      9024      9013      9011      9023      9025
      9013      9011      9023      9026      9014      9017      9018      9019
      9014      9017      9018      9020      9015      9014      9017      9018
      9016      9014      9017      9018      9017      9018      9020      9021
      9017      9018      9020      9022      9017      9018      9020      9070
      9018      9020      9070      9071      9018      9020      9070      9072
      9018      9020      9070      9073      9019      9018      9020      9021
      9019      9018      9020      9022      9019      9018      9020      9070
      9020      9070      9073      9074      9020      9070      9073      9075
      9020      9070      9073      9076      9021      9020      9070      9071
      9021      9020      9070      9072      9021      9020      9070      9073
      9022      9020      9070      9071      9022      9020      9070      9072
      9022      9020      9070      9073      9023      9026      9029      9030
      9023      9026      9029      9031      9023      9026      9029      9032
      9024      9023      9026      9027      9024      9023      9026      9028
      9024      9023      9026      9029      9025      9023      9026      9027
      9025      9023      9026      9028      9025      9023      9026      9029
      9026      9029      9032      9033      9026      9029      9032      9034
      9026      9029      9032      9035      9027      9026      9029      9030
      9027      9026      9029      9031      9027      9026      9029      9032
      9028      9026      9029      9030      9028      9026      9029      9031
      9028      9026      9029      9032      9029      9032      9035      9036
      9029      9032      9035      9037      9029      9032      9035      9038
      9030      9029      9032      9033      9030      9029      9032      9034
      9030      9029      9032      9035      9031      9029      9032      9033
      9031      9029      9032      9034      9031      9029      9032      9035
      9032      9035      9038      9039      9032      9035      9038      9040
      9032      9035      9038      9041      9033      9032      9035      9036
      9033      9032      9035      9037      9033      9032      9035      9038
      9034      9032      9035      9036      9034      9032      9035      9037
      9034      9032      9035      9038      9035      9038      9041      9042
      9035      9038      9041      9043      9036      9035      9038      9039
      9036      9035      9038      9040      9036      9035      9038      9041
      9037      9035      9038      9039      9037      9035      9038      9040
      9037      9035      9038      9041      9038      9041      9043      9044
      9038      9041      9043      9045      9039      9038      9041      9042
      9039      9038      9041      9043      9040      9038      9041      9042
      9040      9038      9041      9043      9041      9043      9045      9046
      9041      9043      9045      9047      9041      9043      9045      9048
      9042      9041      9043      9044      9042      9041      9043      9045
      9043      9045      9048      9049      9043      9045      9048      9050
      9043      9045      9048      9051      9044      9043      9045      9046
      9044      9043      9045      9047      9044      9043      9045      9048
      9045      9048      9051      9052      9045      9048      9051      9053
      9045      9048      9051      9054      9046      9045      9048      9049
      9046      9045      9048      9050      9046      9045      9048      9051
      9047      9045      9048      9049      9047      9045      9048      9050
      9047      9045      9048      9051      9048      9051      9054      9055
      9048      9051      9054      9056      9048      9051      9054      9057
      9049      9048      9051      9052      9049      9048      9051      9053
      9049      9048      9051      9054      9050      9048      9051      9052
      9050      9048      9051      9053      9050      9048      9051      9054
      9051      9054      9057      9058      9051      9054      9057      9059
      9051      9054      9057      9060      9052      9051      9054      9055
      9052      9051      9054      9056      9052      9051      9054      9057
      9053      9051      9054      9055      9053      9051      9054      9056
      9053      9051      9054      9057      9054      9057      9060      9061
      9054      9057      9060      9062      9054      9057      9060      9063
      9055      9054      9057      9058      9055      9054      9057      9059
      9055      9054      9057      9060      9056      9054      9057      9058
      9056      9054      9057      9059      9056      9054      9057      9060
      9057      9060      9063      9064      9057      9060      9063      9065
      9057      9060      9063      9066      9058      9057      9060      9061
      9058      9057      9060      9062      9058      9057      9060      9063
      9059      9057      9060      9061      9059      9057      9060      9062
      9059      9057      9060      9063      9060      9063      9066      9067
      9060      9063      9066      9068      9060      9063      9066      9069
      9061      9060      9063      9064      9061      9060      9063      9065
      9061      9060      9063      9066      9062      9060      9063      9064
      9062      9060      9063      9065      9062      9060      9063      9066
      9064      9063      9066      9067      9064      9063      9066      9068
      9064      9063      9066      9069      9065      9063      9066      9067
      9065      9063      9066      9068      9065      9063      9066      9069
      9070      9073      9076      9077      9070      9073      9076      9078
      9070      9073      9076      9079      9071      9070      9073      9074
      9071      9070      9073      9075      9071      9070      9073      9076
      9072      9070      9073      9074      9072      9070      9073      9075
      9072      9070      9073      9076      9073      9076      9079      9080
      9073      9076      9079      9081      9073      9076      9079      9082
      9074      9073      9076      9077      9074      9073      9076      9078
      9074      9073      9076      9079      9075      9073      9076      9077
      9075      9073      9076      9078      9075      9073      9076      9079
      9076      9079      9082      9083      9076      9079      9082      9084
      9076      9079      9082      9085      9077      9076      9079      9080
      9077      9076      9079      9081      9077      9076      9079      9082
      9078      9076      9079      9080      9078      9076      9079      9081
      9078      9076      9079      9082      9079      9082      9085      9086
      9079      9082      9085      9087      9079      9082      9085      9088
      9080      9079      9082      9083      9080      9079      9082      9084
      9080      9079      9082      9085      9081      9079      9082      9083
      9081      9079      9082      9084      9081      9079      9082      9085
      9082      9085      9088      9089      9082      9085      9088      9090
      9082      9085      9088      9091      9083      9082      9085      9086
      9083      9082      9085      9087      9083      9082      9085      9088
      9084      9082      9085      9086      9084      9082      9085      9087
      9084      9082      9085      9088      9085      9088      9091      9092
      9085      9088      9091      9093      9085      9088      9091      9094
      9086      9085      9088      9089      9086      9085      9088      9090
      9086      9085      9088      9091      9087      9085      9088      9089
      9087      9085      9088      9090      9087      9085      9088      9091
      9088      9091      9094      9095      9088      9091      9094      9096
      9088      9091      9094      9097      9089      9088      9091      9092
      9089      9088      9091      9093      9089      9088      9091      9094
      9090      9088      9091      9092      9090      9088      9091      9093
      9090      9088      9091      9094      9091      9094      9097      9098
      9091      9094      9097      9099      9091      9094      9097      9100
      9092      9091      9094      9095      9092      9091      9094      9096
      9092      9091      9094      9097      9093      9091      9094      9095
      9093      9091      9094      9096      9093      9091      9094      9097
      9094      9097      9100      9101      9094      9097      9100      9102
      9094      9097      9100      9103      9095      9094      9097      9098
      9095      9094      9097      9099      9095      9094      9097      9100
      9096      9094      9097      9098      9096      9094      9097      9099
      9096      9094      9097      9100      9097      9100      9103      9104
      9097      9100      9103      9105      9097      9100      9103      9106
      9098      9097      9100      9101      9098      9097      9100      9102
      9098      9097      9100      9103      9099      9097      9100      9101
      9099      9097      9100      9102      9099      9097      9100      9103
      9100      9103      9106      9107      9100      9103      9106      9108
      9100      9103      9106      9109      9101      9100      9103      9104
      9101      9100      9103      9105      9101      9100      9103      9106
      9102      9100      9103      9104      9102      9100      9103      9105
      9102      9100      9103      9106      9103      9106      9109      9110
      9103      9106      9109      9111      9103      9106      9109      9112
      9104      9103      9106      9107      9104      9103      9106      9108
      9104      9103      9106      9109      9105      9103      9106      9107
      9105      9103      9106      9108      9105      9103      9106      9109
      9107      9106      9109      9110      9107      9106      9109      9111
      9107      9106      9109      9112      9108      9106      9109      9110
      9108      9106      9109      9111      9108      9106      9109      9112
      9113      9114      9129      9130      9113      9114      9129      9131
      9113      9114      9129      9135      9114      9113      9117      9118
      9114      9113      9117      9119      9114      9113      9117      9120
      9114      9113      9121      9122      9114      9113      9121      9123
      9114      9113      9121      9124      9114      9113      9125      9126
      9114      9113      9125      9127      9114      9113      9125      9128
      9114      9129      9135      9132      9115      9114      9113      9117
      9115      9114      9113      9121      9115      9114      9113      9125
      9115      9114      9129      9130      9115      9114      9129      9131
      9115      9114      9129      9135      9116      9114      9113      9117
      9116      9114      9113      9121      9116      9114      9113      9125
      9116      9114      9129      9130      9116      9114      9129      9131
      9116      9114      9129      9135      9117      9113      9114      9129
      9117      9113      9121      9122      9117      9113      9121      9123
      9117      9113      9121      9124      9117      9113      9125      9126
      9117      9113      9125      9127      9117      9113      9125      9128
      9118      9117      9113      9121      9118      9117      9113      9125
      9119      9117      9113      9121      9119      9117      9113      9125
      9120      9117      9113      9121      9120      9117      9113      9125
      9121      9113      9114      9129      9121      9113      9125      9126
      9121      9113      9125      9127      9121      9113      9125      9128
      9122      9121      9113      9125      9123      9121      9113      9125
      9124      9121      9113      9125      9125      9113      9114      9129
      9129      9135      9132      9133      9129      9135      9132      9134
      9129      9135      9132      9136      9130      9129      9135      9132
      9131      9129      9135      9132      9132      9136      9137      9138
      9132      9136      9137      9139      9132      9136      9137      9140
      9133      9132      9136      9137      9134      9132      9136      9137
      9135      9132      9136      9137      9136      9137      9140      9141
      9136      9137      9140      9142      9136      9137      9140      9148
      9137      9140      9142      9143      9137      9140      9148      9149
      9137      9140      9148      9150      9137      9140      9148      9151
      9138      9137      9140      9141      9138      9137      9140      9142
      9138      9137      9140      9148      9139      9137      9140      9141
      9139      9137      9140      9142      9139      9137      9140      9148
      9140      9142      9143      9144      9140      9142      9143      9145
      9140      9148      9151      9152      9141      9140      9142      9143
      9141      9140      9148      9149      9141      9140      9148      9150
      9141      9140      9148      9151      9142      9140      9148      9149
      9142      9140      9148      9150      9142      9140      9148      9151
      9142      9143      9145      9146      9142      9143      9145      9147
      9142      9143      9145      9157      9143      9142      9140      9148
      9143      9145      9157      9158      9143      9145      9157      9159
      9143      9145      9157      9160      9144      9143      9145      9146
      9144      9143      9145      9147      9144      9143      9145      9157
      9145      9157      9160      9161      9145      9157      9160      9162
      9145      9157      9160      9163      9146      9145      9157      9158
      9146      9145      9157      9159      9146      9145      9157      9160
      9147      9145      9157      9158      9147      9145      9157      9159
      9147      9145      9157      9160      9148      9151      9152      9153
      9148      9151      9152      9154      9149      9148      9151      9152
      9150      9148      9151      9152      9151      9152      9154      9155
      9151      9152      9154      9156      9151      9152      9154      9204
      9152      9154      9204      9205      9152      9154      9204      9206
      9152      9154      9204      9207      9153      9152      9154      9155
      9153      9152      9154      9156      9153      9152      9154      9204
      9154      9204      9207      9208      9154      9204      9207      9209
      9154      9204      9207      9210      9155      9154      9204      9205
      9155      9154      9204      9206      9155      9154      9204      9207
      9156      9154      9204      9205      9156      9154      9204      9206
      9156      9154      9204      9207      9157      9160      9163      9164
      9157      9160      9163      9165      9157      9160      9163      9166
      9158      9157      9160      9161      9158      9157      9160      9162
      9158      9157      9160      9163      9159      9157      9160      9161
      9159      9157      9160      9162      9159      9157      9160      9163
      9160      9163      9166      9167      9160      9163      9166      9168
      9160      9163      9166      9169      9161      9160      9163      9164
      9161      9160      9163      9165      9161      9160      9163      9166
      9162      9160      9163      9164      9162      9160      9163      9165
      9162      9160      9163      9166      9163      9166      9169      9170
      9163      9166      9169      9171      9163      9166      9169      9172
      9164      9163      9166      9167      9164      9163      9166      9168
      9164      9163      9166      9169      9165      9163      9166      9167
      9165      9163      9166      9168      9165      9163      9166      9169
      9166      9169      9172      9173      9166      9169      9172      9174
      9166      9169      9172      9175      9167      9166      9169      9170
      9167      9166      9169      9171      9167      9166      9169      9172
      9168      9166      9169      9170      9168      9166      9169      9171
      9168      9166      9169      9172      9169      9172      9175      9176
      9169      9172      9175      9177      9170      9169      9172      9173
      9170      9169      9172      9174      9170      9169      9172      9175
      9171      9169      9172      9173      9171      9169      9172      9174
      9171      9169      9172      9175      9172      9175      9177      9178
      9172      9175      9177      9179      9173      9172      9175      9176
      9173      9172      9175      9177      9174      9172      9175      9176
      9174      9172      9175      9177      9175      9177      9179      9180
      9175      9177      9179      9181      9175      9177      9179      9182
      9176      9175      9177      9178      9176      9175      9177      9179
      9177      9179      9182      9183      9177      9179      9182      9184
      9177      9179      9182      9185      9178      9177      9179      9180
      9178      9177      9179      9181      9178      9177      9179      9182
      9179      9182      9185      9186      9179      9182      9185      9187
      9179      9182      9185      9188      9180      9179      9182      9183
      9180      9179      9182      9184      9180      9179      9182      9185
      9181      9179      9182      9183      9181      9179      9182      9184
      9181      9179      9182      9185      9182      9185      9188      9189
      9182      9185      9188      9190      9182      9185      9188      9191
      9183      9182      9185      9186      9183      9182      9185      9187
      9183      9182      9185      9188      9184      9182      9185      9186
      9184      9182      9185      9187      9184      9182      9185      9188
      9185      9188      9191      9192      9185      9188      9191      9193
      9185      9188      9191      9194      9186      9185      9188      9189
      9186      9185      9188      9190      9186      9185      9188      9191
      9187      9185      9188      9189      9187      9185      9188      9190
      9187      9185      9188      9191      9188      9191      9194      9195
      9188      9191      9194      9196      9188      9191      9194      9197
      9189      9188      9191      9192      9189      9188      9191      9193
      9189      9188      9191      9194      9190      9188      9191      9192
      9190      9188      9191      9193      9190      9188      9191      9194
      9191      9194      9197      9198      9191      9194      9197      9199
      9191      9194      9197      9200      9192      9191      9194      9195
      9192      9191      9194      9196      9192      9191      9194      9197
      9193      9191      9194      9195      9193      9191      9194      9196
      9193      9191      9194      9197      9194      9197      9200      9201
      9194      9197      9200      9202      9194      9197      9200      9203
      9195      9194      9197      9198      9195      9194      9197      9199
      9195      9194      9197      9200      9196      9194      9197      9198
      9196      9194      9197      9199      9196      9194      9197      9200
      9198      9197      9200      9201      9198      9197      9200      9202
      9198      9197      9200      9203      9199      9197      9200      9201
      9199      9197      9200      9202      9199      9197      9200      9203
      9204      9207      9210      9211      9204      9207      9210      9212
      9204      9207      9210      9213      9205      9204      9207      9208
      9205      9204      9207      9209      9205      9204      9207      9210
      9206      9204      9207      9208      9206      9204      9207      9209
      9206      9204      9207      9210      9207      9210      9213      9214
      9207      9210      9213      9215      9207      9210      9213      9216
      9208      9207      9210      9211      9208      9207      9210      9212
      9208      9207      9210      9213      9209      9207      9210      9211
      9209      9207      9210      9212      9209      9207      9210      9213
      9210      9213      9216      9217      9210      9213      9216      9218
      9210      9213      9216      9219      9211      9210      9213      9214
      9211      9210      9213      9215      9211      9210      9213      9216
      9212      9210      9213      9214      9212      9210      9213      9215
      9212      9210      9213      9216      9213      9216      9219      9220
      9213      9216      9219      9221      9213      9216      9219      9222
      9214      9213      9216      9217      9214      9213      9216      9218
      9214      9213      9216      9219      9215      9213      9216      9217
      9215      9213      9216      9218      9215      9213      9216      9219
      9216      9219      9222      9223      9216      9219      9222      9224
      9216      9219      9222      9225      9217      9216      9219      9220
      9217      9216      9219      9221      9217      9216      9219      9222
      9218      9216      9219      9220      9218      9216      9219      9221
      9218      9216      9219      9222      9219      9222      9225      9226
      9219      9222      9225      9227      9219      9222      9225      9228
      9220      9219      9222      9223      9220      9219      9222      9224
      9220      9219      9222      9225      9221      9219      9222      9223
      9221      9219      9222      9224      9221      9219      9222      9225
      9222      9225      9228      9229      9222      9225      9228      9230
      9222      9225      9228      9231      9223      9222      9225      9226
      9223      9222      9225      9227      9223      9222      9225      9228
      9224      9222      9225      9226      9224      9222      9225      9227
      9224      9222      9225      9228      9225      9228      9231      9232
      9225      9228      9231      9233      9225      9228      9231      9234
      9226      9225      9228      9229      9226      9225      9228      9230
      9226      9225      9228      9231      9227      9225      9228      9229
      9227      9225      9228      9230      9227      9225      9228      9231
      9228      9231      9234      9235      9228      9231      9234      9236
      9228      9231      9234      9237      9229      9228      9231      9232
      9229      9228      9231      9233      9229      9228      9231      9234
      9230      9228      9231      9232      9230      9228      9231      9233
      9230      9228      9231      9234      9231      9234      9237      9238
      9231      9234      9237      9239      9231      9234      9237      9240
      9232      9231      9234      9235      9232      9231      9234      9236
      9232      9231      9234      9237      9233      9231      9234      9235
      9233      9231      9234      9236      9233      9231      9234      9237
      9234      9237      9240      9241      9234      9237      9240      9242
      9234      9237      9240      9243      9235      9234      9237      9238
      9235      9234      9237      9239      9235      9234      9237      9240
      9236      9234      9237      9238      9236      9234      9237      9239
      9236      9234      9237      9240      9237      9240      9243      9244
      9237      9240      9243      9245      9237      9240      9243      9246
      9238      9237      9240      9241      9238      9237      9240      9242
      9238      9237      9240      9243      9239      9237      9240      9241
      9239      9237      9240      9242      9239      9237      9240      9243
      9241      9240      9243      9244      9241      9240      9243      9245
      9241      9240      9243      9246      9242      9240      9243      9244
      9242      9240      9243      9245      9242      9240      9243      9246
      9247      9248      9263      9264      9247      9248      9263      9265
      9247      9248      9263      9269      9248      9247      9251      9252
      9248      9247      9251      9253      9248      9247      9251      9254
      9248      9247      9255      9256      9248      9247      9255      9257
      9248      9247      9255      9258      9248      9247      9259      9260
      9248      9247      9259      9261      9248      9247      9259      9262
      9248      9263      9269      9266      9249      9248      9247      9251
      9249      9248      9247      9255      9249      9248      9247      9259
      9249      9248      9263      9264      9249      9248      9263      9265
      9249      9248      9263      9269      9250      9248      9247      9251
      9250      9248      9247      9255      9250      9248      9247      9259
      9250      9248      9263      9264      9250      9248      9263      9265
      9250      9248      9263      9269      9251      9247      9248      9263
      9251      9247      9255      9256      9251      9247      9255      9257
      9251      9247      9255      9258      9251      9247      9259      9260
      9251      9247      9259      9261      9251      9247      9259      9262
      9252      9251      9247      9255      9252      9251      9247      9259
      9253      9251      9247      9255      9253      9251      9247      9259
      9254      9251      9247      9255      9254      9251      9247      9259
      9255      9247      9248      9263      9255      9247      9259      9260
      9255      9247      9259      9261      9255      9247      9259      9262
      9256      9255      9247      9259      9257      9255      9247      9259
      9258      9255      9247      9259      9259      9247      9248      9263
      9263      9269      9266      9267      9263      9269      9266      9268
      9263      9269      9266      9270      9264      9263      9269      9266
      9265      9263      9269      9266      9266      9270      9271      9272
      9266      9270      9271      9273      9266      9270      9271      9274
      9267      9266      9270      9271      9268      9266      9270      9271
      9269      9266      9270      9271      9270      9271      9274      9275
      9270      9271      9274      9276      9270      9271      9274      9282
      9271      9274      9276      9277      9271      9274      9282      9283
      9271      9274      9282      9284      9271      9274      9282      9285
      9272      9271      9274      9275      9272      9271      9274      9276
      9272      9271      9274      9282      9273      9271      9274      9275
      9273      9271      9274      9276      9273      9271      9274      9282
      9274      9276      9277      9278      9274      9276      9277      9279
      9274      9282      9285      9286      9275      9274      9276      9277
      9275      9274      9282      9283      9275      9274      9282      9284
      9275      9274      9282      9285      9276      9274      9282      9283
      9276      9274      9282      9284      9276      9274      9282      9285
      9276      9277      9279      9280      9276      9277      9279      9281
      9276      9277      9279      9291      9277      9276      9274      9282
      9277      9279      9291      9292      9277      9279      9291      9293
      9277      9279      9291      9294      9278      9277      9279      9280
      9278      9277      9279      9281      9278      9277      9279      9291
      9279      9291      9294      9295      9279      9291      9294      9296
      9279      9291      9294      9297      9280      9279      9291      9292
      9280      9279      9291      9293      9280      9279      9291      9294
      9281      9279      9291      9292      9281      9279      9291      9293
      9281      9279      9291      9294      9282      9285      9286      9287
      9282      9285      9286      9288      9283      9282      9285      9286
      9284      9282      9285      9286      9285      9286      9288      9289
      9285      9286      9288      9290      9285      9286      9288      9338
      9286      9288      9338      9339      9286      9288      9338      9340
      9286      9288      9338      9341      9287      9286      9288      9289
      9287      9286      9288      9290      9287      9286      9288      9338
      9288      9338      9341      9342      9288      9338      9341      9343
      9288      9338      9341      9344      9289      9288      9338      9339
      9289      9288      9338      9340      9289      9288      9338      9341
      9290      9288      9338      9339      9290      9288      9338      9340
      9290      9288      9338      9341      9291      9294      9297      9298
      9291      9294      9297      9299      9291      9294      9297      9300
      9292      9291      9294      9295      9292      9291      9294      9296
      9292      9291      9294      9297      9293      9291      9294      9295
      9293      9291      9294      9296      9293      9291      9294      9297
      9294      9297      9300      9301      9294      9297      9300      9302
      9294      9297      9300      9303      9295      9294      9297      9298
      9295      9294      9297      9299      9295      9294      9297      9300
      9296      9294      9297      9298      9296      9294      9297      9299
      9296      9294      9297      9300      9297      9300      9303      9304
      9297      9300      9303      9305      9297      9300      9303      9306
      9298      9297      9300      9301      9298      9297      9300      9302
      9298      9297      9300      9303      9299      9297      9300      9301
      9299      9297      9300      9302      9299      9297      9300      9303
      9300      9303      9306      9307      9300      9303      9306      9308
      9300      9303      9306      9309      9301      9300      9303      9304
      9301      9300      9303      9305      9301      9300      9303      9306
      9302      9300      9303      9304      9302      9300      9303      9305
      9302      9300      9303      9306      9303      9306      9309      9310
      9303      9306      9309      9311      9304      9303      9306      9307
      9304      9303      9306      9308      9304      9303      9306      9309
      9305      9303      9306      9307      9305      9303      9306      9308
      9305      9303      9306      9309      9306      9309      9311      9312
      9306      9309      9311      9313      9307      9306      9309      9310
      9307      9306      9309      9311      9308      9306      9309      9310
      9308      9306      9309      9311      9309      9311      9313      9314
      9309      9311      9313      9315      9309      9311      9313      9316
      9310      9309      9311      9312      9310      9309      9311      9313
      9311      9313      9316      9317      9311      9313      9316      9318
      9311      9313      9316      9319      9312      9311      9313      9314
      9312      9311      9313      9315      9312      9311      9313      9316
      9313      9316      9319      9320      9313      9316      9319      9321
      9313      9316      9319      9322      9314      9313      9316      9317
      9314      9313      9316      9318      9314      9313      9316      9319
      9315      9313      9316      9317      9315      9313      9316      9318
      9315      9313      9316      9319      9316      9319      9322      9323
      9316      9319      9322      9324      9316      9319      9322      9325
      9317      9316      9319      9320      9317      9316      9319      9321
      9317      9316      9319      9322      9318      9316      9319      9320
      9318      9316      9319      9321      9318      9316      9319      9322
      9319      9322      9325      9326      9319      9322      9325      9327
      9319      9322      9325      9328      9320      9319      9322      9323
      9320      9319      9322      9324      9320      9319      9322      9325
      9321      9319      9322      9323      9321      9319      9322      9324
      9321      9319      9322      9325      9322      9325      9328      9329
      9322      9325      9328      9330      9322      9325      9328      9331
      9323      9322      9325      9326      9323      9322      9325      9327
      9323      9322      9325      9328      9324      9322      9325      9326
      9324      9322      9325      9327      9324      9322      9325      9328
      9325      9328      9331      9332      9325      9328      9331      9333
      9325      9328      9331      9334      9326      9325      9328      9329
      9326      9325      9328      9330      9326      9325      9328      9331
      9327      9325      9328      9329      9327      9325      9328      9330
      9327      9325      9328      9331      9328      9331      9334      9335
      9328      9331      9334      9336      9328      9331      9334      9337
      9329      9328      9331      9332      9329      9328      9331      9333
      9329      9328      9331      9334      9330      9328      9331      9332
      9330      9328      9331      9333      9330      9328      9331      9334
      9332      9331      9334      9335      9332      9331      9334      9336
      9332      9331      9334      9337      9333      9331      9334      9335
      9333      9331      9334      9336      9333      9331      9334      9337
      9338      9341      9344      9345      9338      9341      9344      9346
      9338      9341      9344      9347      9339      9338      9341      9342
      9339      9338      9341      9343      9339      9338      9341      9344
      9340      9338      9341      9342      9340      9338      9341      9343
      9340      9338      9341      9344      9341      9344      9347      9348
      9341      9344      9347      9349      9341      9344      9347      9350
      9342      9341      9344      9345      9342      9341      9344      9346
      9342      9341      9344      9347      9343      9341      9344      9345
      9343      9341      9344      9346      9343      9341      9344      9347
      9344      9347      9350      9351      9344      9347      9350      9352
      9344      9347      9350      9353      9345      9344      9347      9348
      9345      9344      9347      9349      9345      9344      9347      9350
      9346      9344      9347      9348      9346      9344      9347      9349
      9346      9344      9347      9350      9347      9350      9353      9354
      9347      9350      9353      9355      9347      9350      9353      9356
      9348      9347      9350      9351      9348      9347      9350      9352
      9348      9347      9350      9353      9349      9347      9350      9351
      9349      9347      9350      9352      9349      9347      9350      9353
      9350      9353      9356      9357      9350      9353      9356      9358
      9350      9353      9356      9359      9351      9350      9353      9354
      9351      9350      9353      9355      9351      9350      9353      9356
      9352      9350      9353      9354      9352      9350      9353      9355
      9352      9350      9353      9356      9353      9356      9359      9360
      9353      9356      9359      9361      9353      9356      9359      9362
      9354      9353      9356      9357      9354      9353      9356      9358
      9354      9353      9356      9359      9355      9353      9356      9357
      9355      9353      9356      9358      9355      9353      9356      9359
      9356      9359      9362      9363      9356      9359      9362      9364
      9356      9359      9362      9365      9357      9356      9359      9360
      9357      9356      9359      9361      9357      9356      9359      9362
      9358      9356      9359      9360      9358      9356      9359      9361
      9358      9356      9359      9362      9359      9362      9365      9366
      9359      9362      9365      9367      9359      9362      9365      9368
      9360      9359      9362      9363      9360      9359      9362      9364
      9360      9359      9362      9365      9361      9359      9362      9363
      9361      9359      9362      9364      9361      9359      9362      9365
      9362      9365      9368      9369      9362      9365      9368      9370
      9362      9365      9368      9371      9363      9362      9365      9366
      9363      9362      9365      9367      9363      9362      9365      9368
      9364      9362      9365      9366      9364      9362      9365      9367
      9364      9362      9365      9368      9365      9368      9371      9372
      9365      9368      9371      9373      9365      9368      9371      9374
      9366      9365      9368      9369      9366      9365      9368      9370
      9366      9365      9368      9371      9367      9365      9368      9369
      9367      9365      9368      9370      9367      9365      9368      9371
      9368      9371      9374      9375      9368      9371      9374      9376
      9368      9371      9374      9377      9369      9368      9371      9372
      9369      9368      9371      9373      9369      9368      9371      9374
      9370      9368      9371      9372      9370      9368      9371      9373
      9370      9368      9371      9374      9371      9374      9377      9378
      9371      9374      9377      9379      9371      9374      9377      9380
      9372      9371      9374      9375      9372      9371      9374      9376
      9372      9371      9374      9377      9373      9371      9374      9375
      9373      9371      9374      9376      9373      9371      9374      9377
      9375      9374      9377      9378      9375      9374      9377      9379
      9375      9374      9377      9380      9376      9374      9377      9378
      9376      9374      9377      9379      9376      9374      9377      9380
      9381      9382      9397      9398      9381      9382      9397      9399
      9381      9382      9397      9403      9382      9381      9385      9386
      9382      9381      9385      9387      9382      9381      9385      9388
      9382      9381      9389      9390      9382      9381      9389      9391
      9382      9381      9389      9392      9382      9381      9393      9394
      9382      9381      9393      9395      9382      9381      9393      9396
      9382      9397      9403      9400      9383      9382      9381      9385
      9383      9382      9381      9389      9383      9382      9381      9393
      9383      9382      9397      9398      9383      9382      9397      9399
      9383      9382      9397      9403      9384      9382      9381      9385
      9384      9382      9381      9389      9384      9382      9381      9393
      9384      9382      9397      9398      9384      9382      9397      9399
      9384      9382      9397      9403      9385      9381      9382      9397
      9385      9381      9389      9390      9385      9381      9389      9391
      9385      9381      9389      9392      9385      9381      9393      9394
      9385      9381      9393      9395      9385      9381      9393      9396
      9386      9385      9381      9389      9386      9385      9381      9393
      9387      9385      9381      9389      9387      9385      9381      9393
      9388      9385      9381      9389      9388      9385      9381      9393
      9389      9381      9382      9397      9389      9381      9393      9394
      9389      9381      9393      9395      9389      9381      9393      9396
      9390      9389      9381      9393      9391      9389      9381      9393
      9392      9389      9381      9393      9393      9381      9382      9397
      9397      9403      9400      9401      9397      9403      9400      9402
      9397      9403      9400      9404      9398      9397      9403      9400
      9399      9397      9403      9400      9400      9404      9405      9406
      9400      9404      9405      9407      9400      9404      9405      9408
      9401      9400      9404      9405      9402      9400      9404      9405
      9403      9400      9404      9405      9404      9405      9408      9409
      9404      9405      9408      9410      9404      9405      9408      9416
      9405      9408      9410      9411      9405      9408      9416      9417
      9405      9408      9416      9418      9405      9408      9416      9419
      9406      9405      9408      9409      9406      9405      9408      9410
      9406      9405      9408      9416      9407      9405      9408      9409
      9407      9405      9408      9410      9407      9405      9408      9416
      9408      9410      9411      9412      9408      9410      9411      9413
      9408      9416      9419      9420      9409      9408      9410      9411
      9409      9408      9416      9417      9409      9408      9416      9418
      9409      9408      9416      9419      9410      9408      9416      9417
      9410      9408      9416      9418      9410      9408      9416      9419
      9410      9411      9413      9414      9410      9411      9413      9415
      9410      9411      9413      9425      9411      9410      9408      9416
      9411      9413      9425      9426      9411      9413      9425      9427
      9411      9413      9425      9428      9412      9411      9413      9414
      9412      9411      9413      9415      9412      9411      9413      9425
      9413      9425      9428      9429      9413      9425      9428      9430
      9413      9425      9428      9431      9414      9413      9425      9426
      9414      9413      9425      9427      9414      9413      9425      9428
      9415      9413      9425      9426      9415      9413      9425      9427
      9415      9413      9425      9428      9416      9419      9420      9421
      9416      9419      9420      9422      9417      9416      9419      9420
      9418      9416      9419      9420      9419      9420      9422      9423
      9419      9420      9422      9424      9419      9420      9422      9472
      9420      9422      9472      9473      9420      9422      9472      9474
      9420      9422      9472      9475      9421      9420      9422      9423
      9421      9420      9422      9424      9421      9420      9422      9472
      9422      9472      9475      9476      9422      9472      9475      9477
      9422      9472      9475      9478      9423      9422      9472      9473
      9423      9422      9472      9474      9423      9422      9472      9475
      9424      9422      9472      9473      9424      9422      9472      9474
      9424      9422      9472      9475      9425      9428      9431      9432
      9425      9428      9431      9433      9425      9428      9431      9434
      9426      9425      9428      9429      9426      9425      9428      9430
      9426      9425      9428      9431      9427      9425      9428      9429
      9427      9425      9428      9430      9427      9425      9428      9431
      9428      9431      9434      9435      9428      9431      9434      9436
      9428      9431      9434      9437      9429      9428      9431      9432
      9429      9428      9431      9433      9429      9428      9431      9434
      9430      9428      9431      9432      9430      9428      9431      9433
      9430      9428      9431      9434      9431      9434      9437      9438
      9431      9434      9437      9439      9431      9434      9437      9440
      9432      9431      9434      9435      9432      9431      9434      9436
      9432      9431      9434      9437      9433      9431      9434      9435
      9433      9431      9434      9436      9433      9431      9434      9437
      9434      9437      9440      9441      9434      9437      9440      9442
      9434      9437      9440      9443      9435      9434      9437      9438
      9435      9434      9437      9439      9435      9434      9437      9440
      9436      9434      9437      9438      9436      9434      9437      9439
      9436      9434      9437      9440      9437      9440      9443      9444
      9437      9440      9443      9445      9438      9437      9440      9441
      9438      9437      9440      9442      9438      9437      9440      9443
      9439      9437      9440      9441      9439      9437      9440      9442
      9439      9437      9440      9443      9440      9443      9445      9446
      9440      9443      9445      9447      9441      9440      9443      9444
      9441      9440      9443      9445      9442      9440      9443      9444
      9442      9440      9443      9445      9443      9445      9447      9448
      9443      9445      9447      9449      9443      9445      9447      9450
      9444      9443      9445      9446      9444      9443      9445      9447
      9445      9447      9450      9451      9445      9447      9450      9452
      9445      9447      9450      9453      9446      9445      9447      9448
      9446      9445      9447      9449      9446      9445      9447      9450
      9447      9450      9453      9454      9447      9450      9453      9455
      9447      9450      9453      9456      9448      9447      9450      9451
      9448      9447      9450      9452      9448      9447      9450      9453
      9449      9447      9450      9451      9449      9447      9450      9452
      9449      9447      9450      9453      9450      9453      9456      9457
      9450      9453      9456      9458      9450      9453      9456      9459
      9451      9450      9453      9454      9451      9450      9453      9455
      9451      9450      9453      9456      9452      9450      9453      9454
      9452      9450      9453      9455      9452      9450      9453      9456
      9453      9456      9459      9460      9453      9456      9459      9461
      9453      9456      9459      9462      9454      9453      9456      9457
      9454      9453      9456      9458      9454      9453      9456      9459
      9455      9453      9456      9457      9455      9453      9456      9458
      9455      9453      9456      9459      9456      9459      9462      9463
      9456      9459      9462      9464      9456      9459      9462      9465
      9457      9456      9459      9460      9457      9456      9459      9461
      9457      9456      9459      9462      9458      9456      9459      9460
      9458      9456      9459      9461      9458      9456      9459      9462
      9459      9462      9465      9466      9459      9462      9465      9467
      9459      9462      9465      9468      9460      9459      9462      9463
      9460      9459      9462      9464      9460      9459      9462      9465
      9461      9459      9462      9463      9461      9459      9462      9464
      9461      9459      9462      9465      9462      9465      9468      9469
      9462      9465      9468      9470      9462      9465      9468      9471
      9463      9462      9465      9466      9463      9462      9465      9467
      9463      9462      9465      9468      9464      9462      9465      9466
      9464      9462      9465      9467      9464      9462      9465      9468
      9466      9465      9468      9469      9466      9465      9468      9470
      9466      9465      9468      9471      9467      9465      9468      9469
      9467      9465      9468      9470      9467      9465      9468      9471
      9472      9475      9478      9479      9472      9475      9478      9480
      9472      9475      9478      9481      9473      9472      9475      9476
      9473      9472      9475      9477      9473      9472      9475      9478
      9474      9472      9475      9476      9474      9472      9475      9477
      9474      9472      9475      9478      9475      9478      9481      9482
      9475      9478      9481      9483      9475      9478      9481      9484
      9476      9475      9478      9479      9476      9475      9478      9480
      9476      9475      9478      9481      9477      9475      9478      9479
      9477      9475      9478      9480      9477      9475      9478      9481
      9478      9481      9484      9485      9478      9481      9484      9486
      9478      9481      9484      9487      9479      9478      9481      9482
      9479      9478      9481      9483      9479      9478      9481      9484
      9480      9478      9481      9482      9480      9478      9481      9483
      9480      9478      9481      9484      9481      9484      9487      9488
      9481      9484      9487      9489      9481      9484      9487      9490
      9482      9481      9484      9485      9482      9481      9484      9486
      9482      9481      9484      9487      9483      9481      9484      9485
      9483      9481      9484      9486      9483      9481      9484      9487
      9484      9487      9490      9491      9484      9487      9490      9492
      9484      9487      9490      9493      9485      9484      9487      9488
      9485      9484      9487      9489      9485      9484      9487      9490
      9486      9484      9487      9488      9486      9484      9487      9489
      9486      9484      9487      9490      9487      9490      9493      9494
      9487      9490      9493      9495      9487      9490      9493      9496
      9488      9487      9490      9491      9488      9487      9490      9492
      9488      9487      9490      9493      9489      9487      9490      9491
      9489      9487      9490      9492      9489      9487      9490      9493
      9490      9493      9496      9497      9490      9493      9496      9498
      9490      9493      9496      9499      9491      9490      9493      9494
      9491      9490      9493      9495      9491      9490      9493      9496
      9492      9490      9493      9494      9492      9490      9493      9495
      9492      9490      9493      9496      9493      9496      9499      9500
      9493      9496      9499      9501      9493      9496      9499      9502
      9494      9493      9496      9497      9494      9493      9496      9498
      9494      9493      9496      9499      9495      9493      9496      9497
      9495      9493      9496      9498      9495      9493      9496      9499
      9496      9499      9502      9503      9496      9499      9502      9504
      9496      9499      9502      9505      9497      9496      9499      9500
      9497      9496      9499      9501      9497      9496      9499      9502
      9498      9496      9499      9500      9498      9496      9499      9501
      9498      9496      9499      9502      9499      9502      9505      9506
      9499      9502      9505      9507      9499      9502      9505      9508
      9500      9499      9502      9503      9500      9499      9502      9504
      9500      9499      9502      9505      9501      9499      9502      9503
      9501      9499      9502      9504      9501      9499      9502      9505
      9502      9505      9508      9509      9502      9505      9508      9510
      9502      9505      9508      9511      9503      9502      9505      9506
      9503      9502      9505      9507      9503      9502      9505      9508
      9504      9502      9505      9506      9504      9502      9505      9507
      9504      9502      9505      9508      9505      9508      9511      9512
      9505      9508      9511      9513      9505      9508      9511      9514
      9506      9505      9508      9509      9506      9505      9508      9510
      9506      9505      9508      9511      9507      9505      9508      9509
      9507      9505      9508      9510      9507      9505      9508      9511
      9509      9508      9511      9512      9509      9508      9511      9513
      9509      9508      9511      9514      9510      9508      9511      9512
      9510      9508      9511      9513      9510      9508      9511      9514
      9515      9516      9531      9532      9515      9516      9531      9533
      9515      9516      9531      9537      9516      9515      9519      9520
      9516      9515      9519      9521      9516      9515      9519      9522
      9516      9515      9523      9524      9516      9515      9523      9525
      9516      9515      9523      9526      9516      9515      9527      9528
      9516      9515      9527      9529      9516      9515      9527      9530
      9516      9531      9537      9534      9517      9516      9515      9519
      9517      9516      9515      9523      9517      9516      9515      9527
      9517      9516      9531      9532      9517      9516      9531      9533
      9517      9516      9531      9537      9518      9516      9515      9519
      9518      9516      9515      9523      9518      9516      9515      9527
      9518      9516      9531      9532      9518      9516      9531      9533
      9518      9516      9531      9537      9519      9515      9516      9531
      9519      9515      9523      9524      9519      9515      9523      9525
      9519      9515      9523      9526      9519      9515      9527      9528
      9519      9515      9527      9529      9519      9515      9527      9530
      9520      9519      9515      9523      9520      9519      9515      9527
      9521      9519      9515      9523      9521      9519      9515      9527
      9522      9519      9515      9523      9522      9519      9515      9527
      9523      9515      9516      9531      9523      9515      9527      9528
      9523      9515      9527      9529      9523      9515      9527      9530
      9524      9523      9515      9527      9525      9523      9515      9527
      9526      9523      9515      9527      9527      9515      9516      9531
      9531      9537      9534      9535      9531      9537      9534      9536
      9531      9537      9534      9538      9532      9531      9537      9534
      9533      9531      9537      9534      9534      9538      9539      9540
      9534      9538      9539      9541      9534      9538      9539      9542
      9535      9534      9538      9539      9536      9534      9538      9539
      9537      9534      9538      9539      9538      9539      9542      9543
      9538      9539      9542      9544      9538      9539      9542      9550
      9539      9542      9544      9545      9539      9542      9550      9551
      9539      9542      9550      9552      9539      9542      9550      9553
      9540      9539      9542      9543      9540      9539      9542      9544
      9540      9539      9542      9550      9541      9539      9542      9543
      9541      9539      9542      9544      9541      9539      9542      9550
      9542      9544      9545      9546      9542      9544      9545      9547
      9542      9550      9553      9554      9543      9542      9544      9545
      9543      9542      9550      9551      9543      9542      9550      9552
      9543      9542      9550      9553      9544      9542      9550      9551
      9544      9542      9550      9552      9544      9542      9550      9553
      9544      9545      9547      9548      9544      9545      9547      9549
      9544      9545      9547      9559      9545      9544      9542      9550
      9545      9547      9559      9560      9545      9547      9559      9561
      9545      9547      9559      9562      9546      9545      9547      9548
      9546      9545      9547      9549      9546      9545      9547      9559
      9547      9559      9562      9563      9547      9559      9562      9564
      9547      9559      9562      9565      9548      9547      9559      9560
      9548      9547      9559      9561      9548      9547      9559      9562
      9549      9547      9559      9560      9549      9547      9559      9561
      9549      9547      9559      9562      9550      9553      9554      9555
      9550      9553      9554      9556      9551      9550      9553      9554
      9552      9550      9553      9554      9553      9554      9556      9557
      9553      9554      9556      9558      9553      9554      9556      9606
      9554      9556      9606      9607      9554      9556      9606      9608
      9554      9556      9606      9609      9555      9554      9556      9557
      9555      9554      9556      9558      9555      9554      9556      9606
      9556      9606      9609      9610      9556      9606      9609      9611
      9556      9606      9609      9612      9557      9556      9606      9607
      9557      9556      9606      9608      9557      9556      9606      9609
      9558      9556      9606      9607      9558      9556      9606      9608
      9558      9556      9606      9609      9559      9562      9565      9566
      9559      9562      9565      9567      9559      9562      9565      9568
      9560      9559      9562      9563      9560      9559      9562      9564
      9560      9559      9562      9565      9561      9559      9562      9563
      9561      9559      9562      9564      9561      9559      9562      9565
      9562      9565      9568      9569      9562      9565      9568      9570
      9562      9565      9568      9571      9563      9562      9565      9566
      9563      9562      9565      9567      9563      9562      9565      9568
      9564      9562      9565      9566      9564      9562      9565      9567
      9564      9562      9565      9568      9565      9568      9571      9572
      9565      9568      9571      9573      9565      9568      9571      9574
      9566      9565      9568      9569      9566      9565      9568      9570
      9566      9565      9568      9571      9567      9565      9568      9569
      9567      9565      9568      9570      9567      9565      9568      9571
      9568      9571      9574      9575      9568      9571      9574      9576
      9568      9571      9574      9577      9569      9568      9571      9572
      9569      9568      9571      9573      9569      9568      9571      9574
      9570      9568      9571      9572      9570      9568      9571      9573
      9570      9568      9571      9574      9571      9574      9577      9578
      9571      9574      9577      9579      9572      9571      9574      9575
      9572      9571      9574      9576      9572      9571      9574      9577
      9573      9571      9574      9575      9573      9571      9574      9576
      9573      9571      9574      9577      9574      9577      9579      9580
      9574      9577      9579      9581      9575      9574      9577      9578
      9575      9574      9577      9579      9576      9574      9577      9578
      9576      9574      9577      9579      9577      9579      9581      9582
      9577      9579      9581      9583      9577      9579      9581      9584
      9578      9577      9579      9580      9578      9577      9579      9581
      9579      9581      9584      9585      9579      9581      9584      9586
      9579      9581      9584      9587      9580      9579      9581      9582
      9580      9579      9581      9583      9580      9579      9581      9584
      9581      9584      9587      9588      9581      9584      9587      9589
      9581      9584      9587      9590      9582      9581      9584      9585
      9582      9581      9584      9586      9582      9581      9584      9587
      9583      9581      9584      9585      9583      9581      9584      9586
      9583      9581      9584      9587      9584      9587      9590      9591
      9584      9587      9590      9592      9584      9587      9590      9593
      9585      9584      9587      9588      9585      9584      9587      9589
      9585      9584      9587      9590      9586      9584      9587      9588
      9586      9584      9587      9589      9586      9584      9587      9590
      9587      9590      9593      9594      9587      9590      9593      9595
      9587      9590      9593      9596      9588      9587      9590      9591
      9588      9587      9590      9592      9588      9587      9590      9593
      9589      9587      9590      9591      9589      9587      9590      9592
      9589      9587      9590      9593      9590      9593      9596      9597
      9590      9593      9596      9598      9590      9593      9596      9599
      9591      9590      9593      9594      9591      9590      9593      9595
      9591      9590      9593      9596      9592      9590      9593      9594
      9592      9590      9593      9595      9592      9590      9593      9596
      9593      9596      9599      9600      9593      9596      9599      9601
      9593      9596      9599      9602      9594      9593      9596      9597
      9594      9593      9596      9598      9594      9593      9596      9599
      9595      9593      9596      9597      9595      9593      9596      9598
      9595      9593      9596      9599      9596      9599      9602      9603
      9596      9599      9602      9604      9596      9599      9602      9605
      9597      9596      9599      9600      9597      9596      9599      9601
      9597      9596      9599      9602      9598      9596      9599      9600
      9598      9596      9599      9601      9598      9596      9599      9602
      9600      9599      9602      9603      9600      9599      9602      9604
      9600      9599      9602      9605      9601      9599      9602      9603
      9601      9599      9602      9604      9601      9599      9602      9605
      9606      9609      9612      9613      9606      9609      9612      9614
      9606      9609      9612      9615      9607      9606      9609      9610
      9607      9606      9609      9611      9607      9606      9609      9612
      9608      9606      9609      9610      9608      9606      9609      9611
      9608      9606      9609      9612      9609      9612      9615      9616
      9609      9612      9615      9617      9609      9612      9615      9618
      9610      9609      9612      9613      9610      9609      9612      9614
      9610      9609      9612      9615      9611      9609      9612      9613
      9611      9609      9612      9614      9611      9609      9612      9615
      9612      9615      9618      9619      9612      9615      9618      9620
      9612      9615      9618      9621      9613      9612      9615      9616
      9613      9612      9615      9617      9613      9612      9615      9618
      9614      9612      9615      9616      9614      9612      9615      9617
      9614      9612      9615      9618      9615      9618      9621      9622
      9615      9618      9621      9623      9615      9618      9621      9624
      9616      9615      9618      9619      9616      9615      9618      9620
      9616      9615      9618      9621      9617      9615      9618      9619
      9617      9615      9618      9620      9617      9615      9618      9621
      9618      9621      9624      9625      9618      9621      9624      9626
      9618      9621      9624      9627      9619      9618      9621      9622
      9619      9618      9621      9623      9619      9618      9621      9624
      9620      9618      9621      9622      9620      9618      9621      9623
      9620      9618      9621      9624      9621      9624      9627      9628
      9621      9624      9627      9629      9621      9624      9627      9630
      9622      9621      9624      9625      9622      9621      9624      9626
      9622      9621      9624      9627      9623      9621      9624      9625
      9623      9621      9624      9626      9623      9621      9624      9627
      9624      9627      9630      9631      9624      9627      9630      9632
      9624      9627      9630      9633      9625      9624      9627      9628
      9625      9624      9627      9629      9625      9624      9627      9630
      9626      9624      9627      9628      9626      9624      9627      9629
      9626      9624      9627      9630      9627      9630      9633      9634
      9627      9630      9633      9635      9627      9630      9633      9636
      9628      9627      9630      9631      9628      9627      9630      9632
      9628      9627      9630      9633      9629      9627      9630      9631
      9629      9627      9630      9632      9629      9627      9630      9633
      9630      9633      9636      9637      9630      9633      9636      9638
      9630      9633      9636      9639      9631      9630      9633      9634
      9631      9630      9633      9635      9631      9630      9633      9636
      9632      9630      9633      9634      9632      9630      9633      9635
      9632      9630      9633      9636      9633      9636      9639      9640
      9633      9636      9639      9641      9633      9636      9639      9642
      9634      9633      9636      9637      9634      9633      9636      9638
      9634      9633      9636      9639      9635      9633      9636      9637
      9635      9633      9636      9638      9635      9633      9636      9639
      9636      9639      9642      9643      9636      9639      9642      9644
      9636      9639      9642      9645      9637      9636      9639      9640
      9637      9636      9639      9641      9637      9636      9639      9642
      9638      9636      9639      9640      9638      9636      9639      9641
      9638      9636      9639      9642      9639      9642      9645      9646
      9639      9642      9645      9647      9639      9642      9645      9648
      9640      9639      9642      9643      9640      9639      9642      9644
      9640      9639      9642      9645      9641      9639      9642      9643
      9641      9639      9642      9644      9641      9639      9642      9645
      9643      9642      9645      9646      9643      9642      9645      9647
      9643      9642      9645      9648      9644      9642      9645      9646
      9644      9642      9645      9647      9644      9642      9645      9648
      9649      9650      9665      9666      9649      9650      9665      9667
      9649      9650      9665      9671      9650      9649      9653      9654
      9650      9649      9653      9655      9650      9649      9653      9656
      9650      9649      9657      9658      9650      9649      9657      9659
      9650      9649      9657      9660      9650      9649      9661      9662
      9650      9649      9661      9663      9650      9649      9661      9664
      9650      9665      9671      9668      9651      9650      9649      9653
      9651      9650      9649      9657      9651      9650      9649      9661
      9651      9650      9665      9666      9651      9650      9665      9667
      9651      9650      9665      9671      9652      9650      9649      9653
      9652      9650      9649      9657      9652      9650      9649      9661
      9652      9650      9665      9666      9652      9650      9665      9667
      9652      9650      9665      9671      9653      9649      9650      9665
      9653      9649      9657      9658      9653      9649      9657      9659
      9653      9649      9657      9660      9653      9649      9661      9662
      9653      9649      9661      9663      9653      9649      9661      9664
      9654      9653      9649      9657      9654      9653      9649      9661
      9655      9653      9649      9657      9655      9653      9649      9661
      9656      9653      9649      9657      9656      9653      9649      9661
      9657      9649      9650      9665      9657      9649      9661      9662
      9657      9649      9661      9663      9657      9649      9661      9664
      9658      9657      9649      9661      9659      9657      9649      9661
      9660      9657      9649      9661      9661      9649      9650      9665
      9665      9671      9668      9669      9665      9671      9668      9670
      9665      9671      9668      9672      9666      9665      9671      9668
      9667      9665      9671      9668      9668      9672      9673      9674
      9668      9672      9673      9675      9668      9672      9673      9676
      9669      9668      9672      9673      9670      9668      9672      9673
      9671      9668      9672      9673      9672      9673      9676      9677
      9672      9673      9676      9678      9672      9673      9676      9684
      9673      9676      9678      9679      9673      9676      9684      9685
      9673      9676      9684      9686      9673      9676      9684      9687
      9674      9673      9676      9677      9674      9673      9676      9678
      9674      9673      9676      9684      9675      9673      9676      9677
      9675      9673      9676      9678      9675      9673      9676      9684
      9676      9678      9679      9680      9676      9678      9679      9681
      9676      9684      9687      9688      9677      9676      9678      9679
      9677      9676      9684      9685      9677      9676      9684      9686
      9677      9676      9684      9687      9678      9676      9684      9685
      9678      9676      9684      9686      9678      9676      9684      9687
      9678      9679      9681      9682      9678      9679      9681      9683
      9678      9679      9681      9693      9679      9678      9676      9684
      9679      9681      9693      9694      9679      9681      9693      9695
      9679      9681      9693      9696      9680      9679      9681      9682
      9680      9679      9681      9683      9680      9679      9681      9693
      9681      9693      9696      9697      9681      9693      9696      9698
      9681      9693      9696      9699      9682      9681      9693      9694
      9682      9681      9693      9695      9682      9681      9693      9696
      9683      9681      9693      9694      9683      9681      9693      9695
      9683      9681      9693      9696      9684      9687      9688      9689
      9684      9687      9688      9690      9685      9684      9687      9688
      9686      9684      9687      9688      9687      9688      9690      9691
      9687      9688      9690      9692      9687      9688      9690      9740
      9688      9690      9740      9741      9688      9690      9740      9742
      9688      9690      9740      9743      9689      9688      9690      9691
      9689      9688      9690      9692      9689      9688      9690      9740
      9690      9740      9743      9744      9690      9740      9743      9745
      9690      9740      9743      9746      9691      9690      9740      9741
      9691      9690      9740      9742      9691      9690      9740      9743
      9692      9690      9740      9741      9692      9690      9740      9742
      9692      9690      9740      9743      9693      9696      9699      9700
      9693      9696      9699      9701      9693      9696      9699      9702
      9694      9693      9696      9697      9694      9693      9696      9698
      9694      9693      9696      9699      9695      9693      9696      9697
      9695      9693      9696      9698      9695      9693      9696      9699
      9696      9699      9702      9703      9696      9699      9702      9704
      9696      9699      9702      9705      9697      9696      9699      9700
      9697      9696      9699      9701      9697      9696      9699      9702
      9698      9696      9699      9700      9698      9696      9699      9701
      9698      9696      9699      9702      9699      9702      9705      9706
      9699      9702      9705      9707      9699      9702      9705      9708
      9700      9699      9702      9703      9700      9699      9702      9704
      9700      9699      9702      9705      9701      9699      9702      9703
      9701      9699      9702      9704      9701      9699      9702      9705
      9702      9705      9708      9709      9702      9705      9708      9710
      9702      9705      9708      9711      9703      9702      9705      9706
      9703      9702      9705      9707      9703      9702      9705      9708
      9704      9702      9705      9706      9704      9702      9705      9707
      9704      9702      9705      9708      9705      9708      9711      9712
      9705      9708      9711      9713      9706      9705      9708      9709
      9706      9705      9708      9710      9706      9705      9708      9711
      9707      9705      9708      9709      9707      9705      9708      9710
      9707      9705      9708      9711      9708      9711      9713      9714
      9708      9711      9713      9715      9709      9708      9711      9712
      9709      9708      9711      9713      9710      9708      9711      9712
      9710      9708      9711      9713      9711      9713      9715      9716
      9711      9713      9715      9717      9711      9713      9715      9718
      9712      9711      9713      9714      9712      9711      9713      9715
      9713      9715      9718      9719      9713      9715      9718      9720
      9713      9715      9718      9721      9714      9713      9715      9716
      9714      9713      9715      9717      9714      9713      9715      9718
      9715      9718      9721      9722      9715      9718      9721      9723
      9715      9718      9721      9724      9716      9715      9718      9719
      9716      9715      9718      9720      9716      9715      9718      9721
      9717      9715      9718      9719      9717      9715      9718      9720
      9717      9715      9718      9721      9718      9721      9724      9725
      9718      9721      9724      9726      9718      9721      9724      9727
      9719      9718      9721      9722      9719      9718      9721      9723
      9719      9718      9721      9724      9720      9718      9721      9722
      9720      9718      9721      9723      9720      9718      9721      9724
      9721      9724      9727      9728      9721      9724      9727      9729
      9721      9724      9727      9730      9722      9721      9724      9725
      9722      9721      9724      9726      9722      9721      9724      9727
      9723      9721      9724      9725      9723      9721      9724      9726
      9723      9721      9724      9727      9724      9727      9730      9731
      9724      9727      9730      9732      9724      9727      9730      9733
      9725      9724      9727      9728      9725      9724      9727      9729
      9725      9724      9727      9730      9726      9724      9727      9728
      9726      9724      9727      9729      9726      9724      9727      9730
      9727      9730      9733      9734      9727      9730      9733      9735
      9727      9730      9733      9736      9728      9727      9730      9731
      9728      9727      9730      9732      9728      9727      9730      9733
      9729      9727      9730      9731      9729      9727      9730      9732
      9729      9727      9730      9733      9730      9733      9736      9737
      9730      9733      9736      9738      9730      9733      9736      9739
      9731      9730      9733      9734      9731      9730      9733      9735
      9731      9730      9733      9736      9732      9730      9733      9734
      9732      9730      9733      9735      9732      9730      9733      9736
      9734      9733      9736      9737      9734      9733      9736      9738
      9734      9733      9736      9739      9735      9733      9736      9737
      9735      9733      9736      9738      9735      9733      9736      9739
      9740      9743      9746      9747      9740      9743      9746      9748
      9740      9743      9746      9749      9741      9740      9743      9744
      9741      9740      9743      9745      9741      9740      9743      9746
      9742      9740      9743      9744      9742      9740      9743      9745
      9742      9740      9743      9746      9743      9746      9749      9750
      9743      9746      9749      9751      9743      9746      9749      9752
      9744      9743      9746      9747      9744      9743      9746      9748
      9744      9743      9746      9749      9745      9743      9746      9747
      9745      9743      9746      9748      9745      9743      9746      9749
      9746      9749      9752      9753      9746      9749      9752      9754
      9746      9749      9752      9755      9747      9746      9749      9750
      9747      9746      9749      9751      9747      9746      9749      9752
      9748      9746      9749      9750      9748      9746      9749      9751
      9748      9746      9749      9752      9749      9752      9755      9756
      9749      9752      9755      9757      9749      9752      9755      9758
      9750      9749      9752      9753      9750      9749      9752      9754
      9750      9749      9752      9755      9751      9749      9752      9753
      9751      9749      9752      9754      9751      9749      9752      9755
      9752      9755      9758      9759      9752      9755      9758      9760
      9752      9755      9758      9761      9753      9752      9755      9756
      9753      9752      9755      9757      9753      9752      9755      9758
      9754      9752      9755      9756      9754      9752      9755      9757
      9754      9752      9755      9758      9755      9758      9761      9762
      9755      9758      9761      9763      9755      9758      9761      9764
      9756      9755      9758      9759      9756      9755      9758      9760
      9756      9755      9758      9761      9757      9755      9758      9759
      9757      9755      9758      9760      9757      9755      9758      9761
      9758      9761      9764      9765      9758      9761      9764      9766
      9758      9761      9764      9767      9759      9758      9761      9762
      9759      9758      9761      9763      9759      9758      9761      9764
      9760      9758      9761      9762      9760      9758      9761      9763
      9760      9758      9761      9764      9761      9764      9767      9768
      9761      9764      9767      9769      9761      9764      9767      9770
      9762      9761      9764      9765      9762      9761      9764      9766
      9762      9761      9764      9767      9763      9761      9764      9765
      9763      9761      9764      9766      9763      9761      9764      9767
      9764      9767      9770      9771      9764      9767      9770      9772
      9764      9767      9770      9773      9765      9764      9767      9768
      9765      9764      9767      9769      9765      9764      9767      9770
      9766      9764      9767      9768      9766      9764      9767      9769
      9766      9764      9767      9770      9767      9770      9773      9774
      9767      9770      9773      9775      9767      9770      9773      9776
      9768      9767      9770      9771      9768      9767      9770      9772
      9768      9767      9770      9773      9769      9767      9770      9771
      9769      9767      9770      9772      9769      9767      9770      9773
      9770      9773      9776      9777      9770      9773      9776      9778
      9770      9773      9776      9779      9771      9770      9773      9774
      9771      9770      9773      9775      9771      9770      9773      9776
      9772      9770      9773      9774      9772      9770      9773      9775
      9772      9770      9773      9776      9773      9776      9779      9780
      9773      9776      9779      9781      9773      9776      9779      9782
      9774      9773      9776      9777      9774      9773      9776      9778
      9774      9773      9776      9779      9775      9773      9776      9777
      9775      9773      9776      9778      9775      9773      9776      9779
      9777      9776      9779      9780      9777      9776      9779      9781
      9777      9776      9779      9782      9778      9776      9779      9780
      9778      9776      9779      9781      9778      9776      9779      9782
      9783      9784      9799      9800      9783      9784      9799      9801
      9783      9784      9799      9805      9784      9783      9787      9788
      9784      9783      9787      9789      9784      9783      9787      9790
      9784      9783      9791      9792      9784      9783      9791      9793
      9784      9783      9791      9794      9784      9783      9795      9796
      9784      9783      9795      9797      9784      9783      9795      9798
      9784      9799      9805      9802      9785      9784      9783      9787
      9785      9784      9783      9791      9785      9784      9783      9795
      9785      9784      9799      9800      9785      9784      9799      9801
      9785      9784      9799      9805      9786      9784      9783      9787
      9786      9784      9783      9791      9786      9784      9783      9795
      9786      9784      9799      9800      9786      9784      9799      9801
      9786      9784      9799      9805      9787      9783      9784      9799
      9787      9783      9791      9792      9787      9783      9791      9793
      9787      9783      9791      9794      9787      9783      9795      9796
      9787      9783      9795      9797      9787      9783      9795      9798
      9788      9787      9783      9791      9788      9787      9783      9795
      9789      9787      9783      9791      9789      9787      9783      9795
      9790      9787      9783      9791      9790      9787      9783      9795
      9791      9783      9784      9799      9791      9783      9795      9796
      9791      9783      9795      9797      9791      9783      9795      9798
      9792      9791      9783      9795      9793      9791      9783      9795
      9794      9791      9783      9795      9795      9783      9784      9799
      9799      9805      9802      9803      9799      9805      9802      9804
      9799      9805      9802      9806      9800      9799      9805      9802
      9801      9799      9805      9802      9802      9806      9807      9808
      9802      9806      9807      9809      9802      9806      9807      9810
      9803      9802      9806      9807      9804      9802      9806      9807
      9805      9802      9806      9807      9806      9807      9810      9811
      9806      9807      9810      9812      9806      9807      9810      9818
      9807      9810      9812      9813      9807      9810      9818      9819
      9807      9810      9818      9820      9807      9810      9818      9821
      9808      9807      9810      9811      9808      9807      9810      9812
      9808      9807      9810      9818      9809      9807      9810      9811
      9809      9807      9810      9812      9809      9807      9810      9818
      9810      9812      9813      9814      9810      9812      9813      9815
      9810      9818      9821      9822      9811      9810      9812      9813
      9811      9810      9818      9819      9811      9810      9818      9820
      9811      9810      9818      9821      9812      9810      9818      9819
      9812      9810      9818      9820      9812      9810      9818      9821
      9812      9813      9815      9816      9812      9813      9815      9817
      9812      9813      9815      9827      9813      9812      9810      9818
      9813      9815      9827      9828      9813      9815      9827      9829
      9813      9815      9827      9830      9814      9813      9815      9816
      9814      9813      9815      9817      9814      9813      9815      9827
      9815      9827      9830      9831      9815      9827      9830      9832
      9815      9827      9830      9833      9816      9815      9827      9828
      9816      9815      9827      9829      9816      9815      9827      9830
      9817      9815      9827      9828      9817      9815      9827      9829
      9817      9815      9827      9830      9818      9821      9822      9823
      9818      9821      9822      9824      9819      9818      9821      9822
      9820      9818      9821      9822      9821      9822      9824      9825
      9821      9822      9824      9826      9821      9822      9824      9874
      9822      9824      9874      9875      9822      9824      9874      9876
      9822      9824      9874      9877      9823      9822      9824      9825
      9823      9822      9824      9826      9823      9822      9824      9874
      9824      9874      9877      9878      9824      9874      9877      9879
      9824      9874      9877      9880      9825      9824      9874      9875
      9825      9824      9874      9876      9825      9824      9874      9877
      9826      9824      9874      9875      9826      9824      9874      9876
      9826      9824      9874      9877      9827      9830      9833      9834
      9827      9830      9833      9835      9827      9830      9833      9836
      9828      9827      9830      9831      9828      9827      9830      9832
      9828      9827      9830      9833      9829      9827      9830      9831
      9829      9827      9830      9832      9829      9827      9830      9833
      9830      9833      9836      9837      9830      9833      9836      9838
      9830      9833      9836      9839      9831      9830      9833      9834
      9831      9830      9833      9835      9831      9830      9833      9836
      9832      9830      9833      9834      9832      9830      9833      9835
      9832      9830      9833      9836      9833      9836      9839      9840
      9833      9836      9839      9841      9833      9836      9839      9842
      9834      9833      9836      9837      9834      9833      9836      9838
      9834      9833      9836      9839      9835      9833      9836      9837
      9835      9833      9836      9838      9835      9833      9836      9839
      9836      9839      9842      9843      9836      9839      9842      9844
      9836      9839      9842      9845      9837      9836      9839      9840
      9837      9836      9839      9841      9837      9836      9839      9842
      9838      9836      9839      9840      9838      9836      9839      9841
      9838      9836      9839      9842      9839      9842      9845      9846
      9839      9842      9845      9847      9840      9839      9842      9843
      9840      9839      9842      9844      9840      9839      9842      9845
      9841      9839      9842      9843      9841      9839      9842      9844
      9841      9839      9842      9845      9842      9845      9847      9848
      9842      9845      9847      9849      9843      9842      9845      9846
      9843      9842      9845      9847      9844      9842      9845      9846
      9844      9842      9845      9847      9845      9847      9849      9850
      9845      9847      9849      9851      9845      9847      9849      9852
      9846      9845      9847      9848      9846      9845      9847      9849
      9847      9849      9852      9853      9847      9849      9852      9854
      9847      9849      9852      9855      9848      9847      9849      9850
      9848      9847      9849      9851      9848      9847      9849      9852
      9849      9852      9855      9856      9849      9852      9855      9857
      9849      9852      9855      9858      9850      9849      9852      9853
      9850      9849      9852      9854      9850      9849      9852      9855
      9851      9849      9852      9853      9851      9849      9852      9854
      9851      9849      9852      9855      9852      9855      9858      9859
      9852      9855      9858      9860      9852      9855      9858      9861
      9853      9852      9855      9856      9853      9852      9855      9857
      9853      9852      9855      9858      9854      9852      9855      9856
      9854      9852      9855      9857      9854      9852      9855      9858
      9855      9858      9861      9862      9855      9858      9861      9863
      9855      9858      9861      9864      9856      9855      9858      9859
      9856      9855      9858      9860      9856      9855      9858      9861
      9857      9855      9858      9859      9857      9855      9858      9860
      9857      9855      9858      9861      9858      9861      9864      9865
      9858      9861      9864      9866      9858      9861      9864      9867
      9859      9858      9861      9862      9859      9858      9861      9863
      9859      9858      9861      9864      9860      9858      9861      9862
      9860      9858      9861      9863      9860      9858      9861      9864
      9861      9864      9867      9868      9861      9864      9867      9869
      9861      9864      9867      9870      9862      9861      9864      9865
      9862      9861      9864      9866      9862      9861      9864      9867
      9863      9861      9864      9865      9863      9861      9864      9866
      9863      9861      9864      9867      9864      9867      9870      9871
      9864      9867      9870      9872      9864      9867      9870      9873
      9865      9864      9867      9868      9865      9864      9867      9869
      9865      9864      9867      9870      9866      9864      9867      9868
      9866      9864      9867      9869      9866      9864      9867      9870
      9868      9867      9870      9871      9868      9867      9870      9872
      9868      9867      9870      9873      9869      9867      9870      9871
      9869      9867      9870      9872      9869      9867      9870      9873
      9874      9877      9880      9881      9874      9877      9880      9882
      9874      9877      9880      9883      9875      9874      9877      9878
      9875      9874      9877      9879      9875      9874      9877      9880
      9876      9874      9877      9878      9876      9874      9877      9879
      9876      9874      9877      9880      9877      9880      9883      9884
      9877      9880      9883      9885      9877      9880      9883      9886
      9878      9877      9880      9881      9878      9877      9880      9882
      9878      9877      9880      9883      9879      9877      9880      9881
      9879      9877      9880      9882      9879      9877      9880      9883
      9880      9883      9886      9887      9880      9883      9886      9888
      9880      9883      9886      9889      9881      9880      9883      9884
      9881      9880      9883      9885      9881      9880      9883      9886
      9882      9880      9883      9884      9882      9880      9883      9885
      9882      9880      9883      9886      9883      9886      9889      9890
      9883      9886      9889      9891      9883      9886      9889      9892
      9884      9883      9886      9887      9884      9883      9886      9888
      9884      9883      9886      9889      9885      9883      9886      9887
      9885      9883      9886      9888      9885      9883      9886      9889
      9886      9889      9892      9893      9886      9889      9892      9894
      9886      9889      9892      9895      9887      9886      9889      9890
      9887      9886      9889      9891      9887      9886      9889      9892
      9888      9886      9889      9890      9888      9886      9889      9891
      9888      9886      9889      9892      9889      9892      9895      9896
      9889      9892      9895      9897      9889      9892      9895      9898
      9890      9889      9892      9893      9890      9889      9892      9894
      9890      9889      9892      9895      9891      9889      9892      9893
      9891      9889      9892      9894      9891      9889      9892      9895
      9892      9895      9898      9899      9892      9895      9898      9900
      9892      9895      9898      9901      9893      9892      9895      9896
      9893      9892      9895      9897      9893      9892      9895      9898
      9894      9892      9895      9896      9894      9892      9895      9897
      9894      9892      9895      9898      9895      9898      9901      9902
      9895      9898      9901      9903      9895      9898      9901      9904
      9896      9895      9898      9899      9896      9895      9898      9900
      9896      9895      9898      9901      9897      9895      9898      9899
      9897      9895      9898      9900      9897      9895      9898      9901
      9898      9901      9904      9905      9898      9901      9904      9906
      9898      9901      9904      9907      9899      9898      9901      9902
      9899      9898      9901      9903      9899      9898      9901      9904
      9900      9898      9901      9902      9900      9898      9901      9903
      9900      9898      9901      9904      9901      9904      9907      9908
      9901      9904      9907      9909      9901      9904      9907      9910
      9902      9901      9904      9905      9902      9901      9904      9906
      9902      9901      9904      9907      9903      9901      9904      9905
      9903      9901      9904      9906      9903      9901      9904      9907
      9904      9907      9910      9911      9904      9907      9910      9912
      9904      9907      9910      9913      9905      9904      9907      9908
      9905      9904      9907      9909      9905      9904      9907      9910
      9906      9904      9907      9908      9906      9904      9907      9909
      9906      9904      9907      9910      9907      9910      9913      9914
      9907      9910      9913      9915      9907      9910      9913      9916
      9908      9907      9910      9911      9908      9907      9910      9912
      9908      9907      9910      9913      9909      9907      9910      9911
      9909      9907      9910      9912      9909      9907      9910      9913
      9911      9910      9913      9914      9911      9910      9913      9915
      9911      9910      9913      9916      9912      9910      9913      9914
      9912      9910      9913      9915      9912      9910      9913      9916
      9917      9918      9933      9934      9917      9918      9933      9935
      9917      9918      9933      9939      9918      9917      9921      9922
      9918      9917      9921      9923      9918      9917      9921      9924
      9918      9917      9925      9926      9918      9917      9925      9927
      9918      9917      9925      9928      9918      9917      9929      9930
      9918      9917      9929      9931      9918      9917      9929      9932
      9918      9933      9939      9936      9919      9918      9917      9921
      9919      9918      9917      9925      9919      9918      9917      9929
      9919      9918      9933      9934      9919      9918      9933      9935
      9919      9918      9933      9939      9920      9918      9917      9921
      9920      9918      9917      9925      9920      9918      9917      9929
      9920      9918      9933      9934      9920      9918      9933      9935
      9920      9918      9933      9939      9921      9917      9918      9933
      9921      9917      9925      9926      9921      9917      9925      9927
      9921      9917      9925      9928      9921      9917      9929      9930
      9921      9917      9929      9931      9921      9917      9929      9932
      9922      9921      9917      9925      9922      9921      9917      9929
      9923      9921      9917      9925      9923      9921      9917      9929
      9924      9921      9917      9925      9924      9921      9917      9929
      9925      9917      9918      9933      9925      9917      9929      9930
      9925      9917      9929      9931      9925      9917      9929      9932
      9926      9925      9917      9929      9927      9925      9917      9929
      9928      9925      9917      9929      9929      9917      9918      9933
      9933      9939      9936      9937      9933      9939      9936      9938
      9933      9939      9936      9940      9934      9933      9939      9936
      9935      9933      9939      9936      9936      9940      9941      9942
      9936      9940      9941      9943      9936      9940      9941      9944
      9937      9936      9940      9941      9938      9936      9940      9941
      9939      9936      9940      9941      9940      9941      9944      9945
      9940      9941      9944      9946      9940      9941      9944      9952
      9941      9944      9946      9947      9941      9944      9952      9953
      9941      9944      9952      9954      9941      9944      9952      9955
      9942      9941      9944      9945      9942      9941      9944      9946
      9942      9941      9944      9952      9943      9941      9944      9945
      9943      9941      9944      9946      9943      9941      9944      9952
      9944      9946      9947      9948      9944      9946      9947      9949
      9944      9952      9955      9956      9945      9944      9946      9947
      9945      9944      9952      9953      9945      9944      9952      9954
      9945      9944      9952      9955      9946      9944      9952      9953
      9946      9944      9952      9954      9946      9944      9952      9955
      9946      9947      9949      9950      9946      9947      9949      9951
      9946      9947      9949      9961      9947      9946      9944      9952
      9947      9949      9961      9962      9947      9949      9961      9963
      9947      9949      9961      9964      9948      9947      9949      9950
      9948      9947      9949      9951      9948      9947      9949      9961
      9949      9961      9964      9965      9949      9961      9964      9966
      9949      9961      9964      9967      9950      9949      9961      9962
      9950      9949      9961      9963      9950      9949      9961      9964
      9951      9949      9961      9962      9951      9949      9961      9963
      9951      9949      9961      9964      9952      9955      9956      9957
      9952      9955      9956      9958      9953      9952      9955      9956
      9954      9952      9955      9956      9955      9956      9958      9959
      9955      9956      9958      9960      9955      9956      9958     10008
      9956      9958     10008     10009      9956      9958     10008     10010
      9956      9958     10008     10011      9957      9956      9958      9959
      9957      9956      9958      9960      9957      9956      9958     10008
      9958     10008     10011     10012      9958     10008     10011     10013
      9958     10008     10011     10014      9959      9958     10008     10009
      9959      9958     10008     10010      9959      9958     10008     10011
      9960      9958     10008     10009      9960      9958     10008     10010
      9960      9958     10008     10011      9961      9964      9967      9968
      9961      9964      9967      9969      9961      9964      9967      9970
      9962      9961      9964      9965      9962      9961      9964      9966
      9962      9961      9964      9967      9963      9961      9964      9965
      9963      9961      9964      9966      9963      9961      9964      9967
      9964      9967      9970      9971      9964      9967      9970      9972
      9964      9967      9970      9973      9965      9964      9967      9968
      9965      9964      9967      9969      9965      9964      9967      9970
      9966      9964      9967      9968      9966      9964      9967      9969
      9966      9964      9967      9970      9967      9970      9973      9974
      9967      9970      9973      9975      9967      9970      9973      9976
      9968      9967      9970      9971      9968      9967      9970      9972
      9968      9967      9970      9973      9969      9967      9970      9971
      9969      9967      9970      9972      9969      9967      9970      9973
      9970      9973      9976      9977      9970      9973      9976      9978
      9970      9973      9976      9979      9971      9970      9973      9974
      9971      9970      9973      9975      9971      9970      9973      9976
      9972      9970      9973      9974      9972      9970      9973      9975
      9972      9970      9973      9976      9973      9976      9979      9980
      9973      9976      9979      9981      9974      9973      9976      9977
      9974      9973      9976      9978      9974      9973      9976      9979
      9975      9973      9976      9977      9975      9973      9976      9978
      9975      9973      9976      9979      9976      9979      9981      9982
      9976      9979      9981      9983      9977      9976      9979      9980
      9977      9976      9979      9981      9978      9976      9979      9980
      9978      9976      9979      9981      9979      9981      9983      9984
      9979      9981      9983      9985      9979      9981      9983      9986
      9980      9979      9981      9982      9980      9979      9981      9983
      9981      9983      9986      9987      9981      9983      9986      9988
      9981      9983      9986      9989      9982      9981      9983      9984
      9982      9981      9983      9985      9982      9981      9983      9986
      9983      9986      9989      9990      9983      9986      9989      9991
      9983      9986      9989      9992      9984      9983      9986      9987
      9984      9983      9986      9988      9984      9983      9986      9989
      9985      9983      9986      9987      9985      9983      9986      9988
      9985      9983      9986      9989      9986      9989      9992      9993
      9986      9989      9992      9994      9986      9989      9992      9995
      9987      9986      9989      9990      9987      9986      9989      9991
      9987      9986      9989      9992      9988      9986      9989      9990
      9988      9986      9989      9991      9988      9986      9989      9992
      9989      9992      9995      9996      9989      9992      9995      9997
      9989      9992      9995      9998      9990      9989      9992      9993
      9990      9989      9992      9994      9990      9989      9992      9995
      9991      9989      9992      9993      9991      9989      9992      9994
      9991      9989      9992      9995      9992      9995      9998      9999
      9992      9995      9998     10000      9992      9995      9998     10001
      9993      9992      9995      9996      9993      9992      9995      9997
      9993      9992      9995      9998      9994      9992      9995      9996
      9994      9992      9995      9997      9994      9992      9995      9998
      9995      9998     10001     10002      9995      9998     10001     10003
      9995      9998     10001     10004      9996      9995      9998      9999
      9996      9995      9998     10000      9996      9995      9998     10001
      9997      9995      9998      9999      9997      9995      9998     10000
      9997      9995      9998     10001      9998     10001     10004     10005
      9998     10001     10004     10006      9998     10001     10004     10007
      9999      9998     10001     10002      9999      9998     10001     10003
      9999      9998     10001     10004     10000      9998     10001     10002
     10000      9998     10001     10003     10000      9998     10001     10004
     10002     10001     10004     10005     10002     10001     10004     10006
     10002     10001     10004     10007     10003     10001     10004     10005
     10003     10001     10004     10006     10003     10001     10004     10007
     10008     10011     10014     10015     10008     10011     10014     10016
     10008     10011     10014     10017     10009     10008     10011     10012
     10009     10008     10011     10013     10009     10008     10011     10014
     10010     10008     10011     10012     10010     10008     10011     10013
     10010     10008     10011     10014     10011     10014     10017     10018
     10011     10014     10017     10019     10011     10014     10017     10020
     10012     10011     10014     10015     10012     10011     10014     10016
     10012     10011     10014     10017     10013     10011     10014     10015
     10013     10011     10014     10016     10013     10011     10014     10017
     10014     10017     10020     10021     10014     10017     10020     10022
     10014     10017     10020     10023     10015     10014     10017     10018
     10015     10014     10017     10019     10015     10014     10017     10020
     10016     10014     10017     10018     10016     10014     10017     10019
     10016     10014     10017     10020     10017     10020     10023     10024
     10017     10020     10023     10025     10017     10020     10023     10026
     10018     10017     10020     10021     10018     10017     10020     10022
     10018     10017     10020     10023     10019     10017     10020     10021
     10019     10017     10020     10022     10019     10017     10020     10023
     10020     10023     10026     10027     10020     10023     10026     10028
     10020     10023     10026     10029     10021     10020     10023     10024
     10021     10020     10023     10025     10021     10020     10023     10026
     10022     10020     10023     10024     10022     10020     10023     10025
     10022     10020     10023     10026     10023     10026     10029     10030
     10023     10026     10029     10031     10023     10026     10029     10032
     10024     10023     10026     10027     10024     10023     10026     10028
     10024     10023     10026     10029     10025     10023     10026     10027
     10025     10023     10026     10028     10025     10023     10026     10029
     10026     10029     10032     10033     10026     10029     10032     10034
     10026     10029     10032     10035     10027     10026     10029     10030
     10027     10026     10029     10031     10027     10026     10029     10032
     10028     10026     10029     10030     10028     10026     10029     10031
     10028     10026     10029     10032     10029     10032     10035     10036
     10029     10032     10035     10037     10029     10032     10035     10038
     10030     10029     10032     10033     10030     10029     10032     10034
     10030     10029     10032     10035     10031     10029     10032     10033
     10031     10029     10032     10034     10031     10029     10032     10035
     10032     10035     10038     10039     10032     10035     10038     10040
     10032     10035     10038     10041     10033     10032     10035     10036
     10033     10032     10035     10037     10033     10032     10035     10038
     10034     10032     10035     10036     10034     10032     10035     10037
     10034     10032     10035     10038     10035     10038     10041     10042
     10035     10038     10041     10043     10035     10038     10041     10044
     10036     10035     10038     10039     10036     10035     10038     10040
     10036     10035     10038     10041     10037     10035     10038     10039
     10037     10035     10038     10040     10037     10035     10038     10041
     10038     10041     10044     10045     10038     10041     10044     10046
     10038     10041     10044     10047     10039     10038     10041     10042
     10039     10038     10041     10043     10039     10038     10041     10044
     10040     10038     10041     10042     10040     10038     10041     10043
     10040     10038     10041     10044     10041     10044     10047     10048
     10041     10044     10047     10049     10041     10044     10047     10050
     10042     10041     10044     10045     10042     10041     10044     10046
     10042     10041     10044     10047     10043     10041     10044     10045
     10043     10041     10044     10046     10043     10041     10044     10047
     10045     10044     10047     10048     10045     10044     10047     10049
     10045     10044     10047     10050     10046     10044     10047     10048
     10046     10044     10047     10049     10046     10044     10047     10050
     10051     10052     10067     10068     10051     10052     10067     10069
     10051     10052     10067     10073     10052     10051     10055     10056
     10052     10051     10055     10057     10052     10051     10055     10058
     10052     10051     10059     10060     10052     10051     10059     10061
     10052     10051     10059     10062     10052     10051     10063     10064
     10052     10051     10063     10065     10052     10051     10063     10066
     10052     10067     10073     10070     10053     10052     10051     10055
     10053     10052     10051     10059     10053     10052     10051     10063
     10053     10052     10067     10068     10053     10052     10067     10069
     10053     10052     10067     10073     10054     10052     10051     10055
     10054     10052     10051     10059     10054     10052     10051     10063
     10054     10052     10067     10068     10054     10052     10067     10069
     10054     10052     10067     10073     10055     10051     10052     10067
     10055     10051     10059     10060     10055     10051     10059     10061
     10055     10051     10059     10062     10055     10051     10063     10064
     10055     10051     10063     10065     10055     10051     10063     10066
     10056     10055     10051     10059     10056     10055     10051     10063
     10057     10055     10051     10059     10057     10055     10051     10063
     10058     10055     10051     10059     10058     10055     10051     10063
     10059     10051     10052     10067     10059     10051     10063     10064
     10059     10051     10063     10065     10059     10051     10063     10066
     10060     10059     10051     10063     10061     10059     10051     10063
     10062     10059     10051     10063     10063     10051     10052     10067
     10067     10073     10070     10071     10067     10073     10070     10072
     10067     10073     10070     10074     10068     10067     10073     10070
     10069     10067     10073     10070     10070     10074     10075     10076
     10070     10074     10075     10077     10070     10074     10075     10078
     10071     10070     10074     10075     10072     10070     10074     10075
     10073     10070     10074     10075     10074     10075     10078     10079
     10074     10075     10078     10080     10074     10075     10078     10086
     10075     10078     10080     10081     10075     10078     10086     10087
     10075     10078     10086     10088     10075     10078     10086     10089
     10076     10075     10078     10079     10076     10075     10078     10080
     10076     10075     10078     10086     10077     10075     10078     10079
     10077     10075     10078     10080     10077     10075     10078     10086
     10078     10080     10081     10082     10078     10080     10081     10083
     10078     10086     10089     10090     10079     10078     10080     10081
     10079     10078     10086     10087     10079     10078     10086     10088
     10079     10078     10086     10089     10080     10078     10086     10087
     10080     10078     10086     10088     10080     10078     10086     10089
     10080     10081     10083     10084     10080     10081     10083     10085
     10080     10081     10083     10095     10081     10080     10078     10086
     10081     10083     10095     10096     10081     10083     10095     10097
     10081     10083     10095     10098     10082     10081     10083     10084
     10082     10081     10083     10085     10082     10081     10083     10095
     10083     10095     10098     10099     10083     10095     10098     10100
     10083     10095     10098     10101     10084     10083     10095     10096
     10084     10083     10095     10097     10084     10083     10095     10098
     10085     10083     10095     10096     10085     10083     10095     10097
     10085     10083     10095     10098     10086     10089     10090     10091
     10086     10089     10090     10092     10087     10086     10089     10090
     10088     10086     10089     10090     10089     10090     10092     10093
     10089     10090     10092     10094     10089     10090     10092     10142
     10090     10092     10142     10143     10090     10092     10142     10144
     10090     10092     10142     10145     10091     10090     10092     10093
     10091     10090     10092     10094     10091     10090     10092     10142
     10092     10142     10145     10146     10092     10142     10145     10147
     10092     10142     10145     10148     10093     10092     10142     10143
     10093     10092     10142     10144     10093     10092     10142     10145
     10094     10092     10142     10143     10094     10092     10142     10144
     10094     10092     10142     10145     10095     10098     10101     10102
     10095     10098     10101     10103     10095     10098     10101     10104
     10096     10095     10098     10099     10096     10095     10098     10100
     10096     10095     10098     10101     10097     10095     10098     10099
     10097     10095     10098     10100     10097     10095     10098     10101
     10098     10101     10104     10105     10098     10101     10104     10106
     10098     10101     10104     10107     10099     10098     10101     10102
     10099     10098     10101     10103     10099     10098     10101     10104
     10100     10098     10101     10102     10100     10098     10101     10103
     10100     10098     10101     10104     10101     10104     10107     10108
     10101     10104     10107     10109     10101     10104     10107     10110
     10102     10101     10104     10105     10102     10101     10104     10106
     10102     10101     10104     10107     10103     10101     10104     10105
     10103     10101     10104     10106     10103     10101     10104     10107
     10104     10107     10110     10111     10104     10107     10110     10112
     10104     10107     10110     10113     10105     10104     10107     10108
     10105     10104     10107     10109     10105     10104     10107     10110
     10106     10104     10107     10108     10106     10104     10107     10109
     10106     10104     10107     10110     10107     10110     10113     10114
     10107     10110     10113     10115     10108     10107     10110     10111
     10108     10107     10110     10112     10108     10107     10110     10113
     10109     10107     10110     10111     10109     10107     10110     10112
     10109     10107     10110     10113     10110     10113     10115     10116
     10110     10113     10115     10117     10111     10110     10113     10114
     10111     10110     10113     10115     10112     10110     10113     10114
     10112     10110     10113     10115     10113     10115     10117     10118
     10113     10115     10117     10119     10113     10115     10117     10120
     10114     10113     10115     10116     10114     10113     10115     10117
     10115     10117     10120     10121     10115     10117     10120     10122
     10115     10117     10120     10123     10116     10115     10117     10118
     10116     10115     10117     10119     10116     10115     10117     10120
     10117     10120     10123     10124     10117     10120     10123     10125
     10117     10120     10123     10126     10118     10117     10120     10121
     10118     10117     10120     10122     10118     10117     10120     10123
     10119     10117     10120     10121     10119     10117     10120     10122
     10119     10117     10120     10123     10120     10123     10126     10127
     10120     10123     10126     10128     10120     10123     10126     10129
     10121     10120     10123     10124     10121     10120     10123     10125
     10121     10120     10123     10126     10122     10120     10123     10124
     10122     10120     10123     10125     10122     10120     10123     10126
     10123     10126     10129     10130     10123     10126     10129     10131
     10123     10126     10129     10132     10124     10123     10126     10127
     10124     10123     10126     10128     10124     10123     10126     10129
     10125     10123     10126     10127     10125     10123     10126     10128
     10125     10123     10126     10129     10126     10129     10132     10133
     10126     10129     10132     10134     10126     10129     10132     10135
     10127     10126     10129     10130     10127     10126     10129     10131
     10127     10126     10129     10132     10128     10126     10129     10130
     10128     10126     10129     10131     10128     10126     10129     10132
     10129     10132     10135     10136     10129     10132     10135     10137
     10129     10132     10135     10138     10130     10129     10132     10133
     10130     10129     10132     10134     10130     10129     10132     10135
     10131     10129     10132     10133     10131     10129     10132     10134
     10131     10129     10132     10135     10132     10135     10138     10139
     10132     10135     10138     10140     10132     10135     10138     10141
     10133     10132     10135     10136     10133     10132     10135     10137
     10133     10132     10135     10138     10134     10132     10135     10136
     10134     10132     10135     10137     10134     10132     10135     10138
     10136     10135     10138     10139     10136     10135     10138     10140
     10136     10135     10138     10141     10137     10135     10138     10139
     10137     10135     10138     10140     10137     10135     10138     10141
     10142     10145     10148     10149     10142     10145     10148     10150
     10142     10145     10148     10151     10143     10142     10145     10146
     10143     10142     10145     10147     10143     10142     10145     10148
     10144     10142     10145     10146     10144     10142     10145     10147
     10144     10142     10145     10148     10145     10148     10151     10152
     10145     10148     10151     10153     10145     10148     10151     10154
     10146     10145     10148     10149     10146     10145     10148     10150
     10146     10145     10148     10151     10147     10145     10148     10149
     10147     10145     10148     10150     10147     10145     10148     10151
     10148     10151     10154     10155     10148     10151     10154     10156
     10148     10151     10154     10157     10149     10148     10151     10152
     10149     10148     10151     10153     10149     10148     10151     10154
     10150     10148     10151     10152     10150     10148     10151     10153
     10150     10148     10151     10154     10151     10154     10157     10158
     10151     10154     10157     10159     10151     10154     10157     10160
     10152     10151     10154     10155     10152     10151     10154     10156
     10152     10151     10154     10157     10153     10151     10154     10155
     10153     10151     10154     10156     10153     10151     10154     10157
     10154     10157     10160     10161     10154     10157     10160     10162
     10154     10157     10160     10163     10155     10154     10157     10158
     10155     10154     10157     10159     10155     10154     10157     10160
     10156     10154     10157     10158     10156     10154     10157     10159
     10156     10154     10157     10160     10157     10160     10163     10164
     10157     10160     10163     10165     10157     10160     10163     10166
     10158     10157     10160     10161     10158     10157     10160     10162
     10158     10157     10160     10163     10159     10157     10160     10161
     10159     10157     10160     10162     10159     10157     10160     10163
     10160     10163     10166     10167     10160     10163     10166     10168
     10160     10163     10166     10169     10161     10160     10163     10164
     10161     10160     10163     10165     10161     10160     10163     10166
     10162     10160     10163     10164     10162     10160     10163     10165
     10162     10160     10163     10166     10163     10166     10169     10170
     10163     10166     10169     10171     10163     10166     10169     10172
     10164     10163     10166     10167     10164     10163     10166     10168
     10164     10163     10166     10169     10165     10163     10166     10167
     10165     10163     10166     10168     10165     10163     10166     10169
     10166     10169     10172     10173     10166     10169     10172     10174
     10166     10169     10172     10175     10167     10166     10169     10170
     10167     10166     10169     10171     10167     10166     10169     10172
     10168     10166     10169     10170     10168     10166     10169     10171
     10168     10166     10169     10172     10169     10172     10175     10176
     10169     10172     10175     10177     10169     10172     10175     10178
     10170     10169     10172     10173     10170     10169     10172     10174
     10170     10169     10172     10175     10171     10169     10172     10173
     10171     10169     10172     10174     10171     10169     10172     10175
     10172     10175     10178     10179     10172     10175     10178     10180
     10172     10175     10178     10181     10173     10172     10175     10176
     10173     10172     10175     10177     10173     10172     10175     10178
     10174     10172     10175     10176     10174     10172     10175     10177
     10174     10172     10175     10178     10175     10178     10181     10182
     10175     10178     10181     10183     10175     10178     10181     10184
     10176     10175     10178     10179     10176     10175     10178     10180
     10176     10175     10178     10181     10177     10175     10178     10179
     10177     10175     10178     10180     10177     10175     10178     10181
     10179     10178     10181     10182     10179     10178     10181     10183
     10179     10178     10181     10184     10180     10178     10181     10182
     10180     10178     10181     10183     10180     10178     10181     10184
     10185     10186     10201     10202     10185     10186     10201     10203
     10185     10186     10201     10207     10186     10185     10189     10190
     10186     10185     10189     10191     10186     10185     10189     10192
     10186     10185     10193     10194     10186     10185     10193     10195
     10186     10185     10193     10196     10186     10185     10197     10198
     10186     10185     10197     10199     10186     10185     10197     10200
     10186     10201     10207     10204     10187     10186     10185     10189
     10187     10186     10185     10193     10187     10186     10185     10197
     10187     10186     10201     10202     10187     10186     10201     10203
     10187     10186     10201     10207     10188     10186     10185     10189
     10188     10186     10185     10193     10188     10186     10185     10197
     10188     10186     10201     10202     10188     10186     10201     10203
     10188     10186     10201     10207     10189     10185     10186     10201
     10189     10185     10193     10194     10189     10185     10193     10195
     10189     10185     10193     10196     10189     10185     10197     10198
     10189     10185     10197     10199     10189     10185     10197     10200
     10190     10189     10185     10193     10190     10189     10185     10197
     10191     10189     10185     10193     10191     10189     10185     10197
     10192     10189     10185     10193     10192     10189     10185     10197
     10193     10185     10186     10201     10193     10185     10197     10198
     10193     10185     10197     10199     10193     10185     10197     10200
     10194     10193     10185     10197     10195     10193     10185     10197
     10196     10193     10185     10197     10197     10185     10186     10201
     10201     10207     10204     10205     10201     10207     10204     10206
     10201     10207     10204     10208     10202     10201     10207     10204
     10203     10201     10207     10204     10204     10208     10209     10210
     10204     10208     10209     10211     10204     10208     10209     10212
     10205     10204     10208     10209     10206     10204     10208     10209
     10207     10204     10208     10209     10208     10209     10212     10213
     10208     10209     10212     10214     10208     10209     10212     10220
     10209     10212     10214     10215     10209     10212     10220     10221
     10209     10212     10220     10222     10209     10212     10220     10223
     10210     10209     10212     10213     10210     10209     10212     10214
     10210     10209     10212     10220     10211     10209     10212     10213
     10211     10209     10212     10214     10211     10209     10212     10220
     10212     10214     10215     10216     10212     10214     10215     10217
     10212     10220     10223     10224     10213     10212     10214     10215
     10213     10212     10220     10221     10213     10212     10220     10222
     10213     10212     10220     10223     10214     10212     10220     10221
     10214     10212     10220     10222     10214     10212     10220     10223
     10214     10215     10217     10218     10214     10215     10217     10219
     10214     10215     10217     10229     10215     10214     10212     10220
     10215     10217     10229     10230     10215     10217     10229     10231
     10215     10217     10229     10232     10216     10215     10217     10218
     10216     10215     10217     10219     10216     10215     10217     10229
     10217     10229     10232     10233     10217     10229     10232     10234
     10217     10229     10232     10235     10218     10217     10229     10230
     10218     10217     10229     10231     10218     10217     10229     10232
     10219     10217     10229     10230     10219     10217     10229     10231
     10219     10217     10229     10232     10220     10223     10224     10225
     10220     10223     10224     10226     10221     10220     10223     10224
     10222     10220     10223     10224     10223     10224     10226     10227
     10223     10224     10226     10228     10223     10224     10226     10276
     10224     10226     10276     10277     10224     10226     10276     10278
     10224     10226     10276     10279     10225     10224     10226     10227
     10225     10224     10226     10228     10225     10224     10226     10276
     10226     10276     10279     10280     10226     10276     10279     10281
     10226     10276     10279     10282     10227     10226     10276     10277
     10227     10226     10276     10278     10227     10226     10276     10279
     10228     10226     10276     10277     10228     10226     10276     10278
     10228     10226     10276     10279     10229     10232     10235     10236
     10229     10232     10235     10237     10229     10232     10235     10238
     10230     10229     10232     10233     10230     10229     10232     10234
     10230     10229     10232     10235     10231     10229     10232     10233
     10231     10229     10232     10234     10231     10229     10232     10235
     10232     10235     10238     10239     10232     10235     10238     10240
     10232     10235     10238     10241     10233     10232     10235     10236
     10233     10232     10235     10237     10233     10232     10235     10238
     10234     10232     10235     10236     10234     10232     10235     10237
     10234     10232     10235     10238     10235     10238     10241     10242
     10235     10238     10241     10243     10235     10238     10241     10244
     10236     10235     10238     10239     10236     10235     10238     10240
     10236     10235     10238     10241     10237     10235     10238     10239
     10237     10235     10238     10240     10237     10235     10238     10241
     10238     10241     10244     10245     10238     10241     10244     10246
     10238     10241     10244     10247     10239     10238     10241     10242
     10239     10238     10241     10243     10239     10238     10241     10244
     10240     10238     10241     10242     10240     10238     10241     10243
     10240     10238     10241     10244     10241     10244     10247     10248
     10241     10244     10247     10249     10242     10241     10244     10245
     10242     10241     10244     10246     10242     10241     10244     10247
     10243     10241     10244     10245     10243     10241     10244     10246
     10243     10241     10244     10247     10244     10247     10249     10250
     10244     10247     10249     10251     10245     10244     10247     10248
     10245     10244     10247     10249     10246     10244     10247     10248
     10246     10244     10247     10249     10247     10249     10251     10252
     10247     10249     10251     10253     10247     10249     10251     10254
     10248     10247     10249     10250     10248     10247     10249     10251
     10249     10251     10254     10255     10249     10251     10254     10256
     10249     10251     10254     10257     10250     10249     10251     10252
     10250     10249     10251     10253     10250     10249     10251     10254
     10251     10254     10257     10258     10251     10254     10257     10259
     10251     10254     10257     10260     10252     10251     10254     10255
     10252     10251     10254     10256     10252     10251     10254     10257
     10253     10251     10254     10255     10253     10251     10254     10256
     10253     10251     10254     10257     10254     10257     10260     10261
     10254     10257     10260     10262     10254     10257     10260     10263
     10255     10254     10257     10258     10255     10254     10257     10259
     10255     10254     10257     10260     10256     10254     10257     10258
     10256     10254     10257     10259     10256     10254     10257     10260
     10257     10260     10263     10264     10257     10260     10263     10265
     10257     10260     10263     10266     10258     10257     10260     10261
     10258     10257     10260     10262     10258     10257     10260     10263
     10259     10257     10260     10261     10259     10257     10260     10262
     10259     10257     10260     10263     10260     10263     10266     10267
     10260     10263     10266     10268     10260     10263     10266     10269
     10261     10260     10263     10264     10261     10260     10263     10265
     10261     10260     10263     10266     10262     10260     10263     10264
     10262     10260     10263     10265     10262     10260     10263     10266
     10263     10266     10269     10270     10263     10266     10269     10271
     10263     10266     10269     10272     10264     10263     10266     10267
     10264     10263     10266     10268     10264     10263     10266     10269
     10265     10263     10266     10267     10265     10263     10266     10268
     10265     10263     10266     10269     10266     10269     10272     10273
     10266     10269     10272     10274     10266     10269     10272     10275
     10267     10266     10269     10270     10267     10266     10269     10271
     10267     10266     10269     10272     10268     10266     10269     10270
     10268     10266     10269     10271     10268     10266     10269     10272
     10270     10269     10272     10273     10270     10269     10272     10274
     10270     10269     10272     10275     10271     10269     10272     10273
     10271     10269     10272     10274     10271     10269     10272     10275
     10276     10279     10282     10283     10276     10279     10282     10284
     10276     10279     10282     10285     10277     10276     10279     10280
     10277     10276     10279     10281     10277     10276     10279     10282
     10278     10276     10279     10280     10278     10276     10279     10281
     10278     10276     10279     10282     10279     10282     10285     10286
     10279     10282     10285     10287     10279     10282     10285     10288
     10280     10279     10282     10283     10280     10279     10282     10284
     10280     10279     10282     10285     10281     10279     10282     10283
     10281     10279     10282     10284     10281     10279     10282     10285
     10282     10285     10288     10289     10282     10285     10288     10290
     10282     10285     10288     10291     10283     10282     10285     10286
     10283     10282     10285     10287     10283     10282     10285     10288
     10284     10282     10285     10286     10284     10282     10285     10287
     10284     10282     10285     10288     10285     10288     10291     10292
     10285     10288     10291     10293     10285     10288     10291     10294
     10286     10285     10288     10289     10286     10285     10288     10290
     10286     10285     10288     10291     10287     10285     10288     10289
     10287     10285     10288     10290     10287     10285     10288     10291
     10288     10291     10294     10295     10288     10291     10294     10296
     10288     10291     10294     10297     10289     10288     10291     10292
     10289     10288     10291     10293     10289     10288     10291     10294
     10290     10288     10291     10292     10290     10288     10291     10293
     10290     10288     10291     10294     10291     10294     10297     10298
     10291     10294     10297     10299     10291     10294     10297     10300
     10292     10291     10294     10295     10292     10291     10294     10296
     10292     10291     10294     10297     10293     10291     10294     10295
     10293     10291     10294     10296     10293     10291     10294     10297
     10294     10297     10300     10301     10294     10297     10300     10302
     10294     10297     10300     10303     10295     10294     10297     10298
     10295     10294     10297     10299     10295     10294     10297     10300
     10296     10294     10297     10298     10296     10294     10297     10299
     10296     10294     10297     10300     10297     10300     10303     10304
     10297     10300     10303     10305     10297     10300     10303     10306
     10298     10297     10300     10301     10298     10297     10300     10302
     10298     10297     10300     10303     10299     10297     10300     10301
     10299     10297     10300     10302     10299     10297     10300     10303
     10300     10303     10306     10307     10300     10303     10306     10308
     10300     10303     10306     10309     10301     10300     10303     10304
     10301     10300     10303     10305     10301     10300     10303     10306
     10302     10300     10303     10304     10302     10300     10303     10305
     10302     10300     10303     10306     10303     10306     10309     10310
     10303     10306     10309     10311     10303     10306     10309     10312
     10304     10303     10306     10307     10304     10303     10306     10308
     10304     10303     10306     10309     10305     10303     10306     10307
     10305     10303     10306     10308     10305     10303     10306     10309
     10306     10309     10312     10313     10306     10309     10312     10314
     10306     10309     10312     10315     10307     10306     10309     10310
     10307     10306     10309     10311     10307     10306     10309     10312
     10308     10306     10309     10310     10308     10306     10309     10311
     10308     10306     10309     10312     10309     10312     10315     10316
     10309     10312     10315     10317     10309     10312     10315     10318
     10310     10309     10312     10313     10310     10309     10312     10314
     10310     10309     10312     10315     10311     10309     10312     10313
     10311     10309     10312     10314     10311     10309     10312     10315
     10313     10312     10315     10316     10313     10312     10315     10317
     10313     10312     10315     10318     10314     10312     10315     10316
     10314     10312     10315     10317     10314     10312     10315     10318
     10319     10320     10335     10336     10319     10320     10335     10337
     10319     10320     10335     10341     10320     10319     10323     10324
     10320     10319     10323     10325     10320     10319     10323     10326
     10320     10319     10327     10328     10320     10319     10327     10329
     10320     10319     10327     10330     10320     10319     10331     10332
     10320     10319     10331     10333     10320     10319     10331     10334
     10320     10335     10341     10338     10321     10320     10319     10323
     10321     10320     10319     10327     10321     10320     10319     10331
     10321     10320     10335     10336     10321     10320     10335     10337
     10321     10320     10335     10341     10322     10320     10319     10323
     10322     10320     10319     10327     10322     10320     10319     10331
     10322     10320     10335     10336     10322     10320     10335     10337
     10322     10320     10335     10341     10323     10319     10320     10335
     10323     10319     10327     10328     10323     10319     10327     10329
     10323     10319     10327     10330     10323     10319     10331     10332
     10323     10319     10331     10333     10323     10319     10331     10334
     10324     10323     10319     10327     10324     10323     10319     10331
     10325     10323     10319     10327     10325     10323     10319     10331
     10326     10323     10319     10327     10326     10323     10319     10331
     10327     10319     10320     10335     10327     10319     10331     10332
     10327     10319     10331     10333     10327     10319     10331     10334
     10328     10327     10319     10331     10329     10327     10319     10331
     10330     10327     10319     10331     10331     10319     10320     10335
     10335     10341     10338     10339     10335     10341     10338     10340
     10335     10341     10338     10342     10336     10335     10341     10338
     10337     10335     10341     10338     10338     10342     10343     10344
     10338     10342     10343     10345     10338     10342     10343     10346
     10339     10338     10342     10343     10340     10338     10342     10343
     10341     10338     10342     10343     10342     10343     10346     10347
     10342     10343     10346     10348     10342     10343     10346     10354
     10343     10346     10348     10349     10343     10346     10354     10355
     10343     10346     10354     10356     10343     10346     10354     10357
     10344     10343     10346     10347     10344     10343     10346     10348
     10344     10343     10346     10354     10345     10343     10346     10347
     10345     10343     10346     10348     10345     10343     10346     10354
     10346     10348     10349     10350     10346     10348     10349     10351
     10346     10354     10357     10358     10347     10346     10348     10349
     10347     10346     10354     10355     10347     10346     10354     10356
     10347     10346     10354     10357     10348     10346     10354     10355
     10348     10346     10354     10356     10348     10346     10354     10357
     10348     10349     10351     10352     10348     10349     10351     10353
     10348     10349     10351     10363     10349     10348     10346     10354
     10349     10351     10363     10364     10349     10351     10363     10365
     10349     10351     10363     10366     10350     10349     10351     10352
     10350     10349     10351     10353     10350     10349     10351     10363
     10351     10363     10366     10367     10351     10363     10366     10368
     10351     10363     10366     10369     10352     10351     10363     10364
     10352     10351     10363     10365     10352     10351     10363     10366
     10353     10351     10363     10364     10353     10351     10363     10365
     10353     10351     10363     10366     10354     10357     10358     10359
     10354     10357     10358     10360     10355     10354     10357     10358
     10356     10354     10357     10358     10357     10358     10360     10361
     10357     10358     10360     10362     10357     10358     10360     10410
     10358     10360     10410     10411     10358     10360     10410     10412
     10358     10360     10410     10413     10359     10358     10360     10361
     10359     10358     10360     10362     10359     10358     10360     10410
     10360     10410     10413     10414     10360     10410     10413     10415
     10360     10410     10413     10416     10361     10360     10410     10411
     10361     10360     10410     10412     10361     10360     10410     10413
     10362     10360     10410     10411     10362     10360     10410     10412
     10362     10360     10410     10413     10363     10366     10369     10370
     10363     10366     10369     10371     10363     10366     10369     10372
     10364     10363     10366     10367     10364     10363     10366     10368
     10364     10363     10366     10369     10365     10363     10366     10367
     10365     10363     10366     10368     10365     10363     10366     10369
     10366     10369     10372     10373     10366     10369     10372     10374
     10366     10369     10372     10375     10367     10366     10369     10370
     10367     10366     10369     10371     10367     10366     10369     10372
     10368     10366     10369     10370     10368     10366     10369     10371
     10368     10366     10369     10372     10369     10372     10375     10376
     10369     10372     10375     10377     10369     10372     10375     10378
     10370     10369     10372     10373     10370     10369     10372     10374
     10370     10369     10372     10375     10371     10369     10372     10373
     10371     10369     10372     10374     10371     10369     10372     10375
     10372     10375     10378     10379     10372     10375     10378     10380
     10372     10375     10378     10381     10373     10372     10375     10376
     10373     10372     10375     10377     10373     10372     10375     10378
     10374     10372     10375     10376     10374     10372     10375     10377
     10374     10372     10375     10378     10375     10378     10381     10382
     10375     10378     10381     10383     10376     10375     10378     10379
     10376     10375     10378     10380     10376     10375     10378     10381
     10377     10375     10378     10379     10377     10375     10378     10380
     10377     10375     10378     10381     10378     10381     10383     10384
     10378     10381     10383     10385     10379     10378     10381     10382
     10379     10378     10381     10383     10380     10378     10381     10382
     10380     10378     10381     10383     10381     10383     10385     10386
     10381     10383     10385     10387     10381     10383     10385     10388
     10382     10381     10383     10384     10382     10381     10383     10385
     10383     10385     10388     10389     10383     10385     10388     10390
     10383     10385     10388     10391     10384     10383     10385     10386
     10384     10383     10385     10387     10384     10383     10385     10388
     10385     10388     10391     10392     10385     10388     10391     10393
     10385     10388     10391     10394     10386     10385     10388     10389
     10386     10385     10388     10390     10386     10385     10388     10391
     10387     10385     10388     10389     10387     10385     10388     10390
     10387     10385     10388     10391     10388     10391     10394     10395
     10388     10391     10394     10396     10388     10391     10394     10397
     10389     10388     10391     10392     10389     10388     10391     10393
     10389     10388     10391     10394     10390     10388     10391     10392
     10390     10388     10391     10393     10390     10388     10391     10394
     10391     10394     10397     10398     10391     10394     10397     10399
     10391     10394     10397     10400     10392     10391     10394     10395
     10392     10391     10394     10396     10392     10391     10394     10397
     10393     10391     10394     10395     10393     10391     10394     10396
     10393     10391     10394     10397     10394     10397     10400     10401
     10394     10397     10400     10402     10394     10397     10400     10403
     10395     10394     10397     10398     10395     10394     10397     10399
     10395     10394     10397     10400     10396     10394     10397     10398
     10396     10394     10397     10399     10396     10394     10397     10400
     10397     10400     10403     10404     10397     10400     10403     10405
     10397     10400     10403     10406     10398     10397     10400     10401
     10398     10397     10400     10402     10398     10397     10400     10403
     10399     10397     10400     10401     10399     10397     10400     10402
     10399     10397     10400     10403     10400     10403     10406     10407
     10400     10403     10406     10408     10400     10403     10406     10409
     10401     10400     10403     10404     10401     10400     10403     10405
     10401     10400     10403     10406     10402     10400     10403     10404
     10402     10400     10403     10405     10402     10400     10403     10406
     10404     10403     10406     10407     10404     10403     10406     10408
     10404     10403     10406     10409     10405     10403     10406     10407
     10405     10403     10406     10408     10405     10403     10406     10409
     10410     10413     10416     10417     10410     10413     10416     10418
     10410     10413     10416     10419     10411     10410     10413     10414
     10411     10410     10413     10415     10411     10410     10413     10416
     10412     10410     10413     10414     10412     10410     10413     10415
     10412     10410     10413     10416     10413     10416     10419     10420
     10413     10416     10419     10421     10413     10416     10419     10422
     10414     10413     10416     10417     10414     10413     10416     10418
     10414     10413     10416     10419     10415     10413     10416     10417
     10415     10413     10416     10418     10415     10413     10416     10419
     10416     10419     10422     10423     10416     10419     10422     10424
     10416     10419     10422     10425     10417     10416     10419     10420
     10417     10416     10419     10421     10417     10416     10419     10422
     10418     10416     10419     10420     10418     10416     10419     10421
     10418     10416     10419     10422     10419     10422     10425     10426
     10419     10422     10425     10427     10419     10422     10425     10428
     10420     10419     10422     10423     10420     10419     10422     10424
     10420     10419     10422     10425     10421     10419     10422     10423
     10421     10419     10422     10424     10421     10419     10422     10425
     10422     10425     10428     10429     10422     10425     10428     10430
     10422     10425     10428     10431     10423     10422     10425     10426
     10423     10422     10425     10427     10423     10422     10425     10428
     10424     10422     10425     10426     10424     10422     10425     10427
     10424     10422     10425     10428     10425     10428     10431     10432
     10425     10428     10431     10433     10425     10428     10431     10434
     10426     10425     10428     10429     10426     10425     10428     10430
     10426     10425     10428     10431     10427     10425     10428     10429
     10427     10425     10428     10430     10427     10425     10428     10431
     10428     10431     10434     10435     10428     10431     10434     10436
     10428     10431     10434     10437     10429     10428     10431     10432
     10429     10428     10431     10433     10429     10428     10431     10434
     10430     10428     10431     10432     10430     10428     10431     10433
     10430     10428     10431     10434     10431     10434     10437     10438
     10431     10434     10437     10439     10431     10434     10437     10440
     10432     10431     10434     10435     10432     10431     10434     10436
     10432     10431     10434     10437     10433     10431     10434     10435
     10433     10431     10434     10436     10433     10431     10434     10437
     10434     10437     10440     10441     10434     10437     10440     10442
     10434     10437     10440     10443     10435     10434     10437     10438
     10435     10434     10437     10439     10435     10434     10437     10440
     10436     10434     10437     10438     10436     10434     10437     10439
     10436     10434     10437     10440     10437     10440     10443     10444
     10437     10440     10443     10445     10437     10440     10443     10446
     10438     10437     10440     10441     10438     10437     10440     10442
     10438     10437     10440     10443     10439     10437     10440     10441
     10439     10437     10440     10442     10439     10437     10440     10443
     10440     10443     10446     10447     10440     10443     10446     10448
     10440     10443     10446     10449     10441     10440     10443     10444
     10441     10440     10443     10445     10441     10440     10443     10446
     10442     10440     10443     10444     10442     10440     10443     10445
     10442     10440     10443     10446     10443     10446     10449     10450
     10443     10446     10449     10451     10443     10446     10449     10452
     10444     10443     10446     10447     10444     10443     10446     10448
     10444     10443     10446     10449     10445     10443     10446     10447
     10445     10443     10446     10448     10445     10443     10446     10449
     10447     10446     10449     10450     10447     10446     10449     10451
     10447     10446     10449     10452     10448     10446     10449     10450
     10448     10446     10449     10451     10448     10446     10449     10452
     10453     10454     10469     10470     10453     10454     10469     10471
     10453     10454     10469     10475     10454     10453     10457     10458
     10454     10453     10457     10459     10454     10453     10457     10460
     10454     10453     10461     10462     10454     10453     10461     10463
     10454     10453     10461     10464     10454     10453     10465     10466
     10454     10453     10465     10467     10454     10453     10465     10468
     10454     10469     10475     10472     10455     10454     10453     10457
     10455     10454     10453     10461     10455     10454     10453     10465
     10455     10454     10469     10470     10455     10454     10469     10471
     10455     10454     10469     10475     10456     10454     10453     10457
     10456     10454     10453     10461     10456     10454     10453     10465
     10456     10454     10469     10470     10456     10454     10469     10471
     10456     10454     10469     10475     10457     10453     10454     10469
     10457     10453     10461     10462     10457     10453     10461     10463
     10457     10453     10461     10464     10457     10453     10465     10466
     10457     10453     10465     10467     10457     10453     10465     10468
     10458     10457     10453     10461     10458     10457     10453     10465
     10459     10457     10453     10461     10459     10457     10453     10465
     10460     10457     10453     10461     10460     10457     10453     10465
     10461     10453     10454     10469     10461     10453     10465     10466
     10461     10453     10465     10467     10461     10453     10465     10468
     10462     10461     10453     10465     10463     10461     10453     10465
     10464     10461     10453     10465     10465     10453     10454     10469
     10469     10475     10472     10473     10469     10475     10472     10474
     10469     10475     10472     10476     10470     10469     10475     10472
     10471     10469     10475     10472     10472     10476     10477     10478
     10472     10476     10477     10479     10472     10476     10477     10480
     10473     10472     10476     10477     10474     10472     10476     10477
     10475     10472     10476     10477     10476     10477     10480     10481
     10476     10477     10480     10482     10476     10477     10480     10488
     10477     10480     10482     10483     10477     10480     10488     10489
     10477     10480     10488     10490     10477     10480     10488     10491
     10478     10477     10480     10481     10478     10477     10480     10482
     10478     10477     10480     10488     10479     10477     10480     10481
     10479     10477     10480     10482     10479     10477     10480     10488
     10480     10482     10483     10484     10480     10482     10483     10485
     10480     10488     10491     10492     10481     10480     10482     10483
     10481     10480     10488     10489     10481     10480     10488     10490
     10481     10480     10488     10491     10482     10480     10488     10489
     10482     10480     10488     10490     10482     10480     10488     10491
     10482     10483     10485     10486     10482     10483     10485     10487
     10482     10483     10485     10497     10483     10482     10480     10488
     10483     10485     10497     10498     10483     10485     10497     10499
     10483     10485     10497     10500     10484     10483     10485     10486
     10484     10483     10485     10487     10484     10483     10485     10497
     10485     10497     10500     10501     10485     10497     10500     10502
     10485     10497     10500     10503     10486     10485     10497     10498
     10486     10485     10497     10499     10486     10485     10497     10500
     10487     10485     10497     10498     10487     10485     10497     10499
     10487     10485     10497     10500     10488     10491     10492     10493
     10488     10491     10492     10494     10489     10488     10491     10492
     10490     10488     10491     10492     10491     10492     10494     10495
     10491     10492     10494     10496     10491     10492     10494     10544
     10492     10494     10544     10545     10492     10494     10544     10546
     10492     10494     10544     10547     10493     10492     10494     10495
     10493     10492     10494     10496     10493     10492     10494     10544
     10494     10544     10547     10548     10494     10544     10547     10549
     10494     10544     10547     10550     10495     10494     10544     10545
     10495     10494     10544     10546     10495     10494     10544     10547
     10496     10494     10544     10545     10496     10494     10544     10546
     10496     10494     10544     10547     10497     10500     10503     10504
     10497     10500     10503     10505     10497     10500     10503     10506
     10498     10497     10500     10501     10498     10497     10500     10502
     10498     10497     10500     10503     10499     10497     10500     10501
     10499     10497     10500     10502     10499     10497     10500     10503
     10500     10503     10506     10507     10500     10503     10506     10508
     10500     10503     10506     10509     10501     10500     10503     10504
     10501     10500     10503     10505     10501     10500     10503     10506
     10502     10500     10503     10504     10502     10500     10503     10505
     10502     10500     10503     10506     10503     10506     10509     10510
     10503     10506     10509     10511     10503     10506     10509     10512
     10504     10503     10506     10507     10504     10503     10506     10508
     10504     10503     10506     10509     10505     10503     10506     10507
     10505     10503     10506     10508     10505     10503     10506     10509
     10506     10509     10512     10513     10506     10509     10512     10514
     10506     10509     10512     10515     10507     10506     10509     10510
     10507     10506     10509     10511     10507     10506     10509     10512
     10508     10506     10509     10510     10508     10506     10509     10511
     10508     10506     10509     10512     10509     10512     10515     10516
     10509     10512     10515     10517     10510     10509     10512     10513
     10510     10509     10512     10514     10510     10509     10512     10515
     10511     10509     10512     10513     10511     10509     10512     10514
     10511     10509     10512     10515     10512     10515     10517     10518
     10512     10515     10517     10519     10513     10512     10515     10516
     10513     10512     10515     10517     10514     10512     10515     10516
     10514     10512     10515     10517     10515     10517     10519     10520
     10515     10517     10519     10521     10515     10517     10519     10522
     10516     10515     10517     10518     10516     10515     10517     10519
     10517     10519     10522     10523     10517     10519     10522     10524
     10517     10519     10522     10525     10518     10517     10519     10520
     10518     10517     10519     10521     10518     10517     10519     10522
     10519     10522     10525     10526     10519     10522     10525     10527
     10519     10522     10525     10528     10520     10519     10522     10523
     10520     10519     10522     10524     10520     10519     10522     10525
     10521     10519     10522     10523     10521     10519     10522     10524
     10521     10519     10522     10525     10522     10525     10528     10529
     10522     10525     10528     10530     10522     10525     10528     10531
     10523     10522     10525     10526     10523     10522     10525     10527
     10523     10522     10525     10528     10524     10522     10525     10526
     10524     10522     10525     10527     10524     10522     10525     10528
     10525     10528     10531     10532     10525     10528     10531     10533
     10525     10528     10531     10534     10526     10525     10528     10529
     10526     10525     10528     10530     10526     10525     10528     10531
     10527     10525     10528     10529     10527     10525     10528     10530
     10527     10525     10528     10531     10528     10531     10534     10535
     10528     10531     10534     10536     10528     10531     10534     10537
     10529     10528     10531     10532     10529     10528     10531     10533
     10529     10528     10531     10534     10530     10528     10531     10532
     10530     10528     10531     10533     10530     10528     10531     10534
     10531     10534     10537     10538     10531     10534     10537     10539
     10531     10534     10537     10540     10532     10531     10534     10535
     10532     10531     10534     10536     10532     10531     10534     10537
     10533     10531     10534     10535     10533     10531     10534     10536
     10533     10531     10534     10537     10534     10537     10540     10541
     10534     10537     10540     10542     10534     10537     10540     10543
     10535     10534     10537     10538     10535     10534     10537     10539
     10535     10534     10537     10540     10536     10534     10537     10538
     10536     10534     10537     10539     10536     10534     10537     10540
     10538     10537     10540     10541     10538     10537     10540     10542
     10538     10537     10540     10543     10539     10537     10540     10541
     10539     10537     10540     10542     10539     10537     10540     10543
     10544     10547     10550     10551     10544     10547     10550     10552
     10544     10547     10550     10553     10545     10544     10547     10548
     10545     10544     10547     10549     10545     10544     10547     10550
     10546     10544     10547     10548     10546     10544     10547     10549
     10546     10544     10547     10550     10547     10550     10553     10554
     10547     10550     10553     10555     10547     10550     10553     10556
     10548     10547     10550     10551     10548     10547     10550     10552
     10548     10547     10550     10553     10549     10547     10550     10551
     10549     10547     10550     10552     10549     10547     10550     10553
     10550     10553     10556     10557     10550     10553     10556     10558
     10550     10553     10556     10559     10551     10550     10553     10554
     10551     10550     10553     10555     10551     10550     10553     10556
     10552     10550     10553     10554     10552     10550     10553     10555
     10552     10550     10553     10556     10553     10556     10559     10560
     10553     10556     10559     10561     10553     10556     10559     10562
     10554     10553     10556     10557     10554     10553     10556     10558
     10554     10553     10556     10559     10555     10553     10556     10557
     10555     10553     10556     10558     10555     10553     10556     10559
     10556     10559     10562     10563     10556     10559     10562     10564
     10556     10559     10562     10565     10557     10556     10559     10560
     10557     10556     10559     10561     10557     10556     10559     10562
     10558     10556     10559     10560     10558     10556     10559     10561
     10558     10556     10559     10562     10559     10562     10565     10566
     10559     10562     10565     10567     10559     10562     10565     10568
     10560     10559     10562     10563     10560     10559     10562     10564
     10560     10559     10562     10565     10561     10559     10562     10563
     10561     10559     10562     10564     10561     10559     10562     10565
     10562     10565     10568     10569     10562     10565     10568     10570
     10562     10565     10568     10571     10563     10562     10565     10566
     10563     10562     10565     10567     10563     10562     10565     10568
     10564     10562     10565     10566     10564     10562     10565     10567
     10564     10562     10565     10568     10565     10568     10571     10572
     10565     10568     10571     10573     10565     10568     10571     10574
     10566     10565     10568     10569     10566     10565     10568     10570
     10566     10565     10568     10571     10567     10565     10568     10569
     10567     10565     10568     10570     10567     10565     10568     10571
     10568     10571     10574     10575     10568     10571     10574     10576
     10568     10571     10574     10577     10569     10568     10571     10572
     10569     10568     10571     10573     10569     10568     10571     10574
     10570     10568     10571     10572     10570     10568     10571     10573
     10570     10568     10571     10574     10571     10574     10577     10578
     10571     10574     10577     10579     10571     10574     10577     10580
     10572     10571     10574     10575     10572     10571     10574     10576
     10572     10571     10574     10577     10573     10571     10574     10575
     10573     10571     10574     10576     10573     10571     10574     10577
     10574     10577     10580     10581     10574     10577     10580     10582
     10574     10577     10580     10583     10575     10574     10577     10578
     10575     10574     10577     10579     10575     10574     10577     10580
     10576     10574     10577     10578     10576     10574     10577     10579
     10576     10574     10577     10580     10577     10580     10583     10584
     10577     10580     10583     10585     10577     10580     10583     10586
     10578     10577     10580     10581     10578     10577     10580     10582
     10578     10577     10580     10583     10579     10577     10580     10581
     10579     10577     10580     10582     10579     10577     10580     10583
     10581     10580     10583     10584     10581     10580     10583     10585
     10581     10580     10583     10586     10582     10580     10583     10584
     10582     10580     10583     10585     10582     10580     10583     10586
     10587     10588     10603     10604     10587     10588     10603     10605
     10587     10588     10603     10609     10588     10587     10591     10592
     10588     10587     10591     10593     10588     10587     10591     10594
     10588     10587     10595     10596     10588     10587     10595     10597
     10588     10587     10595     10598     10588     10587     10599     10600
     10588     10587     10599     10601     10588     10587     10599     10602
     10588     10603     10609     10606     10589     10588     10587     10591
     10589     10588     10587     10595     10589     10588     10587     10599
     10589     10588     10603     10604     10589     10588     10603     10605
     10589     10588     10603     10609     10590     10588     10587     10591
     10590     10588     10587     10595     10590     10588     10587     10599
     10590     10588     10603     10604     10590     10588     10603     10605
     10590     10588     10603     10609     10591     10587     10588     10603
     10591     10587     10595     10596     10591     10587     10595     10597
     10591     10587     10595     10598     10591     10587     10599     10600
     10591     10587     10599     10601     10591     10587     10599     10602
     10592     10591     10587     10595     10592     10591     10587     10599
     10593     10591     10587     10595     10593     10591     10587     10599
     10594     10591     10587     10595     10594     10591     10587     10599
     10595     10587     10588     10603     10595     10587     10599     10600
     10595     10587     10599     10601     10595     10587     10599     10602
     10596     10595     10587     10599     10597     10595     10587     10599
     10598     10595     10587     10599     10599     10587     10588     10603
     10603     10609     10606     10607     10603     10609     10606     10608
     10603     10609     10606     10610     10604     10603     10609     10606
     10605     10603     10609     10606     10606     10610     10611     10612
     10606     10610     10611     10613     10606     10610     10611     10614
     10607     10606     10610     10611     10608     10606     10610     10611
     10609     10606     10610     10611     10610     10611     10614     10615
     10610     10611     10614     10616     10610     10611     10614     10622
     10611     10614     10616     10617     10611     10614     10622     10623
     10611     10614     10622     10624     10611     10614     10622     10625
     10612     10611     10614     10615     10612     10611     10614     10616
     10612     10611     10614     10622     10613     10611     10614     10615
     10613     10611     10614     10616     10613     10611     10614     10622
     10614     10616     10617     10618     10614     10616     10617     10619
     10614     10622     10625     10626     10615     10614     10616     10617
     10615     10614     10622     10623     10615     10614     10622     10624
     10615     10614     10622     10625     10616     10614     10622     10623
     10616     10614     10622     10624     10616     10614     10622     10625
     10616     10617     10619     10620     10616     10617     10619     10621
     10616     10617     10619     10631     10617     10616     10614     10622
     10617     10619     10631     10632     10617     10619     10631     10633
     10617     10619     10631     10634     10618     10617     10619     10620
     10618     10617     10619     10621     10618     10617     10619     10631
     10619     10631     10634     10635     10619     10631     10634     10636
     10619     10631     10634     10637     10620     10619     10631     10632
     10620     10619     10631     10633     10620     10619     10631     10634
     10621     10619     10631     10632     10621     10619     10631     10633
     10621     10619     10631     10634     10622     10625     10626     10627
     10622     10625     10626     10628     10623     10622     10625     10626
     10624     10622     10625     10626     10625     10626     10628     10629
     10625     10626     10628     10630     10625     10626     10628     10678
     10626     10628     10678     10679     10626     10628     10678     10680
     10626     10628     10678     10681     10627     10626     10628     10629
     10627     10626     10628     10630     10627     10626     10628     10678
     10628     10678     10681     10682     10628     10678     10681     10683
     10628     10678     10681     10684     10629     10628     10678     10679
     10629     10628     10678     10680     10629     10628     10678     10681
     10630     10628     10678     10679     10630     10628     10678     10680
     10630     10628     10678     10681     10631     10634     10637     10638
     10631     10634     10637     10639     10631     10634     10637     10640
     10632     10631     10634     10635     10632     10631     10634     10636
     10632     10631     10634     10637     10633     10631     10634     10635
     10633     10631     10634     10636     10633     10631     10634     10637
     10634     10637     10640     10641     10634     10637     10640     10642
     10634     10637     10640     10643     10635     10634     10637     10638
     10635     10634     10637     10639     10635     10634     10637     10640
     10636     10634     10637     10638     10636     10634     10637     10639
     10636     10634     10637     10640     10637     10640     10643     10644
     10637     10640     10643     10645     10637     10640     10643     10646
     10638     10637     10640     10641     10638     10637     10640     10642
     10638     10637     10640     10643     10639     10637     10640     10641
     10639     10637     10640     10642     10639     10637     10640     10643
     10640     10643     10646     10647     10640     10643     10646     10648
     10640     10643     10646     10649     10641     10640     10643     10644
     10641     10640     10643     10645     10641     10640     10643     10646
     10642     10640     10643     10644     10642     10640     10643     10645
     10642     10640     10643     10646     10643     10646     10649     10650
     10643     10646     10649     10651     10644     10643     10646     10647
     10644     10643     10646     10648     10644     10643     10646     10649
     10645     10643     10646     10647     10645     10643     10646     10648
     10645     10643     10646     10649     10646     10649     10651     10652
     10646     10649     10651     10653     10647     10646     10649     10650
     10647     10646     10649     10651     10648     10646     10649     10650
     10648     10646     10649     10651     10649     10651     10653     10654
     10649     10651     10653     10655     10649     10651     10653     10656
     10650     10649     10651     10652     10650     10649     10651     10653
     10651     10653     10656     10657     10651     10653     10656     10658
     10651     10653     10656     10659     10652     10651     10653     10654
     10652     10651     10653     10655     10652     10651     10653     10656
     10653     10656     10659     10660     10653     10656     10659     10661
     10653     10656     10659     10662     10654     10653     10656     10657
     10654     10653     10656     10658     10654     10653     10656     10659
     10655     10653     10656     10657     10655     10653     10656     10658
     10655     10653     10656     10659     10656     10659     10662     10663
     10656     10659     10662     10664     10656     10659     10662     10665
     10657     10656     10659     10660     10657     10656     10659     10661
     10657     10656     10659     10662     10658     10656     10659     10660
     10658     10656     10659     10661     10658     10656     10659     10662
     10659     10662     10665     10666     10659     10662     10665     10667
     10659     10662     10665     10668     10660     10659     10662     10663
     10660     10659     10662     10664     10660     10659     10662     10665
     10661     10659     10662     10663     10661     10659     10662     10664
     10661     10659     10662     10665     10662     10665     10668     10669
     10662     10665     10668     10670     10662     10665     10668     10671
     10663     10662     10665     10666     10663     10662     10665     10667
     10663     10662     10665     10668     10664     10662     10665     10666
     10664     10662     10665     10667     10664     10662     10665     10668
     10665     10668     10671     10672     10665     10668     10671     10673
     10665     10668     10671     10674     10666     10665     10668     10669
     10666     10665     10668     10670     10666     10665     10668     10671
     10667     10665     10668     10669     10667     10665     10668     10670
     10667     10665     10668     10671     10668     10671     10674     10675
     10668     10671     10674     10676     10668     10671     10674     10677
     10669     10668     10671     10672     10669     10668     10671     10673
     10669     10668     10671     10674     10670     10668     10671     10672
     10670     10668     10671     10673     10670     10668     10671     10674
     10672     10671     10674     10675     10672     10671     10674     10676
     10672     10671     10674     10677     10673     10671     10674     10675
     10673     10671     10674     10676     10673     10671     10674     10677
     10678     10681     10684     10685     10678     10681     10684     10686
     10678     10681     10684     10687     10679     10678     10681     10682
     10679     10678     10681     10683     10679     10678     10681     10684
     10680     10678     10681     10682     10680     10678     10681     10683
     10680     10678     10681     10684     10681     10684     10687     10688
     10681     10684     10687     10689     10681     10684     10687     10690
     10682     10681     10684     10685     10682     10681     10684     10686
     10682     10681     10684     10687     10683     10681     10684     10685
     10683     10681     10684     10686     10683     10681     10684     10687
     10684     10687     10690     10691     10684     10687     10690     10692
     10684     10687     10690     10693     10685     10684     10687     10688
     10685     10684     10687     10689     10685     10684     10687     10690
     10686     10684     10687     10688     10686     10684     10687     10689
     10686     10684     10687     10690     10687     10690     10693     10694
     10687     10690     10693     10695     10687     10690     10693     10696
     10688     10687     10690     10691     10688     10687     10690     10692
     10688     10687     10690     10693     10689     10687     10690     10691
     10689     10687     10690     10692     10689     10687     10690     10693
     10690     10693     10696     10697     10690     10693     10696     10698
     10690     10693     10696     10699     10691     10690     10693     10694
     10691     10690     10693     10695     10691     10690     10693     10696
     10692     10690     10693     10694     10692     10690     10693     10695
     10692     10690     10693     10696     10693     10696     10699     10700
     10693     10696     10699     10701     10693     10696     10699     10702
     10694     10693     10696     10697     10694     10693     10696     10698
     10694     10693     10696     10699     10695     10693     10696     10697
     10695     10693     10696     10698     10695     10693     10696     10699
     10696     10699     10702     10703     10696     10699     10702     10704
     10696     10699     10702     10705     10697     10696     10699     10700
     10697     10696     10699     10701     10697     10696     10699     10702
     10698     10696     10699     10700     10698     10696     10699     10701
     10698     10696     10699     10702     10699     10702     10705     10706
     10699     10702     10705     10707     10699     10702     10705     10708
     10700     10699     10702     10703     10700     10699     10702     10704
     10700     10699     10702     10705     10701     10699     10702     10703
     10701     10699     10702     10704     10701     10699     10702     10705
     10702     10705     10708     10709     10702     10705     10708     10710
     10702     10705     10708     10711     10703     10702     10705     10706
     10703     10702     10705     10707     10703     10702     10705     10708
     10704     10702     10705     10706     10704     10702     10705     10707
     10704     10702     10705     10708     10705     10708     10711     10712
     10705     10708     10711     10713     10705     10708     10711     10714
     10706     10705     10708     10709     10706     10705     10708     10710
     10706     10705     10708     10711     10707     10705     10708     10709
     10707     10705     10708     10710     10707     10705     10708     10711
     10708     10711     10714     10715     10708     10711     10714     10716
     10708     10711     10714     10717     10709     10708     10711     10712
     10709     10708     10711     10713     10709     10708     10711     10714
     10710     10708     10711     10712     10710     10708     10711     10713
     10710     10708     10711     10714     10711     10714     10717     10718
     10711     10714     10717     10719     10711     10714     10717     10720
     10712     10711     10714     10715     10712     10711     10714     10716
     10712     10711     10714     10717     10713     10711     10714     10715
     10713     10711     10714     10716     10713     10711     10714     10717
     10715     10714     10717     10718     10715     10714     10717     10719
     10715     10714     10717     10720     10716     10714     10717     10718
     10716     10714     10717     10719     10716     10714     10717     10720
     10721     10722     10737     10738     10721     10722     10737     10739
     10721     10722     10737     10743     10722     10721     10725     10726
     10722     10721     10725     10727     10722     10721     10725     10728
     10722     10721     10729     10730     10722     10721     10729     10731
     10722     10721     10729     10732     10722     10721     10733     10734
     10722     10721     10733     10735     10722     10721     10733     10736
     10722     10737     10743     10740     10723     10722     10721     10725
     10723     10722     10721     10729     10723     10722     10721     10733
     10723     10722     10737     10738     10723     10722     10737     10739
     10723     10722     10737     10743     10724     10722     10721     10725
     10724     10722     10721     10729     10724     10722     10721     10733
     10724     10722     10737     10738     10724     10722     10737     10739
     10724     10722     10737     10743     10725     10721     10722     10737
     10725     10721     10729     10730     10725     10721     10729     10731
     10725     10721     10729     10732     10725     10721     10733     10734
     10725     10721     10733     10735     10725     10721     10733     10736
     10726     10725     10721     10729     10726     10725     10721     10733
     10727     10725     10721     10729     10727     10725     10721     10733
     10728     10725     10721     10729     10728     10725     10721     10733
     10729     10721     10722     10737     10729     10721     10733     10734
     10729     10721     10733     10735     10729     10721     10733     10736
     10730     10729     10721     10733     10731     10729     10721     10733
     10732     10729     10721     10733     10733     10721     10722     10737
     10737     10743     10740     10741     10737     10743     10740     10742
     10737     10743     10740     10744     10738     10737     10743     10740
     10739     10737     10743     10740     10740     10744     10745     10746
     10740     10744     10745     10747     10740     10744     10745     10748
     10741     10740     10744     10745     10742     10740     10744     10745
     10743     10740     10744     10745     10744     10745     10748     10749
     10744     10745     10748     10750     10744     10745     10748     10756
     10745     10748     10750     10751     10745     10748     10756     10757
     10745     10748     10756     10758     10745     10748     10756     10759
     10746     10745     10748     10749     10746     10745     10748     10750
     10746     10745     10748     10756     10747     10745     10748     10749
     10747     10745     10748     10750     10747     10745     10748     10756
     10748     10750     10751     10752     10748     10750     10751     10753
     10748     10756     10759     10760     10749     10748     10750     10751
     10749     10748     10756     10757     10749     10748     10756     10758
     10749     10748     10756     10759     10750     10748     10756     10757
     10750     10748     10756     10758     10750     10748     10756     10759
     10750     10751     10753     10754     10750     10751     10753     10755
     10750     10751     10753     10765     10751     10750     10748     10756
     10751     10753     10765     10766     10751     10753     10765     10767
     10751     10753     10765     10768     10752     10751     10753     10754
     10752     10751     10753     10755     10752     10751     10753     10765
     10753     10765     10768     10769     10753     10765     10768     10770
     10753     10765     10768     10771     10754     10753     10765     10766
     10754     10753     10765     10767     10754     10753     10765     10768
     10755     10753     10765     10766     10755     10753     10765     10767
     10755     10753     10765     10768     10756     10759     10760     10761
     10756     10759     10760     10762     10757     10756     10759     10760
     10758     10756     10759     10760     10759     10760     10762     10763
     10759     10760     10762     10764     10759     10760     10762     10812
     10760     10762     10812     10813     10760     10762     10812     10814
     10760     10762     10812     10815     10761     10760     10762     10763
     10761     10760     10762     10764     10761     10760     10762     10812
     10762     10812     10815     10816     10762     10812     10815     10817
     10762     10812     10815     10818     10763     10762     10812     10813
     10763     10762     10812     10814     10763     10762     10812     10815
     10764     10762     10812     10813     10764     10762     10812     10814
     10764     10762     10812     10815     10765     10768     10771     10772
     10765     10768     10771     10773     10765     10768     10771     10774
     10766     10765     10768     10769     10766     10765     10768     10770
     10766     10765     10768     10771     10767     10765     10768     10769
     10767     10765     10768     10770     10767     10765     10768     10771
     10768     10771     10774     10775     10768     10771     10774     10776
     10768     10771     10774     10777     10769     10768     10771     10772
     10769     10768     10771     10773     10769     10768     10771     10774
     10770     10768     10771     10772     10770     10768     10771     10773
     10770     10768     10771     10774     10771     10774     10777     10778
     10771     10774     10777     10779     10771     10774     10777     10780
     10772     10771     10774     10775     10772     10771     10774     10776
     10772     10771     10774     10777     10773     10771     10774     10775
     10773     10771     10774     10776     10773     10771     10774     10777
     10774     10777     10780     10781     10774     10777     10780     10782
     10774     10777     10780     10783     10775     10774     10777     10778
     10775     10774     10777     10779     10775     10774     10777     10780
     10776     10774     10777     10778     10776     10774     10777     10779
     10776     10774     10777     10780     10777     10780     10783     10784
     10777     10780     10783     10785     10778     10777     10780     10781
     10778     10777     10780     10782     10778     10777     10780     10783
     10779     10777     10780     10781     10779     10777     10780     10782
     10779     10777     10780     10783     10780     10783     10785     10786
     10780     10783     10785     10787     10781     10780     10783     10784
     10781     10780     10783     10785     10782     10780     10783     10784
     10782     10780     10783     10785     10783     10785     10787     10788
     10783     10785     10787     10789     10783     10785     10787     10790
     10784     10783     10785     10786     10784     10783     10785     10787
     10785     10787     10790     10791     10785     10787     10790     10792
     10785     10787     10790     10793     10786     10785     10787     10788
     10786     10785     10787     10789     10786     10785     10787     10790
     10787     10790     10793     10794     10787     10790     10793     10795
     10787     10790     10793     10796     10788     10787     10790     10791
     10788     10787     10790     10792     10788     10787     10790     10793
     10789     10787     10790     10791     10789     10787     10790     10792
     10789     10787     10790     10793     10790     10793     10796     10797
     10790     10793     10796     10798     10790     10793     10796     10799
     10791     10790     10793     10794     10791     10790     10793     10795
     10791     10790     10793     10796     10792     10790     10793     10794
     10792     10790     10793     10795     10792     10790     10793     10796
     10793     10796     10799     10800     10793     10796     10799     10801
     10793     10796     10799     10802     10794     10793     10796     10797
     10794     10793     10796     10798     10794     10793     10796     10799
     10795     10793     10796     10797     10795     10793     10796     10798
     10795     10793     10796     10799     10796     10799     10802     10803
     10796     10799     10802     10804     10796     10799     10802     10805
     10797     10796     10799     10800     10797     10796     10799     10801
     10797     10796     10799     10802     10798     10796     10799     10800
     10798     10796     10799     10801     10798     10796     10799     10802
     10799     10802     10805     10806     10799     10802     10805     10807
     10799     10802     10805     10808     10800     10799     10802     10803
     10800     10799     10802     10804     10800     10799     10802     10805
     10801     10799     10802     10803     10801     10799     10802     10804
     10801     10799     10802     10805     10802     10805     10808     10809
     10802     10805     10808     10810     10802     10805     10808     10811
     10803     10802     10805     10806     10803     10802     10805     10807
     10803     10802     10805     10808     10804     10802     10805     10806
     10804     10802     10805     10807     10804     10802     10805     10808
     10806     10805     10808     10809     10806     10805     10808     10810
     10806     10805     10808     10811     10807     10805     10808     10809
     10807     10805     10808     10810     10807     10805     10808     10811
     10812     10815     10818     10819     10812     10815     10818     10820
     10812     10815     10818     10821     10813     10812     10815     10816
     10813     10812     10815     10817     10813     10812     10815     10818
     10814     10812     10815     10816     10814     10812     10815     10817
     10814     10812     10815     10818     10815     10818     10821     10822
     10815     10818     10821     10823     10815     10818     10821     10824
     10816     10815     10818     10819     10816     10815     10818     10820
     10816     10815     10818     10821     10817     10815     10818     10819
     10817     10815     10818     10820     10817     10815     10818     10821
     10818     10821     10824     10825     10818     10821     10824     10826
     10818     10821     10824     10827     10819     10818     10821     10822
     10819     10818     10821     10823     10819     10818     10821     10824
     10820     10818     10821     10822     10820     10818     10821     10823
     10820     10818     10821     10824     10821     10824     10827     10828
     10821     10824     10827     10829     10821     10824     10827     10830
     10822     10821     10824     10825     10822     10821     10824     10826
     10822     10821     10824     10827     10823     10821     10824     10825
     10823     10821     10824     10826     10823     10821     10824     10827
     10824     10827     10830     10831     10824     10827     10830     10832
     10824     10827     10830     10833     10825     10824     10827     10828
     10825     10824     10827     10829     10825     10824     10827     10830
     10826     10824     10827     10828     10826     10824     10827     10829
     10826     10824     10827     10830     10827     10830     10833     10834
     10827     10830     10833     10835     10827     10830     10833     10836
     10828     10827     10830     10831     10828     10827     10830     10832
     10828     10827     10830     10833     10829     10827     10830     10831
     10829     10827     10830     10832     10829     10827     10830     10833
     10830     10833     10836     10837     10830     10833     10836     10838
     10830     10833     10836     10839     10831     10830     10833     10834
     10831     10830     10833     10835     10831     10830     10833     10836
     10832     10830     10833     10834     10832     10830     10833     10835
     10832     10830     10833     10836     10833     10836     10839     10840
     10833     10836     10839     10841     10833     10836     10839     10842
     10834     10833     10836     10837     10834     10833     10836     10838
     10834     10833     10836     10839     10835     10833     10836     10837
     10835     10833     10836     10838     10835     10833     10836     10839
     10836     10839     10842     10843     10836     10839     10842     10844
     10836     10839     10842     10845     10837     10836     10839     10840
     10837     10836     10839     10841     10837     10836     10839     10842
     10838     10836     10839     10840     10838     10836     10839     10841
     10838     10836     10839     10842     10839     10842     10845     10846
     10839     10842     10845     10847     10839     10842     10845     10848
     10840     10839     10842     10843     10840     10839     10842     10844
     10840     10839     10842     10845     10841     10839     10842     10843
     10841     10839     10842     10844     10841     10839     10842     10845
     10842     10845     10848     10849     10842     10845     10848     10850
     10842     10845     10848     10851     10843     10842     10845     10846
     10843     10842     10845     10847     10843     10842     10845     10848
     10844     10842     10845     10846     10844     10842     10845     10847
     10844     10842     10845     10848     10845     10848     10851     10852
     10845     10848     10851     10853     10845     10848     10851     10854
     10846     10845     10848     10849     10846     10845     10848     10850
     10846     10845     10848     10851     10847     10845     10848     10849
     10847     10845     10848     10850     10847     10845     10848     10851
     10849     10848     10851     10852     10849     10848     10851     10853
     10849     10848     10851     10854     10850     10848     10851     10852
     10850     10848     10851     10853     10850     10848     10851     10854
     10855     10856     10871     10872     10855     10856     10871     10873
     10855     10856     10871     10877     10856     10855     10859     10860
     10856     10855     10859     10861     10856     10855     10859     10862
     10856     10855     10863     10864     10856     10855     10863     10865
     10856     10855     10863     10866     10856     10855     10867     10868
     10856     10855     10867     10869     10856     10855     10867     10870
     10856     10871     10877     10874     10857     10856     10855     10859
     10857     10856     10855     10863     10857     10856     10855     10867
     10857     10856     10871     10872     10857     10856     10871     10873
     10857     10856     10871     10877     10858     10856     10855     10859
     10858     10856     10855     10863     10858     10856     10855     10867
     10858     10856     10871     10872     10858     10856     10871     10873
     10858     10856     10871     10877     10859     10855     10856     10871
     10859     10855     10863     10864     10859     10855     10863     10865
     10859     10855     10863     10866     10859     10855     10867     10868
     10859     10855     10867     10869     10859     10855     10867     10870
     10860     10859     10855     10863     10860     10859     10855     10867
     10861     10859     10855     10863     10861     10859     10855     10867
     10862     10859     10855     10863     10862     10859     10855     10867
     10863     10855     10856     10871     10863     10855     10867     10868
     10863     10855     10867     10869     10863     10855     10867     10870
     10864     10863     10855     10867     10865     10863     10855     10867
     10866     10863     10855     10867     10867     10855     10856     10871
     10871     10877     10874     10875     10871     10877     10874     10876
     10871     10877     10874     10878     10872     10871     10877     10874
     10873     10871     10877     10874     10874     10878     10879     10880
     10874     10878     10879     10881     10874     10878     10879     10882
     10875     10874     10878     10879     10876     10874     10878     10879
     10877     10874     10878     10879     10878     10879     10882     10883
     10878     10879     10882     10884     10878     10879     10882     10890
     10879     10882     10884     10885     10879     10882     10890     10891
     10879     10882     10890     10892     10879     10882     10890     10893
     10880     10879     10882     10883     10880     10879     10882     10884
     10880     10879     10882     10890     10881     10879     10882     10883
     10881     10879     10882     10884     10881     10879     10882     10890
     10882     10884     10885     10886     10882     10884     10885     10887
     10882     10890     10893     10894     10883     10882     10884     10885
     10883     10882     10890     10891     10883     10882     10890     10892
     10883     10882     10890     10893     10884     10882     10890     10891
     10884     10882     10890     10892     10884     10882     10890     10893
     10884     10885     10887     10888     10884     10885     10887     10889
     10884     10885     10887     10899     10885     10884     10882     10890
     10885     10887     10899     10900     10885     10887     10899     10901
     10885     10887     10899     10902     10886     10885     10887     10888
     10886     10885     10887     10889     10886     10885     10887     10899
     10887     10899     10902     10903     10887     10899     10902     10904
     10887     10899     10902     10905     10888     10887     10899     10900
     10888     10887     10899     10901     10888     10887     10899     10902
     10889     10887     10899     10900     10889     10887     10899     10901
     10889     10887     10899     10902     10890     10893     10894     10895
     10890     10893     10894     10896     10891     10890     10893     10894
     10892     10890     10893     10894     10893     10894     10896     10897
     10893     10894     10896     10898     10893     10894     10896     10946
     10894     10896     10946     10947     10894     10896     10946     10948
     10894     10896     10946     10949     10895     10894     10896     10897
     10895     10894     10896     10898     10895     10894     10896     10946
     10896     10946     10949     10950     10896     10946     10949     10951
     10896     10946     10949     10952     10897     10896     10946     10947
     10897     10896     10946     10948     10897     10896     10946     10949
     10898     10896     10946     10947     10898     10896     10946     10948
     10898     10896     10946     10949     10899     10902     10905     10906
     10899     10902     10905     10907     10899     10902     10905     10908
     10900     10899     10902     10903     10900     10899     10902     10904
     10900     10899     10902     10905     10901     10899     10902     10903
     10901     10899     10902     10904     10901     10899     10902     10905
     10902     10905     10908     10909     10902     10905     10908     10910
     10902     10905     10908     10911     10903     10902     10905     10906
     10903     10902     10905     10907     10903     10902     10905     10908
     10904     10902     10905     10906     10904     10902     10905     10907
     10904     10902     10905     10908     10905     10908     10911     10912
     10905     10908     10911     10913     10905     10908     10911     10914
     10906     10905     10908     10909     10906     10905     10908     10910
     10906     10905     10908     10911     10907     10905     10908     10909
     10907     10905     10908     10910     10907     10905     10908     10911
     10908     10911     10914     10915     10908     10911     10914     10916
     10908     10911     10914     10917     10909     10908     10911     10912
     10909     10908     10911     10913     10909     10908     10911     10914
     10910     10908     10911     10912     10910     10908     10911     10913
     10910     10908     10911     10914     10911     10914     10917     10918
     10911     10914     10917     10919     10912     10911     10914     10915
     10912     10911     10914     10916     10912     10911     10914     10917
     10913     10911     10914     10915     10913     10911     10914     10916
     10913     10911     10914     10917     10914     10917     10919     10920
     10914     10917     10919     10921     10915     10914     10917     10918
     10915     10914     10917     10919     10916     10914     10917     10918
     10916     10914     10917     10919     10917     10919     10921     10922
     10917     10919     10921     10923     10917     10919     10921     10924
     10918     10917     10919     10920     10918     10917     10919     10921
     10919     10921     10924     10925     10919     10921     10924     10926
     10919     10921     10924     10927     10920     10919     10921     10922
     10920     10919     10921     10923     10920     10919     10921     10924
     10921     10924     10927     10928     10921     10924     10927     10929
     10921     10924     10927     10930     10922     10921     10924     10925
     10922     10921     10924     10926     10922     10921     10924     10927
     10923     10921     10924     10925     10923     10921     10924     10926
     10923     10921     10924     10927     10924     10927     10930     10931
     10924     10927     10930     10932     10924     10927     10930     10933
     10925     10924     10927     10928     10925     10924     10927     10929
     10925     10924     10927     10930     10926     10924     10927     10928
     10926     10924     10927     10929     10926     10924     10927     10930
     10927     10930     10933     10934     10927     10930     10933     10935
     10927     10930     10933     10936     10928     10927     10930     10931
     10928     10927     10930     10932     10928     10927     10930     10933
     10929     10927     10930     10931     10929     10927     10930     10932
     10929     10927     10930     10933     10930     10933     10936     10937
     10930     10933     10936     10938     10930     10933     10936     10939
     10931     10930     10933     10934     10931     10930     10933     10935
     10931     10930     10933     10936     10932     10930     10933     10934
     10932     10930     10933     10935     10932     10930     10933     10936
     10933     10936     10939     10940     10933     10936     10939     10941
     10933     10936     10939     10942     10934     10933     10936     10937
     10934     10933     10936     10938     10934     10933     10936     10939
     10935     10933     10936     10937     10935     10933     10936     10938
     10935     10933     10936     10939     10936     10939     10942     10943
     10936     10939     10942     10944     10936     10939     10942     10945
     10937     10936     10939     10940     10937     10936     10939     10941
     10937     10936     10939     10942     10938     10936     10939     10940
     10938     10936     10939     10941     10938     10936     10939     10942
     10940     10939     10942     10943     10940     10939     10942     10944
     10940     10939     10942     10945     10941     10939     10942     10943
     10941     10939     10942     10944     10941     10939     10942     10945
     10946     10949     10952     10953     10946     10949     10952     10954
     10946     10949     10952     10955     10947     10946     10949     10950
     10947     10946     10949     10951     10947     10946     10949     10952
     10948     10946     10949     10950     10948     10946     10949     10951
     10948     10946     10949     10952     10949     10952     10955     10956
     10949     10952     10955     10957     10949     10952     10955     10958
     10950     10949     10952     10953     10950     10949     10952     10954
     10950     10949     10952     10955     10951     10949     10952     10953
     10951     10949     10952     10954     10951     10949     10952     10955
     10952     10955     10958     10959     10952     10955     10958     10960
     10952     10955     10958     10961     10953     10952     10955     10956
     10953     10952     10955     10957     10953     10952     10955     10958
     10954     10952     10955     10956     10954     10952     10955     10957
     10954     10952     10955     10958     10955     10958     10961     10962
     10955     10958     10961     10963     10955     10958     10961     10964
     10956     10955     10958     10959     10956     10955     10958     10960
     10956     10955     10958     10961     10957     10955     10958     10959
     10957     10955     10958     10960     10957     10955     10958     10961
     10958     10961     10964     10965     10958     10961     10964     10966
     10958     10961     10964     10967     10959     10958     10961     10962
     10959     10958     10961     10963     10959     10958     10961     10964
     10960     10958     10961     10962     10960     10958     10961     10963
     10960     10958     10961     10964     10961     10964     10967     10968
     10961     10964     10967     10969     10961     10964     10967     10970
     10962     10961     10964     10965     10962     10961     10964     10966
     10962     10961     10964     10967     10963     10961     10964     10965
     10963     10961     10964     10966     10963     10961     10964     10967
     10964     10967     10970     10971     10964     10967     10970     10972
     10964     10967     10970     10973     10965     10964     10967     10968
     10965     10964     10967     10969     10965     10964     10967     10970
     10966     10964     10967     10968     10966     10964     10967     10969
     10966     10964     10967     10970     10967     10970     10973     10974
     10967     10970     10973     10975     10967     10970     10973     10976
     10968     10967     10970     10971     10968     10967     10970     10972
     10968     10967     10970     10973     10969     10967     10970     10971
     10969     10967     10970     10972     10969     10967     10970     10973
     10970     10973     10976     10977     10970     10973     10976     10978
     10970     10973     10976     10979     10971     10970     10973     10974
     10971     10970     10973     10975     10971     10970     10973     10976
     10972     10970     10973     10974     10972     10970     10973     10975
     10972     10970     10973     10976     10973     10976     10979     10980
     10973     10976     10979     10981     10973     10976     10979     10982
     10974     10973     10976     10977     10974     10973     10976     10978
     10974     10973     10976     10979     10975     10973     10976     10977
     10975     10973     10976     10978     10975     10973     10976     10979
     10976     10979     10982     10983     10976     10979     10982     10984
     10976     10979     10982     10985     10977     10976     10979     10980
     10977     10976     10979     10981     10977     10976     10979     10982
     10978     10976     10979     10980     10978     10976     10979     10981
     10978     10976     10979     10982     10979     10982     10985     10986
     10979     10982     10985     10987     10979     10982     10985     10988
     10980     10979     10982     10983     10980     10979     10982     10984
     10980     10979     10982     10985     10981     10979     10982     10983
     10981     10979     10982     10984     10981     10979     10982     10985
     10983     10982     10985     10986     10983     10982     10985     10987
     10983     10982     10985     10988     10984     10982     10985     10986
     10984     10982     10985     10987     10984     10982     10985     10988
     10989     10990     11005     11006     10989     10990     11005     11007
     10989     10990     11005     11011     10990     10989     10993     10994
     10990     10989     10993     10995     10990     10989     10993     10996
     10990     10989     10997     10998     10990     10989     10997     10999
     10990     10989     10997     11000     10990     10989     11001     11002
     10990     10989     11001     11003     10990     10989     11001     11004
     10990     11005     11011     11008     10991     10990     10989     10993
     10991     10990     10989     10997     10991     10990     10989     11001
     10991     10990     11005     11006     10991     10990     11005     11007
     10991     10990     11005     11011     10992     10990     10989     10993
     10992     10990     10989     10997     10992     10990     10989     11001
     10992     10990     11005     11006     10992     10990     11005     11007
     10992     10990     11005     11011     10993     10989     10990     11005
     10993     10989     10997     10998     10993     10989     10997     10999
     10993     10989     10997     11000     10993     10989     11001     11002
     10993     10989     11001     11003     10993     10989     11001     11004
     10994     10993     10989     10997     10994     10993     10989     11001
     10995     10993     10989     10997     10995     10993     10989     11001
     10996     10993     10989     10997     10996     10993     10989     11001
     10997     10989     10990     11005     10997     10989     11001     11002
     10997     10989     11001     11003     10997     10989     11001     11004
     10998     10997     10989     11001     10999     10997     10989     11001
     11000     10997     10989     11001     11001     10989     10990     11005
     11005     11011     11008     11009     11005     11011     11008     11010
     11005     11011     11008     11012     11006     11005     11011     11008
     11007     11005     11011     11008     11008     11012     11013     11014
     11008     11012     11013     11015     11008     11012     11013     11016
     11009     11008     11012     11013     11010     11008     11012     11013
     11011     11008     11012     11013     11012     11013     11016     11017
     11012     11013     11016     11018     11012     11013     11016     11024
     11013     11016     11018     11019     11013     11016     11024     11025
     11013     11016     11024     11026     11013     11016     11024     11027
     11014     11013     11016     11017     11014     11013     11016     11018
     11014     11013     11016     11024     11015     11013     11016     11017
     11015     11013     11016     11018     11015     11013     11016     11024
     11016     11018     11019     11020     11016     11018     11019     11021
     11016     11024     11027     11028     11017     11016     11018     11019
     11017     11016     11024     11025     11017     11016     11024     11026
     11017     11016     11024     11027     11018     11016     11024     11025
     11018     11016     11024     11026     11018     11016     11024     11027
     11018     11019     11021     11022     11018     11019     11021     11023
     11018     11019     11021     11033     11019     11018     11016     11024
     11019     11021     11033     11034     11019     11021     11033     11035
     11019     11021     11033     11036     11020     11019     11021     11022
     11020     11019     11021     11023     11020     11019     11021     11033
     11021     11033     11036     11037     11021     11033     11036     11038
     11021     11033     11036     11039     11022     11021     11033     11034
     11022     11021     11033     11035     11022     11021     11033     11036
     11023     11021     11033     11034     11023     11021     11033     11035
     11023     11021     11033     11036     11024     11027     11028     11029
     11024     11027     11028     11030     11025     11024     11027     11028
     11026     11024     11027     11028     11027     11028     11030     11031
     11027     11028     11030     11032     11027     11028     11030     11080
     11028     11030     11080     11081     11028     11030     11080     11082
     11028     11030     11080     11083     11029     11028     11030     11031
     11029     11028     11030     11032     11029     11028     11030     11080
     11030     11080     11083     11084     11030     11080     11083     11085
     11030     11080     11083     11086     11031     11030     11080     11081
     11031     11030     11080     11082     11031     11030     11080     11083
     11032     11030     11080     11081     11032     11030     11080     11082
     11032     11030     11080     11083     11033     11036     11039     11040
     11033     11036     11039     11041     11033     11036     11039     11042
     11034     11033     11036     11037     11034     11033     11036     11038
     11034     11033     11036     11039     11035     11033     11036     11037
     11035     11033     11036     11038     11035     11033     11036     11039
     11036     11039     11042     11043     11036     11039     11042     11044
     11036     11039     11042     11045     11037     11036     11039     11040
     11037     11036     11039     11041     11037     11036     11039     11042
     11038     11036     11039     11040     11038     11036     11039     11041
     11038     11036     11039     11042     11039     11042     11045     11046
     11039     11042     11045     11047     11039     11042     11045     11048
     11040     11039     11042     11043     11040     11039     11042     11044
     11040     11039     11042     11045     11041     11039     11042     11043
     11041     11039     11042     11044     11041     11039     11042     11045
     11042     11045     11048     11049     11042     11045     11048     11050
     11042     11045     11048     11051     11043     11042     11045     11046
     11043     11042     11045     11047     11043     11042     11045     11048
     11044     11042     11045     11046     11044     11042     11045     11047
     11044     11042     11045     11048     11045     11048     11051     11052
     11045     11048     11051     11053     11046     11045     11048     11049
     11046     11045     11048     11050     11046     11045     11048     11051
     11047     11045     11048     11049     11047     11045     11048     11050
     11047     11045     11048     11051     11048     11051     11053     11054
     11048     11051     11053     11055     11049     11048     11051     11052
     11049     11048     11051     11053     11050     11048     11051     11052
     11050     11048     11051     11053     11051     11053     11055     11056
     11051     11053     11055     11057     11051     11053     11055     11058
     11052     11051     11053     11054     11052     11051     11053     11055
     11053     11055     11058     11059     11053     11055     11058     11060
     11053     11055     11058     11061     11054     11053     11055     11056
     11054     11053     11055     11057     11054     11053     11055     11058
     11055     11058     11061     11062     11055     11058     11061     11063
     11055     11058     11061     11064     11056     11055     11058     11059
     11056     11055     11058     11060     11056     11055     11058     11061
     11057     11055     11058     11059     11057     11055     11058     11060
     11057     11055     11058     11061     11058     11061     11064     11065
     11058     11061     11064     11066     11058     11061     11064     11067
     11059     11058     11061     11062     11059     11058     11061     11063
     11059     11058     11061     11064     11060     11058     11061     11062
     11060     11058     11061     11063     11060     11058     11061     11064
     11061     11064     11067     11068     11061     11064     11067     11069
     11061     11064     11067     11070     11062     11061     11064     11065
     11062     11061     11064     11066     11062     11061     11064     11067
     11063     11061     11064     11065     11063     11061     11064     11066
     11063     11061     11064     11067     11064     11067     11070     11071
     11064     11067     11070     11072     11064     11067     11070     11073
     11065     11064     11067     11068     11065     11064     11067     11069
     11065     11064     11067     11070     11066     11064     11067     11068
     11066     11064     11067     11069     11066     11064     11067     11070
     11067     11070     11073     11074     11067     11070     11073     11075
     11067     11070     11073     11076     11068     11067     11070     11071
     11068     11067     11070     11072     11068     11067     11070     11073
     11069     11067     11070     11071     11069     11067     11070     11072
     11069     11067     11070     11073     11070     11073     11076     11077
     11070     11073     11076     11078     11070     11073     11076     11079
     11071     11070     11073     11074     11071     11070     11073     11075
     11071     11070     11073     11076     11072     11070     11073     11074
     11072     11070     11073     11075     11072     11070     11073     11076
     11074     11073     11076     11077     11074     11073     11076     11078
     11074     11073     11076     11079     11075     11073     11076     11077
     11075     11073     11076     11078     11075     11073     11076     11079
     11080     11083     11086     11087     11080     11083     11086     11088
     11080     11083     11086     11089     11081     11080     11083     11084
     11081     11080     11083     11085     11081     11080     11083     11086
     11082     11080     11083     11084     11082     11080     11083     11085
     11082     11080     11083     11086     11083     11086     11089     11090
     11083     11086     11089     11091     11083     11086     11089     11092
     11084     11083     11086     11087     11084     11083     11086     11088
     11084     11083     11086     11089     11085     11083     11086     11087
     11085     11083     11086     11088     11085     11083     11086     11089
     11086     11089     11092     11093     11086     11089     11092     11094
     11086     11089     11092     11095     11087     11086     11089     11090
     11087     11086     11089     11091     11087     11086     11089     11092
     11088     11086     11089     11090     11088     11086     11089     11091
     11088     11086     11089     11092     11089     11092     11095     11096
     11089     11092     11095     11097     11089     11092     11095     11098
     11090     11089     11092     11093     11090     11089     11092     11094
     11090     11089     11092     11095     11091     11089     11092     11093
     11091     11089     11092     11094     11091     11089     11092     11095
     11092     11095     11098     11099     11092     11095     11098     11100
     11092     11095     11098     11101     11093     11092     11095     11096
     11093     11092     11095     11097     11093     11092     11095     11098
     11094     11092     11095     11096     11094     11092     11095     11097
     11094     11092     11095     11098     11095     11098     11101     11102
     11095     11098     11101     11103     11095     11098     11101     11104
     11096     11095     11098     11099     11096     11095     11098     11100
     11096     11095     11098     11101     11097     11095     11098     11099
     11097     11095     11098     11100     11097     11095     11098     11101
     11098     11101     11104     11105     11098     11101     11104     11106
     11098     11101     11104     11107     11099     11098     11101     11102
     11099     11098     11101     11103     11099     11098     11101     11104
     11100     11098     11101     11102     11100     11098     11101     11103
     11100     11098     11101     11104     11101     11104     11107     11108
     11101     11104     11107     11109     11101     11104     11107     11110
     11102     11101     11104     11105     11102     11101     11104     11106
     11102     11101     11104     11107     11103     11101     11104     11105
     11103     11101     11104     11106     11103     11101     11104     11107
     11104     11107     11110     11111     11104     11107     11110     11112
     11104     11107     11110     11113     11105     11104     11107     11108
     11105     11104     11107     11109     11105     11104     11107     11110
     11106     11104     11107     11108     11106     11104     11107     11109
     11106     11104     11107     11110     11107     11110     11113     11114
     11107     11110     11113     11115     11107     11110     11113     11116
     11108     11107     11110     11111     11108     11107     11110     11112
     11108     11107     11110     11113     11109     11107     11110     11111
     11109     11107     11110     11112     11109     11107     11110     11113
     11110     11113     11116     11117     11110     11113     11116     11118
     11110     11113     11116     11119     11111     11110     11113     11114
     11111     11110     11113     11115     11111     11110     11113     11116
     11112     11110     11113     11114     11112     11110     11113     11115
     11112     11110     11113     11116     11113     11116     11119     11120
     11113     11116     11119     11121     11113     11116     11119     11122
     11114     11113     11116     11117     11114     11113     11116     11118
     11114     11113     11116     11119     11115     11113     11116     11117
     11115     11113     11116     11118     11115     11113     11116     11119
     11117     11116     11119     11120     11117     11116     11119     11121
     11117     11116     11119     11122     11118     11116     11119     11120
     11118     11116     11119     11121     11118     11116     11119     11122
     11123     11124     11139     11140     11123     11124     11139     11141
     11123     11124     11139     11145     11124     11123     11127     11128
     11124     11123     11127     11129     11124     11123     11127     11130
     11124     11123     11131     11132     11124     11123     11131     11133
     11124     11123     11131     11134     11124     11123     11135     11136
     11124     11123     11135     11137     11124     11123     11135     11138
     11124     11139     11145     11142     11125     11124     11123     11127
     11125     11124     11123     11131     11125     11124     11123     11135
     11125     11124     11139     11140     11125     11124     11139     11141
     11125     11124     11139     11145     11126     11124     11123     11127
     11126     11124     11123     11131     11126     11124     11123     11135
     11126     11124     11139     11140     11126     11124     11139     11141
     11126     11124     11139     11145     11127     11123     11124     11139
     11127     11123     11131     11132     11127     11123     11131     11133
     11127     11123     11131     11134     11127     11123     11135     11136
     11127     11123     11135     11137     11127     11123     11135     11138
     11128     11127     11123     11131     11128     11127     11123     11135
     11129     11127     11123     11131     11129     11127     11123     11135
     11130     11127     11123     11131     11130     11127     11123     11135
     11131     11123     11124     11139     11131     11123     11135     11136
     11131     11123     11135     11137     11131     11123     11135     11138
     11132     11131     11123     11135     11133     11131     11123     11135
     11134     11131     11123     11135     11135     11123     11124     11139
     11139     11145     11142     11143     11139     11145     11142     11144
     11139     11145     11142     11146     11140     11139     11145     11142
     11141     11139     11145     11142     11142     11146     11147     11148
     11142     11146     11147     11149     11142     11146     11147     11150
     11143     11142     11146     11147     11144     11142     11146     11147
     11145     11142     11146     11147     11146     11147     11150     11151
     11146     11147     11150     11152     11146     11147     11150     11158
     11147     11150     11152     11153     11147     11150     11158     11159
     11147     11150     11158     11160     11147     11150     11158     11161
     11148     11147     11150     11151     11148     11147     11150     11152
     11148     11147     11150     11158     11149     11147     11150     11151
     11149     11147     11150     11152     11149     11147     11150     11158
     11150     11152     11153     11154     11150     11152     11153     11155
     11150     11158     11161     11162     11151     11150     11152     11153
     11151     11150     11158     11159     11151     11150     11158     11160
     11151     11150     11158     11161     11152     11150     11158     11159
     11152     11150     11158     11160     11152     11150     11158     11161
     11152     11153     11155     11156     11152     11153     11155     11157
     11152     11153     11155     11167     11153     11152     11150     11158
     11153     11155     11167     11168     11153     11155     11167     11169
     11153     11155     11167     11170     11154     11153     11155     11156
     11154     11153     11155     11157     11154     11153     11155     11167
     11155     11167     11170     11171     11155     11167     11170     11172
     11155     11167     11170     11173     11156     11155     11167     11168
     11156     11155     11167     11169     11156     11155     11167     11170
     11157     11155     11167     11168     11157     11155     11167     11169
     11157     11155     11167     11170     11158     11161     11162     11163
     11158     11161     11162     11164     11159     11158     11161     11162
     11160     11158     11161     11162     11161     11162     11164     11165
     11161     11162     11164     11166     11161     11162     11164     11214
     11162     11164     11214     11215     11162     11164     11214     11216
     11162     11164     11214     11217     11163     11162     11164     11165
     11163     11162     11164     11166     11163     11162     11164     11214
     11164     11214     11217     11218     11164     11214     11217     11219
     11164     11214     11217     11220     11165     11164     11214     11215
     11165     11164     11214     11216     11165     11164     11214     11217
     11166     11164     11214     11215     11166     11164     11214     11216
     11166     11164     11214     11217     11167     11170     11173     11174
     11167     11170     11173     11175     11167     11170     11173     11176
     11168     11167     11170     11171     11168     11167     11170     11172
     11168     11167     11170     11173     11169     11167     11170     11171
     11169     11167     11170     11172     11169     11167     11170     11173
     11170     11173     11176     11177     11170     11173     11176     11178
     11170     11173     11176     11179     11171     11170     11173     11174
     11171     11170     11173     11175     11171     11170     11173     11176
     11172     11170     11173     11174     11172     11170     11173     11175
     11172     11170     11173     11176     11173     11176     11179     11180
     11173     11176     11179     11181     11173     11176     11179     11182
     11174     11173     11176     11177     11174     11173     11176     11178
     11174     11173     11176     11179     11175     11173     11176     11177
     11175     11173     11176     11178     11175     11173     11176     11179
     11176     11179     11182     11183     11176     11179     11182     11184
     11176     11179     11182     11185     11177     11176     11179     11180
     11177     11176     11179     11181     11177     11176     11179     11182
     11178     11176     11179     11180     11178     11176     11179     11181
     11178     11176     11179     11182     11179     11182     11185     11186
     11179     11182     11185     11187     11180     11179     11182     11183
     11180     11179     11182     11184     11180     11179     11182     11185
     11181     11179     11182     11183     11181     11179     11182     11184
     11181     11179     11182     11185     11182     11185     11187     11188
     11182     11185     11187     11189     11183     11182     11185     11186
     11183     11182     11185     11187     11184     11182     11185     11186
     11184     11182     11185     11187     11185     11187     11189     11190
     11185     11187     11189     11191     11185     11187     11189     11192
     11186     11185     11187     11188     11186     11185     11187     11189
     11187     11189     11192     11193     11187     11189     11192     11194
     11187     11189     11192     11195     11188     11187     11189     11190
     11188     11187     11189     11191     11188     11187     11189     11192
     11189     11192     11195     11196     11189     11192     11195     11197
     11189     11192     11195     11198     11190     11189     11192     11193
     11190     11189     11192     11194     11190     11189     11192     11195
     11191     11189     11192     11193     11191     11189     11192     11194
     11191     11189     11192     11195     11192     11195     11198     11199
     11192     11195     11198     11200     11192     11195     11198     11201
     11193     11192     11195     11196     11193     11192     11195     11197
     11193     11192     11195     11198     11194     11192     11195     11196
     11194     11192     11195     11197     11194     11192     11195     11198
     11195     11198     11201     11202     11195     11198     11201     11203
     11195     11198     11201     11204     11196     11195     11198     11199
     11196     11195     11198     11200     11196     11195     11198     11201
     11197     11195     11198     11199     11197     11195     11198     11200
     11197     11195     11198     11201     11198     11201     11204     11205
     11198     11201     11204     11206     11198     11201     11204     11207
     11199     11198     11201     11202     11199     11198     11201     11203
     11199     11198     11201     11204     11200     11198     11201     11202
     11200     11198     11201     11203     11200     11198     11201     11204
     11201     11204     11207     11208     11201     11204     11207     11209
     11201     11204     11207     11210     11202     11201     11204     11205
     11202     11201     11204     11206     11202     11201     11204     11207
     11203     11201     11204     11205     11203     11201     11204     11206
     11203     11201     11204     11207     11204     11207     11210     11211
     11204     11207     11210     11212     11204     11207     11210     11213
     11205     11204     11207     11208     11205     11204     11207     11209
     11205     11204     11207     11210     11206     11204     11207     11208
     11206     11204     11207     11209     11206     11204     11207     11210
     11208     11207     11210     11211     11208     11207     11210     11212
     11208     11207     11210     11213     11209     11207     11210     11211
     11209     11207     11210     11212     11209     11207     11210     11213
     11214     11217     11220     11221     11214     11217     11220     11222
     11214     11217     11220     11223     11215     11214     11217     11218
     11215     11214     11217     11219     11215     11214     11217     11220
     11216     11214     11217     11218     11216     11214     11217     11219
     11216     11214     11217     11220     11217     11220     11223     11224
     11217     11220     11223     11225     11217     11220     11223     11226
     11218     11217     11220     11221     11218     11217     11220     11222
     11218     11217     11220     11223     11219     11217     11220     11221
     11219     11217     11220     11222     11219     11217     11220     11223
     11220     11223     11226     11227     11220     11223     11226     11228
     11220     11223     11226     11229     11221     11220     11223     11224
     11221     11220     11223     11225     11221     11220     11223     11226
     11222     11220     11223     11224     11222     11220     11223     11225
     11222     11220     11223     11226     11223     11226     11229     11230
     11223     11226     11229     11231     11223     11226     11229     11232
     11224     11223     11226     11227     11224     11223     11226     11228
     11224     11223     11226     11229     11225     11223     11226     11227
     11225     11223     11226     11228     11225     11223     11226     11229
     11226     11229     11232     11233     11226     11229     11232     11234
     11226     11229     11232     11235     11227     11226     11229     11230
     11227     11226     11229     11231     11227     11226     11229     11232
     11228     11226     11229     11230     11228     11226     11229     11231
     11228     11226     11229     11232     11229     11232     11235     11236
     11229     11232     11235     11237     11229     11232     11235     11238
     11230     11229     11232     11233     11230     11229     11232     11234
     11230     11229     11232     11235     11231     11229     11232     11233
     11231     11229     11232     11234     11231     11229     11232     11235
     11232     11235     11238     11239     11232     11235     11238     11240
     11232     11235     11238     11241     11233     11232     11235     11236
     11233     11232     11235     11237     11233     11232     11235     11238
     11234     11232     11235     11236     11234     11232     11235     11237
     11234     11232     11235     11238     11235     11238     11241     11242
     11235     11238     11241     11243     11235     11238     11241     11244
     11236     11235     11238     11239     11236     11235     11238     11240
     11236     11235     11238     11241     11237     11235     11238     11239
     11237     11235     11238     11240     11237     11235     11238     11241
     11238     11241     11244     11245     11238     11241     11244     11246
     11238     11241     11244     11247     11239     11238     11241     11242
     11239     11238     11241     11243     11239     11238     11241     11244
     11240     11238     11241     11242     11240     11238     11241     11243
     11240     11238     11241     11244     11241     11244     11247     11248
     11241     11244     11247     11249     11241     11244     11247     11250
     11242     11241     11244     11245     11242     11241     11244     11246
     11242     11241     11244     11247     11243     11241     11244     11245
     11243     11241     11244     11246     11243     11241     11244     11247
     11244     11247     11250     11251     11244     11247     11250     11252
     11244     11247     11250     11253     11245     11244     11247     11248
     11245     11244     11247     11249     11245     11244     11247     11250
     11246     11244     11247     11248     11246     11244     11247     11249
     11246     11244     11247     11250     11247     11250     11253     11254
     11247     11250     11253     11255     11247     11250     11253     11256
     11248     11247     11250     11251     11248     11247     11250     11252
     11248     11247     11250     11253     11249     11247     11250     11251
     11249     11247     11250     11252     11249     11247     11250     11253
     11251     11250     11253     11254     11251     11250     11253     11255
     11251     11250     11253     11256     11252     11250     11253     11254
     11252     11250     11253     11255     11252     11250     11253     11256
     11257     11258     11273     11274     11257     11258     11273     11275
     11257     11258     11273     11279     11258     11257     11261     11262
     11258     11257     11261     11263     11258     11257     11261     11264
     11258     11257     11265     11266     11258     11257     11265     11267
     11258     11257     11265     11268     11258     11257     11269     11270
     11258     11257     11269     11271     11258     11257     11269     11272
     11258     11273     11279     11276     11259     11258     11257     11261
     11259     11258     11257     11265     11259     11258     11257     11269
     11259     11258     11273     11274     11259     11258     11273     11275
     11259     11258     11273     11279     11260     11258     11257     11261
     11260     11258     11257     11265     11260     11258     11257     11269
     11260     11258     11273     11274     11260     11258     11273     11275
     11260     11258     11273     11279     11261     11257     11258     11273
     11261     11257     11265     11266     11261     11257     11265     11267
     11261     11257     11265     11268     11261     11257     11269     11270
     11261     11257     11269     11271     11261     11257     11269     11272
     11262     11261     11257     11265     11262     11261     11257     11269
     11263     11261     11257     11265     11263     11261     11257     11269
     11264     11261     11257     11265     11264     11261     11257     11269
     11265     11257     11258     11273     11265     11257     11269     11270
     11265     11257     11269     11271     11265     11257     11269     11272
     11266     11265     11257     11269     11267     11265     11257     11269
     11268     11265     11257     11269     11269     11257     11258     11273
     11273     11279     11276     11277     11273     11279     11276     11278
     11273     11279     11276     11280     11274     11273     11279     11276
     11275     11273     11279     11276     11276     11280     11281     11282
     11276     11280     11281     11283     11276     11280     11281     11284
     11277     11276     11280     11281     11278     11276     11280     11281
     11279     11276     11280     11281     11280     11281     11284     11285
     11280     11281     11284     11286     11280     11281     11284     11292
     11281     11284     11286     11287     11281     11284     11292     11293
     11281     11284     11292     11294     11281     11284     11292     11295
     11282     11281     11284     11285     11282     11281     11284     11286
     11282     11281     11284     11292     11283     11281     11284     11285
     11283     11281     11284     11286     11283     11281     11284     11292
     11284     11286     11287     11288     11284     11286     11287     11289
     11284     11292     11295     11296     11285     11284     11286     11287
     11285     11284     11292     11293     11285     11284     11292     11294
     11285     11284     11292     11295     11286     11284     11292     11293
     11286     11284     11292     11294     11286     11284     11292     11295
     11286     11287     11289     11290     11286     11287     11289     11291
     11286     11287     11289     11301     11287     11286     11284     11292
     11287     11289     11301     11302     11287     11289     11301     11303
     11287     11289     11301     11304     11288     11287     11289     11290
     11288     11287     11289     11291     11288     11287     11289     11301
     11289     11301     11304     11305     11289     11301     11304     11306
     11289     11301     11304     11307     11290     11289     11301     11302
     11290     11289     11301     11303     11290     11289     11301     11304
     11291     11289     11301     11302     11291     11289     11301     11303
     11291     11289     11301     11304     11292     11295     11296     11297
     11292     11295     11296     11298     11293     11292     11295     11296
     11294     11292     11295     11296     11295     11296     11298     11299
     11295     11296     11298     11300     11295     11296     11298     11348
     11296     11298     11348     11349     11296     11298     11348     11350
     11296     11298     11348     11351     11297     11296     11298     11299
     11297     11296     11298     11300     11297     11296     11298     11348
     11298     11348     11351     11352     11298     11348     11351     11353
     11298     11348     11351     11354     11299     11298     11348     11349
     11299     11298     11348     11350     11299     11298     11348     11351
     11300     11298     11348     11349     11300     11298     11348     11350
     11300     11298     11348     11351     11301     11304     11307     11308
     11301     11304     11307     11309     11301     11304     11307     11310
     11302     11301     11304     11305     11302     11301     11304     11306
     11302     11301     11304     11307     11303     11301     11304     11305
     11303     11301     11304     11306     11303     11301     11304     11307
     11304     11307     11310     11311     11304     11307     11310     11312
     11304     11307     11310     11313     11305     11304     11307     11308
     11305     11304     11307     11309     11305     11304     11307     11310
     11306     11304     11307     11308     11306     11304     11307     11309
     11306     11304     11307     11310     11307     11310     11313     11314
     11307     11310     11313     11315     11307     11310     11313     11316
     11308     11307     11310     11311     11308     11307     11310     11312
     11308     11307     11310     11313     11309     11307     11310     11311
     11309     11307     11310     11312     11309     11307     11310     11313
     11310     11313     11316     11317     11310     11313     11316     11318
     11310     11313     11316     11319     11311     11310     11313     11314
     11311     11310     11313     11315     11311     11310     11313     11316
     11312     11310     11313     11314     11312     11310     11313     11315
     11312     11310     11313     11316     11313     11316     11319     11320
     11313     11316     11319     11321     11314     11313     11316     11317
     11314     11313     11316     11318     11314     11313     11316     11319
     11315     11313     11316     11317     11315     11313     11316     11318
     11315     11313     11316     11319     11316     11319     11321     11322
     11316     11319     11321     11323     11317     11316     11319     11320
     11317     11316     11319     11321     11318     11316     11319     11320
     11318     11316     11319     11321     11319     11321     11323     11324
     11319     11321     11323     11325     11319     11321     11323     11326
     11320     11319     11321     11322     11320     11319     11321     11323
     11321     11323     11326     11327     11321     11323     11326     11328
     11321     11323     11326     11329     11322     11321     11323     11324
     11322     11321     11323     11325     11322     11321     11323     11326
     11323     11326     11329     11330     11323     11326     11329     11331
     11323     11326     11329     11332     11324     11323     11326     11327
     11324     11323     11326     11328     11324     11323     11326     11329
     11325     11323     11326     11327     11325     11323     11326     11328
     11325     11323     11326     11329     11326     11329     11332     11333
     11326     11329     11332     11334     11326     11329     11332     11335
     11327     11326     11329     11330     11327     11326     11329     11331
     11327     11326     11329     11332     11328     11326     11329     11330
     11328     11326     11329     11331     11328     11326     11329     11332
     11329     11332     11335     11336     11329     11332     11335     11337
     11329     11332     11335     11338     11330     11329     11332     11333
     11330     11329     11332     11334     11330     11329     11332     11335
     11331     11329     11332     11333     11331     11329     11332     11334
     11331     11329     11332     11335     11332     11335     11338     11339
     11332     11335     11338     11340     11332     11335     11338     11341
     11333     11332     11335     11336     11333     11332     11335     11337
     11333     11332     11335     11338     11334     11332     11335     11336
     11334     11332     11335     11337     11334     11332     11335     11338
     11335     11338     11341     11342     11335     11338     11341     11343
     11335     11338     11341     11344     11336     11335     11338     11339
     11336     11335     11338     11340     11336     11335     11338     11341
     11337     11335     11338     11339     11337     11335     11338     11340
     11337     11335     11338     11341     11338     11341     11344     11345
     11338     11341     11344     11346     11338     11341     11344     11347
     11339     11338     11341     11342     11339     11338     11341     11343
     11339     11338     11341     11344     11340     11338     11341     11342
     11340     11338     11341     11343     11340     11338     11341     11344
     11342     11341     11344     11345     11342     11341     11344     11346
     11342     11341     11344     11347     11343     11341     11344     11345
     11343     11341     11344     11346     11343     11341     11344     11347
     11348     11351     11354     11355     11348     11351     11354     11356
     11348     11351     11354     11357     11349     11348     11351     11352
     11349     11348     11351     11353     11349     11348     11351     11354
     11350     11348     11351     11352     11350     11348     11351     11353
     11350     11348     11351     11354     11351     11354     11357     11358
     11351     11354     11357     11359     11351     11354     11357     11360
     11352     11351     11354     11355     11352     11351     11354     11356
     11352     11351     11354     11357     11353     11351     11354     11355
     11353     11351     11354     11356     11353     11351     11354     11357
     11354     11357     11360     11361     11354     11357     11360     11362
     11354     11357     11360     11363     11355     11354     11357     11358
     11355     11354     11357     11359     11355     11354     11357     11360
     11356     11354     11357     11358     11356     11354     11357     11359
     11356     11354     11357     11360     11357     11360     11363     11364
     11357     11360     11363     11365     11357     11360     11363     11366
     11358     11357     11360     11361     11358     11357     11360     11362
     11358     11357     11360     11363     11359     11357     11360     11361
     11359     11357     11360     11362     11359     11357     11360     11363
     11360     11363     11366     11367     11360     11363     11366     11368
     11360     11363     11366     11369     11361     11360     11363     11364
     11361     11360     11363     11365     11361     11360     11363     11366
     11362     11360     11363     11364     11362     11360     11363     11365
     11362     11360     11363     11366     11363     11366     11369     11370
     11363     11366     11369     11371     11363     11366     11369     11372
     11364     11363     11366     11367     11364     11363     11366     11368
     11364     11363     11366     11369     11365     11363     11366     11367
     11365     11363     11366     11368     11365     11363     11366     11369
     11366     11369     11372     11373     11366     11369     11372     11374
     11366     11369     11372     11375     11367     11366     11369     11370
     11367     11366     11369     11371     11367     11366     11369     11372
     11368     11366     11369     11370     11368     11366     11369     11371
     11368     11366     11369     11372     11369     11372     11375     11376
     11369     11372     11375     11377     11369     11372     11375     11378
     11370     11369     11372     11373     11370     11369     11372     11374
     11370     11369     11372     11375     11371     11369     11372     11373
     11371     11369     11372     11374     11371     11369     11372     11375
     11372     11375     11378     11379     11372     11375     11378     11380
     11372     11375     11378     11381     11373     11372     11375     11376
     11373     11372     11375     11377     11373     11372     11375     11378
     11374     11372     11375     11376     11374     11372     11375     11377
     11374     11372     11375     11378     11375     11378     11381     11382
     11375     11378     11381     11383     11375     11378     11381     11384
     11376     11375     11378     11379     11376     11375     11378     11380
     11376     11375     11378     11381     11377     11375     11378     11379
     11377     11375     11378     11380     11377     11375     11378     11381
     11378     11381     11384     11385     11378     11381     11384     11386
     11378     11381     11384     11387     11379     11378     11381     11382
     11379     11378     11381     11383     11379     11378     11381     11384
     11380     11378     11381     11382     11380     11378     11381     11383
     11380     11378     11381     11384     11381     11384     11387     11388
     11381     11384     11387     11389     11381     11384     11387     11390
     11382     11381     11384     11385     11382     11381     11384     11386
     11382     11381     11384     11387     11383     11381     11384     11385
     11383     11381     11384     11386     11383     11381     11384     11387
     11385     11384     11387     11388     11385     11384     11387     11389
     11385     11384     11387     11390     11386     11384     11387     11388
     11386     11384     11387     11389     11386     11384     11387     11390
     11391     11392     11407     11408     11391     11392     11407     11409
     11391     11392     11407     11413     11392     11391     11395     11396
     11392     11391     11395     11397     11392     11391     11395     11398
     11392     11391     11399     11400     11392     11391     11399     11401
     11392     11391     11399     11402     11392     11391     11403     11404
     11392     11391     11403     11405     11392     11391     11403     11406
     11392     11407     11413     11410     11393     11392     11391     11395
     11393     11392     11391     11399     11393     11392     11391     11403
     11393     11392     11407     11408     11393     11392     11407     11409
     11393     11392     11407     11413     11394     11392     11391     11395
     11394     11392     11391     11399     11394     11392     11391     11403
     11394     11392     11407     11408     11394     11392     11407     11409
     11394     11392     11407     11413     11395     11391     11392     11407
     11395     11391     11399     11400     11395     11391     11399     11401
     11395     11391     11399     11402     11395     11391     11403     11404
     11395     11391     11403     11405     11395     11391     11403     11406
     11396     11395     11391     11399     11396     11395     11391     11403
     11397     11395     11391     11399     11397     11395     11391     11403
     11398     11395     11391     11399     11398     11395     11391     11403
     11399     11391     11392     11407     11399     11391     11403     11404
     11399     11391     11403     11405     11399     11391     11403     11406
     11400     11399     11391     11403     11401     11399     11391     11403
     11402     11399     11391     11403     11403     11391     11392     11407
     11407     11413     11410     11411     11407     11413     11410     11412
     11407     11413     11410     11414     11408     11407     11413     11410
     11409     11407     11413     11410     11410     11414     11415     11416
     11410     11414     11415     11417     11410     11414     11415     11418
     11411     11410     11414     11415     11412     11410     11414     11415
     11413     11410     11414     11415     11414     11415     11418     11419
     11414     11415     11418     11420     11414     11415     11418     11426
     11415     11418     11420     11421     11415     11418     11426     11427
     11415     11418     11426     11428     11415     11418     11426     11429
     11416     11415     11418     11419     11416     11415     11418     11420
     11416     11415     11418     11426     11417     11415     11418     11419
     11417     11415     11418     11420     11417     11415     11418     11426
     11418     11420     11421     11422     11418     11420     11421     11423
     11418     11426     11429     11430     11419     11418     11420     11421
     11419     11418     11426     11427     11419     11418     11426     11428
     11419     11418     11426     11429     11420     11418     11426     11427
     11420     11418     11426     11428     11420     11418     11426     11429
     11420     11421     11423     11424     11420     11421     11423     11425
     11420     11421     11423     11435     11421     11420     11418     11426
     11421     11423     11435     11436     11421     11423     11435     11437
     11421     11423     11435     11438     11422     11421     11423     11424
     11422     11421     11423     11425     11422     11421     11423     11435
     11423     11435     11438     11439     11423     11435     11438     11440
     11423     11435     11438     11441     11424     11423     11435     11436
     11424     11423     11435     11437     11424     11423     11435     11438
     11425     11423     11435     11436     11425     11423     11435     11437
     11425     11423     11435     11438     11426     11429     11430     11431
     11426     11429     11430     11432     11427     11426     11429     11430
     11428     11426     11429     11430     11429     11430     11432     11433
     11429     11430     11432     11434     11429     11430     11432     11482
     11430     11432     11482     11483     11430     11432     11482     11484
     11430     11432     11482     11485     11431     11430     11432     11433
     11431     11430     11432     11434     11431     11430     11432     11482
     11432     11482     11485     11486     11432     11482     11485     11487
     11432     11482     11485     11488     11433     11432     11482     11483
     11433     11432     11482     11484     11433     11432     11482     11485
     11434     11432     11482     11483     11434     11432     11482     11484
     11434     11432     11482     11485     11435     11438     11441     11442
     11435     11438     11441     11443     11435     11438     11441     11444
     11436     11435     11438     11439     11436     11435     11438     11440
     11436     11435     11438     11441     11437     11435     11438     11439
     11437     11435     11438     11440     11437     11435     11438     11441
     11438     11441     11444     11445     11438     11441     11444     11446
     11438     11441     11444     11447     11439     11438     11441     11442
     11439     11438     11441     11443     11439     11438     11441     11444
     11440     11438     11441     11442     11440     11438     11441     11443
     11440     11438     11441     11444     11441     11444     11447     11448
     11441     11444     11447     11449     11441     11444     11447     11450
     11442     11441     11444     11445     11442     11441     11444     11446
     11442     11441     11444     11447     11443     11441     11444     11445
     11443     11441     11444     11446     11443     11441     11444     11447
     11444     11447     11450     11451     11444     11447     11450     11452
     11444     11447     11450     11453     11445     11444     11447     11448
     11445     11444     11447     11449     11445     11444     11447     11450
     11446     11444     11447     11448     11446     11444     11447     11449
     11446     11444     11447     11450     11447     11450     11453     11454
     11447     11450     11453     11455     11448     11447     11450     11451
     11448     11447     11450     11452     11448     11447     11450     11453
     11449     11447     11450     11451     11449     11447     11450     11452
     11449     11447     11450     11453     11450     11453     11455     11456
     11450     11453     11455     11457     11451     11450     11453     11454
     11451     11450     11453     11455     11452     11450     11453     11454
     11452     11450     11453     11455     11453     11455     11457     11458
     11453     11455     11457     11459     11453     11455     11457     11460
     11454     11453     11455     11456     11454     11453     11455     11457
     11455     11457     11460     11461     11455     11457     11460     11462
     11455     11457     11460     11463     11456     11455     11457     11458
     11456     11455     11457     11459     11456     11455     11457     11460
     11457     11460     11463     11464     11457     11460     11463     11465
     11457     11460     11463     11466     11458     11457     11460     11461
     11458     11457     11460     11462     11458     11457     11460     11463
     11459     11457     11460     11461     11459     11457     11460     11462
     11459     11457     11460     11463     11460     11463     11466     11467
     11460     11463     11466     11468     11460     11463     11466     11469
     11461     11460     11463     11464     11461     11460     11463     11465
     11461     11460     11463     11466     11462     11460     11463     11464
     11462     11460     11463     11465     11462     11460     11463     11466
     11463     11466     11469     11470     11463     11466     11469     11471
     11463     11466     11469     11472     11464     11463     11466     11467
     11464     11463     11466     11468     11464     11463     11466     11469
     11465     11463     11466     11467     11465     11463     11466     11468
     11465     11463     11466     11469     11466     11469     11472     11473
     11466     11469     11472     11474     11466     11469     11472     11475
     11467     11466     11469     11470     11467     11466     11469     11471
     11467     11466     11469     11472     11468     11466     11469     11470
     11468     11466     11469     11471     11468     11466     11469     11472
     11469     11472     11475     11476     11469     11472     11475     11477
     11469     11472     11475     11478     11470     11469     11472     11473
     11470     11469     11472     11474     11470     11469     11472     11475
     11471     11469     11472     11473     11471     11469     11472     11474
     11471     11469     11472     11475     11472     11475     11478     11479
     11472     11475     11478     11480     11472     11475     11478     11481
     11473     11472     11475     11476     11473     11472     11475     11477
     11473     11472     11475     11478     11474     11472     11475     11476
     11474     11472     11475     11477     11474     11472     11475     11478
     11476     11475     11478     11479     11476     11475     11478     11480
     11476     11475     11478     11481     11477     11475     11478     11479
     11477     11475     11478     11480     11477     11475     11478     11481
     11482     11485     11488     11489     11482     11485     11488     11490
     11482     11485     11488     11491     11483     11482     11485     11486
     11483     11482     11485     11487     11483     11482     11485     11488
     11484     11482     11485     11486     11484     11482     11485     11487
     11484     11482     11485     11488     11485     11488     11491     11492
     11485     11488     11491     11493     11485     11488     11491     11494
     11486     11485     11488     11489     11486     11485     11488     11490
     11486     11485     11488     11491     11487     11485     11488     11489
     11487     11485     11488     11490     11487     11485     11488     11491
     11488     11491     11494     11495     11488     11491     11494     11496
     11488     11491     11494     11497     11489     11488     11491     11492
     11489     11488     11491     11493     11489     11488     11491     11494
     11490     11488     11491     11492     11490     11488     11491     11493
     11490     11488     11491     11494     11491     11494     11497     11498
     11491     11494     11497     11499     11491     11494     11497     11500
     11492     11491     11494     11495     11492     11491     11494     11496
     11492     11491     11494     11497     11493     11491     11494     11495
     11493     11491     11494     11496     11493     11491     11494     11497
     11494     11497     11500     11501     11494     11497     11500     11502
     11494     11497     11500     11503     11495     11494     11497     11498
     11495     11494     11497     11499     11495     11494     11497     11500
     11496     11494     11497     11498     11496     11494     11497     11499
     11496     11494     11497     11500     11497     11500     11503     11504
     11497     11500     11503     11505     11497     11500     11503     11506
     11498     11497     11500     11501     11498     11497     11500     11502
     11498     11497     11500     11503     11499     11497     11500     11501
     11499     11497     11500     11502     11499     11497     11500     11503
     11500     11503     11506     11507     11500     11503     11506     11508
     11500     11503     11506     11509     11501     11500     11503     11504
     11501     11500     11503     11505     11501     11500     11503     11506
     11502     11500     11503     11504     11502     11500     11503     11505
     11502     11500     11503     11506     11503     11506     11509     11510
     11503     11506     11509     11511     11503     11506     11509     11512
     11504     11503     11506     11507     11504     11503     11506     11508
     11504     11503     11506     11509     11505     11503     11506     11507
     11505     11503     11506     11508     11505     11503     11506     11509
     11506     11509     11512     11513     11506     11509     11512     11514
     11506     11509     11512     11515     11507     11506     11509     11510
     11507     11506     11509     11511     11507     11506     11509     11512
     11508     11506     11509     11510     11508     11506     11509     11511
     11508     11506     11509     11512     11509     11512     11515     11516
     11509     11512     11515     11517     11509     11512     11515     11518
     11510     11509     11512     11513     11510     11509     11512     11514
     11510     11509     11512     11515     11511     11509     11512     11513
     11511     11509     11512     11514     11511     11509     11512     11515
     11512     11515     11518     11519     11512     11515     11518     11520
     11512     11515     11518     11521     11513     11512     11515     11516
     11513     11512     11515     11517     11513     11512     11515     11518
     11514     11512     11515     11516     11514     11512     11515     11517
     11514     11512     11515     11518     11515     11518     11521     11522
     11515     11518     11521     11523     11515     11518     11521     11524
     11516     11515     11518     11519     11516     11515     11518     11520
     11516     11515     11518     11521     11517     11515     11518     11519
     11517     11515     11518     11520     11517     11515     11518     11521
     11519     11518     11521     11522     11519     11518     11521     11523
     11519     11518     11521     11524     11520     11518     11521     11522
     11520     11518     11521     11523     11520     11518     11521     11524
     11525     11526     11541     11542     11525     11526     11541     11543
     11525     11526     11541     11547     11526     11525     11529     11530
     11526     11525     11529     11531     11526     11525     11529     11532
     11526     11525     11533     11534     11526     11525     11533     11535
     11526     11525     11533     11536     11526     11525     11537     11538
     11526     11525     11537     11539     11526     11525     11537     11540
     11526     11541     11547     11544     11527     11526     11525     11529
     11527     11526     11525     11533     11527     11526     11525     11537
     11527     11526     11541     11542     11527     11526     11541     11543
     11527     11526     11541     11547     11528     11526     11525     11529
     11528     11526     11525     11533     11528     11526     11525     11537
     11528     11526     11541     11542     11528     11526     11541     11543
     11528     11526     11541     11547     11529     11525     11526     11541
     11529     11525     11533     11534     11529     11525     11533     11535
     11529     11525     11533     11536     11529     11525     11537     11538
     11529     11525     11537     11539     11529     11525     11537     11540
     11530     11529     11525     11533     11530     11529     11525     11537
     11531     11529     11525     11533     11531     11529     11525     11537
     11532     11529     11525     11533     11532     11529     11525     11537
     11533     11525     11526     11541     11533     11525     11537     11538
     11533     11525     11537     11539     11533     11525     11537     11540
     11534     11533     11525     11537     11535     11533     11525     11537
     11536     11533     11525     11537     11537     11525     11526     11541
     11541     11547     11544     11545     11541     11547     11544     11546
     11541     11547     11544     11548     11542     11541     11547     11544
     11543     11541     11547     11544     11544     11548     11549     11550
     11544     11548     11549     11551     11544     11548     11549     11552
     11545     11544     11548     11549     11546     11544     11548     11549
     11547     11544     11548     11549     11548     11549     11552     11553
     11548     11549     11552     11554     11548     11549     11552     11560
     11549     11552     11554     11555     11549     11552     11560     11561
     11549     11552     11560     11562     11549     11552     11560     11563
     11550     11549     11552     11553     11550     11549     11552     11554
     11550     11549     11552     11560     11551     11549     11552     11553
     11551     11549     11552     11554     11551     11549     11552     11560
     11552     11554     11555     11556     11552     11554     11555     11557
     11552     11560     11563     11564     11553     11552     11554     11555
     11553     11552     11560     11561     11553     11552     11560     11562
     11553     11552     11560     11563     11554     11552     11560     11561
     11554     11552     11560     11562     11554     11552     11560     11563
     11554     11555     11557     11558     11554     11555     11557     11559
     11554     11555     11557     11569     11555     11554     11552     11560
     11555     11557     11569     11570     11555     11557     11569     11571
     11555     11557     11569     11572     11556     11555     11557     11558
     11556     11555     11557     11559     11556     11555     11557     11569
     11557     11569     11572     11573     11557     11569     11572     11574
     11557     11569     11572     11575     11558     11557     11569     11570
     11558     11557     11569     11571     11558     11557     11569     11572
     11559     11557     11569     11570     11559     11557     11569     11571
     11559     11557     11569     11572     11560     11563     11564     11565
     11560     11563     11564     11566     11561     11560     11563     11564
     11562     11560     11563     11564     11563     11564     11566     11567
     11563     11564     11566     11568     11563     11564     11566     11616
     11564     11566     11616     11617     11564     11566     11616     11618
     11564     11566     11616     11619     11565     11564     11566     11567
     11565     11564     11566     11568     11565     11564     11566     11616
     11566     11616     11619     11620     11566     11616     11619     11621
     11566     11616     11619     11622     11567     11566     11616     11617
     11567     11566     11616     11618     11567     11566     11616     11619
     11568     11566     11616     11617     11568     11566     11616     11618
     11568     11566     11616     11619     11569     11572     11575     11576
     11569     11572     11575     11577     11569     11572     11575     11578
     11570     11569     11572     11573     11570     11569     11572     11574
     11570     11569     11572     11575     11571     11569     11572     11573
     11571     11569     11572     11574     11571     11569     11572     11575
     11572     11575     11578     11579     11572     11575     11578     11580
     11572     11575     11578     11581     11573     11572     11575     11576
     11573     11572     11575     11577     11573     11572     11575     11578
     11574     11572     11575     11576     11574     11572     11575     11577
     11574     11572     11575     11578     11575     11578     11581     11582
     11575     11578     11581     11583     11575     11578     11581     11584
     11576     11575     11578     11579     11576     11575     11578     11580
     11576     11575     11578     11581     11577     11575     11578     11579
     11577     11575     11578     11580     11577     11575     11578     11581
     11578     11581     11584     11585     11578     11581     11584     11586
     11578     11581     11584     11587     11579     11578     11581     11582
     11579     11578     11581     11583     11579     11578     11581     11584
     11580     11578     11581     11582     11580     11578     11581     11583
     11580     11578     11581     11584     11581     11584     11587     11588
     11581     11584     11587     11589     11582     11581     11584     11585
     11582     11581     11584     11586     11582     11581     11584     11587
     11583     11581     11584     11585     11583     11581     11584     11586
     11583     11581     11584     11587     11584     11587     11589     11590
     11584     11587     11589     11591     11585     11584     11587     11588
     11585     11584     11587     11589     11586     11584     11587     11588
     11586     11584     11587     11589     11587     11589     11591     11592
     11587     11589     11591     11593     11587     11589     11591     11594
     11588     11587     11589     11590     11588     11587     11589     11591
     11589     11591     11594     11595     11589     11591     11594     11596
     11589     11591     11594     11597     11590     11589     11591     11592
     11590     11589     11591     11593     11590     11589     11591     11594
     11591     11594     11597     11598     11591     11594     11597     11599
     11591     11594     11597     11600     11592     11591     11594     11595
     11592     11591     11594     11596     11592     11591     11594     11597
     11593     11591     11594     11595     11593     11591     11594     11596
     11593     11591     11594     11597     11594     11597     11600     11601
     11594     11597     11600     11602     11594     11597     11600     11603
     11595     11594     11597     11598     11595     11594     11597     11599
     11595     11594     11597     11600     11596     11594     11597     11598
     11596     11594     11597     11599     11596     11594     11597     11600
     11597     11600     11603     11604     11597     11600     11603     11605
     11597     11600     11603     11606     11598     11597     11600     11601
     11598     11597     11600     11602     11598     11597     11600     11603
     11599     11597     11600     11601     11599     11597     11600     11602
     11599     11597     11600     11603     11600     11603     11606     11607
     11600     11603     11606     11608     11600     11603     11606     11609
     11601     11600     11603     11604     11601     11600     11603     11605
     11601     11600     11603     11606     11602     11600     11603     11604
     11602     11600     11603     11605     11602     11600     11603     11606
     11603     11606     11609     11610     11603     11606     11609     11611
     11603     11606     11609     11612     11604     11603     11606     11607
     11604     11603     11606     11608     11604     11603     11606     11609
     11605     11603     11606     11607     11605     11603     11606     11608
     11605     11603     11606     11609     11606     11609     11612     11613
     11606     11609     11612     11614     11606     11609     11612     11615
     11607     11606     11609     11610     11607     11606     11609     11611
     11607     11606     11609     11612     11608     11606     11609     11610
     11608     11606     11609     11611     11608     11606     11609     11612
     11610     11609     11612     11613     11610     11609     11612     11614
     11610     11609     11612     11615     11611     11609     11612     11613
     11611     11609     11612     11614     11611     11609     11612     11615
     11616     11619     11622     11623     11616     11619     11622     11624
     11616     11619     11622     11625     11617     11616     11619     11620
     11617     11616     11619     11621     11617     11616     11619     11622
     11618     11616     11619     11620     11618     11616     11619     11621
     11618     11616     11619     11622     11619     11622     11625     11626
     11619     11622     11625     11627     11619     11622     11625     11628
     11620     11619     11622     11623     11620     11619     11622     11624
     11620     11619     11622     11625     11621     11619     11622     11623
     11621     11619     11622     11624     11621     11619     11622     11625
     11622     11625     11628     11629     11622     11625     11628     11630
     11622     11625     11628     11631     11623     11622     11625     11626
     11623     11622     11625     11627     11623     11622     11625     11628
     11624     11622     11625     11626     11624     11622     11625     11627
     11624     11622     11625     11628     11625     11628     11631     11632
     11625     11628     11631     11633     11625     11628     11631     11634
     11626     11625     11628     11629     11626     11625     11628     11630
     11626     11625     11628     11631     11627     11625     11628     11629
     11627     11625     11628     11630     11627     11625     11628     11631
     11628     11631     11634     11635     11628     11631     11634     11636
     11628     11631     11634     11637     11629     11628     11631     11632
     11629     11628     11631     11633     11629     11628     11631     11634
     11630     11628     11631     11632     11630     11628     11631     11633
     11630     11628     11631     11634     11631     11634     11637     11638
     11631     11634     11637     11639     11631     11634     11637     11640
     11632     11631     11634     11635     11632     11631     11634     11636
     11632     11631     11634     11637     11633     11631     11634     11635
     11633     11631     11634     11636     11633     11631     11634     11637
     11634     11637     11640     11641     11634     11637     11640     11642
     11634     11637     11640     11643     11635     11634     11637     11638
     11635     11634     11637     11639     11635     11634     11637     11640
     11636     11634     11637     11638     11636     11634     11637     11639
     11636     11634     11637     11640     11637     11640     11643     11644
     11637     11640     11643     11645     11637     11640     11643     11646
     11638     11637     11640     11641     11638     11637     11640     11642
     11638     11637     11640     11643     11639     11637     11640     11641
     11639     11637     11640     11642     11639     11637     11640     11643
     11640     11643     11646     11647     11640     11643     11646     11648
     11640     11643     11646     11649     11641     11640     11643     11644
     11641     11640     11643     11645     11641     11640     11643     11646
     11642     11640     11643     11644     11642     11640     11643     11645
     11642     11640     11643     11646     11643     11646     11649     11650
     11643     11646     11649     11651     11643     11646     11649     11652
     11644     11643     11646     11647     11644     11643     11646     11648
     11644     11643     11646     11649     11645     11643     11646     11647
     11645     11643     11646     11648     11645     11643     11646     11649
     11646     11649     11652     11653     11646     11649     11652     11654
     11646     11649     11652     11655     11647     11646     11649     11650
     11647     11646     11649     11651     11647     11646     11649     11652
     11648     11646     11649     11650     11648     11646     11649     11651
     11648     11646     11649     11652     11649     11652     11655     11656
     11649     11652     11655     11657     11649     11652     11655     11658
     11650     11649     11652     11653     11650     11649     11652     11654
     11650     11649     11652     11655     11651     11649     11652     11653
     11651     11649     11652     11654     11651     11649     11652     11655
     11653     11652     11655     11656     11653     11652     11655     11657
     11653     11652     11655     11658     11654     11652     11655     11656
     11654     11652     11655     11657     11654     11652     11655     11658
     11659     11660     11675     11676     11659     11660     11675     11677
     11659     11660     11675     11681     11660     11659     11663     11664
     11660     11659     11663     11665     11660     11659     11663     11666
     11660     11659     11667     11668     11660     11659     11667     11669
     11660     11659     11667     11670     11660     11659     11671     11672
     11660     11659     11671     11673     11660     11659     11671     11674
     11660     11675     11681     11678     11661     11660     11659     11663
     11661     11660     11659     11667     11661     11660     11659     11671
     11661     11660     11675     11676     11661     11660     11675     11677
     11661     11660     11675     11681     11662     11660     11659     11663
     11662     11660     11659     11667     11662     11660     11659     11671
     11662     11660     11675     11676     11662     11660     11675     11677
     11662     11660     11675     11681     11663     11659     11660     11675
     11663     11659     11667     11668     11663     11659     11667     11669
     11663     11659     11667     11670     11663     11659     11671     11672
     11663     11659     11671     11673     11663     11659     11671     11674
     11664     11663     11659     11667     11664     11663     11659     11671
     11665     11663     11659     11667     11665     11663     11659     11671
     11666     11663     11659     11667     11666     11663     11659     11671
     11667     11659     11660     11675     11667     11659     11671     11672
     11667     11659     11671     11673     11667     11659     11671     11674
     11668     11667     11659     11671     11669     11667     11659     11671
     11670     11667     11659     11671     11671     11659     11660     11675
     11675     11681     11678     11679     11675     11681     11678     11680
     11675     11681     11678     11682     11676     11675     11681     11678
     11677     11675     11681     11678     11678     11682     11683     11684
     11678     11682     11683     11685     11678     11682     11683     11686
     11679     11678     11682     11683     11680     11678     11682     11683
     11681     11678     11682     11683     11682     11683     11686     11687
     11682     11683     11686     11688     11682     11683     11686     11694
     11683     11686     11688     11689     11683     11686     11694     11695
     11683     11686     11694     11696     11683     11686     11694     11697
     11684     11683     11686     11687     11684     11683     11686     11688
     11684     11683     11686     11694     11685     11683     11686     11687
     11685     11683     11686     11688     11685     11683     11686     11694
     11686     11688     11689     11690     11686     11688     11689     11691
     11686     11694     11697     11698     11687     11686     11688     11689
     11687     11686     11694     11695     11687     11686     11694     11696
     11687     11686     11694     11697     11688     11686     11694     11695
     11688     11686     11694     11696     11688     11686     11694     11697
     11688     11689     11691     11692     11688     11689     11691     11693
     11688     11689     11691     11703     11689     11688     11686     11694
     11689     11691     11703     11704     11689     11691     11703     11705
     11689     11691     11703     11706     11690     11689     11691     11692
     11690     11689     11691     11693     11690     11689     11691     11703
     11691     11703     11706     11707     11691     11703     11706     11708
     11691     11703     11706     11709     11692     11691     11703     11704
     11692     11691     11703     11705     11692     11691     11703     11706
     11693     11691     11703     11704     11693     11691     11703     11705
     11693     11691     11703     11706     11694     11697     11698     11699
     11694     11697     11698     11700     11695     11694     11697     11698
     11696     11694     11697     11698     11697     11698     11700     11701
     11697     11698     11700     11702     11697     11698     11700     11750
     11698     11700     11750     11751     11698     11700     11750     11752
     11698     11700     11750     11753     11699     11698     11700     11701
     11699     11698     11700     11702     11699     11698     11700     11750
     11700     11750     11753     11754     11700     11750     11753     11755
     11700     11750     11753     11756     11701     11700     11750     11751
     11701     11700     11750     11752     11701     11700     11750     11753
     11702     11700     11750     11751     11702     11700     11750     11752
     11702     11700     11750     11753     11703     11706     11709     11710
     11703     11706     11709     11711     11703     11706     11709     11712
     11704     11703     11706     11707     11704     11703     11706     11708
     11704     11703     11706     11709     11705     11703     11706     11707
     11705     11703     11706     11708     11705     11703     11706     11709
     11706     11709     11712     11713     11706     11709     11712     11714
     11706     11709     11712     11715     11707     11706     11709     11710
     11707     11706     11709     11711     11707     11706     11709     11712
     11708     11706     11709     11710     11708     11706     11709     11711
     11708     11706     11709     11712     11709     11712     11715     11716
     11709     11712     11715     11717     11709     11712     11715     11718
     11710     11709     11712     11713     11710     11709     11712     11714
     11710     11709     11712     11715     11711     11709     11712     11713
     11711     11709     11712     11714     11711     11709     11712     11715
     11712     11715     11718     11719     11712     11715     11718     11720
     11712     11715     11718     11721     11713     11712     11715     11716
     11713     11712     11715     11717     11713     11712     11715     11718
     11714     11712     11715     11716     11714     11712     11715     11717
     11714     11712     11715     11718     11715     11718     11721     11722
     11715     11718     11721     11723     11716     11715     11718     11719
     11716     11715     11718     11720     11716     11715     11718     11721
     11717     11715     11718     11719     11717     11715     11718     11720
     11717     11715     11718     11721     11718     11721     11723     11724
     11718     11721     11723     11725     11719     11718     11721     11722
     11719     11718     11721     11723     11720     11718     11721     11722
     11720     11718     11721     11723     11721     11723     11725     11726
     11721     11723     11725     11727     11721     11723     11725     11728
     11722     11721     11723     11724     11722     11721     11723     11725
     11723     11725     11728     11729     11723     11725     11728     11730
     11723     11725     11728     11731     11724     11723     11725     11726
     11724     11723     11725     11727     11724     11723     11725     11728
     11725     11728     11731     11732     11725     11728     11731     11733
     11725     11728     11731     11734     11726     11725     11728     11729
     11726     11725     11728     11730     11726     11725     11728     11731
     11727     11725     11728     11729     11727     11725     11728     11730
     11727     11725     11728     11731     11728     11731     11734     11735
     11728     11731     11734     11736     11728     11731     11734     11737
     11729     11728     11731     11732     11729     11728     11731     11733
     11729     11728     11731     11734     11730     11728     11731     11732
     11730     11728     11731     11733     11730     11728     11731     11734
     11731     11734     11737     11738     11731     11734     11737     11739
     11731     11734     11737     11740     11732     11731     11734     11735
     11732     11731     11734     11736     11732     11731     11734     11737
     11733     11731     11734     11735     11733     11731     11734     11736
     11733     11731     11734     11737     11734     11737     11740     11741
     11734     11737     11740     11742     11734     11737     11740     11743
     11735     11734     11737     11738     11735     11734     11737     11739
     11735     11734     11737     11740     11736     11734     11737     11738
     11736     11734     11737     11739     11736     11734     11737     11740
     11737     11740     11743     11744     11737     11740     11743     11745
     11737     11740     11743     11746     11738     11737     11740     11741
     11738     11737     11740     11742     11738     11737     11740     11743
     11739     11737     11740     11741     11739     11737     11740     11742
     11739     11737     11740     11743     11740     11743     11746     11747
     11740     11743     11746     11748     11740     11743     11746     11749
     11741     11740     11743     11744     11741     11740     11743     11745
     11741     11740     11743     11746     11742     11740     11743     11744
     11742     11740     11743     11745     11742     11740     11743     11746
     11744     11743     11746     11747     11744     11743     11746     11748
     11744     11743     11746     11749     11745     11743     11746     11747
     11745     11743     11746     11748     11745     11743     11746     11749
     11750     11753     11756     11757     11750     11753     11756     11758
     11750     11753     11756     11759     11751     11750     11753     11754
     11751     11750     11753     11755     11751     11750     11753     11756
     11752     11750     11753     11754     11752     11750     11753     11755
     11752     11750     11753     11756     11753     11756     11759     11760
     11753     11756     11759     11761     11753     11756     11759     11762
     11754     11753     11756     11757     11754     11753     11756     11758
     11754     11753     11756     11759     11755     11753     11756     11757
     11755     11753     11756     11758     11755     11753     11756     11759
     11756     11759     11762     11763     11756     11759     11762     11764
     11756     11759     11762     11765     11757     11756     11759     11760
     11757     11756     11759     11761     11757     11756     11759     11762
     11758     11756     11759     11760     11758     11756     11759     11761
     11758     11756     11759     11762     11759     11762     11765     11766
     11759     11762     11765     11767     11759     11762     11765     11768
     11760     11759     11762     11763     11760     11759     11762     11764
     11760     11759     11762     11765     11761     11759     11762     11763
     11761     11759     11762     11764     11761     11759     11762     11765
     11762     11765     11768     11769     11762     11765     11768     11770
     11762     11765     11768     11771     11763     11762     11765     11766
     11763     11762     11765     11767     11763     11762     11765     11768
     11764     11762     11765     11766     11764     11762     11765     11767
     11764     11762     11765     11768     11765     11768     11771     11772
     11765     11768     11771     11773     11765     11768     11771     11774
     11766     11765     11768     11769     11766     11765     11768     11770
     11766     11765     11768     11771     11767     11765     11768     11769
     11767     11765     11768     11770     11767     11765     11768     11771
     11768     11771     11774     11775     11768     11771     11774     11776
     11768     11771     11774     11777     11769     11768     11771     11772
     11769     11768     11771     11773     11769     11768     11771     11774
     11770     11768     11771     11772     11770     11768     11771     11773
     11770     11768     11771     11774     11771     11774     11777     11778
     11771     11774     11777     11779     11771     11774     11777     11780
     11772     11771     11774     11775     11772     11771     11774     11776
     11772     11771     11774     11777     11773     11771     11774     11775
     11773     11771     11774     11776     11773     11771     11774     11777
     11774     11777     11780     11781     11774     11777     11780     11782
     11774     11777     11780     11783     11775     11774     11777     11778
     11775     11774     11777     11779     11775     11774     11777     11780
     11776     11774     11777     11778     11776     11774     11777     11779
     11776     11774     11777     11780     11777     11780     11783     11784
     11777     11780     11783     11785     11777     11780     11783     11786
     11778     11777     11780     11781     11778     11777     11780     11782
     11778     11777     11780     11783     11779     11777     11780     11781
     11779     11777     11780     11782     11779     11777     11780     11783
     11780     11783     11786     11787     11780     11783     11786     11788
     11780     11783     11786     11789     11781     11780     11783     11784
     11781     11780     11783     11785     11781     11780     11783     11786
     11782     11780     11783     11784     11782     11780     11783     11785
     11782     11780     11783     11786     11783     11786     11789     11790
     11783     11786     11789     11791     11783     11786     11789     11792
     11784     11783     11786     11787     11784     11783     11786     11788
     11784     11783     11786     11789     11785     11783     11786     11787
     11785     11783     11786     11788     11785     11783     11786     11789
     11787     11786     11789     11790     11787     11786     11789     11791
     11787     11786     11789     11792     11788     11786     11789     11790
     11788     11786     11789     11791     11788     11786     11789     11792
     11793     11794     11809     11810     11793     11794     11809     11811
     11793     11794     11809     11815     11794     11793     11797     11798
     11794     11793     11797     11799     11794     11793     11797     11800
     11794     11793     11801     11802     11794     11793     11801     11803
     11794     11793     11801     11804     11794     11793     11805     11806
     11794     11793     11805     11807     11794     11793     11805     11808
     11794     11809     11815     11812     11795     11794     11793     11797
     11795     11794     11793     11801     11795     11794     11793     11805
     11795     11794     11809     11810     11795     11794     11809     11811
     11795     11794     11809     11815     11796     11794     11793     11797
     11796     11794     11793     11801     11796     11794     11793     11805
     11796     11794     11809     11810     11796     11794     11809     11811
     11796     11794     11809     11815     11797     11793     11794     11809
     11797     11793     11801     11802     11797     11793     11801     11803
     11797     11793     11801     11804     11797     11793     11805     11806
     11797     11793     11805     11807     11797     11793     11805     11808
     11798     11797     11793     11801     11798     11797     11793     11805
     11799     11797     11793     11801     11799     11797     11793     11805
     11800     11797     11793     11801     11800     11797     11793     11805
     11801     11793     11794     11809     11801     11793     11805     11806
     11801     11793     11805     11807     11801     11793     11805     11808
     11802     11801     11793     11805     11803     11801     11793     11805
     11804     11801     11793     11805     11805     11793     11794     11809
     11809     11815     11812     11813     11809     11815     11812     11814
     11809     11815     11812     11816     11810     11809     11815     11812
     11811     11809     11815     11812     11812     11816     11817     11818
     11812     11816     11817     11819     11812     11816     11817     11820
     11813     11812     11816     11817     11814     11812     11816     11817
     11815     11812     11816     11817     11816     11817     11820     11821
     11816     11817     11820     11822     11816     11817     11820     11828
     11817     11820     11822     11823     11817     11820     11828     11829
     11817     11820     11828     11830     11817     11820     11828     11831
     11818     11817     11820     11821     11818     11817     11820     11822
     11818     11817     11820     11828     11819     11817     11820     11821
     11819     11817     11820     11822     11819     11817     11820     11828
     11820     11822     11823     11824     11820     11822     11823     11825
     11820     11828     11831     11832     11821     11820     11822     11823
     11821     11820     11828     11829     11821     11820     11828     11830
     11821     11820     11828     11831     11822     11820     11828     11829
     11822     11820     11828     11830     11822     11820     11828     11831
     11822     11823     11825     11826     11822     11823     11825     11827
     11822     11823     11825     11837     11823     11822     11820     11828
     11823     11825     11837     11838     11823     11825     11837     11839
     11823     11825     11837     11840     11824     11823     11825     11826
     11824     11823     11825     11827     11824     11823     11825     11837
     11825     11837     11840     11841     11825     11837     11840     11842
     11825     11837     11840     11843     11826     11825     11837     11838
     11826     11825     11837     11839     11826     11825     11837     11840
     11827     11825     11837     11838     11827     11825     11837     11839
     11827     11825     11837     11840     11828     11831     11832     11833
     11828     11831     11832     11834     11829     11828     11831     11832
     11830     11828     11831     11832     11831     11832     11834     11835
     11831     11832     11834     11836     11831     11832     11834     11884
     11832     11834     11884     11885     11832     11834     11884     11886
     11832     11834     11884     11887     11833     11832     11834     11835
     11833     11832     11834     11836     11833     11832     11834     11884
     11834     11884     11887     11888     11834     11884     11887     11889
     11834     11884     11887     11890     11835     11834     11884     11885
     11835     11834     11884     11886     11835     11834     11884     11887
     11836     11834     11884     11885     11836     11834     11884     11886
     11836     11834     11884     11887     11837     11840     11843     11844
     11837     11840     11843     11845     11837     11840     11843     11846
     11838     11837     11840     11841     11838     11837     11840     11842
     11838     11837     11840     11843     11839     11837     11840     11841
     11839     11837     11840     11842     11839     11837     11840     11843
     11840     11843     11846     11847     11840     11843     11846     11848
     11840     11843     11846     11849     11841     11840     11843     11844
     11841     11840     11843     11845     11841     11840     11843     11846
     11842     11840     11843     11844     11842     11840     11843     11845
     11842     11840     11843     11846     11843     11846     11849     11850
     11843     11846     11849     11851     11843     11846     11849     11852
     11844     11843     11846     11847     11844     11843     11846     11848
     11844     11843     11846     11849     11845     11843     11846     11847
     11845     11843     11846     11848     11845     11843     11846     11849
     11846     11849     11852     11853     11846     11849     11852     11854
     11846     11849     11852     11855     11847     11846     11849     11850
     11847     11846     11849     11851     11847     11846     11849     11852
     11848     11846     11849     11850     11848     11846     11849     11851
     11848     11846     11849     11852     11849     11852     11855     11856
     11849     11852     11855     11857     11850     11849     11852     11853
     11850     11849     11852     11854     11850     11849     11852     11855
     11851     11849     11852     11853     11851     11849     11852     11854
     11851     11849     11852     11855     11852     11855     11857     11858
     11852     11855     11857     11859     11853     11852     11855     11856
     11853     11852     11855     11857     11854     11852     11855     11856
     11854     11852     11855     11857     11855     11857     11859     11860
     11855     11857     11859     11861     11855     11857     11859     11862
     11856     11855     11857     11858     11856     11855     11857     11859
     11857     11859     11862     11863     11857     11859     11862     11864
     11857     11859     11862     11865     11858     11857     11859     11860
     11858     11857     11859     11861     11858     11857     11859     11862
     11859     11862     11865     11866     11859     11862     11865     11867
     11859     11862     11865     11868     11860     11859     11862     11863
     11860     11859     11862     11864     11860     11859     11862     11865
     11861     11859     11862     11863     11861     11859     11862     11864
     11861     11859     11862     11865     11862     11865     11868     11869
     11862     11865     11868     11870     11862     11865     11868     11871
     11863     11862     11865     11866     11863     11862     11865     11867
     11863     11862     11865     11868     11864     11862     11865     11866
     11864     11862     11865     11867     11864     11862     11865     11868
     11865     11868     11871     11872     11865     11868     11871     11873
     11865     11868     11871     11874     11866     11865     11868     11869
     11866     11865     11868     11870     11866     11865     11868     11871
     11867     11865     11868     11869     11867     11865     11868     11870
     11867     11865     11868     11871     11868     11871     11874     11875
     11868     11871     11874     11876     11868     11871     11874     11877
     11869     11868     11871     11872     11869     11868     11871     11873
     11869     11868     11871     11874     11870     11868     11871     11872
     11870     11868     11871     11873     11870     11868     11871     11874
     11871     11874     11877     11878     11871     11874     11877     11879
     11871     11874     11877     11880     11872     11871     11874     11875
     11872     11871     11874     11876     11872     11871     11874     11877
     11873     11871     11874     11875     11873     11871     11874     11876
     11873     11871     11874     11877     11874     11877     11880     11881
     11874     11877     11880     11882     11874     11877     11880     11883
     11875     11874     11877     11878     11875     11874     11877     11879
     11875     11874     11877     11880     11876     11874     11877     11878
     11876     11874     11877     11879     11876     11874     11877     11880
     11878     11877     11880     11881     11878     11877     11880     11882
     11878     11877     11880     11883     11879     11877     11880     11881
     11879     11877     11880     11882     11879     11877     11880     11883
     11884     11887     11890     11891     11884     11887     11890     11892
     11884     11887     11890     11893     11885     11884     11887     11888
     11885     11884     11887     11889     11885     11884     11887     11890
     11886     11884     11887     11888     11886     11884     11887     11889
     11886     11884     11887     11890     11887     11890     11893     11894
     11887     11890     11893     11895     11887     11890     11893     11896
     11888     11887     11890     11891     11888     11887     11890     11892
     11888     11887     11890     11893     11889     11887     11890     11891
     11889     11887     11890     11892     11889     11887     11890     11893
     11890     11893     11896     11897     11890     11893     11896     11898
     11890     11893     11896     11899     11891     11890     11893     11894
     11891     11890     11893     11895     11891     11890     11893     11896
     11892     11890     11893     11894     11892     11890     11893     11895
     11892     11890     11893     11896     11893     11896     11899     11900
     11893     11896     11899     11901     11893     11896     11899     11902
     11894     11893     11896     11897     11894     11893     11896     11898
     11894     11893     11896     11899     11895     11893     11896     11897
     11895     11893     11896     11898     11895     11893     11896     11899
     11896     11899     11902     11903     11896     11899     11902     11904
     11896     11899     11902     11905     11897     11896     11899     11900
     11897     11896     11899     11901     11897     11896     11899     11902
     11898     11896     11899     11900     11898     11896     11899     11901
     11898     11896     11899     11902     11899     11902     11905     11906
     11899     11902     11905     11907     11899     11902     11905     11908
     11900     11899     11902     11903     11900     11899     11902     11904
     11900     11899     11902     11905     11901     11899     11902     11903
     11901     11899     11902     11904     11901     11899     11902     11905
     11902     11905     11908     11909     11902     11905     11908     11910
     11902     11905     11908     11911     11903     11902     11905     11906
     11903     11902     11905     11907     11903     11902     11905     11908
     11904     11902     11905     11906     11904     11902     11905     11907
     11904     11902     11905     11908     11905     11908     11911     11912
     11905     11908     11911     11913     11905     11908     11911     11914
     11906     11905     11908     11909     11906     11905     11908     11910
     11906     11905     11908     11911     11907     11905     11908     11909
     11907     11905     11908     11910     11907     11905     11908     11911
     11908     11911     11914     11915     11908     11911     11914     11916
     11908     11911     11914     11917     11909     11908     11911     11912
     11909     11908     11911     11913     11909     11908     11911     11914
     11910     11908     11911     11912     11910     11908     11911     11913
     11910     11908     11911     11914     11911     11914     11917     11918
     11911     11914     11917     11919     11911     11914     11917     11920
     11912     11911     11914     11915     11912     11911     11914     11916
     11912     11911     11914     11917     11913     11911     11914     11915
     11913     11911     11914     11916     11913     11911     11914     11917
     11914     11917     11920     11921     11914     11917     11920     11922
     11914     11917     11920     11923     11915     11914     11917     11918
     11915     11914     11917     11919     11915     11914     11917     11920
     11916     11914     11917     11918     11916     11914     11917     11919
     11916     11914     11917     11920     11917     11920     11923     11924
     11917     11920     11923     11925     11917     11920     11923     11926
     11918     11917     11920     11921     11918     11917     11920     11922
     11918     11917     11920     11923     11919     11917     11920     11921
     11919     11917     11920     11922     11919     11917     11920     11923
     11921     11920     11923     11924     11921     11920     11923     11925
     11921     11920     11923     11926     11922     11920     11923     11924
     11922     11920     11923     11925     11922     11920     11923     11926
     11927     11928     11943     11944     11927     11928     11943     11945
     11927     11928     11943     11949     11928     11927     11931     11932
     11928     11927     11931     11933     11928     11927     11931     11934
     11928     11927     11935     11936     11928     11927     11935     11937
     11928     11927     11935     11938     11928     11927     11939     11940
     11928     11927     11939     11941     11928     11927     11939     11942
     11928     11943     11949     11946     11929     11928     11927     11931
     11929     11928     11927     11935     11929     11928     11927     11939
     11929     11928     11943     11944     11929     11928     11943     11945
     11929     11928     11943     11949     11930     11928     11927     11931
     11930     11928     11927     11935     11930     11928     11927     11939
     11930     11928     11943     11944     11930     11928     11943     11945
     11930     11928     11943     11949     11931     11927     11928     11943
     11931     11927     11935     11936     11931     11927     11935     11937
     11931     11927     11935     11938     11931     11927     11939     11940
     11931     11927     11939     11941     11931     11927     11939     11942
     11932     11931     11927     11935     11932     11931     11927     11939
     11933     11931     11927     11935     11933     11931     11927     11939
     11934     11931     11927     11935     11934     11931     11927     11939
     11935     11927     11928     11943     11935     11927     11939     11940
     11935     11927     11939     11941     11935     11927     11939     11942
     11936     11935     11927     11939     11937     11935     11927     11939
     11938     11935     11927     11939     11939     11927     11928     11943
     11943     11949     11946     11947     11943     11949     11946     11948
     11943     11949     11946     11950     11944     11943     11949     11946
     11945     11943     11949     11946     11946     11950     11951     11952
     11946     11950     11951     11953     11946     11950     11951     11954
     11947     11946     11950     11951     11948     11946     11950     11951
     11949     11946     11950     11951     11950     11951     11954     11955
     11950     11951     11954     11956     11950     11951     11954     11962
     11951     11954     11956     11957     11951     11954     11962     11963
     11951     11954     11962     11964     11951     11954     11962     11965
     11952     11951     11954     11955     11952     11951     11954     11956
     11952     11951     11954     11962     11953     11951     11954     11955
     11953     11951     11954     11956     11953     11951     11954     11962
     11954     11956     11957     11958     11954     11956     11957     11959
     11954     11962     11965     11966     11955     11954     11956     11957
     11955     11954     11962     11963     11955     11954     11962     11964
     11955     11954     11962     11965     11956     11954     11962     11963
     11956     11954     11962     11964     11956     11954     11962     11965
     11956     11957     11959     11960     11956     11957     11959     11961
     11956     11957     11959     11971     11957     11956     11954     11962
     11957     11959     11971     11972     11957     11959     11971     11973
     11957     11959     11971     11974     11958     11957     11959     11960
     11958     11957     11959     11961     11958     11957     11959     11971
     11959     11971     11974     11975     11959     11971     11974     11976
     11959     11971     11974     11977     11960     11959     11971     11972
     11960     11959     11971     11973     11960     11959     11971     11974
     11961     11959     11971     11972     11961     11959     11971     11973
     11961     11959     11971     11974     11962     11965     11966     11967
     11962     11965     11966     11968     11963     11962     11965     11966
     11964     11962     11965     11966     11965     11966     11968     11969
     11965     11966     11968     11970     11965     11966     11968     12018
     11966     11968     12018     12019     11966     11968     12018     12020
     11966     11968     12018     12021     11967     11966     11968     11969
     11967     11966     11968     11970     11967     11966     11968     12018
     11968     12018     12021     12022     11968     12018     12021     12023
     11968     12018     12021     12024     11969     11968     12018     12019
     11969     11968     12018     12020     11969     11968     12018     12021
     11970     11968     12018     12019     11970     11968     12018     12020
     11970     11968     12018     12021     11971     11974     11977     11978
     11971     11974     11977     11979     11971     11974     11977     11980
     11972     11971     11974     11975     11972     11971     11974     11976
     11972     11971     11974     11977     11973     11971     11974     11975
     11973     11971     11974     11976     11973     11971     11974     11977
     11974     11977     11980     11981     11974     11977     11980     11982
     11974     11977     11980     11983     11975     11974     11977     11978
     11975     11974     11977     11979     11975     11974     11977     11980
     11976     11974     11977     11978     11976     11974     11977     11979
     11976     11974     11977     11980     11977     11980     11983     11984
     11977     11980     11983     11985     11977     11980     11983     11986
     11978     11977     11980     11981     11978     11977     11980     11982
     11978     11977     11980     11983     11979     11977     11980     11981
     11979     11977     11980     11982     11979     11977     11980     11983
     11980     11983     11986     11987     11980     11983     11986     11988
     11980     11983     11986     11989     11981     11980     11983     11984
     11981     11980     11983     11985     11981     11980     11983     11986
     11982     11980     11983     11984     11982     11980     11983     11985
     11982     11980     11983     11986     11983     11986     11989     11990
     11983     11986     11989     11991     11984     11983     11986     11987
     11984     11983     11986     11988     11984     11983     11986     11989
     11985     11983     11986     11987     11985     11983     11986     11988
     11985     11983     11986     11989     11986     11989     11991     11992
     11986     11989     11991     11993     11987     11986     11989     11990
     11987     11986     11989     11991     11988     11986     11989     11990
     11988     11986     11989     11991     11989     11991     11993     11994
     11989     11991     11993     11995     11989     11991     11993     11996
     11990     11989     11991     11992     11990     11989     11991     11993
     11991     11993     11996     11997     11991     11993     11996     11998
     11991     11993     11996     11999     11992     11991     11993     11994
     11992     11991     11993     11995     11992     11991     11993     11996
     11993     11996     11999     12000     11993     11996     11999     12001
     11993     11996     11999     12002     11994     11993     11996     11997
     11994     11993     11996     11998     11994     11993     11996     11999
     11995     11993     11996     11997     11995     11993     11996     11998
     11995     11993     11996     11999     11996     11999     12002     12003
     11996     11999     12002     12004     11996     11999     12002     12005
     11997     11996     11999     12000     11997     11996     11999     12001
     11997     11996     11999     12002     11998     11996     11999     12000
     11998     11996     11999     12001     11998     11996     11999     12002
     11999     12002     12005     12006     11999     12002     12005     12007
     11999     12002     12005     12008     12000     11999     12002     12003
     12000     11999     12002     12004     12000     11999     12002     12005
     12001     11999     12002     12003     12001     11999     12002     12004
     12001     11999     12002     12005     12002     12005     12008     12009
     12002     12005     12008     12010     12002     12005     12008     12011
     12003     12002     12005     12006     12003     12002     12005     12007
     12003     12002     12005     12008     12004     12002     12005     12006
     12004     12002     12005     12007     12004     12002     12005     12008
     12005     12008     12011     12012     12005     12008     12011     12013
     12005     12008     12011     12014     12006     12005     12008     12009
     12006     12005     12008     12010     12006     12005     12008     12011
     12007     12005     12008     12009     12007     12005     12008     12010
     12007     12005     12008     12011     12008     12011     12014     12015
     12008     12011     12014     12016     12008     12011     12014     12017
     12009     12008     12011     12012     12009     12008     12011     12013
     12009     12008     12011     12014     12010     12008     12011     12012
     12010     12008     12011     12013     12010     12008     12011     12014
     12012     12011     12014     12015     12012     12011     12014     12016
     12012     12011     12014     12017     12013     12011     12014     12015
     12013     12011     12014     12016     12013     12011     12014     12017
     12018     12021     12024     12025     12018     12021     12024     12026
     12018     12021     12024     12027     12019     12018     12021     12022
     12019     12018     12021     12023     12019     12018     12021     12024
     12020     12018     12021     12022     12020     12018     12021     12023
     12020     12018     12021     12024     12021     12024     12027     12028
     12021     12024     12027     12029     12021     12024     12027     12030
     12022     12021     12024     12025     12022     12021     12024     12026
     12022     12021     12024     12027     12023     12021     12024     12025
     12023     12021     12024     12026     12023     12021     12024     12027
     12024     12027     12030     12031     12024     12027     12030     12032
     12024     12027     12030     12033     12025     12024     12027     12028
     12025     12024     12027     12029     12025     12024     12027     12030
     12026     12024     12027     12028     12026     12024     12027     12029
     12026     12024     12027     12030     12027     12030     12033     12034
     12027     12030     12033     12035     12027     12030     12033     12036
     12028     12027     12030     12031     12028     12027     12030     12032
     12028     12027     12030     12033     12029     12027     12030     12031
     12029     12027     12030     12032     12029     12027     12030     12033
     12030     12033     12036     12037     12030     12033     12036     12038
     12030     12033     12036     12039     12031     12030     12033     12034
     12031     12030     12033     12035     12031     12030     12033     12036
     12032     12030     12033     12034     12032     12030     12033     12035
     12032     12030     12033     12036     12033     12036     12039     12040
     12033     12036     12039     12041     12033     12036     12039     12042
     12034     12033     12036     12037     12034     12033     12036     12038
     12034     12033     12036     12039     12035     12033     12036     12037
     12035     12033     12036     12038     12035     12033     12036     12039
     12036     12039     12042     12043     12036     12039     12042     12044
     12036     12039     12042     12045     12037     12036     12039     12040
     12037     12036     12039     12041     12037     12036     12039     12042
     12038     12036     12039     12040     12038     12036     12039     12041
     12038     12036     12039     12042     12039     12042     12045     12046
     12039     12042     12045     12047     12039     12042     12045     12048
     12040     12039     12042     12043     12040     12039     12042     12044
     12040     12039     12042     12045     12041     12039     12042     12043
     12041     12039     12042     12044     12041     12039     12042     12045
     12042     12045     12048     12049     12042     12045     12048     12050
     12042     12045     12048     12051     12043     12042     12045     12046
     12043     12042     12045     12047     12043     12042     12045     12048
     12044     12042     12045     12046     12044     12042     12045     12047
     12044     12042     12045     12048     12045     12048     12051     12052
     12045     12048     12051     12053     12045     12048     12051     12054
     12046     12045     12048     12049     12046     12045     12048     12050
     12046     12045     12048     12051     12047     12045     12048     12049
     12047     12045     12048     12050     12047     12045     12048     12051
     12048     12051     12054     12055     12048     12051     12054     12056
     12048     12051     12054     12057     12049     12048     12051     12052
     12049     12048     12051     12053     12049     12048     12051     12054
     12050     12048     12051     12052     12050     12048     12051     12053
     12050     12048     12051     12054     12051     12054     12057     12058
     12051     12054     12057     12059     12051     12054     12057     12060
     12052     12051     12054     12055     12052     12051     12054     12056
     12052     12051     12054     12057     12053     12051     12054     12055
     12053     12051     12054     12056     12053     12051     12054     12057
     12055     12054     12057     12058     12055     12054     12057     12059
     12055     12054     12057     12060     12056     12054     12057     12058
     12056     12054     12057     12059     12056     12054     12057     12060
     12061     12062     12077     12078     12061     12062     12077     12079
     12061     12062     12077     12083     12062     12061     12065     12066
     12062     12061     12065     12067     12062     12061     12065     12068
     12062     12061     12069     12070     12062     12061     12069     12071
     12062     12061     12069     12072     12062     12061     12073     12074
     12062     12061     12073     12075     12062     12061     12073     12076
     12062     12077     12083     12080     12063     12062     12061     12065
     12063     12062     12061     12069     12063     12062     12061     12073
     12063     12062     12077     12078     12063     12062     12077     12079
     12063     12062     12077     12083     12064     12062     12061     12065
     12064     12062     12061     12069     12064     12062     12061     12073
     12064     12062     12077     12078     12064     12062     12077     12079
     12064     12062     12077     12083     12065     12061     12062     12077
     12065     12061     12069     12070     12065     12061     12069     12071
     12065     12061     12069     12072     12065     12061     12073     12074
     12065     12061     12073     12075     12065     12061     12073     12076
     12066     12065     12061     12069     12066     12065     12061     12073
     12067     12065     12061     12069     12067     12065     12061     12073
     12068     12065     12061     12069     12068     12065     12061     12073
     12069     12061     12062     12077     12069     12061     12073     12074
     12069     12061     12073     12075     12069     12061     12073     12076
     12070     12069     12061     12073     12071     12069     12061     12073
     12072     12069     12061     12073     12073     12061     12062     12077
     12077     12083     12080     12081     12077     12083     12080     12082
     12077     12083     12080     12084     12078     12077     12083     12080
     12079     12077     12083     12080     12080     12084     12085     12086
     12080     12084     12085     12087     12080     12084     12085     12088
     12081     12080     12084     12085     12082     12080     12084     12085
     12083     12080     12084     12085     12084     12085     12088     12089
     12084     12085     12088     12090     12084     12085     12088     12096
     12085     12088     12090     12091     12085     12088     12096     12097
     12085     12088     12096     12098     12085     12088     12096     12099
     12086     12085     12088     12089     12086     12085     12088     12090
     12086     12085     12088     12096     12087     12085     12088     12089
     12087     12085     12088     12090     12087     12085     12088     12096
     12088     12090     12091     12092     12088     12090     12091     12093
     12088     12096     12099     12100     12089     12088     12090     12091
     12089     12088     12096     12097     12089     12088     12096     12098
     12089     12088     12096     12099     12090     12088     12096     12097
     12090     12088     12096     12098     12090     12088     12096     12099
     12090     12091     12093     12094     12090     12091     12093     12095
     12090     12091     12093     12105     12091     12090     12088     12096
     12091     12093     12105     12106     12091     12093     12105     12107
     12091     12093     12105     12108     12092     12091     12093     12094
     12092     12091     12093     12095     12092     12091     12093     12105
     12093     12105     12108     12109     12093     12105     12108     12110
     12093     12105     12108     12111     12094     12093     12105     12106
     12094     12093     12105     12107     12094     12093     12105     12108
     12095     12093     12105     12106     12095     12093     12105     12107
     12095     12093     12105     12108     12096     12099     12100     12101
     12096     12099     12100     12102     12097     12096     12099     12100
     12098     12096     12099     12100     12099     12100     12102     12103
     12099     12100     12102     12104     12099     12100     12102     12152
     12100     12102     12152     12153     12100     12102     12152     12154
     12100     12102     12152     12155     12101     12100     12102     12103
     12101     12100     12102     12104     12101     12100     12102     12152
     12102     12152     12155     12156     12102     12152     12155     12157
     12102     12152     12155     12158     12103     12102     12152     12153
     12103     12102     12152     12154     12103     12102     12152     12155
     12104     12102     12152     12153     12104     12102     12152     12154
     12104     12102     12152     12155     12105     12108     12111     12112
     12105     12108     12111     12113     12105     12108     12111     12114
     12106     12105     12108     12109     12106     12105     12108     12110
     12106     12105     12108     12111     12107     12105     12108     12109
     12107     12105     12108     12110     12107     12105     12108     12111
     12108     12111     12114     12115     12108     12111     12114     12116
     12108     12111     12114     12117     12109     12108     12111     12112
     12109     12108     12111     12113     12109     12108     12111     12114
     12110     12108     12111     12112     12110     12108     12111     12113
     12110     12108     12111     12114     12111     12114     12117     12118
     12111     12114     12117     12119     12111     12114     12117     12120
     12112     12111     12114     12115     12112     12111     12114     12116
     12112     12111     12114     12117     12113     12111     12114     12115
     12113     12111     12114     12116     12113     12111     12114     12117
     12114     12117     12120     12121     12114     12117     12120     12122
     12114     12117     12120     12123     12115     12114     12117     12118
     12115     12114     12117     12119     12115     12114     12117     12120
     12116     12114     12117     12118     12116     12114     12117     12119
     12116     12114     12117     12120     12117     12120     12123     12124
     12117     12120     12123     12125     12118     12117     12120     12121
     12118     12117     12120     12122     12118     12117     12120     12123
     12119     12117     12120     12121     12119     12117     12120     12122
     12119     12117     12120     12123     12120     12123     12125     12126
     12120     12123     12125     12127     12121     12120     12123     12124
     12121     12120     12123     12125     12122     12120     12123     12124
     12122     12120     12123     12125     12123     12125     12127     12128
     12123     12125     12127     12129     12123     12125     12127     12130
     12124     12123     12125     12126     12124     12123     12125     12127
     12125     12127     12130     12131     12125     12127     12130     12132
     12125     12127     12130     12133     12126     12125     12127     12128
     12126     12125     12127     12129     12126     12125     12127     12130
     12127     12130     12133     12134     12127     12130     12133     12135
     12127     12130     12133     12136     12128     12127     12130     12131
     12128     12127     12130     12132     12128     12127     12130     12133
     12129     12127     12130     12131     12129     12127     12130     12132
     12129     12127     12130     12133     12130     12133     12136     12137
     12130     12133     12136     12138     12130     12133     12136     12139
     12131     12130     12133     12134     12131     12130     12133     12135
     12131     12130     12133     12136     12132     12130     12133     12134
     12132     12130     12133     12135     12132     12130     12133     12136
     12133     12136     12139     12140     12133     12136     12139     12141
     12133     12136     12139     12142     12134     12133     12136     12137
     12134     12133     12136     12138     12134     12133     12136     12139
     12135     12133     12136     12137     12135     12133     12136     12138
     12135     12133     12136     12139     12136     12139     12142     12143
     12136     12139     12142     12144     12136     12139     12142     12145
     12137     12136     12139     12140     12137     12136     12139     12141
     12137     12136     12139     12142     12138     12136     12139     12140
     12138     12136     12139     12141     12138     12136     12139     12142
     12139     12142     12145     12146     12139     12142     12145     12147
     12139     12142     12145     12148     12140     12139     12142     12143
     12140     12139     12142     12144     12140     12139     12142     12145
     12141     12139     12142     12143     12141     12139     12142     12144
     12141     12139     12142     12145     12142     12145     12148     12149
     12142     12145     12148     12150     12142     12145     12148     12151
     12143     12142     12145     12146     12143     12142     12145     12147
     12143     12142     12145     12148     12144     12142     12145     12146
     12144     12142     12145     12147     12144     12142     12145     12148
     12146     12145     12148     12149     12146     12145     12148     12150
     12146     12145     12148     12151     12147     12145     12148     12149
     12147     12145     12148     12150     12147     12145     12148     12151
     12152     12155     12158     12159     12152     12155     12158     12160
     12152     12155     12158     12161     12153     12152     12155     12156
     12153     12152     12155     12157     12153     12152     12155     12158
     12154     12152     12155     12156     12154     12152     12155     12157
     12154     12152     12155     12158     12155     12158     12161     12162
     12155     12158     12161     12163     12155     12158     12161     12164
     12156     12155     12158     12159     12156     12155     12158     12160
     12156     12155     12158     12161     12157     12155     12158     12159
     12157     12155     12158     12160     12157     12155     12158     12161
     12158     12161     12164     12165     12158     12161     12164     12166
     12158     12161     12164     12167     12159     12158     12161     12162
     12159     12158     12161     12163     12159     12158     12161     12164
     12160     12158     12161     12162     12160     12158     12161     12163
     12160     12158     12161     12164     12161     12164     12167     12168
     12161     12164     12167     12169     12161     12164     12167     12170
     12162     12161     12164     12165     12162     12161     12164     12166
     12162     12161     12164     12167     12163     12161     12164     12165
     12163     12161     12164     12166     12163     12161     12164     12167
     12164     12167     12170     12171     12164     12167     12170     12172
     12164     12167     12170     12173     12165     12164     12167     12168
     12165     12164     12167     12169     12165     12164     12167     12170
     12166     12164     12167     12168     12166     12164     12167     12169
     12166     12164     12167     12170     12167     12170     12173     12174
     12167     12170     12173     12175     12167     12170     12173     12176
     12168     12167     12170     12171     12168     12167     12170     12172
     12168     12167     12170     12173     12169     12167     12170     12171
     12169     12167     12170     12172     12169     12167     12170     12173
     12170     12173     12176     12177     12170     12173     12176     12178
     12170     12173     12176     12179     12171     12170     12173     12174
     12171     12170     12173     12175     12171     12170     12173     12176
     12172     12170     12173     12174     12172     12170     12173     12175
     12172     12170     12173     12176     12173     12176     12179     12180
     12173     12176     12179     12181     12173     12176     12179     12182
     12174     12173     12176     12177     12174     12173     12176     12178
     12174     12173     12176     12179     12175     12173     12176     12177
     12175     12173     12176     12178     12175     12173     12176     12179
     12176     12179     12182     12183     12176     12179     12182     12184
     12176     12179     12182     12185     12177     12176     12179     12180
     12177     12176     12179     12181     12177     12176     12179     12182
     12178     12176     12179     12180     12178     12176     12179     12181
     12178     12176     12179     12182     12179     12182     12185     12186
     12179     12182     12185     12187     12179     12182     12185     12188
     12180     12179     12182     12183     12180     12179     12182     12184
     12180     12179     12182     12185     12181     12179     12182     12183
     12181     12179     12182     12184     12181     12179     12182     12185
     12182     12185     12188     12189     12182     12185     12188     12190
     12182     12185     12188     12191     12183     12182     12185     12186
     12183     12182     12185     12187     12183     12182     12185     12188
     12184     12182     12185     12186     12184     12182     12185     12187
     12184     12182     12185     12188     12185     12188     12191     12192
     12185     12188     12191     12193     12185     12188     12191     12194
     12186     12185     12188     12189     12186     12185     12188     12190
     12186     12185     12188     12191     12187     12185     12188     12189
     12187     12185     12188     12190     12187     12185     12188     12191
     12189     12188     12191     12192     12189     12188     12191     12193
     12189     12188     12191     12194     12190     12188     12191     12192
     12190     12188     12191     12193     12190     12188     12191     12194
     12195     12196     12211     12212     12195     12196     12211     12213
     12195     12196     12211     12217     12196     12195     12199     12200
     12196     12195     12199     12201     12196     12195     12199     12202
     12196     12195     12203     12204     12196     12195     12203     12205
     12196     12195     12203     12206     12196     12195     12207     12208
     12196     12195     12207     12209     12196     12195     12207     12210
     12196     12211     12217     12214     12197     12196     12195     12199
     12197     12196     12195     12203     12197     12196     12195     12207
     12197     12196     12211     12212     12197     12196     12211     12213
     12197     12196     12211     12217     12198     12196     12195     12199
     12198     12196     12195     12203     12198     12196     12195     12207
     12198     12196     12211     12212     12198     12196     12211     12213
     12198     12196     12211     12217     12199     12195     12196     12211
     12199     12195     12203     12204     12199     12195     12203     12205
     12199     12195     12203     12206     12199     12195     12207     12208
     12199     12195     12207     12209     12199     12195     12207     12210
     12200     12199     12195     12203     12200     12199     12195     12207
     12201     12199     12195     12203     12201     12199     12195     12207
     12202     12199     12195     12203     12202     12199     12195     12207
     12203     12195     12196     12211     12203     12195     12207     12208
     12203     12195     12207     12209     12203     12195     12207     12210
     12204     12203     12195     12207     12205     12203     12195     12207
     12206     12203     12195     12207     12207     12195     12196     12211
     12211     12217     12214     12215     12211     12217     12214     12216
     12211     12217     12214     12218     12212     12211     12217     12214
     12213     12211     12217     12214     12214     12218     12219     12220
     12214     12218     12219     12221     12214     12218     12219     12222
     12215     12214     12218     12219     12216     12214     12218     12219
     12217     12214     12218     12219     12218     12219     12222     12223
     12218     12219     12222     12224     12218     12219     12222     12230
     12219     12222     12224     12225     12219     12222     12230     12231
     12219     12222     12230     12232     12219     12222     12230     12233
     12220     12219     12222     12223     12220     12219     12222     12224
     12220     12219     12222     12230     12221     12219     12222     12223
     12221     12219     12222     12224     12221     12219     12222     12230
     12222     12224     12225     12226     12222     12224     12225     12227
     12222     12230     12233     12234     12223     12222     12224     12225
     12223     12222     12230     12231     12223     12222     12230     12232
     12223     12222     12230     12233     12224     12222     12230     12231
     12224     12222     12230     12232     12224     12222     12230     12233
     12224     12225     12227     12228     12224     12225     12227     12229
     12224     12225     12227     12239     12225     12224     12222     12230
     12225     12227     12239     12240     12225     12227     12239     12241
     12225     12227     12239     12242     12226     12225     12227     12228
     12226     12225     12227     12229     12226     12225     12227     12239
     12227     12239     12242     12243     12227     12239     12242     12244
     12227     12239     12242     12245     12228     12227     12239     12240
     12228     12227     12239     12241     12228     12227     12239     12242
     12229     12227     12239     12240     12229     12227     12239     12241
     12229     12227     12239     12242     12230     12233     12234     12235
     12230     12233     12234     12236     12231     12230     12233     12234
     12232     12230     12233     12234     12233     12234     12236     12237
     12233     12234     12236     12238     12233     12234     12236     12286
     12234     12236     12286     12287     12234     12236     12286     12288
     12234     12236     12286     12289     12235     12234     12236     12237
     12235     12234     12236     12238     12235     12234     12236     12286
     12236     12286     12289     12290     12236     12286     12289     12291
     12236     12286     12289     12292     12237     12236     12286     12287
     12237     12236     12286     12288     12237     12236     12286     12289
     12238     12236     12286     12287     12238     12236     12286     12288
     12238     12236     12286     12289     12239     12242     12245     12246
     12239     12242     12245     12247     12239     12242     12245     12248
     12240     12239     12242     12243     12240     12239     12242     12244
     12240     12239     12242     12245     12241     12239     12242     12243
     12241     12239     12242     12244     12241     12239     12242     12245
     12242     12245     12248     12249     12242     12245     12248     12250
     12242     12245     12248     12251     12243     12242     12245     12246
     12243     12242     12245     12247     12243     12242     12245     12248
     12244     12242     12245     12246     12244     12242     12245     12247
     12244     12242     12245     12248     12245     12248     12251     12252
     12245     12248     12251     12253     12245     12248     12251     12254
     12246     12245     12248     12249     12246     12245     12248     12250
     12246     12245     12248     12251     12247     12245     12248     12249
     12247     12245     12248     12250     12247     12245     12248     12251
     12248     12251     12254     12255     12248     12251     12254     12256
     12248     12251     12254     12257     12249     12248     12251     12252
     12249     12248     12251     12253     12249     12248     12251     12254
     12250     12248     12251     12252     12250     12248     12251     12253
     12250     12248     12251     12254     12251     12254     12257     12258
     12251     12254     12257     12259     12252     12251     12254     12255
     12252     12251     12254     12256     12252     12251     12254     12257
     12253     12251     12254     12255     12253     12251     12254     12256
     12253     12251     12254     12257     12254     12257     12259     12260
     12254     12257     12259     12261     12255     12254     12257     12258
     12255     12254     12257     12259     12256     12254     12257     12258
     12256     12254     12257     12259     12257     12259     12261     12262
     12257     12259     12261     12263     12257     12259     12261     12264
     12258     12257     12259     12260     12258     12257     12259     12261
     12259     12261     12264     12265     12259     12261     12264     12266
     12259     12261     12264     12267     12260     12259     12261     12262
     12260     12259     12261     12263     12260     12259     12261     12264
     12261     12264     12267     12268     12261     12264     12267     12269
     12261     12264     12267     12270     12262     12261     12264     12265
     12262     12261     12264     12266     12262     12261     12264     12267
     12263     12261     12264     12265     12263     12261     12264     12266
     12263     12261     12264     12267     12264     12267     12270     12271
     12264     12267     12270     12272     12264     12267     12270     12273
     12265     12264     12267     12268     12265     12264     12267     12269
     12265     12264     12267     12270     12266     12264     12267     12268
     12266     12264     12267     12269     12266     12264     12267     12270
     12267     12270     12273     12274     12267     12270     12273     12275
     12267     12270     12273     12276     12268     12267     12270     12271
     12268     12267     12270     12272     12268     12267     12270     12273
     12269     12267     12270     12271     12269     12267     12270     12272
     12269     12267     12270     12273     12270     12273     12276     12277
     12270     12273     12276     12278     12270     12273     12276     12279
     12271     12270     12273     12274     12271     12270     12273     12275
     12271     12270     12273     12276     12272     12270     12273     12274
     12272     12270     12273     12275     12272     12270     12273     12276
     12273     12276     12279     12280     12273     12276     12279     12281
     12273     12276     12279     12282     12274     12273     12276     12277
     12274     12273     12276     12278     12274     12273     12276     12279
     12275     12273     12276     12277     12275     12273     12276     12278
     12275     12273     12276     12279     12276     12279     12282     12283
     12276     12279     12282     12284     12276     12279     12282     12285
     12277     12276     12279     12280     12277     12276     12279     12281
     12277     12276     12279     12282     12278     12276     12279     12280
     12278     12276     12279     12281     12278     12276     12279     12282
     12280     12279     12282     12283     12280     12279     12282     12284
     12280     12279     12282     12285     12281     12279     12282     12283
     12281     12279     12282     12284     12281     12279     12282     12285
     12286     12289     12292     12293     12286     12289     12292     12294
     12286     12289     12292     12295     12287     12286     12289     12290
     12287     12286     12289     12291     12287     12286     12289     12292
     12288     12286     12289     12290     12288     12286     12289     12291
     12288     12286     12289     12292     12289     12292     12295     12296
     12289     12292     12295     12297     12289     12292     12295     12298
     12290     12289     12292     12293     12290     12289     12292     12294
     12290     12289     12292     12295     12291     12289     12292     12293
     12291     12289     12292     12294     12291     12289     12292     12295
     12292     12295     12298     12299     12292     12295     12298     12300
     12292     12295     12298     12301     12293     12292     12295     12296
     12293     12292     12295     12297     12293     12292     12295     12298
     12294     12292     12295     12296     12294     12292     12295     12297
     12294     12292     12295     12298     12295     12298     12301     12302
     12295     12298     12301     12303     12295     12298     12301     12304
     12296     12295     12298     12299     12296     12295     12298     12300
     12296     12295     12298     12301     12297     12295     12298     12299
     12297     12295     12298     12300     12297     12295     12298     12301
     12298     12301     12304     12305     12298     12301     12304     12306
     12298     12301     12304     12307     12299     12298     12301     12302
     12299     12298     12301     12303     12299     12298     12301     12304
     12300     12298     12301     12302     12300     12298     12301     12303
     12300     12298     12301     12304     12301     12304     12307     12308
     12301     12304     12307     12309     12301     12304     12307     12310
     12302     12301     12304     12305     12302     12301     12304     12306
     12302     12301     12304     12307     12303     12301     12304     12305
     12303     12301     12304     12306     12303     12301     12304     12307
     12304     12307     12310     12311     12304     12307     12310     12312
     12304     12307     12310     12313     12305     12304     12307     12308
     12305     12304     12307     12309     12305     12304     12307     12310
     12306     12304     12307     12308     12306     12304     12307     12309
     12306     12304     12307     12310     12307     12310     12313     12314
     12307     12310     12313     12315     12307     12310     12313     12316
     12308     12307     12310     12311     12308     12307     12310     12312
     12308     12307     12310     12313     12309     12307     12310     12311
     12309     12307     12310     12312     12309     12307     12310     12313
     12310     12313     12316     12317     12310     12313     12316     12318
     12310     12313     12316     12319     12311     12310     12313     12314
     12311     12310     12313     12315     12311     12310     12313     12316
     12312     12310     12313     12314     12312     12310     12313     12315
     12312     12310     12313     12316     12313     12316     12319     12320
     12313     12316     12319     12321     12313     12316     12319     12322
     12314     12313     12316     12317     12314     12313     12316     12318
     12314     12313     12316     12319     12315     12313     12316     12317
     12315     12313     12316     12318     12315     12313     12316     12319
     12316     12319     12322     12323     12316     12319     12322     12324
     12316     12319     12322     12325     12317     12316     12319     12320
     12317     12316     12319     12321     12317     12316     12319     12322
     12318     12316     12319     12320     12318     12316     12319     12321
     12318     12316     12319     12322     12319     12322     12325     12326
     12319     12322     12325     12327     12319     12322     12325     12328
     12320     12319     12322     12323     12320     12319     12322     12324
     12320     12319     12322     12325     12321     12319     12322     12323
     12321     12319     12322     12324     12321     12319     12322     12325
     12323     12322     12325     12326     12323     12322     12325     12327
     12323     12322     12325     12328     12324     12322     12325     12326
     12324     12322     12325     12327     12324     12322     12325     12328
     12329     12330     12345     12346     12329     12330     12345     12347
     12329     12330     12345     12351     12330     12329     12333     12334
     12330     12329     12333     12335     12330     12329     12333     12336
     12330     12329     12337     12338     12330     12329     12337     12339
     12330     12329     12337     12340     12330     12329     12341     12342
     12330     12329     12341     12343     12330     12329     12341     12344
     12330     12345     12351     12348     12331     12330     12329     12333
     12331     12330     12329     12337     12331     12330     12329     12341
     12331     12330     12345     12346     12331     12330     12345     12347
     12331     12330     12345     12351     12332     12330     12329     12333
     12332     12330     12329     12337     12332     12330     12329     12341
     12332     12330     12345     12346     12332     12330     12345     12347
     12332     12330     12345     12351     12333     12329     12330     12345
     12333     12329     12337     12338     12333     12329     12337     12339
     12333     12329     12337     12340     12333     12329     12341     12342
     12333     12329     12341     12343     12333     12329     12341     12344
     12334     12333     12329     12337     12334     12333     12329     12341
     12335     12333     12329     12337     12335     12333     12329     12341
     12336     12333     12329     12337     12336     12333     12329     12341
     12337     12329     12330     12345     12337     12329     12341     12342
     12337     12329     12341     12343     12337     12329     12341     12344
     12338     12337     12329     12341     12339     12337     12329     12341
     12340     12337     12329     12341     12341     12329     12330     12345
     12345     12351     12348     12349     12345     12351     12348     12350
     12345     12351     12348     12352     12346     12345     12351     12348
     12347     12345     12351     12348     12348     12352     12353     12354
     12348     12352     12353     12355     12348     12352     12353     12356
     12349     12348     12352     12353     12350     12348     12352     12353
     12351     12348     12352     12353     12352     12353     12356     12357
     12352     12353     12356     12358     12352     12353     12356     12364
     12353     12356     12358     12359     12353     12356     12364     12365
     12353     12356     12364     12366     12353     12356     12364     12367
     12354     12353     12356     12357     12354     12353     12356     12358
     12354     12353     12356     12364     12355     12353     12356     12357
     12355     12353     12356     12358     12355     12353     12356     12364
     12356     12358     12359     12360     12356     12358     12359     12361
     12356     12364     12367     12368     12357     12356     12358     12359
     12357     12356     12364     12365     12357     12356     12364     12366
     12357     12356     12364     12367     12358     12356     12364     12365
     12358     12356     12364     12366     12358     12356     12364     12367
     12358     12359     12361     12362     12358     12359     12361     12363
     12358     12359     12361     12373     12359     12358     12356     12364
     12359     12361     12373     12374     12359     12361     12373     12375
     12359     12361     12373     12376     12360     12359     12361     12362
     12360     12359     12361     12363     12360     12359     12361     12373
     12361     12373     12376     12377     12361     12373     12376     12378
     12361     12373     12376     12379     12362     12361     12373     12374
     12362     12361     12373     12375     12362     12361     12373     12376
     12363     12361     12373     12374     12363     12361     12373     12375
     12363     12361     12373     12376     12364     12367     12368     12369
     12364     12367     12368     12370     12365     12364     12367     12368
     12366     12364     12367     12368     12367     12368     12370     12371
     12367     12368     12370     12372     12367     12368     12370     12420
     12368     12370     12420     12421     12368     12370     12420     12422
     12368     12370     12420     12423     12369     12368     12370     12371
     12369     12368     12370     12372     12369     12368     12370     12420
     12370     12420     12423     12424     12370     12420     12423     12425
     12370     12420     12423     12426     12371     12370     12420     12421
     12371     12370     12420     12422     12371     12370     12420     12423
     12372     12370     12420     12421     12372     12370     12420     12422
     12372     12370     12420     12423     12373     12376     12379     12380
     12373     12376     12379     12381     12373     12376     12379     12382
     12374     12373     12376     12377     12374     12373     12376     12378
     12374     12373     12376     12379     12375     12373     12376     12377
     12375     12373     12376     12378     12375     12373     12376     12379
     12376     12379     12382     12383     12376     12379     12382     12384
     12376     12379     12382     12385     12377     12376     12379     12380
     12377     12376     12379     12381     12377     12376     12379     12382
     12378     12376     12379     12380     12378     12376     12379     12381
     12378     12376     12379     12382     12379     12382     12385     12386
     12379     12382     12385     12387     12379     12382     12385     12388
     12380     12379     12382     12383     12380     12379     12382     12384
     12380     12379     12382     12385     12381     12379     12382     12383
     12381     12379     12382     12384     12381     12379     12382     12385
     12382     12385     12388     12389     12382     12385     12388     12390
     12382     12385     12388     12391     12383     12382     12385     12386
     12383     12382     12385     12387     12383     12382     12385     12388
     12384     12382     12385     12386     12384     12382     12385     12387
     12384     12382     12385     12388     12385     12388     12391     12392
     12385     12388     12391     12393     12386     12385     12388     12389
     12386     12385     12388     12390     12386     12385     12388     12391
     12387     12385     12388     12389     12387     12385     12388     12390
     12387     12385     12388     12391     12388     12391     12393     12394
     12388     12391     12393     12395     12389     12388     12391     12392
     12389     12388     12391     12393     12390     12388     12391     12392
     12390     12388     12391     12393     12391     12393     12395     12396
     12391     12393     12395     12397     12391     12393     12395     12398
     12392     12391     12393     12394     12392     12391     12393     12395
     12393     12395     12398     12399     12393     12395     12398     12400
     12393     12395     12398     12401     12394     12393     12395     12396
     12394     12393     12395     12397     12394     12393     12395     12398
     12395     12398     12401     12402     12395     12398     12401     12403
     12395     12398     12401     12404     12396     12395     12398     12399
     12396     12395     12398     12400     12396     12395     12398     12401
     12397     12395     12398     12399     12397     12395     12398     12400
     12397     12395     12398     12401     12398     12401     12404     12405
     12398     12401     12404     12406     12398     12401     12404     12407
     12399     12398     12401     12402     12399     12398     12401     12403
     12399     12398     12401     12404     12400     12398     12401     12402
     12400     12398     12401     12403     12400     12398     12401     12404
     12401     12404     12407     12408     12401     12404     12407     12409
     12401     12404     12407     12410     12402     12401     12404     12405
     12402     12401     12404     12406     12402     12401     12404     12407
     12403     12401     12404     12405     12403     12401     12404     12406
     12403     12401     12404     12407     12404     12407     12410     12411
     12404     12407     12410     12412     12404     12407     12410     12413
     12405     12404     12407     12408     12405     12404     12407     12409
     12405     12404     12407     12410     12406     12404     12407     12408
     12406     12404     12407     12409     12406     12404     12407     12410
     12407     12410     12413     12414     12407     12410     12413     12415
     12407     12410     12413     12416     12408     12407     12410     12411
     12408     12407     12410     12412     12408     12407     12410     12413
     12409     12407     12410     12411     12409     12407     12410     12412
     12409     12407     12410     12413     12410     12413     12416     12417
     12410     12413     12416     12418     12410     12413     12416     12419
     12411     12410     12413     12414     12411     12410     12413     12415
     12411     12410     12413     12416     12412     12410     12413     12414
     12412     12410     12413     12415     12412     12410     12413     12416
     12414     12413     12416     12417     12414     12413     12416     12418
     12414     12413     12416     12419     12415     12413     12416     12417
     12415     12413     12416     12418     12415     12413     12416     12419
     12420     12423     12426     12427     12420     12423     12426     12428
     12420     12423     12426     12429     12421     12420     12423     12424
     12421     12420     12423     12425     12421     12420     12423     12426
     12422     12420     12423     12424     12422     12420     12423     12425
     12422     12420     12423     12426     12423     12426     12429     12430
     12423     12426     12429     12431     12423     12426     12429     12432
     12424     12423     12426     12427     12424     12423     12426     12428
     12424     12423     12426     12429     12425     12423     12426     12427
     12425     12423     12426     12428     12425     12423     12426     12429
     12426     12429     12432     12433     12426     12429     12432     12434
     12426     12429     12432     12435     12427     12426     12429     12430
     12427     12426     12429     12431     12427     12426     12429     12432
     12428     12426     12429     12430     12428     12426     12429     12431
     12428     12426     12429     12432     12429     12432     12435     12436
     12429     12432     12435     12437     12429     12432     12435     12438
     12430     12429     12432     12433     12430     12429     12432     12434
     12430     12429     12432     12435     12431     12429     12432     12433
     12431     12429     12432     12434     12431     12429     12432     12435
     12432     12435     12438     12439     12432     12435     12438     12440
     12432     12435     12438     12441     12433     12432     12435     12436
     12433     12432     12435     12437     12433     12432     12435     12438
     12434     12432     12435     12436     12434     12432     12435     12437
     12434     12432     12435     12438     12435     12438     12441     12442
     12435     12438     12441     12443     12435     12438     12441     12444
     12436     12435     12438     12439     12436     12435     12438     12440
     12436     12435     12438     12441     12437     12435     12438     12439
     12437     12435     12438     12440     12437     12435     12438     12441
     12438     12441     12444     12445     12438     12441     12444     12446
     12438     12441     12444     12447     12439     12438     12441     12442
     12439     12438     12441     12443     12439     12438     12441     12444
     12440     12438     12441     12442     12440     12438     12441     12443
     12440     12438     12441     12444     12441     12444     12447     12448
     12441     12444     12447     12449     12441     12444     12447     12450
     12442     12441     12444     12445     12442     12441     12444     12446
     12442     12441     12444     12447     12443     12441     12444     12445
     12443     12441     12444     12446     12443     12441     12444     12447
     12444     12447     12450     12451     12444     12447     12450     12452
     12444     12447     12450     12453     12445     12444     12447     12448
     12445     12444     12447     12449     12445     12444     12447     12450
     12446     12444     12447     12448     12446     12444     12447     12449
     12446     12444     12447     12450     12447     12450     12453     12454
     12447     12450     12453     12455     12447     12450     12453     12456
     12448     12447     12450     12451     12448     12447     12450     12452
     12448     12447     12450     12453     12449     12447     12450     12451
     12449     12447     12450     12452     12449     12447     12450     12453
     12450     12453     12456     12457     12450     12453     12456     12458
     12450     12453     12456     12459     12451     12450     12453     12454
     12451     12450     12453     12455     12451     12450     12453     12456
     12452     12450     12453     12454     12452     12450     12453     12455
     12452     12450     12453     12456     12453     12456     12459     12460
     12453     12456     12459     12461     12453     12456     12459     12462
     12454     12453     12456     12457     12454     12453     12456     12458
     12454     12453     12456     12459     12455     12453     12456     12457
     12455     12453     12456     12458     12455     12453     12456     12459
     12457     12456     12459     12460     12457     12456     12459     12461
     12457     12456     12459     12462     12458     12456     12459     12460
     12458     12456     12459     12461     12458     12456     12459     12462
     12463     12464     12479     12480     12463     12464     12479     12481
     12463     12464     12479     12485     12464     12463     12467     12468
     12464     12463     12467     12469     12464     12463     12467     12470
     12464     12463     12471     12472     12464     12463     12471     12473
     12464     12463     12471     12474     12464     12463     12475     12476
     12464     12463     12475     12477     12464     12463     12475     12478
     12464     12479     12485     12482     12465     12464     12463     12467
     12465     12464     12463     12471     12465     12464     12463     12475
     12465     12464     12479     12480     12465     12464     12479     12481
     12465     12464     12479     12485     12466     12464     12463     12467
     12466     12464     12463     12471     12466     12464     12463     12475
     12466     12464     12479     12480     12466     12464     12479     12481
     12466     12464     12479     12485     12467     12463     12464     12479
     12467     12463     12471     12472     12467     12463     12471     12473
     12467     12463     12471     12474     12467     12463     12475     12476
     12467     12463     12475     12477     12467     12463     12475     12478
     12468     12467     12463     12471     12468     12467     12463     12475
     12469     12467     12463     12471     12469     12467     12463     12475
     12470     12467     12463     12471     12470     12467     12463     12475
     12471     12463     12464     12479     12471     12463     12475     12476
     12471     12463     12475     12477     12471     12463     12475     12478
     12472     12471     12463     12475     12473     12471     12463     12475
     12474     12471     12463     12475     12475     12463     12464     12479
     12479     12485     12482     12483     12479     12485     12482     12484
     12479     12485     12482     12486     12480     12479     12485     12482
     12481     12479     12485     12482     12482     12486     12487     12488
     12482     12486     12487     12489     12482     12486     12487     12490
     12483     12482     12486     12487     12484     12482     12486     12487
     12485     12482     12486     12487     12486     12487     12490     12491
     12486     12487     12490     12492     12486     12487     12490     12498
     12487     12490     12492     12493     12487     12490     12498     12499
     12487     12490     12498     12500     12487     12490     12498     12501
     12488     12487     12490     12491     12488     12487     12490     12492
     12488     12487     12490     12498     12489     12487     12490     12491
     12489     12487     12490     12492     12489     12487     12490     12498
     12490     12492     12493     12494     12490     12492     12493     12495
     12490     12498     12501     12502     12491     12490     12492     12493
     12491     12490     12498     12499     12491     12490     12498     12500
     12491     12490     12498     12501     12492     12490     12498     12499
     12492     12490     12498     12500     12492     12490     12498     12501
     12492     12493     12495     12496     12492     12493     12495     12497
     12492     12493     12495     12507     12493     12492     12490     12498
     12493     12495     12507     12508     12493     12495     12507     12509
     12493     12495     12507     12510     12494     12493     12495     12496
     12494     12493     12495     12497     12494     12493     12495     12507
     12495     12507     12510     12511     12495     12507     12510     12512
     12495     12507     12510     12513     12496     12495     12507     12508
     12496     12495     12507     12509     12496     12495     12507     12510
     12497     12495     12507     12508     12497     12495     12507     12509
     12497     12495     12507     12510     12498     12501     12502     12503
     12498     12501     12502     12504     12499     12498     12501     12502
     12500     12498     12501     12502     12501     12502     12504     12505
     12501     12502     12504     12506     12501     12502     12504     12554
     12502     12504     12554     12555     12502     12504     12554     12556
     12502     12504     12554     12557     12503     12502     12504     12505
     12503     12502     12504     12506     12503     12502     12504     12554
     12504     12554     12557     12558     12504     12554     12557     12559
     12504     12554     12557     12560     12505     12504     12554     12555
     12505     12504     12554     12556     12505     12504     12554     12557
     12506     12504     12554     12555     12506     12504     12554     12556
     12506     12504     12554     12557     12507     12510     12513     12514
     12507     12510     12513     12515     12507     12510     12513     12516
     12508     12507     12510     12511     12508     12507     12510     12512
     12508     12507     12510     12513     12509     12507     12510     12511
     12509     12507     12510     12512     12509     12507     12510     12513
     12510     12513     12516     12517     12510     12513     12516     12518
     12510     12513     12516     12519     12511     12510     12513     12514
     12511     12510     12513     12515     12511     12510     12513     12516
     12512     12510     12513     12514     12512     12510     12513     12515
     12512     12510     12513     12516     12513     12516     12519     12520
     12513     12516     12519     12521     12513     12516     12519     12522
     12514     12513     12516     12517     12514     12513     12516     12518
     12514     12513     12516     12519     12515     12513     12516     12517
     12515     12513     12516     12518     12515     12513     12516     12519
     12516     12519     12522     12523     12516     12519     12522     12524
     12516     12519     12522     12525     12517     12516     12519     12520
     12517     12516     12519     12521     12517     12516     12519     12522
     12518     12516     12519     12520     12518     12516     12519     12521
     12518     12516     12519     12522     12519     12522     12525     12526
     12519     12522     12525     12527     12520     12519     12522     12523
     12520     12519     12522     12524     12520     12519     12522     12525
     12521     12519     12522     12523     12521     12519     12522     12524
     12521     12519     12522     12525     12522     12525     12527     12528
     12522     12525     12527     12529     12523     12522     12525     12526
     12523     12522     12525     12527     12524     12522     12525     12526
     12524     12522     12525     12527     12525     12527     12529     12530
     12525     12527     12529     12531     12525     12527     12529     12532
     12526     12525     12527     12528     12526     12525     12527     12529
     12527     12529     12532     12533     12527     12529     12532     12534
     12527     12529     12532     12535     12528     12527     12529     12530
     12528     12527     12529     12531     12528     12527     12529     12532
     12529     12532     12535     12536     12529     12532     12535     12537
     12529     12532     12535     12538     12530     12529     12532     12533
     12530     12529     12532     12534     12530     12529     12532     12535
     12531     12529     12532     12533     12531     12529     12532     12534
     12531     12529     12532     12535     12532     12535     12538     12539
     12532     12535     12538     12540     12532     12535     12538     12541
     12533     12532     12535     12536     12533     12532     12535     12537
     12533     12532     12535     12538     12534     12532     12535     12536
     12534     12532     12535     12537     12534     12532     12535     12538
     12535     12538     12541     12542     12535     12538     12541     12543
     12535     12538     12541     12544     12536     12535     12538     12539
     12536     12535     12538     12540     12536     12535     12538     12541
     12537     12535     12538     12539     12537     12535     12538     12540
     12537     12535     12538     12541     12538     12541     12544     12545
     12538     12541     12544     12546     12538     12541     12544     12547
     12539     12538     12541     12542     12539     12538     12541     12543
     12539     12538     12541     12544     12540     12538     12541     12542
     12540     12538     12541     12543     12540     12538     12541     12544
     12541     12544     12547     12548     12541     12544     12547     12549
     12541     12544     12547     12550     12542     12541     12544     12545
     12542     12541     12544     12546     12542     12541     12544     12547
     12543     12541     12544     12545     12543     12541     12544     12546
     12543     12541     12544     12547     12544     12547     12550     12551
     12544     12547     12550     12552     12544     12547     12550     12553
     12545     12544     12547     12548     12545     12544     12547     12549
     12545     12544     12547     12550     12546     12544     12547     12548
     12546     12544     12547     12549     12546     12544     12547     12550
     12548     12547     12550     12551     12548     12547     12550     12552
     12548     12547     12550     12553     12549     12547     12550     12551
     12549     12547     12550     12552     12549     12547     12550     12553
     12554     12557     12560     12561     12554     12557     12560     12562
     12554     12557     12560     12563     12555     12554     12557     12558
     12555     12554     12557     12559     12555     12554     12557     12560
     12556     12554     12557     12558     12556     12554     12557     12559
     12556     12554     12557     12560     12557     12560     12563     12564
     12557     12560     12563     12565     12557     12560     12563     12566
     12558     12557     12560     12561     12558     12557     12560     12562
     12558     12557     12560     12563     12559     12557     12560     12561
     12559     12557     12560     12562     12559     12557     12560     12563
     12560     12563     12566     12567     12560     12563     12566     12568
     12560     12563     12566     12569     12561     12560     12563     12564
     12561     12560     12563     12565     12561     12560     12563     12566
     12562     12560     12563     12564     12562     12560     12563     12565
     12562     12560     12563     12566     12563     12566     12569     12570
     12563     12566     12569     12571     12563     12566     12569     12572
     12564     12563     12566     12567     12564     12563     12566     12568
     12564     12563     12566     12569     12565     12563     12566     12567
     12565     12563     12566     12568     12565     12563     12566     12569
     12566     12569     12572     12573     12566     12569     12572     12574
     12566     12569     12572     12575     12567     12566     12569     12570
     12567     12566     12569     12571     12567     12566     12569     12572
     12568     12566     12569     12570     12568     12566     12569     12571
     12568     12566     12569     12572     12569     12572     12575     12576
     12569     12572     12575     12577     12569     12572     12575     12578
     12570     12569     12572     12573     12570     12569     12572     12574
     12570     12569     12572     12575     12571     12569     12572     12573
     12571     12569     12572     12574     12571     12569     12572     12575
     12572     12575     12578     12579     12572     12575     12578     12580
     12572     12575     12578     12581     12573     12572     12575     12576
     12573     12572     12575     12577     12573     12572     12575     12578
     12574     12572     12575     12576     12574     12572     12575     12577
     12574     12572     12575     12578     12575     12578     12581     12582
     12575     12578     12581     12583     12575     12578     12581     12584
     12576     12575     12578     12579     12576     12575     12578     12580
     12576     12575     12578     12581     12577     12575     12578     12579
     12577     12575     12578     12580     12577     12575     12578     12581
     12578     12581     12584     12585     12578     12581     12584     12586
     12578     12581     12584     12587     12579     12578     12581     12582
     12579     12578     12581     12583     12579     12578     12581     12584
     12580     12578     12581     12582     12580     12578     12581     12583
     12580     12578     12581     12584     12581     12584     12587     12588
     12581     12584     12587     12589     12581     12584     12587     12590
     12582     12581     12584     12585     12582     12581     12584     12586
     12582     12581     12584     12587     12583     12581     12584     12585
     12583     12581     12584     12586     12583     12581     12584     12587
     12584     12587     12590     12591     12584     12587     12590     12592
     12584     12587     12590     12593     12585     12584     12587     12588
     12585     12584     12587     12589     12585     12584     12587     12590
     12586     12584     12587     12588     12586     12584     12587     12589
     12586     12584     12587     12590     12587     12590     12593     12594
     12587     12590     12593     12595     12587     12590     12593     12596
     12588     12587     12590     12591     12588     12587     12590     12592
     12588     12587     12590     12593     12589     12587     12590     12591
     12589     12587     12590     12592     12589     12587     12590     12593
     12591     12590     12593     12594     12591     12590     12593     12595
     12591     12590     12593     12596     12592     12590     12593     12594
     12592     12590     12593     12595     12592     12590     12593     12596
     12597     12598     12613     12614     12597     12598     12613     12615
     12597     12598     12613     12619     12598     12597     12601     12602
     12598     12597     12601     12603     12598     12597     12601     12604
     12598     12597     12605     12606     12598     12597     12605     12607
     12598     12597     12605     12608     12598     12597     12609     12610
     12598     12597     12609     12611     12598     12597     12609     12612
     12598     12613     12619     12616     12599     12598     12597     12601
     12599     12598     12597     12605     12599     12598     12597     12609
     12599     12598     12613     12614     12599     12598     12613     12615
     12599     12598     12613     12619     12600     12598     12597     12601
     12600     12598     12597     12605     12600     12598     12597     12609
     12600     12598     12613     12614     12600     12598     12613     12615
     12600     12598     12613     12619     12601     12597     12598     12613
     12601     12597     12605     12606     12601     12597     12605     12607
     12601     12597     12605     12608     12601     12597     12609     12610
     12601     12597     12609     12611     12601     12597     12609     12612
     12602     12601     12597     12605     12602     12601     12597     12609
     12603     12601     12597     12605     12603     12601     12597     12609
     12604     12601     12597     12605     12604     12601     12597     12609
     12605     12597     12598     12613     12605     12597     12609     12610
     12605     12597     12609     12611     12605     12597     12609     12612
     12606     12605     12597     12609     12607     12605     12597     12609
     12608     12605     12597     12609     12609     12597     12598     12613
     12613     12619     12616     12617     12613     12619     12616     12618
     12613     12619     12616     12620     12614     12613     12619     12616
     12615     12613     12619     12616     12616     12620     12621     12622
     12616     12620     12621     12623     12616     12620     12621     12624
     12617     12616     12620     12621     12618     12616     12620     12621
     12619     12616     12620     12621     12620     12621     12624     12625
     12620     12621     12624     12626     12620     12621     12624     12632
     12621     12624     12626     12627     12621     12624     12632     12633
     12621     12624     12632     12634     12621     12624     12632     12635
     12622     12621     12624     12625     12622     12621     12624     12626
     12622     12621     12624     12632     12623     12621     12624     12625
     12623     12621     12624     12626     12623     12621     12624     12632
     12624     12626     12627     12628     12624     12626     12627     12629
     12624     12632     12635     12636     12625     12624     12626     12627
     12625     12624     12632     12633     12625     12624     12632     12634
     12625     12624     12632     12635     12626     12624     12632     12633
     12626     12624     12632     12634     12626     12624     12632     12635
     12626     12627     12629     12630     12626     12627     12629     12631
     12626     12627     12629     12641     12627     12626     12624     12632
     12627     12629     12641     12642     12627     12629     12641     12643
     12627     12629     12641     12644     12628     12627     12629     12630
     12628     12627     12629     12631     12628     12627     12629     12641
     12629     12641     12644     12645     12629     12641     12644     12646
     12629     12641     12644     12647     12630     12629     12641     12642
     12630     12629     12641     12643     12630     12629     12641     12644
     12631     12629     12641     12642     12631     12629     12641     12643
     12631     12629     12641     12644     12632     12635     12636     12637
     12632     12635     12636     12638     12633     12632     12635     12636
     12634     12632     12635     12636     12635     12636     12638     12639
     12635     12636     12638     12640     12635     12636     12638     12688
     12636     12638     12688     12689     12636     12638     12688     12690
     12636     12638     12688     12691     12637     12636     12638     12639
     12637     12636     12638     12640     12637     12636     12638     12688
     12638     12688     12691     12692     12638     12688     12691     12693
     12638     12688     12691     12694     12639     12638     12688     12689
     12639     12638     12688     12690     12639     12638     12688     12691
     12640     12638     12688     12689     12640     12638     12688     12690
     12640     12638     12688     12691     12641     12644     12647     12648
     12641     12644     12647     12649     12641     12644     12647     12650
     12642     12641     12644     12645     12642     12641     12644     12646
     12642     12641     12644     12647     12643     12641     12644     12645
     12643     12641     12644     12646     12643     12641     12644     12647
     12644     12647     12650     12651     12644     12647     12650     12652
     12644     12647     12650     12653     12645     12644     12647     12648
     12645     12644     12647     12649     12645     12644     12647     12650
     12646     12644     12647     12648     12646     12644     12647     12649
     12646     12644     12647     12650     12647     12650     12653     12654
     12647     12650     12653     12655     12647     12650     12653     12656
     12648     12647     12650     12651     12648     12647     12650     12652
     12648     12647     12650     12653     12649     12647     12650     12651
     12649     12647     12650     12652     12649     12647     12650     12653
     12650     12653     12656     12657     12650     12653     12656     12658
     12650     12653     12656     12659     12651     12650     12653     12654
     12651     12650     12653     12655     12651     12650     12653     12656
     12652     12650     12653     12654     12652     12650     12653     12655
     12652     12650     12653     12656     12653     12656     12659     12660
     12653     12656     12659     12661     12654     12653     12656     12657
     12654     12653     12656     12658     12654     12653     12656     12659
     12655     12653     12656     12657     12655     12653     12656     12658
     12655     12653     12656     12659     12656     12659     12661     12662
     12656     12659     12661     12663     12657     12656     12659     12660
     12657     12656     12659     12661     12658     12656     12659     12660
     12658     12656     12659     12661     12659     12661     12663     12664
     12659     12661     12663     12665     12659     12661     12663     12666
     12660     12659     12661     12662     12660     12659     12661     12663
     12661     12663     12666     12667     12661     12663     12666     12668
     12661     12663     12666     12669     12662     12661     12663     12664
     12662     12661     12663     12665     12662     12661     12663     12666
     12663     12666     12669     12670     12663     12666     12669     12671
     12663     12666     12669     12672     12664     12663     12666     12667
     12664     12663     12666     12668     12664     12663     12666     12669
     12665     12663     12666     12667     12665     12663     12666     12668
     12665     12663     12666     12669     12666     12669     12672     12673
     12666     12669     12672     12674     12666     12669     12672     12675
     12667     12666     12669     12670     12667     12666     12669     12671
     12667     12666     12669     12672     12668     12666     12669     12670
     12668     12666     12669     12671     12668     12666     12669     12672
     12669     12672     12675     12676     12669     12672     12675     12677
     12669     12672     12675     12678     12670     12669     12672     12673
     12670     12669     12672     12674     12670     12669     12672     12675
     12671     12669     12672     12673     12671     12669     12672     12674
     12671     12669     12672     12675     12672     12675     12678     12679
     12672     12675     12678     12680     12672     12675     12678     12681
     12673     12672     12675     12676     12673     12672     12675     12677
     12673     12672     12675     12678     12674     12672     12675     12676
     12674     12672     12675     12677     12674     12672     12675     12678
     12675     12678     12681     12682     12675     12678     12681     12683
     12675     12678     12681     12684     12676     12675     12678     12679
     12676     12675     12678     12680     12676     12675     12678     12681
     12677     12675     12678     12679     12677     12675     12678     12680
     12677     12675     12678     12681     12678     12681     12684     12685
     12678     12681     12684     12686     12678     12681     12684     12687
     12679     12678     12681     12682     12679     12678     12681     12683
     12679     12678     12681     12684     12680     12678     12681     12682
     12680     12678     12681     12683     12680     12678     12681     12684
     12682     12681     12684     12685     12682     12681     12684     12686
     12682     12681     12684     12687     12683     12681     12684     12685
     12683     12681     12684     12686     12683     12681     12684     12687
     12688     12691     12694     12695     12688     12691     12694     12696
     12688     12691     12694     12697     12689     12688     12691     12692
     12689     12688     12691     12693     12689     12688     12691     12694
     12690     12688     12691     12692     12690     12688     12691     12693
     12690     12688     12691     12694     12691     12694     12697     12698
     12691     12694     12697     12699     12691     12694     12697     12700
     12692     12691     12694     12695     12692     12691     12694     12696
     12692     12691     12694     12697     12693     12691     12694     12695
     12693     12691     12694     12696     12693     12691     12694     12697
     12694     12697     12700     12701     12694     12697     12700     12702
     12694     12697     12700     12703     12695     12694     12697     12698
     12695     12694     12697     12699     12695     12694     12697     12700
     12696     12694     12697     12698     12696     12694     12697     12699
     12696     12694     12697     12700     12697     12700     12703     12704
     12697     12700     12703     12705     12697     12700     12703     12706
     12698     12697     12700     12701     12698     12697     12700     12702
     12698     12697     12700     12703     12699     12697     12700     12701
     12699     12697     12700     12702     12699     12697     12700     12703
     12700     12703     12706     12707     12700     12703     12706     12708
     12700     12703     12706     12709     12701     12700     12703     12704
     12701     12700     12703     12705     12701     12700     12703     12706
     12702     12700     12703     12704     12702     12700     12703     12705
     12702     12700     12703     12706     12703     12706     12709     12710
     12703     12706     12709     12711     12703     12706     12709     12712
     12704     12703     12706     12707     12704     12703     12706     12708
     12704     12703     12706     12709     12705     12703     12706     12707
     12705     12703     12706     12708     12705     12703     12706     12709
     12706     12709     12712     12713     12706     12709     12712     12714
     12706     12709     12712     12715     12707     12706     12709     12710
     12707     12706     12709     12711     12707     12706     12709     12712
     12708     12706     12709     12710     12708     12706     12709     12711
     12708     12706     12709     12712     12709     12712     12715     12716
     12709     12712     12715     12717     12709     12712     12715     12718
     12710     12709     12712     12713     12710     12709     12712     12714
     12710     12709     12712     12715     12711     12709     12712     12713
     12711     12709     12712     12714     12711     12709     12712     12715
     12712     12715     12718     12719     12712     12715     12718     12720
     12712     12715     12718     12721     12713     12712     12715     12716
     12713     12712     12715     12717     12713     12712     12715     12718
     12714     12712     12715     12716     12714     12712     12715     12717
     12714     12712     12715     12718     12715     12718     12721     12722
     12715     12718     12721     12723     12715     12718     12721     12724
     12716     12715     12718     12719     12716     12715     12718     12720
     12716     12715     12718     12721     12717     12715     12718     12719
     12717     12715     12718     12720     12717     12715     12718     12721
     12718     12721     12724     12725     12718     12721     12724     12726
     12718     12721     12724     12727     12719     12718     12721     12722
     12719     12718     12721     12723     12719     12718     12721     12724
     12720     12718     12721     12722     12720     12718     12721     12723
     12720     12718     12721     12724     12721     12724     12727     12728
     12721     12724     12727     12729     12721     12724     12727     12730
     12722     12721     12724     12725     12722     12721     12724     12726
     12722     12721     12724     12727     12723     12721     12724     12725
     12723     12721     12724     12726     12723     12721     12724     12727
     12725     12724     12727     12728     12725     12724     12727     12729
     12725     12724     12727     12730     12726     12724     12727     12728
     12726     12724     12727     12729     12726     12724     12727     12730
     12731     12732     12747     12748     12731     12732     12747     12749
     12731     12732     12747     12753     12732     12731     12735     12736
     12732     12731     12735     12737     12732     12731     12735     12738
     12732     12731     12739     12740     12732     12731     12739     12741
     12732     12731     12739     12742     12732     12731     12743     12744
     12732     12731     12743     12745     12732     12731     12743     12746
     12732     12747     12753     12750     12733     12732     12731     12735
     12733     12732     12731     12739     12733     12732     12731     12743
     12733     12732     12747     12748     12733     12732     12747     12749
     12733     12732     12747     12753     12734     12732     12731     12735
     12734     12732     12731     12739     12734     12732     12731     12743
     12734     12732     12747     12748     12734     12732     12747     12749
     12734     12732     12747     12753     12735     12731     12732     12747
     12735     12731     12739     12740     12735     12731     12739     12741
     12735     12731     12739     12742     12735     12731     12743     12744
     12735     12731     12743     12745     12735     12731     12743     12746
     12736     12735     12731     12739     12736     12735     12731     12743
     12737     12735     12731     12739     12737     12735     12731     12743
     12738     12735     12731     12739     12738     12735     12731     12743
     12739     12731     12732     12747     12739     12731     12743     12744
     12739     12731     12743     12745     12739     12731     12743     12746
     12740     12739     12731     12743     12741     12739     12731     12743
     12742     12739     12731     12743     12743     12731     12732     12747
     12747     12753     12750     12751     12747     12753     12750     12752
     12747     12753     12750     12754     12748     12747     12753     12750
     12749     12747     12753     12750     12750     12754     12755     12756
     12750     12754     12755     12757     12750     12754     12755     12758
     12751     12750     12754     12755     12752     12750     12754     12755
     12753     12750     12754     12755     12754     12755     12758     12759
     12754     12755     12758     12760     12754     12755     12758     12766
     12755     12758     12760     12761     12755     12758     12766     12767
     12755     12758     12766     12768     12755     12758     12766     12769
     12756     12755     12758     12759     12756     12755     12758     12760
     12756     12755     12758     12766     12757     12755     12758     12759
     12757     12755     12758     12760     12757     12755     12758     12766
     12758     12760     12761     12762     12758     12760     12761     12763
     12758     12766     12769     12770     12759     12758     12760     12761
     12759     12758     12766     12767     12759     12758     12766     12768
     12759     12758     12766     12769     12760     12758     12766     12767
     12760     12758     12766     12768     12760     12758     12766     12769
     12760     12761     12763     12764     12760     12761     12763     12765
     12760     12761     12763     12775     12761     12760     12758     12766
     12761     12763     12775     12776     12761     12763     12775     12777
     12761     12763     12775     12778     12762     12761     12763     12764
     12762     12761     12763     12765     12762     12761     12763     12775
     12763     12775     12778     12779     12763     12775     12778     12780
     12763     12775     12778     12781     12764     12763     12775     12776
     12764     12763     12775     12777     12764     12763     12775     12778
     12765     12763     12775     12776     12765     12763     12775     12777
     12765     12763     12775     12778     12766     12769     12770     12771
     12766     12769     12770     12772     12767     12766     12769     12770
     12768     12766     12769     12770     12769     12770     12772     12773
     12769     12770     12772     12774     12769     12770     12772     12822
     12770     12772     12822     12823     12770     12772     12822     12824
     12770     12772     12822     12825     12771     12770     12772     12773
     12771     12770     12772     12774     12771     12770     12772     12822
     12772     12822     12825     12826     12772     12822     12825     12827
     12772     12822     12825     12828     12773     12772     12822     12823
     12773     12772     12822     12824     12773     12772     12822     12825
     12774     12772     12822     12823     12774     12772     12822     12824
     12774     12772     12822     12825     12775     12778     12781     12782
     12775     12778     12781     12783     12775     12778     12781     12784
     12776     12775     12778     12779     12776     12775     12778     12780
     12776     12775     12778     12781     12777     12775     12778     12779
     12777     12775     12778     12780     12777     12775     12778     12781
     12778     12781     12784     12785     12778     12781     12784     12786
     12778     12781     12784     12787     12779     12778     12781     12782
     12779     12778     12781     12783     12779     12778     12781     12784
     12780     12778     12781     12782     12780     12778     12781     12783
     12780     12778     12781     12784     12781     12784     12787     12788
     12781     12784     12787     12789     12781     12784     12787     12790
     12782     12781     12784     12785     12782     12781     12784     12786
     12782     12781     12784     12787     12783     12781     12784     12785
     12783     12781     12784     12786     12783     12781     12784     12787
     12784     12787     12790     12791     12784     12787     12790     12792
     12784     12787     12790     12793     12785     12784     12787     12788
     12785     12784     12787     12789     12785     12784     12787     12790
     12786     12784     12787     12788     12786     12784     12787     12789
     12786     12784     12787     12790     12787     12790     12793     12794
     12787     12790     12793     12795     12788     12787     12790     12791
     12788     12787     12790     12792     12788     12787     12790     12793
     12789     12787     12790     12791     12789     12787     12790     12792
     12789     12787     12790     12793     12790     12793     12795     12796
     12790     12793     12795     12797     12791     12790     12793     12794
     12791     12790     12793     12795     12792     12790     12793     12794
     12792     12790     12793     12795     12793     12795     12797     12798
     12793     12795     12797     12799     12793     12795     12797     12800
     12794     12793     12795     12796     12794     12793     12795     12797
     12795     12797     12800     12801     12795     12797     12800     12802
     12795     12797     12800     12803     12796     12795     12797     12798
     12796     12795     12797     12799     12796     12795     12797     12800
     12797     12800     12803     12804     12797     12800     12803     12805
     12797     12800     12803     12806     12798     12797     12800     12801
     12798     12797     12800     12802     12798     12797     12800     12803
     12799     12797     12800     12801     12799     12797     12800     12802
     12799     12797     12800     12803     12800     12803     12806     12807
     12800     12803     12806     12808     12800     12803     12806     12809
     12801     12800     12803     12804     12801     12800     12803     12805
     12801     12800     12803     12806     12802     12800     12803     12804
     12802     12800     12803     12805     12802     12800     12803     12806
     12803     12806     12809     12810     12803     12806     12809     12811
     12803     12806     12809     12812     12804     12803     12806     12807
     12804     12803     12806     12808     12804     12803     12806     12809
     12805     12803     12806     12807     12805     12803     12806     12808
     12805     12803     12806     12809     12806     12809     12812     12813
     12806     12809     12812     12814     12806     12809     12812     12815
     12807     12806     12809     12810     12807     12806     12809     12811
     12807     12806     12809     12812     12808     12806     12809     12810
     12808     12806     12809     12811     12808     12806     12809     12812
     12809     12812     12815     12816     12809     12812     12815     12817
     12809     12812     12815     12818     12810     12809     12812     12813
     12810     12809     12812     12814     12810     12809     12812     12815
     12811     12809     12812     12813     12811     12809     12812     12814
     12811     12809     12812     12815     12812     12815     12818     12819
     12812     12815     12818     12820     12812     12815     12818     12821
     12813     12812     12815     12816     12813     12812     12815     12817
     12813     12812     12815     12818     12814     12812     12815     12816
     12814     12812     12815     12817     12814     12812     12815     12818
     12816     12815     12818     12819     12816     12815     12818     12820
     12816     12815     12818     12821     12817     12815     12818     12819
     12817     12815     12818     12820     12817     12815     12818     12821
     12822     12825     12828     12829     12822     12825     12828     12830
     12822     12825     12828     12831     12823     12822     12825     12826
     12823     12822     12825     12827     12823     12822     12825     12828
     12824     12822     12825     12826     12824     12822     12825     12827
     12824     12822     12825     12828     12825     12828     12831     12832
     12825     12828     12831     12833     12825     12828     12831     12834
     12826     12825     12828     12829     12826     12825     12828     12830
     12826     12825     12828     12831     12827     12825     12828     12829
     12827     12825     12828     12830     12827     12825     12828     12831
     12828     12831     12834     12835     12828     12831     12834     12836
     12828     12831     12834     12837     12829     12828     12831     12832
     12829     12828     12831     12833     12829     12828     12831     12834
     12830     12828     12831     12832     12830     12828     12831     12833
     12830     12828     12831     12834     12831     12834     12837     12838
     12831     12834     12837     12839     12831     12834     12837     12840
     12832     12831     12834     12835     12832     12831     12834     12836
     12832     12831     12834     12837     12833     12831     12834     12835
     12833     12831     12834     12836     12833     12831     12834     12837
     12834     12837     12840     12841     12834     12837     12840     12842
     12834     12837     12840     12843     12835     12834     12837     12838
     12835     12834     12837     12839     12835     12834     12837     12840
     12836     12834     12837     12838     12836     12834     12837     12839
     12836     12834     12837     12840     12837     12840     12843     12844
     12837     12840     12843     12845     12837     12840     12843     12846
     12838     12837     12840     12841     12838     12837     12840     12842
     12838     12837     12840     12843     12839     12837     12840     12841
     12839     12837     12840     12842     12839     12837     12840     12843
     12840     12843     12846     12847     12840     12843     12846     12848
     12840     12843     12846     12849     12841     12840     12843     12844
     12841     12840     12843     12845     12841     12840     12843     12846
     12842     12840     12843     12844     12842     12840     12843     12845
     12842     12840     12843     12846     12843     12846     12849     12850
     12843     12846     12849     12851     12843     12846     12849     12852
     12844     12843     12846     12847     12844     12843     12846     12848
     12844     12843     12846     12849     12845     12843     12846     12847
     12845     12843     12846     12848     12845     12843     12846     12849
     12846     12849     12852     12853     12846     12849     12852     12854
     12846     12849     12852     12855     12847     12846     12849     12850
     12847     12846     12849     12851     12847     12846     12849     12852
     12848     12846     12849     12850     12848     12846     12849     12851
     12848     12846     12849     12852     12849     12852     12855     12856
     12849     12852     12855     12857     12849     12852     12855     12858
     12850     12849     12852     12853     12850     12849     12852     12854
     12850     12849     12852     12855     12851     12849     12852     12853
     12851     12849     12852     12854     12851     12849     12852     12855
     12852     12855     12858     12859     12852     12855     12858     12860
     12852     12855     12858     12861     12853     12852     12855     12856
     12853     12852     12855     12857     12853     12852     12855     12858
     12854     12852     12855     12856     12854     12852     12855     12857
     12854     12852     12855     12858     12855     12858     12861     12862
     12855     12858     12861     12863     12855     12858     12861     12864
     12856     12855     12858     12859     12856     12855     12858     12860
     12856     12855     12858     12861     12857     12855     12858     12859
     12857     12855     12858     12860     12857     12855     12858     12861
     12859     12858     12861     12862     12859     12858     12861     12863
     12859     12858     12861     12864     12860     12858     12861     12862
     12860     12858     12861     12863     12860     12858     12861     12864
     12865     12866     12881     12882     12865     12866     12881     12883
     12865     12866     12881     12887     12866     12865     12869     12870
     12866     12865     12869     12871     12866     12865     12869     12872
     12866     12865     12873     12874     12866     12865     12873     12875
     12866     12865     12873     12876     12866     12865     12877     12878
     12866     12865     12877     12879     12866     12865     12877     12880
     12866     12881     12887     12884     12867     12866     12865     12869
     12867     12866     12865     12873     12867     12866     12865     12877
     12867     12866     12881     12882     12867     12866     12881     12883
     12867     12866     12881     12887     12868     12866     12865     12869
     12868     12866     12865     12873     12868     12866     12865     12877
     12868     12866     12881     12882     12868     12866     12881     12883
     12868     12866     12881     12887     12869     12865     12866     12881
     12869     12865     12873     12874     12869     12865     12873     12875
     12869     12865     12873     12876     12869     12865     12877     12878
     12869     12865     12877     12879     12869     12865     12877     12880
     12870     12869     12865     12873     12870     12869     12865     12877
     12871     12869     12865     12873     12871     12869     12865     12877
     12872     12869     12865     12873     12872     12869     12865     12877
     12873     12865     12866     12881     12873     12865     12877     12878
     12873     12865     12877     12879     12873     12865     12877     12880
     12874     12873     12865     12877     12875     12873     12865     12877
     12876     12873     12865     12877     12877     12865     12866     12881
     12881     12887     12884     12885     12881     12887     12884     12886
     12881     12887     12884     12888     12882     12881     12887     12884
     12883     12881     12887     12884     12884     12888     12889     12890
     12884     12888     12889     12891     12884     12888     12889     12892
     12885     12884     12888     12889     12886     12884     12888     12889
     12887     12884     12888     12889     12888     12889     12892     12893
     12888     12889     12892     12894     12888     12889     12892     12900
     12889     12892     12894     12895     12889     12892     12900     12901
     12889     12892     12900     12902     12889     12892     12900     12903
     12890     12889     12892     12893     12890     12889     12892     12894
     12890     12889     12892     12900     12891     12889     12892     12893
     12891     12889     12892     12894     12891     12889     12892     12900
     12892     12894     12895     12896     12892     12894     12895     12897
     12892     12900     12903     12904     12893     12892     12894     12895
     12893     12892     12900     12901     12893     12892     12900     12902
     12893     12892     12900     12903     12894     12892     12900     12901
     12894     12892     12900     12902     12894     12892     12900     12903
     12894     12895     12897     12898     12894     12895     12897     12899
     12894     12895     12897     12909     12895     12894     12892     12900
     12895     12897     12909     12910     12895     12897     12909     12911
     12895     12897     12909     12912     12896     12895     12897     12898
     12896     12895     12897     12899     12896     12895     12897     12909
     12897     12909     12912     12913     12897     12909     12912     12914
     12897     12909     12912     12915     12898     12897     12909     12910
     12898     12897     12909     12911     12898     12897     12909     12912
     12899     12897     12909     12910     12899     12897     12909     12911
     12899     12897     12909     12912     12900     12903     12904     12905
     12900     12903     12904     12906     12901     12900     12903     12904
     12902     12900     12903     12904     12903     12904     12906     12907
     12903     12904     12906     12908     12903     12904     12906     12956
     12904     12906     12956     12957     12904     12906     12956     12958
     12904     12906     12956     12959     12905     12904     12906     12907
     12905     12904     12906     12908     12905     12904     12906     12956
     12906     12956     12959     12960     12906     12956     12959     12961
     12906     12956     12959     12962     12907     12906     12956     12957
     12907     12906     12956     12958     12907     12906     12956     12959
     12908     12906     12956     12957     12908     12906     12956     12958
     12908     12906     12956     12959     12909     12912     12915     12916
     12909     12912     12915     12917     12909     12912     12915     12918
     12910     12909     12912     12913     12910     12909     12912     12914
     12910     12909     12912     12915     12911     12909     12912     12913
     12911     12909     12912     12914     12911     12909     12912     12915
     12912     12915     12918     12919     12912     12915     12918     12920
     12912     12915     12918     12921     12913     12912     12915     12916
     12913     12912     12915     12917     12913     12912     12915     12918
     12914     12912     12915     12916     12914     12912     12915     12917
     12914     12912     12915     12918     12915     12918     12921     12922
     12915     12918     12921     12923     12915     12918     12921     12924
     12916     12915     12918     12919     12916     12915     12918     12920
     12916     12915     12918     12921     12917     12915     12918     12919
     12917     12915     12918     12920     12917     12915     12918     12921
     12918     12921     12924     12925     12918     12921     12924     12926
     12918     12921     12924     12927     12919     12918     12921     12922
     12919     12918     12921     12923     12919     12918     12921     12924
     12920     12918     12921     12922     12920     12918     12921     12923
     12920     12918     12921     12924     12921     12924     12927     12928
     12921     12924     12927     12929     12922     12921     12924     12925
     12922     12921     12924     12926     12922     12921     12924     12927
     12923     12921     12924     12925     12923     12921     12924     12926
     12923     12921     12924     12927     12924     12927     12929     12930
     12924     12927     12929     12931     12925     12924     12927     12928
     12925     12924     12927     12929     12926     12924     12927     12928
     12926     12924     12927     12929     12927     12929     12931     12932
     12927     12929     12931     12933     12927     12929     12931     12934
     12928     12927     12929     12930     12928     12927     12929     12931
     12929     12931     12934     12935     12929     12931     12934     12936
     12929     12931     12934     12937     12930     12929     12931     12932
     12930     12929     12931     12933     12930     12929     12931     12934
     12931     12934     12937     12938     12931     12934     12937     12939
     12931     12934     12937     12940     12932     12931     12934     12935
     12932     12931     12934     12936     12932     12931     12934     12937
     12933     12931     12934     12935     12933     12931     12934     12936
     12933     12931     12934     12937     12934     12937     12940     12941
     12934     12937     12940     12942     12934     12937     12940     12943
     12935     12934     12937     12938     12935     12934     12937     12939
     12935     12934     12937     12940     12936     12934     12937     12938
     12936     12934     12937     12939     12936     12934     12937     12940
     12937     12940     12943     12944     12937     12940     12943     12945
     12937     12940     12943     12946     12938     12937     12940     12941
     12938     12937     12940     12942     12938     12937     12940     12943
     12939     12937     12940     12941     12939     12937     12940     12942
     12939     12937     12940     12943     12940     12943     12946     12947
     12940     12943     12946     12948     12940     12943     12946     12949
     12941     12940     12943     12944     12941     12940     12943     12945
     12941     12940     12943     12946     12942     12940     12943     12944
     12942     12940     12943     12945     12942     12940     12943     12946
     12943     12946     12949     12950     12943     12946     12949     12951
     12943     12946     12949     12952     12944     12943     12946     12947
     12944     12943     12946     12948     12944     12943     12946     12949
     12945     12943     12946     12947     12945     12943     12946     12948
     12945     12943     12946     12949     12946     12949     12952     12953
     12946     12949     12952     12954     12946     12949     12952     12955
     12947     12946     12949     12950     12947     12946     12949     12951
     12947     12946     12949     12952     12948     12946     12949     12950
     12948     12946     12949     12951     12948     12946     12949     12952
     12950     12949     12952     12953     12950     12949     12952     12954
     12950     12949     12952     12955     12951     12949     12952     12953
     12951     12949     12952     12954     12951     12949     12952     12955
     12956     12959     12962     12963     12956     12959     12962     12964
     12956     12959     12962     12965     12957     12956     12959     12960
     12957     12956     12959     12961     12957     12956     12959     12962
     12958     12956     12959     12960     12958     12956     12959     12961
     12958     12956     12959     12962     12959     12962     12965     12966
     12959     12962     12965     12967     12959     12962     12965     12968
     12960     12959     12962     12963     12960     12959     12962     12964
     12960     12959     12962     12965     12961     12959     12962     12963
     12961     12959     12962     12964     12961     12959     12962     12965
     12962     12965     12968     12969     12962     12965     12968     12970
     12962     12965     12968     12971     12963     12962     12965     12966
     12963     12962     12965     12967     12963     12962     12965     12968
     12964     12962     12965     12966     12964     12962     12965     12967
     12964     12962     12965     12968     12965     12968     12971     12972
     12965     12968     12971     12973     12965     12968     12971     12974
     12966     12965     12968     12969     12966     12965     12968     12970
     12966     12965     12968     12971     12967     12965     12968     12969
     12967     12965     12968     12970     12967     12965     12968     12971
     12968     12971     12974     12975     12968     12971     12974     12976
     12968     12971     12974     12977     12969     12968     12971     12972
     12969     12968     12971     12973     12969     12968     12971     12974
     12970     12968     12971     12972     12970     12968     12971     12973
     12970     12968     12971     12974     12971     12974     12977     12978
     12971     12974     12977     12979     12971     12974     12977     12980
     12972     12971     12974     12975     12972     12971     12974     12976
     12972     12971     12974     12977     12973     12971     12974     12975
     12973     12971     12974     12976     12973     12971     12974     12977
     12974     12977     12980     12981     12974     12977     12980     12982
     12974     12977     12980     12983     12975     12974     12977     12978
     12975     12974     12977     12979     12975     12974     12977     12980
     12976     12974     12977     12978     12976     12974     12977     12979
     12976     12974     12977     12980     12977     12980     12983     12984
     12977     12980     12983     12985     12977     12980     12983     12986
     12978     12977     12980     12981     12978     12977     12980     12982
     12978     12977     12980     12983     12979     12977     12980     12981
     12979     12977     12980     12982     12979     12977     12980     12983
     12980     12983     12986     12987     12980     12983     12986     12988
     12980     12983     12986     12989     12981     12980     12983     12984
     12981     12980     12983     12985     12981     12980     12983     12986
     12982     12980     12983     12984     12982     12980     12983     12985
     12982     12980     12983     12986     12983     12986     12989     12990
     12983     12986     12989     12991     12983     12986     12989     12992
     12984     12983     12986     12987     12984     12983     12986     12988
     12984     12983     12986     12989     12985     12983     12986     12987
     12985     12983     12986     12988     12985     12983     12986     12989
     12986     12989     12992     12993     12986     12989     12992     12994
     12986     12989     12992     12995     12987     12986     12989     12990
     12987     12986     12989     12991     12987     12986     12989     12992
     12988     12986     12989     12990     12988     12986     12989     12991
     12988     12986     12989     12992     12989     12992     12995     12996
     12989     12992     12995     12997     12989     12992     12995     12998
     12990     12989     12992     12993     12990     12989     12992     12994
     12990     12989     12992     12995     12991     12989     12992     12993
     12991     12989     12992     12994     12991     12989     12992     12995
     12993     12992     12995     12996     12993     12992     12995     12997
     12993     12992     12995     12998     12994     12992     12995     12996
     12994     12992     12995     12997     12994     12992     12995     12998
     12999     13000     13015     13016     12999     13000     13015     13017
     12999     13000     13015     13021     13000     12999     13003     13004
     13000     12999     13003     13005     13000     12999     13003     13006
     13000     12999     13007     13008     13000     12999     13007     13009
     13000     12999     13007     13010     13000     12999     13011     13012
     13000     12999     13011     13013     13000     12999     13011     13014
     13000     13015     13021     13018     13001     13000     12999     13003
     13001     13000     12999     13007     13001     13000     12999     13011
     13001     13000     13015     13016     13001     13000     13015     13017
     13001     13000     13015     13021     13002     13000     12999     13003
     13002     13000     12999     13007     13002     13000     12999     13011
     13002     13000     13015     13016     13002     13000     13015     13017
     13002     13000     13015     13021     13003     12999     13000     13015
     13003     12999     13007     13008     13003     12999     13007     13009
     13003     12999     13007     13010     13003     12999     13011     13012
     13003     12999     13011     13013     13003     12999     13011     13014
     13004     13003     12999     13007     13004     13003     12999     13011
     13005     13003     12999     13007     13005     13003     12999     13011
     13006     13003     12999     13007     13006     13003     12999     13011
     13007     12999     13000     13015     13007     12999     13011     13012
     13007     12999     13011     13013     13007     12999     13011     13014
     13008     13007     12999     13011     13009     13007     12999     13011
     13010     13007     12999     13011     13011     12999     13000     13015
     13015     13021     13018     13019     13015     13021     13018     13020
     13015     13021     13018     13022     13016     13015     13021     13018
     13017     13015     13021     13018     13018     13022     13023     13024
     13018     13022     13023     13025     13018     13022     13023     13026
     13019     13018     13022     13023     13020     13018     13022     13023
     13021     13018     13022     13023     13022     13023     13026     13027
     13022     13023     13026     13028     13022     13023     13026     13034
     13023     13026     13028     13029     13023     13026     13034     13035
     13023     13026     13034     13036     13023     13026     13034     13037
     13024     13023     13026     13027     13024     13023     13026     13028
     13024     13023     13026     13034     13025     13023     13026     13027
     13025     13023     13026     13028     13025     13023     13026     13034
     13026     13028     13029     13030     13026     13028     13029     13031
     13026     13034     13037     13038     13027     13026     13028     13029
     13027     13026     13034     13035     13027     13026     13034     13036
     13027     13026     13034     13037     13028     13026     13034     13035
     13028     13026     13034     13036     13028     13026     13034     13037
     13028     13029     13031     13032     13028     13029     13031     13033
     13028     13029     13031     13043     13029     13028     13026     13034
     13029     13031     13043     13044     13029     13031     13043     13045
     13029     13031     13043     13046     13030     13029     13031     13032
     13030     13029     13031     13033     13030     13029     13031     13043
     13031     13043     13046     13047     13031     13043     13046     13048
     13031     13043     13046     13049     13032     13031     13043     13044
     13032     13031     13043     13045     13032     13031     13043     13046
     13033     13031     13043     13044     13033     13031     13043     13045
     13033     13031     13043     13046     13034     13037     13038     13039
     13034     13037     13038     13040     13035     13034     13037     13038
     13036     13034     13037     13038     13037     13038     13040     13041
     13037     13038     13040     13042     13037     13038     13040     13090
     13038     13040     13090     13091     13038     13040     13090     13092
     13038     13040     13090     13093     13039     13038     13040     13041
     13039     13038     13040     13042     13039     13038     13040     13090
     13040     13090     13093     13094     13040     13090     13093     13095
     13040     13090     13093     13096     13041     13040     13090     13091
     13041     13040     13090     13092     13041     13040     13090     13093
     13042     13040     13090     13091     13042     13040     13090     13092
     13042     13040     13090     13093     13043     13046     13049     13050
     13043     13046     13049     13051     13043     13046     13049     13052
     13044     13043     13046     13047     13044     13043     13046     13048
     13044     13043     13046     13049     13045     13043     13046     13047
     13045     13043     13046     13048     13045     13043     13046     13049
     13046     13049     13052     13053     13046     13049     13052     13054
     13046     13049     13052     13055     13047     13046     13049     13050
     13047     13046     13049     13051     13047     13046     13049     13052
     13048     13046     13049     13050     13048     13046     13049     13051
     13048     13046     13049     13052     13049     13052     13055     13056
     13049     13052     13055     13057     13049     13052     13055     13058
     13050     13049     13052     13053     13050     13049     13052     13054
     13050     13049     13052     13055     13051     13049     13052     13053
     13051     13049     13052     13054     13051     13049     13052     13055
     13052     13055     13058     13059     13052     13055     13058     13060
     13052     13055     13058     13061     13053     13052     13055     13056
     13053     13052     13055     13057     13053     13052     13055     13058
     13054     13052     13055     13056     13054     13052     13055     13057
     13054     13052     13055     13058     13055     13058     13061     13062
     13055     13058     13061     13063     13056     13055     13058     13059
     13056     13055     13058     13060     13056     13055     13058     13061
     13057     13055     13058     13059     13057     13055     13058     13060
     13057     13055     13058     13061     13058     13061     13063     13064
     13058     13061     13063     13065     13059     13058     13061     13062
     13059     13058     13061     13063     13060     13058     13061     13062
     13060     13058     13061     13063     13061     13063     13065     13066
     13061     13063     13065     13067     13061     13063     13065     13068
     13062     13061     13063     13064     13062     13061     13063     13065
     13063     13065     13068     13069     13063     13065     13068     13070
     13063     13065     13068     13071     13064     13063     13065     13066
     13064     13063     13065     13067     13064     13063     13065     13068
     13065     13068     13071     13072     13065     13068     13071     13073
     13065     13068     13071     13074     13066     13065     13068     13069
     13066     13065     13068     13070     13066     13065     13068     13071
     13067     13065     13068     13069     13067     13065     13068     13070
     13067     13065     13068     13071     13068     13071     13074     13075
     13068     13071     13074     13076     13068     13071     13074     13077
     13069     13068     13071     13072     13069     13068     13071     13073
     13069     13068     13071     13074     13070     13068     13071     13072
     13070     13068     13071     13073     13070     13068     13071     13074
     13071     13074     13077     13078     13071     13074     13077     13079
     13071     13074     13077     13080     13072     13071     13074     13075
     13072     13071     13074     13076     13072     13071     13074     13077
     13073     13071     13074     13075     13073     13071     13074     13076
     13073     13071     13074     13077     13074     13077     13080     13081
     13074     13077     13080     13082     13074     13077     13080     13083
     13075     13074     13077     13078     13075     13074     13077     13079
     13075     13074     13077     13080     13076     13074     13077     13078
     13076     13074     13077     13079     13076     13074     13077     13080
     13077     13080     13083     13084     13077     13080     13083     13085
     13077     13080     13083     13086     13078     13077     13080     13081
     13078     13077     13080     13082     13078     13077     13080     13083
     13079     13077     13080     13081     13079     13077     13080     13082
     13079     13077     13080     13083     13080     13083     13086     13087
     13080     13083     13086     13088     13080     13083     13086     13089
     13081     13080     13083     13084     13081     13080     13083     13085
     13081     13080     13083     13086     13082     13080     13083     13084
     13082     13080     13083     13085     13082     13080     13083     13086
     13084     13083     13086     13087     13084     13083     13086     13088
     13084     13083     13086     13089     13085     13083     13086     13087
     13085     13083     13086     13088     13085     13083     13086     13089
     13090     13093     13096     13097     13090     13093     13096     13098
     13090     13093     13096     13099     13091     13090     13093     13094
     13091     13090     13093     13095     13091     13090     13093     13096
     13092     13090     13093     13094     13092     13090     13093     13095
     13092     13090     13093     13096     13093     13096     13099     13100
     13093     13096     13099     13101     13093     13096     13099     13102
     13094     13093     13096     13097     13094     13093     13096     13098
     13094     13093     13096     13099     13095     13093     13096     13097
     13095     13093     13096     13098     13095     13093     13096     13099
     13096     13099     13102     13103     13096     13099     13102     13104
     13096     13099     13102     13105     13097     13096     13099     13100
     13097     13096     13099     13101     13097     13096     13099     13102
     13098     13096     13099     13100     13098     13096     13099     13101
     13098     13096     13099     13102     13099     13102     13105     13106
     13099     13102     13105     13107     13099     13102     13105     13108
     13100     13099     13102     13103     13100     13099     13102     13104
     13100     13099     13102     13105     13101     13099     13102     13103
     13101     13099     13102     13104     13101     13099     13102     13105
     13102     13105     13108     13109     13102     13105     13108     13110
     13102     13105     13108     13111     13103     13102     13105     13106
     13103     13102     13105     13107     13103     13102     13105     13108
     13104     13102     13105     13106     13104     13102     13105     13107
     13104     13102     13105     13108     13105     13108     13111     13112
     13105     13108     13111     13113     13105     13108     13111     13114
     13106     13105     13108     13109     13106     13105     13108     13110
     13106     13105     13108     13111     13107     13105     13108     13109
     13107     13105     13108     13110     13107     13105     13108     13111
     13108     13111     13114     13115     13108     13111     13114     13116
     13108     13111     13114     13117     13109     13108     13111     13112
     13109     13108     13111     13113     13109     13108     13111     13114
     13110     13108     13111     13112     13110     13108     13111     13113
     13110     13108     13111     13114     13111     13114     13117     13118
     13111     13114     13117     13119     13111     13114     13117     13120
     13112     13111     13114     13115     13112     13111     13114     13116
     13112     13111     13114     13117     13113     13111     13114     13115
     13113     13111     13114     13116     13113     13111     13114     13117
     13114     13117     13120     13121     13114     13117     13120     13122
     13114     13117     13120     13123     13115     13114     13117     13118
     13115     13114     13117     13119     13115     13114     13117     13120
     13116     13114     13117     13118     13116     13114     13117     13119
     13116     13114     13117     13120     13117     13120     13123     13124
     13117     13120     13123     13125     13117     13120     13123     13126
     13118     13117     13120     13121     13118     13117     13120     13122
     13118     13117     13120     13123     13119     13117     13120     13121
     13119     13117     13120     13122     13119     13117     13120     13123
     13120     13123     13126     13127     13120     13123     13126     13128
     13120     13123     13126     13129     13121     13120     13123     13124
     13121     13120     13123     13125     13121     13120     13123     13126
     13122     13120     13123     13124     13122     13120     13123     13125
     13122     13120     13123     13126     13123     13126     13129     13130
     13123     13126     13129     13131     13123     13126     13129     13132
     13124     13123     13126     13127     13124     13123     13126     13128
     13124     13123     13126     13129     13125     13123     13126     13127
     13125     13123     13126     13128     13125     13123     13126     13129
     13127     13126     13129     13130     13127     13126     13129     13131
     13127     13126     13129     13132     13128     13126     13129     13130
     13128     13126     13129     13131     13128     13126     13129     13132
     13133     13134     13149     13150     13133     13134     13149     13151
     13133     13134     13149     13155     13134     13133     13137     13138
     13134     13133     13137     13139     13134     13133     13137     13140
     13134     13133     13141     13142     13134     13133     13141     13143
     13134     13133     13141     13144     13134     13133     13145     13146
     13134     13133     13145     13147     13134     13133     13145     13148
     13134     13149     13155     13152     13135     13134     13133     13137
     13135     13134     13133     13141     13135     13134     13133     13145
     13135     13134     13149     13150     13135     13134     13149     13151
     13135     13134     13149     13155     13136     13134     13133     13137
     13136     13134     13133     13141     13136     13134     13133     13145
     13136     13134     13149     13150     13136     13134     13149     13151
     13136     13134     13149     13155     13137     13133     13134     13149
     13137     13133     13141     13142     13137     13133     13141     13143
     13137     13133     13141     13144     13137     13133     13145     13146
     13137     13133     13145     13147     13137     13133     13145     13148
     13138     13137     13133     13141     13138     13137     13133     13145
     13139     13137     13133     13141     13139     13137     13133     13145
     13140     13137     13133     13141     13140     13137     13133     13145
     13141     13133     13134     13149     13141     13133     13145     13146
     13141     13133     13145     13147     13141     13133     13145     13148
     13142     13141     13133     13145     13143     13141     13133     13145
     13144     13141     13133     13145     13145     13133     13134     13149
     13149     13155     13152     13153     13149     13155     13152     13154
     13149     13155     13152     13156     13150     13149     13155     13152
     13151     13149     13155     13152     13152     13156     13157     13158
     13152     13156     13157     13159     13152     13156     13157     13160
     13153     13152     13156     13157     13154     13152     13156     13157
     13155     13152     13156     13157     13156     13157     13160     13161
     13156     13157     13160     13162     13156     13157     13160     13168
     13157     13160     13162     13163     13157     13160     13168     13169
     13157     13160     13168     13170     13157     13160     13168     13171
     13158     13157     13160     13161     13158     13157     13160     13162
     13158     13157     13160     13168     13159     13157     13160     13161
     13159     13157     13160     13162     13159     13157     13160     13168
     13160     13162     13163     13164     13160     13162     13163     13165
     13160     13168     13171     13172     13161     13160     13162     13163
     13161     13160     13168     13169     13161     13160     13168     13170
     13161     13160     13168     13171     13162     13160     13168     13169
     13162     13160     13168     13170     13162     13160     13168     13171
     13162     13163     13165     13166     13162     13163     13165     13167
     13162     13163     13165     13177     13163     13162     13160     13168
     13163     13165     13177     13178     13163     13165     13177     13179
     13163     13165     13177     13180     13164     13163     13165     13166
     13164     13163     13165     13167     13164     13163     13165     13177
     13165     13177     13180     13181     13165     13177     13180     13182
     13165     13177     13180     13183     13166     13165     13177     13178
     13166     13165     13177     13179     13166     13165     13177     13180
     13167     13165     13177     13178     13167     13165     13177     13179
     13167     13165     13177     13180     13168     13171     13172     13173
     13168     13171     13172     13174     13169     13168     13171     13172
     13170     13168     13171     13172     13171     13172     13174     13175
     13171     13172     13174     13176     13171     13172     13174     13224
     13172     13174     13224     13225     13172     13174     13224     13226
     13172     13174     13224     13227     13173     13172     13174     13175
     13173     13172     13174     13176     13173     13172     13174     13224
     13174     13224     13227     13228     13174     13224     13227     13229
     13174     13224     13227     13230     13175     13174     13224     13225
     13175     13174     13224     13226     13175     13174     13224     13227
     13176     13174     13224     13225     13176     13174     13224     13226
     13176     13174     13224     13227     13177     13180     13183     13184
     13177     13180     13183     13185     13177     13180     13183     13186
     13178     13177     13180     13181     13178     13177     13180     13182
     13178     13177     13180     13183     13179     13177     13180     13181
     13179     13177     13180     13182     13179     13177     13180     13183
     13180     13183     13186     13187     13180     13183     13186     13188
     13180     13183     13186     13189     13181     13180     13183     13184
     13181     13180     13183     13185     13181     13180     13183     13186
     13182     13180     13183     13184     13182     13180     13183     13185
     13182     13180     13183     13186     13183     13186     13189     13190
     13183     13186     13189     13191     13183     13186     13189     13192
     13184     13183     13186     13187     13184     13183     13186     13188
     13184     13183     13186     13189     13185     13183     13186     13187
     13185     13183     13186     13188     13185     13183     13186     13189
     13186     13189     13192     13193     13186     13189     13192     13194
     13186     13189     13192     13195     13187     13186     13189     13190
     13187     13186     13189     13191     13187     13186     13189     13192
     13188     13186     13189     13190     13188     13186     13189     13191
     13188     13186     13189     13192     13189     13192     13195     13196
     13189     13192     13195     13197     13190     13189     13192     13193
     13190     13189     13192     13194     13190     13189     13192     13195
     13191     13189     13192     13193     13191     13189     13192     13194
     13191     13189     13192     13195     13192     13195     13197     13198
     13192     13195     13197     13199     13193     13192     13195     13196
     13193     13192     13195     13197     13194     13192     13195     13196
     13194     13192     13195     13197     13195     13197     13199     13200
     13195     13197     13199     13201     13195     13197     13199     13202
     13196     13195     13197     13198     13196     13195     13197     13199
     13197     13199     13202     13203     13197     13199     13202     13204
     13197     13199     13202     13205     13198     13197     13199     13200
     13198     13197     13199     13201     13198     13197     13199     13202
     13199     13202     13205     13206     13199     13202     13205     13207
     13199     13202     13205     13208     13200     13199     13202     13203
     13200     13199     13202     13204     13200     13199     13202     13205
     13201     13199     13202     13203     13201     13199     13202     13204
     13201     13199     13202     13205     13202     13205     13208     13209
     13202     13205     13208     13210     13202     13205     13208     13211
     13203     13202     13205     13206     13203     13202     13205     13207
     13203     13202     13205     13208     13204     13202     13205     13206
     13204     13202     13205     13207     13204     13202     13205     13208
     13205     13208     13211     13212     13205     13208     13211     13213
     13205     13208     13211     13214     13206     13205     13208     13209
     13206     13205     13208     13210     13206     13205     13208     13211
     13207     13205     13208     13209     13207     13205     13208     13210
     13207     13205     13208     13211     13208     13211     13214     13215
     13208     13211     13214     13216     13208     13211     13214     13217
     13209     13208     13211     13212     13209     13208     13211     13213
     13209     13208     13211     13214     13210     13208     13211     13212
     13210     13208     13211     13213     13210     13208     13211     13214
     13211     13214     13217     13218     13211     13214     13217     13219
     13211     13214     13217     13220     13212     13211     13214     13215
     13212     13211     13214     13216     13212     13211     13214     13217
     13213     13211     13214     13215     13213     13211     13214     13216
     13213     13211     13214     13217     13214     13217     13220     13221
     13214     13217     13220     13222     13214     13217     13220     13223
     13215     13214     13217     13218     13215     13214     13217     13219
     13215     13214     13217     13220     13216     13214     13217     13218
     13216     13214     13217     13219     13216     13214     13217     13220
     13218     13217     13220     13221     13218     13217     13220     13222
     13218     13217     13220     13223     13219     13217     13220     13221
     13219     13217     13220     13222     13219     13217     13220     13223
     13224     13227     13230     13231     13224     13227     13230     13232
     13224     13227     13230     13233     13225     13224     13227     13228
     13225     13224     13227     13229     13225     13224     13227     13230
     13226     13224     13227     13228     13226     13224     13227     13229
     13226     13224     13227     13230     13227     13230     13233     13234
     13227     13230     13233     13235     13227     13230     13233     13236
     13228     13227     13230     13231     13228     13227     13230     13232
     13228     13227     13230     13233     13229     13227     13230     13231
     13229     13227     13230     13232     13229     13227     13230     13233
     13230     13233     13236     13237     13230     13233     13236     13238
     13230     13233     13236     13239     13231     13230     13233     13234
     13231     13230     13233     13235     13231     13230     13233     13236
     13232     13230     13233     13234     13232     13230     13233     13235
     13232     13230     13233     13236     13233     13236     13239     13240
     13233     13236     13239     13241     13233     13236     13239     13242
     13234     13233     13236     13237     13234     13233     13236     13238
     13234     13233     13236     13239     13235     13233     13236     13237
     13235     13233     13236     13238     13235     13233     13236     13239
     13236     13239     13242     13243     13236     13239     13242     13244
     13236     13239     13242     13245     13237     13236     13239     13240
     13237     13236     13239     13241     13237     13236     13239     13242
     13238     13236     13239     13240     13238     13236     13239     13241
     13238     13236     13239     13242     13239     13242     13245     13246
     13239     13242     13245     13247     13239     13242     13245     13248
     13240     13239     13242     13243     13240     13239     13242     13244
     13240     13239     13242     13245     13241     13239     13242     13243
     13241     13239     13242     13244     13241     13239     13242     13245
     13242     13245     13248     13249     13242     13245     13248     13250
     13242     13245     13248     13251     13243     13242     13245     13246
     13243     13242     13245     13247     13243     13242     13245     13248
     13244     13242     13245     13246     13244     13242     13245     13247
     13244     13242     13245     13248     13245     13248     13251     13252
     13245     13248     13251     13253     13245     13248     13251     13254
     13246     13245     13248     13249     13246     13245     13248     13250
     13246     13245     13248     13251     13247     13245     13248     13249
     13247     13245     13248     13250     13247     13245     13248     13251
     13248     13251     13254     13255     13248     13251     13254     13256
     13248     13251     13254     13257     13249     13248     13251     13252
     13249     13248     13251     13253     13249     13248     13251     13254
     13250     13248     13251     13252     13250     13248     13251     13253
     13250     13248     13251     13254     13251     13254     13257     13258
     13251     13254     13257     13259     13251     13254     13257     13260
     13252     13251     13254     13255     13252     13251     13254     13256
     13252     13251     13254     13257     13253     13251     13254     13255
     13253     13251     13254     13256     13253     13251     13254     13257
     13254     13257     13260     13261     13254     13257     13260     13262
     13254     13257     13260     13263     13255     13254     13257     13258
     13255     13254     13257     13259     13255     13254     13257     13260
     13256     13254     13257     13258     13256     13254     13257     13259
     13256     13254     13257     13260     13257     13260     13263     13264
     13257     13260     13263     13265     13257     13260     13263     13266
     13258     13257     13260     13261     13258     13257     13260     13262
     13258     13257     13260     13263     13259     13257     13260     13261
     13259     13257     13260     13262     13259     13257     13260     13263
     13261     13260     13263     13264     13261     13260     13263     13265
     13261     13260     13263     13266     13262     13260     13263     13264
     13262     13260     13263     13265     13262     13260     13263     13266
     13267     13268     13283     13284     13267     13268     13283     13285
     13267     13268     13283     13289     13268     13267     13271     13272
     13268     13267     13271     13273     13268     13267     13271     13274
     13268     13267     13275     13276     13268     13267     13275     13277
     13268     13267     13275     13278     13268     13267     13279     13280
     13268     13267     13279     13281     13268     13267     13279     13282
     13268     13283     13289     13286     13269     13268     13267     13271
     13269     13268     13267     13275     13269     13268     13267     13279
     13269     13268     13283     13284     13269     13268     13283     13285
     13269     13268     13283     13289     13270     13268     13267     13271
     13270     13268     13267     13275     13270     13268     13267     13279
     13270     13268     13283     13284     13270     13268     13283     13285
     13270     13268     13283     13289     13271     13267     13268     13283
     13271     13267     13275     13276     13271     13267     13275     13277
     13271     13267     13275     13278     13271     13267     13279     13280
     13271     13267     13279     13281     13271     13267     13279     13282
     13272     13271     13267     13275     13272     13271     13267     13279
     13273     13271     13267     13275     13273     13271     13267     13279
     13274     13271     13267     13275     13274     13271     13267     13279
     13275     13267     13268     13283     13275     13267     13279     13280
     13275     13267     13279     13281     13275     13267     13279     13282
     13276     13275     13267     13279     13277     13275     13267     13279
     13278     13275     13267     13279     13279     13267     13268     13283
     13283     13289     13286     13287     13283     13289     13286     13288
     13283     13289     13286     13290     13284     13283     13289     13286
     13285     13283     13289     13286     13286     13290     13291     13292
     13286     13290     13291     13293     13286     13290     13291     13294
     13287     13286     13290     13291     13288     13286     13290     13291
     13289     13286     13290     13291     13290     13291     13294     13295
     13290     13291     13294     13296     13290     13291     13294     13302
     13291     13294     13296     13297     13291     13294     13302     13303
     13291     13294     13302     13304     13291     13294     13302     13305
     13292     13291     13294     13295     13292     13291     13294     13296
     13292     13291     13294     13302     13293     13291     13294     13295
     13293     13291     13294     13296     13293     13291     13294     13302
     13294     13296     13297     13298     13294     13296     13297     13299
     13294     13302     13305     13306     13295     13294     13296     13297
     13295     13294     13302     13303     13295     13294     13302     13304
     13295     13294     13302     13305     13296     13294     13302     13303
     13296     13294     13302     13304     13296     13294     13302     13305
     13296     13297     13299     13300     13296     13297     13299     13301
     13296     13297     13299     13311     13297     13296     13294     13302
     13297     13299     13311     13312     13297     13299     13311     13313
     13297     13299     13311     13314     13298     13297     13299     13300
     13298     13297     13299     13301     13298     13297     13299     13311
     13299     13311     13314     13315     13299     13311     13314     13316
     13299     13311     13314     13317     13300     13299     13311     13312
     13300     13299     13311     13313     13300     13299     13311     13314
     13301     13299     13311     13312     13301     13299     13311     13313
     13301     13299     13311     13314     13302     13305     13306     13307
     13302     13305     13306     13308     13303     13302     13305     13306
     13304     13302     13305     13306     13305     13306     13308     13309
     13305     13306     13308     13310     13305     13306     13308     13358
     13306     13308     13358     13359     13306     13308     13358     13360
     13306     13308     13358     13361     13307     13306     13308     13309
     13307     13306     13308     13310     13307     13306     13308     13358
     13308     13358     13361     13362     13308     13358     13361     13363
     13308     13358     13361     13364     13309     13308     13358     13359
     13309     13308     13358     13360     13309     13308     13358     13361
     13310     13308     13358     13359     13310     13308     13358     13360
     13310     13308     13358     13361     13311     13314     13317     13318
     13311     13314     13317     13319     13311     13314     13317     13320
     13312     13311     13314     13315     13312     13311     13314     13316
     13312     13311     13314     13317     13313     13311     13314     13315
     13313     13311     13314     13316     13313     13311     13314     13317
     13314     13317     13320     13321     13314     13317     13320     13322
     13314     13317     13320     13323     13315     13314     13317     13318
     13315     13314     13317     13319     13315     13314     13317     13320
     13316     13314     13317     13318     13316     13314     13317     13319
     13316     13314     13317     13320     13317     13320     13323     13324
     13317     13320     13323     13325     13317     13320     13323     13326
     13318     13317     13320     13321     13318     13317     13320     13322
     13318     13317     13320     13323     13319     13317     13320     13321
     13319     13317     13320     13322     13319     13317     13320     13323
     13320     13323     13326     13327     13320     13323     13326     13328
     13320     13323     13326     13329     13321     13320     13323     13324
     13321     13320     13323     13325     13321     13320     13323     13326
     13322     13320     13323     13324     13322     13320     13323     13325
     13322     13320     13323     13326     13323     13326     13329     13330
     13323     13326     13329     13331     13324     13323     13326     13327
     13324     13323     13326     13328     13324     13323     13326     13329
     13325     13323     13326     13327     13325     13323     13326     13328
     13325     13323     13326     13329     13326     13329     13331     13332
     13326     13329     13331     13333     13327     13326     13329     13330
     13327     13326     13329     13331     13328     13326     13329     13330
     13328     13326     13329     13331     13329     13331     13333     13334
     13329     13331     13333     13335     13329     13331     13333     13336
     13330     13329     13331     13332     13330     13329     13331     13333
     13331     13333     13336     13337     13331     13333     13336     13338
     13331     13333     13336     13339     13332     13331     13333     13334
     13332     13331     13333     13335     13332     13331     13333     13336
     13333     13336     13339     13340     13333     13336     13339     13341
     13333     13336     13339     13342     13334     13333     13336     13337
     13334     13333     13336     13338     13334     13333     13336     13339
     13335     13333     13336     13337     13335     13333     13336     13338
     13335     13333     13336     13339     13336     13339     13342     13343
     13336     13339     13342     13344     13336     13339     13342     13345
     13337     13336     13339     13340     13337     13336     13339     13341
     13337     13336     13339     13342     13338     13336     13339     13340
     13338     13336     13339     13341     13338     13336     13339     13342
     13339     13342     13345     13346     13339     13342     13345     13347
     13339     13342     13345     13348     13340     13339     13342     13343
     13340     13339     13342     13344     13340     13339     13342     13345
     13341     13339     13342     13343     13341     13339     13342     13344
     13341     13339     13342     13345     13342     13345     13348     13349
     13342     13345     13348     13350     13342     13345     13348     13351
     13343     13342     13345     13346     13343     13342     13345     13347
     13343     13342     13345     13348     13344     13342     13345     13346
     13344     13342     13345     13347     13344     13342     13345     13348
     13345     13348     13351     13352     13345     13348     13351     13353
     13345     13348     13351     13354     13346     13345     13348     13349
     13346     13345     13348     13350     13346     13345     13348     13351
     13347     13345     13348     13349     13347     13345     13348     13350
     13347     13345     13348     13351     13348     13351     13354     13355
     13348     13351     13354     13356     13348     13351     13354     13357
     13349     13348     13351     13352     13349     13348     13351     13353
     13349     13348     13351     13354     13350     13348     13351     13352
     13350     13348     13351     13353     13350     13348     13351     13354
     13352     13351     13354     13355     13352     13351     13354     13356
     13352     13351     13354     13357     13353     13351     13354     13355
     13353     13351     13354     13356     13353     13351     13354     13357
     13358     13361     13364     13365     13358     13361     13364     13366
     13358     13361     13364     13367     13359     13358     13361     13362
     13359     13358     13361     13363     13359     13358     13361     13364
     13360     13358     13361     13362     13360     13358     13361     13363
     13360     13358     13361     13364     13361     13364     13367     13368
     13361     13364     13367     13369     13361     13364     13367     13370
     13362     13361     13364     13365     13362     13361     13364     13366
     13362     13361     13364     13367     13363     13361     13364     13365
     13363     13361     13364     13366     13363     13361     13364     13367
     13364     13367     13370     13371     13364     13367     13370     13372
     13364     13367     13370     13373     13365     13364     13367     13368
     13365     13364     13367     13369     13365     13364     13367     13370
     13366     13364     13367     13368     13366     13364     13367     13369
     13366     13364     13367     13370     13367     13370     13373     13374
     13367     13370     13373     13375     13367     13370     13373     13376
     13368     13367     13370     13371     13368     13367     13370     13372
     13368     13367     13370     13373     13369     13367     13370     13371
     13369     13367     13370     13372     13369     13367     13370     13373
     13370     13373     13376     13377     13370     13373     13376     13378
     13370     13373     13376     13379     13371     13370     13373     13374
     13371     13370     13373     13375     13371     13370     13373     13376
     13372     13370     13373     13374     13372     13370     13373     13375
     13372     13370     13373     13376     13373     13376     13379     13380
     13373     13376     13379     13381     13373     13376     13379     13382
     13374     13373     13376     13377     13374     13373     13376     13378
     13374     13373     13376     13379     13375     13373     13376     13377
     13375     13373     13376     13378     13375     13373     13376     13379
     13376     13379     13382     13383     13376     13379     13382     13384
     13376     13379     13382     13385     13377     13376     13379     13380
     13377     13376     13379     13381     13377     13376     13379     13382
     13378     13376     13379     13380     13378     13376     13379     13381
     13378     13376     13379     13382     13379     13382     13385     13386
     13379     13382     13385     13387     13379     13382     13385     13388
     13380     13379     13382     13383     13380     13379     13382     13384
     13380     13379     13382     13385     13381     13379     13382     13383
     13381     13379     13382     13384     13381     13379     13382     13385
     13382     13385     13388     13389     13382     13385     13388     13390
     13382     13385     13388     13391     13383     13382     13385     13386
     13383     13382     13385     13387     13383     13382     13385     13388
     13384     13382     13385     13386     13384     13382     13385     13387
     13384     13382     13385     13388     13385     13388     13391     13392
     13385     13388     13391     13393     13385     13388     13391     13394
     13386     13385     13388     13389     13386     13385     13388     13390
     13386     13385     13388     13391     13387     13385     13388     13389
     13387     13385     13388     13390     13387     13385     13388     13391
     13388     13391     13394     13395     13388     13391     13394     13396
     13388     13391     13394     13397     13389     13388     13391     13392
     13389     13388     13391     13393     13389     13388     13391     13394
     13390     13388     13391     13392     13390     13388     13391     13393
     13390     13388     13391     13394     13391     13394     13397     13398
     13391     13394     13397     13399     13391     13394     13397     13400
     13392     13391     13394     13395     13392     13391     13394     13396
     13392     13391     13394     13397     13393     13391     13394     13395
     13393     13391     13394     13396     13393     13391     13394     13397
     13395     13394     13397     13398     13395     13394     13397     13399
     13395     13394     13397     13400     13396     13394     13397     13398
     13396     13394     13397     13399     13396     13394     13397     13400
     13401     13402     13417     13418     13401     13402     13417     13419
     13401     13402     13417     13423     13402     13401     13405     13406
     13402     13401     13405     13407     13402     13401     13405     13408
     13402     13401     13409     13410     13402     13401     13409     13411
     13402     13401     13409     13412     13402     13401     13413     13414
     13402     13401     13413     13415     13402     13401     13413     13416
     13402     13417     13423     13420     13403     13402     13401     13405
     13403     13402     13401     13409     13403     13402     13401     13413
     13403     13402     13417     13418     13403     13402     13417     13419
     13403     13402     13417     13423     13404     13402     13401     13405
     13404     13402     13401     13409     13404     13402     13401     13413
     13404     13402     13417     13418     13404     13402     13417     13419
     13404     13402     13417     13423     13405     13401     13402     13417
     13405     13401     13409     13410     13405     13401     13409     13411
     13405     13401     13409     13412     13405     13401     13413     13414
     13405     13401     13413     13415     13405     13401     13413     13416
     13406     13405     13401     13409     13406     13405     13401     13413
     13407     13405     13401     13409     13407     13405     13401     13413
     13408     13405     13401     13409     13408     13405     13401     13413
     13409     13401     13402     13417     13409     13401     13413     13414
     13409     13401     13413     13415     13409     13401     13413     13416
     13410     13409     13401     13413     13411     13409     13401     13413
     13412     13409     13401     13413     13413     13401     13402     13417
     13417     13423     13420     13421     13417     13423     13420     13422
     13417     13423     13420     13424     13418     13417     13423     13420
     13419     13417     13423     13420     13420     13424     13425     13426
     13420     13424     13425     13427     13420     13424     13425     13428
     13421     13420     13424     13425     13422     13420     13424     13425
     13423     13420     13424     13425     13424     13425     13428     13429
     13424     13425     13428     13430     13424     13425     13428     13436
     13425     13428     13430     13431     13425     13428     13436     13437
     13425     13428     13436     13438     13425     13428     13436     13439
     13426     13425     13428     13429     13426     13425     13428     13430
     13426     13425     13428     13436     13427     13425     13428     13429
     13427     13425     13428     13430     13427     13425     13428     13436
     13428     13430     13431     13432     13428     13430     13431     13433
     13428     13436     13439     13440     13429     13428     13430     13431
     13429     13428     13436     13437     13429     13428     13436     13438
     13429     13428     13436     13439     13430     13428     13436     13437
     13430     13428     13436     13438     13430     13428     13436     13439
     13430     13431     13433     13434     13430     13431     13433     13435
     13430     13431     13433     13445     13431     13430     13428     13436
     13431     13433     13445     13446     13431     13433     13445     13447
     13431     13433     13445     13448     13432     13431     13433     13434
     13432     13431     13433     13435     13432     13431     13433     13445
     13433     13445     13448     13449     13433     13445     13448     13450
     13433     13445     13448     13451     13434     13433     13445     13446
     13434     13433     13445     13447     13434     13433     13445     13448
     13435     13433     13445     13446     13435     13433     13445     13447
     13435     13433     13445     13448     13436     13439     13440     13441
     13436     13439     13440     13442     13437     13436     13439     13440
     13438     13436     13439     13440     13439     13440     13442     13443
     13439     13440     13442     13444     13439     13440     13442     13492
     13440     13442     13492     13493     13440     13442     13492     13494
     13440     13442     13492     13495     13441     13440     13442     13443
     13441     13440     13442     13444     13441     13440     13442     13492
     13442     13492     13495     13496     13442     13492     13495     13497
     13442     13492     13495     13498     13443     13442     13492     13493
     13443     13442     13492     13494     13443     13442     13492     13495
     13444     13442     13492     13493     13444     13442     13492     13494
     13444     13442     13492     13495     13445     13448     13451     13452
     13445     13448     13451     13453     13445     13448     13451     13454
     13446     13445     13448     13449     13446     13445     13448     13450
     13446     13445     13448     13451     13447     13445     13448     13449
     13447     13445     13448     13450     13447     13445     13448     13451
     13448     13451     13454     13455     13448     13451     13454     13456
     13448     13451     13454     13457     13449     13448     13451     13452
     13449     13448     13451     13453     13449     13448     13451     13454
     13450     13448     13451     13452     13450     13448     13451     13453
     13450     13448     13451     13454     13451     13454     13457     13458
     13451     13454     13457     13459     13451     13454     13457     13460
     13452     13451     13454     13455     13452     13451     13454     13456
     13452     13451     13454     13457     13453     13451     13454     13455
     13453     13451     13454     13456     13453     13451     13454     13457
     13454     13457     13460     13461     13454     13457     13460     13462
     13454     13457     13460     13463     13455     13454     13457     13458
     13455     13454     13457     13459     13455     13454     13457     13460
     13456     13454     13457     13458     13456     13454     13457     13459
     13456     13454     13457     13460     13457     13460     13463     13464
     13457     13460     13463     13465     13458     13457     13460     13461
     13458     13457     13460     13462     13458     13457     13460     13463
     13459     13457     13460     13461     13459     13457     13460     13462
     13459     13457     13460     13463     13460     13463     13465     13466
     13460     13463     13465     13467     13461     13460     13463     13464
     13461     13460     13463     13465     13462     13460     13463     13464
     13462     13460     13463     13465     13463     13465     13467     13468
     13463     13465     13467     13469     13463     13465     13467     13470
     13464     13463     13465     13466     13464     13463     13465     13467
     13465     13467     13470     13471     13465     13467     13470     13472
     13465     13467     13470     13473     13466     13465     13467     13468
     13466     13465     13467     13469     13466     13465     13467     13470
     13467     13470     13473     13474     13467     13470     13473     13475
     13467     13470     13473     13476     13468     13467     13470     13471
     13468     13467     13470     13472     13468     13467     13470     13473
     13469     13467     13470     13471     13469     13467     13470     13472
     13469     13467     13470     13473     13470     13473     13476     13477
     13470     13473     13476     13478     13470     13473     13476     13479
     13471     13470     13473     13474     13471     13470     13473     13475
     13471     13470     13473     13476     13472     13470     13473     13474
     13472     13470     13473     13475     13472     13470     13473     13476
     13473     13476     13479     13480     13473     13476     13479     13481
     13473     13476     13479     13482     13474     13473     13476     13477
     13474     13473     13476     13478     13474     13473     13476     13479
     13475     13473     13476     13477     13475     13473     13476     13478
     13475     13473     13476     13479     13476     13479     13482     13483
     13476     13479     13482     13484     13476     13479     13482     13485
     13477     13476     13479     13480     13477     13476     13479     13481
     13477     13476     13479     13482     13478     13476     13479     13480
     13478     13476     13479     13481     13478     13476     13479     13482
     13479     13482     13485     13486     13479     13482     13485     13487
     13479     13482     13485     13488     13480     13479     13482     13483
     13480     13479     13482     13484     13480     13479     13482     13485
     13481     13479     13482     13483     13481     13479     13482     13484
     13481     13479     13482     13485     13482     13485     13488     13489
     13482     13485     13488     13490     13482     13485     13488     13491
     13483     13482     13485     13486     13483     13482     13485     13487
     13483     13482     13485     13488     13484     13482     13485     13486
     13484     13482     13485     13487     13484     13482     13485     13488
     13486     13485     13488     13489     13486     13485     13488     13490
     13486     13485     13488     13491     13487     13485     13488     13489
     13487     13485     13488     13490     13487     13485     13488     13491
     13492     13495     13498     13499     13492     13495     13498     13500
     13492     13495     13498     13501     13493     13492     13495     13496
     13493     13492     13495     13497     13493     13492     13495     13498
     13494     13492     13495     13496     13494     13492     13495     13497
     13494     13492     13495     13498     13495     13498     13501     13502
     13495     13498     13501     13503     13495     13498     13501     13504
     13496     13495     13498     13499     13496     13495     13498     13500
     13496     13495     13498     13501     13497     13495     13498     13499
     13497     13495     13498     13500     13497     13495     13498     13501
     13498     13501     13504     13505     13498     13501     13504     13506
     13498     13501     13504     13507     13499     13498     13501     13502
     13499     13498     13501     13503     13499     13498     13501     13504
     13500     13498     13501     13502     13500     13498     13501     13503
     13500     13498     13501     13504     13501     13504     13507     13508
     13501     13504     13507     13509     13501     13504     13507     13510
     13502     13501     13504     13505     13502     13501     13504     13506
     13502     13501     13504     13507     13503     13501     13504     13505
     13503     13501     13504     13506     13503     13501     13504     13507
     13504     13507     13510     13511     13504     13507     13510     13512
     13504     13507     13510     13513     13505     13504     13507     13508
     13505     13504     13507     13509     13505     13504     13507     13510
     13506     13504     13507     13508     13506     13504     13507     13509
     13506     13504     13507     13510     13507     13510     13513     13514
     13507     13510     13513     13515     13507     13510     13513     13516
     13508     13507     13510     13511     13508     13507     13510     13512
     13508     13507     13510     13513     13509     13507     13510     13511
     13509     13507     13510     13512     13509     13507     13510     13513
     13510     13513     13516     13517     13510     13513     13516     13518
     13510     13513     13516     13519     13511     13510     13513     13514
     13511     13510     13513     13515     13511     13510     13513     13516
     13512     13510     13513     13514     13512     13510     13513     13515
     13512     13510     13513     13516     13513     13516     13519     13520
     13513     13516     13519     13521     13513     13516     13519     13522
     13514     13513     13516     13517     13514     13513     13516     13518
     13514     13513     13516     13519     13515     13513     13516     13517
     13515     13513     13516     13518     13515     13513     13516     13519
     13516     13519     13522     13523     13516     13519     13522     13524
     13516     13519     13522     13525     13517     13516     13519     13520
     13517     13516     13519     13521     13517     13516     13519     13522
     13518     13516     13519     13520     13518     13516     13519     13521
     13518     13516     13519     13522     13519     13522     13525     13526
     13519     13522     13525     13527     13519     13522     13525     13528
     13520     13519     13522     13523     13520     13519     13522     13524
     13520     13519     13522     13525     13521     13519     13522     13523
     13521     13519     13522     13524     13521     13519     13522     13525
     13522     13525     13528     13529     13522     13525     13528     13530
     13522     13525     13528     13531     13523     13522     13525     13526
     13523     13522     13525     13527     13523     13522     13525     13528
     13524     13522     13525     13526     13524     13522     13525     13527
     13524     13522     13525     13528     13525     13528     13531     13532
     13525     13528     13531     13533     13525     13528     13531     13534
     13526     13525     13528     13529     13526     13525     13528     13530
     13526     13525     13528     13531     13527     13525     13528     13529
     13527     13525     13528     13530     13527     13525     13528     13531
     13529     13528     13531     13532     13529     13528     13531     13533
     13529     13528     13531     13534     13530     13528     13531     13532
     13530     13528     13531     13533     13530     13528     13531     13534
     13535     13536     13551     13552     13535     13536     13551     13553
     13535     13536     13551     13557     13536     13535     13539     13540
     13536     13535     13539     13541     13536     13535     13539     13542
     13536     13535     13543     13544     13536     13535     13543     13545
     13536     13535     13543     13546     13536     13535     13547     13548
     13536     13535     13547     13549     13536     13535     13547     13550
     13536     13551     13557     13554     13537     13536     13535     13539
     13537     13536     13535     13543     13537     13536     13535     13547
     13537     13536     13551     13552     13537     13536     13551     13553
     13537     13536     13551     13557     13538     13536     13535     13539
     13538     13536     13535     13543     13538     13536     13535     13547
     13538     13536     13551     13552     13538     13536     13551     13553
     13538     13536     13551     13557     13539     13535     13536     13551
     13539     13535     13543     13544     13539     13535     13543     13545
     13539     13535     13543     13546     13539     13535     13547     13548
     13539     13535     13547     13549     13539     13535     13547     13550
     13540     13539     13535     13543     13540     13539     13535     13547
     13541     13539     13535     13543     13541     13539     13535     13547
     13542     13539     13535     13543     13542     13539     13535     13547
     13543     13535     13536     13551     13543     13535     13547     13548
     13543     13535     13547     13549     13543     13535     13547     13550
     13544     13543     13535     13547     13545     13543     13535     13547
     13546     13543     13535     13547     13547     13535     13536     13551
     13551     13557     13554     13555     13551     13557     13554     13556
     13551     13557     13554     13558     13552     13551     13557     13554
     13553     13551     13557     13554     13554     13558     13559     13560
     13554     13558     13559     13561     13554     13558     13559     13562
     13555     13554     13558     13559     13556     13554     13558     13559
     13557     13554     13558     13559     13558     13559     13562     13563
     13558     13559     13562     13564     13558     13559     13562     13570
     13559     13562     13564     13565     13559     13562     13570     13571
     13559     13562     13570     13572     13559     13562     13570     13573
     13560     13559     13562     13563     13560     13559     13562     13564
     13560     13559     13562     13570     13561     13559     13562     13563
     13561     13559     13562     13564     13561     13559     13562     13570
     13562     13564     13565     13566     13562     13564     13565     13567
     13562     13570     13573     13574     13563     13562     13564     13565
     13563     13562     13570     13571     13563     13562     13570     13572
     13563     13562     13570     13573     13564     13562     13570     13571
     13564     13562     13570     13572     13564     13562     13570     13573
     13564     13565     13567     13568     13564     13565     13567     13569
     13564     13565     13567     13579     13565     13564     13562     13570
     13565     13567     13579     13580     13565     13567     13579     13581
     13565     13567     13579     13582     13566     13565     13567     13568
     13566     13565     13567     13569     13566     13565     13567     13579
     13567     13579     13582     13583     13567     13579     13582     13584
     13567     13579     13582     13585     13568     13567     13579     13580
     13568     13567     13579     13581     13568     13567     13579     13582
     13569     13567     13579     13580     13569     13567     13579     13581
     13569     13567     13579     13582     13570     13573     13574     13575
     13570     13573     13574     13576     13571     13570     13573     13574
     13572     13570     13573     13574     13573     13574     13576     13577
     13573     13574     13576     13578     13573     13574     13576     13626
     13574     13576     13626     13627     13574     13576     13626     13628
     13574     13576     13626     13629     13575     13574     13576     13577
     13575     13574     13576     13578     13575     13574     13576     13626
     13576     13626     13629     13630     13576     13626     13629     13631
     13576     13626     13629     13632     13577     13576     13626     13627
     13577     13576     13626     13628     13577     13576     13626     13629
     13578     13576     13626     13627     13578     13576     13626     13628
     13578     13576     13626     13629     13579     13582     13585     13586
     13579     13582     13585     13587     13579     13582     13585     13588
     13580     13579     13582     13583     13580     13579     13582     13584
     13580     13579     13582     13585     13581     13579     13582     13583
     13581     13579     13582     13584     13581     13579     13582     13585
     13582     13585     13588     13589     13582     13585     13588     13590
     13582     13585     13588     13591     13583     13582     13585     13586
     13583     13582     13585     13587     13583     13582     13585     13588
     13584     13582     13585     13586     13584     13582     13585     13587
     13584     13582     13585     13588     13585     13588     13591     13592
     13585     13588     13591     13593     13585     13588     13591     13594
     13586     13585     13588     13589     13586     13585     13588     13590
     13586     13585     13588     13591     13587     13585     13588     13589
     13587     13585     13588     13590     13587     13585     13588     13591
     13588     13591     13594     13595     13588     13591     13594     13596
     13588     13591     13594     13597     13589     13588     13591     13592
     13589     13588     13591     13593     13589     13588     13591     13594
     13590     13588     13591     13592     13590     13588     13591     13593
     13590     13588     13591     13594     13591     13594     13597     13598
     13591     13594     13597     13599     13592     13591     13594     13595
     13592     13591     13594     13596     13592     13591     13594     13597
     13593     13591     13594     13595     13593     13591     13594     13596
     13593     13591     13594     13597     13594     13597     13599     13600
     13594     13597     13599     13601     13595     13594     13597     13598
     13595     13594     13597     13599     13596     13594     13597     13598
     13596     13594     13597     13599     13597     13599     13601     13602
     13597     13599     13601     13603     13597     13599     13601     13604
     13598     13597     13599     13600     13598     13597     13599     13601
     13599     13601     13604     13605     13599     13601     13604     13606
     13599     13601     13604     13607     13600     13599     13601     13602
     13600     13599     13601     13603     13600     13599     13601     13604
     13601     13604     13607     13608     13601     13604     13607     13609
     13601     13604     13607     13610     13602     13601     13604     13605
     13602     13601     13604     13606     13602     13601     13604     13607
     13603     13601     13604     13605     13603     13601     13604     13606
     13603     13601     13604     13607     13604     13607     13610     13611
     13604     13607     13610     13612     13604     13607     13610     13613
     13605     13604     13607     13608     13605     13604     13607     13609
     13605     13604     13607     13610     13606     13604     13607     13608
     13606     13604     13607     13609     13606     13604     13607     13610
     13607     13610     13613     13614     13607     13610     13613     13615
     13607     13610     13613     13616     13608     13607     13610     13611
     13608     13607     13610     13612     13608     13607     13610     13613
     13609     13607     13610     13611     13609     13607     13610     13612
     13609     13607     13610     13613     13610     13613     13616     13617
     13610     13613     13616     13618     13610     13613     13616     13619
     13611     13610     13613     13614     13611     13610     13613     13615
     13611     13610     13613     13616     13612     13610     13613     13614
     13612     13610     13613     13615     13612     13610     13613     13616
     13613     13616     13619     13620     13613     13616     13619     13621
     13613     13616     13619     13622     13614     13613     13616     13617
     13614     13613     13616     13618     13614     13613     13616     13619
     13615     13613     13616     13617     13615     13613     13616     13618
     13615     13613     13616     13619     13616     13619     13622     13623
     13616     13619     13622     13624     13616     13619     13622     13625
     13617     13616     13619     13620     13617     13616     13619     13621
     13617     13616     13619     13622     13618     13616     13619     13620
     13618     13616     13619     13621     13618     13616     13619     13622
     13620     13619     13622     13623     13620     13619     13622     13624
     13620     13619     13622     13625     13621     13619     13622     13623
     13621     13619     13622     13624     13621     13619     13622     13625
     13626     13629     13632     13633     13626     13629     13632     13634
     13626     13629     13632     13635     13627     13626     13629     13630
     13627     13626     13629     13631     13627     13626     13629     13632
     13628     13626     13629     13630     13628     13626     13629     13631
     13628     13626     13629     13632     13629     13632     13635     13636
     13629     13632     13635     13637     13629     13632     13635     13638
     13630     13629     13632     13633     13630     13629     13632     13634
     13630     13629     13632     13635     13631     13629     13632     13633
     13631     13629     13632     13634     13631     13629     13632     13635
     13632     13635     13638     13639     13632     13635     13638     13640
     13632     13635     13638     13641     13633     13632     13635     13636
     13633     13632     13635     13637     13633     13632     13635     13638
     13634     13632     13635     13636     13634     13632     13635     13637
     13634     13632     13635     13638     13635     13638     13641     13642
     13635     13638     13641     13643     13635     13638     13641     13644
     13636     13635     13638     13639     13636     13635     13638     13640
     13636     13635     13638     13641     13637     13635     13638     13639
     13637     13635     13638     13640     13637     13635     13638     13641
     13638     13641     13644     13645     13638     13641     13644     13646
     13638     13641     13644     13647     13639     13638     13641     13642
     13639     13638     13641     13643     13639     13638     13641     13644
     13640     13638     13641     13642     13640     13638     13641     13643
     13640     13638     13641     13644     13641     13644     13647     13648
     13641     13644     13647     13649     13641     13644     13647     13650
     13642     13641     13644     13645     13642     13641     13644     13646
     13642     13641     13644     13647     13643     13641     13644     13645
     13643     13641     13644     13646     13643     13641     13644     13647
     13644     13647     13650     13651     13644     13647     13650     13652
     13644     13647     13650     13653     13645     13644     13647     13648
     13645     13644     13647     13649     13645     13644     13647     13650
     13646     13644     13647     13648     13646     13644     13647     13649
     13646     13644     13647     13650     13647     13650     13653     13654
     13647     13650     13653     13655     13647     13650     13653     13656
     13648     13647     13650     13651     13648     13647     13650     13652
     13648     13647     13650     13653     13649     13647     13650     13651
     13649     13647     13650     13652     13649     13647     13650     13653
     13650     13653     13656     13657     13650     13653     13656     13658
     13650     13653     13656     13659     13651     13650     13653     13654
     13651     13650     13653     13655     13651     13650     13653     13656
     13652     13650     13653     13654     13652     13650     13653     13655
     13652     13650     13653     13656     13653     13656     13659     13660
     13653     13656     13659     13661     13653     13656     13659     13662
     13654     13653     13656     13657     13654     13653     13656     13658
     13654     13653     13656     13659     13655     13653     13656     13657
     13655     13653     13656     13658     13655     13653     13656     13659
     13656     13659     13662     13663     13656     13659     13662     13664
     13656     13659     13662     13665     13657     13656     13659     13660
     13657     13656     13659     13661     13657     13656     13659     13662
     13658     13656     13659     13660     13658     13656     13659     13661
     13658     13656     13659     13662     13659     13662     13665     13666
     13659     13662     13665     13667     13659     13662     13665     13668
     13660     13659     13662     13663     13660     13659     13662     13664
     13660     13659     13662     13665     13661     13659     13662     13663
     13661     13659     13662     13664     13661     13659     13662     13665
     13663     13662     13665     13666     13663     13662     13665     13667
     13663     13662     13665     13668     13664     13662     13665     13666
     13664     13662     13665     13667     13664     13662     13665     13668
     13669     13670     13685     13686     13669     13670     13685     13687
     13669     13670     13685     13691     13670     13669     13673     13674
     13670     13669     13673     13675     13670     13669     13673     13676
     13670     13669     13677     13678     13670     13669     13677     13679
     13670     13669     13677     13680     13670     13669     13681     13682
     13670     13669     13681     13683     13670     13669     13681     13684
     13670     13685     13691     13688     13671     13670     13669     13673
     13671     13670     13669     13677     13671     13670     13669     13681
     13671     13670     13685     13686     13671     13670     13685     13687
     13671     13670     13685     13691     13672     13670     13669     13673
     13672     13670     13669     13677     13672     13670     13669     13681
     13672     13670     13685     13686     13672     13670     13685     13687
     13672     13670     13685     13691     13673     13669     13670     13685
     13673     13669     13677     13678     13673     13669     13677     13679
     13673     13669     13677     13680     13673     13669     13681     13682
     13673     13669     13681     13683     13673     13669     13681     13684
     13674     13673     13669     13677     13674     13673     13669     13681
     13675     13673     13669     13677     13675     13673     13669     13681
     13676     13673     13669     13677     13676     13673     13669     13681
     13677     13669     13670     13685     13677     13669     13681     13682
     13677     13669     13681     13683     13677     13669     13681     13684
     13678     13677     13669     13681     13679     13677     13669     13681
     13680     13677     13669     13681     13681     13669     13670     13685
     13685     13691     13688     13689     13685     13691     13688     13690
     13685     13691     13688     13692     13686     13685     13691     13688
     13687     13685     13691     13688     13688     13692     13693     13694
     13688     13692     13693     13695     13688     13692     13693     13696
     13689     13688     13692     13693     13690     13688     13692     13693
     13691     13688     13692     13693     13692     13693     13696     13697
     13692     13693     13696     13698     13692     13693     13696     13704
     13693     13696     13698     13699     13693     13696     13704     13705
     13693     13696     13704     13706     13693     13696     13704     13707
     13694     13693     13696     13697     13694     13693     13696     13698
     13694     13693     13696     13704     13695     13693     13696     13697
     13695     13693     13696     13698     13695     13693     13696     13704
     13696     13698     13699     13700     13696     13698     13699     13701
     13696     13704     13707     13708     13697     13696     13698     13699
     13697     13696     13704     13705     13697     13696     13704     13706
     13697     13696     13704     13707     13698     13696     13704     13705
     13698     13696     13704     13706     13698     13696     13704     13707
     13698     13699     13701     13702     13698     13699     13701     13703
     13698     13699     13701     13713     13699     13698     13696     13704
     13699     13701     13713     13714     13699     13701     13713     13715
     13699     13701     13713     13716     13700     13699     13701     13702
     13700     13699     13701     13703     13700     13699     13701     13713
     13701     13713     13716     13717     13701     13713     13716     13718
     13701     13713     13716     13719     13702     13701     13713     13714
     13702     13701     13713     13715     13702     13701     13713     13716
     13703     13701     13713     13714     13703     13701     13713     13715
     13703     13701     13713     13716     13704     13707     13708     13709
     13704     13707     13708     13710     13705     13704     13707     13708
     13706     13704     13707     13708     13707     13708     13710     13711
     13707     13708     13710     13712     13707     13708     13710     13760
     13708     13710     13760     13761     13708     13710     13760     13762
     13708     13710     13760     13763     13709     13708     13710     13711
     13709     13708     13710     13712     13709     13708     13710     13760
     13710     13760     13763     13764     13710     13760     13763     13765
     13710     13760     13763     13766     13711     13710     13760     13761
     13711     13710     13760     13762     13711     13710     13760     13763
     13712     13710     13760     13761     13712     13710     13760     13762
     13712     13710     13760     13763     13713     13716     13719     13720
     13713     13716     13719     13721     13713     13716     13719     13722
     13714     13713     13716     13717     13714     13713     13716     13718
     13714     13713     13716     13719     13715     13713     13716     13717
     13715     13713     13716     13718     13715     13713     13716     13719
     13716     13719     13722     13723     13716     13719     13722     13724
     13716     13719     13722     13725     13717     13716     13719     13720
     13717     13716     13719     13721     13717     13716     13719     13722
     13718     13716     13719     13720     13718     13716     13719     13721
     13718     13716     13719     13722     13719     13722     13725     13726
     13719     13722     13725     13727     13719     13722     13725     13728
     13720     13719     13722     13723     13720     13719     13722     13724
     13720     13719     13722     13725     13721     13719     13722     13723
     13721     13719     13722     13724     13721     13719     13722     13725
     13722     13725     13728     13729     13722     13725     13728     13730
     13722     13725     13728     13731     13723     13722     13725     13726
     13723     13722     13725     13727     13723     13722     13725     13728
     13724     13722     13725     13726     13724     13722     13725     13727
     13724     13722     13725     13728     13725     13728     13731     13732
     13725     13728     13731     13733     13726     13725     13728     13729
     13726     13725     13728     13730     13726     13725     13728     13731
     13727     13725     13728     13729     13727     13725     13728     13730
     13727     13725     13728     13731     13728     13731     13733     13734
     13728     13731     13733     13735     13729     13728     13731     13732
     13729     13728     13731     13733     13730     13728     13731     13732
     13730     13728     13731     13733     13731     13733     13735     13736
     13731     13733     13735     13737     13731     13733     13735     13738
     13732     13731     13733     13734     13732     13731     13733     13735
     13733     13735     13738     13739     13733     13735     13738     13740
     13733     13735     13738     13741     13734     13733     13735     13736
     13734     13733     13735     13737     13734     13733     13735     13738
     13735     13738     13741     13742     13735     13738     13741     13743
     13735     13738     13741     13744     13736     13735     13738     13739
     13736     13735     13738     13740     13736     13735     13738     13741
     13737     13735     13738     13739     13737     13735     13738     13740
     13737     13735     13738     13741     13738     13741     13744     13745
     13738     13741     13744     13746     13738     13741     13744     13747
     13739     13738     13741     13742     13739     13738     13741     13743
     13739     13738     13741     13744     13740     13738     13741     13742
     13740     13738     13741     13743     13740     13738     13741     13744
     13741     13744     13747     13748     13741     13744     13747     13749
     13741     13744     13747     13750     13742     13741     13744     13745
     13742     13741     13744     13746     13742     13741     13744     13747
     13743     13741     13744     13745     13743     13741     13744     13746
     13743     13741     13744     13747     13744     13747     13750     13751
     13744     13747     13750     13752     13744     13747     13750     13753
     13745     13744     13747     13748     13745     13744     13747     13749
     13745     13744     13747     13750     13746     13744     13747     13748
     13746     13744     13747     13749     13746     13744     13747     13750
     13747     13750     13753     13754     13747     13750     13753     13755
     13747     13750     13753     13756     13748     13747     13750     13751
     13748     13747     13750     13752     13748     13747     13750     13753
     13749     13747     13750     13751     13749     13747     13750     13752
     13749     13747     13750     13753     13750     13753     13756     13757
     13750     13753     13756     13758     13750     13753     13756     13759
     13751     13750     13753     13754     13751     13750     13753     13755
     13751     13750     13753     13756     13752     13750     13753     13754
     13752     13750     13753     13755     13752     13750     13753     13756
     13754     13753     13756     13757     13754     13753     13756     13758
     13754     13753     13756     13759     13755     13753     13756     13757
     13755     13753     13756     13758     13755     13753     13756     13759
     13760     13763     13766     13767     13760     13763     13766     13768
     13760     13763     13766     13769     13761     13760     13763     13764
     13761     13760     13763     13765     13761     13760     13763     13766
     13762     13760     13763     13764     13762     13760     13763     13765
     13762     13760     13763     13766     13763     13766     13769     13770
     13763     13766     13769     13771     13763     13766     13769     13772
     13764     13763     13766     13767     13764     13763     13766     13768
     13764     13763     13766     13769     13765     13763     13766     13767
     13765     13763     13766     13768     13765     13763     13766     13769
     13766     13769     13772     13773     13766     13769     13772     13774
     13766     13769     13772     13775     13767     13766     13769     13770
     13767     13766     13769     13771     13767     13766     13769     13772
     13768     13766     13769     13770     13768     13766     13769     13771
     13768     13766     13769     13772     13769     13772     13775     13776
     13769     13772     13775     13777     13769     13772     13775     13778
     13770     13769     13772     13773     13770     13769     13772     13774
     13770     13769     13772     13775     13771     13769     13772     13773
     13771     13769     13772     13774     13771     13769     13772     13775
     13772     13775     13778     13779     13772     13775     13778     13780
     13772     13775     13778     13781     13773     13772     13775     13776
     13773     13772     13775     13777     13773     13772     13775     13778
     13774     13772     13775     13776     13774     13772     13775     13777
     13774     13772     13775     13778     13775     13778     13781     13782
     13775     13778     13781     13783     13775     13778     13781     13784
     13776     13775     13778     13779     13776     13775     13778     13780
     13776     13775     13778     13781     13777     13775     13778     13779
     13777     13775     13778     13780     13777     13775     13778     13781
     13778     13781     13784     13785     13778     13781     13784     13786
     13778     13781     13784     13787     13779     13778     13781     13782
     13779     13778     13781     13783     13779     13778     13781     13784
     13780     13778     13781     13782     13780     13778     13781     13783
     13780     13778     13781     13784     13781     13784     13787     13788
     13781     13784     13787     13789     13781     13784     13787     13790
     13782     13781     13784     13785     13782     13781     13784     13786
     13782     13781     13784     13787     13783     13781     13784     13785
     13783     13781     13784     13786     13783     13781     13784     13787
     13784     13787     13790     13791     13784     13787     13790     13792
     13784     13787     13790     13793     13785     13784     13787     13788
     13785     13784     13787     13789     13785     13784     13787     13790
     13786     13784     13787     13788     13786     13784     13787     13789
     13786     13784     13787     13790     13787     13790     13793     13794
     13787     13790     13793     13795     13787     13790     13793     13796
     13788     13787     13790     13791     13788     13787     13790     13792
     13788     13787     13790     13793     13789     13787     13790     13791
     13789     13787     13790     13792     13789     13787     13790     13793
     13790     13793     13796     13797     13790     13793     13796     13798
     13790     13793     13796     13799     13791     13790     13793     13794
     13791     13790     13793     13795     13791     13790     13793     13796
     13792     13790     13793     13794     13792     13790     13793     13795
     13792     13790     13793     13796     13793     13796     13799     13800
     13793     13796     13799     13801     13793     13796     13799     13802
     13794     13793     13796     13797     13794     13793     13796     13798
     13794     13793     13796     13799     13795     13793     13796     13797
     13795     13793     13796     13798     13795     13793     13796     13799
     13797     13796     13799     13800     13797     13796     13799     13801
     13797     13796     13799     13802     13798     13796     13799     13800
     13798     13796     13799     13801     13798     13796     13799     13802
     13803     13804     13819     13820     13803     13804     13819     13821
     13803     13804     13819     13825     13804     13803     13807     13808
     13804     13803     13807     13809     13804     13803     13807     13810
     13804     13803     13811     13812     13804     13803     13811     13813
     13804     13803     13811     13814     13804     13803     13815     13816
     13804     13803     13815     13817     13804     13803     13815     13818
     13804     13819     13825     13822     13805     13804     13803     13807
     13805     13804     13803     13811     13805     13804     13803     13815
     13805     13804     13819     13820     13805     13804     13819     13821
     13805     13804     13819     13825     13806     13804     13803     13807
     13806     13804     13803     13811     13806     13804     13803     13815
     13806     13804     13819     13820     13806     13804     13819     13821
     13806     13804     13819     13825     13807     13803     13804     13819
     13807     13803     13811     13812     13807     13803     13811     13813
     13807     13803     13811     13814     13807     13803     13815     13816
     13807     13803     13815     13817     13807     13803     13815     13818
     13808     13807     13803     13811     13808     13807     13803     13815
     13809     13807     13803     13811     13809     13807     13803     13815
     13810     13807     13803     13811     13810     13807     13803     13815
     13811     13803     13804     13819     13811     13803     13815     13816
     13811     13803     13815     13817     13811     13803     13815     13818
     13812     13811     13803     13815     13813     13811     13803     13815
     13814     13811     13803     13815     13815     13803     13804     13819
     13819     13825     13822     13823     13819     13825     13822     13824
     13819     13825     13822     13826     13820     13819     13825     13822
     13821     13819     13825     13822     13822     13826     13827     13828
     13822     13826     13827     13829     13822     13826     13827     13830
     13823     13822     13826     13827     13824     13822     13826     13827
     13825     13822     13826     13827     13826     13827     13830     13831
     13826     13827     13830     13832     13826     13827     13830     13838
     13827     13830     13832     13833     13827     13830     13838     13839
     13827     13830     13838     13840     13827     13830     13838     13841
     13828     13827     13830     13831     13828     13827     13830     13832
     13828     13827     13830     13838     13829     13827     13830     13831
     13829     13827     13830     13832     13829     13827     13830     13838
     13830     13832     13833     13834     13830     13832     13833     13835
     13830     13838     13841     13842     13831     13830     13832     13833
     13831     13830     13838     13839     13831     13830     13838     13840
     13831     13830     13838     13841     13832     13830     13838     13839
     13832     13830     13838     13840     13832     13830     13838     13841
     13832     13833     13835     13836     13832     13833     13835     13837
     13832     13833     13835     13847     13833     13832     13830     13838
     13833     13835     13847     13848     13833     13835     13847     13849
     13833     13835     13847     13850     13834     13833     13835     13836
     13834     13833     13835     13837     13834     13833     13835     13847
     13835     13847     13850     13851     13835     13847     13850     13852
     13835     13847     13850     13853     13836     13835     13847     13848
     13836     13835     13847     13849     13836     13835     13847     13850
     13837     13835     13847     13848     13837     13835     13847     13849
     13837     13835     13847     13850     13838     13841     13842     13843
     13838     13841     13842     13844     13839     13838     13841     13842
     13840     13838     13841     13842     13841     13842     13844     13845
     13841     13842     13844     13846     13841     13842     13844     13894
     13842     13844     13894     13895     13842     13844     13894     13896
     13842     13844     13894     13897     13843     13842     13844     13845
     13843     13842     13844     13846     13843     13842     13844     13894
     13844     13894     13897     13898     13844     13894     13897     13899
     13844     13894     13897     13900     13845     13844     13894     13895
     13845     13844     13894     13896     13845     13844     13894     13897
     13846     13844     13894     13895     13846     13844     13894     13896
     13846     13844     13894     13897     13847     13850     13853     13854
     13847     13850     13853     13855     13847     13850     13853     13856
     13848     13847     13850     13851     13848     13847     13850     13852
     13848     13847     13850     13853     13849     13847     13850     13851
     13849     13847     13850     13852     13849     13847     13850     13853
     13850     13853     13856     13857     13850     13853     13856     13858
     13850     13853     13856     13859     13851     13850     13853     13854
     13851     13850     13853     13855     13851     13850     13853     13856
     13852     13850     13853     13854     13852     13850     13853     13855
     13852     13850     13853     13856     13853     13856     13859     13860
     13853     13856     13859     13861     13853     13856     13859     13862
     13854     13853     13856     13857     13854     13853     13856     13858
     13854     13853     13856     13859     13855     13853     13856     13857
     13855     13853     13856     13858     13855     13853     13856     13859
     13856     13859     13862     13863     13856     13859     13862     13864
     13856     13859     13862     13865     13857     13856     13859     13860
     13857     13856     13859     13861     13857     13856     13859     13862
     13858     13856     13859     13860     13858     13856     13859     13861
     13858     13856     13859     13862     13859     13862     13865     13866
     13859     13862     13865     13867     13860     13859     13862     13863
     13860     13859     13862     13864     13860     13859     13862     13865
     13861     13859     13862     13863     13861     13859     13862     13864
     13861     13859     13862     13865     13862     13865     13867     13868
     13862     13865     13867     13869     13863     13862     13865     13866
     13863     13862     13865     13867     13864     13862     13865     13866
     13864     13862     13865     13867     13865     13867     13869     13870
     13865     13867     13869     13871     13865     13867     13869     13872
     13866     13865     13867     13868     13866     13865     13867     13869
     13867     13869     13872     13873     13867     13869     13872     13874
     13867     13869     13872     13875     13868     13867     13869     13870
     13868     13867     13869     13871     13868     13867     13869     13872
     13869     13872     13875     13876     13869     13872     13875     13877
     13869     13872     13875     13878     13870     13869     13872     13873
     13870     13869     13872     13874     13870     13869     13872     13875
     13871     13869     13872     13873     13871     13869     13872     13874
     13871     13869     13872     13875     13872     13875     13878     13879
     13872     13875     13878     13880     13872     13875     13878     13881
     13873     13872     13875     13876     13873     13872     13875     13877
     13873     13872     13875     13878     13874     13872     13875     13876
     13874     13872     13875     13877     13874     13872     13875     13878
     13875     13878     13881     13882     13875     13878     13881     13883
     13875     13878     13881     13884     13876     13875     13878     13879
     13876     13875     13878     13880     13876     13875     13878     13881
     13877     13875     13878     13879     13877     13875     13878     13880
     13877     13875     13878     13881     13878     13881     13884     13885
     13878     13881     13884     13886     13878     13881     13884     13887
     13879     13878     13881     13882     13879     13878     13881     13883
     13879     13878     13881     13884     13880     13878     13881     13882
     13880     13878     13881     13883     13880     13878     13881     13884
     13881     13884     13887     13888     13881     13884     13887     13889
     13881     13884     13887     13890     13882     13881     13884     13885
     13882     13881     13884     13886     13882     13881     13884     13887
     13883     13881     13884     13885     13883     13881     13884     13886
     13883     13881     13884     13887     13884     13887     13890     13891
     13884     13887     13890     13892     13884     13887     13890     13893
     13885     13884     13887     13888     13885     13884     13887     13889
     13885     13884     13887     13890     13886     13884     13887     13888
     13886     13884     13887     13889     13886     13884     13887     13890
     13888     13887     13890     13891     13888     13887     13890     13892
     13888     13887     13890     13893     13889     13887     13890     13891
     13889     13887     13890     13892     13889     13887     13890     13893
     13894     13897     13900     13901     13894     13897     13900     13902
     13894     13897     13900     13903     13895     13894     13897     13898
     13895     13894     13897     13899     13895     13894     13897     13900
     13896     13894     13897     13898     13896     13894     13897     13899
     13896     13894     13897     13900     13897     13900     13903     13904
     13897     13900     13903     13905     13897     13900     13903     13906
     13898     13897     13900     13901     13898     13897     13900     13902
     13898     13897     13900     13903     13899     13897     13900     13901
     13899     13897     13900     13902     13899     13897     13900     13903
     13900     13903     13906     13907     13900     13903     13906     13908
     13900     13903     13906     13909     13901     13900     13903     13904
     13901     13900     13903     13905     13901     13900     13903     13906
     13902     13900     13903     13904     13902     13900     13903     13905
     13902     13900     13903     13906     13903     13906     13909     13910
     13903     13906     13909     13911     13903     13906     13909     13912
     13904     13903     13906     13907     13904     13903     13906     13908
     13904     13903     13906     13909     13905     13903     13906     13907
     13905     13903     13906     13908     13905     13903     13906     13909
     13906     13909     13912     13913     13906     13909     13912     13914
     13906     13909     13912     13915     13907     13906     13909     13910
     13907     13906     13909     13911     13907     13906     13909     13912
     13908     13906     13909     13910     13908     13906     13909     13911
     13908     13906     13909     13912     13909     13912     13915     13916
     13909     13912     13915     13917     13909     13912     13915     13918
     13910     13909     13912     13913     13910     13909     13912     13914
     13910     13909     13912     13915     13911     13909     13912     13913
     13911     13909     13912     13914     13911     13909     13912     13915
     13912     13915     13918     13919     13912     13915     13918     13920
     13912     13915     13918     13921     13913     13912     13915     13916
     13913     13912     13915     13917     13913     13912     13915     13918
     13914     13912     13915     13916     13914     13912     13915     13917
     13914     13912     13915     13918     13915     13918     13921     13922
     13915     13918     13921     13923     13915     13918     13921     13924
     13916     13915     13918     13919     13916     13915     13918     13920
     13916     13915     13918     13921     13917     13915     13918     13919
     13917     13915     13918     13920     13917     13915     13918     13921
     13918     13921     13924     13925     13918     13921     13924     13926
     13918     13921     13924     13927     13919     13918     13921     13922
     13919     13918     13921     13923     13919     13918     13921     13924
     13920     13918     13921     13922     13920     13918     13921     13923
     13920     13918     13921     13924     13921     13924     13927     13928
     13921     13924     13927     13929     13921     13924     13927     13930
     13922     13921     13924     13925     13922     13921     13924     13926
     13922     13921     13924     13927     13923     13921     13924     13925
     13923     13921     13924     13926     13923     13921     13924     13927
     13924     13927     13930     13931     13924     13927     13930     13932
     13924     13927     13930     13933     13925     13924     13927     13928
     13925     13924     13927     13929     13925     13924     13927     13930
     13926     13924     13927     13928     13926     13924     13927     13929
     13926     13924     13927     13930     13927     13930     13933     13934
     13927     13930     13933     13935     13927     13930     13933     13936
     13928     13927     13930     13931     13928     13927     13930     13932
     13928     13927     13930     13933     13929     13927     13930     13931
     13929     13927     13930     13932     13929     13927     13930     13933
     13931     13930     13933     13934     13931     13930     13933     13935
     13931     13930     13933     13936     13932     13930     13933     13934
     13932     13930     13933     13935     13932     13930     13933     13936
     13937     13938     13953     13954     13937     13938     13953     13955
     13937     13938     13953     13959     13938     13937     13941     13942
     13938     13937     13941     13943     13938     13937     13941     13944
     13938     13937     13945     13946     13938     13937     13945     13947
     13938     13937     13945     13948     13938     13937     13949     13950
     13938     13937     13949     13951     13938     13937     13949     13952
     13938     13953     13959     13956     13939     13938     13937     13941
     13939     13938     13937     13945     13939     13938     13937     13949
     13939     13938     13953     13954     13939     13938     13953     13955
     13939     13938     13953     13959     13940     13938     13937     13941
     13940     13938     13937     13945     13940     13938     13937     13949
     13940     13938     13953     13954     13940     13938     13953     13955
     13940     13938     13953     13959     13941     13937     13938     13953
     13941     13937     13945     13946     13941     13937     13945     13947
     13941     13937     13945     13948     13941     13937     13949     13950
     13941     13937     13949     13951     13941     13937     13949     13952
     13942     13941     13937     13945     13942     13941     13937     13949
     13943     13941     13937     13945     13943     13941     13937     13949
     13944     13941     13937     13945     13944     13941     13937     13949
     13945     13937     13938     13953     13945     13937     13949     13950
     13945     13937     13949     13951     13945     13937     13949     13952
     13946     13945     13937     13949     13947     13945     13937     13949
     13948     13945     13937     13949     13949     13937     13938     13953
     13953     13959     13956     13957     13953     13959     13956     13958
     13953     13959     13956     13960     13954     13953     13959     13956
     13955     13953     13959     13956     13956     13960     13961     13962
     13956     13960     13961     13963     13956     13960     13961     13964
     13957     13956     13960     13961     13958     13956     13960     13961
     13959     13956     13960     13961     13960     13961     13964     13965
     13960     13961     13964     13966     13960     13961     13964     13972
     13961     13964     13966     13967     13961     13964     13972     13973
     13961     13964     13972     13974     13961     13964     13972     13975
     13962     13961     13964     13965     13962     13961     13964     13966
     13962     13961     13964     13972     13963     13961     13964     13965
     13963     13961     13964     13966     13963     13961     13964     13972
     13964     13966     13967     13968     13964     13966     13967     13969
     13964     13972     13975     13976     13965     13964     13966     13967
     13965     13964     13972     13973     13965     13964     13972     13974
     13965     13964     13972     13975     13966     13964     13972     13973
     13966     13964     13972     13974     13966     13964     13972     13975
     13966     13967     13969     13970     13966     13967     13969     13971
     13966     13967     13969     13981     13967     13966     13964     13972
     13967     13969     13981     13982     13967     13969     13981     13983
     13967     13969     13981     13984     13968     13967     13969     13970
     13968     13967     13969     13971     13968     13967     13969     13981
     13969     13981     13984     13985     13969     13981     13984     13986
     13969     13981     13984     13987     13970     13969     13981     13982
     13970     13969     13981     13983     13970     13969     13981     13984
     13971     13969     13981     13982     13971     13969     13981     13983
     13971     13969     13981     13984     13972     13975     13976     13977
     13972     13975     13976     13978     13973     13972     13975     13976
     13974     13972     13975     13976     13975     13976     13978     13979
     13975     13976     13978     13980     13975     13976     13978     14028
     13976     13978     14028     14029     13976     13978     14028     14030
     13976     13978     14028     14031     13977     13976     13978     13979
     13977     13976     13978     13980     13977     13976     13978     14028
     13978     14028     14031     14032     13978     14028     14031     14033
     13978     14028     14031     14034     13979     13978     14028     14029
     13979     13978     14028     14030     13979     13978     14028     14031
     13980     13978     14028     14029     13980     13978     14028     14030
     13980     13978     14028     14031     13981     13984     13987     13988
     13981     13984     13987     13989     13981     13984     13987     13990
     13982     13981     13984     13985     13982     13981     13984     13986
     13982     13981     13984     13987     13983     13981     13984     13985
     13983     13981     13984     13986     13983     13981     13984     13987
     13984     13987     13990     13991     13984     13987     13990     13992
     13984     13987     13990     13993     13985     13984     13987     13988
     13985     13984     13987     13989     13985     13984     13987     13990
     13986     13984     13987     13988     13986     13984     13987     13989
     13986     13984     13987     13990     13987     13990     13993     13994
     13987     13990     13993     13995     13987     13990     13993     13996
     13988     13987     13990     13991     13988     13987     13990     13992
     13988     13987     13990     13993     13989     13987     13990     13991
     13989     13987     13990     13992     13989     13987     13990     13993
     13990     13993     13996     13997     13990     13993     13996     13998
     13990     13993     13996     13999     13991     13990     13993     13994
     13991     13990     13993     13995     13991     13990     13993     13996
     13992     13990     13993     13994     13992     13990     13993     13995
     13992     13990     13993     13996     13993     13996     13999     14000
     13993     13996     13999     14001     13994     13993     13996     13997
     13994     13993     13996     13998     13994     13993     13996     13999
     13995     13993     13996     13997     13995     13993     13996     13998
     13995     13993     13996     13999     13996     13999     14001     14002
     13996     13999     14001     14003     13997     13996     13999     14000
     13997     13996     13999     14001     13998     13996     13999     14000
     13998     13996     13999     14001     13999     14001     14003     14004
     13999     14001     14003     14005     13999     14001     14003     14006
     14000     13999     14001     14002     14000     13999     14001     14003
     14001     14003     14006     14007     14001     14003     14006     14008
     14001     14003     14006     14009     14002     14001     14003     14004
     14002     14001     14003     14005     14002     14001     14003     14006
     14003     14006     14009     14010     14003     14006     14009     14011
     14003     14006     14009     14012     14004     14003     14006     14007
     14004     14003     14006     14008     14004     14003     14006     14009
     14005     14003     14006     14007     14005     14003     14006     14008
     14005     14003     14006     14009     14006     14009     14012     14013
     14006     14009     14012     14014     14006     14009     14012     14015
     14007     14006     14009     14010     14007     14006     14009     14011
     14007     14006     14009     14012     14008     14006     14009     14010
     14008     14006     14009     14011     14008     14006     14009     14012
     14009     14012     14015     14016     14009     14012     14015     14017
     14009     14012     14015     14018     14010     14009     14012     14013
     14010     14009     14012     14014     14010     14009     14012     14015
     14011     14009     14012     14013     14011     14009     14012     14014
     14011     14009     14012     14015     14012     14015     14018     14019
     14012     14015     14018     14020     14012     14015     14018     14021
     14013     14012     14015     14016     14013     14012     14015     14017
     14013     14012     14015     14018     14014     14012     14015     14016
     14014     14012     14015     14017     14014     14012     14015     14018
     14015     14018     14021     14022     14015     14018     14021     14023
     14015     14018     14021     14024     14016     14015     14018     14019
     14016     14015     14018     14020     14016     14015     14018     14021
     14017     14015     14018     14019     14017     14015     14018     14020
     14017     14015     14018     14021     14018     14021     14024     14025
     14018     14021     14024     14026     14018     14021     14024     14027
     14019     14018     14021     14022     14019     14018     14021     14023
     14019     14018     14021     14024     14020     14018     14021     14022
     14020     14018     14021     14023     14020     14018     14021     14024
     14022     14021     14024     14025     14022     14021     14024     14026
     14022     14021     14024     14027     14023     14021     14024     14025
     14023     14021     14024     14026     14023     14021     14024     14027
     14028     14031     14034     14035     14028     14031     14034     14036
     14028     14031     14034     14037     14029     14028     14031     14032
     14029     14028     14031     14033     14029     14028     14031     14034
     14030     14028     14031     14032     14030     14028     14031     14033
     14030     14028     14031     14034     14031     14034     14037     14038
     14031     14034     14037     14039     14031     14034     14037     14040
     14032     14031     14034     14035     14032     14031     14034     14036
     14032     14031     14034     14037     14033     14031     14034     14035
     14033     14031     14034     14036     14033     14031     14034     14037
     14034     14037     14040     14041     14034     14037     14040     14042
     14034     14037     14040     14043     14035     14034     14037     14038
     14035     14034     14037     14039     14035     14034     14037     14040
     14036     14034     14037     14038     14036     14034     14037     14039
     14036     14034     14037     14040     14037     14040     14043     14044
     14037     14040     14043     14045     14037     14040     14043     14046
     14038     14037     14040     14041     14038     14037     14040     14042
     14038     14037     14040     14043     14039     14037     14040     14041
     14039     14037     14040     14042     14039     14037     14040     14043
     14040     14043     14046     14047     14040     14043     14046     14048
     14040     14043     14046     14049     14041     14040     14043     14044
     14041     14040     14043     14045     14041     14040     14043     14046
     14042     14040     14043     14044     14042     14040     14043     14045
     14042     14040     14043     14046     14043     14046     14049     14050
     14043     14046     14049     14051     14043     14046     14049     14052
     14044     14043     14046     14047     14044     14043     14046     14048
     14044     14043     14046     14049     14045     14043     14046     14047
     14045     14043     14046     14048     14045     14043     14046     14049
     14046     14049     14052     14053     14046     14049     14052     14054
     14046     14049     14052     14055     14047     14046     14049     14050
     14047     14046     14049     14051     14047     14046     14049     14052
     14048     14046     14049     14050     14048     14046     14049     14051
     14048     14046     14049     14052     14049     14052     14055     14056
     14049     14052     14055     14057     14049     14052     14055     14058
     14050     14049     14052     14053     14050     14049     14052     14054
     14050     14049     14052     14055     14051     14049     14052     14053
     14051     14049     14052     14054     14051     14049     14052     14055
     14052     14055     14058     14059     14052     14055     14058     14060
     14052     14055     14058     14061     14053     14052     14055     14056
     14053     14052     14055     14057     14053     14052     14055     14058
     14054     14052     14055     14056     14054     14052     14055     14057
     14054     14052     14055     14058     14055     14058     14061     14062
     14055     14058     14061     14063     14055     14058     14061     14064
     14056     14055     14058     14059     14056     14055     14058     14060
     14056     14055     14058     14061     14057     14055     14058     14059
     14057     14055     14058     14060     14057     14055     14058     14061
     14058     14061     14064     14065     14058     14061     14064     14066
     14058     14061     14064     14067     14059     14058     14061     14062
     14059     14058     14061     14063     14059     14058     14061     14064
     14060     14058     14061     14062     14060     14058     14061     14063
     14060     14058     14061     14064     14061     14064     14067     14068
     14061     14064     14067     14069     14061     14064     14067     14070
     14062     14061     14064     14065     14062     14061     14064     14066
     14062     14061     14064     14067     14063     14061     14064     14065
     14063     14061     14064     14066     14063     14061     14064     14067
     14065     14064     14067     14068     14065     14064     14067     14069
     14065     14064     14067     14070     14066     14064     14067     14068
     14066     14064     14067     14069     14066     14064     14067     14070
     14071     14072     14087     14088     14071     14072     14087     14089
     14071     14072     14087     14093     14072     14071     14075     14076
     14072     14071     14075     14077     14072     14071     14075     14078
     14072     14071     14079     14080     14072     14071     14079     14081
     14072     14071     14079     14082     14072     14071     14083     14084
     14072     14071     14083     14085     14072     14071     14083     14086
     14072     14087     14093     14090     14073     14072     14071     14075
     14073     14072     14071     14079     14073     14072     14071     14083
     14073     14072     14087     14088     14073     14072     14087     14089
     14073     14072     14087     14093     14074     14072     14071     14075
     14074     14072     14071     14079     14074     14072     14071     14083
     14074     14072     14087     14088     14074     14072     14087     14089
     14074     14072     14087     14093     14075     14071     14072     14087
     14075     14071     14079     14080     14075     14071     14079     14081
     14075     14071     14079     14082     14075     14071     14083     14084
     14075     14071     14083     14085     14075     14071     14083     14086
     14076     14075     14071     14079     14076     14075     14071     14083
     14077     14075     14071     14079     14077     14075     14071     14083
     14078     14075     14071     14079     14078     14075     14071     14083
     14079     14071     14072     14087     14079     14071     14083     14084
     14079     14071     14083     14085     14079     14071     14083     14086
     14080     14079     14071     14083     14081     14079     14071     14083
     14082     14079     14071     14083     14083     14071     14072     14087
     14087     14093     14090     14091     14087     14093     14090     14092
     14087     14093     14090     14094     14088     14087     14093     14090
     14089     14087     14093     14090     14090     14094     14095     14096
     14090     14094     14095     14097     14090     14094     14095     14098
     14091     14090     14094     14095     14092     14090     14094     14095
     14093     14090     14094     14095     14094     14095     14098     14099
     14094     14095     14098     14100     14094     14095     14098     14106
     14095     14098     14100     14101     14095     14098     14106     14107
     14095     14098     14106     14108     14095     14098     14106     14109
     14096     14095     14098     14099     14096     14095     14098     14100
     14096     14095     14098     14106     14097     14095     14098     14099
     14097     14095     14098     14100     14097     14095     14098     14106
     14098     14100     14101     14102     14098     14100     14101     14103
     14098     14106     14109     14110     14099     14098     14100     14101
     14099     14098     14106     14107     14099     14098     14106     14108
     14099     14098     14106     14109     14100     14098     14106     14107
     14100     14098     14106     14108     14100     14098     14106     14109
     14100     14101     14103     14104     14100     14101     14103     14105
     14100     14101     14103     14115     14101     14100     14098     14106
     14101     14103     14115     14116     14101     14103     14115     14117
     14101     14103     14115     14118     14102     14101     14103     14104
     14102     14101     14103     14105     14102     14101     14103     14115
     14103     14115     14118     14119     14103     14115     14118     14120
     14103     14115     14118     14121     14104     14103     14115     14116
     14104     14103     14115     14117     14104     14103     14115     14118
     14105     14103     14115     14116     14105     14103     14115     14117
     14105     14103     14115     14118     14106     14109     14110     14111
     14106     14109     14110     14112     14107     14106     14109     14110
     14108     14106     14109     14110     14109     14110     14112     14113
     14109     14110     14112     14114     14109     14110     14112     14162
     14110     14112     14162     14163     14110     14112     14162     14164
     14110     14112     14162     14165     14111     14110     14112     14113
     14111     14110     14112     14114     14111     14110     14112     14162
     14112     14162     14165     14166     14112     14162     14165     14167
     14112     14162     14165     14168     14113     14112     14162     14163
     14113     14112     14162     14164     14113     14112     14162     14165
     14114     14112     14162     14163     14114     14112     14162     14164
     14114     14112     14162     14165     14115     14118     14121     14122
     14115     14118     14121     14123     14115     14118     14121     14124
     14116     14115     14118     14119     14116     14115     14118     14120
     14116     14115     14118     14121     14117     14115     14118     14119
     14117     14115     14118     14120     14117     14115     14118     14121
     14118     14121     14124     14125     14118     14121     14124     14126
     14118     14121     14124     14127     14119     14118     14121     14122
     14119     14118     14121     14123     14119     14118     14121     14124
     14120     14118     14121     14122     14120     14118     14121     14123
     14120     14118     14121     14124     14121     14124     14127     14128
     14121     14124     14127     14129     14121     14124     14127     14130
     14122     14121     14124     14125     14122     14121     14124     14126
     14122     14121     14124     14127     14123     14121     14124     14125
     14123     14121     14124     14126     14123     14121     14124     14127
     14124     14127     14130     14131     14124     14127     14130     14132
     14124     14127     14130     14133     14125     14124     14127     14128
     14125     14124     14127     14129     14125     14124     14127     14130
     14126     14124     14127     14128     14126     14124     14127     14129
     14126     14124     14127     14130     14127     14130     14133     14134
     14127     14130     14133     14135     14128     14127     14130     14131
     14128     14127     14130     14132     14128     14127     14130     14133
     14129     14127     14130     14131     14129     14127     14130     14132
     14129     14127     14130     14133     14130     14133     14135     14136
     14130     14133     14135     14137     14131     14130     14133     14134
     14131     14130     14133     14135     14132     14130     14133     14134
     14132     14130     14133     14135     14133     14135     14137     14138
     14133     14135     14137     14139     14133     14135     14137     14140
     14134     14133     14135     14136     14134     14133     14135     14137
     14135     14137     14140     14141     14135     14137     14140     14142
     14135     14137     14140     14143     14136     14135     14137     14138
     14136     14135     14137     14139     14136     14135     14137     14140
     14137     14140     14143     14144     14137     14140     14143     14145
     14137     14140     14143     14146     14138     14137     14140     14141
     14138     14137     14140     14142     14138     14137     14140     14143
     14139     14137     14140     14141     14139     14137     14140     14142
     14139     14137     14140     14143     14140     14143     14146     14147
     14140     14143     14146     14148     14140     14143     14146     14149
     14141     14140     14143     14144     14141     14140     14143     14145
     14141     14140     14143     14146     14142     14140     14143     14144
     14142     14140     14143     14145     14142     14140     14143     14146
     14143     14146     14149     14150     14143     14146     14149     14151
     14143     14146     14149     14152     14144     14143     14146     14147
     14144     14143     14146     14148     14144     14143     14146     14149
     14145     14143     14146     14147     14145     14143     14146     14148
     14145     14143     14146     14149     14146     14149     14152     14153
     14146     14149     14152     14154     14146     14149     14152     14155
     14147     14146     14149     14150     14147     14146     14149     14151
     14147     14146     14149     14152     14148     14146     14149     14150
     14148     14146     14149     14151     14148     14146     14149     14152
     14149     14152     14155     14156     14149     14152     14155     14157
     14149     14152     14155     14158     14150     14149     14152     14153
     14150     14149     14152     14154     14150     14149     14152     14155
     14151     14149     14152     14153     14151     14149     14152     14154
     14151     14149     14152     14155     14152     14155     14158     14159
     14152     14155     14158     14160     14152     14155     14158     14161
     14153     14152     14155     14156     14153     14152     14155     14157
     14153     14152     14155     14158     14154     14152     14155     14156
     14154     14152     14155     14157     14154     14152     14155     14158
     14156     14155     14158     14159     14156     14155     14158     14160
     14156     14155     14158     14161     14157     14155     14158     14159
     14157     14155     14158     14160     14157     14155     14158     14161
     14162     14165     14168     14169     14162     14165     14168     14170
     14162     14165     14168     14171     14163     14162     14165     14166
     14163     14162     14165     14167     14163     14162     14165     14168
     14164     14162     14165     14166     14164     14162     14165     14167
     14164     14162     14165     14168     14165     14168     14171     14172
     14165     14168     14171     14173     14165     14168     14171     14174
     14166     14165     14168     14169     14166     14165     14168     14170
     14166     14165     14168     14171     14167     14165     14168     14169
     14167     14165     14168     14170     14167     14165     14168     14171
     14168     14171     14174     14175     14168     14171     14174     14176
     14168     14171     14174     14177     14169     14168     14171     14172
     14169     14168     14171     14173     14169     14168     14171     14174
     14170     14168     14171     14172     14170     14168     14171     14173
     14170     14168     14171     14174     14171     14174     14177     14178
     14171     14174     14177     14179     14171     14174     14177     14180
     14172     14171     14174     14175     14172     14171     14174     14176
     14172     14171     14174     14177     14173     14171     14174     14175
     14173     14171     14174     14176     14173     14171     14174     14177
     14174     14177     14180     14181     14174     14177     14180     14182
     14174     14177     14180     14183     14175     14174     14177     14178
     14175     14174     14177     14179     14175     14174     14177     14180
     14176     14174     14177     14178     14176     14174     14177     14179
     14176     14174     14177     14180     14177     14180     14183     14184
     14177     14180     14183     14185     14177     14180     14183     14186
     14178     14177     14180     14181     14178     14177     14180     14182
     14178     14177     14180     14183     14179     14177     14180     14181
     14179     14177     14180     14182     14179     14177     14180     14183
     14180     14183     14186     14187     14180     14183     14186     14188
     14180     14183     14186     14189     14181     14180     14183     14184
     14181     14180     14183     14185     14181     14180     14183     14186
     14182     14180     14183     14184     14182     14180     14183     14185
     14182     14180     14183     14186     14183     14186     14189     14190
     14183     14186     14189     14191     14183     14186     14189     14192
     14184     14183     14186     14187     14184     14183     14186     14188
     14184     14183     14186     14189     14185     14183     14186     14187
     14185     14183     14186     14188     14185     14183     14186     14189
     14186     14189     14192     14193     14186     14189     14192     14194
     14186     14189     14192     14195     14187     14186     14189     14190
     14187     14186     14189     14191     14187     14186     14189     14192
     14188     14186     14189     14190     14188     14186     14189     14191
     14188     14186     14189     14192     14189     14192     14195     14196
     14189     14192     14195     14197     14189     14192     14195     14198
     14190     14189     14192     14193     14190     14189     14192     14194
     14190     14189     14192     14195     14191     14189     14192     14193
     14191     14189     14192     14194     14191     14189     14192     14195
     14192     14195     14198     14199     14192     14195     14198     14200
     14192     14195     14198     14201     14193     14192     14195     14196
     14193     14192     14195     14197     14193     14192     14195     14198
     14194     14192     14195     14196     14194     14192     14195     14197
     14194     14192     14195     14198     14195     14198     14201     14202
     14195     14198     14201     14203     14195     14198     14201     14204
     14196     14195     14198     14199     14196     14195     14198     14200
     14196     14195     14198     14201     14197     14195     14198     14199
     14197     14195     14198     14200     14197     14195     14198     14201
     14199     14198     14201     14202     14199     14198     14201     14203
     14199     14198     14201     14204     14200     14198     14201     14202
     14200     14198     14201     14203     14200     14198     14201     14204
     14205     14206     14221     14222     14205     14206     14221     14223
     14205     14206     14221     14227     14206     14205     14209     14210
     14206     14205     14209     14211     14206     14205     14209     14212
     14206     14205     14213     14214     14206     14205     14213     14215
     14206     14205     14213     14216     14206     14205     14217     14218
     14206     14205     14217     14219     14206     14205     14217     14220
     14206     14221     14227     14224     14207     14206     14205     14209
     14207     14206     14205     14213     14207     14206     14205     14217
     14207     14206     14221     14222     14207     14206     14221     14223
     14207     14206     14221     14227     14208     14206     14205     14209
     14208     14206     14205     14213     14208     14206     14205     14217
     14208     14206     14221     14222     14208     14206     14221     14223
     14208     14206     14221     14227     14209     14205     14206     14221
     14209     14205     14213     14214     14209     14205     14213     14215
     14209     14205     14213     14216     14209     14205     14217     14218
     14209     14205     14217     14219     14209     14205     14217     14220
     14210     14209     14205     14213     14210     14209     14205     14217
     14211     14209     14205     14213     14211     14209     14205     14217
     14212     14209     14205     14213     14212     14209     14205     14217
     14213     14205     14206     14221     14213     14205     14217     14218
     14213     14205     14217     14219     14213     14205     14217     14220
     14214     14213     14205     14217     14215     14213     14205     14217
     14216     14213     14205     14217     14217     14205     14206     14221
     14221     14227     14224     14225     14221     14227     14224     14226
     14221     14227     14224     14228     14222     14221     14227     14224
     14223     14221     14227     14224     14224     14228     14229     14230
     14224     14228     14229     14231     14224     14228     14229     14232
     14225     14224     14228     14229     14226     14224     14228     14229
     14227     14224     14228     14229     14228     14229     14232     14233
     14228     14229     14232     14234     14228     14229     14232     14240
     14229     14232     14234     14235     14229     14232     14240     14241
     14229     14232     14240     14242     14229     14232     14240     14243
     14230     14229     14232     14233     14230     14229     14232     14234
     14230     14229     14232     14240     14231     14229     14232     14233
     14231     14229     14232     14234     14231     14229     14232     14240
     14232     14234     14235     14236     14232     14234     14235     14237
     14232     14240     14243     14244     14233     14232     14234     14235
     14233     14232     14240     14241     14233     14232     14240     14242
     14233     14232     14240     14243     14234     14232     14240     14241
     14234     14232     14240     14242     14234     14232     14240     14243
     14234     14235     14237     14238     14234     14235     14237     14239
     14234     14235     14237     14249     14235     14234     14232     14240
     14235     14237     14249     14250     14235     14237     14249     14251
     14235     14237     14249     14252     14236     14235     14237     14238
     14236     14235     14237     14239     14236     14235     14237     14249
     14237     14249     14252     14253     14237     14249     14252     14254
     14237     14249     14252     14255     14238     14237     14249     14250
     14238     14237     14249     14251     14238     14237     14249     14252
     14239     14237     14249     14250     14239     14237     14249     14251
     14239     14237     14249     14252     14240     14243     14244     14245
     14240     14243     14244     14246     14241     14240     14243     14244
     14242     14240     14243     14244     14243     14244     14246     14247
     14243     14244     14246     14248     14243     14244     14246     14296
     14244     14246     14296     14297     14244     14246     14296     14298
     14244     14246     14296     14299     14245     14244     14246     14247
     14245     14244     14246     14248     14245     14244     14246     14296
     14246     14296     14299     14300     14246     14296     14299     14301
     14246     14296     14299     14302     14247     14246     14296     14297
     14247     14246     14296     14298     14247     14246     14296     14299
     14248     14246     14296     14297     14248     14246     14296     14298
     14248     14246     14296     14299     14249     14252     14255     14256
     14249     14252     14255     14257     14249     14252     14255     14258
     14250     14249     14252     14253     14250     14249     14252     14254
     14250     14249     14252     14255     14251     14249     14252     14253
     14251     14249     14252     14254     14251     14249     14252     14255
     14252     14255     14258     14259     14252     14255     14258     14260
     14252     14255     14258     14261     14253     14252     14255     14256
     14253     14252     14255     14257     14253     14252     14255     14258
     14254     14252     14255     14256     14254     14252     14255     14257
     14254     14252     14255     14258     14255     14258     14261     14262
     14255     14258     14261     14263     14255     14258     14261     14264
     14256     14255     14258     14259     14256     14255     14258     14260
     14256     14255     14258     14261     14257     14255     14258     14259
     14257     14255     14258     14260     14257     14255     14258     14261
     14258     14261     14264     14265     14258     14261     14264     14266
     14258     14261     14264     14267     14259     14258     14261     14262
     14259     14258     14261     14263     14259     14258     14261     14264
     14260     14258     14261     14262     14260     14258     14261     14263
     14260     14258     14261     14264     14261     14264     14267     14268
     14261     14264     14267     14269     14262     14261     14264     14265
     14262     14261     14264     14266     14262     14261     14264     14267
     14263     14261     14264     14265     14263     14261     14264     14266
     14263     14261     14264     14267     14264     14267     14269     14270
     14264     14267     14269     14271     14265     14264     14267     14268
     14265     14264     14267     14269     14266     14264     14267     14268
     14266     14264     14267     14269     14267     14269     14271     14272
     14267     14269     14271     14273     14267     14269     14271     14274
     14268     14267     14269     14270     14268     14267     14269     14271
     14269     14271     14274     14275     14269     14271     14274     14276
     14269     14271     14274     14277     14270     14269     14271     14272
     14270     14269     14271     14273     14270     14269     14271     14274
     14271     14274     14277     14278     14271     14274     14277     14279
     14271     14274     14277     14280     14272     14271     14274     14275
     14272     14271     14274     14276     14272     14271     14274     14277
     14273     14271     14274     14275     14273     14271     14274     14276
     14273     14271     14274     14277     14274     14277     14280     14281
     14274     14277     14280     14282     14274     14277     14280     14283
     14275     14274     14277     14278     14275     14274     14277     14279
     14275     14274     14277     14280     14276     14274     14277     14278
     14276     14274     14277     14279     14276     14274     14277     14280
     14277     14280     14283     14284     14277     14280     14283     14285
     14277     14280     14283     14286     14278     14277     14280     14281
     14278     14277     14280     14282     14278     14277     14280     14283
     14279     14277     14280     14281     14279     14277     14280     14282
     14279     14277     14280     14283     14280     14283     14286     14287
     14280     14283     14286     14288     14280     14283     14286     14289
     14281     14280     14283     14284     14281     14280     14283     14285
     14281     14280     14283     14286     14282     14280     14283     14284
     14282     14280     14283     14285     14282     14280     14283     14286
     14283     14286     14289     14290     14283     14286     14289     14291
     14283     14286     14289     14292     14284     14283     14286     14287
     14284     14283     14286     14288     14284     14283     14286     14289
     14285     14283     14286     14287     14285     14283     14286     14288
     14285     14283     14286     14289     14286     14289     14292     14293
     14286     14289     14292     14294     14286     14289     14292     14295
     14287     14286     14289     14290     14287     14286     14289     14291
     14287     14286     14289     14292     14288     14286     14289     14290
     14288     14286     14289     14291     14288     14286     14289     14292
     14290     14289     14292     14293     14290     14289     14292     14294
     14290     14289     14292     14295     14291     14289     14292     14293
     14291     14289     14292     14294     14291     14289     14292     14295
     14296     14299     14302     14303     14296     14299     14302     14304
     14296     14299     14302     14305     14297     14296     14299     14300
     14297     14296     14299     14301     14297     14296     14299     14302
     14298     14296     14299     14300     14298     14296     14299     14301
     14298     14296     14299     14302     14299     14302     14305     14306
     14299     14302     14305     14307     14299     14302     14305     14308
     14300     14299     14302     14303     14300     14299     14302     14304
     14300     14299     14302     14305     14301     14299     14302     14303
     14301     14299     14302     14304     14301     14299     14302     14305
     14302     14305     14308     14309     14302     14305     14308     14310
     14302     14305     14308     14311     14303     14302     14305     14306
     14303     14302     14305     14307     14303     14302     14305     14308
     14304     14302     14305     14306     14304     14302     14305     14307
     14304     14302     14305     14308     14305     14308     14311     14312
     14305     14308     14311     14313     14305     14308     14311     14314
     14306     14305     14308     14309     14306     14305     14308     14310
     14306     14305     14308     14311     14307     14305     14308     14309
     14307     14305     14308     14310     14307     14305     14308     14311
     14308     14311     14314     14315     14308     14311     14314     14316
     14308     14311     14314     14317     14309     14308     14311     14312
     14309     14308     14311     14313     14309     14308     14311     14314
     14310     14308     14311     14312     14310     14308     14311     14313
     14310     14308     14311     14314     14311     14314     14317     14318
     14311     14314     14317     14319     14311     14314     14317     14320
     14312     14311     14314     14315     14312     14311     14314     14316
     14312     14311     14314     14317     14313     14311     14314     14315
     14313     14311     14314     14316     14313     14311     14314     14317
     14314     14317     14320     14321     14314     14317     14320     14322
     14314     14317     14320     14323     14315     14314     14317     14318
     14315     14314     14317     14319     14315     14314     14317     14320
     14316     14314     14317     14318     14316     14314     14317     14319
     14316     14314     14317     14320     14317     14320     14323     14324
     14317     14320     14323     14325     14317     14320     14323     14326
     14318     14317     14320     14321     14318     14317     14320     14322
     14318     14317     14320     14323     14319     14317     14320     14321
     14319     14317     14320     14322     14319     14317     14320     14323
     14320     14323     14326     14327     14320     14323     14326     14328
     14320     14323     14326     14329     14321     14320     14323     14324
     14321     14320     14323     14325     14321     14320     14323     14326
     14322     14320     14323     14324     14322     14320     14323     14325
     14322     14320     14323     14326     14323     14326     14329     14330
     14323     14326     14329     14331     14323     14326     14329     14332
     14324     14323     14326     14327     14324     14323     14326     14328
     14324     14323     14326     14329     14325     14323     14326     14327
     14325     14323     14326     14328     14325     14323     14326     14329
     14326     14329     14332     14333     14326     14329     14332     14334
     14326     14329     14332     14335     14327     14326     14329     14330
     14327     14326     14329     14331     14327     14326     14329     14332
     14328     14326     14329     14330     14328     14326     14329     14331
     14328     14326     14329     14332     14329     14332     14335     14336
     14329     14332     14335     14337     14329     14332     14335     14338
     14330     14329     14332     14333     14330     14329     14332     14334
     14330     14329     14332     14335     14331     14329     14332     14333
     14331     14329     14332     14334     14331     14329     14332     14335
     14333     14332     14335     14336     14333     14332     14335     14337
     14333     14332     14335     14338     14334     14332     14335     14336
     14334     14332     14335     14337     14334     14332     14335     14338
     14339     14340     14355     14356     14339     14340     14355     14357
     14339     14340     14355     14361     14340     14339     14343     14344
     14340     14339     14343     14345     14340     14339     14343     14346
     14340     14339     14347     14348     14340     14339     14347     14349
     14340     14339     14347     14350     14340     14339     14351     14352
     14340     14339     14351     14353     14340     14339     14351     14354
     14340     14355     14361     14358     14341     14340     14339     14343
     14341     14340     14339     14347     14341     14340     14339     14351
     14341     14340     14355     14356     14341     14340     14355     14357
     14341     14340     14355     14361     14342     14340     14339     14343
     14342     14340     14339     14347     14342     14340     14339     14351
     14342     14340     14355     14356     14342     14340     14355     14357
     14342     14340     14355     14361     14343     14339     14340     14355
     14343     14339     14347     14348     14343     14339     14347     14349
     14343     14339     14347     14350     14343     14339     14351     14352
     14343     14339     14351     14353     14343     14339     14351     14354
     14344     14343     14339     14347     14344     14343     14339     14351
     14345     14343     14339     14347     14345     14343     14339     14351
     14346     14343     14339     14347     14346     14343     14339     14351
     14347     14339     14340     14355     14347     14339     14351     14352
     14347     14339     14351     14353     14347     14339     14351     14354
     14348     14347     14339     14351     14349     14347     14339     14351
     14350     14347     14339     14351     14351     14339     14340     14355
     14355     14361     14358     14359     14355     14361     14358     14360
     14355     14361     14358     14362     14356     14355     14361     14358
     14357     14355     14361     14358     14358     14362     14363     14364
     14358     14362     14363     14365     14358     14362     14363     14366
     14359     14358     14362     14363     14360     14358     14362     14363
     14361     14358     14362     14363     14362     14363     14366     14367
     14362     14363     14366     14368     14362     14363     14366     14374
     14363     14366     14368     14369     14363     14366     14374     14375
     14363     14366     14374     14376     14363     14366     14374     14377
     14364     14363     14366     14367     14364     14363     14366     14368
     14364     14363     14366     14374     14365     14363     14366     14367
     14365     14363     14366     14368     14365     14363     14366     14374
     14366     14368     14369     14370     14366     14368     14369     14371
     14366     14374     14377     14378     14367     14366     14368     14369
     14367     14366     14374     14375     14367     14366     14374     14376
     14367     14366     14374     14377     14368     14366     14374     14375
     14368     14366     14374     14376     14368     14366     14374     14377
     14368     14369     14371     14372     14368     14369     14371     14373
     14368     14369     14371     14383     14369     14368     14366     14374
     14369     14371     14383     14384     14369     14371     14383     14385
     14369     14371     14383     14386     14370     14369     14371     14372
     14370     14369     14371     14373     14370     14369     14371     14383
     14371     14383     14386     14387     14371     14383     14386     14388
     14371     14383     14386     14389     14372     14371     14383     14384
     14372     14371     14383     14385     14372     14371     14383     14386
     14373     14371     14383     14384     14373     14371     14383     14385
     14373     14371     14383     14386     14374     14377     14378     14379
     14374     14377     14378     14380     14375     14374     14377     14378
     14376     14374     14377     14378     14377     14378     14380     14381
     14377     14378     14380     14382     14377     14378     14380     14430
     14378     14380     14430     14431     14378     14380     14430     14432
     14378     14380     14430     14433     14379     14378     14380     14381
     14379     14378     14380     14382     14379     14378     14380     14430
     14380     14430     14433     14434     14380     14430     14433     14435
     14380     14430     14433     14436     14381     14380     14430     14431
     14381     14380     14430     14432     14381     14380     14430     14433
     14382     14380     14430     14431     14382     14380     14430     14432
     14382     14380     14430     14433     14383     14386     14389     14390
     14383     14386     14389     14391     14383     14386     14389     14392
     14384     14383     14386     14387     14384     14383     14386     14388
     14384     14383     14386     14389     14385     14383     14386     14387
     14385     14383     14386     14388     14385     14383     14386     14389
     14386     14389     14392     14393     14386     14389     14392     14394
     14386     14389     14392     14395     14387     14386     14389     14390
     14387     14386     14389     14391     14387     14386     14389     14392
     14388     14386     14389     14390     14388     14386     14389     14391
     14388     14386     14389     14392     14389     14392     14395     14396
     14389     14392     14395     14397     14389     14392     14395     14398
     14390     14389     14392     14393     14390     14389     14392     14394
     14390     14389     14392     14395     14391     14389     14392     14393
     14391     14389     14392     14394     14391     14389     14392     14395
     14392     14395     14398     14399     14392     14395     14398     14400
     14392     14395     14398     14401     14393     14392     14395     14396
     14393     14392     14395     14397     14393     14392     14395     14398
     14394     14392     14395     14396     14394     14392     14395     14397
     14394     14392     14395     14398     14395     14398     14401     14402
     14395     14398     14401     14403     14396     14395     14398     14399
     14396     14395     14398     14400     14396     14395     14398     14401
     14397     14395     14398     14399     14397     14395     14398     14400
     14397     14395     14398     14401     14398     14401     14403     14404
     14398     14401     14403     14405     14399     14398     14401     14402
     14399     14398     14401     14403     14400     14398     14401     14402
     14400     14398     14401     14403     14401     14403     14405     14406
     14401     14403     14405     14407     14401     14403     14405     14408
     14402     14401     14403     14404     14402     14401     14403     14405
     14403     14405     14408     14409     14403     14405     14408     14410
     14403     14405     14408     14411     14404     14403     14405     14406
     14404     14403     14405     14407     14404     14403     14405     14408
     14405     14408     14411     14412     14405     14408     14411     14413
     14405     14408     14411     14414     14406     14405     14408     14409
     14406     14405     14408     14410     14406     14405     14408     14411
     14407     14405     14408     14409     14407     14405     14408     14410
     14407     14405     14408     14411     14408     14411     14414     14415
     14408     14411     14414     14416     14408     14411     14414     14417
     14409     14408     14411     14412     14409     14408     14411     14413
     14409     14408     14411     14414     14410     14408     14411     14412
     14410     14408     14411     14413     14410     14408     14411     14414
     14411     14414     14417     14418     14411     14414     14417     14419
     14411     14414     14417     14420     14412     14411     14414     14415
     14412     14411     14414     14416     14412     14411     14414     14417
     14413     14411     14414     14415     14413     14411     14414     14416
     14413     14411     14414     14417     14414     14417     14420     14421
     14414     14417     14420     14422     14414     14417     14420     14423
     14415     14414     14417     14418     14415     14414     14417     14419
     14415     14414     14417     14420     14416     14414     14417     14418
     14416     14414     14417     14419     14416     14414     14417     14420
     14417     14420     14423     14424     14417     14420     14423     14425
     14417     14420     14423     14426     14418     14417     14420     14421
     14418     14417     14420     14422     14418     14417     14420     14423
     14419     14417     14420     14421     14419     14417     14420     14422
     14419     14417     14420     14423     14420     14423     14426     14427
     14420     14423     14426     14428     14420     14423     14426     14429
     14421     14420     14423     14424     14421     14420     14423     14425
     14421     14420     14423     14426     14422     14420     14423     14424
     14422     14420     14423     14425     14422     14420     14423     14426
     14424     14423     14426     14427     14424     14423     14426     14428
     14424     14423     14426     14429     14425     14423     14426     14427
     14425     14423     14426     14428     14425     14423     14426     14429
     14430     14433     14436     14437     14430     14433     14436     14438
     14430     14433     14436     14439     14431     14430     14433     14434
     14431     14430     14433     14435     14431     14430     14433     14436
     14432     14430     14433     14434     14432     14430     14433     14435
     14432     14430     14433     14436     14433     14436     14439     14440
     14433     14436     14439     14441     14433     14436     14439     14442
     14434     14433     14436     14437     14434     14433     14436     14438
     14434     14433     14436     14439     14435     14433     14436     14437
     14435     14433     14436     14438     14435     14433     14436     14439
     14436     14439     14442     14443     14436     14439     14442     14444
     14436     14439     14442     14445     14437     14436     14439     14440
     14437     14436     14439     14441     14437     14436     14439     14442
     14438     14436     14439     14440     14438     14436     14439     14441
     14438     14436     14439     14442     14439     14442     14445     14446
     14439     14442     14445     14447     14439     14442     14445     14448
     14440     14439     14442     14443     14440     14439     14442     14444
     14440     14439     14442     14445     14441     14439     14442     14443
     14441     14439     14442     14444     14441     14439     14442     14445
     14442     14445     14448     14449     14442     14445     14448     14450
     14442     14445     14448     14451     14443     14442     14445     14446
     14443     14442     14445     14447     14443     14442     14445     14448
     14444     14442     14445     14446     14444     14442     14445     14447
     14444     14442     14445     14448     14445     14448     14451     14452
     14445     14448     14451     14453     14445     14448     14451     14454
     14446     14445     14448     14449     14446     14445     14448     14450
     14446     14445     14448     14451     14447     14445     14448     14449
     14447     14445     14448     14450     14447     14445     14448     14451
     14448     14451     14454     14455     14448     14451     14454     14456
     14448     14451     14454     14457     14449     14448     14451     14452
     14449     14448     14451     14453     14449     14448     14451     14454
     14450     14448     14451     14452     14450     14448     14451     14453
     14450     14448     14451     14454     14451     14454     14457     14458
     14451     14454     14457     14459     14451     14454     14457     14460
     14452     14451     14454     14455     14452     14451     14454     14456
     14452     14451     14454     14457     14453     14451     14454     14455
     14453     14451     14454     14456     14453     14451     14454     14457
     14454     14457     14460     14461     14454     14457     14460     14462
     14454     14457     14460     14463     14455     14454     14457     14458
     14455     14454     14457     14459     14455     14454     14457     14460
     14456     14454     14457     14458     14456     14454     14457     14459
     14456     14454     14457     14460     14457     14460     14463     14464
     14457     14460     14463     14465     14457     14460     14463     14466
     14458     14457     14460     14461     14458     14457     14460     14462
     14458     14457     14460     14463     14459     14457     14460     14461
     14459     14457     14460     14462     14459     14457     14460     14463
     14460     14463     14466     14467     14460     14463     14466     14468
     14460     14463     14466     14469     14461     14460     14463     14464
     14461     14460     14463     14465     14461     14460     14463     14466
     14462     14460     14463     14464     14462     14460     14463     14465
     14462     14460     14463     14466     14463     14466     14469     14470
     14463     14466     14469     14471     14463     14466     14469     14472
     14464     14463     14466     14467     14464     14463     14466     14468
     14464     14463     14466     14469     14465     14463     14466     14467
     14465     14463     14466     14468     14465     14463     14466     14469
     14467     14466     14469     14470     14467     14466     14469     14471
     14467     14466     14469     14472     14468     14466     14469     14470
     14468     14466     14469     14471     14468     14466     14469     14472
     14473     14474     14489     14490     14473     14474     14489     14491
     14473     14474     14489     14495     14474     14473     14477     14478
     14474     14473     14477     14479     14474     14473     14477     14480
     14474     14473     14481     14482     14474     14473     14481     14483
     14474     14473     14481     14484     14474     14473     14485     14486
     14474     14473     14485     14487     14474     14473     14485     14488
     14474     14489     14495     14492     14475     14474     14473     14477
     14475     14474     14473     14481     14475     14474     14473     14485
     14475     14474     14489     14490     14475     14474     14489     14491
     14475     14474     14489     14495     14476     14474     14473     14477
     14476     14474     14473     14481     14476     14474     14473     14485
     14476     14474     14489     14490     14476     14474     14489     14491
     14476     14474     14489     14495     14477     14473     14474     14489
     14477     14473     14481     14482     14477     14473     14481     14483
     14477     14473     14481     14484     14477     14473     14485     14486
     14477     14473     14485     14487     14477     14473     14485     14488
     14478     14477     14473     14481     14478     14477     14473     14485
     14479     14477     14473     14481     14479     14477     14473     14485
     14480     14477     14473     14481     14480     14477     14473     14485
     14481     14473     14474     14489     14481     14473     14485     14486
     14481     14473     14485     14487     14481     14473     14485     14488
     14482     14481     14473     14485     14483     14481     14473     14485
     14484     14481     14473     14485     14485     14473     14474     14489
     14489     14495     14492     14493     14489     14495     14492     14494
     14489     14495     14492     14496     14490     14489     14495     14492
     14491     14489     14495     14492     14492     14496     14497     14498
     14492     14496     14497     14499     14492     14496     14497     14500
     14493     14492     14496     14497     14494     14492     14496     14497
     14495     14492     14496     14497     14496     14497     14500     14501
     14496     14497     14500     14502     14496     14497     14500     14508
     14497     14500     14502     14503     14497     14500     14508     14509
     14497     14500     14508     14510     14497     14500     14508     14511
     14498     14497     14500     14501     14498     14497     14500     14502
     14498     14497     14500     14508     14499     14497     14500     14501
     14499     14497     14500     14502     14499     14497     14500     14508
     14500     14502     14503     14504     14500     14502     14503     14505
     14500     14508     14511     14512     14501     14500     14502     14503
     14501     14500     14508     14509     14501     14500     14508     14510
     14501     14500     14508     14511     14502     14500     14508     14509
     14502     14500     14508     14510     14502     14500     14508     14511
     14502     14503     14505     14506     14502     14503     14505     14507
     14502     14503     14505     14517     14503     14502     14500     14508
     14503     14505     14517     14518     14503     14505     14517     14519
     14503     14505     14517     14520     14504     14503     14505     14506
     14504     14503     14505     14507     14504     14503     14505     14517
     14505     14517     14520     14521     14505     14517     14520     14522
     14505     14517     14520     14523     14506     14505     14517     14518
     14506     14505     14517     14519     14506     14505     14517     14520
     14507     14505     14517     14518     14507     14505     14517     14519
     14507     14505     14517     14520     14508     14511     14512     14513
     14508     14511     14512     14514     14509     14508     14511     14512
     14510     14508     14511     14512     14511     14512     14514     14515
     14511     14512     14514     14516     14511     14512     14514     14564
     14512     14514     14564     14565     14512     14514     14564     14566
     14512     14514     14564     14567     14513     14512     14514     14515
     14513     14512     14514     14516     14513     14512     14514     14564
     14514     14564     14567     14568     14514     14564     14567     14569
     14514     14564     14567     14570     14515     14514     14564     14565
     14515     14514     14564     14566     14515     14514     14564     14567
     14516     14514     14564     14565     14516     14514     14564     14566
     14516     14514     14564     14567     14517     14520     14523     14524
     14517     14520     14523     14525     14517     14520     14523     14526
     14518     14517     14520     14521     14518     14517     14520     14522
     14518     14517     14520     14523     14519     14517     14520     14521
     14519     14517     14520     14522     14519     14517     14520     14523
     14520     14523     14526     14527     14520     14523     14526     14528
     14520     14523     14526     14529     14521     14520     14523     14524
     14521     14520     14523     14525     14521     14520     14523     14526
     14522     14520     14523     14524     14522     14520     14523     14525
     14522     14520     14523     14526     14523     14526     14529     14530
     14523     14526     14529     14531     14523     14526     14529     14532
     14524     14523     14526     14527     14524     14523     14526     14528
     14524     14523     14526     14529     14525     14523     14526     14527
     14525     14523     14526     14528     14525     14523     14526     14529
     14526     14529     14532     14533     14526     14529     14532     14534
     14526     14529     14532     14535     14527     14526     14529     14530
     14527     14526     14529     14531     14527     14526     14529     14532
     14528     14526     14529     14530     14528     14526     14529     14531
     14528     14526     14529     14532     14529     14532     14535     14536
     14529     14532     14535     14537     14530     14529     14532     14533
     14530     14529     14532     14534     14530     14529     14532     14535
     14531     14529     14532     14533     14531     14529     14532     14534
     14531     14529     14532     14535     14532     14535     14537     14538
     14532     14535     14537     14539     14533     14532     14535     14536
     14533     14532     14535     14537     14534     14532     14535     14536
     14534     14532     14535     14537     14535     14537     14539     14540
     14535     14537     14539     14541     14535     14537     14539     14542
     14536     14535     14537     14538     14536     14535     14537     14539
     14537     14539     14542     14543     14537     14539     14542     14544
     14537     14539     14542     14545     14538     14537     14539     14540
     14538     14537     14539     14541     14538     14537     14539     14542
     14539     14542     14545     14546     14539     14542     14545     14547
     14539     14542     14545     14548     14540     14539     14542     14543
     14540     14539     14542     14544     14540     14539     14542     14545
     14541     14539     14542     14543     14541     14539     14542     14544
     14541     14539     14542     14545     14542     14545     14548     14549
     14542     14545     14548     14550     14542     14545     14548     14551
     14543     14542     14545     14546     14543     14542     14545     14547
     14543     14542     14545     14548     14544     14542     14545     14546
     14544     14542     14545     14547     14544     14542     14545     14548
     14545     14548     14551     14552     14545     14548     14551     14553
     14545     14548     14551     14554     14546     14545     14548     14549
     14546     14545     14548     14550     14546     14545     14548     14551
     14547     14545     14548     14549     14547     14545     14548     14550
     14547     14545     14548     14551     14548     14551     14554     14555
     14548     14551     14554     14556     14548     14551     14554     14557
     14549     14548     14551     14552     14549     14548     14551     14553
     14549     14548     14551     14554     14550     14548     14551     14552
     14550     14548     14551     14553     14550     14548     14551     14554
     14551     14554     14557     14558     14551     14554     14557     14559
     14551     14554     14557     14560     14552     14551     14554     14555
     14552     14551     14554     14556     14552     14551     14554     14557
     14553     14551     14554     14555     14553     14551     14554     14556
     14553     14551     14554     14557     14554     14557     14560     14561
     14554     14557     14560     14562     14554     14557     14560     14563
     14555     14554     14557     14558     14555     14554     14557     14559
     14555     14554     14557     14560     14556     14554     14557     14558
     14556     14554     14557     14559     14556     14554     14557     14560
     14558     14557     14560     14561     14558     14557     14560     14562
     14558     14557     14560     14563     14559     14557     14560     14561
     14559     14557     14560     14562     14559     14557     14560     14563
     14564     14567     14570     14571     14564     14567     14570     14572
     14564     14567     14570     14573     14565     14564     14567     14568
     14565     14564     14567     14569     14565     14564     14567     14570
     14566     14564     14567     14568     14566     14564     14567     14569
     14566     14564     14567     14570     14567     14570     14573     14574
     14567     14570     14573     14575     14567     14570     14573     14576
     14568     14567     14570     14571     14568     14567     14570     14572
     14568     14567     14570     14573     14569     14567     14570     14571
     14569     14567     14570     14572     14569     14567     14570     14573
     14570     14573     14576     14577     14570     14573     14576     14578
     14570     14573     14576     14579     14571     14570     14573     14574
     14571     14570     14573     14575     14571     14570     14573     14576
     14572     14570     14573     14574     14572     14570     14573     14575
     14572     14570     14573     14576     14573     14576     14579     14580
     14573     14576     14579     14581     14573     14576     14579     14582
     14574     14573     14576     14577     14574     14573     14576     14578
     14574     14573     14576     14579     14575     14573     14576     14577
     14575     14573     14576     14578     14575     14573     14576     14579
     14576     14579     14582     14583     14576     14579     14582     14584
     14576     14579     14582     14585     14577     14576     14579     14580
     14577     14576     14579     14581     14577     14576     14579     14582
     14578     14576     14579     14580     14578     14576     14579     14581
     14578     14576     14579     14582     14579     14582     14585     14586
     14579     14582     14585     14587     14579     14582     14585     14588
     14580     14579     14582     14583     14580     14579     14582     14584
     14580     14579     14582     14585     14581     14579     14582     14583
     14581     14579     14582     14584     14581     14579     14582     14585
     14582     14585     14588     14589     14582     14585     14588     14590
     14582     14585     14588     14591     14583     14582     14585     14586
     14583     14582     14585     14587     14583     14582     14585     14588
     14584     14582     14585     14586     14584     14582     14585     14587
     14584     14582     14585     14588     14585     14588     14591     14592
     14585     14588     14591     14593     14585     14588     14591     14594
     14586     14585     14588     14589     14586     14585     14588     14590
     14586     14585     14588     14591     14587     14585     14588     14589
     14587     14585     14588     14590     14587     14585     14588     14591
     14588     14591     14594     14595     14588     14591     14594     14596
     14588     14591     14594     14597     14589     14588     14591     14592
     14589     14588     14591     14593     14589     14588     14591     14594
     14590     14588     14591     14592     14590     14588     14591     14593
     14590     14588     14591     14594     14591     14594     14597     14598
     14591     14594     14597     14599     14591     14594     14597     14600
     14592     14591     14594     14595     14592     14591     14594     14596
     14592     14591     14594     14597     14593     14591     14594     14595
     14593     14591     14594     14596     14593     14591     14594     14597
     14594     14597     14600     14601     14594     14597     14600     14602
     14594     14597     14600     14603     14595     14594     14597     14598
     14595     14594     14597     14599     14595     14594     14597     14600
     14596     14594     14597     14598     14596     14594     14597     14599
     14596     14594     14597     14600     14597     14600     14603     14604
     14597     14600     14603     14605     14597     14600     14603     14606
     14598     14597     14600     14601     14598     14597     14600     14602
     14598     14597     14600     14603     14599     14597     14600     14601
     14599     14597     14600     14602     14599     14597     14600     14603
     14601     14600     14603     14604     14601     14600     14603     14605
     14601     14600     14603     14606     14602     14600     14603     14604
     14602     14600     14603     14605     14602     14600     14603     14606
     14607     14608     14623     14624     14607     14608     14623     14625
     14607     14608     14623     14629     14608     14607     14611     14612
     14608     14607     14611     14613     14608     14607     14611     14614
     14608     14607     14615     14616     14608     14607     14615     14617
     14608     14607     14615     14618     14608     14607     14619     14620
     14608     14607     14619     14621     14608     14607     14619     14622
     14608     14623     14629     14626     14609     14608     14607     14611
     14609     14608     14607     14615     14609     14608     14607     14619
     14609     14608     14623     14624     14609     14608     14623     14625
     14609     14608     14623     14629     14610     14608     14607     14611
     14610     14608     14607     14615     14610     14608     14607     14619
     14610     14608     14623     14624     14610     14608     14623     14625
     14610     14608     14623     14629     14611     14607     14608     14623
     14611     14607     14615     14616     14611     14607     14615     14617
     14611     14607     14615     14618     14611     14607     14619     14620
     14611     14607     14619     14621     14611     14607     14619     14622
     14612     14611     14607     14615     14612     14611     14607     14619
     14613     14611     14607     14615     14613     14611     14607     14619
     14614     14611     14607     14615     14614     14611     14607     14619
     14615     14607     14608     14623     14615     14607     14619     14620
     14615     14607     14619     14621     14615     14607     14619     14622
     14616     14615     14607     14619     14617     14615     14607     14619
     14618     14615     14607     14619     14619     14607     14608     14623
     14623     14629     14626     14627     14623     14629     14626     14628
     14623     14629     14626     14630     14624     14623     14629     14626
     14625     14623     14629     14626     14626     14630     14631     14632
     14626     14630     14631     14633     14626     14630     14631     14634
     14627     14626     14630     14631     14628     14626     14630     14631
     14629     14626     14630     14631     14630     14631     14634     14635
     14630     14631     14634     14636     14630     14631     14634     14642
     14631     14634     14636     14637     14631     14634     14642     14643
     14631     14634     14642     14644     14631     14634     14642     14645
     14632     14631     14634     14635     14632     14631     14634     14636
     14632     14631     14634     14642     14633     14631     14634     14635
     14633     14631     14634     14636     14633     14631     14634     14642
     14634     14636     14637     14638     14634     14636     14637     14639
     14634     14642     14645     14646     14635     14634     14636     14637
     14635     14634     14642     14643     14635     14634     14642     14644
     14635     14634     14642     14645     14636     14634     14642     14643
     14636     14634     14642     14644     14636     14634     14642     14645
     14636     14637     14639     14640     14636     14637     14639     14641
     14636     14637     14639     14651     14637     14636     14634     14642
     14637     14639     14651     14652     14637     14639     14651     14653
     14637     14639     14651     14654     14638     14637     14639     14640
     14638     14637     14639     14641     14638     14637     14639     14651
     14639     14651     14654     14655     14639     14651     14654     14656
     14639     14651     14654     14657     14640     14639     14651     14652
     14640     14639     14651     14653     14640     14639     14651     14654
     14641     14639     14651     14652     14641     14639     14651     14653
     14641     14639     14651     14654     14642     14645     14646     14647
     14642     14645     14646     14648     14643     14642     14645     14646
     14644     14642     14645     14646     14645     14646     14648     14649
     14645     14646     14648     14650     14645     14646     14648     14698
     14646     14648     14698     14699     14646     14648     14698     14700
     14646     14648     14698     14701     14647     14646     14648     14649
     14647     14646     14648     14650     14647     14646     14648     14698
     14648     14698     14701     14702     14648     14698     14701     14703
     14648     14698     14701     14704     14649     14648     14698     14699
     14649     14648     14698     14700     14649     14648     14698     14701
     14650     14648     14698     14699     14650     14648     14698     14700
     14650     14648     14698     14701     14651     14654     14657     14658
     14651     14654     14657     14659     14651     14654     14657     14660
     14652     14651     14654     14655     14652     14651     14654     14656
     14652     14651     14654     14657     14653     14651     14654     14655
     14653     14651     14654     14656     14653     14651     14654     14657
     14654     14657     14660     14661     14654     14657     14660     14662
     14654     14657     14660     14663     14655     14654     14657     14658
     14655     14654     14657     14659     14655     14654     14657     14660
     14656     14654     14657     14658     14656     14654     14657     14659
     14656     14654     14657     14660     14657     14660     14663     14664
     14657     14660     14663     14665     14657     14660     14663     14666
     14658     14657     14660     14661     14658     14657     14660     14662
     14658     14657     14660     14663     14659     14657     14660     14661
     14659     14657     14660     14662     14659     14657     14660     14663
     14660     14663     14666     14667     14660     14663     14666     14668
     14660     14663     14666     14669     14661     14660     14663     14664
     14661     14660     14663     14665     14661     14660     14663     14666
     14662     14660     14663     14664     14662     14660     14663     14665
     14662     14660     14663     14666     14663     14666     14669     14670
     14663     14666     14669     14671     14664     14663     14666     14667
     14664     14663     14666     14668     14664     14663     14666     14669
     14665     14663     14666     14667     14665     14663     14666     14668
     14665     14663     14666     14669     14666     14669     14671     14672
     14666     14669     14671     14673     14667     14666     14669     14670
     14667     14666     14669     14671     14668     14666     14669     14670
     14668     14666     14669     14671     14669     14671     14673     14674
     14669     14671     14673     14675     14669     14671     14673     14676
     14670     14669     14671     14672     14670     14669     14671     14673
     14671     14673     14676     14677     14671     14673     14676     14678
     14671     14673     14676     14679     14672     14671     14673     14674
     14672     14671     14673     14675     14672     14671     14673     14676
     14673     14676     14679     14680     14673     14676     14679     14681
     14673     14676     14679     14682     14674     14673     14676     14677
     14674     14673     14676     14678     14674     14673     14676     14679
     14675     14673     14676     14677     14675     14673     14676     14678
     14675     14673     14676     14679     14676     14679     14682     14683
     14676     14679     14682     14684     14676     14679     14682     14685
     14677     14676     14679     14680     14677     14676     14679     14681
     14677     14676     14679     14682     14678     14676     14679     14680
     14678     14676     14679     14681     14678     14676     14679     14682
     14679     14682     14685     14686     14679     14682     14685     14687
     14679     14682     14685     14688     14680     14679     14682     14683
     14680     14679     14682     14684     14680     14679     14682     14685
     14681     14679     14682     14683     14681     14679     14682     14684
     14681     14679     14682     14685     14682     14685     14688     14689
     14682     14685     14688     14690     14682     14685     14688     14691
     14683     14682     14685     14686     14683     14682     14685     14687
     14683     14682     14685     14688     14684     14682     14685     14686
     14684     14682     14685     14687     14684     14682     14685     14688
     14685     14688     14691     14692     14685     14688     14691     14693
     14685     14688     14691     14694     14686     14685     14688     14689
     14686     14685     14688     14690     14686     14685     14688     14691
     14687     14685     14688     14689     14687     14685     14688     14690
     14687     14685     14688     14691     14688     14691     14694     14695
     14688     14691     14694     14696     14688     14691     14694     14697
     14689     14688     14691     14692     14689     14688     14691     14693
     14689     14688     14691     14694     14690     14688     14691     14692
     14690     14688     14691     14693     14690     14688     14691     14694
     14692     14691     14694     14695     14692     14691     14694     14696
     14692     14691     14694     14697     14693     14691     14694     14695
     14693     14691     14694     14696     14693     14691     14694     14697
     14698     14701     14704     14705     14698     14701     14704     14706
     14698     14701     14704     14707     14699     14698     14701     14702
     14699     14698     14701     14703     14699     14698     14701     14704
     14700     14698     14701     14702     14700     14698     14701     14703
     14700     14698     14701     14704     14701     14704     14707     14708
     14701     14704     14707     14709     14701     14704     14707     14710
     14702     14701     14704     14705     14702     14701     14704     14706
     14702     14701     14704     14707     14703     14701     14704     14705
     14703     14701     14704     14706     14703     14701     14704     14707
     14704     14707     14710     14711     14704     14707     14710     14712
     14704     14707     14710     14713     14705     14704     14707     14708
     14705     14704     14707     14709     14705     14704     14707     14710
     14706     14704     14707     14708     14706     14704     14707     14709
     14706     14704     14707     14710     14707     14710     14713     14714
     14707     14710     14713     14715     14707     14710     14713     14716
     14708     14707     14710     14711     14708     14707     14710     14712
     14708     14707     14710     14713     14709     14707     14710     14711
     14709     14707     14710     14712     14709     14707     14710     14713
     14710     14713     14716     14717     14710     14713     14716     14718
     14710     14713     14716     14719     14711     14710     14713     14714
     14711     14710     14713     14715     14711     14710     14713     14716
     14712     14710     14713     14714     14712     14710     14713     14715
     14712     14710     14713     14716     14713     14716     14719     14720
     14713     14716     14719     14721     14713     14716     14719     14722
     14714     14713     14716     14717     14714     14713     14716     14718
     14714     14713     14716     14719     14715     14713     14716     14717
     14715     14713     14716     14718     14715     14713     14716     14719
     14716     14719     14722     14723     14716     14719     14722     14724
     14716     14719     14722     14725     14717     14716     14719     14720
     14717     14716     14719     14721     14717     14716     14719     14722
     14718     14716     14719     14720     14718     14716     14719     14721
     14718     14716     14719     14722     14719     14722     14725     14726
     14719     14722     14725     14727     14719     14722     14725     14728
     14720     14719     14722     14723     14720     14719     14722     14724
     14720     14719     14722     14725     14721     14719     14722     14723
     14721     14719     14722     14724     14721     14719     14722     14725
     14722     14725     14728     14729     14722     14725     14728     14730
     14722     14725     14728     14731     14723     14722     14725     14726
     14723     14722     14725     14727     14723     14722     14725     14728
     14724     14722     14725     14726     14724     14722     14725     14727
     14724     14722     14725     14728     14725     14728     14731     14732
     14725     14728     14731     14733     14725     14728     14731     14734
     14726     14725     14728     14729     14726     14725     14728     14730
     14726     14725     14728     14731     14727     14725     14728     14729
     14727     14725     14728     14730     14727     14725     14728     14731
     14728     14731     14734     14735     14728     14731     14734     14736
     14728     14731     14734     14737     14729     14728     14731     14732
     14729     14728     14731     14733     14729     14728     14731     14734
     14730     14728     14731     14732     14730     14728     14731     14733
     14730     14728     14731     14734     14731     14734     14737     14738
     14731     14734     14737     14739     14731     14734     14737     14740
     14732     14731     14734     14735     14732     14731     14734     14736
     14732     14731     14734     14737     14733     14731     14734     14735
     14733     14731     14734     14736     14733     14731     14734     14737
     14735     14734     14737     14738     14735     14734     14737     14739
     14735     14734     14737     14740     14736     14734     14737     14738
     14736     14734     14737     14739     14736     14734     14737     14740
     14741     14742     14757     14758     14741     14742     14757     14759
     14741     14742     14757     14763     14742     14741     14745     14746
     14742     14741     14745     14747     14742     14741     14745     14748
     14742     14741     14749     14750     14742     14741     14749     14751
     14742     14741     14749     14752     14742     14741     14753     14754
     14742     14741     14753     14755     14742     14741     14753     14756
     14742     14757     14763     14760     14743     14742     14741     14745
     14743     14742     14741     14749     14743     14742     14741     14753
     14743     14742     14757     14758     14743     14742     14757     14759
     14743     14742     14757     14763     14744     14742     14741     14745
     14744     14742     14741     14749     14744     14742     14741     14753
     14744     14742     14757     14758     14744     14742     14757     14759
     14744     14742     14757     14763     14745     14741     14742     14757
     14745     14741     14749     14750     14745     14741     14749     14751
     14745     14741     14749     14752     14745     14741     14753     14754
     14745     14741     14753     14755     14745     14741     14753     14756
     14746     14745     14741     14749     14746     14745     14741     14753
     14747     14745     14741     14749     14747     14745     14741     14753
     14748     14745     14741     14749     14748     14745     14741     14753
     14749     14741     14742     14757     14749     14741     14753     14754
     14749     14741     14753     14755     14749     14741     14753     14756
     14750     14749     14741     14753     14751     14749     14741     14753
     14752     14749     14741     14753     14753     14741     14742     14757
     14757     14763     14760     14761     14757     14763     14760     14762
     14757     14763     14760     14764     14758     14757     14763     14760
     14759     14757     14763     14760     14760     14764     14765     14766
     14760     14764     14765     14767     14760     14764     14765     14768
     14761     14760     14764     14765     14762     14760     14764     14765
     14763     14760     14764     14765     14764     14765     14768     14769
     14764     14765     14768     14770     14764     14765     14768     14776
     14765     14768     14770     14771     14765     14768     14776     14777
     14765     14768     14776     14778     14765     14768     14776     14779
     14766     14765     14768     14769     14766     14765     14768     14770
     14766     14765     14768     14776     14767     14765     14768     14769
     14767     14765     14768     14770     14767     14765     14768     14776
     14768     14770     14771     14772     14768     14770     14771     14773
     14768     14776     14779     14780     14769     14768     14770     14771
     14769     14768     14776     14777     14769     14768     14776     14778
     14769     14768     14776     14779     14770     14768     14776     14777
     14770     14768     14776     14778     14770     14768     14776     14779
     14770     14771     14773     14774     14770     14771     14773     14775
     14770     14771     14773     14785     14771     14770     14768     14776
     14771     14773     14785     14786     14771     14773     14785     14787
     14771     14773     14785     14788     14772     14771     14773     14774
     14772     14771     14773     14775     14772     14771     14773     14785
     14773     14785     14788     14789     14773     14785     14788     14790
     14773     14785     14788     14791     14774     14773     14785     14786
     14774     14773     14785     14787     14774     14773     14785     14788
     14775     14773     14785     14786     14775     14773     14785     14787
     14775     14773     14785     14788     14776     14779     14780     14781
     14776     14779     14780     14782     14777     14776     14779     14780
     14778     14776     14779     14780     14779     14780     14782     14783
     14779     14780     14782     14784     14779     14780     14782     14832
     14780     14782     14832     14833     14780     14782     14832     14834
     14780     14782     14832     14835     14781     14780     14782     14783
     14781     14780     14782     14784     14781     14780     14782     14832
     14782     14832     14835     14836     14782     14832     14835     14837
     14782     14832     14835     14838     14783     14782     14832     14833
     14783     14782     14832     14834     14783     14782     14832     14835
     14784     14782     14832     14833     14784     14782     14832     14834
     14784     14782     14832     14835     14785     14788     14791     14792
     14785     14788     14791     14793     14785     14788     14791     14794
     14786     14785     14788     14789     14786     14785     14788     14790
     14786     14785     14788     14791     14787     14785     14788     14789
     14787     14785     14788     14790     14787     14785     14788     14791
     14788     14791     14794     14795     14788     14791     14794     14796
     14788     14791     14794     14797     14789     14788     14791     14792
     14789     14788     14791     14793     14789     14788     14791     14794
     14790     14788     14791     14792     14790     14788     14791     14793
     14790     14788     14791     14794     14791     14794     14797     14798
     14791     14794     14797     14799     14791     14794     14797     14800
     14792     14791     14794     14795     14792     14791     14794     14796
     14792     14791     14794     14797     14793     14791     14794     14795
     14793     14791     14794     14796     14793     14791     14794     14797
     14794     14797     14800     14801     14794     14797     14800     14802
     14794     14797     14800     14803     14795     14794     14797     14798
     14795     14794     14797     14799     14795     14794     14797     14800
     14796     14794     14797     14798     14796     14794     14797     14799
     14796     14794     14797     14800     14797     14800     14803     14804
     14797     14800     14803     14805     14798     14797     14800     14801
     14798     14797     14800     14802     14798     14797     14800     14803
     14799     14797     14800     14801     14799     14797     14800     14802
     14799     14797     14800     14803     14800     14803     14805     14806
     14800     14803     14805     14807     14801     14800     14803     14804
     14801     14800     14803     14805     14802     14800     14803     14804
     14802     14800     14803     14805     14803     14805     14807     14808
     14803     14805     14807     14809     14803     14805     14807     14810
     14804     14803     14805     14806     14804     14803     14805     14807
     14805     14807     14810     14811     14805     14807     14810     14812
     14805     14807     14810     14813     14806     14805     14807     14808
     14806     14805     14807     14809     14806     14805     14807     14810
     14807     14810     14813     14814     14807     14810     14813     14815
     14807     14810     14813     14816     14808     14807     14810     14811
     14808     14807     14810     14812     14808     14807     14810     14813
     14809     14807     14810     14811     14809     14807     14810     14812
     14809     14807     14810     14813     14810     14813     14816     14817
     14810     14813     14816     14818     14810     14813     14816     14819
     14811     14810     14813     14814     14811     14810     14813     14815
     14811     14810     14813     14816     14812     14810     14813     14814
     14812     14810     14813     14815     14812     14810     14813     14816
     14813     14816     14819     14820     14813     14816     14819     14821
     14813     14816     14819     14822     14814     14813     14816     14817
     14814     14813     14816     14818     14814     14813     14816     14819
     14815     14813     14816     14817     14815     14813     14816     14818
     14815     14813     14816     14819     14816     14819     14822     14823
     14816     14819     14822     14824     14816     14819     14822     14825
     14817     14816     14819     14820     14817     14816     14819     14821
     14817     14816     14819     14822     14818     14816     14819     14820
     14818     14816     14819     14821     14818     14816     14819     14822
     14819     14822     14825     14826     14819     14822     14825     14827
     14819     14822     14825     14828     14820     14819     14822     14823
     14820     14819     14822     14824     14820     14819     14822     14825
     14821     14819     14822     14823     14821     14819     14822     14824
     14821     14819     14822     14825     14822     14825     14828     14829
     14822     14825     14828     14830     14822     14825     14828     14831
     14823     14822     14825     14826     14823     14822     14825     14827
     14823     14822     14825     14828     14824     14822     14825     14826
     14824     14822     14825     14827     14824     14822     14825     14828
     14826     14825     14828     14829     14826     14825     14828     14830
     14826     14825     14828     14831     14827     14825     14828     14829
     14827     14825     14828     14830     14827     14825     14828     14831
     14832     14835     14838     14839     14832     14835     14838     14840
     14832     14835     14838     14841     14833     14832     14835     14836
     14833     14832     14835     14837     14833     14832     14835     14838
     14834     14832     14835     14836     14834     14832     14835     14837
     14834     14832     14835     14838     14835     14838     14841     14842
     14835     14838     14841     14843     14835     14838     14841     14844
     14836     14835     14838     14839     14836     14835     14838     14840
     14836     14835     14838     14841     14837     14835     14838     14839
     14837     14835     14838     14840     14837     14835     14838     14841
     14838     14841     14844     14845     14838     14841     14844     14846
     14838     14841     14844     14847     14839     14838     14841     14842
     14839     14838     14841     14843     14839     14838     14841     14844
     14840     14838     14841     14842     14840     14838     14841     14843
     14840     14838     14841     14844     14841     14844     14847     14848
     14841     14844     14847     14849     14841     14844     14847     14850
     14842     14841     14844     14845     14842     14841     14844     14846
     14842     14841     14844     14847     14843     14841     14844     14845
     14843     14841     14844     14846     14843     14841     14844     14847
     14844     14847     14850     14851     14844     14847     14850     14852
     14844     14847     14850     14853     14845     14844     14847     14848
     14845     14844     14847     14849     14845     14844     14847     14850
     14846     14844     14847     14848     14846     14844     14847     14849
     14846     14844     14847     14850     14847     14850     14853     14854
     14847     14850     14853     14855     14847     14850     14853     14856
     14848     14847     14850     14851     14848     14847     14850     14852
     14848     14847     14850     14853     14849     14847     14850     14851
     14849     14847     14850     14852     14849     14847     14850     14853
     14850     14853     14856     14857     14850     14853     14856     14858
     14850     14853     14856     14859     14851     14850     14853     14854
     14851     14850     14853     14855     14851     14850     14853     14856
     14852     14850     14853     14854     14852     14850     14853     14855
     14852     14850     14853     14856     14853     14856     14859     14860
     14853     14856     14859     14861     14853     14856     14859     14862
     14854     14853     14856     14857     14854     14853     14856     14858
     14854     14853     14856     14859     14855     14853     14856     14857
     14855     14853     14856     14858     14855     14853     14856     14859
     14856     14859     14862     14863     14856     14859     14862     14864
     14856     14859     14862     14865     14857     14856     14859     14860
     14857     14856     14859     14861     14857     14856     14859     14862
     14858     14856     14859     14860     14858     14856     14859     14861
     14858     14856     14859     14862     14859     14862     14865     14866
     14859     14862     14865     14867     14859     14862     14865     14868
     14860     14859     14862     14863     14860     14859     14862     14864
     14860     14859     14862     14865     14861     14859     14862     14863
     14861     14859     14862     14864     14861     14859     14862     14865
     14862     14865     14868     14869     14862     14865     14868     14870
     14862     14865     14868     14871     14863     14862     14865     14866
     14863     14862     14865     14867     14863     14862     14865     14868
     14864     14862     14865     14866     14864     14862     14865     14867
     14864     14862     14865     14868     14865     14868     14871     14872
     14865     14868     14871     14873     14865     14868     14871     14874
     14866     14865     14868     14869     14866     14865     14868     14870
     14866     14865     14868     14871     14867     14865     14868     14869
     14867     14865     14868     14870     14867     14865     14868     14871
     14869     14868     14871     14872     14869     14868     14871     14873
     14869     14868     14871     14874     14870     14868     14871     14872
     14870     14868     14871     14873     14870     14868     14871     14874
     14875     14876     14891     14892     14875     14876     14891     14893
     14875     14876     14891     14897     14876     14875     14879     14880
     14876     14875     14879     14881     14876     14875     14879     14882
     14876     14875     14883     14884     14876     14875     14883     14885
     14876     14875     14883     14886     14876     14875     14887     14888
     14876     14875     14887     14889     14876     14875     14887     14890
     14876     14891     14897     14894     14877     14876     14875     14879
     14877     14876     14875     14883     14877     14876     14875     14887
     14877     14876     14891     14892     14877     14876     14891     14893
     14877     14876     14891     14897     14878     14876     14875     14879
     14878     14876     14875     14883     14878     14876     14875     14887
     14878     14876     14891     14892     14878     14876     14891     14893
     14878     14876     14891     14897     14879     14875     14876     14891
     14879     14875     14883     14884     14879     14875     14883     14885
     14879     14875     14883     14886     14879     14875     14887     14888
     14879     14875     14887     14889     14879     14875     14887     14890
     14880     14879     14875     14883     14880     14879     14875     14887
     14881     14879     14875     14883     14881     14879     14875     14887
     14882     14879     14875     14883     14882     14879     14875     14887
     14883     14875     14876     14891     14883     14875     14887     14888
     14883     14875     14887     14889     14883     14875     14887     14890
     14884     14883     14875     14887     14885     14883     14875     14887
     14886     14883     14875     14887     14887     14875     14876     14891
     14891     14897     14894     14895     14891     14897     14894     14896
     14891     14897     14894     14898     14892     14891     14897     14894
     14893     14891     14897     14894     14894     14898     14899     14900
     14894     14898     14899     14901     14894     14898     14899     14902
     14895     14894     14898     14899     14896     14894     14898     14899
     14897     14894     14898     14899     14898     14899     14902     14903
     14898     14899     14902     14904     14898     14899     14902     14910
     14899     14902     14904     14905     14899     14902     14910     14911
     14899     14902     14910     14912     14899     14902     14910     14913
     14900     14899     14902     14903     14900     14899     14902     14904
     14900     14899     14902     14910     14901     14899     14902     14903
     14901     14899     14902     14904     14901     14899     14902     14910
     14902     14904     14905     14906     14902     14904     14905     14907
     14902     14910     14913     14914     14903     14902     14904     14905
     14903     14902     14910     14911     14903     14902     14910     14912
     14903     14902     14910     14913     14904     14902     14910     14911
     14904     14902     14910     14912     14904     14902     14910     14913
     14904     14905     14907     14908     14904     14905     14907     14909
     14904     14905     14907     14919     14905     14904     14902     14910
     14905     14907     14919     14920     14905     14907     14919     14921
     14905     14907     14919     14922     14906     14905     14907     14908
     14906     14905     14907     14909     14906     14905     14907     14919
     14907     14919     14922     14923     14907     14919     14922     14924
     14907     14919     14922     14925     14908     14907     14919     14920
     14908     14907     14919     14921     14908     14907     14919     14922
     14909     14907     14919     14920     14909     14907     14919     14921
     14909     14907     14919     14922     14910     14913     14914     14915
     14910     14913     14914     14916     14911     14910     14913     14914
     14912     14910     14913     14914     14913     14914     14916     14917
     14913     14914     14916     14918     14913     14914     14916     14966
     14914     14916     14966     14967     14914     14916     14966     14968
     14914     14916     14966     14969     14915     14914     14916     14917
     14915     14914     14916     14918     14915     14914     14916     14966
     14916     14966     14969     14970     14916     14966     14969     14971
     14916     14966     14969     14972     14917     14916     14966     14967
     14917     14916     14966     14968     14917     14916     14966     14969
     14918     14916     14966     14967     14918     14916     14966     14968
     14918     14916     14966     14969     14919     14922     14925     14926
     14919     14922     14925     14927     14919     14922     14925     14928
     14920     14919     14922     14923     14920     14919     14922     14924
     14920     14919     14922     14925     14921     14919     14922     14923
     14921     14919     14922     14924     14921     14919     14922     14925
     14922     14925     14928     14929     14922     14925     14928     14930
     14922     14925     14928     14931     14923     14922     14925     14926
     14923     14922     14925     14927     14923     14922     14925     14928
     14924     14922     14925     14926     14924     14922     14925     14927
     14924     14922     14925     14928     14925     14928     14931     14932
     14925     14928     14931     14933     14925     14928     14931     14934
     14926     14925     14928     14929     14926     14925     14928     14930
     14926     14925     14928     14931     14927     14925     14928     14929
     14927     14925     14928     14930     14927     14925     14928     14931
     14928     14931     14934     14935     14928     14931     14934     14936
     14928     14931     14934     14937     14929     14928     14931     14932
     14929     14928     14931     14933     14929     14928     14931     14934
     14930     14928     14931     14932     14930     14928     14931     14933
     14930     14928     14931     14934     14931     14934     14937     14938
     14931     14934     14937     14939     14932     14931     14934     14935
     14932     14931     14934     14936     14932     14931     14934     14937
     14933     14931     14934     14935     14933     14931     14934     14936
     14933     14931     14934     14937     14934     14937     14939     14940
     14934     14937     14939     14941     14935     14934     14937     14938
     14935     14934     14937     14939     14936     14934     14937     14938
     14936     14934     14937     14939     14937     14939     14941     14942
     14937     14939     14941     14943     14937     14939     14941     14944
     14938     14937     14939     14940     14938     14937     14939     14941
     14939     14941     14944     14945     14939     14941     14944     14946
     14939     14941     14944     14947     14940     14939     14941     14942
     14940     14939     14941     14943     14940     14939     14941     14944
     14941     14944     14947     14948     14941     14944     14947     14949
     14941     14944     14947     14950     14942     14941     14944     14945
     14942     14941     14944     14946     14942     14941     14944     14947
     14943     14941     14944     14945     14943     14941     14944     14946
     14943     14941     14944     14947     14944     14947     14950     14951
     14944     14947     14950     14952     14944     14947     14950     14953
     14945     14944     14947     14948     14945     14944     14947     14949
     14945     14944     14947     14950     14946     14944     14947     14948
     14946     14944     14947     14949     14946     14944     14947     14950
     14947     14950     14953     14954     14947     14950     14953     14955
     14947     14950     14953     14956     14948     14947     14950     14951
     14948     14947     14950     14952     14948     14947     14950     14953
     14949     14947     14950     14951     14949     14947     14950     14952
     14949     14947     14950     14953     14950     14953     14956     14957
     14950     14953     14956     14958     14950     14953     14956     14959
     14951     14950     14953     14954     14951     14950     14953     14955
     14951     14950     14953     14956     14952     14950     14953     14954
     14952     14950     14953     14955     14952     14950     14953     14956
     14953     14956     14959     14960     14953     14956     14959     14961
     14953     14956     14959     14962     14954     14953     14956     14957
     14954     14953     14956     14958     14954     14953     14956     14959
     14955     14953     14956     14957     14955     14953     14956     14958
     14955     14953     14956     14959     14956     14959     14962     14963
     14956     14959     14962     14964     14956     14959     14962     14965
     14957     14956     14959     14960     14957     14956     14959     14961
     14957     14956     14959     14962     14958     14956     14959     14960
     14958     14956     14959     14961     14958     14956     14959     14962
     14960     14959     14962     14963     14960     14959     14962     14964
     14960     14959     14962     14965     14961     14959     14962     14963
     14961     14959     14962     14964     14961     14959     14962     14965
     14966     14969     14972     14973     14966     14969     14972     14974
     14966     14969     14972     14975     14967     14966     14969     14970
     14967     14966     14969     14971     14967     14966     14969     14972
     14968     14966     14969     14970     14968     14966     14969     14971
     14968     14966     14969     14972     14969     14972     14975     14976
     14969     14972     14975     14977     14969     14972     14975     14978
     14970     14969     14972     14973     14970     14969     14972     14974
     14970     14969     14972     14975     14971     14969     14972     14973
     14971     14969     14972     14974     14971     14969     14972     14975
     14972     14975     14978     14979     14972     14975     14978     14980
     14972     14975     14978     14981     14973     14972     14975     14976
     14973     14972     14975     14977     14973     14972     14975     14978
     14974     14972     14975     14976     14974     14972     14975     14977
     14974     14972     14975     14978     14975     14978     14981     14982
     14975     14978     14981     14983     14975     14978     14981     14984
     14976     14975     14978     14979     14976     14975     14978     14980
     14976     14975     14978     14981     14977     14975     14978     14979
     14977     14975     14978     14980     14977     14975     14978     14981
     14978     14981     14984     14985     14978     14981     14984     14986
     14978     14981     14984     14987     14979     14978     14981     14982
     14979     14978     14981     14983     14979     14978     14981     14984
     14980     14978     14981     14982     14980     14978     14981     14983
     14980     14978     14981     14984     14981     14984     14987     14988
     14981     14984     14987     14989     14981     14984     14987     14990
     14982     14981     14984     14985     14982     14981     14984     14986
     14982     14981     14984     14987     14983     14981     14984     14985
     14983     14981     14984     14986     14983     14981     14984     14987
     14984     14987     14990     14991     14984     14987     14990     14992
     14984     14987     14990     14993     14985     14984     14987     14988
     14985     14984     14987     14989     14985     14984     14987     14990
     14986     14984     14987     14988     14986     14984     14987     14989
     14986     14984     14987     14990     14987     14990     14993     14994
     14987     14990     14993     14995     14987     14990     14993     14996
     14988     14987     14990     14991     14988     14987     14990     14992
     14988     14987     14990     14993     14989     14987     14990     14991
     14989     14987     14990     14992     14989     14987     14990     14993
     14990     14993     14996     14997     14990     14993     14996     14998
     14990     14993     14996     14999     14991     14990     14993     14994
     14991     14990     14993     14995     14991     14990     14993     14996
     14992     14990     14993     14994     14992     14990     14993     14995
     14992     14990     14993     14996     14993     14996     14999     15000
     14993     14996     14999     15001     14993     14996     14999     15002
     14994     14993     14996     14997     14994     14993     14996     14998
     14994     14993     14996     14999     14995     14993     14996     14997
     14995     14993     14996     14998     14995     14993     14996     14999
     14996     14999     15002     15003     14996     14999     15002     15004
     14996     14999     15002     15005     14997     14996     14999     15000
     14997     14996     14999     15001     14997     14996     14999     15002
     14998     14996     14999     15000     14998     14996     14999     15001
     14998     14996     14999     15002     14999     15002     15005     15006
     14999     15002     15005     15007     14999     15002     15005     15008
     15000     14999     15002     15003     15000     14999     15002     15004
     15000     14999     15002     15005     15001     14999     15002     15003
     15001     14999     15002     15004     15001     14999     15002     15005
     15003     15002     15005     15006     15003     15002     15005     15007
     15003     15002     15005     15008     15004     15002     15005     15006
     15004     15002     15005     15007     15004     15002     15005     15008
     15009     15010     15025     15026     15009     15010     15025     15027
     15009     15010     15025     15031     15010     15009     15013     15014
     15010     15009     15013     15015     15010     15009     15013     15016
     15010     15009     15017     15018     15010     15009     15017     15019
     15010     15009     15017     15020     15010     15009     15021     15022
     15010     15009     15021     15023     15010     15009     15021     15024
     15010     15025     15031     15028     15011     15010     15009     15013
     15011     15010     15009     15017     15011     15010     15009     15021
     15011     15010     15025     15026     15011     15010     15025     15027
     15011     15010     15025     15031     15012     15010     15009     15013
     15012     15010     15009     15017     15012     15010     15009     15021
     15012     15010     15025     15026     15012     15010     15025     15027
     15012     15010     15025     15031     15013     15009     15010     15025
     15013     15009     15017     15018     15013     15009     15017     15019
     15013     15009     15017     15020     15013     15009     15021     15022
     15013     15009     15021     15023     15013     15009     15021     15024
     15014     15013     15009     15017     15014     15013     15009     15021
     15015     15013     15009     15017     15015     15013     15009     15021
     15016     15013     15009     15017     15016     15013     15009     15021
     15017     15009     15010     15025     15017     15009     15021     15022
     15017     15009     15021     15023     15017     15009     15021     15024
     15018     15017     15009     15021     15019     15017     15009     15021
     15020     15017     15009     15021     15021     15009     15010     15025
     15025     15031     15028     15029     15025     15031     15028     15030
     15025     15031     15028     15032     15026     15025     15031     15028
     15027     15025     15031     15028     15028     15032     15033     15034
     15028     15032     15033     15035     15028     15032     15033     15036
     15029     15028     15032     15033     15030     15028     15032     15033
     15031     15028     15032     15033     15032     15033     15036     15037
     15032     15033     15036     15038     15032     15033     15036     15044
     15033     15036     15038     15039     15033     15036     15044     15045
     15033     15036     15044     15046     15033     15036     15044     15047
     15034     15033     15036     15037     15034     15033     15036     15038
     15034     15033     15036     15044     15035     15033     15036     15037
     15035     15033     15036     15038     15035     15033     15036     15044
     15036     15038     15039     15040     15036     15038     15039     15041
     15036     15044     15047     15048     15037     15036     15038     15039
     15037     15036     15044     15045     15037     15036     15044     15046
     15037     15036     15044     15047     15038     15036     15044     15045
     15038     15036     15044     15046     15038     15036     15044     15047
     15038     15039     15041     15042     15038     15039     15041     15043
     15038     15039     15041     15053     15039     15038     15036     15044
     15039     15041     15053     15054     15039     15041     15053     15055
     15039     15041     15053     15056     15040     15039     15041     15042
     15040     15039     15041     15043     15040     15039     15041     15053
     15041     15053     15056     15057     15041     15053     15056     15058
     15041     15053     15056     15059     15042     15041     15053     15054
     15042     15041     15053     15055     15042     15041     15053     15056
     15043     15041     15053     15054     15043     15041     15053     15055
     15043     15041     15053     15056     15044     15047     15048     15049
     15044     15047     15048     15050     15045     15044     15047     15048
     15046     15044     15047     15048     15047     15048     15050     15051
     15047     15048     15050     15052     15047     15048     15050     15100
     15048     15050     15100     15101     15048     15050     15100     15102
     15048     15050     15100     15103     15049     15048     15050     15051
     15049     15048     15050     15052     15049     15048     15050     15100
     15050     15100     15103     15104     15050     15100     15103     15105
     15050     15100     15103     15106     15051     15050     15100     15101
     15051     15050     15100     15102     15051     15050     15100     15103
     15052     15050     15100     15101     15052     15050     15100     15102
     15052     15050     15100     15103     15053     15056     15059     15060
     15053     15056     15059     15061     15053     15056     15059     15062
     15054     15053     15056     15057     15054     15053     15056     15058
     15054     15053     15056     15059     15055     15053     15056     15057
     15055     15053     15056     15058     15055     15053     15056     15059
     15056     15059     15062     15063     15056     15059     15062     15064
     15056     15059     15062     15065     15057     15056     15059     15060
     15057     15056     15059     15061     15057     15056     15059     15062
     15058     15056     15059     15060     15058     15056     15059     15061
     15058     15056     15059     15062     15059     15062     15065     15066
     15059     15062     15065     15067     15059     15062     15065     15068
     15060     15059     15062     15063     15060     15059     15062     15064
     15060     15059     15062     15065     15061     15059     15062     15063
     15061     15059     15062     15064     15061     15059     15062     15065
     15062     15065     15068     15069     15062     15065     15068     15070
     15062     15065     15068     15071     15063     15062     15065     15066
     15063     15062     15065     15067     15063     15062     15065     15068
     15064     15062     15065     15066     15064     15062     15065     15067
     15064     15062     15065     15068     15065     15068     15071     15072
     15065     15068     15071     15073     15066     15065     15068     15069
     15066     15065     15068     15070     15066     15065     15068     15071
     15067     15065     15068     15069     15067     15065     15068     15070
     15067     15065     15068     15071     15068     15071     15073     15074
     15068     15071     15073     15075     15069     15068     15071     15072
     15069     15068     15071     15073     15070     15068     15071     15072
     15070     15068     15071     15073     15071     15073     15075     15076
     15071     15073     15075     15077     15071     15073     15075     15078
     15072     15071     15073     15074     15072     15071     15073     15075
     15073     15075     15078     15079     15073     15075     15078     15080
     15073     15075     15078     15081     15074     15073     15075     15076
     15074     15073     15075     15077     15074     15073     15075     15078
     15075     15078     15081     15082     15075     15078     15081     15083
     15075     15078     15081     15084     15076     15075     15078     15079
     15076     15075     15078     15080     15076     15075     15078     15081
     15077     15075     15078     15079     15077     15075     15078     15080
     15077     15075     15078     15081     15078     15081     15084     15085
     15078     15081     15084     15086     15078     15081     15084     15087
     15079     15078     15081     15082     15079     15078     15081     15083
     15079     15078     15081     15084     15080     15078     15081     15082
     15080     15078     15081     15083     15080     15078     15081     15084
     15081     15084     15087     15088     15081     15084     15087     15089
     15081     15084     15087     15090     15082     15081     15084     15085
     15082     15081     15084     15086     15082     15081     15084     15087
     15083     15081     15084     15085     15083     15081     15084     15086
     15083     15081     15084     15087     15084     15087     15090     15091
     15084     15087     15090     15092     15084     15087     15090     15093
     15085     15084     15087     15088     15085     15084     15087     15089
     15085     15084     15087     15090     15086     15084     15087     15088
     15086     15084     15087     15089     15086     15084     15087     15090
     15087     15090     15093     15094     15087     15090     15093     15095
     15087     15090     15093     15096     15088     15087     15090     15091
     15088     15087     15090     15092     15088     15087     15090     15093
     15089     15087     15090     15091     15089     15087     15090     15092
     15089     15087     15090     15093     15090     15093     15096     15097
     15090     15093     15096     15098     15090     15093     15096     15099
     15091     15090     15093     15094     15091     15090     15093     15095
     15091     15090     15093     15096     15092     15090     15093     15094
     15092     15090     15093     15095     15092     15090     15093     15096
     15094     15093     15096     15097     15094     15093     15096     15098
     15094     15093     15096     15099     15095     15093     15096     15097
     15095     15093     15096     15098     15095     15093     15096     15099
     15100     15103     15106     15107     15100     15103     15106     15108
     15100     15103     15106     15109     15101     15100     15103     15104
     15101     15100     15103     15105     15101     15100     15103     15106
     15102     15100     15103     15104     15102     15100     15103     15105
     15102     15100     15103     15106     15103     15106     15109     15110
     15103     15106     15109     15111     15103     15106     15109     15112
     15104     15103     15106     15107     15104     15103     15106     15108
     15104     15103     15106     15109     15105     15103     15106     15107
     15105     15103     15106     15108     15105     15103     15106     15109
     15106     15109     15112     15113     15106     15109     15112     15114
     15106     15109     15112     15115     15107     15106     15109     15110
     15107     15106     15109     15111     15107     15106     15109     15112
     15108     15106     15109     15110     15108     15106     15109     15111
     15108     15106     15109     15112     15109     15112     15115     15116
     15109     15112     15115     15117     15109     15112     15115     15118
     15110     15109     15112     15113     15110     15109     15112     15114
     15110     15109     15112     15115     15111     15109     15112     15113
     15111     15109     15112     15114     15111     15109     15112     15115
     15112     15115     15118     15119     15112     15115     15118     15120
     15112     15115     15118     15121     15113     15112     15115     15116
     15113     15112     15115     15117     15113     15112     15115     15118
     15114     15112     15115     15116     15114     15112     15115     15117
     15114     15112     15115     15118     15115     15118     15121     15122
     15115     15118     15121     15123     15115     15118     15121     15124
     15116     15115     15118     15119     15116     15115     15118     15120
     15116     15115     15118     15121     15117     15115     15118     15119
     15117     15115     15118     15120     15117     15115     15118     15121
     15118     15121     15124     15125     15118     15121     15124     15126
     15118     15121     15124     15127     15119     15118     15121     15122
     15119     15118     15121     15123     15119     15118     15121     15124
     15120     15118     15121     15122     15120     15118     15121     15123
     15120     15118     15121     15124     15121     15124     15127     15128
     15121     15124     15127     15129     15121     15124     15127     15130
     15122     15121     15124     15125     15122     15121     15124     15126
     15122     15121     15124     15127     15123     15121     15124     15125
     15123     15121     15124     15126     15123     15121     15124     15127
     15124     15127     15130     15131     15124     15127     15130     15132
     15124     15127     15130     15133     15125     15124     15127     15128
     15125     15124     15127     15129     15125     15124     15127     15130
     15126     15124     15127     15128     15126     15124     15127     15129
     15126     15124     15127     15130     15127     15130     15133     15134
     15127     15130     15133     15135     15127     15130     15133     15136
     15128     15127     15130     15131     15128     15127     15130     15132
     15128     15127     15130     15133     15129     15127     15130     15131
     15129     15127     15130     15132     15129     15127     15130     15133
     15130     15133     15136     15137     15130     15133     15136     15138
     15130     15133     15136     15139     15131     15130     15133     15134
     15131     15130     15133     15135     15131     15130     15133     15136
     15132     15130     15133     15134     15132     15130     15133     15135
     15132     15130     15133     15136     15133     15136     15139     15140
     15133     15136     15139     15141     15133     15136     15139     15142
     15134     15133     15136     15137     15134     15133     15136     15138
     15134     15133     15136     15139     15135     15133     15136     15137
     15135     15133     15136     15138     15135     15133     15136     15139
     15137     15136     15139     15140     15137     15136     15139     15141
     15137     15136     15139     15142     15138     15136     15139     15140
     15138     15136     15139     15141     15138     15136     15139     15142
     15143     15144     15159     15160     15143     15144     15159     15161
     15143     15144     15159     15165     15144     15143     15147     15148
     15144     15143     15147     15149     15144     15143     15147     15150
     15144     15143     15151     15152     15144     15143     15151     15153
     15144     15143     15151     15154     15144     15143     15155     15156
     15144     15143     15155     15157     15144     15143     15155     15158
     15144     15159     15165     15162     15145     15144     15143     15147
     15145     15144     15143     15151     15145     15144     15143     15155
     15145     15144     15159     15160     15145     15144     15159     15161
     15145     15144     15159     15165     15146     15144     15143     15147
     15146     15144     15143     15151     15146     15144     15143     15155
     15146     15144     15159     15160     15146     15144     15159     15161
     15146     15144     15159     15165     15147     15143     15144     15159
     15147     15143     15151     15152     15147     15143     15151     15153
     15147     15143     15151     15154     15147     15143     15155     15156
     15147     15143     15155     15157     15147     15143     15155     15158
     15148     15147     15143     15151     15148     15147     15143     15155
     15149     15147     15143     15151     15149     15147     15143     15155
     15150     15147     15143     15151     15150     15147     15143     15155
     15151     15143     15144     15159     15151     15143     15155     15156
     15151     15143     15155     15157     15151     15143     15155     15158
     15152     15151     15143     15155     15153     15151     15143     15155
     15154     15151     15143     15155     15155     15143     15144     15159
     15159     15165     15162     15163     15159     15165     15162     15164
     15159     15165     15162     15166     15160     15159     15165     15162
     15161     15159     15165     15162     15162     15166     15167     15168
     15162     15166     15167     15169     15162     15166     15167     15170
     15163     15162     15166     15167     15164     15162     15166     15167
     15165     15162     15166     15167     15166     15167     15170     15171
     15166     15167     15170     15172     15166     15167     15170     15178
     15167     15170     15172     15173     15167     15170     15178     15179
     15167     15170     15178     15180     15167     15170     15178     15181
     15168     15167     15170     15171     15168     15167     15170     15172
     15168     15167     15170     15178     15169     15167     15170     15171
     15169     15167     15170     15172     15169     15167     15170     15178
     15170     15172     15173     15174     15170     15172     15173     15175
     15170     15178     15181     15182     15171     15170     15172     15173
     15171     15170     15178     15179     15171     15170     15178     15180
     15171     15170     15178     15181     15172     15170     15178     15179
     15172     15170     15178     15180     15172     15170     15178     15181
     15172     15173     15175     15176     15172     15173     15175     15177
     15172     15173     15175     15187     15173     15172     15170     15178
     15173     15175     15187     15188     15173     15175     15187     15189
     15173     15175     15187     15190     15174     15173     15175     15176
     15174     15173     15175     15177     15174     15173     15175     15187
     15175     15187     15190     15191     15175     15187     15190     15192
     15175     15187     15190     15193     15176     15175     15187     15188
     15176     15175     15187     15189     15176     15175     15187     15190
     15177     15175     15187     15188     15177     15175     15187     15189
     15177     15175     15187     15190     15178     15181     15182     15183
     15178     15181     15182     15184     15179     15178     15181     15182
     15180     15178     15181     15182     15181     15182     15184     15185
     15181     15182     15184     15186     15181     15182     15184     15234
     15182     15184     15234     15235     15182     15184     15234     15236
     15182     15184     15234     15237     15183     15182     15184     15185
     15183     15182     15184     15186     15183     15182     15184     15234
     15184     15234     15237     15238     15184     15234     15237     15239
     15184     15234     15237     15240     15185     15184     15234     15235
     15185     15184     15234     15236     15185     15184     15234     15237
     15186     15184     15234     15235     15186     15184     15234     15236
     15186     15184     15234     15237     15187     15190     15193     15194
     15187     15190     15193     15195     15187     15190     15193     15196
     15188     15187     15190     15191     15188     15187     15190     15192
     15188     15187     15190     15193     15189     15187     15190     15191
     15189     15187     15190     15192     15189     15187     15190     15193
     15190     15193     15196     15197     15190     15193     15196     15198
     15190     15193     15196     15199     15191     15190     15193     15194
     15191     15190     15193     15195     15191     15190     15193     15196
     15192     15190     15193     15194     15192     15190     15193     15195
     15192     15190     15193     15196     15193     15196     15199     15200
     15193     15196     15199     15201     15193     15196     15199     15202
     15194     15193     15196     15197     15194     15193     15196     15198
     15194     15193     15196     15199     15195     15193     15196     15197
     15195     15193     15196     15198     15195     15193     15196     15199
     15196     15199     15202     15203     15196     15199     15202     15204
     15196     15199     15202     15205     15197     15196     15199     15200
     15197     15196     15199     15201     15197     15196     15199     15202
     15198     15196     15199     15200     15198     15196     15199     15201
     15198     15196     15199     15202     15199     15202     15205     15206
     15199     15202     15205     15207     15200     15199     15202     15203
     15200     15199     15202     15204     15200     15199     15202     15205
     15201     15199     15202     15203     15201     15199     15202     15204
     15201     15199     15202     15205     15202     15205     15207     15208
     15202     15205     15207     15209     15203     15202     15205     15206
     15203     15202     15205     15207     15204     15202     15205     15206
     15204     15202     15205     15207     15205     15207     15209     15210
     15205     15207     15209     15211     15205     15207     15209     15212
     15206     15205     15207     15208     15206     15205     15207     15209
     15207     15209     15212     15213     15207     15209     15212     15214
     15207     15209     15212     15215     15208     15207     15209     15210
     15208     15207     15209     15211     15208     15207     15209     15212
     15209     15212     15215     15216     15209     15212     15215     15217
     15209     15212     15215     15218     15210     15209     15212     15213
     15210     15209     15212     15214     15210     15209     15212     15215
     15211     15209     15212     15213     15211     15209     15212     15214
     15211     15209     15212     15215     15212     15215     15218     15219
     15212     15215     15218     15220     15212     15215     15218     15221
     15213     15212     15215     15216     15213     15212     15215     15217
     15213     15212     15215     15218     15214     15212     15215     15216
     15214     15212     15215     15217     15214     15212     15215     15218
     15215     15218     15221     15222     15215     15218     15221     15223
     15215     15218     15221     15224     15216     15215     15218     15219
     15216     15215     15218     15220     15216     15215     15218     15221
     15217     15215     15218     15219     15217     15215     15218     15220
     15217     15215     15218     15221     15218     15221     15224     15225
     15218     15221     15224     15226     15218     15221     15224     15227
     15219     15218     15221     15222     15219     15218     15221     15223
     15219     15218     15221     15224     15220     15218     15221     15222
     15220     15218     15221     15223     15220     15218     15221     15224
     15221     15224     15227     15228     15221     15224     15227     15229
     15221     15224     15227     15230     15222     15221     15224     15225
     15222     15221     15224     15226     15222     15221     15224     15227
     15223     15221     15224     15225     15223     15221     15224     15226
     15223     15221     15224     15227     15224     15227     15230     15231
     15224     15227     15230     15232     15224     15227     15230     15233
     15225     15224     15227     15228     15225     15224     15227     15229
     15225     15224     15227     15230     15226     15224     15227     15228
     15226     15224     15227     15229     15226     15224     15227     15230
     15228     15227     15230     15231     15228     15227     15230     15232
     15228     15227     15230     15233     15229     15227     15230     15231
     15229     15227     15230     15232     15229     15227     15230     15233
     15234     15237     15240     15241     15234     15237     15240     15242
     15234     15237     15240     15243     15235     15234     15237     15238
     15235     15234     15237     15239     15235     15234     15237     15240
     15236     15234     15237     15238     15236     15234     15237     15239
     15236     15234     15237     15240     15237     15240     15243     15244
     15237     15240     15243     15245     15237     15240     15243     15246
     15238     15237     15240     15241     15238     15237     15240     15242
     15238     15237     15240     15243     15239     15237     15240     15241
     15239     15237     15240     15242     15239     15237     15240     15243
     15240     15243     15246     15247     15240     15243     15246     15248
     15240     15243     15246     15249     15241     15240     15243     15244
     15241     15240     15243     15245     15241     15240     15243     15246
     15242     15240     15243     15244     15242     15240     15243     15245
     15242     15240     15243     15246     15243     15246     15249     15250
     15243     15246     15249     15251     15243     15246     15249     15252
     15244     15243     15246     15247     15244     15243     15246     15248
     15244     15243     15246     15249     15245     15243     15246     15247
     15245     15243     15246     15248     15245     15243     15246     15249
     15246     15249     15252     15253     15246     15249     15252     15254
     15246     15249     15252     15255     15247     15246     15249     15250
     15247     15246     15249     15251     15247     15246     15249     15252
     15248     15246     15249     15250     15248     15246     15249     15251
     15248     15246     15249     15252     15249     15252     15255     15256
     15249     15252     15255     15257     15249     15252     15255     15258
     15250     15249     15252     15253     15250     15249     15252     15254
     15250     15249     15252     15255     15251     15249     15252     15253
     15251     15249     15252     15254     15251     15249     15252     15255
     15252     15255     15258     15259     15252     15255     15258     15260
     15252     15255     15258     15261     15253     15252     15255     15256
     15253     15252     15255     15257     15253     15252     15255     15258
     15254     15252     15255     15256     15254     15252     15255     15257
     15254     15252     15255     15258     15255     15258     15261     15262
     15255     15258     15261     15263     15255     15258     15261     15264
     15256     15255     15258     15259     15256     15255     15258     15260
     15256     15255     15258     15261     15257     15255     15258     15259
     15257     15255     15258     15260     15257     15255     15258     15261
     15258     15261     15264     15265     15258     15261     15264     15266
     15258     15261     15264     15267     15259     15258     15261     15262
     15259     15258     15261     15263     15259     15258     15261     15264
     15260     15258     15261     15262     15260     15258     15261     15263
     15260     15258     15261     15264     15261     15264     15267     15268
     15261     15264     15267     15269     15261     15264     15267     15270
     15262     15261     15264     15265     15262     15261     15264     15266
     15262     15261     15264     15267     15263     15261     15264     15265
     15263     15261     15264     15266     15263     15261     15264     15267
     15264     15267     15270     15271     15264     15267     15270     15272
     15264     15267     15270     15273     15265     15264     15267     15268
     15265     15264     15267     15269     15265     15264     15267     15270
     15266     15264     15267     15268     15266     15264     15267     15269
     15266     15264     15267     15270     15267     15270     15273     15274
     15267     15270     15273     15275     15267     15270     15273     15276
     15268     15267     15270     15271     15268     15267     15270     15272
     15268     15267     15270     15273     15269     15267     15270     15271
     15269     15267     15270     15272     15269     15267     15270     15273
     15271     15270     15273     15274     15271     15270     15273     15275
     15271     15270     15273     15276     15272     15270     15273     15274
     15272     15270     15273     15275     15272     15270     15273     15276
     15277     15278     15293     15294     15277     15278     15293     15295
     15277     15278     15293     15299     15278     15277     15281     15282
     15278     15277     15281     15283     15278     15277     15281     15284
     15278     15277     15285     15286     15278     15277     15285     15287
     15278     15277     15285     15288     15278     15277     15289     15290
     15278     15277     15289     15291     15278     15277     15289     15292
     15278     15293     15299     15296     15279     15278     15277     15281
     15279     15278     15277     15285     15279     15278     15277     15289
     15279     15278     15293     15294     15279     15278     15293     15295
     15279     15278     15293     15299     15280     15278     15277     15281
     15280     15278     15277     15285     15280     15278     15277     15289
     15280     15278     15293     15294     15280     15278     15293     15295
     15280     15278     15293     15299     15281     15277     15278     15293
     15281     15277     15285     15286     15281     15277     15285     15287
     15281     15277     15285     15288     15281     15277     15289     15290
     15281     15277     15289     15291     15281     15277     15289     15292
     15282     15281     15277     15285     15282     15281     15277     15289
     15283     15281     15277     15285     15283     15281     15277     15289
     15284     15281     15277     15285     15284     15281     15277     15289
     15285     15277     15278     15293     15285     15277     15289     15290
     15285     15277     15289     15291     15285     15277     15289     15292
     15286     15285     15277     15289     15287     15285     15277     15289
     15288     15285     15277     15289     15289     15277     15278     15293
     15293     15299     15296     15297     15293     15299     15296     15298
     15293     15299     15296     15300     15294     15293     15299     15296
     15295     15293     15299     15296     15296     15300     15301     15302
     15296     15300     15301     15303     15296     15300     15301     15304
     15297     15296     15300     15301     15298     15296     15300     15301
     15299     15296     15300     15301     15300     15301     15304     15305
     15300     15301     15304     15306     15300     15301     15304     15312
     15301     15304     15306     15307     15301     15304     15312     15313
     15301     15304     15312     15314     15301     15304     15312     15315
     15302     15301     15304     15305     15302     15301     15304     15306
     15302     15301     15304     15312     15303     15301     15304     15305
     15303     15301     15304     15306     15303     15301     15304     15312
     15304     15306     15307     15308     15304     15306     15307     15309
     15304     15312     15315     15316     15305     15304     15306     15307
     15305     15304     15312     15313     15305     15304     15312     15314
     15305     15304     15312     15315     15306     15304     15312     15313
     15306     15304     15312     15314     15306     15304     15312     15315
     15306     15307     15309     15310     15306     15307     15309     15311
     15306     15307     15309     15321     15307     15306     15304     15312
     15307     15309     15321     15322     15307     15309     15321     15323
     15307     15309     15321     15324     15308     15307     15309     15310
     15308     15307     15309     15311     15308     15307     15309     15321
     15309     15321     15324     15325     15309     15321     15324     15326
     15309     15321     15324     15327     15310     15309     15321     15322
     15310     15309     15321     15323     15310     15309     15321     15324
     15311     15309     15321     15322     15311     15309     15321     15323
     15311     15309     15321     15324     15312     15315     15316     15317
     15312     15315     15316     15318     15313     15312     15315     15316
     15314     15312     15315     15316     15315     15316     15318     15319
     15315     15316     15318     15320     15315     15316     15318     15368
     15316     15318     15368     15369     15316     15318     15368     15370
     15316     15318     15368     15371     15317     15316     15318     15319
     15317     15316     15318     15320     15317     15316     15318     15368
     15318     15368     15371     15372     15318     15368     15371     15373
     15318     15368     15371     15374     15319     15318     15368     15369
     15319     15318     15368     15370     15319     15318     15368     15371
     15320     15318     15368     15369     15320     15318     15368     15370
     15320     15318     15368     15371     15321     15324     15327     15328
     15321     15324     15327     15329     15321     15324     15327     15330
     15322     15321     15324     15325     15322     15321     15324     15326
     15322     15321     15324     15327     15323     15321     15324     15325
     15323     15321     15324     15326     15323     15321     15324     15327
     15324     15327     15330     15331     15324     15327     15330     15332
     15324     15327     15330     15333     15325     15324     15327     15328
     15325     15324     15327     15329     15325     15324     15327     15330
     15326     15324     15327     15328     15326     15324     15327     15329
     15326     15324     15327     15330     15327     15330     15333     15334
     15327     15330     15333     15335     15327     15330     15333     15336
     15328     15327     15330     15331     15328     15327     15330     15332
     15328     15327     15330     15333     15329     15327     15330     15331
     15329     15327     15330     15332     15329     15327     15330     15333
     15330     15333     15336     15337     15330     15333     15336     15338
     15330     15333     15336     15339     15331     15330     15333     15334
     15331     15330     15333     15335     15331     15330     15333     15336
     15332     15330     15333     15334     15332     15330     15333     15335
     15332     15330     15333     15336     15333     15336     15339     15340
     15333     15336     15339     15341     15334     15333     15336     15337
     15334     15333     15336     15338     15334     15333     15336     15339
     15335     15333     15336     15337     15335     15333     15336     15338
     15335     15333     15336     15339     15336     15339     15341     15342
     15336     15339     15341     15343     15337     15336     15339     15340
     15337     15336     15339     15341     15338     15336     15339     15340
     15338     15336     15339     15341     15339     15341     15343     15344
     15339     15341     15343     15345     15339     15341     15343     15346
     15340     15339     15341     15342     15340     15339     15341     15343
     15341     15343     15346     15347     15341     15343     15346     15348
     15341     15343     15346     15349     15342     15341     15343     15344
     15342     15341     15343     15345     15342     15341     15343     15346
     15343     15346     15349     15350     15343     15346     15349     15351
     15343     15346     15349     15352     15344     15343     15346     15347
     15344     15343     15346     15348     15344     15343     15346     15349
     15345     15343     15346     15347     15345     15343     15346     15348
     15345     15343     15346     15349     15346     15349     15352     15353
     15346     15349     15352     15354     15346     15349     15352     15355
     15347     15346     15349     15350     15347     15346     15349     15351
     15347     15346     15349     15352     15348     15346     15349     15350
     15348     15346     15349     15351     15348     15346     15349     15352
     15349     15352     15355     15356     15349     15352     15355     15357
     15349     15352     15355     15358     15350     15349     15352     15353
     15350     15349     15352     15354     15350     15349     15352     15355
     15351     15349     15352     15353     15351     15349     15352     15354
     15351     15349     15352     15355     15352     15355     15358     15359
     15352     15355     15358     15360     15352     15355     15358     15361
     15353     15352     15355     15356     15353     15352     15355     15357
     15353     15352     15355     15358     15354     15352     15355     15356
     15354     15352     15355     15357     15354     15352     15355     15358
     15355     15358     15361     15362     15355     15358     15361     15363
     15355     15358     15361     15364     15356     15355     15358     15359
     15356     15355     15358     15360     15356     15355     15358     15361
     15357     15355     15358     15359     15357     15355     15358     15360
     15357     15355     15358     15361     15358     15361     15364     15365
     15358     15361     15364     15366     15358     15361     15364     15367
     15359     15358     15361     15362     15359     15358     15361     15363
     15359     15358     15361     15364     15360     15358     15361     15362
     15360     15358     15361     15363     15360     15358     15361     15364
     15362     15361     15364     15365     15362     15361     15364     15366
     15362     15361     15364     15367     15363     15361     15364     15365
     15363     15361     15364     15366     15363     15361     15364     15367
     15368     15371     15374     15375     15368     15371     15374     15376
     15368     15371     15374     15377     15369     15368     15371     15372
     15369     15368     15371     15373     15369     15368     15371     15374
     15370     15368     15371     15372     15370     15368     15371     15373
     15370     15368     15371     15374     15371     15374     15377     15378
     15371     15374     15377     15379     15371     15374     15377     15380
     15372     15371     15374     15375     15372     15371     15374     15376
     15372     15371     15374     15377     15373     15371     15374     15375
     15373     15371     15374     15376     15373     15371     15374     15377
     15374     15377     15380     15381     15374     15377     15380     15382
     15374     15377     15380     15383     15375     15374     15377     15378
     15375     15374     15377     15379     15375     15374     15377     15380
     15376     15374     15377     15378     15376     15374     15377     15379
     15376     15374     15377     15380     15377     15380     15383     15384
     15377     15380     15383     15385     15377     15380     15383     15386
     15378     15377     15380     15381     15378     15377     15380     15382
     15378     15377     15380     15383     15379     15377     15380     15381
     15379     15377     15380     15382     15379     15377     15380     15383
     15380     15383     15386     15387     15380     15383     15386     15388
     15380     15383     15386     15389     15381     15380     15383     15384
     15381     15380     15383     15385     15381     15380     15383     15386
     15382     15380     15383     15384     15382     15380     15383     15385
     15382     15380     15383     15386     15383     15386     15389     15390
     15383     15386     15389     15391     15383     15386     15389     15392
     15384     15383     15386     15387     15384     15383     15386     15388
     15384     15383     15386     15389     15385     15383     15386     15387
     15385     15383     15386     15388     15385     15383     15386     15389
     15386     15389     15392     15393     15386     15389     15392     15394
     15386     15389     15392     15395     15387     15386     15389     15390
     15387     15386     15389     15391     15387     15386     15389     15392
     15388     15386     15389     15390     15388     15386     15389     15391
     15388     15386     15389     15392     15389     15392     15395     15396
     15389     15392     15395     15397     15389     15392     15395     15398
     15390     15389     15392     15393     15390     15389     15392     15394
     15390     15389     15392     15395     15391     15389     15392     15393
     15391     15389     15392     15394     15391     15389     15392     15395
     15392     15395     15398     15399     15392     15395     15398     15400
     15392     15395     15398     15401     15393     15392     15395     15396
     15393     15392     15395     15397     15393     15392     15395     15398
     15394     15392     15395     15396     15394     15392     15395     15397
     15394     15392     15395     15398     15395     15398     15401     15402
     15395     15398     15401     15403     15395     15398     15401     15404
     15396     15395     15398     15399     15396     15395     15398     15400
     15396     15395     15398     15401     15397     15395     15398     15399
     15397     15395     15398     15400     15397     15395     15398     15401
     15398     15401     15404     15405     15398     15401     15404     15406
     15398     15401     15404     15407     15399     15398     15401     15402
     15399     15398     15401     15403     15399     15398     15401     15404
     15400     15398     15401     15402     15400     15398     15401     15403
     15400     15398     15401     15404     15401     15404     15407     15408
     15401     15404     15407     15409     15401     15404     15407     15410
     15402     15401     15404     15405     15402     15401     15404     15406
     15402     15401     15404     15407     15403     15401     15404     15405
     15403     15401     15404     15406     15403     15401     15404     15407
     15405     15404     15407     15408     15405     15404     15407     15409
     15405     15404     15407     15410     15406     15404     15407     15408
     15406     15404     15407     15409     15406     15404     15407     15410
     15411     15412     15427     15428     15411     15412     15427     15429
     15411     15412     15427     15433     15412     15411     15415     15416
     15412     15411     15415     15417     15412     15411     15415     15418
     15412     15411     15419     15420     15412     15411     15419     15421
     15412     15411     15419     15422     15412     15411     15423     15424
     15412     15411     15423     15425     15412     15411     15423     15426
     15412     15427     15433     15430     15413     15412     15411     15415
     15413     15412     15411     15419     15413     15412     15411     15423
     15413     15412     15427     15428     15413     15412     15427     15429
     15413     15412     15427     15433     15414     15412     15411     15415
     15414     15412     15411     15419     15414     15412     15411     15423
     15414     15412     15427     15428     15414     15412     15427     15429
     15414     15412     15427     15433     15415     15411     15412     15427
     15415     15411     15419     15420     15415     15411     15419     15421
     15415     15411     15419     15422     15415     15411     15423     15424
     15415     15411     15423     15425     15415     15411     15423     15426
     15416     15415     15411     15419     15416     15415     15411     15423
     15417     15415     15411     15419     15417     15415     15411     15423
     15418     15415     15411     15419     15418     15415     15411     15423
     15419     15411     15412     15427     15419     15411     15423     15424
     15419     15411     15423     15425     15419     15411     15423     15426
     15420     15419     15411     15423     15421     15419     15411     15423
     15422     15419     15411     15423     15423     15411     15412     15427
     15427     15433     15430     15431     15427     15433     15430     15432
     15427     15433     15430     15434     15428     15427     15433     15430
     15429     15427     15433     15430     15430     15434     15435     15436
     15430     15434     15435     15437     15430     15434     15435     15438
     15431     15430     15434     15435     15432     15430     15434     15435
     15433     15430     15434     15435     15434     15435     15438     15439
     15434     15435     15438     15440     15434     15435     15438     15446
     15435     15438     15440     15441     15435     15438     15446     15447
     15435     15438     15446     15448     15435     15438     15446     15449
     15436     15435     15438     15439     15436     15435     15438     15440
     15436     15435     15438     15446     15437     15435     15438     15439
     15437     15435     15438     15440     15437     15435     15438     15446
     15438     15440     15441     15442     15438     15440     15441     15443
     15438     15446     15449     15450     15439     15438     15440     15441
     15439     15438     15446     15447     15439     15438     15446     15448
     15439     15438     15446     15449     15440     15438     15446     15447
     15440     15438     15446     15448     15440     15438     15446     15449
     15440     15441     15443     15444     15440     15441     15443     15445
     15440     15441     15443     15455     15441     15440     15438     15446
     15441     15443     15455     15456     15441     15443     15455     15457
     15441     15443     15455     15458     15442     15441     15443     15444
     15442     15441     15443     15445     15442     15441     15443     15455
     15443     15455     15458     15459     15443     15455     15458     15460
     15443     15455     15458     15461     15444     15443     15455     15456
     15444     15443     15455     15457     15444     15443     15455     15458
     15445     15443     15455     15456     15445     15443     15455     15457
     15445     15443     15455     15458     15446     15449     15450     15451
     15446     15449     15450     15452     15447     15446     15449     15450
     15448     15446     15449     15450     15449     15450     15452     15453
     15449     15450     15452     15454     15449     15450     15452     15502
     15450     15452     15502     15503     15450     15452     15502     15504
     15450     15452     15502     15505     15451     15450     15452     15453
     15451     15450     15452     15454     15451     15450     15452     15502
     15452     15502     15505     15506     15452     15502     15505     15507
     15452     15502     15505     15508     15453     15452     15502     15503
     15453     15452     15502     15504     15453     15452     15502     15505
     15454     15452     15502     15503     15454     15452     15502     15504
     15454     15452     15502     15505     15455     15458     15461     15462
     15455     15458     15461     15463     15455     15458     15461     15464
     15456     15455     15458     15459     15456     15455     15458     15460
     15456     15455     15458     15461     15457     15455     15458     15459
     15457     15455     15458     15460     15457     15455     15458     15461
     15458     15461     15464     15465     15458     15461     15464     15466
     15458     15461     15464     15467     15459     15458     15461     15462
     15459     15458     15461     15463     15459     15458     15461     15464
     15460     15458     15461     15462     15460     15458     15461     15463
     15460     15458     15461     15464     15461     15464     15467     15468
     15461     15464     15467     15469     15461     15464     15467     15470
     15462     15461     15464     15465     15462     15461     15464     15466
     15462     15461     15464     15467     15463     15461     15464     15465
     15463     15461     15464     15466     15463     15461     15464     15467
     15464     15467     15470     15471     15464     15467     15470     15472
     15464     15467     15470     15473     15465     15464     15467     15468
     15465     15464     15467     15469     15465     15464     15467     15470
     15466     15464     15467     15468     15466     15464     15467     15469
     15466     15464     15467     15470     15467     15470     15473     15474
     15467     15470     15473     15475     15468     15467     15470     15471
     15468     15467     15470     15472     15468     15467     15470     15473
     15469     15467     15470     15471     15469     15467     15470     15472
     15469     15467     15470     15473     15470     15473     15475     15476
     15470     15473     15475     15477     15471     15470     15473     15474
     15471     15470     15473     15475     15472     15470     15473     15474
     15472     15470     15473     15475     15473     15475     15477     15478
     15473     15475     15477     15479     15473     15475     15477     15480
     15474     15473     15475     15476     15474     15473     15475     15477
     15475     15477     15480     15481     15475     15477     15480     15482
     15475     15477     15480     15483     15476     15475     15477     15478
     15476     15475     15477     15479     15476     15475     15477     15480
     15477     15480     15483     15484     15477     15480     15483     15485
     15477     15480     15483     15486     15478     15477     15480     15481
     15478     15477     15480     15482     15478     15477     15480     15483
     15479     15477     15480     15481     15479     15477     15480     15482
     15479     15477     15480     15483     15480     15483     15486     15487
     15480     15483     15486     15488     15480     15483     15486     15489
     15481     15480     15483     15484     15481     15480     15483     15485
     15481     15480     15483     15486     15482     15480     15483     15484
     15482     15480     15483     15485     15482     15480     15483     15486
     15483     15486     15489     15490     15483     15486     15489     15491
     15483     15486     15489     15492     15484     15483     15486     15487
     15484     15483     15486     15488     15484     15483     15486     15489
     15485     15483     15486     15487     15485     15483     15486     15488
     15485     15483     15486     15489     15486     15489     15492     15493
     15486     15489     15492     15494     15486     15489     15492     15495
     15487     15486     15489     15490     15487     15486     15489     15491
     15487     15486     15489     15492     15488     15486     15489     15490
     15488     15486     15489     15491     15488     15486     15489     15492
     15489     15492     15495     15496     15489     15492     15495     15497
     15489     15492     15495     15498     15490     15489     15492     15493
     15490     15489     15492     15494     15490     15489     15492     15495
     15491     15489     15492     15493     15491     15489     15492     15494
     15491     15489     15492     15495     15492     15495     15498     15499
     15492     15495     15498     15500     15492     15495     15498     15501
     15493     15492     15495     15496     15493     15492     15495     15497
     15493     15492     15495     15498     15494     15492     15495     15496
     15494     15492     15495     15497     15494     15492     15495     15498
     15496     15495     15498     15499     15496     15495     15498     15500
     15496     15495     15498     15501     15497     15495     15498     15499
     15497     15495     15498     15500     15497     15495     15498     15501
     15502     15505     15508     15509     15502     15505     15508     15510
     15502     15505     15508     15511     15503     15502     15505     15506
     15503     15502     15505     15507     15503     15502     15505     15508
     15504     15502     15505     15506     15504     15502     15505     15507
     15504     15502     15505     15508     15505     15508     15511     15512
     15505     15508     15511     15513     15505     15508     15511     15514
     15506     15505     15508     15509     15506     15505     15508     15510
     15506     15505     15508     15511     15507     15505     15508     15509
     15507     15505     15508     15510     15507     15505     15508     15511
     15508     15511     15514     15515     15508     15511     15514     15516
     15508     15511     15514     15517     15509     15508     15511     15512
     15509     15508     15511     15513     15509     15508     15511     15514
     15510     15508     15511     15512     15510     15508     15511     15513
     15510     15508     15511     15514     15511     15514     15517     15518
     15511     15514     15517     15519     15511     15514     15517     15520
     15512     15511     15514     15515     15512     15511     15514     15516
     15512     15511     15514     15517     15513     15511     15514     15515
     15513     15511     15514     15516     15513     15511     15514     15517
     15514     15517     15520     15521     15514     15517     15520     15522
     15514     15517     15520     15523     15515     15514     15517     15518
     15515     15514     15517     15519     15515     15514     15517     15520
     15516     15514     15517     15518     15516     15514     15517     15519
     15516     15514     15517     15520     15517     15520     15523     15524
     15517     15520     15523     15525     15517     15520     15523     15526
     15518     15517     15520     15521     15518     15517     15520     15522
     15518     15517     15520     15523     15519     15517     15520     15521
     15519     15517     15520     15522     15519     15517     15520     15523
     15520     15523     15526     15527     15520     15523     15526     15528
     15520     15523     15526     15529     15521     15520     15523     15524
     15521     15520     15523     15525     15521     15520     15523     15526
     15522     15520     15523     15524     15522     15520     15523     15525
     15522     15520     15523     15526     15523     15526     15529     15530
     15523     15526     15529     15531     15523     15526     15529     15532
     15524     15523     15526     15527     15524     15523     15526     15528
     15524     15523     15526     15529     15525     15523     15526     15527
     15525     15523     15526     15528     15525     15523     15526     15529
     15526     15529     15532     15533     15526     15529     15532     15534
     15526     15529     15532     15535     15527     15526     15529     15530
     15527     15526     15529     15531     15527     15526     15529     15532
     15528     15526     15529     15530     15528     15526     15529     15531
     15528     15526     15529     15532     15529     15532     15535     15536
     15529     15532     15535     15537     15529     15532     15535     15538
     15530     15529     15532     15533     15530     15529     15532     15534
     15530     15529     15532     15535     15531     15529     15532     15533
     15531     15529     15532     15534     15531     15529     15532     15535
     15532     15535     15538     15539     15532     15535     15538     15540
     15532     15535     15538     15541     15533     15532     15535     15536
     15533     15532     15535     15537     15533     15532     15535     15538
     15534     15532     15535     15536     15534     15532     15535     15537
     15534     15532     15535     15538     15535     15538     15541     15542
     15535     15538     15541     15543     15535     15538     15541     15544
     15536     15535     15538     15539     15536     15535     15538     15540
     15536     15535     15538     15541     15537     15535     15538     15539
     15537     15535     15538     15540     15537     15535     15538     15541
     15539     15538     15541     15542     15539     15538     15541     15543
     15539     15538     15541     15544     15540     15538     15541     15542
     15540     15538     15541     15543     15540     15538     15541     15544
     15545     15546     15561     15562     15545     15546     15561     15563
     15545     15546     15561     15567     15546     15545     15549     15550
     15546     15545     15549     15551     15546     15545     15549     15552
     15546     15545     15553     15554     15546     15545     15553     15555
     15546     15545     15553     15556     15546     15545     15557     15558
     15546     15545     15557     15559     15546     15545     15557     15560
     15546     15561     15567     15564     15547     15546     15545     15549
     15547     15546     15545     15553     15547     15546     15545     15557
     15547     15546     15561     15562     15547     15546     15561     15563
     15547     15546     15561     15567     15548     15546     15545     15549
     15548     15546     15545     15553     15548     15546     15545     15557
     15548     15546     15561     15562     15548     15546     15561     15563
     15548     15546     15561     15567     15549     15545     15546     15561
     15549     15545     15553     15554     15549     15545     15553     15555
     15549     15545     15553     15556     15549     15545     15557     15558
     15549     15545     15557     15559     15549     15545     15557     15560
     15550     15549     15545     15553     15550     15549     15545     15557
     15551     15549     15545     15553     15551     15549     15545     15557
     15552     15549     15545     15553     15552     15549     15545     15557
     15553     15545     15546     15561     15553     15545     15557     15558
     15553     15545     15557     15559     15553     15545     15557     15560
     15554     15553     15545     15557     15555     15553     15545     15557
     15556     15553     15545     15557     15557     15545     15546     15561
     15561     15567     15564     15565     15561     15567     15564     15566
     15561     15567     15564     15568     15562     15561     15567     15564
     15563     15561     15567     15564     15564     15568     15569     15570
     15564     15568     15569     15571     15564     15568     15569     15572
     15565     15564     15568     15569     15566     15564     15568     15569
     15567     15564     15568     15569     15568     15569     15572     15573
     15568     15569     15572     15574     15568     15569     15572     15580
     15569     15572     15574     15575     15569     15572     15580     15581
     15569     15572     15580     15582     15569     15572     15580     15583
     15570     15569     15572     15573     15570     15569     15572     15574
     15570     15569     15572     15580     15571     15569     15572     15573
     15571     15569     15572     15574     15571     15569     15572     15580
     15572     15574     15575     15576     15572     15574     15575     15577
     15572     15580     15583     15584     15573     15572     15574     15575
     15573     15572     15580     15581     15573     15572     15580     15582
     15573     15572     15580     15583     15574     15572     15580     15581
     15574     15572     15580     15582     15574     15572     15580     15583
     15574     15575     15577     15578     15574     15575     15577     15579
     15574     15575     15577     15589     15575     15574     15572     15580
     15575     15577     15589     15590     15575     15577     15589     15591
     15575     15577     15589     15592     15576     15575     15577     15578
     15576     15575     15577     15579     15576     15575     15577     15589
     15577     15589     15592     15593     15577     15589     15592     15594
     15577     15589     15592     15595     15578     15577     15589     15590
     15578     15577     15589     15591     15578     15577     15589     15592
     15579     15577     15589     15590     15579     15577     15589     15591
     15579     15577     15589     15592     15580     15583     15584     15585
     15580     15583     15584     15586     15581     15580     15583     15584
     15582     15580     15583     15584     15583     15584     15586     15587
     15583     15584     15586     15588     15583     15584     15586     15636
     15584     15586     15636     15637     15584     15586     15636     15638
     15584     15586     15636     15639     15585     15584     15586     15587
     15585     15584     15586     15588     15585     15584     15586     15636
     15586     15636     15639     15640     15586     15636     15639     15641
     15586     15636     15639     15642     15587     15586     15636     15637
     15587     15586     15636     15638     15587     15586     15636     15639
     15588     15586     15636     15637     15588     15586     15636     15638
     15588     15586     15636     15639     15589     15592     15595     15596
     15589     15592     15595     15597     15589     15592     15595     15598
     15590     15589     15592     15593     15590     15589     15592     15594
     15590     15589     15592     15595     15591     15589     15592     15593
     15591     15589     15592     15594     15591     15589     15592     15595
     15592     15595     15598     15599     15592     15595     15598     15600
     15592     15595     15598     15601     15593     15592     15595     15596
     15593     15592     15595     15597     15593     15592     15595     15598
     15594     15592     15595     15596     15594     15592     15595     15597
     15594     15592     15595     15598     15595     15598     15601     15602
     15595     15598     15601     15603     15595     15598     15601     15604
     15596     15595     15598     15599     15596     15595     15598     15600
     15596     15595     15598     15601     15597     15595     15598     15599
     15597     15595     15598     15600     15597     15595     15598     15601
     15598     15601     15604     15605     15598     15601     15604     15606
     15598     15601     15604     15607     15599     15598     15601     15602
     15599     15598     15601     15603     15599     15598     15601     15604
     15600     15598     15601     15602     15600     15598     15601     15603
     15600     15598     15601     15604     15601     15604     15607     15608
     15601     15604     15607     15609     15602     15601     15604     15605
     15602     15601     15604     15606     15602     15601     15604     15607
     15603     15601     15604     15605     15603     15601     15604     15606
     15603     15601     15604     15607     15604     15607     15609     15610
     15604     15607     15609     15611     15605     15604     15607     15608
     15605     15604     15607     15609     15606     15604     15607     15608
     15606     15604     15607     15609     15607     15609     15611     15612
     15607     15609     15611     15613     15607     15609     15611     15614
     15608     15607     15609     15610     15608     15607     15609     15611
     15609     15611     15614     15615     15609     15611     15614     15616
     15609     15611     15614     15617     15610     15609     15611     15612
     15610     15609     15611     15613     15610     15609     15611     15614
     15611     15614     15617     15618     15611     15614     15617     15619
     15611     15614     15617     15620     15612     15611     15614     15615
     15612     15611     15614     15616     15612     15611     15614     15617
     15613     15611     15614     15615     15613     15611     15614     15616
     15613     15611     15614     15617     15614     15617     15620     15621
     15614     15617     15620     15622     15614     15617     15620     15623
     15615     15614     15617     15618     15615     15614     15617     15619
     15615     15614     15617     15620     15616     15614     15617     15618
     15616     15614     15617     15619     15616     15614     15617     15620
     15617     15620     15623     15624     15617     15620     15623     15625
     15617     15620     15623     15626     15618     15617     15620     15621
     15618     15617     15620     15622     15618     15617     15620     15623
     15619     15617     15620     15621     15619     15617     15620     15622
     15619     15617     15620     15623     15620     15623     15626     15627
     15620     15623     15626     15628     15620     15623     15626     15629
     15621     15620     15623     15624     15621     15620     15623     15625
     15621     15620     15623     15626     15622     15620     15623     15624
     15622     15620     15623     15625     15622     15620     15623     15626
     15623     15626     15629     15630     15623     15626     15629     15631
     15623     15626     15629     15632     15624     15623     15626     15627
     15624     15623     15626     15628     15624     15623     15626     15629
     15625     15623     15626     15627     15625     15623     15626     15628
     15625     15623     15626     15629     15626     15629     15632     15633
     15626     15629     15632     15634     15626     15629     15632     15635
     15627     15626     15629     15630     15627     15626     15629     15631
     15627     15626     15629     15632     15628     15626     15629     15630
     15628     15626     15629     15631     15628     15626     15629     15632
     15630     15629     15632     15633     15630     15629     15632     15634
     15630     15629     15632     15635     15631     15629     15632     15633
     15631     15629     15632     15634     15631     15629     15632     15635
     15636     15639     15642     15643     15636     15639     15642     15644
     15636     15639     15642     15645     15637     15636     15639     15640
     15637     15636     15639     15641     15637     15636     15639     15642
     15638     15636     15639     15640     15638     15636     15639     15641
     15638     15636     15639     15642     15639     15642     15645     15646
     15639     15642     15645     15647     15639     15642     15645     15648
     15640     15639     15642     15643     15640     15639     15642     15644
     15640     15639     15642     15645     15641     15639     15642     15643
     15641     15639     15642     15644     15641     15639     15642     15645
     15642     15645     15648     15649     15642     15645     15648     15650
     15642     15645     15648     15651     15643     15642     15645     15646
     15643     15642     15645     15647     15643     15642     15645     15648
     15644     15642     15645     15646     15644     15642     15645     15647
     15644     15642     15645     15648     15645     15648     15651     15652
     15645     15648     15651     15653     15645     15648     15651     15654
     15646     15645     15648     15649     15646     15645     15648     15650
     15646     15645     15648     15651     15647     15645     15648     15649
     15647     15645     15648     15650     15647     15645     15648     15651
     15648     15651     15654     15655     15648     15651     15654     15656
     15648     15651     15654     15657     15649     15648     15651     15652
     15649     15648     15651     15653     15649     15648     15651     15654
     15650     15648     15651     15652     15650     15648     15651     15653
     15650     15648     15651     15654     15651     15654     15657     15658
     15651     15654     15657     15659     15651     15654     15657     15660
     15652     15651     15654     15655     15652     15651     15654     15656
     15652     15651     15654     15657     15653     15651     15654     15655
     15653     15651     15654     15656     15653     15651     15654     15657
     15654     15657     15660     15661     15654     15657     15660     15662
     15654     15657     15660     15663     15655     15654     15657     15658
     15655     15654     15657     15659     15655     15654     15657     15660
     15656     15654     15657     15658     15656     15654     15657     15659
     15656     15654     15657     15660     15657     15660     15663     15664
     15657     15660     15663     15665     15657     15660     15663     15666
     15658     15657     15660     15661     15658     15657     15660     15662
     15658     15657     15660     15663     15659     15657     15660     15661
     15659     15657     15660     15662     15659     15657     15660     15663
     15660     15663     15666     15667     15660     15663     15666     15668
     15660     15663     15666     15669     15661     15660     15663     15664
     15661     15660     15663     15665     15661     15660     15663     15666
     15662     15660     15663     15664     15662     15660     15663     15665
     15662     15660     15663     15666     15663     15666     15669     15670
     15663     15666     15669     15671     15663     15666     15669     15672
     15664     15663     15666     15667     15664     15663     15666     15668
     15664     15663     15666     15669     15665     15663     15666     15667
     15665     15663     15666     15668     15665     15663     15666     15669
     15666     15669     15672     15673     15666     15669     15672     15674
     15666     15669     15672     15675     15667     15666     15669     15670
     15667     15666     15669     15671     15667     15666     15669     15672
     15668     15666     15669     15670     15668     15666     15669     15671
     15668     15666     15669     15672     15669     15672     15675     15676
     15669     15672     15675     15677     15669     15672     15675     15678
     15670     15669     15672     15673     15670     15669     15672     15674
     15670     15669     15672     15675     15671     15669     15672     15673
     15671     15669     15672     15674     15671     15669     15672     15675
     15673     15672     15675     15676     15673     15672     15675     15677
     15673     15672     15675     15678     15674     15672     15675     15676
     15674     15672     15675     15677     15674     15672     15675     15678
     15679     15680     15695     15696     15679     15680     15695     15697
     15679     15680     15695     15701     15680     15679     15683     15684
     15680     15679     15683     15685     15680     15679     15683     15686
     15680     15679     15687     15688     15680     15679     15687     15689
     15680     15679     15687     15690     15680     15679     15691     15692
     15680     15679     15691     15693     15680     15679     15691     15694
     15680     15695     15701     15698     15681     15680     15679     15683
     15681     15680     15679     15687     15681     15680     15679     15691
     15681     15680     15695     15696     15681     15680     15695     15697
     15681     15680     15695     15701     15682     15680     15679     15683
     15682     15680     15679     15687     15682     15680     15679     15691
     15682     15680     15695     15696     15682     15680     15695     15697
     15682     15680     15695     15701     15683     15679     15680     15695
     15683     15679     15687     15688     15683     15679     15687     15689
     15683     15679     15687     15690     15683     15679     15691     15692
     15683     15679     15691     15693     15683     15679     15691     15694
     15684     15683     15679     15687     15684     15683     15679     15691
     15685     15683     15679     15687     15685     15683     15679     15691
     15686     15683     15679     15687     15686     15683     15679     15691
     15687     15679     15680     15695     15687     15679     15691     15692
     15687     15679     15691     15693     15687     15679     15691     15694
     15688     15687     15679     15691     15689     15687     15679     15691
     15690     15687     15679     15691     15691     15679     15680     15695
     15695     15701     15698     15699     15695     15701     15698     15700
     15695     15701     15698     15702     15696     15695     15701     15698
     15697     15695     15701     15698     15698     15702     15703     15704
     15698     15702     15703     15705     15698     15702     15703     15706
     15699     15698     15702     15703     15700     15698     15702     15703
     15701     15698     15702     15703     15702     15703     15706     15707
     15702     15703     15706     15708     15702     15703     15706     15714
     15703     15706     15708     15709     15703     15706     15714     15715
     15703     15706     15714     15716     15703     15706     15714     15717
     15704     15703     15706     15707     15704     15703     15706     15708
     15704     15703     15706     15714     15705     15703     15706     15707
     15705     15703     15706     15708     15705     15703     15706     15714
     15706     15708     15709     15710     15706     15708     15709     15711
     15706     15714     15717     15718     15707     15706     15708     15709
     15707     15706     15714     15715     15707     15706     15714     15716
     15707     15706     15714     15717     15708     15706     15714     15715
     15708     15706     15714     15716     15708     15706     15714     15717
     15708     15709     15711     15712     15708     15709     15711     15713
     15708     15709     15711     15723     15709     15708     15706     15714
     15709     15711     15723     15724     15709     15711     15723     15725
     15709     15711     15723     15726     15710     15709     15711     15712
     15710     15709     15711     15713     15710     15709     15711     15723
     15711     15723     15726     15727     15711     15723     15726     15728
     15711     15723     15726     15729     15712     15711     15723     15724
     15712     15711     15723     15725     15712     15711     15723     15726
     15713     15711     15723     15724     15713     15711     15723     15725
     15713     15711     15723     15726     15714     15717     15718     15719
     15714     15717     15718     15720     15715     15714     15717     15718
     15716     15714     15717     15718     15717     15718     15720     15721
     15717     15718     15720     15722     15717     15718     15720     15770
     15718     15720     15770     15771     15718     15720     15770     15772
     15718     15720     15770     15773     15719     15718     15720     15721
     15719     15718     15720     15722     15719     15718     15720     15770
     15720     15770     15773     15774     15720     15770     15773     15775
     15720     15770     15773     15776     15721     15720     15770     15771
     15721     15720     15770     15772     15721     15720     15770     15773
     15722     15720     15770     15771     15722     15720     15770     15772
     15722     15720     15770     15773     15723     15726     15729     15730
     15723     15726     15729     15731     15723     15726     15729     15732
     15724     15723     15726     15727     15724     15723     15726     15728
     15724     15723     15726     15729     15725     15723     15726     15727
     15725     15723     15726     15728     15725     15723     15726     15729
     15726     15729     15732     15733     15726     15729     15732     15734
     15726     15729     15732     15735     15727     15726     15729     15730
     15727     15726     15729     15731     15727     15726     15729     15732
     15728     15726     15729     15730     15728     15726     15729     15731
     15728     15726     15729     15732     15729     15732     15735     15736
     15729     15732     15735     15737     15729     15732     15735     15738
     15730     15729     15732     15733     15730     15729     15732     15734
     15730     15729     15732     15735     15731     15729     15732     15733
     15731     15729     15732     15734     15731     15729     15732     15735
     15732     15735     15738     15739     15732     15735     15738     15740
     15732     15735     15738     15741     15733     15732     15735     15736
     15733     15732     15735     15737     15733     15732     15735     15738
     15734     15732     15735     15736     15734     15732     15735     15737
     15734     15732     15735     15738     15735     15738     15741     15742
     15735     15738     15741     15743     15736     15735     15738     15739
     15736     15735     15738     15740     15736     15735     15738     15741
     15737     15735     15738     15739     15737     15735     15738     15740
     15737     15735     15738     15741     15738     15741     15743     15744
     15738     15741     15743     15745     15739     15738     15741     15742
     15739     15738     15741     15743     15740     15738     15741     15742
     15740     15738     15741     15743     15741     15743     15745     15746
     15741     15743     15745     15747     15741     15743     15745     15748
     15742     15741     15743     15744     15742     15741     15743     15745
     15743     15745     15748     15749     15743     15745     15748     15750
     15743     15745     15748     15751     15744     15743     15745     15746
     15744     15743     15745     15747     15744     15743     15745     15748
     15745     15748     15751     15752     15745     15748     15751     15753
     15745     15748     15751     15754     15746     15745     15748     15749
     15746     15745     15748     15750     15746     15745     15748     15751
     15747     15745     15748     15749     15747     15745     15748     15750
     15747     15745     15748     15751     15748     15751     15754     15755
     15748     15751     15754     15756     15748     15751     15754     15757
     15749     15748     15751     15752     15749     15748     15751     15753
     15749     15748     15751     15754     15750     15748     15751     15752
     15750     15748     15751     15753     15750     15748     15751     15754
     15751     15754     15757     15758     15751     15754     15757     15759
     15751     15754     15757     15760     15752     15751     15754     15755
     15752     15751     15754     15756     15752     15751     15754     15757
     15753     15751     15754     15755     15753     15751     15754     15756
     15753     15751     15754     15757     15754     15757     15760     15761
     15754     15757     15760     15762     15754     15757     15760     15763
     15755     15754     15757     15758     15755     15754     15757     15759
     15755     15754     15757     15760     15756     15754     15757     15758
     15756     15754     15757     15759     15756     15754     15757     15760
     15757     15760     15763     15764     15757     15760     15763     15765
     15757     15760     15763     15766     15758     15757     15760     15761
     15758     15757     15760     15762     15758     15757     15760     15763
     15759     15757     15760     15761     15759     15757     15760     15762
     15759     15757     15760     15763     15760     15763     15766     15767
     15760     15763     15766     15768     15760     15763     15766     15769
     15761     15760     15763     15764     15761     15760     15763     15765
     15761     15760     15763     15766     15762     15760     15763     15764
     15762     15760     15763     15765     15762     15760     15763     15766
     15764     15763     15766     15767     15764     15763     15766     15768
     15764     15763     15766     15769     15765     15763     15766     15767
     15765     15763     15766     15768     15765     15763     15766     15769
     15770     15773     15776     15777     15770     15773     15776     15778
     15770     15773     15776     15779     15771     15770     15773     15774
     15771     15770     15773     15775     15771     15770     15773     15776
     15772     15770     15773     15774     15772     15770     15773     15775
     15772     15770     15773     15776     15773     15776     15779     15780
     15773     15776     15779     15781     15773     15776     15779     15782
     15774     15773     15776     15777     15774     15773     15776     15778
     15774     15773     15776     15779     15775     15773     15776     15777
     15775     15773     15776     15778     15775     15773     15776     15779
     15776     15779     15782     15783     15776     15779     15782     15784
     15776     15779     15782     15785     15777     15776     15779     15780
     15777     15776     15779     15781     15777     15776     15779     15782
     15778     15776     15779     15780     15778     15776     15779     15781
     15778     15776     15779     15782     15779     15782     15785     15786
     15779     15782     15785     15787     15779     15782     15785     15788
     15780     15779     15782     15783     15780     15779     15782     15784
     15780     15779     15782     15785     15781     15779     15782     15783
     15781     15779     15782     15784     15781     15779     15782     15785
     15782     15785     15788     15789     15782     15785     15788     15790
     15782     15785     15788     15791     15783     15782     15785     15786
     15783     15782     15785     15787     15783     15782     15785     15788
     15784     15782     15785     15786     15784     15782     15785     15787
     15784     15782     15785     15788     15785     15788     15791     15792
     15785     15788     15791     15793     15785     15788     15791     15794
     15786     15785     15788     15789     15786     15785     15788     15790
     15786     15785     15788     15791     15787     15785     15788     15789
     15787     15785     15788     15790     15787     15785     15788     15791
     15788     15791     15794     15795     15788     15791     15794     15796
     15788     15791     15794     15797     15789     15788     15791     15792
     15789     15788     15791     15793     15789     15788     15791     15794
     15790     15788     15791     15792     15790     15788     15791     15793
     15790     15788     15791     15794     15791     15794     15797     15798
     15791     15794     15797     15799     15791     15794     15797     15800
     15792     15791     15794     15795     15792     15791     15794     15796
     15792     15791     15794     15797     15793     15791     15794     15795
     15793     15791     15794     15796     15793     15791     15794     15797
     15794     15797     15800     15801     15794     15797     15800     15802
     15794     15797     15800     15803     15795     15794     15797     15798
     15795     15794     15797     15799     15795     15794     15797     15800
     15796     15794     15797     15798     15796     15794     15797     15799
     15796     15794     15797     15800     15797     15800     15803     15804
     15797     15800     15803     15805     15797     15800     15803     15806
     15798     15797     15800     15801     15798     15797     15800     15802
     15798     15797     15800     15803     15799     15797     15800     15801
     15799     15797     15800     15802     15799     15797     15800     15803
     15800     15803     15806     15807     15800     15803     15806     15808
     15800     15803     15806     15809     15801     15800     15803     15804
     15801     15800     15803     15805     15801     15800     15803     15806
     15802     15800     15803     15804     15802     15800     15803     15805
     15802     15800     15803     15806     15803     15806     15809     15810
     15803     15806     15809     15811     15803     15806     15809     15812
     15804     15803     15806     15807     15804     15803     15806     15808
     15804     15803     15806     15809     15805     15803     15806     15807
     15805     15803     15806     15808     15805     15803     15806     15809
     15807     15806     15809     15810     15807     15806     15809     15811
     15807     15806     15809     15812     15808     15806     15809     15810
     15808     15806     15809     15811     15808     15806     15809     15812
     15813     15814     15829     15830     15813     15814     15829     15831
     15813     15814     15829     15835     15814     15813     15817     15818
     15814     15813     15817     15819     15814     15813     15817     15820
     15814     15813     15821     15822     15814     15813     15821     15823
     15814     15813     15821     15824     15814     15813     15825     15826
     15814     15813     15825     15827     15814     15813     15825     15828
     15814     15829     15835     15832     15815     15814     15813     15817
     15815     15814     15813     15821     15815     15814     15813     15825
     15815     15814     15829     15830     15815     15814     15829     15831
     15815     15814     15829     15835     15816     15814     15813     15817
     15816     15814     15813     15821     15816     15814     15813     15825
     15816     15814     15829     15830     15816     15814     15829     15831
     15816     15814     15829     15835     15817     15813     15814     15829
     15817     15813     15821     15822     15817     15813     15821     15823
     15817     15813     15821     15824     15817     15813     15825     15826
     15817     15813     15825     15827     15817     15813     15825     15828
     15818     15817     15813     15821     15818     15817     15813     15825
     15819     15817     15813     15821     15819     15817     15813     15825
     15820     15817     15813     15821     15820     15817     15813     15825
     15821     15813     15814     15829     15821     15813     15825     15826
     15821     15813     15825     15827     15821     15813     15825     15828
     15822     15821     15813     15825     15823     15821     15813     15825
     15824     15821     15813     15825     15825     15813     15814     15829
     15829     15835     15832     15833     15829     15835     15832     15834
     15829     15835     15832     15836     15830     15829     15835     15832
     15831     15829     15835     15832     15832     15836     15837     15838
     15832     15836     15837     15839     15832     15836     15837     15840
     15833     15832     15836     15837     15834     15832     15836     15837
     15835     15832     15836     15837     15836     15837     15840     15841
     15836     15837     15840     15842     15836     15837     15840     15848
     15837     15840     15842     15843     15837     15840     15848     15849
     15837     15840     15848     15850     15837     15840     15848     15851
     15838     15837     15840     15841     15838     15837     15840     15842
     15838     15837     15840     15848     15839     15837     15840     15841
     15839     15837     15840     15842     15839     15837     15840     15848
     15840     15842     15843     15844     15840     15842     15843     15845
     15840     15848     15851     15852     15841     15840     15842     15843
     15841     15840     15848     15849     15841     15840     15848     15850
     15841     15840     15848     15851     15842     15840     15848     15849
     15842     15840     15848     15850     15842     15840     15848     15851
     15842     15843     15845     15846     15842     15843     15845     15847
     15842     15843     15845     15857     15843     15842     15840     15848
     15843     15845     15857     15858     15843     15845     15857     15859
     15843     15845     15857     15860     15844     15843     15845     15846
     15844     15843     15845     15847     15844     15843     15845     15857
     15845     15857     15860     15861     15845     15857     15860     15862
     15845     15857     15860     15863     15846     15845     15857     15858
     15846     15845     15857     15859     15846     15845     15857     15860
     15847     15845     15857     15858     15847     15845     15857     15859
     15847     15845     15857     15860     15848     15851     15852     15853
     15848     15851     15852     15854     15849     15848     15851     15852
     15850     15848     15851     15852     15851     15852     15854     15855
     15851     15852     15854     15856     15851     15852     15854     15904
     15852     15854     15904     15905     15852     15854     15904     15906
     15852     15854     15904     15907     15853     15852     15854     15855
     15853     15852     15854     15856     15853     15852     15854     15904
     15854     15904     15907     15908     15854     15904     15907     15909
     15854     15904     15907     15910     15855     15854     15904     15905
     15855     15854     15904     15906     15855     15854     15904     15907
     15856     15854     15904     15905     15856     15854     15904     15906
     15856     15854     15904     15907     15857     15860     15863     15864
     15857     15860     15863     15865     15857     15860     15863     15866
     15858     15857     15860     15861     15858     15857     15860     15862
     15858     15857     15860     15863     15859     15857     15860     15861
     15859     15857     15860     15862     15859     15857     15860     15863
     15860     15863     15866     15867     15860     15863     15866     15868
     15860     15863     15866     15869     15861     15860     15863     15864
     15861     15860     15863     15865     15861     15860     15863     15866
     15862     15860     15863     15864     15862     15860     15863     15865
     15862     15860     15863     15866     15863     15866     15869     15870
     15863     15866     15869     15871     15863     15866     15869     15872
     15864     15863     15866     15867     15864     15863     15866     15868
     15864     15863     15866     15869     15865     15863     15866     15867
     15865     15863     15866     15868     15865     15863     15866     15869
     15866     15869     15872     15873     15866     15869     15872     15874
     15866     15869     15872     15875     15867     15866     15869     15870
     15867     15866     15869     15871     15867     15866     15869     15872
     15868     15866     15869     15870     15868     15866     15869     15871
     15868     15866     15869     15872     15869     15872     15875     15876
     15869     15872     15875     15877     15870     15869     15872     15873
     15870     15869     15872     15874     15870     15869     15872     15875
     15871     15869     15872     15873     15871     15869     15872     15874
     15871     15869     15872     15875     15872     15875     15877     15878
     15872     15875     15877     15879     15873     15872     15875     15876
     15873     15872     15875     15877     15874     15872     15875     15876
     15874     15872     15875     15877     15875     15877     15879     15880
     15875     15877     15879     15881     15875     15877     15879     15882
     15876     15875     15877     15878     15876     15875     15877     15879
     15877     15879     15882     15883     15877     15879     15882     15884
     15877     15879     15882     15885     15878     15877     15879     15880
     15878     15877     15879     15881     15878     15877     15879     15882
     15879     15882     15885     15886     15879     15882     15885     15887
     15879     15882     15885     15888     15880     15879     15882     15883
     15880     15879     15882     15884     15880     15879     15882     15885
     15881     15879     15882     15883     15881     15879     15882     15884
     15881     15879     15882     15885     15882     15885     15888     15889
     15882     15885     15888     15890     15882     15885     15888     15891
     15883     15882     15885     15886     15883     15882     15885     15887
     15883     15882     15885     15888     15884     15882     15885     15886
     15884     15882     15885     15887     15884     15882     15885     15888
     15885     15888     15891     15892     15885     15888     15891     15893
     15885     15888     15891     15894     15886     15885     15888     15889
     15886     15885     15888     15890     15886     15885     15888     15891
     15887     15885     15888     15889     15887     15885     15888     15890
     15887     15885     15888     15891     15888     15891     15894     15895
     15888     15891     15894     15896     15888     15891     15894     15897
     15889     15888     15891     15892     15889     15888     15891     15893
     15889     15888     15891     15894     15890     15888     15891     15892
     15890     15888     15891     15893     15890     15888     15891     15894
     15891     15894     15897     15898     15891     15894     15897     15899
     15891     15894     15897     15900     15892     15891     15894     15895
     15892     15891     15894     15896     15892     15891     15894     15897
     15893     15891     15894     15895     15893     15891     15894     15896
     15893     15891     15894     15897     15894     15897     15900     15901
     15894     15897     15900     15902     15894     15897     15900     15903
     15895     15894     15897     15898     15895     15894     15897     15899
     15895     15894     15897     15900     15896     15894     15897     15898
     15896     15894     15897     15899     15896     15894     15897     15900
     15898     15897     15900     15901     15898     15897     15900     15902
     15898     15897     15900     15903     15899     15897     15900     15901
     15899     15897     15900     15902     15899     15897     15900     15903
     15904     15907     15910     15911     15904     15907     15910     15912
     15904     15907     15910     15913     15905     15904     15907     15908
     15905     15904     15907     15909     15905     15904     15907     15910
     15906     15904     15907     15908     15906     15904     15907     15909
     15906     15904     15907     15910     15907     15910     15913     15914
     15907     15910     15913     15915     15907     15910     15913     15916
     15908     15907     15910     15911     15908     15907     15910     15912
     15908     15907     15910     15913     15909     15907     15910     15911
     15909     15907     15910     15912     15909     15907     15910     15913
     15910     15913     15916     15917     15910     15913     15916     15918
     15910     15913     15916     15919     15911     15910     15913     15914
     15911     15910     15913     15915     15911     15910     15913     15916
     15912     15910     15913     15914     15912     15910     15913     15915
     15912     15910     15913     15916     15913     15916     15919     15920
     15913     15916     15919     15921     15913     15916     15919     15922
     15914     15913     15916     15917     15914     15913     15916     15918
     15914     15913     15916     15919     15915     15913     15916     15917
     15915     15913     15916     15918     15915     15913     15916     15919
     15916     15919     15922     15923     15916     15919     15922     15924
     15916     15919     15922     15925     15917     15916     15919     15920
     15917     15916     15919     15921     15917     15916     15919     15922
     15918     15916     15919     15920     15918     15916     15919     15921
     15918     15916     15919     15922     15919     15922     15925     15926
     15919     15922     15925     15927     15919     15922     15925     15928
     15920     15919     15922     15923     15920     15919     15922     15924
     15920     15919     15922     15925     15921     15919     15922     15923
     15921     15919     15922     15924     15921     15919     15922     15925
     15922     15925     15928     15929     15922     15925     15928     15930
     15922     15925     15928     15931     15923     15922     15925     15926
     15923     15922     15925     15927     15923     15922     15925     15928
     15924     15922     15925     15926     15924     15922     15925     15927
     15924     15922     15925     15928     15925     15928     15931     15932
     15925     15928     15931     15933     15925     15928     15931     15934
     15926     15925     15928     15929     15926     15925     15928     15930
     15926     15925     15928     15931     15927     15925     15928     15929
     15927     15925     15928     15930     15927     15925     15928     15931
     15928     15931     15934     15935     15928     15931     15934     15936
     15928     15931     15934     15937     15929     15928     15931     15932
     15929     15928     15931     15933     15929     15928     15931     15934
     15930     15928     15931     15932     15930     15928     15931     15933
     15930     15928     15931     15934     15931     15934     15937     15938
     15931     15934     15937     15939     15931     15934     15937     15940
     15932     15931     15934     15935     15932     15931     15934     15936
     15932     15931     15934     15937     15933     15931     15934     15935
     15933     15931     15934     15936     15933     15931     15934     15937
     15934     15937     15940     15941     15934     15937     15940     15942
     15934     15937     15940     15943     15935     15934     15937     15938
     15935     15934     15937     15939     15935     15934     15937     15940
     15936     15934     15937     15938     15936     15934     15937     15939
     15936     15934     15937     15940     15937     15940     15943     15944
     15937     15940     15943     15945     15937     15940     15943     15946
     15938     15937     15940     15941     15938     15937     15940     15942
     15938     15937     15940     15943     15939     15937     15940     15941
     15939     15937     15940     15942     15939     15937     15940     15943
     15941     15940     15943     15944     15941     15940     15943     15945
     15941     15940     15943     15946     15942     15940     15943     15944
     15942     15940     15943     15945     15942     15940     15943     15946
     15947     15948     15963     15964     15947     15948     15963     15965
     15947     15948     15963     15969     15948     15947     15951     15952
     15948     15947     15951     15953     15948     15947     15951     15954
     15948     15947     15955     15956     15948     15947     15955     15957
     15948     15947     15955     15958     15948     15947     15959     15960
     15948     15947     15959     15961     15948     15947     15959     15962
     15948     15963     15969     15966     15949     15948     15947     15951
     15949     15948     15947     15955     15949     15948     15947     15959
     15949     15948     15963     15964     15949     15948     15963     15965
     15949     15948     15963     15969     15950     15948     15947     15951
     15950     15948     15947     15955     15950     15948     15947     15959
     15950     15948     15963     15964     15950     15948     15963     15965
     15950     15948     15963     15969     15951     15947     15948     15963
     15951     15947     15955     15956     15951     15947     15955     15957
     15951     15947     15955     15958     15951     15947     15959     15960
     15951     15947     15959     15961     15951     15947     15959     15962
     15952     15951     15947     15955     15952     15951     15947     15959
     15953     15951     15947     15955     15953     15951     15947     15959
     15954     15951     15947     15955     15954     15951     15947     15959
     15955     15947     15948     15963     15955     15947     15959     15960
     15955     15947     15959     15961     15955     15947     15959     15962
     15956     15955     15947     15959     15957     15955     15947     15959
     15958     15955     15947     15959     15959     15947     15948     15963
     15963     15969     15966     15967     15963     15969     15966     15968
     15963     15969     15966     15970     15964     15963     15969     15966
     15965     15963     15969     15966     15966     15970     15971     15972
     15966     15970     15971     15973     15966     15970     15971     15974
     15967     15966     15970     15971     15968     15966     15970     15971
     15969     15966     15970     15971     15970     15971     15974     15975
     15970     15971     15974     15976     15970     15971     15974     15982
     15971     15974     15976     15977     15971     15974     15982     15983
     15971     15974     15982     15984     15971     15974     15982     15985
     15972     15971     15974     15975     15972     15971     15974     15976
     15972     15971     15974     15982     15973     15971     15974     15975
     15973     15971     15974     15976     15973     15971     15974     15982
     15974     15976     15977     15978     15974     15976     15977     15979
     15974     15982     15985     15986     15975     15974     15976     15977
     15975     15974     15982     15983     15975     15974     15982     15984
     15975     15974     15982     15985     15976     15974     15982     15983
     15976     15974     15982     15984     15976     15974     15982     15985
     15976     15977     15979     15980     15976     15977     15979     15981
     15976     15977     15979     15991     15977     15976     15974     15982
     15977     15979     15991     15992     15977     15979     15991     15993
     15977     15979     15991     15994     15978     15977     15979     15980
     15978     15977     15979     15981     15978     15977     15979     15991
     15979     15991     15994     15995     15979     15991     15994     15996
     15979     15991     15994     15997     15980     15979     15991     15992
     15980     15979     15991     15993     15980     15979     15991     15994
     15981     15979     15991     15992     15981     15979     15991     15993
     15981     15979     15991     15994     15982     15985     15986     15987
     15982     15985     15986     15988     15983     15982     15985     15986
     15984     15982     15985     15986     15985     15986     15988     15989
     15985     15986     15988     15990     15985     15986     15988     16038
     15986     15988     16038     16039     15986     15988     16038     16040
     15986     15988     16038     16041     15987     15986     15988     15989
     15987     15986     15988     15990     15987     15986     15988     16038
     15988     16038     16041     16042     15988     16038     16041     16043
     15988     16038     16041     16044     15989     15988     16038     16039
     15989     15988     16038     16040     15989     15988     16038     16041
     15990     15988     16038     16039     15990     15988     16038     16040
     15990     15988     16038     16041     15991     15994     15997     15998
     15991     15994     15997     15999     15991     15994     15997     16000
     15992     15991     15994     15995     15992     15991     15994     15996
     15992     15991     15994     15997     15993     15991     15994     15995
     15993     15991     15994     15996     15993     15991     15994     15997
     15994     15997     16000     16001     15994     15997     16000     16002
     15994     15997     16000     16003     15995     15994     15997     15998
     15995     15994     15997     15999     15995     15994     15997     16000
     15996     15994     15997     15998     15996     15994     15997     15999
     15996     15994     15997     16000     15997     16000     16003     16004
     15997     16000     16003     16005     15997     16000     16003     16006
     15998     15997     16000     16001     15998     15997     16000     16002
     15998     15997     16000     16003     15999     15997     16000     16001
     15999     15997     16000     16002     15999     15997     16000     16003
     16000     16003     16006     16007     16000     16003     16006     16008
     16000     16003     16006     16009     16001     16000     16003     16004
     16001     16000     16003     16005     16001     16000     16003     16006
     16002     16000     16003     16004     16002     16000     16003     16005
     16002     16000     16003     16006     16003     16006     16009     16010
     16003     16006     16009     16011     16004     16003     16006     16007
     16004     16003     16006     16008     16004     16003     16006     16009
     16005     16003     16006     16007     16005     16003     16006     16008
     16005     16003     16006     16009     16006     16009     16011     16012
     16006     16009     16011     16013     16007     16006     16009     16010
     16007     16006     16009     16011     16008     16006     16009     16010
     16008     16006     16009     16011     16009     16011     16013     16014
     16009     16011     16013     16015     16009     16011     16013     16016
     16010     16009     16011     16012     16010     16009     16011     16013
     16011     16013     16016     16017     16011     16013     16016     16018
     16011     16013     16016     16019     16012     16011     16013     16014
     16012     16011     16013     16015     16012     16011     16013     16016
     16013     16016     16019     16020     16013     16016     16019     16021
     16013     16016     16019     16022     16014     16013     16016     16017
     16014     16013     16016     16018     16014     16013     16016     16019
     16015     16013     16016     16017     16015     16013     16016     16018
     16015     16013     16016     16019     16016     16019     16022     16023
     16016     16019     16022     16024     16016     16019     16022     16025
     16017     16016     16019     16020     16017     16016     16019     16021
     16017     16016     16019     16022     16018     16016     16019     16020
     16018     16016     16019     16021     16018     16016     16019     16022
     16019     16022     16025     16026     16019     16022     16025     16027
     16019     16022     16025     16028     16020     16019     16022     16023
     16020     16019     16022     16024     16020     16019     16022     16025
     16021     16019     16022     16023     16021     16019     16022     16024
     16021     16019     16022     16025     16022     16025     16028     16029
     16022     16025     16028     16030     16022     16025     16028     16031
     16023     16022     16025     16026     16023     16022     16025     16027
     16023     16022     16025     16028     16024     16022     16025     16026
     16024     16022     16025     16027     16024     16022     16025     16028
     16025     16028     16031     16032     16025     16028     16031     16033
     16025     16028     16031     16034     16026     16025     16028     16029
     16026     16025     16028     16030     16026     16025     16028     16031
     16027     16025     16028     16029     16027     16025     16028     16030
     16027     16025     16028     16031     16028     16031     16034     16035
     16028     16031     16034     16036     16028     16031     16034     16037
     16029     16028     16031     16032     16029     16028     16031     16033
     16029     16028     16031     16034     16030     16028     16031     16032
     16030     16028     16031     16033     16030     16028     16031     16034
     16032     16031     16034     16035     16032     16031     16034     16036
     16032     16031     16034     16037     16033     16031     16034     16035
     16033     16031     16034     16036     16033     16031     16034     16037
     16038     16041     16044     16045     16038     16041     16044     16046
     16038     16041     16044     16047     16039     16038     16041     16042
     16039     16038     16041     16043     16039     16038     16041     16044
     16040     16038     16041     16042     16040     16038     16041     16043
     16040     16038     16041     16044     16041     16044     16047     16048
     16041     16044     16047     16049     16041     16044     16047     16050
     16042     16041     16044     16045     16042     16041     16044     16046
     16042     16041     16044     16047     16043     16041     16044     16045
     16043     16041     16044     16046     16043     16041     16044     16047
     16044     16047     16050     16051     16044     16047     16050     16052
     16044     16047     16050     16053     16045     16044     16047     16048
     16045     16044     16047     16049     16045     16044     16047     16050
     16046     16044     16047     16048     16046     16044     16047     16049
     16046     16044     16047     16050     16047     16050     16053     16054
     16047     16050     16053     16055     16047     16050     16053     16056
     16048     16047     16050     16051     16048     16047     16050     16052
     16048     16047     16050     16053     16049     16047     16050     16051
     16049     16047     16050     16052     16049     16047     16050     16053
     16050     16053     16056     16057     16050     16053     16056     16058
     16050     16053     16056     16059     16051     16050     16053     16054
     16051     16050     16053     16055     16051     16050     16053     16056
     16052     16050     16053     16054     16052     16050     16053     16055
     16052     16050     16053     16056     16053     16056     16059     16060
     16053     16056     16059     16061     16053     16056     16059     16062
     16054     16053     16056     16057     16054     16053     16056     16058
     16054     16053     16056     16059     16055     16053     16056     16057
     16055     16053     16056     16058     16055     16053     16056     16059
     16056     16059     16062     16063     16056     16059     16062     16064
     16056     16059     16062     16065     16057     16056     16059     16060
     16057     16056     16059     16061     16057     16056     16059     16062
     16058     16056     16059     16060     16058     16056     16059     16061
     16058     16056     16059     16062     16059     16062     16065     16066
     16059     16062     16065     16067     16059     16062     16065     16068
     16060     16059     16062     16063     16060     16059     16062     16064
     16060     16059     16062     16065     16061     16059     16062     16063
     16061     16059     16062     16064     16061     16059     16062     16065
     16062     16065     16068     16069     16062     16065     16068     16070
     16062     16065     16068     16071     16063     16062     16065     16066
     16063     16062     16065     16067     16063     16062     16065     16068
     16064     16062     16065     16066     16064     16062     16065     16067
     16064     16062     16065     16068     16065     16068     16071     16072
     16065     16068     16071     16073     16065     16068     16071     16074
     16066     16065     16068     16069     16066     16065     16068     16070
     16066     16065     16068     16071     16067     16065     16068     16069
     16067     16065     16068     16070     16067     16065     16068     16071
     16068     16071     16074     16075     16068     16071     16074     16076
     16068     16071     16074     16077     16069     16068     16071     16072
     16069     16068     16071     16073     16069     16068     16071     16074
     16070     16068     16071     16072     16070     16068     16071     16073
     16070     16068     16071     16074     16071     16074     16077     16078
     16071     16074     16077     16079     16071     16074     16077     16080
     16072     16071     16074     16075     16072     16071     16074     16076
     16072     16071     16074     16077     16073     16071     16074     16075
     16073     16071     16074     16076     16073     16071     16074     16077
     16075     16074     16077     16078     16075     16074     16077     16079
     16075     16074     16077     16080     16076     16074     16077     16078
     16076     16074     16077     16079     16076     16074     16077     16080
     16081     16082     16097     16098     16081     16082     16097     16099
     16081     16082     16097     16103     16082     16081     16085     16086
     16082     16081     16085     16087     16082     16081     16085     16088
     16082     16081     16089     16090     16082     16081     16089     16091
     16082     16081     16089     16092     16082     16081     16093     16094
     16082     16081     16093     16095     16082     16081     16093     16096
     16082     16097     16103     16100     16083     16082     16081     16085
     16083     16082     16081     16089     16083     16082     16081     16093
     16083     16082     16097     16098     16083     16082     16097     16099
     16083     16082     16097     16103     16084     16082     16081     16085
     16084     16082     16081     16089     16084     16082     16081     16093
     16084     16082     16097     16098     16084     16082     16097     16099
     16084     16082     16097     16103     16085     16081     16082     16097
     16085     16081     16089     16090     16085     16081     16089     16091
     16085     16081     16089     16092     16085     16081     16093     16094
     16085     16081     16093     16095     16085     16081     16093     16096
     16086     16085     16081     16089     16086     16085     16081     16093
     16087     16085     16081     16089     16087     16085     16081     16093
     16088     16085     16081     16089     16088     16085     16081     16093
     16089     16081     16082     16097     16089     16081     16093     16094
     16089     16081     16093     16095     16089     16081     16093     16096
     16090     16089     16081     16093     16091     16089     16081     16093
     16092     16089     16081     16093     16093     16081     16082     16097
     16097     16103     16100     16101     16097     16103     16100     16102
     16097     16103     16100     16104     16098     16097     16103     16100
     16099     16097     16103     16100     16100     16104     16105     16106
     16100     16104     16105     16107     16100     16104     16105     16108
     16101     16100     16104     16105     16102     16100     16104     16105
     16103     16100     16104     16105     16104     16105     16108     16109
     16104     16105     16108     16110     16104     16105     16108     16116
     16105     16108     16110     16111     16105     16108     16116     16117
     16105     16108     16116     16118     16105     16108     16116     16119
     16106     16105     16108     16109     16106     16105     16108     16110
     16106     16105     16108     16116     16107     16105     16108     16109
     16107     16105     16108     16110     16107     16105     16108     16116
     16108     16110     16111     16112     16108     16110     16111     16113
     16108     16116     16119     16120     16109     16108     16110     16111
     16109     16108     16116     16117     16109     16108     16116     16118
     16109     16108     16116     16119     16110     16108     16116     16117
     16110     16108     16116     16118     16110     16108     16116     16119
     16110     16111     16113     16114     16110     16111     16113     16115
     16110     16111     16113     16125     16111     16110     16108     16116
     16111     16113     16125     16126     16111     16113     16125     16127
     16111     16113     16125     16128     16112     16111     16113     16114
     16112     16111     16113     16115     16112     16111     16113     16125
     16113     16125     16128     16129     16113     16125     16128     16130
     16113     16125     16128     16131     16114     16113     16125     16126
     16114     16113     16125     16127     16114     16113     16125     16128
     16115     16113     16125     16126     16115     16113     16125     16127
     16115     16113     16125     16128     16116     16119     16120     16121
     16116     16119     16120     16122     16117     16116     16119     16120
     16118     16116     16119     16120     16119     16120     16122     16123
     16119     16120     16122     16124     16119     16120     16122     16172
     16120     16122     16172     16173     16120     16122     16172     16174
     16120     16122     16172     16175     16121     16120     16122     16123
     16121     16120     16122     16124     16121     16120     16122     16172
     16122     16172     16175     16176     16122     16172     16175     16177
     16122     16172     16175     16178     16123     16122     16172     16173
     16123     16122     16172     16174     16123     16122     16172     16175
     16124     16122     16172     16173     16124     16122     16172     16174
     16124     16122     16172     16175     16125     16128     16131     16132
     16125     16128     16131     16133     16125     16128     16131     16134
     16126     16125     16128     16129     16126     16125     16128     16130
     16126     16125     16128     16131     16127     16125     16128     16129
     16127     16125     16128     16130     16127     16125     16128     16131
     16128     16131     16134     16135     16128     16131     16134     16136
     16128     16131     16134     16137     16129     16128     16131     16132
     16129     16128     16131     16133     16129     16128     16131     16134
     16130     16128     16131     16132     16130     16128     16131     16133
     16130     16128     16131     16134     16131     16134     16137     16138
     16131     16134     16137     16139     16131     16134     16137     16140
     16132     16131     16134     16135     16132     16131     16134     16136
     16132     16131     16134     16137     16133     16131     16134     16135
     16133     16131     16134     16136     16133     16131     16134     16137
     16134     16137     16140     16141     16134     16137     16140     16142
     16134     16137     16140     16143     16135     16134     16137     16138
     16135     16134     16137     16139     16135     16134     16137     16140
     16136     16134     16137     16138     16136     16134     16137     16139
     16136     16134     16137     16140     16137     16140     16143     16144
     16137     16140     16143     16145     16138     16137     16140     16141
     16138     16137     16140     16142     16138     16137     16140     16143
     16139     16137     16140     16141     16139     16137     16140     16142
     16139     16137     16140     16143     16140     16143     16145     16146
     16140     16143     16145     16147     16141     16140     16143     16144
     16141     16140     16143     16145     16142     16140     16143     16144
     16142     16140     16143     16145     16143     16145     16147     16148
     16143     16145     16147     16149     16143     16145     16147     16150
     16144     16143     16145     16146     16144     16143     16145     16147
     16145     16147     16150     16151     16145     16147     16150     16152
     16145     16147     16150     16153     16146     16145     16147     16148
     16146     16145     16147     16149     16146     16145     16147     16150
     16147     16150     16153     16154     16147     16150     16153     16155
     16147     16150     16153     16156     16148     16147     16150     16151
     16148     16147     16150     16152     16148     16147     16150     16153
     16149     16147     16150     16151     16149     16147     16150     16152
     16149     16147     16150     16153     16150     16153     16156     16157
     16150     16153     16156     16158     16150     16153     16156     16159
     16151     16150     16153     16154     16151     16150     16153     16155
     16151     16150     16153     16156     16152     16150     16153     16154
     16152     16150     16153     16155     16152     16150     16153     16156
     16153     16156     16159     16160     16153     16156     16159     16161
     16153     16156     16159     16162     16154     16153     16156     16157
     16154     16153     16156     16158     16154     16153     16156     16159
     16155     16153     16156     16157     16155     16153     16156     16158
     16155     16153     16156     16159     16156     16159     16162     16163
     16156     16159     16162     16164     16156     16159     16162     16165
     16157     16156     16159     16160     16157     16156     16159     16161
     16157     16156     16159     16162     16158     16156     16159     16160
     16158     16156     16159     16161     16158     16156     16159     16162
     16159     16162     16165     16166     16159     16162     16165     16167
     16159     16162     16165     16168     16160     16159     16162     16163
     16160     16159     16162     16164     16160     16159     16162     16165
     16161     16159     16162     16163     16161     16159     16162     16164
     16161     16159     16162     16165     16162     16165     16168     16169
     16162     16165     16168     16170     16162     16165     16168     16171
     16163     16162     16165     16166     16163     16162     16165     16167
     16163     16162     16165     16168     16164     16162     16165     16166
     16164     16162     16165     16167     16164     16162     16165     16168
     16166     16165     16168     16169     16166     16165     16168     16170
     16166     16165     16168     16171     16167     16165     16168     16169
     16167     16165     16168     16170     16167     16165     16168     16171
     16172     16175     16178     16179     16172     16175     16178     16180
     16172     16175     16178     16181     16173     16172     16175     16176
     16173     16172     16175     16177     16173     16172     16175     16178
     16174     16172     16175     16176     16174     16172     16175     16177
     16174     16172     16175     16178     16175     16178     16181     16182
     16175     16178     16181     16183     16175     16178     16181     16184
     16176     16175     16178     16179     16176     16175     16178     16180
     16176     16175     16178     16181     16177     16175     16178     16179
     16177     16175     16178     16180     16177     16175     16178     16181
     16178     16181     16184     16185     16178     16181     16184     16186
     16178     16181     16184     16187     16179     16178     16181     16182
     16179     16178     16181     16183     16179     16178     16181     16184
     16180     16178     16181     16182     16180     16178     16181     16183
     16180     16178     16181     16184     16181     16184     16187     16188
     16181     16184     16187     16189     16181     16184     16187     16190
     16182     16181     16184     16185     16182     16181     16184     16186
     16182     16181     16184     16187     16183     16181     16184     16185
     16183     16181     16184     16186     16183     16181     16184     16187
     16184     16187     16190     16191     16184     16187     16190     16192
     16184     16187     16190     16193     16185     16184     16187     16188
     16185     16184     16187     16189     16185     16184     16187     16190
     16186     16184     16187     16188     16186     16184     16187     16189
     16186     16184     16187     16190     16187     16190     16193     16194
     16187     16190     16193     16195     16187     16190     16193     16196
     16188     16187     16190     16191     16188     16187     16190     16192
     16188     16187     16190     16193     16189     16187     16190     16191
     16189     16187     16190     16192     16189     16187     16190     16193
     16190     16193     16196     16197     16190     16193     16196     16198
     16190     16193     16196     16199     16191     16190     16193     16194
     16191     16190     16193     16195     16191     16190     16193     16196
     16192     16190     16193     16194     16192     16190     16193     16195
     16192     16190     16193     16196     16193     16196     16199     16200
     16193     16196     16199     16201     16193     16196     16199     16202
     16194     16193     16196     16197     16194     16193     16196     16198
     16194     16193     16196     16199     16195     16193     16196     16197
     16195     16193     16196     16198     16195     16193     16196     16199
     16196     16199     16202     16203     16196     16199     16202     16204
     16196     16199     16202     16205     16197     16196     16199     16200
     16197     16196     16199     16201     16197     16196     16199     16202
     16198     16196     16199     16200     16198     16196     16199     16201
     16198     16196     16199     16202     16199     16202     16205     16206
     16199     16202     16205     16207     16199     16202     16205     16208
     16200     16199     16202     16203     16200     16199     16202     16204
     16200     16199     16202     16205     16201     16199     16202     16203
     16201     16199     16202     16204     16201     16199     16202     16205
     16202     16205     16208     16209     16202     16205     16208     16210
     16202     16205     16208     16211     16203     16202     16205     16206
     16203     16202     16205     16207     16203     16202     16205     16208
     16204     16202     16205     16206     16204     16202     16205     16207
     16204     16202     16205     16208     16205     16208     16211     16212
     16205     16208     16211     16213     16205     16208     16211     16214
     16206     16205     16208     16209     16206     16205     16208     16210
     16206     16205     16208     16211     16207     16205     16208     16209
     16207     16205     16208     16210     16207     16205     16208     16211
     16209     16208     16211     16212     16209     16208     16211     16213
     16209     16208     16211     16214     16210     16208     16211     16212
     16210     16208     16211     16213     16210     16208     16211     16214
     16215     16216     16231     16232     16215     16216     16231     16233
     16215     16216     16231     16237     16216     16215     16219     16220
     16216     16215     16219     16221     16216     16215     16219     16222
     16216     16215     16223     16224     16216     16215     16223     16225
     16216     16215     16223     16226     16216     16215     16227     16228
     16216     16215     16227     16229     16216     16215     16227     16230
     16216     16231     16237     16234     16217     16216     16215     16219
     16217     16216     16215     16223     16217     16216     16215     16227
     16217     16216     16231     16232     16217     16216     16231     16233
     16217     16216     16231     16237     16218     16216     16215     16219
     16218     16216     16215     16223     16218     16216     16215     16227
     16218     16216     16231     16232     16218     16216     16231     16233
     16218     16216     16231     16237     16219     16215     16216     16231
     16219     16215     16223     16224     16219     16215     16223     16225
     16219     16215     16223     16226     16219     16215     16227     16228
     16219     16215     16227     16229     16219     16215     16227     16230
     16220     16219     16215     16223     16220     16219     16215     16227
     16221     16219     16215     16223     16221     16219     16215     16227
     16222     16219     16215     16223     16222     16219     16215     16227
     16223     16215     16216     16231     16223     16215     16227     16228
     16223     16215     16227     16229     16223     16215     16227     16230
     16224     16223     16215     16227     16225     16223     16215     16227
     16226     16223     16215     16227     16227     16215     16216     16231
     16231     16237     16234     16235     16231     16237     16234     16236
     16231     16237     16234     16238     16232     16231     16237     16234
     16233     16231     16237     16234     16234     16238     16239     16240
     16234     16238     16239     16241     16234     16238     16239     16242
     16235     16234     16238     16239     16236     16234     16238     16239
     16237     16234     16238     16239     16238     16239     16242     16243
     16238     16239     16242     16244     16238     16239     16242     16250
     16239     16242     16244     16245     16239     16242     16250     16251
     16239     16242     16250     16252     16239     16242     16250     16253
     16240     16239     16242     16243     16240     16239     16242     16244
     16240     16239     16242     16250     16241     16239     16242     16243
     16241     16239     16242     16244     16241     16239     16242     16250
     16242     16244     16245     16246     16242     16244     16245     16247
     16242     16250     16253     16254     16243     16242     16244     16245
     16243     16242     16250     16251     16243     16242     16250     16252
     16243     16242     16250     16253     16244     16242     16250     16251
     16244     16242     16250     16252     16244     16242     16250     16253
     16244     16245     16247     16248     16244     16245     16247     16249
     16244     16245     16247     16259     16245     16244     16242     16250
     16245     16247     16259     16260     16245     16247     16259     16261
     16245     16247     16259     16262     16246     16245     16247     16248
     16246     16245     16247     16249     16246     16245     16247     16259
     16247     16259     16262     16263     16247     16259     16262     16264
     16247     16259     16262     16265     16248     16247     16259     16260
     16248     16247     16259     16261     16248     16247     16259     16262
     16249     16247     16259     16260     16249     16247     16259     16261
     16249     16247     16259     16262     16250     16253     16254     16255
     16250     16253     16254     16256     16251     16250     16253     16254
     16252     16250     16253     16254     16253     16254     16256     16257
     16253     16254     16256     16258     16253     16254     16256     16306
     16254     16256     16306     16307     16254     16256     16306     16308
     16254     16256     16306     16309     16255     16254     16256     16257
     16255     16254     16256     16258     16255     16254     16256     16306
     16256     16306     16309     16310     16256     16306     16309     16311
     16256     16306     16309     16312     16257     16256     16306     16307
     16257     16256     16306     16308     16257     16256     16306     16309
     16258     16256     16306     16307     16258     16256     16306     16308
     16258     16256     16306     16309     16259     16262     16265     16266
     16259     16262     16265     16267     16259     16262     16265     16268
     16260     16259     16262     16263     16260     16259     16262     16264
     16260     16259     16262     16265     16261     16259     16262     16263
     16261     16259     16262     16264     16261     16259     16262     16265
     16262     16265     16268     16269     16262     16265     16268     16270
     16262     16265     16268     16271     16263     16262     16265     16266
     16263     16262     16265     16267     16263     16262     16265     16268
     16264     16262     16265     16266     16264     16262     16265     16267
     16264     16262     16265     16268     16265     16268     16271     16272
     16265     16268     16271     16273     16265     16268     16271     16274
     16266     16265     16268     16269     16266     16265     16268     16270
     16266     16265     16268     16271     16267     16265     16268     16269
     16267     16265     16268     16270     16267     16265     16268     16271
     16268     16271     16274     16275     16268     16271     16274     16276
     16268     16271     16274     16277     16269     16268     16271     16272
     16269     16268     16271     16273     16269     16268     16271     16274
     16270     16268     16271     16272     16270     16268     16271     16273
     16270     16268     16271     16274     16271     16274     16277     16278
     16271     16274     16277     16279     16272     16271     16274     16275
     16272     16271     16274     16276     16272     16271     16274     16277
     16273     16271     16274     16275     16273     16271     16274     16276
     16273     16271     16274     16277     16274     16277     16279     16280
     16274     16277     16279     16281     16275     16274     16277     16278
     16275     16274     16277     16279     16276     16274     16277     16278
     16276     16274     16277     16279     16277     16279     16281     16282
     16277     16279     16281     16283     16277     16279     16281     16284
     16278     16277     16279     16280     16278     16277     16279     16281
     16279     16281     16284     16285     16279     16281     16284     16286
     16279     16281     16284     16287     16280     16279     16281     16282
     16280     16279     16281     16283     16280     16279     16281     16284
     16281     16284     16287     16288     16281     16284     16287     16289
     16281     16284     16287     16290     16282     16281     16284     16285
     16282     16281     16284     16286     16282     16281     16284     16287
     16283     16281     16284     16285     16283     16281     16284     16286
     16283     16281     16284     16287     16284     16287     16290     16291
     16284     16287     16290     16292     16284     16287     16290     16293
     16285     16284     16287     16288     16285     16284     16287     16289
     16285     16284     16287     16290     16286     16284     16287     16288
     16286     16284     16287     16289     16286     16284     16287     16290
     16287     16290     16293     16294     16287     16290     16293     16295
     16287     16290     16293     16296     16288     16287     16290     16291
     16288     16287     16290     16292     16288     16287     16290     16293
     16289     16287     16290     16291     16289     16287     16290     16292
     16289     16287     16290     16293     16290     16293     16296     16297
     16290     16293     16296     16298     16290     16293     16296     16299
     16291     16290     16293     16294     16291     16290     16293     16295
     16291     16290     16293     16296     16292     16290     16293     16294
     16292     16290     16293     16295     16292     16290     16293     16296
     16293     16296     16299     16300     16293     16296     16299     16301
     16293     16296     16299     16302     16294     16293     16296     16297
     16294     16293     16296     16298     16294     16293     16296     16299
     16295     16293     16296     16297     16295     16293     16296     16298
     16295     16293     16296     16299     16296     16299     16302     16303
     16296     16299     16302     16304     16296     16299     16302     16305
     16297     16296     16299     16300     16297     16296     16299     16301
     16297     16296     16299     16302     16298     16296     16299     16300
     16298     16296     16299     16301     16298     16296     16299     16302
     16300     16299     16302     16303     16300     16299     16302     16304
     16300     16299     16302     16305     16301     16299     16302     16303
     16301     16299     16302     16304     16301     16299     16302     16305
     16306     16309     16312     16313     16306     16309     16312     16314
     16306     16309     16312     16315     16307     16306     16309     16310
     16307     16306     16309     16311     16307     16306     16309     16312
     16308     16306     16309     16310     16308     16306     16309     16311
     16308     16306     16309     16312     16309     16312     16315     16316
     16309     16312     16315     16317     16309     16312     16315     16318
     16310     16309     16312     16313     16310     16309     16312     16314
     16310     16309     16312     16315     16311     16309     16312     16313
     16311     16309     16312     16314     16311     16309     16312     16315
     16312     16315     16318     16319     16312     16315     16318     16320
     16312     16315     16318     16321     16313     16312     16315     16316
     16313     16312     16315     16317     16313     16312     16315     16318
     16314     16312     16315     16316     16314     16312     16315     16317
     16314     16312     16315     16318     16315     16318     16321     16322
     16315     16318     16321     16323     16315     16318     16321     16324
     16316     16315     16318     16319     16316     16315     16318     16320
     16316     16315     16318     16321     16317     16315     16318     16319
     16317     16315     16318     16320     16317     16315     16318     16321
     16318     16321     16324     16325     16318     16321     16324     16326
     16318     16321     16324     16327     16319     16318     16321     16322
     16319     16318     16321     16323     16319     16318     16321     16324
     16320     16318     16321     16322     16320     16318     16321     16323
     16320     16318     16321     16324     16321     16324     16327     16328
     16321     16324     16327     16329     16321     16324     16327     16330
     16322     16321     16324     16325     16322     16321     16324     16326
     16322     16321     16324     16327     16323     16321     16324     16325
     16323     16321     16324     16326     16323     16321     16324     16327
     16324     16327     16330     16331     16324     16327     16330     16332
     16324     16327     16330     16333     16325     16324     16327     16328
     16325     16324     16327     16329     16325     16324     16327     16330
     16326     16324     16327     16328     16326     16324     16327     16329
     16326     16324     16327     16330     16327     16330     16333     16334
     16327     16330     16333     16335     16327     16330     16333     16336
     16328     16327     16330     16331     16328     16327     16330     16332
     16328     16327     16330     16333     16329     16327     16330     16331
     16329     16327     16330     16332     16329     16327     16330     16333
     16330     16333     16336     16337     16330     16333     16336     16338
     16330     16333     16336     16339     16331     16330     16333     16334
     16331     16330     16333     16335     16331     16330     16333     16336
     16332     16330     16333     16334     16332     16330     16333     16335
     16332     16330     16333     16336     16333     16336     16339     16340
     16333     16336     16339     16341     16333     16336     16339     16342
     16334     16333     16336     16337     16334     16333     16336     16338
     16334     16333     16336     16339     16335     16333     16336     16337
     16335     16333     16336     16338     16335     16333     16336     16339
     16336     16339     16342     16343     16336     16339     16342     16344
     16336     16339     16342     16345     16337     16336     16339     16340
     16337     16336     16339     16341     16337     16336     16339     16342
     16338     16336     16339     16340     16338     16336     16339     16341
     16338     16336     16339     16342     16339     16342     16345     16346
     16339     16342     16345     16347     16339     16342     16345     16348
     16340     16339     16342     16343     16340     16339     16342     16344
     16340     16339     16342     16345     16341     16339     16342     16343
     16341     16339     16342     16344     16341     16339     16342     16345
     16343     16342     16345     16346     16343     16342     16345     16347
     16343     16342     16345     16348     16344     16342     16345     16346
     16344     16342     16345     16347     16344     16342     16345     16348
     16349     16350     16365     16366     16349     16350     16365     16367
     16349     16350     16365     16371     16350     16349     16353     16354
     16350     16349     16353     16355     16350     16349     16353     16356
     16350     16349     16357     16358     16350     16349     16357     16359
     16350     16349     16357     16360     16350     16349     16361     16362
     16350     16349     16361     16363     16350     16349     16361     16364
     16350     16365     16371     16368     16351     16350     16349     16353
     16351     16350     16349     16357     16351     16350     16349     16361
     16351     16350     16365     16366     16351     16350     16365     16367
     16351     16350     16365     16371     16352     16350     16349     16353
     16352     16350     16349     16357     16352     16350     16349     16361
     16352     16350     16365     16366     16352     16350     16365     16367
     16352     16350     16365     16371     16353     16349     16350     16365
     16353     16349     16357     16358     16353     16349     16357     16359
     16353     16349     16357     16360     16353     16349     16361     16362
     16353     16349     16361     16363     16353     16349     16361     16364
     16354     16353     16349     16357     16354     16353     16349     16361
     16355     16353     16349     16357     16355     16353     16349     16361
     16356     16353     16349     16357     16356     16353     16349     16361
     16357     16349     16350     16365     16357     16349     16361     16362
     16357     16349     16361     16363     16357     16349     16361     16364
     16358     16357     16349     16361     16359     16357     16349     16361
     16360     16357     16349     16361     16361     16349     16350     16365
     16365     16371     16368     16369     16365     16371     16368     16370
     16365     16371     16368     16372     16366     16365     16371     16368
     16367     16365     16371     16368     16368     16372     16373     16374
     16368     16372     16373     16375     16368     16372     16373     16376
     16369     16368     16372     16373     16370     16368     16372     16373
     16371     16368     16372     16373     16372     16373     16376     16377
     16372     16373     16376     16378     16372     16373     16376     16384
     16373     16376     16378     16379     16373     16376     16384     16385
     16373     16376     16384     16386     16373     16376     16384     16387
     16374     16373     16376     16377     16374     16373     16376     16378
     16374     16373     16376     16384     16375     16373     16376     16377
     16375     16373     16376     16378     16375     16373     16376     16384
     16376     16378     16379     16380     16376     16378     16379     16381
     16376     16384     16387     16388     16377     16376     16378     16379
     16377     16376     16384     16385     16377     16376     16384     16386
     16377     16376     16384     16387     16378     16376     16384     16385
     16378     16376     16384     16386     16378     16376     16384     16387
     16378     16379     16381     16382     16378     16379     16381     16383
     16378     16379     16381     16393     16379     16378     16376     16384
     16379     16381     16393     16394     16379     16381     16393     16395
     16379     16381     16393     16396     16380     16379     16381     16382
     16380     16379     16381     16383     16380     16379     16381     16393
     16381     16393     16396     16397     16381     16393     16396     16398
     16381     16393     16396     16399     16382     16381     16393     16394
     16382     16381     16393     16395     16382     16381     16393     16396
     16383     16381     16393     16394     16383     16381     16393     16395
     16383     16381     16393     16396     16384     16387     16388     16389
     16384     16387     16388     16390     16385     16384     16387     16388
     16386     16384     16387     16388     16387     16388     16390     16391
     16387     16388     16390     16392     16387     16388     16390     16440
     16388     16390     16440     16441     16388     16390     16440     16442
     16388     16390     16440     16443     16389     16388     16390     16391
     16389     16388     16390     16392     16389     16388     16390     16440
     16390     16440     16443     16444     16390     16440     16443     16445
     16390     16440     16443     16446     16391     16390     16440     16441
     16391     16390     16440     16442     16391     16390     16440     16443
     16392     16390     16440     16441     16392     16390     16440     16442
     16392     16390     16440     16443     16393     16396     16399     16400
     16393     16396     16399     16401     16393     16396     16399     16402
     16394     16393     16396     16397     16394     16393     16396     16398
     16394     16393     16396     16399     16395     16393     16396     16397
     16395     16393     16396     16398     16395     16393     16396     16399
     16396     16399     16402     16403     16396     16399     16402     16404
     16396     16399     16402     16405     16397     16396     16399     16400
     16397     16396     16399     16401     16397     16396     16399     16402
     16398     16396     16399     16400     16398     16396     16399     16401
     16398     16396     16399     16402     16399     16402     16405     16406
     16399     16402     16405     16407     16399     16402     16405     16408
     16400     16399     16402     16403     16400     16399     16402     16404
     16400     16399     16402     16405     16401     16399     16402     16403
     16401     16399     16402     16404     16401     16399     16402     16405
     16402     16405     16408     16409     16402     16405     16408     16410
     16402     16405     16408     16411     16403     16402     16405     16406
     16403     16402     16405     16407     16403     16402     16405     16408
     16404     16402     16405     16406     16404     16402     16405     16407
     16404     16402     16405     16408     16405     16408     16411     16412
     16405     16408     16411     16413     16406     16405     16408     16409
     16406     16405     16408     16410     16406     16405     16408     16411
     16407     16405     16408     16409     16407     16405     16408     16410
     16407     16405     16408     16411     16408     16411     16413     16414
     16408     16411     16413     16415     16409     16408     16411     16412
     16409     16408     16411     16413     16410     16408     16411     16412
     16410     16408     16411     16413     16411     16413     16415     16416
     16411     16413     16415     16417     16411     16413     16415     16418
     16412     16411     16413     16414     16412     16411     16413     16415
     16413     16415     16418     16419     16413     16415     16418     16420
     16413     16415     16418     16421     16414     16413     16415     16416
     16414     16413     16415     16417     16414     16413     16415     16418
     16415     16418     16421     16422     16415     16418     16421     16423
     16415     16418     16421     16424     16416     16415     16418     16419
     16416     16415     16418     16420     16416     16415     16418     16421
     16417     16415     16418     16419     16417     16415     16418     16420
     16417     16415     16418     16421     16418     16421     16424     16425
     16418     16421     16424     16426     16418     16421     16424     16427
     16419     16418     16421     16422     16419     16418     16421     16423
     16419     16418     16421     16424     16420     16418     16421     16422
     16420     16418     16421     16423     16420     16418     16421     16424
     16421     16424     16427     16428     16421     16424     16427     16429
     16421     16424     16427     16430     16422     16421     16424     16425
     16422     16421     16424     16426     16422     16421     16424     16427
     16423     16421     16424     16425     16423     16421     16424     16426
     16423     16421     16424     16427     16424     16427     16430     16431
     16424     16427     16430     16432     16424     16427     16430     16433
     16425     16424     16427     16428     16425     16424     16427     16429
     16425     16424     16427     16430     16426     16424     16427     16428
     16426     16424     16427     16429     16426     16424     16427     16430
     16427     16430     16433     16434     16427     16430     16433     16435
     16427     16430     16433     16436     16428     16427     16430     16431
     16428     16427     16430     16432     16428     16427     16430     16433
     16429     16427     16430     16431     16429     16427     16430     16432
     16429     16427     16430     16433     16430     16433     16436     16437
     16430     16433     16436     16438     16430     16433     16436     16439
     16431     16430     16433     16434     16431     16430     16433     16435
     16431     16430     16433     16436     16432     16430     16433     16434
     16432     16430     16433     16435     16432     16430     16433     16436
     16434     16433     16436     16437     16434     16433     16436     16438
     16434     16433     16436     16439     16435     16433     16436     16437
     16435     16433     16436     16438     16435     16433     16436     16439
     16440     16443     16446     16447     16440     16443     16446     16448
     16440     16443     16446     16449     16441     16440     16443     16444
     16441     16440     16443     16445     16441     16440     16443     16446
     16442     16440     16443     16444     16442     16440     16443     16445
     16442     16440     16443     16446     16443     16446     16449     16450
     16443     16446     16449     16451     16443     16446     16449     16452
     16444     16443     16446     16447     16444     16443     16446     16448
     16444     16443     16446     16449     16445     16443     16446     16447
     16445     16443     16446     16448     16445     16443     16446     16449
     16446     16449     16452     16453     16446     16449     16452     16454
     16446     16449     16452     16455     16447     16446     16449     16450
     16447     16446     16449     16451     16447     16446     16449     16452
     16448     16446     16449     16450     16448     16446     16449     16451
     16448     16446     16449     16452     16449     16452     16455     16456
     16449     16452     16455     16457     16449     16452     16455     16458
     16450     16449     16452     16453     16450     16449     16452     16454
     16450     16449     16452     16455     16451     16449     16452     16453
     16451     16449     16452     16454     16451     16449     16452     16455
     16452     16455     16458     16459     16452     16455     16458     16460
     16452     16455     16458     16461     16453     16452     16455     16456
     16453     16452     16455     16457     16453     16452     16455     16458
     16454     16452     16455     16456     16454     16452     16455     16457
     16454     16452     16455     16458     16455     16458     16461     16462
     16455     16458     16461     16463     16455     16458     16461     16464
     16456     16455     16458     16459     16456     16455     16458     16460
     16456     16455     16458     16461     16457     16455     16458     16459
     16457     16455     16458     16460     16457     16455     16458     16461
     16458     16461     16464     16465     16458     16461     16464     16466
     16458     16461     16464     16467     16459     16458     16461     16462
     16459     16458     16461     16463     16459     16458     16461     16464
     16460     16458     16461     16462     16460     16458     16461     16463
     16460     16458     16461     16464     16461     16464     16467     16468
     16461     16464     16467     16469     16461     16464     16467     16470
     16462     16461     16464     16465     16462     16461     16464     16466
     16462     16461     16464     16467     16463     16461     16464     16465
     16463     16461     16464     16466     16463     16461     16464     16467
     16464     16467     16470     16471     16464     16467     16470     16472
     16464     16467     16470     16473     16465     16464     16467     16468
     16465     16464     16467     16469     16465     16464     16467     16470
     16466     16464     16467     16468     16466     16464     16467     16469
     16466     16464     16467     16470     16467     16470     16473     16474
     16467     16470     16473     16475     16467     16470     16473     16476
     16468     16467     16470     16471     16468     16467     16470     16472
     16468     16467     16470     16473     16469     16467     16470     16471
     16469     16467     16470     16472     16469     16467     16470     16473
     16470     16473     16476     16477     16470     16473     16476     16478
     16470     16473     16476     16479     16471     16470     16473     16474
     16471     16470     16473     16475     16471     16470     16473     16476
     16472     16470     16473     16474     16472     16470     16473     16475
     16472     16470     16473     16476     16473     16476     16479     16480
     16473     16476     16479     16481     16473     16476     16479     16482
     16474     16473     16476     16477     16474     16473     16476     16478
     16474     16473     16476     16479     16475     16473     16476     16477
     16475     16473     16476     16478     16475     16473     16476     16479
     16477     16476     16479     16480     16477     16476     16479     16481
     16477     16476     16479     16482     16478     16476     16479     16480
     16478     16476     16479     16481     16478     16476     16479     16482
     16483     16484     16499     16500     16483     16484     16499     16501
     16483     16484     16499     16505     16484     16483     16487     16488
     16484     16483     16487     16489     16484     16483     16487     16490
     16484     16483     16491     16492     16484     16483     16491     16493
     16484     16483     16491     16494     16484     16483     16495     16496
     16484     16483     16495     16497     16484     16483     16495     16498
     16484     16499     16505     16502     16485     16484     16483     16487
     16485     16484     16483     16491     16485     16484     16483     16495
     16485     16484     16499     16500     16485     16484     16499     16501
     16485     16484     16499     16505     16486     16484     16483     16487
     16486     16484     16483     16491     16486     16484     16483     16495
     16486     16484     16499     16500     16486     16484     16499     16501
     16486     16484     16499     16505     16487     16483     16484     16499
     16487     16483     16491     16492     16487     16483     16491     16493
     16487     16483     16491     16494     16487     16483     16495     16496
     16487     16483     16495     16497     16487     16483     16495     16498
     16488     16487     16483     16491     16488     16487     16483     16495
     16489     16487     16483     16491     16489     16487     16483     16495
     16490     16487     16483     16491     16490     16487     16483     16495
     16491     16483     16484     16499     16491     16483     16495     16496
     16491     16483     16495     16497     16491     16483     16495     16498
     16492     16491     16483     16495     16493     16491     16483     16495
     16494     16491     16483     16495     16495     16483     16484     16499
     16499     16505     16502     16503     16499     16505     16502     16504
     16499     16505     16502     16506     16500     16499     16505     16502
     16501     16499     16505     16502     16502     16506     16507     16508
     16502     16506     16507     16509     16502     16506     16507     16510
     16503     16502     16506     16507     16504     16502     16506     16507
     16505     16502     16506     16507     16506     16507     16510     16511
     16506     16507     16510     16512     16506     16507     16510     16518
     16507     16510     16512     16513     16507     16510     16518     16519
     16507     16510     16518     16520     16507     16510     16518     16521
     16508     16507     16510     16511     16508     16507     16510     16512
     16508     16507     16510     16518     16509     16507     16510     16511
     16509     16507     16510     16512     16509     16507     16510     16518
     16510     16512     16513     16514     16510     16512     16513     16515
     16510     16518     16521     16522     16511     16510     16512     16513
     16511     16510     16518     16519     16511     16510     16518     16520
     16511     16510     16518     16521     16512     16510     16518     16519
     16512     16510     16518     16520     16512     16510     16518     16521
     16512     16513     16515     16516     16512     16513     16515     16517
     16512     16513     16515     16527     16513     16512     16510     16518
     16513     16515     16527     16528     16513     16515     16527     16529
     16513     16515     16527     16530     16514     16513     16515     16516
     16514     16513     16515     16517     16514     16513     16515     16527
     16515     16527     16530     16531     16515     16527     16530     16532
     16515     16527     16530     16533     16516     16515     16527     16528
     16516     16515     16527     16529     16516     16515     16527     16530
     16517     16515     16527     16528     16517     16515     16527     16529
     16517     16515     16527     16530     16518     16521     16522     16523
     16518     16521     16522     16524     16519     16518     16521     16522
     16520     16518     16521     16522     16521     16522     16524     16525
     16521     16522     16524     16526     16521     16522     16524     16574
     16522     16524     16574     16575     16522     16524     16574     16576
     16522     16524     16574     16577     16523     16522     16524     16525
     16523     16522     16524     16526     16523     16522     16524     16574
     16524     16574     16577     16578     16524     16574     16577     16579
     16524     16574     16577     16580     16525     16524     16574     16575
     16525     16524     16574     16576     16525     16524     16574     16577
     16526     16524     16574     16575     16526     16524     16574     16576
     16526     16524     16574     16577     16527     16530     16533     16534
     16527     16530     16533     16535     16527     16530     16533     16536
     16528     16527     16530     16531     16528     16527     16530     16532
     16528     16527     16530     16533     16529     16527     16530     16531
     16529     16527     16530     16532     16529     16527     16530     16533
     16530     16533     16536     16537     16530     16533     16536     16538
     16530     16533     16536     16539     16531     16530     16533     16534
     16531     16530     16533     16535     16531     16530     16533     16536
     16532     16530     16533     16534     16532     16530     16533     16535
     16532     16530     16533     16536     16533     16536     16539     16540
     16533     16536     16539     16541     16533     16536     16539     16542
     16534     16533     16536     16537     16534     16533     16536     16538
     16534     16533     16536     16539     16535     16533     16536     16537
     16535     16533     16536     16538     16535     16533     16536     16539
     16536     16539     16542     16543     16536     16539     16542     16544
     16536     16539     16542     16545     16537     16536     16539     16540
     16537     16536     16539     16541     16537     16536     16539     16542
     16538     16536     16539     16540     16538     16536     16539     16541
     16538     16536     16539     16542     16539     16542     16545     16546
     16539     16542     16545     16547     16540     16539     16542     16543
     16540     16539     16542     16544     16540     16539     16542     16545
     16541     16539     16542     16543     16541     16539     16542     16544
     16541     16539     16542     16545     16542     16545     16547     16548
     16542     16545     16547     16549     16543     16542     16545     16546
     16543     16542     16545     16547     16544     16542     16545     16546
     16544     16542     16545     16547     16545     16547     16549     16550
     16545     16547     16549     16551     16545     16547     16549     16552
     16546     16545     16547     16548     16546     16545     16547     16549
     16547     16549     16552     16553     16547     16549     16552     16554
     16547     16549     16552     16555     16548     16547     16549     16550
     16548     16547     16549     16551     16548     16547     16549     16552
     16549     16552     16555     16556     16549     16552     16555     16557
     16549     16552     16555     16558     16550     16549     16552     16553
     16550     16549     16552     16554     16550     16549     16552     16555
     16551     16549     16552     16553     16551     16549     16552     16554
     16551     16549     16552     16555     16552     16555     16558     16559
     16552     16555     16558     16560     16552     16555     16558     16561
     16553     16552     16555     16556     16553     16552     16555     16557
     16553     16552     16555     16558     16554     16552     16555     16556
     16554     16552     16555     16557     16554     16552     16555     16558
     16555     16558     16561     16562     16555     16558     16561     16563
     16555     16558     16561     16564     16556     16555     16558     16559
     16556     16555     16558     16560     16556     16555     16558     16561
     16557     16555     16558     16559     16557     16555     16558     16560
     16557     16555     16558     16561     16558     16561     16564     16565
     16558     16561     16564     16566     16558     16561     16564     16567
     16559     16558     16561     16562     16559     16558     16561     16563
     16559     16558     16561     16564     16560     16558     16561     16562
     16560     16558     16561     16563     16560     16558     16561     16564
     16561     16564     16567     16568     16561     16564     16567     16569
     16561     16564     16567     16570     16562     16561     16564     16565
     16562     16561     16564     16566     16562     16561     16564     16567
     16563     16561     16564     16565     16563     16561     16564     16566
     16563     16561     16564     16567     16564     16567     16570     16571
     16564     16567     16570     16572     16564     16567     16570     16573
     16565     16564     16567     16568     16565     16564     16567     16569
     16565     16564     16567     16570     16566     16564     16567     16568
     16566     16564     16567     16569     16566     16564     16567     16570
     16568     16567     16570     16571     16568     16567     16570     16572
     16568     16567     16570     16573     16569     16567     16570     16571
     16569     16567     16570     16572     16569     16567     16570     16573
     16574     16577     16580     16581     16574     16577     16580     16582
     16574     16577     16580     16583     16575     16574     16577     16578
     16575     16574     16577     16579     16575     16574     16577     16580
     16576     16574     16577     16578     16576     16574     16577     16579
     16576     16574     16577     16580     16577     16580     16583     16584
     16577     16580     16583     16585     16577     16580     16583     16586
     16578     16577     16580     16581     16578     16577     16580     16582
     16578     16577     16580     16583     16579     16577     16580     16581
     16579     16577     16580     16582     16579     16577     16580     16583
     16580     16583     16586     16587     16580     16583     16586     16588
     16580     16583     16586     16589     16581     16580     16583     16584
     16581     16580     16583     16585     16581     16580     16583     16586
     16582     16580     16583     16584     16582     16580     16583     16585
     16582     16580     16583     16586     16583     16586     16589     16590
     16583     16586     16589     16591     16583     16586     16589     16592
     16584     16583     16586     16587     16584     16583     16586     16588
     16584     16583     16586     16589     16585     16583     16586     16587
     16585     16583     16586     16588     16585     16583     16586     16589
     16586     16589     16592     16593     16586     16589     16592     16594
     16586     16589     16592     16595     16587     16586     16589     16590
     16587     16586     16589     16591     16587     16586     16589     16592
     16588     16586     16589     16590     16588     16586     16589     16591
     16588     16586     16589     16592     16589     16592     16595     16596
     16589     16592     16595     16597     16589     16592     16595     16598
     16590     16589     16592     16593     16590     16589     16592     16594
     16590     16589     16592     16595     16591     16589     16592     16593
     16591     16589     16592     16594     16591     16589     16592     16595
     16592     16595     16598     16599     16592     16595     16598     16600
     16592     16595     16598     16601     16593     16592     16595     16596
     16593     16592     16595     16597     16593     16592     16595     16598
     16594     16592     16595     16596     16594     16592     16595     16597
     16594     16592     16595     16598     16595     16598     16601     16602
     16595     16598     16601     16603     16595     16598     16601     16604
     16596     16595     16598     16599     16596     16595     16598     16600
     16596     16595     16598     16601     16597     16595     16598     16599
     16597     16595     16598     16600     16597     16595     16598     16601
     16598     16601     16604     16605     16598     16601     16604     16606
     16598     16601     16604     16607     16599     16598     16601     16602
     16599     16598     16601     16603     16599     16598     16601     16604
     16600     16598     16601     16602     16600     16598     16601     16603
     16600     16598     16601     16604     16601     16604     16607     16608
     16601     16604     16607     16609     16601     16604     16607     16610
     16602     16601     16604     16605     16602     16601     16604     16606
     16602     16601     16604     16607     16603     16601     16604     16605
     16603     16601     16604     16606     16603     16601     16604     16607
     16604     16607     16610     16611     16604     16607     16610     16612
     16604     16607     16610     16613     16605     16604     16607     16608
     16605     16604     16607     16609     16605     16604     16607     16610
     16606     16604     16607     16608     16606     16604     16607     16609
     16606     16604     16607     16610     16607     16610     16613     16614
     16607     16610     16613     16615     16607     16610     16613     16616
     16608     16607     16610     16611     16608     16607     16610     16612
     16608     16607     16610     16613     16609     16607     16610     16611
     16609     16607     16610     16612     16609     16607     16610     16613
     16611     16610     16613     16614     16611     16610     16613     16615
     16611     16610     16613     16616     16612     16610     16613     16614
     16612     16610     16613     16615     16612     16610     16613     16616
     16617     16618     16633     16634     16617     16618     16633     16635
     16617     16618     16633     16639     16618     16617     16621     16622
     16618     16617     16621     16623     16618     16617     16621     16624
     16618     16617     16625     16626     16618     16617     16625     16627
     16618     16617     16625     16628     16618     16617     16629     16630
     16618     16617     16629     16631     16618     16617     16629     16632
     16618     16633     16639     16636     16619     16618     16617     16621
     16619     16618     16617     16625     16619     16618     16617     16629
     16619     16618     16633     16634     16619     16618     16633     16635
     16619     16618     16633     16639     16620     16618     16617     16621
     16620     16618     16617     16625     16620     16618     16617     16629
     16620     16618     16633     16634     16620     16618     16633     16635
     16620     16618     16633     16639     16621     16617     16618     16633
     16621     16617     16625     16626     16621     16617     16625     16627
     16621     16617     16625     16628     16621     16617     16629     16630
     16621     16617     16629     16631     16621     16617     16629     16632
     16622     16621     16617     16625     16622     16621     16617     16629
     16623     16621     16617     16625     16623     16621     16617     16629
     16624     16621     16617     16625     16624     16621     16617     16629
     16625     16617     16618     16633     16625     16617     16629     16630
     16625     16617     16629     16631     16625     16617     16629     16632
     16626     16625     16617     16629     16627     16625     16617     16629
     16628     16625     16617     16629     16629     16617     16618     16633
     16633     16639     16636     16637     16633     16639     16636     16638
     16633     16639     16636     16640     16634     16633     16639     16636
     16635     16633     16639     16636     16636     16640     16641     16642
     16636     16640     16641     16643     16636     16640     16641     16644
     16637     16636     16640     16641     16638     16636     16640     16641
     16639     16636     16640     16641     16640     16641     16644     16645
     16640     16641     16644     16646     16640     16641     16644     16652
     16641     16644     16646     16647     16641     16644     16652     16653
     16641     16644     16652     16654     16641     16644     16652     16655
     16642     16641     16644     16645     16642     16641     16644     16646
     16642     16641     16644     16652     16643     16641     16644     16645
     16643     16641     16644     16646     16643     16641     16644     16652
     16644     16646     16647     16648     16644     16646     16647     16649
     16644     16652     16655     16656     16645     16644     16646     16647
     16645     16644     16652     16653     16645     16644     16652     16654
     16645     16644     16652     16655     16646     16644     16652     16653
     16646     16644     16652     16654     16646     16644     16652     16655
     16646     16647     16649     16650     16646     16647     16649     16651
     16646     16647     16649     16661     16647     16646     16644     16652
     16647     16649     16661     16662     16647     16649     16661     16663
     16647     16649     16661     16664     16648     16647     16649     16650
     16648     16647     16649     16651     16648     16647     16649     16661
     16649     16661     16664     16665     16649     16661     16664     16666
     16649     16661     16664     16667     16650     16649     16661     16662
     16650     16649     16661     16663     16650     16649     16661     16664
     16651     16649     16661     16662     16651     16649     16661     16663
     16651     16649     16661     16664     16652     16655     16656     16657
     16652     16655     16656     16658     16653     16652     16655     16656
     16654     16652     16655     16656     16655     16656     16658     16659
     16655     16656     16658     16660     16655     16656     16658     16708
     16656     16658     16708     16709     16656     16658     16708     16710
     16656     16658     16708     16711     16657     16656     16658     16659
     16657     16656     16658     16660     16657     16656     16658     16708
     16658     16708     16711     16712     16658     16708     16711     16713
     16658     16708     16711     16714     16659     16658     16708     16709
     16659     16658     16708     16710     16659     16658     16708     16711
     16660     16658     16708     16709     16660     16658     16708     16710
     16660     16658     16708     16711     16661     16664     16667     16668
     16661     16664     16667     16669     16661     16664     16667     16670
     16662     16661     16664     16665     16662     16661     16664     16666
     16662     16661     16664     16667     16663     16661     16664     16665
     16663     16661     16664     16666     16663     16661     16664     16667
     16664     16667     16670     16671     16664     16667     16670     16672
     16664     16667     16670     16673     16665     16664     16667     16668
     16665     16664     16667     16669     16665     16664     16667     16670
     16666     16664     16667     16668     16666     16664     16667     16669
     16666     16664     16667     16670     16667     16670     16673     16674
     16667     16670     16673     16675     16667     16670     16673     16676
     16668     16667     16670     16671     16668     16667     16670     16672
     16668     16667     16670     16673     16669     16667     16670     16671
     16669     16667     16670     16672     16669     16667     16670     16673
     16670     16673     16676     16677     16670     16673     16676     16678
     16670     16673     16676     16679     16671     16670     16673     16674
     16671     16670     16673     16675     16671     16670     16673     16676
     16672     16670     16673     16674     16672     16670     16673     16675
     16672     16670     16673     16676     16673     16676     16679     16680
     16673     16676     16679     16681     16674     16673     16676     16677
     16674     16673     16676     16678     16674     16673     16676     16679
     16675     16673     16676     16677     16675     16673     16676     16678
     16675     16673     16676     16679     16676     16679     16681     16682
     16676     16679     16681     16683     16677     16676     16679     16680
     16677     16676     16679     16681     16678     16676     16679     16680
     16678     16676     16679     16681     16679     16681     16683     16684
     16679     16681     16683     16685     16679     16681     16683     16686
     16680     16679     16681     16682     16680     16679     16681     16683
     16681     16683     16686     16687     16681     16683     16686     16688
     16681     16683     16686     16689     16682     16681     16683     16684
     16682     16681     16683     16685     16682     16681     16683     16686
     16683     16686     16689     16690     16683     16686     16689     16691
     16683     16686     16689     16692     16684     16683     16686     16687
     16684     16683     16686     16688     16684     16683     16686     16689
     16685     16683     16686     16687     16685     16683     16686     16688
     16685     16683     16686     16689     16686     16689     16692     16693
     16686     16689     16692     16694     16686     16689     16692     16695
     16687     16686     16689     16690     16687     16686     16689     16691
     16687     16686     16689     16692     16688     16686     16689     16690
     16688     16686     16689     16691     16688     16686     16689     16692
     16689     16692     16695     16696     16689     16692     16695     16697
     16689     16692     16695     16698     16690     16689     16692     16693
     16690     16689     16692     16694     16690     16689     16692     16695
     16691     16689     16692     16693     16691     16689     16692     16694
     16691     16689     16692     16695     16692     16695     16698     16699
     16692     16695     16698     16700     16692     16695     16698     16701
     16693     16692     16695     16696     16693     16692     16695     16697
     16693     16692     16695     16698     16694     16692     16695     16696
     16694     16692     16695     16697     16694     16692     16695     16698
     16695     16698     16701     16702     16695     16698     16701     16703
     16695     16698     16701     16704     16696     16695     16698     16699
     16696     16695     16698     16700     16696     16695     16698     16701
     16697     16695     16698     16699     16697     16695     16698     16700
     16697     16695     16698     16701     16698     16701     16704     16705
     16698     16701     16704     16706     16698     16701     16704     16707
     16699     16698     16701     16702     16699     16698     16701     16703
     16699     16698     16701     16704     16700     16698     16701     16702
     16700     16698     16701     16703     16700     16698     16701     16704
     16702     16701     16704     16705     16702     16701     16704     16706
     16702     16701     16704     16707     16703     16701     16704     16705
     16703     16701     16704     16706     16703     16701     16704     16707
     16708     16711     16714     16715     16708     16711     16714     16716
     16708     16711     16714     16717     16709     16708     16711     16712
     16709     16708     16711     16713     16709     16708     16711     16714
     16710     16708     16711     16712     16710     16708     16711     16713
     16710     16708     16711     16714     16711     16714     16717     16718
     16711     16714     16717     16719     16711     16714     16717     16720
     16712     16711     16714     16715     16712     16711     16714     16716
     16712     16711     16714     16717     16713     16711     16714     16715
     16713     16711     16714     16716     16713     16711     16714     16717
     16714     16717     16720     16721     16714     16717     16720     16722
     16714     16717     16720     16723     16715     16714     16717     16718
     16715     16714     16717     16719     16715     16714     16717     16720
     16716     16714     16717     16718     16716     16714     16717     16719
     16716     16714     16717     16720     16717     16720     16723     16724
     16717     16720     16723     16725     16717     16720     16723     16726
     16718     16717     16720     16721     16718     16717     16720     16722
     16718     16717     16720     16723     16719     16717     16720     16721
     16719     16717     16720     16722     16719     16717     16720     16723
     16720     16723     16726     16727     16720     16723     16726     16728
     16720     16723     16726     16729     16721     16720     16723     16724
     16721     16720     16723     16725     16721     16720     16723     16726
     16722     16720     16723     16724     16722     16720     16723     16725
     16722     16720     16723     16726     16723     16726     16729     16730
     16723     16726     16729     16731     16723     16726     16729     16732
     16724     16723     16726     16727     16724     16723     16726     16728
     16724     16723     16726     16729     16725     16723     16726     16727
     16725     16723     16726     16728     16725     16723     16726     16729
     16726     16729     16732     16733     16726     16729     16732     16734
     16726     16729     16732     16735     16727     16726     16729     16730
     16727     16726     16729     16731     16727     16726     16729     16732
     16728     16726     16729     16730     16728     16726     16729     16731
     16728     16726     16729     16732     16729     16732     16735     16736
     16729     16732     16735     16737     16729     16732     16735     16738
     16730     16729     16732     16733     16730     16729     16732     16734
     16730     16729     16732     16735     16731     16729     16732     16733
     16731     16729     16732     16734     16731     16729     16732     16735
     16732     16735     16738     16739     16732     16735     16738     16740
     16732     16735     16738     16741     16733     16732     16735     16736
     16733     16732     16735     16737     16733     16732     16735     16738
     16734     16732     16735     16736     16734     16732     16735     16737
     16734     16732     16735     16738     16735     16738     16741     16742
     16735     16738     16741     16743     16735     16738     16741     16744
     16736     16735     16738     16739     16736     16735     16738     16740
     16736     16735     16738     16741     16737     16735     16738     16739
     16737     16735     16738     16740     16737     16735     16738     16741
     16738     16741     16744     16745     16738     16741     16744     16746
     16738     16741     16744     16747     16739     16738     16741     16742
     16739     16738     16741     16743     16739     16738     16741     16744
     16740     16738     16741     16742     16740     16738     16741     16743
     16740     16738     16741     16744     16741     16744     16747     16748
     16741     16744     16747     16749     16741     16744     16747     16750
     16742     16741     16744     16745     16742     16741     16744     16746
     16742     16741     16744     16747     16743     16741     16744     16745
     16743     16741     16744     16746     16743     16741     16744     16747
     16745     16744     16747     16748     16745     16744     16747     16749
     16745     16744     16747     16750     16746     16744     16747     16748
     16746     16744     16747     16749     16746     16744     16747     16750
     16751     16752     16767     16768     16751     16752     16767     16769
     16751     16752     16767     16773     16752     16751     16755     16756
     16752     16751     16755     16757     16752     16751     16755     16758
     16752     16751     16759     16760     16752     16751     16759     16761
     16752     16751     16759     16762     16752     16751     16763     16764
     16752     16751     16763     16765     16752     16751     16763     16766
     16752     16767     16773     16770     16753     16752     16751     16755
     16753     16752     16751     16759     16753     16752     16751     16763
     16753     16752     16767     16768     16753     16752     16767     16769
     16753     16752     16767     16773     16754     16752     16751     16755
     16754     16752     16751     16759     16754     16752     16751     16763
     16754     16752     16767     16768     16754     16752     16767     16769
     16754     16752     16767     16773     16755     16751     16752     16767
     16755     16751     16759     16760     16755     16751     16759     16761
     16755     16751     16759     16762     16755     16751     16763     16764
     16755     16751     16763     16765     16755     16751     16763     16766
     16756     16755     16751     16759     16756     16755     16751     16763
     16757     16755     16751     16759     16757     16755     16751     16763
     16758     16755     16751     16759     16758     16755     16751     16763
     16759     16751     16752     16767     16759     16751     16763     16764
     16759     16751     16763     16765     16759     16751     16763     16766
     16760     16759     16751     16763     16761     16759     16751     16763
     16762     16759     16751     16763     16763     16751     16752     16767
     16767     16773     16770     16771     16767     16773     16770     16772
     16767     16773     16770     16774     16768     16767     16773     16770
     16769     16767     16773     16770     16770     16774     16775     16776
     16770     16774     16775     16777     16770     16774     16775     16778
     16771     16770     16774     16775     16772     16770     16774     16775
     16773     16770     16774     16775     16774     16775     16778     16779
     16774     16775     16778     16780     16774     16775     16778     16786
     16775     16778     16780     16781     16775     16778     16786     16787
     16775     16778     16786     16788     16775     16778     16786     16789
     16776     16775     16778     16779     16776     16775     16778     16780
     16776     16775     16778     16786     16777     16775     16778     16779
     16777     16775     16778     16780     16777     16775     16778     16786
     16778     16780     16781     16782     16778     16780     16781     16783
     16778     16786     16789     16790     16779     16778     16780     16781
     16779     16778     16786     16787     16779     16778     16786     16788
     16779     16778     16786     16789     16780     16778     16786     16787
     16780     16778     16786     16788     16780     16778     16786     16789
     16780     16781     16783     16784     16780     16781     16783     16785
     16780     16781     16783     16795     16781     16780     16778     16786
     16781     16783     16795     16796     16781     16783     16795     16797
     16781     16783     16795     16798     16782     16781     16783     16784
     16782     16781     16783     16785     16782     16781     16783     16795
     16783     16795     16798     16799     16783     16795     16798     16800
     16783     16795     16798     16801     16784     16783     16795     16796
     16784     16783     16795     16797     16784     16783     16795     16798
     16785     16783     16795     16796     16785     16783     16795     16797
     16785     16783     16795     16798     16786     16789     16790     16791
     16786     16789     16790     16792     16787     16786     16789     16790
     16788     16786     16789     16790     16789     16790     16792     16793
     16789     16790     16792     16794     16789     16790     16792     16842
     16790     16792     16842     16843     16790     16792     16842     16844
     16790     16792     16842     16845     16791     16790     16792     16793
     16791     16790     16792     16794     16791     16790     16792     16842
     16792     16842     16845     16846     16792     16842     16845     16847
     16792     16842     16845     16848     16793     16792     16842     16843
     16793     16792     16842     16844     16793     16792     16842     16845
     16794     16792     16842     16843     16794     16792     16842     16844
     16794     16792     16842     16845     16795     16798     16801     16802
     16795     16798     16801     16803     16795     16798     16801     16804
     16796     16795     16798     16799     16796     16795     16798     16800
     16796     16795     16798     16801     16797     16795     16798     16799
     16797     16795     16798     16800     16797     16795     16798     16801
     16798     16801     16804     16805     16798     16801     16804     16806
     16798     16801     16804     16807     16799     16798     16801     16802
     16799     16798     16801     16803     16799     16798     16801     16804
     16800     16798     16801     16802     16800     16798     16801     16803
     16800     16798     16801     16804     16801     16804     16807     16808
     16801     16804     16807     16809     16801     16804     16807     16810
     16802     16801     16804     16805     16802     16801     16804     16806
     16802     16801     16804     16807     16803     16801     16804     16805
     16803     16801     16804     16806     16803     16801     16804     16807
     16804     16807     16810     16811     16804     16807     16810     16812
     16804     16807     16810     16813     16805     16804     16807     16808
     16805     16804     16807     16809     16805     16804     16807     16810
     16806     16804     16807     16808     16806     16804     16807     16809
     16806     16804     16807     16810     16807     16810     16813     16814
     16807     16810     16813     16815     16808     16807     16810     16811
     16808     16807     16810     16812     16808     16807     16810     16813
     16809     16807     16810     16811     16809     16807     16810     16812
     16809     16807     16810     16813     16810     16813     16815     16816
     16810     16813     16815     16817     16811     16810     16813     16814
     16811     16810     16813     16815     16812     16810     16813     16814
     16812     16810     16813     16815     16813     16815     16817     16818
     16813     16815     16817     16819     16813     16815     16817     16820
     16814     16813     16815     16816     16814     16813     16815     16817
     16815     16817     16820     16821     16815     16817     16820     16822
     16815     16817     16820     16823     16816     16815     16817     16818
     16816     16815     16817     16819     16816     16815     16817     16820
     16817     16820     16823     16824     16817     16820     16823     16825
     16817     16820     16823     16826     16818     16817     16820     16821
     16818     16817     16820     16822     16818     16817     16820     16823
     16819     16817     16820     16821     16819     16817     16820     16822
     16819     16817     16820     16823     16820     16823     16826     16827
     16820     16823     16826     16828     16820     16823     16826     16829
     16821     16820     16823     16824     16821     16820     16823     16825
     16821     16820     16823     16826     16822     16820     16823     16824
     16822     16820     16823     16825     16822     16820     16823     16826
     16823     16826     16829     16830     16823     16826     16829     16831
     16823     16826     16829     16832     16824     16823     16826     16827
     16824     16823     16826     16828     16824     16823     16826     16829
     16825     16823     16826     16827     16825     16823     16826     16828
     16825     16823     16826     16829     16826     16829     16832     16833
     16826     16829     16832     16834     16826     16829     16832     16835
     16827     16826     16829     16830     16827     16826     16829     16831
     16827     16826     16829     16832     16828     16826     16829     16830
     16828     16826     16829     16831     16828     16826     16829     16832
     16829     16832     16835     16836     16829     16832     16835     16837
     16829     16832     16835     16838     16830     16829     16832     16833
     16830     16829     16832     16834     16830     16829     16832     16835
     16831     16829     16832     16833     16831     16829     16832     16834
     16831     16829     16832     16835     16832     16835     16838     16839
     16832     16835     16838     16840     16832     16835     16838     16841
     16833     16832     16835     16836     16833     16832     16835     16837
     16833     16832     16835     16838     16834     16832     16835     16836
     16834     16832     16835     16837     16834     16832     16835     16838
     16836     16835     16838     16839     16836     16835     16838     16840
     16836     16835     16838     16841     16837     16835     16838     16839
     16837     16835     16838     16840     16837     16835     16838     16841
     16842     16845     16848     16849     16842     16845     16848     16850
     16842     16845     16848     16851     16843     16842     16845     16846
     16843     16842     16845     16847     16843     16842     16845     16848
     16844     16842     16845     16846     16844     16842     16845     16847
     16844     16842     16845     16848     16845     16848     16851     16852
     16845     16848     16851     16853     16845     16848     16851     16854
     16846     16845     16848     16849     16846     16845     16848     16850
     16846     16845     16848     16851     16847     16845     16848     16849
     16847     16845     16848     16850     16847     16845     16848     16851
     16848     16851     16854     16855     16848     16851     16854     16856
     16848     16851     16854     16857     16849     16848     16851     16852
     16849     16848     16851     16853     16849     16848     16851     16854
     16850     16848     16851     16852     16850     16848     16851     16853
     16850     16848     16851     16854     16851     16854     16857     16858
     16851     16854     16857     16859     16851     16854     16857     16860
     16852     16851     16854     16855     16852     16851     16854     16856
     16852     16851     16854     16857     16853     16851     16854     16855
     16853     16851     16854     16856     16853     16851     16854     16857
     16854     16857     16860     16861     16854     16857     16860     16862
     16854     16857     16860     16863     16855     16854     16857     16858
     16855     16854     16857     16859     16855     16854     16857     16860
     16856     16854     16857     16858     16856     16854     16857     16859
     16856     16854     16857     16860     16857     16860     16863     16864
     16857     16860     16863     16865     16857     16860     16863     16866
     16858     16857     16860     16861     16858     16857     16860     16862
     16858     16857     16860     16863     16859     16857     16860     16861
     16859     16857     16860     16862     16859     16857     16860     16863
     16860     16863     16866     16867     16860     16863     16866     16868
     16860     16863     16866     16869     16861     16860     16863     16864
     16861     16860     16863     16865     16861     16860     16863     16866
     16862     16860     16863     16864     16862     16860     16863     16865
     16862     16860     16863     16866     16863     16866     16869     16870
     16863     16866     16869     16871     16863     16866     16869     16872
     16864     16863     16866     16867     16864     16863     16866     16868
     16864     16863     16866     16869     16865     16863     16866     16867
     16865     16863     16866     16868     16865     16863     16866     16869
     16866     16869     16872     16873     16866     16869     16872     16874
     16866     16869     16872     16875     16867     16866     16869     16870
     16867     16866     16869     16871     16867     16866     16869     16872
     16868     16866     16869     16870     16868     16866     16869     16871
     16868     16866     16869     16872     16869     16872     16875     16876
     16869     16872     16875     16877     16869     16872     16875     16878
     16870     16869     16872     16873     16870     16869     16872     16874
     16870     16869     16872     16875     16871     16869     16872     16873
     16871     16869     16872     16874     16871     16869     16872     16875
     16872     16875     16878     16879     16872     16875     16878     16880
     16872     16875     16878     16881     16873     16872     16875     16876
     16873     16872     16875     16877     16873     16872     16875     16878
     16874     16872     16875     16876     16874     16872     16875     16877
     16874     16872     16875     16878     16875     16878     16881     16882
     16875     16878     16881     16883     16875     16878     16881     16884
     16876     16875     16878     16879     16876     16875     16878     16880
     16876     16875     16878     16881     16877     16875     16878     16879
     16877     16875     16878     16880     16877     16875     16878     16881
     16879     16878     16881     16882     16879     16878     16881     16883
     16879     16878     16881     16884     16880     16878     16881     16882
     16880     16878     16881     16883     16880     16878     16881     16884
     16885     16886     16901     16902     16885     16886     16901     16903
     16885     16886     16901     16907     16886     16885     16889     16890
     16886     16885     16889     16891     16886     16885     16889     16892
     16886     16885     16893     16894     16886     16885     16893     16895
     16886     16885     16893     16896     16886     16885     16897     16898
     16886     16885     16897     16899     16886     16885     16897     16900
     16886     16901     16907     16904     16887     16886     16885     16889
     16887     16886     16885     16893     16887     16886     16885     16897
     16887     16886     16901     16902     16887     16886     16901     16903
     16887     16886     16901     16907     16888     16886     16885     16889
     16888     16886     16885     16893     16888     16886     16885     16897
     16888     16886     16901     16902     16888     16886     16901     16903
     16888     16886     16901     16907     16889     16885     16886     16901
     16889     16885     16893     16894     16889     16885     16893     16895
     16889     16885     16893     16896     16889     16885     16897     16898
     16889     16885     16897     16899     16889     16885     16897     16900
     16890     16889     16885     16893     16890     16889     16885     16897
     16891     16889     16885     16893     16891     16889     16885     16897
     16892     16889     16885     16893     16892     16889     16885     16897
     16893     16885     16886     16901     16893     16885     16897     16898
     16893     16885     16897     16899     16893     16885     16897     16900
     16894     16893     16885     16897     16895     16893     16885     16897
     16896     16893     16885     16897     16897     16885     16886     16901
     16901     16907     16904     16905     16901     16907     16904     16906
     16901     16907     16904     16908     16902     16901     16907     16904
     16903     16901     16907     16904     16904     16908     16909     16910
     16904     16908     16909     16911     16904     16908     16909     16912
     16905     16904     16908     16909     16906     16904     16908     16909
     16907     16904     16908     16909     16908     16909     16912     16913
     16908     16909     16912     16914     16908     16909     16912     16920
     16909     16912     16914     16915     16909     16912     16920     16921
     16909     16912     16920     16922     16909     16912     16920     16923
     16910     16909     16912     16913     16910     16909     16912     16914
     16910     16909     16912     16920     16911     16909     16912     16913
     16911     16909     16912     16914     16911     16909     16912     16920
     16912     16914     16915     16916     16912     16914     16915     16917
     16912     16920     16923     16924     16913     16912     16914     16915
     16913     16912     16920     16921     16913     16912     16920     16922
     16913     16912     16920     16923     16914     16912     16920     16921
     16914     16912     16920     16922     16914     16912     16920     16923
     16914     16915     16917     16918     16914     16915     16917     16919
     16914     16915     16917     16929     16915     16914     16912     16920
     16915     16917     16929     16930     16915     16917     16929     16931
     16915     16917     16929     16932     16916     16915     16917     16918
     16916     16915     16917     16919     16916     16915     16917     16929
     16917     16929     16932     16933     16917     16929     16932     16934
     16917     16929     16932     16935     16918     16917     16929     16930
     16918     16917     16929     16931     16918     16917     16929     16932
     16919     16917     16929     16930     16919     16917     16929     16931
     16919     16917     16929     16932     16920     16923     16924     16925
     16920     16923     16924     16926     16921     16920     16923     16924
     16922     16920     16923     16924     16923     16924     16926     16927
     16923     16924     16926     16928     16923     16924     16926     16976
     16924     16926     16976     16977     16924     16926     16976     16978
     16924     16926     16976     16979     16925     16924     16926     16927
     16925     16924     16926     16928     16925     16924     16926     16976
     16926     16976     16979     16980     16926     16976     16979     16981
     16926     16976     16979     16982     16927     16926     16976     16977
     16927     16926     16976     16978     16927     16926     16976     16979
     16928     16926     16976     16977     16928     16926     16976     16978
     16928     16926     16976     16979     16929     16932     16935     16936
     16929     16932     16935     16937     16929     16932     16935     16938
     16930     16929     16932     16933     16930     16929     16932     16934
     16930     16929     16932     16935     16931     16929     16932     16933
     16931     16929     16932     16934     16931     16929     16932     16935
     16932     16935     16938     16939     16932     16935     16938     16940
     16932     16935     16938     16941     16933     16932     16935     16936
     16933     16932     16935     16937     16933     16932     16935     16938
     16934     16932     16935     16936     16934     16932     16935     16937
     16934     16932     16935     16938     16935     16938     16941     16942
     16935     16938     16941     16943     16935     16938     16941     16944
     16936     16935     16938     16939     16936     16935     16938     16940
     16936     16935     16938     16941     16937     16935     16938     16939
     16937     16935     16938     16940     16937     16935     16938     16941
     16938     16941     16944     16945     16938     16941     16944     16946
     16938     16941     16944     16947     16939     16938     16941     16942
     16939     16938     16941     16943     16939     16938     16941     16944
     16940     16938     16941     16942     16940     16938     16941     16943
     16940     16938     16941     16944     16941     16944     16947     16948
     16941     16944     16947     16949     16942     16941     16944     16945
     16942     16941     16944     16946     16942     16941     16944     16947
     16943     16941     16944     16945     16943     16941     16944     16946
     16943     16941     16944     16947     16944     16947     16949     16950
     16944     16947     16949     16951     16945     16944     16947     16948
     16945     16944     16947     16949     16946     16944     16947     16948
     16946     16944     16947     16949     16947     16949     16951     16952
     16947     16949     16951     16953     16947     16949     16951     16954
     16948     16947     16949     16950     16948     16947     16949     16951
     16949     16951     16954     16955     16949     16951     16954     16956
     16949     16951     16954     16957     16950     16949     16951     16952
     16950     16949     16951     16953     16950     16949     16951     16954
     16951     16954     16957     16958     16951     16954     16957     16959
     16951     16954     16957     16960     16952     16951     16954     16955
     16952     16951     16954     16956     16952     16951     16954     16957
     16953     16951     16954     16955     16953     16951     16954     16956
     16953     16951     16954     16957     16954     16957     16960     16961
     16954     16957     16960     16962     16954     16957     16960     16963
     16955     16954     16957     16958     16955     16954     16957     16959
     16955     16954     16957     16960     16956     16954     16957     16958
     16956     16954     16957     16959     16956     16954     16957     16960
     16957     16960     16963     16964     16957     16960     16963     16965
     16957     16960     16963     16966     16958     16957     16960     16961
     16958     16957     16960     16962     16958     16957     16960     16963
     16959     16957     16960     16961     16959     16957     16960     16962
     16959     16957     16960     16963     16960     16963     16966     16967
     16960     16963     16966     16968     16960     16963     16966     16969
     16961     16960     16963     16964     16961     16960     16963     16965
     16961     16960     16963     16966     16962     16960     16963     16964
     16962     16960     16963     16965     16962     16960     16963     16966
     16963     16966     16969     16970     16963     16966     16969     16971
     16963     16966     16969     16972     16964     16963     16966     16967
     16964     16963     16966     16968     16964     16963     16966     16969
     16965     16963     16966     16967     16965     16963     16966     16968
     16965     16963     16966     16969     16966     16969     16972     16973
     16966     16969     16972     16974     16966     16969     16972     16975
     16967     16966     16969     16970     16967     16966     16969     16971
     16967     16966     16969     16972     16968     16966     16969     16970
     16968     16966     16969     16971     16968     16966     16969     16972
     16970     16969     16972     16973     16970     16969     16972     16974
     16970     16969     16972     16975     16971     16969     16972     16973
     16971     16969     16972     16974     16971     16969     16972     16975
     16976     16979     16982     16983     16976     16979     16982     16984
     16976     16979     16982     16985     16977     16976     16979     16980
     16977     16976     16979     16981     16977     16976     16979     16982
     16978     16976     16979     16980     16978     16976     16979     16981
     16978     16976     16979     16982     16979     16982     16985     16986
     16979     16982     16985     16987     16979     16982     16985     16988
     16980     16979     16982     16983     16980     16979     16982     16984
     16980     16979     16982     16985     16981     16979     16982     16983
     16981     16979     16982     16984     16981     16979     16982     16985
     16982     16985     16988     16989     16982     16985     16988     16990
     16982     16985     16988     16991     16983     16982     16985     16986
     16983     16982     16985     16987     16983     16982     16985     16988
     16984     16982     16985     16986     16984     16982     16985     16987
     16984     16982     16985     16988     16985     16988     16991     16992
     16985     16988     16991     16993     16985     16988     16991     16994
     16986     16985     16988     16989     16986     16985     16988     16990
     16986     16985     16988     16991     16987     16985     16988     16989
     16987     16985     16988     16990     16987     16985     16988     16991
     16988     16991     16994     16995     16988     16991     16994     16996
     16988     16991     16994     16997     16989     16988     16991     16992
     16989     16988     16991     16993     16989     16988     16991     16994
     16990     16988     16991     16992     16990     16988     16991     16993
     16990     16988     16991     16994     16991     16994     16997     16998
     16991     16994     16997     16999     16991     16994     16997     17000
     16992     16991     16994     16995     16992     16991     16994     16996
     16992     16991     16994     16997     16993     16991     16994     16995
     16993     16991     16994     16996     16993     16991     16994     16997
     16994     16997     17000     17001     16994     16997     17000     17002
     16994     16997     17000     17003     16995     16994     16997     16998
     16995     16994     16997     16999     16995     16994     16997     17000
     16996     16994     16997     16998     16996     16994     16997     16999
     16996     16994     16997     17000     16997     17000     17003     17004
     16997     17000     17003     17005     16997     17000     17003     17006
     16998     16997     17000     17001     16998     16997     17000     17002
     16998     16997     17000     17003     16999     16997     17000     17001
     16999     16997     17000     17002     16999     16997     17000     17003
     17000     17003     17006     17007     17000     17003     17006     17008
     17000     17003     17006     17009     17001     17000     17003     17004
     17001     17000     17003     17005     17001     17000     17003     17006
     17002     17000     17003     17004     17002     17000     17003     17005
     17002     17000     17003     17006     17003     17006     17009     17010
     17003     17006     17009     17011     17003     17006     17009     17012
     17004     17003     17006     17007     17004     17003     17006     17008
     17004     17003     17006     17009     17005     17003     17006     17007
     17005     17003     17006     17008     17005     17003     17006     17009
     17006     17009     17012     17013     17006     17009     17012     17014
     17006     17009     17012     17015     17007     17006     17009     17010
     17007     17006     17009     17011     17007     17006     17009     17012
     17008     17006     17009     17010     17008     17006     17009     17011
     17008     17006     17009     17012     17009     17012     17015     17016
     17009     17012     17015     17017     17009     17012     17015     17018
     17010     17009     17012     17013     17010     17009     17012     17014
     17010     17009     17012     17015     17011     17009     17012     17013
     17011     17009     17012     17014     17011     17009     17012     17015
     17013     17012     17015     17016     17013     17012     17015     17017
     17013     17012     17015     17018     17014     17012     17015     17016
     17014     17012     17015     17017     17014     17012     17015     17018
     17019     17020     17035     17036     17019     17020     17035     17037
     17019     17020     17035     17041     17020     17019     17023     17024
     17020     17019     17023     17025     17020     17019     17023     17026
     17020     17019     17027     17028     17020     17019     17027     17029
     17020     17019     17027     17030     17020     17019     17031     17032
     17020     17019     17031     17033     17020     17019     17031     17034
     17020     17035     17041     17038     17021     17020     17019     17023
     17021     17020     17019     17027     17021     17020     17019     17031
     17021     17020     17035     17036     17021     17020     17035     17037
     17021     17020     17035     17041     17022     17020     17019     17023
     17022     17020     17019     17027     17022     17020     17019     17031
     17022     17020     17035     17036     17022     17020     17035     17037
     17022     17020     17035     17041     17023     17019     17020     17035
     17023     17019     17027     17028     17023     17019     17027     17029
     17023     17019     17027     17030     17023     17019     17031     17032
     17023     17019     17031     17033     17023     17019     17031     17034
     17024     17023     17019     17027     17024     17023     17019     17031
     17025     17023     17019     17027     17025     17023     17019     17031
     17026     17023     17019     17027     17026     17023     17019     17031
     17027     17019     17020     17035     17027     17019     17031     17032
     17027     17019     17031     17033     17027     17019     17031     17034
     17028     17027     17019     17031     17029     17027     17019     17031
     17030     17027     17019     17031     17031     17019     17020     17035
     17035     17041     17038     17039     17035     17041     17038     17040
     17035     17041     17038     17042     17036     17035     17041     17038
     17037     17035     17041     17038     17038     17042     17043     17044
     17038     17042     17043     17045     17038     17042     17043     17046
     17039     17038     17042     17043     17040     17038     17042     17043
     17041     17038     17042     17043     17042     17043     17046     17047
     17042     17043     17046     17048     17042     17043     17046     17054
     17043     17046     17048     17049     17043     17046     17054     17055
     17043     17046     17054     17056     17043     17046     17054     17057
     17044     17043     17046     17047     17044     17043     17046     17048
     17044     17043     17046     17054     17045     17043     17046     17047
     17045     17043     17046     17048     17045     17043     17046     17054
     17046     17048     17049     17050     17046     17048     17049     17051
     17046     17054     17057     17058     17047     17046     17048     17049
     17047     17046     17054     17055     17047     17046     17054     17056
     17047     17046     17054     17057     17048     17046     17054     17055
     17048     17046     17054     17056     17048     17046     17054     17057
     17048     17049     17051     17052     17048     17049     17051     17053
     17048     17049     17051     17063     17049     17048     17046     17054
     17049     17051     17063     17064     17049     17051     17063     17065
     17049     17051     17063     17066     17050     17049     17051     17052
     17050     17049     17051     17053     17050     17049     17051     17063
     17051     17063     17066     17067     17051     17063     17066     17068
     17051     17063     17066     17069     17052     17051     17063     17064
     17052     17051     17063     17065     17052     17051     17063     17066
     17053     17051     17063     17064     17053     17051     17063     17065
     17053     17051     17063     17066     17054     17057     17058     17059
     17054     17057     17058     17060     17055     17054     17057     17058
     17056     17054     17057     17058     17057     17058     17060     17061
     17057     17058     17060     17062     17057     17058     17060     17110
     17058     17060     17110     17111     17058     17060     17110     17112
     17058     17060     17110     17113     17059     17058     17060     17061
     17059     17058     17060     17062     17059     17058     17060     17110
     17060     17110     17113     17114     17060     17110     17113     17115
     17060     17110     17113     17116     17061     17060     17110     17111
     17061     17060     17110     17112     17061     17060     17110     17113
     17062     17060     17110     17111     17062     17060     17110     17112
     17062     17060     17110     17113     17063     17066     17069     17070
     17063     17066     17069     17071     17063     17066     17069     17072
     17064     17063     17066     17067     17064     17063     17066     17068
     17064     17063     17066     17069     17065     17063     17066     17067
     17065     17063     17066     17068     17065     17063     17066     17069
     17066     17069     17072     17073     17066     17069     17072     17074
     17066     17069     17072     17075     17067     17066     17069     17070
     17067     17066     17069     17071     17067     17066     17069     17072
     17068     17066     17069     17070     17068     17066     17069     17071
     17068     17066     17069     17072     17069     17072     17075     17076
     17069     17072     17075     17077     17069     17072     17075     17078
     17070     17069     17072     17073     17070     17069     17072     17074
     17070     17069     17072     17075     17071     17069     17072     17073
     17071     17069     17072     17074     17071     17069     17072     17075
     17072     17075     17078     17079     17072     17075     17078     17080
     17072     17075     17078     17081     17073     17072     17075     17076
     17073     17072     17075     17077     17073     17072     17075     17078
     17074     17072     17075     17076     17074     17072     17075     17077
     17074     17072     17075     17078     17075     17078     17081     17082
     17075     17078     17081     17083     17076     17075     17078     17079
     17076     17075     17078     17080     17076     17075     17078     17081
     17077     17075     17078     17079     17077     17075     17078     17080
     17077     17075     17078     17081     17078     17081     17083     17084
     17078     17081     17083     17085     17079     17078     17081     17082
     17079     17078     17081     17083     17080     17078     17081     17082
     17080     17078     17081     17083     17081     17083     17085     17086
     17081     17083     17085     17087     17081     17083     17085     17088
     17082     17081     17083     17084     17082     17081     17083     17085
     17083     17085     17088     17089     17083     17085     17088     17090
     17083     17085     17088     17091     17084     17083     17085     17086
     17084     17083     17085     17087     17084     17083     17085     17088
     17085     17088     17091     17092     17085     17088     17091     17093
     17085     17088     17091     17094     17086     17085     17088     17089
     17086     17085     17088     17090     17086     17085     17088     17091
     17087     17085     17088     17089     17087     17085     17088     17090
     17087     17085     17088     17091     17088     17091     17094     17095
     17088     17091     17094     17096     17088     17091     17094     17097
     17089     17088     17091     17092     17089     17088     17091     17093
     17089     17088     17091     17094     17090     17088     17091     17092
     17090     17088     17091     17093     17090     17088     17091     17094
     17091     17094     17097     17098     17091     17094     17097     17099
     17091     17094     17097     17100     17092     17091     17094     17095
     17092     17091     17094     17096     17092     17091     17094     17097
     17093     17091     17094     17095     17093     17091     17094     17096
     17093     17091     17094     17097     17094     17097     17100     17101
     17094     17097     17100     17102     17094     17097     17100     17103
     17095     17094     17097     17098     17095     17094     17097     17099
     17095     17094     17097     17100     17096     17094     17097     17098
     17096     17094     17097     17099     17096     17094     17097     17100
     17097     17100     17103     17104     17097     17100     17103     17105
     17097     17100     17103     17106     17098     17097     17100     17101
     17098     17097     17100     17102     17098     17097     17100     17103
     17099     17097     17100     17101     17099     17097     17100     17102
     17099     17097     17100     17103     17100     17103     17106     17107
     17100     17103     17106     17108     17100     17103     17106     17109
     17101     17100     17103     17104     17101     17100     17103     17105
     17101     17100     17103     17106     17102     17100     17103     17104
     17102     17100     17103     17105     17102     17100     17103     17106
     17104     17103     17106     17107     17104     17103     17106     17108
     17104     17103     17106     17109     17105     17103     17106     17107
     17105     17103     17106     17108     17105     17103     17106     17109
     17110     17113     17116     17117     17110     17113     17116     17118
     17110     17113     17116     17119     17111     17110     17113     17114
     17111     17110     17113     17115     17111     17110     17113     17116
     17112     17110     17113     17114     17112     17110     17113     17115
     17112     17110     17113     17116     17113     17116     17119     17120
     17113     17116     17119     17121     17113     17116     17119     17122
     17114     17113     17116     17117     17114     17113     17116     17118
     17114     17113     17116     17119     17115     17113     17116     17117
     17115     17113     17116     17118     17115     17113     17116     17119
     17116     17119     17122     17123     17116     17119     17122     17124
     17116     17119     17122     17125     17117     17116     17119     17120
     17117     17116     17119     17121     17117     17116     17119     17122
     17118     17116     17119     17120     17118     17116     17119     17121
     17118     17116     17119     17122     17119     17122     17125     17126
     17119     17122     17125     17127     17119     17122     17125     17128
     17120     17119     17122     17123     17120     17119     17122     17124
     17120     17119     17122     17125     17121     17119     17122     17123
     17121     17119     17122     17124     17121     17119     17122     17125
     17122     17125     17128     17129     17122     17125     17128     17130
     17122     17125     17128     17131     17123     17122     17125     17126
     17123     17122     17125     17127     17123     17122     17125     17128
     17124     17122     17125     17126     17124     17122     17125     17127
     17124     17122     17125     17128     17125     17128     17131     17132
     17125     17128     17131     17133     17125     17128     17131     17134
     17126     17125     17128     17129     17126     17125     17128     17130
     17126     17125     17128     17131     17127     17125     17128     17129
     17127     17125     17128     17130     17127     17125     17128     17131
     17128     17131     17134     17135     17128     17131     17134     17136
     17128     17131     17134     17137     17129     17128     17131     17132
     17129     17128     17131     17133     17129     17128     17131     17134
     17130     17128     17131     17132     17130     17128     17131     17133
     17130     17128     17131     17134     17131     17134     17137     17138
     17131     17134     17137     17139     17131     17134     17137     17140
     17132     17131     17134     17135     17132     17131     17134     17136
     17132     17131     17134     17137     17133     17131     17134     17135
     17133     17131     17134     17136     17133     17131     17134     17137
     17134     17137     17140     17141     17134     17137     17140     17142
     17134     17137     17140     17143     17135     17134     17137     17138
     17135     17134     17137     17139     17135     17134     17137     17140
     17136     17134     17137     17138     17136     17134     17137     17139
     17136     17134     17137     17140     17137     17140     17143     17144
     17137     17140     17143     17145     17137     17140     17143     17146
     17138     17137     17140     17141     17138     17137     17140     17142
     17138     17137     17140     17143     17139     17137     17140     17141
     17139     17137     17140     17142     17139     17137     17140     17143
     17140     17143     17146     17147     17140     17143     17146     17148
     17140     17143     17146     17149     17141     17140     17143     17144
     17141     17140     17143     17145     17141     17140     17143     17146
     17142     17140     17143     17144     17142     17140     17143     17145
     17142     17140     17143     17146     17143     17146     17149     17150
     17143     17146     17149     17151     17143     17146     17149     17152
     17144     17143     17146     17147     17144     17143     17146     17148
     17144     17143     17146     17149     17145     17143     17146     17147
     17145     17143     17146     17148     17145     17143     17146     17149
     17147     17146     17149     17150     17147     17146     17149     17151
     17147     17146     17149     17152     17148     17146     17149     17150
     17148     17146     17149     17151     17148     17146     17149     17152
     17153     17154     17169     17170     17153     17154     17169     17171
     17153     17154     17169     17175     17154     17153     17157     17158
     17154     17153     17157     17159     17154     17153     17157     17160
     17154     17153     17161     17162     17154     17153     17161     17163
     17154     17153     17161     17164     17154     17153     17165     17166
     17154     17153     17165     17167     17154     17153     17165     17168
     17154     17169     17175     17172     17155     17154     17153     17157
     17155     17154     17153     17161     17155     17154     17153     17165
     17155     17154     17169     17170     17155     17154     17169     17171
     17155     17154     17169     17175     17156     17154     17153     17157
     17156     17154     17153     17161     17156     17154     17153     17165
     17156     17154     17169     17170     17156     17154     17169     17171
     17156     17154     17169     17175     17157     17153     17154     17169
     17157     17153     17161     17162     17157     17153     17161     17163
     17157     17153     17161     17164     17157     17153     17165     17166
     17157     17153     17165     17167     17157     17153     17165     17168
     17158     17157     17153     17161     17158     17157     17153     17165
     17159     17157     17153     17161     17159     17157     17153     17165
     17160     17157     17153     17161     17160     17157     17153     17165
     17161     17153     17154     17169     17161     17153     17165     17166
     17161     17153     17165     17167     17161     17153     17165     17168
     17162     17161     17153     17165     17163     17161     17153     17165
     17164     17161     17153     17165     17165     17153     17154     17169
     17169     17175     17172     17173     17169     17175     17172     17174
     17169     17175     17172     17176     17170     17169     17175     17172
     17171     17169     17175     17172     17172     17176     17177     17178
     17172     17176     17177     17179     17172     17176     17177     17180
     17173     17172     17176     17177     17174     17172     17176     17177
     17175     17172     17176     17177     17176     17177     17180     17181
     17176     17177     17180     17182     17176     17177     17180     17188
     17177     17180     17182     17183     17177     17180     17188     17189
     17177     17180     17188     17190     17177     17180     17188     17191
     17178     17177     17180     17181     17178     17177     17180     17182
     17178     17177     17180     17188     17179     17177     17180     17181
     17179     17177     17180     17182     17179     17177     17180     17188
     17180     17182     17183     17184     17180     17182     17183     17185
     17180     17188     17191     17192     17181     17180     17182     17183
     17181     17180     17188     17189     17181     17180     17188     17190
     17181     17180     17188     17191     17182     17180     17188     17189
     17182     17180     17188     17190     17182     17180     17188     17191
     17182     17183     17185     17186     17182     17183     17185     17187
     17182     17183     17185     17197     17183     17182     17180     17188
     17183     17185     17197     17198     17183     17185     17197     17199
     17183     17185     17197     17200     17184     17183     17185     17186
     17184     17183     17185     17187     17184     17183     17185     17197
     17185     17197     17200     17201     17185     17197     17200     17202
     17185     17197     17200     17203     17186     17185     17197     17198
     17186     17185     17197     17199     17186     17185     17197     17200
     17187     17185     17197     17198     17187     17185     17197     17199
     17187     17185     17197     17200     17188     17191     17192     17193
     17188     17191     17192     17194     17189     17188     17191     17192
     17190     17188     17191     17192     17191     17192     17194     17195
     17191     17192     17194     17196     17191     17192     17194     17244
     17192     17194     17244     17245     17192     17194     17244     17246
     17192     17194     17244     17247     17193     17192     17194     17195
     17193     17192     17194     17196     17193     17192     17194     17244
     17194     17244     17247     17248     17194     17244     17247     17249
     17194     17244     17247     17250     17195     17194     17244     17245
     17195     17194     17244     17246     17195     17194     17244     17247
     17196     17194     17244     17245     17196     17194     17244     17246
     17196     17194     17244     17247     17197     17200     17203     17204
     17197     17200     17203     17205     17197     17200     17203     17206
     17198     17197     17200     17201     17198     17197     17200     17202
     17198     17197     17200     17203     17199     17197     17200     17201
     17199     17197     17200     17202     17199     17197     17200     17203
     17200     17203     17206     17207     17200     17203     17206     17208
     17200     17203     17206     17209     17201     17200     17203     17204
     17201     17200     17203     17205     17201     17200     17203     17206
     17202     17200     17203     17204     17202     17200     17203     17205
     17202     17200     17203     17206     17203     17206     17209     17210
     17203     17206     17209     17211     17203     17206     17209     17212
     17204     17203     17206     17207     17204     17203     17206     17208
     17204     17203     17206     17209     17205     17203     17206     17207
     17205     17203     17206     17208     17205     17203     17206     17209
     17206     17209     17212     17213     17206     17209     17212     17214
     17206     17209     17212     17215     17207     17206     17209     17210
     17207     17206     17209     17211     17207     17206     17209     17212
     17208     17206     17209     17210     17208     17206     17209     17211
     17208     17206     17209     17212     17209     17212     17215     17216
     17209     17212     17215     17217     17210     17209     17212     17213
     17210     17209     17212     17214     17210     17209     17212     17215
     17211     17209     17212     17213     17211     17209     17212     17214
     17211     17209     17212     17215     17212     17215     17217     17218
     17212     17215     17217     17219     17213     17212     17215     17216
     17213     17212     17215     17217     17214     17212     17215     17216
     17214     17212     17215     17217     17215     17217     17219     17220
     17215     17217     17219     17221     17215     17217     17219     17222
     17216     17215     17217     17218     17216     17215     17217     17219
     17217     17219     17222     17223     17217     17219     17222     17224
     17217     17219     17222     17225     17218     17217     17219     17220
     17218     17217     17219     17221     17218     17217     17219     17222
     17219     17222     17225     17226     17219     17222     17225     17227
     17219     17222     17225     17228     17220     17219     17222     17223
     17220     17219     17222     17224     17220     17219     17222     17225
     17221     17219     17222     17223     17221     17219     17222     17224
     17221     17219     17222     17225     17222     17225     17228     17229
     17222     17225     17228     17230     17222     17225     17228     17231
     17223     17222     17225     17226     17223     17222     17225     17227
     17223     17222     17225     17228     17224     17222     17225     17226
     17224     17222     17225     17227     17224     17222     17225     17228
     17225     17228     17231     17232     17225     17228     17231     17233
     17225     17228     17231     17234     17226     17225     17228     17229
     17226     17225     17228     17230     17226     17225     17228     17231
     17227     17225     17228     17229     17227     17225     17228     17230
     17227     17225     17228     17231     17228     17231     17234     17235
     17228     17231     17234     17236     17228     17231     17234     17237
     17229     17228     17231     17232     17229     17228     17231     17233
     17229     17228     17231     17234     17230     17228     17231     17232
     17230     17228     17231     17233     17230     17228     17231     17234
     17231     17234     17237     17238     17231     17234     17237     17239
     17231     17234     17237     17240     17232     17231     17234     17235
     17232     17231     17234     17236     17232     17231     17234     17237
     17233     17231     17234     17235     17233     17231     17234     17236
     17233     17231     17234     17237     17234     17237     17240     17241
     17234     17237     17240     17242     17234     17237     17240     17243
     17235     17234     17237     17238     17235     17234     17237     17239
     17235     17234     17237     17240     17236     17234     17237     17238
     17236     17234     17237     17239     17236     17234     17237     17240
     17238     17237     17240     17241     17238     17237     17240     17242
     17238     17237     17240     17243     17239     17237     17240     17241
     17239     17237     17240     17242     17239     17237     17240     17243
     17244     17247     17250     17251     17244     17247     17250     17252
     17244     17247     17250     17253     17245     17244     17247     17248
     17245     17244     17247     17249     17245     17244     17247     17250
     17246     17244     17247     17248     17246     17244     17247     17249
     17246     17244     17247     17250     17247     17250     17253     17254
     17247     17250     17253     17255     17247     17250     17253     17256
     17248     17247     17250     17251     17248     17247     17250     17252
     17248     17247     17250     17253     17249     17247     17250     17251
     17249     17247     17250     17252     17249     17247     17250     17253
     17250     17253     17256     17257     17250     17253     17256     17258
     17250     17253     17256     17259     17251     17250     17253     17254
     17251     17250     17253     17255     17251     17250     17253     17256
     17252     17250     17253     17254     17252     17250     17253     17255
     17252     17250     17253     17256     17253     17256     17259     17260
     17253     17256     17259     17261     17253     17256     17259     17262
     17254     17253     17256     17257     17254     17253     17256     17258
     17254     17253     17256     17259     17255     17253     17256     17257
     17255     17253     17256     17258     17255     17253     17256     17259
     17256     17259     17262     17263     17256     17259     17262     17264
     17256     17259     17262     17265     17257     17256     17259     17260
     17257     17256     17259     17261     17257     17256     17259     17262
     17258     17256     17259     17260     17258     17256     17259     17261
     17258     17256     17259     17262     17259     17262     17265     17266
     17259     17262     17265     17267     17259     17262     17265     17268
     17260     17259     17262     17263     17260     17259     17262     17264
     17260     17259     17262     17265     17261     17259     17262     17263
     17261     17259     17262     17264     17261     17259     17262     17265
     17262     17265     17268     17269     17262     17265     17268     17270
     17262     17265     17268     17271     17263     17262     17265     17266
     17263     17262     17265     17267     17263     17262     17265     17268
     17264     17262     17265     17266     17264     17262     17265     17267
     17264     17262     17265     17268     17265     17268     17271     17272
     17265     17268     17271     17273     17265     17268     17271     17274
     17266     17265     17268     17269     17266     17265     17268     17270
     17266     17265     17268     17271     17267     17265     17268     17269
     17267     17265     17268     17270     17267     17265     17268     17271
     17268     17271     17274     17275     17268     17271     17274     17276
     17268     17271     17274     17277     17269     17268     17271     17272
     17269     17268     17271     17273     17269     17268     17271     17274
     17270     17268     17271     17272     17270     17268     17271     17273
     17270     17268     17271     17274     17271     17274     17277     17278
     17271     17274     17277     17279     17271     17274     17277     17280
     17272     17271     17274     17275     17272     17271     17274     17276
     17272     17271     17274     17277     17273     17271     17274     17275
     17273     17271     17274     17276     17273     17271     17274     17277
     17274     17277     17280     17281     17274     17277     17280     17282
     17274     17277     17280     17283     17275     17274     17277     17278
     17275     17274     17277     17279     17275     17274     17277     17280
     17276     17274     17277     17278     17276     17274     17277     17279
     17276     17274     17277     17280     17277     17280     17283     17284
     17277     17280     17283     17285     17277     17280     17283     17286
     17278     17277     17280     17281     17278     17277     17280     17282
     17278     17277     17280     17283     17279     17277     17280     17281
     17279     17277     17280     17282     17279     17277     17280     17283
     17281     17280     17283     17284     17281     17280     17283     17285
     17281     17280     17283     17286     17282     17280     17283     17284
     17282     17280     17283     17285     17282     17280     17283     17286
     17287     17288     17303     17304     17287     17288     17303     17305
     17287     17288     17303     17309     17288     17287     17291     17292
     17288     17287     17291     17293     17288     17287     17291     17294
     17288     17287     17295     17296     17288     17287     17295     17297
     17288     17287     17295     17298     17288     17287     17299     17300
     17288     17287     17299     17301     17288     17287     17299     17302
     17288     17303     17309     17306     17289     17288     17287     17291
     17289     17288     17287     17295     17289     17288     17287     17299
     17289     17288     17303     17304     17289     17288     17303     17305
     17289     17288     17303     17309     17290     17288     17287     17291
     17290     17288     17287     17295     17290     17288     17287     17299
     17290     17288     17303     17304     17290     17288     17303     17305
     17290     17288     17303     17309     17291     17287     17288     17303
     17291     17287     17295     17296     17291     17287     17295     17297
     17291     17287     17295     17298     17291     17287     17299     17300
     17291     17287     17299     17301     17291     17287     17299     17302
     17292     17291     17287     17295     17292     17291     17287     17299
     17293     17291     17287     17295     17293     17291     17287     17299
     17294     17291     17287     17295     17294     17291     17287     17299
     17295     17287     17288     17303     17295     17287     17299     17300
     17295     17287     17299     17301     17295     17287     17299     17302
     17296     17295     17287     17299     17297     17295     17287     17299
     17298     17295     17287     17299     17299     17287     17288     17303
     17303     17309     17306     17307     17303     17309     17306     17308
     17303     17309     17306     17310     17304     17303     17309     17306
     17305     17303     17309     17306     17306     17310     17311     17312
     17306     17310     17311     17313     17306     17310     17311     17314
     17307     17306     17310     17311     17308     17306     17310     17311
     17309     17306     17310     17311     17310     17311     17314     17315
     17310     17311     17314     17316     17310     17311     17314     17322
     17311     17314     17316     17317     17311     17314     17322     17323
     17311     17314     17322     17324     17311     17314     17322     17325
     17312     17311     17314     17315     17312     17311     17314     17316
     17312     17311     17314     17322     17313     17311     17314     17315
     17313     17311     17314     17316     17313     17311     17314     17322
     17314     17316     17317     17318     17314     17316     17317     17319
     17314     17322     17325     17326     17315     17314     17316     17317
     17315     17314     17322     17323     17315     17314     17322     17324
     17315     17314     17322     17325     17316     17314     17322     17323
     17316     17314     17322     17324     17316     17314     17322     17325
     17316     17317     17319     17320     17316     17317     17319     17321
     17316     17317     17319     17331     17317     17316     17314     17322
     17317     17319     17331     17332     17317     17319     17331     17333
     17317     17319     17331     17334     17318     17317     17319     17320
     17318     17317     17319     17321     17318     17317     17319     17331
     17319     17331     17334     17335     17319     17331     17334     17336
     17319     17331     17334     17337     17320     17319     17331     17332
     17320     17319     17331     17333     17320     17319     17331     17334
     17321     17319     17331     17332     17321     17319     17331     17333
     17321     17319     17331     17334     17322     17325     17326     17327
     17322     17325     17326     17328     17323     17322     17325     17326
     17324     17322     17325     17326     17325     17326     17328     17329
     17325     17326     17328     17330     17325     17326     17328     17378
     17326     17328     17378     17379     17326     17328     17378     17380
     17326     17328     17378     17381     17327     17326     17328     17329
     17327     17326     17328     17330     17327     17326     17328     17378
     17328     17378     17381     17382     17328     17378     17381     17383
     17328     17378     17381     17384     17329     17328     17378     17379
     17329     17328     17378     17380     17329     17328     17378     17381
     17330     17328     17378     17379     17330     17328     17378     17380
     17330     17328     17378     17381     17331     17334     17337     17338
     17331     17334     17337     17339     17331     17334     17337     17340
     17332     17331     17334     17335     17332     17331     17334     17336
     17332     17331     17334     17337     17333     17331     17334     17335
     17333     17331     17334     17336     17333     17331     17334     17337
     17334     17337     17340     17341     17334     17337     17340     17342
     17334     17337     17340     17343     17335     17334     17337     17338
     17335     17334     17337     17339     17335     17334     17337     17340
     17336     17334     17337     17338     17336     17334     17337     17339
     17336     17334     17337     17340     17337     17340     17343     17344
     17337     17340     17343     17345     17337     17340     17343     17346
     17338     17337     17340     17341     17338     17337     17340     17342
     17338     17337     17340     17343     17339     17337     17340     17341
     17339     17337     17340     17342     17339     17337     17340     17343
     17340     17343     17346     17347     17340     17343     17346     17348
     17340     17343     17346     17349     17341     17340     17343     17344
     17341     17340     17343     17345     17341     17340     17343     17346
     17342     17340     17343     17344     17342     17340     17343     17345
     17342     17340     17343     17346     17343     17346     17349     17350
     17343     17346     17349     17351     17344     17343     17346     17347
     17344     17343     17346     17348     17344     17343     17346     17349
     17345     17343     17346     17347     17345     17343     17346     17348
     17345     17343     17346     17349     17346     17349     17351     17352
     17346     17349     17351     17353     17347     17346     17349     17350
     17347     17346     17349     17351     17348     17346     17349     17350
     17348     17346     17349     17351     17349     17351     17353     17354
     17349     17351     17353     17355     17349     17351     17353     17356
     17350     17349     17351     17352     17350     17349     17351     17353
     17351     17353     17356     17357     17351     17353     17356     17358
     17351     17353     17356     17359     17352     17351     17353     17354
     17352     17351     17353     17355     17352     17351     17353     17356
     17353     17356     17359     17360     17353     17356     17359     17361
     17353     17356     17359     17362     17354     17353     17356     17357
     17354     17353     17356     17358     17354     17353     17356     17359
     17355     17353     17356     17357     17355     17353     17356     17358
     17355     17353     17356     17359     17356     17359     17362     17363
     17356     17359     17362     17364     17356     17359     17362     17365
     17357     17356     17359     17360     17357     17356     17359     17361
     17357     17356     17359     17362     17358     17356     17359     17360
     17358     17356     17359     17361     17358     17356     17359     17362
     17359     17362     17365     17366     17359     17362     17365     17367
     17359     17362     17365     17368     17360     17359     17362     17363
     17360     17359     17362     17364     17360     17359     17362     17365
     17361     17359     17362     17363     17361     17359     17362     17364
     17361     17359     17362     17365     17362     17365     17368     17369
     17362     17365     17368     17370     17362     17365     17368     17371
     17363     17362     17365     17366     17363     17362     17365     17367
     17363     17362     17365     17368     17364     17362     17365     17366
     17364     17362     17365     17367     17364     17362     17365     17368
     17365     17368     17371     17372     17365     17368     17371     17373
     17365     17368     17371     17374     17366     17365     17368     17369
     17366     17365     17368     17370     17366     17365     17368     17371
     17367     17365     17368     17369     17367     17365     17368     17370
     17367     17365     17368     17371     17368     17371     17374     17375
     17368     17371     17374     17376     17368     17371     17374     17377
     17369     17368     17371     17372     17369     17368     17371     17373
     17369     17368     17371     17374     17370     17368     17371     17372
     17370     17368     17371     17373     17370     17368     17371     17374
     17372     17371     17374     17375     17372     17371     17374     17376
     17372     17371     17374     17377     17373     17371     17374     17375
     17373     17371     17374     17376     17373     17371     17374     17377
     17378     17381     17384     17385     17378     17381     17384     17386
     17378     17381     17384     17387     17379     17378     17381     17382
     17379     17378     17381     17383     17379     17378     17381     17384
     17380     17378     17381     17382     17380     17378     17381     17383
     17380     17378     17381     17384     17381     17384     17387     17388
     17381     17384     17387     17389     17381     17384     17387     17390
     17382     17381     17384     17385     17382     17381     17384     17386
     17382     17381     17384     17387     17383     17381     17384     17385
     17383     17381     17384     17386     17383     17381     17384     17387
     17384     17387     17390     17391     17384     17387     17390     17392
     17384     17387     17390     17393     17385     17384     17387     17388
     17385     17384     17387     17389     17385     17384     17387     17390
     17386     17384     17387     17388     17386     17384     17387     17389
     17386     17384     17387     17390     17387     17390     17393     17394
     17387     17390     17393     17395     17387     17390     17393     17396
     17388     17387     17390     17391     17388     17387     17390     17392
     17388     17387     17390     17393     17389     17387     17390     17391
     17389     17387     17390     17392     17389     17387     17390     17393
     17390     17393     17396     17397     17390     17393     17396     17398
     17390     17393     17396     17399     17391     17390     17393     17394
     17391     17390     17393     17395     17391     17390     17393     17396
     17392     17390     17393     17394     17392     17390     17393     17395
     17392     17390     17393     17396     17393     17396     17399     17400
     17393     17396     17399     17401     17393     17396     17399     17402
     17394     17393     17396     17397     17394     17393     17396     17398
     17394     17393     17396     17399     17395     17393     17396     17397
     17395     17393     17396     17398     17395     17393     17396     17399
     17396     17399     17402     17403     17396     17399     17402     17404
     17396     17399     17402     17405     17397     17396     17399     17400
     17397     17396     17399     17401     17397     17396     17399     17402
     17398     17396     17399     17400     17398     17396     17399     17401
     17398     17396     17399     17402     17399     17402     17405     17406
     17399     17402     17405     17407     17399     17402     17405     17408
     17400     17399     17402     17403     17400     17399     17402     17404
     17400     17399     17402     17405     17401     17399     17402     17403
     17401     17399     17402     17404     17401     17399     17402     17405
     17402     17405     17408     17409     17402     17405     17408     17410
     17402     17405     17408     17411     17403     17402     17405     17406
     17403     17402     17405     17407     17403     17402     17405     17408
     17404     17402     17405     17406     17404     17402     17405     17407
     17404     17402     17405     17408     17405     17408     17411     17412
     17405     17408     17411     17413     17405     17408     17411     17414
     17406     17405     17408     17409     17406     17405     17408     17410
     17406     17405     17408     17411     17407     17405     17408     17409
     17407     17405     17408     17410     17407     17405     17408     17411
     17408     17411     17414     17415     17408     17411     17414     17416
     17408     17411     17414     17417     17409     17408     17411     17412
     17409     17408     17411     17413     17409     17408     17411     17414
     17410     17408     17411     17412     17410     17408     17411     17413
     17410     17408     17411     17414     17411     17414     17417     17418
     17411     17414     17417     17419     17411     17414     17417     17420
     17412     17411     17414     17415     17412     17411     17414     17416
     17412     17411     17414     17417     17413     17411     17414     17415
     17413     17411     17414     17416     17413     17411     17414     17417
     17415     17414     17417     17418     17415     17414     17417     17419
     17415     17414     17417     17420     17416     17414     17417     17418
     17416     17414     17417     17419     17416     17414     17417     17420
     17421     17422     17437     17438     17421     17422     17437     17439
     17421     17422     17437     17443     17422     17421     17425     17426
     17422     17421     17425     17427     17422     17421     17425     17428
     17422     17421     17429     17430     17422     17421     17429     17431
     17422     17421     17429     17432     17422     17421     17433     17434
     17422     17421     17433     17435     17422     17421     17433     17436
     17422     17437     17443     17440     17423     17422     17421     17425
     17423     17422     17421     17429     17423     17422     17421     17433
     17423     17422     17437     17438     17423     17422     17437     17439
     17423     17422     17437     17443     17424     17422     17421     17425
     17424     17422     17421     17429     17424     17422     17421     17433
     17424     17422     17437     17438     17424     17422     17437     17439
     17424     17422     17437     17443     17425     17421     17422     17437
     17425     17421     17429     17430     17425     17421     17429     17431
     17425     17421     17429     17432     17425     17421     17433     17434
     17425     17421     17433     17435     17425     17421     17433     17436
     17426     17425     17421     17429     17426     17425     17421     17433
     17427     17425     17421     17429     17427     17425     17421     17433
     17428     17425     17421     17429     17428     17425     17421     17433
     17429     17421     17422     17437     17429     17421     17433     17434
     17429     17421     17433     17435     17429     17421     17433     17436
     17430     17429     17421     17433     17431     17429     17421     17433
     17432     17429     17421     17433     17433     17421     17422     17437
     17437     17443     17440     17441     17437     17443     17440     17442
     17437     17443     17440     17444     17438     17437     17443     17440
     17439     17437     17443     17440     17440     17444     17445     17446
     17440     17444     17445     17447     17440     17444     17445     17448
     17441     17440     17444     17445     17442     17440     17444     17445
     17443     17440     17444     17445     17444     17445     17448     17449
     17444     17445     17448     17450     17444     17445     17448     17456
     17445     17448     17450     17451     17445     17448     17456     17457
     17445     17448     17456     17458     17445     17448     17456     17459
     17446     17445     17448     17449     17446     17445     17448     17450
     17446     17445     17448     17456     17447     17445     17448     17449
     17447     17445     17448     17450     17447     17445     17448     17456
     17448     17450     17451     17452     17448     17450     17451     17453
     17448     17456     17459     17460     17449     17448     17450     17451
     17449     17448     17456     17457     17449     17448     17456     17458
     17449     17448     17456     17459     17450     17448     17456     17457
     17450     17448     17456     17458     17450     17448     17456     17459
     17450     17451     17453     17454     17450     17451     17453     17455
     17450     17451     17453     17465     17451     17450     17448     17456
     17451     17453     17465     17466     17451     17453     17465     17467
     17451     17453     17465     17468     17452     17451     17453     17454
     17452     17451     17453     17455     17452     17451     17453     17465
     17453     17465     17468     17469     17453     17465     17468     17470
     17453     17465     17468     17471     17454     17453     17465     17466
     17454     17453     17465     17467     17454     17453     17465     17468
     17455     17453     17465     17466     17455     17453     17465     17467
     17455     17453     17465     17468     17456     17459     17460     17461
     17456     17459     17460     17462     17457     17456     17459     17460
     17458     17456     17459     17460     17459     17460     17462     17463
     17459     17460     17462     17464     17459     17460     17462     17512
     17460     17462     17512     17513     17460     17462     17512     17514
     17460     17462     17512     17515     17461     17460     17462     17463
     17461     17460     17462     17464     17461     17460     17462     17512
     17462     17512     17515     17516     17462     17512     17515     17517
     17462     17512     17515     17518     17463     17462     17512     17513
     17463     17462     17512     17514     17463     17462     17512     17515
     17464     17462     17512     17513     17464     17462     17512     17514
     17464     17462     17512     17515     17465     17468     17471     17472
     17465     17468     17471     17473     17465     17468     17471     17474
     17466     17465     17468     17469     17466     17465     17468     17470
     17466     17465     17468     17471     17467     17465     17468     17469
     17467     17465     17468     17470     17467     17465     17468     17471
     17468     17471     17474     17475     17468     17471     17474     17476
     17468     17471     17474     17477     17469     17468     17471     17472
     17469     17468     17471     17473     17469     17468     17471     17474
     17470     17468     17471     17472     17470     17468     17471     17473
     17470     17468     17471     17474     17471     17474     17477     17478
     17471     17474     17477     17479     17471     17474     17477     17480
     17472     17471     17474     17475     17472     17471     17474     17476
     17472     17471     17474     17477     17473     17471     17474     17475
     17473     17471     17474     17476     17473     17471     17474     17477
     17474     17477     17480     17481     17474     17477     17480     17482
     17474     17477     17480     17483     17475     17474     17477     17478
     17475     17474     17477     17479     17475     17474     17477     17480
     17476     17474     17477     17478     17476     17474     17477     17479
     17476     17474     17477     17480     17477     17480     17483     17484
     17477     17480     17483     17485     17478     17477     17480     17481
     17478     17477     17480     17482     17478     17477     17480     17483
     17479     17477     17480     17481     17479     17477     17480     17482
     17479     17477     17480     17483     17480     17483     17485     17486
     17480     17483     17485     17487     17481     17480     17483     17484
     17481     17480     17483     17485     17482     17480     17483     17484
     17482     17480     17483     17485     17483     17485     17487     17488
     17483     17485     17487     17489     17483     17485     17487     17490
     17484     17483     17485     17486     17484     17483     17485     17487
     17485     17487     17490     17491     17485     17487     17490     17492
     17485     17487     17490     17493     17486     17485     17487     17488
     17486     17485     17487     17489     17486     17485     17487     17490
     17487     17490     17493     17494     17487     17490     17493     17495
     17487     17490     17493     17496     17488     17487     17490     17491
     17488     17487     17490     17492     17488     17487     17490     17493
     17489     17487     17490     17491     17489     17487     17490     17492
     17489     17487     17490     17493     17490     17493     17496     17497
     17490     17493     17496     17498     17490     17493     17496     17499
     17491     17490     17493     17494     17491     17490     17493     17495
     17491     17490     17493     17496     17492     17490     17493     17494
     17492     17490     17493     17495     17492     17490     17493     17496
     17493     17496     17499     17500     17493     17496     17499     17501
     17493     17496     17499     17502     17494     17493     17496     17497
     17494     17493     17496     17498     17494     17493     17496     17499
     17495     17493     17496     17497     17495     17493     17496     17498
     17495     17493     17496     17499     17496     17499     17502     17503
     17496     17499     17502     17504     17496     17499     17502     17505
     17497     17496     17499     17500     17497     17496     17499     17501
     17497     17496     17499     17502     17498     17496     17499     17500
     17498     17496     17499     17501     17498     17496     17499     17502
     17499     17502     17505     17506     17499     17502     17505     17507
     17499     17502     17505     17508     17500     17499     17502     17503
     17500     17499     17502     17504     17500     17499     17502     17505
     17501     17499     17502     17503     17501     17499     17502     17504
     17501     17499     17502     17505     17502     17505     17508     17509
     17502     17505     17508     17510     17502     17505     17508     17511
     17503     17502     17505     17506     17503     17502     17505     17507
     17503     17502     17505     17508     17504     17502     17505     17506
     17504     17502     17505     17507     17504     17502     17505     17508
     17506     17505     17508     17509     17506     17505     17508     17510
     17506     17505     17508     17511     17507     17505     17508     17509
     17507     17505     17508     17510     17507     17505     17508     17511
     17512     17515     17518     17519     17512     17515     17518     17520
     17512     17515     17518     17521     17513     17512     17515     17516
     17513     17512     17515     17517     17513     17512     17515     17518
     17514     17512     17515     17516     17514     17512     17515     17517
     17514     17512     17515     17518     17515     17518     17521     17522
     17515     17518     17521     17523     17515     17518     17521     17524
     17516     17515     17518     17519     17516     17515     17518     17520
     17516     17515     17518     17521     17517     17515     17518     17519
     17517     17515     17518     17520     17517     17515     17518     17521
     17518     17521     17524     17525     17518     17521     17524     17526
     17518     17521     17524     17527     17519     17518     17521     17522
     17519     17518     17521     17523     17519     17518     17521     17524
     17520     17518     17521     17522     17520     17518     17521     17523
     17520     17518     17521     17524     17521     17524     17527     17528
     17521     17524     17527     17529     17521     17524     17527     17530
     17522     17521     17524     17525     17522     17521     17524     17526
     17522     17521     17524     17527     17523     17521     17524     17525
     17523     17521     17524     17526     17523     17521     17524     17527
     17524     17527     17530     17531     17524     17527     17530     17532
     17524     17527     17530     17533     17525     17524     17527     17528
     17525     17524     17527     17529     17525     17524     17527     17530
     17526     17524     17527     17528     17526     17524     17527     17529
     17526     17524     17527     17530     17527     17530     17533     17534
     17527     17530     17533     17535     17527     17530     17533     17536
     17528     17527     17530     17531     17528     17527     17530     17532
     17528     17527     17530     17533     17529     17527     17530     17531
     17529     17527     17530     17532     17529     17527     17530     17533
     17530     17533     17536     17537     17530     17533     17536     17538
     17530     17533     17536     17539     17531     17530     17533     17534
     17531     17530     17533     17535     17531     17530     17533     17536
     17532     17530     17533     17534     17532     17530     17533     17535
     17532     17530     17533     17536     17533     17536     17539     17540
     17533     17536     17539     17541     17533     17536     17539     17542
     17534     17533     17536     17537     17534     17533     17536     17538
     17534     17533     17536     17539     17535     17533     17536     17537
     17535     17533     17536     17538     17535     17533     17536     17539
     17536     17539     17542     17543     17536     17539     17542     17544
     17536     17539     17542     17545     17537     17536     17539     17540
     17537     17536     17539     17541     17537     17536     17539     17542
     17538     17536     17539     17540     17538     17536     17539     17541
     17538     17536     17539     17542     17539     17542     17545     17546
     17539     17542     17545     17547     17539     17542     17545     17548
     17540     17539     17542     17543     17540     17539     17542     17544
     17540     17539     17542     17545     17541     17539     17542     17543
     17541     17539     17542     17544     17541     17539     17542     17545
     17542     17545     17548     17549     17542     17545     17548     17550
     17542     17545     17548     17551     17543     17542     17545     17546
     17543     17542     17545     17547     17543     17542     17545     17548
     17544     17542     17545     17546     17544     17542     17545     17547
     17544     17542     17545     17548     17545     17548     17551     17552
     17545     17548     17551     17553     17545     17548     17551     17554
     17546     17545     17548     17549     17546     17545     17548     17550
     17546     17545     17548     17551     17547     17545     17548     17549
     17547     17545     17548     17550     17547     17545     17548     17551
     17549     17548     17551     17552     17549     17548     17551     17553
     17549     17548     17551     17554     17550     17548     17551     17552
     17550     17548     17551     17553     17550     17548     17551     17554
     17555     17556     17571     17572     17555     17556     17571     17573
     17555     17556     17571     17577     17556     17555     17559     17560
     17556     17555     17559     17561     17556     17555     17559     17562
     17556     17555     17563     17564     17556     17555     17563     17565
     17556     17555     17563     17566     17556     17555     17567     17568
     17556     17555     17567     17569     17556     17555     17567     17570
     17556     17571     17577     17574     17557     17556     17555     17559
     17557     17556     17555     17563     17557     17556     17555     17567
     17557     17556     17571     17572     17557     17556     17571     17573
     17557     17556     17571     17577     17558     17556     17555     17559
     17558     17556     17555     17563     17558     17556     17555     17567
     17558     17556     17571     17572     17558     17556     17571     17573
     17558     17556     17571     17577     17559     17555     17556     17571
     17559     17555     17563     17564     17559     17555     17563     17565
     17559     17555     17563     17566     17559     17555     17567     17568
     17559     17555     17567     17569     17559     17555     17567     17570
     17560     17559     17555     17563     17560     17559     17555     17567
     17561     17559     17555     17563     17561     17559     17555     17567
     17562     17559     17555     17563     17562     17559     17555     17567
     17563     17555     17556     17571     17563     17555     17567     17568
     17563     17555     17567     17569     17563     17555     17567     17570
     17564     17563     17555     17567     17565     17563     17555     17567
     17566     17563     17555     17567     17567     17555     17556     17571
     17571     17577     17574     17575     17571     17577     17574     17576
     17571     17577     17574     17578     17572     17571     17577     17574
     17573     17571     17577     17574     17574     17578     17579     17580
     17574     17578     17579     17581     17574     17578     17579     17582
     17575     17574     17578     17579     17576     17574     17578     17579
     17577     17574     17578     17579     17578     17579     17582     17583
     17578     17579     17582     17584     17578     17579     17582     17590
     17579     17582     17584     17585     17579     17582     17590     17591
     17579     17582     17590     17592     17579     17582     17590     17593
     17580     17579     17582     17583     17580     17579     17582     17584
     17580     17579     17582     17590     17581     17579     17582     17583
     17581     17579     17582     17584     17581     17579     17582     17590
     17582     17584     17585     17586     17582     17584     17585     17587
     17582     17590     17593     17594     17583     17582     17584     17585
     17583     17582     17590     17591     17583     17582     17590     17592
     17583     17582     17590     17593     17584     17582     17590     17591
     17584     17582     17590     17592     17584     17582     17590     17593
     17584     17585     17587     17588     17584     17585     17587     17589
     17584     17585     17587     17599     17585     17584     17582     17590
     17585     17587     17599     17600     17585     17587     17599     17601
     17585     17587     17599     17602     17586     17585     17587     17588
     17586     17585     17587     17589     17586     17585     17587     17599
     17587     17599     17602     17603     17587     17599     17602     17604
     17587     17599     17602     17605     17588     17587     17599     17600
     17588     17587     17599     17601     17588     17587     17599     17602
     17589     17587     17599     17600     17589     17587     17599     17601
     17589     17587     17599     17602     17590     17593     17594     17595
     17590     17593     17594     17596     17591     17590     17593     17594
     17592     17590     17593     17594     17593     17594     17596     17597
     17593     17594     17596     17598     17593     17594     17596     17646
     17594     17596     17646     17647     17594     17596     17646     17648
     17594     17596     17646     17649     17595     17594     17596     17597
     17595     17594     17596     17598     17595     17594     17596     17646
     17596     17646     17649     17650     17596     17646     17649     17651
     17596     17646     17649     17652     17597     17596     17646     17647
     17597     17596     17646     17648     17597     17596     17646     17649
     17598     17596     17646     17647     17598     17596     17646     17648
     17598     17596     17646     17649     17599     17602     17605     17606
     17599     17602     17605     17607     17599     17602     17605     17608
     17600     17599     17602     17603     17600     17599     17602     17604
     17600     17599     17602     17605     17601     17599     17602     17603
     17601     17599     17602     17604     17601     17599     17602     17605
     17602     17605     17608     17609     17602     17605     17608     17610
     17602     17605     17608     17611     17603     17602     17605     17606
     17603     17602     17605     17607     17603     17602     17605     17608
     17604     17602     17605     17606     17604     17602     17605     17607
     17604     17602     17605     17608     17605     17608     17611     17612
     17605     17608     17611     17613     17605     17608     17611     17614
     17606     17605     17608     17609     17606     17605     17608     17610
     17606     17605     17608     17611     17607     17605     17608     17609
     17607     17605     17608     17610     17607     17605     17608     17611
     17608     17611     17614     17615     17608     17611     17614     17616
     17608     17611     17614     17617     17609     17608     17611     17612
     17609     17608     17611     17613     17609     17608     17611     17614
     17610     17608     17611     17612     17610     17608     17611     17613
     17610     17608     17611     17614     17611     17614     17617     17618
     17611     17614     17617     17619     17612     17611     17614     17615
     17612     17611     17614     17616     17612     17611     17614     17617
     17613     17611     17614     17615     17613     17611     17614     17616
     17613     17611     17614     17617     17614     17617     17619     17620
     17614     17617     17619     17621     17615     17614     17617     17618
     17615     17614     17617     17619     17616     17614     17617     17618
     17616     17614     17617     17619     17617     17619     17621     17622
     17617     17619     17621     17623     17617     17619     17621     17624
     17618     17617     17619     17620     17618     17617     17619     17621
     17619     17621     17624     17625     17619     17621     17624     17626
     17619     17621     17624     17627     17620     17619     17621     17622
     17620     17619     17621     17623     17620     17619     17621     17624
     17621     17624     17627     17628     17621     17624     17627     17629
     17621     17624     17627     17630     17622     17621     17624     17625
     17622     17621     17624     17626     17622     17621     17624     17627
     17623     17621     17624     17625     17623     17621     17624     17626
     17623     17621     17624     17627     17624     17627     17630     17631
     17624     17627     17630     17632     17624     17627     17630     17633
     17625     17624     17627     17628     17625     17624     17627     17629
     17625     17624     17627     17630     17626     17624     17627     17628
     17626     17624     17627     17629     17626     17624     17627     17630
     17627     17630     17633     17634     17627     17630     17633     17635
     17627     17630     17633     17636     17628     17627     17630     17631
     17628     17627     17630     17632     17628     17627     17630     17633
     17629     17627     17630     17631     17629     17627     17630     17632
     17629     17627     17630     17633     17630     17633     17636     17637
     17630     17633     17636     17638     17630     17633     17636     17639
     17631     17630     17633     17634     17631     17630     17633     17635
     17631     17630     17633     17636     17632     17630     17633     17634
     17632     17630     17633     17635     17632     17630     17633     17636
     17633     17636     17639     17640     17633     17636     17639     17641
     17633     17636     17639     17642     17634     17633     17636     17637
     17634     17633     17636     17638     17634     17633     17636     17639
     17635     17633     17636     17637     17635     17633     17636     17638
     17635     17633     17636     17639     17636     17639     17642     17643
     17636     17639     17642     17644     17636     17639     17642     17645
     17637     17636     17639     17640     17637     17636     17639     17641
     17637     17636     17639     17642     17638     17636     17639     17640
     17638     17636     17639     17641     17638     17636     17639     17642
     17640     17639     17642     17643     17640     17639     17642     17644
     17640     17639     17642     17645     17641     17639     17642     17643
     17641     17639     17642     17644     17641     17639     17642     17645
     17646     17649     17652     17653     17646     17649     17652     17654
     17646     17649     17652     17655     17647     17646     17649     17650
     17647     17646     17649     17651     17647     17646     17649     17652
     17648     17646     17649     17650     17648     17646     17649     17651
     17648     17646     17649     17652     17649     17652     17655     17656
     17649     17652     17655     17657     17649     17652     17655     17658
     17650     17649     17652     17653     17650     17649     17652     17654
     17650     17649     17652     17655     17651     17649     17652     17653
     17651     17649     17652     17654     17651     17649     17652     17655
     17652     17655     17658     17659     17652     17655     17658     17660
     17652     17655     17658     17661     17653     17652     17655     17656
     17653     17652     17655     17657     17653     17652     17655     17658
     17654     17652     17655     17656     17654     17652     17655     17657
     17654     17652     17655     17658     17655     17658     17661     17662
     17655     17658     17661     17663     17655     17658     17661     17664
     17656     17655     17658     17659     17656     17655     17658     17660
     17656     17655     17658     17661     17657     17655     17658     17659
     17657     17655     17658     17660     17657     17655     17658     17661
     17658     17661     17664     17665     17658     17661     17664     17666
     17658     17661     17664     17667     17659     17658     17661     17662
     17659     17658     17661     17663     17659     17658     17661     17664
     17660     17658     17661     17662     17660     17658     17661     17663
     17660     17658     17661     17664     17661     17664     17667     17668
     17661     17664     17667     17669     17661     17664     17667     17670
     17662     17661     17664     17665     17662     17661     17664     17666
     17662     17661     17664     17667     17663     17661     17664     17665
     17663     17661     17664     17666     17663     17661     17664     17667
     17664     17667     17670     17671     17664     17667     17670     17672
     17664     17667     17670     17673     17665     17664     17667     17668
     17665     17664     17667     17669     17665     17664     17667     17670
     17666     17664     17667     17668     17666     17664     17667     17669
     17666     17664     17667     17670     17667     17670     17673     17674
     17667     17670     17673     17675     17667     17670     17673     17676
     17668     17667     17670     17671     17668     17667     17670     17672
     17668     17667     17670     17673     17669     17667     17670     17671
     17669     17667     17670     17672     17669     17667     17670     17673
     17670     17673     17676     17677     17670     17673     17676     17678
     17670     17673     17676     17679     17671     17670     17673     17674
     17671     17670     17673     17675     17671     17670     17673     17676
     17672     17670     17673     17674     17672     17670     17673     17675
     17672     17670     17673     17676     17673     17676     17679     17680
     17673     17676     17679     17681     17673     17676     17679     17682
     17674     17673     17676     17677     17674     17673     17676     17678
     17674     17673     17676     17679     17675     17673     17676     17677
     17675     17673     17676     17678     17675     17673     17676     17679
     17676     17679     17682     17683     17676     17679     17682     17684
     17676     17679     17682     17685     17677     17676     17679     17680
     17677     17676     17679     17681     17677     17676     17679     17682
     17678     17676     17679     17680     17678     17676     17679     17681
     17678     17676     17679     17682     17679     17682     17685     17686
     17679     17682     17685     17687     17679     17682     17685     17688
     17680     17679     17682     17683     17680     17679     17682     17684
     17680     17679     17682     17685     17681     17679     17682     17683
     17681     17679     17682     17684     17681     17679     17682     17685
     17683     17682     17685     17686     17683     17682     17685     17687
     17683     17682     17685     17688     17684     17682     17685     17686
     17684     17682     17685     17687     17684     17682     17685     17688
     17689     17690     17705     17706     17689     17690     17705     17707
     17689     17690     17705     17711     17690     17689     17693     17694
     17690     17689     17693     17695     17690     17689     17693     17696
     17690     17689     17697     17698     17690     17689     17697     17699
     17690     17689     17697     17700     17690     17689     17701     17702
     17690     17689     17701     17703     17690     17689     17701     17704
     17690     17705     17711     17708     17691     17690     17689     17693
     17691     17690     17689     17697     17691     17690     17689     17701
     17691     17690     17705     17706     17691     17690     17705     17707
     17691     17690     17705     17711     17692     17690     17689     17693
     17692     17690     17689     17697     17692     17690     17689     17701
     17692     17690     17705     17706     17692     17690     17705     17707
     17692     17690     17705     17711     17693     17689     17690     17705
     17693     17689     17697     17698     17693     17689     17697     17699
     17693     17689     17697     17700     17693     17689     17701     17702
     17693     17689     17701     17703     17693     17689     17701     17704
     17694     17693     17689     17697     17694     17693     17689     17701
     17695     17693     17689     17697     17695     17693     17689     17701
     17696     17693     17689     17697     17696     17693     17689     17701
     17697     17689     17690     17705     17697     17689     17701     17702
     17697     17689     17701     17703     17697     17689     17701     17704
     17698     17697     17689     17701     17699     17697     17689     17701
     17700     17697     17689     17701     17701     17689     17690     17705
     17705     17711     17708     17709     17705     17711     17708     17710
     17705     17711     17708     17712     17706     17705     17711     17708
     17707     17705     17711     17708     17708     17712     17713     17714
     17708     17712     17713     17715     17708     17712     17713     17716
     17709     17708     17712     17713     17710     17708     17712     17713
     17711     17708     17712     17713     17712     17713     17716     17717
     17712     17713     17716     17718     17712     17713     17716     17724
     17713     17716     17718     17719     17713     17716     17724     17725
     17713     17716     17724     17726     17713     17716     17724     17727
     17714     17713     17716     17717     17714     17713     17716     17718
     17714     17713     17716     17724     17715     17713     17716     17717
     17715     17713     17716     17718     17715     17713     17716     17724
     17716     17718     17719     17720     17716     17718     17719     17721
     17716     17724     17727     17728     17717     17716     17718     17719
     17717     17716     17724     17725     17717     17716     17724     17726
     17717     17716     17724     17727     17718     17716     17724     17725
     17718     17716     17724     17726     17718     17716     17724     17727
     17718     17719     17721     17722     17718     17719     17721     17723
     17718     17719     17721     17733     17719     17718     17716     17724
     17719     17721     17733     17734     17719     17721     17733     17735
     17719     17721     17733     17736     17720     17719     17721     17722
     17720     17719     17721     17723     17720     17719     17721     17733
     17721     17733     17736     17737     17721     17733     17736     17738
     17721     17733     17736     17739     17722     17721     17733     17734
     17722     17721     17733     17735     17722     17721     17733     17736
     17723     17721     17733     17734     17723     17721     17733     17735
     17723     17721     17733     17736     17724     17727     17728     17729
     17724     17727     17728     17730     17725     17724     17727     17728
     17726     17724     17727     17728     17727     17728     17730     17731
     17727     17728     17730     17732     17727     17728     17730     17780
     17728     17730     17780     17781     17728     17730     17780     17782
     17728     17730     17780     17783     17729     17728     17730     17731
     17729     17728     17730     17732     17729     17728     17730     17780
     17730     17780     17783     17784     17730     17780     17783     17785
     17730     17780     17783     17786     17731     17730     17780     17781
     17731     17730     17780     17782     17731     17730     17780     17783
     17732     17730     17780     17781     17732     17730     17780     17782
     17732     17730     17780     17783     17733     17736     17739     17740
     17733     17736     17739     17741     17733     17736     17739     17742
     17734     17733     17736     17737     17734     17733     17736     17738
     17734     17733     17736     17739     17735     17733     17736     17737
     17735     17733     17736     17738     17735     17733     17736     17739
     17736     17739     17742     17743     17736     17739     17742     17744
     17736     17739     17742     17745     17737     17736     17739     17740
     17737     17736     17739     17741     17737     17736     17739     17742
     17738     17736     17739     17740     17738     17736     17739     17741
     17738     17736     17739     17742     17739     17742     17745     17746
     17739     17742     17745     17747     17739     17742     17745     17748
     17740     17739     17742     17743     17740     17739     17742     17744
     17740     17739     17742     17745     17741     17739     17742     17743
     17741     17739     17742     17744     17741     17739     17742     17745
     17742     17745     17748     17749     17742     17745     17748     17750
     17742     17745     17748     17751     17743     17742     17745     17746
     17743     17742     17745     17747     17743     17742     17745     17748
     17744     17742     17745     17746     17744     17742     17745     17747
     17744     17742     17745     17748     17745     17748     17751     17752
     17745     17748     17751     17753     17746     17745     17748     17749
     17746     17745     17748     17750     17746     17745     17748     17751
     17747     17745     17748     17749     17747     17745     17748     17750
     17747     17745     17748     17751     17748     17751     17753     17754
     17748     17751     17753     17755     17749     17748     17751     17752
     17749     17748     17751     17753     17750     17748     17751     17752
     17750     17748     17751     17753     17751     17753     17755     17756
     17751     17753     17755     17757     17751     17753     17755     17758
     17752     17751     17753     17754     17752     17751     17753     17755
     17753     17755     17758     17759     17753     17755     17758     17760
     17753     17755     17758     17761     17754     17753     17755     17756
     17754     17753     17755     17757     17754     17753     17755     17758
     17755     17758     17761     17762     17755     17758     17761     17763
     17755     17758     17761     17764     17756     17755     17758     17759
     17756     17755     17758     17760     17756     17755     17758     17761
     17757     17755     17758     17759     17757     17755     17758     17760
     17757     17755     17758     17761     17758     17761     17764     17765
     17758     17761     17764     17766     17758     17761     17764     17767
     17759     17758     17761     17762     17759     17758     17761     17763
     17759     17758     17761     17764     17760     17758     17761     17762
     17760     17758     17761     17763     17760     17758     17761     17764
     17761     17764     17767     17768     17761     17764     17767     17769
     17761     17764     17767     17770     17762     17761     17764     17765
     17762     17761     17764     17766     17762     17761     17764     17767
     17763     17761     17764     17765     17763     17761     17764     17766
     17763     17761     17764     17767     17764     17767     17770     17771
     17764     17767     17770     17772     17764     17767     17770     17773
     17765     17764     17767     17768     17765     17764     17767     17769
     17765     17764     17767     17770     17766     17764     17767     17768
     17766     17764     17767     17769     17766     17764     17767     17770
     17767     17770     17773     17774     17767     17770     17773     17775
     17767     17770     17773     17776     17768     17767     17770     17771
     17768     17767     17770     17772     17768     17767     17770     17773
     17769     17767     17770     17771     17769     17767     17770     17772
     17769     17767     17770     17773     17770     17773     17776     17777
     17770     17773     17776     17778     17770     17773     17776     17779
     17771     17770     17773     17774     17771     17770     17773     17775
     17771     17770     17773     17776     17772     17770     17773     17774
     17772     17770     17773     17775     17772     17770     17773     17776
     17774     17773     17776     17777     17774     17773     17776     17778
     17774     17773     17776     17779     17775     17773     17776     17777
     17775     17773     17776     17778     17775     17773     17776     17779
     17780     17783     17786     17787     17780     17783     17786     17788
     17780     17783     17786     17789     17781     17780     17783     17784
     17781     17780     17783     17785     17781     17780     17783     17786
     17782     17780     17783     17784     17782     17780     17783     17785
     17782     17780     17783     17786     17783     17786     17789     17790
     17783     17786     17789     17791     17783     17786     17789     17792
     17784     17783     17786     17787     17784     17783     17786     17788
     17784     17783     17786     17789     17785     17783     17786     17787
     17785     17783     17786     17788     17785     17783     17786     17789
     17786     17789     17792     17793     17786     17789     17792     17794
     17786     17789     17792     17795     17787     17786     17789     17790
     17787     17786     17789     17791     17787     17786     17789     17792
     17788     17786     17789     17790     17788     17786     17789     17791
     17788     17786     17789     17792     17789     17792     17795     17796
     17789     17792     17795     17797     17789     17792     17795     17798
     17790     17789     17792     17793     17790     17789     17792     17794
     17790     17789     17792     17795     17791     17789     17792     17793
     17791     17789     17792     17794     17791     17789     17792     17795
     17792     17795     17798     17799     17792     17795     17798     17800
     17792     17795     17798     17801     17793     17792     17795     17796
     17793     17792     17795     17797     17793     17792     17795     17798
     17794     17792     17795     17796     17794     17792     17795     17797
     17794     17792     17795     17798     17795     17798     17801     17802
     17795     17798     17801     17803     17795     17798     17801     17804
     17796     17795     17798     17799     17796     17795     17798     17800
     17796     17795     17798     17801     17797     17795     17798     17799
     17797     17795     17798     17800     17797     17795     17798     17801
     17798     17801     17804     17805     17798     17801     17804     17806
     17798     17801     17804     17807     17799     17798     17801     17802
     17799     17798     17801     17803     17799     17798     17801     17804
     17800     17798     17801     17802     17800     17798     17801     17803
     17800     17798     17801     17804     17801     17804     17807     17808
     17801     17804     17807     17809     17801     17804     17807     17810
     17802     17801     17804     17805     17802     17801     17804     17806
     17802     17801     17804     17807     17803     17801     17804     17805
     17803     17801     17804     17806     17803     17801     17804     17807
     17804     17807     17810     17811     17804     17807     17810     17812
     17804     17807     17810     17813     17805     17804     17807     17808
     17805     17804     17807     17809     17805     17804     17807     17810
     17806     17804     17807     17808     17806     17804     17807     17809
     17806     17804     17807     17810     17807     17810     17813     17814
     17807     17810     17813     17815     17807     17810     17813     17816
     17808     17807     17810     17811     17808     17807     17810     17812
     17808     17807     17810     17813     17809     17807     17810     17811
     17809     17807     17810     17812     17809     17807     17810     17813
     17810     17813     17816     17817     17810     17813     17816     17818
     17810     17813     17816     17819     17811     17810     17813     17814
     17811     17810     17813     17815     17811     17810     17813     17816
     17812     17810     17813     17814     17812     17810     17813     17815
     17812     17810     17813     17816     17813     17816     17819     17820
     17813     17816     17819     17821     17813     17816     17819     17822
     17814     17813     17816     17817     17814     17813     17816     17818
     17814     17813     17816     17819     17815     17813     17816     17817
     17815     17813     17816     17818     17815     17813     17816     17819
     17817     17816     17819     17820     17817     17816     17819     17821
     17817     17816     17819     17822     17818     17816     17819     17820
     17818     17816     17819     17821     17818     17816     17819     17822
     17823     17824     17839     17840     17823     17824     17839     17841
     17823     17824     17839     17845     17824     17823     17827     17828
     17824     17823     17827     17829     17824     17823     17827     17830
     17824     17823     17831     17832     17824     17823     17831     17833
     17824     17823     17831     17834     17824     17823     17835     17836
     17824     17823     17835     17837     17824     17823     17835     17838
     17824     17839     17845     17842     17825     17824     17823     17827
     17825     17824     17823     17831     17825     17824     17823     17835
     17825     17824     17839     17840     17825     17824     17839     17841
     17825     17824     17839     17845     17826     17824     17823     17827
     17826     17824     17823     17831     17826     17824     17823     17835
     17826     17824     17839     17840     17826     17824     17839     17841
     17826     17824     17839     17845     17827     17823     17824     17839
     17827     17823     17831     17832     17827     17823     17831     17833
     17827     17823     17831     17834     17827     17823     17835     17836
     17827     17823     17835     17837     17827     17823     17835     17838
     17828     17827     17823     17831     17828     17827     17823     17835
     17829     17827     17823     17831     17829     17827     17823     17835
     17830     17827     17823     17831     17830     17827     17823     17835
     17831     17823     17824     17839     17831     17823     17835     17836
     17831     17823     17835     17837     17831     17823     17835     17838
     17832     17831     17823     17835     17833     17831     17823     17835
     17834     17831     17823     17835     17835     17823     17824     17839
     17839     17845     17842     17843     17839     17845     17842     17844
     17839     17845     17842     17846     17840     17839     17845     17842
     17841     17839     17845     17842     17842     17846     17847     17848
     17842     17846     17847     17849     17842     17846     17847     17850
     17843     17842     17846     17847     17844     17842     17846     17847
     17845     17842     17846     17847     17846     17847     17850     17851
     17846     17847     17850     17852     17846     17847     17850     17858
     17847     17850     17852     17853     17847     17850     17858     17859
     17847     17850     17858     17860     17847     17850     17858     17861
     17848     17847     17850     17851     17848     17847     17850     17852
     17848     17847     17850     17858     17849     17847     17850     17851
     17849     17847     17850     17852     17849     17847     17850     17858
     17850     17852     17853     17854     17850     17852     17853     17855
     17850     17858     17861     17862     17851     17850     17852     17853
     17851     17850     17858     17859     17851     17850     17858     17860
     17851     17850     17858     17861     17852     17850     17858     17859
     17852     17850     17858     17860     17852     17850     17858     17861
     17852     17853     17855     17856     17852     17853     17855     17857
     17852     17853     17855     17867     17853     17852     17850     17858
     17853     17855     17867     17868     17853     17855     17867     17869
     17853     17855     17867     17870     17854     17853     17855     17856
     17854     17853     17855     17857     17854     17853     17855     17867
     17855     17867     17870     17871     17855     17867     17870     17872
     17855     17867     17870     17873     17856     17855     17867     17868
     17856     17855     17867     17869     17856     17855     17867     17870
     17857     17855     17867     17868     17857     17855     17867     17869
     17857     17855     17867     17870     17858     17861     17862     17863
     17858     17861     17862     17864     17859     17858     17861     17862
     17860     17858     17861     17862     17861     17862     17864     17865
     17861     17862     17864     17866     17861     17862     17864     17914
     17862     17864     17914     17915     17862     17864     17914     17916
     17862     17864     17914     17917     17863     17862     17864     17865
     17863     17862     17864     17866     17863     17862     17864     17914
     17864     17914     17917     17918     17864     17914     17917     17919
     17864     17914     17917     17920     17865     17864     17914     17915
     17865     17864     17914     17916     17865     17864     17914     17917
     17866     17864     17914     17915     17866     17864     17914     17916
     17866     17864     17914     17917     17867     17870     17873     17874
     17867     17870     17873     17875     17867     17870     17873     17876
     17868     17867     17870     17871     17868     17867     17870     17872
     17868     17867     17870     17873     17869     17867     17870     17871
     17869     17867     17870     17872     17869     17867     17870     17873
     17870     17873     17876     17877     17870     17873     17876     17878
     17870     17873     17876     17879     17871     17870     17873     17874
     17871     17870     17873     17875     17871     17870     17873     17876
     17872     17870     17873     17874     17872     17870     17873     17875
     17872     17870     17873     17876     17873     17876     17879     17880
     17873     17876     17879     17881     17873     17876     17879     17882
     17874     17873     17876     17877     17874     17873     17876     17878
     17874     17873     17876     17879     17875     17873     17876     17877
     17875     17873     17876     17878     17875     17873     17876     17879
     17876     17879     17882     17883     17876     17879     17882     17884
     17876     17879     17882     17885     17877     17876     17879     17880
     17877     17876     17879     17881     17877     17876     17879     17882
     17878     17876     17879     17880     17878     17876     17879     17881
     17878     17876     17879     17882     17879     17882     17885     17886
     17879     17882     17885     17887     17880     17879     17882     17883
     17880     17879     17882     17884     17880     17879     17882     17885
     17881     17879     17882     17883     17881     17879     17882     17884
     17881     17879     17882     17885     17882     17885     17887     17888
     17882     17885     17887     17889     17883     17882     17885     17886
     17883     17882     17885     17887     17884     17882     17885     17886
     17884     17882     17885     17887     17885     17887     17889     17890
     17885     17887     17889     17891     17885     17887     17889     17892
     17886     17885     17887     17888     17886     17885     17887     17889
     17887     17889     17892     17893     17887     17889     17892     17894
     17887     17889     17892     17895     17888     17887     17889     17890
     17888     17887     17889     17891     17888     17887     17889     17892
     17889     17892     17895     17896     17889     17892     17895     17897
     17889     17892     17895     17898     17890     17889     17892     17893
     17890     17889     17892     17894     17890     17889     17892     17895
     17891     17889     17892     17893     17891     17889     17892     17894
     17891     17889     17892     17895     17892     17895     17898     17899
     17892     17895     17898     17900     17892     17895     17898     17901
     17893     17892     17895     17896     17893     17892     17895     17897
     17893     17892     17895     17898     17894     17892     17895     17896
     17894     17892     17895     17897     17894     17892     17895     17898
     17895     17898     17901     17902     17895     17898     17901     17903
     17895     17898     17901     17904     17896     17895     17898     17899
     17896     17895     17898     17900     17896     17895     17898     17901
     17897     17895     17898     17899     17897     17895     17898     17900
     17897     17895     17898     17901     17898     17901     17904     17905
     17898     17901     17904     17906     17898     17901     17904     17907
     17899     17898     17901     17902     17899     17898     17901     17903
     17899     17898     17901     17904     17900     17898     17901     17902
     17900     17898     17901     17903     17900     17898     17901     17904
     17901     17904     17907     17908     17901     17904     17907     17909
     17901     17904     17907     17910     17902     17901     17904     17905
     17902     17901     17904     17906     17902     17901     17904     17907
     17903     17901     17904     17905     17903     17901     17904     17906
     17903     17901     17904     17907     17904     17907     17910     17911
     17904     17907     17910     17912     17904     17907     17910     17913
     17905     17904     17907     17908     17905     17904     17907     17909
     17905     17904     17907     17910     17906     17904     17907     17908
     17906     17904     17907     17909     17906     17904     17907     17910
     17908     17907     17910     17911     17908     17907     17910     17912
     17908     17907     17910     17913     17909     17907     17910     17911
     17909     17907     17910     17912     17909     17907     17910     17913
     17914     17917     17920     17921     17914     17917     17920     17922
     17914     17917     17920     17923     17915     17914     17917     17918
     17915     17914     17917     17919     17915     17914     17917     17920
     17916     17914     17917     17918     17916     17914     17917     17919
     17916     17914     17917     17920     17917     17920     17923     17924
     17917     17920     17923     17925     17917     17920     17923     17926
     17918     17917     17920     17921     17918     17917     17920     17922
     17918     17917     17920     17923     17919     17917     17920     17921
     17919     17917     17920     17922     17919     17917     17920     17923
     17920     17923     17926     17927     17920     17923     17926     17928
     17920     17923     17926     17929     17921     17920     17923     17924
     17921     17920     17923     17925     17921     17920     17923     17926
     17922     17920     17923     17924     17922     17920     17923     17925
     17922     17920     17923     17926     17923     17926     17929     17930
     17923     17926     17929     17931     17923     17926     17929     17932
     17924     17923     17926     17927     17924     17923     17926     17928
     17924     17923     17926     17929     17925     17923     17926     17927
     17925     17923     17926     17928     17925     17923     17926     17929
     17926     17929     17932     17933     17926     17929     17932     17934
     17926     17929     17932     17935     17927     17926     17929     17930
     17927     17926     17929     17931     17927     17926     17929     17932
     17928     17926     17929     17930     17928     17926     17929     17931
     17928     17926     17929     17932     17929     17932     17935     17936
     17929     17932     17935     17937     17929     17932     17935     17938
     17930     17929     17932     17933     17930     17929     17932     17934
     17930     17929     17932     17935     17931     17929     17932     17933
     17931     17929     17932     17934     17931     17929     17932     17935
     17932     17935     17938     17939     17932     17935     17938     17940
     17932     17935     17938     17941     17933     17932     17935     17936
     17933     17932     17935     17937     17933     17932     17935     17938
     17934     17932     17935     17936     17934     17932     17935     17937
     17934     17932     17935     17938     17935     17938     17941     17942
     17935     17938     17941     17943     17935     17938     17941     17944
     17936     17935     17938     17939     17936     17935     17938     17940
     17936     17935     17938     17941     17937     17935     17938     17939
     17937     17935     17938     17940     17937     17935     17938     17941
     17938     17941     17944     17945     17938     17941     17944     17946
     17938     17941     17944     17947     17939     17938     17941     17942
     17939     17938     17941     17943     17939     17938     17941     17944
     17940     17938     17941     17942     17940     17938     17941     17943
     17940     17938     17941     17944     17941     17944     17947     17948
     17941     17944     17947     17949     17941     17944     17947     17950
     17942     17941     17944     17945     17942     17941     17944     17946
     17942     17941     17944     17947     17943     17941     17944     17945
     17943     17941     17944     17946     17943     17941     17944     17947
     17944     17947     17950     17951     17944     17947     17950     17952
     17944     17947     17950     17953     17945     17944     17947     17948
     17945     17944     17947     17949     17945     17944     17947     17950
     17946     17944     17947     17948     17946     17944     17947     17949
     17946     17944     17947     17950     17947     17950     17953     17954
     17947     17950     17953     17955     17947     17950     17953     17956
     17948     17947     17950     17951     17948     17947     17950     17952
     17948     17947     17950     17953     17949     17947     17950     17951
     17949     17947     17950     17952     17949     17947     17950     17953
     17951     17950     17953     17954     17951     17950     17953     17955
     17951     17950     17953     17956     17952     17950     17953     17954
     17952     17950     17953     17955     17952     17950     17953     17956
     17957     17958     17973     17974     17957     17958     17973     17975
     17957     17958     17973     17979     17958     17957     17961     17962
     17958     17957     17961     17963     17958     17957     17961     17964
     17958     17957     17965     17966     17958     17957     17965     17967
     17958     17957     17965     17968     17958     17957     17969     17970
     17958     17957     17969     17971     17958     17957     17969     17972
     17958     17973     17979     17976     17959     17958     17957     17961
     17959     17958     17957     17965     17959     17958     17957     17969
     17959     17958     17973     17974     17959     17958     17973     17975
     17959     17958     17973     17979     17960     17958     17957     17961
     17960     17958     17957     17965     17960     17958     17957     17969
     17960     17958     17973     17974     17960     17958     17973     17975
     17960     17958     17973     17979     17961     17957     17958     17973
     17961     17957     17965     17966     17961     17957     17965     17967
     17961     17957     17965     17968     17961     17957     17969     17970
     17961     17957     17969     17971     17961     17957     17969     17972
     17962     17961     17957     17965     17962     17961     17957     17969
     17963     17961     17957     17965     17963     17961     17957     17969
     17964     17961     17957     17965     17964     17961     17957     17969
     17965     17957     17958     17973     17965     17957     17969     17970
     17965     17957     17969     17971     17965     17957     17969     17972
     17966     17965     17957     17969     17967     17965     17957     17969
     17968     17965     17957     17969     17969     17957     17958     17973
     17973     17979     17976     17977     17973     17979     17976     17978
     17973     17979     17976     17980     17974     17973     17979     17976
     17975     17973     17979     17976     17976     17980     17981     17982
     17976     17980     17981     17983     17976     17980     17981     17984
     17977     17976     17980     17981     17978     17976     17980     17981
     17979     17976     17980     17981     17980     17981     17984     17985
     17980     17981     17984     17986     17980     17981     17984     17992
     17981     17984     17986     17987     17981     17984     17992     17993
     17981     17984     17992     17994     17981     17984     17992     17995
     17982     17981     17984     17985     17982     17981     17984     17986
     17982     17981     17984     17992     17983     17981     17984     17985
     17983     17981     17984     17986     17983     17981     17984     17992
     17984     17986     17987     17988     17984     17986     17987     17989
     17984     17992     17995     17996     17985     17984     17986     17987
     17985     17984     17992     17993     17985     17984     17992     17994
     17985     17984     17992     17995     17986     17984     17992     17993
     17986     17984     17992     17994     17986     17984     17992     17995
     17986     17987     17989     17990     17986     17987     17989     17991
     17986     17987     17989     18001     17987     17986     17984     17992
     17987     17989     18001     18002     17987     17989     18001     18003
     17987     17989     18001     18004     17988     17987     17989     17990
     17988     17987     17989     17991     17988     17987     17989     18001
     17989     18001     18004     18005     17989     18001     18004     18006
     17989     18001     18004     18007     17990     17989     18001     18002
     17990     17989     18001     18003     17990     17989     18001     18004
     17991     17989     18001     18002     17991     17989     18001     18003
     17991     17989     18001     18004     17992     17995     17996     17997
     17992     17995     17996     17998     17993     17992     17995     17996
     17994     17992     17995     17996     17995     17996     17998     17999
     17995     17996     17998     18000     17995     17996     17998     18048
     17996     17998     18048     18049     17996     17998     18048     18050
     17996     17998     18048     18051     17997     17996     17998     17999
     17997     17996     17998     18000     17997     17996     17998     18048
     17998     18048     18051     18052     17998     18048     18051     18053
     17998     18048     18051     18054     17999     17998     18048     18049
     17999     17998     18048     18050     17999     17998     18048     18051
     18000     17998     18048     18049     18000     17998     18048     18050
     18000     17998     18048     18051     18001     18004     18007     18008
     18001     18004     18007     18009     18001     18004     18007     18010
     18002     18001     18004     18005     18002     18001     18004     18006
     18002     18001     18004     18007     18003     18001     18004     18005
     18003     18001     18004     18006     18003     18001     18004     18007
     18004     18007     18010     18011     18004     18007     18010     18012
     18004     18007     18010     18013     18005     18004     18007     18008
     18005     18004     18007     18009     18005     18004     18007     18010
     18006     18004     18007     18008     18006     18004     18007     18009
     18006     18004     18007     18010     18007     18010     18013     18014
     18007     18010     18013     18015     18007     18010     18013     18016
     18008     18007     18010     18011     18008     18007     18010     18012
     18008     18007     18010     18013     18009     18007     18010     18011
     18009     18007     18010     18012     18009     18007     18010     18013
     18010     18013     18016     18017     18010     18013     18016     18018
     18010     18013     18016     18019     18011     18010     18013     18014
     18011     18010     18013     18015     18011     18010     18013     18016
     18012     18010     18013     18014     18012     18010     18013     18015
     18012     18010     18013     18016     18013     18016     18019     18020
     18013     18016     18019     18021     18014     18013     18016     18017
     18014     18013     18016     18018     18014     18013     18016     18019
     18015     18013     18016     18017     18015     18013     18016     18018
     18015     18013     18016     18019     18016     18019     18021     18022
     18016     18019     18021     18023     18017     18016     18019     18020
     18017     18016     18019     18021     18018     18016     18019     18020
     18018     18016     18019     18021     18019     18021     18023     18024
     18019     18021     18023     18025     18019     18021     18023     18026
     18020     18019     18021     18022     18020     18019     18021     18023
     18021     18023     18026     18027     18021     18023     18026     18028
     18021     18023     18026     18029     18022     18021     18023     18024
     18022     18021     18023     18025     18022     18021     18023     18026
     18023     18026     18029     18030     18023     18026     18029     18031
     18023     18026     18029     18032     18024     18023     18026     18027
     18024     18023     18026     18028     18024     18023     18026     18029
     18025     18023     18026     18027     18025     18023     18026     18028
     18025     18023     18026     18029     18026     18029     18032     18033
     18026     18029     18032     18034     18026     18029     18032     18035
     18027     18026     18029     18030     18027     18026     18029     18031
     18027     18026     18029     18032     18028     18026     18029     18030
     18028     18026     18029     18031     18028     18026     18029     18032
     18029     18032     18035     18036     18029     18032     18035     18037
     18029     18032     18035     18038     18030     18029     18032     18033
     18030     18029     18032     18034     18030     18029     18032     18035
     18031     18029     18032     18033     18031     18029     18032     18034
     18031     18029     18032     18035     18032     18035     18038     18039
     18032     18035     18038     18040     18032     18035     18038     18041
     18033     18032     18035     18036     18033     18032     18035     18037
     18033     18032     18035     18038     18034     18032     18035     18036
     18034     18032     18035     18037     18034     18032     18035     18038
     18035     18038     18041     18042     18035     18038     18041     18043
     18035     18038     18041     18044     18036     18035     18038     18039
     18036     18035     18038     18040     18036     18035     18038     18041
     18037     18035     18038     18039     18037     18035     18038     18040
     18037     18035     18038     18041     18038     18041     18044     18045
     18038     18041     18044     18046     18038     18041     18044     18047
     18039     18038     18041     18042     18039     18038     18041     18043
     18039     18038     18041     18044     18040     18038     18041     18042
     18040     18038     18041     18043     18040     18038     18041     18044
     18042     18041     18044     18045     18042     18041     18044     18046
     18042     18041     18044     18047     18043     18041     18044     18045
     18043     18041     18044     18046     18043     18041     18044     18047
     18048     18051     18054     18055     18048     18051     18054     18056
     18048     18051     18054     18057     18049     18048     18051     18052
     18049     18048     18051     18053     18049     18048     18051     18054
     18050     18048     18051     18052     18050     18048     18051     18053
     18050     18048     18051     18054     18051     18054     18057     18058
     18051     18054     18057     18059     18051     18054     18057     18060
     18052     18051     18054     18055     18052     18051     18054     18056
     18052     18051     18054     18057     18053     18051     18054     18055
     18053     18051     18054     18056     18053     18051     18054     18057
     18054     18057     18060     18061     18054     18057     18060     18062
     18054     18057     18060     18063     18055     18054     18057     18058
     18055     18054     18057     18059     18055     18054     18057     18060
     18056     18054     18057     18058     18056     18054     18057     18059
     18056     18054     18057     18060     18057     18060     18063     18064
     18057     18060     18063     18065     18057     18060     18063     18066
     18058     18057     18060     18061     18058     18057     18060     18062
     18058     18057     18060     18063     18059     18057     18060     18061
     18059     18057     18060     18062     18059     18057     18060     18063
     18060     18063     18066     18067     18060     18063     18066     18068
     18060     18063     18066     18069     18061     18060     18063     18064
     18061     18060     18063     18065     18061     18060     18063     18066
     18062     18060     18063     18064     18062     18060     18063     18065
     18062     18060     18063     18066     18063     18066     18069     18070
     18063     18066     18069     18071     18063     18066     18069     18072
     18064     18063     18066     18067     18064     18063     18066     18068
     18064     18063     18066     18069     18065     18063     18066     18067
     18065     18063     18066     18068     18065     18063     18066     18069
     18066     18069     18072     18073     18066     18069     18072     18074
     18066     18069     18072     18075     18067     18066     18069     18070
     18067     18066     18069     18071     18067     18066     18069     18072
     18068     18066     18069     18070     18068     18066     18069     18071
     18068     18066     18069     18072     18069     18072     18075     18076
     18069     18072     18075     18077     18069     18072     18075     18078
     18070     18069     18072     18073     18070     18069     18072     18074
     18070     18069     18072     18075     18071     18069     18072     18073
     18071     18069     18072     18074     18071     18069     18072     18075
     18072     18075     18078     18079     18072     18075     18078     18080
     18072     18075     18078     18081     18073     18072     18075     18076
     18073     18072     18075     18077     18073     18072     18075     18078
     18074     18072     18075     18076     18074     18072     18075     18077
     18074     18072     18075     18078     18075     18078     18081     18082
     18075     18078     18081     18083     18075     18078     18081     18084
     18076     18075     18078     18079     18076     18075     18078     18080
     18076     18075     18078     18081     18077     18075     18078     18079
     18077     18075     18078     18080     18077     18075     18078     18081
     18078     18081     18084     18085     18078     18081     18084     18086
     18078     18081     18084     18087     18079     18078     18081     18082
     18079     18078     18081     18083     18079     18078     18081     18084
     18080     18078     18081     18082     18080     18078     18081     18083
     18080     18078     18081     18084     18081     18084     18087     18088
     18081     18084     18087     18089     18081     18084     18087     18090
     18082     18081     18084     18085     18082     18081     18084     18086
     18082     18081     18084     18087     18083     18081     18084     18085
     18083     18081     18084     18086     18083     18081     18084     18087
     18085     18084     18087     18088     18085     18084     18087     18089
     18085     18084     18087     18090     18086     18084     18087     18088
     18086     18084     18087     18089     18086     18084     18087     18090
     18091     18092     18107     18108     18091     18092     18107     18109
     18091     18092     18107     18113     18092     18091     18095     18096
     18092     18091     18095     18097     18092     18091     18095     18098
     18092     18091     18099     18100     18092     18091     18099     18101
     18092     18091     18099     18102     18092     18091     18103     18104
     18092     18091     18103     18105     18092     18091     18103     18106
     18092     18107     18113     18110     18093     18092     18091     18095
     18093     18092     18091     18099     18093     18092     18091     18103
     18093     18092     18107     18108     18093     18092     18107     18109
     18093     18092     18107     18113     18094     18092     18091     18095
     18094     18092     18091     18099     18094     18092     18091     18103
     18094     18092     18107     18108     18094     18092     18107     18109
     18094     18092     18107     18113     18095     18091     18092     18107
     18095     18091     18099     18100     18095     18091     18099     18101
     18095     18091     18099     18102     18095     18091     18103     18104
     18095     18091     18103     18105     18095     18091     18103     18106
     18096     18095     18091     18099     18096     18095     18091     18103
     18097     18095     18091     18099     18097     18095     18091     18103
     18098     18095     18091     18099     18098     18095     18091     18103
     18099     18091     18092     18107     18099     18091     18103     18104
     18099     18091     18103     18105     18099     18091     18103     18106
     18100     18099     18091     18103     18101     18099     18091     18103
     18102     18099     18091     18103     18103     18091     18092     18107
     18107     18113     18110     18111     18107     18113     18110     18112
     18107     18113     18110     18114     18108     18107     18113     18110
     18109     18107     18113     18110     18110     18114     18115     18116
     18110     18114     18115     18117     18110     18114     18115     18118
     18111     18110     18114     18115     18112     18110     18114     18115
     18113     18110     18114     18115     18114     18115     18118     18119
     18114     18115     18118     18120     18114     18115     18118     18126
     18115     18118     18120     18121     18115     18118     18126     18127
     18115     18118     18126     18128     18115     18118     18126     18129
     18116     18115     18118     18119     18116     18115     18118     18120
     18116     18115     18118     18126     18117     18115     18118     18119
     18117     18115     18118     18120     18117     18115     18118     18126
     18118     18120     18121     18122     18118     18120     18121     18123
     18118     18126     18129     18130     18119     18118     18120     18121
     18119     18118     18126     18127     18119     18118     18126     18128
     18119     18118     18126     18129     18120     18118     18126     18127
     18120     18118     18126     18128     18120     18118     18126     18129
     18120     18121     18123     18124     18120     18121     18123     18125
     18120     18121     18123     18135     18121     18120     18118     18126
     18121     18123     18135     18136     18121     18123     18135     18137
     18121     18123     18135     18138     18122     18121     18123     18124
     18122     18121     18123     18125     18122     18121     18123     18135
     18123     18135     18138     18139     18123     18135     18138     18140
     18123     18135     18138     18141     18124     18123     18135     18136
     18124     18123     18135     18137     18124     18123     18135     18138
     18125     18123     18135     18136     18125     18123     18135     18137
     18125     18123     18135     18138     18126     18129     18130     18131
     18126     18129     18130     18132     18127     18126     18129     18130
     18128     18126     18129     18130     18129     18130     18132     18133
     18129     18130     18132     18134     18129     18130     18132     18182
     18130     18132     18182     18183     18130     18132     18182     18184
     18130     18132     18182     18185     18131     18130     18132     18133
     18131     18130     18132     18134     18131     18130     18132     18182
     18132     18182     18185     18186     18132     18182     18185     18187
     18132     18182     18185     18188     18133     18132     18182     18183
     18133     18132     18182     18184     18133     18132     18182     18185
     18134     18132     18182     18183     18134     18132     18182     18184
     18134     18132     18182     18185     18135     18138     18141     18142
     18135     18138     18141     18143     18135     18138     18141     18144
     18136     18135     18138     18139     18136     18135     18138     18140
     18136     18135     18138     18141     18137     18135     18138     18139
     18137     18135     18138     18140     18137     18135     18138     18141
     18138     18141     18144     18145     18138     18141     18144     18146
     18138     18141     18144     18147     18139     18138     18141     18142
     18139     18138     18141     18143     18139     18138     18141     18144
     18140     18138     18141     18142     18140     18138     18141     18143
     18140     18138     18141     18144     18141     18144     18147     18148
     18141     18144     18147     18149     18141     18144     18147     18150
     18142     18141     18144     18145     18142     18141     18144     18146
     18142     18141     18144     18147     18143     18141     18144     18145
     18143     18141     18144     18146     18143     18141     18144     18147
     18144     18147     18150     18151     18144     18147     18150     18152
     18144     18147     18150     18153     18145     18144     18147     18148
     18145     18144     18147     18149     18145     18144     18147     18150
     18146     18144     18147     18148     18146     18144     18147     18149
     18146     18144     18147     18150     18147     18150     18153     18154
     18147     18150     18153     18155     18148     18147     18150     18151
     18148     18147     18150     18152     18148     18147     18150     18153
     18149     18147     18150     18151     18149     18147     18150     18152
     18149     18147     18150     18153     18150     18153     18155     18156
     18150     18153     18155     18157     18151     18150     18153     18154
     18151     18150     18153     18155     18152     18150     18153     18154
     18152     18150     18153     18155     18153     18155     18157     18158
     18153     18155     18157     18159     18153     18155     18157     18160
     18154     18153     18155     18156     18154     18153     18155     18157
     18155     18157     18160     18161     18155     18157     18160     18162
     18155     18157     18160     18163     18156     18155     18157     18158
     18156     18155     18157     18159     18156     18155     18157     18160
     18157     18160     18163     18164     18157     18160     18163     18165
     18157     18160     18163     18166     18158     18157     18160     18161
     18158     18157     18160     18162     18158     18157     18160     18163
     18159     18157     18160     18161     18159     18157     18160     18162
     18159     18157     18160     18163     18160     18163     18166     18167
     18160     18163     18166     18168     18160     18163     18166     18169
     18161     18160     18163     18164     18161     18160     18163     18165
     18161     18160     18163     18166     18162     18160     18163     18164
     18162     18160     18163     18165     18162     18160     18163     18166
     18163     18166     18169     18170     18163     18166     18169     18171
     18163     18166     18169     18172     18164     18163     18166     18167
     18164     18163     18166     18168     18164     18163     18166     18169
     18165     18163     18166     18167     18165     18163     18166     18168
     18165     18163     18166     18169     18166     18169     18172     18173
     18166     18169     18172     18174     18166     18169     18172     18175
     18167     18166     18169     18170     18167     18166     18169     18171
     18167     18166     18169     18172     18168     18166     18169     18170
     18168     18166     18169     18171     18168     18166     18169     18172
     18169     18172     18175     18176     18169     18172     18175     18177
     18169     18172     18175     18178     18170     18169     18172     18173
     18170     18169     18172     18174     18170     18169     18172     18175
     18171     18169     18172     18173     18171     18169     18172     18174
     18171     18169     18172     18175     18172     18175     18178     18179
     18172     18175     18178     18180     18172     18175     18178     18181
     18173     18172     18175     18176     18173     18172     18175     18177
     18173     18172     18175     18178     18174     18172     18175     18176
     18174     18172     18175     18177     18174     18172     18175     18178
     18176     18175     18178     18179     18176     18175     18178     18180
     18176     18175     18178     18181     18177     18175     18178     18179
     18177     18175     18178     18180     18177     18175     18178     18181
     18182     18185     18188     18189     18182     18185     18188     18190
     18182     18185     18188     18191     18183     18182     18185     18186
     18183     18182     18185     18187     18183     18182     18185     18188
     18184     18182     18185     18186     18184     18182     18185     18187
     18184     18182     18185     18188     18185     18188     18191     18192
     18185     18188     18191     18193     18185     18188     18191     18194
     18186     18185     18188     18189     18186     18185     18188     18190
     18186     18185     18188     18191     18187     18185     18188     18189
     18187     18185     18188     18190     18187     18185     18188     18191
     18188     18191     18194     18195     18188     18191     18194     18196
     18188     18191     18194     18197     18189     18188     18191     18192
     18189     18188     18191     18193     18189     18188     18191     18194
     18190     18188     18191     18192     18190     18188     18191     18193
     18190     18188     18191     18194     18191     18194     18197     18198
     18191     18194     18197     18199     18191     18194     18197     18200
     18192     18191     18194     18195     18192     18191     18194     18196
     18192     18191     18194     18197     18193     18191     18194     18195
     18193     18191     18194     18196     18193     18191     18194     18197
     18194     18197     18200     18201     18194     18197     18200     18202
     18194     18197     18200     18203     18195     18194     18197     18198
     18195     18194     18197     18199     18195     18194     18197     18200
     18196     18194     18197     18198     18196     18194     18197     18199
     18196     18194     18197     18200     18197     18200     18203     18204
     18197     18200     18203     18205     18197     18200     18203     18206
     18198     18197     18200     18201     18198     18197     18200     18202
     18198     18197     18200     18203     18199     18197     18200     18201
     18199     18197     18200     18202     18199     18197     18200     18203
     18200     18203     18206     18207     18200     18203     18206     18208
     18200     18203     18206     18209     18201     18200     18203     18204
     18201     18200     18203     18205     18201     18200     18203     18206
     18202     18200     18203     18204     18202     18200     18203     18205
     18202     18200     18203     18206     18203     18206     18209     18210
     18203     18206     18209     18211     18203     18206     18209     18212
     18204     18203     18206     18207     18204     18203     18206     18208
     18204     18203     18206     18209     18205     18203     18206     18207
     18205     18203     18206     18208     18205     18203     18206     18209
     18206     18209     18212     18213     18206     18209     18212     18214
     18206     18209     18212     18215     18207     18206     18209     18210
     18207     18206     18209     18211     18207     18206     18209     18212
     18208     18206     18209     18210     18208     18206     18209     18211
     18208     18206     18209     18212     18209     18212     18215     18216
     18209     18212     18215     18217     18209     18212     18215     18218
     18210     18209     18212     18213     18210     18209     18212     18214
     18210     18209     18212     18215     18211     18209     18212     18213
     18211     18209     18212     18214     18211     18209     18212     18215
     18212     18215     18218     18219     18212     18215     18218     18220
     18212     18215     18218     18221     18213     18212     18215     18216
     18213     18212     18215     18217     18213     18212     18215     18218
     18214     18212     18215     18216     18214     18212     18215     18217
     18214     18212     18215     18218     18215     18218     18221     18222
     18215     18218     18221     18223     18215     18218     18221     18224
     18216     18215     18218     18219     18216     18215     18218     18220
     18216     18215     18218     18221     18217     18215     18218     18219
     18217     18215     18218     18220     18217     18215     18218     18221
     18219     18218     18221     18222     18219     18218     18221     18223
     18219     18218     18221     18224     18220     18218     18221     18222
     18220     18218     18221     18223     18220     18218     18221     18224
     18225     18226     18241     18242     18225     18226     18241     18243
     18225     18226     18241     18247     18226     18225     18229     18230
     18226     18225     18229     18231     18226     18225     18229     18232
     18226     18225     18233     18234     18226     18225     18233     18235
     18226     18225     18233     18236     18226     18225     18237     18238
     18226     18225     18237     18239     18226     18225     18237     18240
     18226     18241     18247     18244     18227     18226     18225     18229
     18227     18226     18225     18233     18227     18226     18225     18237
     18227     18226     18241     18242     18227     18226     18241     18243
     18227     18226     18241     18247     18228     18226     18225     18229
     18228     18226     18225     18233     18228     18226     18225     18237
     18228     18226     18241     18242     18228     18226     18241     18243
     18228     18226     18241     18247     18229     18225     18226     18241
     18229     18225     18233     18234     18229     18225     18233     18235
     18229     18225     18233     18236     18229     18225     18237     18238
     18229     18225     18237     18239     18229     18225     18237     18240
     18230     18229     18225     18233     18230     18229     18225     18237
     18231     18229     18225     18233     18231     18229     18225     18237
     18232     18229     18225     18233     18232     18229     18225     18237
     18233     18225     18226     18241     18233     18225     18237     18238
     18233     18225     18237     18239     18233     18225     18237     18240
     18234     18233     18225     18237     18235     18233     18225     18237
     18236     18233     18225     18237     18237     18225     18226     18241
     18241     18247     18244     18245     18241     18247     18244     18246
     18241     18247     18244     18248     18242     18241     18247     18244
     18243     18241     18247     18244     18244     18248     18249     18250
     18244     18248     18249     18251     18244     18248     18249     18252
     18245     18244     18248     18249     18246     18244     18248     18249
     18247     18244     18248     18249     18248     18249     18252     18253
     18248     18249     18252     18254     18248     18249     18252     18260
     18249     18252     18254     18255     18249     18252     18260     18261
     18249     18252     18260     18262     18249     18252     18260     18263
     18250     18249     18252     18253     18250     18249     18252     18254
     18250     18249     18252     18260     18251     18249     18252     18253
     18251     18249     18252     18254     18251     18249     18252     18260
     18252     18254     18255     18256     18252     18254     18255     18257
     18252     18260     18263     18264     18253     18252     18254     18255
     18253     18252     18260     18261     18253     18252     18260     18262
     18253     18252     18260     18263     18254     18252     18260     18261
     18254     18252     18260     18262     18254     18252     18260     18263
     18254     18255     18257     18258     18254     18255     18257     18259
     18254     18255     18257     18269     18255     18254     18252     18260
     18255     18257     18269     18270     18255     18257     18269     18271
     18255     18257     18269     18272     18256     18255     18257     18258
     18256     18255     18257     18259     18256     18255     18257     18269
     18257     18269     18272     18273     18257     18269     18272     18274
     18257     18269     18272     18275     18258     18257     18269     18270
     18258     18257     18269     18271     18258     18257     18269     18272
     18259     18257     18269     18270     18259     18257     18269     18271
     18259     18257     18269     18272     18260     18263     18264     18265
     18260     18263     18264     18266     18261     18260     18263     18264
     18262     18260     18263     18264     18263     18264     18266     18267
     18263     18264     18266     18268     18263     18264     18266     18316
     18264     18266     18316     18317     18264     18266     18316     18318
     18264     18266     18316     18319     18265     18264     18266     18267
     18265     18264     18266     18268     18265     18264     18266     18316
     18266     18316     18319     18320     18266     18316     18319     18321
     18266     18316     18319     18322     18267     18266     18316     18317
     18267     18266     18316     18318     18267     18266     18316     18319
     18268     18266     18316     18317     18268     18266     18316     18318
     18268     18266     18316     18319     18269     18272     18275     18276
     18269     18272     18275     18277     18269     18272     18275     18278
     18270     18269     18272     18273     18270     18269     18272     18274
     18270     18269     18272     18275     18271     18269     18272     18273
     18271     18269     18272     18274     18271     18269     18272     18275
     18272     18275     18278     18279     18272     18275     18278     18280
     18272     18275     18278     18281     18273     18272     18275     18276
     18273     18272     18275     18277     18273     18272     18275     18278
     18274     18272     18275     18276     18274     18272     18275     18277
     18274     18272     18275     18278     18275     18278     18281     18282
     18275     18278     18281     18283     18275     18278     18281     18284
     18276     18275     18278     18279     18276     18275     18278     18280
     18276     18275     18278     18281     18277     18275     18278     18279
     18277     18275     18278     18280     18277     18275     18278     18281
     18278     18281     18284     18285     18278     18281     18284     18286
     18278     18281     18284     18287     18279     18278     18281     18282
     18279     18278     18281     18283     18279     18278     18281     18284
     18280     18278     18281     18282     18280     18278     18281     18283
     18280     18278     18281     18284     18281     18284     18287     18288
     18281     18284     18287     18289     18282     18281     18284     18285
     18282     18281     18284     18286     18282     18281     18284     18287
     18283     18281     18284     18285     18283     18281     18284     18286
     18283     18281     18284     18287     18284     18287     18289     18290
     18284     18287     18289     18291     18285     18284     18287     18288
     18285     18284     18287     18289     18286     18284     18287     18288
     18286     18284     18287     18289     18287     18289     18291     18292
     18287     18289     18291     18293     18287     18289     18291     18294
     18288     18287     18289     18290     18288     18287     18289     18291
     18289     18291     18294     18295     18289     18291     18294     18296
     18289     18291     18294     18297     18290     18289     18291     18292
     18290     18289     18291     18293     18290     18289     18291     18294
     18291     18294     18297     18298     18291     18294     18297     18299
     18291     18294     18297     18300     18292     18291     18294     18295
     18292     18291     18294     18296     18292     18291     18294     18297
     18293     18291     18294     18295     18293     18291     18294     18296
     18293     18291     18294     18297     18294     18297     18300     18301
     18294     18297     18300     18302     18294     18297     18300     18303
     18295     18294     18297     18298     18295     18294     18297     18299
     18295     18294     18297     18300     18296     18294     18297     18298
     18296     18294     18297     18299     18296     18294     18297     18300
     18297     18300     18303     18304     18297     18300     18303     18305
     18297     18300     18303     18306     18298     18297     18300     18301
     18298     18297     18300     18302     18298     18297     18300     18303
     18299     18297     18300     18301     18299     18297     18300     18302
     18299     18297     18300     18303     18300     18303     18306     18307
     18300     18303     18306     18308     18300     18303     18306     18309
     18301     18300     18303     18304     18301     18300     18303     18305
     18301     18300     18303     18306     18302     18300     18303     18304
     18302     18300     18303     18305     18302     18300     18303     18306
     18303     18306     18309     18310     18303     18306     18309     18311
     18303     18306     18309     18312     18304     18303     18306     18307
     18304     18303     18306     18308     18304     18303     18306     18309
     18305     18303     18306     18307     18305     18303     18306     18308
     18305     18303     18306     18309     18306     18309     18312     18313
     18306     18309     18312     18314     18306     18309     18312     18315
     18307     18306     18309     18310     18307     18306     18309     18311
     18307     18306     18309     18312     18308     18306     18309     18310
     18308     18306     18309     18311     18308     18306     18309     18312
     18310     18309     18312     18313     18310     18309     18312     18314
     18310     18309     18312     18315     18311     18309     18312     18313
     18311     18309     18312     18314     18311     18309     18312     18315
     18316     18319     18322     18323     18316     18319     18322     18324
     18316     18319     18322     18325     18317     18316     18319     18320
     18317     18316     18319     18321     18317     18316     18319     18322
     18318     18316     18319     18320     18318     18316     18319     18321
     18318     18316     18319     18322     18319     18322     18325     18326
     18319     18322     18325     18327     18319     18322     18325     18328
     18320     18319     18322     18323     18320     18319     18322     18324
     18320     18319     18322     18325     18321     18319     18322     18323
     18321     18319     18322     18324     18321     18319     18322     18325
     18322     18325     18328     18329     18322     18325     18328     18330
     18322     18325     18328     18331     18323     18322     18325     18326
     18323     18322     18325     18327     18323     18322     18325     18328
     18324     18322     18325     18326     18324     18322     18325     18327
     18324     18322     18325     18328     18325     18328     18331     18332
     18325     18328     18331     18333     18325     18328     18331     18334
     18326     18325     18328     18329     18326     18325     18328     18330
     18326     18325     18328     18331     18327     18325     18328     18329
     18327     18325     18328     18330     18327     18325     18328     18331
     18328     18331     18334     18335     18328     18331     18334     18336
     18328     18331     18334     18337     18329     18328     18331     18332
     18329     18328     18331     18333     18329     18328     18331     18334
     18330     18328     18331     18332     18330     18328     18331     18333
     18330     18328     18331     18334     18331     18334     18337     18338
     18331     18334     18337     18339     18331     18334     18337     18340
     18332     18331     18334     18335     18332     18331     18334     18336
     18332     18331     18334     18337     18333     18331     18334     18335
     18333     18331     18334     18336     18333     18331     18334     18337
     18334     18337     18340     18341     18334     18337     18340     18342
     18334     18337     18340     18343     18335     18334     18337     18338
     18335     18334     18337     18339     18335     18334     18337     18340
     18336     18334     18337     18338     18336     18334     18337     18339
     18336     18334     18337     18340     18337     18340     18343     18344
     18337     18340     18343     18345     18337     18340     18343     18346
     18338     18337     18340     18341     18338     18337     18340     18342
     18338     18337     18340     18343     18339     18337     18340     18341
     18339     18337     18340     18342     18339     18337     18340     18343
     18340     18343     18346     18347     18340     18343     18346     18348
     18340     18343     18346     18349     18341     18340     18343     18344
     18341     18340     18343     18345     18341     18340     18343     18346
     18342     18340     18343     18344     18342     18340     18343     18345
     18342     18340     18343     18346     18343     18346     18349     18350
     18343     18346     18349     18351     18343     18346     18349     18352
     18344     18343     18346     18347     18344     18343     18346     18348
     18344     18343     18346     18349     18345     18343     18346     18347
     18345     18343     18346     18348     18345     18343     18346     18349
     18346     18349     18352     18353     18346     18349     18352     18354
     18346     18349     18352     18355     18347     18346     18349     18350
     18347     18346     18349     18351     18347     18346     18349     18352
     18348     18346     18349     18350     18348     18346     18349     18351
     18348     18346     18349     18352     18349     18352     18355     18356
     18349     18352     18355     18357     18349     18352     18355     18358
     18350     18349     18352     18353     18350     18349     18352     18354
     18350     18349     18352     18355     18351     18349     18352     18353
     18351     18349     18352     18354     18351     18349     18352     18355
     18353     18352     18355     18356     18353     18352     18355     18357
     18353     18352     18355     18358     18354     18352     18355     18356
     18354     18352     18355     18357     18354     18352     18355     18358
     18359     18360     18375     18376     18359     18360     18375     18377
     18359     18360     18375     18381     18360     18359     18363     18364
     18360     18359     18363     18365     18360     18359     18363     18366
     18360     18359     18367     18368     18360     18359     18367     18369
     18360     18359     18367     18370     18360     18359     18371     18372
     18360     18359     18371     18373     18360     18359     18371     18374
     18360     18375     18381     18378     18361     18360     18359     18363
     18361     18360     18359     18367     18361     18360     18359     18371
     18361     18360     18375     18376     18361     18360     18375     18377
     18361     18360     18375     18381     18362     18360     18359     18363
     18362     18360     18359     18367     18362     18360     18359     18371
     18362     18360     18375     18376     18362     18360     18375     18377
     18362     18360     18375     18381     18363     18359     18360     18375
     18363     18359     18367     18368     18363     18359     18367     18369
     18363     18359     18367     18370     18363     18359     18371     18372
     18363     18359     18371     18373     18363     18359     18371     18374
     18364     18363     18359     18367     18364     18363     18359     18371
     18365     18363     18359     18367     18365     18363     18359     18371
     18366     18363     18359     18367     18366     18363     18359     18371
     18367     18359     18360     18375     18367     18359     18371     18372
     18367     18359     18371     18373     18367     18359     18371     18374
     18368     18367     18359     18371     18369     18367     18359     18371
     18370     18367     18359     18371     18371     18359     18360     18375
     18375     18381     18378     18379     18375     18381     18378     18380
     18375     18381     18378     18382     18376     18375     18381     18378
     18377     18375     18381     18378     18378     18382     18383     18384
     18378     18382     18383     18385     18378     18382     18383     18386
     18379     18378     18382     18383     18380     18378     18382     18383
     18381     18378     18382     18383     18382     18383     18386     18387
     18382     18383     18386     18388     18382     18383     18386     18394
     18383     18386     18388     18389     18383     18386     18394     18395
     18383     18386     18394     18396     18383     18386     18394     18397
     18384     18383     18386     18387     18384     18383     18386     18388
     18384     18383     18386     18394     18385     18383     18386     18387
     18385     18383     18386     18388     18385     18383     18386     18394
     18386     18388     18389     18390     18386     18388     18389     18391
     18386     18394     18397     18398     18387     18386     18388     18389
     18387     18386     18394     18395     18387     18386     18394     18396
     18387     18386     18394     18397     18388     18386     18394     18395
     18388     18386     18394     18396     18388     18386     18394     18397
     18388     18389     18391     18392     18388     18389     18391     18393
     18388     18389     18391     18403     18389     18388     18386     18394
     18389     18391     18403     18404     18389     18391     18403     18405
     18389     18391     18403     18406     18390     18389     18391     18392
     18390     18389     18391     18393     18390     18389     18391     18403
     18391     18403     18406     18407     18391     18403     18406     18408
     18391     18403     18406     18409     18392     18391     18403     18404
     18392     18391     18403     18405     18392     18391     18403     18406
     18393     18391     18403     18404     18393     18391     18403     18405
     18393     18391     18403     18406     18394     18397     18398     18399
     18394     18397     18398     18400     18395     18394     18397     18398
     18396     18394     18397     18398     18397     18398     18400     18401
     18397     18398     18400     18402     18397     18398     18400     18450
     18398     18400     18450     18451     18398     18400     18450     18452
     18398     18400     18450     18453     18399     18398     18400     18401
     18399     18398     18400     18402     18399     18398     18400     18450
     18400     18450     18453     18454     18400     18450     18453     18455
     18400     18450     18453     18456     18401     18400     18450     18451
     18401     18400     18450     18452     18401     18400     18450     18453
     18402     18400     18450     18451     18402     18400     18450     18452
     18402     18400     18450     18453     18403     18406     18409     18410
     18403     18406     18409     18411     18403     18406     18409     18412
     18404     18403     18406     18407     18404     18403     18406     18408
     18404     18403     18406     18409     18405     18403     18406     18407
     18405     18403     18406     18408     18405     18403     18406     18409
     18406     18409     18412     18413     18406     18409     18412     18414
     18406     18409     18412     18415     18407     18406     18409     18410
     18407     18406     18409     18411     18407     18406     18409     18412
     18408     18406     18409     18410     18408     18406     18409     18411
     18408     18406     18409     18412     18409     18412     18415     18416
     18409     18412     18415     18417     18409     18412     18415     18418
     18410     18409     18412     18413     18410     18409     18412     18414
     18410     18409     18412     18415     18411     18409     18412     18413
     18411     18409     18412     18414     18411     18409     18412     18415
     18412     18415     18418     18419     18412     18415     18418     18420
     18412     18415     18418     18421     18413     18412     18415     18416
     18413     18412     18415     18417     18413     18412     18415     18418
     18414     18412     18415     18416     18414     18412     18415     18417
     18414     18412     18415     18418     18415     18418     18421     18422
     18415     18418     18421     18423     18416     18415     18418     18419
     18416     18415     18418     18420     18416     18415     18418     18421
     18417     18415     18418     18419     18417     18415     18418     18420
     18417     18415     18418     18421     18418     18421     18423     18424
     18418     18421     18423     18425     18419     18418     18421     18422
     18419     18418     18421     18423     18420     18418     18421     18422
     18420     18418     18421     18423     18421     18423     18425     18426
     18421     18423     18425     18427     18421     18423     18425     18428
     18422     18421     18423     18424     18422     18421     18423     18425
     18423     18425     18428     18429     18423     18425     18428     18430
     18423     18425     18428     18431     18424     18423     18425     18426
     18424     18423     18425     18427     18424     18423     18425     18428
     18425     18428     18431     18432     18425     18428     18431     18433
     18425     18428     18431     18434     18426     18425     18428     18429
     18426     18425     18428     18430     18426     18425     18428     18431
     18427     18425     18428     18429     18427     18425     18428     18430
     18427     18425     18428     18431     18428     18431     18434     18435
     18428     18431     18434     18436     18428     18431     18434     18437
     18429     18428     18431     18432     18429     18428     18431     18433
     18429     18428     18431     18434     18430     18428     18431     18432
     18430     18428     18431     18433     18430     18428     18431     18434
     18431     18434     18437     18438     18431     18434     18437     18439
     18431     18434     18437     18440     18432     18431     18434     18435
     18432     18431     18434     18436     18432     18431     18434     18437
     18433     18431     18434     18435     18433     18431     18434     18436
     18433     18431     18434     18437     18434     18437     18440     18441
     18434     18437     18440     18442     18434     18437     18440     18443
     18435     18434     18437     18438     18435     18434     18437     18439
     18435     18434     18437     18440     18436     18434     18437     18438
     18436     18434     18437     18439     18436     18434     18437     18440
     18437     18440     18443     18444     18437     18440     18443     18445
     18437     18440     18443     18446     18438     18437     18440     18441
     18438     18437     18440     18442     18438     18437     18440     18443
     18439     18437     18440     18441     18439     18437     18440     18442
     18439     18437     18440     18443     18440     18443     18446     18447
     18440     18443     18446     18448     18440     18443     18446     18449
     18441     18440     18443     18444     18441     18440     18443     18445
     18441     18440     18443     18446     18442     18440     18443     18444
     18442     18440     18443     18445     18442     18440     18443     18446
     18444     18443     18446     18447     18444     18443     18446     18448
     18444     18443     18446     18449     18445     18443     18446     18447
     18445     18443     18446     18448     18445     18443     18446     18449
     18450     18453     18456     18457     18450     18453     18456     18458
     18450     18453     18456     18459     18451     18450     18453     18454
     18451     18450     18453     18455     18451     18450     18453     18456
     18452     18450     18453     18454     18452     18450     18453     18455
     18452     18450     18453     18456     18453     18456     18459     18460
     18453     18456     18459     18461     18453     18456     18459     18462
     18454     18453     18456     18457     18454     18453     18456     18458
     18454     18453     18456     18459     18455     18453     18456     18457
     18455     18453     18456     18458     18455     18453     18456     18459
     18456     18459     18462     18463     18456     18459     18462     18464
     18456     18459     18462     18465     18457     18456     18459     18460
     18457     18456     18459     18461     18457     18456     18459     18462
     18458     18456     18459     18460     18458     18456     18459     18461
     18458     18456     18459     18462     18459     18462     18465     18466
     18459     18462     18465     18467     18459     18462     18465     18468
     18460     18459     18462     18463     18460     18459     18462     18464
     18460     18459     18462     18465     18461     18459     18462     18463
     18461     18459     18462     18464     18461     18459     18462     18465
     18462     18465     18468     18469     18462     18465     18468     18470
     18462     18465     18468     18471     18463     18462     18465     18466
     18463     18462     18465     18467     18463     18462     18465     18468
     18464     18462     18465     18466     18464     18462     18465     18467
     18464     18462     18465     18468     18465     18468     18471     18472
     18465     18468     18471     18473     18465     18468     18471     18474
     18466     18465     18468     18469     18466     18465     18468     18470
     18466     18465     18468     18471     18467     18465     18468     18469
     18467     18465     18468     18470     18467     18465     18468     18471
     18468     18471     18474     18475     18468     18471     18474     18476
     18468     18471     18474     18477     18469     18468     18471     18472
     18469     18468     18471     18473     18469     18468     18471     18474
     18470     18468     18471     18472     18470     18468     18471     18473
     18470     18468     18471     18474     18471     18474     18477     18478
     18471     18474     18477     18479     18471     18474     18477     18480
     18472     18471     18474     18475     18472     18471     18474     18476
     18472     18471     18474     18477     18473     18471     18474     18475
     18473     18471     18474     18476     18473     18471     18474     18477
     18474     18477     18480     18481     18474     18477     18480     18482
     18474     18477     18480     18483     18475     18474     18477     18478
     18475     18474     18477     18479     18475     18474     18477     18480
     18476     18474     18477     18478     18476     18474     18477     18479
     18476     18474     18477     18480     18477     18480     18483     18484
     18477     18480     18483     18485     18477     18480     18483     18486
     18478     18477     18480     18481     18478     18477     18480     18482
     18478     18477     18480     18483     18479     18477     18480     18481
     18479     18477     18480     18482     18479     18477     18480     18483
     18480     18483     18486     18487     18480     18483     18486     18488
     18480     18483     18486     18489     18481     18480     18483     18484
     18481     18480     18483     18485     18481     18480     18483     18486
     18482     18480     18483     18484     18482     18480     18483     18485
     18482     18480     18483     18486     18483     18486     18489     18490
     18483     18486     18489     18491     18483     18486     18489     18492
     18484     18483     18486     18487     18484     18483     18486     18488
     18484     18483     18486     18489     18485     18483     18486     18487
     18485     18483     18486     18488     18485     18483     18486     18489
     18487     18486     18489     18490     18487     18486     18489     18491
     18487     18486     18489     18492     18488     18486     18489     18490
     18488     18486     18489     18491     18488     18486     18489     18492
     18493     18494     18509     18510     18493     18494     18509     18511
     18493     18494     18509     18515     18494     18493     18497     18498
     18494     18493     18497     18499     18494     18493     18497     18500
     18494     18493     18501     18502     18494     18493     18501     18503
     18494     18493     18501     18504     18494     18493     18505     18506
     18494     18493     18505     18507     18494     18493     18505     18508
     18494     18509     18515     18512     18495     18494     18493     18497
     18495     18494     18493     18501     18495     18494     18493     18505
     18495     18494     18509     18510     18495     18494     18509     18511
     18495     18494     18509     18515     18496     18494     18493     18497
     18496     18494     18493     18501     18496     18494     18493     18505
     18496     18494     18509     18510     18496     18494     18509     18511
     18496     18494     18509     18515     18497     18493     18494     18509
     18497     18493     18501     18502     18497     18493     18501     18503
     18497     18493     18501     18504     18497     18493     18505     18506
     18497     18493     18505     18507     18497     18493     18505     18508
     18498     18497     18493     18501     18498     18497     18493     18505
     18499     18497     18493     18501     18499     18497     18493     18505
     18500     18497     18493     18501     18500     18497     18493     18505
     18501     18493     18494     18509     18501     18493     18505     18506
     18501     18493     18505     18507     18501     18493     18505     18508
     18502     18501     18493     18505     18503     18501     18493     18505
     18504     18501     18493     18505     18505     18493     18494     18509
     18509     18515     18512     18513     18509     18515     18512     18514
     18509     18515     18512     18516     18510     18509     18515     18512
     18511     18509     18515     18512     18512     18516     18517     18518
     18512     18516     18517     18519     18512     18516     18517     18520
     18513     18512     18516     18517     18514     18512     18516     18517
     18515     18512     18516     18517     18516     18517     18520     18521
     18516     18517     18520     18522     18516     18517     18520     18528
     18517     18520     18522     18523     18517     18520     18528     18529
     18517     18520     18528     18530     18517     18520     18528     18531
     18518     18517     18520     18521     18518     18517     18520     18522
     18518     18517     18520     18528     18519     18517     18520     18521
     18519     18517     18520     18522     18519     18517     18520     18528
     18520     18522     18523     18524     18520     18522     18523     18525
     18520     18528     18531     18532     18521     18520     18522     18523
     18521     18520     18528     18529     18521     18520     18528     18530
     18521     18520     18528     18531     18522     18520     18528     18529
     18522     18520     18528     18530     18522     18520     18528     18531
     18522     18523     18525     18526     18522     18523     18525     18527
     18522     18523     18525     18537     18523     18522     18520     18528
     18523     18525     18537     18538     18523     18525     18537     18539
     18523     18525     18537     18540     18524     18523     18525     18526
     18524     18523     18525     18527     18524     18523     18525     18537
     18525     18537     18540     18541     18525     18537     18540     18542
     18525     18537     18540     18543     18526     18525     18537     18538
     18526     18525     18537     18539     18526     18525     18537     18540
     18527     18525     18537     18538     18527     18525     18537     18539
     18527     18525     18537     18540     18528     18531     18532     18533
     18528     18531     18532     18534     18529     18528     18531     18532
     18530     18528     18531     18532     18531     18532     18534     18535
     18531     18532     18534     18536     18531     18532     18534     18584
     18532     18534     18584     18585     18532     18534     18584     18586
     18532     18534     18584     18587     18533     18532     18534     18535
     18533     18532     18534     18536     18533     18532     18534     18584
     18534     18584     18587     18588     18534     18584     18587     18589
     18534     18584     18587     18590     18535     18534     18584     18585
     18535     18534     18584     18586     18535     18534     18584     18587
     18536     18534     18584     18585     18536     18534     18584     18586
     18536     18534     18584     18587     18537     18540     18543     18544
     18537     18540     18543     18545     18537     18540     18543     18546
     18538     18537     18540     18541     18538     18537     18540     18542
     18538     18537     18540     18543     18539     18537     18540     18541
     18539     18537     18540     18542     18539     18537     18540     18543
     18540     18543     18546     18547     18540     18543     18546     18548
     18540     18543     18546     18549     18541     18540     18543     18544
     18541     18540     18543     18545     18541     18540     18543     18546
     18542     18540     18543     18544     18542     18540     18543     18545
     18542     18540     18543     18546     18543     18546     18549     18550
     18543     18546     18549     18551     18543     18546     18549     18552
     18544     18543     18546     18547     18544     18543     18546     18548
     18544     18543     18546     18549     18545     18543     18546     18547
     18545     18543     18546     18548     18545     18543     18546     18549
     18546     18549     18552     18553     18546     18549     18552     18554
     18546     18549     18552     18555     18547     18546     18549     18550
     18547     18546     18549     18551     18547     18546     18549     18552
     18548     18546     18549     18550     18548     18546     18549     18551
     18548     18546     18549     18552     18549     18552     18555     18556
     18549     18552     18555     18557     18550     18549     18552     18553
     18550     18549     18552     18554     18550     18549     18552     18555
     18551     18549     18552     18553     18551     18549     18552     18554
     18551     18549     18552     18555     18552     18555     18557     18558
     18552     18555     18557     18559     18553     18552     18555     18556
     18553     18552     18555     18557     18554     18552     18555     18556
     18554     18552     18555     18557     18555     18557     18559     18560
     18555     18557     18559     18561     18555     18557     18559     18562
     18556     18555     18557     18558     18556     18555     18557     18559
     18557     18559     18562     18563     18557     18559     18562     18564
     18557     18559     18562     18565     18558     18557     18559     18560
     18558     18557     18559     18561     18558     18557     18559     18562
     18559     18562     18565     18566     18559     18562     18565     18567
     18559     18562     18565     18568     18560     18559     18562     18563
     18560     18559     18562     18564     18560     18559     18562     18565
     18561     18559     18562     18563     18561     18559     18562     18564
     18561     18559     18562     18565     18562     18565     18568     18569
     18562     18565     18568     18570     18562     18565     18568     18571
     18563     18562     18565     18566     18563     18562     18565     18567
     18563     18562     18565     18568     18564     18562     18565     18566
     18564     18562     18565     18567     18564     18562     18565     18568
     18565     18568     18571     18572     18565     18568     18571     18573
     18565     18568     18571     18574     18566     18565     18568     18569
     18566     18565     18568     18570     18566     18565     18568     18571
     18567     18565     18568     18569     18567     18565     18568     18570
     18567     18565     18568     18571     18568     18571     18574     18575
     18568     18571     18574     18576     18568     18571     18574     18577
     18569     18568     18571     18572     18569     18568     18571     18573
     18569     18568     18571     18574     18570     18568     18571     18572
     18570     18568     18571     18573     18570     18568     18571     18574
     18571     18574     18577     18578     18571     18574     18577     18579
     18571     18574     18577     18580     18572     18571     18574     18575
     18572     18571     18574     18576     18572     18571     18574     18577
     18573     18571     18574     18575     18573     18571     18574     18576
     18573     18571     18574     18577     18574     18577     18580     18581
     18574     18577     18580     18582     18574     18577     18580     18583
     18575     18574     18577     18578     18575     18574     18577     18579
     18575     18574     18577     18580     18576     18574     18577     18578
     18576     18574     18577     18579     18576     18574     18577     18580
     18578     18577     18580     18581     18578     18577     18580     18582
     18578     18577     18580     18583     18579     18577     18580     18581
     18579     18577     18580     18582     18579     18577     18580     18583
     18584     18587     18590     18591     18584     18587     18590     18592
     18584     18587     18590     18593     18585     18584     18587     18588
     18585     18584     18587     18589     18585     18584     18587     18590
     18586     18584     18587     18588     18586     18584     18587     18589
     18586     18584     18587     18590     18587     18590     18593     18594
     18587     18590     18593     18595     18587     18590     18593     18596
     18588     18587     18590     18591     18588     18587     18590     18592
     18588     18587     18590     18593     18589     18587     18590     18591
     18589     18587     18590     18592     18589     18587     18590     18593
     18590     18593     18596     18597     18590     18593     18596     18598
     18590     18593     18596     18599     18591     18590     18593     18594
     18591     18590     18593     18595     18591     18590     18593     18596
     18592     18590     18593     18594     18592     18590     18593     18595
     18592     18590     18593     18596     18593     18596     18599     18600
     18593     18596     18599     18601     18593     18596     18599     18602
     18594     18593     18596     18597     18594     18593     18596     18598
     18594     18593     18596     18599     18595     18593     18596     18597
     18595     18593     18596     18598     18595     18593     18596     18599
     18596     18599     18602     18603     18596     18599     18602     18604
     18596     18599     18602     18605     18597     18596     18599     18600
     18597     18596     18599     18601     18597     18596     18599     18602
     18598     18596     18599     18600     18598     18596     18599     18601
     18598     18596     18599     18602     18599     18602     18605     18606
     18599     18602     18605     18607     18599     18602     18605     18608
     18600     18599     18602     18603     18600     18599     18602     18604
     18600     18599     18602     18605     18601     18599     18602     18603
     18601     18599     18602     18604     18601     18599     18602     18605
     18602     18605     18608     18609     18602     18605     18608     18610
     18602     18605     18608     18611     18603     18602     18605     18606
     18603     18602     18605     18607     18603     18602     18605     18608
     18604     18602     18605     18606     18604     18602     18605     18607
     18604     18602     18605     18608     18605     18608     18611     18612
     18605     18608     18611     18613     18605     18608     18611     18614
     18606     18605     18608     18609     18606     18605     18608     18610
     18606     18605     18608     18611     18607     18605     18608     18609
     18607     18605     18608     18610     18607     18605     18608     18611
     18608     18611     18614     18615     18608     18611     18614     18616
     18608     18611     18614     18617     18609     18608     18611     18612
     18609     18608     18611     18613     18609     18608     18611     18614
     18610     18608     18611     18612     18610     18608     18611     18613
     18610     18608     18611     18614     18611     18614     18617     18618
     18611     18614     18617     18619     18611     18614     18617     18620
     18612     18611     18614     18615     18612     18611     18614     18616
     18612     18611     18614     18617     18613     18611     18614     18615
     18613     18611     18614     18616     18613     18611     18614     18617
     18614     18617     18620     18621     18614     18617     18620     18622
     18614     18617     18620     18623     18615     18614     18617     18618
     18615     18614     18617     18619     18615     18614     18617     18620
     18616     18614     18617     18618     18616     18614     18617     18619
     18616     18614     18617     18620     18617     18620     18623     18624
     18617     18620     18623     18625     18617     18620     18623     18626
     18618     18617     18620     18621     18618     18617     18620     18622
     18618     18617     18620     18623     18619     18617     18620     18621
     18619     18617     18620     18622     18619     18617     18620     18623
     18621     18620     18623     18624     18621     18620     18623     18625
     18621     18620     18623     18626     18622     18620     18623     18624
     18622     18620     18623     18625     18622     18620     18623     18626
     18627     18628     18643     18644     18627     18628     18643     18645
     18627     18628     18643     18649     18628     18627     18631     18632
     18628     18627     18631     18633     18628     18627     18631     18634
     18628     18627     18635     18636     18628     18627     18635     18637
     18628     18627     18635     18638     18628     18627     18639     18640
     18628     18627     18639     18641     18628     18627     18639     18642
     18628     18643     18649     18646     18629     18628     18627     18631
     18629     18628     18627     18635     18629     18628     18627     18639
     18629     18628     18643     18644     18629     18628     18643     18645
     18629     18628     18643     18649     18630     18628     18627     18631
     18630     18628     18627     18635     18630     18628     18627     18639
     18630     18628     18643     18644     18630     18628     18643     18645
     18630     18628     18643     18649     18631     18627     18628     18643
     18631     18627     18635     18636     18631     18627     18635     18637
     18631     18627     18635     18638     18631     18627     18639     18640
     18631     18627     18639     18641     18631     18627     18639     18642
     18632     18631     18627     18635     18632     18631     18627     18639
     18633     18631     18627     18635     18633     18631     18627     18639
     18634     18631     18627     18635     18634     18631     18627     18639
     18635     18627     18628     18643     18635     18627     18639     18640
     18635     18627     18639     18641     18635     18627     18639     18642
     18636     18635     18627     18639     18637     18635     18627     18639
     18638     18635     18627     18639     18639     18627     18628     18643
     18643     18649     18646     18647     18643     18649     18646     18648
     18643     18649     18646     18650     18644     18643     18649     18646
     18645     18643     18649     18646     18646     18650     18651     18652
     18646     18650     18651     18653     18646     18650     18651     18654
     18647     18646     18650     18651     18648     18646     18650     18651
     18649     18646     18650     18651     18650     18651     18654     18655
     18650     18651     18654     18656     18650     18651     18654     18662
     18651     18654     18656     18657     18651     18654     18662     18663
     18651     18654     18662     18664     18651     18654     18662     18665
     18652     18651     18654     18655     18652     18651     18654     18656
     18652     18651     18654     18662     18653     18651     18654     18655
     18653     18651     18654     18656     18653     18651     18654     18662
     18654     18656     18657     18658     18654     18656     18657     18659
     18654     18662     18665     18666     18655     18654     18656     18657
     18655     18654     18662     18663     18655     18654     18662     18664
     18655     18654     18662     18665     18656     18654     18662     18663
     18656     18654     18662     18664     18656     18654     18662     18665
     18656     18657     18659     18660     18656     18657     18659     18661
     18656     18657     18659     18671     18657     18656     18654     18662
     18657     18659     18671     18672     18657     18659     18671     18673
     18657     18659     18671     18674     18658     18657     18659     18660
     18658     18657     18659     18661     18658     18657     18659     18671
     18659     18671     18674     18675     18659     18671     18674     18676
     18659     18671     18674     18677     18660     18659     18671     18672
     18660     18659     18671     18673     18660     18659     18671     18674
     18661     18659     18671     18672     18661     18659     18671     18673
     18661     18659     18671     18674     18662     18665     18666     18667
     18662     18665     18666     18668     18663     18662     18665     18666
     18664     18662     18665     18666     18665     18666     18668     18669
     18665     18666     18668     18670     18665     18666     18668     18718
     18666     18668     18718     18719     18666     18668     18718     18720
     18666     18668     18718     18721     18667     18666     18668     18669
     18667     18666     18668     18670     18667     18666     18668     18718
     18668     18718     18721     18722     18668     18718     18721     18723
     18668     18718     18721     18724     18669     18668     18718     18719
     18669     18668     18718     18720     18669     18668     18718     18721
     18670     18668     18718     18719     18670     18668     18718     18720
     18670     18668     18718     18721     18671     18674     18677     18678
     18671     18674     18677     18679     18671     18674     18677     18680
     18672     18671     18674     18675     18672     18671     18674     18676
     18672     18671     18674     18677     18673     18671     18674     18675
     18673     18671     18674     18676     18673     18671     18674     18677
     18674     18677     18680     18681     18674     18677     18680     18682
     18674     18677     18680     18683     18675     18674     18677     18678
     18675     18674     18677     18679     18675     18674     18677     18680
     18676     18674     18677     18678     18676     18674     18677     18679
     18676     18674     18677     18680     18677     18680     18683     18684
     18677     18680     18683     18685     18677     18680     18683     18686
     18678     18677     18680     18681     18678     18677     18680     18682
     18678     18677     18680     18683     18679     18677     18680     18681
     18679     18677     18680     18682     18679     18677     18680     18683
     18680     18683     18686     18687     18680     18683     18686     18688
     18680     18683     18686     18689     18681     18680     18683     18684
     18681     18680     18683     18685     18681     18680     18683     18686
     18682     18680     18683     18684     18682     18680     18683     18685
     18682     18680     18683     18686     18683     18686     18689     18690
     18683     18686     18689     18691     18684     18683     18686     18687
     18684     18683     18686     18688     18684     18683     18686     18689
     18685     18683     18686     18687     18685     18683     18686     18688
     18685     18683     18686     18689     18686     18689     18691     18692
     18686     18689     18691     18693     18687     18686     18689     18690
     18687     18686     18689     18691     18688     18686     18689     18690
     18688     18686     18689     18691     18689     18691     18693     18694
     18689     18691     18693     18695     18689     18691     18693     18696
     18690     18689     18691     18692     18690     18689     18691     18693
     18691     18693     18696     18697     18691     18693     18696     18698
     18691     18693     18696     18699     18692     18691     18693     18694
     18692     18691     18693     18695     18692     18691     18693     18696
     18693     18696     18699     18700     18693     18696     18699     18701
     18693     18696     18699     18702     18694     18693     18696     18697
     18694     18693     18696     18698     18694     18693     18696     18699
     18695     18693     18696     18697     18695     18693     18696     18698
     18695     18693     18696     18699     18696     18699     18702     18703
     18696     18699     18702     18704     18696     18699     18702     18705
     18697     18696     18699     18700     18697     18696     18699     18701
     18697     18696     18699     18702     18698     18696     18699     18700
     18698     18696     18699     18701     18698     18696     18699     18702
     18699     18702     18705     18706     18699     18702     18705     18707
     18699     18702     18705     18708     18700     18699     18702     18703
     18700     18699     18702     18704     18700     18699     18702     18705
     18701     18699     18702     18703     18701     18699     18702     18704
     18701     18699     18702     18705     18702     18705     18708     18709
     18702     18705     18708     18710     18702     18705     18708     18711
     18703     18702     18705     18706     18703     18702     18705     18707
     18703     18702     18705     18708     18704     18702     18705     18706
     18704     18702     18705     18707     18704     18702     18705     18708
     18705     18708     18711     18712     18705     18708     18711     18713
     18705     18708     18711     18714     18706     18705     18708     18709
     18706     18705     18708     18710     18706     18705     18708     18711
     18707     18705     18708     18709     18707     18705     18708     18710
     18707     18705     18708     18711     18708     18711     18714     18715
     18708     18711     18714     18716     18708     18711     18714     18717
     18709     18708     18711     18712     18709     18708     18711     18713
     18709     18708     18711     18714     18710     18708     18711     18712
     18710     18708     18711     18713     18710     18708     18711     18714
     18712     18711     18714     18715     18712     18711     18714     18716
     18712     18711     18714     18717     18713     18711     18714     18715
     18713     18711     18714     18716     18713     18711     18714     18717
     18718     18721     18724     18725     18718     18721     18724     18726
     18718     18721     18724     18727     18719     18718     18721     18722
     18719     18718     18721     18723     18719     18718     18721     18724
     18720     18718     18721     18722     18720     18718     18721     18723
     18720     18718     18721     18724     18721     18724     18727     18728
     18721     18724     18727     18729     18721     18724     18727     18730
     18722     18721     18724     18725     18722     18721     18724     18726
     18722     18721     18724     18727     18723     18721     18724     18725
     18723     18721     18724     18726     18723     18721     18724     18727
     18724     18727     18730     18731     18724     18727     18730     18732
     18724     18727     18730     18733     18725     18724     18727     18728
     18725     18724     18727     18729     18725     18724     18727     18730
     18726     18724     18727     18728     18726     18724     18727     18729
     18726     18724     18727     18730     18727     18730     18733     18734
     18727     18730     18733     18735     18727     18730     18733     18736
     18728     18727     18730     18731     18728     18727     18730     18732
     18728     18727     18730     18733     18729     18727     18730     18731
     18729     18727     18730     18732     18729     18727     18730     18733
     18730     18733     18736     18737     18730     18733     18736     18738
     18730     18733     18736     18739     18731     18730     18733     18734
     18731     18730     18733     18735     18731     18730     18733     18736
     18732     18730     18733     18734     18732     18730     18733     18735
     18732     18730     18733     18736     18733     18736     18739     18740
     18733     18736     18739     18741     18733     18736     18739     18742
     18734     18733     18736     18737     18734     18733     18736     18738
     18734     18733     18736     18739     18735     18733     18736     18737
     18735     18733     18736     18738     18735     18733     18736     18739
     18736     18739     18742     18743     18736     18739     18742     18744
     18736     18739     18742     18745     18737     18736     18739     18740
     18737     18736     18739     18741     18737     18736     18739     18742
     18738     18736     18739     18740     18738     18736     18739     18741
     18738     18736     18739     18742     18739     18742     18745     18746
     18739     18742     18745     18747     18739     18742     18745     18748
     18740     18739     18742     18743     18740     18739     18742     18744
     18740     18739     18742     18745     18741     18739     18742     18743
     18741     18739     18742     18744     18741     18739     18742     18745
     18742     18745     18748     18749     18742     18745     18748     18750
     18742     18745     18748     18751     18743     18742     18745     18746
     18743     18742     18745     18747     18743     18742     18745     18748
     18744     18742     18745     18746     18744     18742     18745     18747
     18744     18742     18745     18748     18745     18748     18751     18752
     18745     18748     18751     18753     18745     18748     18751     18754
     18746     18745     18748     18749     18746     18745     18748     18750
     18746     18745     18748     18751     18747     18745     18748     18749
     18747     18745     18748     18750     18747     18745     18748     18751
     18748     18751     18754     18755     18748     18751     18754     18756
     18748     18751     18754     18757     18749     18748     18751     18752
     18749     18748     18751     18753     18749     18748     18751     18754
     18750     18748     18751     18752     18750     18748     18751     18753
     18750     18748     18751     18754     18751     18754     18757     18758
     18751     18754     18757     18759     18751     18754     18757     18760
     18752     18751     18754     18755     18752     18751     18754     18756
     18752     18751     18754     18757     18753     18751     18754     18755
     18753     18751     18754     18756     18753     18751     18754     18757
     18755     18754     18757     18758     18755     18754     18757     18759
     18755     18754     18757     18760     18756     18754     18757     18758
     18756     18754     18757     18759     18756     18754     18757     18760
     18761     18762     18777     18778     18761     18762     18777     18779
     18761     18762     18777     18783     18762     18761     18765     18766
     18762     18761     18765     18767     18762     18761     18765     18768
     18762     18761     18769     18770     18762     18761     18769     18771
     18762     18761     18769     18772     18762     18761     18773     18774
     18762     18761     18773     18775     18762     18761     18773     18776
     18762     18777     18783     18780     18763     18762     18761     18765
     18763     18762     18761     18769     18763     18762     18761     18773
     18763     18762     18777     18778     18763     18762     18777     18779
     18763     18762     18777     18783     18764     18762     18761     18765
     18764     18762     18761     18769     18764     18762     18761     18773
     18764     18762     18777     18778     18764     18762     18777     18779
     18764     18762     18777     18783     18765     18761     18762     18777
     18765     18761     18769     18770     18765     18761     18769     18771
     18765     18761     18769     18772     18765     18761     18773     18774
     18765     18761     18773     18775     18765     18761     18773     18776
     18766     18765     18761     18769     18766     18765     18761     18773
     18767     18765     18761     18769     18767     18765     18761     18773
     18768     18765     18761     18769     18768     18765     18761     18773
     18769     18761     18762     18777     18769     18761     18773     18774
     18769     18761     18773     18775     18769     18761     18773     18776
     18770     18769     18761     18773     18771     18769     18761     18773
     18772     18769     18761     18773     18773     18761     18762     18777
     18777     18783     18780     18781     18777     18783     18780     18782
     18777     18783     18780     18784     18778     18777     18783     18780
     18779     18777     18783     18780     18780     18784     18785     18786
     18780     18784     18785     18787     18780     18784     18785     18788
     18781     18780     18784     18785     18782     18780     18784     18785
     18783     18780     18784     18785     18784     18785     18788     18789
     18784     18785     18788     18790     18784     18785     18788     18796
     18785     18788     18790     18791     18785     18788     18796     18797
     18785     18788     18796     18798     18785     18788     18796     18799
     18786     18785     18788     18789     18786     18785     18788     18790
     18786     18785     18788     18796     18787     18785     18788     18789
     18787     18785     18788     18790     18787     18785     18788     18796
     18788     18790     18791     18792     18788     18790     18791     18793
     18788     18796     18799     18800     18789     18788     18790     18791
     18789     18788     18796     18797     18789     18788     18796     18798
     18789     18788     18796     18799     18790     18788     18796     18797
     18790     18788     18796     18798     18790     18788     18796     18799
     18790     18791     18793     18794     18790     18791     18793     18795
     18790     18791     18793     18805     18791     18790     18788     18796
     18791     18793     18805     18806     18791     18793     18805     18807
     18791     18793     18805     18808     18792     18791     18793     18794
     18792     18791     18793     18795     18792     18791     18793     18805
     18793     18805     18808     18809     18793     18805     18808     18810
     18793     18805     18808     18811     18794     18793     18805     18806
     18794     18793     18805     18807     18794     18793     18805     18808
     18795     18793     18805     18806     18795     18793     18805     18807
     18795     18793     18805     18808     18796     18799     18800     18801
     18796     18799     18800     18802     18797     18796     18799     18800
     18798     18796     18799     18800     18799     18800     18802     18803
     18799     18800     18802     18804     18799     18800     18802     18852
     18800     18802     18852     18853     18800     18802     18852     18854
     18800     18802     18852     18855     18801     18800     18802     18803
     18801     18800     18802     18804     18801     18800     18802     18852
     18802     18852     18855     18856     18802     18852     18855     18857
     18802     18852     18855     18858     18803     18802     18852     18853
     18803     18802     18852     18854     18803     18802     18852     18855
     18804     18802     18852     18853     18804     18802     18852     18854
     18804     18802     18852     18855     18805     18808     18811     18812
     18805     18808     18811     18813     18805     18808     18811     18814
     18806     18805     18808     18809     18806     18805     18808     18810
     18806     18805     18808     18811     18807     18805     18808     18809
     18807     18805     18808     18810     18807     18805     18808     18811
     18808     18811     18814     18815     18808     18811     18814     18816
     18808     18811     18814     18817     18809     18808     18811     18812
     18809     18808     18811     18813     18809     18808     18811     18814
     18810     18808     18811     18812     18810     18808     18811     18813
     18810     18808     18811     18814     18811     18814     18817     18818
     18811     18814     18817     18819     18811     18814     18817     18820
     18812     18811     18814     18815     18812     18811     18814     18816
     18812     18811     18814     18817     18813     18811     18814     18815
     18813     18811     18814     18816     18813     18811     18814     18817
     18814     18817     18820     18821     18814     18817     18820     18822
     18814     18817     18820     18823     18815     18814     18817     18818
     18815     18814     18817     18819     18815     18814     18817     18820
     18816     18814     18817     18818     18816     18814     18817     18819
     18816     18814     18817     18820     18817     18820     18823     18824
     18817     18820     18823     18825     18818     18817     18820     18821
     18818     18817     18820     18822     18818     18817     18820     18823
     18819     18817     18820     18821     18819     18817     18820     18822
     18819     18817     18820     18823     18820     18823     18825     18826
     18820     18823     18825     18827     18821     18820     18823     18824
     18821     18820     18823     18825     18822     18820     18823     18824
     18822     18820     18823     18825     18823     18825     18827     18828
     18823     18825     18827     18829     18823     18825     18827     18830
     18824     18823     18825     18826     18824     18823     18825     18827
     18825     18827     18830     18831     18825     18827     18830     18832
     18825     18827     18830     18833     18826     18825     18827     18828
     18826     18825     18827     18829     18826     18825     18827     18830
     18827     18830     18833     18834     18827     18830     18833     18835
     18827     18830     18833     18836     18828     18827     18830     18831
     18828     18827     18830     18832     18828     18827     18830     18833
     18829     18827     18830     18831     18829     18827     18830     18832
     18829     18827     18830     18833     18830     18833     18836     18837
     18830     18833     18836     18838     18830     18833     18836     18839
     18831     18830     18833     18834     18831     18830     18833     18835
     18831     18830     18833     18836     18832     18830     18833     18834
     18832     18830     18833     18835     18832     18830     18833     18836
     18833     18836     18839     18840     18833     18836     18839     18841
     18833     18836     18839     18842     18834     18833     18836     18837
     18834     18833     18836     18838     18834     18833     18836     18839
     18835     18833     18836     18837     18835     18833     18836     18838
     18835     18833     18836     18839     18836     18839     18842     18843
     18836     18839     18842     18844     18836     18839     18842     18845
     18837     18836     18839     18840     18837     18836     18839     18841
     18837     18836     18839     18842     18838     18836     18839     18840
     18838     18836     18839     18841     18838     18836     18839     18842
     18839     18842     18845     18846     18839     18842     18845     18847
     18839     18842     18845     18848     18840     18839     18842     18843
     18840     18839     18842     18844     18840     18839     18842     18845
     18841     18839     18842     18843     18841     18839     18842     18844
     18841     18839     18842     18845     18842     18845     18848     18849
     18842     18845     18848     18850     18842     18845     18848     18851
     18843     18842     18845     18846     18843     18842     18845     18847
     18843     18842     18845     18848     18844     18842     18845     18846
     18844     18842     18845     18847     18844     18842     18845     18848
     18846     18845     18848     18849     18846     18845     18848     18850
     18846     18845     18848     18851     18847     18845     18848     18849
     18847     18845     18848     18850     18847     18845     18848     18851
     18852     18855     18858     18859     18852     18855     18858     18860
     18852     18855     18858     18861     18853     18852     18855     18856
     18853     18852     18855     18857     18853     18852     18855     18858
     18854     18852     18855     18856     18854     18852     18855     18857
     18854     18852     18855     18858     18855     18858     18861     18862
     18855     18858     18861     18863     18855     18858     18861     18864
     18856     18855     18858     18859     18856     18855     18858     18860
     18856     18855     18858     18861     18857     18855     18858     18859
     18857     18855     18858     18860     18857     18855     18858     18861
     18858     18861     18864     18865     18858     18861     18864     18866
     18858     18861     18864     18867     18859     18858     18861     18862
     18859     18858     18861     18863     18859     18858     18861     18864
     18860     18858     18861     18862     18860     18858     18861     18863
     18860     18858     18861     18864     18861     18864     18867     18868
     18861     18864     18867     18869     18861     18864     18867     18870
     18862     18861     18864     18865     18862     18861     18864     18866
     18862     18861     18864     18867     18863     18861     18864     18865
     18863     18861     18864     18866     18863     18861     18864     18867
     18864     18867     18870     18871     18864     18867     18870     18872
     18864     18867     18870     18873     18865     18864     18867     18868
     18865     18864     18867     18869     18865     18864     18867     18870
     18866     18864     18867     18868     18866     18864     18867     18869
     18866     18864     18867     18870     18867     18870     18873     18874
     18867     18870     18873     18875     18867     18870     18873     18876
     18868     18867     18870     18871     18868     18867     18870     18872
     18868     18867     18870     18873     18869     18867     18870     18871
     18869     18867     18870     18872     18869     18867     18870     18873
     18870     18873     18876     18877     18870     18873     18876     18878
     18870     18873     18876     18879     18871     18870     18873     18874
     18871     18870     18873     18875     18871     18870     18873     18876
     18872     18870     18873     18874     18872     18870     18873     18875
     18872     18870     18873     18876     18873     18876     18879     18880
     18873     18876     18879     18881     18873     18876     18879     18882
     18874     18873     18876     18877     18874     18873     18876     18878
     18874     18873     18876     18879     18875     18873     18876     18877
     18875     18873     18876     18878     18875     18873     18876     18879
     18876     18879     18882     18883     18876     18879     18882     18884
     18876     18879     18882     18885     18877     18876     18879     18880
     18877     18876     18879     18881     18877     18876     18879     18882
     18878     18876     18879     18880     18878     18876     18879     18881
     18878     18876     18879     18882     18879     18882     18885     18886
     18879     18882     18885     18887     18879     18882     18885     18888
     18880     18879     18882     18883     18880     18879     18882     18884
     18880     18879     18882     18885     18881     18879     18882     18883
     18881     18879     18882     18884     18881     18879     18882     18885
     18882     18885     18888     18889     18882     18885     18888     18890
     18882     18885     18888     18891     18883     18882     18885     18886
     18883     18882     18885     18887     18883     18882     18885     18888
     18884     18882     18885     18886     18884     18882     18885     18887
     18884     18882     18885     18888     18885     18888     18891     18892
     18885     18888     18891     18893     18885     18888     18891     18894
     18886     18885     18888     18889     18886     18885     18888     18890
     18886     18885     18888     18891     18887     18885     18888     18889
     18887     18885     18888     18890     18887     18885     18888     18891
     18889     18888     18891     18892     18889     18888     18891     18893
     18889     18888     18891     18894     18890     18888     18891     18892
     18890     18888     18891     18893     18890     18888     18891     18894
     18895     18896     18911     18912     18895     18896     18911     18913
     18895     18896     18911     18917     18896     18895     18899     18900
     18896     18895     18899     18901     18896     18895     18899     18902
     18896     18895     18903     18904     18896     18895     18903     18905
     18896     18895     18903     18906     18896     18895     18907     18908
     18896     18895     18907     18909     18896     18895     18907     18910
     18896     18911     18917     18914     18897     18896     18895     18899
     18897     18896     18895     18903     18897     18896     18895     18907
     18897     18896     18911     18912     18897     18896     18911     18913
     18897     18896     18911     18917     18898     18896     18895     18899
     18898     18896     18895     18903     18898     18896     18895     18907
     18898     18896     18911     18912     18898     18896     18911     18913
     18898     18896     18911     18917     18899     18895     18896     18911
     18899     18895     18903     18904     18899     18895     18903     18905
     18899     18895     18903     18906     18899     18895     18907     18908
     18899     18895     18907     18909     18899     18895     18907     18910
     18900     18899     18895     18903     18900     18899     18895     18907
     18901     18899     18895     18903     18901     18899     18895     18907
     18902     18899     18895     18903     18902     18899     18895     18907
     18903     18895     18896     18911     18903     18895     18907     18908
     18903     18895     18907     18909     18903     18895     18907     18910
     18904     18903     18895     18907     18905     18903     18895     18907
     18906     18903     18895     18907     18907     18895     18896     18911
     18911     18917     18914     18915     18911     18917     18914     18916
     18911     18917     18914     18918     18912     18911     18917     18914
     18913     18911     18917     18914     18914     18918     18919     18920
     18914     18918     18919     18921     18914     18918     18919     18922
     18915     18914     18918     18919     18916     18914     18918     18919
     18917     18914     18918     18919     18918     18919     18922     18923
     18918     18919     18922     18924     18918     18919     18922     18930
     18919     18922     18924     18925     18919     18922     18930     18931
     18919     18922     18930     18932     18919     18922     18930     18933
     18920     18919     18922     18923     18920     18919     18922     18924
     18920     18919     18922     18930     18921     18919     18922     18923
     18921     18919     18922     18924     18921     18919     18922     18930
     18922     18924     18925     18926     18922     18924     18925     18927
     18922     18930     18933     18934     18923     18922     18924     18925
     18923     18922     18930     18931     18923     18922     18930     18932
     18923     18922     18930     18933     18924     18922     18930     18931
     18924     18922     18930     18932     18924     18922     18930     18933
     18924     18925     18927     18928     18924     18925     18927     18929
     18924     18925     18927     18939     18925     18924     18922     18930
     18925     18927     18939     18940     18925     18927     18939     18941
     18925     18927     18939     18942     18926     18925     18927     18928
     18926     18925     18927     18929     18926     18925     18927     18939
     18927     18939     18942     18943     18927     18939     18942     18944
     18927     18939     18942     18945     18928     18927     18939     18940
     18928     18927     18939     18941     18928     18927     18939     18942
     18929     18927     18939     18940     18929     18927     18939     18941
     18929     18927     18939     18942     18930     18933     18934     18935
     18930     18933     18934     18936     18931     18930     18933     18934
     18932     18930     18933     18934     18933     18934     18936     18937
     18933     18934     18936     18938     18933     18934     18936     18986
     18934     18936     18986     18987     18934     18936     18986     18988
     18934     18936     18986     18989     18935     18934     18936     18937
     18935     18934     18936     18938     18935     18934     18936     18986
     18936     18986     18989     18990     18936     18986     18989     18991
     18936     18986     18989     18992     18937     18936     18986     18987
     18937     18936     18986     18988     18937     18936     18986     18989
     18938     18936     18986     18987     18938     18936     18986     18988
     18938     18936     18986     18989     18939     18942     18945     18946
     18939     18942     18945     18947     18939     18942     18945     18948
     18940     18939     18942     18943     18940     18939     18942     18944
     18940     18939     18942     18945     18941     18939     18942     18943
     18941     18939     18942     18944     18941     18939     18942     18945
     18942     18945     18948     18949     18942     18945     18948     18950
     18942     18945     18948     18951     18943     18942     18945     18946
     18943     18942     18945     18947     18943     18942     18945     18948
     18944     18942     18945     18946     18944     18942     18945     18947
     18944     18942     18945     18948     18945     18948     18951     18952
     18945     18948     18951     18953     18945     18948     18951     18954
     18946     18945     18948     18949     18946     18945     18948     18950
     18946     18945     18948     18951     18947     18945     18948     18949
     18947     18945     18948     18950     18947     18945     18948     18951
     18948     18951     18954     18955     18948     18951     18954     18956
     18948     18951     18954     18957     18949     18948     18951     18952
     18949     18948     18951     18953     18949     18948     18951     18954
     18950     18948     18951     18952     18950     18948     18951     18953
     18950     18948     18951     18954     18951     18954     18957     18958
     18951     18954     18957     18959     18952     18951     18954     18955
     18952     18951     18954     18956     18952     18951     18954     18957
     18953     18951     18954     18955     18953     18951     18954     18956
     18953     18951     18954     18957     18954     18957     18959     18960
     18954     18957     18959     18961     18955     18954     18957     18958
     18955     18954     18957     18959     18956     18954     18957     18958
     18956     18954     18957     18959     18957     18959     18961     18962
     18957     18959     18961     18963     18957     18959     18961     18964
     18958     18957     18959     18960     18958     18957     18959     18961
     18959     18961     18964     18965     18959     18961     18964     18966
     18959     18961     18964     18967     18960     18959     18961     18962
     18960     18959     18961     18963     18960     18959     18961     18964
     18961     18964     18967     18968     18961     18964     18967     18969
     18961     18964     18967     18970     18962     18961     18964     18965
     18962     18961     18964     18966     18962     18961     18964     18967
     18963     18961     18964     18965     18963     18961     18964     18966
     18963     18961     18964     18967     18964     18967     18970     18971
     18964     18967     18970     18972     18964     18967     18970     18973
     18965     18964     18967     18968     18965     18964     18967     18969
     18965     18964     18967     18970     18966     18964     18967     18968
     18966     18964     18967     18969     18966     18964     18967     18970
     18967     18970     18973     18974     18967     18970     18973     18975
     18967     18970     18973     18976     18968     18967     18970     18971
     18968     18967     18970     18972     18968     18967     18970     18973
     18969     18967     18970     18971     18969     18967     18970     18972
     18969     18967     18970     18973     18970     18973     18976     18977
     18970     18973     18976     18978     18970     18973     18976     18979
     18971     18970     18973     18974     18971     18970     18973     18975
     18971     18970     18973     18976     18972     18970     18973     18974
     18972     18970     18973     18975     18972     18970     18973     18976
     18973     18976     18979     18980     18973     18976     18979     18981
     18973     18976     18979     18982     18974     18973     18976     18977
     18974     18973     18976     18978     18974     18973     18976     18979
     18975     18973     18976     18977     18975     18973     18976     18978
     18975     18973     18976     18979     18976     18979     18982     18983
     18976     18979     18982     18984     18976     18979     18982     18985
     18977     18976     18979     18980     18977     18976     18979     18981
     18977     18976     18979     18982     18978     18976     18979     18980
     18978     18976     18979     18981     18978     18976     18979     18982
     18980     18979     18982     18983     18980     18979     18982     18984
     18980     18979     18982     18985     18981     18979     18982     18983
     18981     18979     18982     18984     18981     18979     18982     18985
     18986     18989     18992     18993     18986     18989     18992     18994
     18986     18989     18992     18995     18987     18986     18989     18990
     18987     18986     18989     18991     18987     18986     18989     18992
     18988     18986     18989     18990     18988     18986     18989     18991
     18988     18986     18989     18992     18989     18992     18995     18996
     18989     18992     18995     18997     18989     18992     18995     18998
     18990     18989     18992     18993     18990     18989     18992     18994
     18990     18989     18992     18995     18991     18989     18992     18993
     18991     18989     18992     18994     18991     18989     18992     18995
     18992     18995     18998     18999     18992     18995     18998     19000
     18992     18995     18998     19001     18993     18992     18995     18996
     18993     18992     18995     18997     18993     18992     18995     18998
     18994     18992     18995     18996     18994     18992     18995     18997
     18994     18992     18995     18998     18995     18998     19001     19002
     18995     18998     19001     19003     18995     18998     19001     19004
     18996     18995     18998     18999     18996     18995     18998     19000
     18996     18995     18998     19001     18997     18995     18998     18999
     18997     18995     18998     19000     18997     18995     18998     19001
     18998     19001     19004     19005     18998     19001     19004     19006
     18998     19001     19004     19007     18999     18998     19001     19002
     18999     18998     19001     19003     18999     18998     19001     19004
     19000     18998     19001     19002     19000     18998     19001     19003
     19000     18998     19001     19004     19001     19004     19007     19008
     19001     19004     19007     19009     19001     19004     19007     19010
     19002     19001     19004     19005     19002     19001     19004     19006
     19002     19001     19004     19007     19003     19001     19004     19005
     19003     19001     19004     19006     19003     19001     19004     19007
     19004     19007     19010     19011     19004     19007     19010     19012
     19004     19007     19010     19013     19005     19004     19007     19008
     19005     19004     19007     19009     19005     19004     19007     19010
     19006     19004     19007     19008     19006     19004     19007     19009
     19006     19004     19007     19010     19007     19010     19013     19014
     19007     19010     19013     19015     19007     19010     19013     19016
     19008     19007     19010     19011     19008     19007     19010     19012
     19008     19007     19010     19013     19009     19007     19010     19011
     19009     19007     19010     19012     19009     19007     19010     19013
     19010     19013     19016     19017     19010     19013     19016     19018
     19010     19013     19016     19019     19011     19010     19013     19014
     19011     19010     19013     19015     19011     19010     19013     19016
     19012     19010     19013     19014     19012     19010     19013     19015
     19012     19010     19013     19016     19013     19016     19019     19020
     19013     19016     19019     19021     19013     19016     19019     19022
     19014     19013     19016     19017     19014     19013     19016     19018
     19014     19013     19016     19019     19015     19013     19016     19017
     19015     19013     19016     19018     19015     19013     19016     19019
     19016     19019     19022     19023     19016     19019     19022     19024
     19016     19019     19022     19025     19017     19016     19019     19020
     19017     19016     19019     19021     19017     19016     19019     19022
     19018     19016     19019     19020     19018     19016     19019     19021
     19018     19016     19019     19022     19019     19022     19025     19026
     19019     19022     19025     19027     19019     19022     19025     19028
     19020     19019     19022     19023     19020     19019     19022     19024
     19020     19019     19022     19025     19021     19019     19022     19023
     19021     19019     19022     19024     19021     19019     19022     19025
     19023     19022     19025     19026     19023     19022     19025     19027
     19023     19022     19025     19028     19024     19022     19025     19026
     19024     19022     19025     19027     19024     19022     19025     19028
     19029     19030     19045     19046     19029     19030     19045     19047
     19029     19030     19045     19051     19030     19029     19033     19034
     19030     19029     19033     19035     19030     19029     19033     19036
     19030     19029     19037     19038     19030     19029     19037     19039
     19030     19029     19037     19040     19030     19029     19041     19042
     19030     19029     19041     19043     19030     19029     19041     19044
     19030     19045     19051     19048     19031     19030     19029     19033
     19031     19030     19029     19037     19031     19030     19029     19041
     19031     19030     19045     19046     19031     19030     19045     19047
     19031     19030     19045     19051     19032     19030     19029     19033
     19032     19030     19029     19037     19032     19030     19029     19041
     19032     19030     19045     19046     19032     19030     19045     19047
     19032     19030     19045     19051     19033     19029     19030     19045
     19033     19029     19037     19038     19033     19029     19037     19039
     19033     19029     19037     19040     19033     19029     19041     19042
     19033     19029     19041     19043     19033     19029     19041     19044
     19034     19033     19029     19037     19034     19033     19029     19041
     19035     19033     19029     19037     19035     19033     19029     19041
     19036     19033     19029     19037     19036     19033     19029     19041
     19037     19029     19030     19045     19037     19029     19041     19042
     19037     19029     19041     19043     19037     19029     19041     19044
     19038     19037     19029     19041     19039     19037     19029     19041
     19040     19037     19029     19041     19041     19029     19030     19045
     19045     19051     19048     19049     19045     19051     19048     19050
     19045     19051     19048     19052     19046     19045     19051     19048
     19047     19045     19051     19048     19048     19052     19053     19054
     19048     19052     19053     19055     19048     19052     19053     19056
     19049     19048     19052     19053     19050     19048     19052     19053
     19051     19048     19052     19053     19052     19053     19056     19057
     19052     19053     19056     19058     19052     19053     19056     19064
     19053     19056     19058     19059     19053     19056     19064     19065
     19053     19056     19064     19066     19053     19056     19064     19067
     19054     19053     19056     19057     19054     19053     19056     19058
     19054     19053     19056     19064     19055     19053     19056     19057
     19055     19053     19056     19058     19055     19053     19056     19064
     19056     19058     19059     19060     19056     19058     19059     19061
     19056     19064     19067     19068     19057     19056     19058     19059
     19057     19056     19064     19065     19057     19056     19064     19066
     19057     19056     19064     19067     19058     19056     19064     19065
     19058     19056     19064     19066     19058     19056     19064     19067
     19058     19059     19061     19062     19058     19059     19061     19063
     19058     19059     19061     19073     19059     19058     19056     19064
     19059     19061     19073     19074     19059     19061     19073     19075
     19059     19061     19073     19076     19060     19059     19061     19062
     19060     19059     19061     19063     19060     19059     19061     19073
     19061     19073     19076     19077     19061     19073     19076     19078
     19061     19073     19076     19079     19062     19061     19073     19074
     19062     19061     19073     19075     19062     19061     19073     19076
     19063     19061     19073     19074     19063     19061     19073     19075
     19063     19061     19073     19076     19064     19067     19068     19069
     19064     19067     19068     19070     19065     19064     19067     19068
     19066     19064     19067     19068     19067     19068     19070     19071
     19067     19068     19070     19072     19067     19068     19070     19120
     19068     19070     19120     19121     19068     19070     19120     19122
     19068     19070     19120     19123     19069     19068     19070     19071
     19069     19068     19070     19072     19069     19068     19070     19120
     19070     19120     19123     19124     19070     19120     19123     19125
     19070     19120     19123     19126     19071     19070     19120     19121
     19071     19070     19120     19122     19071     19070     19120     19123
     19072     19070     19120     19121     19072     19070     19120     19122
     19072     19070     19120     19123     19073     19076     19079     19080
     19073     19076     19079     19081     19073     19076     19079     19082
     19074     19073     19076     19077     19074     19073     19076     19078
     19074     19073     19076     19079     19075     19073     19076     19077
     19075     19073     19076     19078     19075     19073     19076     19079
     19076     19079     19082     19083     19076     19079     19082     19084
     19076     19079     19082     19085     19077     19076     19079     19080
     19077     19076     19079     19081     19077     19076     19079     19082
     19078     19076     19079     19080     19078     19076     19079     19081
     19078     19076     19079     19082     19079     19082     19085     19086
     19079     19082     19085     19087     19079     19082     19085     19088
     19080     19079     19082     19083     19080     19079     19082     19084
     19080     19079     19082     19085     19081     19079     19082     19083
     19081     19079     19082     19084     19081     19079     19082     19085
     19082     19085     19088     19089     19082     19085     19088     19090
     19082     19085     19088     19091     19083     19082     19085     19086
     19083     19082     19085     19087     19083     19082     19085     19088
     19084     19082     19085     19086     19084     19082     19085     19087
     19084     19082     19085     19088     19085     19088     19091     19092
     19085     19088     19091     19093     19086     19085     19088     19089
     19086     19085     19088     19090     19086     19085     19088     19091
     19087     19085     19088     19089     19087     19085     19088     19090
     19087     19085     19088     19091     19088     19091     19093     19094
     19088     19091     19093     19095     19089     19088     19091     19092
     19089     19088     19091     19093     19090     19088     19091     19092
     19090     19088     19091     19093     19091     19093     19095     19096
     19091     19093     19095     19097     19091     19093     19095     19098
     19092     19091     19093     19094     19092     19091     19093     19095
     19093     19095     19098     19099     19093     19095     19098     19100
     19093     19095     19098     19101     19094     19093     19095     19096
     19094     19093     19095     19097     19094     19093     19095     19098
     19095     19098     19101     19102     19095     19098     19101     19103
     19095     19098     19101     19104     19096     19095     19098     19099
     19096     19095     19098     19100     19096     19095     19098     19101
     19097     19095     19098     19099     19097     19095     19098     19100
     19097     19095     19098     19101     19098     19101     19104     19105
     19098     19101     19104     19106     19098     19101     19104     19107
     19099     19098     19101     19102     19099     19098     19101     19103
     19099     19098     19101     19104     19100     19098     19101     19102
     19100     19098     19101     19103     19100     19098     19101     19104
     19101     19104     19107     19108     19101     19104     19107     19109
     19101     19104     19107     19110     19102     19101     19104     19105
     19102     19101     19104     19106     19102     19101     19104     19107
     19103     19101     19104     19105     19103     19101     19104     19106
     19103     19101     19104     19107     19104     19107     19110     19111
     19104     19107     19110     19112     19104     19107     19110     19113
     19105     19104     19107     19108     19105     19104     19107     19109
     19105     19104     19107     19110     19106     19104     19107     19108
     19106     19104     19107     19109     19106     19104     19107     19110
     19107     19110     19113     19114     19107     19110     19113     19115
     19107     19110     19113     19116     19108     19107     19110     19111
     19108     19107     19110     19112     19108     19107     19110     19113
     19109     19107     19110     19111     19109     19107     19110     19112
     19109     19107     19110     19113     19110     19113     19116     19117
     19110     19113     19116     19118     19110     19113     19116     19119
     19111     19110     19113     19114     19111     19110     19113     19115
     19111     19110     19113     19116     19112     19110     19113     19114
     19112     19110     19113     19115     19112     19110     19113     19116
     19114     19113     19116     19117     19114     19113     19116     19118
     19114     19113     19116     19119     19115     19113     19116     19117
     19115     19113     19116     19118     19115     19113     19116     19119
     19120     19123     19126     19127     19120     19123     19126     19128
     19120     19123     19126     19129     19121     19120     19123     19124
     19121     19120     19123     19125     19121     19120     19123     19126
     19122     19120     19123     19124     19122     19120     19123     19125
     19122     19120     19123     19126     19123     19126     19129     19130
     19123     19126     19129     19131     19123     19126     19129     19132
     19124     19123     19126     19127     19124     19123     19126     19128
     19124     19123     19126     19129     19125     19123     19126     19127
     19125     19123     19126     19128     19125     19123     19126     19129
     19126     19129     19132     19133     19126     19129     19132     19134
     19126     19129     19132     19135     19127     19126     19129     19130
     19127     19126     19129     19131     19127     19126     19129     19132
     19128     19126     19129     19130     19128     19126     19129     19131
     19128     19126     19129     19132     19129     19132     19135     19136
     19129     19132     19135     19137     19129     19132     19135     19138
     19130     19129     19132     19133     19130     19129     19132     19134
     19130     19129     19132     19135     19131     19129     19132     19133
     19131     19129     19132     19134     19131     19129     19132     19135
     19132     19135     19138     19139     19132     19135     19138     19140
     19132     19135     19138     19141     19133     19132     19135     19136
     19133     19132     19135     19137     19133     19132     19135     19138
     19134     19132     19135     19136     19134     19132     19135     19137
     19134     19132     19135     19138     19135     19138     19141     19142
     19135     19138     19141     19143     19135     19138     19141     19144
     19136     19135     19138     19139     19136     19135     19138     19140
     19136     19135     19138     19141     19137     19135     19138     19139
     19137     19135     19138     19140     19137     19135     19138     19141
     19138     19141     19144     19145     19138     19141     19144     19146
     19138     19141     19144     19147     19139     19138     19141     19142
     19139     19138     19141     19143     19139     19138     19141     19144
     19140     19138     19141     19142     19140     19138     19141     19143
     19140     19138     19141     19144     19141     19144     19147     19148
     19141     19144     19147     19149     19141     19144     19147     19150
     19142     19141     19144     19145     19142     19141     19144     19146
     19142     19141     19144     19147     19143     19141     19144     19145
     19143     19141     19144     19146     19143     19141     19144     19147
     19144     19147     19150     19151     19144     19147     19150     19152
     19144     19147     19150     19153     19145     19144     19147     19148
     19145     19144     19147     19149     19145     19144     19147     19150
     19146     19144     19147     19148     19146     19144     19147     19149
     19146     19144     19147     19150     19147     19150     19153     19154
     19147     19150     19153     19155     19147     19150     19153     19156
     19148     19147     19150     19151     19148     19147     19150     19152
     19148     19147     19150     19153     19149     19147     19150     19151
     19149     19147     19150     19152     19149     19147     19150     19153
     19150     19153     19156     19157     19150     19153     19156     19158
     19150     19153     19156     19159     19151     19150     19153     19154
     19151     19150     19153     19155     19151     19150     19153     19156
     19152     19150     19153     19154     19152     19150     19153     19155
     19152     19150     19153     19156     19153     19156     19159     19160
     19153     19156     19159     19161     19153     19156     19159     19162
     19154     19153     19156     19157     19154     19153     19156     19158
     19154     19153     19156     19159     19155     19153     19156     19157
     19155     19153     19156     19158     19155     19153     19156     19159
     19157     19156     19159     19160     19157     19156     19159     19161
     19157     19156     19159     19162     19158     19156     19159     19160
     19158     19156     19159     19161     19158     19156     19159     19162
     19163     19164     19179     19180     19163     19164     19179     19181
     19163     19164     19179     19185     19164     19163     19167     19168
     19164     19163     19167     19169     19164     19163     19167     19170
     19164     19163     19171     19172     19164     19163     19171     19173
     19164     19163     19171     19174     19164     19163     19175     19176
     19164     19163     19175     19177     19164     19163     19175     19178
     19164     19179     19185     19182     19165     19164     19163     19167
     19165     19164     19163     19171     19165     19164     19163     19175
     19165     19164     19179     19180     19165     19164     19179     19181
     19165     19164     19179     19185     19166     19164     19163     19167
     19166     19164     19163     19171     19166     19164     19163     19175
     19166     19164     19179     19180     19166     19164     19179     19181
     19166     19164     19179     19185     19167     19163     19164     19179
     19167     19163     19171     19172     19167     19163     19171     19173
     19167     19163     19171     19174     19167     19163     19175     19176
     19167     19163     19175     19177     19167     19163     19175     19178
     19168     19167     19163     19171     19168     19167     19163     19175
     19169     19167     19163     19171     19169     19167     19163     19175
     19170     19167     19163     19171     19170     19167     19163     19175
     19171     19163     19164     19179     19171     19163     19175     19176
     19171     19163     19175     19177     19171     19163     19175     19178
     19172     19171     19163     19175     19173     19171     19163     19175
     19174     19171     19163     19175     19175     19163     19164     19179
     19179     19185     19182     19183     19179     19185     19182     19184
     19179     19185     19182     19186     19180     19179     19185     19182
     19181     19179     19185     19182     19182     19186     19187     19188
     19182     19186     19187     19189     19182     19186     19187     19190
     19183     19182     19186     19187     19184     19182     19186     19187
     19185     19182     19186     19187     19186     19187     19190     19191
     19186     19187     19190     19192     19186     19187     19190     19198
     19187     19190     19192     19193     19187     19190     19198     19199
     19187     19190     19198     19200     19187     19190     19198     19201
     19188     19187     19190     19191     19188     19187     19190     19192
     19188     19187     19190     19198     19189     19187     19190     19191
     19189     19187     19190     19192     19189     19187     19190     19198
     19190     19192     19193     19194     19190     19192     19193     19195
     19190     19198     19201     19202     19191     19190     19192     19193
     19191     19190     19198     19199     19191     19190     19198     19200
     19191     19190     19198     19201     19192     19190     19198     19199
     19192     19190     19198     19200     19192     19190     19198     19201
     19192     19193     19195     19196     19192     19193     19195     19197
     19192     19193     19195     19207     19193     19192     19190     19198
     19193     19195     19207     19208     19193     19195     19207     19209
     19193     19195     19207     19210     19194     19193     19195     19196
     19194     19193     19195     19197     19194     19193     19195     19207
     19195     19207     19210     19211     19195     19207     19210     19212
     19195     19207     19210     19213     19196     19195     19207     19208
     19196     19195     19207     19209     19196     19195     19207     19210
     19197     19195     19207     19208     19197     19195     19207     19209
     19197     19195     19207     19210     19198     19201     19202     19203
     19198     19201     19202     19204     19199     19198     19201     19202
     19200     19198     19201     19202     19201     19202     19204     19205
     19201     19202     19204     19206     19201     19202     19204     19254
     19202     19204     19254     19255     19202     19204     19254     19256
     19202     19204     19254     19257     19203     19202     19204     19205
     19203     19202     19204     19206     19203     19202     19204     19254
     19204     19254     19257     19258     19204     19254     19257     19259
     19204     19254     19257     19260     19205     19204     19254     19255
     19205     19204     19254     19256     19205     19204     19254     19257
     19206     19204     19254     19255     19206     19204     19254     19256
     19206     19204     19254     19257     19207     19210     19213     19214
     19207     19210     19213     19215     19207     19210     19213     19216
     19208     19207     19210     19211     19208     19207     19210     19212
     19208     19207     19210     19213     19209     19207     19210     19211
     19209     19207     19210     19212     19209     19207     19210     19213
     19210     19213     19216     19217     19210     19213     19216     19218
     19210     19213     19216     19219     19211     19210     19213     19214
     19211     19210     19213     19215     19211     19210     19213     19216
     19212     19210     19213     19214     19212     19210     19213     19215
     19212     19210     19213     19216     19213     19216     19219     19220
     19213     19216     19219     19221     19213     19216     19219     19222
     19214     19213     19216     19217     19214     19213     19216     19218
     19214     19213     19216     19219     19215     19213     19216     19217
     19215     19213     19216     19218     19215     19213     19216     19219
     19216     19219     19222     19223     19216     19219     19222     19224
     19216     19219     19222     19225     19217     19216     19219     19220
     19217     19216     19219     19221     19217     19216     19219     19222
     19218     19216     19219     19220     19218     19216     19219     19221
     19218     19216     19219     19222     19219     19222     19225     19226
     19219     19222     19225     19227     19220     19219     19222     19223
     19220     19219     19222     19224     19220     19219     19222     19225
     19221     19219     19222     19223     19221     19219     19222     19224
     19221     19219     19222     19225     19222     19225     19227     19228
     19222     19225     19227     19229     19223     19222     19225     19226
     19223     19222     19225     19227     19224     19222     19225     19226
     19224     19222     19225     19227     19225     19227     19229     19230
     19225     19227     19229     19231     19225     19227     19229     19232
     19226     19225     19227     19228     19226     19225     19227     19229
     19227     19229     19232     19233     19227     19229     19232     19234
     19227     19229     19232     19235     19228     19227     19229     19230
     19228     19227     19229     19231     19228     19227     19229     19232
     19229     19232     19235     19236     19229     19232     19235     19237
     19229     19232     19235     19238     19230     19229     19232     19233
     19230     19229     19232     19234     19230     19229     19232     19235
     19231     19229     19232     19233     19231     19229     19232     19234
     19231     19229     19232     19235     19232     19235     19238     19239
     19232     19235     19238     19240     19232     19235     19238     19241
     19233     19232     19235     19236     19233     19232     19235     19237
     19233     19232     19235     19238     19234     19232     19235     19236
     19234     19232     19235     19237     19234     19232     19235     19238
     19235     19238     19241     19242     19235     19238     19241     19243
     19235     19238     19241     19244     19236     19235     19238     19239
     19236     19235     19238     19240     19236     19235     19238     19241
     19237     19235     19238     19239     19237     19235     19238     19240
     19237     19235     19238     19241     19238     19241     19244     19245
     19238     19241     19244     19246     19238     19241     19244     19247
     19239     19238     19241     19242     19239     19238     19241     19243
     19239     19238     19241     19244     19240     19238     19241     19242
     19240     19238     19241     19243     19240     19238     19241     19244
     19241     19244     19247     19248     19241     19244     19247     19249
     19241     19244     19247     19250     19242     19241     19244     19245
     19242     19241     19244     19246     19242     19241     19244     19247
     19243     19241     19244     19245     19243     19241     19244     19246
     19243     19241     19244     19247     19244     19247     19250     19251
     19244     19247     19250     19252     19244     19247     19250     19253
     19245     19244     19247     19248     19245     19244     19247     19249
     19245     19244     19247     19250     19246     19244     19247     19248
     19246     19244     19247     19249     19246     19244     19247     19250
     19248     19247     19250     19251     19248     19247     19250     19252
     19248     19247     19250     19253     19249     19247     19250     19251
     19249     19247     19250     19252     19249     19247     19250     19253
     19254     19257     19260     19261     19254     19257     19260     19262
     19254     19257     19260     19263     19255     19254     19257     19258
     19255     19254     19257     19259     19255     19254     19257     19260
     19256     19254     19257     19258     19256     19254     19257     19259
     19256     19254     19257     19260     19257     19260     19263     19264
     19257     19260     19263     19265     19257     19260     19263     19266
     19258     19257     19260     19261     19258     19257     19260     19262
     19258     19257     19260     19263     19259     19257     19260     19261
     19259     19257     19260     19262     19259     19257     19260     19263
     19260     19263     19266     19267     19260     19263     19266     19268
     19260     19263     19266     19269     19261     19260     19263     19264
     19261     19260     19263     19265     19261     19260     19263     19266
     19262     19260     19263     19264     19262     19260     19263     19265
     19262     19260     19263     19266     19263     19266     19269     19270
     19263     19266     19269     19271     19263     19266     19269     19272
     19264     19263     19266     19267     19264     19263     19266     19268
     19264     19263     19266     19269     19265     19263     19266     19267
     19265     19263     19266     19268     19265     19263     19266     19269
     19266     19269     19272     19273     19266     19269     19272     19274
     19266     19269     19272     19275     19267     19266     19269     19270
     19267     19266     19269     19271     19267     19266     19269     19272
     19268     19266     19269     19270     19268     19266     19269     19271
     19268     19266     19269     19272     19269     19272     19275     19276
     19269     19272     19275     19277     19269     19272     19275     19278
     19270     19269     19272     19273     19270     19269     19272     19274
     19270     19269     19272     19275     19271     19269     19272     19273
     19271     19269     19272     19274     19271     19269     19272     19275
     19272     19275     19278     19279     19272     19275     19278     19280
     19272     19275     19278     19281     19273     19272     19275     19276
     19273     19272     19275     19277     19273     19272     19275     19278
     19274     19272     19275     19276     19274     19272     19275     19277
     19274     19272     19275     19278     19275     19278     19281     19282
     19275     19278     19281     19283     19275     19278     19281     19284
     19276     19275     19278     19279     19276     19275     19278     19280
     19276     19275     19278     19281     19277     19275     19278     19279
     19277     19275     19278     19280     19277     19275     19278     19281
     19278     19281     19284     19285     19278     19281     19284     19286
     19278     19281     19284     19287     19279     19278     19281     19282
     19279     19278     19281     19283     19279     19278     19281     19284
     19280     19278     19281     19282     19280     19278     19281     19283
     19280     19278     19281     19284     19281     19284     19287     19288
     19281     19284     19287     19289     19281     19284     19287     19290
     19282     19281     19284     19285     19282     19281     19284     19286
     19282     19281     19284     19287     19283     19281     19284     19285
     19283     19281     19284     19286     19283     19281     19284     19287
     19284     19287     19290     19291     19284     19287     19290     19292
     19284     19287     19290     19293     19285     19284     19287     19288
     19285     19284     19287     19289     19285     19284     19287     19290
     19286     19284     19287     19288     19286     19284     19287     19289
     19286     19284     19287     19290     19287     19290     19293     19294
     19287     19290     19293     19295     19287     19290     19293     19296
     19288     19287     19290     19291     19288     19287     19290     19292
     19288     19287     19290     19293     19289     19287     19290     19291
     19289     19287     19290     19292     19289     19287     19290     19293
     19291     19290     19293     19294     19291     19290     19293     19295
     19291     19290     19293     19296     19292     19290     19293     19294
     19292     19290     19293     19295     19292     19290     19293     19296
     19297     19298     19313     19314     19297     19298     19313     19315
     19297     19298     19313     19319     19298     19297     19301     19302
     19298     19297     19301     19303     19298     19297     19301     19304
     19298     19297     19305     19306     19298     19297     19305     19307
     19298     19297     19305     19308     19298     19297     19309     19310
     19298     19297     19309     19311     19298     19297     19309     19312
     19298     19313     19319     19316     19299     19298     19297     19301
     19299     19298     19297     19305     19299     19298     19297     19309
     19299     19298     19313     19314     19299     19298     19313     19315
     19299     19298     19313     19319     19300     19298     19297     19301
     19300     19298     19297     19305     19300     19298     19297     19309
     19300     19298     19313     19314     19300     19298     19313     19315
     19300     19298     19313     19319     19301     19297     19298     19313
     19301     19297     19305     19306     19301     19297     19305     19307
     19301     19297     19305     19308     19301     19297     19309     19310
     19301     19297     19309     19311     19301     19297     19309     19312
     19302     19301     19297     19305     19302     19301     19297     19309
     19303     19301     19297     19305     19303     19301     19297     19309
     19304     19301     19297     19305     19304     19301     19297     19309
     19305     19297     19298     19313     19305     19297     19309     19310
     19305     19297     19309     19311     19305     19297     19309     19312
     19306     19305     19297     19309     19307     19305     19297     19309
     19308     19305     19297     19309     19309     19297     19298     19313
     19313     19319     19316     19317     19313     19319     19316     19318
     19313     19319     19316     19320     19314     19313     19319     19316
     19315     19313     19319     19316     19316     19320     19321     19322
     19316     19320     19321     19323     19316     19320     19321     19324
     19317     19316     19320     19321     19318     19316     19320     19321
     19319     19316     19320     19321     19320     19321     19324     19325
     19320     19321     19324     19326     19320     19321     19324     19332
     19321     19324     19326     19327     19321     19324     19332     19333
     19321     19324     19332     19334     19321     19324     19332     19335
     19322     19321     19324     19325     19322     19321     19324     19326
     19322     19321     19324     19332     19323     19321     19324     19325
     19323     19321     19324     19326     19323     19321     19324     19332
     19324     19326     19327     19328     19324     19326     19327     19329
     19324     19332     19335     19336     19325     19324     19326     19327
     19325     19324     19332     19333     19325     19324     19332     19334
     19325     19324     19332     19335     19326     19324     19332     19333
     19326     19324     19332     19334     19326     19324     19332     19335
     19326     19327     19329     19330     19326     19327     19329     19331
     19326     19327     19329     19341     19327     19326     19324     19332
     19327     19329     19341     19342     19327     19329     19341     19343
     19327     19329     19341     19344     19328     19327     19329     19330
     19328     19327     19329     19331     19328     19327     19329     19341
     19329     19341     19344     19345     19329     19341     19344     19346
     19329     19341     19344     19347     19330     19329     19341     19342
     19330     19329     19341     19343     19330     19329     19341     19344
     19331     19329     19341     19342     19331     19329     19341     19343
     19331     19329     19341     19344     19332     19335     19336     19337
     19332     19335     19336     19338     19333     19332     19335     19336
     19334     19332     19335     19336     19335     19336     19338     19339
     19335     19336     19338     19340     19335     19336     19338     19388
     19336     19338     19388     19389     19336     19338     19388     19390
     19336     19338     19388     19391     19337     19336     19338     19339
     19337     19336     19338     19340     19337     19336     19338     19388
     19338     19388     19391     19392     19338     19388     19391     19393
     19338     19388     19391     19394     19339     19338     19388     19389
     19339     19338     19388     19390     19339     19338     19388     19391
     19340     19338     19388     19389     19340     19338     19388     19390
     19340     19338     19388     19391     19341     19344     19347     19348
     19341     19344     19347     19349     19341     19344     19347     19350
     19342     19341     19344     19345     19342     19341     19344     19346
     19342     19341     19344     19347     19343     19341     19344     19345
     19343     19341     19344     19346     19343     19341     19344     19347
     19344     19347     19350     19351     19344     19347     19350     19352
     19344     19347     19350     19353     19345     19344     19347     19348
     19345     19344     19347     19349     19345     19344     19347     19350
     19346     19344     19347     19348     19346     19344     19347     19349
     19346     19344     19347     19350     19347     19350     19353     19354
     19347     19350     19353     19355     19347     19350     19353     19356
     19348     19347     19350     19351     19348     19347     19350     19352
     19348     19347     19350     19353     19349     19347     19350     19351
     19349     19347     19350     19352     19349     19347     19350     19353
     19350     19353     19356     19357     19350     19353     19356     19358
     19350     19353     19356     19359     19351     19350     19353     19354
     19351     19350     19353     19355     19351     19350     19353     19356
     19352     19350     19353     19354     19352     19350     19353     19355
     19352     19350     19353     19356     19353     19356     19359     19360
     19353     19356     19359     19361     19354     19353     19356     19357
     19354     19353     19356     19358     19354     19353     19356     19359
     19355     19353     19356     19357     19355     19353     19356     19358
     19355     19353     19356     19359     19356     19359     19361     19362
     19356     19359     19361     19363     19357     19356     19359     19360
     19357     19356     19359     19361     19358     19356     19359     19360
     19358     19356     19359     19361     19359     19361     19363     19364
     19359     19361     19363     19365     19359     19361     19363     19366
     19360     19359     19361     19362     19360     19359     19361     19363
     19361     19363     19366     19367     19361     19363     19366     19368
     19361     19363     19366     19369     19362     19361     19363     19364
     19362     19361     19363     19365     19362     19361     19363     19366
     19363     19366     19369     19370     19363     19366     19369     19371
     19363     19366     19369     19372     19364     19363     19366     19367
     19364     19363     19366     19368     19364     19363     19366     19369
     19365     19363     19366     19367     19365     19363     19366     19368
     19365     19363     19366     19369     19366     19369     19372     19373
     19366     19369     19372     19374     19366     19369     19372     19375
     19367     19366     19369     19370     19367     19366     19369     19371
     19367     19366     19369     19372     19368     19366     19369     19370
     19368     19366     19369     19371     19368     19366     19369     19372
     19369     19372     19375     19376     19369     19372     19375     19377
     19369     19372     19375     19378     19370     19369     19372     19373
     19370     19369     19372     19374     19370     19369     19372     19375
     19371     19369     19372     19373     19371     19369     19372     19374
     19371     19369     19372     19375     19372     19375     19378     19379
     19372     19375     19378     19380     19372     19375     19378     19381
     19373     19372     19375     19376     19373     19372     19375     19377
     19373     19372     19375     19378     19374     19372     19375     19376
     19374     19372     19375     19377     19374     19372     19375     19378
     19375     19378     19381     19382     19375     19378     19381     19383
     19375     19378     19381     19384     19376     19375     19378     19379
     19376     19375     19378     19380     19376     19375     19378     19381
     19377     19375     19378     19379     19377     19375     19378     19380
     19377     19375     19378     19381     19378     19381     19384     19385
     19378     19381     19384     19386     19378     19381     19384     19387
     19379     19378     19381     19382     19379     19378     19381     19383
     19379     19378     19381     19384     19380     19378     19381     19382
     19380     19378     19381     19383     19380     19378     19381     19384
     19382     19381     19384     19385     19382     19381     19384     19386
     19382     19381     19384     19387     19383     19381     19384     19385
     19383     19381     19384     19386     19383     19381     19384     19387
     19388     19391     19394     19395     19388     19391     19394     19396
     19388     19391     19394     19397     19389     19388     19391     19392
     19389     19388     19391     19393     19389     19388     19391     19394
     19390     19388     19391     19392     19390     19388     19391     19393
     19390     19388     19391     19394     19391     19394     19397     19398
     19391     19394     19397     19399     19391     19394     19397     19400
     19392     19391     19394     19395     19392     19391     19394     19396
     19392     19391     19394     19397     19393     19391     19394     19395
     19393     19391     19394     19396     19393     19391     19394     19397
     19394     19397     19400     19401     19394     19397     19400     19402
     19394     19397     19400     19403     19395     19394     19397     19398
     19395     19394     19397     19399     19395     19394     19397     19400
     19396     19394     19397     19398     19396     19394     19397     19399
     19396     19394     19397     19400     19397     19400     19403     19404
     19397     19400     19403     19405     19397     19400     19403     19406
     19398     19397     19400     19401     19398     19397     19400     19402
     19398     19397     19400     19403     19399     19397     19400     19401
     19399     19397     19400     19402     19399     19397     19400     19403
     19400     19403     19406     19407     19400     19403     19406     19408
     19400     19403     19406     19409     19401     19400     19403     19404
     19401     19400     19403     19405     19401     19400     19403     19406
     19402     19400     19403     19404     19402     19400     19403     19405
     19402     19400     19403     19406     19403     19406     19409     19410
     19403     19406     19409     19411     19403     19406     19409     19412
     19404     19403     19406     19407     19404     19403     19406     19408
     19404     19403     19406     19409     19405     19403     19406     19407
     19405     19403     19406     19408     19405     19403     19406     19409
     19406     19409     19412     19413     19406     19409     19412     19414
     19406     19409     19412     19415     19407     19406     19409     19410
     19407     19406     19409     19411     19407     19406     19409     19412
     19408     19406     19409     19410     19408     19406     19409     19411
     19408     19406     19409     19412     19409     19412     19415     19416
     19409     19412     19415     19417     19409     19412     19415     19418
     19410     19409     19412     19413     19410     19409     19412     19414
     19410     19409     19412     19415     19411     19409     19412     19413
     19411     19409     19412     19414     19411     19409     19412     19415
     19412     19415     19418     19419     19412     19415     19418     19420
     19412     19415     19418     19421     19413     19412     19415     19416
     19413     19412     19415     19417     19413     19412     19415     19418
     19414     19412     19415     19416     19414     19412     19415     19417
     19414     19412     19415     19418     19415     19418     19421     19422
     19415     19418     19421     19423     19415     19418     19421     19424
     19416     19415     19418     19419     19416     19415     19418     19420
     19416     19415     19418     19421     19417     19415     19418     19419
     19417     19415     19418     19420     19417     19415     19418     19421
     19418     19421     19424     19425     19418     19421     19424     19426
     19418     19421     19424     19427     19419     19418     19421     19422
     19419     19418     19421     19423     19419     19418     19421     19424
     19420     19418     19421     19422     19420     19418     19421     19423
     19420     19418     19421     19424     19421     19424     19427     19428
     19421     19424     19427     19429     19421     19424     19427     19430
     19422     19421     19424     19425     19422     19421     19424     19426
     19422     19421     19424     19427     19423     19421     19424     19425
     19423     19421     19424     19426     19423     19421     19424     19427
     19425     19424     19427     19428     19425     19424     19427     19429
     19425     19424     19427     19430     19426     19424     19427     19428
     19426     19424     19427     19429     19426     19424     19427     19430
     19431     19432     19447     19448     19431     19432     19447     19449
     19431     19432     19447     19453     19432     19431     19435     19436
     19432     19431     19435     19437     19432     19431     19435     19438
     19432     19431     19439     19440     19432     19431     19439     19441
     19432     19431     19439     19442     19432     19431     19443     19444
     19432     19431     19443     19445     19432     19431     19443     19446
     19432     19447     19453     19450     19433     19432     19431     19435
     19433     19432     19431     19439     19433     19432     19431     19443
     19433     19432     19447     19448     19433     19432     19447     19449
     19433     19432     19447     19453     19434     19432     19431     19435
     19434     19432     19431     19439     19434     19432     19431     19443
     19434     19432     19447     19448     19434     19432     19447     19449
     19434     19432     19447     19453     19435     19431     19432     19447
     19435     19431     19439     19440     19435     19431     19439     19441
     19435     19431     19439     19442     19435     19431     19443     19444
     19435     19431     19443     19445     19435     19431     19443     19446
     19436     19435     19431     19439     19436     19435     19431     19443
     19437     19435     19431     19439     19437     19435     19431     19443
     19438     19435     19431     19439     19438     19435     19431     19443
     19439     19431     19432     19447     19439     19431     19443     19444
     19439     19431     19443     19445     19439     19431     19443     19446
     19440     19439     19431     19443     19441     19439     19431     19443
     19442     19439     19431     19443     19443     19431     19432     19447
     19447     19453     19450     19451     19447     19453     19450     19452
     19447     19453     19450     19454     19448     19447     19453     19450
     19449     19447     19453     19450     19450     19454     19455     19456
     19450     19454     19455     19457     19450     19454     19455     19458
     19451     19450     19454     19455     19452     19450     19454     19455
     19453     19450     19454     19455     19454     19455     19458     19459
     19454     19455     19458     19460     19454     19455     19458     19466
     19455     19458     19460     19461     19455     19458     19466     19467
     19455     19458     19466     19468     19455     19458     19466     19469
     19456     19455     19458     19459     19456     19455     19458     19460
     19456     19455     19458     19466     19457     19455     19458     19459
     19457     19455     19458     19460     19457     19455     19458     19466
     19458     19460     19461     19462     19458     19460     19461     19463
     19458     19466     19469     19470     19459     19458     19460     19461
     19459     19458     19466     19467     19459     19458     19466     19468
     19459     19458     19466     19469     19460     19458     19466     19467
     19460     19458     19466     19468     19460     19458     19466     19469
     19460     19461     19463     19464     19460     19461     19463     19465
     19460     19461     19463     19475     19461     19460     19458     19466
     19461     19463     19475     19476     19461     19463     19475     19477
     19461     19463     19475     19478     19462     19461     19463     19464
     19462     19461     19463     19465     19462     19461     19463     19475
     19463     19475     19478     19479     19463     19475     19478     19480
     19463     19475     19478     19481     19464     19463     19475     19476
     19464     19463     19475     19477     19464     19463     19475     19478
     19465     19463     19475     19476     19465     19463     19475     19477
     19465     19463     19475     19478     19466     19469     19470     19471
     19466     19469     19470     19472     19467     19466     19469     19470
     19468     19466     19469     19470     19469     19470     19472     19473
     19469     19470     19472     19474     19469     19470     19472     19522
     19470     19472     19522     19523     19470     19472     19522     19524
     19470     19472     19522     19525     19471     19470     19472     19473
     19471     19470     19472     19474     19471     19470     19472     19522
     19472     19522     19525     19526     19472     19522     19525     19527
     19472     19522     19525     19528     19473     19472     19522     19523
     19473     19472     19522     19524     19473     19472     19522     19525
     19474     19472     19522     19523     19474     19472     19522     19524
     19474     19472     19522     19525     19475     19478     19481     19482
     19475     19478     19481     19483     19475     19478     19481     19484
     19476     19475     19478     19479     19476     19475     19478     19480
     19476     19475     19478     19481     19477     19475     19478     19479
     19477     19475     19478     19480     19477     19475     19478     19481
     19478     19481     19484     19485     19478     19481     19484     19486
     19478     19481     19484     19487     19479     19478     19481     19482
     19479     19478     19481     19483     19479     19478     19481     19484
     19480     19478     19481     19482     19480     19478     19481     19483
     19480     19478     19481     19484     19481     19484     19487     19488
     19481     19484     19487     19489     19481     19484     19487     19490
     19482     19481     19484     19485     19482     19481     19484     19486
     19482     19481     19484     19487     19483     19481     19484     19485
     19483     19481     19484     19486     19483     19481     19484     19487
     19484     19487     19490     19491     19484     19487     19490     19492
     19484     19487     19490     19493     19485     19484     19487     19488
     19485     19484     19487     19489     19485     19484     19487     19490
     19486     19484     19487     19488     19486     19484     19487     19489
     19486     19484     19487     19490     19487     19490     19493     19494
     19487     19490     19493     19495     19488     19487     19490     19491
     19488     19487     19490     19492     19488     19487     19490     19493
     19489     19487     19490     19491     19489     19487     19490     19492
     19489     19487     19490     19493     19490     19493     19495     19496
     19490     19493     19495     19497     19491     19490     19493     19494
     19491     19490     19493     19495     19492     19490     19493     19494
     19492     19490     19493     19495     19493     19495     19497     19498
     19493     19495     19497     19499     19493     19495     19497     19500
     19494     19493     19495     19496     19494     19493     19495     19497
     19495     19497     19500     19501     19495     19497     19500     19502
     19495     19497     19500     19503     19496     19495     19497     19498
     19496     19495     19497     19499     19496     19495     19497     19500
     19497     19500     19503     19504     19497     19500     19503     19505
     19497     19500     19503     19506     19498     19497     19500     19501
     19498     19497     19500     19502     19498     19497     19500     19503
     19499     19497     19500     19501     19499     19497     19500     19502
     19499     19497     19500     19503     19500     19503     19506     19507
     19500     19503     19506     19508     19500     19503     19506     19509
     19501     19500     19503     19504     19501     19500     19503     19505
     19501     19500     19503     19506     19502     19500     19503     19504
     19502     19500     19503     19505     19502     19500     19503     19506
     19503     19506     19509     19510     19503     19506     19509     19511
     19503     19506     19509     19512     19504     19503     19506     19507
     19504     19503     19506     19508     19504     19503     19506     19509
     19505     19503     19506     19507     19505     19503     19506     19508
     19505     19503     19506     19509     19506     19509     19512     19513
     19506     19509     19512     19514     19506     19509     19512     19515
     19507     19506     19509     19510     19507     19506     19509     19511
     19507     19506     19509     19512     19508     19506     19509     19510
     19508     19506     19509     19511     19508     19506     19509     19512
     19509     19512     19515     19516     19509     19512     19515     19517
     19509     19512     19515     19518     19510     19509     19512     19513
     19510     19509     19512     19514     19510     19509     19512     19515
     19511     19509     19512     19513     19511     19509     19512     19514
     19511     19509     19512     19515     19512     19515     19518     19519
     19512     19515     19518     19520     19512     19515     19518     19521
     19513     19512     19515     19516     19513     19512     19515     19517
     19513     19512     19515     19518     19514     19512     19515     19516
     19514     19512     19515     19517     19514     19512     19515     19518
     19516     19515     19518     19519     19516     19515     19518     19520
     19516     19515     19518     19521     19517     19515     19518     19519
     19517     19515     19518     19520     19517     19515     19518     19521
     19522     19525     19528     19529     19522     19525     19528     19530
     19522     19525     19528     19531     19523     19522     19525     19526
     19523     19522     19525     19527     19523     19522     19525     19528
     19524     19522     19525     19526     19524     19522     19525     19527
     19524     19522     19525     19528     19525     19528     19531     19532
     19525     19528     19531     19533     19525     19528     19531     19534
     19526     19525     19528     19529     19526     19525     19528     19530
     19526     19525     19528     19531     19527     19525     19528     19529
     19527     19525     19528     19530     19527     19525     19528     19531
     19528     19531     19534     19535     19528     19531     19534     19536
     19528     19531     19534     19537     19529     19528     19531     19532
     19529     19528     19531     19533     19529     19528     19531     19534
     19530     19528     19531     19532     19530     19528     19531     19533
     19530     19528     19531     19534     19531     19534     19537     19538
     19531     19534     19537     19539     19531     19534     19537     19540
     19532     19531     19534     19535     19532     19531     19534     19536
     19532     19531     19534     19537     19533     19531     19534     19535
     19533     19531     19534     19536     19533     19531     19534     19537
     19534     19537     19540     19541     19534     19537     19540     19542
     19534     19537     19540     19543     19535     19534     19537     19538
     19535     19534     19537     19539     19535     19534     19537     19540
     19536     19534     19537     19538     19536     19534     19537     19539
     19536     19534     19537     19540     19537     19540     19543     19544
     19537     19540     19543     19545     19537     19540     19543     19546
     19538     19537     19540     19541     19538     19537     19540     19542
     19538     19537     19540     19543     19539     19537     19540     19541
     19539     19537     19540     19542     19539     19537     19540     19543
     19540     19543     19546     19547     19540     19543     19546     19548
     19540     19543     19546     19549     19541     19540     19543     19544
     19541     19540     19543     19545     19541     19540     19543     19546
     19542     19540     19543     19544     19542     19540     19543     19545
     19542     19540     19543     19546     19543     19546     19549     19550
     19543     19546     19549     19551     19543     19546     19549     19552
     19544     19543     19546     19547     19544     19543     19546     19548
     19544     19543     19546     19549     19545     19543     19546     19547
     19545     19543     19546     19548     19545     19543     19546     19549
     19546     19549     19552     19553     19546     19549     19552     19554
     19546     19549     19552     19555     19547     19546     19549     19550
     19547     19546     19549     19551     19547     19546     19549     19552
     19548     19546     19549     19550     19548     19546     19549     19551
     19548     19546     19549     19552     19549     19552     19555     19556
     19549     19552     19555     19557     19549     19552     19555     19558
     19550     19549     19552     19553     19550     19549     19552     19554
     19550     19549     19552     19555     19551     19549     19552     19553
     19551     19549     19552     19554     19551     19549     19552     19555
     19552     19555     19558     19559     19552     19555     19558     19560
     19552     19555     19558     19561     19553     19552     19555     19556
     19553     19552     19555     19557     19553     19552     19555     19558
     19554     19552     19555     19556     19554     19552     19555     19557
     19554     19552     19555     19558     19555     19558     19561     19562
     19555     19558     19561     19563     19555     19558     19561     19564
     19556     19555     19558     19559     19556     19555     19558     19560
     19556     19555     19558     19561     19557     19555     19558     19559
     19557     19555     19558     19560     19557     19555     19558     19561
     19559     19558     19561     19562     19559     19558     19561     19563
     19559     19558     19561     19564     19560     19558     19561     19562
     19560     19558     19561     19563     19560     19558     19561     19564
     19565     19566     19581     19582     19565     19566     19581     19583
     19565     19566     19581     19587     19566     19565     19569     19570
     19566     19565     19569     19571     19566     19565     19569     19572
     19566     19565     19573     19574     19566     19565     19573     19575
     19566     19565     19573     19576     19566     19565     19577     19578
     19566     19565     19577     19579     19566     19565     19577     19580
     19566     19581     19587     19584     19567     19566     19565     19569
     19567     19566     19565     19573     19567     19566     19565     19577
     19567     19566     19581     19582     19567     19566     19581     19583
     19567     19566     19581     19587     19568     19566     19565     19569
     19568     19566     19565     19573     19568     19566     19565     19577
     19568     19566     19581     19582     19568     19566     19581     19583
     19568     19566     19581     19587     19569     19565     19566     19581
     19569     19565     19573     19574     19569     19565     19573     19575
     19569     19565     19573     19576     19569     19565     19577     19578
     19569     19565     19577     19579     19569     19565     19577     19580
     19570     19569     19565     19573     19570     19569     19565     19577
     19571     19569     19565     19573     19571     19569     19565     19577
     19572     19569     19565     19573     19572     19569     19565     19577
     19573     19565     19566     19581     19573     19565     19577     19578
     19573     19565     19577     19579     19573     19565     19577     19580
     19574     19573     19565     19577     19575     19573     19565     19577
     19576     19573     19565     19577     19577     19565     19566     19581
     19581     19587     19584     19585     19581     19587     19584     19586
     19581     19587     19584     19588     19582     19581     19587     19584
     19583     19581     19587     19584     19584     19588     19589     19590
     19584     19588     19589     19591     19584     19588     19589     19592
     19585     19584     19588     19589     19586     19584     19588     19589
     19587     19584     19588     19589     19588     19589     19592     19593
     19588     19589     19592     19594     19588     19589     19592     19600
     19589     19592     19594     19595     19589     19592     19600     19601
     19589     19592     19600     19602     19589     19592     19600     19603
     19590     19589     19592     19593     19590     19589     19592     19594
     19590     19589     19592     19600     19591     19589     19592     19593
     19591     19589     19592     19594     19591     19589     19592     19600
     19592     19594     19595     19596     19592     19594     19595     19597
     19592     19600     19603     19604     19593     19592     19594     19595
     19593     19592     19600     19601     19593     19592     19600     19602
     19593     19592     19600     19603     19594     19592     19600     19601
     19594     19592     19600     19602     19594     19592     19600     19603
     19594     19595     19597     19598     19594     19595     19597     19599
     19594     19595     19597     19609     19595     19594     19592     19600
     19595     19597     19609     19610     19595     19597     19609     19611
     19595     19597     19609     19612     19596     19595     19597     19598
     19596     19595     19597     19599     19596     19595     19597     19609
     19597     19609     19612     19613     19597     19609     19612     19614
     19597     19609     19612     19615     19598     19597     19609     19610
     19598     19597     19609     19611     19598     19597     19609     19612
     19599     19597     19609     19610     19599     19597     19609     19611
     19599     19597     19609     19612     19600     19603     19604     19605
     19600     19603     19604     19606     19601     19600     19603     19604
     19602     19600     19603     19604     19603     19604     19606     19607
     19603     19604     19606     19608     19603     19604     19606     19656
     19604     19606     19656     19657     19604     19606     19656     19658
     19604     19606     19656     19659     19605     19604     19606     19607
     19605     19604     19606     19608     19605     19604     19606     19656
     19606     19656     19659     19660     19606     19656     19659     19661
     19606     19656     19659     19662     19607     19606     19656     19657
     19607     19606     19656     19658     19607     19606     19656     19659
     19608     19606     19656     19657     19608     19606     19656     19658
     19608     19606     19656     19659     19609     19612     19615     19616
     19609     19612     19615     19617     19609     19612     19615     19618
     19610     19609     19612     19613     19610     19609     19612     19614
     19610     19609     19612     19615     19611     19609     19612     19613
     19611     19609     19612     19614     19611     19609     19612     19615
     19612     19615     19618     19619     19612     19615     19618     19620
     19612     19615     19618     19621     19613     19612     19615     19616
     19613     19612     19615     19617     19613     19612     19615     19618
     19614     19612     19615     19616     19614     19612     19615     19617
     19614     19612     19615     19618     19615     19618     19621     19622
     19615     19618     19621     19623     19615     19618     19621     19624
     19616     19615     19618     19619     19616     19615     19618     19620
     19616     19615     19618     19621     19617     19615     19618     19619
     19617     19615     19618     19620     19617     19615     19618     19621
     19618     19621     19624     19625     19618     19621     19624     19626
     19618     19621     19624     19627     19619     19618     19621     19622
     19619     19618     19621     19623     19619     19618     19621     19624
     19620     19618     19621     19622     19620     19618     19621     19623
     19620     19618     19621     19624     19621     19624     19627     19628
     19621     19624     19627     19629     19622     19621     19624     19625
     19622     19621     19624     19626     19622     19621     19624     19627
     19623     19621     19624     19625     19623     19621     19624     19626
     19623     19621     19624     19627     19624     19627     19629     19630
     19624     19627     19629     19631     19625     19624     19627     19628
     19625     19624     19627     19629     19626     19624     19627     19628
     19626     19624     19627     19629     19627     19629     19631     19632
     19627     19629     19631     19633     19627     19629     19631     19634
     19628     19627     19629     19630     19628     19627     19629     19631
     19629     19631     19634     19635     19629     19631     19634     19636
     19629     19631     19634     19637     19630     19629     19631     19632
     19630     19629     19631     19633     19630     19629     19631     19634
     19631     19634     19637     19638     19631     19634     19637     19639
     19631     19634     19637     19640     19632     19631     19634     19635
     19632     19631     19634     19636     19632     19631     19634     19637
     19633     19631     19634     19635     19633     19631     19634     19636
     19633     19631     19634     19637     19634     19637     19640     19641
     19634     19637     19640     19642     19634     19637     19640     19643
     19635     19634     19637     19638     19635     19634     19637     19639
     19635     19634     19637     19640     19636     19634     19637     19638
     19636     19634     19637     19639     19636     19634     19637     19640
     19637     19640     19643     19644     19637     19640     19643     19645
     19637     19640     19643     19646     19638     19637     19640     19641
     19638     19637     19640     19642     19638     19637     19640     19643
     19639     19637     19640     19641     19639     19637     19640     19642
     19639     19637     19640     19643     19640     19643     19646     19647
     19640     19643     19646     19648     19640     19643     19646     19649
     19641     19640     19643     19644     19641     19640     19643     19645
     19641     19640     19643     19646     19642     19640     19643     19644
     19642     19640     19643     19645     19642     19640     19643     19646
     19643     19646     19649     19650     19643     19646     19649     19651
     19643     19646     19649     19652     19644     19643     19646     19647
     19644     19643     19646     19648     19644     19643     19646     19649
     19645     19643     19646     19647     19645     19643     19646     19648
     19645     19643     19646     19649     19646     19649     19652     19653
     19646     19649     19652     19654     19646     19649     19652     19655
     19647     19646     19649     19650     19647     19646     19649     19651
     19647     19646     19649     19652     19648     19646     19649     19650
     19648     19646     19649     19651     19648     19646     19649     19652
     19650     19649     19652     19653     19650     19649     19652     19654
     19650     19649     19652     19655     19651     19649     19652     19653
     19651     19649     19652     19654     19651     19649     19652     19655
     19656     19659     19662     19663     19656     19659     19662     19664
     19656     19659     19662     19665     19657     19656     19659     19660
     19657     19656     19659     19661     19657     19656     19659     19662
     19658     19656     19659     19660     19658     19656     19659     19661
     19658     19656     19659     19662     19659     19662     19665     19666
     19659     19662     19665     19667     19659     19662     19665     19668
     19660     19659     19662     19663     19660     19659     19662     19664
     19660     19659     19662     19665     19661     19659     19662     19663
     19661     19659     19662     19664     19661     19659     19662     19665
     19662     19665     19668     19669     19662     19665     19668     19670
     19662     19665     19668     19671     19663     19662     19665     19666
     19663     19662     19665     19667     19663     19662     19665     19668
     19664     19662     19665     19666     19664     19662     19665     19667
     19664     19662     19665     19668     19665     19668     19671     19672
     19665     19668     19671     19673     19665     19668     19671     19674
     19666     19665     19668     19669     19666     19665     19668     19670
     19666     19665     19668     19671     19667     19665     19668     19669
     19667     19665     19668     19670     19667     19665     19668     19671
     19668     19671     19674     19675     19668     19671     19674     19676
     19668     19671     19674     19677     19669     19668     19671     19672
     19669     19668     19671     19673     19669     19668     19671     19674
     19670     19668     19671     19672     19670     19668     19671     19673
     19670     19668     19671     19674     19671     19674     19677     19678
     19671     19674     19677     19679     19671     19674     19677     19680
     19672     19671     19674     19675     19672     19671     19674     19676
     19672     19671     19674     19677     19673     19671     19674     19675
     19673     19671     19674     19676     19673     19671     19674     19677
     19674     19677     19680     19681     19674     19677     19680     19682
     19674     19677     19680     19683     19675     19674     19677     19678
     19675     19674     19677     19679     19675     19674     19677     19680
     19676     19674     19677     19678     19676     19674     19677     19679
     19676     19674     19677     19680     19677     19680     19683     19684
     19677     19680     19683     19685     19677     19680     19683     19686
     19678     19677     19680     19681     19678     19677     19680     19682
     19678     19677     19680     19683     19679     19677     19680     19681
     19679     19677     19680     19682     19679     19677     19680     19683
     19680     19683     19686     19687     19680     19683     19686     19688
     19680     19683     19686     19689     19681     19680     19683     19684
     19681     19680     19683     19685     19681     19680     19683     19686
     19682     19680     19683     19684     19682     19680     19683     19685
     19682     19680     19683     19686     19683     19686     19689     19690
     19683     19686     19689     19691     19683     19686     19689     19692
     19684     19683     19686     19687     19684     19683     19686     19688
     19684     19683     19686     19689     19685     19683     19686     19687
     19685     19683     19686     19688     19685     19683     19686     19689
     19686     19689     19692     19693     19686     19689     19692     19694
     19686     19689     19692     19695     19687     19686     19689     19690
     19687     19686     19689     19691     19687     19686     19689     19692
     19688     19686     19689     19690     19688     19686     19689     19691
     19688     19686     19689     19692     19689     19692     19695     19696
     19689     19692     19695     19697     19689     19692     19695     19698
     19690     19689     19692     19693     19690     19689     19692     19694
     19690     19689     19692     19695     19691     19689     19692     19693
     19691     19689     19692     19694     19691     19689     19692     19695
     19693     19692     19695     19696     19693     19692     19695     19697
     19693     19692     19695     19698     19694     19692     19695     19696
     19694     19692     19695     19697     19694     19692     19695     19698
     19699     19700     19715     19716     19699     19700     19715     19717
     19699     19700     19715     19721     19700     19699     19703     19704
     19700     19699     19703     19705     19700     19699     19703     19706
     19700     19699     19707     19708     19700     19699     19707     19709
     19700     19699     19707     19710     19700     19699     19711     19712
     19700     19699     19711     19713     19700     19699     19711     19714
     19700     19715     19721     19718     19701     19700     19699     19703
     19701     19700     19699     19707     19701     19700     19699     19711
     19701     19700     19715     19716     19701     19700     19715     19717
     19701     19700     19715     19721     19702     19700     19699     19703
     19702     19700     19699     19707     19702     19700     19699     19711
     19702     19700     19715     19716     19702     19700     19715     19717
     19702     19700     19715     19721     19703     19699     19700     19715
     19703     19699     19707     19708     19703     19699     19707     19709
     19703     19699     19707     19710     19703     19699     19711     19712
     19703     19699     19711     19713     19703     19699     19711     19714
     19704     19703     19699     19707     19704     19703     19699     19711
     19705     19703     19699     19707     19705     19703     19699     19711
     19706     19703     19699     19707     19706     19703     19699     19711
     19707     19699     19700     19715     19707     19699     19711     19712
     19707     19699     19711     19713     19707     19699     19711     19714
     19708     19707     19699     19711     19709     19707     19699     19711
     19710     19707     19699     19711     19711     19699     19700     19715
     19715     19721     19718     19719     19715     19721     19718     19720
     19715     19721     19718     19722     19716     19715     19721     19718
     19717     19715     19721     19718     19718     19722     19723     19724
     19718     19722     19723     19725     19718     19722     19723     19726
     19719     19718     19722     19723     19720     19718     19722     19723
     19721     19718     19722     19723     19722     19723     19726     19727
     19722     19723     19726     19728     19722     19723     19726     19734
     19723     19726     19728     19729     19723     19726     19734     19735
     19723     19726     19734     19736     19723     19726     19734     19737
     19724     19723     19726     19727     19724     19723     19726     19728
     19724     19723     19726     19734     19725     19723     19726     19727
     19725     19723     19726     19728     19725     19723     19726     19734
     19726     19728     19729     19730     19726     19728     19729     19731
     19726     19734     19737     19738     19727     19726     19728     19729
     19727     19726     19734     19735     19727     19726     19734     19736
     19727     19726     19734     19737     19728     19726     19734     19735
     19728     19726     19734     19736     19728     19726     19734     19737
     19728     19729     19731     19732     19728     19729     19731     19733
     19728     19729     19731     19743     19729     19728     19726     19734
     19729     19731     19743     19744     19729     19731     19743     19745
     19729     19731     19743     19746     19730     19729     19731     19732
     19730     19729     19731     19733     19730     19729     19731     19743
     19731     19743     19746     19747     19731     19743     19746     19748
     19731     19743     19746     19749     19732     19731     19743     19744
     19732     19731     19743     19745     19732     19731     19743     19746
     19733     19731     19743     19744     19733     19731     19743     19745
     19733     19731     19743     19746     19734     19737     19738     19739
     19734     19737     19738     19740     19735     19734     19737     19738
     19736     19734     19737     19738     19737     19738     19740     19741
     19737     19738     19740     19742     19737     19738     19740     19790
     19738     19740     19790     19791     19738     19740     19790     19792
     19738     19740     19790     19793     19739     19738     19740     19741
     19739     19738     19740     19742     19739     19738     19740     19790
     19740     19790     19793     19794     19740     19790     19793     19795
     19740     19790     19793     19796     19741     19740     19790     19791
     19741     19740     19790     19792     19741     19740     19790     19793
     19742     19740     19790     19791     19742     19740     19790     19792
     19742     19740     19790     19793     19743     19746     19749     19750
     19743     19746     19749     19751     19743     19746     19749     19752
     19744     19743     19746     19747     19744     19743     19746     19748
     19744     19743     19746     19749     19745     19743     19746     19747
     19745     19743     19746     19748     19745     19743     19746     19749
     19746     19749     19752     19753     19746     19749     19752     19754
     19746     19749     19752     19755     19747     19746     19749     19750
     19747     19746     19749     19751     19747     19746     19749     19752
     19748     19746     19749     19750     19748     19746     19749     19751
     19748     19746     19749     19752     19749     19752     19755     19756
     19749     19752     19755     19757     19749     19752     19755     19758
     19750     19749     19752     19753     19750     19749     19752     19754
     19750     19749     19752     19755     19751     19749     19752     19753
     19751     19749     19752     19754     19751     19749     19752     19755
     19752     19755     19758     19759     19752     19755     19758     19760
     19752     19755     19758     19761     19753     19752     19755     19756
     19753     19752     19755     19757     19753     19752     19755     19758
     19754     19752     19755     19756     19754     19752     19755     19757
     19754     19752     19755     19758     19755     19758     19761     19762
     19755     19758     19761     19763     19756     19755     19758     19759
     19756     19755     19758     19760     19756     19755     19758     19761
     19757     19755     19758     19759     19757     19755     19758     19760
     19757     19755     19758     19761     19758     19761     19763     19764
     19758     19761     19763     19765     19759     19758     19761     19762
     19759     19758     19761     19763     19760     19758     19761     19762
     19760     19758     19761     19763     19761     19763     19765     19766
     19761     19763     19765     19767     19761     19763     19765     19768
     19762     19761     19763     19764     19762     19761     19763     19765
     19763     19765     19768     19769     19763     19765     19768     19770
     19763     19765     19768     19771     19764     19763     19765     19766
     19764     19763     19765     19767     19764     19763     19765     19768
     19765     19768     19771     19772     19765     19768     19771     19773
     19765     19768     19771     19774     19766     19765     19768     19769
     19766     19765     19768     19770     19766     19765     19768     19771
     19767     19765     19768     19769     19767     19765     19768     19770
     19767     19765     19768     19771     19768     19771     19774     19775
     19768     19771     19774     19776     19768     19771     19774     19777
     19769     19768     19771     19772     19769     19768     19771     19773
     19769     19768     19771     19774     19770     19768     19771     19772
     19770     19768     19771     19773     19770     19768     19771     19774
     19771     19774     19777     19778     19771     19774     19777     19779
     19771     19774     19777     19780     19772     19771     19774     19775
     19772     19771     19774     19776     19772     19771     19774     19777
     19773     19771     19774     19775     19773     19771     19774     19776
     19773     19771     19774     19777     19774     19777     19780     19781
     19774     19777     19780     19782     19774     19777     19780     19783
     19775     19774     19777     19778     19775     19774     19777     19779
     19775     19774     19777     19780     19776     19774     19777     19778
     19776     19774     19777     19779     19776     19774     19777     19780
     19777     19780     19783     19784     19777     19780     19783     19785
     19777     19780     19783     19786     19778     19777     19780     19781
     19778     19777     19780     19782     19778     19777     19780     19783
     19779     19777     19780     19781     19779     19777     19780     19782
     19779     19777     19780     19783     19780     19783     19786     19787
     19780     19783     19786     19788     19780     19783     19786     19789
     19781     19780     19783     19784     19781     19780     19783     19785
     19781     19780     19783     19786     19782     19780     19783     19784
     19782     19780     19783     19785     19782     19780     19783     19786
     19784     19783     19786     19787     19784     19783     19786     19788
     19784     19783     19786     19789     19785     19783     19786     19787
     19785     19783     19786     19788     19785     19783     19786     19789
     19790     19793     19796     19797     19790     19793     19796     19798
     19790     19793     19796     19799     19791     19790     19793     19794
     19791     19790     19793     19795     19791     19790     19793     19796
     19792     19790     19793     19794     19792     19790     19793     19795
     19792     19790     19793     19796     19793     19796     19799     19800
     19793     19796     19799     19801     19793     19796     19799     19802
     19794     19793     19796     19797     19794     19793     19796     19798
     19794     19793     19796     19799     19795     19793     19796     19797
     19795     19793     19796     19798     19795     19793     19796     19799
     19796     19799     19802     19803     19796     19799     19802     19804
     19796     19799     19802     19805     19797     19796     19799     19800
     19797     19796     19799     19801     19797     19796     19799     19802
     19798     19796     19799     19800     19798     19796     19799     19801
     19798     19796     19799     19802     19799     19802     19805     19806
     19799     19802     19805     19807     19799     19802     19805     19808
     19800     19799     19802     19803     19800     19799     19802     19804
     19800     19799     19802     19805     19801     19799     19802     19803
     19801     19799     19802     19804     19801     19799     19802     19805
     19802     19805     19808     19809     19802     19805     19808     19810
     19802     19805     19808     19811     19803     19802     19805     19806
     19803     19802     19805     19807     19803     19802     19805     19808
     19804     19802     19805     19806     19804     19802     19805     19807
     19804     19802     19805     19808     19805     19808     19811     19812
     19805     19808     19811     19813     19805     19808     19811     19814
     19806     19805     19808     19809     19806     19805     19808     19810
     19806     19805     19808     19811     19807     19805     19808     19809
     19807     19805     19808     19810     19807     19805     19808     19811
     19808     19811     19814     19815     19808     19811     19814     19816
     19808     19811     19814     19817     19809     19808     19811     19812
     19809     19808     19811     19813     19809     19808     19811     19814
     19810     19808     19811     19812     19810     19808     19811     19813
     19810     19808     19811     19814     19811     19814     19817     19818
     19811     19814     19817     19819     19811     19814     19817     19820
     19812     19811     19814     19815     19812     19811     19814     19816
     19812     19811     19814     19817     19813     19811     19814     19815
     19813     19811     19814     19816     19813     19811     19814     19817
     19814     19817     19820     19821     19814     19817     19820     19822
     19814     19817     19820     19823     19815     19814     19817     19818
     19815     19814     19817     19819     19815     19814     19817     19820
     19816     19814     19817     19818     19816     19814     19817     19819
     19816     19814     19817     19820     19817     19820     19823     19824
     19817     19820     19823     19825     19817     19820     19823     19826
     19818     19817     19820     19821     19818     19817     19820     19822
     19818     19817     19820     19823     19819     19817     19820     19821
     19819     19817     19820     19822     19819     19817     19820     19823
     19820     19823     19826     19827     19820     19823     19826     19828
     19820     19823     19826     19829     19821     19820     19823     19824
     19821     19820     19823     19825     19821     19820     19823     19826
     19822     19820     19823     19824     19822     19820     19823     19825
     19822     19820     19823     19826     19823     19826     19829     19830
     19823     19826     19829     19831     19823     19826     19829     19832
     19824     19823     19826     19827     19824     19823     19826     19828
     19824     19823     19826     19829     19825     19823     19826     19827
     19825     19823     19826     19828     19825     19823     19826     19829
     19827     19826     19829     19830     19827     19826     19829     19831
     19827     19826     19829     19832     19828     19826     19829     19830
     19828     19826     19829     19831     19828     19826     19829     19832
     19833     19834     19849     19850     19833     19834     19849     19851
     19833     19834     19849     19855     19834     19833     19837     19838
     19834     19833     19837     19839     19834     19833     19837     19840
     19834     19833     19841     19842     19834     19833     19841     19843
     19834     19833     19841     19844     19834     19833     19845     19846
     19834     19833     19845     19847     19834     19833     19845     19848
     19834     19849     19855     19852     19835     19834     19833     19837
     19835     19834     19833     19841     19835     19834     19833     19845
     19835     19834     19849     19850     19835     19834     19849     19851
     19835     19834     19849     19855     19836     19834     19833     19837
     19836     19834     19833     19841     19836     19834     19833     19845
     19836     19834     19849     19850     19836     19834     19849     19851
     19836     19834     19849     19855     19837     19833     19834     19849
     19837     19833     19841     19842     19837     19833     19841     19843
     19837     19833     19841     19844     19837     19833     19845     19846
     19837     19833     19845     19847     19837     19833     19845     19848
     19838     19837     19833     19841     19838     19837     19833     19845
     19839     19837     19833     19841     19839     19837     19833     19845
     19840     19837     19833     19841     19840     19837     19833     19845
     19841     19833     19834     19849     19841     19833     19845     19846
     19841     19833     19845     19847     19841     19833     19845     19848
     19842     19841     19833     19845     19843     19841     19833     19845
     19844     19841     19833     19845     19845     19833     19834     19849
     19849     19855     19852     19853     19849     19855     19852     19854
     19849     19855     19852     19856     19850     19849     19855     19852
     19851     19849     19855     19852     19852     19856     19857     19858
     19852     19856     19857     19859     19852     19856     19857     19860
     19853     19852     19856     19857     19854     19852     19856     19857
     19855     19852     19856     19857     19856     19857     19860     19861
     19856     19857     19860     19862     19856     19857     19860     19868
     19857     19860     19862     19863     19857     19860     19868     19869
     19857     19860     19868     19870     19857     19860     19868     19871
     19858     19857     19860     19861     19858     19857     19860     19862
     19858     19857     19860     19868     19859     19857     19860     19861
     19859     19857     19860     19862     19859     19857     19860     19868
     19860     19862     19863     19864     19860     19862     19863     19865
     19860     19868     19871     19872     19861     19860     19862     19863
     19861     19860     19868     19869     19861     19860     19868     19870
     19861     19860     19868     19871     19862     19860     19868     19869
     19862     19860     19868     19870     19862     19860     19868     19871
     19862     19863     19865     19866     19862     19863     19865     19867
     19862     19863     19865     19877     19863     19862     19860     19868
     19863     19865     19877     19878     19863     19865     19877     19879
     19863     19865     19877     19880     19864     19863     19865     19866
     19864     19863     19865     19867     19864     19863     19865     19877
     19865     19877     19880     19881     19865     19877     19880     19882
     19865     19877     19880     19883     19866     19865     19877     19878
     19866     19865     19877     19879     19866     19865     19877     19880
     19867     19865     19877     19878     19867     19865     19877     19879
     19867     19865     19877     19880     19868     19871     19872     19873
     19868     19871     19872     19874     19869     19868     19871     19872
     19870     19868     19871     19872     19871     19872     19874     19875
     19871     19872     19874     19876     19871     19872     19874     19924
     19872     19874     19924     19925     19872     19874     19924     19926
     19872     19874     19924     19927     19873     19872     19874     19875
     19873     19872     19874     19876     19873     19872     19874     19924
     19874     19924     19927     19928     19874     19924     19927     19929
     19874     19924     19927     19930     19875     19874     19924     19925
     19875     19874     19924     19926     19875     19874     19924     19927
     19876     19874     19924     19925     19876     19874     19924     19926
     19876     19874     19924     19927     19877     19880     19883     19884
     19877     19880     19883     19885     19877     19880     19883     19886
     19878     19877     19880     19881     19878     19877     19880     19882
     19878     19877     19880     19883     19879     19877     19880     19881
     19879     19877     19880     19882     19879     19877     19880     19883
     19880     19883     19886     19887     19880     19883     19886     19888
     19880     19883     19886     19889     19881     19880     19883     19884
     19881     19880     19883     19885     19881     19880     19883     19886
     19882     19880     19883     19884     19882     19880     19883     19885
     19882     19880     19883     19886     19883     19886     19889     19890
     19883     19886     19889     19891     19883     19886     19889     19892
     19884     19883     19886     19887     19884     19883     19886     19888
     19884     19883     19886     19889     19885     19883     19886     19887
     19885     19883     19886     19888     19885     19883     19886     19889
     19886     19889     19892     19893     19886     19889     19892     19894
     19886     19889     19892     19895     19887     19886     19889     19890
     19887     19886     19889     19891     19887     19886     19889     19892
     19888     19886     19889     19890     19888     19886     19889     19891
     19888     19886     19889     19892     19889     19892     19895     19896
     19889     19892     19895     19897     19890     19889     19892     19893
     19890     19889     19892     19894     19890     19889     19892     19895
     19891     19889     19892     19893     19891     19889     19892     19894
     19891     19889     19892     19895     19892     19895     19897     19898
     19892     19895     19897     19899     19893     19892     19895     19896
     19893     19892     19895     19897     19894     19892     19895     19896
     19894     19892     19895     19897     19895     19897     19899     19900
     19895     19897     19899     19901     19895     19897     19899     19902
     19896     19895     19897     19898     19896     19895     19897     19899
     19897     19899     19902     19903     19897     19899     19902     19904
     19897     19899     19902     19905     19898     19897     19899     19900
     19898     19897     19899     19901     19898     19897     19899     19902
     19899     19902     19905     19906     19899     19902     19905     19907
     19899     19902     19905     19908     19900     19899     19902     19903
     19900     19899     19902     19904     19900     19899     19902     19905
     19901     19899     19902     19903     19901     19899     19902     19904
     19901     19899     19902     19905     19902     19905     19908     19909
     19902     19905     19908     19910     19902     19905     19908     19911
     19903     19902     19905     19906     19903     19902     19905     19907
     19903     19902     19905     19908     19904     19902     19905     19906
     19904     19902     19905     19907     19904     19902     19905     19908
     19905     19908     19911     19912     19905     19908     19911     19913
     19905     19908     19911     19914     19906     19905     19908     19909
     19906     19905     19908     19910     19906     19905     19908     19911
     19907     19905     19908     19909     19907     19905     19908     19910
     19907     19905     19908     19911     19908     19911     19914     19915
     19908     19911     19914     19916     19908     19911     19914     19917
     19909     19908     19911     19912     19909     19908     19911     19913
     19909     19908     19911     19914     19910     19908     19911     19912
     19910     19908     19911     19913     19910     19908     19911     19914
     19911     19914     19917     19918     19911     19914     19917     19919
     19911     19914     19917     19920     19912     19911     19914     19915
     19912     19911     19914     19916     19912     19911     19914     19917
     19913     19911     19914     19915     19913     19911     19914     19916
     19913     19911     19914     19917     19914     19917     19920     19921
     19914     19917     19920     19922     19914     19917     19920     19923
     19915     19914     19917     19918     19915     19914     19917     19919
     19915     19914     19917     19920     19916     19914     19917     19918
     19916     19914     19917     19919     19916     19914     19917     19920
     19918     19917     19920     19921     19918     19917     19920     19922
     19918     19917     19920     19923     19919     19917     19920     19921
     19919     19917     19920     19922     19919     19917     19920     19923
     19924     19927     19930     19931     19924     19927     19930     19932
     19924     19927     19930     19933     19925     19924     19927     19928
     19925     19924     19927     19929     19925     19924     19927     19930
     19926     19924     19927     19928     19926     19924     19927     19929
     19926     19924     19927     19930     19927     19930     19933     19934
     19927     19930     19933     19935     19927     19930     19933     19936
     19928     19927     19930     19931     19928     19927     19930     19932
     19928     19927     19930     19933     19929     19927     19930     19931
     19929     19927     19930     19932     19929     19927     19930     19933
     19930     19933     19936     19937     19930     19933     19936     19938
     19930     19933     19936     19939     19931     19930     19933     19934
     19931     19930     19933     19935     19931     19930     19933     19936
     19932     19930     19933     19934     19932     19930     19933     19935
     19932     19930     19933     19936     19933     19936     19939     19940
     19933     19936     19939     19941     19933     19936     19939     19942
     19934     19933     19936     19937     19934     19933     19936     19938
     19934     19933     19936     19939     19935     19933     19936     19937
     19935     19933     19936     19938     19935     19933     19936     19939
     19936     19939     19942     19943     19936     19939     19942     19944
     19936     19939     19942     19945     19937     19936     19939     19940
     19937     19936     19939     19941     19937     19936     19939     19942
     19938     19936     19939     19940     19938     19936     19939     19941
     19938     19936     19939     19942     19939     19942     19945     19946
     19939     19942     19945     19947     19939     19942     19945     19948
     19940     19939     19942     19943     19940     19939     19942     19944
     19940     19939     19942     19945     19941     19939     19942     19943
     19941     19939     19942     19944     19941     19939     19942     19945
     19942     19945     19948     19949     19942     19945     19948     19950
     19942     19945     19948     19951     19943     19942     19945     19946
     19943     19942     19945     19947     19943     19942     19945     19948
     19944     19942     19945     19946     19944     19942     19945     19947
     19944     19942     19945     19948     19945     19948     19951     19952
     19945     19948     19951     19953     19945     19948     19951     19954
     19946     19945     19948     19949     19946     19945     19948     19950
     19946     19945     19948     19951     19947     19945     19948     19949
     19947     19945     19948     19950     19947     19945     19948     19951
     19948     19951     19954     19955     19948     19951     19954     19956
     19948     19951     19954     19957     19949     19948     19951     19952
     19949     19948     19951     19953     19949     19948     19951     19954
     19950     19948     19951     19952     19950     19948     19951     19953
     19950     19948     19951     19954     19951     19954     19957     19958
     19951     19954     19957     19959     19951     19954     19957     19960
     19952     19951     19954     19955     19952     19951     19954     19956
     19952     19951     19954     19957     19953     19951     19954     19955
     19953     19951     19954     19956     19953     19951     19954     19957
     19954     19957     19960     19961     19954     19957     19960     19962
     19954     19957     19960     19963     19955     19954     19957     19958
     19955     19954     19957     19959     19955     19954     19957     19960
     19956     19954     19957     19958     19956     19954     19957     19959
     19956     19954     19957     19960     19957     19960     19963     19964
     19957     19960     19963     19965     19957     19960     19963     19966
     19958     19957     19960     19961     19958     19957     19960     19962
     19958     19957     19960     19963     19959     19957     19960     19961
     19959     19957     19960     19962     19959     19957     19960     19963
     19961     19960     19963     19964     19961     19960     19963     19965
     19961     19960     19963     19966     19962     19960     19963     19964
     19962     19960     19963     19965     19962     19960     19963     19966
     19967     19968     19983     19984     19967     19968     19983     19985
     19967     19968     19983     19989     19968     19967     19971     19972
     19968     19967     19971     19973     19968     19967     19971     19974
     19968     19967     19975     19976     19968     19967     19975     19977
     19968     19967     19975     19978     19968     19967     19979     19980
     19968     19967     19979     19981     19968     19967     19979     19982
     19968     19983     19989     19986     19969     19968     19967     19971
     19969     19968     19967     19975     19969     19968     19967     19979
     19969     19968     19983     19984     19969     19968     19983     19985
     19969     19968     19983     19989     19970     19968     19967     19971
     19970     19968     19967     19975     19970     19968     19967     19979
     19970     19968     19983     19984     19970     19968     19983     19985
     19970     19968     19983     19989     19971     19967     19968     19983
     19971     19967     19975     19976     19971     19967     19975     19977
     19971     19967     19975     19978     19971     19967     19979     19980
     19971     19967     19979     19981     19971     19967     19979     19982
     19972     19971     19967     19975     19972     19971     19967     19979
     19973     19971     19967     19975     19973     19971     19967     19979
     19974     19971     19967     19975     19974     19971     19967     19979
     19975     19967     19968     19983     19975     19967     19979     19980
     19975     19967     19979     19981     19975     19967     19979     19982
     19976     19975     19967     19979     19977     19975     19967     19979
     19978     19975     19967     19979     19979     19967     19968     19983
     19983     19989     19986     19987     19983     19989     19986     19988
     19983     19989     19986     19990     19984     19983     19989     19986
     19985     19983     19989     19986     19986     19990     19991     19992
     19986     19990     19991     19993     19986     19990     19991     19994
     19987     19986     19990     19991     19988     19986     19990     19991
     19989     19986     19990     19991     19990     19991     19994     19995
     19990     19991     19994     19996     19990     19991     19994     20002
     19991     19994     19996     19997     19991     19994     20002     20003
     19991     19994     20002     20004     19991     19994     20002     20005
     19992     19991     19994     19995     19992     19991     19994     19996
     19992     19991     19994     20002     19993     19991     19994     19995
     19993     19991     19994     19996     19993     19991     19994     20002
     19994     19996     19997     19998     19994     19996     19997     19999
     19994     20002     20005     20006     19995     19994     19996     19997
     19995     19994     20002     20003     19995     19994     20002     20004
     19995     19994     20002     20005     19996     19994     20002     20003
     19996     19994     20002     20004     19996     19994     20002     20005
     19996     19997     19999     20000     19996     19997     19999     20001
     19996     19997     19999     20011     19997     19996     19994     20002
     19997     19999     20011     20012     19997     19999     20011     20013
     19997     19999     20011     20014     19998     19997     19999     20000
     19998     19997     19999     20001     19998     19997     19999     20011
     19999     20011     20014     20015     19999     20011     20014     20016
     19999     20011     20014     20017     20000     19999     20011     20012
     20000     19999     20011     20013     20000     19999     20011     20014
     20001     19999     20011     20012     20001     19999     20011     20013
     20001     19999     20011     20014     20002     20005     20006     20007
     20002     20005     20006     20008     20003     20002     20005     20006
     20004     20002     20005     20006     20005     20006     20008     20009
     20005     20006     20008     20010     20005     20006     20008     20058
     20006     20008     20058     20059     20006     20008     20058     20060
     20006     20008     20058     20061     20007     20006     20008     20009
     20007     20006     20008     20010     20007     20006     20008     20058
     20008     20058     20061     20062     20008     20058     20061     20063
     20008     20058     20061     20064     20009     20008     20058     20059
     20009     20008     20058     20060     20009     20008     20058     20061
     20010     20008     20058     20059     20010     20008     20058     20060
     20010     20008     20058     20061     20011     20014     20017     20018
     20011     20014     20017     20019     20011     20014     20017     20020
     20012     20011     20014     20015     20012     20011     20014     20016
     20012     20011     20014     20017     20013     20011     20014     20015
     20013     20011     20014     20016     20013     20011     20014     20017
     20014     20017     20020     20021     20014     20017     20020     20022
     20014     20017     20020     20023     20015     20014     20017     20018
     20015     20014     20017     20019     20015     20014     20017     20020
     20016     20014     20017     20018     20016     20014     20017     20019
     20016     20014     20017     20020     20017     20020     20023     20024
     20017     20020     20023     20025     20017     20020     20023     20026
     20018     20017     20020     20021     20018     20017     20020     20022
     20018     20017     20020     20023     20019     20017     20020     20021
     20019     20017     20020     20022     20019     20017     20020     20023
     20020     20023     20026     20027     20020     20023     20026     20028
     20020     20023     20026     20029     20021     20020     20023     20024
     20021     20020     20023     20025     20021     20020     20023     20026
     20022     20020     20023     20024     20022     20020     20023     20025
     20022     20020     20023     20026     20023     20026     20029     20030
     20023     20026     20029     20031     20024     20023     20026     20027
     20024     20023     20026     20028     20024     20023     20026     20029
     20025     20023     20026     20027     20025     20023     20026     20028
     20025     20023     20026     20029     20026     20029     20031     20032
     20026     20029     20031     20033     20027     20026     20029     20030
     20027     20026     20029     20031     20028     20026     20029     20030
     20028     20026     20029     20031     20029     20031     20033     20034
     20029     20031     20033     20035     20029     20031     20033     20036
     20030     20029     20031     20032     20030     20029     20031     20033
     20031     20033     20036     20037     20031     20033     20036     20038
     20031     20033     20036     20039     20032     20031     20033     20034
     20032     20031     20033     20035     20032     20031     20033     20036
     20033     20036     20039     20040     20033     20036     20039     20041
     20033     20036     20039     20042     20034     20033     20036     20037
     20034     20033     20036     20038     20034     20033     20036     20039
     20035     20033     20036     20037     20035     20033     20036     20038
     20035     20033     20036     20039     20036     20039     20042     20043
     20036     20039     20042     20044     20036     20039     20042     20045
     20037     20036     20039     20040     20037     20036     20039     20041
     20037     20036     20039     20042     20038     20036     20039     20040
     20038     20036     20039     20041     20038     20036     20039     20042
     20039     20042     20045     20046     20039     20042     20045     20047
     20039     20042     20045     20048     20040     20039     20042     20043
     20040     20039     20042     20044     20040     20039     20042     20045
     20041     20039     20042     20043     20041     20039     20042     20044
     20041     20039     20042     20045     20042     20045     20048     20049
     20042     20045     20048     20050     20042     20045     20048     20051
     20043     20042     20045     20046     20043     20042     20045     20047
     20043     20042     20045     20048     20044     20042     20045     20046
     20044     20042     20045     20047     20044     20042     20045     20048
     20045     20048     20051     20052     20045     20048     20051     20053
     20045     20048     20051     20054     20046     20045     20048     20049
     20046     20045     20048     20050     20046     20045     20048     20051
     20047     20045     20048     20049     20047     20045     20048     20050
     20047     20045     20048     20051     20048     20051     20054     20055
     20048     20051     20054     20056     20048     20051     20054     20057
     20049     20048     20051     20052     20049     20048     20051     20053
     20049     20048     20051     20054     20050     20048     20051     20052
     20050     20048     20051     20053     20050     20048     20051     20054
     20052     20051     20054     20055     20052     20051     20054     20056
     20052     20051     20054     20057     20053     20051     20054     20055
     20053     20051     20054     20056     20053     20051     20054     20057
     20058     20061     20064     20065     20058     20061     20064     20066
     20058     20061     20064     20067     20059     20058     20061     20062
     20059     20058     20061     20063     20059     20058     20061     20064
     20060     20058     20061     20062     20060     20058     20061     20063
     20060     20058     20061     20064     20061     20064     20067     20068
     20061     20064     20067     20069     20061     20064     20067     20070
     20062     20061     20064     20065     20062     20061     20064     20066
     20062     20061     20064     20067     20063     20061     20064     20065
     20063     20061     20064     20066     20063     20061     20064     20067
     20064     20067     20070     20071     20064     20067     20070     20072
     20064     20067     20070     20073     20065     20064     20067     20068
     20065     20064     20067     20069     20065     20064     20067     20070
     20066     20064     20067     20068     20066     20064     20067     20069
     20066     20064     20067     20070     20067     20070     20073     20074
     20067     20070     20073     20075     20067     20070     20073     20076
     20068     20067     20070     20071     20068     20067     20070     20072
     20068     20067     20070     20073     20069     20067     20070     20071
     20069     20067     20070     20072     20069     20067     20070     20073
     20070     20073     20076     20077     20070     20073     20076     20078
     20070     20073     20076     20079     20071     20070     20073     20074
     20071     20070     20073     20075     20071     20070     20073     20076
     20072     20070     20073     20074     20072     20070     20073     20075
     20072     20070     20073     20076     20073     20076     20079     20080
     20073     20076     20079     20081     20073     20076     20079     20082
     20074     20073     20076     20077     20074     20073     20076     20078
     20074     20073     20076     20079     20075     20073     20076     20077
     20075     20073     20076     20078     20075     20073     20076     20079
     20076     20079     20082     20083     20076     20079     20082     20084
     20076     20079     20082     20085     20077     20076     20079     20080
     20077     20076     20079     20081     20077     20076     20079     20082
     20078     20076     20079     20080     20078     20076     20079     20081
     20078     20076     20079     20082     20079     20082     20085     20086
     20079     20082     20085     20087     20079     20082     20085     20088
     20080     20079     20082     20083     20080     20079     20082     20084
     20080     20079     20082     20085     20081     20079     20082     20083
     20081     20079     20082     20084     20081     20079     20082     20085
     20082     20085     20088     20089     20082     20085     20088     20090
     20082     20085     20088     20091     20083     20082     20085     20086
     20083     20082     20085     20087     20083     20082     20085     20088
     20084     20082     20085     20086     20084     20082     20085     20087
     20084     20082     20085     20088     20085     20088     20091     20092
     20085     20088     20091     20093     20085     20088     20091     20094
     20086     20085     20088     20089     20086     20085     20088     20090
     20086     20085     20088     20091     20087     20085     20088     20089
     20087     20085     20088     20090     20087     20085     20088     20091
     20088     20091     20094     20095     20088     20091     20094     20096
     20088     20091     20094     20097     20089     20088     20091     20092
     20089     20088     20091     20093     20089     20088     20091     20094
     20090     20088     20091     20092     20090     20088     20091     20093
     20090     20088     20091     20094     20091     20094     20097     20098
     20091     20094     20097     20099     20091     20094     20097     20100
     20092     20091     20094     20095     20092     20091     20094     20096
     20092     20091     20094     20097     20093     20091     20094     20095
     20093     20091     20094     20096     20093     20091     20094     20097
     20095     20094     20097     20098     20095     20094     20097     20099
     20095     20094     20097     20100     20096     20094     20097     20098
     20096     20094     20097     20099     20096     20094     20097     20100
     20101     20102     20117     20118     20101     20102     20117     20119
     20101     20102     20117     20123     20102     20101     20105     20106
     20102     20101     20105     20107     20102     20101     20105     20108
     20102     20101     20109     20110     20102     20101     20109     20111
     20102     20101     20109     20112     20102     20101     20113     20114
     20102     20101     20113     20115     20102     20101     20113     20116
     20102     20117     20123     20120     20103     20102     20101     20105
     20103     20102     20101     20109     20103     20102     20101     20113
     20103     20102     20117     20118     20103     20102     20117     20119
     20103     20102     20117     20123     20104     20102     20101     20105
     20104     20102     20101     20109     20104     20102     20101     20113
     20104     20102     20117     20118     20104     20102     20117     20119
     20104     20102     20117     20123     20105     20101     20102     20117
     20105     20101     20109     20110     20105     20101     20109     20111
     20105     20101     20109     20112     20105     20101     20113     20114
     20105     20101     20113     20115     20105     20101     20113     20116
     20106     20105     20101     20109     20106     20105     20101     20113
     20107     20105     20101     20109     20107     20105     20101     20113
     20108     20105     20101     20109     20108     20105     20101     20113
     20109     20101     20102     20117     20109     20101     20113     20114
     20109     20101     20113     20115     20109     20101     20113     20116
     20110     20109     20101     20113     20111     20109     20101     20113
     20112     20109     20101     20113     20113     20101     20102     20117
     20117     20123     20120     20121     20117     20123     20120     20122
     20117     20123     20120     20124     20118     20117     20123     20120
     20119     20117     20123     20120     20120     20124     20125     20126
     20120     20124     20125     20127     20120     20124     20125     20128
     20121     20120     20124     20125     20122     20120     20124     20125
     20123     20120     20124     20125     20124     20125     20128     20129
     20124     20125     20128     20130     20124     20125     20128     20136
     20125     20128     20130     20131     20125     20128     20136     20137
     20125     20128     20136     20138     20125     20128     20136     20139
     20126     20125     20128     20129     20126     20125     20128     20130
     20126     20125     20128     20136     20127     20125     20128     20129
     20127     20125     20128     20130     20127     20125     20128     20136
     20128     20130     20131     20132     20128     20130     20131     20133
     20128     20136     20139     20140     20129     20128     20130     20131
     20129     20128     20136     20137     20129     20128     20136     20138
     20129     20128     20136     20139     20130     20128     20136     20137
     20130     20128     20136     20138     20130     20128     20136     20139
     20130     20131     20133     20134     20130     20131     20133     20135
     20130     20131     20133     20145     20131     20130     20128     20136
     20131     20133     20145     20146     20131     20133     20145     20147
     20131     20133     20145     20148     20132     20131     20133     20134
     20132     20131     20133     20135     20132     20131     20133     20145
     20133     20145     20148     20149     20133     20145     20148     20150
     20133     20145     20148     20151     20134     20133     20145     20146
     20134     20133     20145     20147     20134     20133     20145     20148
     20135     20133     20145     20146     20135     20133     20145     20147
     20135     20133     20145     20148     20136     20139     20140     20141
     20136     20139     20140     20142     20137     20136     20139     20140
     20138     20136     20139     20140     20139     20140     20142     20143
     20139     20140     20142     20144     20139     20140     20142     20192
     20140     20142     20192     20193     20140     20142     20192     20194
     20140     20142     20192     20195     20141     20140     20142     20143
     20141     20140     20142     20144     20141     20140     20142     20192
     20142     20192     20195     20196     20142     20192     20195     20197
     20142     20192     20195     20198     20143     20142     20192     20193
     20143     20142     20192     20194     20143     20142     20192     20195
     20144     20142     20192     20193     20144     20142     20192     20194
     20144     20142     20192     20195     20145     20148     20151     20152
     20145     20148     20151     20153     20145     20148     20151     20154
     20146     20145     20148     20149     20146     20145     20148     20150
     20146     20145     20148     20151     20147     20145     20148     20149
     20147     20145     20148     20150     20147     20145     20148     20151
     20148     20151     20154     20155     20148     20151     20154     20156
     20148     20151     20154     20157     20149     20148     20151     20152
     20149     20148     20151     20153     20149     20148     20151     20154
     20150     20148     20151     20152     20150     20148     20151     20153
     20150     20148     20151     20154     20151     20154     20157     20158
     20151     20154     20157     20159     20151     20154     20157     20160
     20152     20151     20154     20155     20152     20151     20154     20156
     20152     20151     20154     20157     20153     20151     20154     20155
     20153     20151     20154     20156     20153     20151     20154     20157
     20154     20157     20160     20161     20154     20157     20160     20162
     20154     20157     20160     20163     20155     20154     20157     20158
     20155     20154     20157     20159     20155     20154     20157     20160
     20156     20154     20157     20158     20156     20154     20157     20159
     20156     20154     20157     20160     20157     20160     20163     20164
     20157     20160     20163     20165     20158     20157     20160     20161
     20158     20157     20160     20162     20158     20157     20160     20163
     20159     20157     20160     20161     20159     20157     20160     20162
     20159     20157     20160     20163     20160     20163     20165     20166
     20160     20163     20165     20167     20161     20160     20163     20164
     20161     20160     20163     20165     20162     20160     20163     20164
     20162     20160     20163     20165     20163     20165     20167     20168
     20163     20165     20167     20169     20163     20165     20167     20170
     20164     20163     20165     20166     20164     20163     20165     20167
     20165     20167     20170     20171     20165     20167     20170     20172
     20165     20167     20170     20173     20166     20165     20167     20168
     20166     20165     20167     20169     20166     20165     20167     20170
     20167     20170     20173     20174     20167     20170     20173     20175
     20167     20170     20173     20176     20168     20167     20170     20171
     20168     20167     20170     20172     20168     20167     20170     20173
     20169     20167     20170     20171     20169     20167     20170     20172
     20169     20167     20170     20173     20170     20173     20176     20177
     20170     20173     20176     20178     20170     20173     20176     20179
     20171     20170     20173     20174     20171     20170     20173     20175
     20171     20170     20173     20176     20172     20170     20173     20174
     20172     20170     20173     20175     20172     20170     20173     20176
     20173     20176     20179     20180     20173     20176     20179     20181
     20173     20176     20179     20182     20174     20173     20176     20177
     20174     20173     20176     20178     20174     20173     20176     20179
     20175     20173     20176     20177     20175     20173     20176     20178
     20175     20173     20176     20179     20176     20179     20182     20183
     20176     20179     20182     20184     20176     20179     20182     20185
     20177     20176     20179     20180     20177     20176     20179     20181
     20177     20176     20179     20182     20178     20176     20179     20180
     20178     20176     20179     20181     20178     20176     20179     20182
     20179     20182     20185     20186     20179     20182     20185     20187
     20179     20182     20185     20188     20180     20179     20182     20183
     20180     20179     20182     20184     20180     20179     20182     20185
     20181     20179     20182     20183     20181     20179     20182     20184
     20181     20179     20182     20185     20182     20185     20188     20189
     20182     20185     20188     20190     20182     20185     20188     20191
     20183     20182     20185     20186     20183     20182     20185     20187
     20183     20182     20185     20188     20184     20182     20185     20186
     20184     20182     20185     20187     20184     20182     20185     20188
     20186     20185     20188     20189     20186     20185     20188     20190
     20186     20185     20188     20191     20187     20185     20188     20189
     20187     20185     20188     20190     20187     20185     20188     20191
     20192     20195     20198     20199     20192     20195     20198     20200
     20192     20195     20198     20201     20193     20192     20195     20196
     20193     20192     20195     20197     20193     20192     20195     20198
     20194     20192     20195     20196     20194     20192     20195     20197
     20194     20192     20195     20198     20195     20198     20201     20202
     20195     20198     20201     20203     20195     20198     20201     20204
     20196     20195     20198     20199     20196     20195     20198     20200
     20196     20195     20198     20201     20197     20195     20198     20199
     20197     20195     20198     20200     20197     20195     20198     20201
     20198     20201     20204     20205     20198     20201     20204     20206
     20198     20201     20204     20207     20199     20198     20201     20202
     20199     20198     20201     20203     20199     20198     20201     20204
     20200     20198     20201     20202     20200     20198     20201     20203
     20200     20198     20201     20204     20201     20204     20207     20208
     20201     20204     20207     20209     20201     20204     20207     20210
     20202     20201     20204     20205     20202     20201     20204     20206
     20202     20201     20204     20207     20203     20201     20204     20205
     20203     20201     20204     20206     20203     20201     20204     20207
     20204     20207     20210     20211     20204     20207     20210     20212
     20204     20207     20210     20213     20205     20204     20207     20208
     20205     20204     20207     20209     20205     20204     20207     20210
     20206     20204     20207     20208     20206     20204     20207     20209
     20206     20204     20207     20210     20207     20210     20213     20214
     20207     20210     20213     20215     20207     20210     20213     20216
     20208     20207     20210     20211     20208     20207     20210     20212
     20208     20207     20210     20213     20209     20207     20210     20211
     20209     20207     20210     20212     20209     20207     20210     20213
     20210     20213     20216     20217     20210     20213     20216     20218
     20210     20213     20216     20219     20211     20210     20213     20214
     20211     20210     20213     20215     20211     20210     20213     20216
     20212     20210     20213     20214     20212     20210     20213     20215
     20212     20210     20213     20216     20213     20216     20219     20220
     20213     20216     20219     20221     20213     20216     20219     20222
     20214     20213     20216     20217     20214     20213     20216     20218
     20214     20213     20216     20219     20215     20213     20216     20217
     20215     20213     20216     20218     20215     20213     20216     20219
     20216     20219     20222     20223     20216     20219     20222     20224
     20216     20219     20222     20225     20217     20216     20219     20220
     20217     20216     20219     20221     20217     20216     20219     20222
     20218     20216     20219     20220     20218     20216     20219     20221
     20218     20216     20219     20222     20219     20222     20225     20226
     20219     20222     20225     20227     20219     20222     20225     20228
     20220     20219     20222     20223     20220     20219     20222     20224
     20220     20219     20222     20225     20221     20219     20222     20223
     20221     20219     20222     20224     20221     20219     20222     20225
     20222     20225     20228     20229     20222     20225     20228     20230
     20222     20225     20228     20231     20223     20222     20225     20226
     20223     20222     20225     20227     20223     20222     20225     20228
     20224     20222     20225     20226     20224     20222     20225     20227
     20224     20222     20225     20228     20225     20228     20231     20232
     20225     20228     20231     20233     20225     20228     20231     20234
     20226     20225     20228     20229     20226     20225     20228     20230
     20226     20225     20228     20231     20227     20225     20228     20229
     20227     20225     20228     20230     20227     20225     20228     20231
     20229     20228     20231     20232     20229     20228     20231     20233
     20229     20228     20231     20234     20230     20228     20231     20232
     20230     20228     20231     20233     20230     20228     20231     20234
     20235     20236     20251     20252     20235     20236     20251     20253
     20235     20236     20251     20257     20236     20235     20239     20240
     20236     20235     20239     20241     20236     20235     20239     20242
     20236     20235     20243     20244     20236     20235     20243     20245
     20236     20235     20243     20246     20236     20235     20247     20248
     20236     20235     20247     20249     20236     20235     20247     20250
     20236     20251     20257     20254     20237     20236     20235     20239
     20237     20236     20235     20243     20237     20236     20235     20247
     20237     20236     20251     20252     20237     20236     20251     20253
     20237     20236     20251     20257     20238     20236     20235     20239
     20238     20236     20235     20243     20238     20236     20235     20247
     20238     20236     20251     20252     20238     20236     20251     20253
     20238     20236     20251     20257     20239     20235     20236     20251
     20239     20235     20243     20244     20239     20235     20243     20245
     20239     20235     20243     20246     20239     20235     20247     20248
     20239     20235     20247     20249     20239     20235     20247     20250
     20240     20239     20235     20243     20240     20239     20235     20247
     20241     20239     20235     20243     20241     20239     20235     20247
     20242     20239     20235     20243     20242     20239     20235     20247
     20243     20235     20236     20251     20243     20235     20247     20248
     20243     20235     20247     20249     20243     20235     20247     20250
     20244     20243     20235     20247     20245     20243     20235     20247
     20246     20243     20235     20247     20247     20235     20236     20251
     20251     20257     20254     20255     20251     20257     20254     20256
     20251     20257     20254     20258     20252     20251     20257     20254
     20253     20251     20257     20254     20254     20258     20259     20260
     20254     20258     20259     20261     20254     20258     20259     20262
     20255     20254     20258     20259     20256     20254     20258     20259
     20257     20254     20258     20259     20258     20259     20262     20263
     20258     20259     20262     20264     20258     20259     20262     20270
     20259     20262     20264     20265     20259     20262     20270     20271
     20259     20262     20270     20272     20259     20262     20270     20273
     20260     20259     20262     20263     20260     20259     20262     20264
     20260     20259     20262     20270     20261     20259     20262     20263
     20261     20259     20262     20264     20261     20259     20262     20270
     20262     20264     20265     20266     20262     20264     20265     20267
     20262     20270     20273     20274     20263     20262     20264     20265
     20263     20262     20270     20271     20263     20262     20270     20272
     20263     20262     20270     20273     20264     20262     20270     20271
     20264     20262     20270     20272     20264     20262     20270     20273
     20264     20265     20267     20268     20264     20265     20267     20269
     20264     20265     20267     20279     20265     20264     20262     20270
     20265     20267     20279     20280     20265     20267     20279     20281
     20265     20267     20279     20282     20266     20265     20267     20268
     20266     20265     20267     20269     20266     20265     20267     20279
     20267     20279     20282     20283     20267     20279     20282     20284
     20267     20279     20282     20285     20268     20267     20279     20280
     20268     20267     20279     20281     20268     20267     20279     20282
     20269     20267     20279     20280     20269     20267     20279     20281
     20269     20267     20279     20282     20270     20273     20274     20275
     20270     20273     20274     20276     20271     20270     20273     20274
     20272     20270     20273     20274     20273     20274     20276     20277
     20273     20274     20276     20278     20273     20274     20276     20326
     20274     20276     20326     20327     20274     20276     20326     20328
     20274     20276     20326     20329     20275     20274     20276     20277
     20275     20274     20276     20278     20275     20274     20276     20326
     20276     20326     20329     20330     20276     20326     20329     20331
     20276     20326     20329     20332     20277     20276     20326     20327
     20277     20276     20326     20328     20277     20276     20326     20329
     20278     20276     20326     20327     20278     20276     20326     20328
     20278     20276     20326     20329     20279     20282     20285     20286
     20279     20282     20285     20287     20279     20282     20285     20288
     20280     20279     20282     20283     20280     20279     20282     20284
     20280     20279     20282     20285     20281     20279     20282     20283
     20281     20279     20282     20284     20281     20279     20282     20285
     20282     20285     20288     20289     20282     20285     20288     20290
     20282     20285     20288     20291     20283     20282     20285     20286
     20283     20282     20285     20287     20283     20282     20285     20288
     20284     20282     20285     20286     20284     20282     20285     20287
     20284     20282     20285     20288     20285     20288     20291     20292
     20285     20288     20291     20293     20285     20288     20291     20294
     20286     20285     20288     20289     20286     20285     20288     20290
     20286     20285     20288     20291     20287     20285     20288     20289
     20287     20285     20288     20290     20287     20285     20288     20291
     20288     20291     20294     20295     20288     20291     20294     20296
     20288     20291     20294     20297     20289     20288     20291     20292
     20289     20288     20291     20293     20289     20288     20291     20294
     20290     20288     20291     20292     20290     20288     20291     20293
     20290     20288     20291     20294     20291     20294     20297     20298
     20291     20294     20297     20299     20292     20291     20294     20295
     20292     20291     20294     20296     20292     20291     20294     20297
     20293     20291     20294     20295     20293     20291     20294     20296
     20293     20291     20294     20297     20294     20297     20299     20300
     20294     20297     20299     20301     20295     20294     20297     20298
     20295     20294     20297     20299     20296     20294     20297     20298
     20296     20294     20297     20299     20297     20299     20301     20302
     20297     20299     20301     20303     20297     20299     20301     20304
     20298     20297     20299     20300     20298     20297     20299     20301
     20299     20301     20304     20305     20299     20301     20304     20306
     20299     20301     20304     20307     20300     20299     20301     20302
     20300     20299     20301     20303     20300     20299     20301     20304
     20301     20304     20307     20308     20301     20304     20307     20309
     20301     20304     20307     20310     20302     20301     20304     20305
     20302     20301     20304     20306     20302     20301     20304     20307
     20303     20301     20304     20305     20303     20301     20304     20306
     20303     20301     20304     20307     20304     20307     20310     20311
     20304     20307     20310     20312     20304     20307     20310     20313
     20305     20304     20307     20308     20305     20304     20307     20309
     20305     20304     20307     20310     20306     20304     20307     20308
     20306     20304     20307     20309     20306     20304     20307     20310
     20307     20310     20313     20314     20307     20310     20313     20315
     20307     20310     20313     20316     20308     20307     20310     20311
     20308     20307     20310     20312     20308     20307     20310     20313
     20309     20307     20310     20311     20309     20307     20310     20312
     20309     20307     20310     20313     20310     20313     20316     20317
     20310     20313     20316     20318     20310     20313     20316     20319
     20311     20310     20313     20314     20311     20310     20313     20315
     20311     20310     20313     20316     20312     20310     20313     20314
     20312     20310     20313     20315     20312     20310     20313     20316
     20313     20316     20319     20320     20313     20316     20319     20321
     20313     20316     20319     20322     20314     20313     20316     20317
     20314     20313     20316     20318     20314     20313     20316     20319
     20315     20313     20316     20317     20315     20313     20316     20318
     20315     20313     20316     20319     20316     20319     20322     20323
     20316     20319     20322     20324     20316     20319     20322     20325
     20317     20316     20319     20320     20317     20316     20319     20321
     20317     20316     20319     20322     20318     20316     20319     20320
     20318     20316     20319     20321     20318     20316     20319     20322
     20320     20319     20322     20323     20320     20319     20322     20324
     20320     20319     20322     20325     20321     20319     20322     20323
     20321     20319     20322     20324     20321     20319     20322     20325
     20326     20329     20332     20333     20326     20329     20332     20334
     20326     20329     20332     20335     20327     20326     20329     20330
     20327     20326     20329     20331     20327     20326     20329     20332
     20328     20326     20329     20330     20328     20326     20329     20331
     20328     20326     20329     20332     20329     20332     20335     20336
     20329     20332     20335     20337     20329     20332     20335     20338
     20330     20329     20332     20333     20330     20329     20332     20334
     20330     20329     20332     20335     20331     20329     20332     20333
     20331     20329     20332     20334     20331     20329     20332     20335
     20332     20335     20338     20339     20332     20335     20338     20340
     20332     20335     20338     20341     20333     20332     20335     20336
     20333     20332     20335     20337     20333     20332     20335     20338
     20334     20332     20335     20336     20334     20332     20335     20337
     20334     20332     20335     20338     20335     20338     20341     20342
     20335     20338     20341     20343     20335     20338     20341     20344
     20336     20335     20338     20339     20336     20335     20338     20340
     20336     20335     20338     20341     20337     20335     20338     20339
     20337     20335     20338     20340     20337     20335     20338     20341
     20338     20341     20344     20345     20338     20341     20344     20346
     20338     20341     20344     20347     20339     20338     20341     20342
     20339     20338     20341     20343     20339     20338     20341     20344
     20340     20338     20341     20342     20340     20338     20341     20343
     20340     20338     20341     20344     20341     20344     20347     20348
     20341     20344     20347     20349     20341     20344     20347     20350
     20342     20341     20344     20345     20342     20341     20344     20346
     20342     20341     20344     20347     20343     20341     20344     20345
     20343     20341     20344     20346     20343     20341     20344     20347
     20344     20347     20350     20351     20344     20347     20350     20352
     20344     20347     20350     20353     20345     20344     20347     20348
     20345     20344     20347     20349     20345     20344     20347     20350
     20346     20344     20347     20348     20346     20344     20347     20349
     20346     20344     20347     20350     20347     20350     20353     20354
     20347     20350     20353     20355     20347     20350     20353     20356
     20348     20347     20350     20351     20348     20347     20350     20352
     20348     20347     20350     20353     20349     20347     20350     20351
     20349     20347     20350     20352     20349     20347     20350     20353
     20350     20353     20356     20357     20350     20353     20356     20358
     20350     20353     20356     20359     20351     20350     20353     20354
     20351     20350     20353     20355     20351     20350     20353     20356
     20352     20350     20353     20354     20352     20350     20353     20355
     20352     20350     20353     20356     20353     20356     20359     20360
     20353     20356     20359     20361     20353     20356     20359     20362
     20354     20353     20356     20357     20354     20353     20356     20358
     20354     20353     20356     20359     20355     20353     20356     20357
     20355     20353     20356     20358     20355     20353     20356     20359
     20356     20359     20362     20363     20356     20359     20362     20364
     20356     20359     20362     20365     20357     20356     20359     20360
     20357     20356     20359     20361     20357     20356     20359     20362
     20358     20356     20359     20360     20358     20356     20359     20361
     20358     20356     20359     20362     20359     20362     20365     20366
     20359     20362     20365     20367     20359     20362     20365     20368
     20360     20359     20362     20363     20360     20359     20362     20364
     20360     20359     20362     20365     20361     20359     20362     20363
     20361     20359     20362     20364     20361     20359     20362     20365
     20363     20362     20365     20366     20363     20362     20365     20367
     20363     20362     20365     20368     20364     20362     20365     20366
     20364     20362     20365     20367     20364     20362     20365     20368
     20369     20370     20385     20386     20369     20370     20385     20387
     20369     20370     20385     20391     20370     20369     20373     20374
     20370     20369     20373     20375     20370     20369     20373     20376
     20370     20369     20377     20378     20370     20369     20377     20379
     20370     20369     20377     20380     20370     20369     20381     20382
     20370     20369     20381     20383     20370     20369     20381     20384
     20370     20385     20391     20388     20371     20370     20369     20373
     20371     20370     20369     20377     20371     20370     20369     20381
     20371     20370     20385     20386     20371     20370     20385     20387
     20371     20370     20385     20391     20372     20370     20369     20373
     20372     20370     20369     20377     20372     20370     20369     20381
     20372     20370     20385     20386     20372     20370     20385     20387
     20372     20370     20385     20391     20373     20369     20370     20385
     20373     20369     20377     20378     20373     20369     20377     20379
     20373     20369     20377     20380     20373     20369     20381     20382
     20373     20369     20381     20383     20373     20369     20381     20384
     20374     20373     20369     20377     20374     20373     20369     20381
     20375     20373     20369     20377     20375     20373     20369     20381
     20376     20373     20369     20377     20376     20373     20369     20381
     20377     20369     20370     20385     20377     20369     20381     20382
     20377     20369     20381     20383     20377     20369     20381     20384
     20378     20377     20369     20381     20379     20377     20369     20381
     20380     20377     20369     20381     20381     20369     20370     20385
     20385     20391     20388     20389     20385     20391     20388     20390
     20385     20391     20388     20392     20386     20385     20391     20388
     20387     20385     20391     20388     20388     20392     20393     20394
     20388     20392     20393     20395     20388     20392     20393     20396
     20389     20388     20392     20393     20390     20388     20392     20393
     20391     20388     20392     20393     20392     20393     20396     20397
     20392     20393     20396     20398     20392     20393     20396     20404
     20393     20396     20398     20399     20393     20396     20404     20405
     20393     20396     20404     20406     20393     20396     20404     20407
     20394     20393     20396     20397     20394     20393     20396     20398
     20394     20393     20396     20404     20395     20393     20396     20397
     20395     20393     20396     20398     20395     20393     20396     20404
     20396     20398     20399     20400     20396     20398     20399     20401
     20396     20404     20407     20408     20397     20396     20398     20399
     20397     20396     20404     20405     20397     20396     20404     20406
     20397     20396     20404     20407     20398     20396     20404     20405
     20398     20396     20404     20406     20398     20396     20404     20407
     20398     20399     20401     20402     20398     20399     20401     20403
     20398     20399     20401     20413     20399     20398     20396     20404
     20399     20401     20413     20414     20399     20401     20413     20415
     20399     20401     20413     20416     20400     20399     20401     20402
     20400     20399     20401     20403     20400     20399     20401     20413
     20401     20413     20416     20417     20401     20413     20416     20418
     20401     20413     20416     20419     20402     20401     20413     20414
     20402     20401     20413     20415     20402     20401     20413     20416
     20403     20401     20413     20414     20403     20401     20413     20415
     20403     20401     20413     20416     20404     20407     20408     20409
     20404     20407     20408     20410     20405     20404     20407     20408
     20406     20404     20407     20408     20407     20408     20410     20411
     20407     20408     20410     20412     20407     20408     20410     20460
     20408     20410     20460     20461     20408     20410     20460     20462
     20408     20410     20460     20463     20409     20408     20410     20411
     20409     20408     20410     20412     20409     20408     20410     20460
     20410     20460     20463     20464     20410     20460     20463     20465
     20410     20460     20463     20466     20411     20410     20460     20461
     20411     20410     20460     20462     20411     20410     20460     20463
     20412     20410     20460     20461     20412     20410     20460     20462
     20412     20410     20460     20463     20413     20416     20419     20420
     20413     20416     20419     20421     20413     20416     20419     20422
     20414     20413     20416     20417     20414     20413     20416     20418
     20414     20413     20416     20419     20415     20413     20416     20417
     20415     20413     20416     20418     20415     20413     20416     20419
     20416     20419     20422     20423     20416     20419     20422     20424
     20416     20419     20422     20425     20417     20416     20419     20420
     20417     20416     20419     20421     20417     20416     20419     20422
     20418     20416     20419     20420     20418     20416     20419     20421
     20418     20416     20419     20422     20419     20422     20425     20426
     20419     20422     20425     20427     20419     20422     20425     20428
     20420     20419     20422     20423     20420     20419     20422     20424
     20420     20419     20422     20425     20421     20419     20422     20423
     20421     20419     20422     20424     20421     20419     20422     20425
     20422     20425     20428     20429     20422     20425     20428     20430
     20422     20425     20428     20431     20423     20422     20425     20426
     20423     20422     20425     20427     20423     20422     20425     20428
     20424     20422     20425     20426     20424     20422     20425     20427
     20424     20422     20425     20428     20425     20428     20431     20432
     20425     20428     20431     20433     20426     20425     20428     20429
     20426     20425     20428     20430     20426     20425     20428     20431
     20427     20425     20428     20429     20427     20425     20428     20430
     20427     20425     20428     20431     20428     20431     20433     20434
     20428     20431     20433     20435     20429     20428     20431     20432
     20429     20428     20431     20433     20430     20428     20431     20432
     20430     20428     20431     20433     20431     20433     20435     20436
     20431     20433     20435     20437     20431     20433     20435     20438
     20432     20431     20433     20434     20432     20431     20433     20435
     20433     20435     20438     20439     20433     20435     20438     20440
     20433     20435     20438     20441     20434     20433     20435     20436
     20434     20433     20435     20437     20434     20433     20435     20438
     20435     20438     20441     20442     20435     20438     20441     20443
     20435     20438     20441     20444     20436     20435     20438     20439
     20436     20435     20438     20440     20436     20435     20438     20441
     20437     20435     20438     20439     20437     20435     20438     20440
     20437     20435     20438     20441     20438     20441     20444     20445
     20438     20441     20444     20446     20438     20441     20444     20447
     20439     20438     20441     20442     20439     20438     20441     20443
     20439     20438     20441     20444     20440     20438     20441     20442
     20440     20438     20441     20443     20440     20438     20441     20444
     20441     20444     20447     20448     20441     20444     20447     20449
     20441     20444     20447     20450     20442     20441     20444     20445
     20442     20441     20444     20446     20442     20441     20444     20447
     20443     20441     20444     20445     20443     20441     20444     20446
     20443     20441     20444     20447     20444     20447     20450     20451
     20444     20447     20450     20452     20444     20447     20450     20453
     20445     20444     20447     20448     20445     20444     20447     20449
     20445     20444     20447     20450     20446     20444     20447     20448
     20446     20444     20447     20449     20446     20444     20447     20450
     20447     20450     20453     20454     20447     20450     20453     20455
     20447     20450     20453     20456     20448     20447     20450     20451
     20448     20447     20450     20452     20448     20447     20450     20453
     20449     20447     20450     20451     20449     20447     20450     20452
     20449     20447     20450     20453     20450     20453     20456     20457
     20450     20453     20456     20458     20450     20453     20456     20459
     20451     20450     20453     20454     20451     20450     20453     20455
     20451     20450     20453     20456     20452     20450     20453     20454
     20452     20450     20453     20455     20452     20450     20453     20456
     20454     20453     20456     20457     20454     20453     20456     20458
     20454     20453     20456     20459     20455     20453     20456     20457
     20455     20453     20456     20458     20455     20453     20456     20459
     20460     20463     20466     20467     20460     20463     20466     20468
     20460     20463     20466     20469     20461     20460     20463     20464
     20461     20460     20463     20465     20461     20460     20463     20466
     20462     20460     20463     20464     20462     20460     20463     20465
     20462     20460     20463     20466     20463     20466     20469     20470
     20463     20466     20469     20471     20463     20466     20469     20472
     20464     20463     20466     20467     20464     20463     20466     20468
     20464     20463     20466     20469     20465     20463     20466     20467
     20465     20463     20466     20468     20465     20463     20466     20469
     20466     20469     20472     20473     20466     20469     20472     20474
     20466     20469     20472     20475     20467     20466     20469     20470
     20467     20466     20469     20471     20467     20466     20469     20472
     20468     20466     20469     20470     20468     20466     20469     20471
     20468     20466     20469     20472     20469     20472     20475     20476
     20469     20472     20475     20477     20469     20472     20475     20478
     20470     20469     20472     20473     20470     20469     20472     20474
     20470     20469     20472     20475     20471     20469     20472     20473
     20471     20469     20472     20474     20471     20469     20472     20475
     20472     20475     20478     20479     20472     20475     20478     20480
     20472     20475     20478     20481     20473     20472     20475     20476
     20473     20472     20475     20477     20473     20472     20475     20478
     20474     20472     20475     20476     20474     20472     20475     20477
     20474     20472     20475     20478     20475     20478     20481     20482
     20475     20478     20481     20483     20475     20478     20481     20484
     20476     20475     20478     20479     20476     20475     20478     20480
     20476     20475     20478     20481     20477     20475     20478     20479
     20477     20475     20478     20480     20477     20475     20478     20481
     20478     20481     20484     20485     20478     20481     20484     20486
     20478     20481     20484     20487     20479     20478     20481     20482
     20479     20478     20481     20483     20479     20478     20481     20484
     20480     20478     20481     20482     20480     20478     20481     20483
     20480     20478     20481     20484     20481     20484     20487     20488
     20481     20484     20487     20489     20481     20484     20487     20490
     20482     20481     20484     20485     20482     20481     20484     20486
     20482     20481     20484     20487     20483     20481     20484     20485
     20483     20481     20484     20486     20483     20481     20484     20487
     20484     20487     20490     20491     20484     20487     20490     20492
     20484     20487     20490     20493     20485     20484     20487     20488
     20485     20484     20487     20489     20485     20484     20487     20490
     20486     20484     20487     20488     20486     20484     20487     20489
     20486     20484     20487     20490     20487     20490     20493     20494
     20487     20490     20493     20495     20487     20490     20493     20496
     20488     20487     20490     20491     20488     20487     20490     20492
     20488     20487     20490     20493     20489     20487     20490     20491
     20489     20487     20490     20492     20489     20487     20490     20493
     20490     20493     20496     20497     20490     20493     20496     20498
     20490     20493     20496     20499     20491     20490     20493     20494
     20491     20490     20493     20495     20491     20490     20493     20496
     20492     20490     20493     20494     20492     20490     20493     20495
     20492     20490     20493     20496     20493     20496     20499     20500
     20493     20496     20499     20501     20493     20496     20499     20502
     20494     20493     20496     20497     20494     20493     20496     20498
     20494     20493     20496     20499     20495     20493     20496     20497
     20495     20493     20496     20498     20495     20493     20496     20499
     20497     20496     20499     20500     20497     20496     20499     20501
     20497     20496     20499     20502     20498     20496     20499     20500
     20498     20496     20499     20501     20498     20496     20499     20502
     20503     20504     20519     20520     20503     20504     20519     20521
     20503     20504     20519     20525     20504     20503     20507     20508
     20504     20503     20507     20509     20504     20503     20507     20510
     20504     20503     20511     20512     20504     20503     20511     20513
     20504     20503     20511     20514     20504     20503     20515     20516
     20504     20503     20515     20517     20504     20503     20515     20518
     20504     20519     20525     20522     20505     20504     20503     20507
     20505     20504     20503     20511     20505     20504     20503     20515
     20505     20504     20519     20520     20505     20504     20519     20521
     20505     20504     20519     20525     20506     20504     20503     20507
     20506     20504     20503     20511     20506     20504     20503     20515
     20506     20504     20519     20520     20506     20504     20519     20521
     20506     20504     20519     20525     20507     20503     20504     20519
     20507     20503     20511     20512     20507     20503     20511     20513
     20507     20503     20511     20514     20507     20503     20515     20516
     20507     20503     20515     20517     20507     20503     20515     20518
     20508     20507     20503     20511     20508     20507     20503     20515
     20509     20507     20503     20511     20509     20507     20503     20515
     20510     20507     20503     20511     20510     20507     20503     20515
     20511     20503     20504     20519     20511     20503     20515     20516
     20511     20503     20515     20517     20511     20503     20515     20518
     20512     20511     20503     20515     20513     20511     20503     20515
     20514     20511     20503     20515     20515     20503     20504     20519
     20519     20525     20522     20523     20519     20525     20522     20524
     20519     20525     20522     20526     20520     20519     20525     20522
     20521     20519     20525     20522     20522     20526     20527     20528
     20522     20526     20527     20529     20522     20526     20527     20530
     20523     20522     20526     20527     20524     20522     20526     20527
     20525     20522     20526     20527     20526     20527     20530     20531
     20526     20527     20530     20532     20526     20527     20530     20538
     20527     20530     20532     20533     20527     20530     20538     20539
     20527     20530     20538     20540     20527     20530     20538     20541
     20528     20527     20530     20531     20528     20527     20530     20532
     20528     20527     20530     20538     20529     20527     20530     20531
     20529     20527     20530     20532     20529     20527     20530     20538
     20530     20532     20533     20534     20530     20532     20533     20535
     20530     20538     20541     20542     20531     20530     20532     20533
     20531     20530     20538     20539     20531     20530     20538     20540
     20531     20530     20538     20541     20532     20530     20538     20539
     20532     20530     20538     20540     20532     20530     20538     20541
     20532     20533     20535     20536     20532     20533     20535     20537
     20532     20533     20535     20547     20533     20532     20530     20538
     20533     20535     20547     20548     20533     20535     20547     20549
     20533     20535     20547     20550     20534     20533     20535     20536
     20534     20533     20535     20537     20534     20533     20535     20547
     20535     20547     20550     20551     20535     20547     20550     20552
     20535     20547     20550     20553     20536     20535     20547     20548
     20536     20535     20547     20549     20536     20535     20547     20550
     20537     20535     20547     20548     20537     20535     20547     20549
     20537     20535     20547     20550     20538     20541     20542     20543
     20538     20541     20542     20544     20539     20538     20541     20542
     20540     20538     20541     20542     20541     20542     20544     20545
     20541     20542     20544     20546     20541     20542     20544     20594
     20542     20544     20594     20595     20542     20544     20594     20596
     20542     20544     20594     20597     20543     20542     20544     20545
     20543     20542     20544     20546     20543     20542     20544     20594
     20544     20594     20597     20598     20544     20594     20597     20599
     20544     20594     20597     20600     20545     20544     20594     20595
     20545     20544     20594     20596     20545     20544     20594     20597
     20546     20544     20594     20595     20546     20544     20594     20596
     20546     20544     20594     20597     20547     20550     20553     20554
     20547     20550     20553     20555     20547     20550     20553     20556
     20548     20547     20550     20551     20548     20547     20550     20552
     20548     20547     20550     20553     20549     20547     20550     20551
     20549     20547     20550     20552     20549     20547     20550     20553
     20550     20553     20556     20557     20550     20553     20556     20558
     20550     20553     20556     20559     20551     20550     20553     20554
     20551     20550     20553     20555     20551     20550     20553     20556
     20552     20550     20553     20554     20552     20550     20553     20555
     20552     20550     20553     20556     20553     20556     20559     20560
     20553     20556     20559     20561     20553     20556     20559     20562
     20554     20553     20556     20557     20554     20553     20556     20558
     20554     20553     20556     20559     20555     20553     20556     20557
     20555     20553     20556     20558     20555     20553     20556     20559
     20556     20559     20562     20563     20556     20559     20562     20564
     20556     20559     20562     20565     20557     20556     20559     20560
     20557     20556     20559     20561     20557     20556     20559     20562
     20558     20556     20559     20560     20558     20556     20559     20561
     20558     20556     20559     20562     20559     20562     20565     20566
     20559     20562     20565     20567     20560     20559     20562     20563
     20560     20559     20562     20564     20560     20559     20562     20565
     20561     20559     20562     20563     20561     20559     20562     20564
     20561     20559     20562     20565     20562     20565     20567     20568
     20562     20565     20567     20569     20563     20562     20565     20566
     20563     20562     20565     20567     20564     20562     20565     20566
     20564     20562     20565     20567     20565     20567     20569     20570
     20565     20567     20569     20571     20565     20567     20569     20572
     20566     20565     20567     20568     20566     20565     20567     20569
     20567     20569     20572     20573     20567     20569     20572     20574
     20567     20569     20572     20575     20568     20567     20569     20570
     20568     20567     20569     20571     20568     20567     20569     20572
     20569     20572     20575     20576     20569     20572     20575     20577
     20569     20572     20575     20578     20570     20569     20572     20573
     20570     20569     20572     20574     20570     20569     20572     20575
     20571     20569     20572     20573     20571     20569     20572     20574
     20571     20569     20572     20575     20572     20575     20578     20579
     20572     20575     20578     20580     20572     20575     20578     20581
     20573     20572     20575     20576     20573     20572     20575     20577
     20573     20572     20575     20578     20574     20572     20575     20576
     20574     20572     20575     20577     20574     20572     20575     20578
     20575     20578     20581     20582     20575     20578     20581     20583
     20575     20578     20581     20584     20576     20575     20578     20579
     20576     20575     20578     20580     20576     20575     20578     20581
     20577     20575     20578     20579     20577     20575     20578     20580
     20577     20575     20578     20581     20578     20581     20584     20585
     20578     20581     20584     20586     20578     20581     20584     20587
     20579     20578     20581     20582     20579     20578     20581     20583
     20579     20578     20581     20584     20580     20578     20581     20582
     20580     20578     20581     20583     20580     20578     20581     20584
     20581     20584     20587     20588     20581     20584     20587     20589
     20581     20584     20587     20590     20582     20581     20584     20585
     20582     20581     20584     20586     20582     20581     20584     20587
     20583     20581     20584     20585     20583     20581     20584     20586
     20583     20581     20584     20587     20584     20587     20590     20591
     20584     20587     20590     20592     20584     20587     20590     20593
     20585     20584     20587     20588     20585     20584     20587     20589
     20585     20584     20587     20590     20586     20584     20587     20588
     20586     20584     20587     20589     20586     20584     20587     20590
     20588     20587     20590     20591     20588     20587     20590     20592
     20588     20587     20590     20593     20589     20587     20590     20591
     20589     20587     20590     20592     20589     20587     20590     20593
     20594     20597     20600     20601     20594     20597     20600     20602
     20594     20597     20600     20603     20595     20594     20597     20598
     20595     20594     20597     20599     20595     20594     20597     20600
     20596     20594     20597     20598     20596     20594     20597     20599
     20596     20594     20597     20600     20597     20600     20603     20604
     20597     20600     20603     20605     20597     20600     20603     20606
     20598     20597     20600     20601     20598     20597     20600     20602
     20598     20597     20600     20603     20599     20597     20600     20601
     20599     20597     20600     20602     20599     20597     20600     20603
     20600     20603     20606     20607     20600     20603     20606     20608
     20600     20603     20606     20609     20601     20600     20603     20604
     20601     20600     20603     20605     20601     20600     20603     20606
     20602     20600     20603     20604     20602     20600     20603     20605
     20602     20600     20603     20606     20603     20606     20609     20610
     20603     20606     20609     20611     20603     20606     20609     20612
     20604     20603     20606     20607     20604     20603     20606     20608
     20604     20603     20606     20609     20605     20603     20606     20607
     20605     20603     20606     20608     20605     20603     20606     20609
     20606     20609     20612     20613     20606     20609     20612     20614
     20606     20609     20612     20615     20607     20606     20609     20610
     20607     20606     20609     20611     20607     20606     20609     20612
     20608     20606     20609     20610     20608     20606     20609     20611
     20608     20606     20609     20612     20609     20612     20615     20616
     20609     20612     20615     20617     20609     20612     20615     20618
     20610     20609     20612     20613     20610     20609     20612     20614
     20610     20609     20612     20615     20611     20609     20612     20613
     20611     20609     20612     20614     20611     20609     20612     20615
     20612     20615     20618     20619     20612     20615     20618     20620
     20612     20615     20618     20621     20613     20612     20615     20616
     20613     20612     20615     20617     20613     20612     20615     20618
     20614     20612     20615     20616     20614     20612     20615     20617
     20614     20612     20615     20618     20615     20618     20621     20622
     20615     20618     20621     20623     20615     20618     20621     20624
     20616     20615     20618     20619     20616     20615     20618     20620
     20616     20615     20618     20621     20617     20615     20618     20619
     20617     20615     20618     20620     20617     20615     20618     20621
     20618     20621     20624     20625     20618     20621     20624     20626
     20618     20621     20624     20627     20619     20618     20621     20622
     20619     20618     20621     20623     20619     20618     20621     20624
     20620     20618     20621     20622     20620     20618     20621     20623
     20620     20618     20621     20624     20621     20624     20627     20628
     20621     20624     20627     20629     20621     20624     20627     20630
     20622     20621     20624     20625     20622     20621     20624     20626
     20622     20621     20624     20627     20623     20621     20624     20625
     20623     20621     20624     20626     20623     20621     20624     20627
     20624     20627     20630     20631     20624     20627     20630     20632
     20624     20627     20630     20633     20625     20624     20627     20628
     20625     20624     20627     20629     20625     20624     20627     20630
     20626     20624     20627     20628     20626     20624     20627     20629
     20626     20624     20627     20630     20627     20630     20633     20634
     20627     20630     20633     20635     20627     20630     20633     20636
     20628     20627     20630     20631     20628     20627     20630     20632
     20628     20627     20630     20633     20629     20627     20630     20631
     20629     20627     20630     20632     20629     20627     20630     20633
     20631     20630     20633     20634     20631     20630     20633     20635
     20631     20630     20633     20636     20632     20630     20633     20634
     20632     20630     20633     20635     20632     20630     20633     20636
     20637     20638     20653     20654     20637     20638     20653     20655
     20637     20638     20653     20659     20638     20637     20641     20642
     20638     20637     20641     20643     20638     20637     20641     20644
     20638     20637     20645     20646     20638     20637     20645     20647
     20638     20637     20645     20648     20638     20637     20649     20650
     20638     20637     20649     20651     20638     20637     20649     20652
     20638     20653     20659     20656     20639     20638     20637     20641
     20639     20638     20637     20645     20639     20638     20637     20649
     20639     20638     20653     20654     20639     20638     20653     20655
     20639     20638     20653     20659     20640     20638     20637     20641
     20640     20638     20637     20645     20640     20638     20637     20649
     20640     20638     20653     20654     20640     20638     20653     20655
     20640     20638     20653     20659     20641     20637     20638     20653
     20641     20637     20645     20646     20641     20637     20645     20647
     20641     20637     20645     20648     20641     20637     20649     20650
     20641     20637     20649     20651     20641     20637     20649     20652
     20642     20641     20637     20645     20642     20641     20637     20649
     20643     20641     20637     20645     20643     20641     20637     20649
     20644     20641     20637     20645     20644     20641     20637     20649
     20645     20637     20638     20653     20645     20637     20649     20650
     20645     20637     20649     20651     20645     20637     20649     20652
     20646     20645     20637     20649     20647     20645     20637     20649
     20648     20645     20637     20649     20649     20637     20638     20653
     20653     20659     20656     20657     20653     20659     20656     20658
     20653     20659     20656     20660     20654     20653     20659     20656
     20655     20653     20659     20656     20656     20660     20661     20662
     20656     20660     20661     20663     20656     20660     20661     20664
     20657     20656     20660     20661     20658     20656     20660     20661
     20659     20656     20660     20661     20660     20661     20664     20665
     20660     20661     20664     20666     20660     20661     20664     20672
     20661     20664     20666     20667     20661     20664     20672     20673
     20661     20664     20672     20674     20661     20664     20672     20675
     20662     20661     20664     20665     20662     20661     20664     20666
     20662     20661     20664     20672     20663     20661     20664     20665
     20663     20661     20664     20666     20663     20661     20664     20672
     20664     20666     20667     20668     20664     20666     20667     20669
     20664     20672     20675     20676     20665     20664     20666     20667
     20665     20664     20672     20673     20665     20664     20672     20674
     20665     20664     20672     20675     20666     20664     20672     20673
     20666     20664     20672     20674     20666     20664     20672     20675
     20666     20667     20669     20670     20666     20667     20669     20671
     20666     20667     20669     20681     20667     20666     20664     20672
     20667     20669     20681     20682     20667     20669     20681     20683
     20667     20669     20681     20684     20668     20667     20669     20670
     20668     20667     20669     20671     20668     20667     20669     20681
     20669     20681     20684     20685     20669     20681     20684     20686
     20669     20681     20684     20687     20670     20669     20681     20682
     20670     20669     20681     20683     20670     20669     20681     20684
     20671     20669     20681     20682     20671     20669     20681     20683
     20671     20669     20681     20684     20672     20675     20676     20677
     20672     20675     20676     20678     20673     20672     20675     20676
     20674     20672     20675     20676     20675     20676     20678     20679
     20675     20676     20678     20680     20675     20676     20678     20728
     20676     20678     20728     20729     20676     20678     20728     20730
     20676     20678     20728     20731     20677     20676     20678     20679
     20677     20676     20678     20680     20677     20676     20678     20728
     20678     20728     20731     20732     20678     20728     20731     20733
     20678     20728     20731     20734     20679     20678     20728     20729
     20679     20678     20728     20730     20679     20678     20728     20731
     20680     20678     20728     20729     20680     20678     20728     20730
     20680     20678     20728     20731     20681     20684     20687     20688
     20681     20684     20687     20689     20681     20684     20687     20690
     20682     20681     20684     20685     20682     20681     20684     20686
     20682     20681     20684     20687     20683     20681     20684     20685
     20683     20681     20684     20686     20683     20681     20684     20687
     20684     20687     20690     20691     20684     20687     20690     20692
     20684     20687     20690     20693     20685     20684     20687     20688
     20685     20684     20687     20689     20685     20684     20687     20690
     20686     20684     20687     20688     20686     20684     20687     20689
     20686     20684     20687     20690     20687     20690     20693     20694
     20687     20690     20693     20695     20687     20690     20693     20696
     20688     20687     20690     20691     20688     20687     20690     20692
     20688     20687     20690     20693     20689     20687     20690     20691
     20689     20687     20690     20692     20689     20687     20690     20693
     20690     20693     20696     20697     20690     20693     20696     20698
     20690     20693     20696     20699     20691     20690     20693     20694
     20691     20690     20693     20695     20691     20690     20693     20696
     20692     20690     20693     20694     20692     20690     20693     20695
     20692     20690     20693     20696     20693     20696     20699     20700
     20693     20696     20699     20701     20694     20693     20696     20697
     20694     20693     20696     20698     20694     20693     20696     20699
     20695     20693     20696     20697     20695     20693     20696     20698
     20695     20693     20696     20699     20696     20699     20701     20702
     20696     20699     20701     20703     20697     20696     20699     20700
     20697     20696     20699     20701     20698     20696     20699     20700
     20698     20696     20699     20701     20699     20701     20703     20704
     20699     20701     20703     20705     20699     20701     20703     20706
     20700     20699     20701     20702     20700     20699     20701     20703
     20701     20703     20706     20707     20701     20703     20706     20708
     20701     20703     20706     20709     20702     20701     20703     20704
     20702     20701     20703     20705     20702     20701     20703     20706
     20703     20706     20709     20710     20703     20706     20709     20711
     20703     20706     20709     20712     20704     20703     20706     20707
     20704     20703     20706     20708     20704     20703     20706     20709
     20705     20703     20706     20707     20705     20703     20706     20708
     20705     20703     20706     20709     20706     20709     20712     20713
     20706     20709     20712     20714     20706     20709     20712     20715
     20707     20706     20709     20710     20707     20706     20709     20711
     20707     20706     20709     20712     20708     20706     20709     20710
     20708     20706     20709     20711     20708     20706     20709     20712
     20709     20712     20715     20716     20709     20712     20715     20717
     20709     20712     20715     20718     20710     20709     20712     20713
     20710     20709     20712     20714     20710     20709     20712     20715
     20711     20709     20712     20713     20711     20709     20712     20714
     20711     20709     20712     20715     20712     20715     20718     20719
     20712     20715     20718     20720     20712     20715     20718     20721
     20713     20712     20715     20716     20713     20712     20715     20717
     20713     20712     20715     20718     20714     20712     20715     20716
     20714     20712     20715     20717     20714     20712     20715     20718
     20715     20718     20721     20722     20715     20718     20721     20723
     20715     20718     20721     20724     20716     20715     20718     20719
     20716     20715     20718     20720     20716     20715     20718     20721
     20717     20715     20718     20719     20717     20715     20718     20720
     20717     20715     20718     20721     20718     20721     20724     20725
     20718     20721     20724     20726     20718     20721     20724     20727
     20719     20718     20721     20722     20719     20718     20721     20723
     20719     20718     20721     20724     20720     20718     20721     20722
     20720     20718     20721     20723     20720     20718     20721     20724
     20722     20721     20724     20725     20722     20721     20724     20726
     20722     20721     20724     20727     20723     20721     20724     20725
     20723     20721     20724     20726     20723     20721     20724     20727
     20728     20731     20734     20735     20728     20731     20734     20736
     20728     20731     20734     20737     20729     20728     20731     20732
     20729     20728     20731     20733     20729     20728     20731     20734
     20730     20728     20731     20732     20730     20728     20731     20733
     20730     20728     20731     20734     20731     20734     20737     20738
     20731     20734     20737     20739     20731     20734     20737     20740
     20732     20731     20734     20735     20732     20731     20734     20736
     20732     20731     20734     20737     20733     20731     20734     20735
     20733     20731     20734     20736     20733     20731     20734     20737
     20734     20737     20740     20741     20734     20737     20740     20742
     20734     20737     20740     20743     20735     20734     20737     20738
     20735     20734     20737     20739     20735     20734     20737     20740
     20736     20734     20737     20738     20736     20734     20737     20739
     20736     20734     20737     20740     20737     20740     20743     20744
     20737     20740     20743     20745     20737     20740     20743     20746
     20738     20737     20740     20741     20738     20737     20740     20742
     20738     20737     20740     20743     20739     20737     20740     20741
     20739     20737     20740     20742     20739     20737     20740     20743
     20740     20743     20746     20747     20740     20743     20746     20748
     20740     20743     20746     20749     20741     20740     20743     20744
     20741     20740     20743     20745     20741     20740     20743     20746
     20742     20740     20743     20744     20742     20740     20743     20745
     20742     20740     20743     20746     20743     20746     20749     20750
     20743     20746     20749     20751     20743     20746     20749     20752
     20744     20743     20746     20747     20744     20743     20746     20748
     20744     20743     20746     20749     20745     20743     20746     20747
     20745     20743     20746     20748     20745     20743     20746     20749
     20746     20749     20752     20753     20746     20749     20752     20754
     20746     20749     20752     20755     20747     20746     20749     20750
     20747     20746     20749     20751     20747     20746     20749     20752
     20748     20746     20749     20750     20748     20746     20749     20751
     20748     20746     20749     20752     20749     20752     20755     20756
     20749     20752     20755     20757     20749     20752     20755     20758
     20750     20749     20752     20753     20750     20749     20752     20754
     20750     20749     20752     20755     20751     20749     20752     20753
     20751     20749     20752     20754     20751     20749     20752     20755
     20752     20755     20758     20759     20752     20755     20758     20760
     20752     20755     20758     20761     20753     20752     20755     20756
     20753     20752     20755     20757     20753     20752     20755     20758
     20754     20752     20755     20756     20754     20752     20755     20757
     20754     20752     20755     20758     20755     20758     20761     20762
     20755     20758     20761     20763     20755     20758     20761     20764
     20756     20755     20758     20759     20756     20755     20758     20760
     20756     20755     20758     20761     20757     20755     20758     20759
     20757     20755     20758     20760     20757     20755     20758     20761
     20758     20761     20764     20765     20758     20761     20764     20766
     20758     20761     20764     20767     20759     20758     20761     20762
     20759     20758     20761     20763     20759     20758     20761     20764
     20760     20758     20761     20762     20760     20758     20761     20763
     20760     20758     20761     20764     20761     20764     20767     20768
     20761     20764     20767     20769     20761     20764     20767     20770
     20762     20761     20764     20765     20762     20761     20764     20766
     20762     20761     20764     20767     20763     20761     20764     20765
     20763     20761     20764     20766     20763     20761     20764     20767
     20765     20764     20767     20768     20765     20764     20767     20769
     20765     20764     20767     20770     20766     20764     20767     20768
     20766     20764     20767     20769     20766     20764     20767     20770
     20771     20772     20787     20788     20771     20772     20787     20789
     20771     20772     20787     20793     20772     20771     20775     20776
     20772     20771     20775     20777     20772     20771     20775     20778
     20772     20771     20779     20780     20772     20771     20779     20781
     20772     20771     20779     20782     20772     20771     20783     20784
     20772     20771     20783     20785     20772     20771     20783     20786
     20772     20787     20793     20790     20773     20772     20771     20775
     20773     20772     20771     20779     20773     20772     20771     20783
     20773     20772     20787     20788     20773     20772     20787     20789
     20773     20772     20787     20793     20774     20772     20771     20775
     20774     20772     20771     20779     20774     20772     20771     20783
     20774     20772     20787     20788     20774     20772     20787     20789
     20774     20772     20787     20793     20775     20771     20772     20787
     20775     20771     20779     20780     20775     20771     20779     20781
     20775     20771     20779     20782     20775     20771     20783     20784
     20775     20771     20783     20785     20775     20771     20783     20786
     20776     20775     20771     20779     20776     20775     20771     20783
     20777     20775     20771     20779     20777     20775     20771     20783
     20778     20775     20771     20779     20778     20775     20771     20783
     20779     20771     20772     20787     20779     20771     20783     20784
     20779     20771     20783     20785     20779     20771     20783     20786
     20780     20779     20771     20783     20781     20779     20771     20783
     20782     20779     20771     20783     20783     20771     20772     20787
     20787     20793     20790     20791     20787     20793     20790     20792
     20787     20793     20790     20794     20788     20787     20793     20790
     20789     20787     20793     20790     20790     20794     20795     20796
     20790     20794     20795     20797     20790     20794     20795     20798
     20791     20790     20794     20795     20792     20790     20794     20795
     20793     20790     20794     20795     20794     20795     20798     20799
     20794     20795     20798     20800     20794     20795     20798     20806
     20795     20798     20800     20801     20795     20798     20806     20807
     20795     20798     20806     20808     20795     20798     20806     20809
     20796     20795     20798     20799     20796     20795     20798     20800
     20796     20795     20798     20806     20797     20795     20798     20799
     20797     20795     20798     20800     20797     20795     20798     20806
     20798     20800     20801     20802     20798     20800     20801     20803
     20798     20806     20809     20810     20799     20798     20800     20801
     20799     20798     20806     20807     20799     20798     20806     20808
     20799     20798     20806     20809     20800     20798     20806     20807
     20800     20798     20806     20808     20800     20798     20806     20809
     20800     20801     20803     20804     20800     20801     20803     20805
     20800     20801     20803     20815     20801     20800     20798     20806
     20801     20803     20815     20816     20801     20803     20815     20817
     20801     20803     20815     20818     20802     20801     20803     20804
     20802     20801     20803     20805     20802     20801     20803     20815
     20803     20815     20818     20819     20803     20815     20818     20820
     20803     20815     20818     20821     20804     20803     20815     20816
     20804     20803     20815     20817     20804     20803     20815     20818
     20805     20803     20815     20816     20805     20803     20815     20817
     20805     20803     20815     20818     20806     20809     20810     20811
     20806     20809     20810     20812     20807     20806     20809     20810
     20808     20806     20809     20810     20809     20810     20812     20813
     20809     20810     20812     20814     20809     20810     20812     20862
     20810     20812     20862     20863     20810     20812     20862     20864
     20810     20812     20862     20865     20811     20810     20812     20813
     20811     20810     20812     20814     20811     20810     20812     20862
     20812     20862     20865     20866     20812     20862     20865     20867
     20812     20862     20865     20868     20813     20812     20862     20863
     20813     20812     20862     20864     20813     20812     20862     20865
     20814     20812     20862     20863     20814     20812     20862     20864
     20814     20812     20862     20865     20815     20818     20821     20822
     20815     20818     20821     20823     20815     20818     20821     20824
     20816     20815     20818     20819     20816     20815     20818     20820
     20816     20815     20818     20821     20817     20815     20818     20819
     20817     20815     20818     20820     20817     20815     20818     20821
     20818     20821     20824     20825     20818     20821     20824     20826
     20818     20821     20824     20827     20819     20818     20821     20822
     20819     20818     20821     20823     20819     20818     20821     20824
     20820     20818     20821     20822     20820     20818     20821     20823
     20820     20818     20821     20824     20821     20824     20827     20828
     20821     20824     20827     20829     20821     20824     20827     20830
     20822     20821     20824     20825     20822     20821     20824     20826
     20822     20821     20824     20827     20823     20821     20824     20825
     20823     20821     20824     20826     20823     20821     20824     20827
     20824     20827     20830     20831     20824     20827     20830     20832
     20824     20827     20830     20833     20825     20824     20827     20828
     20825     20824     20827     20829     20825     20824     20827     20830
     20826     20824     20827     20828     20826     20824     20827     20829
     20826     20824     20827     20830     20827     20830     20833     20834
     20827     20830     20833     20835     20828     20827     20830     20831
     20828     20827     20830     20832     20828     20827     20830     20833
     20829     20827     20830     20831     20829     20827     20830     20832
     20829     20827     20830     20833     20830     20833     20835     20836
     20830     20833     20835     20837     20831     20830     20833     20834
     20831     20830     20833     20835     20832     20830     20833     20834
     20832     20830     20833     20835     20833     20835     20837     20838
     20833     20835     20837     20839     20833     20835     20837     20840
     20834     20833     20835     20836     20834     20833     20835     20837
     20835     20837     20840     20841     20835     20837     20840     20842
     20835     20837     20840     20843     20836     20835     20837     20838
     20836     20835     20837     20839     20836     20835     20837     20840
     20837     20840     20843     20844     20837     20840     20843     20845
     20837     20840     20843     20846     20838     20837     20840     20841
     20838     20837     20840     20842     20838     20837     20840     20843
     20839     20837     20840     20841     20839     20837     20840     20842
     20839     20837     20840     20843     20840     20843     20846     20847
     20840     20843     20846     20848     20840     20843     20846     20849
     20841     20840     20843     20844     20841     20840     20843     20845
     20841     20840     20843     20846     20842     20840     20843     20844
     20842     20840     20843     20845     20842     20840     20843     20846
     20843     20846     20849     20850     20843     20846     20849     20851
     20843     20846     20849     20852     20844     20843     20846     20847
     20844     20843     20846     20848     20844     20843     20846     20849
     20845     20843     20846     20847     20845     20843     20846     20848
     20845     20843     20846     20849     20846     20849     20852     20853
     20846     20849     20852     20854     20846     20849     20852     20855
     20847     20846     20849     20850     20847     20846     20849     20851
     20847     20846     20849     20852     20848     20846     20849     20850
     20848     20846     20849     20851     20848     20846     20849     20852
     20849     20852     20855     20856     20849     20852     20855     20857
     20849     20852     20855     20858     20850     20849     20852     20853
     20850     20849     20852     20854     20850     20849     20852     20855
     20851     20849     20852     20853     20851     20849     20852     20854
     20851     20849     20852     20855     20852     20855     20858     20859
     20852     20855     20858     20860     20852     20855     20858     20861
     20853     20852     20855     20856     20853     20852     20855     20857
     20853     20852     20855     20858     20854     20852     20855     20856
     20854     20852     20855     20857     20854     20852     20855     20858
     20856     20855     20858     20859     20856     20855     20858     20860
     20856     20855     20858     20861     20857     20855     20858     20859
     20857     20855     20858     20860     20857     20855     20858     20861
     20862     20865     20868     20869     20862     20865     20868     20870
     20862     20865     20868     20871     20863     20862     20865     20866
     20863     20862     20865     20867     20863     20862     20865     20868
     20864     20862     20865     20866     20864     20862     20865     20867
     20864     20862     20865     20868     20865     20868     20871     20872
     20865     20868     20871     20873     20865     20868     20871     20874
     20866     20865     20868     20869     20866     20865     20868     20870
     20866     20865     20868     20871     20867     20865     20868     20869
     20867     20865     20868     20870     20867     20865     20868     20871
     20868     20871     20874     20875     20868     20871     20874     20876
     20868     20871     20874     20877     20869     20868     20871     20872
     20869     20868     20871     20873     20869     20868     20871     20874
     20870     20868     20871     20872     20870     20868     20871     20873
     20870     20868     20871     20874     20871     20874     20877     20878
     20871     20874     20877     20879     20871     20874     20877     20880
     20872     20871     20874     20875     20872     20871     20874     20876
     20872     20871     20874     20877     20873     20871     20874     20875
     20873     20871     20874     20876     20873     20871     20874     20877
     20874     20877     20880     20881     20874     20877     20880     20882
     20874     20877     20880     20883     20875     20874     20877     20878
     20875     20874     20877     20879     20875     20874     20877     20880
     20876     20874     20877     20878     20876     20874     20877     20879
     20876     20874     20877     20880     20877     20880     20883     20884
     20877     20880     20883     20885     20877     20880     20883     20886
     20878     20877     20880     20881     20878     20877     20880     20882
     20878     20877     20880     20883     20879     20877     20880     20881
     20879     20877     20880     20882     20879     20877     20880     20883
     20880     20883     20886     20887     20880     20883     20886     20888
     20880     20883     20886     20889     20881     20880     20883     20884
     20881     20880     20883     20885     20881     20880     20883     20886
     20882     20880     20883     20884     20882     20880     20883     20885
     20882     20880     20883     20886     20883     20886     20889     20890
     20883     20886     20889     20891     20883     20886     20889     20892
     20884     20883     20886     20887     20884     20883     20886     20888
     20884     20883     20886     20889     20885     20883     20886     20887
     20885     20883     20886     20888     20885     20883     20886     20889
     20886     20889     20892     20893     20886     20889     20892     20894
     20886     20889     20892     20895     20887     20886     20889     20890
     20887     20886     20889     20891     20887     20886     20889     20892
     20888     20886     20889     20890     20888     20886     20889     20891
     20888     20886     20889     20892     20889     20892     20895     20896
     20889     20892     20895     20897     20889     20892     20895     20898
     20890     20889     20892     20893     20890     20889     20892     20894
     20890     20889     20892     20895     20891     20889     20892     20893
     20891     20889     20892     20894     20891     20889     20892     20895
     20892     20895     20898     20899     20892     20895     20898     20900
     20892     20895     20898     20901     20893     20892     20895     20896
     20893     20892     20895     20897     20893     20892     20895     20898
     20894     20892     20895     20896     20894     20892     20895     20897
     20894     20892     20895     20898     20895     20898     20901     20902
     20895     20898     20901     20903     20895     20898     20901     20904
     20896     20895     20898     20899     20896     20895     20898     20900
     20896     20895     20898     20901     20897     20895     20898     20899
     20897     20895     20898     20900     20897     20895     20898     20901
     20899     20898     20901     20902     20899     20898     20901     20903
     20899     20898     20901     20904     20900     20898     20901     20902
     20900     20898     20901     20903     20900     20898     20901     20904
     20905     20906     20921     20922     20905     20906     20921     20923
     20905     20906     20921     20927     20906     20905     20909     20910
     20906     20905     20909     20911     20906     20905     20909     20912
     20906     20905     20913     20914     20906     20905     20913     20915
     20906     20905     20913     20916     20906     20905     20917     20918
     20906     20905     20917     20919     20906     20905     20917     20920
     20906     20921     20927     20924     20907     20906     20905     20909
     20907     20906     20905     20913     20907     20906     20905     20917
     20907     20906     20921     20922     20907     20906     20921     20923
     20907     20906     20921     20927     20908     20906     20905     20909
     20908     20906     20905     20913     20908     20906     20905     20917
     20908     20906     20921     20922     20908     20906     20921     20923
     20908     20906     20921     20927     20909     20905     20906     20921
     20909     20905     20913     20914     20909     20905     20913     20915
     20909     20905     20913     20916     20909     20905     20917     20918
     20909     20905     20917     20919     20909     20905     20917     20920
     20910     20909     20905     20913     20910     20909     20905     20917
     20911     20909     20905     20913     20911     20909     20905     20917
     20912     20909     20905     20913     20912     20909     20905     20917
     20913     20905     20906     20921     20913     20905     20917     20918
     20913     20905     20917     20919     20913     20905     20917     20920
     20914     20913     20905     20917     20915     20913     20905     20917
     20916     20913     20905     20917     20917     20905     20906     20921
     20921     20927     20924     20925     20921     20927     20924     20926
     20921     20927     20924     20928     20922     20921     20927     20924
     20923     20921     20927     20924     20924     20928     20929     20930
     20924     20928     20929     20931     20924     20928     20929     20932
     20925     20924     20928     20929     20926     20924     20928     20929
     20927     20924     20928     20929     20928     20929     20932     20933
     20928     20929     20932     20934     20928     20929     20932     20940
     20929     20932     20934     20935     20929     20932     20940     20941
     20929     20932     20940     20942     20929     20932     20940     20943
     20930     20929     20932     20933     20930     20929     20932     20934
     20930     20929     20932     20940     20931     20929     20932     20933
     20931     20929     20932     20934     20931     20929     20932     20940
     20932     20934     20935     20936     20932     20934     20935     20937
     20932     20940     20943     20944     20933     20932     20934     20935
     20933     20932     20940     20941     20933     20932     20940     20942
     20933     20932     20940     20943     20934     20932     20940     20941
     20934     20932     20940     20942     20934     20932     20940     20943
     20934     20935     20937     20938     20934     20935     20937     20939
     20934     20935     20937     20949     20935     20934     20932     20940
     20935     20937     20949     20950     20935     20937     20949     20951
     20935     20937     20949     20952     20936     20935     20937     20938
     20936     20935     20937     20939     20936     20935     20937     20949
     20937     20949     20952     20953     20937     20949     20952     20954
     20937     20949     20952     20955     20938     20937     20949     20950
     20938     20937     20949     20951     20938     20937     20949     20952
     20939     20937     20949     20950     20939     20937     20949     20951
     20939     20937     20949     20952     20940     20943     20944     20945
     20940     20943     20944     20946     20941     20940     20943     20944
     20942     20940     20943     20944     20943     20944     20946     20947
     20943     20944     20946     20948     20943     20944     20946     20996
     20944     20946     20996     20997     20944     20946     20996     20998
     20944     20946     20996     20999     20945     20944     20946     20947
     20945     20944     20946     20948     20945     20944     20946     20996
     20946     20996     20999     21000     20946     20996     20999     21001
     20946     20996     20999     21002     20947     20946     20996     20997
     20947     20946     20996     20998     20947     20946     20996     20999
     20948     20946     20996     20997     20948     20946     20996     20998
     20948     20946     20996     20999     20949     20952     20955     20956
     20949     20952     20955     20957     20949     20952     20955     20958
     20950     20949     20952     20953     20950     20949     20952     20954
     20950     20949     20952     20955     20951     20949     20952     20953
     20951     20949     20952     20954     20951     20949     20952     20955
     20952     20955     20958     20959     20952     20955     20958     20960
     20952     20955     20958     20961     20953     20952     20955     20956
     20953     20952     20955     20957     20953     20952     20955     20958
     20954     20952     20955     20956     20954     20952     20955     20957
     20954     20952     20955     20958     20955     20958     20961     20962
     20955     20958     20961     20963     20955     20958     20961     20964
     20956     20955     20958     20959     20956     20955     20958     20960
     20956     20955     20958     20961     20957     20955     20958     20959
     20957     20955     20958     20960     20957     20955     20958     20961
     20958     20961     20964     20965     20958     20961     20964     20966
     20958     20961     20964     20967     20959     20958     20961     20962
     20959     20958     20961     20963     20959     20958     20961     20964
     20960     20958     20961     20962     20960     20958     20961     20963
     20960     20958     20961     20964     20961     20964     20967     20968
     20961     20964     20967     20969     20962     20961     20964     20965
     20962     20961     20964     20966     20962     20961     20964     20967
     20963     20961     20964     20965     20963     20961     20964     20966
     20963     20961     20964     20967     20964     20967     20969     20970
     20964     20967     20969     20971     20965     20964     20967     20968
     20965     20964     20967     20969     20966     20964     20967     20968
     20966     20964     20967     20969     20967     20969     20971     20972
     20967     20969     20971     20973     20967     20969     20971     20974
     20968     20967     20969     20970     20968     20967     20969     20971
     20969     20971     20974     20975     20969     20971     20974     20976
     20969     20971     20974     20977     20970     20969     20971     20972
     20970     20969     20971     20973     20970     20969     20971     20974
     20971     20974     20977     20978     20971     20974     20977     20979
     20971     20974     20977     20980     20972     20971     20974     20975
     20972     20971     20974     20976     20972     20971     20974     20977
     20973     20971     20974     20975     20973     20971     20974     20976
     20973     20971     20974     20977     20974     20977     20980     20981
     20974     20977     20980     20982     20974     20977     20980     20983
     20975     20974     20977     20978     20975     20974     20977     20979
     20975     20974     20977     20980     20976     20974     20977     20978
     20976     20974     20977     20979     20976     20974     20977     20980
     20977     20980     20983     20984     20977     20980     20983     20985
     20977     20980     20983     20986     20978     20977     20980     20981
     20978     20977     20980     20982     20978     20977     20980     20983
     20979     20977     20980     20981     20979     20977     20980     20982
     20979     20977     20980     20983     20980     20983     20986     20987
     20980     20983     20986     20988     20980     20983     20986     20989
     20981     20980     20983     20984     20981     20980     20983     20985
     20981     20980     20983     20986     20982     20980     20983     20984
     20982     20980     20983     20985     20982     20980     20983     20986
     20983     20986     20989     20990     20983     20986     20989     20991
     20983     20986     20989     20992     20984     20983     20986     20987
     20984     20983     20986     20988     20984     20983     20986     20989
     20985     20983     20986     20987     20985     20983     20986     20988
     20985     20983     20986     20989     20986     20989     20992     20993
     20986     20989     20992     20994     20986     20989     20992     20995
     20987     20986     20989     20990     20987     20986     20989     20991
     20987     20986     20989     20992     20988     20986     20989     20990
     20988     20986     20989     20991     20988     20986     20989     20992
     20990     20989     20992     20993     20990     20989     20992     20994
     20990     20989     20992     20995     20991     20989     20992     20993
     20991     20989     20992     20994     20991     20989     20992     20995
     20996     20999     21002     21003     20996     20999     21002     21004
     20996     20999     21002     21005     20997     20996     20999     21000
     20997     20996     20999     21001     20997     20996     20999     21002
     20998     20996     20999     21000     20998     20996     20999     21001
     20998     20996     20999     21002     20999     21002     21005     21006
     20999     21002     21005     21007     20999     21002     21005     21008
     21000     20999     21002     21003     21000     20999     21002     21004
     21000     20999     21002     21005     21001     20999     21002     21003
     21001     20999     21002     21004     21001     20999     21002     21005
     21002     21005     21008     21009     21002     21005     21008     21010
     21002     21005     21008     21011     21003     21002     21005     21006
     21003     21002     21005     21007     21003     21002     21005     21008
     21004     21002     21005     21006     21004     21002     21005     21007
     21004     21002     21005     21008     21005     21008     21011     21012
     21005     21008     21011     21013     21005     21008     21011     21014
     21006     21005     21008     21009     21006     21005     21008     21010
     21006     21005     21008     21011     21007     21005     21008     21009
     21007     21005     21008     21010     21007     21005     21008     21011
     21008     21011     21014     21015     21008     21011     21014     21016
     21008     21011     21014     21017     21009     21008     21011     21012
     21009     21008     21011     21013     21009     21008     21011     21014
     21010     21008     21011     21012     21010     21008     21011     21013
     21010     21008     21011     21014     21011     21014     21017     21018
     21011     21014     21017     21019     21011     21014     21017     21020
     21012     21011     21014     21015     21012     21011     21014     21016
     21012     21011     21014     21017     21013     21011     21014     21015
     21013     21011     21014     21016     21013     21011     21014     21017
     21014     21017     21020     21021     21014     21017     21020     21022
     21014     21017     21020     21023     21015     21014     21017     21018
     21015     21014     21017     21019     21015     21014     21017     21020
     21016     21014     21017     21018     21016     21014     21017     21019
     21016     21014     21017     21020     21017     21020     21023     21024
     21017     21020     21023     21025     21017     21020     21023     21026
     21018     21017     21020     21021     21018     21017     21020     21022
     21018     21017     21020     21023     21019     21017     21020     21021
     21019     21017     21020     21022     21019     21017     21020     21023
     21020     21023     21026     21027     21020     21023     21026     21028
     21020     21023     21026     21029     21021     21020     21023     21024
     21021     21020     21023     21025     21021     21020     21023     21026
     21022     21020     21023     21024     21022     21020     21023     21025
     21022     21020     21023     21026     21023     21026     21029     21030
     21023     21026     21029     21031     21023     21026     21029     21032
     21024     21023     21026     21027     21024     21023     21026     21028
     21024     21023     21026     21029     21025     21023     21026     21027
     21025     21023     21026     21028     21025     21023     21026     21029
     21026     21029     21032     21033     21026     21029     21032     21034
     21026     21029     21032     21035     21027     21026     21029     21030
     21027     21026     21029     21031     21027     21026     21029     21032
     21028     21026     21029     21030     21028     21026     21029     21031
     21028     21026     21029     21032     21029     21032     21035     21036
     21029     21032     21035     21037     21029     21032     21035     21038
     21030     21029     21032     21033     21030     21029     21032     21034
     21030     21029     21032     21035     21031     21029     21032     21033
     21031     21029     21032     21034     21031     21029     21032     21035
     21033     21032     21035     21036     21033     21032     21035     21037
     21033     21032     21035     21038     21034     21032     21035     21036
     21034     21032     21035     21037     21034     21032     21035     21038
     21039     21040     21055     21056     21039     21040     21055     21057
     21039     21040     21055     21061     21040     21039     21043     21044
     21040     21039     21043     21045     21040     21039     21043     21046
     21040     21039     21047     21048     21040     21039     21047     21049
     21040     21039     21047     21050     21040     21039     21051     21052
     21040     21039     21051     21053     21040     21039     21051     21054
     21040     21055     21061     21058     21041     21040     21039     21043
     21041     21040     21039     21047     21041     21040     21039     21051
     21041     21040     21055     21056     21041     21040     21055     21057
     21041     21040     21055     21061     21042     21040     21039     21043
     21042     21040     21039     21047     21042     21040     21039     21051
     21042     21040     21055     21056     21042     21040     21055     21057
     21042     21040     21055     21061     21043     21039     21040     21055
     21043     21039     21047     21048     21043     21039     21047     21049
     21043     21039     21047     21050     21043     21039     21051     21052
     21043     21039     21051     21053     21043     21039     21051     21054
     21044     21043     21039     21047     21044     21043     21039     21051
     21045     21043     21039     21047     21045     21043     21039     21051
     21046     21043     21039     21047     21046     21043     21039     21051
     21047     21039     21040     21055     21047     21039     21051     21052
     21047     21039     21051     21053     21047     21039     21051     21054
     21048     21047     21039     21051     21049     21047     21039     21051
     21050     21047     21039     21051     21051     21039     21040     21055
     21055     21061     21058     21059     21055     21061     21058     21060
     21055     21061     21058     21062     21056     21055     21061     21058
     21057     21055     21061     21058     21058     21062     21063     21064
     21058     21062     21063     21065     21058     21062     21063     21066
     21059     21058     21062     21063     21060     21058     21062     21063
     21061     21058     21062     21063     21062     21063     21066     21067
     21062     21063     21066     21068     21062     21063     21066     21074
     21063     21066     21068     21069     21063     21066     21074     21075
     21063     21066     21074     21076     21063     21066     21074     21077
     21064     21063     21066     21067     21064     21063     21066     21068
     21064     21063     21066     21074     21065     21063     21066     21067
     21065     21063     21066     21068     21065     21063     21066     21074
     21066     21068     21069     21070     21066     21068     21069     21071
     21066     21074     21077     21078     21067     21066     21068     21069
     21067     21066     21074     21075     21067     21066     21074     21076
     21067     21066     21074     21077     21068     21066     21074     21075
     21068     21066     21074     21076     21068     21066     21074     21077
     21068     21069     21071     21072     21068     21069     21071     21073
     21068     21069     21071     21083     21069     21068     21066     21074
     21069     21071     21083     21084     21069     21071     21083     21085
     21069     21071     21083     21086     21070     21069     21071     21072
     21070     21069     21071     21073     21070     21069     21071     21083
     21071     21083     21086     21087     21071     21083     21086     21088
     21071     21083     21086     21089     21072     21071     21083     21084
     21072     21071     21083     21085     21072     21071     21083     21086
     21073     21071     21083     21084     21073     21071     21083     21085
     21073     21071     21083     21086     21074     21077     21078     21079
     21074     21077     21078     21080     21075     21074     21077     21078
     21076     21074     21077     21078     21077     21078     21080     21081
     21077     21078     21080     21082     21077     21078     21080     21130
     21078     21080     21130     21131     21078     21080     21130     21132
     21078     21080     21130     21133     21079     21078     21080     21081
     21079     21078     21080     21082     21079     21078     21080     21130
     21080     21130     21133     21134     21080     21130     21133     21135
     21080     21130     21133     21136     21081     21080     21130     21131
     21081     21080     21130     21132     21081     21080     21130     21133
     21082     21080     21130     21131     21082     21080     21130     21132
     21082     21080     21130     21133     21083     21086     21089     21090
     21083     21086     21089     21091     21083     21086     21089     21092
     21084     21083     21086     21087     21084     21083     21086     21088
     21084     21083     21086     21089     21085     21083     21086     21087
     21085     21083     21086     21088     21085     21083     21086     21089
     21086     21089     21092     21093     21086     21089     21092     21094
     21086     21089     21092     21095     21087     21086     21089     21090
     21087     21086     21089     21091     21087     21086     21089     21092
     21088     21086     21089     21090     21088     21086     21089     21091
     21088     21086     21089     21092     21089     21092     21095     21096
     21089     21092     21095     21097     21089     21092     21095     21098
     21090     21089     21092     21093     21090     21089     21092     21094
     21090     21089     21092     21095     21091     21089     21092     21093
     21091     21089     21092     21094     21091     21089     21092     21095
     21092     21095     21098     21099     21092     21095     21098     21100
     21092     21095     21098     21101     21093     21092     21095     21096
     21093     21092     21095     21097     21093     21092     21095     21098
     21094     21092     21095     21096     21094     21092     21095     21097
     21094     21092     21095     21098     21095     21098     21101     21102
     21095     21098     21101     21103     21096     21095     21098     21099
     21096     21095     21098     21100     21096     21095     21098     21101
     21097     21095     21098     21099     21097     21095     21098     21100
     21097     21095     21098     21101     21098     21101     21103     21104
     21098     21101     21103     21105     21099     21098     21101     21102
     21099     21098     21101     21103     21100     21098     21101     21102
     21100     21098     21101     21103     21101     21103     21105     21106
     21101     21103     21105     21107     21101     21103     21105     21108
     21102     21101     21103     21104     21102     21101     21103     21105
     21103     21105     21108     21109     21103     21105     21108     21110
     21103     21105     21108     21111     21104     21103     21105     21106
     21104     21103     21105     21107     21104     21103     21105     21108
     21105     21108     21111     21112     21105     21108     21111     21113
     21105     21108     21111     21114     21106     21105     21108     21109
     21106     21105     21108     21110     21106     21105     21108     21111
     21107     21105     21108     21109     21107     21105     21108     21110
     21107     21105     21108     21111     21108     21111     21114     21115
     21108     21111     21114     21116     21108     21111     21114     21117
     21109     21108     21111     21112     21109     21108     21111     21113
     21109     21108     21111     21114     21110     21108     21111     21112
     21110     21108     21111     21113     21110     21108     21111     21114
     21111     21114     21117     21118     21111     21114     21117     21119
     21111     21114     21117     21120     21112     21111     21114     21115
     21112     21111     21114     21116     21112     21111     21114     21117
     21113     21111     21114     21115     21113     21111     21114     21116
     21113     21111     21114     21117     21114     21117     21120     21121
     21114     21117     21120     21122     21114     21117     21120     21123
     21115     21114     21117     21118     21115     21114     21117     21119
     21115     21114     21117     21120     21116     21114     21117     21118
     21116     21114     21117     21119     21116     21114     21117     21120
     21117     21120     21123     21124     21117     21120     21123     21125
     21117     21120     21123     21126     21118     21117     21120     21121
     21118     21117     21120     21122     21118     21117     21120     21123
     21119     21117     21120     21121     21119     21117     21120     21122
     21119     21117     21120     21123     21120     21123     21126     21127
     21120     21123     21126     21128     21120     21123     21126     21129
     21121     21120     21123     21124     21121     21120     21123     21125
     21121     21120     21123     21126     21122     21120     21123     21124
     21122     21120     21123     21125     21122     21120     21123     21126
     21124     21123     21126     21127     21124     21123     21126     21128
     21124     21123     21126     21129     21125     21123     21126     21127
     21125     21123     21126     21128     21125     21123     21126     21129
     21130     21133     21136     21137     21130     21133     21136     21138
     21130     21133     21136     21139     21131     21130     21133     21134
     21131     21130     21133     21135     21131     21130     21133     21136
     21132     21130     21133     21134     21132     21130     21133     21135
     21132     21130     21133     21136     21133     21136     21139     21140
     21133     21136     21139     21141     21133     21136     21139     21142
     21134     21133     21136     21137     21134     21133     21136     21138
     21134     21133     21136     21139     21135     21133     21136     21137
     21135     21133     21136     21138     21135     21133     21136     21139
     21136     21139     21142     21143     21136     21139     21142     21144
     21136     21139     21142     21145     21137     21136     21139     21140
     21137     21136     21139     21141     21137     21136     21139     21142
     21138     21136     21139     21140     21138     21136     21139     21141
     21138     21136     21139     21142     21139     21142     21145     21146
     21139     21142     21145     21147     21139     21142     21145     21148
     21140     21139     21142     21143     21140     21139     21142     21144
     21140     21139     21142     21145     21141     21139     21142     21143
     21141     21139     21142     21144     21141     21139     21142     21145
     21142     21145     21148     21149     21142     21145     21148     21150
     21142     21145     21148     21151     21143     21142     21145     21146
     21143     21142     21145     21147     21143     21142     21145     21148
     21144     21142     21145     21146     21144     21142     21145     21147
     21144     21142     21145     21148     21145     21148     21151     21152
     21145     21148     21151     21153     21145     21148     21151     21154
     21146     21145     21148     21149     21146     21145     21148     21150
     21146     21145     21148     21151     21147     21145     21148     21149
     21147     21145     21148     21150     21147     21145     21148     21151
     21148     21151     21154     21155     21148     21151     21154     21156
     21148     21151     21154     21157     21149     21148     21151     21152
     21149     21148     21151     21153     21149     21148     21151     21154
     21150     21148     21151     21152     21150     21148     21151     21153
     21150     21148     21151     21154     21151     21154     21157     21158
     21151     21154     21157     21159     21151     21154     21157     21160
     21152     21151     21154     21155     21152     21151     21154     21156
     21152     21151     21154     21157     21153     21151     21154     21155
     21153     21151     21154     21156     21153     21151     21154     21157
     21154     21157     21160     21161     21154     21157     21160     21162
     21154     21157     21160     21163     21155     21154     21157     21158
     21155     21154     21157     21159     21155     21154     21157     21160
     21156     21154     21157     21158     21156     21154     21157     21159
     21156     21154     21157     21160     21157     21160     21163     21164
     21157     21160     21163     21165     21157     21160     21163     21166
     21158     21157     21160     21161     21158     21157     21160     21162
     21158     21157     21160     21163     21159     21157     21160     21161
     21159     21157     21160     21162     21159     21157     21160     21163
     21160     21163     21166     21167     21160     21163     21166     21168
     21160     21163     21166     21169     21161     21160     21163     21164
     21161     21160     21163     21165     21161     21160     21163     21166
     21162     21160     21163     21164     21162     21160     21163     21165
     21162     21160     21163     21166     21163     21166     21169     21170
     21163     21166     21169     21171     21163     21166     21169     21172
     21164     21163     21166     21167     21164     21163     21166     21168
     21164     21163     21166     21169     21165     21163     21166     21167
     21165     21163     21166     21168     21165     21163     21166     21169
     21167     21166     21169     21170     21167     21166     21169     21171
     21167     21166     21169     21172     21168     21166     21169     21170
     21168     21166     21169     21171     21168     21166     21169     21172
     21173     21174     21189     21190     21173     21174     21189     21191
     21173     21174     21189     21195     21174     21173     21177     21178
     21174     21173     21177     21179     21174     21173     21177     21180
     21174     21173     21181     21182     21174     21173     21181     21183
     21174     21173     21181     21184     21174     21173     21185     21186
     21174     21173     21185     21187     21174     21173     21185     21188
     21174     21189     21195     21192     21175     21174     21173     21177
     21175     21174     21173     21181     21175     21174     21173     21185
     21175     21174     21189     21190     21175     21174     21189     21191
     21175     21174     21189     21195     21176     21174     21173     21177
     21176     21174     21173     21181     21176     21174     21173     21185
     21176     21174     21189     21190     21176     21174     21189     21191
     21176     21174     21189     21195     21177     21173     21174     21189
     21177     21173     21181     21182     21177     21173     21181     21183
     21177     21173     21181     21184     21177     21173     21185     21186
     21177     21173     21185     21187     21177     21173     21185     21188
     21178     21177     21173     21181     21178     21177     21173     21185
     21179     21177     21173     21181     21179     21177     21173     21185
     21180     21177     21173     21181     21180     21177     21173     21185
     21181     21173     21174     21189     21181     21173     21185     21186
     21181     21173     21185     21187     21181     21173     21185     21188
     21182     21181     21173     21185     21183     21181     21173     21185
     21184     21181     21173     21185     21185     21173     21174     21189
     21189     21195     21192     21193     21189     21195     21192     21194
     21189     21195     21192     21196     21190     21189     21195     21192
     21191     21189     21195     21192     21192     21196     21197     21198
     21192     21196     21197     21199     21192     21196     21197     21200
     21193     21192     21196     21197     21194     21192     21196     21197
     21195     21192     21196     21197     21196     21197     21200     21201
     21196     21197     21200     21202     21196     21197     21200     21208
     21197     21200     21202     21203     21197     21200     21208     21209
     21197     21200     21208     21210     21197     21200     21208     21211
     21198     21197     21200     21201     21198     21197     21200     21202
     21198     21197     21200     21208     21199     21197     21200     21201
     21199     21197     21200     21202     21199     21197     21200     21208
     21200     21202     21203     21204     21200     21202     21203     21205
     21200     21208     21211     21212     21201     21200     21202     21203
     21201     21200     21208     21209     21201     21200     21208     21210
     21201     21200     21208     21211     21202     21200     21208     21209
     21202     21200     21208     21210     21202     21200     21208     21211
     21202     21203     21205     21206     21202     21203     21205     21207
     21202     21203     21205     21217     21203     21202     21200     21208
     21203     21205     21217     21218     21203     21205     21217     21219
     21203     21205     21217     21220     21204     21203     21205     21206
     21204     21203     21205     21207     21204     21203     21205     21217
     21205     21217     21220     21221     21205     21217     21220     21222
     21205     21217     21220     21223     21206     21205     21217     21218
     21206     21205     21217     21219     21206     21205     21217     21220
     21207     21205     21217     21218     21207     21205     21217     21219
     21207     21205     21217     21220     21208     21211     21212     21213
     21208     21211     21212     21214     21209     21208     21211     21212
     21210     21208     21211     21212     21211     21212     21214     21215
     21211     21212     21214     21216     21211     21212     21214     21264
     21212     21214     21264     21265     21212     21214     21264     21266
     21212     21214     21264     21267     21213     21212     21214     21215
     21213     21212     21214     21216     21213     21212     21214     21264
     21214     21264     21267     21268     21214     21264     21267     21269
     21214     21264     21267     21270     21215     21214     21264     21265
     21215     21214     21264     21266     21215     21214     21264     21267
     21216     21214     21264     21265     21216     21214     21264     21266
     21216     21214     21264     21267     21217     21220     21223     21224
     21217     21220     21223     21225     21217     21220     21223     21226
     21218     21217     21220     21221     21218     21217     21220     21222
     21218     21217     21220     21223     21219     21217     21220     21221
     21219     21217     21220     21222     21219     21217     21220     21223
     21220     21223     21226     21227     21220     21223     21226     21228
     21220     21223     21226     21229     21221     21220     21223     21224
     21221     21220     21223     21225     21221     21220     21223     21226
     21222     21220     21223     21224     21222     21220     21223     21225
     21222     21220     21223     21226     21223     21226     21229     21230
     21223     21226     21229     21231     21223     21226     21229     21232
     21224     21223     21226     21227     21224     21223     21226     21228
     21224     21223     21226     21229     21225     21223     21226     21227
     21225     21223     21226     21228     21225     21223     21226     21229
     21226     21229     21232     21233     21226     21229     21232     21234
     21226     21229     21232     21235     21227     21226     21229     21230
     21227     21226     21229     21231     21227     21226     21229     21232
     21228     21226     21229     21230     21228     21226     21229     21231
     21228     21226     21229     21232     21229     21232     21235     21236
     21229     21232     21235     21237     21230     21229     21232     21233
     21230     21229     21232     21234     21230     21229     21232     21235
     21231     21229     21232     21233     21231     21229     21232     21234
     21231     21229     21232     21235     21232     21235     21237     21238
     21232     21235     21237     21239     21233     21232     21235     21236
     21233     21232     21235     21237     21234     21232     21235     21236
     21234     21232     21235     21237     21235     21237     21239     21240
     21235     21237     21239     21241     21235     21237     21239     21242
     21236     21235     21237     21238     21236     21235     21237     21239
     21237     21239     21242     21243     21237     21239     21242     21244
     21237     21239     21242     21245     21238     21237     21239     21240
     21238     21237     21239     21241     21238     21237     21239     21242
     21239     21242     21245     21246     21239     21242     21245     21247
     21239     21242     21245     21248     21240     21239     21242     21243
     21240     21239     21242     21244     21240     21239     21242     21245
     21241     21239     21242     21243     21241     21239     21242     21244
     21241     21239     21242     21245     21242     21245     21248     21249
     21242     21245     21248     21250     21242     21245     21248     21251
     21243     21242     21245     21246     21243     21242     21245     21247
     21243     21242     21245     21248     21244     21242     21245     21246
     21244     21242     21245     21247     21244     21242     21245     21248
     21245     21248     21251     21252     21245     21248     21251     21253
     21245     21248     21251     21254     21246     21245     21248     21249
     21246     21245     21248     21250     21246     21245     21248     21251
     21247     21245     21248     21249     21247     21245     21248     21250
     21247     21245     21248     21251     21248     21251     21254     21255
     21248     21251     21254     21256     21248     21251     21254     21257
     21249     21248     21251     21252     21249     21248     21251     21253
     21249     21248     21251     21254     21250     21248     21251     21252
     21250     21248     21251     21253     21250     21248     21251     21254
     21251     21254     21257     21258     21251     21254     21257     21259
     21251     21254     21257     21260     21252     21251     21254     21255
     21252     21251     21254     21256     21252     21251     21254     21257
     21253     21251     21254     21255     21253     21251     21254     21256
     21253     21251     21254     21257     21254     21257     21260     21261
     21254     21257     21260     21262     21254     21257     21260     21263
     21255     21254     21257     21258     21255     21254     21257     21259
     21255     21254     21257     21260     21256     21254     21257     21258
     21256     21254     21257     21259     21256     21254     21257     21260
     21258     21257     21260     21261     21258     21257     21260     21262
     21258     21257     21260     21263     21259     21257     21260     21261
     21259     21257     21260     21262     21259     21257     21260     21263
     21264     21267     21270     21271     21264     21267     21270     21272
     21264     21267     21270     21273     21265     21264     21267     21268
     21265     21264     21267     21269     21265     21264     21267     21270
     21266     21264     21267     21268     21266     21264     21267     21269
     21266     21264     21267     21270     21267     21270     21273     21274
     21267     21270     21273     21275     21267     21270     21273     21276
     21268     21267     21270     21271     21268     21267     21270     21272
     21268     21267     21270     21273     21269     21267     21270     21271
     21269     21267     21270     21272     21269     21267     21270     21273
     21270     21273     21276     21277     21270     21273     21276     21278
     21270     21273     21276     21279     21271     21270     21273     21274
     21271     21270     21273     21275     21271     21270     21273     21276
     21272     21270     21273     21274     21272     21270     21273     21275
     21272     21270     21273     21276     21273     21276     21279     21280
     21273     21276     21279     21281     21273     21276     21279     21282
     21274     21273     21276     21277     21274     21273     21276     21278
     21274     21273     21276     21279     21275     21273     21276     21277
     21275     21273     21276     21278     21275     21273     21276     21279
     21276     21279     21282     21283     21276     21279     21282     21284
     21276     21279     21282     21285     21277     21276     21279     21280
     21277     21276     21279     21281     21277     21276     21279     21282
     21278     21276     21279     21280     21278     21276     21279     21281
     21278     21276     21279     21282     21279     21282     21285     21286
     21279     21282     21285     21287     21279     21282     21285     21288
     21280     21279     21282     21283     21280     21279     21282     21284
     21280     21279     21282     21285     21281     21279     21282     21283
     21281     21279     21282     21284     21281     21279     21282     21285
     21282     21285     21288     21289     21282     21285     21288     21290
     21282     21285     21288     21291     21283     21282     21285     21286
     21283     21282     21285     21287     21283     21282     21285     21288
     21284     21282     21285     21286     21284     21282     21285     21287
     21284     21282     21285     21288     21285     21288     21291     21292
     21285     21288     21291     21293     21285     21288     21291     21294
     21286     21285     21288     21289     21286     21285     21288     21290
     21286     21285     21288     21291     21287     21285     21288     21289
     21287     21285     21288     21290     21287     21285     21288     21291
     21288     21291     21294     21295     21288     21291     21294     21296
     21288     21291     21294     21297     21289     21288     21291     21292
     21289     21288     21291     21293     21289     21288     21291     21294
     21290     21288     21291     21292     21290     21288     21291     21293
     21290     21288     21291     21294     21291     21294     21297     21298
     21291     21294     21297     21299     21291     21294     21297     21300
     21292     21291     21294     21295     21292     21291     21294     21296
     21292     21291     21294     21297     21293     21291     21294     21295
     21293     21291     21294     21296     21293     21291     21294     21297
     21294     21297     21300     21301     21294     21297     21300     21302
     21294     21297     21300     21303     21295     21294     21297     21298
     21295     21294     21297     21299     21295     21294     21297     21300
     21296     21294     21297     21298     21296     21294     21297     21299
     21296     21294     21297     21300     21297     21300     21303     21304
     21297     21300     21303     21305     21297     21300     21303     21306
     21298     21297     21300     21301     21298     21297     21300     21302
     21298     21297     21300     21303     21299     21297     21300     21301
     21299     21297     21300     21302     21299     21297     21300     21303
     21301     21300     21303     21304     21301     21300     21303     21305
     21301     21300     21303     21306     21302     21300     21303     21304
     21302     21300     21303     21305     21302     21300     21303     21306
     21307     21308     21323     21324     21307     21308     21323     21325
     21307     21308     21323     21329     21308     21307     21311     21312
     21308     21307     21311     21313     21308     21307     21311     21314
     21308     21307     21315     21316     21308     21307     21315     21317
     21308     21307     21315     21318     21308     21307     21319     21320
     21308     21307     21319     21321     21308     21307     21319     21322
     21308     21323     21329     21326     21309     21308     21307     21311
     21309     21308     21307     21315     21309     21308     21307     21319
     21309     21308     21323     21324     21309     21308     21323     21325
     21309     21308     21323     21329     21310     21308     21307     21311
     21310     21308     21307     21315     21310     21308     21307     21319
     21310     21308     21323     21324     21310     21308     21323     21325
     21310     21308     21323     21329     21311     21307     21308     21323
     21311     21307     21315     21316     21311     21307     21315     21317
     21311     21307     21315     21318     21311     21307     21319     21320
     21311     21307     21319     21321     21311     21307     21319     21322
     21312     21311     21307     21315     21312     21311     21307     21319
     21313     21311     21307     21315     21313     21311     21307     21319
     21314     21311     21307     21315     21314     21311     21307     21319
     21315     21307     21308     21323     21315     21307     21319     21320
     21315     21307     21319     21321     21315     21307     21319     21322
     21316     21315     21307     21319     21317     21315     21307     21319
     21318     21315     21307     21319     21319     21307     21308     21323
     21323     21329     21326     21327     21323     21329     21326     21328
     21323     21329     21326     21330     21324     21323     21329     21326
     21325     21323     21329     21326     21326     21330     21331     21332
     21326     21330     21331     21333     21326     21330     21331     21334
     21327     21326     21330     21331     21328     21326     21330     21331
     21329     21326     21330     21331     21330     21331     21334     21335
     21330     21331     21334     21336     21330     21331     21334     21342
     21331     21334     21336     21337     21331     21334     21342     21343
     21331     21334     21342     21344     21331     21334     21342     21345
     21332     21331     21334     21335     21332     21331     21334     21336
     21332     21331     21334     21342     21333     21331     21334     21335
     21333     21331     21334     21336     21333     21331     21334     21342
     21334     21336     21337     21338     21334     21336     21337     21339
     21334     21342     21345     21346     21335     21334     21336     21337
     21335     21334     21342     21343     21335     21334     21342     21344
     21335     21334     21342     21345     21336     21334     21342     21343
     21336     21334     21342     21344     21336     21334     21342     21345
     21336     21337     21339     21340     21336     21337     21339     21341
     21336     21337     21339     21351     21337     21336     21334     21342
     21337     21339     21351     21352     21337     21339     21351     21353
     21337     21339     21351     21354     21338     21337     21339     21340
     21338     21337     21339     21341     21338     21337     21339     21351
     21339     21351     21354     21355     21339     21351     21354     21356
     21339     21351     21354     21357     21340     21339     21351     21352
     21340     21339     21351     21353     21340     21339     21351     21354
     21341     21339     21351     21352     21341     21339     21351     21353
     21341     21339     21351     21354     21342     21345     21346     21347
     21342     21345     21346     21348     21343     21342     21345     21346
     21344     21342     21345     21346     21345     21346     21348     21349
     21345     21346     21348     21350     21345     21346     21348     21398
     21346     21348     21398     21399     21346     21348     21398     21400
     21346     21348     21398     21401     21347     21346     21348     21349
     21347     21346     21348     21350     21347     21346     21348     21398
     21348     21398     21401     21402     21348     21398     21401     21403
     21348     21398     21401     21404     21349     21348     21398     21399
     21349     21348     21398     21400     21349     21348     21398     21401
     21350     21348     21398     21399     21350     21348     21398     21400
     21350     21348     21398     21401     21351     21354     21357     21358
     21351     21354     21357     21359     21351     21354     21357     21360
     21352     21351     21354     21355     21352     21351     21354     21356
     21352     21351     21354     21357     21353     21351     21354     21355
     21353     21351     21354     21356     21353     21351     21354     21357
     21354     21357     21360     21361     21354     21357     21360     21362
     21354     21357     21360     21363     21355     21354     21357     21358
     21355     21354     21357     21359     21355     21354     21357     21360
     21356     21354     21357     21358     21356     21354     21357     21359
     21356     21354     21357     21360     21357     21360     21363     21364
     21357     21360     21363     21365     21357     21360     21363     21366
     21358     21357     21360     21361     21358     21357     21360     21362
     21358     21357     21360     21363     21359     21357     21360     21361
     21359     21357     21360     21362     21359     21357     21360     21363
     21360     21363     21366     21367     21360     21363     21366     21368
     21360     21363     21366     21369     21361     21360     21363     21364
     21361     21360     21363     21365     21361     21360     21363     21366
     21362     21360     21363     21364     21362     21360     21363     21365
     21362     21360     21363     21366     21363     21366     21369     21370
     21363     21366     21369     21371     21364     21363     21366     21367
     21364     21363     21366     21368     21364     21363     21366     21369
     21365     21363     21366     21367     21365     21363     21366     21368
     21365     21363     21366     21369     21366     21369     21371     21372
     21366     21369     21371     21373     21367     21366     21369     21370
     21367     21366     21369     21371     21368     21366     21369     21370
     21368     21366     21369     21371     21369     21371     21373     21374
     21369     21371     21373     21375     21369     21371     21373     21376
     21370     21369     21371     21372     21370     21369     21371     21373
     21371     21373     21376     21377     21371     21373     21376     21378
     21371     21373     21376     21379     21372     21371     21373     21374
     21372     21371     21373     21375     21372     21371     21373     21376
     21373     21376     21379     21380     21373     21376     21379     21381
     21373     21376     21379     21382     21374     21373     21376     21377
     21374     21373     21376     21378     21374     21373     21376     21379
     21375     21373     21376     21377     21375     21373     21376     21378
     21375     21373     21376     21379     21376     21379     21382     21383
     21376     21379     21382     21384     21376     21379     21382     21385
     21377     21376     21379     21380     21377     21376     21379     21381
     21377     21376     21379     21382     21378     21376     21379     21380
     21378     21376     21379     21381     21378     21376     21379     21382
     21379     21382     21385     21386     21379     21382     21385     21387
     21379     21382     21385     21388     21380     21379     21382     21383
     21380     21379     21382     21384     21380     21379     21382     21385
     21381     21379     21382     21383     21381     21379     21382     21384
     21381     21379     21382     21385     21382     21385     21388     21389
     21382     21385     21388     21390     21382     21385     21388     21391
     21383     21382     21385     21386     21383     21382     21385     21387
     21383     21382     21385     21388     21384     21382     21385     21386
     21384     21382     21385     21387     21384     21382     21385     21388
     21385     21388     21391     21392     21385     21388     21391     21393
     21385     21388     21391     21394     21386     21385     21388     21389
     21386     21385     21388     21390     21386     21385     21388     21391
     21387     21385     21388     21389     21387     21385     21388     21390
     21387     21385     21388     21391     21388     21391     21394     21395
     21388     21391     21394     21396     21388     21391     21394     21397
     21389     21388     21391     21392     21389     21388     21391     21393
     21389     21388     21391     21394     21390     21388     21391     21392
     21390     21388     21391     21393     21390     21388     21391     21394
     21392     21391     21394     21395     21392     21391     21394     21396
     21392     21391     21394     21397     21393     21391     21394     21395
     21393     21391     21394     21396     21393     21391     21394     21397
     21398     21401     21404     21405     21398     21401     21404     21406
     21398     21401     21404     21407     21399     21398     21401     21402
     21399     21398     21401     21403     21399     21398     21401     21404
     21400     21398     21401     21402     21400     21398     21401     21403
     21400     21398     21401     21404     21401     21404     21407     21408
     21401     21404     21407     21409     21401     21404     21407     21410
     21402     21401     21404     21405     21402     21401     21404     21406
     21402     21401     21404     21407     21403     21401     21404     21405
     21403     21401     21404     21406     21403     21401     21404     21407
     21404     21407     21410     21411     21404     21407     21410     21412
     21404     21407     21410     21413     21405     21404     21407     21408
     21405     21404     21407     21409     21405     21404     21407     21410
     21406     21404     21407     21408     21406     21404     21407     21409
     21406     21404     21407     21410     21407     21410     21413     21414
     21407     21410     21413     21415     21407     21410     21413     21416
     21408     21407     21410     21411     21408     21407     21410     21412
     21408     21407     21410     21413     21409     21407     21410     21411
     21409     21407     21410     21412     21409     21407     21410     21413
     21410     21413     21416     21417     21410     21413     21416     21418
     21410     21413     21416     21419     21411     21410     21413     21414
     21411     21410     21413     21415     21411     21410     21413     21416
     21412     21410     21413     21414     21412     21410     21413     21415
     21412     21410     21413     21416     21413     21416     21419     21420
     21413     21416     21419     21421     21413     21416     21419     21422
     21414     21413     21416     21417     21414     21413     21416     21418
     21414     21413     21416     21419     21415     21413     21416     21417
     21415     21413     21416     21418     21415     21413     21416     21419
     21416     21419     21422     21423     21416     21419     21422     21424
     21416     21419     21422     21425     21417     21416     21419     21420
     21417     21416     21419     21421     21417     21416     21419     21422
     21418     21416     21419     21420     21418     21416     21419     21421
     21418     21416     21419     21422     21419     21422     21425     21426
     21419     21422     21425     21427     21419     21422     21425     21428
     21420     21419     21422     21423     21420     21419     21422     21424
     21420     21419     21422     21425     21421     21419     21422     21423
     21421     21419     21422     21424     21421     21419     21422     21425
     21422     21425     21428     21429     21422     21425     21428     21430
     21422     21425     21428     21431     21423     21422     21425     21426
     21423     21422     21425     21427     21423     21422     21425     21428
     21424     21422     21425     21426     21424     21422     21425     21427
     21424     21422     21425     21428     21425     21428     21431     21432
     21425     21428     21431     21433     21425     21428     21431     21434
     21426     21425     21428     21429     21426     21425     21428     21430
     21426     21425     21428     21431     21427     21425     21428     21429
     21427     21425     21428     21430     21427     21425     21428     21431
     21428     21431     21434     21435     21428     21431     21434     21436
     21428     21431     21434     21437     21429     21428     21431     21432
     21429     21428     21431     21433     21429     21428     21431     21434
     21430     21428     21431     21432     21430     21428     21431     21433
     21430     21428     21431     21434     21431     21434     21437     21438
     21431     21434     21437     21439     21431     21434     21437     21440
     21432     21431     21434     21435     21432     21431     21434     21436
     21432     21431     21434     21437     21433     21431     21434     21435
     21433     21431     21434     21436     21433     21431     21434     21437
     21435     21434     21437     21438     21435     21434     21437     21439
     21435     21434     21437     21440     21436     21434     21437     21438
     21436     21434     21437     21439     21436     21434     21437     21440
     21441     21442     21457     21458     21441     21442     21457     21459
     21441     21442     21457     21463     21442     21441     21445     21446
     21442     21441     21445     21447     21442     21441     21445     21448
     21442     21441     21449     21450     21442     21441     21449     21451
     21442     21441     21449     21452     21442     21441     21453     21454
     21442     21441     21453     21455     21442     21441     21453     21456
     21442     21457     21463     21460     21443     21442     21441     21445
     21443     21442     21441     21449     21443     21442     21441     21453
     21443     21442     21457     21458     21443     21442     21457     21459
     21443     21442     21457     21463     21444     21442     21441     21445
     21444     21442     21441     21449     21444     21442     21441     21453
     21444     21442     21457     21458     21444     21442     21457     21459
     21444     21442     21457     21463     21445     21441     21442     21457
     21445     21441     21449     21450     21445     21441     21449     21451
     21445     21441     21449     21452     21445     21441     21453     21454
     21445     21441     21453     21455     21445     21441     21453     21456
     21446     21445     21441     21449     21446     21445     21441     21453
     21447     21445     21441     21449     21447     21445     21441     21453
     21448     21445     21441     21449     21448     21445     21441     21453
     21449     21441     21442     21457     21449     21441     21453     21454
     21449     21441     21453     21455     21449     21441     21453     21456
     21450     21449     21441     21453     21451     21449     21441     21453
     21452     21449     21441     21453     21453     21441     21442     21457
     21457     21463     21460     21461     21457     21463     21460     21462
     21457     21463     21460     21464     21458     21457     21463     21460
     21459     21457     21463     21460     21460     21464     21465     21466
     21460     21464     21465     21467     21460     21464     21465     21468
     21461     21460     21464     21465     21462     21460     21464     21465
     21463     21460     21464     21465     21464     21465     21468     21469
     21464     21465     21468     21470     21464     21465     21468     21476
     21465     21468     21470     21471     21465     21468     21476     21477
     21465     21468     21476     21478     21465     21468     21476     21479
     21466     21465     21468     21469     21466     21465     21468     21470
     21466     21465     21468     21476     21467     21465     21468     21469
     21467     21465     21468     21470     21467     21465     21468     21476
     21468     21470     21471     21472     21468     21470     21471     21473
     21468     21476     21479     21480     21469     21468     21470     21471
     21469     21468     21476     21477     21469     21468     21476     21478
     21469     21468     21476     21479     21470     21468     21476     21477
     21470     21468     21476     21478     21470     21468     21476     21479
     21470     21471     21473     21474     21470     21471     21473     21475
     21470     21471     21473     21485     21471     21470     21468     21476
     21471     21473     21485     21486     21471     21473     21485     21487
     21471     21473     21485     21488     21472     21471     21473     21474
     21472     21471     21473     21475     21472     21471     21473     21485
     21473     21485     21488     21489     21473     21485     21488     21490
     21473     21485     21488     21491     21474     21473     21485     21486
     21474     21473     21485     21487     21474     21473     21485     21488
     21475     21473     21485     21486     21475     21473     21485     21487
     21475     21473     21485     21488     21476     21479     21480     21481
     21476     21479     21480     21482     21477     21476     21479     21480
     21478     21476     21479     21480     21479     21480     21482     21483
     21479     21480     21482     21484     21479     21480     21482     21532
     21480     21482     21532     21533     21480     21482     21532     21534
     21480     21482     21532     21535     21481     21480     21482     21483
     21481     21480     21482     21484     21481     21480     21482     21532
     21482     21532     21535     21536     21482     21532     21535     21537
     21482     21532     21535     21538     21483     21482     21532     21533
     21483     21482     21532     21534     21483     21482     21532     21535
     21484     21482     21532     21533     21484     21482     21532     21534
     21484     21482     21532     21535     21485     21488     21491     21492
     21485     21488     21491     21493     21485     21488     21491     21494
     21486     21485     21488     21489     21486     21485     21488     21490
     21486     21485     21488     21491     21487     21485     21488     21489
     21487     21485     21488     21490     21487     21485     21488     21491
     21488     21491     21494     21495     21488     21491     21494     21496
     21488     21491     21494     21497     21489     21488     21491     21492
     21489     21488     21491     21493     21489     21488     21491     21494
     21490     21488     21491     21492     21490     21488     21491     21493
     21490     21488     21491     21494     21491     21494     21497     21498
     21491     21494     21497     21499     21491     21494     21497     21500
     21492     21491     21494     21495     21492     21491     21494     21496
     21492     21491     21494     21497     21493     21491     21494     21495
     21493     21491     21494     21496     21493     21491     21494     21497
     21494     21497     21500     21501     21494     21497     21500     21502
     21494     21497     21500     21503     21495     21494     21497     21498
     21495     21494     21497     21499     21495     21494     21497     21500
     21496     21494     21497     21498     21496     21494     21497     21499
     21496     21494     21497     21500     21497     21500     21503     21504
     21497     21500     21503     21505     21498     21497     21500     21501
     21498     21497     21500     21502     21498     21497     21500     21503
     21499     21497     21500     21501     21499     21497     21500     21502
     21499     21497     21500     21503     21500     21503     21505     21506
     21500     21503     21505     21507     21501     21500     21503     21504
     21501     21500     21503     21505     21502     21500     21503     21504
     21502     21500     21503     21505     21503     21505     21507     21508
     21503     21505     21507     21509     21503     21505     21507     21510
     21504     21503     21505     21506     21504     21503     21505     21507
     21505     21507     21510     21511     21505     21507     21510     21512
     21505     21507     21510     21513     21506     21505     21507     21508
     21506     21505     21507     21509     21506     21505     21507     21510
     21507     21510     21513     21514     21507     21510     21513     21515
     21507     21510     21513     21516     21508     21507     21510     21511
     21508     21507     21510     21512     21508     21507     21510     21513
     21509     21507     21510     21511     21509     21507     21510     21512
     21509     21507     21510     21513     21510     21513     21516     21517
     21510     21513     21516     21518     21510     21513     21516     21519
     21511     21510     21513     21514     21511     21510     21513     21515
     21511     21510     21513     21516     21512     21510     21513     21514
     21512     21510     21513     21515     21512     21510     21513     21516
     21513     21516     21519     21520     21513     21516     21519     21521
     21513     21516     21519     21522     21514     21513     21516     21517
     21514     21513     21516     21518     21514     21513     21516     21519
     21515     21513     21516     21517     21515     21513     21516     21518
     21515     21513     21516     21519     21516     21519     21522     21523
     21516     21519     21522     21524     21516     21519     21522     21525
     21517     21516     21519     21520     21517     21516     21519     21521
     21517     21516     21519     21522     21518     21516     21519     21520
     21518     21516     21519     21521     21518     21516     21519     21522
     21519     21522     21525     21526     21519     21522     21525     21527
     21519     21522     21525     21528     21520     21519     21522     21523
     21520     21519     21522     21524     21520     21519     21522     21525
     21521     21519     21522     21523     21521     21519     21522     21524
     21521     21519     21522     21525     21522     21525     21528     21529
     21522     21525     21528     21530     21522     21525     21528     21531
     21523     21522     21525     21526     21523     21522     21525     21527
     21523     21522     21525     21528     21524     21522     21525     21526
     21524     21522     21525     21527     21524     21522     21525     21528
     21526     21525     21528     21529     21526     21525     21528     21530
     21526     21525     21528     21531     21527     21525     21528     21529
     21527     21525     21528     21530     21527     21525     21528     21531
     21532     21535     21538     21539     21532     21535     21538     21540
     21532     21535     21538     21541     21533     21532     21535     21536
     21533     21532     21535     21537     21533     21532     21535     21538
     21534     21532     21535     21536     21534     21532     21535     21537
     21534     21532     21535     21538     21535     21538     21541     21542
     21535     21538     21541     21543     21535     21538     21541     21544
     21536     21535     21538     21539     21536     21535     21538     21540
     21536     21535     21538     21541     21537     21535     21538     21539
     21537     21535     21538     21540     21537     21535     21538     21541
     21538     21541     21544     21545     21538     21541     21544     21546
     21538     21541     21544     21547     21539     21538     21541     21542
     21539     21538     21541     21543     21539     21538     21541     21544
     21540     21538     21541     21542     21540     21538     21541     21543
     21540     21538     21541     21544     21541     21544     21547     21548
     21541     21544     21547     21549     21541     21544     21547     21550
     21542     21541     21544     21545     21542     21541     21544     21546
     21542     21541     21544     21547     21543     21541     21544     21545
     21543     21541     21544     21546     21543     21541     21544     21547
     21544     21547     21550     21551     21544     21547     21550     21552
     21544     21547     21550     21553     21545     21544     21547     21548
     21545     21544     21547     21549     21545     21544     21547     21550
     21546     21544     21547     21548     21546     21544     21547     21549
     21546     21544     21547     21550     21547     21550     21553     21554
     21547     21550     21553     21555     21547     21550     21553     21556
     21548     21547     21550     21551     21548     21547     21550     21552
     21548     21547     21550     21553     21549     21547     21550     21551
     21549     21547     21550     21552     21549     21547     21550     21553
     21550     21553     21556     21557     21550     21553     21556     21558
     21550     21553     21556     21559     21551     21550     21553     21554
     21551     21550     21553     21555     21551     21550     21553     21556
     21552     21550     21553     21554     21552     21550     21553     21555
     21552     21550     21553     21556     21553     21556     21559     21560
     21553     21556     21559     21561     21553     21556     21559     21562
     21554     21553     21556     21557     21554     21553     21556     21558
     21554     21553     21556     21559     21555     21553     21556     21557
     21555     21553     21556     21558     21555     21553     21556     21559
     21556     21559     21562     21563     21556     21559     21562     21564
     21556     21559     21562     21565     21557     21556     21559     21560
     21557     21556     21559     21561     21557     21556     21559     21562
     21558     21556     21559     21560     21558     21556     21559     21561
     21558     21556     21559     21562     21559     21562     21565     21566
     21559     21562     21565     21567     21559     21562     21565     21568
     21560     21559     21562     21563     21560     21559     21562     21564
     21560     21559     21562     21565     21561     21559     21562     21563
     21561     21559     21562     21564     21561     21559     21562     21565
     21562     21565     21568     21569     21562     21565     21568     21570
     21562     21565     21568     21571     21563     21562     21565     21566
     21563     21562     21565     21567     21563     21562     21565     21568
     21564     21562     21565     21566     21564     21562     21565     21567
     21564     21562     21565     21568     21565     21568     21571     21572
     21565     21568     21571     21573     21565     21568     21571     21574
     21566     21565     21568     21569     21566     21565     21568     21570
     21566     21565     21568     21571     21567     21565     21568     21569
     21567     21565     21568     21570     21567     21565     21568     21571
     21569     21568     21571     21572     21569     21568     21571     21573
     21569     21568     21571     21574     21570     21568     21571     21572
     21570     21568     21571     21573     21570     21568     21571     21574
     21575     21576     21591     21592     21575     21576     21591     21593
     21575     21576     21591     21597     21576     21575     21579     21580
     21576     21575     21579     21581     21576     21575     21579     21582
     21576     21575     21583     21584     21576     21575     21583     21585
     21576     21575     21583     21586     21576     21575     21587     21588
     21576     21575     21587     21589     21576     21575     21587     21590
     21576     21591     21597     21594     21577     21576     21575     21579
     21577     21576     21575     21583     21577     21576     21575     21587
     21577     21576     21591     21592     21577     21576     21591     21593
     21577     21576     21591     21597     21578     21576     21575     21579
     21578     21576     21575     21583     21578     21576     21575     21587
     21578     21576     21591     21592     21578     21576     21591     21593
     21578     21576     21591     21597     21579     21575     21576     21591
     21579     21575     21583     21584     21579     21575     21583     21585
     21579     21575     21583     21586     21579     21575     21587     21588
     21579     21575     21587     21589     21579     21575     21587     21590
     21580     21579     21575     21583     21580     21579     21575     21587
     21581     21579     21575     21583     21581     21579     21575     21587
     21582     21579     21575     21583     21582     21579     21575     21587
     21583     21575     21576     21591     21583     21575     21587     21588
     21583     21575     21587     21589     21583     21575     21587     21590
     21584     21583     21575     21587     21585     21583     21575     21587
     21586     21583     21575     21587     21587     21575     21576     21591
     21591     21597     21594     21595     21591     21597     21594     21596
     21591     21597     21594     21598     21592     21591     21597     21594
     21593     21591     21597     21594     21594     21598     21599     21600
     21594     21598     21599     21601     21594     21598     21599     21602
     21595     21594     21598     21599     21596     21594     21598     21599
     21597     21594     21598     21599     21598     21599     21602     21603
     21598     21599     21602     21604     21598     21599     21602     21610
     21599     21602     21604     21605     21599     21602     21610     21611
     21599     21602     21610     21612     21599     21602     21610     21613
     21600     21599     21602     21603     21600     21599     21602     21604
     21600     21599     21602     21610     21601     21599     21602     21603
     21601     21599     21602     21604     21601     21599     21602     21610
     21602     21604     21605     21606     21602     21604     21605     21607
     21602     21610     21613     21614     21603     21602     21604     21605
     21603     21602     21610     21611     21603     21602     21610     21612
     21603     21602     21610     21613     21604     21602     21610     21611
     21604     21602     21610     21612     21604     21602     21610     21613
     21604     21605     21607     21608     21604     21605     21607     21609
     21604     21605     21607     21619     21605     21604     21602     21610
     21605     21607     21619     21620     21605     21607     21619     21621
     21605     21607     21619     21622     21606     21605     21607     21608
     21606     21605     21607     21609     21606     21605     21607     21619
     21607     21619     21622     21623     21607     21619     21622     21624
     21607     21619     21622     21625     21608     21607     21619     21620
     21608     21607     21619     21621     21608     21607     21619     21622
     21609     21607     21619     21620     21609     21607     21619     21621
     21609     21607     21619     21622     21610     21613     21614     21615
     21610     21613     21614     21616     21611     21610     21613     21614
     21612     21610     21613     21614     21613     21614     21616     21617
     21613     21614     21616     21618     21613     21614     21616     21666
     21614     21616     21666     21667     21614     21616     21666     21668
     21614     21616     21666     21669     21615     21614     21616     21617
     21615     21614     21616     21618     21615     21614     21616     21666
     21616     21666     21669     21670     21616     21666     21669     21671
     21616     21666     21669     21672     21617     21616     21666     21667
     21617     21616     21666     21668     21617     21616     21666     21669
     21618     21616     21666     21667     21618     21616     21666     21668
     21618     21616     21666     21669     21619     21622     21625     21626
     21619     21622     21625     21627     21619     21622     21625     21628
     21620     21619     21622     21623     21620     21619     21622     21624
     21620     21619     21622     21625     21621     21619     21622     21623
     21621     21619     21622     21624     21621     21619     21622     21625
     21622     21625     21628     21629     21622     21625     21628     21630
     21622     21625     21628     21631     21623     21622     21625     21626
     21623     21622     21625     21627     21623     21622     21625     21628
     21624     21622     21625     21626     21624     21622     21625     21627
     21624     21622     21625     21628     21625     21628     21631     21632
     21625     21628     21631     21633     21625     21628     21631     21634
     21626     21625     21628     21629     21626     21625     21628     21630
     21626     21625     21628     21631     21627     21625     21628     21629
     21627     21625     21628     21630     21627     21625     21628     21631
     21628     21631     21634     21635     21628     21631     21634     21636
     21628     21631     21634     21637     21629     21628     21631     21632
     21629     21628     21631     21633     21629     21628     21631     21634
     21630     21628     21631     21632     21630     21628     21631     21633
     21630     21628     21631     21634     21631     21634     21637     21638
     21631     21634     21637     21639     21632     21631     21634     21635
     21632     21631     21634     21636     21632     21631     21634     21637
     21633     21631     21634     21635     21633     21631     21634     21636
     21633     21631     21634     21637     21634     21637     21639     21640
     21634     21637     21639     21641     21635     21634     21637     21638
     21635     21634     21637     21639     21636     21634     21637     21638
     21636     21634     21637     21639     21637     21639     21641     21642
     21637     21639     21641     21643     21637     21639     21641     21644
     21638     21637     21639     21640     21638     21637     21639     21641
     21639     21641     21644     21645     21639     21641     21644     21646
     21639     21641     21644     21647     21640     21639     21641     21642
     21640     21639     21641     21643     21640     21639     21641     21644
     21641     21644     21647     21648     21641     21644     21647     21649
     21641     21644     21647     21650     21642     21641     21644     21645
     21642     21641     21644     21646     21642     21641     21644     21647
     21643     21641     21644     21645     21643     21641     21644     21646
     21643     21641     21644     21647     21644     21647     21650     21651
     21644     21647     21650     21652     21644     21647     21650     21653
     21645     21644     21647     21648     21645     21644     21647     21649
     21645     21644     21647     21650     21646     21644     21647     21648
     21646     21644     21647     21649     21646     21644     21647     21650
     21647     21650     21653     21654     21647     21650     21653     21655
     21647     21650     21653     21656     21648     21647     21650     21651
     21648     21647     21650     21652     21648     21647     21650     21653
     21649     21647     21650     21651     21649     21647     21650     21652
     21649     21647     21650     21653     21650     21653     21656     21657
     21650     21653     21656     21658     21650     21653     21656     21659
     21651     21650     21653     21654     21651     21650     21653     21655
     21651     21650     21653     21656     21652     21650     21653     21654
     21652     21650     21653     21655     21652     21650     21653     21656
     21653     21656     21659     21660     21653     21656     21659     21661
     21653     21656     21659     21662     21654     21653     21656     21657
     21654     21653     21656     21658     21654     21653     21656     21659
     21655     21653     21656     21657     21655     21653     21656     21658
     21655     21653     21656     21659     21656     21659     21662     21663
     21656     21659     21662     21664     21656     21659     21662     21665
     21657     21656     21659     21660     21657     21656     21659     21661
     21657     21656     21659     21662     21658     21656     21659     21660
     21658     21656     21659     21661     21658     21656     21659     21662
     21660     21659     21662     21663     21660     21659     21662     21664
     21660     21659     21662     21665     21661     21659     21662     21663
     21661     21659     21662     21664     21661     21659     21662     21665
     21666     21669     21672     21673     21666     21669     21672     21674
     21666     21669     21672     21675     21667     21666     21669     21670
     21667     21666     21669     21671     21667     21666     21669     21672
     21668     21666     21669     21670     21668     21666     21669     21671
     21668     21666     21669     21672     21669     21672     21675     21676
     21669     21672     21675     21677     21669     21672     21675     21678
     21670     21669     21672     21673     21670     21669     21672     21674
     21670     21669     21672     21675     21671     21669     21672     21673
     21671     21669     21672     21674     21671     21669     21672     21675
     21672     21675     21678     21679     21672     21675     21678     21680
     21672     21675     21678     21681     21673     21672     21675     21676
     21673     21672     21675     21677     21673     21672     21675     21678
     21674     21672     21675     21676     21674     21672     21675     21677
     21674     21672     21675     21678     21675     21678     21681     21682
     21675     21678     21681     21683     21675     21678     21681     21684
     21676     21675     21678     21679     21676     21675     21678     21680
     21676     21675     21678     21681     21677     21675     21678     21679
     21677     21675     21678     21680     21677     21675     21678     21681
     21678     21681     21684     21685     21678     21681     21684     21686
     21678     21681     21684     21687     21679     21678     21681     21682
     21679     21678     21681     21683     21679     21678     21681     21684
     21680     21678     21681     21682     21680     21678     21681     21683
     21680     21678     21681     21684     21681     21684     21687     21688
     21681     21684     21687     21689     21681     21684     21687     21690
     21682     21681     21684     21685     21682     21681     21684     21686
     21682     21681     21684     21687     21683     21681     21684     21685
     21683     21681     21684     21686     21683     21681     21684     21687
     21684     21687     21690     21691     21684     21687     21690     21692
     21684     21687     21690     21693     21685     21684     21687     21688
     21685     21684     21687     21689     21685     21684     21687     21690
     21686     21684     21687     21688     21686     21684     21687     21689
     21686     21684     21687     21690     21687     21690     21693     21694
     21687     21690     21693     21695     21687     21690     21693     21696
     21688     21687     21690     21691     21688     21687     21690     21692
     21688     21687     21690     21693     21689     21687     21690     21691
     21689     21687     21690     21692     21689     21687     21690     21693
     21690     21693     21696     21697     21690     21693     21696     21698
     21690     21693     21696     21699     21691     21690     21693     21694
     21691     21690     21693     21695     21691     21690     21693     21696
     21692     21690     21693     21694     21692     21690     21693     21695
     21692     21690     21693     21696     21693     21696     21699     21700
     21693     21696     21699     21701     21693     21696     21699     21702
     21694     21693     21696     21697     21694     21693     21696     21698
     21694     21693     21696     21699     21695     21693     21696     21697
     21695     21693     21696     21698     21695     21693     21696     21699
     21696     21699     21702     21703     21696     21699     21702     21704
     21696     21699     21702     21705     21697     21696     21699     21700
     21697     21696     21699     21701     21697     21696     21699     21702
     21698     21696     21699     21700     21698     21696     21699     21701
     21698     21696     21699     21702     21699     21702     21705     21706
     21699     21702     21705     21707     21699     21702     21705     21708
     21700     21699     21702     21703     21700     21699     21702     21704
     21700     21699     21702     21705     21701     21699     21702     21703
     21701     21699     21702     21704     21701     21699     21702     21705
     21703     21702     21705     21706     21703     21702     21705     21707
     21703     21702     21705     21708     21704     21702     21705     21706
     21704     21702     21705     21707     21704     21702     21705     21708
     21709     21710     21725     21726     21709     21710     21725     21727
     21709     21710     21725     21731     21710     21709     21713     21714
     21710     21709     21713     21715     21710     21709     21713     21716
     21710     21709     21717     21718     21710     21709     21717     21719
     21710     21709     21717     21720     21710     21709     21721     21722
     21710     21709     21721     21723     21710     21709     21721     21724
     21710     21725     21731     21728     21711     21710     21709     21713
     21711     21710     21709     21717     21711     21710     21709     21721
     21711     21710     21725     21726     21711     21710     21725     21727
     21711     21710     21725     21731     21712     21710     21709     21713
     21712     21710     21709     21717     21712     21710     21709     21721
     21712     21710     21725     21726     21712     21710     21725     21727
     21712     21710     21725     21731     21713     21709     21710     21725
     21713     21709     21717     21718     21713     21709     21717     21719
     21713     21709     21717     21720     21713     21709     21721     21722
     21713     21709     21721     21723     21713     21709     21721     21724
     21714     21713     21709     21717     21714     21713     21709     21721
     21715     21713     21709     21717     21715     21713     21709     21721
     21716     21713     21709     21717     21716     21713     21709     21721
     21717     21709     21710     21725     21717     21709     21721     21722
     21717     21709     21721     21723     21717     21709     21721     21724
     21718     21717     21709     21721     21719     21717     21709     21721
     21720     21717     21709     21721     21721     21709     21710     21725
     21725     21731     21728     21729     21725     21731     21728     21730
     21725     21731     21728     21732     21726     21725     21731     21728
     21727     21725     21731     21728     21728     21732     21733     21734
     21728     21732     21733     21735     21728     21732     21733     21736
     21729     21728     21732     21733     21730     21728     21732     21733
     21731     21728     21732     21733     21732     21733     21736     21737
     21732     21733     21736     21738     21732     21733     21736     21744
     21733     21736     21738     21739     21733     21736     21744     21745
     21733     21736     21744     21746     21733     21736     21744     21747
     21734     21733     21736     21737     21734     21733     21736     21738
     21734     21733     21736     21744     21735     21733     21736     21737
     21735     21733     21736     21738     21735     21733     21736     21744
     21736     21738     21739     21740     21736     21738     21739     21741
     21736     21744     21747     21748     21737     21736     21738     21739
     21737     21736     21744     21745     21737     21736     21744     21746
     21737     21736     21744     21747     21738     21736     21744     21745
     21738     21736     21744     21746     21738     21736     21744     21747
     21738     21739     21741     21742     21738     21739     21741     21743
     21738     21739     21741     21753     21739     21738     21736     21744
     21739     21741     21753     21754     21739     21741     21753     21755
     21739     21741     21753     21756     21740     21739     21741     21742
     21740     21739     21741     21743     21740     21739     21741     21753
     21741     21753     21756     21757     21741     21753     21756     21758
     21741     21753     21756     21759     21742     21741     21753     21754
     21742     21741     21753     21755     21742     21741     21753     21756
     21743     21741     21753     21754     21743     21741     21753     21755
     21743     21741     21753     21756     21744     21747     21748     21749
     21744     21747     21748     21750     21745     21744     21747     21748
     21746     21744     21747     21748     21747     21748     21750     21751
     21747     21748     21750     21752     21747     21748     21750     21800
     21748     21750     21800     21801     21748     21750     21800     21802
     21748     21750     21800     21803     21749     21748     21750     21751
     21749     21748     21750     21752     21749     21748     21750     21800
     21750     21800     21803     21804     21750     21800     21803     21805
     21750     21800     21803     21806     21751     21750     21800     21801
     21751     21750     21800     21802     21751     21750     21800     21803
     21752     21750     21800     21801     21752     21750     21800     21802
     21752     21750     21800     21803     21753     21756     21759     21760
     21753     21756     21759     21761     21753     21756     21759     21762
     21754     21753     21756     21757     21754     21753     21756     21758
     21754     21753     21756     21759     21755     21753     21756     21757
     21755     21753     21756     21758     21755     21753     21756     21759
     21756     21759     21762     21763     21756     21759     21762     21764
     21756     21759     21762     21765     21757     21756     21759     21760
     21757     21756     21759     21761     21757     21756     21759     21762
     21758     21756     21759     21760     21758     21756     21759     21761
     21758     21756     21759     21762     21759     21762     21765     21766
     21759     21762     21765     21767     21759     21762     21765     21768
     21760     21759     21762     21763     21760     21759     21762     21764
     21760     21759     21762     21765     21761     21759     21762     21763
     21761     21759     21762     21764     21761     21759     21762     21765
     21762     21765     21768     21769     21762     21765     21768     21770
     21762     21765     21768     21771     21763     21762     21765     21766
     21763     21762     21765     21767     21763     21762     21765     21768
     21764     21762     21765     21766     21764     21762     21765     21767
     21764     21762     21765     21768     21765     21768     21771     21772
     21765     21768     21771     21773     21766     21765     21768     21769
     21766     21765     21768     21770     21766     21765     21768     21771
     21767     21765     21768     21769     21767     21765     21768     21770
     21767     21765     21768     21771     21768     21771     21773     21774
     21768     21771     21773     21775     21769     21768     21771     21772
     21769     21768     21771     21773     21770     21768     21771     21772
     21770     21768     21771     21773     21771     21773     21775     21776
     21771     21773     21775     21777     21771     21773     21775     21778
     21772     21771     21773     21774     21772     21771     21773     21775
     21773     21775     21778     21779     21773     21775     21778     21780
     21773     21775     21778     21781     21774     21773     21775     21776
     21774     21773     21775     21777     21774     21773     21775     21778
     21775     21778     21781     21782     21775     21778     21781     21783
     21775     21778     21781     21784     21776     21775     21778     21779
     21776     21775     21778     21780     21776     21775     21778     21781
     21777     21775     21778     21779     21777     21775     21778     21780
     21777     21775     21778     21781     21778     21781     21784     21785
     21778     21781     21784     21786     21778     21781     21784     21787
     21779     21778     21781     21782     21779     21778     21781     21783
     21779     21778     21781     21784     21780     21778     21781     21782
     21780     21778     21781     21783     21780     21778     21781     21784
     21781     21784     21787     21788     21781     21784     21787     21789
     21781     21784     21787     21790     21782     21781     21784     21785
     21782     21781     21784     21786     21782     21781     21784     21787
     21783     21781     21784     21785     21783     21781     21784     21786
     21783     21781     21784     21787     21784     21787     21790     21791
     21784     21787     21790     21792     21784     21787     21790     21793
     21785     21784     21787     21788     21785     21784     21787     21789
     21785     21784     21787     21790     21786     21784     21787     21788
     21786     21784     21787     21789     21786     21784     21787     21790
     21787     21790     21793     21794     21787     21790     21793     21795
     21787     21790     21793     21796     21788     21787     21790     21791
     21788     21787     21790     21792     21788     21787     21790     21793
     21789     21787     21790     21791     21789     21787     21790     21792
     21789     21787     21790     21793     21790     21793     21796     21797
     21790     21793     21796     21798     21790     21793     21796     21799
     21791     21790     21793     21794     21791     21790     21793     21795
     21791     21790     21793     21796     21792     21790     21793     21794
     21792     21790     21793     21795     21792     21790     21793     21796
     21794     21793     21796     21797     21794     21793     21796     21798
     21794     21793     21796     21799     21795     21793     21796     21797
     21795     21793     21796     21798     21795     21793     21796     21799
     21800     21803     21806     21807     21800     21803     21806     21808
     21800     21803     21806     21809     21801     21800     21803     21804
     21801     21800     21803     21805     21801     21800     21803     21806
     21802     21800     21803     21804     21802     21800     21803     21805
     21802     21800     21803     21806     21803     21806     21809     21810
     21803     21806     21809     21811     21803     21806     21809     21812
     21804     21803     21806     21807     21804     21803     21806     21808
     21804     21803     21806     21809     21805     21803     21806     21807
     21805     21803     21806     21808     21805     21803     21806     21809
     21806     21809     21812     21813     21806     21809     21812     21814
     21806     21809     21812     21815     21807     21806     21809     21810
     21807     21806     21809     21811     21807     21806     21809     21812
     21808     21806     21809     21810     21808     21806     21809     21811
     21808     21806     21809     21812     21809     21812     21815     21816
     21809     21812     21815     21817     21809     21812     21815     21818
     21810     21809     21812     21813     21810     21809     21812     21814
     21810     21809     21812     21815     21811     21809     21812     21813
     21811     21809     21812     21814     21811     21809     21812     21815
     21812     21815     21818     21819     21812     21815     21818     21820
     21812     21815     21818     21821     21813     21812     21815     21816
     21813     21812     21815     21817     21813     21812     21815     21818
     21814     21812     21815     21816     21814     21812     21815     21817
     21814     21812     21815     21818     21815     21818     21821     21822
     21815     21818     21821     21823     21815     21818     21821     21824
     21816     21815     21818     21819     21816     21815     21818     21820
     21816     21815     21818     21821     21817     21815     21818     21819
     21817     21815     21818     21820     21817     21815     21818     21821
     21818     21821     21824     21825     21818     21821     21824     21826
     21818     21821     21824     21827     21819     21818     21821     21822
     21819     21818     21821     21823     21819     21818     21821     21824
     21820     21818     21821     21822     21820     21818     21821     21823
     21820     21818     21821     21824     21821     21824     21827     21828
     21821     21824     21827     21829     21821     21824     21827     21830
     21822     21821     21824     21825     21822     21821     21824     21826
     21822     21821     21824     21827     21823     21821     21824     21825
     21823     21821     21824     21826     21823     21821     21824     21827
     21824     21827     21830     21831     21824     21827     21830     21832
     21824     21827     21830     21833     21825     21824     21827     21828
     21825     21824     21827     21829     21825     21824     21827     21830
     21826     21824     21827     21828     21826     21824     21827     21829
     21826     21824     21827     21830     21827     21830     21833     21834
     21827     21830     21833     21835     21827     21830     21833     21836
     21828     21827     21830     21831     21828     21827     21830     21832
     21828     21827     21830     21833     21829     21827     21830     21831
     21829     21827     21830     21832     21829     21827     21830     21833
     21830     21833     21836     21837     21830     21833     21836     21838
     21830     21833     21836     21839     21831     21830     21833     21834
     21831     21830     21833     21835     21831     21830     21833     21836
     21832     21830     21833     21834     21832     21830     21833     21835
     21832     21830     21833     21836     21833     21836     21839     21840
     21833     21836     21839     21841     21833     21836     21839     21842
     21834     21833     21836     21837     21834     21833     21836     21838
     21834     21833     21836     21839     21835     21833     21836     21837
     21835     21833     21836     21838     21835     21833     21836     21839
     21837     21836     21839     21840     21837     21836     21839     21841
     21837     21836     21839     21842     21838     21836     21839     21840
     21838     21836     21839     21841     21838     21836     21839     21842
     21843     21844     21859     21860     21843     21844     21859     21861
     21843     21844     21859     21865     21844     21843     21847     21848
     21844     21843     21847     21849     21844     21843     21847     21850
     21844     21843     21851     21852     21844     21843     21851     21853
     21844     21843     21851     21854     21844     21843     21855     21856
     21844     21843     21855     21857     21844     21843     21855     21858
     21844     21859     21865     21862     21845     21844     21843     21847
     21845     21844     21843     21851     21845     21844     21843     21855
     21845     21844     21859     21860     21845     21844     21859     21861
     21845     21844     21859     21865     21846     21844     21843     21847
     21846     21844     21843     21851     21846     21844     21843     21855
     21846     21844     21859     21860     21846     21844     21859     21861
     21846     21844     21859     21865     21847     21843     21844     21859
     21847     21843     21851     21852     21847     21843     21851     21853
     21847     21843     21851     21854     21847     21843     21855     21856
     21847     21843     21855     21857     21847     21843     21855     21858
     21848     21847     21843     21851     21848     21847     21843     21855
     21849     21847     21843     21851     21849     21847     21843     21855
     21850     21847     21843     21851     21850     21847     21843     21855
     21851     21843     21844     21859     21851     21843     21855     21856
     21851     21843     21855     21857     21851     21843     21855     21858
     21852     21851     21843     21855     21853     21851     21843     21855
     21854     21851     21843     21855     21855     21843     21844     21859
     21859     21865     21862     21863     21859     21865     21862     21864
     21859     21865     21862     21866     21860     21859     21865     21862
     21861     21859     21865     21862     21862     21866     21867     21868
     21862     21866     21867     21869     21862     21866     21867     21870
     21863     21862     21866     21867     21864     21862     21866     21867
     21865     21862     21866     21867     21866     21867     21870     21871
     21866     21867     21870     21872     21866     21867     21870     21878
     21867     21870     21872     21873     21867     21870     21878     21879
     21867     21870     21878     21880     21867     21870     21878     21881
     21868     21867     21870     21871     21868     21867     21870     21872
     21868     21867     21870     21878     21869     21867     21870     21871
     21869     21867     21870     21872     21869     21867     21870     21878
     21870     21872     21873     21874     21870     21872     21873     21875
     21870     21878     21881     21882     21871     21870     21872     21873
     21871     21870     21878     21879     21871     21870     21878     21880
     21871     21870     21878     21881     21872     21870     21878     21879
     21872     21870     21878     21880     21872     21870     21878     21881
     21872     21873     21875     21876     21872     21873     21875     21877
     21872     21873     21875     21887     21873     21872     21870     21878
     21873     21875     21887     21888     21873     21875     21887     21889
     21873     21875     21887     21890     21874     21873     21875     21876
     21874     21873     21875     21877     21874     21873     21875     21887
     21875     21887     21890     21891     21875     21887     21890     21892
     21875     21887     21890     21893     21876     21875     21887     21888
     21876     21875     21887     21889     21876     21875     21887     21890
     21877     21875     21887     21888     21877     21875     21887     21889
     21877     21875     21887     21890     21878     21881     21882     21883
     21878     21881     21882     21884     21879     21878     21881     21882
     21880     21878     21881     21882     21881     21882     21884     21885
     21881     21882     21884     21886     21881     21882     21884     21934
     21882     21884     21934     21935     21882     21884     21934     21936
     21882     21884     21934     21937     21883     21882     21884     21885
     21883     21882     21884     21886     21883     21882     21884     21934
     21884     21934     21937     21938     21884     21934     21937     21939
     21884     21934     21937     21940     21885     21884     21934     21935
     21885     21884     21934     21936     21885     21884     21934     21937
     21886     21884     21934     21935     21886     21884     21934     21936
     21886     21884     21934     21937     21887     21890     21893     21894
     21887     21890     21893     21895     21887     21890     21893     21896
     21888     21887     21890     21891     21888     21887     21890     21892
     21888     21887     21890     21893     21889     21887     21890     21891
     21889     21887     21890     21892     21889     21887     21890     21893
     21890     21893     21896     21897     21890     21893     21896     21898
     21890     21893     21896     21899     21891     21890     21893     21894
     21891     21890     21893     21895     21891     21890     21893     21896
     21892     21890     21893     21894     21892     21890     21893     21895
     21892     21890     21893     21896     21893     21896     21899     21900
     21893     21896     21899     21901     21893     21896     21899     21902
     21894     21893     21896     21897     21894     21893     21896     21898
     21894     21893     21896     21899     21895     21893     21896     21897
     21895     21893     21896     21898     21895     21893     21896     21899
     21896     21899     21902     21903     21896     21899     21902     21904
     21896     21899     21902     21905     21897     21896     21899     21900
     21897     21896     21899     21901     21897     21896     21899     21902
     21898     21896     21899     21900     21898     21896     21899     21901
     21898     21896     21899     21902     21899     21902     21905     21906
     21899     21902     21905     21907     21900     21899     21902     21903
     21900     21899     21902     21904     21900     21899     21902     21905
     21901     21899     21902     21903     21901     21899     21902     21904
     21901     21899     21902     21905     21902     21905     21907     21908
     21902     21905     21907     21909     21903     21902     21905     21906
     21903     21902     21905     21907     21904     21902     21905     21906
     21904     21902     21905     21907     21905     21907     21909     21910
     21905     21907     21909     21911     21905     21907     21909     21912
     21906     21905     21907     21908     21906     21905     21907     21909
     21907     21909     21912     21913     21907     21909     21912     21914
     21907     21909     21912     21915     21908     21907     21909     21910
     21908     21907     21909     21911     21908     21907     21909     21912
     21909     21912     21915     21916     21909     21912     21915     21917
     21909     21912     21915     21918     21910     21909     21912     21913
     21910     21909     21912     21914     21910     21909     21912     21915
     21911     21909     21912     21913     21911     21909     21912     21914
     21911     21909     21912     21915     21912     21915     21918     21919
     21912     21915     21918     21920     21912     21915     21918     21921
     21913     21912     21915     21916     21913     21912     21915     21917
     21913     21912     21915     21918     21914     21912     21915     21916
     21914     21912     21915     21917     21914     21912     21915     21918
     21915     21918     21921     21922     21915     21918     21921     21923
     21915     21918     21921     21924     21916     21915     21918     21919
     21916     21915     21918     21920     21916     21915     21918     21921
     21917     21915     21918     21919     21917     21915     21918     21920
     21917     21915     21918     21921     21918     21921     21924     21925
     21918     21921     21924     21926     21918     21921     21924     21927
     21919     21918     21921     21922     21919     21918     21921     21923
     21919     21918     21921     21924     21920     21918     21921     21922
     21920     21918     21921     21923     21920     21918     21921     21924
     21921     21924     21927     21928     21921     21924     21927     21929
     21921     21924     21927     21930     21922     21921     21924     21925
     21922     21921     21924     21926     21922     21921     21924     21927
     21923     21921     21924     21925     21923     21921     21924     21926
     21923     21921     21924     21927     21924     21927     21930     21931
     21924     21927     21930     21932     21924     21927     21930     21933
     21925     21924     21927     21928     21925     21924     21927     21929
     21925     21924     21927     21930     21926     21924     21927     21928
     21926     21924     21927     21929     21926     21924     21927     21930
     21928     21927     21930     21931     21928     21927     21930     21932
     21928     21927     21930     21933     21929     21927     21930     21931
     21929     21927     21930     21932     21929     21927     21930     21933
     21934     21937     21940     21941     21934     21937     21940     21942
     21934     21937     21940     21943     21935     21934     21937     21938
     21935     21934     21937     21939     21935     21934     21937     21940
     21936     21934     21937     21938     21936     21934     21937     21939
     21936     21934     21937     21940     21937     21940     21943     21944
     21937     21940     21943     21945     21937     21940     21943     21946
     21938     21937     21940     21941     21938     21937     21940     21942
     21938     21937     21940     21943     21939     21937     21940     21941
     21939     21937     21940     21942     21939     21937     21940     21943
     21940     21943     21946     21947     21940     21943     21946     21948
     21940     21943     21946     21949     21941     21940     21943     21944
     21941     21940     21943     21945     21941     21940     21943     21946
     21942     21940     21943     21944     21942     21940     21943     21945
     21942     21940     21943     21946     21943     21946     21949     21950
     21943     21946     21949     21951     21943     21946     21949     21952
     21944     21943     21946     21947     21944     21943     21946     21948
     21944     21943     21946     21949     21945     21943     21946     21947
     21945     21943     21946     21948     21945     21943     21946     21949
     21946     21949     21952     21953     21946     21949     21952     21954
     21946     21949     21952     21955     21947     21946     21949     21950
     21947     21946     21949     21951     21947     21946     21949     21952
     21948     21946     21949     21950     21948     21946     21949     21951
     21948     21946     21949     21952     21949     21952     21955     21956
     21949     21952     21955     21957     21949     21952     21955     21958
     21950     21949     21952     21953     21950     21949     21952     21954
     21950     21949     21952     21955     21951     21949     21952     21953
     21951     21949     21952     21954     21951     21949     21952     21955
     21952     21955     21958     21959     21952     21955     21958     21960
     21952     21955     21958     21961     21953     21952     21955     21956
     21953     21952     21955     21957     21953     21952     21955     21958
     21954     21952     21955     21956     21954     21952     21955     21957
     21954     21952     21955     21958     21955     21958     21961     21962
     21955     21958     21961     21963     21955     21958     21961     21964
     21956     21955     21958     21959     21956     21955     21958     21960
     21956     21955     21958     21961     21957     21955     21958     21959
     21957     21955     21958     21960     21957     21955     21958     21961
     21958     21961     21964     21965     21958     21961     21964     21966
     21958     21961     21964     21967     21959     21958     21961     21962
     21959     21958     21961     21963     21959     21958     21961     21964
     21960     21958     21961     21962     21960     21958     21961     21963
     21960     21958     21961     21964     21961     21964     21967     21968
     21961     21964     21967     21969     21961     21964     21967     21970
     21962     21961     21964     21965     21962     21961     21964     21966
     21962     21961     21964     21967     21963     21961     21964     21965
     21963     21961     21964     21966     21963     21961     21964     21967
     21964     21967     21970     21971     21964     21967     21970     21972
     21964     21967     21970     21973     21965     21964     21967     21968
     21965     21964     21967     21969     21965     21964     21967     21970
     21966     21964     21967     21968     21966     21964     21967     21969
     21966     21964     21967     21970     21967     21970     21973     21974
     21967     21970     21973     21975     21967     21970     21973     21976
     21968     21967     21970     21971     21968     21967     21970     21972
     21968     21967     21970     21973     21969     21967     21970     21971
     21969     21967     21970     21972     21969     21967     21970     21973
     21971     21970     21973     21974     21971     21970     21973     21975
     21971     21970     21973     21976     21972     21970     21973     21974
     21972     21970     21973     21975     21972     21970     21973     21976
     21977     21978     21993     21994     21977     21978     21993     21995
     21977     21978     21993     21999     21978     21977     21981     21982
     21978     21977     21981     21983     21978     21977     21981     21984
     21978     21977     21985     21986     21978     21977     21985     21987
     21978     21977     21985     21988     21978     21977     21989     21990
     21978     21977     21989     21991     21978     21977     21989     21992
     21978     21993     21999     21996     21979     21978     21977     21981
     21979     21978     21977     21985     21979     21978     21977     21989
     21979     21978     21993     21994     21979     21978     21993     21995
     21979     21978     21993     21999     21980     21978     21977     21981
     21980     21978     21977     21985     21980     21978     21977     21989
     21980     21978     21993     21994     21980     21978     21993     21995
     21980     21978     21993     21999     21981     21977     21978     21993
     21981     21977     21985     21986     21981     21977     21985     21987
     21981     21977     21985     21988     21981     21977     21989     21990
     21981     21977     21989     21991     21981     21977     21989     21992
     21982     21981     21977     21985     21982     21981     21977     21989
     21983     21981     21977     21985     21983     21981     21977     21989
     21984     21981     21977     21985     21984     21981     21977     21989
     21985     21977     21978     21993     21985     21977     21989     21990
     21985     21977     21989     21991     21985     21977     21989     21992
     21986     21985     21977     21989     21987     21985     21977     21989
     21988     21985     21977     21989     21989     21977     21978     21993
     21993     21999     21996     21997     21993     21999     21996     21998
     21993     21999     21996     22000     21994     21993     21999     21996
     21995     21993     21999     21996     21996     22000     22001     22002
     21996     22000     22001     22003     21996     22000     22001     22004
     21997     21996     22000     22001     21998     21996     22000     22001
     21999     21996     22000     22001     22000     22001     22004     22005
     22000     22001     22004     22006     22000     22001     22004     22012
     22001     22004     22006     22007     22001     22004     22012     22013
     22001     22004     22012     22014     22001     22004     22012     22015
     22002     22001     22004     22005     22002     22001     22004     22006
     22002     22001     22004     22012     22003     22001     22004     22005
     22003     22001     22004     22006     22003     22001     22004     22012
     22004     22006     22007     22008     22004     22006     22007     22009
     22004     22012     22015     22016     22005     22004     22006     22007
     22005     22004     22012     22013     22005     22004     22012     22014
     22005     22004     22012     22015     22006     22004     22012     22013
     22006     22004     22012     22014     22006     22004     22012     22015
     22006     22007     22009     22010     22006     22007     22009     22011
     22006     22007     22009     22021     22007     22006     22004     22012
     22007     22009     22021     22022     22007     22009     22021     22023
     22007     22009     22021     22024     22008     22007     22009     22010
     22008     22007     22009     22011     22008     22007     22009     22021
     22009     22021     22024     22025     22009     22021     22024     22026
     22009     22021     22024     22027     22010     22009     22021     22022
     22010     22009     22021     22023     22010     22009     22021     22024
     22011     22009     22021     22022     22011     22009     22021     22023
     22011     22009     22021     22024     22012     22015     22016     22017
     22012     22015     22016     22018     22013     22012     22015     22016
     22014     22012     22015     22016     22015     22016     22018     22019
     22015     22016     22018     22020     22015     22016     22018     22068
     22016     22018     22068     22069     22016     22018     22068     22070
     22016     22018     22068     22071     22017     22016     22018     22019
     22017     22016     22018     22020     22017     22016     22018     22068
     22018     22068     22071     22072     22018     22068     22071     22073
     22018     22068     22071     22074     22019     22018     22068     22069
     22019     22018     22068     22070     22019     22018     22068     22071
     22020     22018     22068     22069     22020     22018     22068     22070
     22020     22018     22068     22071     22021     22024     22027     22028
     22021     22024     22027     22029     22021     22024     22027     22030
     22022     22021     22024     22025     22022     22021     22024     22026
     22022     22021     22024     22027     22023     22021     22024     22025
     22023     22021     22024     22026     22023     22021     22024     22027
     22024     22027     22030     22031     22024     22027     22030     22032
     22024     22027     22030     22033     22025     22024     22027     22028
     22025     22024     22027     22029     22025     22024     22027     22030
     22026     22024     22027     22028     22026     22024     22027     22029
     22026     22024     22027     22030     22027     22030     22033     22034
     22027     22030     22033     22035     22027     22030     22033     22036
     22028     22027     22030     22031     22028     22027     22030     22032
     22028     22027     22030     22033     22029     22027     22030     22031
     22029     22027     22030     22032     22029     22027     22030     22033
     22030     22033     22036     22037     22030     22033     22036     22038
     22030     22033     22036     22039     22031     22030     22033     22034
     22031     22030     22033     22035     22031     22030     22033     22036
     22032     22030     22033     22034     22032     22030     22033     22035
     22032     22030     22033     22036     22033     22036     22039     22040
     22033     22036     22039     22041     22034     22033     22036     22037
     22034     22033     22036     22038     22034     22033     22036     22039
     22035     22033     22036     22037     22035     22033     22036     22038
     22035     22033     22036     22039     22036     22039     22041     22042
     22036     22039     22041     22043     22037     22036     22039     22040
     22037     22036     22039     22041     22038     22036     22039     22040
     22038     22036     22039     22041     22039     22041     22043     22044
     22039     22041     22043     22045     22039     22041     22043     22046
     22040     22039     22041     22042     22040     22039     22041     22043
     22041     22043     22046     22047     22041     22043     22046     22048
     22041     22043     22046     22049     22042     22041     22043     22044
     22042     22041     22043     22045     22042     22041     22043     22046
     22043     22046     22049     22050     22043     22046     22049     22051
     22043     22046     22049     22052     22044     22043     22046     22047
     22044     22043     22046     22048     22044     22043     22046     22049
     22045     22043     22046     22047     22045     22043     22046     22048
     22045     22043     22046     22049     22046     22049     22052     22053
     22046     22049     22052     22054     22046     22049     22052     22055
     22047     22046     22049     22050     22047     22046     22049     22051
     22047     22046     22049     22052     22048     22046     22049     22050
     22048     22046     22049     22051     22048     22046     22049     22052
     22049     22052     22055     22056     22049     22052     22055     22057
     22049     22052     22055     22058     22050     22049     22052     22053
     22050     22049     22052     22054     22050     22049     22052     22055
     22051     22049     22052     22053     22051     22049     22052     22054
     22051     22049     22052     22055     22052     22055     22058     22059
     22052     22055     22058     22060     22052     22055     22058     22061
     22053     22052     22055     22056     22053     22052     22055     22057
     22053     22052     22055     22058     22054     22052     22055     22056
     22054     22052     22055     22057     22054     22052     22055     22058
     22055     22058     22061     22062     22055     22058     22061     22063
     22055     22058     22061     22064     22056     22055     22058     22059
     22056     22055     22058     22060     22056     22055     22058     22061
     22057     22055     22058     22059     22057     22055     22058     22060
     22057     22055     22058     22061     22058     22061     22064     22065
     22058     22061     22064     22066     22058     22061     22064     22067
     22059     22058     22061     22062     22059     22058     22061     22063
     22059     22058     22061     22064     22060     22058     22061     22062
     22060     22058     22061     22063     22060     22058     22061     22064
     22062     22061     22064     22065     22062     22061     22064     22066
     22062     22061     22064     22067     22063     22061     22064     22065
     22063     22061     22064     22066     22063     22061     22064     22067
     22068     22071     22074     22075     22068     22071     22074     22076
     22068     22071     22074     22077     22069     22068     22071     22072
     22069     22068     22071     22073     22069     22068     22071     22074
     22070     22068     22071     22072     22070     22068     22071     22073
     22070     22068     22071     22074     22071     22074     22077     22078
     22071     22074     22077     22079     22071     22074     22077     22080
     22072     22071     22074     22075     22072     22071     22074     22076
     22072     22071     22074     22077     22073     22071     22074     22075
     22073     22071     22074     22076     22073     22071     22074     22077
     22074     22077     22080     22081     22074     22077     22080     22082
     22074     22077     22080     22083     22075     22074     22077     22078
     22075     22074     22077     22079     22075     22074     22077     22080
     22076     22074     22077     22078     22076     22074     22077     22079
     22076     22074     22077     22080     22077     22080     22083     22084
     22077     22080     22083     22085     22077     22080     22083     22086
     22078     22077     22080     22081     22078     22077     22080     22082
     22078     22077     22080     22083     22079     22077     22080     22081
     22079     22077     22080     22082     22079     22077     22080     22083
     22080     22083     22086     22087     22080     22083     22086     22088
     22080     22083     22086     22089     22081     22080     22083     22084
     22081     22080     22083     22085     22081     22080     22083     22086
     22082     22080     22083     22084     22082     22080     22083     22085
     22082     22080     22083     22086     22083     22086     22089     22090
     22083     22086     22089     22091     22083     22086     22089     22092
     22084     22083     22086     22087     22084     22083     22086     22088
     22084     22083     22086     22089     22085     22083     22086     22087
     22085     22083     22086     22088     22085     22083     22086     22089
     22086     22089     22092     22093     22086     22089     22092     22094
     22086     22089     22092     22095     22087     22086     22089     22090
     22087     22086     22089     22091     22087     22086     22089     22092
     22088     22086     22089     22090     22088     22086     22089     22091
     22088     22086     22089     22092     22089     22092     22095     22096
     22089     22092     22095     22097     22089     22092     22095     22098
     22090     22089     22092     22093     22090     22089     22092     22094
     22090     22089     22092     22095     22091     22089     22092     22093
     22091     22089     22092     22094     22091     22089     22092     22095
     22092     22095     22098     22099     22092     22095     22098     22100
     22092     22095     22098     22101     22093     22092     22095     22096
     22093     22092     22095     22097     22093     22092     22095     22098
     22094     22092     22095     22096     22094     22092     22095     22097
     22094     22092     22095     22098     22095     22098     22101     22102
     22095     22098     22101     22103     22095     22098     22101     22104
     22096     22095     22098     22099     22096     22095     22098     22100
     22096     22095     22098     22101     22097     22095     22098     22099
     22097     22095     22098     22100     22097     22095     22098     22101
     22098     22101     22104     22105     22098     22101     22104     22106
     22098     22101     22104     22107     22099     22098     22101     22102
     22099     22098     22101     22103     22099     22098     22101     22104
     22100     22098     22101     22102     22100     22098     22101     22103
     22100     22098     22101     22104     22101     22104     22107     22108
     22101     22104     22107     22109     22101     22104     22107     22110
     22102     22101     22104     22105     22102     22101     22104     22106
     22102     22101     22104     22107     22103     22101     22104     22105
     22103     22101     22104     22106     22103     22101     22104     22107
     22105     22104     22107     22108     22105     22104     22107     22109
     22105     22104     22107     22110     22106     22104     22107     22108
     22106     22104     22107     22109     22106     22104     22107     22110
     22111     22112     22127     22128     22111     22112     22127     22129
     22111     22112     22127     22133     22112     22111     22115     22116
     22112     22111     22115     22117     22112     22111     22115     22118
     22112     22111     22119     22120     22112     22111     22119     22121
     22112     22111     22119     22122     22112     22111     22123     22124
     22112     22111     22123     22125     22112     22111     22123     22126
     22112     22127     22133     22130     22113     22112     22111     22115
     22113     22112     22111     22119     22113     22112     22111     22123
     22113     22112     22127     22128     22113     22112     22127     22129
     22113     22112     22127     22133     22114     22112     22111     22115
     22114     22112     22111     22119     22114     22112     22111     22123
     22114     22112     22127     22128     22114     22112     22127     22129
     22114     22112     22127     22133     22115     22111     22112     22127
     22115     22111     22119     22120     22115     22111     22119     22121
     22115     22111     22119     22122     22115     22111     22123     22124
     22115     22111     22123     22125     22115     22111     22123     22126
     22116     22115     22111     22119     22116     22115     22111     22123
     22117     22115     22111     22119     22117     22115     22111     22123
     22118     22115     22111     22119     22118     22115     22111     22123
     22119     22111     22112     22127     22119     22111     22123     22124
     22119     22111     22123     22125     22119     22111     22123     22126
     22120     22119     22111     22123     22121     22119     22111     22123
     22122     22119     22111     22123     22123     22111     22112     22127
     22127     22133     22130     22131     22127     22133     22130     22132
     22127     22133     22130     22134     22128     22127     22133     22130
     22129     22127     22133     22130     22130     22134     22135     22136
     22130     22134     22135     22137     22130     22134     22135     22138
     22131     22130     22134     22135     22132     22130     22134     22135
     22133     22130     22134     22135     22134     22135     22138     22139
     22134     22135     22138     22140     22134     22135     22138     22146
     22135     22138     22140     22141     22135     22138     22146     22147
     22135     22138     22146     22148     22135     22138     22146     22149
     22136     22135     22138     22139     22136     22135     22138     22140
     22136     22135     22138     22146     22137     22135     22138     22139
     22137     22135     22138     22140     22137     22135     22138     22146
     22138     22140     22141     22142     22138     22140     22141     22143
     22138     22146     22149     22150     22139     22138     22140     22141
     22139     22138     22146     22147     22139     22138     22146     22148
     22139     22138     22146     22149     22140     22138     22146     22147
     22140     22138     22146     22148     22140     22138     22146     22149
     22140     22141     22143     22144     22140     22141     22143     22145
     22140     22141     22143     22155     22141     22140     22138     22146
     22141     22143     22155     22156     22141     22143     22155     22157
     22141     22143     22155     22158     22142     22141     22143     22144
     22142     22141     22143     22145     22142     22141     22143     22155
     22143     22155     22158     22159     22143     22155     22158     22160
     22143     22155     22158     22161     22144     22143     22155     22156
     22144     22143     22155     22157     22144     22143     22155     22158
     22145     22143     22155     22156     22145     22143     22155     22157
     22145     22143     22155     22158     22146     22149     22150     22151
     22146     22149     22150     22152     22147     22146     22149     22150
     22148     22146     22149     22150     22149     22150     22152     22153
     22149     22150     22152     22154     22149     22150     22152     22202
     22150     22152     22202     22203     22150     22152     22202     22204
     22150     22152     22202     22205     22151     22150     22152     22153
     22151     22150     22152     22154     22151     22150     22152     22202
     22152     22202     22205     22206     22152     22202     22205     22207
     22152     22202     22205     22208     22153     22152     22202     22203
     22153     22152     22202     22204     22153     22152     22202     22205
     22154     22152     22202     22203     22154     22152     22202     22204
     22154     22152     22202     22205     22155     22158     22161     22162
     22155     22158     22161     22163     22155     22158     22161     22164
     22156     22155     22158     22159     22156     22155     22158     22160
     22156     22155     22158     22161     22157     22155     22158     22159
     22157     22155     22158     22160     22157     22155     22158     22161
     22158     22161     22164     22165     22158     22161     22164     22166
     22158     22161     22164     22167     22159     22158     22161     22162
     22159     22158     22161     22163     22159     22158     22161     22164
     22160     22158     22161     22162     22160     22158     22161     22163
     22160     22158     22161     22164     22161     22164     22167     22168
     22161     22164     22167     22169     22161     22164     22167     22170
     22162     22161     22164     22165     22162     22161     22164     22166
     22162     22161     22164     22167     22163     22161     22164     22165
     22163     22161     22164     22166     22163     22161     22164     22167
     22164     22167     22170     22171     22164     22167     22170     22172
     22164     22167     22170     22173     22165     22164     22167     22168
     22165     22164     22167     22169     22165     22164     22167     22170
     22166     22164     22167     22168     22166     22164     22167     22169
     22166     22164     22167     22170     22167     22170     22173     22174
     22167     22170     22173     22175     22168     22167     22170     22171
     22168     22167     22170     22172     22168     22167     22170     22173
     22169     22167     22170     22171     22169     22167     22170     22172
     22169     22167     22170     22173     22170     22173     22175     22176
     22170     22173     22175     22177     22171     22170     22173     22174
     22171     22170     22173     22175     22172     22170     22173     22174
     22172     22170     22173     22175     22173     22175     22177     22178
     22173     22175     22177     22179     22173     22175     22177     22180
     22174     22173     22175     22176     22174     22173     22175     22177
     22175     22177     22180     22181     22175     22177     22180     22182
     22175     22177     22180     22183     22176     22175     22177     22178
     22176     22175     22177     22179     22176     22175     22177     22180
     22177     22180     22183     22184     22177     22180     22183     22185
     22177     22180     22183     22186     22178     22177     22180     22181
     22178     22177     22180     22182     22178     22177     22180     22183
     22179     22177     22180     22181     22179     22177     22180     22182
     22179     22177     22180     22183     22180     22183     22186     22187
     22180     22183     22186     22188     22180     22183     22186     22189
     22181     22180     22183     22184     22181     22180     22183     22185
     22181     22180     22183     22186     22182     22180     22183     22184
     22182     22180     22183     22185     22182     22180     22183     22186
     22183     22186     22189     22190     22183     22186     22189     22191
     22183     22186     22189     22192     22184     22183     22186     22187
     22184     22183     22186     22188     22184     22183     22186     22189
     22185     22183     22186     22187     22185     22183     22186     22188
     22185     22183     22186     22189     22186     22189     22192     22193
     22186     22189     22192     22194     22186     22189     22192     22195
     22187     22186     22189     22190     22187     22186     22189     22191
     22187     22186     22189     22192     22188     22186     22189     22190
     22188     22186     22189     22191     22188     22186     22189     22192
     22189     22192     22195     22196     22189     22192     22195     22197
     22189     22192     22195     22198     22190     22189     22192     22193
     22190     22189     22192     22194     22190     22189     22192     22195
     22191     22189     22192     22193     22191     22189     22192     22194
     22191     22189     22192     22195     22192     22195     22198     22199
     22192     22195     22198     22200     22192     22195     22198     22201
     22193     22192     22195     22196     22193     22192     22195     22197
     22193     22192     22195     22198     22194     22192     22195     22196
     22194     22192     22195     22197     22194     22192     22195     22198
     22196     22195     22198     22199     22196     22195     22198     22200
     22196     22195     22198     22201     22197     22195     22198     22199
     22197     22195     22198     22200     22197     22195     22198     22201
     22202     22205     22208     22209     22202     22205     22208     22210
     22202     22205     22208     22211     22203     22202     22205     22206
     22203     22202     22205     22207     22203     22202     22205     22208
     22204     22202     22205     22206     22204     22202     22205     22207
     22204     22202     22205     22208     22205     22208     22211     22212
     22205     22208     22211     22213     22205     22208     22211     22214
     22206     22205     22208     22209     22206     22205     22208     22210
     22206     22205     22208     22211     22207     22205     22208     22209
     22207     22205     22208     22210     22207     22205     22208     22211
     22208     22211     22214     22215     22208     22211     22214     22216
     22208     22211     22214     22217     22209     22208     22211     22212
     22209     22208     22211     22213     22209     22208     22211     22214
     22210     22208     22211     22212     22210     22208     22211     22213
     22210     22208     22211     22214     22211     22214     22217     22218
     22211     22214     22217     22219     22211     22214     22217     22220
     22212     22211     22214     22215     22212     22211     22214     22216
     22212     22211     22214     22217     22213     22211     22214     22215
     22213     22211     22214     22216     22213     22211     22214     22217
     22214     22217     22220     22221     22214     22217     22220     22222
     22214     22217     22220     22223     22215     22214     22217     22218
     22215     22214     22217     22219     22215     22214     22217     22220
     22216     22214     22217     22218     22216     22214     22217     22219
     22216     22214     22217     22220     22217     22220     22223     22224
     22217     22220     22223     22225     22217     22220     22223     22226
     22218     22217     22220     22221     22218     22217     22220     22222
     22218     22217     22220     22223     22219     22217     22220     22221
     22219     22217     22220     22222     22219     22217     22220     22223
     22220     22223     22226     22227     22220     22223     22226     22228
     22220     22223     22226     22229     22221     22220     22223     22224
     22221     22220     22223     22225     22221     22220     22223     22226
     22222     22220     22223     22224     22222     22220     22223     22225
     22222     22220     22223     22226     22223     22226     22229     22230
     22223     22226     22229     22231     22223     22226     22229     22232
     22224     22223     22226     22227     22224     22223     22226     22228
     22224     22223     22226     22229     22225     22223     22226     22227
     22225     22223     22226     22228     22225     22223     22226     22229
     22226     22229     22232     22233     22226     22229     22232     22234
     22226     22229     22232     22235     22227     22226     22229     22230
     22227     22226     22229     22231     22227     22226     22229     22232
     22228     22226     22229     22230     22228     22226     22229     22231
     22228     22226     22229     22232     22229     22232     22235     22236
     22229     22232     22235     22237     22229     22232     22235     22238
     22230     22229     22232     22233     22230     22229     22232     22234
     22230     22229     22232     22235     22231     22229     22232     22233
     22231     22229     22232     22234     22231     22229     22232     22235
     22232     22235     22238     22239     22232     22235     22238     22240
     22232     22235     22238     22241     22233     22232     22235     22236
     22233     22232     22235     22237     22233     22232     22235     22238
     22234     22232     22235     22236     22234     22232     22235     22237
     22234     22232     22235     22238     22235     22238     22241     22242
     22235     22238     22241     22243     22235     22238     22241     22244
     22236     22235     22238     22239     22236     22235     22238     22240
     22236     22235     22238     22241     22237     22235     22238     22239
     22237     22235     22238     22240     22237     22235     22238     22241
     22239     22238     22241     22242     22239     22238     22241     22243
     22239     22238     22241     22244     22240     22238     22241     22242
     22240     22238     22241     22243     22240     22238     22241     22244
     22245     22246     22261     22262     22245     22246     22261     22263
     22245     22246     22261     22267     22246     22245     22249     22250
     22246     22245     22249     22251     22246     22245     22249     22252
     22246     22245     22253     22254     22246     22245     22253     22255
     22246     22245     22253     22256     22246     22245     22257     22258
     22246     22245     22257     22259     22246     22245     22257     22260
     22246     22261     22267     22264     22247     22246     22245     22249
     22247     22246     22245     22253     22247     22246     22245     22257
     22247     22246     22261     22262     22247     22246     22261     22263
     22247     22246     22261     22267     22248     22246     22245     22249
     22248     22246     22245     22253     22248     22246     22245     22257
     22248     22246     22261     22262     22248     22246     22261     22263
     22248     22246     22261     22267     22249     22245     22246     22261
     22249     22245     22253     22254     22249     22245     22253     22255
     22249     22245     22253     22256     22249     22245     22257     22258
     22249     22245     22257     22259     22249     22245     22257     22260
     22250     22249     22245     22253     22250     22249     22245     22257
     22251     22249     22245     22253     22251     22249     22245     22257
     22252     22249     22245     22253     22252     22249     22245     22257
     22253     22245     22246     22261     22253     22245     22257     22258
     22253     22245     22257     22259     22253     22245     22257     22260
     22254     22253     22245     22257     22255     22253     22245     22257
     22256     22253     22245     22257     22257     22245     22246     22261
     22261     22267     22264     22265     22261     22267     22264     22266
     22261     22267     22264     22268     22262     22261     22267     22264
     22263     22261     22267     22264     22264     22268     22269     22270
     22264     22268     22269     22271     22264     22268     22269     22272
     22265     22264     22268     22269     22266     22264     22268     22269
     22267     22264     22268     22269     22268     22269     22272     22273
     22268     22269     22272     22274     22268     22269     22272     22280
     22269     22272     22274     22275     22269     22272     22280     22281
     22269     22272     22280     22282     22269     22272     22280     22283
     22270     22269     22272     22273     22270     22269     22272     22274
     22270     22269     22272     22280     22271     22269     22272     22273
     22271     22269     22272     22274     22271     22269     22272     22280
     22272     22274     22275     22276     22272     22274     22275     22277
     22272     22280     22283     22284     22273     22272     22274     22275
     22273     22272     22280     22281     22273     22272     22280     22282
     22273     22272     22280     22283     22274     22272     22280     22281
     22274     22272     22280     22282     22274     22272     22280     22283
     22274     22275     22277     22278     22274     22275     22277     22279
     22274     22275     22277     22289     22275     22274     22272     22280
     22275     22277     22289     22290     22275     22277     22289     22291
     22275     22277     22289     22292     22276     22275     22277     22278
     22276     22275     22277     22279     22276     22275     22277     22289
     22277     22289     22292     22293     22277     22289     22292     22294
     22277     22289     22292     22295     22278     22277     22289     22290
     22278     22277     22289     22291     22278     22277     22289     22292
     22279     22277     22289     22290     22279     22277     22289     22291
     22279     22277     22289     22292     22280     22283     22284     22285
     22280     22283     22284     22286     22281     22280     22283     22284
     22282     22280     22283     22284     22283     22284     22286     22287
     22283     22284     22286     22288     22283     22284     22286     22336
     22284     22286     22336     22337     22284     22286     22336     22338
     22284     22286     22336     22339     22285     22284     22286     22287
     22285     22284     22286     22288     22285     22284     22286     22336
     22286     22336     22339     22340     22286     22336     22339     22341
     22286     22336     22339     22342     22287     22286     22336     22337
     22287     22286     22336     22338     22287     22286     22336     22339
     22288     22286     22336     22337     22288     22286     22336     22338
     22288     22286     22336     22339     22289     22292     22295     22296
     22289     22292     22295     22297     22289     22292     22295     22298
     22290     22289     22292     22293     22290     22289     22292     22294
     22290     22289     22292     22295     22291     22289     22292     22293
     22291     22289     22292     22294     22291     22289     22292     22295
     22292     22295     22298     22299     22292     22295     22298     22300
     22292     22295     22298     22301     22293     22292     22295     22296
     22293     22292     22295     22297     22293     22292     22295     22298
     22294     22292     22295     22296     22294     22292     22295     22297
     22294     22292     22295     22298     22295     22298     22301     22302
     22295     22298     22301     22303     22295     22298     22301     22304
     22296     22295     22298     22299     22296     22295     22298     22300
     22296     22295     22298     22301     22297     22295     22298     22299
     22297     22295     22298     22300     22297     22295     22298     22301
     22298     22301     22304     22305     22298     22301     22304     22306
     22298     22301     22304     22307     22299     22298     22301     22302
     22299     22298     22301     22303     22299     22298     22301     22304
     22300     22298     22301     22302     22300     22298     22301     22303
     22300     22298     22301     22304     22301     22304     22307     22308
     22301     22304     22307     22309     22302     22301     22304     22305
     22302     22301     22304     22306     22302     22301     22304     22307
     22303     22301     22304     22305     22303     22301     22304     22306
     22303     22301     22304     22307     22304     22307     22309     22310
     22304     22307     22309     22311     22305     22304     22307     22308
     22305     22304     22307     22309     22306     22304     22307     22308
     22306     22304     22307     22309     22307     22309     22311     22312
     22307     22309     22311     22313     22307     22309     22311     22314
     22308     22307     22309     22310     22308     22307     22309     22311
     22309     22311     22314     22315     22309     22311     22314     22316
     22309     22311     22314     22317     22310     22309     22311     22312
     22310     22309     22311     22313     22310     22309     22311     22314
     22311     22314     22317     22318     22311     22314     22317     22319
     22311     22314     22317     22320     22312     22311     22314     22315
     22312     22311     22314     22316     22312     22311     22314     22317
     22313     22311     22314     22315     22313     22311     22314     22316
     22313     22311     22314     22317     22314     22317     22320     22321
     22314     22317     22320     22322     22314     22317     22320     22323
     22315     22314     22317     22318     22315     22314     22317     22319
     22315     22314     22317     22320     22316     22314     22317     22318
     22316     22314     22317     22319     22316     22314     22317     22320
     22317     22320     22323     22324     22317     22320     22323     22325
     22317     22320     22323     22326     22318     22317     22320     22321
     22318     22317     22320     22322     22318     22317     22320     22323
     22319     22317     22320     22321     22319     22317     22320     22322
     22319     22317     22320     22323     22320     22323     22326     22327
     22320     22323     22326     22328     22320     22323     22326     22329
     22321     22320     22323     22324     22321     22320     22323     22325
     22321     22320     22323     22326     22322     22320     22323     22324
     22322     22320     22323     22325     22322     22320     22323     22326
     22323     22326     22329     22330     22323     22326     22329     22331
     22323     22326     22329     22332     22324     22323     22326     22327
     22324     22323     22326     22328     22324     22323     22326     22329
     22325     22323     22326     22327     22325     22323     22326     22328
     22325     22323     22326     22329     22326     22329     22332     22333
     22326     22329     22332     22334     22326     22329     22332     22335
     22327     22326     22329     22330     22327     22326     22329     22331
     22327     22326     22329     22332     22328     22326     22329     22330
     22328     22326     22329     22331     22328     22326     22329     22332
     22330     22329     22332     22333     22330     22329     22332     22334
     22330     22329     22332     22335     22331     22329     22332     22333
     22331     22329     22332     22334     22331     22329     22332     22335
     22336     22339     22342     22343     22336     22339     22342     22344
     22336     22339     22342     22345     22337     22336     22339     22340
     22337     22336     22339     22341     22337     22336     22339     22342
     22338     22336     22339     22340     22338     22336     22339     22341
     22338     22336     22339     22342     22339     22342     22345     22346
     22339     22342     22345     22347     22339     22342     22345     22348
     22340     22339     22342     22343     22340     22339     22342     22344
     22340     22339     22342     22345     22341     22339     22342     22343
     22341     22339     22342     22344     22341     22339     22342     22345
     22342     22345     22348     22349     22342     22345     22348     22350
     22342     22345     22348     22351     22343     22342     22345     22346
     22343     22342     22345     22347     22343     22342     22345     22348
     22344     22342     22345     22346     22344     22342     22345     22347
     22344     22342     22345     22348     22345     22348     22351     22352
     22345     22348     22351     22353     22345     22348     22351     22354
     22346     22345     22348     22349     22346     22345     22348     22350
     22346     22345     22348     22351     22347     22345     22348     22349
     22347     22345     22348     22350     22347     22345     22348     22351
     22348     22351     22354     22355     22348     22351     22354     22356
     22348     22351     22354     22357     22349     22348     22351     22352
     22349     22348     22351     22353     22349     22348     22351     22354
     22350     22348     22351     22352     22350     22348     22351     22353
     22350     22348     22351     22354     22351     22354     22357     22358
     22351     22354     22357     22359     22351     22354     22357     22360
     22352     22351     22354     22355     22352     22351     22354     22356
     22352     22351     22354     22357     22353     22351     22354     22355
     22353     22351     22354     22356     22353     22351     22354     22357
     22354     22357     22360     22361     22354     22357     22360     22362
     22354     22357     22360     22363     22355     22354     22357     22358
     22355     22354     22357     22359     22355     22354     22357     22360
     22356     22354     22357     22358     22356     22354     22357     22359
     22356     22354     22357     22360     22357     22360     22363     22364
     22357     22360     22363     22365     22357     22360     22363     22366
     22358     22357     22360     22361     22358     22357     22360     22362
     22358     22357     22360     22363     22359     22357     22360     22361
     22359     22357     22360     22362     22359     22357     22360     22363
     22360     22363     22366     22367     22360     22363     22366     22368
     22360     22363     22366     22369     22361     22360     22363     22364
     22361     22360     22363     22365     22361     22360     22363     22366
     22362     22360     22363     22364     22362     22360     22363     22365
     22362     22360     22363     22366     22363     22366     22369     22370
     22363     22366     22369     22371     22363     22366     22369     22372
     22364     22363     22366     22367     22364     22363     22366     22368
     22364     22363     22366     22369     22365     22363     22366     22367
     22365     22363     22366     22368     22365     22363     22366     22369
     22366     22369     22372     22373     22366     22369     22372     22374
     22366     22369     22372     22375     22367     22366     22369     22370
     22367     22366     22369     22371     22367     22366     22369     22372
     22368     22366     22369     22370     22368     22366     22369     22371
     22368     22366     22369     22372     22369     22372     22375     22376
     22369     22372     22375     22377     22369     22372     22375     22378
     22370     22369     22372     22373     22370     22369     22372     22374
     22370     22369     22372     22375     22371     22369     22372     22373
     22371     22369     22372     22374     22371     22369     22372     22375
     22373     22372     22375     22376     22373     22372     22375     22377
     22373     22372     22375     22378     22374     22372     22375     22376
     22374     22372     22375     22377     22374     22372     22375     22378
     22379     22380     22395     22396     22379     22380     22395     22397
     22379     22380     22395     22401     22380     22379     22383     22384
     22380     22379     22383     22385     22380     22379     22383     22386
     22380     22379     22387     22388     22380     22379     22387     22389
     22380     22379     22387     22390     22380     22379     22391     22392
     22380     22379     22391     22393     22380     22379     22391     22394
     22380     22395     22401     22398     22381     22380     22379     22383
     22381     22380     22379     22387     22381     22380     22379     22391
     22381     22380     22395     22396     22381     22380     22395     22397
     22381     22380     22395     22401     22382     22380     22379     22383
     22382     22380     22379     22387     22382     22380     22379     22391
     22382     22380     22395     22396     22382     22380     22395     22397
     22382     22380     22395     22401     22383     22379     22380     22395
     22383     22379     22387     22388     22383     22379     22387     22389
     22383     22379     22387     22390     22383     22379     22391     22392
     22383     22379     22391     22393     22383     22379     22391     22394
     22384     22383     22379     22387     22384     22383     22379     22391
     22385     22383     22379     22387     22385     22383     22379     22391
     22386     22383     22379     22387     22386     22383     22379     22391
     22387     22379     22380     22395     22387     22379     22391     22392
     22387     22379     22391     22393     22387     22379     22391     22394
     22388     22387     22379     22391     22389     22387     22379     22391
     22390     22387     22379     22391     22391     22379     22380     22395
     22395     22401     22398     22399     22395     22401     22398     22400
     22395     22401     22398     22402     22396     22395     22401     22398
     22397     22395     22401     22398     22398     22402     22403     22404
     22398     22402     22403     22405     22398     22402     22403     22406
     22399     22398     22402     22403     22400     22398     22402     22403
     22401     22398     22402     22403     22402     22403     22406     22407
     22402     22403     22406     22408     22402     22403     22406     22414
     22403     22406     22408     22409     22403     22406     22414     22415
     22403     22406     22414     22416     22403     22406     22414     22417
     22404     22403     22406     22407     22404     22403     22406     22408
     22404     22403     22406     22414     22405     22403     22406     22407
     22405     22403     22406     22408     22405     22403     22406     22414
     22406     22408     22409     22410     22406     22408     22409     22411
     22406     22414     22417     22418     22407     22406     22408     22409
     22407     22406     22414     22415     22407     22406     22414     22416
     22407     22406     22414     22417     22408     22406     22414     22415
     22408     22406     22414     22416     22408     22406     22414     22417
     22408     22409     22411     22412     22408     22409     22411     22413
     22408     22409     22411     22423     22409     22408     22406     22414
     22409     22411     22423     22424     22409     22411     22423     22425
     22409     22411     22423     22426     22410     22409     22411     22412
     22410     22409     22411     22413     22410     22409     22411     22423
     22411     22423     22426     22427     22411     22423     22426     22428
     22411     22423     22426     22429     22412     22411     22423     22424
     22412     22411     22423     22425     22412     22411     22423     22426
     22413     22411     22423     22424     22413     22411     22423     22425
     22413     22411     22423     22426     22414     22417     22418     22419
     22414     22417     22418     22420     22415     22414     22417     22418
     22416     22414     22417     22418     22417     22418     22420     22421
     22417     22418     22420     22422     22417     22418     22420     22470
     22418     22420     22470     22471     22418     22420     22470     22472
     22418     22420     22470     22473     22419     22418     22420     22421
     22419     22418     22420     22422     22419     22418     22420     22470
     22420     22470     22473     22474     22420     22470     22473     22475
     22420     22470     22473     22476     22421     22420     22470     22471
     22421     22420     22470     22472     22421     22420     22470     22473
     22422     22420     22470     22471     22422     22420     22470     22472
     22422     22420     22470     22473     22423     22426     22429     22430
     22423     22426     22429     22431     22423     22426     22429     22432
     22424     22423     22426     22427     22424     22423     22426     22428
     22424     22423     22426     22429     22425     22423     22426     22427
     22425     22423     22426     22428     22425     22423     22426     22429
     22426     22429     22432     22433     22426     22429     22432     22434
     22426     22429     22432     22435     22427     22426     22429     22430
     22427     22426     22429     22431     22427     22426     22429     22432
     22428     22426     22429     22430     22428     22426     22429     22431
     22428     22426     22429     22432     22429     22432     22435     22436
     22429     22432     22435     22437     22429     22432     22435     22438
     22430     22429     22432     22433     22430     22429     22432     22434
     22430     22429     22432     22435     22431     22429     22432     22433
     22431     22429     22432     22434     22431     22429     22432     22435
     22432     22435     22438     22439     22432     22435     22438     22440
     22432     22435     22438     22441     22433     22432     22435     22436
     22433     22432     22435     22437     22433     22432     22435     22438
     22434     22432     22435     22436     22434     22432     22435     22437
     22434     22432     22435     22438     22435     22438     22441     22442
     22435     22438     22441     22443     22436     22435     22438     22439
     22436     22435     22438     22440     22436     22435     22438     22441
     22437     22435     22438     22439     22437     22435     22438     22440
     22437     22435     22438     22441     22438     22441     22443     22444
     22438     22441     22443     22445     22439     22438     22441     22442
     22439     22438     22441     22443     22440     22438     22441     22442
     22440     22438     22441     22443     22441     22443     22445     22446
     22441     22443     22445     22447     22441     22443     22445     22448
     22442     22441     22443     22444     22442     22441     22443     22445
     22443     22445     22448     22449     22443     22445     22448     22450
     22443     22445     22448     22451     22444     22443     22445     22446
     22444     22443     22445     22447     22444     22443     22445     22448
     22445     22448     22451     22452     22445     22448     22451     22453
     22445     22448     22451     22454     22446     22445     22448     22449
     22446     22445     22448     22450     22446     22445     22448     22451
     22447     22445     22448     22449     22447     22445     22448     22450
     22447     22445     22448     22451     22448     22451     22454     22455
     22448     22451     22454     22456     22448     22451     22454     22457
     22449     22448     22451     22452     22449     22448     22451     22453
     22449     22448     22451     22454     22450     22448     22451     22452
     22450     22448     22451     22453     22450     22448     22451     22454
     22451     22454     22457     22458     22451     22454     22457     22459
     22451     22454     22457     22460     22452     22451     22454     22455
     22452     22451     22454     22456     22452     22451     22454     22457
     22453     22451     22454     22455     22453     22451     22454     22456
     22453     22451     22454     22457     22454     22457     22460     22461
     22454     22457     22460     22462     22454     22457     22460     22463
     22455     22454     22457     22458     22455     22454     22457     22459
     22455     22454     22457     22460     22456     22454     22457     22458
     22456     22454     22457     22459     22456     22454     22457     22460
     22457     22460     22463     22464     22457     22460     22463     22465
     22457     22460     22463     22466     22458     22457     22460     22461
     22458     22457     22460     22462     22458     22457     22460     22463
     22459     22457     22460     22461     22459     22457     22460     22462
     22459     22457     22460     22463     22460     22463     22466     22467
     22460     22463     22466     22468     22460     22463     22466     22469
     22461     22460     22463     22464     22461     22460     22463     22465
     22461     22460     22463     22466     22462     22460     22463     22464
     22462     22460     22463     22465     22462     22460     22463     22466
     22464     22463     22466     22467     22464     22463     22466     22468
     22464     22463     22466     22469     22465     22463     22466     22467
     22465     22463     22466     22468     22465     22463     22466     22469
     22470     22473     22476     22477     22470     22473     22476     22478
     22470     22473     22476     22479     22471     22470     22473     22474
     22471     22470     22473     22475     22471     22470     22473     22476
     22472     22470     22473     22474     22472     22470     22473     22475
     22472     22470     22473     22476     22473     22476     22479     22480
     22473     22476     22479     22481     22473     22476     22479     22482
     22474     22473     22476     22477     22474     22473     22476     22478
     22474     22473     22476     22479     22475     22473     22476     22477
     22475     22473     22476     22478     22475     22473     22476     22479
     22476     22479     22482     22483     22476     22479     22482     22484
     22476     22479     22482     22485     22477     22476     22479     22480
     22477     22476     22479     22481     22477     22476     22479     22482
     22478     22476     22479     22480     22478     22476     22479     22481
     22478     22476     22479     22482     22479     22482     22485     22486
     22479     22482     22485     22487     22479     22482     22485     22488
     22480     22479     22482     22483     22480     22479     22482     22484
     22480     22479     22482     22485     22481     22479     22482     22483
     22481     22479     22482     22484     22481     22479     22482     22485
     22482     22485     22488     22489     22482     22485     22488     22490
     22482     22485     22488     22491     22483     22482     22485     22486
     22483     22482     22485     22487     22483     22482     22485     22488
     22484     22482     22485     22486     22484     22482     22485     22487
     22484     22482     22485     22488     22485     22488     22491     22492
     22485     22488     22491     22493     22485     22488     22491     22494
     22486     22485     22488     22489     22486     22485     22488     22490
     22486     22485     22488     22491     22487     22485     22488     22489
     22487     22485     22488     22490     22487     22485     22488     22491
     22488     22491     22494     22495     22488     22491     22494     22496
     22488     22491     22494     22497     22489     22488     22491     22492
     22489     22488     22491     22493     22489     22488     22491     22494
     22490     22488     22491     22492     22490     22488     22491     22493
     22490     22488     22491     22494     22491     22494     22497     22498
     22491     22494     22497     22499     22491     22494     22497     22500
     22492     22491     22494     22495     22492     22491     22494     22496
     22492     22491     22494     22497     22493     22491     22494     22495
     22493     22491     22494     22496     22493     22491     22494     22497
     22494     22497     22500     22501     22494     22497     22500     22502
     22494     22497     22500     22503     22495     22494     22497     22498
     22495     22494     22497     22499     22495     22494     22497     22500
     22496     22494     22497     22498     22496     22494     22497     22499
     22496     22494     22497     22500     22497     22500     22503     22504
     22497     22500     22503     22505     22497     22500     22503     22506
     22498     22497     22500     22501     22498     22497     22500     22502
     22498     22497     22500     22503     22499     22497     22500     22501
     22499     22497     22500     22502     22499     22497     22500     22503
     22500     22503     22506     22507     22500     22503     22506     22508
     22500     22503     22506     22509     22501     22500     22503     22504
     22501     22500     22503     22505     22501     22500     22503     22506
     22502     22500     22503     22504     22502     22500     22503     22505
     22502     22500     22503     22506     22503     22506     22509     22510
     22503     22506     22509     22511     22503     22506     22509     22512
     22504     22503     22506     22507     22504     22503     22506     22508
     22504     22503     22506     22509     22505     22503     22506     22507
     22505     22503     22506     22508     22505     22503     22506     22509
     22507     22506     22509     22510     22507     22506     22509     22511
     22507     22506     22509     22512     22508     22506     22509     22510
     22508     22506     22509     22511     22508     22506     22509     22512
     22513     22514     22529     22530     22513     22514     22529     22531
     22513     22514     22529     22535     22514     22513     22517     22518
     22514     22513     22517     22519     22514     22513     22517     22520
     22514     22513     22521     22522     22514     22513     22521     22523
     22514     22513     22521     22524     22514     22513     22525     22526
     22514     22513     22525     22527     22514     22513     22525     22528
     22514     22529     22535     22532     22515     22514     22513     22517
     22515     22514     22513     22521     22515     22514     22513     22525
     22515     22514     22529     22530     22515     22514     22529     22531
     22515     22514     22529     22535     22516     22514     22513     22517
     22516     22514     22513     22521     22516     22514     22513     22525
     22516     22514     22529     22530     22516     22514     22529     22531
     22516     22514     22529     22535     22517     22513     22514     22529
     22517     22513     22521     22522     22517     22513     22521     22523
     22517     22513     22521     22524     22517     22513     22525     22526
     22517     22513     22525     22527     22517     22513     22525     22528
     22518     22517     22513     22521     22518     22517     22513     22525
     22519     22517     22513     22521     22519     22517     22513     22525
     22520     22517     22513     22521     22520     22517     22513     22525
     22521     22513     22514     22529     22521     22513     22525     22526
     22521     22513     22525     22527     22521     22513     22525     22528
     22522     22521     22513     22525     22523     22521     22513     22525
     22524     22521     22513     22525     22525     22513     22514     22529
     22529     22535     22532     22533     22529     22535     22532     22534
     22529     22535     22532     22536     22530     22529     22535     22532
     22531     22529     22535     22532     22532     22536     22537     22538
     22532     22536     22537     22539     22532     22536     22537     22540
     22533     22532     22536     22537     22534     22532     22536     22537
     22535     22532     22536     22537     22536     22537     22540     22541
     22536     22537     22540     22542     22536     22537     22540     22548
     22537     22540     22542     22543     22537     22540     22548     22549
     22537     22540     22548     22550     22537     22540     22548     22551
     22538     22537     22540     22541     22538     22537     22540     22542
     22538     22537     22540     22548     22539     22537     22540     22541
     22539     22537     22540     22542     22539     22537     22540     22548
     22540     22542     22543     22544     22540     22542     22543     22545
     22540     22548     22551     22552     22541     22540     22542     22543
     22541     22540     22548     22549     22541     22540     22548     22550
     22541     22540     22548     22551     22542     22540     22548     22549
     22542     22540     22548     22550     22542     22540     22548     22551
     22542     22543     22545     22546     22542     22543     22545     22547
     22542     22543     22545     22557     22543     22542     22540     22548
     22543     22545     22557     22558     22543     22545     22557     22559
     22543     22545     22557     22560     22544     22543     22545     22546
     22544     22543     22545     22547     22544     22543     22545     22557
     22545     22557     22560     22561     22545     22557     22560     22562
     22545     22557     22560     22563     22546     22545     22557     22558
     22546     22545     22557     22559     22546     22545     22557     22560
     22547     22545     22557     22558     22547     22545     22557     22559
     22547     22545     22557     22560     22548     22551     22552     22553
     22548     22551     22552     22554     22549     22548     22551     22552
     22550     22548     22551     22552     22551     22552     22554     22555
     22551     22552     22554     22556     22551     22552     22554     22604
     22552     22554     22604     22605     22552     22554     22604     22606
     22552     22554     22604     22607     22553     22552     22554     22555
     22553     22552     22554     22556     22553     22552     22554     22604
     22554     22604     22607     22608     22554     22604     22607     22609
     22554     22604     22607     22610     22555     22554     22604     22605
     22555     22554     22604     22606     22555     22554     22604     22607
     22556     22554     22604     22605     22556     22554     22604     22606
     22556     22554     22604     22607     22557     22560     22563     22564
     22557     22560     22563     22565     22557     22560     22563     22566
     22558     22557     22560     22561     22558     22557     22560     22562
     22558     22557     22560     22563     22559     22557     22560     22561
     22559     22557     22560     22562     22559     22557     22560     22563
     22560     22563     22566     22567     22560     22563     22566     22568
     22560     22563     22566     22569     22561     22560     22563     22564
     22561     22560     22563     22565     22561     22560     22563     22566
     22562     22560     22563     22564     22562     22560     22563     22565
     22562     22560     22563     22566     22563     22566     22569     22570
     22563     22566     22569     22571     22563     22566     22569     22572
     22564     22563     22566     22567     22564     22563     22566     22568
     22564     22563     22566     22569     22565     22563     22566     22567
     22565     22563     22566     22568     22565     22563     22566     22569
     22566     22569     22572     22573     22566     22569     22572     22574
     22566     22569     22572     22575     22567     22566     22569     22570
     22567     22566     22569     22571     22567     22566     22569     22572
     22568     22566     22569     22570     22568     22566     22569     22571
     22568     22566     22569     22572     22569     22572     22575     22576
     22569     22572     22575     22577     22570     22569     22572     22573
     22570     22569     22572     22574     22570     22569     22572     22575
     22571     22569     22572     22573     22571     22569     22572     22574
     22571     22569     22572     22575     22572     22575     22577     22578
     22572     22575     22577     22579     22573     22572     22575     22576
     22573     22572     22575     22577     22574     22572     22575     22576
     22574     22572     22575     22577     22575     22577     22579     22580
     22575     22577     22579     22581     22575     22577     22579     22582
     22576     22575     22577     22578     22576     22575     22577     22579
     22577     22579     22582     22583     22577     22579     22582     22584
     22577     22579     22582     22585     22578     22577     22579     22580
     22578     22577     22579     22581     22578     22577     22579     22582
     22579     22582     22585     22586     22579     22582     22585     22587
     22579     22582     22585     22588     22580     22579     22582     22583
     22580     22579     22582     22584     22580     22579     22582     22585
     22581     22579     22582     22583     22581     22579     22582     22584
     22581     22579     22582     22585     22582     22585     22588     22589
     22582     22585     22588     22590     22582     22585     22588     22591
     22583     22582     22585     22586     22583     22582     22585     22587
     22583     22582     22585     22588     22584     22582     22585     22586
     22584     22582     22585     22587     22584     22582     22585     22588
     22585     22588     22591     22592     22585     22588     22591     22593
     22585     22588     22591     22594     22586     22585     22588     22589
     22586     22585     22588     22590     22586     22585     22588     22591
     22587     22585     22588     22589     22587     22585     22588     22590
     22587     22585     22588     22591     22588     22591     22594     22595
     22588     22591     22594     22596     22588     22591     22594     22597
     22589     22588     22591     22592     22589     22588     22591     22593
     22589     22588     22591     22594     22590     22588     22591     22592
     22590     22588     22591     22593     22590     22588     22591     22594
     22591     22594     22597     22598     22591     22594     22597     22599
     22591     22594     22597     22600     22592     22591     22594     22595
     22592     22591     22594     22596     22592     22591     22594     22597
     22593     22591     22594     22595     22593     22591     22594     22596
     22593     22591     22594     22597     22594     22597     22600     22601
     22594     22597     22600     22602     22594     22597     22600     22603
     22595     22594     22597     22598     22595     22594     22597     22599
     22595     22594     22597     22600     22596     22594     22597     22598
     22596     22594     22597     22599     22596     22594     22597     22600
     22598     22597     22600     22601     22598     22597     22600     22602
     22598     22597     22600     22603     22599     22597     22600     22601
     22599     22597     22600     22602     22599     22597     22600     22603
     22604     22607     22610     22611     22604     22607     22610     22612
     22604     22607     22610     22613     22605     22604     22607     22608
     22605     22604     22607     22609     22605     22604     22607     22610
     22606     22604     22607     22608     22606     22604     22607     22609
     22606     22604     22607     22610     22607     22610     22613     22614
     22607     22610     22613     22615     22607     22610     22613     22616
     22608     22607     22610     22611     22608     22607     22610     22612
     22608     22607     22610     22613     22609     22607     22610     22611
     22609     22607     22610     22612     22609     22607     22610     22613
     22610     22613     22616     22617     22610     22613     22616     22618
     22610     22613     22616     22619     22611     22610     22613     22614
     22611     22610     22613     22615     22611     22610     22613     22616
     22612     22610     22613     22614     22612     22610     22613     22615
     22612     22610     22613     22616     22613     22616     22619     22620
     22613     22616     22619     22621     22613     22616     22619     22622
     22614     22613     22616     22617     22614     22613     22616     22618
     22614     22613     22616     22619     22615     22613     22616     22617
     22615     22613     22616     22618     22615     22613     22616     22619
     22616     22619     22622     22623     22616     22619     22622     22624
     22616     22619     22622     22625     22617     22616     22619     22620
     22617     22616     22619     22621     22617     22616     22619     22622
     22618     22616     22619     22620     22618     22616     22619     22621
     22618     22616     22619     22622     22619     22622     22625     22626
     22619     22622     22625     22627     22619     22622     22625     22628
     22620     22619     22622     22623     22620     22619     22622     22624
     22620     22619     22622     22625     22621     22619     22622     22623
     22621     22619     22622     22624     22621     22619     22622     22625
     22622     22625     22628     22629     22622     22625     22628     22630
     22622     22625     22628     22631     22623     22622     22625     22626
     22623     22622     22625     22627     22623     22622     22625     22628
     22624     22622     22625     22626     22624     22622     22625     22627
     22624     22622     22625     22628     22625     22628     22631     22632
     22625     22628     22631     22633     22625     22628     22631     22634
     22626     22625     22628     22629     22626     22625     22628     22630
     22626     22625     22628     22631     22627     22625     22628     22629
     22627     22625     22628     22630     22627     22625     22628     22631
     22628     22631     22634     22635     22628     22631     22634     22636
     22628     22631     22634     22637     22629     22628     22631     22632
     22629     22628     22631     22633     22629     22628     22631     22634
     22630     22628     22631     22632     22630     22628     22631     22633
     22630     22628     22631     22634     22631     22634     22637     22638
     22631     22634     22637     22639     22631     22634     22637     22640
     22632     22631     22634     22635     22632     22631     22634     22636
     22632     22631     22634     22637     22633     22631     22634     22635
     22633     22631     22634     22636     22633     22631     22634     22637
     22634     22637     22640     22641     22634     22637     22640     22642
     22634     22637     22640     22643     22635     22634     22637     22638
     22635     22634     22637     22639     22635     22634     22637     22640
     22636     22634     22637     22638     22636     22634     22637     22639
     22636     22634     22637     22640     22637     22640     22643     22644
     22637     22640     22643     22645     22637     22640     22643     22646
     22638     22637     22640     22641     22638     22637     22640     22642
     22638     22637     22640     22643     22639     22637     22640     22641
     22639     22637     22640     22642     22639     22637     22640     22643
     22641     22640     22643     22644     22641     22640     22643     22645
     22641     22640     22643     22646     22642     22640     22643     22644
     22642     22640     22643     22645     22642     22640     22643     22646
     22647     22648     22663     22664     22647     22648     22663     22665
     22647     22648     22663     22669     22648     22647     22651     22652
     22648     22647     22651     22653     22648     22647     22651     22654
     22648     22647     22655     22656     22648     22647     22655     22657
     22648     22647     22655     22658     22648     22647     22659     22660
     22648     22647     22659     22661     22648     22647     22659     22662
     22648     22663     22669     22666     22649     22648     22647     22651
     22649     22648     22647     22655     22649     22648     22647     22659
     22649     22648     22663     22664     22649     22648     22663     22665
     22649     22648     22663     22669     22650     22648     22647     22651
     22650     22648     22647     22655     22650     22648     22647     22659
     22650     22648     22663     22664     22650     22648     22663     22665
     22650     22648     22663     22669     22651     22647     22648     22663
     22651     22647     22655     22656     22651     22647     22655     22657
     22651     22647     22655     22658     22651     22647     22659     22660
     22651     22647     22659     22661     22651     22647     22659     22662
     22652     22651     22647     22655     22652     22651     22647     22659
     22653     22651     22647     22655     22653     22651     22647     22659
     22654     22651     22647     22655     22654     22651     22647     22659
     22655     22647     22648     22663     22655     22647     22659     22660
     22655     22647     22659     22661     22655     22647     22659     22662
     22656     22655     22647     22659     22657     22655     22647     22659
     22658     22655     22647     22659     22659     22647     22648     22663
     22663     22669     22666     22667     22663     22669     22666     22668
     22663     22669     22666     22670     22664     22663     22669     22666
     22665     22663     22669     22666     22666     22670     22671     22672
     22666     22670     22671     22673     22666     22670     22671     22674
     22667     22666     22670     22671     22668     22666     22670     22671
     22669     22666     22670     22671     22670     22671     22674     22675
     22670     22671     22674     22676     22670     22671     22674     22682
     22671     22674     22676     22677     22671     22674     22682     22683
     22671     22674     22682     22684     22671     22674     22682     22685
     22672     22671     22674     22675     22672     22671     22674     22676
     22672     22671     22674     22682     22673     22671     22674     22675
     22673     22671     22674     22676     22673     22671     22674     22682
     22674     22676     22677     22678     22674     22676     22677     22679
     22674     22682     22685     22686     22675     22674     22676     22677
     22675     22674     22682     22683     22675     22674     22682     22684
     22675     22674     22682     22685     22676     22674     22682     22683
     22676     22674     22682     22684     22676     22674     22682     22685
     22676     22677     22679     22680     22676     22677     22679     22681
     22676     22677     22679     22691     22677     22676     22674     22682
     22677     22679     22691     22692     22677     22679     22691     22693
     22677     22679     22691     22694     22678     22677     22679     22680
     22678     22677     22679     22681     22678     22677     22679     22691
     22679     22691     22694     22695     22679     22691     22694     22696
     22679     22691     22694     22697     22680     22679     22691     22692
     22680     22679     22691     22693     22680     22679     22691     22694
     22681     22679     22691     22692     22681     22679     22691     22693
     22681     22679     22691     22694     22682     22685     22686     22687
     22682     22685     22686     22688     22683     22682     22685     22686
     22684     22682     22685     22686     22685     22686     22688     22689
     22685     22686     22688     22690     22685     22686     22688     22738
     22686     22688     22738     22739     22686     22688     22738     22740
     22686     22688     22738     22741     22687     22686     22688     22689
     22687     22686     22688     22690     22687     22686     22688     22738
     22688     22738     22741     22742     22688     22738     22741     22743
     22688     22738     22741     22744     22689     22688     22738     22739
     22689     22688     22738     22740     22689     22688     22738     22741
     22690     22688     22738     22739     22690     22688     22738     22740
     22690     22688     22738     22741     22691     22694     22697     22698
     22691     22694     22697     22699     22691     22694     22697     22700
     22692     22691     22694     22695     22692     22691     22694     22696
     22692     22691     22694     22697     22693     22691     22694     22695
     22693     22691     22694     22696     22693     22691     22694     22697
     22694     22697     22700     22701     22694     22697     22700     22702
     22694     22697     22700     22703     22695     22694     22697     22698
     22695     22694     22697     22699     22695     22694     22697     22700
     22696     22694     22697     22698     22696     22694     22697     22699
     22696     22694     22697     22700     22697     22700     22703     22704
     22697     22700     22703     22705     22697     22700     22703     22706
     22698     22697     22700     22701     22698     22697     22700     22702
     22698     22697     22700     22703     22699     22697     22700     22701
     22699     22697     22700     22702     22699     22697     22700     22703
     22700     22703     22706     22707     22700     22703     22706     22708
     22700     22703     22706     22709     22701     22700     22703     22704
     22701     22700     22703     22705     22701     22700     22703     22706
     22702     22700     22703     22704     22702     22700     22703     22705
     22702     22700     22703     22706     22703     22706     22709     22710
     22703     22706     22709     22711     22704     22703     22706     22707
     22704     22703     22706     22708     22704     22703     22706     22709
     22705     22703     22706     22707     22705     22703     22706     22708
     22705     22703     22706     22709     22706     22709     22711     22712
     22706     22709     22711     22713     22707     22706     22709     22710
     22707     22706     22709     22711     22708     22706     22709     22710
     22708     22706     22709     22711     22709     22711     22713     22714
     22709     22711     22713     22715     22709     22711     22713     22716
     22710     22709     22711     22712     22710     22709     22711     22713
     22711     22713     22716     22717     22711     22713     22716     22718
     22711     22713     22716     22719     22712     22711     22713     22714
     22712     22711     22713     22715     22712     22711     22713     22716
     22713     22716     22719     22720     22713     22716     22719     22721
     22713     22716     22719     22722     22714     22713     22716     22717
     22714     22713     22716     22718     22714     22713     22716     22719
     22715     22713     22716     22717     22715     22713     22716     22718
     22715     22713     22716     22719     22716     22719     22722     22723
     22716     22719     22722     22724     22716     22719     22722     22725
     22717     22716     22719     22720     22717     22716     22719     22721
     22717     22716     22719     22722     22718     22716     22719     22720
     22718     22716     22719     22721     22718     22716     22719     22722
     22719     22722     22725     22726     22719     22722     22725     22727
     22719     22722     22725     22728     22720     22719     22722     22723
     22720     22719     22722     22724     22720     22719     22722     22725
     22721     22719     22722     22723     22721     22719     22722     22724
     22721     22719     22722     22725     22722     22725     22728     22729
     22722     22725     22728     22730     22722     22725     22728     22731
     22723     22722     22725     22726     22723     22722     22725     22727
     22723     22722     22725     22728     22724     22722     22725     22726
     22724     22722     22725     22727     22724     22722     22725     22728
     22725     22728     22731     22732     22725     22728     22731     22733
     22725     22728     22731     22734     22726     22725     22728     22729
     22726     22725     22728     22730     22726     22725     22728     22731
     22727     22725     22728     22729     22727     22725     22728     22730
     22727     22725     22728     22731     22728     22731     22734     22735
     22728     22731     22734     22736     22728     22731     22734     22737
     22729     22728     22731     22732     22729     22728     22731     22733
     22729     22728     22731     22734     22730     22728     22731     22732
     22730     22728     22731     22733     22730     22728     22731     22734
     22732     22731     22734     22735     22732     22731     22734     22736
     22732     22731     22734     22737     22733     22731     22734     22735
     22733     22731     22734     22736     22733     22731     22734     22737
     22738     22741     22744     22745     22738     22741     22744     22746
     22738     22741     22744     22747     22739     22738     22741     22742
     22739     22738     22741     22743     22739     22738     22741     22744
     22740     22738     22741     22742     22740     22738     22741     22743
     22740     22738     22741     22744     22741     22744     22747     22748
     22741     22744     22747     22749     22741     22744     22747     22750
     22742     22741     22744     22745     22742     22741     22744     22746
     22742     22741     22744     22747     22743     22741     22744     22745
     22743     22741     22744     22746     22743     22741     22744     22747
     22744     22747     22750     22751     22744     22747     22750     22752
     22744     22747     22750     22753     22745     22744     22747     22748
     22745     22744     22747     22749     22745     22744     22747     22750
     22746     22744     22747     22748     22746     22744     22747     22749
     22746     22744     22747     22750     22747     22750     22753     22754
     22747     22750     22753     22755     22747     22750     22753     22756
     22748     22747     22750     22751     22748     22747     22750     22752
     22748     22747     22750     22753     22749     22747     22750     22751
     22749     22747     22750     22752     22749     22747     22750     22753
     22750     22753     22756     22757     22750     22753     22756     22758
     22750     22753     22756     22759     22751     22750     22753     22754
     22751     22750     22753     22755     22751     22750     22753     22756
     22752     22750     22753     22754     22752     22750     22753     22755
     22752     22750     22753     22756     22753     22756     22759     22760
     22753     22756     22759     22761     22753     22756     22759     22762
     22754     22753     22756     22757     22754     22753     22756     22758
     22754     22753     22756     22759     22755     22753     22756     22757
     22755     22753     22756     22758     22755     22753     22756     22759
     22756     22759     22762     22763     22756     22759     22762     22764
     22756     22759     22762     22765     22757     22756     22759     22760
     22757     22756     22759     22761     22757     22756     22759     22762
     22758     22756     22759     22760     22758     22756     22759     22761
     22758     22756     22759     22762     22759     22762     22765     22766
     22759     22762     22765     22767     22759     22762     22765     22768
     22760     22759     22762     22763     22760     22759     22762     22764
     22760     22759     22762     22765     22761     22759     22762     22763
     22761     22759     22762     22764     22761     22759     22762     22765
     22762     22765     22768     22769     22762     22765     22768     22770
     22762     22765     22768     22771     22763     22762     22765     22766
     22763     22762     22765     22767     22763     22762     22765     22768
     22764     22762     22765     22766     22764     22762     22765     22767
     22764     22762     22765     22768     22765     22768     22771     22772
     22765     22768     22771     22773     22765     22768     22771     22774
     22766     22765     22768     22769     22766     22765     22768     22770
     22766     22765     22768     22771     22767     22765     22768     22769
     22767     22765     22768     22770     22767     22765     22768     22771
     22768     22771     22774     22775     22768     22771     22774     22776
     22768     22771     22774     22777     22769     22768     22771     22772
     22769     22768     22771     22773     22769     22768     22771     22774
     22770     22768     22771     22772     22770     22768     22771     22773
     22770     22768     22771     22774     22771     22774     22777     22778
     22771     22774     22777     22779     22771     22774     22777     22780
     22772     22771     22774     22775     22772     22771     22774     22776
     22772     22771     22774     22777     22773     22771     22774     22775
     22773     22771     22774     22776     22773     22771     22774     22777
     22775     22774     22777     22778     22775     22774     22777     22779
     22775     22774     22777     22780     22776     22774     22777     22778
     22776     22774     22777     22779     22776     22774     22777     22780
     22781     22782     22797     22798     22781     22782     22797     22799
     22781     22782     22797     22803     22782     22781     22785     22786
     22782     22781     22785     22787     22782     22781     22785     22788
     22782     22781     22789     22790     22782     22781     22789     22791
     22782     22781     22789     22792     22782     22781     22793     22794
     22782     22781     22793     22795     22782     22781     22793     22796
     22782     22797     22803     22800     22783     22782     22781     22785
     22783     22782     22781     22789     22783     22782     22781     22793
     22783     22782     22797     22798     22783     22782     22797     22799
     22783     22782     22797     22803     22784     22782     22781     22785
     22784     22782     22781     22789     22784     22782     22781     22793
     22784     22782     22797     22798     22784     22782     22797     22799
     22784     22782     22797     22803     22785     22781     22782     22797
     22785     22781     22789     22790     22785     22781     22789     22791
     22785     22781     22789     22792     22785     22781     22793     22794
     22785     22781     22793     22795     22785     22781     22793     22796
     22786     22785     22781     22789     22786     22785     22781     22793
     22787     22785     22781     22789     22787     22785     22781     22793
     22788     22785     22781     22789     22788     22785     22781     22793
     22789     22781     22782     22797     22789     22781     22793     22794
     22789     22781     22793     22795     22789     22781     22793     22796
     22790     22789     22781     22793     22791     22789     22781     22793
     22792     22789     22781     22793     22793     22781     22782     22797
     22797     22803     22800     22801     22797     22803     22800     22802
     22797     22803     22800     22804     22798     22797     22803     22800
     22799     22797     22803     22800     22800     22804     22805     22806
     22800     22804     22805     22807     22800     22804     22805     22808
     22801     22800     22804     22805     22802     22800     22804     22805
     22803     22800     22804     22805     22804     22805     22808     22809
     22804     22805     22808     22810     22804     22805     22808     22816
     22805     22808     22810     22811     22805     22808     22816     22817
     22805     22808     22816     22818     22805     22808     22816     22819
     22806     22805     22808     22809     22806     22805     22808     22810
     22806     22805     22808     22816     22807     22805     22808     22809
     22807     22805     22808     22810     22807     22805     22808     22816
     22808     22810     22811     22812     22808     22810     22811     22813
     22808     22816     22819     22820     22809     22808     22810     22811
     22809     22808     22816     22817     22809     22808     22816     22818
     22809     22808     22816     22819     22810     22808     22816     22817
     22810     22808     22816     22818     22810     22808     22816     22819
     22810     22811     22813     22814     22810     22811     22813     22815
     22810     22811     22813     22825     22811     22810     22808     22816
     22811     22813     22825     22826     22811     22813     22825     22827
     22811     22813     22825     22828     22812     22811     22813     22814
     22812     22811     22813     22815     22812     22811     22813     22825
     22813     22825     22828     22829     22813     22825     22828     22830
     22813     22825     22828     22831     22814     22813     22825     22826
     22814     22813     22825     22827     22814     22813     22825     22828
     22815     22813     22825     22826     22815     22813     22825     22827
     22815     22813     22825     22828     22816     22819     22820     22821
     22816     22819     22820     22822     22817     22816     22819     22820
     22818     22816     22819     22820     22819     22820     22822     22823
     22819     22820     22822     22824     22819     22820     22822     22872
     22820     22822     22872     22873     22820     22822     22872     22874
     22820     22822     22872     22875     22821     22820     22822     22823
     22821     22820     22822     22824     22821     22820     22822     22872
     22822     22872     22875     22876     22822     22872     22875     22877
     22822     22872     22875     22878     22823     22822     22872     22873
     22823     22822     22872     22874     22823     22822     22872     22875
     22824     22822     22872     22873     22824     22822     22872     22874
     22824     22822     22872     22875     22825     22828     22831     22832
     22825     22828     22831     22833     22825     22828     22831     22834
     22826     22825     22828     22829     22826     22825     22828     22830
     22826     22825     22828     22831     22827     22825     22828     22829
     22827     22825     22828     22830     22827     22825     22828     22831
     22828     22831     22834     22835     22828     22831     22834     22836
     22828     22831     22834     22837     22829     22828     22831     22832
     22829     22828     22831     22833     22829     22828     22831     22834
     22830     22828     22831     22832     22830     22828     22831     22833
     22830     22828     22831     22834     22831     22834     22837     22838
     22831     22834     22837     22839     22831     22834     22837     22840
     22832     22831     22834     22835     22832     22831     22834     22836
     22832     22831     22834     22837     22833     22831     22834     22835
     22833     22831     22834     22836     22833     22831     22834     22837
     22834     22837     22840     22841     22834     22837     22840     22842
     22834     22837     22840     22843     22835     22834     22837     22838
     22835     22834     22837     22839     22835     22834     22837     22840
     22836     22834     22837     22838     22836     22834     22837     22839
     22836     22834     22837     22840     22837     22840     22843     22844
     22837     22840     22843     22845     22838     22837     22840     22841
     22838     22837     22840     22842     22838     22837     22840     22843
     22839     22837     22840     22841     22839     22837     22840     22842
     22839     22837     22840     22843     22840     22843     22845     22846
     22840     22843     22845     22847     22841     22840     22843     22844
     22841     22840     22843     22845     22842     22840     22843     22844
     22842     22840     22843     22845     22843     22845     22847     22848
     22843     22845     22847     22849     22843     22845     22847     22850
     22844     22843     22845     22846     22844     22843     22845     22847
     22845     22847     22850     22851     22845     22847     22850     22852
     22845     22847     22850     22853     22846     22845     22847     22848
     22846     22845     22847     22849     22846     22845     22847     22850
     22847     22850     22853     22854     22847     22850     22853     22855
     22847     22850     22853     22856     22848     22847     22850     22851
     22848     22847     22850     22852     22848     22847     22850     22853
     22849     22847     22850     22851     22849     22847     22850     22852
     22849     22847     22850     22853     22850     22853     22856     22857
     22850     22853     22856     22858     22850     22853     22856     22859
     22851     22850     22853     22854     22851     22850     22853     22855
     22851     22850     22853     22856     22852     22850     22853     22854
     22852     22850     22853     22855     22852     22850     22853     22856
     22853     22856     22859     22860     22853     22856     22859     22861
     22853     22856     22859     22862     22854     22853     22856     22857
     22854     22853     22856     22858     22854     22853     22856     22859
     22855     22853     22856     22857     22855     22853     22856     22858
     22855     22853     22856     22859     22856     22859     22862     22863
     22856     22859     22862     22864     22856     22859     22862     22865
     22857     22856     22859     22860     22857     22856     22859     22861
     22857     22856     22859     22862     22858     22856     22859     22860
     22858     22856     22859     22861     22858     22856     22859     22862
     22859     22862     22865     22866     22859     22862     22865     22867
     22859     22862     22865     22868     22860     22859     22862     22863
     22860     22859     22862     22864     22860     22859     22862     22865
     22861     22859     22862     22863     22861     22859     22862     22864
     22861     22859     22862     22865     22862     22865     22868     22869
     22862     22865     22868     22870     22862     22865     22868     22871
     22863     22862     22865     22866     22863     22862     22865     22867
     22863     22862     22865     22868     22864     22862     22865     22866
     22864     22862     22865     22867     22864     22862     22865     22868
     22866     22865     22868     22869     22866     22865     22868     22870
     22866     22865     22868     22871     22867     22865     22868     22869
     22867     22865     22868     22870     22867     22865     22868     22871
     22872     22875     22878     22879     22872     22875     22878     22880
     22872     22875     22878     22881     22873     22872     22875     22876
     22873     22872     22875     22877     22873     22872     22875     22878
     22874     22872     22875     22876     22874     22872     22875     22877
     22874     22872     22875     22878     22875     22878     22881     22882
     22875     22878     22881     22883     22875     22878     22881     22884
     22876     22875     22878     22879     22876     22875     22878     22880
     22876     22875     22878     22881     22877     22875     22878     22879
     22877     22875     22878     22880     22877     22875     22878     22881
     22878     22881     22884     22885     22878     22881     22884     22886
     22878     22881     22884     22887     22879     22878     22881     22882
     22879     22878     22881     22883     22879     22878     22881     22884
     22880     22878     22881     22882     22880     22878     22881     22883
     22880     22878     22881     22884     22881     22884     22887     22888
     22881     22884     22887     22889     22881     22884     22887     22890
     22882     22881     22884     22885     22882     22881     22884     22886
     22882     22881     22884     22887     22883     22881     22884     22885
     22883     22881     22884     22886     22883     22881     22884     22887
     22884     22887     22890     22891     22884     22887     22890     22892
     22884     22887     22890     22893     22885     22884     22887     22888
     22885     22884     22887     22889     22885     22884     22887     22890
     22886     22884     22887     22888     22886     22884     22887     22889
     22886     22884     22887     22890     22887     22890     22893     22894
     22887     22890     22893     22895     22887     22890     22893     22896
     22888     22887     22890     22891     22888     22887     22890     22892
     22888     22887     22890     22893     22889     22887     22890     22891
     22889     22887     22890     22892     22889     22887     22890     22893
     22890     22893     22896     22897     22890     22893     22896     22898
     22890     22893     22896     22899     22891     22890     22893     22894
     22891     22890     22893     22895     22891     22890     22893     22896
     22892     22890     22893     22894     22892     22890     22893     22895
     22892     22890     22893     22896     22893     22896     22899     22900
     22893     22896     22899     22901     22893     22896     22899     22902
     22894     22893     22896     22897     22894     22893     22896     22898
     22894     22893     22896     22899     22895     22893     22896     22897
     22895     22893     22896     22898     22895     22893     22896     22899
     22896     22899     22902     22903     22896     22899     22902     22904
     22896     22899     22902     22905     22897     22896     22899     22900
     22897     22896     22899     22901     22897     22896     22899     22902
     22898     22896     22899     22900     22898     22896     22899     22901
     22898     22896     22899     22902     22899     22902     22905     22906
     22899     22902     22905     22907     22899     22902     22905     22908
     22900     22899     22902     22903     22900     22899     22902     22904
     22900     22899     22902     22905     22901     22899     22902     22903
     22901     22899     22902     22904     22901     22899     22902     22905
     22902     22905     22908     22909     22902     22905     22908     22910
     22902     22905     22908     22911     22903     22902     22905     22906
     22903     22902     22905     22907     22903     22902     22905     22908
     22904     22902     22905     22906     22904     22902     22905     22907
     22904     22902     22905     22908     22905     22908     22911     22912
     22905     22908     22911     22913     22905     22908     22911     22914
     22906     22905     22908     22909     22906     22905     22908     22910
     22906     22905     22908     22911     22907     22905     22908     22909
     22907     22905     22908     22910     22907     22905     22908     22911
     22909     22908     22911     22912     22909     22908     22911     22913
     22909     22908     22911     22914     22910     22908     22911     22912
     22910     22908     22911     22913     22910     22908     22911     22914
     22915     22916     22931     22932     22915     22916     22931     22933
     22915     22916     22931     22937     22916     22915     22919     22920
     22916     22915     22919     22921     22916     22915     22919     22922
     22916     22915     22923     22924     22916     22915     22923     22925
     22916     22915     22923     22926     22916     22915     22927     22928
     22916     22915     22927     22929     22916     22915     22927     22930
     22916     22931     22937     22934     22917     22916     22915     22919
     22917     22916     22915     22923     22917     22916     22915     22927
     22917     22916     22931     22932     22917     22916     22931     22933
     22917     22916     22931     22937     22918     22916     22915     22919
     22918     22916     22915     22923     22918     22916     22915     22927
     22918     22916     22931     22932     22918     22916     22931     22933
     22918     22916     22931     22937     22919     22915     22916     22931
     22919     22915     22923     22924     22919     22915     22923     22925
     22919     22915     22923     22926     22919     22915     22927     22928
     22919     22915     22927     22929     22919     22915     22927     22930
     22920     22919     22915     22923     22920     22919     22915     22927
     22921     22919     22915     22923     22921     22919     22915     22927
     22922     22919     22915     22923     22922     22919     22915     22927
     22923     22915     22916     22931     22923     22915     22927     22928
     22923     22915     22927     22929     22923     22915     22927     22930
     22924     22923     22915     22927     22925     22923     22915     22927
     22926     22923     22915     22927     22927     22915     22916     22931
     22931     22937     22934     22935     22931     22937     22934     22936
     22931     22937     22934     22938     22932     22931     22937     22934
     22933     22931     22937     22934     22934     22938     22939     22940
     22934     22938     22939     22941     22934     22938     22939     22942
     22935     22934     22938     22939     22936     22934     22938     22939
     22937     22934     22938     22939     22938     22939     22942     22943
     22938     22939     22942     22944     22938     22939     22942     22950
     22939     22942     22944     22945     22939     22942     22950     22951
     22939     22942     22950     22952     22939     22942     22950     22953
     22940     22939     22942     22943     22940     22939     22942     22944
     22940     22939     22942     22950     22941     22939     22942     22943
     22941     22939     22942     22944     22941     22939     22942     22950
     22942     22944     22945     22946     22942     22944     22945     22947
     22942     22950     22953     22954     22943     22942     22944     22945
     22943     22942     22950     22951     22943     22942     22950     22952
     22943     22942     22950     22953     22944     22942     22950     22951
     22944     22942     22950     22952     22944     22942     22950     22953
     22944     22945     22947     22948     22944     22945     22947     22949
     22944     22945     22947     22959     22945     22944     22942     22950
     22945     22947     22959     22960     22945     22947     22959     22961
     22945     22947     22959     22962     22946     22945     22947     22948
     22946     22945     22947     22949     22946     22945     22947     22959
     22947     22959     22962     22963     22947     22959     22962     22964
     22947     22959     22962     22965     22948     22947     22959     22960
     22948     22947     22959     22961     22948     22947     22959     22962
     22949     22947     22959     22960     22949     22947     22959     22961
     22949     22947     22959     22962     22950     22953     22954     22955
     22950     22953     22954     22956     22951     22950     22953     22954
     22952     22950     22953     22954     22953     22954     22956     22957
     22953     22954     22956     22958     22953     22954     22956     23006
     22954     22956     23006     23007     22954     22956     23006     23008
     22954     22956     23006     23009     22955     22954     22956     22957
     22955     22954     22956     22958     22955     22954     22956     23006
     22956     23006     23009     23010     22956     23006     23009     23011
     22956     23006     23009     23012     22957     22956     23006     23007
     22957     22956     23006     23008     22957     22956     23006     23009
     22958     22956     23006     23007     22958     22956     23006     23008
     22958     22956     23006     23009     22959     22962     22965     22966
     22959     22962     22965     22967     22959     22962     22965     22968
     22960     22959     22962     22963     22960     22959     22962     22964
     22960     22959     22962     22965     22961     22959     22962     22963
     22961     22959     22962     22964     22961     22959     22962     22965
     22962     22965     22968     22969     22962     22965     22968     22970
     22962     22965     22968     22971     22963     22962     22965     22966
     22963     22962     22965     22967     22963     22962     22965     22968
     22964     22962     22965     22966     22964     22962     22965     22967
     22964     22962     22965     22968     22965     22968     22971     22972
     22965     22968     22971     22973     22965     22968     22971     22974
     22966     22965     22968     22969     22966     22965     22968     22970
     22966     22965     22968     22971     22967     22965     22968     22969
     22967     22965     22968     22970     22967     22965     22968     22971
     22968     22971     22974     22975     22968     22971     22974     22976
     22968     22971     22974     22977     22969     22968     22971     22972
     22969     22968     22971     22973     22969     22968     22971     22974
     22970     22968     22971     22972     22970     22968     22971     22973
     22970     22968     22971     22974     22971     22974     22977     22978
     22971     22974     22977     22979     22972     22971     22974     22975
     22972     22971     22974     22976     22972     22971     22974     22977
     22973     22971     22974     22975     22973     22971     22974     22976
     22973     22971     22974     22977     22974     22977     22979     22980
     22974     22977     22979     22981     22975     22974     22977     22978
     22975     22974     22977     22979     22976     22974     22977     22978
     22976     22974     22977     22979     22977     22979     22981     22982
     22977     22979     22981     22983     22977     22979     22981     22984
     22978     22977     22979     22980     22978     22977     22979     22981
     22979     22981     22984     22985     22979     22981     22984     22986
     22979     22981     22984     22987     22980     22979     22981     22982
     22980     22979     22981     22983     22980     22979     22981     22984
     22981     22984     22987     22988     22981     22984     22987     22989
     22981     22984     22987     22990     22982     22981     22984     22985
     22982     22981     22984     22986     22982     22981     22984     22987
     22983     22981     22984     22985     22983     22981     22984     22986
     22983     22981     22984     22987     22984     22987     22990     22991
     22984     22987     22990     22992     22984     22987     22990     22993
     22985     22984     22987     22988     22985     22984     22987     22989
     22985     22984     22987     22990     22986     22984     22987     22988
     22986     22984     22987     22989     22986     22984     22987     22990
     22987     22990     22993     22994     22987     22990     22993     22995
     22987     22990     22993     22996     22988     22987     22990     22991
     22988     22987     22990     22992     22988     22987     22990     22993
     22989     22987     22990     22991     22989     22987     22990     22992
     22989     22987     22990     22993     22990     22993     22996     22997
     22990     22993     22996     22998     22990     22993     22996     22999
     22991     22990     22993     22994     22991     22990     22993     22995
     22991     22990     22993     22996     22992     22990     22993     22994
     22992     22990     22993     22995     22992     22990     22993     22996
     22993     22996     22999     23000     22993     22996     22999     23001
     22993     22996     22999     23002     22994     22993     22996     22997
     22994     22993     22996     22998     22994     22993     22996     22999
     22995     22993     22996     22997     22995     22993     22996     22998
     22995     22993     22996     22999     22996     22999     23002     23003
     22996     22999     23002     23004     22996     22999     23002     23005
     22997     22996     22999     23000     22997     22996     22999     23001
     22997     22996     22999     23002     22998     22996     22999     23000
     22998     22996     22999     23001     22998     22996     22999     23002
     23000     22999     23002     23003     23000     22999     23002     23004
     23000     22999     23002     23005     23001     22999     23002     23003
     23001     22999     23002     23004     23001     22999     23002     23005
     23006     23009     23012     23013     23006     23009     23012     23014
     23006     23009     23012     23015     23007     23006     23009     23010
     23007     23006     23009     23011     23007     23006     23009     23012
     23008     23006     23009     23010     23008     23006     23009     23011
     23008     23006     23009     23012     23009     23012     23015     23016
     23009     23012     23015     23017     23009     23012     23015     23018
     23010     23009     23012     23013     23010     23009     23012     23014
     23010     23009     23012     23015     23011     23009     23012     23013
     23011     23009     23012     23014     23011     23009     23012     23015
     23012     23015     23018     23019     23012     23015     23018     23020
     23012     23015     23018     23021     23013     23012     23015     23016
     23013     23012     23015     23017     23013     23012     23015     23018
     23014     23012     23015     23016     23014     23012     23015     23017
     23014     23012     23015     23018     23015     23018     23021     23022
     23015     23018     23021     23023     23015     23018     23021     23024
     23016     23015     23018     23019     23016     23015     23018     23020
     23016     23015     23018     23021     23017     23015     23018     23019
     23017     23015     23018     23020     23017     23015     23018     23021
     23018     23021     23024     23025     23018     23021     23024     23026
     23018     23021     23024     23027     23019     23018     23021     23022
     23019     23018     23021     23023     23019     23018     23021     23024
     23020     23018     23021     23022     23020     23018     23021     23023
     23020     23018     23021     23024     23021     23024     23027     23028
     23021     23024     23027     23029     23021     23024     23027     23030
     23022     23021     23024     23025     23022     23021     23024     23026
     23022     23021     23024     23027     23023     23021     23024     23025
     23023     23021     23024     23026     23023     23021     23024     23027
     23024     23027     23030     23031     23024     23027     23030     23032
     23024     23027     23030     23033     23025     23024     23027     23028
     23025     23024     23027     23029     23025     23024     23027     23030
     23026     23024     23027     23028     23026     23024     23027     23029
     23026     23024     23027     23030     23027     23030     23033     23034
     23027     23030     23033     23035     23027     23030     23033     23036
     23028     23027     23030     23031     23028     23027     23030     23032
     23028     23027     23030     23033     23029     23027     23030     23031
     23029     23027     23030     23032     23029     23027     23030     23033
     23030     23033     23036     23037     23030     23033     23036     23038
     23030     23033     23036     23039     23031     23030     23033     23034
     23031     23030     23033     23035     23031     23030     23033     23036
     23032     23030     23033     23034     23032     23030     23033     23035
     23032     23030     23033     23036     23033     23036     23039     23040
     23033     23036     23039     23041     23033     23036     23039     23042
     23034     23033     23036     23037     23034     23033     23036     23038
     23034     23033     23036     23039     23035     23033     23036     23037
     23035     23033     23036     23038     23035     23033     23036     23039
     23036     23039     23042     23043     23036     23039     23042     23044
     23036     23039     23042     23045     23037     23036     23039     23040
     23037     23036     23039     23041     23037     23036     23039     23042
     23038     23036     23039     23040     23038     23036     23039     23041
     23038     23036     23039     23042     23039     23042     23045     23046
     23039     23042     23045     23047     23039     23042     23045     23048
     23040     23039     23042     23043     23040     23039     23042     23044
     23040     23039     23042     23045     23041     23039     23042     23043
     23041     23039     23042     23044     23041     23039     23042     23045
     23043     23042     23045     23046     23043     23042     23045     23047
     23043     23042     23045     23048     23044     23042     23045     23046
     23044     23042     23045     23047     23044     23042     23045     23048
     23049     23050     23065     23066     23049     23050     23065     23067
     23049     23050     23065     23071     23050     23049     23053     23054
     23050     23049     23053     23055     23050     23049     23053     23056
     23050     23049     23057     23058     23050     23049     23057     23059
     23050     23049     23057     23060     23050     23049     23061     23062
     23050     23049     23061     23063     23050     23049     23061     23064
     23050     23065     23071     23068     23051     23050     23049     23053
     23051     23050     23049     23057     23051     23050     23049     23061
     23051     23050     23065     23066     23051     23050     23065     23067
     23051     23050     23065     23071     23052     23050     23049     23053
     23052     23050     23049     23057     23052     23050     23049     23061
     23052     23050     23065     23066     23052     23050     23065     23067
     23052     23050     23065     23071     23053     23049     23050     23065
     23053     23049     23057     23058     23053     23049     23057     23059
     23053     23049     23057     23060     23053     23049     23061     23062
     23053     23049     23061     23063     23053     23049     23061     23064
     23054     23053     23049     23057     23054     23053     23049     23061
     23055     23053     23049     23057     23055     23053     23049     23061
     23056     23053     23049     23057     23056     23053     23049     23061
     23057     23049     23050     23065     23057     23049     23061     23062
     23057     23049     23061     23063     23057     23049     23061     23064
     23058     23057     23049     23061     23059     23057     23049     23061
     23060     23057     23049     23061     23061     23049     23050     23065
     23065     23071     23068     23069     23065     23071     23068     23070
     23065     23071     23068     23072     23066     23065     23071     23068
     23067     23065     23071     23068     23068     23072     23073     23074
     23068     23072     23073     23075     23068     23072     23073     23076
     23069     23068     23072     23073     23070     23068     23072     23073
     23071     23068     23072     23073     23072     23073     23076     23077
     23072     23073     23076     23078     23072     23073     23076     23084
     23073     23076     23078     23079     23073     23076     23084     23085
     23073     23076     23084     23086     23073     23076     23084     23087
     23074     23073     23076     23077     23074     23073     23076     23078
     23074     23073     23076     23084     23075     23073     23076     23077
     23075     23073     23076     23078     23075     23073     23076     23084
     23076     23078     23079     23080     23076     23078     23079     23081
     23076     23084     23087     23088     23077     23076     23078     23079
     23077     23076     23084     23085     23077     23076     23084     23086
     23077     23076     23084     23087     23078     23076     23084     23085
     23078     23076     23084     23086     23078     23076     23084     23087
     23078     23079     23081     23082     23078     23079     23081     23083
     23078     23079     23081     23093     23079     23078     23076     23084
     23079     23081     23093     23094     23079     23081     23093     23095
     23079     23081     23093     23096     23080     23079     23081     23082
     23080     23079     23081     23083     23080     23079     23081     23093
     23081     23093     23096     23097     23081     23093     23096     23098
     23081     23093     23096     23099     23082     23081     23093     23094
     23082     23081     23093     23095     23082     23081     23093     23096
     23083     23081     23093     23094     23083     23081     23093     23095
     23083     23081     23093     23096     23084     23087     23088     23089
     23084     23087     23088     23090     23085     23084     23087     23088
     23086     23084     23087     23088     23087     23088     23090     23091
     23087     23088     23090     23092     23087     23088     23090     23140
     23088     23090     23140     23141     23088     23090     23140     23142
     23088     23090     23140     23143     23089     23088     23090     23091
     23089     23088     23090     23092     23089     23088     23090     23140
     23090     23140     23143     23144     23090     23140     23143     23145
     23090     23140     23143     23146     23091     23090     23140     23141
     23091     23090     23140     23142     23091     23090     23140     23143
     23092     23090     23140     23141     23092     23090     23140     23142
     23092     23090     23140     23143     23093     23096     23099     23100
     23093     23096     23099     23101     23093     23096     23099     23102
     23094     23093     23096     23097     23094     23093     23096     23098
     23094     23093     23096     23099     23095     23093     23096     23097
     23095     23093     23096     23098     23095     23093     23096     23099
     23096     23099     23102     23103     23096     23099     23102     23104
     23096     23099     23102     23105     23097     23096     23099     23100
     23097     23096     23099     23101     23097     23096     23099     23102
     23098     23096     23099     23100     23098     23096     23099     23101
     23098     23096     23099     23102     23099     23102     23105     23106
     23099     23102     23105     23107     23099     23102     23105     23108
     23100     23099     23102     23103     23100     23099     23102     23104
     23100     23099     23102     23105     23101     23099     23102     23103
     23101     23099     23102     23104     23101     23099     23102     23105
     23102     23105     23108     23109     23102     23105     23108     23110
     23102     23105     23108     23111     23103     23102     23105     23106
     23103     23102     23105     23107     23103     23102     23105     23108
     23104     23102     23105     23106     23104     23102     23105     23107
     23104     23102     23105     23108     23105     23108     23111     23112
     23105     23108     23111     23113     23106     23105     23108     23109
     23106     23105     23108     23110     23106     23105     23108     23111
     23107     23105     23108     23109     23107     23105     23108     23110
     23107     23105     23108     23111     23108     23111     23113     23114
     23108     23111     23113     23115     23109     23108     23111     23112
     23109     23108     23111     23113     23110     23108     23111     23112
     23110     23108     23111     23113     23111     23113     23115     23116
     23111     23113     23115     23117     23111     23113     23115     23118
     23112     23111     23113     23114     23112     23111     23113     23115
     23113     23115     23118     23119     23113     23115     23118     23120
     23113     23115     23118     23121     23114     23113     23115     23116
     23114     23113     23115     23117     23114     23113     23115     23118
     23115     23118     23121     23122     23115     23118     23121     23123
     23115     23118     23121     23124     23116     23115     23118     23119
     23116     23115     23118     23120     23116     23115     23118     23121
     23117     23115     23118     23119     23117     23115     23118     23120
     23117     23115     23118     23121     23118     23121     23124     23125
     23118     23121     23124     23126     23118     23121     23124     23127
     23119     23118     23121     23122     23119     23118     23121     23123
     23119     23118     23121     23124     23120     23118     23121     23122
     23120     23118     23121     23123     23120     23118     23121     23124
     23121     23124     23127     23128     23121     23124     23127     23129
     23121     23124     23127     23130     23122     23121     23124     23125
     23122     23121     23124     23126     23122     23121     23124     23127
     23123     23121     23124     23125     23123     23121     23124     23126
     23123     23121     23124     23127     23124     23127     23130     23131
     23124     23127     23130     23132     23124     23127     23130     23133
     23125     23124     23127     23128     23125     23124     23127     23129
     23125     23124     23127     23130     23126     23124     23127     23128
     23126     23124     23127     23129     23126     23124     23127     23130
     23127     23130     23133     23134     23127     23130     23133     23135
     23127     23130     23133     23136     23128     23127     23130     23131
     23128     23127     23130     23132     23128     23127     23130     23133
     23129     23127     23130     23131     23129     23127     23130     23132
     23129     23127     23130     23133     23130     23133     23136     23137
     23130     23133     23136     23138     23130     23133     23136     23139
     23131     23130     23133     23134     23131     23130     23133     23135
     23131     23130     23133     23136     23132     23130     23133     23134
     23132     23130     23133     23135     23132     23130     23133     23136
     23134     23133     23136     23137     23134     23133     23136     23138
     23134     23133     23136     23139     23135     23133     23136     23137
     23135     23133     23136     23138     23135     23133     23136     23139
     23140     23143     23146     23147     23140     23143     23146     23148
     23140     23143     23146     23149     23141     23140     23143     23144
     23141     23140     23143     23145     23141     23140     23143     23146
     23142     23140     23143     23144     23142     23140     23143     23145
     23142     23140     23143     23146     23143     23146     23149     23150
     23143     23146     23149     23151     23143     23146     23149     23152
     23144     23143     23146     23147     23144     23143     23146     23148
     23144     23143     23146     23149     23145     23143     23146     23147
     23145     23143     23146     23148     23145     23143     23146     23149
     23146     23149     23152     23153     23146     23149     23152     23154
     23146     23149     23152     23155     23147     23146     23149     23150
     23147     23146     23149     23151     23147     23146     23149     23152
     23148     23146     23149     23150     23148     23146     23149     23151
     23148     23146     23149     23152     23149     23152     23155     23156
     23149     23152     23155     23157     23149     23152     23155     23158
     23150     23149     23152     23153     23150     23149     23152     23154
     23150     23149     23152     23155     23151     23149     23152     23153
     23151     23149     23152     23154     23151     23149     23152     23155
     23152     23155     23158     23159     23152     23155     23158     23160
     23152     23155     23158     23161     23153     23152     23155     23156
     23153     23152     23155     23157     23153     23152     23155     23158
     23154     23152     23155     23156     23154     23152     23155     23157
     23154     23152     23155     23158     23155     23158     23161     23162
     23155     23158     23161     23163     23155     23158     23161     23164
     23156     23155     23158     23159     23156     23155     23158     23160
     23156     23155     23158     23161     23157     23155     23158     23159
     23157     23155     23158     23160     23157     23155     23158     23161
     23158     23161     23164     23165     23158     23161     23164     23166
     23158     23161     23164     23167     23159     23158     23161     23162
     23159     23158     23161     23163     23159     23158     23161     23164
     23160     23158     23161     23162     23160     23158     23161     23163
     23160     23158     23161     23164     23161     23164     23167     23168
     23161     23164     23167     23169     23161     23164     23167     23170
     23162     23161     23164     23165     23162     23161     23164     23166
     23162     23161     23164     23167     23163     23161     23164     23165
     23163     23161     23164     23166     23163     23161     23164     23167
     23164     23167     23170     23171     23164     23167     23170     23172
     23164     23167     23170     23173     23165     23164     23167     23168
     23165     23164     23167     23169     23165     23164     23167     23170
     23166     23164     23167     23168     23166     23164     23167     23169
     23166     23164     23167     23170     23167     23170     23173     23174
     23167     23170     23173     23175     23167     23170     23173     23176
     23168     23167     23170     23171     23168     23167     23170     23172
     23168     23167     23170     23173     23169     23167     23170     23171
     23169     23167     23170     23172     23169     23167     23170     23173
     23170     23173     23176     23177     23170     23173     23176     23178
     23170     23173     23176     23179     23171     23170     23173     23174
     23171     23170     23173     23175     23171     23170     23173     23176
     23172     23170     23173     23174     23172     23170     23173     23175
     23172     23170     23173     23176     23173     23176     23179     23180
     23173     23176     23179     23181     23173     23176     23179     23182
     23174     23173     23176     23177     23174     23173     23176     23178
     23174     23173     23176     23179     23175     23173     23176     23177
     23175     23173     23176     23178     23175     23173     23176     23179
     23177     23176     23179     23180     23177     23176     23179     23181
     23177     23176     23179     23182     23178     23176     23179     23180
     23178     23176     23179     23181     23178     23176     23179     23182
     23183     23184     23199     23200     23183     23184     23199     23201
     23183     23184     23199     23205     23184     23183     23187     23188
     23184     23183     23187     23189     23184     23183     23187     23190
     23184     23183     23191     23192     23184     23183     23191     23193
     23184     23183     23191     23194     23184     23183     23195     23196
     23184     23183     23195     23197     23184     23183     23195     23198
     23184     23199     23205     23202     23185     23184     23183     23187
     23185     23184     23183     23191     23185     23184     23183     23195
     23185     23184     23199     23200     23185     23184     23199     23201
     23185     23184     23199     23205     23186     23184     23183     23187
     23186     23184     23183     23191     23186     23184     23183     23195
     23186     23184     23199     23200     23186     23184     23199     23201
     23186     23184     23199     23205     23187     23183     23184     23199
     23187     23183     23191     23192     23187     23183     23191     23193
     23187     23183     23191     23194     23187     23183     23195     23196
     23187     23183     23195     23197     23187     23183     23195     23198
     23188     23187     23183     23191     23188     23187     23183     23195
     23189     23187     23183     23191     23189     23187     23183     23195
     23190     23187     23183     23191     23190     23187     23183     23195
     23191     23183     23184     23199     23191     23183     23195     23196
     23191     23183     23195     23197     23191     23183     23195     23198
     23192     23191     23183     23195     23193     23191     23183     23195
     23194     23191     23183     23195     23195     23183     23184     23199
     23199     23205     23202     23203     23199     23205     23202     23204
     23199     23205     23202     23206     23200     23199     23205     23202
     23201     23199     23205     23202     23202     23206     23207     23208
     23202     23206     23207     23209     23202     23206     23207     23210
     23203     23202     23206     23207     23204     23202     23206     23207
     23205     23202     23206     23207     23206     23207     23210     23211
     23206     23207     23210     23212     23206     23207     23210     23218
     23207     23210     23212     23213     23207     23210     23218     23219
     23207     23210     23218     23220     23207     23210     23218     23221
     23208     23207     23210     23211     23208     23207     23210     23212
     23208     23207     23210     23218     23209     23207     23210     23211
     23209     23207     23210     23212     23209     23207     23210     23218
     23210     23212     23213     23214     23210     23212     23213     23215
     23210     23218     23221     23222     23211     23210     23212     23213
     23211     23210     23218     23219     23211     23210     23218     23220
     23211     23210     23218     23221     23212     23210     23218     23219
     23212     23210     23218     23220     23212     23210     23218     23221
     23212     23213     23215     23216     23212     23213     23215     23217
     23212     23213     23215     23227     23213     23212     23210     23218
     23213     23215     23227     23228     23213     23215     23227     23229
     23213     23215     23227     23230     23214     23213     23215     23216
     23214     23213     23215     23217     23214     23213     23215     23227
     23215     23227     23230     23231     23215     23227     23230     23232
     23215     23227     23230     23233     23216     23215     23227     23228
     23216     23215     23227     23229     23216     23215     23227     23230
     23217     23215     23227     23228     23217     23215     23227     23229
     23217     23215     23227     23230     23218     23221     23222     23223
     23218     23221     23222     23224     23219     23218     23221     23222
     23220     23218     23221     23222     23221     23222     23224     23225
     23221     23222     23224     23226     23221     23222     23224     23274
     23222     23224     23274     23275     23222     23224     23274     23276
     23222     23224     23274     23277     23223     23222     23224     23225
     23223     23222     23224     23226     23223     23222     23224     23274
     23224     23274     23277     23278     23224     23274     23277     23279
     23224     23274     23277     23280     23225     23224     23274     23275
     23225     23224     23274     23276     23225     23224     23274     23277
     23226     23224     23274     23275     23226     23224     23274     23276
     23226     23224     23274     23277     23227     23230     23233     23234
     23227     23230     23233     23235     23227     23230     23233     23236
     23228     23227     23230     23231     23228     23227     23230     23232
     23228     23227     23230     23233     23229     23227     23230     23231
     23229     23227     23230     23232     23229     23227     23230     23233
     23230     23233     23236     23237     23230     23233     23236     23238
     23230     23233     23236     23239     23231     23230     23233     23234
     23231     23230     23233     23235     23231     23230     23233     23236
     23232     23230     23233     23234     23232     23230     23233     23235
     23232     23230     23233     23236     23233     23236     23239     23240
     23233     23236     23239     23241     23233     23236     23239     23242
     23234     23233     23236     23237     23234     23233     23236     23238
     23234     23233     23236     23239     23235     23233     23236     23237
     23235     23233     23236     23238     23235     23233     23236     23239
     23236     23239     23242     23243     23236     23239     23242     23244
     23236     23239     23242     23245     23237     23236     23239     23240
     23237     23236     23239     23241     23237     23236     23239     23242
     23238     23236     23239     23240     23238     23236     23239     23241
     23238     23236     23239     23242     23239     23242     23245     23246
     23239     23242     23245     23247     23240     23239     23242     23243
     23240     23239     23242     23244     23240     23239     23242     23245
     23241     23239     23242     23243     23241     23239     23242     23244
     23241     23239     23242     23245     23242     23245     23247     23248
     23242     23245     23247     23249     23243     23242     23245     23246
     23243     23242     23245     23247     23244     23242     23245     23246
     23244     23242     23245     23247     23245     23247     23249     23250
     23245     23247     23249     23251     23245     23247     23249     23252
     23246     23245     23247     23248     23246     23245     23247     23249
     23247     23249     23252     23253     23247     23249     23252     23254
     23247     23249     23252     23255     23248     23247     23249     23250
     23248     23247     23249     23251     23248     23247     23249     23252
     23249     23252     23255     23256     23249     23252     23255     23257
     23249     23252     23255     23258     23250     23249     23252     23253
     23250     23249     23252     23254     23250     23249     23252     23255
     23251     23249     23252     23253     23251     23249     23252     23254
     23251     23249     23252     23255     23252     23255     23258     23259
     23252     23255     23258     23260     23252     23255     23258     23261
     23253     23252     23255     23256     23253     23252     23255     23257
     23253     23252     23255     23258     23254     23252     23255     23256
     23254     23252     23255     23257     23254     23252     23255     23258
     23255     23258     23261     23262     23255     23258     23261     23263
     23255     23258     23261     23264     23256     23255     23258     23259
     23256     23255     23258     23260     23256     23255     23258     23261
     23257     23255     23258     23259     23257     23255     23258     23260
     23257     23255     23258     23261     23258     23261     23264     23265
     23258     23261     23264     23266     23258     23261     23264     23267
     23259     23258     23261     23262     23259     23258     23261     23263
     23259     23258     23261     23264     23260     23258     23261     23262
     23260     23258     23261     23263     23260     23258     23261     23264
     23261     23264     23267     23268     23261     23264     23267     23269
     23261     23264     23267     23270     23262     23261     23264     23265
     23262     23261     23264     23266     23262     23261     23264     23267
     23263     23261     23264     23265     23263     23261     23264     23266
     23263     23261     23264     23267     23264     23267     23270     23271
     23264     23267     23270     23272     23264     23267     23270     23273
     23265     23264     23267     23268     23265     23264     23267     23269
     23265     23264     23267     23270     23266     23264     23267     23268
     23266     23264     23267     23269     23266     23264     23267     23270
     23268     23267     23270     23271     23268     23267     23270     23272
     23268     23267     23270     23273     23269     23267     23270     23271
     23269     23267     23270     23272     23269     23267     23270     23273
     23274     23277     23280     23281     23274     23277     23280     23282
     23274     23277     23280     23283     23275     23274     23277     23278
     23275     23274     23277     23279     23275     23274     23277     23280
     23276     23274     23277     23278     23276     23274     23277     23279
     23276     23274     23277     23280     23277     23280     23283     23284
     23277     23280     23283     23285     23277     23280     23283     23286
     23278     23277     23280     23281     23278     23277     23280     23282
     23278     23277     23280     23283     23279     23277     23280     23281
     23279     23277     23280     23282     23279     23277     23280     23283
     23280     23283     23286     23287     23280     23283     23286     23288
     23280     23283     23286     23289     23281     23280     23283     23284
     23281     23280     23283     23285     23281     23280     23283     23286
     23282     23280     23283     23284     23282     23280     23283     23285
     23282     23280     23283     23286     23283     23286     23289     23290
     23283     23286     23289     23291     23283     23286     23289     23292
     23284     23283     23286     23287     23284     23283     23286     23288
     23284     23283     23286     23289     23285     23283     23286     23287
     23285     23283     23286     23288     23285     23283     23286     23289
     23286     23289     23292     23293     23286     23289     23292     23294
     23286     23289     23292     23295     23287     23286     23289     23290
     23287     23286     23289     23291     23287     23286     23289     23292
     23288     23286     23289     23290     23288     23286     23289     23291
     23288     23286     23289     23292     23289     23292     23295     23296
     23289     23292     23295     23297     23289     23292     23295     23298
     23290     23289     23292     23293     23290     23289     23292     23294
     23290     23289     23292     23295     23291     23289     23292     23293
     23291     23289     23292     23294     23291     23289     23292     23295
     23292     23295     23298     23299     23292     23295     23298     23300
     23292     23295     23298     23301     23293     23292     23295     23296
     23293     23292     23295     23297     23293     23292     23295     23298
     23294     23292     23295     23296     23294     23292     23295     23297
     23294     23292     23295     23298     23295     23298     23301     23302
     23295     23298     23301     23303     23295     23298     23301     23304
     23296     23295     23298     23299     23296     23295     23298     23300
     23296     23295     23298     23301     23297     23295     23298     23299
     23297     23295     23298     23300     23297     23295     23298     23301
     23298     23301     23304     23305     23298     23301     23304     23306
     23298     23301     23304     23307     23299     23298     23301     23302
     23299     23298     23301     23303     23299     23298     23301     23304
     23300     23298     23301     23302     23300     23298     23301     23303
     23300     23298     23301     23304     23301     23304     23307     23308
     23301     23304     23307     23309     23301     23304     23307     23310
     23302     23301     23304     23305     23302     23301     23304     23306
     23302     23301     23304     23307     23303     23301     23304     23305
     23303     23301     23304     23306     23303     23301     23304     23307
     23304     23307     23310     23311     23304     23307     23310     23312
     23304     23307     23310     23313     23305     23304     23307     23308
     23305     23304     23307     23309     23305     23304     23307     23310
     23306     23304     23307     23308     23306     23304     23307     23309
     23306     23304     23307     23310     23307     23310     23313     23314
     23307     23310     23313     23315     23307     23310     23313     23316
     23308     23307     23310     23311     23308     23307     23310     23312
     23308     23307     23310     23313     23309     23307     23310     23311
     23309     23307     23310     23312     23309     23307     23310     23313
     23311     23310     23313     23314     23311     23310     23313     23315
     23311     23310     23313     23316     23312     23310     23313     23314
     23312     23310     23313     23315     23312     23310     23313     23316
     23317     23318     23333     23334     23317     23318     23333     23335
     23317     23318     23333     23339     23318     23317     23321     23322
     23318     23317     23321     23323     23318     23317     23321     23324
     23318     23317     23325     23326     23318     23317     23325     23327
     23318     23317     23325     23328     23318     23317     23329     23330
     23318     23317     23329     23331     23318     23317     23329     23332
     23318     23333     23339     23336     23319     23318     23317     23321
     23319     23318     23317     23325     23319     23318     23317     23329
     23319     23318     23333     23334     23319     23318     23333     23335
     23319     23318     23333     23339     23320     23318     23317     23321
     23320     23318     23317     23325     23320     23318     23317     23329
     23320     23318     23333     23334     23320     23318     23333     23335
     23320     23318     23333     23339     23321     23317     23318     23333
     23321     23317     23325     23326     23321     23317     23325     23327
     23321     23317     23325     23328     23321     23317     23329     23330
     23321     23317     23329     23331     23321     23317     23329     23332
     23322     23321     23317     23325     23322     23321     23317     23329
     23323     23321     23317     23325     23323     23321     23317     23329
     23324     23321     23317     23325     23324     23321     23317     23329
     23325     23317     23318     23333     23325     23317     23329     23330
     23325     23317     23329     23331     23325     23317     23329     23332
     23326     23325     23317     23329     23327     23325     23317     23329
     23328     23325     23317     23329     23329     23317     23318     23333
     23333     23339     23336     23337     23333     23339     23336     23338
     23333     23339     23336     23340     23334     23333     23339     23336
     23335     23333     23339     23336     23336     23340     23341     23342
     23336     23340     23341     23343     23336     23340     23341     23344
     23337     23336     23340     23341     23338     23336     23340     23341
     23339     23336     23340     23341     23340     23341     23344     23345
     23340     23341     23344     23346     23340     23341     23344     23352
     23341     23344     23346     23347     23341     23344     23352     23353
     23341     23344     23352     23354     23341     23344     23352     23355
     23342     23341     23344     23345     23342     23341     23344     23346
     23342     23341     23344     23352     23343     23341     23344     23345
     23343     23341     23344     23346     23343     23341     23344     23352
     23344     23346     23347     23348     23344     23346     23347     23349
     23344     23352     23355     23356     23345     23344     23346     23347
     23345     23344     23352     23353     23345     23344     23352     23354
     23345     23344     23352     23355     23346     23344     23352     23353
     23346     23344     23352     23354     23346     23344     23352     23355
     23346     23347     23349     23350     23346     23347     23349     23351
     23346     23347     23349     23361     23347     23346     23344     23352
     23347     23349     23361     23362     23347     23349     23361     23363
     23347     23349     23361     23364     23348     23347     23349     23350
     23348     23347     23349     23351     23348     23347     23349     23361
     23349     23361     23364     23365     23349     23361     23364     23366
     23349     23361     23364     23367     23350     23349     23361     23362
     23350     23349     23361     23363     23350     23349     23361     23364
     23351     23349     23361     23362     23351     23349     23361     23363
     23351     23349     23361     23364     23352     23355     23356     23357
     23352     23355     23356     23358     23353     23352     23355     23356
     23354     23352     23355     23356     23355     23356     23358     23359
     23355     23356     23358     23360     23355     23356     23358     23408
     23356     23358     23408     23409     23356     23358     23408     23410
     23356     23358     23408     23411     23357     23356     23358     23359
     23357     23356     23358     23360     23357     23356     23358     23408
     23358     23408     23411     23412     23358     23408     23411     23413
     23358     23408     23411     23414     23359     23358     23408     23409
     23359     23358     23408     23410     23359     23358     23408     23411
     23360     23358     23408     23409     23360     23358     23408     23410
     23360     23358     23408     23411     23361     23364     23367     23368
     23361     23364     23367     23369     23361     23364     23367     23370
     23362     23361     23364     23365     23362     23361     23364     23366
     23362     23361     23364     23367     23363     23361     23364     23365
     23363     23361     23364     23366     23363     23361     23364     23367
     23364     23367     23370     23371     23364     23367     23370     23372
     23364     23367     23370     23373     23365     23364     23367     23368
     23365     23364     23367     23369     23365     23364     23367     23370
     23366     23364     23367     23368     23366     23364     23367     23369
     23366     23364     23367     23370     23367     23370     23373     23374
     23367     23370     23373     23375     23367     23370     23373     23376
     23368     23367     23370     23371     23368     23367     23370     23372
     23368     23367     23370     23373     23369     23367     23370     23371
     23369     23367     23370     23372     23369     23367     23370     23373
     23370     23373     23376     23377     23370     23373     23376     23378
     23370     23373     23376     23379     23371     23370     23373     23374
     23371     23370     23373     23375     23371     23370     23373     23376
     23372     23370     23373     23374     23372     23370     23373     23375
     23372     23370     23373     23376     23373     23376     23379     23380
     23373     23376     23379     23381     23374     23373     23376     23377
     23374     23373     23376     23378     23374     23373     23376     23379
     23375     23373     23376     23377     23375     23373     23376     23378
     23375     23373     23376     23379     23376     23379     23381     23382
     23376     23379     23381     23383     23377     23376     23379     23380
     23377     23376     23379     23381     23378     23376     23379     23380
     23378     23376     23379     23381     23379     23381     23383     23384
     23379     23381     23383     23385     23379     23381     23383     23386
     23380     23379     23381     23382     23380     23379     23381     23383
     23381     23383     23386     23387     23381     23383     23386     23388
     23381     23383     23386     23389     23382     23381     23383     23384
     23382     23381     23383     23385     23382     23381     23383     23386
     23383     23386     23389     23390     23383     23386     23389     23391
     23383     23386     23389     23392     23384     23383     23386     23387
     23384     23383     23386     23388     23384     23383     23386     23389
     23385     23383     23386     23387     23385     23383     23386     23388
     23385     23383     23386     23389     23386     23389     23392     23393
     23386     23389     23392     23394     23386     23389     23392     23395
     23387     23386     23389     23390     23387     23386     23389     23391
     23387     23386     23389     23392     23388     23386     23389     23390
     23388     23386     23389     23391     23388     23386     23389     23392
     23389     23392     23395     23396     23389     23392     23395     23397
     23389     23392     23395     23398     23390     23389     23392     23393
     23390     23389     23392     23394     23390     23389     23392     23395
     23391     23389     23392     23393     23391     23389     23392     23394
     23391     23389     23392     23395     23392     23395     23398     23399
     23392     23395     23398     23400     23392     23395     23398     23401
     23393     23392     23395     23396     23393     23392     23395     23397
     23393     23392     23395     23398     23394     23392     23395     23396
     23394     23392     23395     23397     23394     23392     23395     23398
     23395     23398     23401     23402     23395     23398     23401     23403
     23395     23398     23401     23404     23396     23395     23398     23399
     23396     23395     23398     23400     23396     23395     23398     23401
     23397     23395     23398     23399     23397     23395     23398     23400
     23397     23395     23398     23401     23398     23401     23404     23405
     23398     23401     23404     23406     23398     23401     23404     23407
     23399     23398     23401     23402     23399     23398     23401     23403
     23399     23398     23401     23404     23400     23398     23401     23402
     23400     23398     23401     23403     23400     23398     23401     23404
     23402     23401     23404     23405     23402     23401     23404     23406
     23402     23401     23404     23407     23403     23401     23404     23405
     23403     23401     23404     23406     23403     23401     23404     23407
     23408     23411     23414     23415     23408     23411     23414     23416
     23408     23411     23414     23417     23409     23408     23411     23412
     23409     23408     23411     23413     23409     23408     23411     23414
     23410     23408     23411     23412     23410     23408     23411     23413
     23410     23408     23411     23414     23411     23414     23417     23418
     23411     23414     23417     23419     23411     23414     23417     23420
     23412     23411     23414     23415     23412     23411     23414     23416
     23412     23411     23414     23417     23413     23411     23414     23415
     23413     23411     23414     23416     23413     23411     23414     23417
     23414     23417     23420     23421     23414     23417     23420     23422
     23414     23417     23420     23423     23415     23414     23417     23418
     23415     23414     23417     23419     23415     23414     23417     23420
     23416     23414     23417     23418     23416     23414     23417     23419
     23416     23414     23417     23420     23417     23420     23423     23424
     23417     23420     23423     23425     23417     23420     23423     23426
     23418     23417     23420     23421     23418     23417     23420     23422
     23418     23417     23420     23423     23419     23417     23420     23421
     23419     23417     23420     23422     23419     23417     23420     23423
     23420     23423     23426     23427     23420     23423     23426     23428
     23420     23423     23426     23429     23421     23420     23423     23424
     23421     23420     23423     23425     23421     23420     23423     23426
     23422     23420     23423     23424     23422     23420     23423     23425
     23422     23420     23423     23426     23423     23426     23429     23430
     23423     23426     23429     23431     23423     23426     23429     23432
     23424     23423     23426     23427     23424     23423     23426     23428
     23424     23423     23426     23429     23425     23423     23426     23427
     23425     23423     23426     23428     23425     23423     23426     23429
     23426     23429     23432     23433     23426     23429     23432     23434
     23426     23429     23432     23435     23427     23426     23429     23430
     23427     23426     23429     23431     23427     23426     23429     23432
     23428     23426     23429     23430     23428     23426     23429     23431
     23428     23426     23429     23432     23429     23432     23435     23436
     23429     23432     23435     23437     23429     23432     23435     23438
     23430     23429     23432     23433     23430     23429     23432     23434
     23430     23429     23432     23435     23431     23429     23432     23433
     23431     23429     23432     23434     23431     23429     23432     23435
     23432     23435     23438     23439     23432     23435     23438     23440
     23432     23435     23438     23441     23433     23432     23435     23436
     23433     23432     23435     23437     23433     23432     23435     23438
     23434     23432     23435     23436     23434     23432     23435     23437
     23434     23432     23435     23438     23435     23438     23441     23442
     23435     23438     23441     23443     23435     23438     23441     23444
     23436     23435     23438     23439     23436     23435     23438     23440
     23436     23435     23438     23441     23437     23435     23438     23439
     23437     23435     23438     23440     23437     23435     23438     23441
     23438     23441     23444     23445     23438     23441     23444     23446
     23438     23441     23444     23447     23439     23438     23441     23442
     23439     23438     23441     23443     23439     23438     23441     23444
     23440     23438     23441     23442     23440     23438     23441     23443
     23440     23438     23441     23444     23441     23444     23447     23448
     23441     23444     23447     23449     23441     23444     23447     23450
     23442     23441     23444     23445     23442     23441     23444     23446
     23442     23441     23444     23447     23443     23441     23444     23445
     23443     23441     23444     23446     23443     23441     23444     23447
     23445     23444     23447     23448     23445     23444     23447     23449
     23445     23444     23447     23450     23446     23444     23447     23448
     23446     23444     23447     23449     23446     23444     23447     23450
     23451     23452     23467     23468     23451     23452     23467     23469
     23451     23452     23467     23473     23452     23451     23455     23456
     23452     23451     23455     23457     23452     23451     23455     23458
     23452     23451     23459     23460     23452     23451     23459     23461
     23452     23451     23459     23462     23452     23451     23463     23464
     23452     23451     23463     23465     23452     23451     23463     23466
     23452     23467     23473     23470     23453     23452     23451     23455
     23453     23452     23451     23459     23453     23452     23451     23463
     23453     23452     23467     23468     23453     23452     23467     23469
     23453     23452     23467     23473     23454     23452     23451     23455
     23454     23452     23451     23459     23454     23452     23451     23463
     23454     23452     23467     23468     23454     23452     23467     23469
     23454     23452     23467     23473     23455     23451     23452     23467
     23455     23451     23459     23460     23455     23451     23459     23461
     23455     23451     23459     23462     23455     23451     23463     23464
     23455     23451     23463     23465     23455     23451     23463     23466
     23456     23455     23451     23459     23456     23455     23451     23463
     23457     23455     23451     23459     23457     23455     23451     23463
     23458     23455     23451     23459     23458     23455     23451     23463
     23459     23451     23452     23467     23459     23451     23463     23464
     23459     23451     23463     23465     23459     23451     23463     23466
     23460     23459     23451     23463     23461     23459     23451     23463
     23462     23459     23451     23463     23463     23451     23452     23467
     23467     23473     23470     23471     23467     23473     23470     23472
     23467     23473     23470     23474     23468     23467     23473     23470
     23469     23467     23473     23470     23470     23474     23475     23476
     23470     23474     23475     23477     23470     23474     23475     23478
     23471     23470     23474     23475     23472     23470     23474     23475
     23473     23470     23474     23475     23474     23475     23478     23479
     23474     23475     23478     23480     23474     23475     23478     23486
     23475     23478     23480     23481     23475     23478     23486     23487
     23475     23478     23486     23488     23475     23478     23486     23489
     23476     23475     23478     23479     23476     23475     23478     23480
     23476     23475     23478     23486     23477     23475     23478     23479
     23477     23475     23478     23480     23477     23475     23478     23486
     23478     23480     23481     23482     23478     23480     23481     23483
     23478     23486     23489     23490     23479     23478     23480     23481
     23479     23478     23486     23487     23479     23478     23486     23488
     23479     23478     23486     23489     23480     23478     23486     23487
     23480     23478     23486     23488     23480     23478     23486     23489
     23480     23481     23483     23484     23480     23481     23483     23485
     23480     23481     23483     23495     23481     23480     23478     23486
     23481     23483     23495     23496     23481     23483     23495     23497
     23481     23483     23495     23498     23482     23481     23483     23484
     23482     23481     23483     23485     23482     23481     23483     23495
     23483     23495     23498     23499     23483     23495     23498     23500
     23483     23495     23498     23501     23484     23483     23495     23496
     23484     23483     23495     23497     23484     23483     23495     23498
     23485     23483     23495     23496     23485     23483     23495     23497
     23485     23483     23495     23498     23486     23489     23490     23491
     23486     23489     23490     23492     23487     23486     23489     23490
     23488     23486     23489     23490     23489     23490     23492     23493
     23489     23490     23492     23494     23489     23490     23492     23542
     23490     23492     23542     23543     23490     23492     23542     23544
     23490     23492     23542     23545     23491     23490     23492     23493
     23491     23490     23492     23494     23491     23490     23492     23542
     23492     23542     23545     23546     23492     23542     23545     23547
     23492     23542     23545     23548     23493     23492     23542     23543
     23493     23492     23542     23544     23493     23492     23542     23545
     23494     23492     23542     23543     23494     23492     23542     23544
     23494     23492     23542     23545     23495     23498     23501     23502
     23495     23498     23501     23503     23495     23498     23501     23504
     23496     23495     23498     23499     23496     23495     23498     23500
     23496     23495     23498     23501     23497     23495     23498     23499
     23497     23495     23498     23500     23497     23495     23498     23501
     23498     23501     23504     23505     23498     23501     23504     23506
     23498     23501     23504     23507     23499     23498     23501     23502
     23499     23498     23501     23503     23499     23498     23501     23504
     23500     23498     23501     23502     23500     23498     23501     23503
     23500     23498     23501     23504     23501     23504     23507     23508
     23501     23504     23507     23509     23501     23504     23507     23510
     23502     23501     23504     23505     23502     23501     23504     23506
     23502     23501     23504     23507     23503     23501     23504     23505
     23503     23501     23504     23506     23503     23501     23504     23507
     23504     23507     23510     23511     23504     23507     23510     23512
     23504     23507     23510     23513     23505     23504     23507     23508
     23505     23504     23507     23509     23505     23504     23507     23510
     23506     23504     23507     23508     23506     23504     23507     23509
     23506     23504     23507     23510     23507     23510     23513     23514
     23507     23510     23513     23515     23508     23507     23510     23511
     23508     23507     23510     23512     23508     23507     23510     23513
     23509     23507     23510     23511     23509     23507     23510     23512
     23509     23507     23510     23513     23510     23513     23515     23516
     23510     23513     23515     23517     23511     23510     23513     23514
     23511     23510     23513     23515     23512     23510     23513     23514
     23512     23510     23513     23515     23513     23515     23517     23518
     23513     23515     23517     23519     23513     23515     23517     23520
     23514     23513     23515     23516     23514     23513     23515     23517
     23515     23517     23520     23521     23515     23517     23520     23522
     23515     23517     23520     23523     23516     23515     23517     23518
     23516     23515     23517     23519     23516     23515     23517     23520
     23517     23520     23523     23524     23517     23520     23523     23525
     23517     23520     23523     23526     23518     23517     23520     23521
     23518     23517     23520     23522     23518     23517     23520     23523
     23519     23517     23520     23521     23519     23517     23520     23522
     23519     23517     23520     23523     23520     23523     23526     23527
     23520     23523     23526     23528     23520     23523     23526     23529
     23521     23520     23523     23524     23521     23520     23523     23525
     23521     23520     23523     23526     23522     23520     23523     23524
     23522     23520     23523     23525     23522     23520     23523     23526
     23523     23526     23529     23530     23523     23526     23529     23531
     23523     23526     23529     23532     23524     23523     23526     23527
     23524     23523     23526     23528     23524     23523     23526     23529
     23525     23523     23526     23527     23525     23523     23526     23528
     23525     23523     23526     23529     23526     23529     23532     23533
     23526     23529     23532     23534     23526     23529     23532     23535
     23527     23526     23529     23530     23527     23526     23529     23531
     23527     23526     23529     23532     23528     23526     23529     23530
     23528     23526     23529     23531     23528     23526     23529     23532
     23529     23532     23535     23536     23529     23532     23535     23537
     23529     23532     23535     23538     23530     23529     23532     23533
     23530     23529     23532     23534     23530     23529     23532     23535
     23531     23529     23532     23533     23531     23529     23532     23534
     23531     23529     23532     23535     23532     23535     23538     23539
     23532     23535     23538     23540     23532     23535     23538     23541
     23533     23532     23535     23536     23533     23532     23535     23537
     23533     23532     23535     23538     23534     23532     23535     23536
     23534     23532     23535     23537     23534     23532     23535     23538
     23536     23535     23538     23539     23536     23535     23538     23540
     23536     23535     23538     23541     23537     23535     23538     23539
     23537     23535     23538     23540     23537     23535     23538     23541
     23542     23545     23548     23549     23542     23545     23548     23550
     23542     23545     23548     23551     23543     23542     23545     23546
     23543     23542     23545     23547     23543     23542     23545     23548
     23544     23542     23545     23546     23544     23542     23545     23547
     23544     23542     23545     23548     23545     23548     23551     23552
     23545     23548     23551     23553     23545     23548     23551     23554
     23546     23545     23548     23549     23546     23545     23548     23550
     23546     23545     23548     23551     23547     23545     23548     23549
     23547     23545     23548     23550     23547     23545     23548     23551
     23548     23551     23554     23555     23548     23551     23554     23556
     23548     23551     23554     23557     23549     23548     23551     23552
     23549     23548     23551     23553     23549     23548     23551     23554
     23550     23548     23551     23552     23550     23548     23551     23553
     23550     23548     23551     23554     23551     23554     23557     23558
     23551     23554     23557     23559     23551     23554     23557     23560
     23552     23551     23554     23555     23552     23551     23554     23556
     23552     23551     23554     23557     23553     23551     23554     23555
     23553     23551     23554     23556     23553     23551     23554     23557
     23554     23557     23560     23561     23554     23557     23560     23562
     23554     23557     23560     23563     23555     23554     23557     23558
     23555     23554     23557     23559     23555     23554     23557     23560
     23556     23554     23557     23558     23556     23554     23557     23559
     23556     23554     23557     23560     23557     23560     23563     23564
     23557     23560     23563     23565     23557     23560     23563     23566
     23558     23557     23560     23561     23558     23557     23560     23562
     23558     23557     23560     23563     23559     23557     23560     23561
     23559     23557     23560     23562     23559     23557     23560     23563
     23560     23563     23566     23567     23560     23563     23566     23568
     23560     23563     23566     23569     23561     23560     23563     23564
     23561     23560     23563     23565     23561     23560     23563     23566
     23562     23560     23563     23564     23562     23560     23563     23565
     23562     23560     23563     23566     23563     23566     23569     23570
     23563     23566     23569     23571     23563     23566     23569     23572
     23564     23563     23566     23567     23564     23563     23566     23568
     23564     23563     23566     23569     23565     23563     23566     23567
     23565     23563     23566     23568     23565     23563     23566     23569
     23566     23569     23572     23573     23566     23569     23572     23574
     23566     23569     23572     23575     23567     23566     23569     23570
     23567     23566     23569     23571     23567     23566     23569     23572
     23568     23566     23569     23570     23568     23566     23569     23571
     23568     23566     23569     23572     23569     23572     23575     23576
     23569     23572     23575     23577     23569     23572     23575     23578
     23570     23569     23572     23573     23570     23569     23572     23574
     23570     23569     23572     23575     23571     23569     23572     23573
     23571     23569     23572     23574     23571     23569     23572     23575
     23572     23575     23578     23579     23572     23575     23578     23580
     23572     23575     23578     23581     23573     23572     23575     23576
     23573     23572     23575     23577     23573     23572     23575     23578
     23574     23572     23575     23576     23574     23572     23575     23577
     23574     23572     23575     23578     23575     23578     23581     23582
     23575     23578     23581     23583     23575     23578     23581     23584
     23576     23575     23578     23579     23576     23575     23578     23580
     23576     23575     23578     23581     23577     23575     23578     23579
     23577     23575     23578     23580     23577     23575     23578     23581
     23579     23578     23581     23582     23579     23578     23581     23583
     23579     23578     23581     23584     23580     23578     23581     23582
     23580     23578     23581     23583     23580     23578     23581     23584
     23585     23586     23601     23602     23585     23586     23601     23603
     23585     23586     23601     23607     23586     23585     23589     23590
     23586     23585     23589     23591     23586     23585     23589     23592
     23586     23585     23593     23594     23586     23585     23593     23595
     23586     23585     23593     23596     23586     23585     23597     23598
     23586     23585     23597     23599     23586     23585     23597     23600
     23586     23601     23607     23604     23587     23586     23585     23589
     23587     23586     23585     23593     23587     23586     23585     23597
     23587     23586     23601     23602     23587     23586     23601     23603
     23587     23586     23601     23607     23588     23586     23585     23589
     23588     23586     23585     23593     23588     23586     23585     23597
     23588     23586     23601     23602     23588     23586     23601     23603
     23588     23586     23601     23607     23589     23585     23586     23601
     23589     23585     23593     23594     23589     23585     23593     23595
     23589     23585     23593     23596     23589     23585     23597     23598
     23589     23585     23597     23599     23589     23585     23597     23600
     23590     23589     23585     23593     23590     23589     23585     23597
     23591     23589     23585     23593     23591     23589     23585     23597
     23592     23589     23585     23593     23592     23589     23585     23597
     23593     23585     23586     23601     23593     23585     23597     23598
     23593     23585     23597     23599     23593     23585     23597     23600
     23594     23593     23585     23597     23595     23593     23585     23597
     23596     23593     23585     23597     23597     23585     23586     23601
     23601     23607     23604     23605     23601     23607     23604     23606
     23601     23607     23604     23608     23602     23601     23607     23604
     23603     23601     23607     23604     23604     23608     23609     23610
     23604     23608     23609     23611     23604     23608     23609     23612
     23605     23604     23608     23609     23606     23604     23608     23609
     23607     23604     23608     23609     23608     23609     23612     23613
     23608     23609     23612     23614     23608     23609     23612     23620
     23609     23612     23614     23615     23609     23612     23620     23621
     23609     23612     23620     23622     23609     23612     23620     23623
     23610     23609     23612     23613     23610     23609     23612     23614
     23610     23609     23612     23620     23611     23609     23612     23613
     23611     23609     23612     23614     23611     23609     23612     23620
     23612     23614     23615     23616     23612     23614     23615     23617
     23612     23620     23623     23624     23613     23612     23614     23615
     23613     23612     23620     23621     23613     23612     23620     23622
     23613     23612     23620     23623     23614     23612     23620     23621
     23614     23612     23620     23622     23614     23612     23620     23623
     23614     23615     23617     23618     23614     23615     23617     23619
     23614     23615     23617     23629     23615     23614     23612     23620
     23615     23617     23629     23630     23615     23617     23629     23631
     23615     23617     23629     23632     23616     23615     23617     23618
     23616     23615     23617     23619     23616     23615     23617     23629
     23617     23629     23632     23633     23617     23629     23632     23634
     23617     23629     23632     23635     23618     23617     23629     23630
     23618     23617     23629     23631     23618     23617     23629     23632
     23619     23617     23629     23630     23619     23617     23629     23631
     23619     23617     23629     23632     23620     23623     23624     23625
     23620     23623     23624     23626     23621     23620     23623     23624
     23622     23620     23623     23624     23623     23624     23626     23627
     23623     23624     23626     23628     23623     23624     23626     23676
     23624     23626     23676     23677     23624     23626     23676     23678
     23624     23626     23676     23679     23625     23624     23626     23627
     23625     23624     23626     23628     23625     23624     23626     23676
     23626     23676     23679     23680     23626     23676     23679     23681
     23626     23676     23679     23682     23627     23626     23676     23677
     23627     23626     23676     23678     23627     23626     23676     23679
     23628     23626     23676     23677     23628     23626     23676     23678
     23628     23626     23676     23679     23629     23632     23635     23636
     23629     23632     23635     23637     23629     23632     23635     23638
     23630     23629     23632     23633     23630     23629     23632     23634
     23630     23629     23632     23635     23631     23629     23632     23633
     23631     23629     23632     23634     23631     23629     23632     23635
     23632     23635     23638     23639     23632     23635     23638     23640
     23632     23635     23638     23641     23633     23632     23635     23636
     23633     23632     23635     23637     23633     23632     23635     23638
     23634     23632     23635     23636     23634     23632     23635     23637
     23634     23632     23635     23638     23635     23638     23641     23642
     23635     23638     23641     23643     23635     23638     23641     23644
     23636     23635     23638     23639     23636     23635     23638     23640
     23636     23635     23638     23641     23637     23635     23638     23639
     23637     23635     23638     23640     23637     23635     23638     23641
     23638     23641     23644     23645     23638     23641     23644     23646
     23638     23641     23644     23647     23639     23638     23641     23642
     23639     23638     23641     23643     23639     23638     23641     23644
     23640     23638     23641     23642     23640     23638     23641     23643
     23640     23638     23641     23644     23641     23644     23647     23648
     23641     23644     23647     23649     23642     23641     23644     23645
     23642     23641     23644     23646     23642     23641     23644     23647
     23643     23641     23644     23645     23643     23641     23644     23646
     23643     23641     23644     23647     23644     23647     23649     23650
     23644     23647     23649     23651     23645     23644     23647     23648
     23645     23644     23647     23649     23646     23644     23647     23648
     23646     23644     23647     23649     23647     23649     23651     23652
     23647     23649     23651     23653     23647     23649     23651     23654
     23648     23647     23649     23650     23648     23647     23649     23651
     23649     23651     23654     23655     23649     23651     23654     23656
     23649     23651     23654     23657     23650     23649     23651     23652
     23650     23649     23651     23653     23650     23649     23651     23654
     23651     23654     23657     23658     23651     23654     23657     23659
     23651     23654     23657     23660     23652     23651     23654     23655
     23652     23651     23654     23656     23652     23651     23654     23657
     23653     23651     23654     23655     23653     23651     23654     23656
     23653     23651     23654     23657     23654     23657     23660     23661
     23654     23657     23660     23662     23654     23657     23660     23663
     23655     23654     23657     23658     23655     23654     23657     23659
     23655     23654     23657     23660     23656     23654     23657     23658
     23656     23654     23657     23659     23656     23654     23657     23660
     23657     23660     23663     23664     23657     23660     23663     23665
     23657     23660     23663     23666     23658     23657     23660     23661
     23658     23657     23660     23662     23658     23657     23660     23663
     23659     23657     23660     23661     23659     23657     23660     23662
     23659     23657     23660     23663     23660     23663     23666     23667
     23660     23663     23666     23668     23660     23663     23666     23669
     23661     23660     23663     23664     23661     23660     23663     23665
     23661     23660     23663     23666     23662     23660     23663     23664
     23662     23660     23663     23665     23662     23660     23663     23666
     23663     23666     23669     23670     23663     23666     23669     23671
     23663     23666     23669     23672     23664     23663     23666     23667
     23664     23663     23666     23668     23664     23663     23666     23669
     23665     23663     23666     23667     23665     23663     23666     23668
     23665     23663     23666     23669     23666     23669     23672     23673
     23666     23669     23672     23674     23666     23669     23672     23675
     23667     23666     23669     23670     23667     23666     23669     23671
     23667     23666     23669     23672     23668     23666     23669     23670
     23668     23666     23669     23671     23668     23666     23669     23672
     23670     23669     23672     23673     23670     23669     23672     23674
     23670     23669     23672     23675     23671     23669     23672     23673
     23671     23669     23672     23674     23671     23669     23672     23675
     23676     23679     23682     23683     23676     23679     23682     23684
     23676     23679     23682     23685     23677     23676     23679     23680
     23677     23676     23679     23681     23677     23676     23679     23682
     23678     23676     23679     23680     23678     23676     23679     23681
     23678     23676     23679     23682     23679     23682     23685     23686
     23679     23682     23685     23687     23679     23682     23685     23688
     23680     23679     23682     23683     23680     23679     23682     23684
     23680     23679     23682     23685     23681     23679     23682     23683
     23681     23679     23682     23684     23681     23679     23682     23685
     23682     23685     23688     23689     23682     23685     23688     23690
     23682     23685     23688     23691     23683     23682     23685     23686
     23683     23682     23685     23687     23683     23682     23685     23688
     23684     23682     23685     23686     23684     23682     23685     23687
     23684     23682     23685     23688     23685     23688     23691     23692
     23685     23688     23691     23693     23685     23688     23691     23694
     23686     23685     23688     23689     23686     23685     23688     23690
     23686     23685     23688     23691     23687     23685     23688     23689
     23687     23685     23688     23690     23687     23685     23688     23691
     23688     23691     23694     23695     23688     23691     23694     23696
     23688     23691     23694     23697     23689     23688     23691     23692
     23689     23688     23691     23693     23689     23688     23691     23694
     23690     23688     23691     23692     23690     23688     23691     23693
     23690     23688     23691     23694     23691     23694     23697     23698
     23691     23694     23697     23699     23691     23694     23697     23700
     23692     23691     23694     23695     23692     23691     23694     23696
     23692     23691     23694     23697     23693     23691     23694     23695
     23693     23691     23694     23696     23693     23691     23694     23697
     23694     23697     23700     23701     23694     23697     23700     23702
     23694     23697     23700     23703     23695     23694     23697     23698
     23695     23694     23697     23699     23695     23694     23697     23700
     23696     23694     23697     23698     23696     23694     23697     23699
     23696     23694     23697     23700     23697     23700     23703     23704
     23697     23700     23703     23705     23697     23700     23703     23706
     23698     23697     23700     23701     23698     23697     23700     23702
     23698     23697     23700     23703     23699     23697     23700     23701
     23699     23697     23700     23702     23699     23697     23700     23703
     23700     23703     23706     23707     23700     23703     23706     23708
     23700     23703     23706     23709     23701     23700     23703     23704
     23701     23700     23703     23705     23701     23700     23703     23706
     23702     23700     23703     23704     23702     23700     23703     23705
     23702     23700     23703     23706     23703     23706     23709     23710
     23703     23706     23709     23711     23703     23706     23709     23712
     23704     23703     23706     23707     23704     23703     23706     23708
     23704     23703     23706     23709     23705     23703     23706     23707
     23705     23703     23706     23708     23705     23703     23706     23709
     23706     23709     23712     23713     23706     23709     23712     23714
     23706     23709     23712     23715     23707     23706     23709     23710
     23707     23706     23709     23711     23707     23706     23709     23712
     23708     23706     23709     23710     23708     23706     23709     23711
     23708     23706     23709     23712     23709     23712     23715     23716
     23709     23712     23715     23717     23709     23712     23715     23718
     23710     23709     23712     23713     23710     23709     23712     23714
     23710     23709     23712     23715     23711     23709     23712     23713
     23711     23709     23712     23714     23711     23709     23712     23715
     23713     23712     23715     23716     23713     23712     23715     23717
     23713     23712     23715     23718     23714     23712     23715     23716
     23714     23712     23715     23717     23714     23712     23715     23718
     23719     23720     23735     23736     23719     23720     23735     23737
     23719     23720     23735     23741     23720     23719     23723     23724
     23720     23719     23723     23725     23720     23719     23723     23726
     23720     23719     23727     23728     23720     23719     23727     23729
     23720     23719     23727     23730     23720     23719     23731     23732
     23720     23719     23731     23733     23720     23719     23731     23734
     23720     23735     23741     23738     23721     23720     23719     23723
     23721     23720     23719     23727     23721     23720     23719     23731
     23721     23720     23735     23736     23721     23720     23735     23737
     23721     23720     23735     23741     23722     23720     23719     23723
     23722     23720     23719     23727     23722     23720     23719     23731
     23722     23720     23735     23736     23722     23720     23735     23737
     23722     23720     23735     23741     23723     23719     23720     23735
     23723     23719     23727     23728     23723     23719     23727     23729
     23723     23719     23727     23730     23723     23719     23731     23732
     23723     23719     23731     23733     23723     23719     23731     23734
     23724     23723     23719     23727     23724     23723     23719     23731
     23725     23723     23719     23727     23725     23723     23719     23731
     23726     23723     23719     23727     23726     23723     23719     23731
     23727     23719     23720     23735     23727     23719     23731     23732
     23727     23719     23731     23733     23727     23719     23731     23734
     23728     23727     23719     23731     23729     23727     23719     23731
     23730     23727     23719     23731     23731     23719     23720     23735
     23735     23741     23738     23739     23735     23741     23738     23740
     23735     23741     23738     23742     23736     23735     23741     23738
     23737     23735     23741     23738     23738     23742     23743     23744
     23738     23742     23743     23745     23738     23742     23743     23746
     23739     23738     23742     23743     23740     23738     23742     23743
     23741     23738     23742     23743     23742     23743     23746     23747
     23742     23743     23746     23748     23742     23743     23746     23754
     23743     23746     23748     23749     23743     23746     23754     23755
     23743     23746     23754     23756     23743     23746     23754     23757
     23744     23743     23746     23747     23744     23743     23746     23748
     23744     23743     23746     23754     23745     23743     23746     23747
     23745     23743     23746     23748     23745     23743     23746     23754
     23746     23748     23749     23750     23746     23748     23749     23751
     23746     23754     23757     23758     23747     23746     23748     23749
     23747     23746     23754     23755     23747     23746     23754     23756
     23747     23746     23754     23757     23748     23746     23754     23755
     23748     23746     23754     23756     23748     23746     23754     23757
     23748     23749     23751     23752     23748     23749     23751     23753
     23748     23749     23751     23763     23749     23748     23746     23754
     23749     23751     23763     23764     23749     23751     23763     23765
     23749     23751     23763     23766     23750     23749     23751     23752
     23750     23749     23751     23753     23750     23749     23751     23763
     23751     23763     23766     23767     23751     23763     23766     23768
     23751     23763     23766     23769     23752     23751     23763     23764
     23752     23751     23763     23765     23752     23751     23763     23766
     23753     23751     23763     23764     23753     23751     23763     23765
     23753     23751     23763     23766     23754     23757     23758     23759
     23754     23757     23758     23760     23755     23754     23757     23758
     23756     23754     23757     23758     23757     23758     23760     23761
     23757     23758     23760     23762     23757     23758     23760     23810
     23758     23760     23810     23811     23758     23760     23810     23812
     23758     23760     23810     23813     23759     23758     23760     23761
     23759     23758     23760     23762     23759     23758     23760     23810
     23760     23810     23813     23814     23760     23810     23813     23815
     23760     23810     23813     23816     23761     23760     23810     23811
     23761     23760     23810     23812     23761     23760     23810     23813
     23762     23760     23810     23811     23762     23760     23810     23812
     23762     23760     23810     23813     23763     23766     23769     23770
     23763     23766     23769     23771     23763     23766     23769     23772
     23764     23763     23766     23767     23764     23763     23766     23768
     23764     23763     23766     23769     23765     23763     23766     23767
     23765     23763     23766     23768     23765     23763     23766     23769
     23766     23769     23772     23773     23766     23769     23772     23774
     23766     23769     23772     23775     23767     23766     23769     23770
     23767     23766     23769     23771     23767     23766     23769     23772
     23768     23766     23769     23770     23768     23766     23769     23771
     23768     23766     23769     23772     23769     23772     23775     23776
     23769     23772     23775     23777     23769     23772     23775     23778
     23770     23769     23772     23773     23770     23769     23772     23774
     23770     23769     23772     23775     23771     23769     23772     23773
     23771     23769     23772     23774     23771     23769     23772     23775
     23772     23775     23778     23779     23772     23775     23778     23780
     23772     23775     23778     23781     23773     23772     23775     23776
     23773     23772     23775     23777     23773     23772     23775     23778
     23774     23772     23775     23776     23774     23772     23775     23777
     23774     23772     23775     23778     23775     23778     23781     23782
     23775     23778     23781     23783     23776     23775     23778     23779
     23776     23775     23778     23780     23776     23775     23778     23781
     23777     23775     23778     23779     23777     23775     23778     23780
     23777     23775     23778     23781     23778     23781     23783     23784
     23778     23781     23783     23785     23779     23778     23781     23782
     23779     23778     23781     23783     23780     23778     23781     23782
     23780     23778     23781     23783     23781     23783     23785     23786
     23781     23783     23785     23787     23781     23783     23785     23788
     23782     23781     23783     23784     23782     23781     23783     23785
     23783     23785     23788     23789     23783     23785     23788     23790
     23783     23785     23788     23791     23784     23783     23785     23786
     23784     23783     23785     23787     23784     23783     23785     23788
     23785     23788     23791     23792     23785     23788     23791     23793
     23785     23788     23791     23794     23786     23785     23788     23789
     23786     23785     23788     23790     23786     23785     23788     23791
     23787     23785     23788     23789     23787     23785     23788     23790
     23787     23785     23788     23791     23788     23791     23794     23795
     23788     23791     23794     23796     23788     23791     23794     23797
     23789     23788     23791     23792     23789     23788     23791     23793
     23789     23788     23791     23794     23790     23788     23791     23792
     23790     23788     23791     23793     23790     23788     23791     23794
     23791     23794     23797     23798     23791     23794     23797     23799
     23791     23794     23797     23800     23792     23791     23794     23795
     23792     23791     23794     23796     23792     23791     23794     23797
     23793     23791     23794     23795     23793     23791     23794     23796
     23793     23791     23794     23797     23794     23797     23800     23801
     23794     23797     23800     23802     23794     23797     23800     23803
     23795     23794     23797     23798     23795     23794     23797     23799
     23795     23794     23797     23800     23796     23794     23797     23798
     23796     23794     23797     23799     23796     23794     23797     23800
     23797     23800     23803     23804     23797     23800     23803     23805
     23797     23800     23803     23806     23798     23797     23800     23801
     23798     23797     23800     23802     23798     23797     23800     23803
     23799     23797     23800     23801     23799     23797     23800     23802
     23799     23797     23800     23803     23800     23803     23806     23807
     23800     23803     23806     23808     23800     23803     23806     23809
     23801     23800     23803     23804     23801     23800     23803     23805
     23801     23800     23803     23806     23802     23800     23803     23804
     23802     23800     23803     23805     23802     23800     23803     23806
     23804     23803     23806     23807     23804     23803     23806     23808
     23804     23803     23806     23809     23805     23803     23806     23807
     23805     23803     23806     23808     23805     23803     23806     23809
     23810     23813     23816     23817     23810     23813     23816     23818
     23810     23813     23816     23819     23811     23810     23813     23814
     23811     23810     23813     23815     23811     23810     23813     23816
     23812     23810     23813     23814     23812     23810     23813     23815
     23812     23810     23813     23816     23813     23816     23819     23820
     23813     23816     23819     23821     23813     23816     23819     23822
     23814     23813     23816     23817     23814     23813     23816     23818
     23814     23813     23816     23819     23815     23813     23816     23817
     23815     23813     23816     23818     23815     23813     23816     23819
     23816     23819     23822     23823     23816     23819     23822     23824
     23816     23819     23822     23825     23817     23816     23819     23820
     23817     23816     23819     23821     23817     23816     23819     23822
     23818     23816     23819     23820     23818     23816     23819     23821
     23818     23816     23819     23822     23819     23822     23825     23826
     23819     23822     23825     23827     23819     23822     23825     23828
     23820     23819     23822     23823     23820     23819     23822     23824
     23820     23819     23822     23825     23821     23819     23822     23823
     23821     23819     23822     23824     23821     23819     23822     23825
     23822     23825     23828     23829     23822     23825     23828     23830
     23822     23825     23828     23831     23823     23822     23825     23826
     23823     23822     23825     23827     23823     23822     23825     23828
     23824     23822     23825     23826     23824     23822     23825     23827
     23824     23822     23825     23828     23825     23828     23831     23832
     23825     23828     23831     23833     23825     23828     23831     23834
     23826     23825     23828     23829     23826     23825     23828     23830
     23826     23825     23828     23831     23827     23825     23828     23829
     23827     23825     23828     23830     23827     23825     23828     23831
     23828     23831     23834     23835     23828     23831     23834     23836
     23828     23831     23834     23837     23829     23828     23831     23832
     23829     23828     23831     23833     23829     23828     23831     23834
     23830     23828     23831     23832     23830     23828     23831     23833
     23830     23828     23831     23834     23831     23834     23837     23838
     23831     23834     23837     23839     23831     23834     23837     23840
     23832     23831     23834     23835     23832     23831     23834     23836
     23832     23831     23834     23837     23833     23831     23834     23835
     23833     23831     23834     23836     23833     23831     23834     23837
     23834     23837     23840     23841     23834     23837     23840     23842
     23834     23837     23840     23843     23835     23834     23837     23838
     23835     23834     23837     23839     23835     23834     23837     23840
     23836     23834     23837     23838     23836     23834     23837     23839
     23836     23834     23837     23840     23837     23840     23843     23844
     23837     23840     23843     23845     23837     23840     23843     23846
     23838     23837     23840     23841     23838     23837     23840     23842
     23838     23837     23840     23843     23839     23837     23840     23841
     23839     23837     23840     23842     23839     23837     23840     23843
     23840     23843     23846     23847     23840     23843     23846     23848
     23840     23843     23846     23849     23841     23840     23843     23844
     23841     23840     23843     23845     23841     23840     23843     23846
     23842     23840     23843     23844     23842     23840     23843     23845
     23842     23840     23843     23846     23843     23846     23849     23850
     23843     23846     23849     23851     23843     23846     23849     23852
     23844     23843     23846     23847     23844     23843     23846     23848
     23844     23843     23846     23849     23845     23843     23846     23847
     23845     23843     23846     23848     23845     23843     23846     23849
     23847     23846     23849     23850     23847     23846     23849     23851
     23847     23846     23849     23852     23848     23846     23849     23850
     23848     23846     23849     23851     23848     23846     23849     23852
     23853     23854     23869     23870     23853     23854     23869     23871
     23853     23854     23869     23875     23854     23853     23857     23858
     23854     23853     23857     23859     23854     23853     23857     23860
     23854     23853     23861     23862     23854     23853     23861     23863
     23854     23853     23861     23864     23854     23853     23865     23866
     23854     23853     23865     23867     23854     23853     23865     23868
     23854     23869     23875     23872     23855     23854     23853     23857
     23855     23854     23853     23861     23855     23854     23853     23865
     23855     23854     23869     23870     23855     23854     23869     23871
     23855     23854     23869     23875     23856     23854     23853     23857
     23856     23854     23853     23861     23856     23854     23853     23865
     23856     23854     23869     23870     23856     23854     23869     23871
     23856     23854     23869     23875     23857     23853     23854     23869
     23857     23853     23861     23862     23857     23853     23861     23863
     23857     23853     23861     23864     23857     23853     23865     23866
     23857     23853     23865     23867     23857     23853     23865     23868
     23858     23857     23853     23861     23858     23857     23853     23865
     23859     23857     23853     23861     23859     23857     23853     23865
     23860     23857     23853     23861     23860     23857     23853     23865
     23861     23853     23854     23869     23861     23853     23865     23866
     23861     23853     23865     23867     23861     23853     23865     23868
     23862     23861     23853     23865     23863     23861     23853     23865
     23864     23861     23853     23865     23865     23853     23854     23869
     23869     23875     23872     23873     23869     23875     23872     23874
     23869     23875     23872     23876     23870     23869     23875     23872
     23871     23869     23875     23872     23872     23876     23877     23878
     23872     23876     23877     23879     23872     23876     23877     23880
     23873     23872     23876     23877     23874     23872     23876     23877
     23875     23872     23876     23877     23876     23877     23880     23881
     23876     23877     23880     23882     23876     23877     23880     23888
     23877     23880     23882     23883     23877     23880     23888     23889
     23877     23880     23888     23890     23877     23880     23888     23891
     23878     23877     23880     23881     23878     23877     23880     23882
     23878     23877     23880     23888     23879     23877     23880     23881
     23879     23877     23880     23882     23879     23877     23880     23888
     23880     23882     23883     23884     23880     23882     23883     23885
     23880     23888     23891     23892     23881     23880     23882     23883
     23881     23880     23888     23889     23881     23880     23888     23890
     23881     23880     23888     23891     23882     23880     23888     23889
     23882     23880     23888     23890     23882     23880     23888     23891
     23882     23883     23885     23886     23882     23883     23885     23887
     23882     23883     23885     23897     23883     23882     23880     23888
     23883     23885     23897     23898     23883     23885     23897     23899
     23883     23885     23897     23900     23884     23883     23885     23886
     23884     23883     23885     23887     23884     23883     23885     23897
     23885     23897     23900     23901     23885     23897     23900     23902
     23885     23897     23900     23903     23886     23885     23897     23898
     23886     23885     23897     23899     23886     23885     23897     23900
     23887     23885     23897     23898     23887     23885     23897     23899
     23887     23885     23897     23900     23888     23891     23892     23893
     23888     23891     23892     23894     23889     23888     23891     23892
     23890     23888     23891     23892     23891     23892     23894     23895
     23891     23892     23894     23896     23891     23892     23894     23944
     23892     23894     23944     23945     23892     23894     23944     23946
     23892     23894     23944     23947     23893     23892     23894     23895
     23893     23892     23894     23896     23893     23892     23894     23944
     23894     23944     23947     23948     23894     23944     23947     23949
     23894     23944     23947     23950     23895     23894     23944     23945
     23895     23894     23944     23946     23895     23894     23944     23947
     23896     23894     23944     23945     23896     23894     23944     23946
     23896     23894     23944     23947     23897     23900     23903     23904
     23897     23900     23903     23905     23897     23900     23903     23906
     23898     23897     23900     23901     23898     23897     23900     23902
     23898     23897     23900     23903     23899     23897     23900     23901
     23899     23897     23900     23902     23899     23897     23900     23903
     23900     23903     23906     23907     23900     23903     23906     23908
     23900     23903     23906     23909     23901     23900     23903     23904
     23901     23900     23903     23905     23901     23900     23903     23906
     23902     23900     23903     23904     23902     23900     23903     23905
     23902     23900     23903     23906     23903     23906     23909     23910
     23903     23906     23909     23911     23903     23906     23909     23912
     23904     23903     23906     23907     23904     23903     23906     23908
     23904     23903     23906     23909     23905     23903     23906     23907
     23905     23903     23906     23908     23905     23903     23906     23909
     23906     23909     23912     23913     23906     23909     23912     23914
     23906     23909     23912     23915     23907     23906     23909     23910
     23907     23906     23909     23911     23907     23906     23909     23912
     23908     23906     23909     23910     23908     23906     23909     23911
     23908     23906     23909     23912     23909     23912     23915     23916
     23909     23912     23915     23917     23910     23909     23912     23913
     23910     23909     23912     23914     23910     23909     23912     23915
     23911     23909     23912     23913     23911     23909     23912     23914
     23911     23909     23912     23915     23912     23915     23917     23918
     23912     23915     23917     23919     23913     23912     23915     23916
     23913     23912     23915     23917     23914     23912     23915     23916
     23914     23912     23915     23917     23915     23917     23919     23920
     23915     23917     23919     23921     23915     23917     23919     23922
     23916     23915     23917     23918     23916     23915     23917     23919
     23917     23919     23922     23923     23917     23919     23922     23924
     23917     23919     23922     23925     23918     23917     23919     23920
     23918     23917     23919     23921     23918     23917     23919     23922
     23919     23922     23925     23926     23919     23922     23925     23927
     23919     23922     23925     23928     23920     23919     23922     23923
     23920     23919     23922     23924     23920     23919     23922     23925
     23921     23919     23922     23923     23921     23919     23922     23924
     23921     23919     23922     23925     23922     23925     23928     23929
     23922     23925     23928     23930     23922     23925     23928     23931
     23923     23922     23925     23926     23923     23922     23925     23927
     23923     23922     23925     23928     23924     23922     23925     23926
     23924     23922     23925     23927     23924     23922     23925     23928
     23925     23928     23931     23932     23925     23928     23931     23933
     23925     23928     23931     23934     23926     23925     23928     23929
     23926     23925     23928     23930     23926     23925     23928     23931
     23927     23925     23928     23929     23927     23925     23928     23930
     23927     23925     23928     23931     23928     23931     23934     23935
     23928     23931     23934     23936     23928     23931     23934     23937
     23929     23928     23931     23932     23929     23928     23931     23933
     23929     23928     23931     23934     23930     23928     23931     23932
     23930     23928     23931     23933     23930     23928     23931     23934
     23931     23934     23937     23938     23931     23934     23937     23939
     23931     23934     23937     23940     23932     23931     23934     23935
     23932     23931     23934     23936     23932     23931     23934     23937
     23933     23931     23934     23935     23933     23931     23934     23936
     23933     23931     23934     23937     23934     23937     23940     23941
     23934     23937     23940     23942     23934     23937     23940     23943
     23935     23934     23937     23938     23935     23934     23937     23939
     23935     23934     23937     23940     23936     23934     23937     23938
     23936     23934     23937     23939     23936     23934     23937     23940
     23938     23937     23940     23941     23938     23937     23940     23942
     23938     23937     23940     23943     23939     23937     23940     23941
     23939     23937     23940     23942     23939     23937     23940     23943
     23944     23947     23950     23951     23944     23947     23950     23952
     23944     23947     23950     23953     23945     23944     23947     23948
     23945     23944     23947     23949     23945     23944     23947     23950
     23946     23944     23947     23948     23946     23944     23947     23949
     23946     23944     23947     23950     23947     23950     23953     23954
     23947     23950     23953     23955     23947     23950     23953     23956
     23948     23947     23950     23951     23948     23947     23950     23952
     23948     23947     23950     23953     23949     23947     23950     23951
     23949     23947     23950     23952     23949     23947     23950     23953
     23950     23953     23956     23957     23950     23953     23956     23958
     23950     23953     23956     23959     23951     23950     23953     23954
     23951     23950     23953     23955     23951     23950     23953     23956
     23952     23950     23953     23954     23952     23950     23953     23955
     23952     23950     23953     23956     23953     23956     23959     23960
     23953     23956     23959     23961     23953     23956     23959     23962
     23954     23953     23956     23957     23954     23953     23956     23958
     23954     23953     23956     23959     23955     23953     23956     23957
     23955     23953     23956     23958     23955     23953     23956     23959
     23956     23959     23962     23963     23956     23959     23962     23964
     23956     23959     23962     23965     23957     23956     23959     23960
     23957     23956     23959     23961     23957     23956     23959     23962
     23958     23956     23959     23960     23958     23956     23959     23961
     23958     23956     23959     23962     23959     23962     23965     23966
     23959     23962     23965     23967     23959     23962     23965     23968
     23960     23959     23962     23963     23960     23959     23962     23964
     23960     23959     23962     23965     23961     23959     23962     23963
     23961     23959     23962     23964     23961     23959     23962     23965
     23962     23965     23968     23969     23962     23965     23968     23970
     23962     23965     23968     23971     23963     23962     23965     23966
     23963     23962     23965     23967     23963     23962     23965     23968
     23964     23962     23965     23966     23964     23962     23965     23967
     23964     23962     23965     23968     23965     23968     23971     23972
     23965     23968     23971     23973     23965     23968     23971     23974
     23966     23965     23968     23969     23966     23965     23968     23970
     23966     23965     23968     23971     23967     23965     23968     23969
     23967     23965     23968     23970     23967     23965     23968     23971
     23968     23971     23974     23975     23968     23971     23974     23976
     23968     23971     23974     23977     23969     23968     23971     23972
     23969     23968     23971     23973     23969     23968     23971     23974
     23970     23968     23971     23972     23970     23968     23971     23973
     23970     23968     23971     23974     23971     23974     23977     23978
     23971     23974     23977     23979     23971     23974     23977     23980
     23972     23971     23974     23975     23972     23971     23974     23976
     23972     23971     23974     23977     23973     23971     23974     23975
     23973     23971     23974     23976     23973     23971     23974     23977
     23974     23977     23980     23981     23974     23977     23980     23982
     23974     23977     23980     23983     23975     23974     23977     23978
     23975     23974     23977     23979     23975     23974     23977     23980
     23976     23974     23977     23978     23976     23974     23977     23979
     23976     23974     23977     23980     23977     23980     23983     23984
     23977     23980     23983     23985     23977     23980     23983     23986
     23978     23977     23980     23981     23978     23977     23980     23982
     23978     23977     23980     23983     23979     23977     23980     23981
     23979     23977     23980     23982     23979     23977     23980     23983
     23981     23980     23983     23984     23981     23980     23983     23985
     23981     23980     23983     23986     23982     23980     23983     23984
     23982     23980     23983     23985     23982     23980     23983     23986
     23987     23988     24003     24004     23987     23988     24003     24005
     23987     23988     24003     24009     23988     23987     23991     23992
     23988     23987     23991     23993     23988     23987     23991     23994
     23988     23987     23995     23996     23988     23987     23995     23997
     23988     23987     23995     23998     23988     23987     23999     24000
     23988     23987     23999     24001     23988     23987     23999     24002
     23988     24003     24009     24006     23989     23988     23987     23991
     23989     23988     23987     23995     23989     23988     23987     23999
     23989     23988     24003     24004     23989     23988     24003     24005
     23989     23988     24003     24009     23990     23988     23987     23991
     23990     23988     23987     23995     23990     23988     23987     23999
     23990     23988     24003     24004     23990     23988     24003     24005
     23990     23988     24003     24009     23991     23987     23988     24003
     23991     23987     23995     23996     23991     23987     23995     23997
     23991     23987     23995     23998     23991     23987     23999     24000
     23991     23987     23999     24001     23991     23987     23999     24002
     23992     23991     23987     23995     23992     23991     23987     23999
     23993     23991     23987     23995     23993     23991     23987     23999
     23994     23991     23987     23995     23994     23991     23987     23999
     23995     23987     23988     24003     23995     23987     23999     24000
     23995     23987     23999     24001     23995     23987     23999     24002
     23996     23995     23987     23999     23997     23995     23987     23999
     23998     23995     23987     23999     23999     23987     23988     24003
     24003     24009     24006     24007     24003     24009     24006     24008
     24003     24009     24006     24010     24004     24003     24009     24006
     24005     24003     24009     24006     24006     24010     24011     24012
     24006     24010     24011     24013     24006     24010     24011     24014
     24007     24006     24010     24011     24008     24006     24010     24011
     24009     24006     24010     24011     24010     24011     24014     24015
     24010     24011     24014     24016     24010     24011     24014     24022
     24011     24014     24016     24017     24011     24014     24022     24023
     24011     24014     24022     24024     24011     24014     24022     24025
     24012     24011     24014     24015     24012     24011     24014     24016
     24012     24011     24014     24022     24013     24011     24014     24015
     24013     24011     24014     24016     24013     24011     24014     24022
     24014     24016     24017     24018     24014     24016     24017     24019
     24014     24022     24025     24026     24015     24014     24016     24017
     24015     24014     24022     24023     24015     24014     24022     24024
     24015     24014     24022     24025     24016     24014     24022     24023
     24016     24014     24022     24024     24016     24014     24022     24025
     24016     24017     24019     24020     24016     24017     24019     24021
     24016     24017     24019     24031     24017     24016     24014     24022
     24017     24019     24031     24032     24017     24019     24031     24033
     24017     24019     24031     24034     24018     24017     24019     24020
     24018     24017     24019     24021     24018     24017     24019     24031
     24019     24031     24034     24035     24019     24031     24034     24036
     24019     24031     24034     24037     24020     24019     24031     24032
     24020     24019     24031     24033     24020     24019     24031     24034
     24021     24019     24031     24032     24021     24019     24031     24033
     24021     24019     24031     24034     24022     24025     24026     24027
     24022     24025     24026     24028     24023     24022     24025     24026
     24024     24022     24025     24026     24025     24026     24028     24029
     24025     24026     24028     24030     24025     24026     24028     24078
     24026     24028     24078     24079     24026     24028     24078     24080
     24026     24028     24078     24081     24027     24026     24028     24029
     24027     24026     24028     24030     24027     24026     24028     24078
     24028     24078     24081     24082     24028     24078     24081     24083
     24028     24078     24081     24084     24029     24028     24078     24079
     24029     24028     24078     24080     24029     24028     24078     24081
     24030     24028     24078     24079     24030     24028     24078     24080
     24030     24028     24078     24081     24031     24034     24037     24038
     24031     24034     24037     24039     24031     24034     24037     24040
     24032     24031     24034     24035     24032     24031     24034     24036
     24032     24031     24034     24037     24033     24031     24034     24035
     24033     24031     24034     24036     24033     24031     24034     24037
     24034     24037     24040     24041     24034     24037     24040     24042
     24034     24037     24040     24043     24035     24034     24037     24038
     24035     24034     24037     24039     24035     24034     24037     24040
     24036     24034     24037     24038     24036     24034     24037     24039
     24036     24034     24037     24040     24037     24040     24043     24044
     24037     24040     24043     24045     24037     24040     24043     24046
     24038     24037     24040     24041     24038     24037     24040     24042
     24038     24037     24040     24043     24039     24037     24040     24041
     24039     24037     24040     24042     24039     24037     24040     24043
     24040     24043     24046     24047     24040     24043     24046     24048
     24040     24043     24046     24049     24041     24040     24043     24044
     24041     24040     24043     24045     24041     24040     24043     24046
     24042     24040     24043     24044     24042     24040     24043     24045
     24042     24040     24043     24046     24043     24046     24049     24050
     24043     24046     24049     24051     24044     24043     24046     24047
     24044     24043     24046     24048     24044     24043     24046     24049
     24045     24043     24046     24047     24045     24043     24046     24048
     24045     24043     24046     24049     24046     24049     24051     24052
     24046     24049     24051     24053     24047     24046     24049     24050
     24047     24046     24049     24051     24048     24046     24049     24050
     24048     24046     24049     24051     24049     24051     24053     24054
     24049     24051     24053     24055     24049     24051     24053     24056
     24050     24049     24051     24052     24050     24049     24051     24053
     24051     24053     24056     24057     24051     24053     24056     24058
     24051     24053     24056     24059     24052     24051     24053     24054
     24052     24051     24053     24055     24052     24051     24053     24056
     24053     24056     24059     24060     24053     24056     24059     24061
     24053     24056     24059     24062     24054     24053     24056     24057
     24054     24053     24056     24058     24054     24053     24056     24059
     24055     24053     24056     24057     24055     24053     24056     24058
     24055     24053     24056     24059     24056     24059     24062     24063
     24056     24059     24062     24064     24056     24059     24062     24065
     24057     24056     24059     24060     24057     24056     24059     24061
     24057     24056     24059     24062     24058     24056     24059     24060
     24058     24056     24059     24061     24058     24056     24059     24062
     24059     24062     24065     24066     24059     24062     24065     24067
     24059     24062     24065     24068     24060     24059     24062     24063
     24060     24059     24062     24064     24060     24059     24062     24065
     24061     24059     24062     24063     24061     24059     24062     24064
     24061     24059     24062     24065     24062     24065     24068     24069
     24062     24065     24068     24070     24062     24065     24068     24071
     24063     24062     24065     24066     24063     24062     24065     24067
     24063     24062     24065     24068     24064     24062     24065     24066
     24064     24062     24065     24067     24064     24062     24065     24068
     24065     24068     24071     24072     24065     24068     24071     24073
     24065     24068     24071     24074     24066     24065     24068     24069
     24066     24065     24068     24070     24066     24065     24068     24071
     24067     24065     24068     24069     24067     24065     24068     24070
     24067     24065     24068     24071     24068     24071     24074     24075
     24068     24071     24074     24076     24068     24071     24074     24077
     24069     24068     24071     24072     24069     24068     24071     24073
     24069     24068     24071     24074     24070     24068     24071     24072
     24070     24068     24071     24073     24070     24068     24071     24074
     24072     24071     24074     24075     24072     24071     24074     24076
     24072     24071     24074     24077     24073     24071     24074     24075
     24073     24071     24074     24076     24073     24071     24074     24077
     24078     24081     24084     24085     24078     24081     24084     24086
     24078     24081     24084     24087     24079     24078     24081     24082
     24079     24078     24081     24083     24079     24078     24081     24084
     24080     24078     24081     24082     24080     24078     24081     24083
     24080     24078     24081     24084     24081     24084     24087     24088
     24081     24084     24087     24089     24081     24084     24087     24090
     24082     24081     24084     24085     24082     24081     24084     24086
     24082     24081     24084     24087     24083     24081     24084     24085
     24083     24081     24084     24086     24083     24081     24084     24087
     24084     24087     24090     24091     24084     24087     24090     24092
     24084     24087     24090     24093     24085     24084     24087     24088
     24085     24084     24087     24089     24085     24084     24087     24090
     24086     24084     24087     24088     24086     24084     24087     24089
     24086     24084     24087     24090     24087     24090     24093     24094
     24087     24090     24093     24095     24087     24090     24093     24096
     24088     24087     24090     24091     24088     24087     24090     24092
     24088     24087     24090     24093     24089     24087     24090     24091
     24089     24087     24090     24092     24089     24087     24090     24093
     24090     24093     24096     24097     24090     24093     24096     24098
     24090     24093     24096     24099     24091     24090     24093     24094
     24091     24090     24093     24095     24091     24090     24093     24096
     24092     24090     24093     24094     24092     24090     24093     24095
     24092     24090     24093     24096     24093     24096     24099     24100
     24093     24096     24099     24101     24093     24096     24099     24102
     24094     24093     24096     24097     24094     24093     24096     24098
     24094     24093     24096     24099     24095     24093     24096     24097
     24095     24093     24096     24098     24095     24093     24096     24099
     24096     24099     24102     24103     24096     24099     24102     24104
     24096     24099     24102     24105     24097     24096     24099     24100
     24097     24096     24099     24101     24097     24096     24099     24102
     24098     24096     24099     24100     24098     24096     24099     24101
     24098     24096     24099     24102     24099     24102     24105     24106
     24099     24102     24105     24107     24099     24102     24105     24108
     24100     24099     24102     24103     24100     24099     24102     24104
     24100     24099     24102     24105     24101     24099     24102     24103
     24101     24099     24102     24104     24101     24099     24102     24105
     24102     24105     24108     24109     24102     24105     24108     24110
     24102     24105     24108     24111     24103     24102     24105     24106
     24103     24102     24105     24107     24103     24102     24105     24108
     24104     24102     24105     24106     24104     24102     24105     24107
     24104     24102     24105     24108     24105     24108     24111     24112
     24105     24108     24111     24113     24105     24108     24111     24114
     24106     24105     24108     24109     24106     24105     24108     24110
     24106     24105     24108     24111     24107     24105     24108     24109
     24107     24105     24108     24110     24107     24105     24108     24111
     24108     24111     24114     24115     24108     24111     24114     24116
     24108     24111     24114     24117     24109     24108     24111     24112
     24109     24108     24111     24113     24109     24108     24111     24114
     24110     24108     24111     24112     24110     24108     24111     24113
     24110     24108     24111     24114     24111     24114     24117     24118
     24111     24114     24117     24119     24111     24114     24117     24120
     24112     24111     24114     24115     24112     24111     24114     24116
     24112     24111     24114     24117     24113     24111     24114     24115
     24113     24111     24114     24116     24113     24111     24114     24117
     24115     24114     24117     24118     24115     24114     24117     24119
     24115     24114     24117     24120     24116     24114     24117     24118
     24116     24114     24117     24119     24116     24114     24117     24120
     24121     24122     24137     24138     24121     24122     24137     24139
     24121     24122     24137     24143     24122     24121     24125     24126
     24122     24121     24125     24127     24122     24121     24125     24128
     24122     24121     24129     24130     24122     24121     24129     24131
     24122     24121     24129     24132     24122     24121     24133     24134
     24122     24121     24133     24135     24122     24121     24133     24136
     24122     24137     24143     24140     24123     24122     24121     24125
     24123     24122     24121     24129     24123     24122     24121     24133
     24123     24122     24137     24138     24123     24122     24137     24139
     24123     24122     24137     24143     24124     24122     24121     24125
     24124     24122     24121     24129     24124     24122     24121     24133
     24124     24122     24137     24138     24124     24122     24137     24139
     24124     24122     24137     24143     24125     24121     24122     24137
     24125     24121     24129     24130     24125     24121     24129     24131
     24125     24121     24129     24132     24125     24121     24133     24134
     24125     24121     24133     24135     24125     24121     24133     24136
     24126     24125     24121     24129     24126     24125     24121     24133
     24127     24125     24121     24129     24127     24125     24121     24133
     24128     24125     24121     24129     24128     24125     24121     24133
     24129     24121     24122     24137     24129     24121     24133     24134
     24129     24121     24133     24135     24129     24121     24133     24136
     24130     24129     24121     24133     24131     24129     24121     24133
     24132     24129     24121     24133     24133     24121     24122     24137
     24137     24143     24140     24141     24137     24143     24140     24142
     24137     24143     24140     24144     24138     24137     24143     24140
     24139     24137     24143     24140     24140     24144     24145     24146
     24140     24144     24145     24147     24140     24144     24145     24148
     24141     24140     24144     24145     24142     24140     24144     24145
     24143     24140     24144     24145     24144     24145     24148     24149
     24144     24145     24148     24150     24144     24145     24148     24156
     24145     24148     24150     24151     24145     24148     24156     24157
     24145     24148     24156     24158     24145     24148     24156     24159
     24146     24145     24148     24149     24146     24145     24148     24150
     24146     24145     24148     24156     24147     24145     24148     24149
     24147     24145     24148     24150     24147     24145     24148     24156
     24148     24150     24151     24152     24148     24150     24151     24153
     24148     24156     24159     24160     24149     24148     24150     24151
     24149     24148     24156     24157     24149     24148     24156     24158
     24149     24148     24156     24159     24150     24148     24156     24157
     24150     24148     24156     24158     24150     24148     24156     24159
     24150     24151     24153     24154     24150     24151     24153     24155
     24150     24151     24153     24165     24151     24150     24148     24156
     24151     24153     24165     24166     24151     24153     24165     24167
     24151     24153     24165     24168     24152     24151     24153     24154
     24152     24151     24153     24155     24152     24151     24153     24165
     24153     24165     24168     24169     24153     24165     24168     24170
     24153     24165     24168     24171     24154     24153     24165     24166
     24154     24153     24165     24167     24154     24153     24165     24168
     24155     24153     24165     24166     24155     24153     24165     24167
     24155     24153     24165     24168     24156     24159     24160     24161
     24156     24159     24160     24162     24157     24156     24159     24160
     24158     24156     24159     24160     24159     24160     24162     24163
     24159     24160     24162     24164     24159     24160     24162     24212
     24160     24162     24212     24213     24160     24162     24212     24214
     24160     24162     24212     24215     24161     24160     24162     24163
     24161     24160     24162     24164     24161     24160     24162     24212
     24162     24212     24215     24216     24162     24212     24215     24217
     24162     24212     24215     24218     24163     24162     24212     24213
     24163     24162     24212     24214     24163     24162     24212     24215
     24164     24162     24212     24213     24164     24162     24212     24214
     24164     24162     24212     24215     24165     24168     24171     24172
     24165     24168     24171     24173     24165     24168     24171     24174
     24166     24165     24168     24169     24166     24165     24168     24170
     24166     24165     24168     24171     24167     24165     24168     24169
     24167     24165     24168     24170     24167     24165     24168     24171
     24168     24171     24174     24175     24168     24171     24174     24176
     24168     24171     24174     24177     24169     24168     24171     24172
     24169     24168     24171     24173     24169     24168     24171     24174
     24170     24168     24171     24172     24170     24168     24171     24173
     24170     24168     24171     24174     24171     24174     24177     24178
     24171     24174     24177     24179     24171     24174     24177     24180
     24172     24171     24174     24175     24172     24171     24174     24176
     24172     24171     24174     24177     24173     24171     24174     24175
     24173     24171     24174     24176     24173     24171     24174     24177
     24174     24177     24180     24181     24174     24177     24180     24182
     24174     24177     24180     24183     24175     24174     24177     24178
     24175     24174     24177     24179     24175     24174     24177     24180
     24176     24174     24177     24178     24176     24174     24177     24179
     24176     24174     24177     24180     24177     24180     24183     24184
     24177     24180     24183     24185     24178     24177     24180     24181
     24178     24177     24180     24182     24178     24177     24180     24183
     24179     24177     24180     24181     24179     24177     24180     24182
     24179     24177     24180     24183     24180     24183     24185     24186
     24180     24183     24185     24187     24181     24180     24183     24184
     24181     24180     24183     24185     24182     24180     24183     24184
     24182     24180     24183     24185     24183     24185     24187     24188
     24183     24185     24187     24189     24183     24185     24187     24190
     24184     24183     24185     24186     24184     24183     24185     24187
     24185     24187     24190     24191     24185     24187     24190     24192
     24185     24187     24190     24193     24186     24185     24187     24188
     24186     24185     24187     24189     24186     24185     24187     24190
     24187     24190     24193     24194     24187     24190     24193     24195
     24187     24190     24193     24196     24188     24187     24190     24191
     24188     24187     24190     24192     24188     24187     24190     24193
     24189     24187     24190     24191     24189     24187     24190     24192
     24189     24187     24190     24193     24190     24193     24196     24197
     24190     24193     24196     24198     24190     24193     24196     24199
     24191     24190     24193     24194     24191     24190     24193     24195
     24191     24190     24193     24196     24192     24190     24193     24194
     24192     24190     24193     24195     24192     24190     24193     24196
     24193     24196     24199     24200     24193     24196     24199     24201
     24193     24196     24199     24202     24194     24193     24196     24197
     24194     24193     24196     24198     24194     24193     24196     24199
     24195     24193     24196     24197     24195     24193     24196     24198
     24195     24193     24196     24199     24196     24199     24202     24203
     24196     24199     24202     24204     24196     24199     24202     24205
     24197     24196     24199     24200     24197     24196     24199     24201
     24197     24196     24199     24202     24198     24196     24199     24200
     24198     24196     24199     24201     24198     24196     24199     24202
     24199     24202     24205     24206     24199     24202     24205     24207
     24199     24202     24205     24208     24200     24199     24202     24203
     24200     24199     24202     24204     24200     24199     24202     24205
     24201     24199     24202     24203     24201     24199     24202     24204
     24201     24199     24202     24205     24202     24205     24208     24209
     24202     24205     24208     24210     24202     24205     24208     24211
     24203     24202     24205     24206     24203     24202     24205     24207
     24203     24202     24205     24208     24204     24202     24205     24206
     24204     24202     24205     24207     24204     24202     24205     24208
     24206     24205     24208     24209     24206     24205     24208     24210
     24206     24205     24208     24211     24207     24205     24208     24209
     24207     24205     24208     24210     24207     24205     24208     24211
     24212     24215     24218     24219     24212     24215     24218     24220
     24212     24215     24218     24221     24213     24212     24215     24216
     24213     24212     24215     24217     24213     24212     24215     24218
     24214     24212     24215     24216     24214     24212     24215     24217
     24214     24212     24215     24218     24215     24218     24221     24222
     24215     24218     24221     24223     24215     24218     24221     24224
     24216     24215     24218     24219     24216     24215     24218     24220
     24216     24215     24218     24221     24217     24215     24218     24219
     24217     24215     24218     24220     24217     24215     24218     24221
     24218     24221     24224     24225     24218     24221     24224     24226
     24218     24221     24224     24227     24219     24218     24221     24222
     24219     24218     24221     24223     24219     24218     24221     24224
     24220     24218     24221     24222     24220     24218     24221     24223
     24220     24218     24221     24224     24221     24224     24227     24228
     24221     24224     24227     24229     24221     24224     24227     24230
     24222     24221     24224     24225     24222     24221     24224     24226
     24222     24221     24224     24227     24223     24221     24224     24225
     24223     24221     24224     24226     24223     24221     24224     24227
     24224     24227     24230     24231     24224     24227     24230     24232
     24224     24227     24230     24233     24225     24224     24227     24228
     24225     24224     24227     24229     24225     24224     24227     24230
     24226     24224     24227     24228     24226     24224     24227     24229
     24226     24224     24227     24230     24227     24230     24233     24234
     24227     24230     24233     24235     24227     24230     24233     24236
     24228     24227     24230     24231     24228     24227     24230     24232
     24228     24227     24230     24233     24229     24227     24230     24231
     24229     24227     24230     24232     24229     24227     24230     24233
     24230     24233     24236     24237     24230     24233     24236     24238
     24230     24233     24236     24239     24231     24230     24233     24234
     24231     24230     24233     24235     24231     24230     24233     24236
     24232     24230     24233     24234     24232     24230     24233     24235
     24232     24230     24233     24236     24233     24236     24239     24240
     24233     24236     24239     24241     24233     24236     24239     24242
     24234     24233     24236     24237     24234     24233     24236     24238
     24234     24233     24236     24239     24235     24233     24236     24237
     24235     24233     24236     24238     24235     24233     24236     24239
     24236     24239     24242     24243     24236     24239     24242     24244
     24236     24239     24242     24245     24237     24236     24239     24240
     24237     24236     24239     24241     24237     24236     24239     24242
     24238     24236     24239     24240     24238     24236     24239     24241
     24238     24236     24239     24242     24239     24242     24245     24246
     24239     24242     24245     24247     24239     24242     24245     24248
     24240     24239     24242     24243     24240     24239     24242     24244
     24240     24239     24242     24245     24241     24239     24242     24243
     24241     24239     24242     24244     24241     24239     24242     24245
     24242     24245     24248     24249     24242     24245     24248     24250
     24242     24245     24248     24251     24243     24242     24245     24246
     24243     24242     24245     24247     24243     24242     24245     24248
     24244     24242     24245     24246     24244     24242     24245     24247
     24244     24242     24245     24248     24245     24248     24251     24252
     24245     24248     24251     24253     24245     24248     24251     24254
     24246     24245     24248     24249     24246     24245     24248     24250
     24246     24245     24248     24251     24247     24245     24248     24249
     24247     24245     24248     24250     24247     24245     24248     24251
     24249     24248     24251     24252     24249     24248     24251     24253
     24249     24248     24251     24254     24250     24248     24251     24252
     24250     24248     24251     24253     24250     24248     24251     24254
     24255     24256     24271     24272     24255     24256     24271     24273
     24255     24256     24271     24277     24256     24255     24259     24260
     24256     24255     24259     24261     24256     24255     24259     24262
     24256     24255     24263     24264     24256     24255     24263     24265
     24256     24255     24263     24266     24256     24255     24267     24268
     24256     24255     24267     24269     24256     24255     24267     24270
     24256     24271     24277     24274     24257     24256     24255     24259
     24257     24256     24255     24263     24257     24256     24255     24267
     24257     24256     24271     24272     24257     24256     24271     24273
     24257     24256     24271     24277     24258     24256     24255     24259
     24258     24256     24255     24263     24258     24256     24255     24267
     24258     24256     24271     24272     24258     24256     24271     24273
     24258     24256     24271     24277     24259     24255     24256     24271
     24259     24255     24263     24264     24259     24255     24263     24265
     24259     24255     24263     24266     24259     24255     24267     24268
     24259     24255     24267     24269     24259     24255     24267     24270
     24260     24259     24255     24263     24260     24259     24255     24267
     24261     24259     24255     24263     24261     24259     24255     24267
     24262     24259     24255     24263     24262     24259     24255     24267
     24263     24255     24256     24271     24263     24255     24267     24268
     24263     24255     24267     24269     24263     24255     24267     24270
     24264     24263     24255     24267     24265     24263     24255     24267
     24266     24263     24255     24267     24267     24255     24256     24271
     24271     24277     24274     24275     24271     24277     24274     24276
     24271     24277     24274     24278     24272     24271     24277     24274
     24273     24271     24277     24274     24274     24278     24279     24280
     24274     24278     24279     24281     24274     24278     24279     24282
     24275     24274     24278     24279     24276     24274     24278     24279
     24277     24274     24278     24279     24278     24279     24282     24283
     24278     24279     24282     24284     24278     24279     24282     24290
     24279     24282     24284     24285     24279     24282     24290     24291
     24279     24282     24290     24292     24279     24282     24290     24293
     24280     24279     24282     24283     24280     24279     24282     24284
     24280     24279     24282     24290     24281     24279     24282     24283
     24281     24279     24282     24284     24281     24279     24282     24290
     24282     24284     24285     24286     24282     24284     24285     24287
     24282     24290     24293     24294     24283     24282     24284     24285
     24283     24282     24290     24291     24283     24282     24290     24292
     24283     24282     24290     24293     24284     24282     24290     24291
     24284     24282     24290     24292     24284     24282     24290     24293
     24284     24285     24287     24288     24284     24285     24287     24289
     24284     24285     24287     24299     24285     24284     24282     24290
     24285     24287     24299     24300     24285     24287     24299     24301
     24285     24287     24299     24302     24286     24285     24287     24288
     24286     24285     24287     24289     24286     24285     24287     24299
     24287     24299     24302     24303     24287     24299     24302     24304
     24287     24299     24302     24305     24288     24287     24299     24300
     24288     24287     24299     24301     24288     24287     24299     24302
     24289     24287     24299     24300     24289     24287     24299     24301
     24289     24287     24299     24302     24290     24293     24294     24295
     24290     24293     24294     24296     24291     24290     24293     24294
     24292     24290     24293     24294     24293     24294     24296     24297
     24293     24294     24296     24298     24293     24294     24296     24346
     24294     24296     24346     24347     24294     24296     24346     24348
     24294     24296     24346     24349     24295     24294     24296     24297
     24295     24294     24296     24298     24295     24294     24296     24346
     24296     24346     24349     24350     24296     24346     24349     24351
     24296     24346     24349     24352     24297     24296     24346     24347
     24297     24296     24346     24348     24297     24296     24346     24349
     24298     24296     24346     24347     24298     24296     24346     24348
     24298     24296     24346     24349     24299     24302     24305     24306
     24299     24302     24305     24307     24299     24302     24305     24308
     24300     24299     24302     24303     24300     24299     24302     24304
     24300     24299     24302     24305     24301     24299     24302     24303
     24301     24299     24302     24304     24301     24299     24302     24305
     24302     24305     24308     24309     24302     24305     24308     24310
     24302     24305     24308     24311     24303     24302     24305     24306
     24303     24302     24305     24307     24303     24302     24305     24308
     24304     24302     24305     24306     24304     24302     24305     24307
     24304     24302     24305     24308     24305     24308     24311     24312
     24305     24308     24311     24313     24305     24308     24311     24314
     24306     24305     24308     24309     24306     24305     24308     24310
     24306     24305     24308     24311     24307     24305     24308     24309
     24307     24305     24308     24310     24307     24305     24308     24311
     24308     24311     24314     24315     24308     24311     24314     24316
     24308     24311     24314     24317     24309     24308     24311     24312
     24309     24308     24311     24313     24309     24308     24311     24314
     24310     24308     24311     24312     24310     24308     24311     24313
     24310     24308     24311     24314     24311     24314     24317     24318
     24311     24314     24317     24319     24312     24311     24314     24315
     24312     24311     24314     24316     24312     24311     24314     24317
     24313     24311     24314     24315     24313     24311     24314     24316
     24313     24311     24314     24317     24314     24317     24319     24320
     24314     24317     24319     24321     24315     24314     24317     24318
     24315     24314     24317     24319     24316     24314     24317     24318
     24316     24314     24317     24319     24317     24319     24321     24322
     24317     24319     24321     24323     24317     24319     24321     24324
     24318     24317     24319     24320     24318     24317     24319     24321
     24319     24321     24324     24325     24319     24321     24324     24326
     24319     24321     24324     24327     24320     24319     24321     24322
     24320     24319     24321     24323     24320     24319     24321     24324
     24321     24324     24327     24328     24321     24324     24327     24329
     24321     24324     24327     24330     24322     24321     24324     24325
     24322     24321     24324     24326     24322     24321     24324     24327
     24323     24321     24324     24325     24323     24321     24324     24326
     24323     24321     24324     24327     24324     24327     24330     24331
     24324     24327     24330     24332     24324     24327     24330     24333
     24325     24324     24327     24328     24325     24324     24327     24329
     24325     24324     24327     24330     24326     24324     24327     24328
     24326     24324     24327     24329     24326     24324     24327     24330
     24327     24330     24333     24334     24327     24330     24333     24335
     24327     24330     24333     24336     24328     24327     24330     24331
     24328     24327     24330     24332     24328     24327     24330     24333
     24329     24327     24330     24331     24329     24327     24330     24332
     24329     24327     24330     24333     24330     24333     24336     24337
     24330     24333     24336     24338     24330     24333     24336     24339
     24331     24330     24333     24334     24331     24330     24333     24335
     24331     24330     24333     24336     24332     24330     24333     24334
     24332     24330     24333     24335     24332     24330     24333     24336
     24333     24336     24339     24340     24333     24336     24339     24341
     24333     24336     24339     24342     24334     24333     24336     24337
     24334     24333     24336     24338     24334     24333     24336     24339
     24335     24333     24336     24337     24335     24333     24336     24338
     24335     24333     24336     24339     24336     24339     24342     24343
     24336     24339     24342     24344     24336     24339     24342     24345
     24337     24336     24339     24340     24337     24336     24339     24341
     24337     24336     24339     24342     24338     24336     24339     24340
     24338     24336     24339     24341     24338     24336     24339     24342
     24340     24339     24342     24343     24340     24339     24342     24344
     24340     24339     24342     24345     24341     24339     24342     24343
     24341     24339     24342     24344     24341     24339     24342     24345
     24346     24349     24352     24353     24346     24349     24352     24354
     24346     24349     24352     24355     24347     24346     24349     24350
     24347     24346     24349     24351     24347     24346     24349     24352
     24348     24346     24349     24350     24348     24346     24349     24351
     24348     24346     24349     24352     24349     24352     24355     24356
     24349     24352     24355     24357     24349     24352     24355     24358
     24350     24349     24352     24353     24350     24349     24352     24354
     24350     24349     24352     24355     24351     24349     24352     24353
     24351     24349     24352     24354     24351     24349     24352     24355
     24352     24355     24358     24359     24352     24355     24358     24360
     24352     24355     24358     24361     24353     24352     24355     24356
     24353     24352     24355     24357     24353     24352     24355     24358
     24354     24352     24355     24356     24354     24352     24355     24357
     24354     24352     24355     24358     24355     24358     24361     24362
     24355     24358     24361     24363     24355     24358     24361     24364
     24356     24355     24358     24359     24356     24355     24358     24360
     24356     24355     24358     24361     24357     24355     24358     24359
     24357     24355     24358     24360     24357     24355     24358     24361
     24358     24361     24364     24365     24358     24361     24364     24366
     24358     24361     24364     24367     24359     24358     24361     24362
     24359     24358     24361     24363     24359     24358     24361     24364
     24360     24358     24361     24362     24360     24358     24361     24363
     24360     24358     24361     24364     24361     24364     24367     24368
     24361     24364     24367     24369     24361     24364     24367     24370
     24362     24361     24364     24365     24362     24361     24364     24366
     24362     24361     24364     24367     24363     24361     24364     24365
     24363     24361     24364     24366     24363     24361     24364     24367
     24364     24367     24370     24371     24364     24367     24370     24372
     24364     24367     24370     24373     24365     24364     24367     24368
     24365     24364     24367     24369     24365     24364     24367     24370
     24366     24364     24367     24368     24366     24364     24367     24369
     24366     24364     24367     24370     24367     24370     24373     24374
     24367     24370     24373     24375     24367     24370     24373     24376
     24368     24367     24370     24371     24368     24367     24370     24372
     24368     24367     24370     24373     24369     24367     24370     24371
     24369     24367     24370     24372     24369     24367     24370     24373
     24370     24373     24376     24377     24370     24373     24376     24378
     24370     24373     24376     24379     24371     24370     24373     24374
     24371     24370     24373     24375     24371     24370     24373     24376
     24372     24370     24373     24374     24372     24370     24373     24375
     24372     24370     24373     24376     24373     24376     24379     24380
     24373     24376     24379     24381     24373     24376     24379     24382
     24374     24373     24376     24377     24374     24373     24376     24378
     24374     24373     24376     24379     24375     24373     24376     24377
     24375     24373     24376     24378     24375     24373     24376     24379
     24376     24379     24382     24383     24376     24379     24382     24384
     24376     24379     24382     24385     24377     24376     24379     24380
     24377     24376     24379     24381     24377     24376     24379     24382
     24378     24376     24379     24380     24378     24376     24379     24381
     24378     24376     24379     24382     24379     24382     24385     24386
     24379     24382     24385     24387     24379     24382     24385     24388
     24380     24379     24382     24383     24380     24379     24382     24384
     24380     24379     24382     24385     24381     24379     24382     24383
     24381     24379     24382     24384     24381     24379     24382     24385
     24383     24382     24385     24386     24383     24382     24385     24387
     24383     24382     24385     24388     24384     24382     24385     24386
     24384     24382     24385     24387     24384     24382     24385     24388
     24389     24390     24405     24406     24389     24390     24405     24407
     24389     24390     24405     24411     24390     24389     24393     24394
     24390     24389     24393     24395     24390     24389     24393     24396
     24390     24389     24397     24398     24390     24389     24397     24399
     24390     24389     24397     24400     24390     24389     24401     24402
     24390     24389     24401     24403     24390     24389     24401     24404
     24390     24405     24411     24408     24391     24390     24389     24393
     24391     24390     24389     24397     24391     24390     24389     24401
     24391     24390     24405     24406     24391     24390     24405     24407
     24391     24390     24405     24411     24392     24390     24389     24393
     24392     24390     24389     24397     24392     24390     24389     24401
     24392     24390     24405     24406     24392     24390     24405     24407
     24392     24390     24405     24411     24393     24389     24390     24405
     24393     24389     24397     24398     24393     24389     24397     24399
     24393     24389     24397     24400     24393     24389     24401     24402
     24393     24389     24401     24403     24393     24389     24401     24404
     24394     24393     24389     24397     24394     24393     24389     24401
     24395     24393     24389     24397     24395     24393     24389     24401
     24396     24393     24389     24397     24396     24393     24389     24401
     24397     24389     24390     24405     24397     24389     24401     24402
     24397     24389     24401     24403     24397     24389     24401     24404
     24398     24397     24389     24401     24399     24397     24389     24401
     24400     24397     24389     24401     24401     24389     24390     24405
     24405     24411     24408     24409     24405     24411     24408     24410
     24405     24411     24408     24412     24406     24405     24411     24408
     24407     24405     24411     24408     24408     24412     24413     24414
     24408     24412     24413     24415     24408     24412     24413     24416
     24409     24408     24412     24413     24410     24408     24412     24413
     24411     24408     24412     24413     24412     24413     24416     24417
     24412     24413     24416     24418     24412     24413     24416     24424
     24413     24416     24418     24419     24413     24416     24424     24425
     24413     24416     24424     24426     24413     24416     24424     24427
     24414     24413     24416     24417     24414     24413     24416     24418
     24414     24413     24416     24424     24415     24413     24416     24417
     24415     24413     24416     24418     24415     24413     24416     24424
     24416     24418     24419     24420     24416     24418     24419     24421
     24416     24424     24427     24428     24417     24416     24418     24419
     24417     24416     24424     24425     24417     24416     24424     24426
     24417     24416     24424     24427     24418     24416     24424     24425
     24418     24416     24424     24426     24418     24416     24424     24427
     24418     24419     24421     24422     24418     24419     24421     24423
     24418     24419     24421     24433     24419     24418     24416     24424
     24419     24421     24433     24434     24419     24421     24433     24435
     24419     24421     24433     24436     24420     24419     24421     24422
     24420     24419     24421     24423     24420     24419     24421     24433
     24421     24433     24436     24437     24421     24433     24436     24438
     24421     24433     24436     24439     24422     24421     24433     24434
     24422     24421     24433     24435     24422     24421     24433     24436
     24423     24421     24433     24434     24423     24421     24433     24435
     24423     24421     24433     24436     24424     24427     24428     24429
     24424     24427     24428     24430     24425     24424     24427     24428
     24426     24424     24427     24428     24427     24428     24430     24431
     24427     24428     24430     24432     24427     24428     24430     24480
     24428     24430     24480     24481     24428     24430     24480     24482
     24428     24430     24480     24483     24429     24428     24430     24431
     24429     24428     24430     24432     24429     24428     24430     24480
     24430     24480     24483     24484     24430     24480     24483     24485
     24430     24480     24483     24486     24431     24430     24480     24481
     24431     24430     24480     24482     24431     24430     24480     24483
     24432     24430     24480     24481     24432     24430     24480     24482
     24432     24430     24480     24483     24433     24436     24439     24440
     24433     24436     24439     24441     24433     24436     24439     24442
     24434     24433     24436     24437     24434     24433     24436     24438
     24434     24433     24436     24439     24435     24433     24436     24437
     24435     24433     24436     24438     24435     24433     24436     24439
     24436     24439     24442     24443     24436     24439     24442     24444
     24436     24439     24442     24445     24437     24436     24439     24440
     24437     24436     24439     24441     24437     24436     24439     24442
     24438     24436     24439     24440     24438     24436     24439     24441
     24438     24436     24439     24442     24439     24442     24445     24446
     24439     24442     24445     24447     24439     24442     24445     24448
     24440     24439     24442     24443     24440     24439     24442     24444
     24440     24439     24442     24445     24441     24439     24442     24443
     24441     24439     24442     24444     24441     24439     24442     24445
     24442     24445     24448     24449     24442     24445     24448     24450
     24442     24445     24448     24451     24443     24442     24445     24446
     24443     24442     24445     24447     24443     24442     24445     24448
     24444     24442     24445     24446     24444     24442     24445     24447
     24444     24442     24445     24448     24445     24448     24451     24452
     24445     24448     24451     24453     24446     24445     24448     24449
     24446     24445     24448     24450     24446     24445     24448     24451
     24447     24445     24448     24449     24447     24445     24448     24450
     24447     24445     24448     24451     24448     24451     24453     24454
     24448     24451     24453     24455     24449     24448     24451     24452
     24449     24448     24451     24453     24450     24448     24451     24452
     24450     24448     24451     24453     24451     24453     24455     24456
     24451     24453     24455     24457     24451     24453     24455     24458
     24452     24451     24453     24454     24452     24451     24453     24455
     24453     24455     24458     24459     24453     24455     24458     24460
     24453     24455     24458     24461     24454     24453     24455     24456
     24454     24453     24455     24457     24454     24453     24455     24458
     24455     24458     24461     24462     24455     24458     24461     24463
     24455     24458     24461     24464     24456     24455     24458     24459
     24456     24455     24458     24460     24456     24455     24458     24461
     24457     24455     24458     24459     24457     24455     24458     24460
     24457     24455     24458     24461     24458     24461     24464     24465
     24458     24461     24464     24466     24458     24461     24464     24467
     24459     24458     24461     24462     24459     24458     24461     24463
     24459     24458     24461     24464     24460     24458     24461     24462
     24460     24458     24461     24463     24460     24458     24461     24464
     24461     24464     24467     24468     24461     24464     24467     24469
     24461     24464     24467     24470     24462     24461     24464     24465
     24462     24461     24464     24466     24462     24461     24464     24467
     24463     24461     24464     24465     24463     24461     24464     24466
     24463     24461     24464     24467     24464     24467     24470     24471
     24464     24467     24470     24472     24464     24467     24470     24473
     24465     24464     24467     24468     24465     24464     24467     24469
     24465     24464     24467     24470     24466     24464     24467     24468
     24466     24464     24467     24469     24466     24464     24467     24470
     24467     24470     24473     24474     24467     24470     24473     24475
     24467     24470     24473     24476     24468     24467     24470     24471
     24468     24467     24470     24472     24468     24467     24470     24473
     24469     24467     24470     24471     24469     24467     24470     24472
     24469     24467     24470     24473     24470     24473     24476     24477
     24470     24473     24476     24478     24470     24473     24476     24479
     24471     24470     24473     24474     24471     24470     24473     24475
     24471     24470     24473     24476     24472     24470     24473     24474
     24472     24470     24473     24475     24472     24470     24473     24476
     24474     24473     24476     24477     24474     24473     24476     24478
     24474     24473     24476     24479     24475     24473     24476     24477
     24475     24473     24476     24478     24475     24473     24476     24479
     24480     24483     24486     24487     24480     24483     24486     24488
     24480     24483     24486     24489     24481     24480     24483     24484
     24481     24480     24483     24485     24481     24480     24483     24486
     24482     24480     24483     24484     24482     24480     24483     24485
     24482     24480     24483     24486     24483     24486     24489     24490
     24483     24486     24489     24491     24483     24486     24489     24492
     24484     24483     24486     24487     24484     24483     24486     24488
     24484     24483     24486     24489     24485     24483     24486     24487
     24485     24483     24486     24488     24485     24483     24486     24489
     24486     24489     24492     24493     24486     24489     24492     24494
     24486     24489     24492     24495     24487     24486     24489     24490
     24487     24486     24489     24491     24487     24486     24489     24492
     24488     24486     24489     24490     24488     24486     24489     24491
     24488     24486     24489     24492     24489     24492     24495     24496
     24489     24492     24495     24497     24489     24492     24495     24498
     24490     24489     24492     24493     24490     24489     24492     24494
     24490     24489     24492     24495     24491     24489     24492     24493
     24491     24489     24492     24494     24491     24489     24492     24495
     24492     24495     24498     24499     24492     24495     24498     24500
     24492     24495     24498     24501     24493     24492     24495     24496
     24493     24492     24495     24497     24493     24492     24495     24498
     24494     24492     24495     24496     24494     24492     24495     24497
     24494     24492     24495     24498     24495     24498     24501     24502
     24495     24498     24501     24503     24495     24498     24501     24504
     24496     24495     24498     24499     24496     24495     24498     24500
     24496     24495     24498     24501     24497     24495     24498     24499
     24497     24495     24498     24500     24497     24495     24498     24501
     24498     24501     24504     24505     24498     24501     24504     24506
     24498     24501     24504     24507     24499     24498     24501     24502
     24499     24498     24501     24503     24499     24498     24501     24504
     24500     24498     24501     24502     24500     24498     24501     24503
     24500     24498     24501     24504     24501     24504     24507     24508
     24501     24504     24507     24509     24501     24504     24507     24510
     24502     24501     24504     24505     24502     24501     24504     24506
     24502     24501     24504     24507     24503     24501     24504     24505
     24503     24501     24504     24506     24503     24501     24504     24507
     24504     24507     24510     24511     24504     24507     24510     24512
     24504     24507     24510     24513     24505     24504     24507     24508
     24505     24504     24507     24509     24505     24504     24507     24510
     24506     24504     24507     24508     24506     24504     24507     24509
     24506     24504     24507     24510     24507     24510     24513     24514
     24507     24510     24513     24515     24507     24510     24513     24516
     24508     24507     24510     24511     24508     24507     24510     24512
     24508     24507     24510     24513     24509     24507     24510     24511
     24509     24507     24510     24512     24509     24507     24510     24513
     24510     24513     24516     24517     24510     24513     24516     24518
     24510     24513     24516     24519     24511     24510     24513     24514
     24511     24510     24513     24515     24511     24510     24513     24516
     24512     24510     24513     24514     24512     24510     24513     24515
     24512     24510     24513     24516     24513     24516     24519     24520
     24513     24516     24519     24521     24513     24516     24519     24522
     24514     24513     24516     24517     24514     24513     24516     24518
     24514     24513     24516     24519     24515     24513     24516     24517
     24515     24513     24516     24518     24515     24513     24516     24519
     24517     24516     24519     24520     24517     24516     24519     24521
     24517     24516     24519     24522     24518     24516     24519     24520
     24518     24516     24519     24521     24518     24516     24519     24522
     24523     24524     24539     24540     24523     24524     24539     24541
     24523     24524     24539     24545     24524     24523     24527     24528
     24524     24523     24527     24529     24524     24523     24527     24530
     24524     24523     24531     24532     24524     24523     24531     24533
     24524     24523     24531     24534     24524     24523     24535     24536
     24524     24523     24535     24537     24524     24523     24535     24538
     24524     24539     24545     24542     24525     24524     24523     24527
     24525     24524     24523     24531     24525     24524     24523     24535
     24525     24524     24539     24540     24525     24524     24539     24541
     24525     24524     24539     24545     24526     24524     24523     24527
     24526     24524     24523     24531     24526     24524     24523     24535
     24526     24524     24539     24540     24526     24524     24539     24541
     24526     24524     24539     24545     24527     24523     24524     24539
     24527     24523     24531     24532     24527     24523     24531     24533
     24527     24523     24531     24534     24527     24523     24535     24536
     24527     24523     24535     24537     24527     24523     24535     24538
     24528     24527     24523     24531     24528     24527     24523     24535
     24529     24527     24523     24531     24529     24527     24523     24535
     24530     24527     24523     24531     24530     24527     24523     24535
     24531     24523     24524     24539     24531     24523     24535     24536
     24531     24523     24535     24537     24531     24523     24535     24538
     24532     24531     24523     24535     24533     24531     24523     24535
     24534     24531     24523     24535     24535     24523     24524     24539
     24539     24545     24542     24543     24539     24545     24542     24544
     24539     24545     24542     24546     24540     24539     24545     24542
     24541     24539     24545     24542     24542     24546     24547     24548
     24542     24546     24547     24549     24542     24546     24547     24550
     24543     24542     24546     24547     24544     24542     24546     24547
     24545     24542     24546     24547     24546     24547     24550     24551
     24546     24547     24550     24552     24546     24547     24550     24558
     24547     24550     24552     24553     24547     24550     24558     24559
     24547     24550     24558     24560     24547     24550     24558     24561
     24548     24547     24550     24551     24548     24547     24550     24552
     24548     24547     24550     24558     24549     24547     24550     24551
     24549     24547     24550     24552     24549     24547     24550     24558
     24550     24552     24553     24554     24550     24552     24553     24555
     24550     24558     24561     24562     24551     24550     24552     24553
     24551     24550     24558     24559     24551     24550     24558     24560
     24551     24550     24558     24561     24552     24550     24558     24559
     24552     24550     24558     24560     24552     24550     24558     24561
     24552     24553     24555     24556     24552     24553     24555     24557
     24552     24553     24555     24567     24553     24552     24550     24558
     24553     24555     24567     24568     24553     24555     24567     24569
     24553     24555     24567     24570     24554     24553     24555     24556
     24554     24553     24555     24557     24554     24553     24555     24567
     24555     24567     24570     24571     24555     24567     24570     24572
     24555     24567     24570     24573     24556     24555     24567     24568
     24556     24555     24567     24569     24556     24555     24567     24570
     24557     24555     24567     24568     24557     24555     24567     24569
     24557     24555     24567     24570     24558     24561     24562     24563
     24558     24561     24562     24564     24559     24558     24561     24562
     24560     24558     24561     24562     24561     24562     24564     24565
     24561     24562     24564     24566     24561     24562     24564     24614
     24562     24564     24614     24615     24562     24564     24614     24616
     24562     24564     24614     24617     24563     24562     24564     24565
     24563     24562     24564     24566     24563     24562     24564     24614
     24564     24614     24617     24618     24564     24614     24617     24619
     24564     24614     24617     24620     24565     24564     24614     24615
     24565     24564     24614     24616     24565     24564     24614     24617
     24566     24564     24614     24615     24566     24564     24614     24616
     24566     24564     24614     24617     24567     24570     24573     24574
     24567     24570     24573     24575     24567     24570     24573     24576
     24568     24567     24570     24571     24568     24567     24570     24572
     24568     24567     24570     24573     24569     24567     24570     24571
     24569     24567     24570     24572     24569     24567     24570     24573
     24570     24573     24576     24577     24570     24573     24576     24578
     24570     24573     24576     24579     24571     24570     24573     24574
     24571     24570     24573     24575     24571     24570     24573     24576
     24572     24570     24573     24574     24572     24570     24573     24575
     24572     24570     24573     24576     24573     24576     24579     24580
     24573     24576     24579     24581     24573     24576     24579     24582
     24574     24573     24576     24577     24574     24573     24576     24578
     24574     24573     24576     24579     24575     24573     24576     24577
     24575     24573     24576     24578     24575     24573     24576     24579
     24576     24579     24582     24583     24576     24579     24582     24584
     24576     24579     24582     24585     24577     24576     24579     24580
     24577     24576     24579     24581     24577     24576     24579     24582
     24578     24576     24579     24580     24578     24576     24579     24581
     24578     24576     24579     24582     24579     24582     24585     24586
     24579     24582     24585     24587     24580     24579     24582     24583
     24580     24579     24582     24584     24580     24579     24582     24585
     24581     24579     24582     24583     24581     24579     24582     24584
     24581     24579     24582     24585     24582     24585     24587     24588
     24582     24585     24587     24589     24583     24582     24585     24586
     24583     24582     24585     24587     24584     24582     24585     24586
     24584     24582     24585     24587     24585     24587     24589     24590
     24585     24587     24589     24591     24585     24587     24589     24592
     24586     24585     24587     24588     24586     24585     24587     24589
     24587     24589     24592     24593     24587     24589     24592     24594
     24587     24589     24592     24595     24588     24587     24589     24590
     24588     24587     24589     24591     24588     24587     24589     24592
     24589     24592     24595     24596     24589     24592     24595     24597
     24589     24592     24595     24598     24590     24589     24592     24593
     24590     24589     24592     24594     24590     24589     24592     24595
     24591     24589     24592     24593     24591     24589     24592     24594
     24591     24589     24592     24595     24592     24595     24598     24599
     24592     24595     24598     24600     24592     24595     24598     24601
     24593     24592     24595     24596     24593     24592     24595     24597
     24593     24592     24595     24598     24594     24592     24595     24596
     24594     24592     24595     24597     24594     24592     24595     24598
     24595     24598     24601     24602     24595     24598     24601     24603
     24595     24598     24601     24604     24596     24595     24598     24599
     24596     24595     24598     24600     24596     24595     24598     24601
     24597     24595     24598     24599     24597     24595     24598     24600
     24597     24595     24598     24601     24598     24601     24604     24605
     24598     24601     24604     24606     24598     24601     24604     24607
     24599     24598     24601     24602     24599     24598     24601     24603
     24599     24598     24601     24604     24600     24598     24601     24602
     24600     24598     24601     24603     24600     24598     24601     24604
     24601     24604     24607     24608     24601     24604     24607     24609
     24601     24604     24607     24610     24602     24601     24604     24605
     24602     24601     24604     24606     24602     24601     24604     24607
     24603     24601     24604     24605     24603     24601     24604     24606
     24603     24601     24604     24607     24604     24607     24610     24611
     24604     24607     24610     24612     24604     24607     24610     24613
     24605     24604     24607     24608     24605     24604     24607     24609
     24605     24604     24607     24610     24606     24604     24607     24608
     24606     24604     24607     24609     24606     24604     24607     24610
     24608     24607     24610     24611     24608     24607     24610     24612
     24608     24607     24610     24613     24609     24607     24610     24611
     24609     24607     24610     24612     24609     24607     24610     24613
     24614     24617     24620     24621     24614     24617     24620     24622
     24614     24617     24620     24623     24615     24614     24617     24618
     24615     24614     24617     24619     24615     24614     24617     24620
     24616     24614     24617     24618     24616     24614     24617     24619
     24616     24614     24617     24620     24617     24620     24623     24624
     24617     24620     24623     24625     24617     24620     24623     24626
     24618     24617     24620     24621     24618     24617     24620     24622
     24618     24617     24620     24623     24619     24617     24620     24621
     24619     24617     24620     24622     24619     24617     24620     24623
     24620     24623     24626     24627     24620     24623     24626     24628
     24620     24623     24626     24629     24621     24620     24623     24624
     24621     24620     24623     24625     24621     24620     24623     24626
     24622     24620     24623     24624     24622     24620     24623     24625
     24622     24620     24623     24626     24623     24626     24629     24630
     24623     24626     24629     24631     24623     24626     24629     24632
     24624     24623     24626     24627     24624     24623     24626     24628
     24624     24623     24626     24629     24625     24623     24626     24627
     24625     24623     24626     24628     24625     24623     24626     24629
     24626     24629     24632     24633     24626     24629     24632     24634
     24626     24629     24632     24635     24627     24626     24629     24630
     24627     24626     24629     24631     24627     24626     24629     24632
     24628     24626     24629     24630     24628     24626     24629     24631
     24628     24626     24629     24632     24629     24632     24635     24636
     24629     24632     24635     24637     24629     24632     24635     24638
     24630     24629     24632     24633     24630     24629     24632     24634
     24630     24629     24632     24635     24631     24629     24632     24633
     24631     24629     24632     24634     24631     24629     24632     24635
     24632     24635     24638     24639     24632     24635     24638     24640
     24632     24635     24638     24641     24633     24632     24635     24636
     24633     24632     24635     24637     24633     24632     24635     24638
     24634     24632     24635     24636     24634     24632     24635     24637
     24634     24632     24635     24638     24635     24638     24641     24642
     24635     24638     24641     24643     24635     24638     24641     24644
     24636     24635     24638     24639     24636     24635     24638     24640
     24636     24635     24638     24641     24637     24635     24638     24639
     24637     24635     24638     24640     24637     24635     24638     24641
     24638     24641     24644     24645     24638     24641     24644     24646
     24638     24641     24644     24647     24639     24638     24641     24642
     24639     24638     24641     24643     24639     24638     24641     24644
     24640     24638     24641     24642     24640     24638     24641     24643
     24640     24638     24641     24644     24641     24644     24647     24648
     24641     24644     24647     24649     24641     24644     24647     24650
     24642     24641     24644     24645     24642     24641     24644     24646
     24642     24641     24644     24647     24643     24641     24644     24645
     24643     24641     24644     24646     24643     24641     24644     24647
     24644     24647     24650     24651     24644     24647     24650     24652
     24644     24647     24650     24653     24645     24644     24647     24648
     24645     24644     24647     24649     24645     24644     24647     24650
     24646     24644     24647     24648     24646     24644     24647     24649
     24646     24644     24647     24650     24647     24650     24653     24654
     24647     24650     24653     24655     24647     24650     24653     24656
     24648     24647     24650     24651     24648     24647     24650     24652
     24648     24647     24650     24653     24649     24647     24650     24651
     24649     24647     24650     24652     24649     24647     24650     24653
     24651     24650     24653     24654     24651     24650     24653     24655
     24651     24650     24653     24656     24652     24650     24653     24654
     24652     24650     24653     24655     24652     24650     24653     24656
     24657     24658     24673     24674     24657     24658     24673     24675
     24657     24658     24673     24679     24658     24657     24661     24662
     24658     24657     24661     24663     24658     24657     24661     24664
     24658     24657     24665     24666     24658     24657     24665     24667
     24658     24657     24665     24668     24658     24657     24669     24670
     24658     24657     24669     24671     24658     24657     24669     24672
     24658     24673     24679     24676     24659     24658     24657     24661
     24659     24658     24657     24665     24659     24658     24657     24669
     24659     24658     24673     24674     24659     24658     24673     24675
     24659     24658     24673     24679     24660     24658     24657     24661
     24660     24658     24657     24665     24660     24658     24657     24669
     24660     24658     24673     24674     24660     24658     24673     24675
     24660     24658     24673     24679     24661     24657     24658     24673
     24661     24657     24665     24666     24661     24657     24665     24667
     24661     24657     24665     24668     24661     24657     24669     24670
     24661     24657     24669     24671     24661     24657     24669     24672
     24662     24661     24657     24665     24662     24661     24657     24669
     24663     24661     24657     24665     24663     24661     24657     24669
     24664     24661     24657     24665     24664     24661     24657     24669
     24665     24657     24658     24673     24665     24657     24669     24670
     24665     24657     24669     24671     24665     24657     24669     24672
     24666     24665     24657     24669     24667     24665     24657     24669
     24668     24665     24657     24669     24669     24657     24658     24673
     24673     24679     24676     24677     24673     24679     24676     24678
     24673     24679     24676     24680     24674     24673     24679     24676
     24675     24673     24679     24676     24676     24680     24681     24682
     24676     24680     24681     24683     24676     24680     24681     24684
     24677     24676     24680     24681     24678     24676     24680     24681
     24679     24676     24680     24681     24680     24681     24684     24685
     24680     24681     24684     24686     24680     24681     24684     24692
     24681     24684     24686     24687     24681     24684     24692     24693
     24681     24684     24692     24694     24681     24684     24692     24695
     24682     24681     24684     24685     24682     24681     24684     24686
     24682     24681     24684     24692     24683     24681     24684     24685
     24683     24681     24684     24686     24683     24681     24684     24692
     24684     24686     24687     24688     24684     24686     24687     24689
     24684     24692     24695     24696     24685     24684     24686     24687
     24685     24684     24692     24693     24685     24684     24692     24694
     24685     24684     24692     24695     24686     24684     24692     24693
     24686     24684     24692     24694     24686     24684     24692     24695
     24686     24687     24689     24690     24686     24687     24689     24691
     24686     24687     24689     24701     24687     24686     24684     24692
     24687     24689     24701     24702     24687     24689     24701     24703
     24687     24689     24701     24704     24688     24687     24689     24690
     24688     24687     24689     24691     24688     24687     24689     24701
     24689     24701     24704     24705     24689     24701     24704     24706
     24689     24701     24704     24707     24690     24689     24701     24702
     24690     24689     24701     24703     24690     24689     24701     24704
     24691     24689     24701     24702     24691     24689     24701     24703
     24691     24689     24701     24704     24692     24695     24696     24697
     24692     24695     24696     24698     24693     24692     24695     24696
     24694     24692     24695     24696     24695     24696     24698     24699
     24695     24696     24698     24700     24695     24696     24698     24748
     24696     24698     24748     24749     24696     24698     24748     24750
     24696     24698     24748     24751     24697     24696     24698     24699
     24697     24696     24698     24700     24697     24696     24698     24748
     24698     24748     24751     24752     24698     24748     24751     24753
     24698     24748     24751     24754     24699     24698     24748     24749
     24699     24698     24748     24750     24699     24698     24748     24751
     24700     24698     24748     24749     24700     24698     24748     24750
     24700     24698     24748     24751     24701     24704     24707     24708
     24701     24704     24707     24709     24701     24704     24707     24710
     24702     24701     24704     24705     24702     24701     24704     24706
     24702     24701     24704     24707     24703     24701     24704     24705
     24703     24701     24704     24706     24703     24701     24704     24707
     24704     24707     24710     24711     24704     24707     24710     24712
     24704     24707     24710     24713     24705     24704     24707     24708
     24705     24704     24707     24709     24705     24704     24707     24710
     24706     24704     24707     24708     24706     24704     24707     24709
     24706     24704     24707     24710     24707     24710     24713     24714
     24707     24710     24713     24715     24707     24710     24713     24716
     24708     24707     24710     24711     24708     24707     24710     24712
     24708     24707     24710     24713     24709     24707     24710     24711
     24709     24707     24710     24712     24709     24707     24710     24713
     24710     24713     24716     24717     24710     24713     24716     24718
     24710     24713     24716     24719     24711     24710     24713     24714
     24711     24710     24713     24715     24711     24710     24713     24716
     24712     24710     24713     24714     24712     24710     24713     24715
     24712     24710     24713     24716     24713     24716     24719     24720
     24713     24716     24719     24721     24714     24713     24716     24717
     24714     24713     24716     24718     24714     24713     24716     24719
     24715     24713     24716     24717     24715     24713     24716     24718
     24715     24713     24716     24719     24716     24719     24721     24722
     24716     24719     24721     24723     24717     24716     24719     24720
     24717     24716     24719     24721     24718     24716     24719     24720
     24718     24716     24719     24721     24719     24721     24723     24724
     24719     24721     24723     24725     24719     24721     24723     24726
     24720     24719     24721     24722     24720     24719     24721     24723
     24721     24723     24726     24727     24721     24723     24726     24728
     24721     24723     24726     24729     24722     24721     24723     24724
     24722     24721     24723     24725     24722     24721     24723     24726
     24723     24726     24729     24730     24723     24726     24729     24731
     24723     24726     24729     24732     24724     24723     24726     24727
     24724     24723     24726     24728     24724     24723     24726     24729
     24725     24723     24726     24727     24725     24723     24726     24728
     24725     24723     24726     24729     24726     24729     24732     24733
     24726     24729     24732     24734     24726     24729     24732     24735
     24727     24726     24729     24730     24727     24726     24729     24731
     24727     24726     24729     24732     24728     24726     24729     24730
     24728     24726     24729     24731     24728     24726     24729     24732
     24729     24732     24735     24736     24729     24732     24735     24737
     24729     24732     24735     24738     24730     24729     24732     24733
     24730     24729     24732     24734     24730     24729     24732     24735
     24731     24729     24732     24733     24731     24729     24732     24734
     24731     24729     24732     24735     24732     24735     24738     24739
     24732     24735     24738     24740     24732     24735     24738     24741
     24733     24732     24735     24736     24733     24732     24735     24737
     24733     24732     24735     24738     24734     24732     24735     24736
     24734     24732     24735     24737     24734     24732     24735     24738
     24735     24738     24741     24742     24735     24738     24741     24743
     24735     24738     24741     24744     24736     24735     24738     24739
     24736     24735     24738     24740     24736     24735     24738     24741
     24737     24735     24738     24739     24737     24735     24738     24740
     24737     24735     24738     24741     24738     24741     24744     24745
     24738     24741     24744     24746     24738     24741     24744     24747
     24739     24738     24741     24742     24739     24738     24741     24743
     24739     24738     24741     24744     24740     24738     24741     24742
     24740     24738     24741     24743     24740     24738     24741     24744
     24742     24741     24744     24745     24742     24741     24744     24746
     24742     24741     24744     24747     24743     24741     24744     24745
     24743     24741     24744     24746     24743     24741     24744     24747
     24748     24751     24754     24755     24748     24751     24754     24756
     24748     24751     24754     24757     24749     24748     24751     24752
     24749     24748     24751     24753     24749     24748     24751     24754
     24750     24748     24751     24752     24750     24748     24751     24753
     24750     24748     24751     24754     24751     24754     24757     24758
     24751     24754     24757     24759     24751     24754     24757     24760
     24752     24751     24754     24755     24752     24751     24754     24756
     24752     24751     24754     24757     24753     24751     24754     24755
     24753     24751     24754     24756     24753     24751     24754     24757
     24754     24757     24760     24761     24754     24757     24760     24762
     24754     24757     24760     24763     24755     24754     24757     24758
     24755     24754     24757     24759     24755     24754     24757     24760
     24756     24754     24757     24758     24756     24754     24757     24759
     24756     24754     24757     24760     24757     24760     24763     24764
     24757     24760     24763     24765     24757     24760     24763     24766
     24758     24757     24760     24761     24758     24757     24760     24762
     24758     24757     24760     24763     24759     24757     24760     24761
     24759     24757     24760     24762     24759     24757     24760     24763
     24760     24763     24766     24767     24760     24763     24766     24768
     24760     24763     24766     24769     24761     24760     24763     24764
     24761     24760     24763     24765     24761     24760     24763     24766
     24762     24760     24763     24764     24762     24760     24763     24765
     24762     24760     24763     24766     24763     24766     24769     24770
     24763     24766     24769     24771     24763     24766     24769     24772
     24764     24763     24766     24767     24764     24763     24766     24768
     24764     24763     24766     24769     24765     24763     24766     24767
     24765     24763     24766     24768     24765     24763     24766     24769
     24766     24769     24772     24773     24766     24769     24772     24774
     24766     24769     24772     24775     24767     24766     24769     24770
     24767     24766     24769     24771     24767     24766     24769     24772
     24768     24766     24769     24770     24768     24766     24769     24771
     24768     24766     24769     24772     24769     24772     24775     24776
     24769     24772     24775     24777     24769     24772     24775     24778
     24770     24769     24772     24773     24770     24769     24772     24774
     24770     24769     24772     24775     24771     24769     24772     24773
     24771     24769     24772     24774     24771     24769     24772     24775
     24772     24775     24778     24779     24772     24775     24778     24780
     24772     24775     24778     24781     24773     24772     24775     24776
     24773     24772     24775     24777     24773     24772     24775     24778
     24774     24772     24775     24776     24774     24772     24775     24777
     24774     24772     24775     24778     24775     24778     24781     24782
     24775     24778     24781     24783     24775     24778     24781     24784
     24776     24775     24778     24779     24776     24775     24778     24780
     24776     24775     24778     24781     24777     24775     24778     24779
     24777     24775     24778     24780     24777     24775     24778     24781
     24778     24781     24784     24785     24778     24781     24784     24786
     24778     24781     24784     24787     24779     24778     24781     24782
     24779     24778     24781     24783     24779     24778     24781     24784
     24780     24778     24781     24782     24780     24778     24781     24783
     24780     24778     24781     24784     24781     24784     24787     24788
     24781     24784     24787     24789     24781     24784     24787     24790
     24782     24781     24784     24785     24782     24781     24784     24786
     24782     24781     24784     24787     24783     24781     24784     24785
     24783     24781     24784     24786     24783     24781     24784     24787
     24785     24784     24787     24788     24785     24784     24787     24789
     24785     24784     24787     24790     24786     24784     24787     24788
     24786     24784     24787     24789     24786     24784     24787     24790
     24791     24792     24807     24808     24791     24792     24807     24809
     24791     24792     24807     24813     24792     24791     24795     24796
     24792     24791     24795     24797     24792     24791     24795     24798
     24792     24791     24799     24800     24792     24791     24799     24801
     24792     24791     24799     24802     24792     24791     24803     24804
     24792     24791     24803     24805     24792     24791     24803     24806
     24792     24807     24813     24810     24793     24792     24791     24795
     24793     24792     24791     24799     24793     24792     24791     24803
     24793     24792     24807     24808     24793     24792     24807     24809
     24793     24792     24807     24813     24794     24792     24791     24795
     24794     24792     24791     24799     24794     24792     24791     24803
     24794     24792     24807     24808     24794     24792     24807     24809
     24794     24792     24807     24813     24795     24791     24792     24807
     24795     24791     24799     24800     24795     24791     24799     24801
     24795     24791     24799     24802     24795     24791     24803     24804
     24795     24791     24803     24805     24795     24791     24803     24806
     24796     24795     24791     24799     24796     24795     24791     24803
     24797     24795     24791     24799     24797     24795     24791     24803
     24798     24795     24791     24799     24798     24795     24791     24803
     24799     24791     24792     24807     24799     24791     24803     24804
     24799     24791     24803     24805     24799     24791     24803     24806
     24800     24799     24791     24803     24801     24799     24791     24803
     24802     24799     24791     24803     24803     24791     24792     24807
     24807     24813     24810     24811     24807     24813     24810     24812
     24807     24813     24810     24814     24808     24807     24813     24810
     24809     24807     24813     24810     24810     24814     24815     24816
     24810     24814     24815     24817     24810     24814     24815     24818
     24811     24810     24814     24815     24812     24810     24814     24815
     24813     24810     24814     24815     24814     24815     24818     24819
     24814     24815     24818     24820     24814     24815     24818     24826
     24815     24818     24820     24821     24815     24818     24826     24827
     24815     24818     24826     24828     24815     24818     24826     24829
     24816     24815     24818     24819     24816     24815     24818     24820
     24816     24815     24818     24826     24817     24815     24818     24819
     24817     24815     24818     24820     24817     24815     24818     24826
     24818     24820     24821     24822     24818     24820     24821     24823
     24818     24826     24829     24830     24819     24818     24820     24821
     24819     24818     24826     24827     24819     24818     24826     24828
     24819     24818     24826     24829     24820     24818     24826     24827
     24820     24818     24826     24828     24820     24818     24826     24829
     24820     24821     24823     24824     24820     24821     24823     24825
     24820     24821     24823     24835     24821     24820     24818     24826
     24821     24823     24835     24836     24821     24823     24835     24837
     24821     24823     24835     24838     24822     24821     24823     24824
     24822     24821     24823     24825     24822     24821     24823     24835
     24823     24835     24838     24839     24823     24835     24838     24840
     24823     24835     24838     24841     24824     24823     24835     24836
     24824     24823     24835     24837     24824     24823     24835     24838
     24825     24823     24835     24836     24825     24823     24835     24837
     24825     24823     24835     24838     24826     24829     24830     24831
     24826     24829     24830     24832     24827     24826     24829     24830
     24828     24826     24829     24830     24829     24830     24832     24833
     24829     24830     24832     24834     24829     24830     24832     24882
     24830     24832     24882     24883     24830     24832     24882     24884
     24830     24832     24882     24885     24831     24830     24832     24833
     24831     24830     24832     24834     24831     24830     24832     24882
     24832     24882     24885     24886     24832     24882     24885     24887
     24832     24882     24885     24888     24833     24832     24882     24883
     24833     24832     24882     24884     24833     24832     24882     24885
     24834     24832     24882     24883     24834     24832     24882     24884
     24834     24832     24882     24885     24835     24838     24841     24842
     24835     24838     24841     24843     24835     24838     24841     24844
     24836     24835     24838     24839     24836     24835     24838     24840
     24836     24835     24838     24841     24837     24835     24838     24839
     24837     24835     24838     24840     24837     24835     24838     24841
     24838     24841     24844     24845     24838     24841     24844     24846
     24838     24841     24844     24847     24839     24838     24841     24842
     24839     24838     24841     24843     24839     24838     24841     24844
     24840     24838     24841     24842     24840     24838     24841     24843
     24840     24838     24841     24844     24841     24844     24847     24848
     24841     24844     24847     24849     24841     24844     24847     24850
     24842     24841     24844     24845     24842     24841     24844     24846
     24842     24841     24844     24847     24843     24841     24844     24845
     24843     24841     24844     24846     24843     24841     24844     24847
     24844     24847     24850     24851     24844     24847     24850     24852
     24844     24847     24850     24853     24845     24844     24847     24848
     24845     24844     24847     24849     24845     24844     24847     24850
     24846     24844     24847     24848     24846     24844     24847     24849
     24846     24844     24847     24850     24847     24850     24853     24854
     24847     24850     24853     24855     24848     24847     24850     24851
     24848     24847     24850     24852     24848     24847     24850     24853
     24849     24847     24850     24851     24849     24847     24850     24852
     24849     24847     24850     24853     24850     24853     24855     24856
     24850     24853     24855     24857     24851     24850     24853     24854
     24851     24850     24853     24855     24852     24850     24853     24854
     24852     24850     24853     24855     24853     24855     24857     24858
     24853     24855     24857     24859     24853     24855     24857     24860
     24854     24853     24855     24856     24854     24853     24855     24857
     24855     24857     24860     24861     24855     24857     24860     24862
     24855     24857     24860     24863     24856     24855     24857     24858
     24856     24855     24857     24859     24856     24855     24857     24860
     24857     24860     24863     24864     24857     24860     24863     24865
     24857     24860     24863     24866     24858     24857     24860     24861
     24858     24857     24860     24862     24858     24857     24860     24863
     24859     24857     24860     24861     24859     24857     24860     24862
     24859     24857     24860     24863     24860     24863     24866     24867
     24860     24863     24866     24868     24860     24863     24866     24869
     24861     24860     24863     24864     24861     24860     24863     24865
     24861     24860     24863     24866     24862     24860     24863     24864
     24862     24860     24863     24865     24862     24860     24863     24866
     24863     24866     24869     24870     24863     24866     24869     24871
     24863     24866     24869     24872     24864     24863     24866     24867
     24864     24863     24866     24868     24864     24863     24866     24869
     24865     24863     24866     24867     24865     24863     24866     24868
     24865     24863     24866     24869     24866     24869     24872     24873
     24866     24869     24872     24874     24866     24869     24872     24875
     24867     24866     24869     24870     24867     24866     24869     24871
     24867     24866     24869     24872     24868     24866     24869     24870
     24868     24866     24869     24871     24868     24866     24869     24872
     24869     24872     24875     24876     24869     24872     24875     24877
     24869     24872     24875     24878     24870     24869     24872     24873
     24870     24869     24872     24874     24870     24869     24872     24875
     24871     24869     24872     24873     24871     24869     24872     24874
     24871     24869     24872     24875     24872     24875     24878     24879
     24872     24875     24878     24880     24872     24875     24878     24881
     24873     24872     24875     24876     24873     24872     24875     24877
     24873     24872     24875     24878     24874     24872     24875     24876
     24874     24872     24875     24877     24874     24872     24875     24878
     24876     24875     24878     24879     24876     24875     24878     24880
     24876     24875     24878     24881     24877     24875     24878     24879
     24877     24875     24878     24880     24877     24875     24878     24881
     24882     24885     24888     24889     24882     24885     24888     24890
     24882     24885     24888     24891     24883     24882     24885     24886
     24883     24882     24885     24887     24883     24882     24885     24888
     24884     24882     24885     24886     24884     24882     24885     24887
     24884     24882     24885     24888     24885     24888     24891     24892
     24885     24888     24891     24893     24885     24888     24891     24894
     24886     24885     24888     24889     24886     24885     24888     24890
     24886     24885     24888     24891     24887     24885     24888     24889
     24887     24885     24888     24890     24887     24885     24888     24891
     24888     24891     24894     24895     24888     24891     24894     24896
     24888     24891     24894     24897     24889     24888     24891     24892
     24889     24888     24891     24893     24889     24888     24891     24894
     24890     24888     24891     24892     24890     24888     24891     24893
     24890     24888     24891     24894     24891     24894     24897     24898
     24891     24894     24897     24899     24891     24894     24897     24900
     24892     24891     24894     24895     24892     24891     24894     24896
     24892     24891     24894     24897     24893     24891     24894     24895
     24893     24891     24894     24896     24893     24891     24894     24897
     24894     24897     24900     24901     24894     24897     24900     24902
     24894     24897     24900     24903     24895     24894     24897     24898
     24895     24894     24897     24899     24895     24894     24897     24900
     24896     24894     24897     24898     24896     24894     24897     24899
     24896     24894     24897     24900     24897     24900     24903     24904
     24897     24900     24903     24905     24897     24900     24903     24906
     24898     24897     24900     24901     24898     24897     24900     24902
     24898     24897     24900     24903     24899     24897     24900     24901
     24899     24897     24900     24902     24899     24897     24900     24903
     24900     24903     24906     24907     24900     24903     24906     24908
     24900     24903     24906     24909     24901     24900     24903     24904
     24901     24900     24903     24905     24901     24900     24903     24906
     24902     24900     24903     24904     24902     24900     24903     24905
     24902     24900     24903     24906     24903     24906     24909     24910
     24903     24906     24909     24911     24903     24906     24909     24912
     24904     24903     24906     24907     24904     24903     24906     24908
     24904     24903     24906     24909     24905     24903     24906     24907
     24905     24903     24906     24908     24905     24903     24906     24909
     24906     24909     24912     24913     24906     24909     24912     24914
     24906     24909     24912     24915     24907     24906     24909     24910
     24907     24906     24909     24911     24907     24906     24909     24912
     24908     24906     24909     24910     24908     24906     24909     24911
     24908     24906     24909     24912     24909     24912     24915     24916
     24909     24912     24915     24917     24909     24912     24915     24918
     24910     24909     24912     24913     24910     24909     24912     24914
     24910     24909     24912     24915     24911     24909     24912     24913
     24911     24909     24912     24914     24911     24909     24912     24915
     24912     24915     24918     24919     24912     24915     24918     24920
     24912     24915     24918     24921     24913     24912     24915     24916
     24913     24912     24915     24917     24913     24912     24915     24918
     24914     24912     24915     24916     24914     24912     24915     24917
     24914     24912     24915     24918     24915     24918     24921     24922
     24915     24918     24921     24923     24915     24918     24921     24924
     24916     24915     24918     24919     24916     24915     24918     24920
     24916     24915     24918     24921     24917     24915     24918     24919
     24917     24915     24918     24920     24917     24915     24918     24921
     24919     24918     24921     24922     24919     24918     24921     24923
     24919     24918     24921     24924     24920     24918     24921     24922
     24920     24918     24921     24923     24920     24918     24921     24924
     24925     24926     24941     24942     24925     24926     24941     24943
     24925     24926     24941     24947     24926     24925     24929     24930
     24926     24925     24929     24931     24926     24925     24929     24932
     24926     24925     24933     24934     24926     24925     24933     24935
     24926     24925     24933     24936     24926     24925     24937     24938
     24926     24925     24937     24939     24926     24925     24937     24940
     24926     24941     24947     24944     24927     24926     24925     24929
     24927     24926     24925     24933     24927     24926     24925     24937
     24927     24926     24941     24942     24927     24926     24941     24943
     24927     24926     24941     24947     24928     24926     24925     24929
     24928     24926     24925     24933     24928     24926     24925     24937
     24928     24926     24941     24942     24928     24926     24941     24943
     24928     24926     24941     24947     24929     24925     24926     24941
     24929     24925     24933     24934     24929     24925     24933     24935
     24929     24925     24933     24936     24929     24925     24937     24938
     24929     24925     24937     24939     24929     24925     24937     24940
     24930     24929     24925     24933     24930     24929     24925     24937
     24931     24929     24925     24933     24931     24929     24925     24937
     24932     24929     24925     24933     24932     24929     24925     24937
     24933     24925     24926     24941     24933     24925     24937     24938
     24933     24925     24937     24939     24933     24925     24937     24940
     24934     24933     24925     24937     24935     24933     24925     24937
     24936     24933     24925     24937     24937     24925     24926     24941
     24941     24947     24944     24945     24941     24947     24944     24946
     24941     24947     24944     24948     24942     24941     24947     24944
     24943     24941     24947     24944     24944     24948     24949     24950
     24944     24948     24949     24951     24944     24948     24949     24952
     24945     24944     24948     24949     24946     24944     24948     24949
     24947     24944     24948     24949     24948     24949     24952     24953
     24948     24949     24952     24954     24948     24949     24952     24960
     24949     24952     24954     24955     24949     24952     24960     24961
     24949     24952     24960     24962     24949     24952     24960     24963
     24950     24949     24952     24953     24950     24949     24952     24954
     24950     24949     24952     24960     24951     24949     24952     24953
     24951     24949     24952     24954     24951     24949     24952     24960
     24952     24954     24955     24956     24952     24954     24955     24957
     24952     24960     24963     24964     24953     24952     24954     24955
     24953     24952     24960     24961     24953     24952     24960     24962
     24953     24952     24960     24963     24954     24952     24960     24961
     24954     24952     24960     24962     24954     24952     24960     24963
     24954     24955     24957     24958     24954     24955     24957     24959
     24954     24955     24957     24969     24955     24954     24952     24960
     24955     24957     24969     24970     24955     24957     24969     24971
     24955     24957     24969     24972     24956     24955     24957     24958
     24956     24955     24957     24959     24956     24955     24957     24969
     24957     24969     24972     24973     24957     24969     24972     24974
     24957     24969     24972     24975     24958     24957     24969     24970
     24958     24957     24969     24971     24958     24957     24969     24972
     24959     24957     24969     24970     24959     24957     24969     24971
     24959     24957     24969     24972     24960     24963     24964     24965
     24960     24963     24964     24966     24961     24960     24963     24964
     24962     24960     24963     24964     24963     24964     24966     24967
     24963     24964     24966     24968     24963     24964     24966     25016
     24964     24966     25016     25017     24964     24966     25016     25018
     24964     24966     25016     25019     24965     24964     24966     24967
     24965     24964     24966     24968     24965     24964     24966     25016
     24966     25016     25019     25020     24966     25016     25019     25021
     24966     25016     25019     25022     24967     24966     25016     25017
     24967     24966     25016     25018     24967     24966     25016     25019
     24968     24966     25016     25017     24968     24966     25016     25018
     24968     24966     25016     25019     24969     24972     24975     24976
     24969     24972     24975     24977     24969     24972     24975     24978
     24970     24969     24972     24973     24970     24969     24972     24974
     24970     24969     24972     24975     24971     24969     24972     24973
     24971     24969     24972     24974     24971     24969     24972     24975
     24972     24975     24978     24979     24972     24975     24978     24980
     24972     24975     24978     24981     24973     24972     24975     24976
     24973     24972     24975     24977     24973     24972     24975     24978
     24974     24972     24975     24976     24974     24972     24975     24977
     24974     24972     24975     24978     24975     24978     24981     24982
     24975     24978     24981     24983     24975     24978     24981     24984
     24976     24975     24978     24979     24976     24975     24978     24980
     24976     24975     24978     24981     24977     24975     24978     24979
     24977     24975     24978     24980     24977     24975     24978     24981
     24978     24981     24984     24985     24978     24981     24984     24986
     24978     24981     24984     24987     24979     24978     24981     24982
     24979     24978     24981     24983     24979     24978     24981     24984
     24980     24978     24981     24982     24980     24978     24981     24983
     24980     24978     24981     24984     24981     24984     24987     24988
     24981     24984     24987     24989     24982     24981     24984     24985
     24982     24981     24984     24986     24982     24981     24984     24987
     24983     24981     24984     24985     24983     24981     24984     24986
     24983     24981     24984     24987     24984     24987     24989     24990
     24984     24987     24989     24991     24985     24984     24987     24988
     24985     24984     24987     24989     24986     24984     24987     24988
     24986     24984     24987     24989     24987     24989     24991     24992
     24987     24989     24991     24993     24987     24989     24991     24994
     24988     24987     24989     24990     24988     24987     24989     24991
     24989     24991     24994     24995     24989     24991     24994     24996
     24989     24991     24994     24997     24990     24989     24991     24992
     24990     24989     24991     24993     24990     24989     24991     24994
     24991     24994     24997     24998     24991     24994     24997     24999
     24991     24994     24997     25000     24992     24991     24994     24995
     24992     24991     24994     24996     24992     24991     24994     24997
     24993     24991     24994     24995     24993     24991     24994     24996
     24993     24991     24994     24997     24994     24997     25000     25001
     24994     24997     25000     25002     24994     24997     25000     25003
     24995     24994     24997     24998     24995     24994     24997     24999
     24995     24994     24997     25000     24996     24994     24997     24998
     24996     24994     24997     24999     24996     24994     24997     25000
     24997     25000     25003     25004     24997     25000     25003     25005
     24997     25000     25003     25006     24998     24997     25000     25001
     24998     24997     25000     25002     24998     24997     25000     25003
     24999     24997     25000     25001     24999     24997     25000     25002
     24999     24997     25000     25003     25000     25003     25006     25007
     25000     25003     25006     25008     25000     25003     25006     25009
     25001     25000     25003     25004     25001     25000     25003     25005
     25001     25000     25003     25006     25002     25000     25003     25004
     25002     25000     25003     25005     25002     25000     25003     25006
     25003     25006     25009     25010     25003     25006     25009     25011
     25003     25006     25009     25012     25004     25003     25006     25007
     25004     25003     25006     25008     25004     25003     25006     25009
     25005     25003     25006     25007     25005     25003     25006     25008
     25005     25003     25006     25009     25006     25009     25012     25013
     25006     25009     25012     25014     25006     25009     25012     25015
     25007     25006     25009     25010     25007     25006     25009     25011
     25007     25006     25009     25012     25008     25006     25009     25010
     25008     25006     25009     25011     25008     25006     25009     25012
     25010     25009     25012     25013     25010     25009     25012     25014
     25010     25009     25012     25015     25011     25009     25012     25013
     25011     25009     25012     25014     25011     25009     25012     25015
     25016     25019     25022     25023     25016     25019     25022     25024
     25016     25019     25022     25025     25017     25016     25019     25020
     25017     25016     25019     25021     25017     25016     25019     25022
     25018     25016     25019     25020     25018     25016     25019     25021
     25018     25016     25019     25022     25019     25022     25025     25026
     25019     25022     25025     25027     25019     25022     25025     25028
     25020     25019     25022     25023     25020     25019     25022     25024
     25020     25019     25022     25025     25021     25019     25022     25023
     25021     25019     25022     25024     25021     25019     25022     25025
     25022     25025     25028     25029     25022     25025     25028     25030
     25022     25025     25028     25031     25023     25022     25025     25026
     25023     25022     25025     25027     25023     25022     25025     25028
     25024     25022     25025     25026     25024     25022     25025     25027
     25024     25022     25025     25028     25025     25028     25031     25032
     25025     25028     25031     25033     25025     25028     25031     25034
     25026     25025     25028     25029     25026     25025     25028     25030
     25026     25025     25028     25031     25027     25025     25028     25029
     25027     25025     25028     25030     25027     25025     25028     25031
     25028     25031     25034     25035     25028     25031     25034     25036
     25028     25031     25034     25037     25029     25028     25031     25032
     25029     25028     25031     25033     25029     25028     25031     25034
     25030     25028     25031     25032     25030     25028     25031     25033
     25030     25028     25031     25034     25031     25034     25037     25038
     25031     25034     25037     25039     25031     25034     25037     25040
     25032     25031     25034     25035     25032     25031     25034     25036
     25032     25031     25034     25037     25033     25031     25034     25035
     25033     25031     25034     25036     25033     25031     25034     25037
     25034     25037     25040     25041     25034     25037     25040     25042
     25034     25037     25040     25043     25035     25034     25037     25038
     25035     25034     25037     25039     25035     25034     25037     25040
     25036     25034     25037     25038     25036     25034     25037     25039
     25036     25034     25037     25040     25037     25040     25043     25044
     25037     25040     25043     25045     25037     25040     25043     25046
     25038     25037     25040     25041     25038     25037     25040     25042
     25038     25037     25040     25043     25039     25037     25040     25041
     25039     25037     25040     25042     25039     25037     25040     25043
     25040     25043     25046     25047     25040     25043     25046     25048
     25040     25043     25046     25049     25041     25040     25043     25044
     25041     25040     25043     25045     25041     25040     25043     25046
     25042     25040     25043     25044     25042     25040     25043     25045
     25042     25040     25043     25046     25043     25046     25049     25050
     25043     25046     25049     25051     25043     25046     25049     25052
     25044     25043     25046     25047     25044     25043     25046     25048
     25044     25043     25046     25049     25045     25043     25046     25047
     25045     25043     25046     25048     25045     25043     25046     25049
     25046     25049     25052     25053     25046     25049     25052     25054
     25046     25049     25052     25055     25047     25046     25049     25050
     25047     25046     25049     25051     25047     25046     25049     25052
     25048     25046     25049     25050     25048     25046     25049     25051
     25048     25046     25049     25052     25049     25052     25055     25056
     25049     25052     25055     25057     25049     25052     25055     25058
     25050     25049     25052     25053     25050     25049     25052     25054
     25050     25049     25052     25055     25051     25049     25052     25053
     25051     25049     25052     25054     25051     25049     25052     25055
     25053     25052     25055     25056     25053     25052     25055     25057
     25053     25052     25055     25058     25054     25052     25055     25056
     25054     25052     25055     25057     25054     25052     25055     25058
     25059     25060     25075     25076     25059     25060     25075     25077
     25059     25060     25075     25081     25060     25059     25063     25064
     25060     25059     25063     25065     25060     25059     25063     25066
     25060     25059     25067     25068     25060     25059     25067     25069
     25060     25059     25067     25070     25060     25059     25071     25072
     25060     25059     25071     25073     25060     25059     25071     25074
     25060     25075     25081     25078     25061     25060     25059     25063
     25061     25060     25059     25067     25061     25060     25059     25071
     25061     25060     25075     25076     25061     25060     25075     25077
     25061     25060     25075     25081     25062     25060     25059     25063
     25062     25060     25059     25067     25062     25060     25059     25071
     25062     25060     25075     25076     25062     25060     25075     25077
     25062     25060     25075     25081     25063     25059     25060     25075
     25063     25059     25067     25068     25063     25059     25067     25069
     25063     25059     25067     25070     25063     25059     25071     25072
     25063     25059     25071     25073     25063     25059     25071     25074
     25064     25063     25059     25067     25064     25063     25059     25071
     25065     25063     25059     25067     25065     25063     25059     25071
     25066     25063     25059     25067     25066     25063     25059     25071
     25067     25059     25060     25075     25067     25059     25071     25072
     25067     25059     25071     25073     25067     25059     25071     25074
     25068     25067     25059     25071     25069     25067     25059     25071
     25070     25067     25059     25071     25071     25059     25060     25075
     25075     25081     25078     25079     25075     25081     25078     25080
     25075     25081     25078     25082     25076     25075     25081     25078
     25077     25075     25081     25078     25078     25082     25083     25084
     25078     25082     25083     25085     25078     25082     25083     25086
     25079     25078     25082     25083     25080     25078     25082     25083
     25081     25078     25082     25083     25082     25083     25086     25087
     25082     25083     25086     25088     25082     25083     25086     25094
     25083     25086     25088     25089     25083     25086     25094     25095
     25083     25086     25094     25096     25083     25086     25094     25097
     25084     25083     25086     25087     25084     25083     25086     25088
     25084     25083     25086     25094     25085     25083     25086     25087
     25085     25083     25086     25088     25085     25083     25086     25094
     25086     25088     25089     25090     25086     25088     25089     25091
     25086     25094     25097     25098     25087     25086     25088     25089
     25087     25086     25094     25095     25087     25086     25094     25096
     25087     25086     25094     25097     25088     25086     25094     25095
     25088     25086     25094     25096     25088     25086     25094     25097
     25088     25089     25091     25092     25088     25089     25091     25093
     25088     25089     25091     25103     25089     25088     25086     25094
     25089     25091     25103     25104     25089     25091     25103     25105
     25089     25091     25103     25106     25090     25089     25091     25092
     25090     25089     25091     25093     25090     25089     25091     25103
     25091     25103     25106     25107     25091     25103     25106     25108
     25091     25103     25106     25109     25092     25091     25103     25104
     25092     25091     25103     25105     25092     25091     25103     25106
     25093     25091     25103     25104     25093     25091     25103     25105
     25093     25091     25103     25106     25094     25097     25098     25099
     25094     25097     25098     25100     25095     25094     25097     25098
     25096     25094     25097     25098     25097     25098     25100     25101
     25097     25098     25100     25102     25097     25098     25100     25150
     25098     25100     25150     25151     25098     25100     25150     25152
     25098     25100     25150     25153     25099     25098     25100     25101
     25099     25098     25100     25102     25099     25098     25100     25150
     25100     25150     25153     25154     25100     25150     25153     25155
     25100     25150     25153     25156     25101     25100     25150     25151
     25101     25100     25150     25152     25101     25100     25150     25153
     25102     25100     25150     25151     25102     25100     25150     25152
     25102     25100     25150     25153     25103     25106     25109     25110
     25103     25106     25109     25111     25103     25106     25109     25112
     25104     25103     25106     25107     25104     25103     25106     25108
     25104     25103     25106     25109     25105     25103     25106     25107
     25105     25103     25106     25108     25105     25103     25106     25109
     25106     25109     25112     25113     25106     25109     25112     25114
     25106     25109     25112     25115     25107     25106     25109     25110
     25107     25106     25109     25111     25107     25106     25109     25112
     25108     25106     25109     25110     25108     25106     25109     25111
     25108     25106     25109     25112     25109     25112     25115     25116
     25109     25112     25115     25117     25109     25112     25115     25118
     25110     25109     25112     25113     25110     25109     25112     25114
     25110     25109     25112     25115     25111     25109     25112     25113
     25111     25109     25112     25114     25111     25109     25112     25115
     25112     25115     25118     25119     25112     25115     25118     25120
     25112     25115     25118     25121     25113     25112     25115     25116
     25113     25112     25115     25117     25113     25112     25115     25118
     25114     25112     25115     25116     25114     25112     25115     25117
     25114     25112     25115     25118     25115     25118     25121     25122
     25115     25118     25121     25123     25116     25115     25118     25119
     25116     25115     25118     25120     25116     25115     25118     25121
     25117     25115     25118     25119     25117     25115     25118     25120
     25117     25115     25118     25121     25118     25121     25123     25124
     25118     25121     25123     25125     25119     25118     25121     25122
     25119     25118     25121     25123     25120     25118     25121     25122
     25120     25118     25121     25123     25121     25123     25125     25126
     25121     25123     25125     25127     25121     25123     25125     25128
     25122     25121     25123     25124     25122     25121     25123     25125
     25123     25125     25128     25129     25123     25125     25128     25130
     25123     25125     25128     25131     25124     25123     25125     25126
     25124     25123     25125     25127     25124     25123     25125     25128
     25125     25128     25131     25132     25125     25128     25131     25133
     25125     25128     25131     25134     25126     25125     25128     25129
     25126     25125     25128     25130     25126     25125     25128     25131
     25127     25125     25128     25129     25127     25125     25128     25130
     25127     25125     25128     25131     25128     25131     25134     25135
     25128     25131     25134     25136     25128     25131     25134     25137
     25129     25128     25131     25132     25129     25128     25131     25133
     25129     25128     25131     25134     25130     25128     25131     25132
     25130     25128     25131     25133     25130     25128     25131     25134
     25131     25134     25137     25138     25131     25134     25137     25139
     25131     25134     25137     25140     25132     25131     25134     25135
     25132     25131     25134     25136     25132     25131     25134     25137
     25133     25131     25134     25135     25133     25131     25134     25136
     25133     25131     25134     25137     25134     25137     25140     25141
     25134     25137     25140     25142     25134     25137     25140     25143
     25135     25134     25137     25138     25135     25134     25137     25139
     25135     25134     25137     25140     25136     25134     25137     25138
     25136     25134     25137     25139     25136     25134     25137     25140
     25137     25140     25143     25144     25137     25140     25143     25145
     25137     25140     25143     25146     25138     25137     25140     25141
     25138     25137     25140     25142     25138     25137     25140     25143
     25139     25137     25140     25141     25139     25137     25140     25142
     25139     25137     25140     25143     25140     25143     25146     25147
     25140     25143     25146     25148     25140     25143     25146     25149
     25141     25140     25143     25144     25141     25140     25143     25145
     25141     25140     25143     25146     25142     25140     25143     25144
     25142     25140     25143     25145     25142     25140     25143     25146
     25144     25143     25146     25147     25144     25143     25146     25148
     25144     25143     25146     25149     25145     25143     25146     25147
     25145     25143     25146     25148     25145     25143     25146     25149
     25150     25153     25156     25157     25150     25153     25156     25158
     25150     25153     25156     25159     25151     25150     25153     25154
     25151     25150     25153     25155     25151     25150     25153     25156
     25152     25150     25153     25154     25152     25150     25153     25155
     25152     25150     25153     25156     25153     25156     25159     25160
     25153     25156     25159     25161     25153     25156     25159     25162
     25154     25153     25156     25157     25154     25153     25156     25158
     25154     25153     25156     25159     25155     25153     25156     25157
     25155     25153     25156     25158     25155     25153     25156     25159
     25156     25159     25162     25163     25156     25159     25162     25164
     25156     25159     25162     25165     25157     25156     25159     25160
     25157     25156     25159     25161     25157     25156     25159     25162
     25158     25156     25159     25160     25158     25156     25159     25161
     25158     25156     25159     25162     25159     25162     25165     25166
     25159     25162     25165     25167     25159     25162     25165     25168
     25160     25159     25162     25163     25160     25159     25162     25164
     25160     25159     25162     25165     25161     25159     25162     25163
     25161     25159     25162     25164     25161     25159     25162     25165
     25162     25165     25168     25169     25162     25165     25168     25170
     25162     25165     25168     25171     25163     25162     25165     25166
     25163     25162     25165     25167     25163     25162     25165     25168
     25164     25162     25165     25166     25164     25162     25165     25167
     25164     25162     25165     25168     25165     25168     25171     25172
     25165     25168     25171     25173     25165     25168     25171     25174
     25166     25165     25168     25169     25166     25165     25168     25170
     25166     25165     25168     25171     25167     25165     25168     25169
     25167     25165     25168     25170     25167     25165     25168     25171
     25168     25171     25174     25175     25168     25171     25174     25176
     25168     25171     25174     25177     25169     25168     25171     25172
     25169     25168     25171     25173     25169     25168     25171     25174
     25170     25168     25171     25172     25170     25168     25171     25173
     25170     25168     25171     25174     25171     25174     25177     25178
     25171     25174     25177     25179     25171     25174     25177     25180
     25172     25171     25174     25175     25172     25171     25174     25176
     25172     25171     25174     25177     25173     25171     25174     25175
     25173     25171     25174     25176     25173     25171     25174     25177
     25174     25177     25180     25181     25174     25177     25180     25182
     25174     25177     25180     25183     25175     25174     25177     25178
     25175     25174     25177     25179     25175     25174     25177     25180
     25176     25174     25177     25178     25176     25174     25177     25179
     25176     25174     25177     25180     25177     25180     25183     25184
     25177     25180     25183     25185     25177     25180     25183     25186
     25178     25177     25180     25181     25178     25177     25180     25182
     25178     25177     25180     25183     25179     25177     25180     25181
     25179     25177     25180     25182     25179     25177     25180     25183
     25180     25183     25186     25187     25180     25183     25186     25188
     25180     25183     25186     25189     25181     25180     25183     25184
     25181     25180     25183     25185     25181     25180     25183     25186
     25182     25180     25183     25184     25182     25180     25183     25185
     25182     25180     25183     25186     25183     25186     25189     25190
     25183     25186     25189     25191     25183     25186     25189     25192
     25184     25183     25186     25187     25184     25183     25186     25188
     25184     25183     25186     25189     25185     25183     25186     25187
     25185     25183     25186     25188     25185     25183     25186     25189
     25187     25186     25189     25190     25187     25186     25189     25191
     25187     25186     25189     25192     25188     25186     25189     25190
     25188     25186     25189     25191     25188     25186     25189     25192
     25193     25194     25209     25210     25193     25194     25209     25211
     25193     25194     25209     25215     25194     25193     25197     25198
     25194     25193     25197     25199     25194     25193     25197     25200
     25194     25193     25201     25202     25194     25193     25201     25203
     25194     25193     25201     25204     25194     25193     25205     25206
     25194     25193     25205     25207     25194     25193     25205     25208
     25194     25209     25215     25212     25195     25194     25193     25197
     25195     25194     25193     25201     25195     25194     25193     25205
     25195     25194     25209     25210     25195     25194     25209     25211
     25195     25194     25209     25215     25196     25194     25193     25197
     25196     25194     25193     25201     25196     25194     25193     25205
     25196     25194     25209     25210     25196     25194     25209     25211
     25196     25194     25209     25215     25197     25193     25194     25209
     25197     25193     25201     25202     25197     25193     25201     25203
     25197     25193     25201     25204     25197     25193     25205     25206
     25197     25193     25205     25207     25197     25193     25205     25208
     25198     25197     25193     25201     25198     25197     25193     25205
     25199     25197     25193     25201     25199     25197     25193     25205
     25200     25197     25193     25201     25200     25197     25193     25205
     25201     25193     25194     25209     25201     25193     25205     25206
     25201     25193     25205     25207     25201     25193     25205     25208
     25202     25201     25193     25205     25203     25201     25193     25205
     25204     25201     25193     25205     25205     25193     25194     25209
     25209     25215     25212     25213     25209     25215     25212     25214
     25209     25215     25212     25216     25210     25209     25215     25212
     25211     25209     25215     25212     25212     25216     25217     25218
     25212     25216     25217     25219     25212     25216     25217     25220
     25213     25212     25216     25217     25214     25212     25216     25217
     25215     25212     25216     25217     25216     25217     25220     25221
     25216     25217     25220     25222     25216     25217     25220     25228
     25217     25220     25222     25223     25217     25220     25228     25229
     25217     25220     25228     25230     25217     25220     25228     25231
     25218     25217     25220     25221     25218     25217     25220     25222
     25218     25217     25220     25228     25219     25217     25220     25221
     25219     25217     25220     25222     25219     25217     25220     25228
     25220     25222     25223     25224     25220     25222     25223     25225
     25220     25228     25231     25232     25221     25220     25222     25223
     25221     25220     25228     25229     25221     25220     25228     25230
     25221     25220     25228     25231     25222     25220     25228     25229
     25222     25220     25228     25230     25222     25220     25228     25231
     25222     25223     25225     25226     25222     25223     25225     25227
     25222     25223     25225     25237     25223     25222     25220     25228
     25223     25225     25237     25238     25223     25225     25237     25239
     25223     25225     25237     25240     25224     25223     25225     25226
     25224     25223     25225     25227     25224     25223     25225     25237
     25225     25237     25240     25241     25225     25237     25240     25242
     25225     25237     25240     25243     25226     25225     25237     25238
     25226     25225     25237     25239     25226     25225     25237     25240
     25227     25225     25237     25238     25227     25225     25237     25239
     25227     25225     25237     25240     25228     25231     25232     25233
     25228     25231     25232     25234     25229     25228     25231     25232
     25230     25228     25231     25232     25231     25232     25234     25235
     25231     25232     25234     25236     25231     25232     25234     25284
     25232     25234     25284     25285     25232     25234     25284     25286
     25232     25234     25284     25287     25233     25232     25234     25235
     25233     25232     25234     25236     25233     25232     25234     25284
     25234     25284     25287     25288     25234     25284     25287     25289
     25234     25284     25287     25290     25235     25234     25284     25285
     25235     25234     25284     25286     25235     25234     25284     25287
     25236     25234     25284     25285     25236     25234     25284     25286
     25236     25234     25284     25287     25237     25240     25243     25244
     25237     25240     25243     25245     25237     25240     25243     25246
     25238     25237     25240     25241     25238     25237     25240     25242
     25238     25237     25240     25243     25239     25237     25240     25241
     25239     25237     25240     25242     25239     25237     25240     25243
     25240     25243     25246     25247     25240     25243     25246     25248
     25240     25243     25246     25249     25241     25240     25243     25244
     25241     25240     25243     25245     25241     25240     25243     25246
     25242     25240     25243     25244     25242     25240     25243     25245
     25242     25240     25243     25246     25243     25246     25249     25250
     25243     25246     25249     25251     25243     25246     25249     25252
     25244     25243     25246     25247     25244     25243     25246     25248
     25244     25243     25246     25249     25245     25243     25246     25247
     25245     25243     25246     25248     25245     25243     25246     25249
     25246     25249     25252     25253     25246     25249     25252     25254
     25246     25249     25252     25255     25247     25246     25249     25250
     25247     25246     25249     25251     25247     25246     25249     25252
     25248     25246     25249     25250     25248     25246     25249     25251
     25248     25246     25249     25252     25249     25252     25255     25256
     25249     25252     25255     25257     25250     25249     25252     25253
     25250     25249     25252     25254     25250     25249     25252     25255
     25251     25249     25252     25253     25251     25249     25252     25254
     25251     25249     25252     25255     25252     25255     25257     25258
     25252     25255     25257     25259     25253     25252     25255     25256
     25253     25252     25255     25257     25254     25252     25255     25256
     25254     25252     25255     25257     25255     25257     25259     25260
     25255     25257     25259     25261     25255     25257     25259     25262
     25256     25255     25257     25258     25256     25255     25257     25259
     25257     25259     25262     25263     25257     25259     25262     25264
     25257     25259     25262     25265     25258     25257     25259     25260
     25258     25257     25259     25261     25258     25257     25259     25262
     25259     25262     25265     25266     25259     25262     25265     25267
     25259     25262     25265     25268     25260     25259     25262     25263
     25260     25259     25262     25264     25260     25259     25262     25265
     25261     25259     25262     25263     25261     25259     25262     25264
     25261     25259     25262     25265     25262     25265     25268     25269
     25262     25265     25268     25270     25262     25265     25268     25271
     25263     25262     25265     25266     25263     25262     25265     25267
     25263     25262     25265     25268     25264     25262     25265     25266
     25264     25262     25265     25267     25264     25262     25265     25268
     25265     25268     25271     25272     25265     25268     25271     25273
     25265     25268     25271     25274     25266     25265     25268     25269
     25266     25265     25268     25270     25266     25265     25268     25271
     25267     25265     25268     25269     25267     25265     25268     25270
     25267     25265     25268     25271     25268     25271     25274     25275
     25268     25271     25274     25276     25268     25271     25274     25277
     25269     25268     25271     25272     25269     25268     25271     25273
     25269     25268     25271     25274     25270     25268     25271     25272
     25270     25268     25271     25273     25270     25268     25271     25274
     25271     25274     25277     25278     25271     25274     25277     25279
     25271     25274     25277     25280     25272     25271     25274     25275
     25272     25271     25274     25276     25272     25271     25274     25277
     25273     25271     25274     25275     25273     25271     25274     25276
     25273     25271     25274     25277     25274     25277     25280     25281
     25274     25277     25280     25282     25274     25277     25280     25283
     25275     25274     25277     25278     25275     25274     25277     25279
     25275     25274     25277     25280     25276     25274     25277     25278
     25276     25274     25277     25279     25276     25274     25277     25280
     25278     25277     25280     25281     25278     25277     25280     25282
     25278     25277     25280     25283     25279     25277     25280     25281
     25279     25277     25280     25282     25279     25277     25280     25283
     25284     25287     25290     25291     25284     25287     25290     25292
     25284     25287     25290     25293     25285     25284     25287     25288
     25285     25284     25287     25289     25285     25284     25287     25290
     25286     25284     25287     25288     25286     25284     25287     25289
     25286     25284     25287     25290     25287     25290     25293     25294
     25287     25290     25293     25295     25287     25290     25293     25296
     25288     25287     25290     25291     25288     25287     25290     25292
     25288     25287     25290     25293     25289     25287     25290     25291
     25289     25287     25290     25292     25289     25287     25290     25293
     25290     25293     25296     25297     25290     25293     25296     25298
     25290     25293     25296     25299     25291     25290     25293     25294
     25291     25290     25293     25295     25291     25290     25293     25296
     25292     25290     25293     25294     25292     25290     25293     25295
     25292     25290     25293     25296     25293     25296     25299     25300
     25293     25296     25299     25301     25293     25296     25299     25302
     25294     25293     25296     25297     25294     25293     25296     25298
     25294     25293     25296     25299     25295     25293     25296     25297
     25295     25293     25296     25298     25295     25293     25296     25299
     25296     25299     25302     25303     25296     25299     25302     25304
     25296     25299     25302     25305     25297     25296     25299     25300
     25297     25296     25299     25301     25297     25296     25299     25302
     25298     25296     25299     25300     25298     25296     25299     25301
     25298     25296     25299     25302     25299     25302     25305     25306
     25299     25302     25305     25307     25299     25302     25305     25308
     25300     25299     25302     25303     25300     25299     25302     25304
     25300     25299     25302     25305     25301     25299     25302     25303
     25301     25299     25302     25304     25301     25299     25302     25305
     25302     25305     25308     25309     25302     25305     25308     25310
     25302     25305     25308     25311     25303     25302     25305     25306
     25303     25302     25305     25307     25303     25302     25305     25308
     25304     25302     25305     25306     25304     25302     25305     25307
     25304     25302     25305     25308     25305     25308     25311     25312
     25305     25308     25311     25313     25305     25308     25311     25314
     25306     25305     25308     25309     25306     25305     25308     25310
     25306     25305     25308     25311     25307     25305     25308     25309
     25307     25305     25308     25310     25307     25305     25308     25311
     25308     25311     25314     25315     25308     25311     25314     25316
     25308     25311     25314     25317     25309     25308     25311     25312
     25309     25308     25311     25313     25309     25308     25311     25314
     25310     25308     25311     25312     25310     25308     25311     25313
     25310     25308     25311     25314     25311     25314     25317     25318
     25311     25314     25317     25319     25311     25314     25317     25320
     25312     25311     25314     25315     25312     25311     25314     25316
     25312     25311     25314     25317     25313     25311     25314     25315
     25313     25311     25314     25316     25313     25311     25314     25317
     25314     25317     25320     25321     25314     25317     25320     25322
     25314     25317     25320     25323     25315     25314     25317     25318
     25315     25314     25317     25319     25315     25314     25317     25320
     25316     25314     25317     25318     25316     25314     25317     25319
     25316     25314     25317     25320     25317     25320     25323     25324
     25317     25320     25323     25325     25317     25320     25323     25326
     25318     25317     25320     25321     25318     25317     25320     25322
     25318     25317     25320     25323     25319     25317     25320     25321
     25319     25317     25320     25322     25319     25317     25320     25323
     25321     25320     25323     25324     25321     25320     25323     25325
     25321     25320     25323     25326     25322     25320     25323     25324
     25322     25320     25323     25325     25322     25320     25323     25326
     25327     25328     25343     25344     25327     25328     25343     25345
     25327     25328     25343     25349     25328     25327     25331     25332
     25328     25327     25331     25333     25328     25327     25331     25334
     25328     25327     25335     25336     25328     25327     25335     25337
     25328     25327     25335     25338     25328     25327     25339     25340
     25328     25327     25339     25341     25328     25327     25339     25342
     25328     25343     25349     25346     25329     25328     25327     25331
     25329     25328     25327     25335     25329     25328     25327     25339
     25329     25328     25343     25344     25329     25328     25343     25345
     25329     25328     25343     25349     25330     25328     25327     25331
     25330     25328     25327     25335     25330     25328     25327     25339
     25330     25328     25343     25344     25330     25328     25343     25345
     25330     25328     25343     25349     25331     25327     25328     25343
     25331     25327     25335     25336     25331     25327     25335     25337
     25331     25327     25335     25338     25331     25327     25339     25340
     25331     25327     25339     25341     25331     25327     25339     25342
     25332     25331     25327     25335     25332     25331     25327     25339
     25333     25331     25327     25335     25333     25331     25327     25339
     25334     25331     25327     25335     25334     25331     25327     25339
     25335     25327     25328     25343     25335     25327     25339     25340
     25335     25327     25339     25341     25335     25327     25339     25342
     25336     25335     25327     25339     25337     25335     25327     25339
     25338     25335     25327     25339     25339     25327     25328     25343
     25343     25349     25346     25347     25343     25349     25346     25348
     25343     25349     25346     25350     25344     25343     25349     25346
     25345     25343     25349     25346     25346     25350     25351     25352
     25346     25350     25351     25353     25346     25350     25351     25354
     25347     25346     25350     25351     25348     25346     25350     25351
     25349     25346     25350     25351     25350     25351     25354     25355
     25350     25351     25354     25356     25350     25351     25354     25362
     25351     25354     25356     25357     25351     25354     25362     25363
     25351     25354     25362     25364     25351     25354     25362     25365
     25352     25351     25354     25355     25352     25351     25354     25356
     25352     25351     25354     25362     25353     25351     25354     25355
     25353     25351     25354     25356     25353     25351     25354     25362
     25354     25356     25357     25358     25354     25356     25357     25359
     25354     25362     25365     25366     25355     25354     25356     25357
     25355     25354     25362     25363     25355     25354     25362     25364
     25355     25354     25362     25365     25356     25354     25362     25363
     25356     25354     25362     25364     25356     25354     25362     25365
     25356     25357     25359     25360     25356     25357     25359     25361
     25356     25357     25359     25371     25357     25356     25354     25362
     25357     25359     25371     25372     25357     25359     25371     25373
     25357     25359     25371     25374     25358     25357     25359     25360
     25358     25357     25359     25361     25358     25357     25359     25371
     25359     25371     25374     25375     25359     25371     25374     25376
     25359     25371     25374     25377     25360     25359     25371     25372
     25360     25359     25371     25373     25360     25359     25371     25374
     25361     25359     25371     25372     25361     25359     25371     25373
     25361     25359     25371     25374     25362     25365     25366     25367
     25362     25365     25366     25368     25363     25362     25365     25366
     25364     25362     25365     25366     25365     25366     25368     25369
     25365     25366     25368     25370     25365     25366     25368     25418
     25366     25368     25418     25419     25366     25368     25418     25420
     25366     25368     25418     25421     25367     25366     25368     25369
     25367     25366     25368     25370     25367     25366     25368     25418
     25368     25418     25421     25422     25368     25418     25421     25423
     25368     25418     25421     25424     25369     25368     25418     25419
     25369     25368     25418     25420     25369     25368     25418     25421
     25370     25368     25418     25419     25370     25368     25418     25420
     25370     25368     25418     25421     25371     25374     25377     25378
     25371     25374     25377     25379     25371     25374     25377     25380
     25372     25371     25374     25375     25372     25371     25374     25376
     25372     25371     25374     25377     25373     25371     25374     25375
     25373     25371     25374     25376     25373     25371     25374     25377
     25374     25377     25380     25381     25374     25377     25380     25382
     25374     25377     25380     25383     25375     25374     25377     25378
     25375     25374     25377     25379     25375     25374     25377     25380
     25376     25374     25377     25378     25376     25374     25377     25379
     25376     25374     25377     25380     25377     25380     25383     25384
     25377     25380     25383     25385     25377     25380     25383     25386
     25378     25377     25380     25381     25378     25377     25380     25382
     25378     25377     25380     25383     25379     25377     25380     25381
     25379     25377     25380     25382     25379     25377     25380     25383
     25380     25383     25386     25387     25380     25383     25386     25388
     25380     25383     25386     25389     25381     25380     25383     25384
     25381     25380     25383     25385     25381     25380     25383     25386
     25382     25380     25383     25384     25382     25380     25383     25385
     25382     25380     25383     25386     25383     25386     25389     25390
     25383     25386     25389     25391     25384     25383     25386     25387
     25384     25383     25386     25388     25384     25383     25386     25389
     25385     25383     25386     25387     25385     25383     25386     25388
     25385     25383     25386     25389     25386     25389     25391     25392
     25386     25389     25391     25393     25387     25386     25389     25390
     25387     25386     25389     25391     25388     25386     25389     25390
     25388     25386     25389     25391     25389     25391     25393     25394
     25389     25391     25393     25395     25389     25391     25393     25396
     25390     25389     25391     25392     25390     25389     25391     25393
     25391     25393     25396     25397     25391     25393     25396     25398
     25391     25393     25396     25399     25392     25391     25393     25394
     25392     25391     25393     25395     25392     25391     25393     25396
     25393     25396     25399     25400     25393     25396     25399     25401
     25393     25396     25399     25402     25394     25393     25396     25397
     25394     25393     25396     25398     25394     25393     25396     25399
     25395     25393     25396     25397     25395     25393     25396     25398
     25395     25393     25396     25399     25396     25399     25402     25403
     25396     25399     25402     25404     25396     25399     25402     25405
     25397     25396     25399     25400     25397     25396     25399     25401
     25397     25396     25399     25402     25398     25396     25399     25400
     25398     25396     25399     25401     25398     25396     25399     25402
     25399     25402     25405     25406     25399     25402     25405     25407
     25399     25402     25405     25408     25400     25399     25402     25403
     25400     25399     25402     25404     25400     25399     25402     25405
     25401     25399     25402     25403     25401     25399     25402     25404
     25401     25399     25402     25405     25402     25405     25408     25409
     25402     25405     25408     25410     25402     25405     25408     25411
     25403     25402     25405     25406     25403     25402     25405     25407
     25403     25402     25405     25408     25404     25402     25405     25406
     25404     25402     25405     25407     25404     25402     25405     25408
     25405     25408     25411     25412     25405     25408     25411     25413
     25405     25408     25411     25414     25406     25405     25408     25409
     25406     25405     25408     25410     25406     25405     25408     25411
     25407     25405     25408     25409     25407     25405     25408     25410
     25407     25405     25408     25411     25408     25411     25414     25415
     25408     25411     25414     25416     25408     25411     25414     25417
     25409     25408     25411     25412     25409     25408     25411     25413
     25409     25408     25411     25414     25410     25408     25411     25412
     25410     25408     25411     25413     25410     25408     25411     25414
     25412     25411     25414     25415     25412     25411     25414     25416
     25412     25411     25414     25417     25413     25411     25414     25415
     25413     25411     25414     25416     25413     25411     25414     25417
     25418     25421     25424     25425     25418     25421     25424     25426
     25418     25421     25424     25427     25419     25418     25421     25422
     25419     25418     25421     25423     25419     25418     25421     25424
     25420     25418     25421     25422     25420     25418     25421     25423
     25420     25418     25421     25424     25421     25424     25427     25428
     25421     25424     25427     25429     25421     25424     25427     25430
     25422     25421     25424     25425     25422     25421     25424     25426
     25422     25421     25424     25427     25423     25421     25424     25425
     25423     25421     25424     25426     25423     25421     25424     25427
     25424     25427     25430     25431     25424     25427     25430     25432
     25424     25427     25430     25433     25425     25424     25427     25428
     25425     25424     25427     25429     25425     25424     25427     25430
     25426     25424     25427     25428     25426     25424     25427     25429
     25426     25424     25427     25430     25427     25430     25433     25434
     25427     25430     25433     25435     25427     25430     25433     25436
     25428     25427     25430     25431     25428     25427     25430     25432
     25428     25427     25430     25433     25429     25427     25430     25431
     25429     25427     25430     25432     25429     25427     25430     25433
     25430     25433     25436     25437     25430     25433     25436     25438
     25430     25433     25436     25439     25431     25430     25433     25434
     25431     25430     25433     25435     25431     25430     25433     25436
     25432     25430     25433     25434     25432     25430     25433     25435
     25432     25430     25433     25436     25433     25436     25439     25440
     25433     25436     25439     25441     25433     25436     25439     25442
     25434     25433     25436     25437     25434     25433     25436     25438
     25434     25433     25436     25439     25435     25433     25436     25437
     25435     25433     25436     25438     25435     25433     25436     25439
     25436     25439     25442     25443     25436     25439     25442     25444
     25436     25439     25442     25445     25437     25436     25439     25440
     25437     25436     25439     25441     25437     25436     25439     25442
     25438     25436     25439     25440     25438     25436     25439     25441
     25438     25436     25439     25442     25439     25442     25445     25446
     25439     25442     25445     25447     25439     25442     25445     25448
     25440     25439     25442     25443     25440     25439     25442     25444
     25440     25439     25442     25445     25441     25439     25442     25443
     25441     25439     25442     25444     25441     25439     25442     25445
     25442     25445     25448     25449     25442     25445     25448     25450
     25442     25445     25448     25451     25443     25442     25445     25446
     25443     25442     25445     25447     25443     25442     25445     25448
     25444     25442     25445     25446     25444     25442     25445     25447
     25444     25442     25445     25448     25445     25448     25451     25452
     25445     25448     25451     25453     25445     25448     25451     25454
     25446     25445     25448     25449     25446     25445     25448     25450
     25446     25445     25448     25451     25447     25445     25448     25449
     25447     25445     25448     25450     25447     25445     25448     25451
     25448     25451     25454     25455     25448     25451     25454     25456
     25448     25451     25454     25457     25449     25448     25451     25452
     25449     25448     25451     25453     25449     25448     25451     25454
     25450     25448     25451     25452     25450     25448     25451     25453
     25450     25448     25451     25454     25451     25454     25457     25458
     25451     25454     25457     25459     25451     25454     25457     25460
     25452     25451     25454     25455     25452     25451     25454     25456
     25452     25451     25454     25457     25453     25451     25454     25455
     25453     25451     25454     25456     25453     25451     25454     25457
     25455     25454     25457     25458     25455     25454     25457     25459
     25455     25454     25457     25460     25456     25454     25457     25458
     25456     25454     25457     25459     25456     25454     25457     25460
     25461     25462     25477     25478     25461     25462     25477     25479
     25461     25462     25477     25483     25462     25461     25465     25466
     25462     25461     25465     25467     25462     25461     25465     25468
     25462     25461     25469     25470     25462     25461     25469     25471
     25462     25461     25469     25472     25462     25461     25473     25474
     25462     25461     25473     25475     25462     25461     25473     25476
     25462     25477     25483     25480     25463     25462     25461     25465
     25463     25462     25461     25469     25463     25462     25461     25473
     25463     25462     25477     25478     25463     25462     25477     25479
     25463     25462     25477     25483     25464     25462     25461     25465
     25464     25462     25461     25469     25464     25462     25461     25473
     25464     25462     25477     25478     25464     25462     25477     25479
     25464     25462     25477     25483     25465     25461     25462     25477
     25465     25461     25469     25470     25465     25461     25469     25471
     25465     25461     25469     25472     25465     25461     25473     25474
     25465     25461     25473     25475     25465     25461     25473     25476
     25466     25465     25461     25469     25466     25465     25461     25473
     25467     25465     25461     25469     25467     25465     25461     25473
     25468     25465     25461     25469     25468     25465     25461     25473
     25469     25461     25462     25477     25469     25461     25473     25474
     25469     25461     25473     25475     25469     25461     25473     25476
     25470     25469     25461     25473     25471     25469     25461     25473
     25472     25469     25461     25473     25473     25461     25462     25477
     25477     25483     25480     25481     25477     25483     25480     25482
     25477     25483     25480     25484     25478     25477     25483     25480
     25479     25477     25483     25480     25480     25484     25485     25486
     25480     25484     25485     25487     25480     25484     25485     25488
     25481     25480     25484     25485     25482     25480     25484     25485
     25483     25480     25484     25485     25484     25485     25488     25489
     25484     25485     25488     25490     25484     25485     25488     25496
     25485     25488     25490     25491     25485     25488     25496     25497
     25485     25488     25496     25498     25485     25488     25496     25499
     25486     25485     25488     25489     25486     25485     25488     25490
     25486     25485     25488     25496     25487     25485     25488     25489
     25487     25485     25488     25490     25487     25485     25488     25496
     25488     25490     25491     25492     25488     25490     25491     25493
     25488     25496     25499     25500     25489     25488     25490     25491
     25489     25488     25496     25497     25489     25488     25496     25498
     25489     25488     25496     25499     25490     25488     25496     25497
     25490     25488     25496     25498     25490     25488     25496     25499
     25490     25491     25493     25494     25490     25491     25493     25495
     25490     25491     25493     25505     25491     25490     25488     25496
     25491     25493     25505     25506     25491     25493     25505     25507
     25491     25493     25505     25508     25492     25491     25493     25494
     25492     25491     25493     25495     25492     25491     25493     25505
     25493     25505     25508     25509     25493     25505     25508     25510
     25493     25505     25508     25511     25494     25493     25505     25506
     25494     25493     25505     25507     25494     25493     25505     25508
     25495     25493     25505     25506     25495     25493     25505     25507
     25495     25493     25505     25508     25496     25499     25500     25501
     25496     25499     25500     25502     25497     25496     25499     25500
     25498     25496     25499     25500     25499     25500     25502     25503
     25499     25500     25502     25504     25499     25500     25502     25552
     25500     25502     25552     25553     25500     25502     25552     25554
     25500     25502     25552     25555     25501     25500     25502     25503
     25501     25500     25502     25504     25501     25500     25502     25552
     25502     25552     25555     25556     25502     25552     25555     25557
     25502     25552     25555     25558     25503     25502     25552     25553
     25503     25502     25552     25554     25503     25502     25552     25555
     25504     25502     25552     25553     25504     25502     25552     25554
     25504     25502     25552     25555     25505     25508     25511     25512
     25505     25508     25511     25513     25505     25508     25511     25514
     25506     25505     25508     25509     25506     25505     25508     25510
     25506     25505     25508     25511     25507     25505     25508     25509
     25507     25505     25508     25510     25507     25505     25508     25511
     25508     25511     25514     25515     25508     25511     25514     25516
     25508     25511     25514     25517     25509     25508     25511     25512
     25509     25508     25511     25513     25509     25508     25511     25514
     25510     25508     25511     25512     25510     25508     25511     25513
     25510     25508     25511     25514     25511     25514     25517     25518
     25511     25514     25517     25519     25511     25514     25517     25520
     25512     25511     25514     25515     25512     25511     25514     25516
     25512     25511     25514     25517     25513     25511     25514     25515
     25513     25511     25514     25516     25513     25511     25514     25517
     25514     25517     25520     25521     25514     25517     25520     25522
     25514     25517     25520     25523     25515     25514     25517     25518
     25515     25514     25517     25519     25515     25514     25517     25520
     25516     25514     25517     25518     25516     25514     25517     25519
     25516     25514     25517     25520     25517     25520     25523     25524
     25517     25520     25523     25525     25518     25517     25520     25521
     25518     25517     25520     25522     25518     25517     25520     25523
     25519     25517     25520     25521     25519     25517     25520     25522
     25519     25517     25520     25523     25520     25523     25525     25526
     25520     25523     25525     25527     25521     25520     25523     25524
     25521     25520     25523     25525     25522     25520     25523     25524
     25522     25520     25523     25525     25523     25525     25527     25528
     25523     25525     25527     25529     25523     25525     25527     25530
     25524     25523     25525     25526     25524     25523     25525     25527
     25525     25527     25530     25531     25525     25527     25530     25532
     25525     25527     25530     25533     25526     25525     25527     25528
     25526     25525     25527     25529     25526     25525     25527     25530
     25527     25530     25533     25534     25527     25530     25533     25535
     25527     25530     25533     25536     25528     25527     25530     25531
     25528     25527     25530     25532     25528     25527     25530     25533
     25529     25527     25530     25531     25529     25527     25530     25532
     25529     25527     25530     25533     25530     25533     25536     25537
     25530     25533     25536     25538     25530     25533     25536     25539
     25531     25530     25533     25534     25531     25530     25533     25535
     25531     25530     25533     25536     25532     25530     25533     25534
     25532     25530     25533     25535     25532     25530     25533     25536
     25533     25536     25539     25540     25533     25536     25539     25541
     25533     25536     25539     25542     25534     25533     25536     25537
     25534     25533     25536     25538     25534     25533     25536     25539
     25535     25533     25536     25537     25535     25533     25536     25538
     25535     25533     25536     25539     25536     25539     25542     25543
     25536     25539     25542     25544     25536     25539     25542     25545
     25537     25536     25539     25540     25537     25536     25539     25541
     25537     25536     25539     25542     25538     25536     25539     25540
     25538     25536     25539     25541     25538     25536     25539     25542
     25539     25542     25545     25546     25539     25542     25545     25547
     25539     25542     25545     25548     25540     25539     25542     25543
     25540     25539     25542     25544     25540     25539     25542     25545
     25541     25539     25542     25543     25541     25539     25542     25544
     25541     25539     25542     25545     25542     25545     25548     25549
     25542     25545     25548     25550     25542     25545     25548     25551
     25543     25542     25545     25546     25543     25542     25545     25547
     25543     25542     25545     25548     25544     25542     25545     25546
     25544     25542     25545     25547     25544     25542     25545     25548
     25546     25545     25548     25549     25546     25545     25548     25550
     25546     25545     25548     25551     25547     25545     25548     25549
     25547     25545     25548     25550     25547     25545     25548     25551
     25552     25555     25558     25559     25552     25555     25558     25560
     25552     25555     25558     25561     25553     25552     25555     25556
     25553     25552     25555     25557     25553     25552     25555     25558
     25554     25552     25555     25556     25554     25552     25555     25557
     25554     25552     25555     25558     25555     25558     25561     25562
     25555     25558     25561     25563     25555     25558     25561     25564
     25556     25555     25558     25559     25556     25555     25558     25560
     25556     25555     25558     25561     25557     25555     25558     25559
     25557     25555     25558     25560     25557     25555     25558     25561
     25558     25561     25564     25565     25558     25561     25564     25566
     25558     25561     25564     25567     25559     25558     25561     25562
     25559     25558     25561     25563     25559     25558     25561     25564
     25560     25558     25561     25562     25560     25558     25561     25563
     25560     25558     25561     25564     25561     25564     25567     25568
     25561     25564     25567     25569     25561     25564     25567     25570
     25562     25561     25564     25565     25562     25561     25564     25566
     25562     25561     25564     25567     25563     25561     25564     25565
     25563     25561     25564     25566     25563     25561     25564     25567
     25564     25567     25570     25571     25564     25567     25570     25572
     25564     25567     25570     25573     25565     25564     25567     25568
     25565     25564     25567     25569     25565     25564     25567     25570
     25566     25564     25567     25568     25566     25564     25567     25569
     25566     25564     25567     25570     25567     25570     25573     25574
     25567     25570     25573     25575     25567     25570     25573     25576
     25568     25567     25570     25571     25568     25567     25570     25572
     25568     25567     25570     25573     25569     25567     25570     25571
     25569     25567     25570     25572     25569     25567     25570     25573
     25570     25573     25576     25577     25570     25573     25576     25578
     25570     25573     25576     25579     25571     25570     25573     25574
     25571     25570     25573     25575     25571     25570     25573     25576
     25572     25570     25573     25574     25572     25570     25573     25575
     25572     25570     25573     25576     25573     25576     25579     25580
     25573     25576     25579     25581     25573     25576     25579     25582
     25574     25573     25576     25577     25574     25573     25576     25578
     25574     25573     25576     25579     25575     25573     25576     25577
     25575     25573     25576     25578     25575     25573     25576     25579
     25576     25579     25582     25583     25576     25579     25582     25584
     25576     25579     25582     25585     25577     25576     25579     25580
     25577     25576     25579     25581     25577     25576     25579     25582
     25578     25576     25579     25580     25578     25576     25579     25581
     25578     25576     25579     25582     25579     25582     25585     25586
     25579     25582     25585     25587     25579     25582     25585     25588
     25580     25579     25582     25583     25580     25579     25582     25584
     25580     25579     25582     25585     25581     25579     25582     25583
     25581     25579     25582     25584     25581     25579     25582     25585
     25582     25585     25588     25589     25582     25585     25588     25590
     25582     25585     25588     25591     25583     25582     25585     25586
     25583     25582     25585     25587     25583     25582     25585     25588
     25584     25582     25585     25586     25584     25582     25585     25587
     25584     25582     25585     25588     25585     25588     25591     25592
     25585     25588     25591     25593     25585     25588     25591     25594
     25586     25585     25588     25589     25586     25585     25588     25590
     25586     25585     25588     25591     25587     25585     25588     25589
     25587     25585     25588     25590     25587     25585     25588     25591
     25589     25588     25591     25592     25589     25588     25591     25593
     25589     25588     25591     25594     25590     25588     25591     25592
     25590     25588     25591     25593     25590     25588     25591     25594
     25595     25596     25611     25612     25595     25596     25611     25613
     25595     25596     25611     25617     25596     25595     25599     25600
     25596     25595     25599     25601     25596     25595     25599     25602
     25596     25595     25603     25604     25596     25595     25603     25605
     25596     25595     25603     25606     25596     25595     25607     25608
     25596     25595     25607     25609     25596     25595     25607     25610
     25596     25611     25617     25614     25597     25596     25595     25599
     25597     25596     25595     25603     25597     25596     25595     25607
     25597     25596     25611     25612     25597     25596     25611     25613
     25597     25596     25611     25617     25598     25596     25595     25599
     25598     25596     25595     25603     25598     25596     25595     25607
     25598     25596     25611     25612     25598     25596     25611     25613
     25598     25596     25611     25617     25599     25595     25596     25611
     25599     25595     25603     25604     25599     25595     25603     25605
     25599     25595     25603     25606     25599     25595     25607     25608
     25599     25595     25607     25609     25599     25595     25607     25610
     25600     25599     25595     25603     25600     25599     25595     25607
     25601     25599     25595     25603     25601     25599     25595     25607
     25602     25599     25595     25603     25602     25599     25595     25607
     25603     25595     25596     25611     25603     25595     25607     25608
     25603     25595     25607     25609     25603     25595     25607     25610
     25604     25603     25595     25607     25605     25603     25595     25607
     25606     25603     25595     25607     25607     25595     25596     25611
     25611     25617     25614     25615     25611     25617     25614     25616
     25611     25617     25614     25618     25612     25611     25617     25614
     25613     25611     25617     25614     25614     25618     25619     25620
     25614     25618     25619     25621     25614     25618     25619     25622
     25615     25614     25618     25619     25616     25614     25618     25619
     25617     25614     25618     25619     25618     25619     25622     25623
     25618     25619     25622     25624     25618     25619     25622     25630
     25619     25622     25624     25625     25619     25622     25630     25631
     25619     25622     25630     25632     25619     25622     25630     25633
     25620     25619     25622     25623     25620     25619     25622     25624
     25620     25619     25622     25630     25621     25619     25622     25623
     25621     25619     25622     25624     25621     25619     25622     25630
     25622     25624     25625     25626     25622     25624     25625     25627
     25622     25630     25633     25634     25623     25622     25624     25625
     25623     25622     25630     25631     25623     25622     25630     25632
     25623     25622     25630     25633     25624     25622     25630     25631
     25624     25622     25630     25632     25624     25622     25630     25633
     25624     25625     25627     25628     25624     25625     25627     25629
     25624     25625     25627     25639     25625     25624     25622     25630
     25625     25627     25639     25640     25625     25627     25639     25641
     25625     25627     25639     25642     25626     25625     25627     25628
     25626     25625     25627     25629     25626     25625     25627     25639
     25627     25639     25642     25643     25627     25639     25642     25644
     25627     25639     25642     25645     25628     25627     25639     25640
     25628     25627     25639     25641     25628     25627     25639     25642
     25629     25627     25639     25640     25629     25627     25639     25641
     25629     25627     25639     25642     25630     25633     25634     25635
     25630     25633     25634     25636     25631     25630     25633     25634
     25632     25630     25633     25634     25633     25634     25636     25637
     25633     25634     25636     25638     25633     25634     25636     25686
     25634     25636     25686     25687     25634     25636     25686     25688
     25634     25636     25686     25689     25635     25634     25636     25637
     25635     25634     25636     25638     25635     25634     25636     25686
     25636     25686     25689     25690     25636     25686     25689     25691
     25636     25686     25689     25692     25637     25636     25686     25687
     25637     25636     25686     25688     25637     25636     25686     25689
     25638     25636     25686     25687     25638     25636     25686     25688
     25638     25636     25686     25689     25639     25642     25645     25646
     25639     25642     25645     25647     25639     25642     25645     25648
     25640     25639     25642     25643     25640     25639     25642     25644
     25640     25639     25642     25645     25641     25639     25642     25643
     25641     25639     25642     25644     25641     25639     25642     25645
     25642     25645     25648     25649     25642     25645     25648     25650
     25642     25645     25648     25651     25643     25642     25645     25646
     25643     25642     25645     25647     25643     25642     25645     25648
     25644     25642     25645     25646     25644     25642     25645     25647
     25644     25642     25645     25648     25645     25648     25651     25652
     25645     25648     25651     25653     25645     25648     25651     25654
     25646     25645     25648     25649     25646     25645     25648     25650
     25646     25645     25648     25651     25647     25645     25648     25649
     25647     25645     25648     25650     25647     25645     25648     25651
     25648     25651     25654     25655     25648     25651     25654     25656
     25648     25651     25654     25657     25649     25648     25651     25652
     25649     25648     25651     25653     25649     25648     25651     25654
     25650     25648     25651     25652     25650     25648     25651     25653
     25650     25648     25651     25654     25651     25654     25657     25658
     25651     25654     25657     25659     25652     25651     25654     25655
     25652     25651     25654     25656     25652     25651     25654     25657
     25653     25651     25654     25655     25653     25651     25654     25656
     25653     25651     25654     25657     25654     25657     25659     25660
     25654     25657     25659     25661     25655     25654     25657     25658
     25655     25654     25657     25659     25656     25654     25657     25658
     25656     25654     25657     25659     25657     25659     25661     25662
     25657     25659     25661     25663     25657     25659     25661     25664
     25658     25657     25659     25660     25658     25657     25659     25661
     25659     25661     25664     25665     25659     25661     25664     25666
     25659     25661     25664     25667     25660     25659     25661     25662
     25660     25659     25661     25663     25660     25659     25661     25664
     25661     25664     25667     25668     25661     25664     25667     25669
     25661     25664     25667     25670     25662     25661     25664     25665
     25662     25661     25664     25666     25662     25661     25664     25667
     25663     25661     25664     25665     25663     25661     25664     25666
     25663     25661     25664     25667     25664     25667     25670     25671
     25664     25667     25670     25672     25664     25667     25670     25673
     25665     25664     25667     25668     25665     25664     25667     25669
     25665     25664     25667     25670     25666     25664     25667     25668
     25666     25664     25667     25669     25666     25664     25667     25670
     25667     25670     25673     25674     25667     25670     25673     25675
     25667     25670     25673     25676     25668     25667     25670     25671
     25668     25667     25670     25672     25668     25667     25670     25673
     25669     25667     25670     25671     25669     25667     25670     25672
     25669     25667     25670     25673     25670     25673     25676     25677
     25670     25673     25676     25678     25670     25673     25676     25679
     25671     25670     25673     25674     25671     25670     25673     25675
     25671     25670     25673     25676     25672     25670     25673     25674
     25672     25670     25673     25675     25672     25670     25673     25676
     25673     25676     25679     25680     25673     25676     25679     25681
     25673     25676     25679     25682     25674     25673     25676     25677
     25674     25673     25676     25678     25674     25673     25676     25679
     25675     25673     25676     25677     25675     25673     25676     25678
     25675     25673     25676     25679     25676     25679     25682     25683
     25676     25679     25682     25684     25676     25679     25682     25685
     25677     25676     25679     25680     25677     25676     25679     25681
     25677     25676     25679     25682     25678     25676     25679     25680
     25678     25676     25679     25681     25678     25676     25679     25682
     25680     25679     25682     25683     25680     25679     25682     25684
     25680     25679     25682     25685     25681     25679     25682     25683
     25681     25679     25682     25684     25681     25679     25682     25685
     25686     25689     25692     25693     25686     25689     25692     25694
     25686     25689     25692     25695     25687     25686     25689     25690
     25687     25686     25689     25691     25687     25686     25689     25692
     25688     25686     25689     25690     25688     25686     25689     25691
     25688     25686     25689     25692     25689     25692     25695     25696
     25689     25692     25695     25697     25689     25692     25695     25698
     25690     25689     25692     25693     25690     25689     25692     25694
     25690     25689     25692     25695     25691     25689     25692     25693
     25691     25689     25692     25694     25691     25689     25692     25695
     25692     25695     25698     25699     25692     25695     25698     25700
     25692     25695     25698     25701     25693     25692     25695     25696
     25693     25692     25695     25697     25693     25692     25695     25698
     25694     25692     25695     25696     25694     25692     25695     25697
     25694     25692     25695     25698     25695     25698     25701     25702
     25695     25698     25701     25703     25695     25698     25701     25704
     25696     25695     25698     25699     25696     25695     25698     25700
     25696     25695     25698     25701     25697     25695     25698     25699
     25697     25695     25698     25700     25697     25695     25698     25701
     25698     25701     25704     25705     25698     25701     25704     25706
     25698     25701     25704     25707     25699     25698     25701     25702
     25699     25698     25701     25703     25699     25698     25701     25704
     25700     25698     25701     25702     25700     25698     25701     25703
     25700     25698     25701     25704     25701     25704     25707     25708
     25701     25704     25707     25709     25701     25704     25707     25710
     25702     25701     25704     25705     25702     25701     25704     25706
     25702     25701     25704     25707     25703     25701     25704     25705
     25703     25701     25704     25706     25703     25701     25704     25707
     25704     25707     25710     25711     25704     25707     25710     25712
     25704     25707     25710     25713     25705     25704     25707     25708
     25705     25704     25707     25709     25705     25704     25707     25710
     25706     25704     25707     25708     25706     25704     25707     25709
     25706     25704     25707     25710     25707     25710     25713     25714
     25707     25710     25713     25715     25707     25710     25713     25716
     25708     25707     25710     25711     25708     25707     25710     25712
     25708     25707     25710     25713     25709     25707     25710     25711
     25709     25707     25710     25712     25709     25707     25710     25713
     25710     25713     25716     25717     25710     25713     25716     25718
     25710     25713     25716     25719     25711     25710     25713     25714
     25711     25710     25713     25715     25711     25710     25713     25716
     25712     25710     25713     25714     25712     25710     25713     25715
     25712     25710     25713     25716     25713     25716     25719     25720
     25713     25716     25719     25721     25713     25716     25719     25722
     25714     25713     25716     25717     25714     25713     25716     25718
     25714     25713     25716     25719     25715     25713     25716     25717
     25715     25713     25716     25718     25715     25713     25716     25719
     25716     25719     25722     25723     25716     25719     25722     25724
     25716     25719     25722     25725     25717     25716     25719     25720
     25717     25716     25719     25721     25717     25716     25719     25722
     25718     25716     25719     25720     25718     25716     25719     25721
     25718     25716     25719     25722     25719     25722     25725     25726
     25719     25722     25725     25727     25719     25722     25725     25728
     25720     25719     25722     25723     25720     25719     25722     25724
     25720     25719     25722     25725     25721     25719     25722     25723
     25721     25719     25722     25724     25721     25719     25722     25725
     25723     25722     25725     25726     25723     25722     25725     25727
     25723     25722     25725     25728     25724     25722     25725     25726
     25724     25722     25725     25727     25724     25722     25725     25728
     25729     25730     25745     25746     25729     25730     25745     25747
     25729     25730     25745     25751     25730     25729     25733     25734
     25730     25729     25733     25735     25730     25729     25733     25736
     25730     25729     25737     25738     25730     25729     25737     25739
     25730     25729     25737     25740     25730     25729     25741     25742
     25730     25729     25741     25743     25730     25729     25741     25744
     25730     25745     25751     25748     25731     25730     25729     25733
     25731     25730     25729     25737     25731     25730     25729     25741
     25731     25730     25745     25746     25731     25730     25745     25747
     25731     25730     25745     25751     25732     25730     25729     25733
     25732     25730     25729     25737     25732     25730     25729     25741
     25732     25730     25745     25746     25732     25730     25745     25747
     25732     25730     25745     25751     25733     25729     25730     25745
     25733     25729     25737     25738     25733     25729     25737     25739
     25733     25729     25737     25740     25733     25729     25741     25742
     25733     25729     25741     25743     25733     25729     25741     25744
     25734     25733     25729     25737     25734     25733     25729     25741
     25735     25733     25729     25737     25735     25733     25729     25741
     25736     25733     25729     25737     25736     25733     25729     25741
     25737     25729     25730     25745     25737     25729     25741     25742
     25737     25729     25741     25743     25737     25729     25741     25744
     25738     25737     25729     25741     25739     25737     25729     25741
     25740     25737     25729     25741     25741     25729     25730     25745
     25745     25751     25748     25749     25745     25751     25748     25750
     25745     25751     25748     25752     25746     25745     25751     25748
     25747     25745     25751     25748     25748     25752     25753     25754
     25748     25752     25753     25755     25748     25752     25753     25756
     25749     25748     25752     25753     25750     25748     25752     25753
     25751     25748     25752     25753     25752     25753     25756     25757
     25752     25753     25756     25758     25752     25753     25756     25764
     25753     25756     25758     25759     25753     25756     25764     25765
     25753     25756     25764     25766     25753     25756     25764     25767
     25754     25753     25756     25757     25754     25753     25756     25758
     25754     25753     25756     25764     25755     25753     25756     25757
     25755     25753     25756     25758     25755     25753     25756     25764
     25756     25758     25759     25760     25756     25758     25759     25761
     25756     25764     25767     25768     25757     25756     25758     25759
     25757     25756     25764     25765     25757     25756     25764     25766
     25757     25756     25764     25767     25758     25756     25764     25765
     25758     25756     25764     25766     25758     25756     25764     25767
     25758     25759     25761     25762     25758     25759     25761     25763
     25758     25759     25761     25773     25759     25758     25756     25764
     25759     25761     25773     25774     25759     25761     25773     25775
     25759     25761     25773     25776     25760     25759     25761     25762
     25760     25759     25761     25763     25760     25759     25761     25773
     25761     25773     25776     25777     25761     25773     25776     25778
     25761     25773     25776     25779     25762     25761     25773     25774
     25762     25761     25773     25775     25762     25761     25773     25776
     25763     25761     25773     25774     25763     25761     25773     25775
     25763     25761     25773     25776     25764     25767     25768     25769
     25764     25767     25768     25770     25765     25764     25767     25768
     25766     25764     25767     25768     25767     25768     25770     25771
     25767     25768     25770     25772     25767     25768     25770     25820
     25768     25770     25820     25821     25768     25770     25820     25822
     25768     25770     25820     25823     25769     25768     25770     25771
     25769     25768     25770     25772     25769     25768     25770     25820
     25770     25820     25823     25824     25770     25820     25823     25825
     25770     25820     25823     25826     25771     25770     25820     25821
     25771     25770     25820     25822     25771     25770     25820     25823
     25772     25770     25820     25821     25772     25770     25820     25822
     25772     25770     25820     25823     25773     25776     25779     25780
     25773     25776     25779     25781     25773     25776     25779     25782
     25774     25773     25776     25777     25774     25773     25776     25778
     25774     25773     25776     25779     25775     25773     25776     25777
     25775     25773     25776     25778     25775     25773     25776     25779
     25776     25779     25782     25783     25776     25779     25782     25784
     25776     25779     25782     25785     25777     25776     25779     25780
     25777     25776     25779     25781     25777     25776     25779     25782
     25778     25776     25779     25780     25778     25776     25779     25781
     25778     25776     25779     25782     25779     25782     25785     25786
     25779     25782     25785     25787     25779     25782     25785     25788
     25780     25779     25782     25783     25780     25779     25782     25784
     25780     25779     25782     25785     25781     25779     25782     25783
     25781     25779     25782     25784     25781     25779     25782     25785
     25782     25785     25788     25789     25782     25785     25788     25790
     25782     25785     25788     25791     25783     25782     25785     25786
     25783     25782     25785     25787     25783     25782     25785     25788
     25784     25782     25785     25786     25784     25782     25785     25787
     25784     25782     25785     25788     25785     25788     25791     25792
     25785     25788     25791     25793     25786     25785     25788     25789
     25786     25785     25788     25790     25786     25785     25788     25791
     25787     25785     25788     25789     25787     25785     25788     25790
     25787     25785     25788     25791     25788     25791     25793     25794
     25788     25791     25793     25795     25789     25788     25791     25792
     25789     25788     25791     25793     25790     25788     25791     25792
     25790     25788     25791     25793     25791     25793     25795     25796
     25791     25793     25795     25797     25791     25793     25795     25798
     25792     25791     25793     25794     25792     25791     25793     25795
     25793     25795     25798     25799     25793     25795     25798     25800
     25793     25795     25798     25801     25794     25793     25795     25796
     25794     25793     25795     25797     25794     25793     25795     25798
     25795     25798     25801     25802     25795     25798     25801     25803
     25795     25798     25801     25804     25796     25795     25798     25799
     25796     25795     25798     25800     25796     25795     25798     25801
     25797     25795     25798     25799     25797     25795     25798     25800
     25797     25795     25798     25801     25798     25801     25804     25805
     25798     25801     25804     25806     25798     25801     25804     25807
     25799     25798     25801     25802     25799     25798     25801     25803
     25799     25798     25801     25804     25800     25798     25801     25802
     25800     25798     25801     25803     25800     25798     25801     25804
     25801     25804     25807     25808     25801     25804     25807     25809
     25801     25804     25807     25810     25802     25801     25804     25805
     25802     25801     25804     25806     25802     25801     25804     25807
     25803     25801     25804     25805     25803     25801     25804     25806
     25803     25801     25804     25807     25804     25807     25810     25811
     25804     25807     25810     25812     25804     25807     25810     25813
     25805     25804     25807     25808     25805     25804     25807     25809
     25805     25804     25807     25810     25806     25804     25807     25808
     25806     25804     25807     25809     25806     25804     25807     25810
     25807     25810     25813     25814     25807     25810     25813     25815
     25807     25810     25813     25816     25808     25807     25810     25811
     25808     25807     25810     25812     25808     25807     25810     25813
     25809     25807     25810     25811     25809     25807     25810     25812
     25809     25807     25810     25813     25810     25813     25816     25817
     25810     25813     25816     25818     25810     25813     25816     25819
     25811     25810     25813     25814     25811     25810     25813     25815
     25811     25810     25813     25816     25812     25810     25813     25814
     25812     25810     25813     25815     25812     25810     25813     25816
     25814     25813     25816     25817     25814     25813     25816     25818
     25814     25813     25816     25819     25815     25813     25816     25817
     25815     25813     25816     25818     25815     25813     25816     25819
     25820     25823     25826     25827     25820     25823     25826     25828
     25820     25823     25826     25829     25821     25820     25823     25824
     25821     25820     25823     25825     25821     25820     25823     25826
     25822     25820     25823     25824     25822     25820     25823     25825
     25822     25820     25823     25826     25823     25826     25829     25830
     25823     25826     25829     25831     25823     25826     25829     25832
     25824     25823     25826     25827     25824     25823     25826     25828
     25824     25823     25826     25829     25825     25823     25826     25827
     25825     25823     25826     25828     25825     25823     25826     25829
     25826     25829     25832     25833     25826     25829     25832     25834
     25826     25829     25832     25835     25827     25826     25829     25830
     25827     25826     25829     25831     25827     25826     25829     25832
     25828     25826     25829     25830     25828     25826     25829     25831
     25828     25826     25829     25832     25829     25832     25835     25836
     25829     25832     25835     25837     25829     25832     25835     25838
     25830     25829     25832     25833     25830     25829     25832     25834
     25830     25829     25832     25835     25831     25829     25832     25833
     25831     25829     25832     25834     25831     25829     25832     25835
     25832     25835     25838     25839     25832     25835     25838     25840
     25832     25835     25838     25841     25833     25832     25835     25836
     25833     25832     25835     25837     25833     25832     25835     25838
     25834     25832     25835     25836     25834     25832     25835     25837
     25834     25832     25835     25838     25835     25838     25841     25842
     25835     25838     25841     25843     25835     25838     25841     25844
     25836     25835     25838     25839     25836     25835     25838     25840
     25836     25835     25838     25841     25837     25835     25838     25839
     25837     25835     25838     25840     25837     25835     25838     25841
     25838     25841     25844     25845     25838     25841     25844     25846
     25838     25841     25844     25847     25839     25838     25841     25842
     25839     25838     25841     25843     25839     25838     25841     25844
     25840     25838     25841     25842     25840     25838     25841     25843
     25840     25838     25841     25844     25841     25844     25847     25848
     25841     25844     25847     25849     25841     25844     25847     25850
     25842     25841     25844     25845     25842     25841     25844     25846
     25842     25841     25844     25847     25843     25841     25844     25845
     25843     25841     25844     25846     25843     25841     25844     25847
     25844     25847     25850     25851     25844     25847     25850     25852
     25844     25847     25850     25853     25845     25844     25847     25848
     25845     25844     25847     25849     25845     25844     25847     25850
     25846     25844     25847     25848     25846     25844     25847     25849
     25846     25844     25847     25850     25847     25850     25853     25854
     25847     25850     25853     25855     25847     25850     25853     25856
     25848     25847     25850     25851     25848     25847     25850     25852
     25848     25847     25850     25853     25849     25847     25850     25851
     25849     25847     25850     25852     25849     25847     25850     25853
     25850     25853     25856     25857     25850     25853     25856     25858
     25850     25853     25856     25859     25851     25850     25853     25854
     25851     25850     25853     25855     25851     25850     25853     25856
     25852     25850     25853     25854     25852     25850     25853     25855
     25852     25850     25853     25856     25853     25856     25859     25860
     25853     25856     25859     25861     25853     25856     25859     25862
     25854     25853     25856     25857     25854     25853     25856     25858
     25854     25853     25856     25859     25855     25853     25856     25857
     25855     25853     25856     25858     25855     25853     25856     25859
     25857     25856     25859     25860     25857     25856     25859     25861
     25857     25856     25859     25862     25858     25856     25859     25860
     25858     25856     25859     25861     25858     25856     25859     25862
     25863     25864     25879     25880     25863     25864     25879     25881
     25863     25864     25879     25885     25864     25863     25867     25868
     25864     25863     25867     25869     25864     25863     25867     25870
     25864     25863     25871     25872     25864     25863     25871     25873
     25864     25863     25871     25874     25864     25863     25875     25876
     25864     25863     25875     25877     25864     25863     25875     25878
     25864     25879     25885     25882     25865     25864     25863     25867
     25865     25864     25863     25871     25865     25864     25863     25875
     25865     25864     25879     25880     25865     25864     25879     25881
     25865     25864     25879     25885     25866     25864     25863     25867
     25866     25864     25863     25871     25866     25864     25863     25875
     25866     25864     25879     25880     25866     25864     25879     25881
     25866     25864     25879     25885     25867     25863     25864     25879
     25867     25863     25871     25872     25867     25863     25871     25873
     25867     25863     25871     25874     25867     25863     25875     25876
     25867     25863     25875     25877     25867     25863     25875     25878
     25868     25867     25863     25871     25868     25867     25863     25875
     25869     25867     25863     25871     25869     25867     25863     25875
     25870     25867     25863     25871     25870     25867     25863     25875
     25871     25863     25864     25879     25871     25863     25875     25876
     25871     25863     25875     25877     25871     25863     25875     25878
     25872     25871     25863     25875     25873     25871     25863     25875
     25874     25871     25863     25875     25875     25863     25864     25879
     25879     25885     25882     25883     25879     25885     25882     25884
     25879     25885     25882     25886     25880     25879     25885     25882
     25881     25879     25885     25882     25882     25886     25887     25888
     25882     25886     25887     25889     25882     25886     25887     25890
     25883     25882     25886     25887     25884     25882     25886     25887
     25885     25882     25886     25887     25886     25887     25890     25891
     25886     25887     25890     25892     25886     25887     25890     25898
     25887     25890     25892     25893     25887     25890     25898     25899
     25887     25890     25898     25900     25887     25890     25898     25901
     25888     25887     25890     25891     25888     25887     25890     25892
     25888     25887     25890     25898     25889     25887     25890     25891
     25889     25887     25890     25892     25889     25887     25890     25898
     25890     25892     25893     25894     25890     25892     25893     25895
     25890     25898     25901     25902     25891     25890     25892     25893
     25891     25890     25898     25899     25891     25890     25898     25900
     25891     25890     25898     25901     25892     25890     25898     25899
     25892     25890     25898     25900     25892     25890     25898     25901
     25892     25893     25895     25896     25892     25893     25895     25897
     25892     25893     25895     25907     25893     25892     25890     25898
     25893     25895     25907     25908     25893     25895     25907     25909
     25893     25895     25907     25910     25894     25893     25895     25896
     25894     25893     25895     25897     25894     25893     25895     25907
     25895     25907     25910     25911     25895     25907     25910     25912
     25895     25907     25910     25913     25896     25895     25907     25908
     25896     25895     25907     25909     25896     25895     25907     25910
     25897     25895     25907     25908     25897     25895     25907     25909
     25897     25895     25907     25910     25898     25901     25902     25903
     25898     25901     25902     25904     25899     25898     25901     25902
     25900     25898     25901     25902     25901     25902     25904     25905
     25901     25902     25904     25906     25901     25902     25904     25954
     25902     25904     25954     25955     25902     25904     25954     25956
     25902     25904     25954     25957     25903     25902     25904     25905
     25903     25902     25904     25906     25903     25902     25904     25954
     25904     25954     25957     25958     25904     25954     25957     25959
     25904     25954     25957     25960     25905     25904     25954     25955
     25905     25904     25954     25956     25905     25904     25954     25957
     25906     25904     25954     25955     25906     25904     25954     25956
     25906     25904     25954     25957     25907     25910     25913     25914
     25907     25910     25913     25915     25907     25910     25913     25916
     25908     25907     25910     25911     25908     25907     25910     25912
     25908     25907     25910     25913     25909     25907     25910     25911
     25909     25907     25910     25912     25909     25907     25910     25913
     25910     25913     25916     25917     25910     25913     25916     25918
     25910     25913     25916     25919     25911     25910     25913     25914
     25911     25910     25913     25915     25911     25910     25913     25916
     25912     25910     25913     25914     25912     25910     25913     25915
     25912     25910     25913     25916     25913     25916     25919     25920
     25913     25916     25919     25921     25913     25916     25919     25922
     25914     25913     25916     25917     25914     25913     25916     25918
     25914     25913     25916     25919     25915     25913     25916     25917
     25915     25913     25916     25918     25915     25913     25916     25919
     25916     25919     25922     25923     25916     25919     25922     25924
     25916     25919     25922     25925     25917     25916     25919     25920
     25917     25916     25919     25921     25917     25916     25919     25922
     25918     25916     25919     25920     25918     25916     25919     25921
     25918     25916     25919     25922     25919     25922     25925     25926
     25919     25922     25925     25927     25920     25919     25922     25923
     25920     25919     25922     25924     25920     25919     25922     25925
     25921     25919     25922     25923     25921     25919     25922     25924
     25921     25919     25922     25925     25922     25925     25927     25928
     25922     25925     25927     25929     25923     25922     25925     25926
     25923     25922     25925     25927     25924     25922     25925     25926
     25924     25922     25925     25927     25925     25927     25929     25930
     25925     25927     25929     25931     25925     25927     25929     25932
     25926     25925     25927     25928     25926     25925     25927     25929
     25927     25929     25932     25933     25927     25929     25932     25934
     25927     25929     25932     25935     25928     25927     25929     25930
     25928     25927     25929     25931     25928     25927     25929     25932
     25929     25932     25935     25936     25929     25932     25935     25937
     25929     25932     25935     25938     25930     25929     25932     25933
     25930     25929     25932     25934     25930     25929     25932     25935
     25931     25929     25932     25933     25931     25929     25932     25934
     25931     25929     25932     25935     25932     25935     25938     25939
     25932     25935     25938     25940     25932     25935     25938     25941
     25933     25932     25935     25936     25933     25932     25935     25937
     25933     25932     25935     25938     25934     25932     25935     25936
     25934     25932     25935     25937     25934     25932     25935     25938
     25935     25938     25941     25942     25935     25938     25941     25943
     25935     25938     25941     25944     25936     25935     25938     25939
     25936     25935     25938     25940     25936     25935     25938     25941
     25937     25935     25938     25939     25937     25935     25938     25940
     25937     25935     25938     25941     25938     25941     25944     25945
     25938     25941     25944     25946     25938     25941     25944     25947
     25939     25938     25941     25942     25939     25938     25941     25943
     25939     25938     25941     25944     25940     25938     25941     25942
     25940     25938     25941     25943     25940     25938     25941     25944
     25941     25944     25947     25948     25941     25944     25947     25949
     25941     25944     25947     25950     25942     25941     25944     25945
     25942     25941     25944     25946     25942     25941     25944     25947
     25943     25941     25944     25945     25943     25941     25944     25946
     25943     25941     25944     25947     25944     25947     25950     25951
     25944     25947     25950     25952     25944     25947     25950     25953
     25945     25944     25947     25948     25945     25944     25947     25949
     25945     25944     25947     25950     25946     25944     25947     25948
     25946     25944     25947     25949     25946     25944     25947     25950
     25948     25947     25950     25951     25948     25947     25950     25952
     25948     25947     25950     25953     25949     25947     25950     25951
     25949     25947     25950     25952     25949     25947     25950     25953
     25954     25957     25960     25961     25954     25957     25960     25962
     25954     25957     25960     25963     25955     25954     25957     25958
     25955     25954     25957     25959     25955     25954     25957     25960
     25956     25954     25957     25958     25956     25954     25957     25959
     25956     25954     25957     25960     25957     25960     25963     25964
     25957     25960     25963     25965     25957     25960     25963     25966
     25958     25957     25960     25961     25958     25957     25960     25962
     25958     25957     25960     25963     25959     25957     25960     25961
     25959     25957     25960     25962     25959     25957     25960     25963
     25960     25963     25966     25967     25960     25963     25966     25968
     25960     25963     25966     25969     25961     25960     25963     25964
     25961     25960     25963     25965     25961     25960     25963     25966
     25962     25960     25963     25964     25962     25960     25963     25965
     25962     25960     25963     25966     25963     25966     25969     25970
     25963     25966     25969     25971     25963     25966     25969     25972
     25964     25963     25966     25967     25964     25963     25966     25968
     25964     25963     25966     25969     25965     25963     25966     25967
     25965     25963     25966     25968     25965     25963     25966     25969
     25966     25969     25972     25973     25966     25969     25972     25974
     25966     25969     25972     25975     25967     25966     25969     25970
     25967     25966     25969     25971     25967     25966     25969     25972
     25968     25966     25969     25970     25968     25966     25969     25971
     25968     25966     25969     25972     25969     25972     25975     25976
     25969     25972     25975     25977     25969     25972     25975     25978
     25970     25969     25972     25973     25970     25969     25972     25974
     25970     25969     25972     25975     25971     25969     25972     25973
     25971     25969     25972     25974     25971     25969     25972     25975
     25972     25975     25978     25979     25972     25975     25978     25980
     25972     25975     25978     25981     25973     25972     25975     25976
     25973     25972     25975     25977     25973     25972     25975     25978
     25974     25972     25975     25976     25974     25972     25975     25977
     25974     25972     25975     25978     25975     25978     25981     25982
     25975     25978     25981     25983     25975     25978     25981     25984
     25976     25975     25978     25979     25976     25975     25978     25980
     25976     25975     25978     25981     25977     25975     25978     25979
     25977     25975     25978     25980     25977     25975     25978     25981
     25978     25981     25984     25985     25978     25981     25984     25986
     25978     25981     25984     25987     25979     25978     25981     25982
     25979     25978     25981     25983     25979     25978     25981     25984
     25980     25978     25981     25982     25980     25978     25981     25983
     25980     25978     25981     25984     25981     25984     25987     25988
     25981     25984     25987     25989     25981     25984     25987     25990
     25982     25981     25984     25985     25982     25981     25984     25986
     25982     25981     25984     25987     25983     25981     25984     25985
     25983     25981     25984     25986     25983     25981     25984     25987
     25984     25987     25990     25991     25984     25987     25990     25992
     25984     25987     25990     25993     25985     25984     25987     25988
     25985     25984     25987     25989     25985     25984     25987     25990
     25986     25984     25987     25988     25986     25984     25987     25989
     25986     25984     25987     25990     25987     25990     25993     25994
     25987     25990     25993     25995     25987     25990     25993     25996
     25988     25987     25990     25991     25988     25987     25990     25992
     25988     25987     25990     25993     25989     25987     25990     25991
     25989     25987     25990     25992     25989     25987     25990     25993
     25991     25990     25993     25994     25991     25990     25993     25995
     25991     25990     25993     25996     25992     25990     25993     25994
     25992     25990     25993     25995     25992     25990     25993     25996
     25997     25998     26013     26014     25997     25998     26013     26015
     25997     25998     26013     26019     25998     25997     26001     26002
     25998     25997     26001     26003     25998     25997     26001     26004
     25998     25997     26005     26006     25998     25997     26005     26007
     25998     25997     26005     26008     25998     25997     26009     26010
     25998     25997     26009     26011     25998     25997     26009     26012
     25998     26013     26019     26016     25999     25998     25997     26001
     25999     25998     25997     26005     25999     25998     25997     26009
     25999     25998     26013     26014     25999     25998     26013     26015
     25999     25998     26013     26019     26000     25998     25997     26001
     26000     25998     25997     26005     26000     25998     25997     26009
     26000     25998     26013     26014     26000     25998     26013     26015
     26000     25998     26013     26019     26001     25997     25998     26013
     26001     25997     26005     26006     26001     25997     26005     26007
     26001     25997     26005     26008     26001     25997     26009     26010
     26001     25997     26009     26011     26001     25997     26009     26012
     26002     26001     25997     26005     26002     26001     25997     26009
     26003     26001     25997     26005     26003     26001     25997     26009
     26004     26001     25997     26005     26004     26001     25997     26009
     26005     25997     25998     26013     26005     25997     26009     26010
     26005     25997     26009     26011     26005     25997     26009     26012
     26006     26005     25997     26009     26007     26005     25997     26009
     26008     26005     25997     26009     26009     25997     25998     26013
     26013     26019     26016     26017     26013     26019     26016     26018
     26013     26019     26016     26020     26014     26013     26019     26016
     26015     26013     26019     26016     26016     26020     26021     26022
     26016     26020     26021     26023     26016     26020     26021     26024
     26017     26016     26020     26021     26018     26016     26020     26021
     26019     26016     26020     26021     26020     26021     26024     26025
     26020     26021     26024     26026     26020     26021     26024     26032
     26021     26024     26026     26027     26021     26024     26032     26033
     26021     26024     26032     26034     26021     26024     26032     26035
     26022     26021     26024     26025     26022     26021     26024     26026
     26022     26021     26024     26032     26023     26021     26024     26025
     26023     26021     26024     26026     26023     26021     26024     26032
     26024     26026     26027     26028     26024     26026     26027     26029
     26024     26032     26035     26036     26025     26024     26026     26027
     26025     26024     26032     26033     26025     26024     26032     26034
     26025     26024     26032     26035     26026     26024     26032     26033
     26026     26024     26032     26034     26026     26024     26032     26035
     26026     26027     26029     26030     26026     26027     26029     26031
     26026     26027     26029     26041     26027     26026     26024     26032
     26027     26029     26041     26042     26027     26029     26041     26043
     26027     26029     26041     26044     26028     26027     26029     26030
     26028     26027     26029     26031     26028     26027     26029     26041
     26029     26041     26044     26045     26029     26041     26044     26046
     26029     26041     26044     26047     26030     26029     26041     26042
     26030     26029     26041     26043     26030     26029     26041     26044
     26031     26029     26041     26042     26031     26029     26041     26043
     26031     26029     26041     26044     26032     26035     26036     26037
     26032     26035     26036     26038     26033     26032     26035     26036
     26034     26032     26035     26036     26035     26036     26038     26039
     26035     26036     26038     26040     26035     26036     26038     26088
     26036     26038     26088     26089     26036     26038     26088     26090
     26036     26038     26088     26091     26037     26036     26038     26039
     26037     26036     26038     26040     26037     26036     26038     26088
     26038     26088     26091     26092     26038     26088     26091     26093
     26038     26088     26091     26094     26039     26038     26088     26089
     26039     26038     26088     26090     26039     26038     26088     26091
     26040     26038     26088     26089     26040     26038     26088     26090
     26040     26038     26088     26091     26041     26044     26047     26048
     26041     26044     26047     26049     26041     26044     26047     26050
     26042     26041     26044     26045     26042     26041     26044     26046
     26042     26041     26044     26047     26043     26041     26044     26045
     26043     26041     26044     26046     26043     26041     26044     26047
     26044     26047     26050     26051     26044     26047     26050     26052
     26044     26047     26050     26053     26045     26044     26047     26048
     26045     26044     26047     26049     26045     26044     26047     26050
     26046     26044     26047     26048     26046     26044     26047     26049
     26046     26044     26047     26050     26047     26050     26053     26054
     26047     26050     26053     26055     26047     26050     26053     26056
     26048     26047     26050     26051     26048     26047     26050     26052
     26048     26047     26050     26053     26049     26047     26050     26051
     26049     26047     26050     26052     26049     26047     26050     26053
     26050     26053     26056     26057     26050     26053     26056     26058
     26050     26053     26056     26059     26051     26050     26053     26054
     26051     26050     26053     26055     26051     26050     26053     26056
     26052     26050     26053     26054     26052     26050     26053     26055
     26052     26050     26053     26056     26053     26056     26059     26060
     26053     26056     26059     26061     26054     26053     26056     26057
     26054     26053     26056     26058     26054     26053     26056     26059
     26055     26053     26056     26057     26055     26053     26056     26058
     26055     26053     26056     26059     26056     26059     26061     26062
     26056     26059     26061     26063     26057     26056     26059     26060
     26057     26056     26059     26061     26058     26056     26059     26060
     26058     26056     26059     26061     26059     26061     26063     26064
     26059     26061     26063     26065     26059     26061     26063     26066
     26060     26059     26061     26062     26060     26059     26061     26063
     26061     26063     26066     26067     26061     26063     26066     26068
     26061     26063     26066     26069     26062     26061     26063     26064
     26062     26061     26063     26065     26062     26061     26063     26066
     26063     26066     26069     26070     26063     26066     26069     26071
     26063     26066     26069     26072     26064     26063     26066     26067
     26064     26063     26066     26068     26064     26063     26066     26069
     26065     26063     26066     26067     26065     26063     26066     26068
     26065     26063     26066     26069     26066     26069     26072     26073
     26066     26069     26072     26074     26066     26069     26072     26075
     26067     26066     26069     26070     26067     26066     26069     26071
     26067     26066     26069     26072     26068     26066     26069     26070
     26068     26066     26069     26071     26068     26066     26069     26072
     26069     26072     26075     26076     26069     26072     26075     26077
     26069     26072     26075     26078     26070     26069     26072     26073
     26070     26069     26072     26074     26070     26069     26072     26075
     26071     26069     26072     26073     26071     26069     26072     26074
     26071     26069     26072     26075     26072     26075     26078     26079
     26072     26075     26078     26080     26072     26075     26078     26081
     26073     26072     26075     26076     26073     26072     26075     26077
     26073     26072     26075     26078     26074     26072     26075     26076
     26074     26072     26075     26077     26074     26072     26075     26078
     26075     26078     26081     26082     26075     26078     26081     26083
     26075     26078     26081     26084     26076     26075     26078     26079
     26076     26075     26078     26080     26076     26075     26078     26081
     26077     26075     26078     26079     26077     26075     26078     26080
     26077     26075     26078     26081     26078     26081     26084     26085
     26078     26081     26084     26086     26078     26081     26084     26087
     26079     26078     26081     26082     26079     26078     26081     26083
     26079     26078     26081     26084     26080     26078     26081     26082
     26080     26078     26081     26083     26080     26078     26081     26084
     26082     26081     26084     26085     26082     26081     26084     26086
     26082     26081     26084     26087     26083     26081     26084     26085
     26083     26081     26084     26086     26083     26081     26084     26087
     26088     26091     26094     26095     26088     26091     26094     26096
     26088     26091     26094     26097     26089     26088     26091     26092
     26089     26088     26091     26093     26089     26088     26091     26094
     26090     26088     26091     26092     26090     26088     26091     26093
     26090     26088     26091     26094     26091     26094     26097     26098
     26091     26094     26097     26099     26091     26094     26097     26100
     26092     26091     26094     26095     26092     26091     26094     26096
     26092     26091     26094     26097     26093     26091     26094     26095
     26093     26091     26094     26096     26093     26091     26094     26097
     26094     26097     26100     26101     26094     26097     26100     26102
     26094     26097     26100     26103     26095     26094     26097     26098
     26095     26094     26097     26099     26095     26094     26097     26100
     26096     26094     26097     26098     26096     26094     26097     26099
     26096     26094     26097     26100     26097     26100     26103     26104
     26097     26100     26103     26105     26097     26100     26103     26106
     26098     26097     26100     26101     26098     26097     26100     26102
     26098     26097     26100     26103     26099     26097     26100     26101
     26099     26097     26100     26102     26099     26097     26100     26103
     26100     26103     26106     26107     26100     26103     26106     26108
     26100     26103     26106     26109     26101     26100     26103     26104
     26101     26100     26103     26105     26101     26100     26103     26106
     26102     26100     26103     26104     26102     26100     26103     26105
     26102     26100     26103     26106     26103     26106     26109     26110
     26103     26106     26109     26111     26103     26106     26109     26112
     26104     26103     26106     26107     26104     26103     26106     26108
     26104     26103     26106     26109     26105     26103     26106     26107
     26105     26103     26106     26108     26105     26103     26106     26109
     26106     26109     26112     26113     26106     26109     26112     26114
     26106     26109     26112     26115     26107     26106     26109     26110
     26107     26106     26109     26111     26107     26106     26109     26112
     26108     26106     26109     26110     26108     26106     26109     26111
     26108     26106     26109     26112     26109     26112     26115     26116
     26109     26112     26115     26117     26109     26112     26115     26118
     26110     26109     26112     26113     26110     26109     26112     26114
     26110     26109     26112     26115     26111     26109     26112     26113
     26111     26109     26112     26114     26111     26109     26112     26115
     26112     26115     26118     26119     26112     26115     26118     26120
     26112     26115     26118     26121     26113     26112     26115     26116
     26113     26112     26115     26117     26113     26112     26115     26118
     26114     26112     26115     26116     26114     26112     26115     26117
     26114     26112     26115     26118     26115     26118     26121     26122
     26115     26118     26121     26123     26115     26118     26121     26124
     26116     26115     26118     26119     26116     26115     26118     26120
     26116     26115     26118     26121     26117     26115     26118     26119
     26117     26115     26118     26120     26117     26115     26118     26121
     26118     26121     26124     26125     26118     26121     26124     26126
     26118     26121     26124     26127     26119     26118     26121     26122
     26119     26118     26121     26123     26119     26118     26121     26124
     26120     26118     26121     26122     26120     26118     26121     26123
     26120     26118     26121     26124     26121     26124     26127     26128
     26121     26124     26127     26129     26121     26124     26127     26130
     26122     26121     26124     26125     26122     26121     26124     26126
     26122     26121     26124     26127     26123     26121     26124     26125
     26123     26121     26124     26126     26123     26121     26124     26127
     26125     26124     26127     26128     26125     26124     26127     26129
     26125     26124     26127     26130     26126     26124     26127     26128
     26126     26124     26127     26129     26126     26124     26127     26130
     26131     26132     26147     26148     26131     26132     26147     26149
     26131     26132     26147     26153     26132     26131     26135     26136
     26132     26131     26135     26137     26132     26131     26135     26138
     26132     26131     26139     26140     26132     26131     26139     26141
     26132     26131     26139     26142     26132     26131     26143     26144
     26132     26131     26143     26145     26132     26131     26143     26146
     26132     26147     26153     26150     26133     26132     26131     26135
     26133     26132     26131     26139     26133     26132     26131     26143
     26133     26132     26147     26148     26133     26132     26147     26149
     26133     26132     26147     26153     26134     26132     26131     26135
     26134     26132     26131     26139     26134     26132     26131     26143
     26134     26132     26147     26148     26134     26132     26147     26149
     26134     26132     26147     26153     26135     26131     26132     26147
     26135     26131     26139     26140     26135     26131     26139     26141
     26135     26131     26139     26142     26135     26131     26143     26144
     26135     26131     26143     26145     26135     26131     26143     26146
     26136     26135     26131     26139     26136     26135     26131     26143
     26137     26135     26131     26139     26137     26135     26131     26143
     26138     26135     26131     26139     26138     26135     26131     26143
     26139     26131     26132     26147     26139     26131     26143     26144
     26139     26131     26143     26145     26139     26131     26143     26146
     26140     26139     26131     26143     26141     26139     26131     26143
     26142     26139     26131     26143     26143     26131     26132     26147
     26147     26153     26150     26151     26147     26153     26150     26152
     26147     26153     26150     26154     26148     26147     26153     26150
     26149     26147     26153     26150     26150     26154     26155     26156
     26150     26154     26155     26157     26150     26154     26155     26158
     26151     26150     26154     26155     26152     26150     26154     26155
     26153     26150     26154     26155     26154     26155     26158     26159
     26154     26155     26158     26160     26154     26155     26158     26166
     26155     26158     26160     26161     26155     26158     26166     26167
     26155     26158     26166     26168     26155     26158     26166     26169
     26156     26155     26158     26159     26156     26155     26158     26160
     26156     26155     26158     26166     26157     26155     26158     26159
     26157     26155     26158     26160     26157     26155     26158     26166
     26158     26160     26161     26162     26158     26160     26161     26163
     26158     26166     26169     26170     26159     26158     26160     26161
     26159     26158     26166     26167     26159     26158     26166     26168
     26159     26158     26166     26169     26160     26158     26166     26167
     26160     26158     26166     26168     26160     26158     26166     26169
     26160     26161     26163     26164     26160     26161     26163     26165
     26160     26161     26163     26175     26161     26160     26158     26166
     26161     26163     26175     26176     26161     26163     26175     26177
     26161     26163     26175     26178     26162     26161     26163     26164
     26162     26161     26163     26165     26162     26161     26163     26175
     26163     26175     26178     26179     26163     26175     26178     26180
     26163     26175     26178     26181     26164     26163     26175     26176
     26164     26163     26175     26177     26164     26163     26175     26178
     26165     26163     26175     26176     26165     26163     26175     26177
     26165     26163     26175     26178     26166     26169     26170     26171
     26166     26169     26170     26172     26167     26166     26169     26170
     26168     26166     26169     26170     26169     26170     26172     26173
     26169     26170     26172     26174     26169     26170     26172     26222
     26170     26172     26222     26223     26170     26172     26222     26224
     26170     26172     26222     26225     26171     26170     26172     26173
     26171     26170     26172     26174     26171     26170     26172     26222
     26172     26222     26225     26226     26172     26222     26225     26227
     26172     26222     26225     26228     26173     26172     26222     26223
     26173     26172     26222     26224     26173     26172     26222     26225
     26174     26172     26222     26223     26174     26172     26222     26224
     26174     26172     26222     26225     26175     26178     26181     26182
     26175     26178     26181     26183     26175     26178     26181     26184
     26176     26175     26178     26179     26176     26175     26178     26180
     26176     26175     26178     26181     26177     26175     26178     26179
     26177     26175     26178     26180     26177     26175     26178     26181
     26178     26181     26184     26185     26178     26181     26184     26186
     26178     26181     26184     26187     26179     26178     26181     26182
     26179     26178     26181     26183     26179     26178     26181     26184
     26180     26178     26181     26182     26180     26178     26181     26183
     26180     26178     26181     26184     26181     26184     26187     26188
     26181     26184     26187     26189     26181     26184     26187     26190
     26182     26181     26184     26185     26182     26181     26184     26186
     26182     26181     26184     26187     26183     26181     26184     26185
     26183     26181     26184     26186     26183     26181     26184     26187
     26184     26187     26190     26191     26184     26187     26190     26192
     26184     26187     26190     26193     26185     26184     26187     26188
     26185     26184     26187     26189     26185     26184     26187     26190
     26186     26184     26187     26188     26186     26184     26187     26189
     26186     26184     26187     26190     26187     26190     26193     26194
     26187     26190     26193     26195     26188     26187     26190     26191
     26188     26187     26190     26192     26188     26187     26190     26193
     26189     26187     26190     26191     26189     26187     26190     26192
     26189     26187     26190     26193     26190     26193     26195     26196
     26190     26193     26195     26197     26191     26190     26193     26194
     26191     26190     26193     26195     26192     26190     26193     26194
     26192     26190     26193     26195     26193     26195     26197     26198
     26193     26195     26197     26199     26193     26195     26197     26200
     26194     26193     26195     26196     26194     26193     26195     26197
     26195     26197     26200     26201     26195     26197     26200     26202
     26195     26197     26200     26203     26196     26195     26197     26198
     26196     26195     26197     26199     26196     26195     26197     26200
     26197     26200     26203     26204     26197     26200     26203     26205
     26197     26200     26203     26206     26198     26197     26200     26201
     26198     26197     26200     26202     26198     26197     26200     26203
     26199     26197     26200     26201     26199     26197     26200     26202
     26199     26197     26200     26203     26200     26203     26206     26207
     26200     26203     26206     26208     26200     26203     26206     26209
     26201     26200     26203     26204     26201     26200     26203     26205
     26201     26200     26203     26206     26202     26200     26203     26204
     26202     26200     26203     26205     26202     26200     26203     26206
     26203     26206     26209     26210     26203     26206     26209     26211
     26203     26206     26209     26212     26204     26203     26206     26207
     26204     26203     26206     26208     26204     26203     26206     26209
     26205     26203     26206     26207     26205     26203     26206     26208
     26205     26203     26206     26209     26206     26209     26212     26213
     26206     26209     26212     26214     26206     26209     26212     26215
     26207     26206     26209     26210     26207     26206     26209     26211
     26207     26206     26209     26212     26208     26206     26209     26210
     26208     26206     26209     26211     26208     26206     26209     26212
     26209     26212     26215     26216     26209     26212     26215     26217
     26209     26212     26215     26218     26210     26209     26212     26213
     26210     26209     26212     26214     26210     26209     26212     26215
     26211     26209     26212     26213     26211     26209     26212     26214
     26211     26209     26212     26215     26212     26215     26218     26219
     26212     26215     26218     26220     26212     26215     26218     26221
     26213     26212     26215     26216     26213     26212     26215     26217
     26213     26212     26215     26218     26214     26212     26215     26216
     26214     26212     26215     26217     26214     26212     26215     26218
     26216     26215     26218     26219     26216     26215     26218     26220
     26216     26215     26218     26221     26217     26215     26218     26219
     26217     26215     26218     26220     26217     26215     26218     26221
     26222     26225     26228     26229     26222     26225     26228     26230
     26222     26225     26228     26231     26223     26222     26225     26226
     26223     26222     26225     26227     26223     26222     26225     26228
     26224     26222     26225     26226     26224     26222     26225     26227
     26224     26222     26225     26228     26225     26228     26231     26232
     26225     26228     26231     26233     26225     26228     26231     26234
     26226     26225     26228     26229     26226     26225     26228     26230
     26226     26225     26228     26231     26227     26225     26228     26229
     26227     26225     26228     26230     26227     26225     26228     26231
     26228     26231     26234     26235     26228     26231     26234     26236
     26228     26231     26234     26237     26229     26228     26231     26232
     26229     26228     26231     26233     26229     26228     26231     26234
     26230     26228     26231     26232     26230     26228     26231     26233
     26230     26228     26231     26234     26231     26234     26237     26238
     26231     26234     26237     26239     26231     26234     26237     26240
     26232     26231     26234     26235     26232     26231     26234     26236
     26232     26231     26234     26237     26233     26231     26234     26235
     26233     26231     26234     26236     26233     26231     26234     26237
     26234     26237     26240     26241     26234     26237     26240     26242
     26234     26237     26240     26243     26235     26234     26237     26238
     26235     26234     26237     26239     26235     26234     26237     26240
     26236     26234     26237     26238     26236     26234     26237     26239
     26236     26234     26237     26240     26237     26240     26243     26244
     26237     26240     26243     26245     26237     26240     26243     26246
     26238     26237     26240     26241     26238     26237     26240     26242
     26238     26237     26240     26243     26239     26237     26240     26241
     26239     26237     26240     26242     26239     26237     26240     26243
     26240     26243     26246     26247     26240     26243     26246     26248
     26240     26243     26246     26249     26241     26240     26243     26244
     26241     26240     26243     26245     26241     26240     26243     26246
     26242     26240     26243     26244     26242     26240     26243     26245
     26242     26240     26243     26246     26243     26246     26249     26250
     26243     26246     26249     26251     26243     26246     26249     26252
     26244     26243     26246     26247     26244     26243     26246     26248
     26244     26243     26246     26249     26245     26243     26246     26247
     26245     26243     26246     26248     26245     26243     26246     26249
     26246     26249     26252     26253     26246     26249     26252     26254
     26246     26249     26252     26255     26247     26246     26249     26250
     26247     26246     26249     26251     26247     26246     26249     26252
     26248     26246     26249     26250     26248     26246     26249     26251
     26248     26246     26249     26252     26249     26252     26255     26256
     26249     26252     26255     26257     26249     26252     26255     26258
     26250     26249     26252     26253     26250     26249     26252     26254
     26250     26249     26252     26255     26251     26249     26252     26253
     26251     26249     26252     26254     26251     26249     26252     26255
     26252     26255     26258     26259     26252     26255     26258     26260
     26252     26255     26258     26261     26253     26252     26255     26256
     26253     26252     26255     26257     26253     26252     26255     26258
     26254     26252     26255     26256     26254     26252     26255     26257
     26254     26252     26255     26258     26255     26258     26261     26262
     26255     26258     26261     26263     26255     26258     26261     26264
     26256     26255     26258     26259     26256     26255     26258     26260
     26256     26255     26258     26261     26257     26255     26258     26259
     26257     26255     26258     26260     26257     26255     26258     26261
     26259     26258     26261     26262     26259     26258     26261     26263
     26259     26258     26261     26264     26260     26258     26261     26262
     26260     26258     26261     26263     26260     26258     26261     26264
     26265     26266     26281     26282     26265     26266     26281     26283
     26265     26266     26281     26287     26266     26265     26269     26270
     26266     26265     26269     26271     26266     26265     26269     26272
     26266     26265     26273     26274     26266     26265     26273     26275
     26266     26265     26273     26276     26266     26265     26277     26278
     26266     26265     26277     26279     26266     26265     26277     26280
     26266     26281     26287     26284     26267     26266     26265     26269
     26267     26266     26265     26273     26267     26266     26265     26277
     26267     26266     26281     26282     26267     26266     26281     26283
     26267     26266     26281     26287     26268     26266     26265     26269
     26268     26266     26265     26273     26268     26266     26265     26277
     26268     26266     26281     26282     26268     26266     26281     26283
     26268     26266     26281     26287     26269     26265     26266     26281
     26269     26265     26273     26274     26269     26265     26273     26275
     26269     26265     26273     26276     26269     26265     26277     26278
     26269     26265     26277     26279     26269     26265     26277     26280
     26270     26269     26265     26273     26270     26269     26265     26277
     26271     26269     26265     26273     26271     26269     26265     26277
     26272     26269     26265     26273     26272     26269     26265     26277
     26273     26265     26266     26281     26273     26265     26277     26278
     26273     26265     26277     26279     26273     26265     26277     26280
     26274     26273     26265     26277     26275     26273     26265     26277
     26276     26273     26265     26277     26277     26265     26266     26281
     26281     26287     26284     26285     26281     26287     26284     26286
     26281     26287     26284     26288     26282     26281     26287     26284
     26283     26281     26287     26284     26284     26288     26289     26290
     26284     26288     26289     26291     26284     26288     26289     26292
     26285     26284     26288     26289     26286     26284     26288     26289
     26287     26284     26288     26289     26288     26289     26292     26293
     26288     26289     26292     26294     26288     26289     26292     26300
     26289     26292     26294     26295     26289     26292     26300     26301
     26289     26292     26300     26302     26289     26292     26300     26303
     26290     26289     26292     26293     26290     26289     26292     26294
     26290     26289     26292     26300     26291     26289     26292     26293
     26291     26289     26292     26294     26291     26289     26292     26300
     26292     26294     26295     26296     26292     26294     26295     26297
     26292     26300     26303     26304     26293     26292     26294     26295
     26293     26292     26300     26301     26293     26292     26300     26302
     26293     26292     26300     26303     26294     26292     26300     26301
     26294     26292     26300     26302     26294     26292     26300     26303
     26294     26295     26297     26298     26294     26295     26297     26299
     26294     26295     26297     26309     26295     26294     26292     26300
     26295     26297     26309     26310     26295     26297     26309     26311
     26295     26297     26309     26312     26296     26295     26297     26298
     26296     26295     26297     26299     26296     26295     26297     26309
     26297     26309     26312     26313     26297     26309     26312     26314
     26297     26309     26312     26315     26298     26297     26309     26310
     26298     26297     26309     26311     26298     26297     26309     26312
     26299     26297     26309     26310     26299     26297     26309     26311
     26299     26297     26309     26312     26300     26303     26304     26305
     26300     26303     26304     26306     26301     26300     26303     26304
     26302     26300     26303     26304     26303     26304     26306     26307
     26303     26304     26306     26308     26303     26304     26306     26356
     26304     26306     26356     26357     26304     26306     26356     26358
     26304     26306     26356     26359     26305     26304     26306     26307
     26305     26304     26306     26308     26305     26304     26306     26356
     26306     26356     26359     26360     26306     26356     26359     26361
     26306     26356     26359     26362     26307     26306     26356     26357
     26307     26306     26356     26358     26307     26306     26356     26359
     26308     26306     26356     26357     26308     26306     26356     26358
     26308     26306     26356     26359     26309     26312     26315     26316
     26309     26312     26315     26317     26309     26312     26315     26318
     26310     26309     26312     26313     26310     26309     26312     26314
     26310     26309     26312     26315     26311     26309     26312     26313
     26311     26309     26312     26314     26311     26309     26312     26315
     26312     26315     26318     26319     26312     26315     26318     26320
     26312     26315     26318     26321     26313     26312     26315     26316
     26313     26312     26315     26317     26313     26312     26315     26318
     26314     26312     26315     26316     26314     26312     26315     26317
     26314     26312     26315     26318     26315     26318     26321     26322
     26315     26318     26321     26323     26315     26318     26321     26324
     26316     26315     26318     26319     26316     26315     26318     26320
     26316     26315     26318     26321     26317     26315     26318     26319
     26317     26315     26318     26320     26317     26315     26318     26321
     26318     26321     26324     26325     26318     26321     26324     26326
     26318     26321     26324     26327     26319     26318     26321     26322
     26319     26318     26321     26323     26319     26318     26321     26324
     26320     26318     26321     26322     26320     26318     26321     26323
     26320     26318     26321     26324     26321     26324     26327     26328
     26321     26324     26327     26329     26322     26321     26324     26325
     26322     26321     26324     26326     26322     26321     26324     26327
     26323     26321     26324     26325     26323     26321     26324     26326
     26323     26321     26324     26327     26324     26327     26329     26330
     26324     26327     26329     26331     26325     26324     26327     26328
     26325     26324     26327     26329     26326     26324     26327     26328
     26326     26324     26327     26329     26327     26329     26331     26332
     26327     26329     26331     26333     26327     26329     26331     26334
     26328     26327     26329     26330     26328     26327     26329     26331
     26329     26331     26334     26335     26329     26331     26334     26336
     26329     26331     26334     26337     26330     26329     26331     26332
     26330     26329     26331     26333     26330     26329     26331     26334
     26331     26334     26337     26338     26331     26334     26337     26339
     26331     26334     26337     26340     26332     26331     26334     26335
     26332     26331     26334     26336     26332     26331     26334     26337
     26333     26331     26334     26335     26333     26331     26334     26336
     26333     26331     26334     26337     26334     26337     26340     26341
     26334     26337     26340     26342     26334     26337     26340     26343
     26335     26334     26337     26338     26335     26334     26337     26339
     26335     26334     26337     26340     26336     26334     26337     26338
     26336     26334     26337     26339     26336     26334     26337     26340
     26337     26340     26343     26344     26337     26340     26343     26345
     26337     26340     26343     26346     26338     26337     26340     26341
     26338     26337     26340     26342     26338     26337     26340     26343
     26339     26337     26340     26341     26339     26337     26340     26342
     26339     26337     26340     26343     26340     26343     26346     26347
     26340     26343     26346     26348     26340     26343     26346     26349
     26341     26340     26343     26344     26341     26340     26343     26345
     26341     26340     26343     26346     26342     26340     26343     26344
     26342     26340     26343     26345     26342     26340     26343     26346
     26343     26346     26349     26350     26343     26346     26349     26351
     26343     26346     26349     26352     26344     26343     26346     26347
     26344     26343     26346     26348     26344     26343     26346     26349
     26345     26343     26346     26347     26345     26343     26346     26348
     26345     26343     26346     26349     26346     26349     26352     26353
     26346     26349     26352     26354     26346     26349     26352     26355
     26347     26346     26349     26350     26347     26346     26349     26351
     26347     26346     26349     26352     26348     26346     26349     26350
     26348     26346     26349     26351     26348     26346     26349     26352
     26350     26349     26352     26353     26350     26349     26352     26354
     26350     26349     26352     26355     26351     26349     26352     26353
     26351     26349     26352     26354     26351     26349     26352     26355
     26356     26359     26362     26363     26356     26359     26362     26364
     26356     26359     26362     26365     26357     26356     26359     26360
     26357     26356     26359     26361     26357     26356     26359     26362
     26358     26356     26359     26360     26358     26356     26359     26361
     26358     26356     26359     26362     26359     26362     26365     26366
     26359     26362     26365     26367     26359     26362     26365     26368
     26360     26359     26362     26363     26360     26359     26362     26364
     26360     26359     26362     26365     26361     26359     26362     26363
     26361     26359     26362     26364     26361     26359     26362     26365
     26362     26365     26368     26369     26362     26365     26368     26370
     26362     26365     26368     26371     26363     26362     26365     26366
     26363     26362     26365     26367     26363     26362     26365     26368
     26364     26362     26365     26366     26364     26362     26365     26367
     26364     26362     26365     26368     26365     26368     26371     26372
     26365     26368     26371     26373     26365     26368     26371     26374
     26366     26365     26368     26369     26366     26365     26368     26370
     26366     26365     26368     26371     26367     26365     26368     26369
     26367     26365     26368     26370     26367     26365     26368     26371
     26368     26371     26374     26375     26368     26371     26374     26376
     26368     26371     26374     26377     26369     26368     26371     26372
     26369     26368     26371     26373     26369     26368     26371     26374
     26370     26368     26371     26372     26370     26368     26371     26373
     26370     26368     26371     26374     26371     26374     26377     26378
     26371     26374     26377     26379     26371     26374     26377     26380
     26372     26371     26374     26375     26372     26371     26374     26376
     26372     26371     26374     26377     26373     26371     26374     26375
     26373     26371     26374     26376     26373     26371     26374     26377
     26374     26377     26380     26381     26374     26377     26380     26382
     26374     26377     26380     26383     26375     26374     26377     26378
     26375     26374     26377     26379     26375     26374     26377     26380
     26376     26374     26377     26378     26376     26374     26377     26379
     26376     26374     26377     26380     26377     26380     26383     26384
     26377     26380     26383     26385     26377     26380     26383     26386
     26378     26377     26380     26381     26378     26377     26380     26382
     26378     26377     26380     26383     26379     26377     26380     26381
     26379     26377     26380     26382     26379     26377     26380     26383
     26380     26383     26386     26387     26380     26383     26386     26388
     26380     26383     26386     26389     26381     26380     26383     26384
     26381     26380     26383     26385     26381     26380     26383     26386
     26382     26380     26383     26384     26382     26380     26383     26385
     26382     26380     26383     26386     26383     26386     26389     26390
     26383     26386     26389     26391     26383     26386     26389     26392
     26384     26383     26386     26387     26384     26383     26386     26388
     26384     26383     26386     26389     26385     26383     26386     26387
     26385     26383     26386     26388     26385     26383     26386     26389
     26386     26389     26392     26393     26386     26389     26392     26394
     26386     26389     26392     26395     26387     26386     26389     26390
     26387     26386     26389     26391     26387     26386     26389     26392
     26388     26386     26389     26390     26388     26386     26389     26391
     26388     26386     26389     26392     26389     26392     26395     26396
     26389     26392     26395     26397     26389     26392     26395     26398
     26390     26389     26392     26393     26390     26389     26392     26394
     26390     26389     26392     26395     26391     26389     26392     26393
     26391     26389     26392     26394     26391     26389     26392     26395
     26393     26392     26395     26396     26393     26392     26395     26397
     26393     26392     26395     26398     26394     26392     26395     26396
     26394     26392     26395     26397     26394     26392     26395     26398
     26399     26400     26415     26416     26399     26400     26415     26417
     26399     26400     26415     26421     26400     26399     26403     26404
     26400     26399     26403     26405     26400     26399     26403     26406
     26400     26399     26407     26408     26400     26399     26407     26409
     26400     26399     26407     26410     26400     26399     26411     26412
     26400     26399     26411     26413     26400     26399     26411     26414
     26400     26415     26421     26418     26401     26400     26399     26403
     26401     26400     26399     26407     26401     26400     26399     26411
     26401     26400     26415     26416     26401     26400     26415     26417
     26401     26400     26415     26421     26402     26400     26399     26403
     26402     26400     26399     26407     26402     26400     26399     26411
     26402     26400     26415     26416     26402     26400     26415     26417
     26402     26400     26415     26421     26403     26399     26400     26415
     26403     26399     26407     26408     26403     26399     26407     26409
     26403     26399     26407     26410     26403     26399     26411     26412
     26403     26399     26411     26413     26403     26399     26411     26414
     26404     26403     26399     26407     26404     26403     26399     26411
     26405     26403     26399     26407     26405     26403     26399     26411
     26406     26403     26399     26407     26406     26403     26399     26411
     26407     26399     26400     26415     26407     26399     26411     26412
     26407     26399     26411     26413     26407     26399     26411     26414
     26408     26407     26399     26411     26409     26407     26399     26411
     26410     26407     26399     26411     26411     26399     26400     26415
     26415     26421     26418     26419     26415     26421     26418     26420
     26415     26421     26418     26422     26416     26415     26421     26418
     26417     26415     26421     26418     26418     26422     26423     26424
     26418     26422     26423     26425     26418     26422     26423     26426
     26419     26418     26422     26423     26420     26418     26422     26423
     26421     26418     26422     26423     26422     26423     26426     26427
     26422     26423     26426     26428     26422     26423     26426     26434
     26423     26426     26428     26429     26423     26426     26434     26435
     26423     26426     26434     26436     26423     26426     26434     26437
     26424     26423     26426     26427     26424     26423     26426     26428
     26424     26423     26426     26434     26425     26423     26426     26427
     26425     26423     26426     26428     26425     26423     26426     26434
     26426     26428     26429     26430     26426     26428     26429     26431
     26426     26434     26437     26438     26427     26426     26428     26429
     26427     26426     26434     26435     26427     26426     26434     26436
     26427     26426     26434     26437     26428     26426     26434     26435
     26428     26426     26434     26436     26428     26426     26434     26437
     26428     26429     26431     26432     26428     26429     26431     26433
     26428     26429     26431     26443     26429     26428     26426     26434
     26429     26431     26443     26444     26429     26431     26443     26445
     26429     26431     26443     26446     26430     26429     26431     26432
     26430     26429     26431     26433     26430     26429     26431     26443
     26431     26443     26446     26447     26431     26443     26446     26448
     26431     26443     26446     26449     26432     26431     26443     26444
     26432     26431     26443     26445     26432     26431     26443     26446
     26433     26431     26443     26444     26433     26431     26443     26445
     26433     26431     26443     26446     26434     26437     26438     26439
     26434     26437     26438     26440     26435     26434     26437     26438
     26436     26434     26437     26438     26437     26438     26440     26441
     26437     26438     26440     26442     26437     26438     26440     26490
     26438     26440     26490     26491     26438     26440     26490     26492
     26438     26440     26490     26493     26439     26438     26440     26441
     26439     26438     26440     26442     26439     26438     26440     26490
     26440     26490     26493     26494     26440     26490     26493     26495
     26440     26490     26493     26496     26441     26440     26490     26491
     26441     26440     26490     26492     26441     26440     26490     26493
     26442     26440     26490     26491     26442     26440     26490     26492
     26442     26440     26490     26493     26443     26446     26449     26450
     26443     26446     26449     26451     26443     26446     26449     26452
     26444     26443     26446     26447     26444     26443     26446     26448
     26444     26443     26446     26449     26445     26443     26446     26447
     26445     26443     26446     26448     26445     26443     26446     26449
     26446     26449     26452     26453     26446     26449     26452     26454
     26446     26449     26452     26455     26447     26446     26449     26450
     26447     26446     26449     26451     26447     26446     26449     26452
     26448     26446     26449     26450     26448     26446     26449     26451
     26448     26446     26449     26452     26449     26452     26455     26456
     26449     26452     26455     26457     26449     26452     26455     26458
     26450     26449     26452     26453     26450     26449     26452     26454
     26450     26449     26452     26455     26451     26449     26452     26453
     26451     26449     26452     26454     26451     26449     26452     26455
     26452     26455     26458     26459     26452     26455     26458     26460
     26452     26455     26458     26461     26453     26452     26455     26456
     26453     26452     26455     26457     26453     26452     26455     26458
     26454     26452     26455     26456     26454     26452     26455     26457
     26454     26452     26455     26458     26455     26458     26461     26462
     26455     26458     26461     26463     26456     26455     26458     26459
     26456     26455     26458     26460     26456     26455     26458     26461
     26457     26455     26458     26459     26457     26455     26458     26460
     26457     26455     26458     26461     26458     26461     26463     26464
     26458     26461     26463     26465     26459     26458     26461     26462
     26459     26458     26461     26463     26460     26458     26461     26462
     26460     26458     26461     26463     26461     26463     26465     26466
     26461     26463     26465     26467     26461     26463     26465     26468
     26462     26461     26463     26464     26462     26461     26463     26465
     26463     26465     26468     26469     26463     26465     26468     26470
     26463     26465     26468     26471     26464     26463     26465     26466
     26464     26463     26465     26467     26464     26463     26465     26468
     26465     26468     26471     26472     26465     26468     26471     26473
     26465     26468     26471     26474     26466     26465     26468     26469
     26466     26465     26468     26470     26466     26465     26468     26471
     26467     26465     26468     26469     26467     26465     26468     26470
     26467     26465     26468     26471     26468     26471     26474     26475
     26468     26471     26474     26476     26468     26471     26474     26477
     26469     26468     26471     26472     26469     26468     26471     26473
     26469     26468     26471     26474     26470     26468     26471     26472
     26470     26468     26471     26473     26470     26468     26471     26474
     26471     26474     26477     26478     26471     26474     26477     26479
     26471     26474     26477     26480     26472     26471     26474     26475
     26472     26471     26474     26476     26472     26471     26474     26477
     26473     26471     26474     26475     26473     26471     26474     26476
     26473     26471     26474     26477     26474     26477     26480     26481
     26474     26477     26480     26482     26474     26477     26480     26483
     26475     26474     26477     26478     26475     26474     26477     26479
     26475     26474     26477     26480     26476     26474     26477     26478
     26476     26474     26477     26479     26476     26474     26477     26480
     26477     26480     26483     26484     26477     26480     26483     26485
     26477     26480     26483     26486     26478     26477     26480     26481
     26478     26477     26480     26482     26478     26477     26480     26483
     26479     26477     26480     26481     26479     26477     26480     26482
     26479     26477     26480     26483     26480     26483     26486     26487
     26480     26483     26486     26488     26480     26483     26486     26489
     26481     26480     26483     26484     26481     26480     26483     26485
     26481     26480     26483     26486     26482     26480     26483     26484
     26482     26480     26483     26485     26482     26480     26483     26486
     26484     26483     26486     26487     26484     26483     26486     26488
     26484     26483     26486     26489     26485     26483     26486     26487
     26485     26483     26486     26488     26485     26483     26486     26489
     26490     26493     26496     26497     26490     26493     26496     26498
     26490     26493     26496     26499     26491     26490     26493     26494
     26491     26490     26493     26495     26491     26490     26493     26496
     26492     26490     26493     26494     26492     26490     26493     26495
     26492     26490     26493     26496     26493     26496     26499     26500
     26493     26496     26499     26501     26493     26496     26499     26502
     26494     26493     26496     26497     26494     26493     26496     26498
     26494     26493     26496     26499     26495     26493     26496     26497
     26495     26493     26496     26498     26495     26493     26496     26499
     26496     26499     26502     26503     26496     26499     26502     26504
     26496     26499     26502     26505     26497     26496     26499     26500
     26497     26496     26499     26501     26497     26496     26499     26502
     26498     26496     26499     26500     26498     26496     26499     26501
     26498     26496     26499     26502     26499     26502     26505     26506
     26499     26502     26505     26507     26499     26502     26505     26508
     26500     26499     26502     26503     26500     26499     26502     26504
     26500     26499     26502     26505     26501     26499     26502     26503
     26501     26499     26502     26504     26501     26499     26502     26505
     26502     26505     26508     26509     26502     26505     26508     26510
     26502     26505     26508     26511     26503     26502     26505     26506
     26503     26502     26505     26507     26503     26502     26505     26508
     26504     26502     26505     26506     26504     26502     26505     26507
     26504     26502     26505     26508     26505     26508     26511     26512
     26505     26508     26511     26513     26505     26508     26511     26514
     26506     26505     26508     26509     26506     26505     26508     26510
     26506     26505     26508     26511     26507     26505     26508     26509
     26507     26505     26508     26510     26507     26505     26508     26511
     26508     26511     26514     26515     26508     26511     26514     26516
     26508     26511     26514     26517     26509     26508     26511     26512
     26509     26508     26511     26513     26509     26508     26511     26514
     26510     26508     26511     26512     26510     26508     26511     26513
     26510     26508     26511     26514     26511     26514     26517     26518
     26511     26514     26517     26519     26511     26514     26517     26520
     26512     26511     26514     26515     26512     26511     26514     26516
     26512     26511     26514     26517     26513     26511     26514     26515
     26513     26511     26514     26516     26513     26511     26514     26517
     26514     26517     26520     26521     26514     26517     26520     26522
     26514     26517     26520     26523     26515     26514     26517     26518
     26515     26514     26517     26519     26515     26514     26517     26520
     26516     26514     26517     26518     26516     26514     26517     26519
     26516     26514     26517     26520     26517     26520     26523     26524
     26517     26520     26523     26525     26517     26520     26523     26526
     26518     26517     26520     26521     26518     26517     26520     26522
     26518     26517     26520     26523     26519     26517     26520     26521
     26519     26517     26520     26522     26519     26517     26520     26523
     26520     26523     26526     26527     26520     26523     26526     26528
     26520     26523     26526     26529     26521     26520     26523     26524
     26521     26520     26523     26525     26521     26520     26523     26526
     26522     26520     26523     26524     26522     26520     26523     26525
     26522     26520     26523     26526     26523     26526     26529     26530
     26523     26526     26529     26531     26523     26526     26529     26532
     26524     26523     26526     26527     26524     26523     26526     26528
     26524     26523     26526     26529     26525     26523     26526     26527
     26525     26523     26526     26528     26525     26523     26526     26529
     26527     26526     26529     26530     26527     26526     26529     26531
     26527     26526     26529     26532     26528     26526     26529     26530
     26528     26526     26529     26531     26528     26526     26529     26532
     26533     26534     26549     26550     26533     26534     26549     26551
     26533     26534     26549     26555     26534     26533     26537     26538
     26534     26533     26537     26539     26534     26533     26537     26540
     26534     26533     26541     26542     26534     26533     26541     26543
     26534     26533     26541     26544     26534     26533     26545     26546
     26534     26533     26545     26547     26534     26533     26545     26548
     26534     26549     26555     26552     26535     26534     26533     26537
     26535     26534     26533     26541     26535     26534     26533     26545
     26535     26534     26549     26550     26535     26534     26549     26551
     26535     26534     26549     26555     26536     26534     26533     26537
     26536     26534     26533     26541     26536     26534     26533     26545
     26536     26534     26549     26550     26536     26534     26549     26551
     26536     26534     26549     26555     26537     26533     26534     26549
     26537     26533     26541     26542     26537     26533     26541     26543
     26537     26533     26541     26544     26537     26533     26545     26546
     26537     26533     26545     26547     26537     26533     26545     26548
     26538     26537     26533     26541     26538     26537     26533     26545
     26539     26537     26533     26541     26539     26537     26533     26545
     26540     26537     26533     26541     26540     26537     26533     26545
     26541     26533     26534     26549     26541     26533     26545     26546
     26541     26533     26545     26547     26541     26533     26545     26548
     26542     26541     26533     26545     26543     26541     26533     26545
     26544     26541     26533     26545     26545     26533     26534     26549
     26549     26555     26552     26553     26549     26555     26552     26554
     26549     26555     26552     26556     26550     26549     26555     26552
     26551     26549     26555     26552     26552     26556     26557     26558
     26552     26556     26557     26559     26552     26556     26557     26560
     26553     26552     26556     26557     26554     26552     26556     26557
     26555     26552     26556     26557     26556     26557     26560     26561
     26556     26557     26560     26562     26556     26557     26560     26568
     26557     26560     26562     26563     26557     26560     26568     26569
     26557     26560     26568     26570     26557     26560     26568     26571
     26558     26557     26560     26561     26558     26557     26560     26562
     26558     26557     26560     26568     26559     26557     26560     26561
     26559     26557     26560     26562     26559     26557     26560     26568
     26560     26562     26563     26564     26560     26562     26563     26565
     26560     26568     26571     26572     26561     26560     26562     26563
     26561     26560     26568     26569     26561     26560     26568     26570
     26561     26560     26568     26571     26562     26560     26568     26569
     26562     26560     26568     26570     26562     26560     26568     26571
     26562     26563     26565     26566     26562     26563     26565     26567
     26562     26563     26565     26577     26563     26562     26560     26568
     26563     26565     26577     26578     26563     26565     26577     26579
     26563     26565     26577     26580     26564     26563     26565     26566
     26564     26563     26565     26567     26564     26563     26565     26577
     26565     26577     26580     26581     26565     26577     26580     26582
     26565     26577     26580     26583     26566     26565     26577     26578
     26566     26565     26577     26579     26566     26565     26577     26580
     26567     26565     26577     26578     26567     26565     26577     26579
     26567     26565     26577     26580     26568     26571     26572     26573
     26568     26571     26572     26574     26569     26568     26571     26572
     26570     26568     26571     26572     26571     26572     26574     26575
     26571     26572     26574     26576     26571     26572     26574     26624
     26572     26574     26624     26625     26572     26574     26624     26626
     26572     26574     26624     26627     26573     26572     26574     26575
     26573     26572     26574     26576     26573     26572     26574     26624
     26574     26624     26627     26628     26574     26624     26627     26629
     26574     26624     26627     26630     26575     26574     26624     26625
     26575     26574     26624     26626     26575     26574     26624     26627
     26576     26574     26624     26625     26576     26574     26624     26626
     26576     26574     26624     26627     26577     26580     26583     26584
     26577     26580     26583     26585     26577     26580     26583     26586
     26578     26577     26580     26581     26578     26577     26580     26582
     26578     26577     26580     26583     26579     26577     26580     26581
     26579     26577     26580     26582     26579     26577     26580     26583
     26580     26583     26586     26587     26580     26583     26586     26588
     26580     26583     26586     26589     26581     26580     26583     26584
     26581     26580     26583     26585     26581     26580     26583     26586
     26582     26580     26583     26584     26582     26580     26583     26585
     26582     26580     26583     26586     26583     26586     26589     26590
     26583     26586     26589     26591     26583     26586     26589     26592
     26584     26583     26586     26587     26584     26583     26586     26588
     26584     26583     26586     26589     26585     26583     26586     26587
     26585     26583     26586     26588     26585     26583     26586     26589
     26586     26589     26592     26593     26586     26589     26592     26594
     26586     26589     26592     26595     26587     26586     26589     26590
     26587     26586     26589     26591     26587     26586     26589     26592
     26588     26586     26589     26590     26588     26586     26589     26591
     26588     26586     26589     26592     26589     26592     26595     26596
     26589     26592     26595     26597     26590     26589     26592     26593
     26590     26589     26592     26594     26590     26589     26592     26595
     26591     26589     26592     26593     26591     26589     26592     26594
     26591     26589     26592     26595     26592     26595     26597     26598
     26592     26595     26597     26599     26593     26592     26595     26596
     26593     26592     26595     26597     26594     26592     26595     26596
     26594     26592     26595     26597     26595     26597     26599     26600
     26595     26597     26599     26601     26595     26597     26599     26602
     26596     26595     26597     26598     26596     26595     26597     26599
     26597     26599     26602     26603     26597     26599     26602     26604
     26597     26599     26602     26605     26598     26597     26599     26600
     26598     26597     26599     26601     26598     26597     26599     26602
     26599     26602     26605     26606     26599     26602     26605     26607
     26599     26602     26605     26608     26600     26599     26602     26603
     26600     26599     26602     26604     26600     26599     26602     26605
     26601     26599     26602     26603     26601     26599     26602     26604
     26601     26599     26602     26605     26602     26605     26608     26609
     26602     26605     26608     26610     26602     26605     26608     26611
     26603     26602     26605     26606     26603     26602     26605     26607
     26603     26602     26605     26608     26604     26602     26605     26606
     26604     26602     26605     26607     26604     26602     26605     26608
     26605     26608     26611     26612     26605     26608     26611     26613
     26605     26608     26611     26614     26606     26605     26608     26609
     26606     26605     26608     26610     26606     26605     26608     26611
     26607     26605     26608     26609     26607     26605     26608     26610
     26607     26605     26608     26611     26608     26611     26614     26615
     26608     26611     26614     26616     26608     26611     26614     26617
     26609     26608     26611     26612     26609     26608     26611     26613
     26609     26608     26611     26614     26610     26608     26611     26612
     26610     26608     26611     26613     26610     26608     26611     26614
     26611     26614     26617     26618     26611     26614     26617     26619
     26611     26614     26617     26620     26612     26611     26614     26615
     26612     26611     26614     26616     26612     26611     26614     26617
     26613     26611     26614     26615     26613     26611     26614     26616
     26613     26611     26614     26617     26614     26617     26620     26621
     26614     26617     26620     26622     26614     26617     26620     26623
     26615     26614     26617     26618     26615     26614     26617     26619
     26615     26614     26617     26620     26616     26614     26617     26618
     26616     26614     26617     26619     26616     26614     26617     26620
     26618     26617     26620     26621     26618     26617     26620     26622
     26618     26617     26620     26623     26619     26617     26620     26621
     26619     26617     26620     26622     26619     26617     26620     26623
     26624     26627     26630     26631     26624     26627     26630     26632
     26624     26627     26630     26633     26625     26624     26627     26628
     26625     26624     26627     26629     26625     26624     26627     26630
     26626     26624     26627     26628     26626     26624     26627     26629
     26626     26624     26627     26630     26627     26630     26633     26634
     26627     26630     26633     26635     26627     26630     26633     26636
     26628     26627     26630     26631     26628     26627     26630     26632
     26628     26627     26630     26633     26629     26627     26630     26631
     26629     26627     26630     26632     26629     26627     26630     26633
     26630     26633     26636     26637     26630     26633     26636     26638
     26630     26633     26636     26639     26631     26630     26633     26634
     26631     26630     26633     26635     26631     26630     26633     26636
     26632     26630     26633     26634     26632     26630     26633     26635
     26632     26630     26633     26636     26633     26636     26639     26640
     26633     26636     26639     26641     26633     26636     26639     26642
     26634     26633     26636     26637     26634     26633     26636     26638
     26634     26633     26636     26639     26635     26633     26636     26637
     26635     26633     26636     26638     26635     26633     26636     26639
     26636     26639     26642     26643     26636     26639     26642     26644
     26636     26639     26642     26645     26637     26636     26639     26640
     26637     26636     26639     26641     26637     26636     26639     26642
     26638     26636     26639     26640     26638     26636     26639     26641
     26638     26636     26639     26642     26639     26642     26645     26646
     26639     26642     26645     26647     26639     26642     26645     26648
     26640     26639     26642     26643     26640     26639     26642     26644
     26640     26639     26642     26645     26641     26639     26642     26643
     26641     26639     26642     26644     26641     26639     26642     26645
     26642     26645     26648     26649     26642     26645     26648     26650
     26642     26645     26648     26651     26643     26642     26645     26646
     26643     26642     26645     26647     26643     26642     26645     26648
     26644     26642     26645     26646     26644     26642     26645     26647
     26644     26642     26645     26648     26645     26648     26651     26652
     26645     26648     26651     26653     26645     26648     26651     26654
     26646     26645     26648     26649     26646     26645     26648     26650
     26646     26645     26648     26651     26647     26645     26648     26649
     26647     26645     26648     26650     26647     26645     26648     26651
     26648     26651     26654     26655     26648     26651     26654     26656
     26648     26651     26654     26657     26649     26648     26651     26652
     26649     26648     26651     26653     26649     26648     26651     26654
     26650     26648     26651     26652     26650     26648     26651     26653
     26650     26648     26651     26654     26651     26654     26657     26658
     26651     26654     26657     26659     26651     26654     26657     26660
     26652     26651     26654     26655     26652     26651     26654     26656
     26652     26651     26654     26657     26653     26651     26654     26655
     26653     26651     26654     26656     26653     26651     26654     26657
     26654     26657     26660     26661     26654     26657     26660     26662
     26654     26657     26660     26663     26655     26654     26657     26658
     26655     26654     26657     26659     26655     26654     26657     26660
     26656     26654     26657     26658     26656     26654     26657     26659
     26656     26654     26657     26660     26657     26660     26663     26664
     26657     26660     26663     26665     26657     26660     26663     26666
     26658     26657     26660     26661     26658     26657     26660     26662
     26658     26657     26660     26663     26659     26657     26660     26661
     26659     26657     26660     26662     26659     26657     26660     26663
     26661     26660     26663     26664     26661     26660     26663     26665
     26661     26660     26663     26666     26662     26660     26663     26664
     26662     26660     26663     26665     26662     26660     26663     26666
     26667     26668     26683     26684     26667     26668     26683     26685
     26667     26668     26683     26689     26668     26667     26671     26672
     26668     26667     26671     26673     26668     26667     26671     26674
     26668     26667     26675     26676     26668     26667     26675     26677
     26668     26667     26675     26678     26668     26667     26679     26680
     26668     26667     26679     26681     26668     26667     26679     26682
     26668     26683     26689     26686     26669     26668     26667     26671
     26669     26668     26667     26675     26669     26668     26667     26679
     26669     26668     26683     26684     26669     26668     26683     26685
     26669     26668     26683     26689     26670     26668     26667     26671
     26670     26668     26667     26675     26670     26668     26667     26679
     26670     26668     26683     26684     26670     26668     26683     26685
     26670     26668     26683     26689     26671     26667     26668     26683
     26671     26667     26675     26676     26671     26667     26675     26677
     26671     26667     26675     26678     26671     26667     26679     26680
     26671     26667     26679     26681     26671     26667     26679     26682
     26672     26671     26667     26675     26672     26671     26667     26679
     26673     26671     26667     26675     26673     26671     26667     26679
     26674     26671     26667     26675     26674     26671     26667     26679
     26675     26667     26668     26683     26675     26667     26679     26680
     26675     26667     26679     26681     26675     26667     26679     26682
     26676     26675     26667     26679     26677     26675     26667     26679
     26678     26675     26667     26679     26679     26667     26668     26683
     26683     26689     26686     26687     26683     26689     26686     26688
     26683     26689     26686     26690     26684     26683     26689     26686
     26685     26683     26689     26686     26686     26690     26691     26692
     26686     26690     26691     26693     26686     26690     26691     26694
     26687     26686     26690     26691     26688     26686     26690     26691
     26689     26686     26690     26691     26690     26691     26694     26695
     26690     26691     26694     26696     26690     26691     26694     26702
     26691     26694     26696     26697     26691     26694     26702     26703
     26691     26694     26702     26704     26691     26694     26702     26705
     26692     26691     26694     26695     26692     26691     26694     26696
     26692     26691     26694     26702     26693     26691     26694     26695
     26693     26691     26694     26696     26693     26691     26694     26702
     26694     26696     26697     26698     26694     26696     26697     26699
     26694     26702     26705     26706     26695     26694     26696     26697
     26695     26694     26702     26703     26695     26694     26702     26704
     26695     26694     26702     26705     26696     26694     26702     26703
     26696     26694     26702     26704     26696     26694     26702     26705
     26696     26697     26699     26700     26696     26697     26699     26701
     26696     26697     26699     26711     26697     26696     26694     26702
     26697     26699     26711     26712     26697     26699     26711     26713
     26697     26699     26711     26714     26698     26697     26699     26700
     26698     26697     26699     26701     26698     26697     26699     26711
     26699     26711     26714     26715     26699     26711     26714     26716
     26699     26711     26714     26717     26700     26699     26711     26712
     26700     26699     26711     26713     26700     26699     26711     26714
     26701     26699     26711     26712     26701     26699     26711     26713
     26701     26699     26711     26714     26702     26705     26706     26707
     26702     26705     26706     26708     26703     26702     26705     26706
     26704     26702     26705     26706     26705     26706     26708     26709
     26705     26706     26708     26710     26705     26706     26708     26758
     26706     26708     26758     26759     26706     26708     26758     26760
     26706     26708     26758     26761     26707     26706     26708     26709
     26707     26706     26708     26710     26707     26706     26708     26758
     26708     26758     26761     26762     26708     26758     26761     26763
     26708     26758     26761     26764     26709     26708     26758     26759
     26709     26708     26758     26760     26709     26708     26758     26761
     26710     26708     26758     26759     26710     26708     26758     26760
     26710     26708     26758     26761     26711     26714     26717     26718
     26711     26714     26717     26719     26711     26714     26717     26720
     26712     26711     26714     26715     26712     26711     26714     26716
     26712     26711     26714     26717     26713     26711     26714     26715
     26713     26711     26714     26716     26713     26711     26714     26717
     26714     26717     26720     26721     26714     26717     26720     26722
     26714     26717     26720     26723     26715     26714     26717     26718
     26715     26714     26717     26719     26715     26714     26717     26720
     26716     26714     26717     26718     26716     26714     26717     26719
     26716     26714     26717     26720     26717     26720     26723     26724
     26717     26720     26723     26725     26717     26720     26723     26726
     26718     26717     26720     26721     26718     26717     26720     26722
     26718     26717     26720     26723     26719     26717     26720     26721
     26719     26717     26720     26722     26719     26717     26720     26723
     26720     26723     26726     26727     26720     26723     26726     26728
     26720     26723     26726     26729     26721     26720     26723     26724
     26721     26720     26723     26725     26721     26720     26723     26726
     26722     26720     26723     26724     26722     26720     26723     26725
     26722     26720     26723     26726     26723     26726     26729     26730
     26723     26726     26729     26731     26724     26723     26726     26727
     26724     26723     26726     26728     26724     26723     26726     26729
     26725     26723     26726     26727     26725     26723     26726     26728
     26725     26723     26726     26729     26726     26729     26731     26732
     26726     26729     26731     26733     26727     26726     26729     26730
     26727     26726     26729     26731     26728     26726     26729     26730
     26728     26726     26729     26731     26729     26731     26733     26734
     26729     26731     26733     26735     26729     26731     26733     26736
     26730     26729     26731     26732     26730     26729     26731     26733
     26731     26733     26736     26737     26731     26733     26736     26738
     26731     26733     26736     26739     26732     26731     26733     26734
     26732     26731     26733     26735     26732     26731     26733     26736
     26733     26736     26739     26740     26733     26736     26739     26741
     26733     26736     26739     26742     26734     26733     26736     26737
     26734     26733     26736     26738     26734     26733     26736     26739
     26735     26733     26736     26737     26735     26733     26736     26738
     26735     26733     26736     26739     26736     26739     26742     26743
     26736     26739     26742     26744     26736     26739     26742     26745
     26737     26736     26739     26740     26737     26736     26739     26741
     26737     26736     26739     26742     26738     26736     26739     26740
     26738     26736     26739     26741     26738     26736     26739     26742
     26739     26742     26745     26746     26739     26742     26745     26747
     26739     26742     26745     26748     26740     26739     26742     26743
     26740     26739     26742     26744     26740     26739     26742     26745
     26741     26739     26742     26743     26741     26739     26742     26744
     26741     26739     26742     26745     26742     26745     26748     26749
     26742     26745     26748     26750     26742     26745     26748     26751
     26743     26742     26745     26746     26743     26742     26745     26747
     26743     26742     26745     26748     26744     26742     26745     26746
     26744     26742     26745     26747     26744     26742     26745     26748
     26745     26748     26751     26752     26745     26748     26751     26753
     26745     26748     26751     26754     26746     26745     26748     26749
     26746     26745     26748     26750     26746     26745     26748     26751
     26747     26745     26748     26749     26747     26745     26748     26750
     26747     26745     26748     26751     26748     26751     26754     26755
     26748     26751     26754     26756     26748     26751     26754     26757
     26749     26748     26751     26752     26749     26748     26751     26753
     26749     26748     26751     26754     26750     26748     26751     26752
     26750     26748     26751     26753     26750     26748     26751     26754
     26752     26751     26754     26755     26752     26751     26754     26756
     26752     26751     26754     26757     26753     26751     26754     26755
     26753     26751     26754     26756     26753     26751     26754     26757
     26758     26761     26764     26765     26758     26761     26764     26766
     26758     26761     26764     26767     26759     26758     26761     26762
     26759     26758     26761     26763     26759     26758     26761     26764
     26760     26758     26761     26762     26760     26758     26761     26763
     26760     26758     26761     26764     26761     26764     26767     26768
     26761     26764     26767     26769     26761     26764     26767     26770
     26762     26761     26764     26765     26762     26761     26764     26766
     26762     26761     26764     26767     26763     26761     26764     26765
     26763     26761     26764     26766     26763     26761     26764     26767
     26764     26767     26770     26771     26764     26767     26770     26772
     26764     26767     26770     26773     26765     26764     26767     26768
     26765     26764     26767     26769     26765     26764     26767     26770
     26766     26764     26767     26768     26766     26764     26767     26769
     26766     26764     26767     26770     26767     26770     26773     26774
     26767     26770     26773     26775     26767     26770     26773     26776
     26768     26767     26770     26771     26768     26767     26770     26772
     26768     26767     26770     26773     26769     26767     26770     26771
     26769     26767     26770     26772     26769     26767     26770     26773
     26770     26773     26776     26777     26770     26773     26776     26778
     26770     26773     26776     26779     26771     26770     26773     26774
     26771     26770     26773     26775     26771     26770     26773     26776
     26772     26770     26773     26774     26772     26770     26773     26775
     26772     26770     26773     26776     26773     26776     26779     26780
     26773     26776     26779     26781     26773     26776     26779     26782
     26774     26773     26776     26777     26774     26773     26776     26778
     26774     26773     26776     26779     26775     26773     26776     26777
     26775     26773     26776     26778     26775     26773     26776     26779
     26776     26779     26782     26783     26776     26779     26782     26784
     26776     26779     26782     26785     26777     26776     26779     26780
     26777     26776     26779     26781     26777     26776     26779     26782
     26778     26776     26779     26780     26778     26776     26779     26781
     26778     26776     26779     26782     26779     26782     26785     26786
     26779     26782     26785     26787     26779     26782     26785     26788
     26780     26779     26782     26783     26780     26779     26782     26784
     26780     26779     26782     26785     26781     26779     26782     26783
     26781     26779     26782     26784     26781     26779     26782     26785
     26782     26785     26788     26789     26782     26785     26788     26790
     26782     26785     26788     26791     26783     26782     26785     26786
     26783     26782     26785     26787     26783     26782     26785     26788
     26784     26782     26785     26786     26784     26782     26785     26787
     26784     26782     26785     26788     26785     26788     26791     26792
     26785     26788     26791     26793     26785     26788     26791     26794
     26786     26785     26788     26789     26786     26785     26788     26790
     26786     26785     26788     26791     26787     26785     26788     26789
     26787     26785     26788     26790     26787     26785     26788     26791
     26788     26791     26794     26795     26788     26791     26794     26796
     26788     26791     26794     26797     26789     26788     26791     26792
     26789     26788     26791     26793     26789     26788     26791     26794
     26790     26788     26791     26792     26790     26788     26791     26793
     26790     26788     26791     26794     26791     26794     26797     26798
     26791     26794     26797     26799     26791     26794     26797     26800
     26792     26791     26794     26795     26792     26791     26794     26796
     26792     26791     26794     26797     26793     26791     26794     26795
     26793     26791     26794     26796     26793     26791     26794     26797
     26795     26794     26797     26798     26795     26794     26797     26799
     26795     26794     26797     26800     26796     26794     26797     26798
     26796     26794     26797     26799     26796     26794     26797     26800
     26801     26802     26817     26818     26801     26802     26817     26819
     26801     26802     26817     26823     26802     26801     26805     26806
     26802     26801     26805     26807     26802     26801     26805     26808
     26802     26801     26809     26810     26802     26801     26809     26811
     26802     26801     26809     26812     26802     26801     26813     26814
     26802     26801     26813     26815     26802     26801     26813     26816
     26802     26817     26823     26820     26803     26802     26801     26805
     26803     26802     26801     26809     26803     26802     26801     26813
     26803     26802     26817     26818     26803     26802     26817     26819
     26803     26802     26817     26823     26804     26802     26801     26805
     26804     26802     26801     26809     26804     26802     26801     26813
     26804     26802     26817     26818     26804     26802     26817     26819
     26804     26802     26817     26823     26805     26801     26802     26817
     26805     26801     26809     26810     26805     26801     26809     26811
     26805     26801     26809     26812     26805     26801     26813     26814
     26805     26801     26813     26815     26805     26801     26813     26816
     26806     26805     26801     26809     26806     26805     26801     26813
     26807     26805     26801     26809     26807     26805     26801     26813
     26808     26805     26801     26809     26808     26805     26801     26813
     26809     26801     26802     26817     26809     26801     26813     26814
     26809     26801     26813     26815     26809     26801     26813     26816
     26810     26809     26801     26813     26811     26809     26801     26813
     26812     26809     26801     26813     26813     26801     26802     26817
     26817     26823     26820     26821     26817     26823     26820     26822
     26817     26823     26820     26824     26818     26817     26823     26820
     26819     26817     26823     26820     26820     26824     26825     26826
     26820     26824     26825     26827     26820     26824     26825     26828
     26821     26820     26824     26825     26822     26820     26824     26825
     26823     26820     26824     26825     26824     26825     26828     26829
     26824     26825     26828     26830     26824     26825     26828     26836
     26825     26828     26830     26831     26825     26828     26836     26837
     26825     26828     26836     26838     26825     26828     26836     26839
     26826     26825     26828     26829     26826     26825     26828     26830
     26826     26825     26828     26836     26827     26825     26828     26829
     26827     26825     26828     26830     26827     26825     26828     26836
     26828     26830     26831     26832     26828     26830     26831     26833
     26828     26836     26839     26840     26829     26828     26830     26831
     26829     26828     26836     26837     26829     26828     26836     26838
     26829     26828     26836     26839     26830     26828     26836     26837
     26830     26828     26836     26838     26830     26828     26836     26839
     26830     26831     26833     26834     26830     26831     26833     26835
     26830     26831     26833     26845     26831     26830     26828     26836
     26831     26833     26845     26846     26831     26833     26845     26847
     26831     26833     26845     26848     26832     26831     26833     26834
     26832     26831     26833     26835     26832     26831     26833     26845
     26833     26845     26848     26849     26833     26845     26848     26850
     26833     26845     26848     26851     26834     26833     26845     26846
     26834     26833     26845     26847     26834     26833     26845     26848
     26835     26833     26845     26846     26835     26833     26845     26847
     26835     26833     26845     26848     26836     26839     26840     26841
     26836     26839     26840     26842     26837     26836     26839     26840
     26838     26836     26839     26840     26839     26840     26842     26843
     26839     26840     26842     26844     26839     26840     26842     26892
     26840     26842     26892     26893     26840     26842     26892     26894
     26840     26842     26892     26895     26841     26840     26842     26843
     26841     26840     26842     26844     26841     26840     26842     26892
     26842     26892     26895     26896     26842     26892     26895     26897
     26842     26892     26895     26898     26843     26842     26892     26893
     26843     26842     26892     26894     26843     26842     26892     26895
     26844     26842     26892     26893     26844     26842     26892     26894
     26844     26842     26892     26895     26845     26848     26851     26852
     26845     26848     26851     26853     26845     26848     26851     26854
     26846     26845     26848     26849     26846     26845     26848     26850
     26846     26845     26848     26851     26847     26845     26848     26849
     26847     26845     26848     26850     26847     26845     26848     26851
     26848     26851     26854     26855     26848     26851     26854     26856
     26848     26851     26854     26857     26849     26848     26851     26852
     26849     26848     26851     26853     26849     26848     26851     26854
     26850     26848     26851     26852     26850     26848     26851     26853
     26850     26848     26851     26854     26851     26854     26857     26858
     26851     26854     26857     26859     26851     26854     26857     26860
     26852     26851     26854     26855     26852     26851     26854     26856
     26852     26851     26854     26857     26853     26851     26854     26855
     26853     26851     26854     26856     26853     26851     26854     26857
     26854     26857     26860     26861     26854     26857     26860     26862
     26854     26857     26860     26863     26855     26854     26857     26858
     26855     26854     26857     26859     26855     26854     26857     26860
     26856     26854     26857     26858     26856     26854     26857     26859
     26856     26854     26857     26860     26857     26860     26863     26864
     26857     26860     26863     26865     26858     26857     26860     26861
     26858     26857     26860     26862     26858     26857     26860     26863
     26859     26857     26860     26861     26859     26857     26860     26862
     26859     26857     26860     26863     26860     26863     26865     26866
     26860     26863     26865     26867     26861     26860     26863     26864
     26861     26860     26863     26865     26862     26860     26863     26864
     26862     26860     26863     26865     26863     26865     26867     26868
     26863     26865     26867     26869     26863     26865     26867     26870
     26864     26863     26865     26866     26864     26863     26865     26867
     26865     26867     26870     26871     26865     26867     26870     26872
     26865     26867     26870     26873     26866     26865     26867     26868
     26866     26865     26867     26869     26866     26865     26867     26870
     26867     26870     26873     26874     26867     26870     26873     26875
     26867     26870     26873     26876     26868     26867     26870     26871
     26868     26867     26870     26872     26868     26867     26870     26873
     26869     26867     26870     26871     26869     26867     26870     26872
     26869     26867     26870     26873     26870     26873     26876     26877
     26870     26873     26876     26878     26870     26873     26876     26879
     26871     26870     26873     26874     26871     26870     26873     26875
     26871     26870     26873     26876     26872     26870     26873     26874
     26872     26870     26873     26875     26872     26870     26873     26876
     26873     26876     26879     26880     26873     26876     26879     26881
     26873     26876     26879     26882     26874     26873     26876     26877
     26874     26873     26876     26878     26874     26873     26876     26879
     26875     26873     26876     26877     26875     26873     26876     26878
     26875     26873     26876     26879     26876     26879     26882     26883
     26876     26879     26882     26884     26876     26879     26882     26885
     26877     26876     26879     26880     26877     26876     26879     26881
     26877     26876     26879     26882     26878     26876     26879     26880
     26878     26876     26879     26881     26878     26876     26879     26882
     26879     26882     26885     26886     26879     26882     26885     26887
     26879     26882     26885     26888     26880     26879     26882     26883
     26880     26879     26882     26884     26880     26879     26882     26885
     26881     26879     26882     26883     26881     26879     26882     26884
     26881     26879     26882     26885     26882     26885     26888     26889
     26882     26885     26888     26890     26882     26885     26888     26891
     26883     26882     26885     26886     26883     26882     26885     26887
     26883     26882     26885     26888     26884     26882     26885     26886
     26884     26882     26885     26887     26884     26882     26885     26888
     26886     26885     26888     26889     26886     26885     26888     26890
     26886     26885     26888     26891     26887     26885     26888     26889
     26887     26885     26888     26890     26887     26885     26888     26891
     26892     26895     26898     26899     26892     26895     26898     26900
     26892     26895     26898     26901     26893     26892     26895     26896
     26893     26892     26895     26897     26893     26892     26895     26898
     26894     26892     26895     26896     26894     26892     26895     26897
     26894     26892     26895     26898     26895     26898     26901     26902
     26895     26898     26901     26903     26895     26898     26901     26904
     26896     26895     26898     26899     26896     26895     26898     26900
     26896     26895     26898     26901     26897     26895     26898     26899
     26897     26895     26898     26900     26897     26895     26898     26901
     26898     26901     26904     26905     26898     26901     26904     26906
     26898     26901     26904     26907     26899     26898     26901     26902
     26899     26898     26901     26903     26899     26898     26901     26904
     26900     26898     26901     26902     26900     26898     26901     26903
     26900     26898     26901     26904     26901     26904     26907     26908
     26901     26904     26907     26909     26901     26904     26907     26910
     26902     26901     26904     26905     26902     26901     26904     26906
     26902     26901     26904     26907     26903     26901     26904     26905
     26903     26901     26904     26906     26903     26901     26904     26907
     26904     26907     26910     26911     26904     26907     26910     26912
     26904     26907     26910     26913     26905     26904     26907     26908
     26905     26904     26907     26909     26905     26904     26907     26910
     26906     26904     26907     26908     26906     26904     26907     26909
     26906     26904     26907     26910     26907     26910     26913     26914
     26907     26910     26913     26915     26907     26910     26913     26916
     26908     26907     26910     26911     26908     26907     26910     26912
     26908     26907     26910     26913     26909     26907     26910     26911
     26909     26907     26910     26912     26909     26907     26910     26913
     26910     26913     26916     26917     26910     26913     26916     26918
     26910     26913     26916     26919     26911     26910     26913     26914
     26911     26910     26913     26915     26911     26910     26913     26916
     26912     26910     26913     26914     26912     26910     26913     26915
     26912     26910     26913     26916     26913     26916     26919     26920
     26913     26916     26919     26921     26913     26916     26919     26922
     26914     26913     26916     26917     26914     26913     26916     26918
     26914     26913     26916     26919     26915     26913     26916     26917
     26915     26913     26916     26918     26915     26913     26916     26919
     26916     26919     26922     26923     26916     26919     26922     26924
     26916     26919     26922     26925     26917     26916     26919     26920
     26917     26916     26919     26921     26917     26916     26919     26922
     26918     26916     26919     26920     26918     26916     26919     26921
     26918     26916     26919     26922     26919     26922     26925     26926
     26919     26922     26925     26927     26919     26922     26925     26928
     26920     26919     26922     26923     26920     26919     26922     26924
     26920     26919     26922     26925     26921     26919     26922     26923
     26921     26919     26922     26924     26921     26919     26922     26925
     26922     26925     26928     26929     26922     26925     26928     26930
     26922     26925     26928     26931     26923     26922     26925     26926
     26923     26922     26925     26927     26923     26922     26925     26928
     26924     26922     26925     26926     26924     26922     26925     26927
     26924     26922     26925     26928     26925     26928     26931     26932
     26925     26928     26931     26933     26925     26928     26931     26934
     26926     26925     26928     26929     26926     26925     26928     26930
     26926     26925     26928     26931     26927     26925     26928     26929
     26927     26925     26928     26930     26927     26925     26928     26931
     26929     26928     26931     26932     26929     26928     26931     26933
     26929     26928     26931     26934     26930     26928     26931     26932
     26930     26928     26931     26933     26930     26928     26931     26934
     26935     26936     26951     26952     26935     26936     26951     26953
     26935     26936     26951     26957     26936     26935     26939     26940
     26936     26935     26939     26941     26936     26935     26939     26942
     26936     26935     26943     26944     26936     26935     26943     26945
     26936     26935     26943     26946     26936     26935     26947     26948
     26936     26935     26947     26949     26936     26935     26947     26950
     26936     26951     26957     26954     26937     26936     26935     26939
     26937     26936     26935     26943     26937     26936     26935     26947
     26937     26936     26951     26952     26937     26936     26951     26953
     26937     26936     26951     26957     26938     26936     26935     26939
     26938     26936     26935     26943     26938     26936     26935     26947
     26938     26936     26951     26952     26938     26936     26951     26953
     26938     26936     26951     26957     26939     26935     26936     26951
     26939     26935     26943     26944     26939     26935     26943     26945
     26939     26935     26943     26946     26939     26935     26947     26948
     26939     26935     26947     26949     26939     26935     26947     26950
     26940     26939     26935     26943     26940     26939     26935     26947
     26941     26939     26935     26943     26941     26939     26935     26947
     26942     26939     26935     26943     26942     26939     26935     26947
     26943     26935     26936     26951     26943     26935     26947     26948
     26943     26935     26947     26949     26943     26935     26947     26950
     26944     26943     26935     26947     26945     26943     26935     26947
     26946     26943     26935     26947     26947     26935     26936     26951
     26951     26957     26954     26955     26951     26957     26954     26956
     26951     26957     26954     26958     26952     26951     26957     26954
     26953     26951     26957     26954     26954     26958     26959     26960
     26954     26958     26959     26961     26954     26958     26959     26962
     26955     26954     26958     26959     26956     26954     26958     26959
     26957     26954     26958     26959     26958     26959     26962     26963
     26958     26959     26962     26964     26958     26959     26962     26970
     26959     26962     26964     26965     26959     26962     26970     26971
     26959     26962     26970     26972     26959     26962     26970     26973
     26960     26959     26962     26963     26960     26959     26962     26964
     26960     26959     26962     26970     26961     26959     26962     26963
     26961     26959     26962     26964     26961     26959     26962     26970
     26962     26964     26965     26966     26962     26964     26965     26967
     26962     26970     26973     26974     26963     26962     26964     26965
     26963     26962     26970     26971     26963     26962     26970     26972
     26963     26962     26970     26973     26964     26962     26970     26971
     26964     26962     26970     26972     26964     26962     26970     26973
     26964     26965     26967     26968     26964     26965     26967     26969
     26964     26965     26967     26979     26965     26964     26962     26970
     26965     26967     26979     26980     26965     26967     26979     26981
     26965     26967     26979     26982     26966     26965     26967     26968
     26966     26965     26967     26969     26966     26965     26967     26979
     26967     26979     26982     26983     26967     26979     26982     26984
     26967     26979     26982     26985     26968     26967     26979     26980
     26968     26967     26979     26981     26968     26967     26979     26982
     26969     26967     26979     26980     26969     26967     26979     26981
     26969     26967     26979     26982     26970     26973     26974     26975
     26970     26973     26974     26976     26971     26970     26973     26974
     26972     26970     26973     26974     26973     26974     26976     26977
     26973     26974     26976     26978     26973     26974     26976     27026
     26974     26976     27026     27027     26974     26976     27026     27028
     26974     26976     27026     27029     26975     26974     26976     26977
     26975     26974     26976     26978     26975     26974     26976     27026
     26976     27026     27029     27030     26976     27026     27029     27031
     26976     27026     27029     27032     26977     26976     27026     27027
     26977     26976     27026     27028     26977     26976     27026     27029
     26978     26976     27026     27027     26978     26976     27026     27028
     26978     26976     27026     27029     26979     26982     26985     26986
     26979     26982     26985     26987     26979     26982     26985     26988
     26980     26979     26982     26983     26980     26979     26982     26984
     26980     26979     26982     26985     26981     26979     26982     26983
     26981     26979     26982     26984     26981     26979     26982     26985
     26982     26985     26988     26989     26982     26985     26988     26990
     26982     26985     26988     26991     26983     26982     26985     26986
     26983     26982     26985     26987     26983     26982     26985     26988
     26984     26982     26985     26986     26984     26982     26985     26987
     26984     26982     26985     26988     26985     26988     26991     26992
     26985     26988     26991     26993     26985     26988     26991     26994
     26986     26985     26988     26989     26986     26985     26988     26990
     26986     26985     26988     26991     26987     26985     26988     26989
     26987     26985     26988     26990     26987     26985     26988     26991
     26988     26991     26994     26995     26988     26991     26994     26996
     26988     26991     26994     26997     26989     26988     26991     26992
     26989     26988     26991     26993     26989     26988     26991     26994
     26990     26988     26991     26992     26990     26988     26991     26993
     26990     26988     26991     26994     26991     26994     26997     26998
     26991     26994     26997     26999     26992     26991     26994     26995
     26992     26991     26994     26996     26992     26991     26994     26997
     26993     26991     26994     26995     26993     26991     26994     26996
     26993     26991     26994     26997     26994     26997     26999     27000
     26994     26997     26999     27001     26995     26994     26997     26998
     26995     26994     26997     26999     26996     26994     26997     26998
     26996     26994     26997     26999     26997     26999     27001     27002
     26997     26999     27001     27003     26997     26999     27001     27004
     26998     26997     26999     27000     26998     26997     26999     27001
     26999     27001     27004     27005     26999     27001     27004     27006
     26999     27001     27004     27007     27000     26999     27001     27002
     27000     26999     27001     27003     27000     26999     27001     27004
     27001     27004     27007     27008     27001     27004     27007     27009
     27001     27004     27007     27010     27002     27001     27004     27005
     27002     27001     27004     27006     27002     27001     27004     27007
     27003     27001     27004     27005     27003     27001     27004     27006
     27003     27001     27004     27007     27004     27007     27010     27011
     27004     27007     27010     27012     27004     27007     27010     27013
     27005     27004     27007     27008     27005     27004     27007     27009
     27005     27004     27007     27010     27006     27004     27007     27008
     27006     27004     27007     27009     27006     27004     27007     27010
     27007     27010     27013     27014     27007     27010     27013     27015
     27007     27010     27013     27016     27008     27007     27010     27011
     27008     27007     27010     27012     27008     27007     27010     27013
     27009     27007     27010     27011     27009     27007     27010     27012
     27009     27007     27010     27013     27010     27013     27016     27017
     27010     27013     27016     27018     27010     27013     27016     27019
     27011     27010     27013     27014     27011     27010     27013     27015
     27011     27010     27013     27016     27012     27010     27013     27014
     27012     27010     27013     27015     27012     27010     27013     27016
     27013     27016     27019     27020     27013     27016     27019     27021
     27013     27016     27019     27022     27014     27013     27016     27017
     27014     27013     27016     27018     27014     27013     27016     27019
     27015     27013     27016     27017     27015     27013     27016     27018
     27015     27013     27016     27019     27016     27019     27022     27023
     27016     27019     27022     27024     27016     27019     27022     27025
     27017     27016     27019     27020     27017     27016     27019     27021
     27017     27016     27019     27022     27018     27016     27019     27020
     27018     27016     27019     27021     27018     27016     27019     27022
     27020     27019     27022     27023     27020     27019     27022     27024
     27020     27019     27022     27025     27021     27019     27022     27023
     27021     27019     27022     27024     27021     27019     27022     27025
     27026     27029     27032     27033     27026     27029     27032     27034
     27026     27029     27032     27035     27027     27026     27029     27030
     27027     27026     27029     27031     27027     27026     27029     27032
     27028     27026     27029     27030     27028     27026     27029     27031
     27028     27026     27029     27032     27029     27032     27035     27036
     27029     27032     27035     27037     27029     27032     27035     27038
     27030     27029     27032     27033     27030     27029     27032     27034
     27030     27029     27032     27035     27031     27029     27032     27033
     27031     27029     27032     27034     27031     27029     27032     27035
     27032     27035     27038     27039     27032     27035     27038     27040
     27032     27035     27038     27041     27033     27032     27035     27036
     27033     27032     27035     27037     27033     27032     27035     27038
     27034     27032     27035     27036     27034     27032     27035     27037
     27034     27032     27035     27038     27035     27038     27041     27042
     27035     27038     27041     27043     27035     27038     27041     27044
     27036     27035     27038     27039     27036     27035     27038     27040
     27036     27035     27038     27041     27037     27035     27038     27039
     27037     27035     27038     27040     27037     27035     27038     27041
     27038     27041     27044     27045     27038     27041     27044     27046
     27038     27041     27044     27047     27039     27038     27041     27042
     27039     27038     27041     27043     27039     27038     27041     27044
     27040     27038     27041     27042     27040     27038     27041     27043
     27040     27038     27041     27044     27041     27044     27047     27048
     27041     27044     27047     27049     27041     27044     27047     27050
     27042     27041     27044     27045     27042     27041     27044     27046
     27042     27041     27044     27047     27043     27041     27044     27045
     27043     27041     27044     27046     27043     27041     27044     27047
     27044     27047     27050     27051     27044     27047     27050     27052
     27044     27047     27050     27053     27045     27044     27047     27048
     27045     27044     27047     27049     27045     27044     27047     27050
     27046     27044     27047     27048     27046     27044     27047     27049
     27046     27044     27047     27050     27047     27050     27053     27054
     27047     27050     27053     27055     27047     27050     27053     27056
     27048     27047     27050     27051     27048     27047     27050     27052
     27048     27047     27050     27053     27049     27047     27050     27051
     27049     27047     27050     27052     27049     27047     27050     27053
     27050     27053     27056     27057     27050     27053     27056     27058
     27050     27053     27056     27059     27051     27050     27053     27054
     27051     27050     27053     27055     27051     27050     27053     27056
     27052     27050     27053     27054     27052     27050     27053     27055
     27052     27050     27053     27056     27053     27056     27059     27060
     27053     27056     27059     27061     27053     27056     27059     27062
     27054     27053     27056     27057     27054     27053     27056     27058
     27054     27053     27056     27059     27055     27053     27056     27057
     27055     27053     27056     27058     27055     27053     27056     27059
     27056     27059     27062     27063     27056     27059     27062     27064
     27056     27059     27062     27065     27057     27056     27059     27060
     27057     27056     27059     27061     27057     27056     27059     27062
     27058     27056     27059     27060     27058     27056     27059     27061
     27058     27056     27059     27062     27059     27062     27065     27066
     27059     27062     27065     27067     27059     27062     27065     27068
     27060     27059     27062     27063     27060     27059     27062     27064
     27060     27059     27062     27065     27061     27059     27062     27063
     27061     27059     27062     27064     27061     27059     27062     27065
     27063     27062     27065     27066     27063     27062     27065     27067
     27063     27062     27065     27068     27064     27062     27065     27066
     27064     27062     27065     27067     27064     27062     27065     27068
     27069     27070     27085     27086     27069     27070     27085     27087
     27069     27070     27085     27091     27070     27069     27073     27074
     27070     27069     27073     27075     27070     27069     27073     27076
     27070     27069     27077     27078     27070     27069     27077     27079
     27070     27069     27077     27080     27070     27069     27081     27082
     27070     27069     27081     27083     27070     27069     27081     27084
     27070     27085     27091     27088     27071     27070     27069     27073
     27071     27070     27069     27077     27071     27070     27069     27081
     27071     27070     27085     27086     27071     27070     27085     27087
     27071     27070     27085     27091     27072     27070     27069     27073
     27072     27070     27069     27077     27072     27070     27069     27081
     27072     27070     27085     27086     27072     27070     27085     27087
     27072     27070     27085     27091     27073     27069     27070     27085
     27073     27069     27077     27078     27073     27069     27077     27079
     27073     27069     27077     27080     27073     27069     27081     27082
     27073     27069     27081     27083     27073     27069     27081     27084
     27074     27073     27069     27077     27074     27073     27069     27081
     27075     27073     27069     27077     27075     27073     27069     27081
     27076     27073     27069     27077     27076     27073     27069     27081
     27077     27069     27070     27085     27077     27069     27081     27082
     27077     27069     27081     27083     27077     27069     27081     27084
     27078     27077     27069     27081     27079     27077     27069     27081
     27080     27077     27069     27081     27081     27069     27070     27085
     27085     27091     27088     27089     27085     27091     27088     27090
     27085     27091     27088     27092     27086     27085     27091     27088
     27087     27085     27091     27088     27088     27092     27093     27094
     27088     27092     27093     27095     27088     27092     27093     27096
     27089     27088     27092     27093     27090     27088     27092     27093
     27091     27088     27092     27093     27092     27093     27096     27097
     27092     27093     27096     27098     27092     27093     27096     27104
     27093     27096     27098     27099     27093     27096     27104     27105
     27093     27096     27104     27106     27093     27096     27104     27107
     27094     27093     27096     27097     27094     27093     27096     27098
     27094     27093     27096     27104     27095     27093     27096     27097
     27095     27093     27096     27098     27095     27093     27096     27104
     27096     27098     27099     27100     27096     27098     27099     27101
     27096     27104     27107     27108     27097     27096     27098     27099
     27097     27096     27104     27105     27097     27096     27104     27106
     27097     27096     27104     27107     27098     27096     27104     27105
     27098     27096     27104     27106     27098     27096     27104     27107
     27098     27099     27101     27102     27098     27099     27101     27103
     27098     27099     27101     27113     27099     27098     27096     27104
     27099     27101     27113     27114     27099     27101     27113     27115
     27099     27101     27113     27116     27100     27099     27101     27102
     27100     27099     27101     27103     27100     27099     27101     27113
     27101     27113     27116     27117     27101     27113     27116     27118
     27101     27113     27116     27119     27102     27101     27113     27114
     27102     27101     27113     27115     27102     27101     27113     27116
     27103     27101     27113     27114     27103     27101     27113     27115
     27103     27101     27113     27116     27104     27107     27108     27109
     27104     27107     27108     27110     27105     27104     27107     27108
     27106     27104     27107     27108     27107     27108     27110     27111
     27107     27108     27110     27112     27107     27108     27110     27160
     27108     27110     27160     27161     27108     27110     27160     27162
     27108     27110     27160     27163     27109     27108     27110     27111
     27109     27108     27110     27112     27109     27108     27110     27160
     27110     27160     27163     27164     27110     27160     27163     27165
     27110     27160     27163     27166     27111     27110     27160     27161
     27111     27110     27160     27162     27111     27110     27160     27163
     27112     27110     27160     27161     27112     27110     27160     27162
     27112     27110     27160     27163     27113     27116     27119     27120
     27113     27116     27119     27121     27113     27116     27119     27122
     27114     27113     27116     27117     27114     27113     27116     27118
     27114     27113     27116     27119     27115     27113     27116     27117
     27115     27113     27116     27118     27115     27113     27116     27119
     27116     27119     27122     27123     27116     27119     27122     27124
     27116     27119     27122     27125     27117     27116     27119     27120
     27117     27116     27119     27121     27117     27116     27119     27122
     27118     27116     27119     27120     27118     27116     27119     27121
     27118     27116     27119     27122     27119     27122     27125     27126
     27119     27122     27125     27127     27119     27122     27125     27128
     27120     27119     27122     27123     27120     27119     27122     27124
     27120     27119     27122     27125     27121     27119     27122     27123
     27121     27119     27122     27124     27121     27119     27122     27125
     27122     27125     27128     27129     27122     27125     27128     27130
     27122     27125     27128     27131     27123     27122     27125     27126
     27123     27122     27125     27127     27123     27122     27125     27128
     27124     27122     27125     27126     27124     27122     27125     27127
     27124     27122     27125     27128     27125     27128     27131     27132
     27125     27128     27131     27133     27126     27125     27128     27129
     27126     27125     27128     27130     27126     27125     27128     27131
     27127     27125     27128     27129     27127     27125     27128     27130
     27127     27125     27128     27131     27128     27131     27133     27134
     27128     27131     27133     27135     27129     27128     27131     27132
     27129     27128     27131     27133     27130     27128     27131     27132
     27130     27128     27131     27133     27131     27133     27135     27136
     27131     27133     27135     27137     27131     27133     27135     27138
     27132     27131     27133     27134     27132     27131     27133     27135
     27133     27135     27138     27139     27133     27135     27138     27140
     27133     27135     27138     27141     27134     27133     27135     27136
     27134     27133     27135     27137     27134     27133     27135     27138
     27135     27138     27141     27142     27135     27138     27141     27143
     27135     27138     27141     27144     27136     27135     27138     27139
     27136     27135     27138     27140     27136     27135     27138     27141
     27137     27135     27138     27139     27137     27135     27138     27140
     27137     27135     27138     27141     27138     27141     27144     27145
     27138     27141     27144     27146     27138     27141     27144     27147
     27139     27138     27141     27142     27139     27138     27141     27143
     27139     27138     27141     27144     27140     27138     27141     27142
     27140     27138     27141     27143     27140     27138     27141     27144
     27141     27144     27147     27148     27141     27144     27147     27149
     27141     27144     27147     27150     27142     27141     27144     27145
     27142     27141     27144     27146     27142     27141     27144     27147
     27143     27141     27144     27145     27143     27141     27144     27146
     27143     27141     27144     27147     27144     27147     27150     27151
     27144     27147     27150     27152     27144     27147     27150     27153
     27145     27144     27147     27148     27145     27144     27147     27149
     27145     27144     27147     27150     27146     27144     27147     27148
     27146     27144     27147     27149     27146     27144     27147     27150
     27147     27150     27153     27154     27147     27150     27153     27155
     27147     27150     27153     27156     27148     27147     27150     27151
     27148     27147     27150     27152     27148     27147     27150     27153
     27149     27147     27150     27151     27149     27147     27150     27152
     27149     27147     27150     27153     27150     27153     27156     27157
     27150     27153     27156     27158     27150     27153     27156     27159
     27151     27150     27153     27154     27151     27150     27153     27155
     27151     27150     27153     27156     27152     27150     27153     27154
     27152     27150     27153     27155     27152     27150     27153     27156
     27154     27153     27156     27157     27154     27153     27156     27158
     27154     27153     27156     27159     27155     27153     27156     27157
     27155     27153     27156     27158     27155     27153     27156     27159
     27160     27163     27166     27167     27160     27163     27166     27168
     27160     27163     27166     27169     27161     27160     27163     27164
     27161     27160     27163     27165     27161     27160     27163     27166
     27162     27160     27163     27164     27162     27160     27163     27165
     27162     27160     27163     27166     27163     27166     27169     27170
     27163     27166     27169     27171     27163     27166     27169     27172
     27164     27163     27166     27167     27164     27163     27166     27168
     27164     27163     27166     27169     27165     27163     27166     27167
     27165     27163     27166     27168     27165     27163     27166     27169
     27166     27169     27172     27173     27166     27169     27172     27174
     27166     27169     27172     27175     27167     27166     27169     27170
     27167     27166     27169     27171     27167     27166     27169     27172
     27168     27166     27169     27170     27168     27166     27169     27171
     27168     27166     27169     27172     27169     27172     27175     27176
     27169     27172     27175     27177     27169     27172     27175     27178
     27170     27169     27172     27173     27170     27169     27172     27174
     27170     27169     27172     27175     27171     27169     27172     27173
     27171     27169     27172     27174     27171     27169     27172     27175
     27172     27175     27178     27179     27172     27175     27178     27180
     27172     27175     27178     27181     27173     27172     27175     27176
     27173     27172     27175     27177     27173     27172     27175     27178
     27174     27172     27175     27176     27174     27172     27175     27177
     27174     27172     27175     27178     27175     27178     27181     27182
     27175     27178     27181     27183     27175     27178     27181     27184
     27176     27175     27178     27179     27176     27175     27178     27180
     27176     27175     27178     27181     27177     27175     27178     27179
     27177     27175     27178     27180     27177     27175     27178     27181
     27178     27181     27184     27185     27178     27181     27184     27186
     27178     27181     27184     27187     27179     27178     27181     27182
     27179     27178     27181     27183     27179     27178     27181     27184
     27180     27178     27181     27182     27180     27178     27181     27183
     27180     27178     27181     27184     27181     27184     27187     27188
     27181     27184     27187     27189     27181     27184     27187     27190
     27182     27181     27184     27185     27182     27181     27184     27186
     27182     27181     27184     27187     27183     27181     27184     27185
     27183     27181     27184     27186     27183     27181     27184     27187
     27184     27187     27190     27191     27184     27187     27190     27192
     27184     27187     27190     27193     27185     27184     27187     27188
     27185     27184     27187     27189     27185     27184     27187     27190
     27186     27184     27187     27188     27186     27184     27187     27189
     27186     27184     27187     27190     27187     27190     27193     27194
     27187     27190     27193     27195     27187     27190     27193     27196
     27188     27187     27190     27191     27188     27187     27190     27192
     27188     27187     27190     27193     27189     27187     27190     27191
     27189     27187     27190     27192     27189     27187     27190     27193
     27190     27193     27196     27197     27190     27193     27196     27198
     27190     27193     27196     27199     27191     27190     27193     27194
     27191     27190     27193     27195     27191     27190     27193     27196
     27192     27190     27193     27194     27192     27190     27193     27195
     27192     27190     27193     27196     27193     27196     27199     27200
     27193     27196     27199     27201     27193     27196     27199     27202
     27194     27193     27196     27197     27194     27193     27196     27198
     27194     27193     27196     27199     27195     27193     27196     27197
     27195     27193     27196     27198     27195     27193     27196     27199
     27197     27196     27199     27200     27197     27196     27199     27201
     27197     27196     27199     27202     27198     27196     27199     27200
     27198     27196     27199     27201     27198     27196     27199     27202
     27203     27204     27219     27220     27203     27204     27219     27221
     27203     27204     27219     27225     27204     27203     27207     27208
     27204     27203     27207     27209     27204     27203     27207     27210
     27204     27203     27211     27212     27204     27203     27211     27213
     27204     27203     27211     27214     27204     27203     27215     27216
     27204     27203     27215     27217     27204     27203     27215     27218
     27204     27219     27225     27222     27205     27204     27203     27207
     27205     27204     27203     27211     27205     27204     27203     27215
     27205     27204     27219     27220     27205     27204     27219     27221
     27205     27204     27219     27225     27206     27204     27203     27207
     27206     27204     27203     27211     27206     27204     27203     27215
     27206     27204     27219     27220     27206     27204     27219     27221
     27206     27204     27219     27225     27207     27203     27204     27219
     27207     27203     27211     27212     27207     27203     27211     27213
     27207     27203     27211     27214     27207     27203     27215     27216
     27207     27203     27215     27217     27207     27203     27215     27218
     27208     27207     27203     27211     27208     27207     27203     27215
     27209     27207     27203     27211     27209     27207     27203     27215
     27210     27207     27203     27211     27210     27207     27203     27215
     27211     27203     27204     27219     27211     27203     27215     27216
     27211     27203     27215     27217     27211     27203     27215     27218
     27212     27211     27203     27215     27213     27211     27203     27215
     27214     27211     27203     27215     27215     27203     27204     27219
     27219     27225     27222     27223     27219     27225     27222     27224
     27219     27225     27222     27226     27220     27219     27225     27222
     27221     27219     27225     27222     27222     27226     27227     27228
     27222     27226     27227     27229     27222     27226     27227     27230
     27223     27222     27226     27227     27224     27222     27226     27227
     27225     27222     27226     27227     27226     27227     27230     27231
     27226     27227     27230     27232     27226     27227     27230     27238
     27227     27230     27232     27233     27227     27230     27238     27239
     27227     27230     27238     27240     27227     27230     27238     27241
     27228     27227     27230     27231     27228     27227     27230     27232
     27228     27227     27230     27238     27229     27227     27230     27231
     27229     27227     27230     27232     27229     27227     27230     27238
     27230     27232     27233     27234     27230     27232     27233     27235
     27230     27238     27241     27242     27231     27230     27232     27233
     27231     27230     27238     27239     27231     27230     27238     27240
     27231     27230     27238     27241     27232     27230     27238     27239
     27232     27230     27238     27240     27232     27230     27238     27241
     27232     27233     27235     27236     27232     27233     27235     27237
     27232     27233     27235     27247     27233     27232     27230     27238
     27233     27235     27247     27248     27233     27235     27247     27249
     27233     27235     27247     27250     27234     27233     27235     27236
     27234     27233     27235     27237     27234     27233     27235     27247
     27235     27247     27250     27251     27235     27247     27250     27252
     27235     27247     27250     27253     27236     27235     27247     27248
     27236     27235     27247     27249     27236     27235     27247     27250
     27237     27235     27247     27248     27237     27235     27247     27249
     27237     27235     27247     27250     27238     27241     27242     27243
     27238     27241     27242     27244     27239     27238     27241     27242
     27240     27238     27241     27242     27241     27242     27244     27245
     27241     27242     27244     27246     27241     27242     27244     27294
     27242     27244     27294     27295     27242     27244     27294     27296
     27242     27244     27294     27297     27243     27242     27244     27245
     27243     27242     27244     27246     27243     27242     27244     27294
     27244     27294     27297     27298     27244     27294     27297     27299
     27244     27294     27297     27300     27245     27244     27294     27295
     27245     27244     27294     27296     27245     27244     27294     27297
     27246     27244     27294     27295     27246     27244     27294     27296
     27246     27244     27294     27297     27247     27250     27253     27254
     27247     27250     27253     27255     27247     27250     27253     27256
     27248     27247     27250     27251     27248     27247     27250     27252
     27248     27247     27250     27253     27249     27247     27250     27251
     27249     27247     27250     27252     27249     27247     27250     27253
     27250     27253     27256     27257     27250     27253     27256     27258
     27250     27253     27256     27259     27251     27250     27253     27254
     27251     27250     27253     27255     27251     27250     27253     27256
     27252     27250     27253     27254     27252     27250     27253     27255
     27252     27250     27253     27256     27253     27256     27259     27260
     27253     27256     27259     27261     27253     27256     27259     27262
     27254     27253     27256     27257     27254     27253     27256     27258
     27254     27253     27256     27259     27255     27253     27256     27257
     27255     27253     27256     27258     27255     27253     27256     27259
     27256     27259     27262     27263     27256     27259     27262     27264
     27256     27259     27262     27265     27257     27256     27259     27260
     27257     27256     27259     27261     27257     27256     27259     27262
     27258     27256     27259     27260     27258     27256     27259     27261
     27258     27256     27259     27262     27259     27262     27265     27266
     27259     27262     27265     27267     27260     27259     27262     27263
     27260     27259     27262     27264     27260     27259     27262     27265
     27261     27259     27262     27263     27261     27259     27262     27264
     27261     27259     27262     27265     27262     27265     27267     27268
     27262     27265     27267     27269     27263     27262     27265     27266
     27263     27262     27265     27267     27264     27262     27265     27266
     27264     27262     27265     27267     27265     27267     27269     27270
     27265     27267     27269     27271     27265     27267     27269     27272
     27266     27265     27267     27268     27266     27265     27267     27269
     27267     27269     27272     27273     27267     27269     27272     27274
     27267     27269     27272     27275     27268     27267     27269     27270
     27268     27267     27269     27271     27268     27267     27269     27272
     27269     27272     27275     27276     27269     27272     27275     27277
     27269     27272     27275     27278     27270     27269     27272     27273
     27270     27269     27272     27274     27270     27269     27272     27275
     27271     27269     27272     27273     27271     27269     27272     27274
     27271     27269     27272     27275     27272     27275     27278     27279
     27272     27275     27278     27280     27272     27275     27278     27281
     27273     27272     27275     27276     27273     27272     27275     27277
     27273     27272     27275     27278     27274     27272     27275     27276
     27274     27272     27275     27277     27274     27272     27275     27278
     27275     27278     27281     27282     27275     27278     27281     27283
     27275     27278     27281     27284     27276     27275     27278     27279
     27276     27275     27278     27280     27276     27275     27278     27281
     27277     27275     27278     27279     27277     27275     27278     27280
     27277     27275     27278     27281     27278     27281     27284     27285
     27278     27281     27284     27286     27278     27281     27284     27287
     27279     27278     27281     27282     27279     27278     27281     27283
     27279     27278     27281     27284     27280     27278     27281     27282
     27280     27278     27281     27283     27280     27278     27281     27284
     27281     27284     27287     27288     27281     27284     27287     27289
     27281     27284     27287     27290     27282     27281     27284     27285
     27282     27281     27284     27286     27282     27281     27284     27287
     27283     27281     27284     27285     27283     27281     27284     27286
     27283     27281     27284     27287     27284     27287     27290     27291
     27284     27287     27290     27292     27284     27287     27290     27293
     27285     27284     27287     27288     27285     27284     27287     27289
     27285     27284     27287     27290     27286     27284     27287     27288
     27286     27284     27287     27289     27286     27284     27287     27290
     27288     27287     27290     27291     27288     27287     27290     27292
     27288     27287     27290     27293     27289     27287     27290     27291
     27289     27287     27290     27292     27289     27287     27290     27293
     27294     27297     27300     27301     27294     27297     27300     27302
     27294     27297     27300     27303     27295     27294     27297     27298
     27295     27294     27297     27299     27295     27294     27297     27300
     27296     27294     27297     27298     27296     27294     27297     27299
     27296     27294     27297     27300     27297     27300     27303     27304
     27297     27300     27303     27305     27297     27300     27303     27306
     27298     27297     27300     27301     27298     27297     27300     27302
     27298     27297     27300     27303     27299     27297     27300     27301
     27299     27297     27300     27302     27299     27297     27300     27303
     27300     27303     27306     27307     27300     27303     27306     27308
     27300     27303     27306     27309     27301     27300     27303     27304
     27301     27300     27303     27305     27301     27300     27303     27306
     27302     27300     27303     27304     27302     27300     27303     27305
     27302     27300     27303     27306     27303     27306     27309     27310
     27303     27306     27309     27311     27303     27306     27309     27312
     27304     27303     27306     27307     27304     27303     27306     27308
     27304     27303     27306     27309     27305     27303     27306     27307
     27305     27303     27306     27308     27305     27303     27306     27309
     27306     27309     27312     27313     27306     27309     27312     27314
     27306     27309     27312     27315     27307     27306     27309     27310
     27307     27306     27309     27311     27307     27306     27309     27312
     27308     27306     27309     27310     27308     27306     27309     27311
     27308     27306     27309     27312     27309     27312     27315     27316
     27309     27312     27315     27317     27309     27312     27315     27318
     27310     27309     27312     27313     27310     27309     27312     27314
     27310     27309     27312     27315     27311     27309     27312     27313
     27311     27309     27312     27314     27311     27309     27312     27315
     27312     27315     27318     27319     27312     27315     27318     27320
     27312     27315     27318     27321     27313     27312     27315     27316
     27313     27312     27315     27317     27313     27312     27315     27318
     27314     27312     27315     27316     27314     27312     27315     27317
     27314     27312     27315     27318     27315     27318     27321     27322
     27315     27318     27321     27323     27315     27318     27321     27324
     27316     27315     27318     27319     27316     27315     27318     27320
     27316     27315     27318     27321     27317     27315     27318     27319
     27317     27315     27318     27320     27317     27315     27318     27321
     27318     27321     27324     27325     27318     27321     27324     27326
     27318     27321     27324     27327     27319     27318     27321     27322
     27319     27318     27321     27323     27319     27318     27321     27324
     27320     27318     27321     27322     27320     27318     27321     27323
     27320     27318     27321     27324     27321     27324     27327     27328
     27321     27324     27327     27329     27321     27324     27327     27330
     27322     27321     27324     27325     27322     27321     27324     27326
     27322     27321     27324     27327     27323     27321     27324     27325
     27323     27321     27324     27326     27323     27321     27324     27327
     27324     27327     27330     27331     27324     27327     27330     27332
     27324     27327     27330     27333     27325     27324     27327     27328
     27325     27324     27327     27329     27325     27324     27327     27330
     27326     27324     27327     27328     27326     27324     27327     27329
     27326     27324     27327     27330     27327     27330     27333     27334
     27327     27330     27333     27335     27327     27330     27333     27336
     27328     27327     27330     27331     27328     27327     27330     27332
     27328     27327     27330     27333     27329     27327     27330     27331
     27329     27327     27330     27332     27329     27327     27330     27333
     27331     27330     27333     27334     27331     27330     27333     27335
     27331     27330     27333     27336     27332     27330     27333     27334
     27332     27330     27333     27335     27332     27330     27333     27336
     27337     27338     27353     27354     27337     27338     27353     27355
     27337     27338     27353     27359     27338     27337     27341     27342
     27338     27337     27341     27343     27338     27337     27341     27344
     27338     27337     27345     27346     27338     27337     27345     27347
     27338     27337     27345     27348     27338     27337     27349     27350
     27338     27337     27349     27351     27338     27337     27349     27352
     27338     27353     27359     27356     27339     27338     27337     27341
     27339     27338     27337     27345     27339     27338     27337     27349
     27339     27338     27353     27354     27339     27338     27353     27355
     27339     27338     27353     27359     27340     27338     27337     27341
     27340     27338     27337     27345     27340     27338     27337     27349
     27340     27338     27353     27354     27340     27338     27353     27355
     27340     27338     27353     27359     27341     27337     27338     27353
     27341     27337     27345     27346     27341     27337     27345     27347
     27341     27337     27345     27348     27341     27337     27349     27350
     27341     27337     27349     27351     27341     27337     27349     27352
     27342     27341     27337     27345     27342     27341     27337     27349
     27343     27341     27337     27345     27343     27341     27337     27349
     27344     27341     27337     27345     27344     27341     27337     27349
     27345     27337     27338     27353     27345     27337     27349     27350
     27345     27337     27349     27351     27345     27337     27349     27352
     27346     27345     27337     27349     27347     27345     27337     27349
     27348     27345     27337     27349     27349     27337     27338     27353
     27353     27359     27356     27357     27353     27359     27356     27358
     27353     27359     27356     27360     27354     27353     27359     27356
     27355     27353     27359     27356     27356     27360     27361     27362
     27356     27360     27361     27363     27356     27360     27361     27364
     27357     27356     27360     27361     27358     27356     27360     27361
     27359     27356     27360     27361     27360     27361     27364     27365
     27360     27361     27364     27366     27360     27361     27364     27372
     27361     27364     27366     27367     27361     27364     27372     27373
     27361     27364     27372     27374     27361     27364     27372     27375
     27362     27361     27364     27365     27362     27361     27364     27366
     27362     27361     27364     27372     27363     27361     27364     27365
     27363     27361     27364     27366     27363     27361     27364     27372
     27364     27366     27367     27368     27364     27366     27367     27369
     27364     27372     27375     27376     27365     27364     27366     27367
     27365     27364     27372     27373     27365     27364     27372     27374
     27365     27364     27372     27375     27366     27364     27372     27373
     27366     27364     27372     27374     27366     27364     27372     27375
     27366     27367     27369     27370     27366     27367     27369     27371
     27366     27367     27369     27381     27367     27366     27364     27372
     27367     27369     27381     27382     27367     27369     27381     27383
     27367     27369     27381     27384     27368     27367     27369     27370
     27368     27367     27369     27371     27368     27367     27369     27381
     27369     27381     27384     27385     27369     27381     27384     27386
     27369     27381     27384     27387     27370     27369     27381     27382
     27370     27369     27381     27383     27370     27369     27381     27384
     27371     27369     27381     27382     27371     27369     27381     27383
     27371     27369     27381     27384     27372     27375     27376     27377
     27372     27375     27376     27378     27373     27372     27375     27376
     27374     27372     27375     27376     27375     27376     27378     27379
     27375     27376     27378     27380     27375     27376     27378     27428
     27376     27378     27428     27429     27376     27378     27428     27430
     27376     27378     27428     27431     27377     27376     27378     27379
     27377     27376     27378     27380     27377     27376     27378     27428
     27378     27428     27431     27432     27378     27428     27431     27433
     27378     27428     27431     27434     27379     27378     27428     27429
     27379     27378     27428     27430     27379     27378     27428     27431
     27380     27378     27428     27429     27380     27378     27428     27430
     27380     27378     27428     27431     27381     27384     27387     27388
     27381     27384     27387     27389     27381     27384     27387     27390
     27382     27381     27384     27385     27382     27381     27384     27386
     27382     27381     27384     27387     27383     27381     27384     27385
     27383     27381     27384     27386     27383     27381     27384     27387
     27384     27387     27390     27391     27384     27387     27390     27392
     27384     27387     27390     27393     27385     27384     27387     27388
     27385     27384     27387     27389     27385     27384     27387     27390
     27386     27384     27387     27388     27386     27384     27387     27389
     27386     27384     27387     27390     27387     27390     27393     27394
     27387     27390     27393     27395     27387     27390     27393     27396
     27388     27387     27390     27391     27388     27387     27390     27392
     27388     27387     27390     27393     27389     27387     27390     27391
     27389     27387     27390     27392     27389     27387     27390     27393
     27390     27393     27396     27397     27390     27393     27396     27398
     27390     27393     27396     27399     27391     27390     27393     27394
     27391     27390     27393     27395     27391     27390     27393     27396
     27392     27390     27393     27394     27392     27390     27393     27395
     27392     27390     27393     27396     27393     27396     27399     27400
     27393     27396     27399     27401     27394     27393     27396     27397
     27394     27393     27396     27398     27394     27393     27396     27399
     27395     27393     27396     27397     27395     27393     27396     27398
     27395     27393     27396     27399     27396     27399     27401     27402
     27396     27399     27401     27403     27397     27396     27399     27400
     27397     27396     27399     27401     27398     27396     27399     27400
     27398     27396     27399     27401     27399     27401     27403     27404
     27399     27401     27403     27405     27399     27401     27403     27406
     27400     27399     27401     27402     27400     27399     27401     27403
     27401     27403     27406     27407     27401     27403     27406     27408
     27401     27403     27406     27409     27402     27401     27403     27404
     27402     27401     27403     27405     27402     27401     27403     27406
     27403     27406     27409     27410     27403     27406     27409     27411
     27403     27406     27409     27412     27404     27403     27406     27407
     27404     27403     27406     27408     27404     27403     27406     27409
     27405     27403     27406     27407     27405     27403     27406     27408
     27405     27403     27406     27409     27406     27409     27412     27413
     27406     27409     27412     27414     27406     27409     27412     27415
     27407     27406     27409     27410     27407     27406     27409     27411
     27407     27406     27409     27412     27408     27406     27409     27410
     27408     27406     27409     27411     27408     27406     27409     27412
     27409     27412     27415     27416     27409     27412     27415     27417
     27409     27412     27415     27418     27410     27409     27412     27413
     27410     27409     27412     27414     27410     27409     27412     27415
     27411     27409     27412     27413     27411     27409     27412     27414
     27411     27409     27412     27415     27412     27415     27418     27419
     27412     27415     27418     27420     27412     27415     27418     27421
     27413     27412     27415     27416     27413     27412     27415     27417
     27413     27412     27415     27418     27414     27412     27415     27416
     27414     27412     27415     27417     27414     27412     27415     27418
     27415     27418     27421     27422     27415     27418     27421     27423
     27415     27418     27421     27424     27416     27415     27418     27419
     27416     27415     27418     27420     27416     27415     27418     27421
     27417     27415     27418     27419     27417     27415     27418     27420
     27417     27415     27418     27421     27418     27421     27424     27425
     27418     27421     27424     27426     27418     27421     27424     27427
     27419     27418     27421     27422     27419     27418     27421     27423
     27419     27418     27421     27424     27420     27418     27421     27422
     27420     27418     27421     27423     27420     27418     27421     27424
     27422     27421     27424     27425     27422     27421     27424     27426
     27422     27421     27424     27427     27423     27421     27424     27425
     27423     27421     27424     27426     27423     27421     27424     27427
     27428     27431     27434     27435     27428     27431     27434     27436
     27428     27431     27434     27437     27429     27428     27431     27432
     27429     27428     27431     27433     27429     27428     27431     27434
     27430     27428     27431     27432     27430     27428     27431     27433
     27430     27428     27431     27434     27431     27434     27437     27438
     27431     27434     27437     27439     27431     27434     27437     27440
     27432     27431     27434     27435     27432     27431     27434     27436
     27432     27431     27434     27437     27433     27431     27434     27435
     27433     27431     27434     27436     27433     27431     27434     27437
     27434     27437     27440     27441     27434     27437     27440     27442
     27434     27437     27440     27443     27435     27434     27437     27438
     27435     27434     27437     27439     27435     27434     27437     27440
     27436     27434     27437     27438     27436     27434     27437     27439
     27436     27434     27437     27440     27437     27440     27443     27444
     27437     27440     27443     27445     27437     27440     27443     27446
     27438     27437     27440     27441     27438     27437     27440     27442
     27438     27437     27440     27443     27439     27437     27440     27441
     27439     27437     27440     27442     27439     27437     27440     27443
     27440     27443     27446     27447     27440     27443     27446     27448
     27440     27443     27446     27449     27441     27440     27443     27444
     27441     27440     27443     27445     27441     27440     27443     27446
     27442     27440     27443     27444     27442     27440     27443     27445
     27442     27440     27443     27446     27443     27446     27449     27450
     27443     27446     27449     27451     27443     27446     27449     27452
     27444     27443     27446     27447     27444     27443     27446     27448
     27444     27443     27446     27449     27445     27443     27446     27447
     27445     27443     27446     27448     27445     27443     27446     27449
     27446     27449     27452     27453     27446     27449     27452     27454
     27446     27449     27452     27455     27447     27446     27449     27450
     27447     27446     27449     27451     27447     27446     27449     27452
     27448     27446     27449     27450     27448     27446     27449     27451
     27448     27446     27449     27452     27449     27452     27455     27456
     27449     27452     27455     27457     27449     27452     27455     27458
     27450     27449     27452     27453     27450     27449     27452     27454
     27450     27449     27452     27455     27451     27449     27452     27453
     27451     27449     27452     27454     27451     27449     27452     27455
     27452     27455     27458     27459     27452     27455     27458     27460
     27452     27455     27458     27461     27453     27452     27455     27456
     27453     27452     27455     27457     27453     27452     27455     27458
     27454     27452     27455     27456     27454     27452     27455     27457
     27454     27452     27455     27458     27455     27458     27461     27462
     27455     27458     27461     27463     27455     27458     27461     27464
     27456     27455     27458     27459     27456     27455     27458     27460
     27456     27455     27458     27461     27457     27455     27458     27459
     27457     27455     27458     27460     27457     27455     27458     27461
     27458     27461     27464     27465     27458     27461     27464     27466
     27458     27461     27464     27467     27459     27458     27461     27462
     27459     27458     27461     27463     27459     27458     27461     27464
     27460     27458     27461     27462     27460     27458     27461     27463
     27460     27458     27461     27464     27461     27464     27467     27468
     27461     27464     27467     27469     27461     27464     27467     27470
     27462     27461     27464     27465     27462     27461     27464     27466
     27462     27461     27464     27467     27463     27461     27464     27465
     27463     27461     27464     27466     27463     27461     27464     27467
     27465     27464     27467     27468     27465     27464     27467     27469
     27465     27464     27467     27470     27466     27464     27467     27468
     27466     27464     27467     27469     27466     27464     27467     27470
     27471     27472     27487     27488     27471     27472     27487     27489
     27471     27472     27487     27493     27472     27471     27475     27476
     27472     27471     27475     27477     27472     27471     27475     27478
     27472     27471     27479     27480     27472     27471     27479     27481
     27472     27471     27479     27482     27472     27471     27483     27484
     27472     27471     27483     27485     27472     27471     27483     27486
     27472     27487     27493     27490     27473     27472     27471     27475
     27473     27472     27471     27479     27473     27472     27471     27483
     27473     27472     27487     27488     27473     27472     27487     27489
     27473     27472     27487     27493     27474     27472     27471     27475
     27474     27472     27471     27479     27474     27472     27471     27483
     27474     27472     27487     27488     27474     27472     27487     27489
     27474     27472     27487     27493     27475     27471     27472     27487
     27475     27471     27479     27480     27475     27471     27479     27481
     27475     27471     27479     27482     27475     27471     27483     27484
     27475     27471     27483     27485     27475     27471     27483     27486
     27476     27475     27471     27479     27476     27475     27471     27483
     27477     27475     27471     27479     27477     27475     27471     27483
     27478     27475     27471     27479     27478     27475     27471     27483
     27479     27471     27472     27487     27479     27471     27483     27484
     27479     27471     27483     27485     27479     27471     27483     27486
     27480     27479     27471     27483     27481     27479     27471     27483
     27482     27479     27471     27483     27483     27471     27472     27487
     27487     27493     27490     27491     27487     27493     27490     27492
     27487     27493     27490     27494     27488     27487     27493     27490
     27489     27487     27493     27490     27490     27494     27495     27496
     27490     27494     27495     27497     27490     27494     27495     27498
     27491     27490     27494     27495     27492     27490     27494     27495
     27493     27490     27494     27495     27494     27495     27498     27499
     27494     27495     27498     27500     27494     27495     27498     27506
     27495     27498     27500     27501     27495     27498     27506     27507
     27495     27498     27506     27508     27495     27498     27506     27509
     27496     27495     27498     27499     27496     27495     27498     27500
     27496     27495     27498     27506     27497     27495     27498     27499
     27497     27495     27498     27500     27497     27495     27498     27506
     27498     27500     27501     27502     27498     27500     27501     27503
     27498     27506     27509     27510     27499     27498     27500     27501
     27499     27498     27506     27507     27499     27498     27506     27508
     27499     27498     27506     27509     27500     27498     27506     27507
     27500     27498     27506     27508     27500     27498     27506     27509
     27500     27501     27503     27504     27500     27501     27503     27505
     27500     27501     27503     27515     27501     27500     27498     27506
     27501     27503     27515     27516     27501     27503     27515     27517
     27501     27503     27515     27518     27502     27501     27503     27504
     27502     27501     27503     27505     27502     27501     27503     27515
     27503     27515     27518     27519     27503     27515     27518     27520
     27503     27515     27518     27521     27504     27503     27515     27516
     27504     27503     27515     27517     27504     27503     27515     27518
     27505     27503     27515     27516     27505     27503     27515     27517
     27505     27503     27515     27518     27506     27509     27510     27511
     27506     27509     27510     27512     27507     27506     27509     27510
     27508     27506     27509     27510     27509     27510     27512     27513
     27509     27510     27512     27514     27509     27510     27512     27562
     27510     27512     27562     27563     27510     27512     27562     27564
     27510     27512     27562     27565     27511     27510     27512     27513
     27511     27510     27512     27514     27511     27510     27512     27562
     27512     27562     27565     27566     27512     27562     27565     27567
     27512     27562     27565     27568     27513     27512     27562     27563
     27513     27512     27562     27564     27513     27512     27562     27565
     27514     27512     27562     27563     27514     27512     27562     27564
     27514     27512     27562     27565     27515     27518     27521     27522
     27515     27518     27521     27523     27515     27518     27521     27524
     27516     27515     27518     27519     27516     27515     27518     27520
     27516     27515     27518     27521     27517     27515     27518     27519
     27517     27515     27518     27520     27517     27515     27518     27521
     27518     27521     27524     27525     27518     27521     27524     27526
     27518     27521     27524     27527     27519     27518     27521     27522
     27519     27518     27521     27523     27519     27518     27521     27524
     27520     27518     27521     27522     27520     27518     27521     27523
     27520     27518     27521     27524     27521     27524     27527     27528
     27521     27524     27527     27529     27521     27524     27527     27530
     27522     27521     27524     27525     27522     27521     27524     27526
     27522     27521     27524     27527     27523     27521     27524     27525
     27523     27521     27524     27526     27523     27521     27524     27527
     27524     27527     27530     27531     27524     27527     27530     27532
     27524     27527     27530     27533     27525     27524     27527     27528
     27525     27524     27527     27529     27525     27524     27527     27530
     27526     27524     27527     27528     27526     27524     27527     27529
     27526     27524     27527     27530     27527     27530     27533     27534
     27527     27530     27533     27535     27528     27527     27530     27531
     27528     27527     27530     27532     27528     27527     27530     27533
     27529     27527     27530     27531     27529     27527     27530     27532
     27529     27527     27530     27533     27530     27533     27535     27536
     27530     27533     27535     27537     27531     27530     27533     27534
     27531     27530     27533     27535     27532     27530     27533     27534
     27532     27530     27533     27535     27533     27535     27537     27538
     27533     27535     27537     27539     27533     27535     27537     27540
     27534     27533     27535     27536     27534     27533     27535     27537
     27535     27537     27540     27541     27535     27537     27540     27542
     27535     27537     27540     27543     27536     27535     27537     27538
     27536     27535     27537     27539     27536     27535     27537     27540
     27537     27540     27543     27544     27537     27540     27543     27545
     27537     27540     27543     27546     27538     27537     27540     27541
     27538     27537     27540     27542     27538     27537     27540     27543
     27539     27537     27540     27541     27539     27537     27540     27542
     27539     27537     27540     27543     27540     27543     27546     27547
     27540     27543     27546     27548     27540     27543     27546     27549
     27541     27540     27543     27544     27541     27540     27543     27545
     27541     27540     27543     27546     27542     27540     27543     27544
     27542     27540     27543     27545     27542     27540     27543     27546
     27543     27546     27549     27550     27543     27546     27549     27551
     27543     27546     27549     27552     27544     27543     27546     27547
     27544     27543     27546     27548     27544     27543     27546     27549
     27545     27543     27546     27547     27545     27543     27546     27548
     27545     27543     27546     27549     27546     27549     27552     27553
     27546     27549     27552     27554     27546     27549     27552     27555
     27547     27546     27549     27550     27547     27546     27549     27551
     27547     27546     27549     27552     27548     27546     27549     27550
     27548     27546     27549     27551     27548     27546     27549     27552
     27549     27552     27555     27556     27549     27552     27555     27557
     27549     27552     27555     27558     27550     27549     27552     27553
     27550     27549     27552     27554     27550     27549     27552     27555
     27551     27549     27552     27553     27551     27549     27552     27554
     27551     27549     27552     27555     27552     27555     27558     27559
     27552     27555     27558     27560     27552     27555     27558     27561
     27553     27552     27555     27556     27553     27552     27555     27557
     27553     27552     27555     27558     27554     27552     27555     27556
     27554     27552     27555     27557     27554     27552     27555     27558
     27556     27555     27558     27559     27556     27555     27558     27560
     27556     27555     27558     27561     27557     27555     27558     27559
     27557     27555     27558     27560     27557     27555     27558     27561
     27562     27565     27568     27569     27562     27565     27568     27570
     27562     27565     27568     27571     27563     27562     27565     27566
     27563     27562     27565     27567     27563     27562     27565     27568
     27564     27562     27565     27566     27564     27562     27565     27567
     27564     27562     27565     27568     27565     27568     27571     27572
     27565     27568     27571     27573     27565     27568     27571     27574
     27566     27565     27568     27569     27566     27565     27568     27570
     27566     27565     27568     27571     27567     27565     27568     27569
     27567     27565     27568     27570     27567     27565     27568     27571
     27568     27571     27574     27575     27568     27571     27574     27576
     27568     27571     27574     27577     27569     27568     27571     27572
     27569     27568     27571     27573     27569     27568     27571     27574
     27570     27568     27571     27572     27570     27568     27571     27573
     27570     27568     27571     27574     27571     27574     27577     27578
     27571     27574     27577     27579     27571     27574     27577     27580
     27572     27571     27574     27575     27572     27571     27574     27576
     27572     27571     27574     27577     27573     27571     27574     27575
     27573     27571     27574     27576     27573     27571     27574     27577
     27574     27577     27580     27581     27574     27577     27580     27582
     27574     27577     27580     27583     27575     27574     27577     27578
     27575     27574     27577     27579     27575     27574     27577     27580
     27576     27574     27577     27578     27576     27574     27577     27579
     27576     27574     27577     27580     27577     27580     27583     27584
     27577     27580     27583     27585     27577     27580     27583     27586
     27578     27577     27580     27581     27578     27577     27580     27582
     27578     27577     27580     27583     27579     27577     27580     27581
     27579     27577     27580     27582     27579     27577     27580     27583
     27580     27583     27586     27587     27580     27583     27586     27588
     27580     27583     27586     27589     27581     27580     27583     27584
     27581     27580     27583     27585     27581     27580     27583     27586
     27582     27580     27583     27584     27582     27580     27583     27585
     27582     27580     27583     27586     27583     27586     27589     27590
     27583     27586     27589     27591     27583     27586     27589     27592
     27584     27583     27586     27587     27584     27583     27586     27588
     27584     27583     27586     27589     27585     27583     27586     27587
     27585     27583     27586     27588     27585     27583     27586     27589
     27586     27589     27592     27593     27586     27589     27592     27594
     27586     27589     27592     27595     27587     27586     27589     27590
     27587     27586     27589     27591     27587     27586     27589     27592
     27588     27586     27589     27590     27588     27586     27589     27591
     27588     27586     27589     27592     27589     27592     27595     27596
     27589     27592     27595     27597     27589     27592     27595     27598
     27590     27589     27592     27593     27590     27589     27592     27594
     27590     27589     27592     27595     27591     27589     27592     27593
     27591     27589     27592     27594     27591     27589     27592     27595
     27592     27595     27598     27599     27592     27595     27598     27600
     27592     27595     27598     27601     27593     27592     27595     27596
     27593     27592     27595     27597     27593     27592     27595     27598
     27594     27592     27595     27596     27594     27592     27595     27597
     27594     27592     27595     27598     27595     27598     27601     27602
     27595     27598     27601     27603     27595     27598     27601     27604
     27596     27595     27598     27599     27596     27595     27598     27600
     27596     27595     27598     27601     27597     27595     27598     27599
     27597     27595     27598     27600     27597     27595     27598     27601
     27599     27598     27601     27602     27599     27598     27601     27603
     27599     27598     27601     27604     27600     27598     27601     27602
     27600     27598     27601     27603     27600     27598     27601     27604
     27605     27606     27621     27622     27605     27606     27621     27623
     27605     27606     27621     27627     27606     27605     27609     27610
     27606     27605     27609     27611     27606     27605     27609     27612
     27606     27605     27613     27614     27606     27605     27613     27615
     27606     27605     27613     27616     27606     27605     27617     27618
     27606     27605     27617     27619     27606     27605     27617     27620
     27606     27621     27627     27624     27607     27606     27605     27609
     27607     27606     27605     27613     27607     27606     27605     27617
     27607     27606     27621     27622     27607     27606     27621     27623
     27607     27606     27621     27627     27608     27606     27605     27609
     27608     27606     27605     27613     27608     27606     27605     27617
     27608     27606     27621     27622     27608     27606     27621     27623
     27608     27606     27621     27627     27609     27605     27606     27621
     27609     27605     27613     27614     27609     27605     27613     27615
     27609     27605     27613     27616     27609     27605     27617     27618
     27609     27605     27617     27619     27609     27605     27617     27620
     27610     27609     27605     27613     27610     27609     27605     27617
     27611     27609     27605     27613     27611     27609     27605     27617
     27612     27609     27605     27613     27612     27609     27605     27617
     27613     27605     27606     27621     27613     27605     27617     27618
     27613     27605     27617     27619     27613     27605     27617     27620
     27614     27613     27605     27617     27615     27613     27605     27617
     27616     27613     27605     27617     27617     27605     27606     27621
     27621     27627     27624     27625     27621     27627     27624     27626
     27621     27627     27624     27628     27622     27621     27627     27624
     27623     27621     27627     27624     27624     27628     27629     27630
     27624     27628     27629     27631     27624     27628     27629     27632
     27625     27624     27628     27629     27626     27624     27628     27629
     27627     27624     27628     27629     27628     27629     27632     27633
     27628     27629     27632     27634     27628     27629     27632     27640
     27629     27632     27634     27635     27629     27632     27640     27641
     27629     27632     27640     27642     27629     27632     27640     27643
     27630     27629     27632     27633     27630     27629     27632     27634
     27630     27629     27632     27640     27631     27629     27632     27633
     27631     27629     27632     27634     27631     27629     27632     27640
     27632     27634     27635     27636     27632     27634     27635     27637
     27632     27640     27643     27644     27633     27632     27634     27635
     27633     27632     27640     27641     27633     27632     27640     27642
     27633     27632     27640     27643     27634     27632     27640     27641
     27634     27632     27640     27642     27634     27632     27640     27643
     27634     27635     27637     27638     27634     27635     27637     27639
     27634     27635     27637     27649     27635     27634     27632     27640
     27635     27637     27649     27650     27635     27637     27649     27651
     27635     27637     27649     27652     27636     27635     27637     27638
     27636     27635     27637     27639     27636     27635     27637     27649
     27637     27649     27652     27653     27637     27649     27652     27654
     27637     27649     27652     27655     27638     27637     27649     27650
     27638     27637     27649     27651     27638     27637     27649     27652
     27639     27637     27649     27650     27639     27637     27649     27651
     27639     27637     27649     27652     27640     27643     27644     27645
     27640     27643     27644     27646     27641     27640     27643     27644
     27642     27640     27643     27644     27643     27644     27646     27647
     27643     27644     27646     27648     27643     27644     27646     27696
     27644     27646     27696     27697     27644     27646     27696     27698
     27644     27646     27696     27699     27645     27644     27646     27647
     27645     27644     27646     27648     27645     27644     27646     27696
     27646     27696     27699     27700     27646     27696     27699     27701
     27646     27696     27699     27702     27647     27646     27696     27697
     27647     27646     27696     27698     27647     27646     27696     27699
     27648     27646     27696     27697     27648     27646     27696     27698
     27648     27646     27696     27699     27649     27652     27655     27656
     27649     27652     27655     27657     27649     27652     27655     27658
     27650     27649     27652     27653     27650     27649     27652     27654
     27650     27649     27652     27655     27651     27649     27652     27653
     27651     27649     27652     27654     27651     27649     27652     27655
     27652     27655     27658     27659     27652     27655     27658     27660
     27652     27655     27658     27661     27653     27652     27655     27656
     27653     27652     27655     27657     27653     27652     27655     27658
     27654     27652     27655     27656     27654     27652     27655     27657
     27654     27652     27655     27658     27655     27658     27661     27662
     27655     27658     27661     27663     27655     27658     27661     27664
     27656     27655     27658     27659     27656     27655     27658     27660
     27656     27655     27658     27661     27657     27655     27658     27659
     27657     27655     27658     27660     27657     27655     27658     27661
     27658     27661     27664     27665     27658     27661     27664     27666
     27658     27661     27664     27667     27659     27658     27661     27662
     27659     27658     27661     27663     27659     27658     27661     27664
     27660     27658     27661     27662     27660     27658     27661     27663
     27660     27658     27661     27664     27661     27664     27667     27668
     27661     27664     27667     27669     27662     27661     27664     27665
     27662     27661     27664     27666     27662     27661     27664     27667
     27663     27661     27664     27665     27663     27661     27664     27666
     27663     27661     27664     27667     27664     27667     27669     27670
     27664     27667     27669     27671     27665     27664     27667     27668
     27665     27664     27667     27669     27666     27664     27667     27668
     27666     27664     27667     27669     27667     27669     27671     27672
     27667     27669     27671     27673     27667     27669     27671     27674
     27668     27667     27669     27670     27668     27667     27669     27671
     27669     27671     27674     27675     27669     27671     27674     27676
     27669     27671     27674     27677     27670     27669     27671     27672
     27670     27669     27671     27673     27670     27669     27671     27674
     27671     27674     27677     27678     27671     27674     27677     27679
     27671     27674     27677     27680     27672     27671     27674     27675
     27672     27671     27674     27676     27672     27671     27674     27677
     27673     27671     27674     27675     27673     27671     27674     27676
     27673     27671     27674     27677     27674     27677     27680     27681
     27674     27677     27680     27682     27674     27677     27680     27683
     27675     27674     27677     27678     27675     27674     27677     27679
     27675     27674     27677     27680     27676     27674     27677     27678
     27676     27674     27677     27679     27676     27674     27677     27680
     27677     27680     27683     27684     27677     27680     27683     27685
     27677     27680     27683     27686     27678     27677     27680     27681
     27678     27677     27680     27682     27678     27677     27680     27683
     27679     27677     27680     27681     27679     27677     27680     27682
     27679     27677     27680     27683     27680     27683     27686     27687
     27680     27683     27686     27688     27680     27683     27686     27689
     27681     27680     27683     27684     27681     27680     27683     27685
     27681     27680     27683     27686     27682     27680     27683     27684
     27682     27680     27683     27685     27682     27680     27683     27686
     27683     27686     27689     27690     27683     27686     27689     27691
     27683     27686     27689     27692     27684     27683     27686     27687
     27684     27683     27686     27688     27684     27683     27686     27689
     27685     27683     27686     27687     27685     27683     27686     27688
     27685     27683     27686     27689     27686     27689     27692     27693
     27686     27689     27692     27694     27686     27689     27692     27695
     27687     27686     27689     27690     27687     27686     27689     27691
     27687     27686     27689     27692     27688     27686     27689     27690
     27688     27686     27689     27691     27688     27686     27689     27692
     27690     27689     27692     27693     27690     27689     27692     27694
     27690     27689     27692     27695     27691     27689     27692     27693
     27691     27689     27692     27694     27691     27689     27692     27695
     27696     27699     27702     27703     27696     27699     27702     27704
     27696     27699     27702     27705     27697     27696     27699     27700
     27697     27696     27699     27701     27697     27696     27699     27702
     27698     27696     27699     27700     27698     27696     27699     27701
     27698     27696     27699     27702     27699     27702     27705     27706
     27699     27702     27705     27707     27699     27702     27705     27708
     27700     27699     27702     27703     27700     27699     27702     27704
     27700     27699     27702     27705     27701     27699     27702     27703
     27701     27699     27702     27704     27701     27699     27702     27705
     27702     27705     27708     27709     27702     27705     27708     27710
     27702     27705     27708     27711     27703     27702     27705     27706
     27703     27702     27705     27707     27703     27702     27705     27708
     27704     27702     27705     27706     27704     27702     27705     27707
     27704     27702     27705     27708     27705     27708     27711     27712
     27705     27708     27711     27713     27705     27708     27711     27714
     27706     27705     27708     27709     27706     27705     27708     27710
     27706     27705     27708     27711     27707     27705     27708     27709
     27707     27705     27708     27710     27707     27705     27708     27711
     27708     27711     27714     27715     27708     27711     27714     27716
     27708     27711     27714     27717     27709     27708     27711     27712
     27709     27708     27711     27713     27709     27708     27711     27714
     27710     27708     27711     27712     27710     27708     27711     27713
     27710     27708     27711     27714     27711     27714     27717     27718
     27711     27714     27717     27719     27711     27714     27717     27720
     27712     27711     27714     27715     27712     27711     27714     27716
     27712     27711     27714     27717     27713     27711     27714     27715
     27713     27711     27714     27716     27713     27711     27714     27717
     27714     27717     27720     27721     27714     27717     27720     27722
     27714     27717     27720     27723     27715     27714     27717     27718
     27715     27714     27717     27719     27715     27714     27717     27720
     27716     27714     27717     27718     27716     27714     27717     27719
     27716     27714     27717     27720     27717     27720     27723     27724
     27717     27720     27723     27725     27717     27720     27723     27726
     27718     27717     27720     27721     27718     27717     27720     27722
     27718     27717     27720     27723     27719     27717     27720     27721
     27719     27717     27720     27722     27719     27717     27720     27723
     27720     27723     27726     27727     27720     27723     27726     27728
     27720     27723     27726     27729     27721     27720     27723     27724
     27721     27720     27723     27725     27721     27720     27723     27726
     27722     27720     27723     27724     27722     27720     27723     27725
     27722     27720     27723     27726     27723     27726     27729     27730
     27723     27726     27729     27731     27723     27726     27729     27732
     27724     27723     27726     27727     27724     27723     27726     27728
     27724     27723     27726     27729     27725     27723     27726     27727
     27725     27723     27726     27728     27725     27723     27726     27729
     27726     27729     27732     27733     27726     27729     27732     27734
     27726     27729     27732     27735     27727     27726     27729     27730
     27727     27726     27729     27731     27727     27726     27729     27732
     27728     27726     27729     27730     27728     27726     27729     27731
     27728     27726     27729     27732     27729     27732     27735     27736
     27729     27732     27735     27737     27729     27732     27735     27738
     27730     27729     27732     27733     27730     27729     27732     27734
     27730     27729     27732     27735     27731     27729     27732     27733
     27731     27729     27732     27734     27731     27729     27732     27735
     27733     27732     27735     27736     27733     27732     27735     27737
     27733     27732     27735     27738     27734     27732     27735     27736
     27734     27732     27735     27737     27734     27732     27735     27738
     27739     27740     27755     27756     27739     27740     27755     27757
     27739     27740     27755     27761     27740     27739     27743     27744
     27740     27739     27743     27745     27740     27739     27743     27746
     27740     27739     27747     27748     27740     27739     27747     27749
     27740     27739     27747     27750     27740     27739     27751     27752
     27740     27739     27751     27753     27740     27739     27751     27754
     27740     27755     27761     27758     27741     27740     27739     27743
     27741     27740     27739     27747     27741     27740     27739     27751
     27741     27740     27755     27756     27741     27740     27755     27757
     27741     27740     27755     27761     27742     27740     27739     27743
     27742     27740     27739     27747     27742     27740     27739     27751
     27742     27740     27755     27756     27742     27740     27755     27757
     27742     27740     27755     27761     27743     27739     27740     27755
     27743     27739     27747     27748     27743     27739     27747     27749
     27743     27739     27747     27750     27743     27739     27751     27752
     27743     27739     27751     27753     27743     27739     27751     27754
     27744     27743     27739     27747     27744     27743     27739     27751
     27745     27743     27739     27747     27745     27743     27739     27751
     27746     27743     27739     27747     27746     27743     27739     27751
     27747     27739     27740     27755     27747     27739     27751     27752
     27747     27739     27751     27753     27747     27739     27751     27754
     27748     27747     27739     27751     27749     27747     27739     27751
     27750     27747     27739     27751     27751     27739     27740     27755
     27755     27761     27758     27759     27755     27761     27758     27760
     27755     27761     27758     27762     27756     27755     27761     27758
     27757     27755     27761     27758     27758     27762     27763     27764
     27758     27762     27763     27765     27758     27762     27763     27766
     27759     27758     27762     27763     27760     27758     27762     27763
     27761     27758     27762     27763     27762     27763     27766     27767
     27762     27763     27766     27768     27762     27763     27766     27774
     27763     27766     27768     27769     27763     27766     27774     27775
     27763     27766     27774     27776     27763     27766     27774     27777
     27764     27763     27766     27767     27764     27763     27766     27768
     27764     27763     27766     27774     27765     27763     27766     27767
     27765     27763     27766     27768     27765     27763     27766     27774
     27766     27768     27769     27770     27766     27768     27769     27771
     27766     27774     27777     27778     27767     27766     27768     27769
     27767     27766     27774     27775     27767     27766     27774     27776
     27767     27766     27774     27777     27768     27766     27774     27775
     27768     27766     27774     27776     27768     27766     27774     27777
     27768     27769     27771     27772     27768     27769     27771     27773
     27768     27769     27771     27783     27769     27768     27766     27774
     27769     27771     27783     27784     27769     27771     27783     27785
     27769     27771     27783     27786     27770     27769     27771     27772
     27770     27769     27771     27773     27770     27769     27771     27783
     27771     27783     27786     27787     27771     27783     27786     27788
     27771     27783     27786     27789     27772     27771     27783     27784
     27772     27771     27783     27785     27772     27771     27783     27786
     27773     27771     27783     27784     27773     27771     27783     27785
     27773     27771     27783     27786     27774     27777     27778     27779
     27774     27777     27778     27780     27775     27774     27777     27778
     27776     27774     27777     27778     27777     27778     27780     27781
     27777     27778     27780     27782     27777     27778     27780     27830
     27778     27780     27830     27831     27778     27780     27830     27832
     27778     27780     27830     27833     27779     27778     27780     27781
     27779     27778     27780     27782     27779     27778     27780     27830
     27780     27830     27833     27834     27780     27830     27833     27835
     27780     27830     27833     27836     27781     27780     27830     27831
     27781     27780     27830     27832     27781     27780     27830     27833
     27782     27780     27830     27831     27782     27780     27830     27832
     27782     27780     27830     27833     27783     27786     27789     27790
     27783     27786     27789     27791     27783     27786     27789     27792
     27784     27783     27786     27787     27784     27783     27786     27788
     27784     27783     27786     27789     27785     27783     27786     27787
     27785     27783     27786     27788     27785     27783     27786     27789
     27786     27789     27792     27793     27786     27789     27792     27794
     27786     27789     27792     27795     27787     27786     27789     27790
     27787     27786     27789     27791     27787     27786     27789     27792
     27788     27786     27789     27790     27788     27786     27789     27791
     27788     27786     27789     27792     27789     27792     27795     27796
     27789     27792     27795     27797     27789     27792     27795     27798
     27790     27789     27792     27793     27790     27789     27792     27794
     27790     27789     27792     27795     27791     27789     27792     27793
     27791     27789     27792     27794     27791     27789     27792     27795
     27792     27795     27798     27799     27792     27795     27798     27800
     27792     27795     27798     27801     27793     27792     27795     27796
     27793     27792     27795     27797     27793     27792     27795     27798
     27794     27792     27795     27796     27794     27792     27795     27797
     27794     27792     27795     27798     27795     27798     27801     27802
     27795     27798     27801     27803     27796     27795     27798     27799
     27796     27795     27798     27800     27796     27795     27798     27801
     27797     27795     27798     27799     27797     27795     27798     27800
     27797     27795     27798     27801     27798     27801     27803     27804
     27798     27801     27803     27805     27799     27798     27801     27802
     27799     27798     27801     27803     27800     27798     27801     27802
     27800     27798     27801     27803     27801     27803     27805     27806
     27801     27803     27805     27807     27801     27803     27805     27808
     27802     27801     27803     27804     27802     27801     27803     27805
     27803     27805     27808     27809     27803     27805     27808     27810
     27803     27805     27808     27811     27804     27803     27805     27806
     27804     27803     27805     27807     27804     27803     27805     27808
     27805     27808     27811     27812     27805     27808     27811     27813
     27805     27808     27811     27814     27806     27805     27808     27809
     27806     27805     27808     27810     27806     27805     27808     27811
     27807     27805     27808     27809     27807     27805     27808     27810
     27807     27805     27808     27811     27808     27811     27814     27815
     27808     27811     27814     27816     27808     27811     27814     27817
     27809     27808     27811     27812     27809     27808     27811     27813
     27809     27808     27811     27814     27810     27808     27811     27812
     27810     27808     27811     27813     27810     27808     27811     27814
     27811     27814     27817     27818     27811     27814     27817     27819
     27811     27814     27817     27820     27812     27811     27814     27815
     27812     27811     27814     27816     27812     27811     27814     27817
     27813     27811     27814     27815     27813     27811     27814     27816
     27813     27811     27814     27817     27814     27817     27820     27821
     27814     27817     27820     27822     27814     27817     27820     27823
     27815     27814     27817     27818     27815     27814     27817     27819
     27815     27814     27817     27820     27816     27814     27817     27818
     27816     27814     27817     27819     27816     27814     27817     27820
     27817     27820     27823     27824     27817     27820     27823     27825
     27817     27820     27823     27826     27818     27817     27820     27821
     27818     27817     27820     27822     27818     27817     27820     27823
     27819     27817     27820     27821     27819     27817     27820     27822
     27819     27817     27820     27823     27820     27823     27826     27827
     27820     27823     27826     27828     27820     27823     27826     27829
     27821     27820     27823     27824     27821     27820     27823     27825
     27821     27820     27823     27826     27822     27820     27823     27824
     27822     27820     27823     27825     27822     27820     27823     27826
     27824     27823     27826     27827     27824     27823     27826     27828
     27824     27823     27826     27829     27825     27823     27826     27827
     27825     27823     27826     27828     27825     27823     27826     27829
     27830     27833     27836     27837     27830     27833     27836     27838
     27830     27833     27836     27839     27831     27830     27833     27834
     27831     27830     27833     27835     27831     27830     27833     27836
     27832     27830     27833     27834     27832     27830     27833     27835
     27832     27830     27833     27836     27833     27836     27839     27840
     27833     27836     27839     27841     27833     27836     27839     27842
     27834     27833     27836     27837     27834     27833     27836     27838
     27834     27833     27836     27839     27835     27833     27836     27837
     27835     27833     27836     27838     27835     27833     27836     27839
     27836     27839     27842     27843     27836     27839     27842     27844
     27836     27839     27842     27845     27837     27836     27839     27840
     27837     27836     27839     27841     27837     27836     27839     27842
     27838     27836     27839     27840     27838     27836     27839     27841
     27838     27836     27839     27842     27839     27842     27845     27846
     27839     27842     27845     27847     27839     27842     27845     27848
     27840     27839     27842     27843     27840     27839     27842     27844
     27840     27839     27842     27845     27841     27839     27842     27843
     27841     27839     27842     27844     27841     27839     27842     27845
     27842     27845     27848     27849     27842     27845     27848     27850
     27842     27845     27848     27851     27843     27842     27845     27846
     27843     27842     27845     27847     27843     27842     27845     27848
     27844     27842     27845     27846     27844     27842     27845     27847
     27844     27842     27845     27848     27845     27848     27851     27852
     27845     27848     27851     27853     27845     27848     27851     27854
     27846     27845     27848     27849     27846     27845     27848     27850
     27846     27845     27848     27851     27847     27845     27848     27849
     27847     27845     27848     27850     27847     27845     27848     27851
     27848     27851     27854     27855     27848     27851     27854     27856
     27848     27851     27854     27857     27849     27848     27851     27852
     27849     27848     27851     27853     27849     27848     27851     27854
     27850     27848     27851     27852     27850     27848     27851     27853
     27850     27848     27851     27854     27851     27854     27857     27858
     27851     27854     27857     27859     27851     27854     27857     27860
     27852     27851     27854     27855     27852     27851     27854     27856
     27852     27851     27854     27857     27853     27851     27854     27855
     27853     27851     27854     27856     27853     27851     27854     27857
     27854     27857     27860     27861     27854     27857     27860     27862
     27854     27857     27860     27863     27855     27854     27857     27858
     27855     27854     27857     27859     27855     27854     27857     27860
     27856     27854     27857     27858     27856     27854     27857     27859
     27856     27854     27857     27860     27857     27860     27863     27864
     27857     27860     27863     27865     27857     27860     27863     27866
     27858     27857     27860     27861     27858     27857     27860     27862
     27858     27857     27860     27863     27859     27857     27860     27861
     27859     27857     27860     27862     27859     27857     27860     27863
     27860     27863     27866     27867     27860     27863     27866     27868
     27860     27863     27866     27869     27861     27860     27863     27864
     27861     27860     27863     27865     27861     27860     27863     27866
     27862     27860     27863     27864     27862     27860     27863     27865
     27862     27860     27863     27866     27863     27866     27869     27870
     27863     27866     27869     27871     27863     27866     27869     27872
     27864     27863     27866     27867     27864     27863     27866     27868
     27864     27863     27866     27869     27865     27863     27866     27867
     27865     27863     27866     27868     27865     27863     27866     27869
     27867     27866     27869     27870     27867     27866     27869     27871
     27867     27866     27869     27872     27868     27866     27869     27870
     27868     27866     27869     27871     27868     27866     27869     27872
     27873     27874     27889     27890     27873     27874     27889     27891
     27873     27874     27889     27895     27874     27873     27877     27878
     27874     27873     27877     27879     27874     27873     27877     27880
     27874     27873     27881     27882     27874     27873     27881     27883
     27874     27873     27881     27884     27874     27873     27885     27886
     27874     27873     27885     27887     27874     27873     27885     27888
     27874     27889     27895     27892     27875     27874     27873     27877
     27875     27874     27873     27881     27875     27874     27873     27885
     27875     27874     27889     27890     27875     27874     27889     27891
     27875     27874     27889     27895     27876     27874     27873     27877
     27876     27874     27873     27881     27876     27874     27873     27885
     27876     27874     27889     27890     27876     27874     27889     27891
     27876     27874     27889     27895     27877     27873     27874     27889
     27877     27873     27881     27882     27877     27873     27881     27883
     27877     27873     27881     27884     27877     27873     27885     27886
     27877     27873     27885     27887     27877     27873     27885     27888
     27878     27877     27873     27881     27878     27877     27873     27885
     27879     27877     27873     27881     27879     27877     27873     27885
     27880     27877     27873     27881     27880     27877     27873     27885
     27881     27873     27874     27889     27881     27873     27885     27886
     27881     27873     27885     27887     27881     27873     27885     27888
     27882     27881     27873     27885     27883     27881     27873     27885
     27884     27881     27873     27885     27885     27873     27874     27889
     27889     27895     27892     27893     27889     27895     27892     27894
     27889     27895     27892     27896     27890     27889     27895     27892
     27891     27889     27895     27892     27892     27896     27897     27898
     27892     27896     27897     27899     27892     27896     27897     27900
     27893     27892     27896     27897     27894     27892     27896     27897
     27895     27892     27896     27897     27896     27897     27900     27901
     27896     27897     27900     27902     27896     27897     27900     27908
     27897     27900     27902     27903     27897     27900     27908     27909
     27897     27900     27908     27910     27897     27900     27908     27911
     27898     27897     27900     27901     27898     27897     27900     27902
     27898     27897     27900     27908     27899     27897     27900     27901
     27899     27897     27900     27902     27899     27897     27900     27908
     27900     27902     27903     27904     27900     27902     27903     27905
     27900     27908     27911     27912     27901     27900     27902     27903
     27901     27900     27908     27909     27901     27900     27908     27910
     27901     27900     27908     27911     27902     27900     27908     27909
     27902     27900     27908     27910     27902     27900     27908     27911
     27902     27903     27905     27906     27902     27903     27905     27907
     27902     27903     27905     27917     27903     27902     27900     27908
     27903     27905     27917     27918     27903     27905     27917     27919
     27903     27905     27917     27920     27904     27903     27905     27906
     27904     27903     27905     27907     27904     27903     27905     27917
     27905     27917     27920     27921     27905     27917     27920     27922
     27905     27917     27920     27923     27906     27905     27917     27918
     27906     27905     27917     27919     27906     27905     27917     27920
     27907     27905     27917     27918     27907     27905     27917     27919
     27907     27905     27917     27920     27908     27911     27912     27913
     27908     27911     27912     27914     27909     27908     27911     27912
     27910     27908     27911     27912     27911     27912     27914     27915
     27911     27912     27914     27916     27911     27912     27914     27964
     27912     27914     27964     27965     27912     27914     27964     27966
     27912     27914     27964     27967     27913     27912     27914     27915
     27913     27912     27914     27916     27913     27912     27914     27964
     27914     27964     27967     27968     27914     27964     27967     27969
     27914     27964     27967     27970     27915     27914     27964     27965
     27915     27914     27964     27966     27915     27914     27964     27967
     27916     27914     27964     27965     27916     27914     27964     27966
     27916     27914     27964     27967     27917     27920     27923     27924
     27917     27920     27923     27925     27917     27920     27923     27926
     27918     27917     27920     27921     27918     27917     27920     27922
     27918     27917     27920     27923     27919     27917     27920     27921
     27919     27917     27920     27922     27919     27917     27920     27923
     27920     27923     27926     27927     27920     27923     27926     27928
     27920     27923     27926     27929     27921     27920     27923     27924
     27921     27920     27923     27925     27921     27920     27923     27926
     27922     27920     27923     27924     27922     27920     27923     27925
     27922     27920     27923     27926     27923     27926     27929     27930
     27923     27926     27929     27931     27923     27926     27929     27932
     27924     27923     27926     27927     27924     27923     27926     27928
     27924     27923     27926     27929     27925     27923     27926     27927
     27925     27923     27926     27928     27925     27923     27926     27929
     27926     27929     27932     27933     27926     27929     27932     27934
     27926     27929     27932     27935     27927     27926     27929     27930
     27927     27926     27929     27931     27927     27926     27929     27932
     27928     27926     27929     27930     27928     27926     27929     27931
     27928     27926     27929     27932     27929     27932     27935     27936
     27929     27932     27935     27937     27930     27929     27932     27933
     27930     27929     27932     27934     27930     27929     27932     27935
     27931     27929     27932     27933     27931     27929     27932     27934
     27931     27929     27932     27935     27932     27935     27937     27938
     27932     27935     27937     27939     27933     27932     27935     27936
     27933     27932     27935     27937     27934     27932     27935     27936
     27934     27932     27935     27937     27935     27937     27939     27940
     27935     27937     27939     27941     27935     27937     27939     27942
     27936     27935     27937     27938     27936     27935     27937     27939
     27937     27939     27942     27943     27937     27939     27942     27944
     27937     27939     27942     27945     27938     27937     27939     27940
     27938     27937     27939     27941     27938     27937     27939     27942
     27939     27942     27945     27946     27939     27942     27945     27947
     27939     27942     27945     27948     27940     27939     27942     27943
     27940     27939     27942     27944     27940     27939     27942     27945
     27941     27939     27942     27943     27941     27939     27942     27944
     27941     27939     27942     27945     27942     27945     27948     27949
     27942     27945     27948     27950     27942     27945     27948     27951
     27943     27942     27945     27946     27943     27942     27945     27947
     27943     27942     27945     27948     27944     27942     27945     27946
     27944     27942     27945     27947     27944     27942     27945     27948
     27945     27948     27951     27952     27945     27948     27951     27953
     27945     27948     27951     27954     27946     27945     27948     27949
     27946     27945     27948     27950     27946     27945     27948     27951
     27947     27945     27948     27949     27947     27945     27948     27950
     27947     27945     27948     27951     27948     27951     27954     27955
     27948     27951     27954     27956     27948     27951     27954     27957
     27949     27948     27951     27952     27949     27948     27951     27953
     27949     27948     27951     27954     27950     27948     27951     27952
     27950     27948     27951     27953     27950     27948     27951     27954
     27951     27954     27957     27958     27951     27954     27957     27959
     27951     27954     27957     27960     27952     27951     27954     27955
     27952     27951     27954     27956     27952     27951     27954     27957
     27953     27951     27954     27955     27953     27951     27954     27956
     27953     27951     27954     27957     27954     27957     27960     27961
     27954     27957     27960     27962     27954     27957     27960     27963
     27955     27954     27957     27958     27955     27954     27957     27959
     27955     27954     27957     27960     27956     27954     27957     27958
     27956     27954     27957     27959     27956     27954     27957     27960
     27958     27957     27960     27961     27958     27957     27960     27962
     27958     27957     27960     27963     27959     27957     27960     27961
     27959     27957     27960     27962     27959     27957     27960     27963
     27964     27967     27970     27971     27964     27967     27970     27972
     27964     27967     27970     27973     27965     27964     27967     27968
     27965     27964     27967     27969     27965     27964     27967     27970
     27966     27964     27967     27968     27966     27964     27967     27969
     27966     27964     27967     27970     27967     27970     27973     27974
     27967     27970     27973     27975     27967     27970     27973     27976
     27968     27967     27970     27971     27968     27967     27970     27972
     27968     27967     27970     27973     27969     27967     27970     27971
     27969     27967     27970     27972     27969     27967     27970     27973
     27970     27973     27976     27977     27970     27973     27976     27978
     27970     27973     27976     27979     27971     27970     27973     27974
     27971     27970     27973     27975     27971     27970     27973     27976
     27972     27970     27973     27974     27972     27970     27973     27975
     27972     27970     27973     27976     27973     27976     27979     27980
     27973     27976     27979     27981     27973     27976     27979     27982
     27974     27973     27976     27977     27974     27973     27976     27978
     27974     27973     27976     27979     27975     27973     27976     27977
     27975     27973     27976     27978     27975     27973     27976     27979
     27976     27979     27982     27983     27976     27979     27982     27984
     27976     27979     27982     27985     27977     27976     27979     27980
     27977     27976     27979     27981     27977     27976     27979     27982
     27978     27976     27979     27980     27978     27976     27979     27981
     27978     27976     27979     27982     27979     27982     27985     27986
     27979     27982     27985     27987     27979     27982     27985     27988
     27980     27979     27982     27983     27980     27979     27982     27984
     27980     27979     27982     27985     27981     27979     27982     27983
     27981     27979     27982     27984     27981     27979     27982     27985
     27982     27985     27988     27989     27982     27985     27988     27990
     27982     27985     27988     27991     27983     27982     27985     27986
     27983     27982     27985     27987     27983     27982     27985     27988
     27984     27982     27985     27986     27984     27982     27985     27987
     27984     27982     27985     27988     27985     27988     27991     27992
     27985     27988     27991     27993     27985     27988     27991     27994
     27986     27985     27988     27989     27986     27985     27988     27990
     27986     27985     27988     27991     27987     27985     27988     27989
     27987     27985     27988     27990     27987     27985     27988     27991
     27988     27991     27994     27995     27988     27991     27994     27996
     27988     27991     27994     27997     27989     27988     27991     27992
     27989     27988     27991     27993     27989     27988     27991     27994
     27990     27988     27991     27992     27990     27988     27991     27993
     27990     27988     27991     27994     27991     27994     27997     27998
     27991     27994     27997     27999     27991     27994     27997     28000
     27992     27991     27994     27995     27992     27991     27994     27996
     27992     27991     27994     27997     27993     27991     27994     27995
     27993     27991     27994     27996     27993     27991     27994     27997
     27994     27997     28000     28001     27994     27997     28000     28002
     27994     27997     28000     28003     27995     27994     27997     27998
     27995     27994     27997     27999     27995     27994     27997     28000
     27996     27994     27997     27998     27996     27994     27997     27999
     27996     27994     27997     28000     27997     28000     28003     28004
     27997     28000     28003     28005     27997     28000     28003     28006
     27998     27997     28000     28001     27998     27997     28000     28002
     27998     27997     28000     28003     27999     27997     28000     28001
     27999     27997     28000     28002     27999     27997     28000     28003
     28001     28000     28003     28004     28001     28000     28003     28005
     28001     28000     28003     28006     28002     28000     28003     28004
     28002     28000     28003     28005     28002     28000     28003     28006
     28007     28008     28023     28024     28007     28008     28023     28025
     28007     28008     28023     28029     28008     28007     28011     28012
     28008     28007     28011     28013     28008     28007     28011     28014
     28008     28007     28015     28016     28008     28007     28015     28017
     28008     28007     28015     28018     28008     28007     28019     28020
     28008     28007     28019     28021     28008     28007     28019     28022
     28008     28023     28029     28026     28009     28008     28007     28011
     28009     28008     28007     28015     28009     28008     28007     28019
     28009     28008     28023     28024     28009     28008     28023     28025
     28009     28008     28023     28029     28010     28008     28007     28011
     28010     28008     28007     28015     28010     28008     28007     28019
     28010     28008     28023     28024     28010     28008     28023     28025
     28010     28008     28023     28029     28011     28007     28008     28023
     28011     28007     28015     28016     28011     28007     28015     28017
     28011     28007     28015     28018     28011     28007     28019     28020
     28011     28007     28019     28021     28011     28007     28019     28022
     28012     28011     28007     28015     28012     28011     28007     28019
     28013     28011     28007     28015     28013     28011     28007     28019
     28014     28011     28007     28015     28014     28011     28007     28019
     28015     28007     28008     28023     28015     28007     28019     28020
     28015     28007     28019     28021     28015     28007     28019     28022
     28016     28015     28007     28019     28017     28015     28007     28019
     28018     28015     28007     28019     28019     28007     28008     28023
     28023     28029     28026     28027     28023     28029     28026     28028
     28023     28029     28026     28030     28024     28023     28029     28026
     28025     28023     28029     28026     28026     28030     28031     28032
     28026     28030     28031     28033     28026     28030     28031     28034
     28027     28026     28030     28031     28028     28026     28030     28031
     28029     28026     28030     28031     28030     28031     28034     28035
     28030     28031     28034     28036     28030     28031     28034     28042
     28031     28034     28036     28037     28031     28034     28042     28043
     28031     28034     28042     28044     28031     28034     28042     28045
     28032     28031     28034     28035     28032     28031     28034     28036
     28032     28031     28034     28042     28033     28031     28034     28035
     28033     28031     28034     28036     28033     28031     28034     28042
     28034     28036     28037     28038     28034     28036     28037     28039
     28034     28042     28045     28046     28035     28034     28036     28037
     28035     28034     28042     28043     28035     28034     28042     28044
     28035     28034     28042     28045     28036     28034     28042     28043
     28036     28034     28042     28044     28036     28034     28042     28045
     28036     28037     28039     28040     28036     28037     28039     28041
     28036     28037     28039     28051     28037     28036     28034     28042
     28037     28039     28051     28052     28037     28039     28051     28053
     28037     28039     28051     28054     28038     28037     28039     28040
     28038     28037     28039     28041     28038     28037     28039     28051
     28039     28051     28054     28055     28039     28051     28054     28056
     28039     28051     28054     28057     28040     28039     28051     28052
     28040     28039     28051     28053     28040     28039     28051     28054
     28041     28039     28051     28052     28041     28039     28051     28053
     28041     28039     28051     28054     28042     28045     28046     28047
     28042     28045     28046     28048     28043     28042     28045     28046
     28044     28042     28045     28046     28045     28046     28048     28049
     28045     28046     28048     28050     28045     28046     28048     28098
     28046     28048     28098     28099     28046     28048     28098     28100
     28046     28048     28098     28101     28047     28046     28048     28049
     28047     28046     28048     28050     28047     28046     28048     28098
     28048     28098     28101     28102     28048     28098     28101     28103
     28048     28098     28101     28104     28049     28048     28098     28099
     28049     28048     28098     28100     28049     28048     28098     28101
     28050     28048     28098     28099     28050     28048     28098     28100
     28050     28048     28098     28101     28051     28054     28057     28058
     28051     28054     28057     28059     28051     28054     28057     28060
     28052     28051     28054     28055     28052     28051     28054     28056
     28052     28051     28054     28057     28053     28051     28054     28055
     28053     28051     28054     28056     28053     28051     28054     28057
     28054     28057     28060     28061     28054     28057     28060     28062
     28054     28057     28060     28063     28055     28054     28057     28058
     28055     28054     28057     28059     28055     28054     28057     28060
     28056     28054     28057     28058     28056     28054     28057     28059
     28056     28054     28057     28060     28057     28060     28063     28064
     28057     28060     28063     28065     28057     28060     28063     28066
     28058     28057     28060     28061     28058     28057     28060     28062
     28058     28057     28060     28063     28059     28057     28060     28061
     28059     28057     28060     28062     28059     28057     28060     28063
     28060     28063     28066     28067     28060     28063     28066     28068
     28060     28063     28066     28069     28061     28060     28063     28064
     28061     28060     28063     28065     28061     28060     28063     28066
     28062     28060     28063     28064     28062     28060     28063     28065
     28062     28060     28063     28066     28063     28066     28069     28070
     28063     28066     28069     28071     28064     28063     28066     28067
     28064     28063     28066     28068     28064     28063     28066     28069
     28065     28063     28066     28067     28065     28063     28066     28068
     28065     28063     28066     28069     28066     28069     28071     28072
     28066     28069     28071     28073     28067     28066     28069     28070
     28067     28066     28069     28071     28068     28066     28069     28070
     28068     28066     28069     28071     28069     28071     28073     28074
     28069     28071     28073     28075     28069     28071     28073     28076
     28070     28069     28071     28072     28070     28069     28071     28073
     28071     28073     28076     28077     28071     28073     28076     28078
     28071     28073     28076     28079     28072     28071     28073     28074
     28072     28071     28073     28075     28072     28071     28073     28076
     28073     28076     28079     28080     28073     28076     28079     28081
     28073     28076     28079     28082     28074     28073     28076     28077
     28074     28073     28076     28078     28074     28073     28076     28079
     28075     28073     28076     28077     28075     28073     28076     28078
     28075     28073     28076     28079     28076     28079     28082     28083
     28076     28079     28082     28084     28076     28079     28082     28085
     28077     28076     28079     28080     28077     28076     28079     28081
     28077     28076     28079     28082     28078     28076     28079     28080
     28078     28076     28079     28081     28078     28076     28079     28082
     28079     28082     28085     28086     28079     28082     28085     28087
     28079     28082     28085     28088     28080     28079     28082     28083
     28080     28079     28082     28084     28080     28079     28082     28085
     28081     28079     28082     28083     28081     28079     28082     28084
     28081     28079     28082     28085     28082     28085     28088     28089
     28082     28085     28088     28090     28082     28085     28088     28091
     28083     28082     28085     28086     28083     28082     28085     28087
     28083     28082     28085     28088     28084     28082     28085     28086
     28084     28082     28085     28087     28084     28082     28085     28088
     28085     28088     28091     28092     28085     28088     28091     28093
     28085     28088     28091     28094     28086     28085     28088     28089
     28086     28085     28088     28090     28086     28085     28088     28091
     28087     28085     28088     28089     28087     28085     28088     28090
     28087     28085     28088     28091     28088     28091     28094     28095
     28088     28091     28094     28096     28088     28091     28094     28097
     28089     28088     28091     28092     28089     28088     28091     28093
     28089     28088     28091     28094     28090     28088     28091     28092
     28090     28088     28091     28093     28090     28088     28091     28094
     28092     28091     28094     28095     28092     28091     28094     28096
     28092     28091     28094     28097     28093     28091     28094     28095
     28093     28091     28094     28096     28093     28091     28094     28097
     28098     28101     28104     28105     28098     28101     28104     28106
     28098     28101     28104     28107     28099     28098     28101     28102
     28099     28098     28101     28103     28099     28098     28101     28104
     28100     28098     28101     28102     28100     28098     28101     28103
     28100     28098     28101     28104     28101     28104     28107     28108
     28101     28104     28107     28109     28101     28104     28107     28110
     28102     28101     28104     28105     28102     28101     28104     28106
     28102     28101     28104     28107     28103     28101     28104     28105
     28103     28101     28104     28106     28103     28101     28104     28107
     28104     28107     28110     28111     28104     28107     28110     28112
     28104     28107     28110     28113     28105     28104     28107     28108
     28105     28104     28107     28109     28105     28104     28107     28110
     28106     28104     28107     28108     28106     28104     28107     28109
     28106     28104     28107     28110     28107     28110     28113     28114
     28107     28110     28113     28115     28107     28110     28113     28116
     28108     28107     28110     28111     28108     28107     28110     28112
     28108     28107     28110     28113     28109     28107     28110     28111
     28109     28107     28110     28112     28109     28107     28110     28113
     28110     28113     28116     28117     28110     28113     28116     28118
     28110     28113     28116     28119     28111     28110     28113     28114
     28111     28110     28113     28115     28111     28110     28113     28116
     28112     28110     28113     28114     28112     28110     28113     28115
     28112     28110     28113     28116     28113     28116     28119     28120
     28113     28116     28119     28121     28113     28116     28119     28122
     28114     28113     28116     28117     28114     28113     28116     28118
     28114     28113     28116     28119     28115     28113     28116     28117
     28115     28113     28116     28118     28115     28113     28116     28119
     28116     28119     28122     28123     28116     28119     28122     28124
     28116     28119     28122     28125     28117     28116     28119     28120
     28117     28116     28119     28121     28117     28116     28119     28122
     28118     28116     28119     28120     28118     28116     28119     28121
     28118     28116     28119     28122     28119     28122     28125     28126
     28119     28122     28125     28127     28119     28122     28125     28128
     28120     28119     28122     28123     28120     28119     28122     28124
     28120     28119     28122     28125     28121     28119     28122     28123
     28121     28119     28122     28124     28121     28119     28122     28125
     28122     28125     28128     28129     28122     28125     28128     28130
     28122     28125     28128     28131     28123     28122     28125     28126
     28123     28122     28125     28127     28123     28122     28125     28128
     28124     28122     28125     28126     28124     28122     28125     28127
     28124     28122     28125     28128     28125     28128     28131     28132
     28125     28128     28131     28133     28125     28128     28131     28134
     28126     28125     28128     28129     28126     28125     28128     28130
     28126     28125     28128     28131     28127     28125     28128     28129
     28127     28125     28128     28130     28127     28125     28128     28131
     28128     28131     28134     28135     28128     28131     28134     28136
     28128     28131     28134     28137     28129     28128     28131     28132
     28129     28128     28131     28133     28129     28128     28131     28134
     28130     28128     28131     28132     28130     28128     28131     28133
     28130     28128     28131     28134     28131     28134     28137     28138
     28131     28134     28137     28139     28131     28134     28137     28140
     28132     28131     28134     28135     28132     28131     28134     28136
     28132     28131     28134     28137     28133     28131     28134     28135
     28133     28131     28134     28136     28133     28131     28134     28137
     28135     28134     28137     28138     28135     28134     28137     28139
     28135     28134     28137     28140     28136     28134     28137     28138
     28136     28134     28137     28139     28136     28134     28137     28140
     28141     28142     28157     28158     28141     28142     28157     28159
     28141     28142     28157     28163     28142     28141     28145     28146
     28142     28141     28145     28147     28142     28141     28145     28148
     28142     28141     28149     28150     28142     28141     28149     28151
     28142     28141     28149     28152     28142     28141     28153     28154
     28142     28141     28153     28155     28142     28141     28153     28156
     28142     28157     28163     28160     28143     28142     28141     28145
     28143     28142     28141     28149     28143     28142     28141     28153
     28143     28142     28157     28158     28143     28142     28157     28159
     28143     28142     28157     28163     28144     28142     28141     28145
     28144     28142     28141     28149     28144     28142     28141     28153
     28144     28142     28157     28158     28144     28142     28157     28159
     28144     28142     28157     28163     28145     28141     28142     28157
     28145     28141     28149     28150     28145     28141     28149     28151
     28145     28141     28149     28152     28145     28141     28153     28154
     28145     28141     28153     28155     28145     28141     28153     28156
     28146     28145     28141     28149     28146     28145     28141     28153
     28147     28145     28141     28149     28147     28145     28141     28153
     28148     28145     28141     28149     28148     28145     28141     28153
     28149     28141     28142     28157     28149     28141     28153     28154
     28149     28141     28153     28155     28149     28141     28153     28156
     28150     28149     28141     28153     28151     28149     28141     28153
     28152     28149     28141     28153     28153     28141     28142     28157
     28157     28163     28160     28161     28157     28163     28160     28162
     28157     28163     28160     28164     28158     28157     28163     28160
     28159     28157     28163     28160     28160     28164     28165     28166
     28160     28164     28165     28167     28160     28164     28165     28168
     28161     28160     28164     28165     28162     28160     28164     28165
     28163     28160     28164     28165     28164     28165     28168     28169
     28164     28165     28168     28170     28164     28165     28168     28176
     28165     28168     28170     28171     28165     28168     28176     28177
     28165     28168     28176     28178     28165     28168     28176     28179
     28166     28165     28168     28169     28166     28165     28168     28170
     28166     28165     28168     28176     28167     28165     28168     28169
     28167     28165     28168     28170     28167     28165     28168     28176
     28168     28170     28171     28172     28168     28170     28171     28173
     28168     28176     28179     28180     28169     28168     28170     28171
     28169     28168     28176     28177     28169     28168     28176     28178
     28169     28168     28176     28179     28170     28168     28176     28177
     28170     28168     28176     28178     28170     28168     28176     28179
     28170     28171     28173     28174     28170     28171     28173     28175
     28170     28171     28173     28185     28171     28170     28168     28176
     28171     28173     28185     28186     28171     28173     28185     28187
     28171     28173     28185     28188     28172     28171     28173     28174
     28172     28171     28173     28175     28172     28171     28173     28185
     28173     28185     28188     28189     28173     28185     28188     28190
     28173     28185     28188     28191     28174     28173     28185     28186
     28174     28173     28185     28187     28174     28173     28185     28188
     28175     28173     28185     28186     28175     28173     28185     28187
     28175     28173     28185     28188     28176     28179     28180     28181
     28176     28179     28180     28182     28177     28176     28179     28180
     28178     28176     28179     28180     28179     28180     28182     28183
     28179     28180     28182     28184     28179     28180     28182     28232
     28180     28182     28232     28233     28180     28182     28232     28234
     28180     28182     28232     28235     28181     28180     28182     28183
     28181     28180     28182     28184     28181     28180     28182     28232
     28182     28232     28235     28236     28182     28232     28235     28237
     28182     28232     28235     28238     28183     28182     28232     28233
     28183     28182     28232     28234     28183     28182     28232     28235
     28184     28182     28232     28233     28184     28182     28232     28234
     28184     28182     28232     28235     28185     28188     28191     28192
     28185     28188     28191     28193     28185     28188     28191     28194
     28186     28185     28188     28189     28186     28185     28188     28190
     28186     28185     28188     28191     28187     28185     28188     28189
     28187     28185     28188     28190     28187     28185     28188     28191
     28188     28191     28194     28195     28188     28191     28194     28196
     28188     28191     28194     28197     28189     28188     28191     28192
     28189     28188     28191     28193     28189     28188     28191     28194
     28190     28188     28191     28192     28190     28188     28191     28193
     28190     28188     28191     28194     28191     28194     28197     28198
     28191     28194     28197     28199     28191     28194     28197     28200
     28192     28191     28194     28195     28192     28191     28194     28196
     28192     28191     28194     28197     28193     28191     28194     28195
     28193     28191     28194     28196     28193     28191     28194     28197
     28194     28197     28200     28201     28194     28197     28200     28202
     28194     28197     28200     28203     28195     28194     28197     28198
     28195     28194     28197     28199     28195     28194     28197     28200
     28196     28194     28197     28198     28196     28194     28197     28199
     28196     28194     28197     28200     28197     28200     28203     28204
     28197     28200     28203     28205     28198     28197     28200     28201
     28198     28197     28200     28202     28198     28197     28200     28203
     28199     28197     28200     28201     28199     28197     28200     28202
     28199     28197     28200     28203     28200     28203     28205     28206
     28200     28203     28205     28207     28201     28200     28203     28204
     28201     28200     28203     28205     28202     28200     28203     28204
     28202     28200     28203     28205     28203     28205     28207     28208
     28203     28205     28207     28209     28203     28205     28207     28210
     28204     28203     28205     28206     28204     28203     28205     28207
     28205     28207     28210     28211     28205     28207     28210     28212
     28205     28207     28210     28213     28206     28205     28207     28208
     28206     28205     28207     28209     28206     28205     28207     28210
     28207     28210     28213     28214     28207     28210     28213     28215
     28207     28210     28213     28216     28208     28207     28210     28211
     28208     28207     28210     28212     28208     28207     28210     28213
     28209     28207     28210     28211     28209     28207     28210     28212
     28209     28207     28210     28213     28210     28213     28216     28217
     28210     28213     28216     28218     28210     28213     28216     28219
     28211     28210     28213     28214     28211     28210     28213     28215
     28211     28210     28213     28216     28212     28210     28213     28214
     28212     28210     28213     28215     28212     28210     28213     28216
     28213     28216     28219     28220     28213     28216     28219     28221
     28213     28216     28219     28222     28214     28213     28216     28217
     28214     28213     28216     28218     28214     28213     28216     28219
     28215     28213     28216     28217     28215     28213     28216     28218
     28215     28213     28216     28219     28216     28219     28222     28223
     28216     28219     28222     28224     28216     28219     28222     28225
     28217     28216     28219     28220     28217     28216     28219     28221
     28217     28216     28219     28222     28218     28216     28219     28220
     28218     28216     28219     28221     28218     28216     28219     28222
     28219     28222     28225     28226     28219     28222     28225     28227
     28219     28222     28225     28228     28220     28219     28222     28223
     28220     28219     28222     28224     28220     28219     28222     28225
     28221     28219     28222     28223     28221     28219     28222     28224
     28221     28219     28222     28225     28222     28225     28228     28229
     28222     28225     28228     28230     28222     28225     28228     28231
     28223     28222     28225     28226     28223     28222     28225     28227
     28223     28222     28225     28228     28224     28222     28225     28226
     28224     28222     28225     28227     28224     28222     28225     28228
     28226     28225     28228     28229     28226     28225     28228     28230
     28226     28225     28228     28231     28227     28225     28228     28229
     28227     28225     28228     28230     28227     28225     28228     28231
     28232     28235     28238     28239     28232     28235     28238     28240
     28232     28235     28238     28241     28233     28232     28235     28236
     28233     28232     28235     28237     28233     28232     28235     28238
     28234     28232     28235     28236     28234     28232     28235     28237
     28234     28232     28235     28238     28235     28238     28241     28242
     28235     28238     28241     28243     28235     28238     28241     28244
     28236     28235     28238     28239     28236     28235     28238     28240
     28236     28235     28238     28241     28237     28235     28238     28239
     28237     28235     28238     28240     28237     28235     28238     28241
     28238     28241     28244     28245     28238     28241     28244     28246
     28238     28241     28244     28247     28239     28238     28241     28242
     28239     28238     28241     28243     28239     28238     28241     28244
     28240     28238     28241     28242     28240     28238     28241     28243
     28240     28238     28241     28244     28241     28244     28247     28248
     28241     28244     28247     28249     28241     28244     28247     28250
     28242     28241     28244     28245     28242     28241     28244     28246
     28242     28241     28244     28247     28243     28241     28244     28245
     28243     28241     28244     28246     28243     28241     28244     28247
     28244     28247     28250     28251     28244     28247     28250     28252
     28244     28247     28250     28253     28245     28244     28247     28248
     28245     28244     28247     28249     28245     28244     28247     28250
     28246     28244     28247     28248     28246     28244     28247     28249
     28246     28244     28247     28250     28247     28250     28253     28254
     28247     28250     28253     28255     28247     28250     28253     28256
     28248     28247     28250     28251     28248     28247     28250     28252
     28248     28247     28250     28253     28249     28247     28250     28251
     28249     28247     28250     28252     28249     28247     28250     28253
     28250     28253     28256     28257     28250     28253     28256     28258
     28250     28253     28256     28259     28251     28250     28253     28254
     28251     28250     28253     28255     28251     28250     28253     28256
     28252     28250     28253     28254     28252     28250     28253     28255
     28252     28250     28253     28256     28253     28256     28259     28260
     28253     28256     28259     28261     28253     28256     28259     28262
     28254     28253     28256     28257     28254     28253     28256     28258
     28254     28253     28256     28259     28255     28253     28256     28257
     28255     28253     28256     28258     28255     28253     28256     28259
     28256     28259     28262     28263     28256     28259     28262     28264
     28256     28259     28262     28265     28257     28256     28259     28260
     28257     28256     28259     28261     28257     28256     28259     28262
     28258     28256     28259     28260     28258     28256     28259     28261
     28258     28256     28259     28262     28259     28262     28265     28266
     28259     28262     28265     28267     28259     28262     28265     28268
     28260     28259     28262     28263     28260     28259     28262     28264
     28260     28259     28262     28265     28261     28259     28262     28263
     28261     28259     28262     28264     28261     28259     28262     28265
     28262     28265     28268     28269     28262     28265     28268     28270
     28262     28265     28268     28271     28263     28262     28265     28266
     28263     28262     28265     28267     28263     28262     28265     28268
     28264     28262     28265     28266     28264     28262     28265     28267
     28264     28262     28265     28268     28265     28268     28271     28272
     28265     28268     28271     28273     28265     28268     28271     28274
     28266     28265     28268     28269     28266     28265     28268     28270
     28266     28265     28268     28271     28267     28265     28268     28269
     28267     28265     28268     28270     28267     28265     28268     28271
     28269     28268     28271     28272     28269     28268     28271     28273
     28269     28268     28271     28274     28270     28268     28271     28272
     28270     28268     28271     28273     28270     28268     28271     28274
     28275     28276     28291     28292     28275     28276     28291     28293
     28275     28276     28291     28297     28276     28275     28279     28280
     28276     28275     28279     28281     28276     28275     28279     28282
     28276     28275     28283     28284     28276     28275     28283     28285
     28276     28275     28283     28286     28276     28275     28287     28288
     28276     28275     28287     28289     28276     28275     28287     28290
     28276     28291     28297     28294     28277     28276     28275     28279
     28277     28276     28275     28283     28277     28276     28275     28287
     28277     28276     28291     28292     28277     28276     28291     28293
     28277     28276     28291     28297     28278     28276     28275     28279
     28278     28276     28275     28283     28278     28276     28275     28287
     28278     28276     28291     28292     28278     28276     28291     28293
     28278     28276     28291     28297     28279     28275     28276     28291
     28279     28275     28283     28284     28279     28275     28283     28285
     28279     28275     28283     28286     28279     28275     28287     28288
     28279     28275     28287     28289     28279     28275     28287     28290
     28280     28279     28275     28283     28280     28279     28275     28287
     28281     28279     28275     28283     28281     28279     28275     28287
     28282     28279     28275     28283     28282     28279     28275     28287
     28283     28275     28276     28291     28283     28275     28287     28288
     28283     28275     28287     28289     28283     28275     28287     28290
     28284     28283     28275     28287     28285     28283     28275     28287
     28286     28283     28275     28287     28287     28275     28276     28291
     28291     28297     28294     28295     28291     28297     28294     28296
     28291     28297     28294     28298     28292     28291     28297     28294
     28293     28291     28297     28294     28294     28298     28299     28300
     28294     28298     28299     28301     28294     28298     28299     28302
     28295     28294     28298     28299     28296     28294     28298     28299
     28297     28294     28298     28299     28298     28299     28302     28303
     28298     28299     28302     28304     28298     28299     28302     28310
     28299     28302     28304     28305     28299     28302     28310     28311
     28299     28302     28310     28312     28299     28302     28310     28313
     28300     28299     28302     28303     28300     28299     28302     28304
     28300     28299     28302     28310     28301     28299     28302     28303
     28301     28299     28302     28304     28301     28299     28302     28310
     28302     28304     28305     28306     28302     28304     28305     28307
     28302     28310     28313     28314     28303     28302     28304     28305
     28303     28302     28310     28311     28303     28302     28310     28312
     28303     28302     28310     28313     28304     28302     28310     28311
     28304     28302     28310     28312     28304     28302     28310     28313
     28304     28305     28307     28308     28304     28305     28307     28309
     28304     28305     28307     28319     28305     28304     28302     28310
     28305     28307     28319     28320     28305     28307     28319     28321
     28305     28307     28319     28322     28306     28305     28307     28308
     28306     28305     28307     28309     28306     28305     28307     28319
     28307     28319     28322     28323     28307     28319     28322     28324
     28307     28319     28322     28325     28308     28307     28319     28320
     28308     28307     28319     28321     28308     28307     28319     28322
     28309     28307     28319     28320     28309     28307     28319     28321
     28309     28307     28319     28322     28310     28313     28314     28315
     28310     28313     28314     28316     28311     28310     28313     28314
     28312     28310     28313     28314     28313     28314     28316     28317
     28313     28314     28316     28318     28313     28314     28316     28366
     28314     28316     28366     28367     28314     28316     28366     28368
     28314     28316     28366     28369     28315     28314     28316     28317
     28315     28314     28316     28318     28315     28314     28316     28366
     28316     28366     28369     28370     28316     28366     28369     28371
     28316     28366     28369     28372     28317     28316     28366     28367
     28317     28316     28366     28368     28317     28316     28366     28369
     28318     28316     28366     28367     28318     28316     28366     28368
     28318     28316     28366     28369     28319     28322     28325     28326
     28319     28322     28325     28327     28319     28322     28325     28328
     28320     28319     28322     28323     28320     28319     28322     28324
     28320     28319     28322     28325     28321     28319     28322     28323
     28321     28319     28322     28324     28321     28319     28322     28325
     28322     28325     28328     28329     28322     28325     28328     28330
     28322     28325     28328     28331     28323     28322     28325     28326
     28323     28322     28325     28327     28323     28322     28325     28328
     28324     28322     28325     28326     28324     28322     28325     28327
     28324     28322     28325     28328     28325     28328     28331     28332
     28325     28328     28331     28333     28325     28328     28331     28334
     28326     28325     28328     28329     28326     28325     28328     28330
     28326     28325     28328     28331     28327     28325     28328     28329
     28327     28325     28328     28330     28327     28325     28328     28331
     28328     28331     28334     28335     28328     28331     28334     28336
     28328     28331     28334     28337     28329     28328     28331     28332
     28329     28328     28331     28333     28329     28328     28331     28334
     28330     28328     28331     28332     28330     28328     28331     28333
     28330     28328     28331     28334     28331     28334     28337     28338
     28331     28334     28337     28339     28332     28331     28334     28335
     28332     28331     28334     28336     28332     28331     28334     28337
     28333     28331     28334     28335     28333     28331     28334     28336
     28333     28331     28334     28337     28334     28337     28339     28340
     28334     28337     28339     28341     28335     28334     28337     28338
     28335     28334     28337     28339     28336     28334     28337     28338
     28336     28334     28337     28339     28337     28339     28341     28342
     28337     28339     28341     28343     28337     28339     28341     28344
     28338     28337     28339     28340     28338     28337     28339     28341
     28339     28341     28344     28345     28339     28341     28344     28346
     28339     28341     28344     28347     28340     28339     28341     28342
     28340     28339     28341     28343     28340     28339     28341     28344
     28341     28344     28347     28348     28341     28344     28347     28349
     28341     28344     28347     28350     28342     28341     28344     28345
     28342     28341     28344     28346     28342     28341     28344     28347
     28343     28341     28344     28345     28343     28341     28344     28346
     28343     28341     28344     28347     28344     28347     28350     28351
     28344     28347     28350     28352     28344     28347     28350     28353
     28345     28344     28347     28348     28345     28344     28347     28349
     28345     28344     28347     28350     28346     28344     28347     28348
     28346     28344     28347     28349     28346     28344     28347     28350
     28347     28350     28353     28354     28347     28350     28353     28355
     28347     28350     28353     28356     28348     28347     28350     28351
     28348     28347     28350     28352     28348     28347     28350     28353
     28349     28347     28350     28351     28349     28347     28350     28352
     28349     28347     28350     28353     28350     28353     28356     28357
     28350     28353     28356     28358     28350     28353     28356     28359
     28351     28350     28353     28354     28351     28350     28353     28355
     28351     28350     28353     28356     28352     28350     28353     28354
     28352     28350     28353     28355     28352     28350     28353     28356
     28353     28356     28359     28360     28353     28356     28359     28361
     28353     28356     28359     28362     28354     28353     28356     28357
     28354     28353     28356     28358     28354     28353     28356     28359
     28355     28353     28356     28357     28355     28353     28356     28358
     28355     28353     28356     28359     28356     28359     28362     28363
     28356     28359     28362     28364     28356     28359     28362     28365
     28357     28356     28359     28360     28357     28356     28359     28361
     28357     28356     28359     28362     28358     28356     28359     28360
     28358     28356     28359     28361     28358     28356     28359     28362
     28360     28359     28362     28363     28360     28359     28362     28364
     28360     28359     28362     28365     28361     28359     28362     28363
     28361     28359     28362     28364     28361     28359     28362     28365
     28366     28369     28372     28373     28366     28369     28372     28374
     28366     28369     28372     28375     28367     28366     28369     28370
     28367     28366     28369     28371     28367     28366     28369     28372
     28368     28366     28369     28370     28368     28366     28369     28371
     28368     28366     28369     28372     28369     28372     28375     28376
     28369     28372     28375     28377     28369     28372     28375     28378
     28370     28369     28372     28373     28370     28369     28372     28374
     28370     28369     28372     28375     28371     28369     28372     28373
     28371     28369     28372     28374     28371     28369     28372     28375
     28372     28375     28378     28379     28372     28375     28378     28380
     28372     28375     28378     28381     28373     28372     28375     28376
     28373     28372     28375     28377     28373     28372     28375     28378
     28374     28372     28375     28376     28374     28372     28375     28377
     28374     28372     28375     28378     28375     28378     28381     28382
     28375     28378     28381     28383     28375     28378     28381     28384
     28376     28375     28378     28379     28376     28375     28378     28380
     28376     28375     28378     28381     28377     28375     28378     28379
     28377     28375     28378     28380     28377     28375     28378     28381
     28378     28381     28384     28385     28378     28381     28384     28386
     28378     28381     28384     28387     28379     28378     28381     28382
     28379     28378     28381     28383     28379     28378     28381     28384
     28380     28378     28381     28382     28380     28378     28381     28383
     28380     28378     28381     28384     28381     28384     28387     28388
     28381     28384     28387     28389     28381     28384     28387     28390
     28382     28381     28384     28385     28382     28381     28384     28386
     28382     28381     28384     28387     28383     28381     28384     28385
     28383     28381     28384     28386     28383     28381     28384     28387
     28384     28387     28390     28391     28384     28387     28390     28392
     28384     28387     28390     28393     28385     28384     28387     28388
     28385     28384     28387     28389     28385     28384     28387     28390
     28386     28384     28387     28388     28386     28384     28387     28389
     28386     28384     28387     28390     28387     28390     28393     28394
     28387     28390     28393     28395     28387     28390     28393     28396
     28388     28387     28390     28391     28388     28387     28390     28392
     28388     28387     28390     28393     28389     28387     28390     28391
     28389     28387     28390     28392     28389     28387     28390     28393
     28390     28393     28396     28397     28390     28393     28396     28398
     28390     28393     28396     28399     28391     28390     28393     28394
     28391     28390     28393     28395     28391     28390     28393     28396
     28392     28390     28393     28394     28392     28390     28393     28395
     28392     28390     28393     28396     28393     28396     28399     28400
     28393     28396     28399     28401     28393     28396     28399     28402
     28394     28393     28396     28397     28394     28393     28396     28398
     28394     28393     28396     28399     28395     28393     28396     28397
     28395     28393     28396     28398     28395     28393     28396     28399
     28396     28399     28402     28403     28396     28399     28402     28404
     28396     28399     28402     28405     28397     28396     28399     28400
     28397     28396     28399     28401     28397     28396     28399     28402
     28398     28396     28399     28400     28398     28396     28399     28401
     28398     28396     28399     28402     28399     28402     28405     28406
     28399     28402     28405     28407     28399     28402     28405     28408
     28400     28399     28402     28403     28400     28399     28402     28404
     28400     28399     28402     28405     28401     28399     28402     28403
     28401     28399     28402     28404     28401     28399     28402     28405
     28403     28402     28405     28406     28403     28402     28405     28407
     28403     28402     28405     28408     28404     28402     28405     28406
     28404     28402     28405     28407     28404     28402     28405     28408
     28409     28410     28425     28426     28409     28410     28425     28427
     28409     28410     28425     28431     28410     28409     28413     28414
     28410     28409     28413     28415     28410     28409     28413     28416
     28410     28409     28417     28418     28410     28409     28417     28419
     28410     28409     28417     28420     28410     28409     28421     28422
     28410     28409     28421     28423     28410     28409     28421     28424
     28410     28425     28431     28428     28411     28410     28409     28413
     28411     28410     28409     28417     28411     28410     28409     28421
     28411     28410     28425     28426     28411     28410     28425     28427
     28411     28410     28425     28431     28412     28410     28409     28413
     28412     28410     28409     28417     28412     28410     28409     28421
     28412     28410     28425     28426     28412     28410     28425     28427
     28412     28410     28425     28431     28413     28409     28410     28425
     28413     28409     28417     28418     28413     28409     28417     28419
     28413     28409     28417     28420     28413     28409     28421     28422
     28413     28409     28421     28423     28413     28409     28421     28424
     28414     28413     28409     28417     28414     28413     28409     28421
     28415     28413     28409     28417     28415     28413     28409     28421
     28416     28413     28409     28417     28416     28413     28409     28421
     28417     28409     28410     28425     28417     28409     28421     28422
     28417     28409     28421     28423     28417     28409     28421     28424
     28418     28417     28409     28421     28419     28417     28409     28421
     28420     28417     28409     28421     28421     28409     28410     28425
     28425     28431     28428     28429     28425     28431     28428     28430
     28425     28431     28428     28432     28426     28425     28431     28428
     28427     28425     28431     28428     28428     28432     28433     28434
     28428     28432     28433     28435     28428     28432     28433     28436
     28429     28428     28432     28433     28430     28428     28432     28433
     28431     28428     28432     28433     28432     28433     28436     28437
     28432     28433     28436     28438     28432     28433     28436     28444
     28433     28436     28438     28439     28433     28436     28444     28445
     28433     28436     28444     28446     28433     28436     28444     28447
     28434     28433     28436     28437     28434     28433     28436     28438
     28434     28433     28436     28444     28435     28433     28436     28437
     28435     28433     28436     28438     28435     28433     28436     28444
     28436     28438     28439     28440     28436     28438     28439     28441
     28436     28444     28447     28448     28437     28436     28438     28439
     28437     28436     28444     28445     28437     28436     28444     28446
     28437     28436     28444     28447     28438     28436     28444     28445
     28438     28436     28444     28446     28438     28436     28444     28447
     28438     28439     28441     28442     28438     28439     28441     28443
     28438     28439     28441     28453     28439     28438     28436     28444
     28439     28441     28453     28454     28439     28441     28453     28455
     28439     28441     28453     28456     28440     28439     28441     28442
     28440     28439     28441     28443     28440     28439     28441     28453
     28441     28453     28456     28457     28441     28453     28456     28458
     28441     28453     28456     28459     28442     28441     28453     28454
     28442     28441     28453     28455     28442     28441     28453     28456
     28443     28441     28453     28454     28443     28441     28453     28455
     28443     28441     28453     28456     28444     28447     28448     28449
     28444     28447     28448     28450     28445     28444     28447     28448
     28446     28444     28447     28448     28447     28448     28450     28451
     28447     28448     28450     28452     28447     28448     28450     28500
     28448     28450     28500     28501     28448     28450     28500     28502
     28448     28450     28500     28503     28449     28448     28450     28451
     28449     28448     28450     28452     28449     28448     28450     28500
     28450     28500     28503     28504     28450     28500     28503     28505
     28450     28500     28503     28506     28451     28450     28500     28501
     28451     28450     28500     28502     28451     28450     28500     28503
     28452     28450     28500     28501     28452     28450     28500     28502
     28452     28450     28500     28503     28453     28456     28459     28460
     28453     28456     28459     28461     28453     28456     28459     28462
     28454     28453     28456     28457     28454     28453     28456     28458
     28454     28453     28456     28459     28455     28453     28456     28457
     28455     28453     28456     28458     28455     28453     28456     28459
     28456     28459     28462     28463     28456     28459     28462     28464
     28456     28459     28462     28465     28457     28456     28459     28460
     28457     28456     28459     28461     28457     28456     28459     28462
     28458     28456     28459     28460     28458     28456     28459     28461
     28458     28456     28459     28462     28459     28462     28465     28466
     28459     28462     28465     28467     28459     28462     28465     28468
     28460     28459     28462     28463     28460     28459     28462     28464
     28460     28459     28462     28465     28461     28459     28462     28463
     28461     28459     28462     28464     28461     28459     28462     28465
     28462     28465     28468     28469     28462     28465     28468     28470
     28462     28465     28468     28471     28463     28462     28465     28466
     28463     28462     28465     28467     28463     28462     28465     28468
     28464     28462     28465     28466     28464     28462     28465     28467
     28464     28462     28465     28468     28465     28468     28471     28472
     28465     28468     28471     28473     28466     28465     28468     28469
     28466     28465     28468     28470     28466     28465     28468     28471
     28467     28465     28468     28469     28467     28465     28468     28470
     28467     28465     28468     28471     28468     28471     28473     28474
     28468     28471     28473     28475     28469     28468     28471     28472
     28469     28468     28471     28473     28470     28468     28471     28472
     28470     28468     28471     28473     28471     28473     28475     28476
     28471     28473     28475     28477     28471     28473     28475     28478
     28472     28471     28473     28474     28472     28471     28473     28475
     28473     28475     28478     28479     28473     28475     28478     28480
     28473     28475     28478     28481     28474     28473     28475     28476
     28474     28473     28475     28477     28474     28473     28475     28478
     28475     28478     28481     28482     28475     28478     28481     28483
     28475     28478     28481     28484     28476     28475     28478     28479
     28476     28475     28478     28480     28476     28475     28478     28481
     28477     28475     28478     28479     28477     28475     28478     28480
     28477     28475     28478     28481     28478     28481     28484     28485
     28478     28481     28484     28486     28478     28481     28484     28487
     28479     28478     28481     28482     28479     28478     28481     28483
     28479     28478     28481     28484     28480     28478     28481     28482
     28480     28478     28481     28483     28480     28478     28481     28484
     28481     28484     28487     28488     28481     28484     28487     28489
     28481     28484     28487     28490     28482     28481     28484     28485
     28482     28481     28484     28486     28482     28481     28484     28487
     28483     28481     28484     28485     28483     28481     28484     28486
     28483     28481     28484     28487     28484     28487     28490     28491
     28484     28487     28490     28492     28484     28487     28490     28493
     28485     28484     28487     28488     28485     28484     28487     28489
     28485     28484     28487     28490     28486     28484     28487     28488
     28486     28484     28487     28489     28486     28484     28487     28490
     28487     28490     28493     28494     28487     28490     28493     28495
     28487     28490     28493     28496     28488     28487     28490     28491
     28488     28487     28490     28492     28488     28487     28490     28493
     28489     28487     28490     28491     28489     28487     28490     28492
     28489     28487     28490     28493     28490     28493     28496     28497
     28490     28493     28496     28498     28490     28493     28496     28499
     28491     28490     28493     28494     28491     28490     28493     28495
     28491     28490     28493     28496     28492     28490     28493     28494
     28492     28490     28493     28495     28492     28490     28493     28496
     28494     28493     28496     28497     28494     28493     28496     28498
     28494     28493     28496     28499     28495     28493     28496     28497
     28495     28493     28496     28498     28495     28493     28496     28499
     28500     28503     28506     28507     28500     28503     28506     28508
     28500     28503     28506     28509     28501     28500     28503     28504
     28501     28500     28503     28505     28501     28500     28503     28506
     28502     28500     28503     28504     28502     28500     28503     28505
     28502     28500     28503     28506     28503     28506     28509     28510
     28503     28506     28509     28511     28503     28506     28509     28512
     28504     28503     28506     28507     28504     28503     28506     28508
     28504     28503     28506     28509     28505     28503     28506     28507
     28505     28503     28506     28508     28505     28503     28506     28509
     28506     28509     28512     28513     28506     28509     28512     28514
     28506     28509     28512     28515     28507     28506     28509     28510
     28507     28506     28509     28511     28507     28506     28509     28512
     28508     28506     28509     28510     28508     28506     28509     28511
     28508     28506     28509     28512     28509     28512     28515     28516
     28509     28512     28515     28517     28509     28512     28515     28518
     28510     28509     28512     28513     28510     28509     28512     28514
     28510     28509     28512     28515     28511     28509     28512     28513
     28511     28509     28512     28514     28511     28509     28512     28515
     28512     28515     28518     28519     28512     28515     28518     28520
     28512     28515     28518     28521     28513     28512     28515     28516
     28513     28512     28515     28517     28513     28512     28515     28518
     28514     28512     28515     28516     28514     28512     28515     28517
     28514     28512     28515     28518     28515     28518     28521     28522
     28515     28518     28521     28523     28515     28518     28521     28524
     28516     28515     28518     28519     28516     28515     28518     28520
     28516     28515     28518     28521     28517     28515     28518     28519
     28517     28515     28518     28520     28517     28515     28518     28521
     28518     28521     28524     28525     28518     28521     28524     28526
     28518     28521     28524     28527     28519     28518     28521     28522
     28519     28518     28521     28523     28519     28518     28521     28524
     28520     28518     28521     28522     28520     28518     28521     28523
     28520     28518     28521     28524     28521     28524     28527     28528
     28521     28524     28527     28529     28521     28524     28527     28530
     28522     28521     28524     28525     28522     28521     28524     28526
     28522     28521     28524     28527     28523     28521     28524     28525
     28523     28521     28524     28526     28523     28521     28524     28527
     28524     28527     28530     28531     28524     28527     28530     28532
     28524     28527     28530     28533     28525     28524     28527     28528
     28525     28524     28527     28529     28525     28524     28527     28530
     28526     28524     28527     28528     28526     28524     28527     28529
     28526     28524     28527     28530     28527     28530     28533     28534
     28527     28530     28533     28535     28527     28530     28533     28536
     28528     28527     28530     28531     28528     28527     28530     28532
     28528     28527     28530     28533     28529     28527     28530     28531
     28529     28527     28530     28532     28529     28527     28530     28533
     28530     28533     28536     28537     28530     28533     28536     28538
     28530     28533     28536     28539     28531     28530     28533     28534
     28531     28530     28533     28535     28531     28530     28533     28536
     28532     28530     28533     28534     28532     28530     28533     28535
     28532     28530     28533     28536     28533     28536     28539     28540
     28533     28536     28539     28541     28533     28536     28539     28542
     28534     28533     28536     28537     28534     28533     28536     28538
     28534     28533     28536     28539     28535     28533     28536     28537
     28535     28533     28536     28538     28535     28533     28536     28539
     28537     28536     28539     28540     28537     28536     28539     28541
     28537     28536     28539     28542     28538     28536     28539     28540
     28538     28536     28539     28541     28538     28536     28539     28542
     28543     28544     28559     28560     28543     28544     28559     28561
     28543     28544     28559     28565     28544     28543     28547     28548
     28544     28543     28547     28549     28544     28543     28547     28550
     28544     28543     28551     28552     28544     28543     28551     28553
     28544     28543     28551     28554     28544     28543     28555     28556
     28544     28543     28555     28557     28544     28543     28555     28558
     28544     28559     28565     28562     28545     28544     28543     28547
     28545     28544     28543     28551     28545     28544     28543     28555
     28545     28544     28559     28560     28545     28544     28559     28561
     28545     28544     28559     28565     28546     28544     28543     28547
     28546     28544     28543     28551     28546     28544     28543     28555
     28546     28544     28559     28560     28546     28544     28559     28561
     28546     28544     28559     28565     28547     28543     28544     28559
     28547     28543     28551     28552     28547     28543     28551     28553
     28547     28543     28551     28554     28547     28543     28555     28556
     28547     28543     28555     28557     28547     28543     28555     28558
     28548     28547     28543     28551     28548     28547     28543     28555
     28549     28547     28543     28551     28549     28547     28543     28555
     28550     28547     28543     28551     28550     28547     28543     28555
     28551     28543     28544     28559     28551     28543     28555     28556
     28551     28543     28555     28557     28551     28543     28555     28558
     28552     28551     28543     28555     28553     28551     28543     28555
     28554     28551     28543     28555     28555     28543     28544     28559
     28559     28565     28562     28563     28559     28565     28562     28564
     28559     28565     28562     28566     28560     28559     28565     28562
     28561     28559     28565     28562     28562     28566     28567     28568
     28562     28566     28567     28569     28562     28566     28567     28570
     28563     28562     28566     28567     28564     28562     28566     28567
     28565     28562     28566     28567     28566     28567     28570     28571
     28566     28567     28570     28572     28566     28567     28570     28578
     28567     28570     28572     28573     28567     28570     28578     28579
     28567     28570     28578     28580     28567     28570     28578     28581
     28568     28567     28570     28571     28568     28567     28570     28572
     28568     28567     28570     28578     28569     28567     28570     28571
     28569     28567     28570     28572     28569     28567     28570     28578
     28570     28572     28573     28574     28570     28572     28573     28575
     28570     28578     28581     28582     28571     28570     28572     28573
     28571     28570     28578     28579     28571     28570     28578     28580
     28571     28570     28578     28581     28572     28570     28578     28579
     28572     28570     28578     28580     28572     28570     28578     28581
     28572     28573     28575     28576     28572     28573     28575     28577
     28572     28573     28575     28587     28573     28572     28570     28578
     28573     28575     28587     28588     28573     28575     28587     28589
     28573     28575     28587     28590     28574     28573     28575     28576
     28574     28573     28575     28577     28574     28573     28575     28587
     28575     28587     28590     28591     28575     28587     28590     28592
     28575     28587     28590     28593     28576     28575     28587     28588
     28576     28575     28587     28589     28576     28575     28587     28590
     28577     28575     28587     28588     28577     28575     28587     28589
     28577     28575     28587     28590     28578     28581     28582     28583
     28578     28581     28582     28584     28579     28578     28581     28582
     28580     28578     28581     28582     28581     28582     28584     28585
     28581     28582     28584     28586     28581     28582     28584     28634
     28582     28584     28634     28635     28582     28584     28634     28636
     28582     28584     28634     28637     28583     28582     28584     28585
     28583     28582     28584     28586     28583     28582     28584     28634
     28584     28634     28637     28638     28584     28634     28637     28639
     28584     28634     28637     28640     28585     28584     28634     28635
     28585     28584     28634     28636     28585     28584     28634     28637
     28586     28584     28634     28635     28586     28584     28634     28636
     28586     28584     28634     28637     28587     28590     28593     28594
     28587     28590     28593     28595     28587     28590     28593     28596
     28588     28587     28590     28591     28588     28587     28590     28592
     28588     28587     28590     28593     28589     28587     28590     28591
     28589     28587     28590     28592     28589     28587     28590     28593
     28590     28593     28596     28597     28590     28593     28596     28598
     28590     28593     28596     28599     28591     28590     28593     28594
     28591     28590     28593     28595     28591     28590     28593     28596
     28592     28590     28593     28594     28592     28590     28593     28595
     28592     28590     28593     28596     28593     28596     28599     28600
     28593     28596     28599     28601     28593     28596     28599     28602
     28594     28593     28596     28597     28594     28593     28596     28598
     28594     28593     28596     28599     28595     28593     28596     28597
     28595     28593     28596     28598     28595     28593     28596     28599
     28596     28599     28602     28603     28596     28599     28602     28604
     28596     28599     28602     28605     28597     28596     28599     28600
     28597     28596     28599     28601     28597     28596     28599     28602
     28598     28596     28599     28600     28598     28596     28599     28601
     28598     28596     28599     28602     28599     28602     28605     28606
     28599     28602     28605     28607     28600     28599     28602     28603
     28600     28599     28602     28604     28600     28599     28602     28605
     28601     28599     28602     28603     28601     28599     28602     28604
     28601     28599     28602     28605     28602     28605     28607     28608
     28602     28605     28607     28609     28603     28602     28605     28606
     28603     28602     28605     28607     28604     28602     28605     28606
     28604     28602     28605     28607     28605     28607     28609     28610
     28605     28607     28609     28611     28605     28607     28609     28612
     28606     28605     28607     28608     28606     28605     28607     28609
     28607     28609     28612     28613     28607     28609     28612     28614
     28607     28609     28612     28615     28608     28607     28609     28610
     28608     28607     28609     28611     28608     28607     28609     28612
     28609     28612     28615     28616     28609     28612     28615     28617
     28609     28612     28615     28618     28610     28609     28612     28613
     28610     28609     28612     28614     28610     28609     28612     28615
     28611     28609     28612     28613     28611     28609     28612     28614
     28611     28609     28612     28615     28612     28615     28618     28619
     28612     28615     28618     28620     28612     28615     28618     28621
     28613     28612     28615     28616     28613     28612     28615     28617
     28613     28612     28615     28618     28614     28612     28615     28616
     28614     28612     28615     28617     28614     28612     28615     28618
     28615     28618     28621     28622     28615     28618     28621     28623
     28615     28618     28621     28624     28616     28615     28618     28619
     28616     28615     28618     28620     28616     28615     28618     28621
     28617     28615     28618     28619     28617     28615     28618     28620
     28617     28615     28618     28621     28618     28621     28624     28625
     28618     28621     28624     28626     28618     28621     28624     28627
     28619     28618     28621     28622     28619     28618     28621     28623
     28619     28618     28621     28624     28620     28618     28621     28622
     28620     28618     28621     28623     28620     28618     28621     28624
     28621     28624     28627     28628     28621     28624     28627     28629
     28621     28624     28627     28630     28622     28621     28624     28625
     28622     28621     28624     28626     28622     28621     28624     28627
     28623     28621     28624     28625     28623     28621     28624     28626
     28623     28621     28624     28627     28624     28627     28630     28631
     28624     28627     28630     28632     28624     28627     28630     28633
     28625     28624     28627     28628     28625     28624     28627     28629
     28625     28624     28627     28630     28626     28624     28627     28628
     28626     28624     28627     28629     28626     28624     28627     28630
     28628     28627     28630     28631     28628     28627     28630     28632
     28628     28627     28630     28633     28629     28627     28630     28631
     28629     28627     28630     28632     28629     28627     28630     28633
     28634     28637     28640     28641     28634     28637     28640     28642
     28634     28637     28640     28643     28635     28634     28637     28638
     28635     28634     28637     28639     28635     28634     28637     28640
     28636     28634     28637     28638     28636     28634     28637     28639
     28636     28634     28637     28640     28637     28640     28643     28644
     28637     28640     28643     28645     28637     28640     28643     28646
     28638     28637     28640     28641     28638     28637     28640     28642
     28638     28637     28640     28643     28639     28637     28640     28641
     28639     28637     28640     28642     28639     28637     28640     28643
     28640     28643     28646     28647     28640     28643     28646     28648
     28640     28643     28646     28649     28641     28640     28643     28644
     28641     28640     28643     28645     28641     28640     28643     28646
     28642     28640     28643     28644     28642     28640     28643     28645
     28642     28640     28643     28646     28643     28646     28649     28650
     28643     28646     28649     28651     28643     28646     28649     28652
     28644     28643     28646     28647     28644     28643     28646     28648
     28644     28643     28646     28649     28645     28643     28646     28647
     28645     28643     28646     28648     28645     28643     28646     28649
     28646     28649     28652     28653     28646     28649     28652     28654
     28646     28649     28652     28655     28647     28646     28649     28650
     28647     28646     28649     28651     28647     28646     28649     28652
     28648     28646     28649     28650     28648     28646     28649     28651
     28648     28646     28649     28652     28649     28652     28655     28656
     28649     28652     28655     28657     28649     28652     28655     28658
     28650     28649     28652     28653     28650     28649     28652     28654
     28650     28649     28652     28655     28651     28649     28652     28653
     28651     28649     28652     28654     28651     28649     28652     28655
     28652     28655     28658     28659     28652     28655     28658     28660
     28652     28655     28658     28661     28653     28652     28655     28656
     28653     28652     28655     28657     28653     28652     28655     28658
     28654     28652     28655     28656     28654     28652     28655     28657
     28654     28652     28655     28658     28655     28658     28661     28662
     28655     28658     28661     28663     28655     28658     28661     28664
     28656     28655     28658     28659     28656     28655     28658     28660
     28656     28655     28658     28661     28657     28655     28658     28659
     28657     28655     28658     28660     28657     28655     28658     28661
     28658     28661     28664     28665     28658     28661     28664     28666
     28658     28661     28664     28667     28659     28658     28661     28662
     28659     28658     28661     28663     28659     28658     28661     28664
     28660     28658     28661     28662     28660     28658     28661     28663
     28660     28658     28661     28664     28661     28664     28667     28668
     28661     28664     28667     28669     28661     28664     28667     28670
     28662     28661     28664     28665     28662     28661     28664     28666
     28662     28661     28664     28667     28663     28661     28664     28665
     28663     28661     28664     28666     28663     28661     28664     28667
     28664     28667     28670     28671     28664     28667     28670     28672
     28664     28667     28670     28673     28665     28664     28667     28668
     28665     28664     28667     28669     28665     28664     28667     28670
     28666     28664     28667     28668     28666     28664     28667     28669
     28666     28664     28667     28670     28667     28670     28673     28674
     28667     28670     28673     28675     28667     28670     28673     28676
     28668     28667     28670     28671     28668     28667     28670     28672
     28668     28667     28670     28673     28669     28667     28670     28671
     28669     28667     28670     28672     28669     28667     28670     28673
     28671     28670     28673     28674     28671     28670     28673     28675
     28671     28670     28673     28676     28672     28670     28673     28674
     28672     28670     28673     28675     28672     28670     28673     28676
     28677     28678     28693     28694     28677     28678     28693     28695
     28677     28678     28693     28699     28678     28677     28681     28682
     28678     28677     28681     28683     28678     28677     28681     28684
     28678     28677     28685     28686     28678     28677     28685     28687
     28678     28677     28685     28688     28678     28677     28689     28690
     28678     28677     28689     28691     28678     28677     28689     28692
     28678     28693     28699     28696     28679     28678     28677     28681
     28679     28678     28677     28685     28679     28678     28677     28689
     28679     28678     28693     28694     28679     28678     28693     28695
     28679     28678     28693     28699     28680     28678     28677     28681
     28680     28678     28677     28685     28680     28678     28677     28689
     28680     28678     28693     28694     28680     28678     28693     28695
     28680     28678     28693     28699     28681     28677     28678     28693
     28681     28677     28685     28686     28681     28677     28685     28687
     28681     28677     28685     28688     28681     28677     28689     28690
     28681     28677     28689     28691     28681     28677     28689     28692
     28682     28681     28677     28685     28682     28681     28677     28689
     28683     28681     28677     28685     28683     28681     28677     28689
     28684     28681     28677     28685     28684     28681     28677     28689
     28685     28677     28678     28693     28685     28677     28689     28690
     28685     28677     28689     28691     28685     28677     28689     28692
     28686     28685     28677     28689     28687     28685     28677     28689
     28688     28685     28677     28689     28689     28677     28678     28693
     28693     28699     28696     28697     28693     28699     28696     28698
     28693     28699     28696     28700     28694     28693     28699     28696
     28695     28693     28699     28696     28696     28700     28701     28702
     28696     28700     28701     28703     28696     28700     28701     28704
     28697     28696     28700     28701     28698     28696     28700     28701
     28699     28696     28700     28701     28700     28701     28704     28705
     28700     28701     28704     28706     28700     28701     28704     28712
     28701     28704     28706     28707     28701     28704     28712     28713
     28701     28704     28712     28714     28701     28704     28712     28715
     28702     28701     28704     28705     28702     28701     28704     28706
     28702     28701     28704     28712     28703     28701     28704     28705
     28703     28701     28704     28706     28703     28701     28704     28712
     28704     28706     28707     28708     28704     28706     28707     28709
     28704     28712     28715     28716     28705     28704     28706     28707
     28705     28704     28712     28713     28705     28704     28712     28714
     28705     28704     28712     28715     28706     28704     28712     28713
     28706     28704     28712     28714     28706     28704     28712     28715
     28706     28707     28709     28710     28706     28707     28709     28711
     28706     28707     28709     28721     28707     28706     28704     28712
     28707     28709     28721     28722     28707     28709     28721     28723
     28707     28709     28721     28724     28708     28707     28709     28710
     28708     28707     28709     28711     28708     28707     28709     28721
     28709     28721     28724     28725     28709     28721     28724     28726
     28709     28721     28724     28727     28710     28709     28721     28722
     28710     28709     28721     28723     28710     28709     28721     28724
     28711     28709     28721     28722     28711     28709     28721     28723
     28711     28709     28721     28724     28712     28715     28716     28717
     28712     28715     28716     28718     28713     28712     28715     28716
     28714     28712     28715     28716     28715     28716     28718     28719
     28715     28716     28718     28720     28715     28716     28718     28768
     28716     28718     28768     28769     28716     28718     28768     28770
     28716     28718     28768     28771     28717     28716     28718     28719
     28717     28716     28718     28720     28717     28716     28718     28768
     28718     28768     28771     28772     28718     28768     28771     28773
     28718     28768     28771     28774     28719     28718     28768     28769
     28719     28718     28768     28770     28719     28718     28768     28771
     28720     28718     28768     28769     28720     28718     28768     28770
     28720     28718     28768     28771     28721     28724     28727     28728
     28721     28724     28727     28729     28721     28724     28727     28730
     28722     28721     28724     28725     28722     28721     28724     28726
     28722     28721     28724     28727     28723     28721     28724     28725
     28723     28721     28724     28726     28723     28721     28724     28727
     28724     28727     28730     28731     28724     28727     28730     28732
     28724     28727     28730     28733     28725     28724     28727     28728
     28725     28724     28727     28729     28725     28724     28727     28730
     28726     28724     28727     28728     28726     28724     28727     28729
     28726     28724     28727     28730     28727     28730     28733     28734
     28727     28730     28733     28735     28727     28730     28733     28736
     28728     28727     28730     28731     28728     28727     28730     28732
     28728     28727     28730     28733     28729     28727     28730     28731
     28729     28727     28730     28732     28729     28727     28730     28733
     28730     28733     28736     28737     28730     28733     28736     28738
     28730     28733     28736     28739     28731     28730     28733     28734
     28731     28730     28733     28735     28731     28730     28733     28736
     28732     28730     28733     28734     28732     28730     28733     28735
     28732     28730     28733     28736     28733     28736     28739     28740
     28733     28736     28739     28741     28734     28733     28736     28737
     28734     28733     28736     28738     28734     28733     28736     28739
     28735     28733     28736     28737     28735     28733     28736     28738
     28735     28733     28736     28739     28736     28739     28741     28742
     28736     28739     28741     28743     28737     28736     28739     28740
     28737     28736     28739     28741     28738     28736     28739     28740
     28738     28736     28739     28741     28739     28741     28743     28744
     28739     28741     28743     28745     28739     28741     28743     28746
     28740     28739     28741     28742     28740     28739     28741     28743
     28741     28743     28746     28747     28741     28743     28746     28748
     28741     28743     28746     28749     28742     28741     28743     28744
     28742     28741     28743     28745     28742     28741     28743     28746
     28743     28746     28749     28750     28743     28746     28749     28751
     28743     28746     28749     28752     28744     28743     28746     28747
     28744     28743     28746     28748     28744     28743     28746     28749
     28745     28743     28746     28747     28745     28743     28746     28748
     28745     28743     28746     28749     28746     28749     28752     28753
     28746     28749     28752     28754     28746     28749     28752     28755
     28747     28746     28749     28750     28747     28746     28749     28751
     28747     28746     28749     28752     28748     28746     28749     28750
     28748     28746     28749     28751     28748     28746     28749     28752
     28749     28752     28755     28756     28749     28752     28755     28757
     28749     28752     28755     28758     28750     28749     28752     28753
     28750     28749     28752     28754     28750     28749     28752     28755
     28751     28749     28752     28753     28751     28749     28752     28754
     28751     28749     28752     28755     28752     28755     28758     28759
     28752     28755     28758     28760     28752     28755     28758     28761
     28753     28752     28755     28756     28753     28752     28755     28757
     28753     28752     28755     28758     28754     28752     28755     28756
     28754     28752     28755     28757     28754     28752     28755     28758
     28755     28758     28761     28762     28755     28758     28761     28763
     28755     28758     28761     28764     28756     28755     28758     28759
     28756     28755     28758     28760     28756     28755     28758     28761
     28757     28755     28758     28759     28757     28755     28758     28760
     28757     28755     28758     28761     28758     28761     28764     28765
     28758     28761     28764     28766     28758     28761     28764     28767
     28759     28758     28761     28762     28759     28758     28761     28763
     28759     28758     28761     28764     28760     28758     28761     28762
     28760     28758     28761     28763     28760     28758     28761     28764
     28762     28761     28764     28765     28762     28761     28764     28766
     28762     28761     28764     28767     28763     28761     28764     28765
     28763     28761     28764     28766     28763     28761     28764     28767
     28768     28771     28774     28775     28768     28771     28774     28776
     28768     28771     28774     28777     28769     28768     28771     28772
     28769     28768     28771     28773     28769     28768     28771     28774
     28770     28768     28771     28772     28770     28768     28771     28773
     28770     28768     28771     28774     28771     28774     28777     28778
     28771     28774     28777     28779     28771     28774     28777     28780
     28772     28771     28774     28775     28772     28771     28774     28776
     28772     28771     28774     28777     28773     28771     28774     28775
     28773     28771     28774     28776     28773     28771     28774     28777
     28774     28777     28780     28781     28774     28777     28780     28782
     28774     28777     28780     28783     28775     28774     28777     28778
     28775     28774     28777     28779     28775     28774     28777     28780
     28776     28774     28777     28778     28776     28774     28777     28779
     28776     28774     28777     28780     28777     28780     28783     28784
     28777     28780     28783     28785     28777     28780     28783     28786
     28778     28777     28780     28781     28778     28777     28780     28782
     28778     28777     28780     28783     28779     28777     28780     28781
     28779     28777     28780     28782     28779     28777     28780     28783
     28780     28783     28786     28787     28780     28783     28786     28788
     28780     28783     28786     28789     28781     28780     28783     28784
     28781     28780     28783     28785     28781     28780     28783     28786
     28782     28780     28783     28784     28782     28780     28783     28785
     28782     28780     28783     28786     28783     28786     28789     28790
     28783     28786     28789     28791     28783     28786     28789     28792
     28784     28783     28786     28787     28784     28783     28786     28788
     28784     28783     28786     28789     28785     28783     28786     28787
     28785     28783     28786     28788     28785     28783     28786     28789
     28786     28789     28792     28793     28786     28789     28792     28794
     28786     28789     28792     28795     28787     28786     28789     28790
     28787     28786     28789     28791     28787     28786     28789     28792
     28788     28786     28789     28790     28788     28786     28789     28791
     28788     28786     28789     28792     28789     28792     28795     28796
     28789     28792     28795     28797     28789     28792     28795     28798
     28790     28789     28792     28793     28790     28789     28792     28794
     28790     28789     28792     28795     28791     28789     28792     28793
     28791     28789     28792     28794     28791     28789     28792     28795
     28792     28795     28798     28799     28792     28795     28798     28800
     28792     28795     28798     28801     28793     28792     28795     28796
     28793     28792     28795     28797     28793     28792     28795     28798
     28794     28792     28795     28796     28794     28792     28795     28797
     28794     28792     28795     28798     28795     28798     28801     28802
     28795     28798     28801     28803     28795     28798     28801     28804
     28796     28795     28798     28799     28796     28795     28798     28800
     28796     28795     28798     28801     28797     28795     28798     28799
     28797     28795     28798     28800     28797     28795     28798     28801
     28798     28801     28804     28805     28798     28801     28804     28806
     28798     28801     28804     28807     28799     28798     28801     28802
     28799     28798     28801     28803     28799     28798     28801     28804
     28800     28798     28801     28802     28800     28798     28801     28803
     28800     28798     28801     28804     28801     28804     28807     28808
     28801     28804     28807     28809     28801     28804     28807     28810
     28802     28801     28804     28805     28802     28801     28804     28806
     28802     28801     28804     28807     28803     28801     28804     28805
     28803     28801     28804     28806     28803     28801     28804     28807
     28805     28804     28807     28808     28805     28804     28807     28809
     28805     28804     28807     28810     28806     28804     28807     28808
     28806     28804     28807     28809     28806     28804     28807     28810
     28811     28812     28827     28828     28811     28812     28827     28829
     28811     28812     28827     28833     28812     28811     28815     28816
     28812     28811     28815     28817     28812     28811     28815     28818
     28812     28811     28819     28820     28812     28811     28819     28821
     28812     28811     28819     28822     28812     28811     28823     28824
     28812     28811     28823     28825     28812     28811     28823     28826
     28812     28827     28833     28830     28813     28812     28811     28815
     28813     28812     28811     28819     28813     28812     28811     28823
     28813     28812     28827     28828     28813     28812     28827     28829
     28813     28812     28827     28833     28814     28812     28811     28815
     28814     28812     28811     28819     28814     28812     28811     28823
     28814     28812     28827     28828     28814     28812     28827     28829
     28814     28812     28827     28833     28815     28811     28812     28827
     28815     28811     28819     28820     28815     28811     28819     28821
     28815     28811     28819     28822     28815     28811     28823     28824
     28815     28811     28823     28825     28815     28811     28823     28826
     28816     28815     28811     28819     28816     28815     28811     28823
     28817     28815     28811     28819     28817     28815     28811     28823
     28818     28815     28811     28819     28818     28815     28811     28823
     28819     28811     28812     28827     28819     28811     28823     28824
     28819     28811     28823     28825     28819     28811     28823     28826
     28820     28819     28811     28823     28821     28819     28811     28823
     28822     28819     28811     28823     28823     28811     28812     28827
     28827     28833     28830     28831     28827     28833     28830     28832
     28827     28833     28830     28834     28828     28827     28833     28830
     28829     28827     28833     28830     28830     28834     28835     28836
     28830     28834     28835     28837     28830     28834     28835     28838
     28831     28830     28834     28835     28832     28830     28834     28835
     28833     28830     28834     28835     28834     28835     28838     28839
     28834     28835     28838     28840     28834     28835     28838     28846
     28835     28838     28840     28841     28835     28838     28846     28847
     28835     28838     28846     28848     28835     28838     28846     28849
     28836     28835     28838     28839     28836     28835     28838     28840
     28836     28835     28838     28846     28837     28835     28838     28839
     28837     28835     28838     28840     28837     28835     28838     28846
     28838     28840     28841     28842     28838     28840     28841     28843
     28838     28846     28849     28850     28839     28838     28840     28841
     28839     28838     28846     28847     28839     28838     28846     28848
     28839     28838     28846     28849     28840     28838     28846     28847
     28840     28838     28846     28848     28840     28838     28846     28849
     28840     28841     28843     28844     28840     28841     28843     28845
     28840     28841     28843     28855     28841     28840     28838     28846
     28841     28843     28855     28856     28841     28843     28855     28857
     28841     28843     28855     28858     28842     28841     28843     28844
     28842     28841     28843     28845     28842     28841     28843     28855
     28843     28855     28858     28859     28843     28855     28858     28860
     28843     28855     28858     28861     28844     28843     28855     28856
     28844     28843     28855     28857     28844     28843     28855     28858
     28845     28843     28855     28856     28845     28843     28855     28857
     28845     28843     28855     28858     28846     28849     28850     28851
     28846     28849     28850     28852     28847     28846     28849     28850
     28848     28846     28849     28850     28849     28850     28852     28853
     28849     28850     28852     28854     28849     28850     28852     28902
     28850     28852     28902     28903     28850     28852     28902     28904
     28850     28852     28902     28905     28851     28850     28852     28853
     28851     28850     28852     28854     28851     28850     28852     28902
     28852     28902     28905     28906     28852     28902     28905     28907
     28852     28902     28905     28908     28853     28852     28902     28903
     28853     28852     28902     28904     28853     28852     28902     28905
     28854     28852     28902     28903     28854     28852     28902     28904
     28854     28852     28902     28905     28855     28858     28861     28862
     28855     28858     28861     28863     28855     28858     28861     28864
     28856     28855     28858     28859     28856     28855     28858     28860
     28856     28855     28858     28861     28857     28855     28858     28859
     28857     28855     28858     28860     28857     28855     28858     28861
     28858     28861     28864     28865     28858     28861     28864     28866
     28858     28861     28864     28867     28859     28858     28861     28862
     28859     28858     28861     28863     28859     28858     28861     28864
     28860     28858     28861     28862     28860     28858     28861     28863
     28860     28858     28861     28864     28861     28864     28867     28868
     28861     28864     28867     28869     28861     28864     28867     28870
     28862     28861     28864     28865     28862     28861     28864     28866
     28862     28861     28864     28867     28863     28861     28864     28865
     28863     28861     28864     28866     28863     28861     28864     28867
     28864     28867     28870     28871     28864     28867     28870     28872
     28864     28867     28870     28873     28865     28864     28867     28868
     28865     28864     28867     28869     28865     28864     28867     28870
     28866     28864     28867     28868     28866     28864     28867     28869
     28866     28864     28867     28870     28867     28870     28873     28874
     28867     28870     28873     28875     28868     28867     28870     28871
     28868     28867     28870     28872     28868     28867     28870     28873
     28869     28867     28870     28871     28869     28867     28870     28872
     28869     28867     28870     28873     28870     28873     28875     28876
     28870     28873     28875     28877     28871     28870     28873     28874
     28871     28870     28873     28875     28872     28870     28873     28874
     28872     28870     28873     28875     28873     28875     28877     28878
     28873     28875     28877     28879     28873     28875     28877     28880
     28874     28873     28875     28876     28874     28873     28875     28877
     28875     28877     28880     28881     28875     28877     28880     28882
     28875     28877     28880     28883     28876     28875     28877     28878
     28876     28875     28877     28879     28876     28875     28877     28880
     28877     28880     28883     28884     28877     28880     28883     28885
     28877     28880     28883     28886     28878     28877     28880     28881
     28878     28877     28880     28882     28878     28877     28880     28883
     28879     28877     28880     28881     28879     28877     28880     28882
     28879     28877     28880     28883     28880     28883     28886     28887
     28880     28883     28886     28888     28880     28883     28886     28889
     28881     28880     28883     28884     28881     28880     28883     28885
     28881     28880     28883     28886     28882     28880     28883     28884
     28882     28880     28883     28885     28882     28880     28883     28886
     28883     28886     28889     28890     28883     28886     28889     28891
     28883     28886     28889     28892     28884     28883     28886     28887
     28884     28883     28886     28888     28884     28883     28886     28889
     28885     28883     28886     28887     28885     28883     28886     28888
     28885     28883     28886     28889     28886     28889     28892     28893
     28886     28889     28892     28894     28886     28889     28892     28895
     28887     28886     28889     28890     28887     28886     28889     28891
     28887     28886     28889     28892     28888     28886     28889     28890
     28888     28886     28889     28891     28888     28886     28889     28892
     28889     28892     28895     28896     28889     28892     28895     28897
     28889     28892     28895     28898     28890     28889     28892     28893
     28890     28889     28892     28894     28890     28889     28892     28895
     28891     28889     28892     28893     28891     28889     28892     28894
     28891     28889     28892     28895     28892     28895     28898     28899
     28892     28895     28898     28900     28892     28895     28898     28901
     28893     28892     28895     28896     28893     28892     28895     28897
     28893     28892     28895     28898     28894     28892     28895     28896
     28894     28892     28895     28897     28894     28892     28895     28898
     28896     28895     28898     28899     28896     28895     28898     28900
     28896     28895     28898     28901     28897     28895     28898     28899
     28897     28895     28898     28900     28897     28895     28898     28901
     28902     28905     28908     28909     28902     28905     28908     28910
     28902     28905     28908     28911     28903     28902     28905     28906
     28903     28902     28905     28907     28903     28902     28905     28908
     28904     28902     28905     28906     28904     28902     28905     28907
     28904     28902     28905     28908     28905     28908     28911     28912
     28905     28908     28911     28913     28905     28908     28911     28914
     28906     28905     28908     28909     28906     28905     28908     28910
     28906     28905     28908     28911     28907     28905     28908     28909
     28907     28905     28908     28910     28907     28905     28908     28911
     28908     28911     28914     28915     28908     28911     28914     28916
     28908     28911     28914     28917     28909     28908     28911     28912
     28909     28908     28911     28913     28909     28908     28911     28914
     28910     28908     28911     28912     28910     28908     28911     28913
     28910     28908     28911     28914     28911     28914     28917     28918
     28911     28914     28917     28919     28911     28914     28917     28920
     28912     28911     28914     28915     28912     28911     28914     28916
     28912     28911     28914     28917     28913     28911     28914     28915
     28913     28911     28914     28916     28913     28911     28914     28917
     28914     28917     28920     28921     28914     28917     28920     28922
     28914     28917     28920     28923     28915     28914     28917     28918
     28915     28914     28917     28919     28915     28914     28917     28920
     28916     28914     28917     28918     28916     28914     28917     28919
     28916     28914     28917     28920     28917     28920     28923     28924
     28917     28920     28923     28925     28917     28920     28923     28926
     28918     28917     28920     28921     28918     28917     28920     28922
     28918     28917     28920     28923     28919     28917     28920     28921
     28919     28917     28920     28922     28919     28917     28920     28923
     28920     28923     28926     28927     28920     28923     28926     28928
     28920     28923     28926     28929     28921     28920     28923     28924
     28921     28920     28923     28925     28921     28920     28923     28926
     28922     28920     28923     28924     28922     28920     28923     28925
     28922     28920     28923     28926     28923     28926     28929     28930
     28923     28926     28929     28931     28923     28926     28929     28932
     28924     28923     28926     28927     28924     28923     28926     28928
     28924     28923     28926     28929     28925     28923     28926     28927
     28925     28923     28926     28928     28925     28923     28926     28929
     28926     28929     28932     28933     28926     28929     28932     28934
     28926     28929     28932     28935     28927     28926     28929     28930
     28927     28926     28929     28931     28927     28926     28929     28932
     28928     28926     28929     28930     28928     28926     28929     28931
     28928     28926     28929     28932     28929     28932     28935     28936
     28929     28932     28935     28937     28929     28932     28935     28938
     28930     28929     28932     28933     28930     28929     28932     28934
     28930     28929     28932     28935     28931     28929     28932     28933
     28931     28929     28932     28934     28931     28929     28932     28935
     28932     28935     28938     28939     28932     28935     28938     28940
     28932     28935     28938     28941     28933     28932     28935     28936
     28933     28932     28935     28937     28933     28932     28935     28938
     28934     28932     28935     28936     28934     28932     28935     28937
     28934     28932     28935     28938     28935     28938     28941     28942
     28935     28938     28941     28943     28935     28938     28941     28944
     28936     28935     28938     28939     28936     28935     28938     28940
     28936     28935     28938     28941     28937     28935     28938     28939
     28937     28935     28938     28940     28937     28935     28938     28941
     28939     28938     28941     28942     28939     28938     28941     28943
     28939     28938     28941     28944     28940     28938     28941     28942
     28940     28938     28941     28943     28940     28938     28941     28944
     28945     28946     28961     28962     28945     28946     28961     28963
     28945     28946     28961     28967     28946     28945     28949     28950
     28946     28945     28949     28951     28946     28945     28949     28952
     28946     28945     28953     28954     28946     28945     28953     28955
     28946     28945     28953     28956     28946     28945     28957     28958
     28946     28945     28957     28959     28946     28945     28957     28960
     28946     28961     28967     28964     28947     28946     28945     28949
     28947     28946     28945     28953     28947     28946     28945     28957
     28947     28946     28961     28962     28947     28946     28961     28963
     28947     28946     28961     28967     28948     28946     28945     28949
     28948     28946     28945     28953     28948     28946     28945     28957
     28948     28946     28961     28962     28948     28946     28961     28963
     28948     28946     28961     28967     28949     28945     28946     28961
     28949     28945     28953     28954     28949     28945     28953     28955
     28949     28945     28953     28956     28949     28945     28957     28958
     28949     28945     28957     28959     28949     28945     28957     28960
     28950     28949     28945     28953     28950     28949     28945     28957
     28951     28949     28945     28953     28951     28949     28945     28957
     28952     28949     28945     28953     28952     28949     28945     28957
     28953     28945     28946     28961     28953     28945     28957     28958
     28953     28945     28957     28959     28953     28945     28957     28960
     28954     28953     28945     28957     28955     28953     28945     28957
     28956     28953     28945     28957     28957     28945     28946     28961
     28961     28967     28964     28965     28961     28967     28964     28966
     28961     28967     28964     28968     28962     28961     28967     28964
     28963     28961     28967     28964     28964     28968     28969     28970
     28964     28968     28969     28971     28964     28968     28969     28972
     28965     28964     28968     28969     28966     28964     28968     28969
     28967     28964     28968     28969     28968     28969     28972     28973
     28968     28969     28972     28974     28968     28969     28972     28980
     28969     28972     28974     28975     28969     28972     28980     28981
     28969     28972     28980     28982     28969     28972     28980     28983
     28970     28969     28972     28973     28970     28969     28972     28974
     28970     28969     28972     28980     28971     28969     28972     28973
     28971     28969     28972     28974     28971     28969     28972     28980
     28972     28974     28975     28976     28972     28974     28975     28977
     28972     28980     28983     28984     28973     28972     28974     28975
     28973     28972     28980     28981     28973     28972     28980     28982
     28973     28972     28980     28983     28974     28972     28980     28981
     28974     28972     28980     28982     28974     28972     28980     28983
     28974     28975     28977     28978     28974     28975     28977     28979
     28974     28975     28977     28989     28975     28974     28972     28980
     28975     28977     28989     28990     28975     28977     28989     28991
     28975     28977     28989     28992     28976     28975     28977     28978
     28976     28975     28977     28979     28976     28975     28977     28989
     28977     28989     28992     28993     28977     28989     28992     28994
     28977     28989     28992     28995     28978     28977     28989     28990
     28978     28977     28989     28991     28978     28977     28989     28992
     28979     28977     28989     28990     28979     28977     28989     28991
     28979     28977     28989     28992     28980     28983     28984     28985
     28980     28983     28984     28986     28981     28980     28983     28984
     28982     28980     28983     28984     28983     28984     28986     28987
     28983     28984     28986     28988     28983     28984     28986     29036
     28984     28986     29036     29037     28984     28986     29036     29038
     28984     28986     29036     29039     28985     28984     28986     28987
     28985     28984     28986     28988     28985     28984     28986     29036
     28986     29036     29039     29040     28986     29036     29039     29041
     28986     29036     29039     29042     28987     28986     29036     29037
     28987     28986     29036     29038     28987     28986     29036     29039
     28988     28986     29036     29037     28988     28986     29036     29038
     28988     28986     29036     29039     28989     28992     28995     28996
     28989     28992     28995     28997     28989     28992     28995     28998
     28990     28989     28992     28993     28990     28989     28992     28994
     28990     28989     28992     28995     28991     28989     28992     28993
     28991     28989     28992     28994     28991     28989     28992     28995
     28992     28995     28998     28999     28992     28995     28998     29000
     28992     28995     28998     29001     28993     28992     28995     28996
     28993     28992     28995     28997     28993     28992     28995     28998
     28994     28992     28995     28996     28994     28992     28995     28997
     28994     28992     28995     28998     28995     28998     29001     29002
     28995     28998     29001     29003     28995     28998     29001     29004
     28996     28995     28998     28999     28996     28995     28998     29000
     28996     28995     28998     29001     28997     28995     28998     28999
     28997     28995     28998     29000     28997     28995     28998     29001
     28998     29001     29004     29005     28998     29001     29004     29006
     28998     29001     29004     29007     28999     28998     29001     29002
     28999     28998     29001     29003     28999     28998     29001     29004
     29000     28998     29001     29002     29000     28998     29001     29003
     29000     28998     29001     29004     29001     29004     29007     29008
     29001     29004     29007     29009     29002     29001     29004     29005
     29002     29001     29004     29006     29002     29001     29004     29007
     29003     29001     29004     29005     29003     29001     29004     29006
     29003     29001     29004     29007     29004     29007     29009     29010
     29004     29007     29009     29011     29005     29004     29007     29008
     29005     29004     29007     29009     29006     29004     29007     29008
     29006     29004     29007     29009     29007     29009     29011     29012
     29007     29009     29011     29013     29007     29009     29011     29014
     29008     29007     29009     29010     29008     29007     29009     29011
     29009     29011     29014     29015     29009     29011     29014     29016
     29009     29011     29014     29017     29010     29009     29011     29012
     29010     29009     29011     29013     29010     29009     29011     29014
     29011     29014     29017     29018     29011     29014     29017     29019
     29011     29014     29017     29020     29012     29011     29014     29015
     29012     29011     29014     29016     29012     29011     29014     29017
     29013     29011     29014     29015     29013     29011     29014     29016
     29013     29011     29014     29017     29014     29017     29020     29021
     29014     29017     29020     29022     29014     29017     29020     29023
     29015     29014     29017     29018     29015     29014     29017     29019
     29015     29014     29017     29020     29016     29014     29017     29018
     29016     29014     29017     29019     29016     29014     29017     29020
     29017     29020     29023     29024     29017     29020     29023     29025
     29017     29020     29023     29026     29018     29017     29020     29021
     29018     29017     29020     29022     29018     29017     29020     29023
     29019     29017     29020     29021     29019     29017     29020     29022
     29019     29017     29020     29023     29020     29023     29026     29027
     29020     29023     29026     29028     29020     29023     29026     29029
     29021     29020     29023     29024     29021     29020     29023     29025
     29021     29020     29023     29026     29022     29020     29023     29024
     29022     29020     29023     29025     29022     29020     29023     29026
     29023     29026     29029     29030     29023     29026     29029     29031
     29023     29026     29029     29032     29024     29023     29026     29027
     29024     29023     29026     29028     29024     29023     29026     29029
     29025     29023     29026     29027     29025     29023     29026     29028
     29025     29023     29026     29029     29026     29029     29032     29033
     29026     29029     29032     29034     29026     29029     29032     29035
     29027     29026     29029     29030     29027     29026     29029     29031
     29027     29026     29029     29032     29028     29026     29029     29030
     29028     29026     29029     29031     29028     29026     29029     29032
     29030     29029     29032     29033     29030     29029     29032     29034
     29030     29029     29032     29035     29031     29029     29032     29033
     29031     29029     29032     29034     29031     29029     29032     29035
     29036     29039     29042     29043     29036     29039     29042     29044
     29036     29039     29042     29045     29037     29036     29039     29040
     29037     29036     29039     29041     29037     29036     29039     29042
     29038     29036     29039     29040     29038     29036     29039     29041
     29038     29036     29039     29042     29039     29042     29045     29046
     29039     29042     29045     29047     29039     29042     29045     29048
     29040     29039     29042     29043     29040     29039     29042     29044
     29040     29039     29042     29045     29041     29039     29042     29043
     29041     29039     29042     29044     29041     29039     29042     29045
     29042     29045     29048     29049     29042     29045     29048     29050
     29042     29045     29048     29051     29043     29042     29045     29046
     29043     29042     29045     29047     29043     29042     29045     29048
     29044     29042     29045     29046     29044     29042     29045     29047
     29044     29042     29045     29048     29045     29048     29051     29052
     29045     29048     29051     29053     29045     29048     29051     29054
     29046     29045     29048     29049     29046     29045     29048     29050
     29046     29045     29048     29051     29047     29045     29048     29049
     29047     29045     29048     29050     29047     29045     29048     29051
     29048     29051     29054     29055     29048     29051     29054     29056
     29048     29051     29054     29057     29049     29048     29051     29052
     29049     29048     29051     29053     29049     29048     29051     29054
     29050     29048     29051     29052     29050     29048     29051     29053
     29050     29048     29051     29054     29051     29054     29057     29058
     29051     29054     29057     29059     29051     29054     29057     29060
     29052     29051     29054     29055     29052     29051     29054     29056
     29052     29051     29054     29057     29053     29051     29054     29055
     29053     29051     29054     29056     29053     29051     29054     29057
     29054     29057     29060     29061     29054     29057     29060     29062
     29054     29057     29060     29063     29055     29054     29057     29058
     29055     29054     29057     29059     29055     29054     29057     29060
     29056     29054     29057     29058     29056     29054     29057     29059
     29056     29054     29057     29060     29057     29060     29063     29064
     29057     29060     29063     29065     29057     29060     29063     29066
     29058     29057     29060     29061     29058     29057     29060     29062
     29058     29057     29060     29063     29059     29057     29060     29061
     29059     29057     29060     29062     29059     29057     29060     29063
     29060     29063     29066     29067     29060     29063     29066     29068
     29060     29063     29066     29069     29061     29060     29063     29064
     29061     29060     29063     29065     29061     29060     29063     29066
     29062     29060     29063     29064     29062     29060     29063     29065
     29062     29060     29063     29066     29063     29066     29069     29070
     29063     29066     29069     29071     29063     29066     29069     29072
     29064     29063     29066     29067     29064     29063     29066     29068
     29064     29063     29066     29069     29065     29063     29066     29067
     29065     29063     29066     29068     29065     29063     29066     29069
     29066     29069     29072     29073     29066     29069     29072     29074
     29066     29069     29072     29075     29067     29066     29069     29070
     29067     29066     29069     29071     29067     29066     29069     29072
     29068     29066     29069     29070     29068     29066     29069     29071
     29068     29066     29069     29072     29069     29072     29075     29076
     29069     29072     29075     29077     29069     29072     29075     29078
     29070     29069     29072     29073     29070     29069     29072     29074
     29070     29069     29072     29075     29071     29069     29072     29073
     29071     29069     29072     29074     29071     29069     29072     29075
     29073     29072     29075     29076     29073     29072     29075     29077
     29073     29072     29075     29078     29074     29072     29075     29076
     29074     29072     29075     29077     29074     29072     29075     29078
     29079     29080     29095     29096     29079     29080     29095     29097
     29079     29080     29095     29101     29080     29079     29083     29084
     29080     29079     29083     29085     29080     29079     29083     29086
     29080     29079     29087     29088     29080     29079     29087     29089
     29080     29079     29087     29090     29080     29079     29091     29092
     29080     29079     29091     29093     29080     29079     29091     29094
     29080     29095     29101     29098     29081     29080     29079     29083
     29081     29080     29079     29087     29081     29080     29079     29091
     29081     29080     29095     29096     29081     29080     29095     29097
     29081     29080     29095     29101     29082     29080     29079     29083
     29082     29080     29079     29087     29082     29080     29079     29091
     29082     29080     29095     29096     29082     29080     29095     29097
     29082     29080     29095     29101     29083     29079     29080     29095
     29083     29079     29087     29088     29083     29079     29087     29089
     29083     29079     29087     29090     29083     29079     29091     29092
     29083     29079     29091     29093     29083     29079     29091     29094
     29084     29083     29079     29087     29084     29083     29079     29091
     29085     29083     29079     29087     29085     29083     29079     29091
     29086     29083     29079     29087     29086     29083     29079     29091
     29087     29079     29080     29095     29087     29079     29091     29092
     29087     29079     29091     29093     29087     29079     29091     29094
     29088     29087     29079     29091     29089     29087     29079     29091
     29090     29087     29079     29091     29091     29079     29080     29095
     29095     29101     29098     29099     29095     29101     29098     29100
     29095     29101     29098     29102     29096     29095     29101     29098
     29097     29095     29101     29098     29098     29102     29103     29104
     29098     29102     29103     29105     29098     29102     29103     29106
     29099     29098     29102     29103     29100     29098     29102     29103
     29101     29098     29102     29103     29102     29103     29106     29107
     29102     29103     29106     29108     29102     29103     29106     29114
     29103     29106     29108     29109     29103     29106     29114     29115
     29103     29106     29114     29116     29103     29106     29114     29117
     29104     29103     29106     29107     29104     29103     29106     29108
     29104     29103     29106     29114     29105     29103     29106     29107
     29105     29103     29106     29108     29105     29103     29106     29114
     29106     29108     29109     29110     29106     29108     29109     29111
     29106     29114     29117     29118     29107     29106     29108     29109
     29107     29106     29114     29115     29107     29106     29114     29116
     29107     29106     29114     29117     29108     29106     29114     29115
     29108     29106     29114     29116     29108     29106     29114     29117
     29108     29109     29111     29112     29108     29109     29111     29113
     29108     29109     29111     29123     29109     29108     29106     29114
     29109     29111     29123     29124     29109     29111     29123     29125
     29109     29111     29123     29126     29110     29109     29111     29112
     29110     29109     29111     29113     29110     29109     29111     29123
     29111     29123     29126     29127     29111     29123     29126     29128
     29111     29123     29126     29129     29112     29111     29123     29124
     29112     29111     29123     29125     29112     29111     29123     29126
     29113     29111     29123     29124     29113     29111     29123     29125
     29113     29111     29123     29126     29114     29117     29118     29119
     29114     29117     29118     29120     29115     29114     29117     29118
     29116     29114     29117     29118     29117     29118     29120     29121
     29117     29118     29120     29122     29117     29118     29120     29170
     29118     29120     29170     29171     29118     29120     29170     29172
     29118     29120     29170     29173     29119     29118     29120     29121
     29119     29118     29120     29122     29119     29118     29120     29170
     29120     29170     29173     29174     29120     29170     29173     29175
     29120     29170     29173     29176     29121     29120     29170     29171
     29121     29120     29170     29172     29121     29120     29170     29173
     29122     29120     29170     29171     29122     29120     29170     29172
     29122     29120     29170     29173     29123     29126     29129     29130
     29123     29126     29129     29131     29123     29126     29129     29132
     29124     29123     29126     29127     29124     29123     29126     29128
     29124     29123     29126     29129     29125     29123     29126     29127
     29125     29123     29126     29128     29125     29123     29126     29129
     29126     29129     29132     29133     29126     29129     29132     29134
     29126     29129     29132     29135     29127     29126     29129     29130
     29127     29126     29129     29131     29127     29126     29129     29132
     29128     29126     29129     29130     29128     29126     29129     29131
     29128     29126     29129     29132     29129     29132     29135     29136
     29129     29132     29135     29137     29129     29132     29135     29138
     29130     29129     29132     29133     29130     29129     29132     29134
     29130     29129     29132     29135     29131     29129     29132     29133
     29131     29129     29132     29134     29131     29129     29132     29135
     29132     29135     29138     29139     29132     29135     29138     29140
     29132     29135     29138     29141     29133     29132     29135     29136
     29133     29132     29135     29137     29133     29132     29135     29138
     29134     29132     29135     29136     29134     29132     29135     29137
     29134     29132     29135     29138     29135     29138     29141     29142
     29135     29138     29141     29143     29136     29135     29138     29139
     29136     29135     29138     29140     29136     29135     29138     29141
     29137     29135     29138     29139     29137     29135     29138     29140
     29137     29135     29138     29141     29138     29141     29143     29144
     29138     29141     29143     29145     29139     29138     29141     29142
     29139     29138     29141     29143     29140     29138     29141     29142
     29140     29138     29141     29143     29141     29143     29145     29146
     29141     29143     29145     29147     29141     29143     29145     29148
     29142     29141     29143     29144     29142     29141     29143     29145
     29143     29145     29148     29149     29143     29145     29148     29150
     29143     29145     29148     29151     29144     29143     29145     29146
     29144     29143     29145     29147     29144     29143     29145     29148
     29145     29148     29151     29152     29145     29148     29151     29153
     29145     29148     29151     29154     29146     29145     29148     29149
     29146     29145     29148     29150     29146     29145     29148     29151
     29147     29145     29148     29149     29147     29145     29148     29150
     29147     29145     29148     29151     29148     29151     29154     29155
     29148     29151     29154     29156     29148     29151     29154     29157
     29149     29148     29151     29152     29149     29148     29151     29153
     29149     29148     29151     29154     29150     29148     29151     29152
     29150     29148     29151     29153     29150     29148     29151     29154
     29151     29154     29157     29158     29151     29154     29157     29159
     29151     29154     29157     29160     29152     29151     29154     29155
     29152     29151     29154     29156     29152     29151     29154     29157
     29153     29151     29154     29155     29153     29151     29154     29156
     29153     29151     29154     29157     29154     29157     29160     29161
     29154     29157     29160     29162     29154     29157     29160     29163
     29155     29154     29157     29158     29155     29154     29157     29159
     29155     29154     29157     29160     29156     29154     29157     29158
     29156     29154     29157     29159     29156     29154     29157     29160
     29157     29160     29163     29164     29157     29160     29163     29165
     29157     29160     29163     29166     29158     29157     29160     29161
     29158     29157     29160     29162     29158     29157     29160     29163
     29159     29157     29160     29161     29159     29157     29160     29162
     29159     29157     29160     29163     29160     29163     29166     29167
     29160     29163     29166     29168     29160     29163     29166     29169
     29161     29160     29163     29164     29161     29160     29163     29165
     29161     29160     29163     29166     29162     29160     29163     29164
     29162     29160     29163     29165     29162     29160     29163     29166
     29164     29163     29166     29167     29164     29163     29166     29168
     29164     29163     29166     29169     29165     29163     29166     29167
     29165     29163     29166     29168     29165     29163     29166     29169
     29170     29173     29176     29177     29170     29173     29176     29178
     29170     29173     29176     29179     29171     29170     29173     29174
     29171     29170     29173     29175     29171     29170     29173     29176
     29172     29170     29173     29174     29172     29170     29173     29175
     29172     29170     29173     29176     29173     29176     29179     29180
     29173     29176     29179     29181     29173     29176     29179     29182
     29174     29173     29176     29177     29174     29173     29176     29178
     29174     29173     29176     29179     29175     29173     29176     29177
     29175     29173     29176     29178     29175     29173     29176     29179
     29176     29179     29182     29183     29176     29179     29182     29184
     29176     29179     29182     29185     29177     29176     29179     29180
     29177     29176     29179     29181     29177     29176     29179     29182
     29178     29176     29179     29180     29178     29176     29179     29181
     29178     29176     29179     29182     29179     29182     29185     29186
     29179     29182     29185     29187     29179     29182     29185     29188
     29180     29179     29182     29183     29180     29179     29182     29184
     29180     29179     29182     29185     29181     29179     29182     29183
     29181     29179     29182     29184     29181     29179     29182     29185
     29182     29185     29188     29189     29182     29185     29188     29190
     29182     29185     29188     29191     29183     29182     29185     29186
     29183     29182     29185     29187     29183     29182     29185     29188
     29184     29182     29185     29186     29184     29182     29185     29187
     29184     29182     29185     29188     29185     29188     29191     29192
     29185     29188     29191     29193     29185     29188     29191     29194
     29186     29185     29188     29189     29186     29185     29188     29190
     29186     29185     29188     29191     29187     29185     29188     29189
     29187     29185     29188     29190     29187     29185     29188     29191
     29188     29191     29194     29195     29188     29191     29194     29196
     29188     29191     29194     29197     29189     29188     29191     29192
     29189     29188     29191     29193     29189     29188     29191     29194
     29190     29188     29191     29192     29190     29188     29191     29193
     29190     29188     29191     29194     29191     29194     29197     29198
     29191     29194     29197     29199     29191     29194     29197     29200
     29192     29191     29194     29195     29192     29191     29194     29196
     29192     29191     29194     29197     29193     29191     29194     29195
     29193     29191     29194     29196     29193     29191     29194     29197
     29194     29197     29200     29201     29194     29197     29200     29202
     29194     29197     29200     29203     29195     29194     29197     29198
     29195     29194     29197     29199     29195     29194     29197     29200
     29196     29194     29197     29198     29196     29194     29197     29199
     29196     29194     29197     29200     29197     29200     29203     29204
     29197     29200     29203     29205     29197     29200     29203     29206
     29198     29197     29200     29201     29198     29197     29200     29202
     29198     29197     29200     29203     29199     29197     29200     29201
     29199     29197     29200     29202     29199     29197     29200     29203
     29200     29203     29206     29207     29200     29203     29206     29208
     29200     29203     29206     29209     29201     29200     29203     29204
     29201     29200     29203     29205     29201     29200     29203     29206
     29202     29200     29203     29204     29202     29200     29203     29205
     29202     29200     29203     29206     29203     29206     29209     29210
     29203     29206     29209     29211     29203     29206     29209     29212
     29204     29203     29206     29207     29204     29203     29206     29208
     29204     29203     29206     29209     29205     29203     29206     29207
     29205     29203     29206     29208     29205     29203     29206     29209
     29207     29206     29209     29210     29207     29206     29209     29211
     29207     29206     29209     29212     29208     29206     29209     29210
     29208     29206     29209     29211     29208     29206     29209     29212
     29213     29214     29229     29230     29213     29214     29229     29231
     29213     29214     29229     29235     29214     29213     29217     29218
     29214     29213     29217     29219     29214     29213     29217     29220
     29214     29213     29221     29222     29214     29213     29221     29223
     29214     29213     29221     29224     29214     29213     29225     29226
     29214     29213     29225     29227     29214     29213     29225     29228
     29214     29229     29235     29232     29215     29214     29213     29217
     29215     29214     29213     29221     29215     29214     29213     29225
     29215     29214     29229     29230     29215     29214     29229     29231
     29215     29214     29229     29235     29216     29214     29213     29217
     29216     29214     29213     29221     29216     29214     29213     29225
     29216     29214     29229     29230     29216     29214     29229     29231
     29216     29214     29229     29235     29217     29213     29214     29229
     29217     29213     29221     29222     29217     29213     29221     29223
     29217     29213     29221     29224     29217     29213     29225     29226
     29217     29213     29225     29227     29217     29213     29225     29228
     29218     29217     29213     29221     29218     29217     29213     29225
     29219     29217     29213     29221     29219     29217     29213     29225
     29220     29217     29213     29221     29220     29217     29213     29225
     29221     29213     29214     29229     29221     29213     29225     29226
     29221     29213     29225     29227     29221     29213     29225     29228
     29222     29221     29213     29225     29223     29221     29213     29225
     29224     29221     29213     29225     29225     29213     29214     29229
     29229     29235     29232     29233     29229     29235     29232     29234
     29229     29235     29232     29236     29230     29229     29235     29232
     29231     29229     29235     29232     29232     29236     29237     29238
     29232     29236     29237     29239     29232     29236     29237     29240
     29233     29232     29236     29237     29234     29232     29236     29237
     29235     29232     29236     29237     29236     29237     29240     29241
     29236     29237     29240     29242     29236     29237     29240     29248
     29237     29240     29242     29243     29237     29240     29248     29249
     29237     29240     29248     29250     29237     29240     29248     29251
     29238     29237     29240     29241     29238     29237     29240     29242
     29238     29237     29240     29248     29239     29237     29240     29241
     29239     29237     29240     29242     29239     29237     29240     29248
     29240     29242     29243     29244     29240     29242     29243     29245
     29240     29248     29251     29252     29241     29240     29242     29243
     29241     29240     29248     29249     29241     29240     29248     29250
     29241     29240     29248     29251     29242     29240     29248     29249
     29242     29240     29248     29250     29242     29240     29248     29251
     29242     29243     29245     29246     29242     29243     29245     29247
     29242     29243     29245     29257     29243     29242     29240     29248
     29243     29245     29257     29258     29243     29245     29257     29259
     29243     29245     29257     29260     29244     29243     29245     29246
     29244     29243     29245     29247     29244     29243     29245     29257
     29245     29257     29260     29261     29245     29257     29260     29262
     29245     29257     29260     29263     29246     29245     29257     29258
     29246     29245     29257     29259     29246     29245     29257     29260
     29247     29245     29257     29258     29247     29245     29257     29259
     29247     29245     29257     29260     29248     29251     29252     29253
     29248     29251     29252     29254     29249     29248     29251     29252
     29250     29248     29251     29252     29251     29252     29254     29255
     29251     29252     29254     29256     29251     29252     29254     29304
     29252     29254     29304     29305     29252     29254     29304     29306
     29252     29254     29304     29307     29253     29252     29254     29255
     29253     29252     29254     29256     29253     29252     29254     29304
     29254     29304     29307     29308     29254     29304     29307     29309
     29254     29304     29307     29310     29255     29254     29304     29305
     29255     29254     29304     29306     29255     29254     29304     29307
     29256     29254     29304     29305     29256     29254     29304     29306
     29256     29254     29304     29307     29257     29260     29263     29264
     29257     29260     29263     29265     29257     29260     29263     29266
     29258     29257     29260     29261     29258     29257     29260     29262
     29258     29257     29260     29263     29259     29257     29260     29261
     29259     29257     29260     29262     29259     29257     29260     29263
     29260     29263     29266     29267     29260     29263     29266     29268
     29260     29263     29266     29269     29261     29260     29263     29264
     29261     29260     29263     29265     29261     29260     29263     29266
     29262     29260     29263     29264     29262     29260     29263     29265
     29262     29260     29263     29266     29263     29266     29269     29270
     29263     29266     29269     29271     29263     29266     29269     29272
     29264     29263     29266     29267     29264     29263     29266     29268
     29264     29263     29266     29269     29265     29263     29266     29267
     29265     29263     29266     29268     29265     29263     29266     29269
     29266     29269     29272     29273     29266     29269     29272     29274
     29266     29269     29272     29275     29267     29266     29269     29270
     29267     29266     29269     29271     29267     29266     29269     29272
     29268     29266     29269     29270     29268     29266     29269     29271
     29268     29266     29269     29272     29269     29272     29275     29276
     29269     29272     29275     29277     29270     29269     29272     29273
     29270     29269     29272     29274     29270     29269     29272     29275
     29271     29269     29272     29273     29271     29269     29272     29274
     29271     29269     29272     29275     29272     29275     29277     29278
     29272     29275     29277     29279     29273     29272     29275     29276
     29273     29272     29275     29277     29274     29272     29275     29276
     29274     29272     29275     29277     29275     29277     29279     29280
     29275     29277     29279     29281     29275     29277     29279     29282
     29276     29275     29277     29278     29276     29275     29277     29279
     29277     29279     29282     29283     29277     29279     29282     29284
     29277     29279     29282     29285     29278     29277     29279     29280
     29278     29277     29279     29281     29278     29277     29279     29282
     29279     29282     29285     29286     29279     29282     29285     29287
     29279     29282     29285     29288     29280     29279     29282     29283
     29280     29279     29282     29284     29280     29279     29282     29285
     29281     29279     29282     29283     29281     29279     29282     29284
     29281     29279     29282     29285     29282     29285     29288     29289
     29282     29285     29288     29290     29282     29285     29288     29291
     29283     29282     29285     29286     29283     29282     29285     29287
     29283     29282     29285     29288     29284     29282     29285     29286
     29284     29282     29285     29287     29284     29282     29285     29288
     29285     29288     29291     29292     29285     29288     29291     29293
     29285     29288     29291     29294     29286     29285     29288     29289
     29286     29285     29288     29290     29286     29285     29288     29291
     29287     29285     29288     29289     29287     29285     29288     29290
     29287     29285     29288     29291     29288     29291     29294     29295
     29288     29291     29294     29296     29288     29291     29294     29297
     29289     29288     29291     29292     29289     29288     29291     29293
     29289     29288     29291     29294     29290     29288     29291     29292
     29290     29288     29291     29293     29290     29288     29291     29294
     29291     29294     29297     29298     29291     29294     29297     29299
     29291     29294     29297     29300     29292     29291     29294     29295
     29292     29291     29294     29296     29292     29291     29294     29297
     29293     29291     29294     29295     29293     29291     29294     29296
     29293     29291     29294     29297     29294     29297     29300     29301
     29294     29297     29300     29302     29294     29297     29300     29303
     29295     29294     29297     29298     29295     29294     29297     29299
     29295     29294     29297     29300     29296     29294     29297     29298
     29296     29294     29297     29299     29296     29294     29297     29300
     29298     29297     29300     29301     29298     29297     29300     29302
     29298     29297     29300     29303     29299     29297     29300     29301
     29299     29297     29300     29302     29299     29297     29300     29303
     29304     29307     29310     29311     29304     29307     29310     29312
     29304     29307     29310     29313     29305     29304     29307     29308
     29305     29304     29307     29309     29305     29304     29307     29310
     29306     29304     29307     29308     29306     29304     29307     29309
     29306     29304     29307     29310     29307     29310     29313     29314
     29307     29310     29313     29315     29307     29310     29313     29316
     29308     29307     29310     29311     29308     29307     29310     29312
     29308     29307     29310     29313     29309     29307     29310     29311
     29309     29307     29310     29312     29309     29307     29310     29313
     29310     29313     29316     29317     29310     29313     29316     29318
     29310     29313     29316     29319     29311     29310     29313     29314
     29311     29310     29313     29315     29311     29310     29313     29316
     29312     29310     29313     29314     29312     29310     29313     29315
     29312     29310     29313     29316     29313     29316     29319     29320
     29313     29316     29319     29321     29313     29316     29319     29322
     29314     29313     29316     29317     29314     29313     29316     29318
     29314     29313     29316     29319     29315     29313     29316     29317
     29315     29313     29316     29318     29315     29313     29316     29319
     29316     29319     29322     29323     29316     29319     29322     29324
     29316     29319     29322     29325     29317     29316     29319     29320
     29317     29316     29319     29321     29317     29316     29319     29322
     29318     29316     29319     29320     29318     29316     29319     29321
     29318     29316     29319     29322     29319     29322     29325     29326
     29319     29322     29325     29327     29319     29322     29325     29328
     29320     29319     29322     29323     29320     29319     29322     29324
     29320     29319     29322     29325     29321     29319     29322     29323
     29321     29319     29322     29324     29321     29319     29322     29325
     29322     29325     29328     29329     29322     29325     29328     29330
     29322     29325     29328     29331     29323     29322     29325     29326
     29323     29322     29325     29327     29323     29322     29325     29328
     29324     29322     29325     29326     29324     29322     29325     29327
     29324     29322     29325     29328     29325     29328     29331     29332
     29325     29328     29331     29333     29325     29328     29331     29334
     29326     29325     29328     29329     29326     29325     29328     29330
     29326     29325     29328     29331     29327     29325     29328     29329
     29327     29325     29328     29330     29327     29325     29328     29331
     29328     29331     29334     29335     29328     29331     29334     29336
     29328     29331     29334     29337     29329     29328     29331     29332
     29329     29328     29331     29333     29329     29328     29331     29334
     29330     29328     29331     29332     29330     29328     29331     29333
     29330     29328     29331     29334     29331     29334     29337     29338
     29331     29334     29337     29339     29331     29334     29337     29340
     29332     29331     29334     29335     29332     29331     29334     29336
     29332     29331     29334     29337     29333     29331     29334     29335
     29333     29331     29334     29336     29333     29331     29334     29337
     29334     29337     29340     29341     29334     29337     29340     29342
     29334     29337     29340     29343     29335     29334     29337     29338
     29335     29334     29337     29339     29335     29334     29337     29340
     29336     29334     29337     29338     29336     29334     29337     29339
     29336     29334     29337     29340     29337     29340     29343     29344
     29337     29340     29343     29345     29337     29340     29343     29346
     29338     29337     29340     29341     29338     29337     29340     29342
     29338     29337     29340     29343     29339     29337     29340     29341
     29339     29337     29340     29342     29339     29337     29340     29343
     29341     29340     29343     29344     29341     29340     29343     29345
     29341     29340     29343     29346     29342     29340     29343     29344
     29342     29340     29343     29345     29342     29340     29343     29346
     29347     29348     29363     29364     29347     29348     29363     29365
     29347     29348     29363     29369     29348     29347     29351     29352
     29348     29347     29351     29353     29348     29347     29351     29354
     29348     29347     29355     29356     29348     29347     29355     29357
     29348     29347     29355     29358     29348     29347     29359     29360
     29348     29347     29359     29361     29348     29347     29359     29362
     29348     29363     29369     29366     29349     29348     29347     29351
     29349     29348     29347     29355     29349     29348     29347     29359
     29349     29348     29363     29364     29349     29348     29363     29365
     29349     29348     29363     29369     29350     29348     29347     29351
     29350     29348     29347     29355     29350     29348     29347     29359
     29350     29348     29363     29364     29350     29348     29363     29365
     29350     29348     29363     29369     29351     29347     29348     29363
     29351     29347     29355     29356     29351     29347     29355     29357
     29351     29347     29355     29358     29351     29347     29359     29360
     29351     29347     29359     29361     29351     29347     29359     29362
     29352     29351     29347     29355     29352     29351     29347     29359
     29353     29351     29347     29355     29353     29351     29347     29359
     29354     29351     29347     29355     29354     29351     29347     29359
     29355     29347     29348     29363     29355     29347     29359     29360
     29355     29347     29359     29361     29355     29347     29359     29362
     29356     29355     29347     29359     29357     29355     29347     29359
     29358     29355     29347     29359     29359     29347     29348     29363
     29363     29369     29366     29367     29363     29369     29366     29368
     29363     29369     29366     29370     29364     29363     29369     29366
     29365     29363     29369     29366     29366     29370     29371     29372
     29366     29370     29371     29373     29366     29370     29371     29374
     29367     29366     29370     29371     29368     29366     29370     29371
     29369     29366     29370     29371     29370     29371     29374     29375
     29370     29371     29374     29376     29370     29371     29374     29382
     29371     29374     29376     29377     29371     29374     29382     29383
     29371     29374     29382     29384     29371     29374     29382     29385
     29372     29371     29374     29375     29372     29371     29374     29376
     29372     29371     29374     29382     29373     29371     29374     29375
     29373     29371     29374     29376     29373     29371     29374     29382
     29374     29376     29377     29378     29374     29376     29377     29379
     29374     29382     29385     29386     29375     29374     29376     29377
     29375     29374     29382     29383     29375     29374     29382     29384
     29375     29374     29382     29385     29376     29374     29382     29383
     29376     29374     29382     29384     29376     29374     29382     29385
     29376     29377     29379     29380     29376     29377     29379     29381
     29376     29377     29379     29391     29377     29376     29374     29382
     29377     29379     29391     29392     29377     29379     29391     29393
     29377     29379     29391     29394     29378     29377     29379     29380
     29378     29377     29379     29381     29378     29377     29379     29391
     29379     29391     29394     29395     29379     29391     29394     29396
     29379     29391     29394     29397     29380     29379     29391     29392
     29380     29379     29391     29393     29380     29379     29391     29394
     29381     29379     29391     29392     29381     29379     29391     29393
     29381     29379     29391     29394     29382     29385     29386     29387
     29382     29385     29386     29388     29383     29382     29385     29386
     29384     29382     29385     29386     29385     29386     29388     29389
     29385     29386     29388     29390     29385     29386     29388     29438
     29386     29388     29438     29439     29386     29388     29438     29440
     29386     29388     29438     29441     29387     29386     29388     29389
     29387     29386     29388     29390     29387     29386     29388     29438
     29388     29438     29441     29442     29388     29438     29441     29443
     29388     29438     29441     29444     29389     29388     29438     29439
     29389     29388     29438     29440     29389     29388     29438     29441
     29390     29388     29438     29439     29390     29388     29438     29440
     29390     29388     29438     29441     29391     29394     29397     29398
     29391     29394     29397     29399     29391     29394     29397     29400
     29392     29391     29394     29395     29392     29391     29394     29396
     29392     29391     29394     29397     29393     29391     29394     29395
     29393     29391     29394     29396     29393     29391     29394     29397
     29394     29397     29400     29401     29394     29397     29400     29402
     29394     29397     29400     29403     29395     29394     29397     29398
     29395     29394     29397     29399     29395     29394     29397     29400
     29396     29394     29397     29398     29396     29394     29397     29399
     29396     29394     29397     29400     29397     29400     29403     29404
     29397     29400     29403     29405     29397     29400     29403     29406
     29398     29397     29400     29401     29398     29397     29400     29402
     29398     29397     29400     29403     29399     29397     29400     29401
     29399     29397     29400     29402     29399     29397     29400     29403
     29400     29403     29406     29407     29400     29403     29406     29408
     29400     29403     29406     29409     29401     29400     29403     29404
     29401     29400     29403     29405     29401     29400     29403     29406
     29402     29400     29403     29404     29402     29400     29403     29405
     29402     29400     29403     29406     29403     29406     29409     29410
     29403     29406     29409     29411     29404     29403     29406     29407
     29404     29403     29406     29408     29404     29403     29406     29409
     29405     29403     29406     29407     29405     29403     29406     29408
     29405     29403     29406     29409     29406     29409     29411     29412
     29406     29409     29411     29413     29407     29406     29409     29410
     29407     29406     29409     29411     29408     29406     29409     29410
     29408     29406     29409     29411     29409     29411     29413     29414
     29409     29411     29413     29415     29409     29411     29413     29416
     29410     29409     29411     29412     29410     29409     29411     29413
     29411     29413     29416     29417     29411     29413     29416     29418
     29411     29413     29416     29419     29412     29411     29413     29414
     29412     29411     29413     29415     29412     29411     29413     29416
     29413     29416     29419     29420     29413     29416     29419     29421
     29413     29416     29419     29422     29414     29413     29416     29417
     29414     29413     29416     29418     29414     29413     29416     29419
     29415     29413     29416     29417     29415     29413     29416     29418
     29415     29413     29416     29419     29416     29419     29422     29423
     29416     29419     29422     29424     29416     29419     29422     29425
     29417     29416     29419     29420     29417     29416     29419     29421
     29417     29416     29419     29422     29418     29416     29419     29420
     29418     29416     29419     29421     29418     29416     29419     29422
     29419     29422     29425     29426     29419     29422     29425     29427
     29419     29422     29425     29428     29420     29419     29422     29423
     29420     29419     29422     29424     29420     29419     29422     29425
     29421     29419     29422     29423     29421     29419     29422     29424
     29421     29419     29422     29425     29422     29425     29428     29429
     29422     29425     29428     29430     29422     29425     29428     29431
     29423     29422     29425     29426     29423     29422     29425     29427
     29423     29422     29425     29428     29424     29422     29425     29426
     29424     29422     29425     29427     29424     29422     29425     29428
     29425     29428     29431     29432     29425     29428     29431     29433
     29425     29428     29431     29434     29426     29425     29428     29429
     29426     29425     29428     29430     29426     29425     29428     29431
     29427     29425     29428     29429     29427     29425     29428     29430
     29427     29425     29428     29431     29428     29431     29434     29435
     29428     29431     29434     29436     29428     29431     29434     29437
     29429     29428     29431     29432     29429     29428     29431     29433
     29429     29428     29431     29434     29430     29428     29431     29432
     29430     29428     29431     29433     29430     29428     29431     29434
     29432     29431     29434     29435     29432     29431     29434     29436
     29432     29431     29434     29437     29433     29431     29434     29435
     29433     29431     29434     29436     29433     29431     29434     29437
     29438     29441     29444     29445     29438     29441     29444     29446
     29438     29441     29444     29447     29439     29438     29441     29442
     29439     29438     29441     29443     29439     29438     29441     29444
     29440     29438     29441     29442     29440     29438     29441     29443
     29440     29438     29441     29444     29441     29444     29447     29448
     29441     29444     29447     29449     29441     29444     29447     29450
     29442     29441     29444     29445     29442     29441     29444     29446
     29442     29441     29444     29447     29443     29441     29444     29445
     29443     29441     29444     29446     29443     29441     29444     29447
     29444     29447     29450     29451     29444     29447     29450     29452
     29444     29447     29450     29453     29445     29444     29447     29448
     29445     29444     29447     29449     29445     29444     29447     29450
     29446     29444     29447     29448     29446     29444     29447     29449
     29446     29444     29447     29450     29447     29450     29453     29454
     29447     29450     29453     29455     29447     29450     29453     29456
     29448     29447     29450     29451     29448     29447     29450     29452
     29448     29447     29450     29453     29449     29447     29450     29451
     29449     29447     29450     29452     29449     29447     29450     29453
     29450     29453     29456     29457     29450     29453     29456     29458
     29450     29453     29456     29459     29451     29450     29453     29454
     29451     29450     29453     29455     29451     29450     29453     29456
     29452     29450     29453     29454     29452     29450     29453     29455
     29452     29450     29453     29456     29453     29456     29459     29460
     29453     29456     29459     29461     29453     29456     29459     29462
     29454     29453     29456     29457     29454     29453     29456     29458
     29454     29453     29456     29459     29455     29453     29456     29457
     29455     29453     29456     29458     29455     29453     29456     29459
     29456     29459     29462     29463     29456     29459     29462     29464
     29456     29459     29462     29465     29457     29456     29459     29460
     29457     29456     29459     29461     29457     29456     29459     29462
     29458     29456     29459     29460     29458     29456     29459     29461
     29458     29456     29459     29462     29459     29462     29465     29466
     29459     29462     29465     29467     29459     29462     29465     29468
     29460     29459     29462     29463     29460     29459     29462     29464
     29460     29459     29462     29465     29461     29459     29462     29463
     29461     29459     29462     29464     29461     29459     29462     29465
     29462     29465     29468     29469     29462     29465     29468     29470
     29462     29465     29468     29471     29463     29462     29465     29466
     29463     29462     29465     29467     29463     29462     29465     29468
     29464     29462     29465     29466     29464     29462     29465     29467
     29464     29462     29465     29468     29465     29468     29471     29472
     29465     29468     29471     29473     29465     29468     29471     29474
     29466     29465     29468     29469     29466     29465     29468     29470
     29466     29465     29468     29471     29467     29465     29468     29469
     29467     29465     29468     29470     29467     29465     29468     29471
     29468     29471     29474     29475     29468     29471     29474     29476
     29468     29471     29474     29477     29469     29468     29471     29472
     29469     29468     29471     29473     29469     29468     29471     29474
     29470     29468     29471     29472     29470     29468     29471     29473
     29470     29468     29471     29474     29471     29474     29477     29478
     29471     29474     29477     29479     29471     29474     29477     29480
     29472     29471     29474     29475     29472     29471     29474     29476
     29472     29471     29474     29477     29473     29471     29474     29475
     29473     29471     29474     29476     29473     29471     29474     29477
     29475     29474     29477     29478     29475     29474     29477     29479
     29475     29474     29477     29480     29476     29474     29477     29478
     29476     29474     29477     29479     29476     29474     29477     29480
     29481     29482     29497     29498     29481     29482     29497     29499
     29481     29482     29497     29503     29482     29481     29485     29486
     29482     29481     29485     29487     29482     29481     29485     29488
     29482     29481     29489     29490     29482     29481     29489     29491
     29482     29481     29489     29492     29482     29481     29493     29494
     29482     29481     29493     29495     29482     29481     29493     29496
     29482     29497     29503     29500     29483     29482     29481     29485
     29483     29482     29481     29489     29483     29482     29481     29493
     29483     29482     29497     29498     29483     29482     29497     29499
     29483     29482     29497     29503     29484     29482     29481     29485
     29484     29482     29481     29489     29484     29482     29481     29493
     29484     29482     29497     29498     29484     29482     29497     29499
     29484     29482     29497     29503     29485     29481     29482     29497
     29485     29481     29489     29490     29485     29481     29489     29491
     29485     29481     29489     29492     29485     29481     29493     29494
     29485     29481     29493     29495     29485     29481     29493     29496
     29486     29485     29481     29489     29486     29485     29481     29493
     29487     29485     29481     29489     29487     29485     29481     29493
     29488     29485     29481     29489     29488     29485     29481     29493
     29489     29481     29482     29497     29489     29481     29493     29494
     29489     29481     29493     29495     29489     29481     29493     29496
     29490     29489     29481     29493     29491     29489     29481     29493
     29492     29489     29481     29493     29493     29481     29482     29497
     29497     29503     29500     29501     29497     29503     29500     29502
     29497     29503     29500     29504     29498     29497     29503     29500
     29499     29497     29503     29500     29500     29504     29505     29506
     29500     29504     29505     29507     29500     29504     29505     29508
     29501     29500     29504     29505     29502     29500     29504     29505
     29503     29500     29504     29505     29504     29505     29508     29509
     29504     29505     29508     29510     29504     29505     29508     29516
     29505     29508     29510     29511     29505     29508     29516     29517
     29505     29508     29516     29518     29505     29508     29516     29519
     29506     29505     29508     29509     29506     29505     29508     29510
     29506     29505     29508     29516     29507     29505     29508     29509
     29507     29505     29508     29510     29507     29505     29508     29516
     29508     29510     29511     29512     29508     29510     29511     29513
     29508     29516     29519     29520     29509     29508     29510     29511
     29509     29508     29516     29517     29509     29508     29516     29518
     29509     29508     29516     29519     29510     29508     29516     29517
     29510     29508     29516     29518     29510     29508     29516     29519
     29510     29511     29513     29514     29510     29511     29513     29515
     29510     29511     29513     29525     29511     29510     29508     29516
     29511     29513     29525     29526     29511     29513     29525     29527
     29511     29513     29525     29528     29512     29511     29513     29514
     29512     29511     29513     29515     29512     29511     29513     29525
     29513     29525     29528     29529     29513     29525     29528     29530
     29513     29525     29528     29531     29514     29513     29525     29526
     29514     29513     29525     29527     29514     29513     29525     29528
     29515     29513     29525     29526     29515     29513     29525     29527
     29515     29513     29525     29528     29516     29519     29520     29521
     29516     29519     29520     29522     29517     29516     29519     29520
     29518     29516     29519     29520     29519     29520     29522     29523
     29519     29520     29522     29524     29519     29520     29522     29572
     29520     29522     29572     29573     29520     29522     29572     29574
     29520     29522     29572     29575     29521     29520     29522     29523
     29521     29520     29522     29524     29521     29520     29522     29572
     29522     29572     29575     29576     29522     29572     29575     29577
     29522     29572     29575     29578     29523     29522     29572     29573
     29523     29522     29572     29574     29523     29522     29572     29575
     29524     29522     29572     29573     29524     29522     29572     29574
     29524     29522     29572     29575     29525     29528     29531     29532
     29525     29528     29531     29533     29525     29528     29531     29534
     29526     29525     29528     29529     29526     29525     29528     29530
     29526     29525     29528     29531     29527     29525     29528     29529
     29527     29525     29528     29530     29527     29525     29528     29531
     29528     29531     29534     29535     29528     29531     29534     29536
     29528     29531     29534     29537     29529     29528     29531     29532
     29529     29528     29531     29533     29529     29528     29531     29534
     29530     29528     29531     29532     29530     29528     29531     29533
     29530     29528     29531     29534     29531     29534     29537     29538
     29531     29534     29537     29539     29531     29534     29537     29540
     29532     29531     29534     29535     29532     29531     29534     29536
     29532     29531     29534     29537     29533     29531     29534     29535
     29533     29531     29534     29536     29533     29531     29534     29537
     29534     29537     29540     29541     29534     29537     29540     29542
     29534     29537     29540     29543     29535     29534     29537     29538
     29535     29534     29537     29539     29535     29534     29537     29540
     29536     29534     29537     29538     29536     29534     29537     29539
     29536     29534     29537     29540     29537     29540     29543     29544
     29537     29540     29543     29545     29538     29537     29540     29541
     29538     29537     29540     29542     29538     29537     29540     29543
     29539     29537     29540     29541     29539     29537     29540     29542
     29539     29537     29540     29543     29540     29543     29545     29546
     29540     29543     29545     29547     29541     29540     29543     29544
     29541     29540     29543     29545     29542     29540     29543     29544
     29542     29540     29543     29545     29543     29545     29547     29548
     29543     29545     29547     29549     29543     29545     29547     29550
     29544     29543     29545     29546     29544     29543     29545     29547
     29545     29547     29550     29551     29545     29547     29550     29552
     29545     29547     29550     29553     29546     29545     29547     29548
     29546     29545     29547     29549     29546     29545     29547     29550
     29547     29550     29553     29554     29547     29550     29553     29555
     29547     29550     29553     29556     29548     29547     29550     29551
     29548     29547     29550     29552     29548     29547     29550     29553
     29549     29547     29550     29551     29549     29547     29550     29552
     29549     29547     29550     29553     29550     29553     29556     29557
     29550     29553     29556     29558     29550     29553     29556     29559
     29551     29550     29553     29554     29551     29550     29553     29555
     29551     29550     29553     29556     29552     29550     29553     29554
     29552     29550     29553     29555     29552     29550     29553     29556
     29553     29556     29559     29560     29553     29556     29559     29561
     29553     29556     29559     29562     29554     29553     29556     29557
     29554     29553     29556     29558     29554     29553     29556     29559
     29555     29553     29556     29557     29555     29553     29556     29558
     29555     29553     29556     29559     29556     29559     29562     29563
     29556     29559     29562     29564     29556     29559     29562     29565
     29557     29556     29559     29560     29557     29556     29559     29561
     29557     29556     29559     29562     29558     29556     29559     29560
     29558     29556     29559     29561     29558     29556     29559     29562
     29559     29562     29565     29566     29559     29562     29565     29567
     29559     29562     29565     29568     29560     29559     29562     29563
     29560     29559     29562     29564     29560     29559     29562     29565
     29561     29559     29562     29563     29561     29559     29562     29564
     29561     29559     29562     29565     29562     29565     29568     29569
     29562     29565     29568     29570     29562     29565     29568     29571
     29563     29562     29565     29566     29563     29562     29565     29567
     29563     29562     29565     29568     29564     29562     29565     29566
     29564     29562     29565     29567     29564     29562     29565     29568
     29566     29565     29568     29569     29566     29565     29568     29570
     29566     29565     29568     29571     29567     29565     29568     29569
     29567     29565     29568     29570     29567     29565     29568     29571
     29572     29575     29578     29579     29572     29575     29578     29580
     29572     29575     29578     29581     29573     29572     29575     29576
     29573     29572     29575     29577     29573     29572     29575     29578
     29574     29572     29575     29576     29574     29572     29575     29577
     29574     29572     29575     29578     29575     29578     29581     29582
     29575     29578     29581     29583     29575     29578     29581     29584
     29576     29575     29578     29579     29576     29575     29578     29580
     29576     29575     29578     29581     29577     29575     29578     29579
     29577     29575     29578     29580     29577     29575     29578     29581
     29578     29581     29584     29585     29578     29581     29584     29586
     29578     29581     29584     29587     29579     29578     29581     29582
     29579     29578     29581     29583     29579     29578     29581     29584
     29580     29578     29581     29582     29580     29578     29581     29583
     29580     29578     29581     29584     29581     29584     29587     29588
     29581     29584     29587     29589     29581     29584     29587     29590
     29582     29581     29584     29585     29582     29581     29584     29586
     29582     29581     29584     29587     29583     29581     29584     29585
     29583     29581     29584     29586     29583     29581     29584     29587
     29584     29587     29590     29591     29584     29587     29590     29592
     29584     29587     29590     29593     29585     29584     29587     29588
     29585     29584     29587     29589     29585     29584     29587     29590
     29586     29584     29587     29588     29586     29584     29587     29589
     29586     29584     29587     29590     29587     29590     29593     29594
     29587     29590     29593     29595     29587     29590     29593     29596
     29588     29587     29590     29591     29588     29587     29590     29592
     29588     29587     29590     29593     29589     29587     29590     29591
     29589     29587     29590     29592     29589     29587     29590     29593
     29590     29593     29596     29597     29590     29593     29596     29598
     29590     29593     29596     29599     29591     29590     29593     29594
     29591     29590     29593     29595     29591     29590     29593     29596
     29592     29590     29593     29594     29592     29590     29593     29595
     29592     29590     29593     29596     29593     29596     29599     29600
     29593     29596     29599     29601     29593     29596     29599     29602
     29594     29593     29596     29597     29594     29593     29596     29598
     29594     29593     29596     29599     29595     29593     29596     29597
     29595     29593     29596     29598     29595     29593     29596     29599
     29596     29599     29602     29603     29596     29599     29602     29604
     29596     29599     29602     29605     29597     29596     29599     29600
     29597     29596     29599     29601     29597     29596     29599     29602
     29598     29596     29599     29600     29598     29596     29599     29601
     29598     29596     29599     29602     29599     29602     29605     29606
     29599     29602     29605     29607     29599     29602     29605     29608
     29600     29599     29602     29603     29600     29599     29602     29604
     29600     29599     29602     29605     29601     29599     29602     29603
     29601     29599     29602     29604     29601     29599     29602     29605
     29602     29605     29608     29609     29602     29605     29608     29610
     29602     29605     29608     29611     29603     29602     29605     29606
     29603     29602     29605     29607     29603     29602     29605     29608
     29604     29602     29605     29606     29604     29602     29605     29607
     29604     29602     29605     29608     29605     29608     29611     29612
     29605     29608     29611     29613     29605     29608     29611     29614
     29606     29605     29608     29609     29606     29605     29608     29610
     29606     29605     29608     29611     29607     29605     29608     29609
     29607     29605     29608     29610     29607     29605     29608     29611
     29609     29608     29611     29612     29609     29608     29611     29613
     29609     29608     29611     29614     29610     29608     29611     29612
     29610     29608     29611     29613     29610     29608     29611     29614
     29615     29616     29631     29632     29615     29616     29631     29633
     29615     29616     29631     29637     29616     29615     29619     29620
     29616     29615     29619     29621     29616     29615     29619     29622
     29616     29615     29623     29624     29616     29615     29623     29625
     29616     29615     29623     29626     29616     29615     29627     29628
     29616     29615     29627     29629     29616     29615     29627     29630
     29616     29631     29637     29634     29617     29616     29615     29619
     29617     29616     29615     29623     29617     29616     29615     29627
     29617     29616     29631     29632     29617     29616     29631     29633
     29617     29616     29631     29637     29618     29616     29615     29619
     29618     29616     29615     29623     29618     29616     29615     29627
     29618     29616     29631     29632     29618     29616     29631     29633
     29618     29616     29631     29637     29619     29615     29616     29631
     29619     29615     29623     29624     29619     29615     29623     29625
     29619     29615     29623     29626     29619     29615     29627     29628
     29619     29615     29627     29629     29619     29615     29627     29630
     29620     29619     29615     29623     29620     29619     29615     29627
     29621     29619     29615     29623     29621     29619     29615     29627
     29622     29619     29615     29623     29622     29619     29615     29627
     29623     29615     29616     29631     29623     29615     29627     29628
     29623     29615     29627     29629     29623     29615     29627     29630
     29624     29623     29615     29627     29625     29623     29615     29627
     29626     29623     29615     29627     29627     29615     29616     29631
     29631     29637     29634     29635     29631     29637     29634     29636
     29631     29637     29634     29638     29632     29631     29637     29634
     29633     29631     29637     29634     29634     29638     29639     29640
     29634     29638     29639     29641     29634     29638     29639     29642
     29635     29634     29638     29639     29636     29634     29638     29639
     29637     29634     29638     29639     29638     29639     29642     29643
     29638     29639     29642     29644     29638     29639     29642     29650
     29639     29642     29644     29645     29639     29642     29650     29651
     29639     29642     29650     29652     29639     29642     29650     29653
     29640     29639     29642     29643     29640     29639     29642     29644
     29640     29639     29642     29650     29641     29639     29642     29643
     29641     29639     29642     29644     29641     29639     29642     29650
     29642     29644     29645     29646     29642     29644     29645     29647
     29642     29650     29653     29654     29643     29642     29644     29645
     29643     29642     29650     29651     29643     29642     29650     29652
     29643     29642     29650     29653     29644     29642     29650     29651
     29644     29642     29650     29652     29644     29642     29650     29653
     29644     29645     29647     29648     29644     29645     29647     29649
     29644     29645     29647     29659     29645     29644     29642     29650
     29645     29647     29659     29660     29645     29647     29659     29661
     29645     29647     29659     29662     29646     29645     29647     29648
     29646     29645     29647     29649     29646     29645     29647     29659
     29647     29659     29662     29663     29647     29659     29662     29664
     29647     29659     29662     29665     29648     29647     29659     29660
     29648     29647     29659     29661     29648     29647     29659     29662
     29649     29647     29659     29660     29649     29647     29659     29661
     29649     29647     29659     29662     29650     29653     29654     29655
     29650     29653     29654     29656     29651     29650     29653     29654
     29652     29650     29653     29654     29653     29654     29656     29657
     29653     29654     29656     29658     29653     29654     29656     29706
     29654     29656     29706     29707     29654     29656     29706     29708
     29654     29656     29706     29709     29655     29654     29656     29657
     29655     29654     29656     29658     29655     29654     29656     29706
     29656     29706     29709     29710     29656     29706     29709     29711
     29656     29706     29709     29712     29657     29656     29706     29707
     29657     29656     29706     29708     29657     29656     29706     29709
     29658     29656     29706     29707     29658     29656     29706     29708
     29658     29656     29706     29709     29659     29662     29665     29666
     29659     29662     29665     29667     29659     29662     29665     29668
     29660     29659     29662     29663     29660     29659     29662     29664
     29660     29659     29662     29665     29661     29659     29662     29663
     29661     29659     29662     29664     29661     29659     29662     29665
     29662     29665     29668     29669     29662     29665     29668     29670
     29662     29665     29668     29671     29663     29662     29665     29666
     29663     29662     29665     29667     29663     29662     29665     29668
     29664     29662     29665     29666     29664     29662     29665     29667
     29664     29662     29665     29668     29665     29668     29671     29672
     29665     29668     29671     29673     29665     29668     29671     29674
     29666     29665     29668     29669     29666     29665     29668     29670
     29666     29665     29668     29671     29667     29665     29668     29669
     29667     29665     29668     29670     29667     29665     29668     29671
     29668     29671     29674     29675     29668     29671     29674     29676
     29668     29671     29674     29677     29669     29668     29671     29672
     29669     29668     29671     29673     29669     29668     29671     29674
     29670     29668     29671     29672     29670     29668     29671     29673
     29670     29668     29671     29674     29671     29674     29677     29678
     29671     29674     29677     29679     29672     29671     29674     29675
     29672     29671     29674     29676     29672     29671     29674     29677
     29673     29671     29674     29675     29673     29671     29674     29676
     29673     29671     29674     29677     29674     29677     29679     29680
     29674     29677     29679     29681     29675     29674     29677     29678
     29675     29674     29677     29679     29676     29674     29677     29678
     29676     29674     29677     29679     29677     29679     29681     29682
     29677     29679     29681     29683     29677     29679     29681     29684
     29678     29677     29679     29680     29678     29677     29679     29681
     29679     29681     29684     29685     29679     29681     29684     29686
     29679     29681     29684     29687     29680     29679     29681     29682
     29680     29679     29681     29683     29680     29679     29681     29684
     29681     29684     29687     29688     29681     29684     29687     29689
     29681     29684     29687     29690     29682     29681     29684     29685
     29682     29681     29684     29686     29682     29681     29684     29687
     29683     29681     29684     29685     29683     29681     29684     29686
     29683     29681     29684     29687     29684     29687     29690     29691
     29684     29687     29690     29692     29684     29687     29690     29693
     29685     29684     29687     29688     29685     29684     29687     29689
     29685     29684     29687     29690     29686     29684     29687     29688
     29686     29684     29687     29689     29686     29684     29687     29690
     29687     29690     29693     29694     29687     29690     29693     29695
     29687     29690     29693     29696     29688     29687     29690     29691
     29688     29687     29690     29692     29688     29687     29690     29693
     29689     29687     29690     29691     29689     29687     29690     29692
     29689     29687     29690     29693     29690     29693     29696     29697
     29690     29693     29696     29698     29690     29693     29696     29699
     29691     29690     29693     29694     29691     29690     29693     29695
     29691     29690     29693     29696     29692     29690     29693     29694
     29692     29690     29693     29695     29692     29690     29693     29696
     29693     29696     29699     29700     29693     29696     29699     29701
     29693     29696     29699     29702     29694     29693     29696     29697
     29694     29693     29696     29698     29694     29693     29696     29699
     29695     29693     29696     29697     29695     29693     29696     29698
     29695     29693     29696     29699     29696     29699     29702     29703
     29696     29699     29702     29704     29696     29699     29702     29705
     29697     29696     29699     29700     29697     29696     29699     29701
     29697     29696     29699     29702     29698     29696     29699     29700
     29698     29696     29699     29701     29698     29696     29699     29702
     29700     29699     29702     29703     29700     29699     29702     29704
     29700     29699     29702     29705     29701     29699     29702     29703
     29701     29699     29702     29704     29701     29699     29702     29705
     29706     29709     29712     29713     29706     29709     29712     29714
     29706     29709     29712     29715     29707     29706     29709     29710
     29707     29706     29709     29711     29707     29706     29709     29712
     29708     29706     29709     29710     29708     29706     29709     29711
     29708     29706     29709     29712     29709     29712     29715     29716
     29709     29712     29715     29717     29709     29712     29715     29718
     29710     29709     29712     29713     29710     29709     29712     29714
     29710     29709     29712     29715     29711     29709     29712     29713
     29711     29709     29712     29714     29711     29709     29712     29715
     29712     29715     29718     29719     29712     29715     29718     29720
     29712     29715     29718     29721     29713     29712     29715     29716
     29713     29712     29715     29717     29713     29712     29715     29718
     29714     29712     29715     29716     29714     29712     29715     29717
     29714     29712     29715     29718     29715     29718     29721     29722
     29715     29718     29721     29723     29715     29718     29721     29724
     29716     29715     29718     29719     29716     29715     29718     29720
     29716     29715     29718     29721     29717     29715     29718     29719
     29717     29715     29718     29720     29717     29715     29718     29721
     29718     29721     29724     29725     29718     29721     29724     29726
     29718     29721     29724     29727     29719     29718     29721     29722
     29719     29718     29721     29723     29719     29718     29721     29724
     29720     29718     29721     29722     29720     29718     29721     29723
     29720     29718     29721     29724     29721     29724     29727     29728
     29721     29724     29727     29729     29721     29724     29727     29730
     29722     29721     29724     29725     29722     29721     29724     29726
     29722     29721     29724     29727     29723     29721     29724     29725
     29723     29721     29724     29726     29723     29721     29724     29727
     29724     29727     29730     29731     29724     29727     29730     29732
     29724     29727     29730     29733     29725     29724     29727     29728
     29725     29724     29727     29729     29725     29724     29727     29730
     29726     29724     29727     29728     29726     29724     29727     29729
     29726     29724     29727     29730     29727     29730     29733     29734
     29727     29730     29733     29735     29727     29730     29733     29736
     29728     29727     29730     29731     29728     29727     29730     29732
     29728     29727     29730     29733     29729     29727     29730     29731
     29729     29727     29730     29732     29729     29727     29730     29733
     29730     29733     29736     29737     29730     29733     29736     29738
     29730     29733     29736     29739     29731     29730     29733     29734
     29731     29730     29733     29735     29731     29730     29733     29736
     29732     29730     29733     29734     29732     29730     29733     29735
     29732     29730     29733     29736     29733     29736     29739     29740
     29733     29736     29739     29741     29733     29736     29739     29742
     29734     29733     29736     29737     29734     29733     29736     29738
     29734     29733     29736     29739     29735     29733     29736     29737
     29735     29733     29736     29738     29735     29733     29736     29739
     29736     29739     29742     29743     29736     29739     29742     29744
     29736     29739     29742     29745     29737     29736     29739     29740
     29737     29736     29739     29741     29737     29736     29739     29742
     29738     29736     29739     29740     29738     29736     29739     29741
     29738     29736     29739     29742     29739     29742     29745     29746
     29739     29742     29745     29747     29739     29742     29745     29748
     29740     29739     29742     29743     29740     29739     29742     29744
     29740     29739     29742     29745     29741     29739     29742     29743
     29741     29739     29742     29744     29741     29739     29742     29745
     29743     29742     29745     29746     29743     29742     29745     29747
     29743     29742     29745     29748     29744     29742     29745     29746
     29744     29742     29745     29747     29744     29742     29745     29748
     29749     29750     29765     29766     29749     29750     29765     29767
     29749     29750     29765     29771     29750     29749     29753     29754
     29750     29749     29753     29755     29750     29749     29753     29756
     29750     29749     29757     29758     29750     29749     29757     29759
     29750     29749     29757     29760     29750     29749     29761     29762
     29750     29749     29761     29763     29750     29749     29761     29764
     29750     29765     29771     29768     29751     29750     29749     29753
     29751     29750     29749     29757     29751     29750     29749     29761
     29751     29750     29765     29766     29751     29750     29765     29767
     29751     29750     29765     29771     29752     29750     29749     29753
     29752     29750     29749     29757     29752     29750     29749     29761
     29752     29750     29765     29766     29752     29750     29765     29767
     29752     29750     29765     29771     29753     29749     29750     29765
     29753     29749     29757     29758     29753     29749     29757     29759
     29753     29749     29757     29760     29753     29749     29761     29762
     29753     29749     29761     29763     29753     29749     29761     29764
     29754     29753     29749     29757     29754     29753     29749     29761
     29755     29753     29749     29757     29755     29753     29749     29761
     29756     29753     29749     29757     29756     29753     29749     29761
     29757     29749     29750     29765     29757     29749     29761     29762
     29757     29749     29761     29763     29757     29749     29761     29764
     29758     29757     29749     29761     29759     29757     29749     29761
     29760     29757     29749     29761     29761     29749     29750     29765
     29765     29771     29768     29769     29765     29771     29768     29770
     29765     29771     29768     29772     29766     29765     29771     29768
     29767     29765     29771     29768     29768     29772     29773     29774
     29768     29772     29773     29775     29768     29772     29773     29776
     29769     29768     29772     29773     29770     29768     29772     29773
     29771     29768     29772     29773     29772     29773     29776     29777
     29772     29773     29776     29778     29772     29773     29776     29784
     29773     29776     29778     29779     29773     29776     29784     29785
     29773     29776     29784     29786     29773     29776     29784     29787
     29774     29773     29776     29777     29774     29773     29776     29778
     29774     29773     29776     29784     29775     29773     29776     29777
     29775     29773     29776     29778     29775     29773     29776     29784
     29776     29778     29779     29780     29776     29778     29779     29781
     29776     29784     29787     29788     29777     29776     29778     29779
     29777     29776     29784     29785     29777     29776     29784     29786
     29777     29776     29784     29787     29778     29776     29784     29785
     29778     29776     29784     29786     29778     29776     29784     29787
     29778     29779     29781     29782     29778     29779     29781     29783
     29778     29779     29781     29793     29779     29778     29776     29784
     29779     29781     29793     29794     29779     29781     29793     29795
     29779     29781     29793     29796     29780     29779     29781     29782
     29780     29779     29781     29783     29780     29779     29781     29793
     29781     29793     29796     29797     29781     29793     29796     29798
     29781     29793     29796     29799     29782     29781     29793     29794
     29782     29781     29793     29795     29782     29781     29793     29796
     29783     29781     29793     29794     29783     29781     29793     29795
     29783     29781     29793     29796     29784     29787     29788     29789
     29784     29787     29788     29790     29785     29784     29787     29788
     29786     29784     29787     29788     29787     29788     29790     29791
     29787     29788     29790     29792     29787     29788     29790     29840
     29788     29790     29840     29841     29788     29790     29840     29842
     29788     29790     29840     29843     29789     29788     29790     29791
     29789     29788     29790     29792     29789     29788     29790     29840
     29790     29840     29843     29844     29790     29840     29843     29845
     29790     29840     29843     29846     29791     29790     29840     29841
     29791     29790     29840     29842     29791     29790     29840     29843
     29792     29790     29840     29841     29792     29790     29840     29842
     29792     29790     29840     29843     29793     29796     29799     29800
     29793     29796     29799     29801     29793     29796     29799     29802
     29794     29793     29796     29797     29794     29793     29796     29798
     29794     29793     29796     29799     29795     29793     29796     29797
     29795     29793     29796     29798     29795     29793     29796     29799
     29796     29799     29802     29803     29796     29799     29802     29804
     29796     29799     29802     29805     29797     29796     29799     29800
     29797     29796     29799     29801     29797     29796     29799     29802
     29798     29796     29799     29800     29798     29796     29799     29801
     29798     29796     29799     29802     29799     29802     29805     29806
     29799     29802     29805     29807     29799     29802     29805     29808
     29800     29799     29802     29803     29800     29799     29802     29804
     29800     29799     29802     29805     29801     29799     29802     29803
     29801     29799     29802     29804     29801     29799     29802     29805
     29802     29805     29808     29809     29802     29805     29808     29810
     29802     29805     29808     29811     29803     29802     29805     29806
     29803     29802     29805     29807     29803     29802     29805     29808
     29804     29802     29805     29806     29804     29802     29805     29807
     29804     29802     29805     29808     29805     29808     29811     29812
     29805     29808     29811     29813     29806     29805     29808     29809
     29806     29805     29808     29810     29806     29805     29808     29811
     29807     29805     29808     29809     29807     29805     29808     29810
     29807     29805     29808     29811     29808     29811     29813     29814
     29808     29811     29813     29815     29809     29808     29811     29812
     29809     29808     29811     29813     29810     29808     29811     29812
     29810     29808     29811     29813     29811     29813     29815     29816
     29811     29813     29815     29817     29811     29813     29815     29818
     29812     29811     29813     29814     29812     29811     29813     29815
     29813     29815     29818     29819     29813     29815     29818     29820
     29813     29815     29818     29821     29814     29813     29815     29816
     29814     29813     29815     29817     29814     29813     29815     29818
     29815     29818     29821     29822     29815     29818     29821     29823
     29815     29818     29821     29824     29816     29815     29818     29819
     29816     29815     29818     29820     29816     29815     29818     29821
     29817     29815     29818     29819     29817     29815     29818     29820
     29817     29815     29818     29821     29818     29821     29824     29825
     29818     29821     29824     29826     29818     29821     29824     29827
     29819     29818     29821     29822     29819     29818     29821     29823
     29819     29818     29821     29824     29820     29818     29821     29822
     29820     29818     29821     29823     29820     29818     29821     29824
     29821     29824     29827     29828     29821     29824     29827     29829
     29821     29824     29827     29830     29822     29821     29824     29825
     29822     29821     29824     29826     29822     29821     29824     29827
     29823     29821     29824     29825     29823     29821     29824     29826
     29823     29821     29824     29827     29824     29827     29830     29831
     29824     29827     29830     29832     29824     29827     29830     29833
     29825     29824     29827     29828     29825     29824     29827     29829
     29825     29824     29827     29830     29826     29824     29827     29828
     29826     29824     29827     29829     29826     29824     29827     29830
     29827     29830     29833     29834     29827     29830     29833     29835
     29827     29830     29833     29836     29828     29827     29830     29831
     29828     29827     29830     29832     29828     29827     29830     29833
     29829     29827     29830     29831     29829     29827     29830     29832
     29829     29827     29830     29833     29830     29833     29836     29837
     29830     29833     29836     29838     29830     29833     29836     29839
     29831     29830     29833     29834     29831     29830     29833     29835
     29831     29830     29833     29836     29832     29830     29833     29834
     29832     29830     29833     29835     29832     29830     29833     29836
     29834     29833     29836     29837     29834     29833     29836     29838
     29834     29833     29836     29839     29835     29833     29836     29837
     29835     29833     29836     29838     29835     29833     29836     29839
     29840     29843     29846     29847     29840     29843     29846     29848
     29840     29843     29846     29849     29841     29840     29843     29844
     29841     29840     29843     29845     29841     29840     29843     29846
     29842     29840     29843     29844     29842     29840     29843     29845
     29842     29840     29843     29846     29843     29846     29849     29850
     29843     29846     29849     29851     29843     29846     29849     29852
     29844     29843     29846     29847     29844     29843     29846     29848
     29844     29843     29846     29849     29845     29843     29846     29847
     29845     29843     29846     29848     29845     29843     29846     29849
     29846     29849     29852     29853     29846     29849     29852     29854
     29846     29849     29852     29855     29847     29846     29849     29850
     29847     29846     29849     29851     29847     29846     29849     29852
     29848     29846     29849     29850     29848     29846     29849     29851
     29848     29846     29849     29852     29849     29852     29855     29856
     29849     29852     29855     29857     29849     29852     29855     29858
     29850     29849     29852     29853     29850     29849     29852     29854
     29850     29849     29852     29855     29851     29849     29852     29853
     29851     29849     29852     29854     29851     29849     29852     29855
     29852     29855     29858     29859     29852     29855     29858     29860
     29852     29855     29858     29861     29853     29852     29855     29856
     29853     29852     29855     29857     29853     29852     29855     29858
     29854     29852     29855     29856     29854     29852     29855     29857
     29854     29852     29855     29858     29855     29858     29861     29862
     29855     29858     29861     29863     29855     29858     29861     29864
     29856     29855     29858     29859     29856     29855     29858     29860
     29856     29855     29858     29861     29857     29855     29858     29859
     29857     29855     29858     29860     29857     29855     29858     29861
     29858     29861     29864     29865     29858     29861     29864     29866
     29858     29861     29864     29867     29859     29858     29861     29862
     29859     29858     29861     29863     29859     29858     29861     29864
     29860     29858     29861     29862     29860     29858     29861     29863
     29860     29858     29861     29864     29861     29864     29867     29868
     29861     29864     29867     29869     29861     29864     29867     29870
     29862     29861     29864     29865     29862     29861     29864     29866
     29862     29861     29864     29867     29863     29861     29864     29865
     29863     29861     29864     29866     29863     29861     29864     29867
     29864     29867     29870     29871     29864     29867     29870     29872
     29864     29867     29870     29873     29865     29864     29867     29868
     29865     29864     29867     29869     29865     29864     29867     29870
     29866     29864     29867     29868     29866     29864     29867     29869
     29866     29864     29867     29870     29867     29870     29873     29874
     29867     29870     29873     29875     29867     29870     29873     29876
     29868     29867     29870     29871     29868     29867     29870     29872
     29868     29867     29870     29873     29869     29867     29870     29871
     29869     29867     29870     29872     29869     29867     29870     29873
     29870     29873     29876     29877     29870     29873     29876     29878
     29870     29873     29876     29879     29871     29870     29873     29874
     29871     29870     29873     29875     29871     29870     29873     29876
     29872     29870     29873     29874     29872     29870     29873     29875
     29872     29870     29873     29876     29873     29876     29879     29880
     29873     29876     29879     29881     29873     29876     29879     29882
     29874     29873     29876     29877     29874     29873     29876     29878
     29874     29873     29876     29879     29875     29873     29876     29877
     29875     29873     29876     29878     29875     29873     29876     29879
     29877     29876     29879     29880     29877     29876     29879     29881
     29877     29876     29879     29882     29878     29876     29879     29880
     29878     29876     29879     29881     29878     29876     29879     29882
     29883     29884     29899     29900     29883     29884     29899     29901
     29883     29884     29899     29905     29884     29883     29887     29888
     29884     29883     29887     29889     29884     29883     29887     29890
     29884     29883     29891     29892     29884     29883     29891     29893
     29884     29883     29891     29894     29884     29883     29895     29896
     29884     29883     29895     29897     29884     29883     29895     29898
     29884     29899     29905     29902     29885     29884     29883     29887
     29885     29884     29883     29891     29885     29884     29883     29895
     29885     29884     29899     29900     29885     29884     29899     29901
     29885     29884     29899     29905     29886     29884     29883     29887
     29886     29884     29883     29891     29886     29884     29883     29895
     29886     29884     29899     29900     29886     29884     29899     29901
     29886     29884     29899     29905     29887     29883     29884     29899
     29887     29883     29891     29892     29887     29883     29891     29893
     29887     29883     29891     29894     29887     29883     29895     29896
     29887     29883     29895     29897     29887     29883     29895     29898
     29888     29887     29883     29891     29888     29887     29883     29895
     29889     29887     29883     29891     29889     29887     29883     29895
     29890     29887     29883     29891     29890     29887     29883     29895
     29891     29883     29884     29899     29891     29883     29895     29896
     29891     29883     29895     29897     29891     29883     29895     29898
     29892     29891     29883     29895     29893     29891     29883     29895
     29894     29891     29883     29895     29895     29883     29884     29899
     29899     29905     29902     29903     29899     29905     29902     29904
     29899     29905     29902     29906     29900     29899     29905     29902
     29901     29899     29905     29902     29902     29906     29907     29908
     29902     29906     29907     29909     29902     29906     29907     29910
     29903     29902     29906     29907     29904     29902     29906     29907
     29905     29902     29906     29907     29906     29907     29910     29911
     29906     29907     29910     29912     29906     29907     29910     29918
     29907     29910     29912     29913     29907     29910     29918     29919
     29907     29910     29918     29920     29907     29910     29918     29921
     29908     29907     29910     29911     29908     29907     29910     29912
     29908     29907     29910     29918     29909     29907     29910     29911
     29909     29907     29910     29912     29909     29907     29910     29918
     29910     29912     29913     29914     29910     29912     29913     29915
     29910     29918     29921     29922     29911     29910     29912     29913
     29911     29910     29918     29919     29911     29910     29918     29920
     29911     29910     29918     29921     29912     29910     29918     29919
     29912     29910     29918     29920     29912     29910     29918     29921
     29912     29913     29915     29916     29912     29913     29915     29917
     29912     29913     29915     29927     29913     29912     29910     29918
     29913     29915     29927     29928     29913     29915     29927     29929
     29913     29915     29927     29930     29914     29913     29915     29916
     29914     29913     29915     29917     29914     29913     29915     29927
     29915     29927     29930     29931     29915     29927     29930     29932
     29915     29927     29930     29933     29916     29915     29927     29928
     29916     29915     29927     29929     29916     29915     29927     29930
     29917     29915     29927     29928     29917     29915     29927     29929
     29917     29915     29927     29930     29918     29921     29922     29923
     29918     29921     29922     29924     29919     29918     29921     29922
     29920     29918     29921     29922     29921     29922     29924     29925
     29921     29922     29924     29926     29921     29922     29924     29974
     29922     29924     29974     29975     29922     29924     29974     29976
     29922     29924     29974     29977     29923     29922     29924     29925
     29923     29922     29924     29926     29923     29922     29924     29974
     29924     29974     29977     29978     29924     29974     29977     29979
     29924     29974     29977     29980     29925     29924     29974     29975
     29925     29924     29974     29976     29925     29924     29974     29977
     29926     29924     29974     29975     29926     29924     29974     29976
     29926     29924     29974     29977     29927     29930     29933     29934
     29927     29930     29933     29935     29927     29930     29933     29936
     29928     29927     29930     29931     29928     29927     29930     29932
     29928     29927     29930     29933     29929     29927     29930     29931
     29929     29927     29930     29932     29929     29927     29930     29933
     29930     29933     29936     29937     29930     29933     29936     29938
     29930     29933     29936     29939     29931     29930     29933     29934
     29931     29930     29933     29935     29931     29930     29933     29936
     29932     29930     29933     29934     29932     29930     29933     29935
     29932     29930     29933     29936     29933     29936     29939     29940
     29933     29936     29939     29941     29933     29936     29939     29942
     29934     29933     29936     29937     29934     29933     29936     29938
     29934     29933     29936     29939     29935     29933     29936     29937
     29935     29933     29936     29938     29935     29933     29936     29939
     29936     29939     29942     29943     29936     29939     29942     29944
     29936     29939     29942     29945     29937     29936     29939     29940
     29937     29936     29939     29941     29937     29936     29939     29942
     29938     29936     29939     29940     29938     29936     29939     29941
     29938     29936     29939     29942     29939     29942     29945     29946
     29939     29942     29945     29947     29940     29939     29942     29943
     29940     29939     29942     29944     29940     29939     29942     29945
     29941     29939     29942     29943     29941     29939     29942     29944
     29941     29939     29942     29945     29942     29945     29947     29948
     29942     29945     29947     29949     29943     29942     29945     29946
     29943     29942     29945     29947     29944     29942     29945     29946
     29944     29942     29945     29947     29945     29947     29949     29950
     29945     29947     29949     29951     29945     29947     29949     29952
     29946     29945     29947     29948     29946     29945     29947     29949
     29947     29949     29952     29953     29947     29949     29952     29954
     29947     29949     29952     29955     29948     29947     29949     29950
     29948     29947     29949     29951     29948     29947     29949     29952
     29949     29952     29955     29956     29949     29952     29955     29957
     29949     29952     29955     29958     29950     29949     29952     29953
     29950     29949     29952     29954     29950     29949     29952     29955
     29951     29949     29952     29953     29951     29949     29952     29954
     29951     29949     29952     29955     29952     29955     29958     29959
     29952     29955     29958     29960     29952     29955     29958     29961
     29953     29952     29955     29956     29953     29952     29955     29957
     29953     29952     29955     29958     29954     29952     29955     29956
     29954     29952     29955     29957     29954     29952     29955     29958
     29955     29958     29961     29962     29955     29958     29961     29963
     29955     29958     29961     29964     29956     29955     29958     29959
     29956     29955     29958     29960     29956     29955     29958     29961
     29957     29955     29958     29959     29957     29955     29958     29960
     29957     29955     29958     29961     29958     29961     29964     29965
     29958     29961     29964     29966     29958     29961     29964     29967
     29959     29958     29961     29962     29959     29958     29961     29963
     29959     29958     29961     29964     29960     29958     29961     29962
     29960     29958     29961     29963     29960     29958     29961     29964
     29961     29964     29967     29968     29961     29964     29967     29969
     29961     29964     29967     29970     29962     29961     29964     29965
     29962     29961     29964     29966     29962     29961     29964     29967
     29963     29961     29964     29965     29963     29961     29964     29966
     29963     29961     29964     29967     29964     29967     29970     29971
     29964     29967     29970     29972     29964     29967     29970     29973
     29965     29964     29967     29968     29965     29964     29967     29969
     29965     29964     29967     29970     29966     29964     29967     29968
     29966     29964     29967     29969     29966     29964     29967     29970
     29968     29967     29970     29971     29968     29967     29970     29972
     29968     29967     29970     29973     29969     29967     29970     29971
     29969     29967     29970     29972     29969     29967     29970     29973
     29974     29977     29980     29981     29974     29977     29980     29982
     29974     29977     29980     29983     29975     29974     29977     29978
     29975     29974     29977     29979     29975     29974     29977     29980
     29976     29974     29977     29978     29976     29974     29977     29979
     29976     29974     29977     29980     29977     29980     29983     29984
     29977     29980     29983     29985     29977     29980     29983     29986
     29978     29977     29980     29981     29978     29977     29980     29982
     29978     29977     29980     29983     29979     29977     29980     29981
     29979     29977     29980     29982     29979     29977     29980     29983
     29980     29983     29986     29987     29980     29983     29986     29988
     29980     29983     29986     29989     29981     29980     29983     29984
     29981     29980     29983     29985     29981     29980     29983     29986
     29982     29980     29983     29984     29982     29980     29983     29985
     29982     29980     29983     29986     29983     29986     29989     29990
     29983     29986     29989     29991     29983     29986     29989     29992
     29984     29983     29986     29987     29984     29983     29986     29988
     29984     29983     29986     29989     29985     29983     29986     29987
     29985     29983     29986     29988     29985     29983     29986     29989
     29986     29989     29992     29993     29986     29989     29992     29994
     29986     29989     29992     29995     29987     29986     29989     29990
     29987     29986     29989     29991     29987     29986     29989     29992
     29988     29986     29989     29990     29988     29986     29989     29991
     29988     29986     29989     29992     29989     29992     29995     29996
     29989     29992     29995     29997     29989     29992     29995     29998
     29990     29989     29992     29993     29990     29989     29992     29994
     29990     29989     29992     29995     29991     29989     29992     29993
     29991     29989     29992     29994     29991     29989     29992     29995
     29992     29995     29998     29999     29992     29995     29998     30000
     29992     29995     29998     30001     29993     29992     29995     29996
     29993     29992     29995     29997     29993     29992     29995     29998
     29994     29992     29995     29996     29994     29992     29995     29997
     29994     29992     29995     29998     29995     29998     30001     30002
     29995     29998     30001     30003     29995     29998     30001     30004
     29996     29995     29998     29999     29996     29995     29998     30000
     29996     29995     29998     30001     29997     29995     29998     29999
     29997     29995     29998     30000     29997     29995     29998     30001
     29998     30001     30004     30005     29998     30001     30004     30006
     29998     30001     30004     30007     29999     29998     30001     30002
     29999     29998     30001     30003     29999     29998     30001     30004
     30000     29998     30001     30002     30000     29998     30001     30003
     30000     29998     30001     30004     30001     30004     30007     30008
     30001     30004     30007     30009     30001     30004     30007     30010
     30002     30001     30004     30005     30002     30001     30004     30006
     30002     30001     30004     30007     30003     30001     30004     30005
     30003     30001     30004     30006     30003     30001     30004     30007
     30004     30007     30010     30011     30004     30007     30010     30012
     30004     30007     30010     30013     30005     30004     30007     30008
     30005     30004     30007     30009     30005     30004     30007     30010
     30006     30004     30007     30008     30006     30004     30007     30009
     30006     30004     30007     30010     30007     30010     30013     30014
     30007     30010     30013     30015     30007     30010     30013     30016
     30008     30007     30010     30011     30008     30007     30010     30012
     30008     30007     30010     30013     30009     30007     30010     30011
     30009     30007     30010     30012     30009     30007     30010     30013
     30011     30010     30013     30014     30011     30010     30013     30015
     30011     30010     30013     30016     30012     30010     30013     30014
     30012     30010     30013     30015     30012     30010     30013     30016
     30017     30018     30033     30034     30017     30018     30033     30035
     30017     30018     30033     30039     30018     30017     30021     30022
     30018     30017     30021     30023     30018     30017     30021     30024
     30018     30017     30025     30026     30018     30017     30025     30027
     30018     30017     30025     30028     30018     30017     30029     30030
     30018     30017     30029     30031     30018     30017     30029     30032
     30018     30033     30039     30036     30019     30018     30017     30021
     30019     30018     30017     30025     30019     30018     30017     30029
     30019     30018     30033     30034     30019     30018     30033     30035
     30019     30018     30033     30039     30020     30018     30017     30021
     30020     30018     30017     30025     30020     30018     30017     30029
     30020     30018     30033     30034     30020     30018     30033     30035
     30020     30018     30033     30039     30021     30017     30018     30033
     30021     30017     30025     30026     30021     30017     30025     30027
     30021     30017     30025     30028     30021     30017     30029     30030
     30021     30017     30029     30031     30021     30017     30029     30032
     30022     30021     30017     30025     30022     30021     30017     30029
     30023     30021     30017     30025     30023     30021     30017     30029
     30024     30021     30017     30025     30024     30021     30017     30029
     30025     30017     30018     30033     30025     30017     30029     30030
     30025     30017     30029     30031     30025     30017     30029     30032
     30026     30025     30017     30029     30027     30025     30017     30029
     30028     30025     30017     30029     30029     30017     30018     30033
     30033     30039     30036     30037     30033     30039     30036     30038
     30033     30039     30036     30040     30034     30033     30039     30036
     30035     30033     30039     30036     30036     30040     30041     30042
     30036     30040     30041     30043     30036     30040     30041     30044
     30037     30036     30040     30041     30038     30036     30040     30041
     30039     30036     30040     30041     30040     30041     30044     30045
     30040     30041     30044     30046     30040     30041     30044     30052
     30041     30044     30046     30047     30041     30044     30052     30053
     30041     30044     30052     30054     30041     30044     30052     30055
     30042     30041     30044     30045     30042     30041     30044     30046
     30042     30041     30044     30052     30043     30041     30044     30045
     30043     30041     30044     30046     30043     30041     30044     30052
     30044     30046     30047     30048     30044     30046     30047     30049
     30044     30052     30055     30056     30045     30044     30046     30047
     30045     30044     30052     30053     30045     30044     30052     30054
     30045     30044     30052     30055     30046     30044     30052     30053
     30046     30044     30052     30054     30046     30044     30052     30055
     30046     30047     30049     30050     30046     30047     30049     30051
     30046     30047     30049     30061     30047     30046     30044     30052
     30047     30049     30061     30062     30047     30049     30061     30063
     30047     30049     30061     30064     30048     30047     30049     30050
     30048     30047     30049     30051     30048     30047     30049     30061
     30049     30061     30064     30065     30049     30061     30064     30066
     30049     30061     30064     30067     30050     30049     30061     30062
     30050     30049     30061     30063     30050     30049     30061     30064
     30051     30049     30061     30062     30051     30049     30061     30063
     30051     30049     30061     30064     30052     30055     30056     30057
     30052     30055     30056     30058     30053     30052     30055     30056
     30054     30052     30055     30056     30055     30056     30058     30059
     30055     30056     30058     30060     30055     30056     30058     30108
     30056     30058     30108     30109     30056     30058     30108     30110
     30056     30058     30108     30111     30057     30056     30058     30059
     30057     30056     30058     30060     30057     30056     30058     30108
     30058     30108     30111     30112     30058     30108     30111     30113
     30058     30108     30111     30114     30059     30058     30108     30109
     30059     30058     30108     30110     30059     30058     30108     30111
     30060     30058     30108     30109     30060     30058     30108     30110
     30060     30058     30108     30111     30061     30064     30067     30068
     30061     30064     30067     30069     30061     30064     30067     30070
     30062     30061     30064     30065     30062     30061     30064     30066
     30062     30061     30064     30067     30063     30061     30064     30065
     30063     30061     30064     30066     30063     30061     30064     30067
     30064     30067     30070     30071     30064     30067     30070     30072
     30064     30067     30070     30073     30065     30064     30067     30068
     30065     30064     30067     30069     30065     30064     30067     30070
     30066     30064     30067     30068     30066     30064     30067     30069
     30066     30064     30067     30070     30067     30070     30073     30074
     30067     30070     30073     30075     30067     30070     30073     30076
     30068     30067     30070     30071     30068     30067     30070     30072
     30068     30067     30070     30073     30069     30067     30070     30071
     30069     30067     30070     30072     30069     30067     30070     30073
     30070     30073     30076     30077     30070     30073     30076     30078
     30070     30073     30076     30079     30071     30070     30073     30074
     30071     30070     30073     30075     30071     30070     30073     30076
     30072     30070     30073     30074     30072     30070     30073     30075
     30072     30070     30073     30076     30073     30076     30079     30080
     30073     30076     30079     30081     30074     30073     30076     30077
     30074     30073     30076     30078     30074     30073     30076     30079
     30075     30073     30076     30077     30075     30073     30076     30078
     30075     30073     30076     30079     30076     30079     30081     30082
     30076     30079     30081     30083     30077     30076     30079     30080
     30077     30076     30079     30081     30078     30076     30079     30080
     30078     30076     30079     30081     30079     30081     30083     30084
     30079     30081     30083     30085     30079     30081     30083     30086
     30080     30079     30081     30082     30080     30079     30081     30083
     30081     30083     30086     30087     30081     30083     30086     30088
     30081     30083     30086     30089     30082     30081     30083     30084
     30082     30081     30083     30085     30082     30081     30083     30086
     30083     30086     30089     30090     30083     30086     30089     30091
     30083     30086     30089     30092     30084     30083     30086     30087
     30084     30083     30086     30088     30084     30083     30086     30089
     30085     30083     30086     30087     30085     30083     30086     30088
     30085     30083     30086     30089     30086     30089     30092     30093
     30086     30089     30092     30094     30086     30089     30092     30095
     30087     30086     30089     30090     30087     30086     30089     30091
     30087     30086     30089     30092     30088     30086     30089     30090
     30088     30086     30089     30091     30088     30086     30089     30092
     30089     30092     30095     30096     30089     30092     30095     30097
     30089     30092     30095     30098     30090     30089     30092     30093
     30090     30089     30092     30094     30090     30089     30092     30095
     30091     30089     30092     30093     30091     30089     30092     30094
     30091     30089     30092     30095     30092     30095     30098     30099
     30092     30095     30098     30100     30092     30095     30098     30101
     30093     30092     30095     30096     30093     30092     30095     30097
     30093     30092     30095     30098     30094     30092     30095     30096
     30094     30092     30095     30097     30094     30092     30095     30098
     30095     30098     30101     30102     30095     30098     30101     30103
     30095     30098     30101     30104     30096     30095     30098     30099
     30096     30095     30098     30100     30096     30095     30098     30101
     30097     30095     30098     30099     30097     30095     30098     30100
     30097     30095     30098     30101     30098     30101     30104     30105
     30098     30101     30104     30106     30098     30101     30104     30107
     30099     30098     30101     30102     30099     30098     30101     30103
     30099     30098     30101     30104     30100     30098     30101     30102
     30100     30098     30101     30103     30100     30098     30101     30104
     30102     30101     30104     30105     30102     30101     30104     30106
     30102     30101     30104     30107     30103     30101     30104     30105
     30103     30101     30104     30106     30103     30101     30104     30107
     30108     30111     30114     30115     30108     30111     30114     30116
     30108     30111     30114     30117     30109     30108     30111     30112
     30109     30108     30111     30113     30109     30108     30111     30114
     30110     30108     30111     30112     30110     30108     30111     30113
     30110     30108     30111     30114     30111     30114     30117     30118
     30111     30114     30117     30119     30111     30114     30117     30120
     30112     30111     30114     30115     30112     30111     30114     30116
     30112     30111     30114     30117     30113     30111     30114     30115
     30113     30111     30114     30116     30113     30111     30114     30117
     30114     30117     30120     30121     30114     30117     30120     30122
     30114     30117     30120     30123     30115     30114     30117     30118
     30115     30114     30117     30119     30115     30114     30117     30120
     30116     30114     30117     30118     30116     30114     30117     30119
     30116     30114     30117     30120     30117     30120     30123     30124
     30117     30120     30123     30125     30117     30120     30123     30126
     30118     30117     30120     30121     30118     30117     30120     30122
     30118     30117     30120     30123     30119     30117     30120     30121
     30119     30117     30120     30122     30119     30117     30120     30123
     30120     30123     30126     30127     30120     30123     30126     30128
     30120     30123     30126     30129     30121     30120     30123     30124
     30121     30120     30123     30125     30121     30120     30123     30126
     30122     30120     30123     30124     30122     30120     30123     30125
     30122     30120     30123     30126     30123     30126     30129     30130
     30123     30126     30129     30131     30123     30126     30129     30132
     30124     30123     30126     30127     30124     30123     30126     30128
     30124     30123     30126     30129     30125     30123     30126     30127
     30125     30123     30126     30128     30125     30123     30126     30129
     30126     30129     30132     30133     30126     30129     30132     30134
     30126     30129     30132     30135     30127     30126     30129     30130
     30127     30126     30129     30131     30127     30126     30129     30132
     30128     30126     30129     30130     30128     30126     30129     30131
     30128     30126     30129     30132     30129     30132     30135     30136
     30129     30132     30135     30137     30129     30132     30135     30138
     30130     30129     30132     30133     30130     30129     30132     30134
     30130     30129     30132     30135     30131     30129     30132     30133
     30131     30129     30132     30134     30131     30129     30132     30135
     30132     30135     30138     30139     30132     30135     30138     30140
     30132     30135     30138     30141     30133     30132     30135     30136
     30133     30132     30135     30137     30133     30132     30135     30138
     30134     30132     30135     30136     30134     30132     30135     30137
     30134     30132     30135     30138     30135     30138     30141     30142
     30135     30138     30141     30143     30135     30138     30141     30144
     30136     30135     30138     30139     30136     30135     30138     30140
     30136     30135     30138     30141     30137     30135     30138     30139
     30137     30135     30138     30140     30137     30135     30138     30141
     30138     30141     30144     30145     30138     30141     30144     30146
     30138     30141     30144     30147     30139     30138     30141     30142
     30139     30138     30141     30143     30139     30138     30141     30144
     30140     30138     30141     30142     30140     30138     30141     30143
     30140     30138     30141     30144     30141     30144     30147     30148
     30141     30144     30147     30149     30141     30144     30147     30150
     30142     30141     30144     30145     30142     30141     30144     30146
     30142     30141     30144     30147     30143     30141     30144     30145
     30143     30141     30144     30146     30143     30141     30144     30147
     30145     30144     30147     30148     30145     30144     30147     30149
     30145     30144     30147     30150     30146     30144     30147     30148
     30146     30144     30147     30149     30146     30144     30147     30150
     30151     30152     30167     30168     30151     30152     30167     30169
     30151     30152     30167     30173     30152     30151     30155     30156
     30152     30151     30155     30157     30152     30151     30155     30158
     30152     30151     30159     30160     30152     30151     30159     30161
     30152     30151     30159     30162     30152     30151     30163     30164
     30152     30151     30163     30165     30152     30151     30163     30166
     30152     30167     30173     30170     30153     30152     30151     30155
     30153     30152     30151     30159     30153     30152     30151     30163
     30153     30152     30167     30168     30153     30152     30167     30169
     30153     30152     30167     30173     30154     30152     30151     30155
     30154     30152     30151     30159     30154     30152     30151     30163
     30154     30152     30167     30168     30154     30152     30167     30169
     30154     30152     30167     30173     30155     30151     30152     30167
     30155     30151     30159     30160     30155     30151     30159     30161
     30155     30151     30159     30162     30155     30151     30163     30164
     30155     30151     30163     30165     30155     30151     30163     30166
     30156     30155     30151     30159     30156     30155     30151     30163
     30157     30155     30151     30159     30157     30155     30151     30163
     30158     30155     30151     30159     30158     30155     30151     30163
     30159     30151     30152     30167     30159     30151     30163     30164
     30159     30151     30163     30165     30159     30151     30163     30166
     30160     30159     30151     30163     30161     30159     30151     30163
     30162     30159     30151     30163     30163     30151     30152     30167
     30167     30173     30170     30171     30167     30173     30170     30172
     30167     30173     30170     30174     30168     30167     30173     30170
     30169     30167     30173     30170     30170     30174     30175     30176
     30170     30174     30175     30177     30170     30174     30175     30178
     30171     30170     30174     30175     30172     30170     30174     30175
     30173     30170     30174     30175     30174     30175     30178     30179
     30174     30175     30178     30180     30174     30175     30178     30186
     30175     30178     30180     30181     30175     30178     30186     30187
     30175     30178     30186     30188     30175     30178     30186     30189
     30176     30175     30178     30179     30176     30175     30178     30180
     30176     30175     30178     30186     30177     30175     30178     30179
     30177     30175     30178     30180     30177     30175     30178     30186
     30178     30180     30181     30182     30178     30180     30181     30183
     30178     30186     30189     30190     30179     30178     30180     30181
     30179     30178     30186     30187     30179     30178     30186     30188
     30179     30178     30186     30189     30180     30178     30186     30187
     30180     30178     30186     30188     30180     30178     30186     30189
     30180     30181     30183     30184     30180     30181     30183     30185
     30180     30181     30183     30195     30181     30180     30178     30186
     30181     30183     30195     30196     30181     30183     30195     30197
     30181     30183     30195     30198     30182     30181     30183     30184
     30182     30181     30183     30185     30182     30181     30183     30195
     30183     30195     30198     30199     30183     30195     30198     30200
     30183     30195     30198     30201     30184     30183     30195     30196
     30184     30183     30195     30197     30184     30183     30195     30198
     30185     30183     30195     30196     30185     30183     30195     30197
     30185     30183     30195     30198     30186     30189     30190     30191
     30186     30189     30190     30192     30187     30186     30189     30190
     30188     30186     30189     30190     30189     30190     30192     30193
     30189     30190     30192     30194     30189     30190     30192     30242
     30190     30192     30242     30243     30190     30192     30242     30244
     30190     30192     30242     30245     30191     30190     30192     30193
     30191     30190     30192     30194     30191     30190     30192     30242
     30192     30242     30245     30246     30192     30242     30245     30247
     30192     30242     30245     30248     30193     30192     30242     30243
     30193     30192     30242     30244     30193     30192     30242     30245
     30194     30192     30242     30243     30194     30192     30242     30244
     30194     30192     30242     30245     30195     30198     30201     30202
     30195     30198     30201     30203     30195     30198     30201     30204
     30196     30195     30198     30199     30196     30195     30198     30200
     30196     30195     30198     30201     30197     30195     30198     30199
     30197     30195     30198     30200     30197     30195     30198     30201
     30198     30201     30204     30205     30198     30201     30204     30206
     30198     30201     30204     30207     30199     30198     30201     30202
     30199     30198     30201     30203     30199     30198     30201     30204
     30200     30198     30201     30202     30200     30198     30201     30203
     30200     30198     30201     30204     30201     30204     30207     30208
     30201     30204     30207     30209     30201     30204     30207     30210
     30202     30201     30204     30205     30202     30201     30204     30206
     30202     30201     30204     30207     30203     30201     30204     30205
     30203     30201     30204     30206     30203     30201     30204     30207
     30204     30207     30210     30211     30204     30207     30210     30212
     30204     30207     30210     30213     30205     30204     30207     30208
     30205     30204     30207     30209     30205     30204     30207     30210
     30206     30204     30207     30208     30206     30204     30207     30209
     30206     30204     30207     30210     30207     30210     30213     30214
     30207     30210     30213     30215     30208     30207     30210     30211
     30208     30207     30210     30212     30208     30207     30210     30213
     30209     30207     30210     30211     30209     30207     30210     30212
     30209     30207     30210     30213     30210     30213     30215     30216
     30210     30213     30215     30217     30211     30210     30213     30214
     30211     30210     30213     30215     30212     30210     30213     30214
     30212     30210     30213     30215     30213     30215     30217     30218
     30213     30215     30217     30219     30213     30215     30217     30220
     30214     30213     30215     30216     30214     30213     30215     30217
     30215     30217     30220     30221     30215     30217     30220     30222
     30215     30217     30220     30223     30216     30215     30217     30218
     30216     30215     30217     30219     30216     30215     30217     30220
     30217     30220     30223     30224     30217     30220     30223     30225
     30217     30220     30223     30226     30218     30217     30220     30221
     30218     30217     30220     30222     30218     30217     30220     30223
     30219     30217     30220     30221     30219     30217     30220     30222
     30219     30217     30220     30223     30220     30223     30226     30227
     30220     30223     30226     30228     30220     30223     30226     30229
     30221     30220     30223     30224     30221     30220     30223     30225
     30221     30220     30223     30226     30222     30220     30223     30224
     30222     30220     30223     30225     30222     30220     30223     30226
     30223     30226     30229     30230     30223     30226     30229     30231
     30223     30226     30229     30232     30224     30223     30226     30227
     30224     30223     30226     30228     30224     30223     30226     30229
     30225     30223     30226     30227     30225     30223     30226     30228
     30225     30223     30226     30229     30226     30229     30232     30233
     30226     30229     30232     30234     30226     30229     30232     30235
     30227     30226     30229     30230     30227     30226     30229     30231
     30227     30226     30229     30232     30228     30226     30229     30230
     30228     30226     30229     30231     30228     30226     30229     30232
     30229     30232     30235     30236     30229     30232     30235     30237
     30229     30232     30235     30238     30230     30229     30232     30233
     30230     30229     30232     30234     30230     30229     30232     30235
     30231     30229     30232     30233     30231     30229     30232     30234
     30231     30229     30232     30235     30232     30235     30238     30239
     30232     30235     30238     30240     30232     30235     30238     30241
     30233     30232     30235     30236     30233     30232     30235     30237
     30233     30232     30235     30238     30234     30232     30235     30236
     30234     30232     30235     30237     30234     30232     30235     30238
     30236     30235     30238     30239     30236     30235     30238     30240
     30236     30235     30238     30241     30237     30235     30238     30239
     30237     30235     30238     30240     30237     30235     30238     30241
     30242     30245     30248     30249     30242     30245     30248     30250
     30242     30245     30248     30251     30243     30242     30245     30246
     30243     30242     30245     30247     30243     30242     30245     30248
     30244     30242     30245     30246     30244     30242     30245     30247
     30244     30242     30245     30248     30245     30248     30251     30252
     30245     30248     30251     30253     30245     30248     30251     30254
     30246     30245     30248     30249     30246     30245     30248     30250
     30246     30245     30248     30251     30247     30245     30248     30249
     30247     30245     30248     30250     30247     30245     30248     30251
     30248     30251     30254     30255     30248     30251     30254     30256
     30248     30251     30254     30257     30249     30248     30251     30252
     30249     30248     30251     30253     30249     30248     30251     30254
     30250     30248     30251     30252     30250     30248     30251     30253
     30250     30248     30251     30254     30251     30254     30257     30258
     30251     30254     30257     30259     30251     30254     30257     30260
     30252     30251     30254     30255     30252     30251     30254     30256
     30252     30251     30254     30257     30253     30251     30254     30255
     30253     30251     30254     30256     30253     30251     30254     30257
     30254     30257     30260     30261     30254     30257     30260     30262
     30254     30257     30260     30263     30255     30254     30257     30258
     30255     30254     30257     30259     30255     30254     30257     30260
     30256     30254     30257     30258     30256     30254     30257     30259
     30256     30254     30257     30260     30257     30260     30263     30264
     30257     30260     30263     30265     30257     30260     30263     30266
     30258     30257     30260     30261     30258     30257     30260     30262
     30258     30257     30260     30263     30259     30257     30260     30261
     30259     30257     30260     30262     30259     30257     30260     30263
     30260     30263     30266     30267     30260     30263     30266     30268
     30260     30263     30266     30269     30261     30260     30263     30264
     30261     30260     30263     30265     30261     30260     30263     30266
     30262     30260     30263     30264     30262     30260     30263     30265
     30262     30260     30263     30266     30263     30266     30269     30270
     30263     30266     30269     30271     30263     30266     30269     30272
     30264     30263     30266     30267     30264     30263     30266     30268
     30264     30263     30266     30269     30265     30263     30266     30267
     30265     30263     30266     30268     30265     30263     30266     30269
     30266     30269     30272     30273     30266     30269     30272     30274
     30266     30269     30272     30275     30267     30266     30269     30270
     30267     30266     30269     30271     30267     30266     30269     30272
     30268     30266     30269     30270     30268     30266     30269     30271
     30268     30266     30269     30272     30269     30272     30275     30276
     30269     30272     30275     30277     30269     30272     30275     30278
     30270     30269     30272     30273     30270     30269     30272     30274
     30270     30269     30272     30275     30271     30269     30272     30273
     30271     30269     30272     30274     30271     30269     30272     30275
     30272     30275     30278     30279     30272     30275     30278     30280
     30272     30275     30278     30281     30273     30272     30275     30276
     30273     30272     30275     30277     30273     30272     30275     30278
     30274     30272     30275     30276     30274     30272     30275     30277
     30274     30272     30275     30278     30275     30278     30281     30282
     30275     30278     30281     30283     30275     30278     30281     30284
     30276     30275     30278     30279     30276     30275     30278     30280
     30276     30275     30278     30281     30277     30275     30278     30279
     30277     30275     30278     30280     30277     30275     30278     30281
     30279     30278     30281     30282     30279     30278     30281     30283
     30279     30278     30281     30284     30280     30278     30281     30282
     30280     30278     30281     30283     30280     30278     30281     30284
     30285     30286     30301     30302     30285     30286     30301     30303
     30285     30286     30301     30307     30286     30285     30289     30290
     30286     30285     30289     30291     30286     30285     30289     30292
     30286     30285     30293     30294     30286     30285     30293     30295
     30286     30285     30293     30296     30286     30285     30297     30298
     30286     30285     30297     30299     30286     30285     30297     30300
     30286     30301     30307     30304     30287     30286     30285     30289
     30287     30286     30285     30293     30287     30286     30285     30297
     30287     30286     30301     30302     30287     30286     30301     30303
     30287     30286     30301     30307     30288     30286     30285     30289
     30288     30286     30285     30293     30288     30286     30285     30297
     30288     30286     30301     30302     30288     30286     30301     30303
     30288     30286     30301     30307     30289     30285     30286     30301
     30289     30285     30293     30294     30289     30285     30293     30295
     30289     30285     30293     30296     30289     30285     30297     30298
     30289     30285     30297     30299     30289     30285     30297     30300
     30290     30289     30285     30293     30290     30289     30285     30297
     30291     30289     30285     30293     30291     30289     30285     30297
     30292     30289     30285     30293     30292     30289     30285     30297
     30293     30285     30286     30301     30293     30285     30297     30298
     30293     30285     30297     30299     30293     30285     30297     30300
     30294     30293     30285     30297     30295     30293     30285     30297
     30296     30293     30285     30297     30297     30285     30286     30301
     30301     30307     30304     30305     30301     30307     30304     30306
     30301     30307     30304     30308     30302     30301     30307     30304
     30303     30301     30307     30304     30304     30308     30309     30310
     30304     30308     30309     30311     30304     30308     30309     30312
     30305     30304     30308     30309     30306     30304     30308     30309
     30307     30304     30308     30309     30308     30309     30312     30313
     30308     30309     30312     30314     30308     30309     30312     30320
     30309     30312     30314     30315     30309     30312     30320     30321
     30309     30312     30320     30322     30309     30312     30320     30323
     30310     30309     30312     30313     30310     30309     30312     30314
     30310     30309     30312     30320     30311     30309     30312     30313
     30311     30309     30312     30314     30311     30309     30312     30320
     30312     30314     30315     30316     30312     30314     30315     30317
     30312     30320     30323     30324     30313     30312     30314     30315
     30313     30312     30320     30321     30313     30312     30320     30322
     30313     30312     30320     30323     30314     30312     30320     30321
     30314     30312     30320     30322     30314     30312     30320     30323
     30314     30315     30317     30318     30314     30315     30317     30319
     30314     30315     30317     30329     30315     30314     30312     30320
     30315     30317     30329     30330     30315     30317     30329     30331
     30315     30317     30329     30332     30316     30315     30317     30318
     30316     30315     30317     30319     30316     30315     30317     30329
     30317     30329     30332     30333     30317     30329     30332     30334
     30317     30329     30332     30335     30318     30317     30329     30330
     30318     30317     30329     30331     30318     30317     30329     30332
     30319     30317     30329     30330     30319     30317     30329     30331
     30319     30317     30329     30332     30320     30323     30324     30325
     30320     30323     30324     30326     30321     30320     30323     30324
     30322     30320     30323     30324     30323     30324     30326     30327
     30323     30324     30326     30328     30323     30324     30326     30376
     30324     30326     30376     30377     30324     30326     30376     30378
     30324     30326     30376     30379     30325     30324     30326     30327
     30325     30324     30326     30328     30325     30324     30326     30376
     30326     30376     30379     30380     30326     30376     30379     30381
     30326     30376     30379     30382     30327     30326     30376     30377
     30327     30326     30376     30378     30327     30326     30376     30379
     30328     30326     30376     30377     30328     30326     30376     30378
     30328     30326     30376     30379     30329     30332     30335     30336
     30329     30332     30335     30337     30329     30332     30335     30338
     30330     30329     30332     30333     30330     30329     30332     30334
     30330     30329     30332     30335     30331     30329     30332     30333
     30331     30329     30332     30334     30331     30329     30332     30335
     30332     30335     30338     30339     30332     30335     30338     30340
     30332     30335     30338     30341     30333     30332     30335     30336
     30333     30332     30335     30337     30333     30332     30335     30338
     30334     30332     30335     30336     30334     30332     30335     30337
     30334     30332     30335     30338     30335     30338     30341     30342
     30335     30338     30341     30343     30335     30338     30341     30344
     30336     30335     30338     30339     30336     30335     30338     30340
     30336     30335     30338     30341     30337     30335     30338     30339
     30337     30335     30338     30340     30337     30335     30338     30341
     30338     30341     30344     30345     30338     30341     30344     30346
     30338     30341     30344     30347     30339     30338     30341     30342
     30339     30338     30341     30343     30339     30338     30341     30344
     30340     30338     30341     30342     30340     30338     30341     30343
     30340     30338     30341     30344     30341     30344     30347     30348
     30341     30344     30347     30349     30342     30341     30344     30345
     30342     30341     30344     30346     30342     30341     30344     30347
     30343     30341     30344     30345     30343     30341     30344     30346
     30343     30341     30344     30347     30344     30347     30349     30350
     30344     30347     30349     30351     30345     30344     30347     30348
     30345     30344     30347     30349     30346     30344     30347     30348
     30346     30344     30347     30349     30347     30349     30351     30352
     30347     30349     30351     30353     30347     30349     30351     30354
     30348     30347     30349     30350     30348     30347     30349     30351
     30349     30351     30354     30355     30349     30351     30354     30356
     30349     30351     30354     30357     30350     30349     30351     30352
     30350     30349     30351     30353     30350     30349     30351     30354
     30351     30354     30357     30358     30351     30354     30357     30359
     30351     30354     30357     30360     30352     30351     30354     30355
     30352     30351     30354     30356     30352     30351     30354     30357
     30353     30351     30354     30355     30353     30351     30354     30356
     30353     30351     30354     30357     30354     30357     30360     30361
     30354     30357     30360     30362     30354     30357     30360     30363
     30355     30354     30357     30358     30355     30354     30357     30359
     30355     30354     30357     30360     30356     30354     30357     30358
     30356     30354     30357     30359     30356     30354     30357     30360
     30357     30360     30363     30364     30357     30360     30363     30365
     30357     30360     30363     30366     30358     30357     30360     30361
     30358     30357     30360     30362     30358     30357     30360     30363
     30359     30357     30360     30361     30359     30357     30360     30362
     30359     30357     30360     30363     30360     30363     30366     30367
     30360     30363     30366     30368     30360     30363     30366     30369
     30361     30360     30363     30364     30361     30360     30363     30365
     30361     30360     30363     30366     30362     30360     30363     30364
     30362     30360     30363     30365     30362     30360     30363     30366
     30363     30366     30369     30370     30363     30366     30369     30371
     30363     30366     30369     30372     30364     30363     30366     30367
     30364     30363     30366     30368     30364     30363     30366     30369
     30365     30363     30366     30367     30365     30363     30366     30368
     30365     30363     30366     30369     30366     30369     30372     30373
     30366     30369     30372     30374     30366     30369     30372     30375
     30367     30366     30369     30370     30367     30366     30369     30371
     30367     30366     30369     30372     30368     30366     30369     30370
     30368     30366     30369     30371     30368     30366     30369     30372
     30370     30369     30372     30373     30370     30369     30372     30374
     30370     30369     30372     30375     30371     30369     30372     30373
     30371     30369     30372     30374     30371     30369     30372     30375
     30376     30379     30382     30383     30376     30379     30382     30384
     30376     30379     30382     30385     30377     30376     30379     30380
     30377     30376     30379     30381     30377     30376     30379     30382
     30378     30376     30379     30380     30378     30376     30379     30381
     30378     30376     30379     30382     30379     30382     30385     30386
     30379     30382     30385     30387     30379     30382     30385     30388
     30380     30379     30382     30383     30380     30379     30382     30384
     30380     30379     30382     30385     30381     30379     30382     30383
     30381     30379     30382     30384     30381     30379     30382     30385
     30382     30385     30388     30389     30382     30385     30388     30390
     30382     30385     30388     30391     30383     30382     30385     30386
     30383     30382     30385     30387     30383     30382     30385     30388
     30384     30382     30385     30386     30384     30382     30385     30387
     30384     30382     30385     30388     30385     30388     30391     30392
     30385     30388     30391     30393     30385     30388     30391     30394
     30386     30385     30388     30389     30386     30385     30388     30390
     30386     30385     30388     30391     30387     30385     30388     30389
     30387     30385     30388     30390     30387     30385     30388     30391
     30388     30391     30394     30395     30388     30391     30394     30396
     30388     30391     30394     30397     30389     30388     30391     30392
     30389     30388     30391     30393     30389     30388     30391     30394
     30390     30388     30391     30392     30390     30388     30391     30393
     30390     30388     30391     30394     30391     30394     30397     30398
     30391     30394     30397     30399     30391     30394     30397     30400
     30392     30391     30394     30395     30392     30391     30394     30396
     30392     30391     30394     30397     30393     30391     30394     30395
     30393     30391     30394     30396     30393     30391     30394     30397
     30394     30397     30400     30401     30394     30397     30400     30402
     30394     30397     30400     30403     30395     30394     30397     30398
     30395     30394     30397     30399     30395     30394     30397     30400
     30396     30394     30397     30398     30396     30394     30397     30399
     30396     30394     30397     30400     30397     30400     30403     30404
     30397     30400     30403     30405     30397     30400     30403     30406
     30398     30397     30400     30401     30398     30397     30400     30402
     30398     30397     30400     30403     30399     30397     30400     30401
     30399     30397     30400     30402     30399     30397     30400     30403
     30400     30403     30406     30407     30400     30403     30406     30408
     30400     30403     30406     30409     30401     30400     30403     30404
     30401     30400     30403     30405     30401     30400     30403     30406
     30402     30400     30403     30404     30402     30400     30403     30405
     30402     30400     30403     30406     30403     30406     30409     30410
     30403     30406     30409     30411     30403     30406     30409     30412
     30404     30403     30406     30407     30404     30403     30406     30408
     30404     30403     30406     30409     30405     30403     30406     30407
     30405     30403     30406     30408     30405     30403     30406     30409
     30406     30409     30412     30413     30406     30409     30412     30414
     30406     30409     30412     30415     30407     30406     30409     30410
     30407     30406     30409     30411     30407     30406     30409     30412
     30408     30406     30409     30410     30408     30406     30409     30411
     30408     30406     30409     30412     30409     30412     30415     30416
     30409     30412     30415     30417     30409     30412     30415     30418
     30410     30409     30412     30413     30410     30409     30412     30414
     30410     30409     30412     30415     30411     30409     30412     30413
     30411     30409     30412     30414     30411     30409     30412     30415
     30413     30412     30415     30416     30413     30412     30415     30417
     30413     30412     30415     30418     30414     30412     30415     30416
     30414     30412     30415     30417     30414     30412     30415     30418
     30419     30420     30435     30436     30419     30420     30435     30437
     30419     30420     30435     30441     30420     30419     30423     30424
     30420     30419     30423     30425     30420     30419     30423     30426
     30420     30419     30427     30428     30420     30419     30427     30429
     30420     30419     30427     30430     30420     30419     30431     30432
     30420     30419     30431     30433     30420     30419     30431     30434
     30420     30435     30441     30438     30421     30420     30419     30423
     30421     30420     30419     30427     30421     30420     30419     30431
     30421     30420     30435     30436     30421     30420     30435     30437
     30421     30420     30435     30441     30422     30420     30419     30423
     30422     30420     30419     30427     30422     30420     30419     30431
     30422     30420     30435     30436     30422     30420     30435     30437
     30422     30420     30435     30441     30423     30419     30420     30435
     30423     30419     30427     30428     30423     30419     30427     30429
     30423     30419     30427     30430     30423     30419     30431     30432
     30423     30419     30431     30433     30423     30419     30431     30434
     30424     30423     30419     30427     30424     30423     30419     30431
     30425     30423     30419     30427     30425     30423     30419     30431
     30426     30423     30419     30427     30426     30423     30419     30431
     30427     30419     30420     30435     30427     30419     30431     30432
     30427     30419     30431     30433     30427     30419     30431     30434
     30428     30427     30419     30431     30429     30427     30419     30431
     30430     30427     30419     30431     30431     30419     30420     30435
     30435     30441     30438     30439     30435     30441     30438     30440
     30435     30441     30438     30442     30436     30435     30441     30438
     30437     30435     30441     30438     30438     30442     30443     30444
     30438     30442     30443     30445     30438     30442     30443     30446
     30439     30438     30442     30443     30440     30438     30442     30443
     30441     30438     30442     30443     30442     30443     30446     30447
     30442     30443     30446     30448     30442     30443     30446     30454
     30443     30446     30448     30449     30443     30446     30454     30455
     30443     30446     30454     30456     30443     30446     30454     30457
     30444     30443     30446     30447     30444     30443     30446     30448
     30444     30443     30446     30454     30445     30443     30446     30447
     30445     30443     30446     30448     30445     30443     30446     30454
     30446     30448     30449     30450     30446     30448     30449     30451
     30446     30454     30457     30458     30447     30446     30448     30449
     30447     30446     30454     30455     30447     30446     30454     30456
     30447     30446     30454     30457     30448     30446     30454     30455
     30448     30446     30454     30456     30448     30446     30454     30457
     30448     30449     30451     30452     30448     30449     30451     30453
     30448     30449     30451     30463     30449     30448     30446     30454
     30449     30451     30463     30464     30449     30451     30463     30465
     30449     30451     30463     30466     30450     30449     30451     30452
     30450     30449     30451     30453     30450     30449     30451     30463
     30451     30463     30466     30467     30451     30463     30466     30468
     30451     30463     30466     30469     30452     30451     30463     30464
     30452     30451     30463     30465     30452     30451     30463     30466
     30453     30451     30463     30464     30453     30451     30463     30465
     30453     30451     30463     30466     30454     30457     30458     30459
     30454     30457     30458     30460     30455     30454     30457     30458
     30456     30454     30457     30458     30457     30458     30460     30461
     30457     30458     30460     30462     30457     30458     30460     30510
     30458     30460     30510     30511     30458     30460     30510     30512
     30458     30460     30510     30513     30459     30458     30460     30461
     30459     30458     30460     30462     30459     30458     30460     30510
     30460     30510     30513     30514     30460     30510     30513     30515
     30460     30510     30513     30516     30461     30460     30510     30511
     30461     30460     30510     30512     30461     30460     30510     30513
     30462     30460     30510     30511     30462     30460     30510     30512
     30462     30460     30510     30513     30463     30466     30469     30470
     30463     30466     30469     30471     30463     30466     30469     30472
     30464     30463     30466     30467     30464     30463     30466     30468
     30464     30463     30466     30469     30465     30463     30466     30467
     30465     30463     30466     30468     30465     30463     30466     30469
     30466     30469     30472     30473     30466     30469     30472     30474
     30466     30469     30472     30475     30467     30466     30469     30470
     30467     30466     30469     30471     30467     30466     30469     30472
     30468     30466     30469     30470     30468     30466     30469     30471
     30468     30466     30469     30472     30469     30472     30475     30476
     30469     30472     30475     30477     30469     30472     30475     30478
     30470     30469     30472     30473     30470     30469     30472     30474
     30470     30469     30472     30475     30471     30469     30472     30473
     30471     30469     30472     30474     30471     30469     30472     30475
     30472     30475     30478     30479     30472     30475     30478     30480
     30472     30475     30478     30481     30473     30472     30475     30476
     30473     30472     30475     30477     30473     30472     30475     30478
     30474     30472     30475     30476     30474     30472     30475     30477
     30474     30472     30475     30478     30475     30478     30481     30482
     30475     30478     30481     30483     30476     30475     30478     30479
     30476     30475     30478     30480     30476     30475     30478     30481
     30477     30475     30478     30479     30477     30475     30478     30480
     30477     30475     30478     30481     30478     30481     30483     30484
     30478     30481     30483     30485     30479     30478     30481     30482
     30479     30478     30481     30483     30480     30478     30481     30482
     30480     30478     30481     30483     30481     30483     30485     30486
     30481     30483     30485     30487     30481     30483     30485     30488
     30482     30481     30483     30484     30482     30481     30483     30485
     30483     30485     30488     30489     30483     30485     30488     30490
     30483     30485     30488     30491     30484     30483     30485     30486
     30484     30483     30485     30487     30484     30483     30485     30488
     30485     30488     30491     30492     30485     30488     30491     30493
     30485     30488     30491     30494     30486     30485     30488     30489
     30486     30485     30488     30490     30486     30485     30488     30491
     30487     30485     30488     30489     30487     30485     30488     30490
     30487     30485     30488     30491     30488     30491     30494     30495
     30488     30491     30494     30496     30488     30491     30494     30497
     30489     30488     30491     30492     30489     30488     30491     30493
     30489     30488     30491     30494     30490     30488     30491     30492
     30490     30488     30491     30493     30490     30488     30491     30494
     30491     30494     30497     30498     30491     30494     30497     30499
     30491     30494     30497     30500     30492     30491     30494     30495
     30492     30491     30494     30496     30492     30491     30494     30497
     30493     30491     30494     30495     30493     30491     30494     30496
     30493     30491     30494     30497     30494     30497     30500     30501
     30494     30497     30500     30502     30494     30497     30500     30503
     30495     30494     30497     30498     30495     30494     30497     30499
     30495     30494     30497     30500     30496     30494     30497     30498
     30496     30494     30497     30499     30496     30494     30497     30500
     30497     30500     30503     30504     30497     30500     30503     30505
     30497     30500     30503     30506     30498     30497     30500     30501
     30498     30497     30500     30502     30498     30497     30500     30503
     30499     30497     30500     30501     30499     30497     30500     30502
     30499     30497     30500     30503     30500     30503     30506     30507
     30500     30503     30506     30508     30500     30503     30506     30509
     30501     30500     30503     30504     30501     30500     30503     30505
     30501     30500     30503     30506     30502     30500     30503     30504
     30502     30500     30503     30505     30502     30500     30503     30506
     30504     30503     30506     30507     30504     30503     30506     30508
     30504     30503     30506     30509     30505     30503     30506     30507
     30505     30503     30506     30508     30505     30503     30506     30509
     30510     30513     30516     30517     30510     30513     30516     30518
     30510     30513     30516     30519     30511     30510     30513     30514
     30511     30510     30513     30515     30511     30510     30513     30516
     30512     30510     30513     30514     30512     30510     30513     30515
     30512     30510     30513     30516     30513     30516     30519     30520
     30513     30516     30519     30521     30513     30516     30519     30522
     30514     30513     30516     30517     30514     30513     30516     30518
     30514     30513     30516     30519     30515     30513     30516     30517
     30515     30513     30516     30518     30515     30513     30516     30519
     30516     30519     30522     30523     30516     30519     30522     30524
     30516     30519     30522     30525     30517     30516     30519     30520
     30517     30516     30519     30521     30517     30516     30519     30522
     30518     30516     30519     30520     30518     30516     30519     30521
     30518     30516     30519     30522     30519     30522     30525     30526
     30519     30522     30525     30527     30519     30522     30525     30528
     30520     30519     30522     30523     30520     30519     30522     30524
     30520     30519     30522     30525     30521     30519     30522     30523
     30521     30519     30522     30524     30521     30519     30522     30525
     30522     30525     30528     30529     30522     30525     30528     30530
     30522     30525     30528     30531     30523     30522     30525     30526
     30523     30522     30525     30527     30523     30522     30525     30528
     30524     30522     30525     30526     30524     30522     30525     30527
     30524     30522     30525     30528     30525     30528     30531     30532
     30525     30528     30531     30533     30525     30528     30531     30534
     30526     30525     30528     30529     30526     30525     30528     30530
     30526     30525     30528     30531     30527     30525     30528     30529
     30527     30525     30528     30530     30527     30525     30528     30531
     30528     30531     30534     30535     30528     30531     30534     30536
     30528     30531     30534     30537     30529     30528     30531     30532
     30529     30528     30531     30533     30529     30528     30531     30534
     30530     30528     30531     30532     30530     30528     30531     30533
     30530     30528     30531     30534     30531     30534     30537     30538
     30531     30534     30537     30539     30531     30534     30537     30540
     30532     30531     30534     30535     30532     30531     30534     30536
     30532     30531     30534     30537     30533     30531     30534     30535
     30533     30531     30534     30536     30533     30531     30534     30537
     30534     30537     30540     30541     30534     30537     30540     30542
     30534     30537     30540     30543     30535     30534     30537     30538
     30535     30534     30537     30539     30535     30534     30537     30540
     30536     30534     30537     30538     30536     30534     30537     30539
     30536     30534     30537     30540     30537     30540     30543     30544
     30537     30540     30543     30545     30537     30540     30543     30546
     30538     30537     30540     30541     30538     30537     30540     30542
     30538     30537     30540     30543     30539     30537     30540     30541
     30539     30537     30540     30542     30539     30537     30540     30543
     30540     30543     30546     30547     30540     30543     30546     30548
     30540     30543     30546     30549     30541     30540     30543     30544
     30541     30540     30543     30545     30541     30540     30543     30546
     30542     30540     30543     30544     30542     30540     30543     30545
     30542     30540     30543     30546     30543     30546     30549     30550
     30543     30546     30549     30551     30543     30546     30549     30552
     30544     30543     30546     30547     30544     30543     30546     30548
     30544     30543     30546     30549     30545     30543     30546     30547
     30545     30543     30546     30548     30545     30543     30546     30549
     30547     30546     30549     30550     30547     30546     30549     30551
     30547     30546     30549     30552     30548     30546     30549     30550
     30548     30546     30549     30551     30548     30546     30549     30552
     30553     30554     30569     30570     30553     30554     30569     30571
     30553     30554     30569     30575     30554     30553     30557     30558
     30554     30553     30557     30559     30554     30553     30557     30560
     30554     30553     30561     30562     30554     30553     30561     30563
     30554     30553     30561     30564     30554     30553     30565     30566
     30554     30553     30565     30567     30554     30553     30565     30568
     30554     30569     30575     30572     30555     30554     30553     30557
     30555     30554     30553     30561     30555     30554     30553     30565
     30555     30554     30569     30570     30555     30554     30569     30571
     30555     30554     30569     30575     30556     30554     30553     30557
     30556     30554     30553     30561     30556     30554     30553     30565
     30556     30554     30569     30570     30556     30554     30569     30571
     30556     30554     30569     30575     30557     30553     30554     30569
     30557     30553     30561     30562     30557     30553     30561     30563
     30557     30553     30561     30564     30557     30553     30565     30566
     30557     30553     30565     30567     30557     30553     30565     30568
     30558     30557     30553     30561     30558     30557     30553     30565
     30559     30557     30553     30561     30559     30557     30553     30565
     30560     30557     30553     30561     30560     30557     30553     30565
     30561     30553     30554     30569     30561     30553     30565     30566
     30561     30553     30565     30567     30561     30553     30565     30568
     30562     30561     30553     30565     30563     30561     30553     30565
     30564     30561     30553     30565     30565     30553     30554     30569
     30569     30575     30572     30573     30569     30575     30572     30574
     30569     30575     30572     30576     30570     30569     30575     30572
     30571     30569     30575     30572     30572     30576     30577     30578
     30572     30576     30577     30579     30572     30576     30577     30580
     30573     30572     30576     30577     30574     30572     30576     30577
     30575     30572     30576     30577     30576     30577     30580     30581
     30576     30577     30580     30582     30576     30577     30580     30588
     30577     30580     30582     30583     30577     30580     30588     30589
     30577     30580     30588     30590     30577     30580     30588     30591
     30578     30577     30580     30581     30578     30577     30580     30582
     30578     30577     30580     30588     30579     30577     30580     30581
     30579     30577     30580     30582     30579     30577     30580     30588
     30580     30582     30583     30584     30580     30582     30583     30585
     30580     30588     30591     30592     30581     30580     30582     30583
     30581     30580     30588     30589     30581     30580     30588     30590
     30581     30580     30588     30591     30582     30580     30588     30589
     30582     30580     30588     30590     30582     30580     30588     30591
     30582     30583     30585     30586     30582     30583     30585     30587
     30582     30583     30585     30597     30583     30582     30580     30588
     30583     30585     30597     30598     30583     30585     30597     30599
     30583     30585     30597     30600     30584     30583     30585     30586
     30584     30583     30585     30587     30584     30583     30585     30597
     30585     30597     30600     30601     30585     30597     30600     30602
     30585     30597     30600     30603     30586     30585     30597     30598
     30586     30585     30597     30599     30586     30585     30597     30600
     30587     30585     30597     30598     30587     30585     30597     30599
     30587     30585     30597     30600     30588     30591     30592     30593
     30588     30591     30592     30594     30589     30588     30591     30592
     30590     30588     30591     30592     30591     30592     30594     30595
     30591     30592     30594     30596     30591     30592     30594     30644
     30592     30594     30644     30645     30592     30594     30644     30646
     30592     30594     30644     30647     30593     30592     30594     30595
     30593     30592     30594     30596     30593     30592     30594     30644
     30594     30644     30647     30648     30594     30644     30647     30649
     30594     30644     30647     30650     30595     30594     30644     30645
     30595     30594     30644     30646     30595     30594     30644     30647
     30596     30594     30644     30645     30596     30594     30644     30646
     30596     30594     30644     30647     30597     30600     30603     30604
     30597     30600     30603     30605     30597     30600     30603     30606
     30598     30597     30600     30601     30598     30597     30600     30602
     30598     30597     30600     30603     30599     30597     30600     30601
     30599     30597     30600     30602     30599     30597     30600     30603
     30600     30603     30606     30607     30600     30603     30606     30608
     30600     30603     30606     30609     30601     30600     30603     30604
     30601     30600     30603     30605     30601     30600     30603     30606
     30602     30600     30603     30604     30602     30600     30603     30605
     30602     30600     30603     30606     30603     30606     30609     30610
     30603     30606     30609     30611     30603     30606     30609     30612
     30604     30603     30606     30607     30604     30603     30606     30608
     30604     30603     30606     30609     30605     30603     30606     30607
     30605     30603     30606     30608     30605     30603     30606     30609
     30606     30609     30612     30613     30606     30609     30612     30614
     30606     30609     30612     30615     30607     30606     30609     30610
     30607     30606     30609     30611     30607     30606     30609     30612
     30608     30606     30609     30610     30608     30606     30609     30611
     30608     30606     30609     30612     30609     30612     30615     30616
     30609     30612     30615     30617     30610     30609     30612     30613
     30610     30609     30612     30614     30610     30609     30612     30615
     30611     30609     30612     30613     30611     30609     30612     30614
     30611     30609     30612     30615     30612     30615     30617     30618
     30612     30615     30617     30619     30613     30612     30615     30616
     30613     30612     30615     30617     30614     30612     30615     30616
     30614     30612     30615     30617     30615     30617     30619     30620
     30615     30617     30619     30621     30615     30617     30619     30622
     30616     30615     30617     30618     30616     30615     30617     30619
     30617     30619     30622     30623     30617     30619     30622     30624
     30617     30619     30622     30625     30618     30617     30619     30620
     30618     30617     30619     30621     30618     30617     30619     30622
     30619     30622     30625     30626     30619     30622     30625     30627
     30619     30622     30625     30628     30620     30619     30622     30623
     30620     30619     30622     30624     30620     30619     30622     30625
     30621     30619     30622     30623     30621     30619     30622     30624
     30621     30619     30622     30625     30622     30625     30628     30629
     30622     30625     30628     30630     30622     30625     30628     30631
     30623     30622     30625     30626     30623     30622     30625     30627
     30623     30622     30625     30628     30624     30622     30625     30626
     30624     30622     30625     30627     30624     30622     30625     30628
     30625     30628     30631     30632     30625     30628     30631     30633
     30625     30628     30631     30634     30626     30625     30628     30629
     30626     30625     30628     30630     30626     30625     30628     30631
     30627     30625     30628     30629     30627     30625     30628     30630
     30627     30625     30628     30631     30628     30631     30634     30635
     30628     30631     30634     30636     30628     30631     30634     30637
     30629     30628     30631     30632     30629     30628     30631     30633
     30629     30628     30631     30634     30630     30628     30631     30632
     30630     30628     30631     30633     30630     30628     30631     30634
     30631     30634     30637     30638     30631     30634     30637     30639
     30631     30634     30637     30640     30632     30631     30634     30635
     30632     30631     30634     30636     30632     30631     30634     30637
     30633     30631     30634     30635     30633     30631     30634     30636
     30633     30631     30634     30637     30634     30637     30640     30641
     30634     30637     30640     30642     30634     30637     30640     30643
     30635     30634     30637     30638     30635     30634     30637     30639
     30635     30634     30637     30640     30636     30634     30637     30638
     30636     30634     30637     30639     30636     30634     30637     30640
     30638     30637     30640     30641     30638     30637     30640     30642
     30638     30637     30640     30643     30639     30637     30640     30641
     30639     30637     30640     30642     30639     30637     30640     30643
     30644     30647     30650     30651     30644     30647     30650     30652
     30644     30647     30650     30653     30645     30644     30647     30648
     30645     30644     30647     30649     30645     30644     30647     30650
     30646     30644     30647     30648     30646     30644     30647     30649
     30646     30644     30647     30650     30647     30650     30653     30654
     30647     30650     30653     30655     30647     30650     30653     30656
     30648     30647     30650     30651     30648     30647     30650     30652
     30648     30647     30650     30653     30649     30647     30650     30651
     30649     30647     30650     30652     30649     30647     30650     30653
     30650     30653     30656     30657     30650     30653     30656     30658
     30650     30653     30656     30659     30651     30650     30653     30654
     30651     30650     30653     30655     30651     30650     30653     30656
     30652     30650     30653     30654     30652     30650     30653     30655
     30652     30650     30653     30656     30653     30656     30659     30660
     30653     30656     30659     30661     30653     30656     30659     30662
     30654     30653     30656     30657     30654     30653     30656     30658
     30654     30653     30656     30659     30655     30653     30656     30657
     30655     30653     30656     30658     30655     30653     30656     30659
     30656     30659     30662     30663     30656     30659     30662     30664
     30656     30659     30662     30665     30657     30656     30659     30660
     30657     30656     30659     30661     30657     30656     30659     30662
     30658     30656     30659     30660     30658     30656     30659     30661
     30658     30656     30659     30662     30659     30662     30665     30666
     30659     30662     30665     30667     30659     30662     30665     30668
     30660     30659     30662     30663     30660     30659     30662     30664
     30660     30659     30662     30665     30661     30659     30662     30663
     30661     30659     30662     30664     30661     30659     30662     30665
     30662     30665     30668     30669     30662     30665     30668     30670
     30662     30665     30668     30671     30663     30662     30665     30666
     30663     30662     30665     30667     30663     30662     30665     30668
     30664     30662     30665     30666     30664     30662     30665     30667
     30664     30662     30665     30668     30665     30668     30671     30672
     30665     30668     30671     30673     30665     30668     30671     30674
     30666     30665     30668     30669     30666     30665     30668     30670
     30666     30665     30668     30671     30667     30665     30668     30669
     30667     30665     30668     30670     30667     30665     30668     30671
     30668     30671     30674     30675     30668     30671     30674     30676
     30668     30671     30674     30677     30669     30668     30671     30672
     30669     30668     30671     30673     30669     30668     30671     30674
     30670     30668     30671     30672     30670     30668     30671     30673
     30670     30668     30671     30674     30671     30674     30677     30678
     30671     30674     30677     30679     30671     30674     30677     30680
     30672     30671     30674     30675     30672     30671     30674     30676
     30672     30671     30674     30677     30673     30671     30674     30675
     30673     30671     30674     30676     30673     30671     30674     30677
     30674     30677     30680     30681     30674     30677     30680     30682
     30674     30677     30680     30683     30675     30674     30677     30678
     30675     30674     30677     30679     30675     30674     30677     30680
     30676     30674     30677     30678     30676     30674     30677     30679
     30676     30674     30677     30680     30677     30680     30683     30684
     30677     30680     30683     30685     30677     30680     30683     30686
     30678     30677     30680     30681     30678     30677     30680     30682
     30678     30677     30680     30683     30679     30677     30680     30681
     30679     30677     30680     30682     30679     30677     30680     30683
     30681     30680     30683     30684     30681     30680     30683     30685
     30681     30680     30683     30686     30682     30680     30683     30684
     30682     30680     30683     30685     30682     30680     30683     30686
     30687     30688     30703     30704     30687     30688     30703     30705
     30687     30688     30703     30709     30688     30687     30691     30692
     30688     30687     30691     30693     30688     30687     30691     30694
     30688     30687     30695     30696     30688     30687     30695     30697
     30688     30687     30695     30698     30688     30687     30699     30700
     30688     30687     30699     30701     30688     30687     30699     30702
     30688     30703     30709     30706     30689     30688     30687     30691
     30689     30688     30687     30695     30689     30688     30687     30699
     30689     30688     30703     30704     30689     30688     30703     30705
     30689     30688     30703     30709     30690     30688     30687     30691
     30690     30688     30687     30695     30690     30688     30687     30699
     30690     30688     30703     30704     30690     30688     30703     30705
     30690     30688     30703     30709     30691     30687     30688     30703
     30691     30687     30695     30696     30691     30687     30695     30697
     30691     30687     30695     30698     30691     30687     30699     30700
     30691     30687     30699     30701     30691     30687     30699     30702
     30692     30691     30687     30695     30692     30691     30687     30699
     30693     30691     30687     30695     30693     30691     30687     30699
     30694     30691     30687     30695     30694     30691     30687     30699
     30695     30687     30688     30703     30695     30687     30699     30700
     30695     30687     30699     30701     30695     30687     30699     30702
     30696     30695     30687     30699     30697     30695     30687     30699
     30698     30695     30687     30699     30699     30687     30688     30703
     30703     30709     30706     30707     30703     30709     30706     30708
     30703     30709     30706     30710     30704     30703     30709     30706
     30705     30703     30709     30706     30706     30710     30711     30712
     30706     30710     30711     30713     30706     30710     30711     30714
     30707     30706     30710     30711     30708     30706     30710     30711
     30709     30706     30710     30711     30710     30711     30714     30715
     30710     30711     30714     30716     30710     30711     30714     30722
     30711     30714     30716     30717     30711     30714     30722     30723
     30711     30714     30722     30724     30711     30714     30722     30725
     30712     30711     30714     30715     30712     30711     30714     30716
     30712     30711     30714     30722     30713     30711     30714     30715
     30713     30711     30714     30716     30713     30711     30714     30722
     30714     30716     30717     30718     30714     30716     30717     30719
     30714     30722     30725     30726     30715     30714     30716     30717
     30715     30714     30722     30723     30715     30714     30722     30724
     30715     30714     30722     30725     30716     30714     30722     30723
     30716     30714     30722     30724     30716     30714     30722     30725
     30716     30717     30719     30720     30716     30717     30719     30721
     30716     30717     30719     30731     30717     30716     30714     30722
     30717     30719     30731     30732     30717     30719     30731     30733
     30717     30719     30731     30734     30718     30717     30719     30720
     30718     30717     30719     30721     30718     30717     30719     30731
     30719     30731     30734     30735     30719     30731     30734     30736
     30719     30731     30734     30737     30720     30719     30731     30732
     30720     30719     30731     30733     30720     30719     30731     30734
     30721     30719     30731     30732     30721     30719     30731     30733
     30721     30719     30731     30734     30722     30725     30726     30727
     30722     30725     30726     30728     30723     30722     30725     30726
     30724     30722     30725     30726     30725     30726     30728     30729
     30725     30726     30728     30730     30725     30726     30728     30778
     30726     30728     30778     30779     30726     30728     30778     30780
     30726     30728     30778     30781     30727     30726     30728     30729
     30727     30726     30728     30730     30727     30726     30728     30778
     30728     30778     30781     30782     30728     30778     30781     30783
     30728     30778     30781     30784     30729     30728     30778     30779
     30729     30728     30778     30780     30729     30728     30778     30781
     30730     30728     30778     30779     30730     30728     30778     30780
     30730     30728     30778     30781     30731     30734     30737     30738
     30731     30734     30737     30739     30731     30734     30737     30740
     30732     30731     30734     30735     30732     30731     30734     30736
     30732     30731     30734     30737     30733     30731     30734     30735
     30733     30731     30734     30736     30733     30731     30734     30737
     30734     30737     30740     30741     30734     30737     30740     30742
     30734     30737     30740     30743     30735     30734     30737     30738
     30735     30734     30737     30739     30735     30734     30737     30740
     30736     30734     30737     30738     30736     30734     30737     30739
     30736     30734     30737     30740     30737     30740     30743     30744
     30737     30740     30743     30745     30737     30740     30743     30746
     30738     30737     30740     30741     30738     30737     30740     30742
     30738     30737     30740     30743     30739     30737     30740     30741
     30739     30737     30740     30742     30739     30737     30740     30743
     30740     30743     30746     30747     30740     30743     30746     30748
     30740     30743     30746     30749     30741     30740     30743     30744
     30741     30740     30743     30745     30741     30740     30743     30746
     30742     30740     30743     30744     30742     30740     30743     30745
     30742     30740     30743     30746     30743     30746     30749     30750
     30743     30746     30749     30751     30744     30743     30746     30747
     30744     30743     30746     30748     30744     30743     30746     30749
     30745     30743     30746     30747     30745     30743     30746     30748
     30745     30743     30746     30749     30746     30749     30751     30752
     30746     30749     30751     30753     30747     30746     30749     30750
     30747     30746     30749     30751     30748     30746     30749     30750
     30748     30746     30749     30751     30749     30751     30753     30754
     30749     30751     30753     30755     30749     30751     30753     30756
     30750     30749     30751     30752     30750     30749     30751     30753
     30751     30753     30756     30757     30751     30753     30756     30758
     30751     30753     30756     30759     30752     30751     30753     30754
     30752     30751     30753     30755     30752     30751     30753     30756
     30753     30756     30759     30760     30753     30756     30759     30761
     30753     30756     30759     30762     30754     30753     30756     30757
     30754     30753     30756     30758     30754     30753     30756     30759
     30755     30753     30756     30757     30755     30753     30756     30758
     30755     30753     30756     30759     30756     30759     30762     30763
     30756     30759     30762     30764     30756     30759     30762     30765
     30757     30756     30759     30760     30757     30756     30759     30761
     30757     30756     30759     30762     30758     30756     30759     30760
     30758     30756     30759     30761     30758     30756     30759     30762
     30759     30762     30765     30766     30759     30762     30765     30767
     30759     30762     30765     30768     30760     30759     30762     30763
     30760     30759     30762     30764     30760     30759     30762     30765
     30761     30759     30762     30763     30761     30759     30762     30764
     30761     30759     30762     30765     30762     30765     30768     30769
     30762     30765     30768     30770     30762     30765     30768     30771
     30763     30762     30765     30766     30763     30762     30765     30767
     30763     30762     30765     30768     30764     30762     30765     30766
     30764     30762     30765     30767     30764     30762     30765     30768
     30765     30768     30771     30772     30765     30768     30771     30773
     30765     30768     30771     30774     30766     30765     30768     30769
     30766     30765     30768     30770     30766     30765     30768     30771
     30767     30765     30768     30769     30767     30765     30768     30770
     30767     30765     30768     30771     30768     30771     30774     30775
     30768     30771     30774     30776     30768     30771     30774     30777
     30769     30768     30771     30772     30769     30768     30771     30773
     30769     30768     30771     30774     30770     30768     30771     30772
     30770     30768     30771     30773     30770     30768     30771     30774
     30772     30771     30774     30775     30772     30771     30774     30776
     30772     30771     30774     30777     30773     30771     30774     30775
     30773     30771     30774     30776     30773     30771     30774     30777
     30778     30781     30784     30785     30778     30781     30784     30786
     30778     30781     30784     30787     30779     30778     30781     30782
     30779     30778     30781     30783     30779     30778     30781     30784
     30780     30778     30781     30782     30780     30778     30781     30783
     30780     30778     30781     30784     30781     30784     30787     30788
     30781     30784     30787     30789     30781     30784     30787     30790
     30782     30781     30784     30785     30782     30781     30784     30786
     30782     30781     30784     30787     30783     30781     30784     30785
     30783     30781     30784     30786     30783     30781     30784     30787
     30784     30787     30790     30791     30784     30787     30790     30792
     30784     30787     30790     30793     30785     30784     30787     30788
     30785     30784     30787     30789     30785     30784     30787     30790
     30786     30784     30787     30788     30786     30784     30787     30789
     30786     30784     30787     30790     30787     30790     30793     30794
     30787     30790     30793     30795     30787     30790     30793     30796
     30788     30787     30790     30791     30788     30787     30790     30792
     30788     30787     30790     30793     30789     30787     30790     30791
     30789     30787     30790     30792     30789     30787     30790     30793
     30790     30793     30796     30797     30790     30793     30796     30798
     30790     30793     30796     30799     30791     30790     30793     30794
     30791     30790     30793     30795     30791     30790     30793     30796
     30792     30790     30793     30794     30792     30790     30793     30795
     30792     30790     30793     30796     30793     30796     30799     30800
     30793     30796     30799     30801     30793     30796     30799     30802
     30794     30793     30796     30797     30794     30793     30796     30798
     30794     30793     30796     30799     30795     30793     30796     30797
     30795     30793     30796     30798     30795     30793     30796     30799
     30796     30799     30802     30803     30796     30799     30802     30804
     30796     30799     30802     30805     30797     30796     30799     30800
     30797     30796     30799     30801     30797     30796     30799     30802
     30798     30796     30799     30800     30798     30796     30799     30801
     30798     30796     30799     30802     30799     30802     30805     30806
     30799     30802     30805     30807     30799     30802     30805     30808
     30800     30799     30802     30803     30800     30799     30802     30804
     30800     30799     30802     30805     30801     30799     30802     30803
     30801     30799     30802     30804     30801     30799     30802     30805
     30802     30805     30808     30809     30802     30805     30808     30810
     30802     30805     30808     30811     30803     30802     30805     30806
     30803     30802     30805     30807     30803     30802     30805     30808
     30804     30802     30805     30806     30804     30802     30805     30807
     30804     30802     30805     30808     30805     30808     30811     30812
     30805     30808     30811     30813     30805     30808     30811     30814
     30806     30805     30808     30809     30806     30805     30808     30810
     30806     30805     30808     30811     30807     30805     30808     30809
     30807     30805     30808     30810     30807     30805     30808     30811
     30808     30811     30814     30815     30808     30811     30814     30816
     30808     30811     30814     30817     30809     30808     30811     30812
     30809     30808     30811     30813     30809     30808     30811     30814
     30810     30808     30811     30812     30810     30808     30811     30813
     30810     30808     30811     30814     30811     30814     30817     30818
     30811     30814     30817     30819     30811     30814     30817     30820
     30812     30811     30814     30815     30812     30811     30814     30816
     30812     30811     30814     30817     30813     30811     30814     30815
     30813     30811     30814     30816     30813     30811     30814     30817
     30815     30814     30817     30818     30815     30814     30817     30819
     30815     30814     30817     30820     30816     30814     30817     30818
     30816     30814     30817     30819     30816     30814     30817     30820
     30821     30822     30837     30838     30821     30822     30837     30839
     30821     30822     30837     30843     30822     30821     30825     30826
     30822     30821     30825     30827     30822     30821     30825     30828
     30822     30821     30829     30830     30822     30821     30829     30831
     30822     30821     30829     30832     30822     30821     30833     30834
     30822     30821     30833     30835     30822     30821     30833     30836
     30822     30837     30843     30840     30823     30822     30821     30825
     30823     30822     30821     30829     30823     30822     30821     30833
     30823     30822     30837     30838     30823     30822     30837     30839
     30823     30822     30837     30843     30824     30822     30821     30825
     30824     30822     30821     30829     30824     30822     30821     30833
     30824     30822     30837     30838     30824     30822     30837     30839
     30824     30822     30837     30843     30825     30821     30822     30837
     30825     30821     30829     30830     30825     30821     30829     30831
     30825     30821     30829     30832     30825     30821     30833     30834
     30825     30821     30833     30835     30825     30821     30833     30836
     30826     30825     30821     30829     30826     30825     30821     30833
     30827     30825     30821     30829     30827     30825     30821     30833
     30828     30825     30821     30829     30828     30825     30821     30833
     30829     30821     30822     30837     30829     30821     30833     30834
     30829     30821     30833     30835     30829     30821     30833     30836
     30830     30829     30821     30833     30831     30829     30821     30833
     30832     30829     30821     30833     30833     30821     30822     30837
     30837     30843     30840     30841     30837     30843     30840     30842
     30837     30843     30840     30844     30838     30837     30843     30840
     30839     30837     30843     30840     30840     30844     30845     30846
     30840     30844     30845     30847     30840     30844     30845     30848
     30841     30840     30844     30845     30842     30840     30844     30845
     30843     30840     30844     30845     30844     30845     30848     30849
     30844     30845     30848     30850     30844     30845     30848     30856
     30845     30848     30850     30851     30845     30848     30856     30857
     30845     30848     30856     30858     30845     30848     30856     30859
     30846     30845     30848     30849     30846     30845     30848     30850
     30846     30845     30848     30856     30847     30845     30848     30849
     30847     30845     30848     30850     30847     30845     30848     30856
     30848     30850     30851     30852     30848     30850     30851     30853
     30848     30856     30859     30860     30849     30848     30850     30851
     30849     30848     30856     30857     30849     30848     30856     30858
     30849     30848     30856     30859     30850     30848     30856     30857
     30850     30848     30856     30858     30850     30848     30856     30859
     30850     30851     30853     30854     30850     30851     30853     30855
     30850     30851     30853     30865     30851     30850     30848     30856
     30851     30853     30865     30866     30851     30853     30865     30867
     30851     30853     30865     30868     30852     30851     30853     30854
     30852     30851     30853     30855     30852     30851     30853     30865
     30853     30865     30868     30869     30853     30865     30868     30870
     30853     30865     30868     30871     30854     30853     30865     30866
     30854     30853     30865     30867     30854     30853     30865     30868
     30855     30853     30865     30866     30855     30853     30865     30867
     30855     30853     30865     30868     30856     30859     30860     30861
     30856     30859     30860     30862     30857     30856     30859     30860
     30858     30856     30859     30860     30859     30860     30862     30863
     30859     30860     30862     30864     30859     30860     30862     30912
     30860     30862     30912     30913     30860     30862     30912     30914
     30860     30862     30912     30915     30861     30860     30862     30863
     30861     30860     30862     30864     30861     30860     30862     30912
     30862     30912     30915     30916     30862     30912     30915     30917
     30862     30912     30915     30918     30863     30862     30912     30913
     30863     30862     30912     30914     30863     30862     30912     30915
     30864     30862     30912     30913     30864     30862     30912     30914
     30864     30862     30912     30915     30865     30868     30871     30872
     30865     30868     30871     30873     30865     30868     30871     30874
     30866     30865     30868     30869     30866     30865     30868     30870
     30866     30865     30868     30871     30867     30865     30868     30869
     30867     30865     30868     30870     30867     30865     30868     30871
     30868     30871     30874     30875     30868     30871     30874     30876
     30868     30871     30874     30877     30869     30868     30871     30872
     30869     30868     30871     30873     30869     30868     30871     30874
     30870     30868     30871     30872     30870     30868     30871     30873
     30870     30868     30871     30874     30871     30874     30877     30878
     30871     30874     30877     30879     30871     30874     30877     30880
     30872     30871     30874     30875     30872     30871     30874     30876
     30872     30871     30874     30877     30873     30871     30874     30875
     30873     30871     30874     30876     30873     30871     30874     30877
     30874     30877     30880     30881     30874     30877     30880     30882
     30874     30877     30880     30883     30875     30874     30877     30878
     30875     30874     30877     30879     30875     30874     30877     30880
     30876     30874     30877     30878     30876     30874     30877     30879
     30876     30874     30877     30880     30877     30880     30883     30884
     30877     30880     30883     30885     30878     30877     30880     30881
     30878     30877     30880     30882     30878     30877     30880     30883
     30879     30877     30880     30881     30879     30877     30880     30882
     30879     30877     30880     30883     30880     30883     30885     30886
     30880     30883     30885     30887     30881     30880     30883     30884
     30881     30880     30883     30885     30882     30880     30883     30884
     30882     30880     30883     30885     30883     30885     30887     30888
     30883     30885     30887     30889     30883     30885     30887     30890
     30884     30883     30885     30886     30884     30883     30885     30887
     30885     30887     30890     30891     30885     30887     30890     30892
     30885     30887     30890     30893     30886     30885     30887     30888
     30886     30885     30887     30889     30886     30885     30887     30890
     30887     30890     30893     30894     30887     30890     30893     30895
     30887     30890     30893     30896     30888     30887     30890     30891
     30888     30887     30890     30892     30888     30887     30890     30893
     30889     30887     30890     30891     30889     30887     30890     30892
     30889     30887     30890     30893     30890     30893     30896     30897
     30890     30893     30896     30898     30890     30893     30896     30899
     30891     30890     30893     30894     30891     30890     30893     30895
     30891     30890     30893     30896     30892     30890     30893     30894
     30892     30890     30893     30895     30892     30890     30893     30896
     30893     30896     30899     30900     30893     30896     30899     30901
     30893     30896     30899     30902     30894     30893     30896     30897
     30894     30893     30896     30898     30894     30893     30896     30899
     30895     30893     30896     30897     30895     30893     30896     30898
     30895     30893     30896     30899     30896     30899     30902     30903
     30896     30899     30902     30904     30896     30899     30902     30905
     30897     30896     30899     30900     30897     30896     30899     30901
     30897     30896     30899     30902     30898     30896     30899     30900
     30898     30896     30899     30901     30898     30896     30899     30902
     30899     30902     30905     30906     30899     30902     30905     30907
     30899     30902     30905     30908     30900     30899     30902     30903
     30900     30899     30902     30904     30900     30899     30902     30905
     30901     30899     30902     30903     30901     30899     30902     30904
     30901     30899     30902     30905     30902     30905     30908     30909
     30902     30905     30908     30910     30902     30905     30908     30911
     30903     30902     30905     30906     30903     30902     30905     30907
     30903     30902     30905     30908     30904     30902     30905     30906
     30904     30902     30905     30907     30904     30902     30905     30908
     30906     30905     30908     30909     30906     30905     30908     30910
     30906     30905     30908     30911     30907     30905     30908     30909
     30907     30905     30908     30910     30907     30905     30908     30911
     30912     30915     30918     30919     30912     30915     30918     30920
     30912     30915     30918     30921     30913     30912     30915     30916
     30913     30912     30915     30917     30913     30912     30915     30918
     30914     30912     30915     30916     30914     30912     30915     30917
     30914     30912     30915     30918     30915     30918     30921     30922
     30915     30918     30921     30923     30915     30918     30921     30924
     30916     30915     30918     30919     30916     30915     30918     30920
     30916     30915     30918     30921     30917     30915     30918     30919
     30917     30915     30918     30920     30917     30915     30918     30921
     30918     30921     30924     30925     30918     30921     30924     30926
     30918     30921     30924     30927     30919     30918     30921     30922
     30919     30918     30921     30923     30919     30918     30921     30924
     30920     30918     30921     30922     30920     30918     30921     30923
     30920     30918     30921     30924     30921     30924     30927     30928
     30921     30924     30927     30929     30921     30924     30927     30930
     30922     30921     30924     30925     30922     30921     30924     30926
     30922     30921     30924     30927     30923     30921     30924     30925
     30923     30921     30924     30926     30923     30921     30924     30927
     30924     30927     30930     30931     30924     30927     30930     30932
     30924     30927     30930     30933     30925     30924     30927     30928
     30925     30924     30927     30929     30925     30924     30927     30930
     30926     30924     30927     30928     30926     30924     30927     30929
     30926     30924     30927     30930     30927     30930     30933     30934
     30927     30930     30933     30935     30927     30930     30933     30936
     30928     30927     30930     30931     30928     30927     30930     30932
     30928     30927     30930     30933     30929     30927     30930     30931
     30929     30927     30930     30932     30929     30927     30930     30933
     30930     30933     30936     30937     30930     30933     30936     30938
     30930     30933     30936     30939     30931     30930     30933     30934
     30931     30930     30933     30935     30931     30930     30933     30936
     30932     30930     30933     30934     30932     30930     30933     30935
     30932     30930     30933     30936     30933     30936     30939     30940
     30933     30936     30939     30941     30933     30936     30939     30942
     30934     30933     30936     30937     30934     30933     30936     30938
     30934     30933     30936     30939     30935     30933     30936     30937
     30935     30933     30936     30938     30935     30933     30936     30939
     30936     30939     30942     30943     30936     30939     30942     30944
     30936     30939     30942     30945     30937     30936     30939     30940
     30937     30936     30939     30941     30937     30936     30939     30942
     30938     30936     30939     30940     30938     30936     30939     30941
     30938     30936     30939     30942     30939     30942     30945     30946
     30939     30942     30945     30947     30939     30942     30945     30948
     30940     30939     30942     30943     30940     30939     30942     30944
     30940     30939     30942     30945     30941     30939     30942     30943
     30941     30939     30942     30944     30941     30939     30942     30945
     30942     30945     30948     30949     30942     30945     30948     30950
     30942     30945     30948     30951     30943     30942     30945     30946
     30943     30942     30945     30947     30943     30942     30945     30948
     30944     30942     30945     30946     30944     30942     30945     30947
     30944     30942     30945     30948     30945     30948     30951     30952
     30945     30948     30951     30953     30945     30948     30951     30954
     30946     30945     30948     30949     30946     30945     30948     30950
     30946     30945     30948     30951     30947     30945     30948     30949
     30947     30945     30948     30950     30947     30945     30948     30951
     30949     30948     30951     30952     30949     30948     30951     30953
     30949     30948     30951     30954     30950     30948     30951     30952
     30950     30948     30951     30953     30950     30948     30951     30954
     30955     30956     30971     30972     30955     30956     30971     30973
     30955     30956     30971     30977     30956     30955     30959     30960
     30956     30955     30959     30961     30956     30955     30959     30962
     30956     30955     30963     30964     30956     30955     30963     30965
     30956     30955     30963     30966     30956     30955     30967     30968
     30956     30955     30967     30969     30956     30955     30967     30970
     30956     30971     30977     30974     30957     30956     30955     30959
     30957     30956     30955     30963     30957     30956     30955     30967
     30957     30956     30971     30972     30957     30956     30971     30973
     30957     30956     30971     30977     30958     30956     30955     30959
     30958     30956     30955     30963     30958     30956     30955     30967
     30958     30956     30971     30972     30958     30956     30971     30973
     30958     30956     30971     30977     30959     30955     30956     30971
     30959     30955     30963     30964     30959     30955     30963     30965
     30959     30955     30963     30966     30959     30955     30967     30968
     30959     30955     30967     30969     30959     30955     30967     30970
     30960     30959     30955     30963     30960     30959     30955     30967
     30961     30959     30955     30963     30961     30959     30955     30967
     30962     30959     30955     30963     30962     30959     30955     30967
     30963     30955     30956     30971     30963     30955     30967     30968
     30963     30955     30967     30969     30963     30955     30967     30970
     30964     30963     30955     30967     30965     30963     30955     30967
     30966     30963     30955     30967     30967     30955     30956     30971
     30971     30977     30974     30975     30971     30977     30974     30976
     30971     30977     30974     30978     30972     30971     30977     30974
     30973     30971     30977     30974     30974     30978     30979     30980
     30974     30978     30979     30981     30974     30978     30979     30982
     30975     30974     30978     30979     30976     30974     30978     30979
     30977     30974     30978     30979     30978     30979     30982     30983
     30978     30979     30982     30984     30978     30979     30982     30990
     30979     30982     30984     30985     30979     30982     30990     30991
     30979     30982     30990     30992     30979     30982     30990     30993
     30980     30979     30982     30983     30980     30979     30982     30984
     30980     30979     30982     30990     30981     30979     30982     30983
     30981     30979     30982     30984     30981     30979     30982     30990
     30982     30984     30985     30986     30982     30984     30985     30987
     30982     30990     30993     30994     30983     30982     30984     30985
     30983     30982     30990     30991     30983     30982     30990     30992
     30983     30982     30990     30993     30984     30982     30990     30991
     30984     30982     30990     30992     30984     30982     30990     30993
     30984     30985     30987     30988     30984     30985     30987     30989
     30984     30985     30987     30999     30985     30984     30982     30990
     30985     30987     30999     31000     30985     30987     30999     31001
     30985     30987     30999     31002     30986     30985     30987     30988
     30986     30985     30987     30989     30986     30985     30987     30999
     30987     30999     31002     31003     30987     30999     31002     31004
     30987     30999     31002     31005     30988     30987     30999     31000
     30988     30987     30999     31001     30988     30987     30999     31002
     30989     30987     30999     31000     30989     30987     30999     31001
     30989     30987     30999     31002     30990     30993     30994     30995
     30990     30993     30994     30996     30991     30990     30993     30994
     30992     30990     30993     30994     30993     30994     30996     30997
     30993     30994     30996     30998     30993     30994     30996     31046
     30994     30996     31046     31047     30994     30996     31046     31048
     30994     30996     31046     31049     30995     30994     30996     30997
     30995     30994     30996     30998     30995     30994     30996     31046
     30996     31046     31049     31050     30996     31046     31049     31051
     30996     31046     31049     31052     30997     30996     31046     31047
     30997     30996     31046     31048     30997     30996     31046     31049
     30998     30996     31046     31047     30998     30996     31046     31048
     30998     30996     31046     31049     30999     31002     31005     31006
     30999     31002     31005     31007     30999     31002     31005     31008
     31000     30999     31002     31003     31000     30999     31002     31004
     31000     30999     31002     31005     31001     30999     31002     31003
     31001     30999     31002     31004     31001     30999     31002     31005
     31002     31005     31008     31009     31002     31005     31008     31010
     31002     31005     31008     31011     31003     31002     31005     31006
     31003     31002     31005     31007     31003     31002     31005     31008
     31004     31002     31005     31006     31004     31002     31005     31007
     31004     31002     31005     31008     31005     31008     31011     31012
     31005     31008     31011     31013     31005     31008     31011     31014
     31006     31005     31008     31009     31006     31005     31008     31010
     31006     31005     31008     31011     31007     31005     31008     31009
     31007     31005     31008     31010     31007     31005     31008     31011
     31008     31011     31014     31015     31008     31011     31014     31016
     31008     31011     31014     31017     31009     31008     31011     31012
     31009     31008     31011     31013     31009     31008     31011     31014
     31010     31008     31011     31012     31010     31008     31011     31013
     31010     31008     31011     31014     31011     31014     31017     31018
     31011     31014     31017     31019     31012     31011     31014     31015
     31012     31011     31014     31016     31012     31011     31014     31017
     31013     31011     31014     31015     31013     31011     31014     31016
     31013     31011     31014     31017     31014     31017     31019     31020
     31014     31017     31019     31021     31015     31014     31017     31018
     31015     31014     31017     31019     31016     31014     31017     31018
     31016     31014     31017     31019     31017     31019     31021     31022
     31017     31019     31021     31023     31017     31019     31021     31024
     31018     31017     31019     31020     31018     31017     31019     31021
     31019     31021     31024     31025     31019     31021     31024     31026
     31019     31021     31024     31027     31020     31019     31021     31022
     31020     31019     31021     31023     31020     31019     31021     31024
     31021     31024     31027     31028     31021     31024     31027     31029
     31021     31024     31027     31030     31022     31021     31024     31025
     31022     31021     31024     31026     31022     31021     31024     31027
     31023     31021     31024     31025     31023     31021     31024     31026
     31023     31021     31024     31027     31024     31027     31030     31031
     31024     31027     31030     31032     31024     31027     31030     31033
     31025     31024     31027     31028     31025     31024     31027     31029
     31025     31024     31027     31030     31026     31024     31027     31028
     31026     31024     31027     31029     31026     31024     31027     31030
     31027     31030     31033     31034     31027     31030     31033     31035
     31027     31030     31033     31036     31028     31027     31030     31031
     31028     31027     31030     31032     31028     31027     31030     31033
     31029     31027     31030     31031     31029     31027     31030     31032
     31029     31027     31030     31033     31030     31033     31036     31037
     31030     31033     31036     31038     31030     31033     31036     31039
     31031     31030     31033     31034     31031     31030     31033     31035
     31031     31030     31033     31036     31032     31030     31033     31034
     31032     31030     31033     31035     31032     31030     31033     31036
     31033     31036     31039     31040     31033     31036     31039     31041
     31033     31036     31039     31042     31034     31033     31036     31037
     31034     31033     31036     31038     31034     31033     31036     31039
     31035     31033     31036     31037     31035     31033     31036     31038
     31035     31033     31036     31039     31036     31039     31042     31043
     31036     31039     31042     31044     31036     31039     31042     31045
     31037     31036     31039     31040     31037     31036     31039     31041
     31037     31036     31039     31042     31038     31036     31039     31040
     31038     31036     31039     31041     31038     31036     31039     31042
     31040     31039     31042     31043     31040     31039     31042     31044
     31040     31039     31042     31045     31041     31039     31042     31043
     31041     31039     31042     31044     31041     31039     31042     31045
     31046     31049     31052     31053     31046     31049     31052     31054
     31046     31049     31052     31055     31047     31046     31049     31050
     31047     31046     31049     31051     31047     31046     31049     31052
     31048     31046     31049     31050     31048     31046     31049     31051
     31048     31046     31049     31052     31049     31052     31055     31056
     31049     31052     31055     31057     31049     31052     31055     31058
     31050     31049     31052     31053     31050     31049     31052     31054
     31050     31049     31052     31055     31051     31049     31052     31053
     31051     31049     31052     31054     31051     31049     31052     31055
     31052     31055     31058     31059     31052     31055     31058     31060
     31052     31055     31058     31061     31053     31052     31055     31056
     31053     31052     31055     31057     31053     31052     31055     31058
     31054     31052     31055     31056     31054     31052     31055     31057
     31054     31052     31055     31058     31055     31058     31061     31062
     31055     31058     31061     31063     31055     31058     31061     31064
     31056     31055     31058     31059     31056     31055     31058     31060
     31056     31055     31058     31061     31057     31055     31058     31059
     31057     31055     31058     31060     31057     31055     31058     31061
     31058     31061     31064     31065     31058     31061     31064     31066
     31058     31061     31064     31067     31059     31058     31061     31062
     31059     31058     31061     31063     31059     31058     31061     31064
     31060     31058     31061     31062     31060     31058     31061     31063
     31060     31058     31061     31064     31061     31064     31067     31068
     31061     31064     31067     31069     31061     31064     31067     31070
     31062     31061     31064     31065     31062     31061     31064     31066
     31062     31061     31064     31067     31063     31061     31064     31065
     31063     31061     31064     31066     31063     31061     31064     31067
     31064     31067     31070     31071     31064     31067     31070     31072
     31064     31067     31070     31073     31065     31064     31067     31068
     31065     31064     31067     31069     31065     31064     31067     31070
     31066     31064     31067     31068     31066     31064     31067     31069
     31066     31064     31067     31070     31067     31070     31073     31074
     31067     31070     31073     31075     31067     31070     31073     31076
     31068     31067     31070     31071     31068     31067     31070     31072
     31068     31067     31070     31073     31069     31067     31070     31071
     31069     31067     31070     31072     31069     31067     31070     31073
     31070     31073     31076     31077     31070     31073     31076     31078
     31070     31073     31076     31079     31071     31070     31073     31074
     31071     31070     31073     31075     31071     31070     31073     31076
     31072     31070     31073     31074     31072     31070     31073     31075
     31072     31070     31073     31076     31073     31076     31079     31080
     31073     31076     31079     31081     31073     31076     31079     31082
     31074     31073     31076     31077     31074     31073     31076     31078
     31074     31073     31076     31079     31075     31073     31076     31077
     31075     31073     31076     31078     31075     31073     31076     31079
     31076     31079     31082     31083     31076     31079     31082     31084
     31076     31079     31082     31085     31077     31076     31079     31080
     31077     31076     31079     31081     31077     31076     31079     31082
     31078     31076     31079     31080     31078     31076     31079     31081
     31078     31076     31079     31082     31079     31082     31085     31086
     31079     31082     31085     31087     31079     31082     31085     31088
     31080     31079     31082     31083     31080     31079     31082     31084
     31080     31079     31082     31085     31081     31079     31082     31083
     31081     31079     31082     31084     31081     31079     31082     31085
     31083     31082     31085     31086     31083     31082     31085     31087
     31083     31082     31085     31088     31084     31082     31085     31086
     31084     31082     31085     31087     31084     31082     31085     31088
     31089     31090     31105     31106     31089     31090     31105     31107
     31089     31090     31105     31111     31090     31089     31093     31094
     31090     31089     31093     31095     31090     31089     31093     31096
     31090     31089     31097     31098     31090     31089     31097     31099
     31090     31089     31097     31100     31090     31089     31101     31102
     31090     31089     31101     31103     31090     31089     31101     31104
     31090     31105     31111     31108     31091     31090     31089     31093
     31091     31090     31089     31097     31091     31090     31089     31101
     31091     31090     31105     31106     31091     31090     31105     31107
     31091     31090     31105     31111     31092     31090     31089     31093
     31092     31090     31089     31097     31092     31090     31089     31101
     31092     31090     31105     31106     31092     31090     31105     31107
     31092     31090     31105     31111     31093     31089     31090     31105
     31093     31089     31097     31098     31093     31089     31097     31099
     31093     31089     31097     31100     31093     31089     31101     31102
     31093     31089     31101     31103     31093     31089     31101     31104
     31094     31093     31089     31097     31094     31093     31089     31101
     31095     31093     31089     31097     31095     31093     31089     31101
     31096     31093     31089     31097     31096     31093     31089     31101
     31097     31089     31090     31105     31097     31089     31101     31102
     31097     31089     31101     31103     31097     31089     31101     31104
     31098     31097     31089     31101     31099     31097     31089     31101
     31100     31097     31089     31101     31101     31089     31090     31105
     31105     31111     31108     31109     31105     31111     31108     31110
     31105     31111     31108     31112     31106     31105     31111     31108
     31107     31105     31111     31108     31108     31112     31113     31114
     31108     31112     31113     31115     31108     31112     31113     31116
     31109     31108     31112     31113     31110     31108     31112     31113
     31111     31108     31112     31113     31112     31113     31116     31117
     31112     31113     31116     31118     31112     31113     31116     31124
     31113     31116     31118     31119     31113     31116     31124     31125
     31113     31116     31124     31126     31113     31116     31124     31127
     31114     31113     31116     31117     31114     31113     31116     31118
     31114     31113     31116     31124     31115     31113     31116     31117
     31115     31113     31116     31118     31115     31113     31116     31124
     31116     31118     31119     31120     31116     31118     31119     31121
     31116     31124     31127     31128     31117     31116     31118     31119
     31117     31116     31124     31125     31117     31116     31124     31126
     31117     31116     31124     31127     31118     31116     31124     31125
     31118     31116     31124     31126     31118     31116     31124     31127
     31118     31119     31121     31122     31118     31119     31121     31123
     31118     31119     31121     31133     31119     31118     31116     31124
     31119     31121     31133     31134     31119     31121     31133     31135
     31119     31121     31133     31136     31120     31119     31121     31122
     31120     31119     31121     31123     31120     31119     31121     31133
     31121     31133     31136     31137     31121     31133     31136     31138
     31121     31133     31136     31139     31122     31121     31133     31134
     31122     31121     31133     31135     31122     31121     31133     31136
     31123     31121     31133     31134     31123     31121     31133     31135
     31123     31121     31133     31136     31124     31127     31128     31129
     31124     31127     31128     31130     31125     31124     31127     31128
     31126     31124     31127     31128     31127     31128     31130     31131
     31127     31128     31130     31132     31127     31128     31130     31180
     31128     31130     31180     31181     31128     31130     31180     31182
     31128     31130     31180     31183     31129     31128     31130     31131
     31129     31128     31130     31132     31129     31128     31130     31180
     31130     31180     31183     31184     31130     31180     31183     31185
     31130     31180     31183     31186     31131     31130     31180     31181
     31131     31130     31180     31182     31131     31130     31180     31183
     31132     31130     31180     31181     31132     31130     31180     31182
     31132     31130     31180     31183     31133     31136     31139     31140
     31133     31136     31139     31141     31133     31136     31139     31142
     31134     31133     31136     31137     31134     31133     31136     31138
     31134     31133     31136     31139     31135     31133     31136     31137
     31135     31133     31136     31138     31135     31133     31136     31139
     31136     31139     31142     31143     31136     31139     31142     31144
     31136     31139     31142     31145     31137     31136     31139     31140
     31137     31136     31139     31141     31137     31136     31139     31142
     31138     31136     31139     31140     31138     31136     31139     31141
     31138     31136     31139     31142     31139     31142     31145     31146
     31139     31142     31145     31147     31139     31142     31145     31148
     31140     31139     31142     31143     31140     31139     31142     31144
     31140     31139     31142     31145     31141     31139     31142     31143
     31141     31139     31142     31144     31141     31139     31142     31145
     31142     31145     31148     31149     31142     31145     31148     31150
     31142     31145     31148     31151     31143     31142     31145     31146
     31143     31142     31145     31147     31143     31142     31145     31148
     31144     31142     31145     31146     31144     31142     31145     31147
     31144     31142     31145     31148     31145     31148     31151     31152
     31145     31148     31151     31153     31146     31145     31148     31149
     31146     31145     31148     31150     31146     31145     31148     31151
     31147     31145     31148     31149     31147     31145     31148     31150
     31147     31145     31148     31151     31148     31151     31153     31154
     31148     31151     31153     31155     31149     31148     31151     31152
     31149     31148     31151     31153     31150     31148     31151     31152
     31150     31148     31151     31153     31151     31153     31155     31156
     31151     31153     31155     31157     31151     31153     31155     31158
     31152     31151     31153     31154     31152     31151     31153     31155
     31153     31155     31158     31159     31153     31155     31158     31160
     31153     31155     31158     31161     31154     31153     31155     31156
     31154     31153     31155     31157     31154     31153     31155     31158
     31155     31158     31161     31162     31155     31158     31161     31163
     31155     31158     31161     31164     31156     31155     31158     31159
     31156     31155     31158     31160     31156     31155     31158     31161
     31157     31155     31158     31159     31157     31155     31158     31160
     31157     31155     31158     31161     31158     31161     31164     31165
     31158     31161     31164     31166     31158     31161     31164     31167
     31159     31158     31161     31162     31159     31158     31161     31163
     31159     31158     31161     31164     31160     31158     31161     31162
     31160     31158     31161     31163     31160     31158     31161     31164
     31161     31164     31167     31168     31161     31164     31167     31169
     31161     31164     31167     31170     31162     31161     31164     31165
     31162     31161     31164     31166     31162     31161     31164     31167
     31163     31161     31164     31165     31163     31161     31164     31166
     31163     31161     31164     31167     31164     31167     31170     31171
     31164     31167     31170     31172     31164     31167     31170     31173
     31165     31164     31167     31168     31165     31164     31167     31169
     31165     31164     31167     31170     31166     31164     31167     31168
     31166     31164     31167     31169     31166     31164     31167     31170
     31167     31170     31173     31174     31167     31170     31173     31175
     31167     31170     31173     31176     31168     31167     31170     31171
     31168     31167     31170     31172     31168     31167     31170     31173
     31169     31167     31170     31171     31169     31167     31170     31172
     31169     31167     31170     31173     31170     31173     31176     31177
     31170     31173     31176     31178     31170     31173     31176     31179
     31171     31170     31173     31174     31171     31170     31173     31175
     31171     31170     31173     31176     31172     31170     31173     31174
     31172     31170     31173     31175     31172     31170     31173     31176
     31174     31173     31176     31177     31174     31173     31176     31178
     31174     31173     31176     31179     31175     31173     31176     31177
     31175     31173     31176     31178     31175     31173     31176     31179
     31180     31183     31186     31187     31180     31183     31186     31188
     31180     31183     31186     31189     31181     31180     31183     31184
     31181     31180     31183     31185     31181     31180     31183     31186
     31182     31180     31183     31184     31182     31180     31183     31185
     31182     31180     31183     31186     31183     31186     31189     31190
     31183     31186     31189     31191     31183     31186     31189     31192
     31184     31183     31186     31187     31184     31183     31186     31188
     31184     31183     31186     31189     31185     31183     31186     31187
     31185     31183     31186     31188     31185     31183     31186     31189
     31186     31189     31192     31193     31186     31189     31192     31194
     31186     31189     31192     31195     31187     31186     31189     31190
     31187     31186     31189     31191     31187     31186     31189     31192
     31188     31186     31189     31190     31188     31186     31189     31191
     31188     31186     31189     31192     31189     31192     31195     31196
     31189     31192     31195     31197     31189     31192     31195     31198
     31190     31189     31192     31193     31190     31189     31192     31194
     31190     31189     31192     31195     31191     31189     31192     31193
     31191     31189     31192     31194     31191     31189     31192     31195
     31192     31195     31198     31199     31192     31195     31198     31200
     31192     31195     31198     31201     31193     31192     31195     31196
     31193     31192     31195     31197     31193     31192     31195     31198
     31194     31192     31195     31196     31194     31192     31195     31197
     31194     31192     31195     31198     31195     31198     31201     31202
     31195     31198     31201     31203     31195     31198     31201     31204
     31196     31195     31198     31199     31196     31195     31198     31200
     31196     31195     31198     31201     31197     31195     31198     31199
     31197     31195     31198     31200     31197     31195     31198     31201
     31198     31201     31204     31205     31198     31201     31204     31206
     31198     31201     31204     31207     31199     31198     31201     31202
     31199     31198     31201     31203     31199     31198     31201     31204
     31200     31198     31201     31202     31200     31198     31201     31203
     31200     31198     31201     31204     31201     31204     31207     31208
     31201     31204     31207     31209     31201     31204     31207     31210
     31202     31201     31204     31205     31202     31201     31204     31206
     31202     31201     31204     31207     31203     31201     31204     31205
     31203     31201     31204     31206     31203     31201     31204     31207
     31204     31207     31210     31211     31204     31207     31210     31212
     31204     31207     31210     31213     31205     31204     31207     31208
     31205     31204     31207     31209     31205     31204     31207     31210
     31206     31204     31207     31208     31206     31204     31207     31209
     31206     31204     31207     31210     31207     31210     31213     31214
     31207     31210     31213     31215     31207     31210     31213     31216
     31208     31207     31210     31211     31208     31207     31210     31212
     31208     31207     31210     31213     31209     31207     31210     31211
     31209     31207     31210     31212     31209     31207     31210     31213
     31210     31213     31216     31217     31210     31213     31216     31218
     31210     31213     31216     31219     31211     31210     31213     31214
     31211     31210     31213     31215     31211     31210     31213     31216
     31212     31210     31213     31214     31212     31210     31213     31215
     31212     31210     31213     31216     31213     31216     31219     31220
     31213     31216     31219     31221     31213     31216     31219     31222
     31214     31213     31216     31217     31214     31213     31216     31218
     31214     31213     31216     31219     31215     31213     31216     31217
     31215     31213     31216     31218     31215     31213     31216     31219
     31217     31216     31219     31220     31217     31216     31219     31221
     31217     31216     31219     31222     31218     31216     31219     31220
     31218     31216     31219     31221     31218     31216     31219     31222
     31223     31224     31239     31240     31223     31224     31239     31241
     31223     31224     31239     31245     31224     31223     31227     31228
     31224     31223     31227     31229     31224     31223     31227     31230
     31224     31223     31231     31232     31224     31223     31231     31233
     31224     31223     31231     31234     31224     31223     31235     31236
     31224     31223     31235     31237     31224     31223     31235     31238
     31224     31239     31245     31242     31225     31224     31223     31227
     31225     31224     31223     31231     31225     31224     31223     31235
     31225     31224     31239     31240     31225     31224     31239     31241
     31225     31224     31239     31245     31226     31224     31223     31227
     31226     31224     31223     31231     31226     31224     31223     31235
     31226     31224     31239     31240     31226     31224     31239     31241
     31226     31224     31239     31245     31227     31223     31224     31239
     31227     31223     31231     31232     31227     31223     31231     31233
     31227     31223     31231     31234     31227     31223     31235     31236
     31227     31223     31235     31237     31227     31223     31235     31238
     31228     31227     31223     31231     31228     31227     31223     31235
     31229     31227     31223     31231     31229     31227     31223     31235
     31230     31227     31223     31231     31230     31227     31223     31235
     31231     31223     31224     31239     31231     31223     31235     31236
     31231     31223     31235     31237     31231     31223     31235     31238
     31232     31231     31223     31235     31233     31231     31223     31235
     31234     31231     31223     31235     31235     31223     31224     31239
     31239     31245     31242     31243     31239     31245     31242     31244
     31239     31245     31242     31246     31240     31239     31245     31242
     31241     31239     31245     31242     31242     31246     31247     31248
     31242     31246     31247     31249     31242     31246     31247     31250
     31243     31242     31246     31247     31244     31242     31246     31247
     31245     31242     31246     31247     31246     31247     31250     31251
     31246     31247     31250     31252     31246     31247     31250     31258
     31247     31250     31252     31253     31247     31250     31258     31259
     31247     31250     31258     31260     31247     31250     31258     31261
     31248     31247     31250     31251     31248     31247     31250     31252
     31248     31247     31250     31258     31249     31247     31250     31251
     31249     31247     31250     31252     31249     31247     31250     31258
     31250     31252     31253     31254     31250     31252     31253     31255
     31250     31258     31261     31262     31251     31250     31252     31253
     31251     31250     31258     31259     31251     31250     31258     31260
     31251     31250     31258     31261     31252     31250     31258     31259
     31252     31250     31258     31260     31252     31250     31258     31261
     31252     31253     31255     31256     31252     31253     31255     31257
     31252     31253     31255     31267     31253     31252     31250     31258
     31253     31255     31267     31268     31253     31255     31267     31269
     31253     31255     31267     31270     31254     31253     31255     31256
     31254     31253     31255     31257     31254     31253     31255     31267
     31255     31267     31270     31271     31255     31267     31270     31272
     31255     31267     31270     31273     31256     31255     31267     31268
     31256     31255     31267     31269     31256     31255     31267     31270
     31257     31255     31267     31268     31257     31255     31267     31269
     31257     31255     31267     31270     31258     31261     31262     31263
     31258     31261     31262     31264     31259     31258     31261     31262
     31260     31258     31261     31262     31261     31262     31264     31265
     31261     31262     31264     31266     31261     31262     31264     31314
     31262     31264     31314     31315     31262     31264     31314     31316
     31262     31264     31314     31317     31263     31262     31264     31265
     31263     31262     31264     31266     31263     31262     31264     31314
     31264     31314     31317     31318     31264     31314     31317     31319
     31264     31314     31317     31320     31265     31264     31314     31315
     31265     31264     31314     31316     31265     31264     31314     31317
     31266     31264     31314     31315     31266     31264     31314     31316
     31266     31264     31314     31317     31267     31270     31273     31274
     31267     31270     31273     31275     31267     31270     31273     31276
     31268     31267     31270     31271     31268     31267     31270     31272
     31268     31267     31270     31273     31269     31267     31270     31271
     31269     31267     31270     31272     31269     31267     31270     31273
     31270     31273     31276     31277     31270     31273     31276     31278
     31270     31273     31276     31279     31271     31270     31273     31274
     31271     31270     31273     31275     31271     31270     31273     31276
     31272     31270     31273     31274     31272     31270     31273     31275
     31272     31270     31273     31276     31273     31276     31279     31280
     31273     31276     31279     31281     31273     31276     31279     31282
     31274     31273     31276     31277     31274     31273     31276     31278
     31274     31273     31276     31279     31275     31273     31276     31277
     31275     31273     31276     31278     31275     31273     31276     31279
     31276     31279     31282     31283     31276     31279     31282     31284
     31276     31279     31282     31285     31277     31276     31279     31280
     31277     31276     31279     31281     31277     31276     31279     31282
     31278     31276     31279     31280     31278     31276     31279     31281
     31278     31276     31279     31282     31279     31282     31285     31286
     31279     31282     31285     31287     31280     31279     31282     31283
     31280     31279     31282     31284     31280     31279     31282     31285
     31281     31279     31282     31283     31281     31279     31282     31284
     31281     31279     31282     31285     31282     31285     31287     31288
     31282     31285     31287     31289     31283     31282     31285     31286
     31283     31282     31285     31287     31284     31282     31285     31286
     31284     31282     31285     31287     31285     31287     31289     31290
     31285     31287     31289     31291     31285     31287     31289     31292
     31286     31285     31287     31288     31286     31285     31287     31289
     31287     31289     31292     31293     31287     31289     31292     31294
     31287     31289     31292     31295     31288     31287     31289     31290
     31288     31287     31289     31291     31288     31287     31289     31292
     31289     31292     31295     31296     31289     31292     31295     31297
     31289     31292     31295     31298     31290     31289     31292     31293
     31290     31289     31292     31294     31290     31289     31292     31295
     31291     31289     31292     31293     31291     31289     31292     31294
     31291     31289     31292     31295     31292     31295     31298     31299
     31292     31295     31298     31300     31292     31295     31298     31301
     31293     31292     31295     31296     31293     31292     31295     31297
     31293     31292     31295     31298     31294     31292     31295     31296
     31294     31292     31295     31297     31294     31292     31295     31298
     31295     31298     31301     31302     31295     31298     31301     31303
     31295     31298     31301     31304     31296     31295     31298     31299
     31296     31295     31298     31300     31296     31295     31298     31301
     31297     31295     31298     31299     31297     31295     31298     31300
     31297     31295     31298     31301     31298     31301     31304     31305
     31298     31301     31304     31306     31298     31301     31304     31307
     31299     31298     31301     31302     31299     31298     31301     31303
     31299     31298     31301     31304     31300     31298     31301     31302
     31300     31298     31301     31303     31300     31298     31301     31304
     31301     31304     31307     31308     31301     31304     31307     31309
     31301     31304     31307     31310     31302     31301     31304     31305
     31302     31301     31304     31306     31302     31301     31304     31307
     31303     31301     31304     31305     31303     31301     31304     31306
     31303     31301     31304     31307     31304     31307     31310     31311
     31304     31307     31310     31312     31304     31307     31310     31313
     31305     31304     31307     31308     31305     31304     31307     31309
     31305     31304     31307     31310     31306     31304     31307     31308
     31306     31304     31307     31309     31306     31304     31307     31310
     31308     31307     31310     31311     31308     31307     31310     31312
     31308     31307     31310     31313     31309     31307     31310     31311
     31309     31307     31310     31312     31309     31307     31310     31313
     31314     31317     31320     31321     31314     31317     31320     31322
     31314     31317     31320     31323     31315     31314     31317     31318
     31315     31314     31317     31319     31315     31314     31317     31320
     31316     31314     31317     31318     31316     31314     31317     31319
     31316     31314     31317     31320     31317     31320     31323     31324
     31317     31320     31323     31325     31317     31320     31323     31326
     31318     31317     31320     31321     31318     31317     31320     31322
     31318     31317     31320     31323     31319     31317     31320     31321
     31319     31317     31320     31322     31319     31317     31320     31323
     31320     31323     31326     31327     31320     31323     31326     31328
     31320     31323     31326     31329     31321     31320     31323     31324
     31321     31320     31323     31325     31321     31320     31323     31326
     31322     31320     31323     31324     31322     31320     31323     31325
     31322     31320     31323     31326     31323     31326     31329     31330
     31323     31326     31329     31331     31323     31326     31329     31332
     31324     31323     31326     31327     31324     31323     31326     31328
     31324     31323     31326     31329     31325     31323     31326     31327
     31325     31323     31326     31328     31325     31323     31326     31329
     31326     31329     31332     31333     31326     31329     31332     31334
     31326     31329     31332     31335     31327     31326     31329     31330
     31327     31326     31329     31331     31327     31326     31329     31332
     31328     31326     31329     31330     31328     31326     31329     31331
     31328     31326     31329     31332     31329     31332     31335     31336
     31329     31332     31335     31337     31329     31332     31335     31338
     31330     31329     31332     31333     31330     31329     31332     31334
     31330     31329     31332     31335     31331     31329     31332     31333
     31331     31329     31332     31334     31331     31329     31332     31335
     31332     31335     31338     31339     31332     31335     31338     31340
     31332     31335     31338     31341     31333     31332     31335     31336
     31333     31332     31335     31337     31333     31332     31335     31338
     31334     31332     31335     31336     31334     31332     31335     31337
     31334     31332     31335     31338     31335     31338     31341     31342
     31335     31338     31341     31343     31335     31338     31341     31344
     31336     31335     31338     31339     31336     31335     31338     31340
     31336     31335     31338     31341     31337     31335     31338     31339
     31337     31335     31338     31340     31337     31335     31338     31341
     31338     31341     31344     31345     31338     31341     31344     31346
     31338     31341     31344     31347     31339     31338     31341     31342
     31339     31338     31341     31343     31339     31338     31341     31344
     31340     31338     31341     31342     31340     31338     31341     31343
     31340     31338     31341     31344     31341     31344     31347     31348
     31341     31344     31347     31349     31341     31344     31347     31350
     31342     31341     31344     31345     31342     31341     31344     31346
     31342     31341     31344     31347     31343     31341     31344     31345
     31343     31341     31344     31346     31343     31341     31344     31347
     31344     31347     31350     31351     31344     31347     31350     31352
     31344     31347     31350     31353     31345     31344     31347     31348
     31345     31344     31347     31349     31345     31344     31347     31350
     31346     31344     31347     31348     31346     31344     31347     31349
     31346     31344     31347     31350     31347     31350     31353     31354
     31347     31350     31353     31355     31347     31350     31353     31356
     31348     31347     31350     31351     31348     31347     31350     31352
     31348     31347     31350     31353     31349     31347     31350     31351
     31349     31347     31350     31352     31349     31347     31350     31353
     31351     31350     31353     31354     31351     31350     31353     31355
     31351     31350     31353     31356     31352     31350     31353     31354
     31352     31350     31353     31355     31352     31350     31353     31356
     31357     31358     31373     31374     31357     31358     31373     31375
     31357     31358     31373     31379     31358     31357     31361     31362
     31358     31357     31361     31363     31358     31357     31361     31364
     31358     31357     31365     31366     31358     31357     31365     31367
     31358     31357     31365     31368     31358     31357     31369     31370
     31358     31357     31369     31371     31358     31357     31369     31372
     31358     31373     31379     31376     31359     31358     31357     31361
     31359     31358     31357     31365     31359     31358     31357     31369
     31359     31358     31373     31374     31359     31358     31373     31375
     31359     31358     31373     31379     31360     31358     31357     31361
     31360     31358     31357     31365     31360     31358     31357     31369
     31360     31358     31373     31374     31360     31358     31373     31375
     31360     31358     31373     31379     31361     31357     31358     31373
     31361     31357     31365     31366     31361     31357     31365     31367
     31361     31357     31365     31368     31361     31357     31369     31370
     31361     31357     31369     31371     31361     31357     31369     31372
     31362     31361     31357     31365     31362     31361     31357     31369
     31363     31361     31357     31365     31363     31361     31357     31369
     31364     31361     31357     31365     31364     31361     31357     31369
     31365     31357     31358     31373     31365     31357     31369     31370
     31365     31357     31369     31371     31365     31357     31369     31372
     31366     31365     31357     31369     31367     31365     31357     31369
     31368     31365     31357     31369     31369     31357     31358     31373
     31373     31379     31376     31377     31373     31379     31376     31378
     31373     31379     31376     31380     31374     31373     31379     31376
     31375     31373     31379     31376     31376     31380     31381     31382
     31376     31380     31381     31383     31376     31380     31381     31384
     31377     31376     31380     31381     31378     31376     31380     31381
     31379     31376     31380     31381     31380     31381     31384     31385
     31380     31381     31384     31386     31380     31381     31384     31392
     31381     31384     31386     31387     31381     31384     31392     31393
     31381     31384     31392     31394     31381     31384     31392     31395
     31382     31381     31384     31385     31382     31381     31384     31386
     31382     31381     31384     31392     31383     31381     31384     31385
     31383     31381     31384     31386     31383     31381     31384     31392
     31384     31386     31387     31388     31384     31386     31387     31389
     31384     31392     31395     31396     31385     31384     31386     31387
     31385     31384     31392     31393     31385     31384     31392     31394
     31385     31384     31392     31395     31386     31384     31392     31393
     31386     31384     31392     31394     31386     31384     31392     31395
     31386     31387     31389     31390     31386     31387     31389     31391
     31386     31387     31389     31401     31387     31386     31384     31392
     31387     31389     31401     31402     31387     31389     31401     31403
     31387     31389     31401     31404     31388     31387     31389     31390
     31388     31387     31389     31391     31388     31387     31389     31401
     31389     31401     31404     31405     31389     31401     31404     31406
     31389     31401     31404     31407     31390     31389     31401     31402
     31390     31389     31401     31403     31390     31389     31401     31404
     31391     31389     31401     31402     31391     31389     31401     31403
     31391     31389     31401     31404     31392     31395     31396     31397
     31392     31395     31396     31398     31393     31392     31395     31396
     31394     31392     31395     31396     31395     31396     31398     31399
     31395     31396     31398     31400     31395     31396     31398     31448
     31396     31398     31448     31449     31396     31398     31448     31450
     31396     31398     31448     31451     31397     31396     31398     31399
     31397     31396     31398     31400     31397     31396     31398     31448
     31398     31448     31451     31452     31398     31448     31451     31453
     31398     31448     31451     31454     31399     31398     31448     31449
     31399     31398     31448     31450     31399     31398     31448     31451
     31400     31398     31448     31449     31400     31398     31448     31450
     31400     31398     31448     31451     31401     31404     31407     31408
     31401     31404     31407     31409     31401     31404     31407     31410
     31402     31401     31404     31405     31402     31401     31404     31406
     31402     31401     31404     31407     31403     31401     31404     31405
     31403     31401     31404     31406     31403     31401     31404     31407
     31404     31407     31410     31411     31404     31407     31410     31412
     31404     31407     31410     31413     31405     31404     31407     31408
     31405     31404     31407     31409     31405     31404     31407     31410
     31406     31404     31407     31408     31406     31404     31407     31409
     31406     31404     31407     31410     31407     31410     31413     31414
     31407     31410     31413     31415     31407     31410     31413     31416
     31408     31407     31410     31411     31408     31407     31410     31412
     31408     31407     31410     31413     31409     31407     31410     31411
     31409     31407     31410     31412     31409     31407     31410     31413
     31410     31413     31416     31417     31410     31413     31416     31418
     31410     31413     31416     31419     31411     31410     31413     31414
     31411     31410     31413     31415     31411     31410     31413     31416
     31412     31410     31413     31414     31412     31410     31413     31415
     31412     31410     31413     31416     31413     31416     31419     31420
     31413     31416     31419     31421     31414     31413     31416     31417
     31414     31413     31416     31418     31414     31413     31416     31419
     31415     31413     31416     31417     31415     31413     31416     31418
     31415     31413     31416     31419     31416     31419     31421     31422
     31416     31419     31421     31423     31417     31416     31419     31420
     31417     31416     31419     31421     31418     31416     31419     31420
     31418     31416     31419     31421     31419     31421     31423     31424
     31419     31421     31423     31425     31419     31421     31423     31426
     31420     31419     31421     31422     31420     31419     31421     31423
     31421     31423     31426     31427     31421     31423     31426     31428
     31421     31423     31426     31429     31422     31421     31423     31424
     31422     31421     31423     31425     31422     31421     31423     31426
     31423     31426     31429     31430     31423     31426     31429     31431
     31423     31426     31429     31432     31424     31423     31426     31427
     31424     31423     31426     31428     31424     31423     31426     31429
     31425     31423     31426     31427     31425     31423     31426     31428
     31425     31423     31426     31429     31426     31429     31432     31433
     31426     31429     31432     31434     31426     31429     31432     31435
     31427     31426     31429     31430     31427     31426     31429     31431
     31427     31426     31429     31432     31428     31426     31429     31430
     31428     31426     31429     31431     31428     31426     31429     31432
     31429     31432     31435     31436     31429     31432     31435     31437
     31429     31432     31435     31438     31430     31429     31432     31433
     31430     31429     31432     31434     31430     31429     31432     31435
     31431     31429     31432     31433     31431     31429     31432     31434
     31431     31429     31432     31435     31432     31435     31438     31439
     31432     31435     31438     31440     31432     31435     31438     31441
     31433     31432     31435     31436     31433     31432     31435     31437
     31433     31432     31435     31438     31434     31432     31435     31436
     31434     31432     31435     31437     31434     31432     31435     31438
     31435     31438     31441     31442     31435     31438     31441     31443
     31435     31438     31441     31444     31436     31435     31438     31439
     31436     31435     31438     31440     31436     31435     31438     31441
     31437     31435     31438     31439     31437     31435     31438     31440
     31437     31435     31438     31441     31438     31441     31444     31445
     31438     31441     31444     31446     31438     31441     31444     31447
     31439     31438     31441     31442     31439     31438     31441     31443
     31439     31438     31441     31444     31440     31438     31441     31442
     31440     31438     31441     31443     31440     31438     31441     31444
     31442     31441     31444     31445     31442     31441     31444     31446
     31442     31441     31444     31447     31443     31441     31444     31445
     31443     31441     31444     31446     31443     31441     31444     31447
     31448     31451     31454     31455     31448     31451     31454     31456
     31448     31451     31454     31457     31449     31448     31451     31452
     31449     31448     31451     31453     31449     31448     31451     31454
     31450     31448     31451     31452     31450     31448     31451     31453
     31450     31448     31451     31454     31451     31454     31457     31458
     31451     31454     31457     31459     31451     31454     31457     31460
     31452     31451     31454     31455     31452     31451     31454     31456
     31452     31451     31454     31457     31453     31451     31454     31455
     31453     31451     31454     31456     31453     31451     31454     31457
     31454     31457     31460     31461     31454     31457     31460     31462
     31454     31457     31460     31463     31455     31454     31457     31458
     31455     31454     31457     31459     31455     31454     31457     31460
     31456     31454     31457     31458     31456     31454     31457     31459
     31456     31454     31457     31460     31457     31460     31463     31464
     31457     31460     31463     31465     31457     31460     31463     31466
     31458     31457     31460     31461     31458     31457     31460     31462
     31458     31457     31460     31463     31459     31457     31460     31461
     31459     31457     31460     31462     31459     31457     31460     31463
     31460     31463     31466     31467     31460     31463     31466     31468
     31460     31463     31466     31469     31461     31460     31463     31464
     31461     31460     31463     31465     31461     31460     31463     31466
     31462     31460     31463     31464     31462     31460     31463     31465
     31462     31460     31463     31466     31463     31466     31469     31470
     31463     31466     31469     31471     31463     31466     31469     31472
     31464     31463     31466     31467     31464     31463     31466     31468
     31464     31463     31466     31469     31465     31463     31466     31467
     31465     31463     31466     31468     31465     31463     31466     31469
     31466     31469     31472     31473     31466     31469     31472     31474
     31466     31469     31472     31475     31467     31466     31469     31470
     31467     31466     31469     31471     31467     31466     31469     31472
     31468     31466     31469     31470     31468     31466     31469     31471
     31468     31466     31469     31472     31469     31472     31475     31476
     31469     31472     31475     31477     31469     31472     31475     31478
     31470     31469     31472     31473     31470     31469     31472     31474
     31470     31469     31472     31475     31471     31469     31472     31473
     31471     31469     31472     31474     31471     31469     31472     31475
     31472     31475     31478     31479     31472     31475     31478     31480
     31472     31475     31478     31481     31473     31472     31475     31476
     31473     31472     31475     31477     31473     31472     31475     31478
     31474     31472     31475     31476     31474     31472     31475     31477
     31474     31472     31475     31478     31475     31478     31481     31482
     31475     31478     31481     31483     31475     31478     31481     31484
     31476     31475     31478     31479     31476     31475     31478     31480
     31476     31475     31478     31481     31477     31475     31478     31479
     31477     31475     31478     31480     31477     31475     31478     31481
     31478     31481     31484     31485     31478     31481     31484     31486
     31478     31481     31484     31487     31479     31478     31481     31482
     31479     31478     31481     31483     31479     31478     31481     31484
     31480     31478     31481     31482     31480     31478     31481     31483
     31480     31478     31481     31484     31481     31484     31487     31488
     31481     31484     31487     31489     31481     31484     31487     31490
     31482     31481     31484     31485     31482     31481     31484     31486
     31482     31481     31484     31487     31483     31481     31484     31485
     31483     31481     31484     31486     31483     31481     31484     31487
     31485     31484     31487     31488     31485     31484     31487     31489
     31485     31484     31487     31490     31486     31484     31487     31488
     31486     31484     31487     31489     31486     31484     31487     31490
     31491     31492     31507     31508     31491     31492     31507     31509
     31491     31492     31507     31513     31492     31491     31495     31496
     31492     31491     31495     31497     31492     31491     31495     31498
     31492     31491     31499     31500     31492     31491     31499     31501
     31492     31491     31499     31502     31492     31491     31503     31504
     31492     31491     31503     31505     31492     31491     31503     31506
     31492     31507     31513     31510     31493     31492     31491     31495
     31493     31492     31491     31499     31493     31492     31491     31503
     31493     31492     31507     31508     31493     31492     31507     31509
     31493     31492     31507     31513     31494     31492     31491     31495
     31494     31492     31491     31499     31494     31492     31491     31503
     31494     31492     31507     31508     31494     31492     31507     31509
     31494     31492     31507     31513     31495     31491     31492     31507
     31495     31491     31499     31500     31495     31491     31499     31501
     31495     31491     31499     31502     31495     31491     31503     31504
     31495     31491     31503     31505     31495     31491     31503     31506
     31496     31495     31491     31499     31496     31495     31491     31503
     31497     31495     31491     31499     31497     31495     31491     31503
     31498     31495     31491     31499     31498     31495     31491     31503
     31499     31491     31492     31507     31499     31491     31503     31504
     31499     31491     31503     31505     31499     31491     31503     31506
     31500     31499     31491     31503     31501     31499     31491     31503
     31502     31499     31491     31503     31503     31491     31492     31507
     31507     31513     31510     31511     31507     31513     31510     31512
     31507     31513     31510     31514     31508     31507     31513     31510
     31509     31507     31513     31510     31510     31514     31515     31516
     31510     31514     31515     31517     31510     31514     31515     31518
     31511     31510     31514     31515     31512     31510     31514     31515
     31513     31510     31514     31515     31514     31515     31518     31519
     31514     31515     31518     31520     31514     31515     31518     31526
     31515     31518     31520     31521     31515     31518     31526     31527
     31515     31518     31526     31528     31515     31518     31526     31529
     31516     31515     31518     31519     31516     31515     31518     31520
     31516     31515     31518     31526     31517     31515     31518     31519
     31517     31515     31518     31520     31517     31515     31518     31526
     31518     31520     31521     31522     31518     31520     31521     31523
     31518     31526     31529     31530     31519     31518     31520     31521
     31519     31518     31526     31527     31519     31518     31526     31528
     31519     31518     31526     31529     31520     31518     31526     31527
     31520     31518     31526     31528     31520     31518     31526     31529
     31520     31521     31523     31524     31520     31521     31523     31525
     31520     31521     31523     31535     31521     31520     31518     31526
     31521     31523     31535     31536     31521     31523     31535     31537
     31521     31523     31535     31538     31522     31521     31523     31524
     31522     31521     31523     31525     31522     31521     31523     31535
     31523     31535     31538     31539     31523     31535     31538     31540
     31523     31535     31538     31541     31524     31523     31535     31536
     31524     31523     31535     31537     31524     31523     31535     31538
     31525     31523     31535     31536     31525     31523     31535     31537
     31525     31523     31535     31538     31526     31529     31530     31531
     31526     31529     31530     31532     31527     31526     31529     31530
     31528     31526     31529     31530     31529     31530     31532     31533
     31529     31530     31532     31534     31529     31530     31532     31582
     31530     31532     31582     31583     31530     31532     31582     31584
     31530     31532     31582     31585     31531     31530     31532     31533
     31531     31530     31532     31534     31531     31530     31532     31582
     31532     31582     31585     31586     31532     31582     31585     31587
     31532     31582     31585     31588     31533     31532     31582     31583
     31533     31532     31582     31584     31533     31532     31582     31585
     31534     31532     31582     31583     31534     31532     31582     31584
     31534     31532     31582     31585     31535     31538     31541     31542
     31535     31538     31541     31543     31535     31538     31541     31544
     31536     31535     31538     31539     31536     31535     31538     31540
     31536     31535     31538     31541     31537     31535     31538     31539
     31537     31535     31538     31540     31537     31535     31538     31541
     31538     31541     31544     31545     31538     31541     31544     31546
     31538     31541     31544     31547     31539     31538     31541     31542
     31539     31538     31541     31543     31539     31538     31541     31544
     31540     31538     31541     31542     31540     31538     31541     31543
     31540     31538     31541     31544     31541     31544     31547     31548
     31541     31544     31547     31549     31541     31544     31547     31550
     31542     31541     31544     31545     31542     31541     31544     31546
     31542     31541     31544     31547     31543     31541     31544     31545
     31543     31541     31544     31546     31543     31541     31544     31547
     31544     31547     31550     31551     31544     31547     31550     31552
     31544     31547     31550     31553     31545     31544     31547     31548
     31545     31544     31547     31549     31545     31544     31547     31550
     31546     31544     31547     31548     31546     31544     31547     31549
     31546     31544     31547     31550     31547     31550     31553     31554
     31547     31550     31553     31555     31548     31547     31550     31551
     31548     31547     31550     31552     31548     31547     31550     31553
     31549     31547     31550     31551     31549     31547     31550     31552
     31549     31547     31550     31553     31550     31553     31555     31556
     31550     31553     31555     31557     31551     31550     31553     31554
     31551     31550     31553     31555     31552     31550     31553     31554
     31552     31550     31553     31555     31553     31555     31557     31558
     31553     31555     31557     31559     31553     31555     31557     31560
     31554     31553     31555     31556     31554     31553     31555     31557
     31555     31557     31560     31561     31555     31557     31560     31562
     31555     31557     31560     31563     31556     31555     31557     31558
     31556     31555     31557     31559     31556     31555     31557     31560
     31557     31560     31563     31564     31557     31560     31563     31565
     31557     31560     31563     31566     31558     31557     31560     31561
     31558     31557     31560     31562     31558     31557     31560     31563
     31559     31557     31560     31561     31559     31557     31560     31562
     31559     31557     31560     31563     31560     31563     31566     31567
     31560     31563     31566     31568     31560     31563     31566     31569
     31561     31560     31563     31564     31561     31560     31563     31565
     31561     31560     31563     31566     31562     31560     31563     31564
     31562     31560     31563     31565     31562     31560     31563     31566
     31563     31566     31569     31570     31563     31566     31569     31571
     31563     31566     31569     31572     31564     31563     31566     31567
     31564     31563     31566     31568     31564     31563     31566     31569
     31565     31563     31566     31567     31565     31563     31566     31568
     31565     31563     31566     31569     31566     31569     31572     31573
     31566     31569     31572     31574     31566     31569     31572     31575
     31567     31566     31569     31570     31567     31566     31569     31571
     31567     31566     31569     31572     31568     31566     31569     31570
     31568     31566     31569     31571     31568     31566     31569     31572
     31569     31572     31575     31576     31569     31572     31575     31577
     31569     31572     31575     31578     31570     31569     31572     31573
     31570     31569     31572     31574     31570     31569     31572     31575
     31571     31569     31572     31573     31571     31569     31572     31574
     31571     31569     31572     31575     31572     31575     31578     31579
     31572     31575     31578     31580     31572     31575     31578     31581
     31573     31572     31575     31576     31573     31572     31575     31577
     31573     31572     31575     31578     31574     31572     31575     31576
     31574     31572     31575     31577     31574     31572     31575     31578
     31576     31575     31578     31579     31576     31575     31578     31580
     31576     31575     31578     31581     31577     31575     31578     31579
     31577     31575     31578     31580     31577     31575     31578     31581
     31582     31585     31588     31589     31582     31585     31588     31590
     31582     31585     31588     31591     31583     31582     31585     31586
     31583     31582     31585     31587     31583     31582     31585     31588
     31584     31582     31585     31586     31584     31582     31585     31587
     31584     31582     31585     31588     31585     31588     31591     31592
     31585     31588     31591     31593     31585     31588     31591     31594
     31586     31585     31588     31589     31586     31585     31588     31590
     31586     31585     31588     31591     31587     31585     31588     31589
     31587     31585     31588     31590     31587     31585     31588     31591
     31588     31591     31594     31595     31588     31591     31594     31596
     31588     31591     31594     31597     31589     31588     31591     31592
     31589     31588     31591     31593     31589     31588     31591     31594
     31590     31588     31591     31592     31590     31588     31591     31593
     31590     31588     31591     31594     31591     31594     31597     31598
     31591     31594     31597     31599     31591     31594     31597     31600
     31592     31591     31594     31595     31592     31591     31594     31596
     31592     31591     31594     31597     31593     31591     31594     31595
     31593     31591     31594     31596     31593     31591     31594     31597
     31594     31597     31600     31601     31594     31597     31600     31602
     31594     31597     31600     31603     31595     31594     31597     31598
     31595     31594     31597     31599     31595     31594     31597     31600
     31596     31594     31597     31598     31596     31594     31597     31599
     31596     31594     31597     31600     31597     31600     31603     31604
     31597     31600     31603     31605     31597     31600     31603     31606
     31598     31597     31600     31601     31598     31597     31600     31602
     31598     31597     31600     31603     31599     31597     31600     31601
     31599     31597     31600     31602     31599     31597     31600     31603
     31600     31603     31606     31607     31600     31603     31606     31608
     31600     31603     31606     31609     31601     31600     31603     31604
     31601     31600     31603     31605     31601     31600     31603     31606
     31602     31600     31603     31604     31602     31600     31603     31605
     31602     31600     31603     31606     31603     31606     31609     31610
     31603     31606     31609     31611     31603     31606     31609     31612
     31604     31603     31606     31607     31604     31603     31606     31608
     31604     31603     31606     31609     31605     31603     31606     31607
     31605     31603     31606     31608     31605     31603     31606     31609
     31606     31609     31612     31613     31606     31609     31612     31614
     31606     31609     31612     31615     31607     31606     31609     31610
     31607     31606     31609     31611     31607     31606     31609     31612
     31608     31606     31609     31610     31608     31606     31609     31611
     31608     31606     31609     31612     31609     31612     31615     31616
     31609     31612     31615     31617     31609     31612     31615     31618
     31610     31609     31612     31613     31610     31609     31612     31614
     31610     31609     31612     31615     31611     31609     31612     31613
     31611     31609     31612     31614     31611     31609     31612     31615
     31612     31615     31618     31619     31612     31615     31618     31620
     31612     31615     31618     31621     31613     31612     31615     31616
     31613     31612     31615     31617     31613     31612     31615     31618
     31614     31612     31615     31616     31614     31612     31615     31617
     31614     31612     31615     31618     31615     31618     31621     31622
     31615     31618     31621     31623     31615     31618     31621     31624
     31616     31615     31618     31619     31616     31615     31618     31620
     31616     31615     31618     31621     31617     31615     31618     31619
     31617     31615     31618     31620     31617     31615     31618     31621
     31619     31618     31621     31622     31619     31618     31621     31623
     31619     31618     31621     31624     31620     31618     31621     31622
     31620     31618     31621     31623     31620     31618     31621     31624
     31625     31626     31641     31642     31625     31626     31641     31643
     31625     31626     31641     31647     31626     31625     31629     31630
     31626     31625     31629     31631     31626     31625     31629     31632
     31626     31625     31633     31634     31626     31625     31633     31635
     31626     31625     31633     31636     31626     31625     31637     31638
     31626     31625     31637     31639     31626     31625     31637     31640
     31626     31641     31647     31644     31627     31626     31625     31629
     31627     31626     31625     31633     31627     31626     31625     31637
     31627     31626     31641     31642     31627     31626     31641     31643
     31627     31626     31641     31647     31628     31626     31625     31629
     31628     31626     31625     31633     31628     31626     31625     31637
     31628     31626     31641     31642     31628     31626     31641     31643
     31628     31626     31641     31647     31629     31625     31626     31641
     31629     31625     31633     31634     31629     31625     31633     31635
     31629     31625     31633     31636     31629     31625     31637     31638
     31629     31625     31637     31639     31629     31625     31637     31640
     31630     31629     31625     31633     31630     31629     31625     31637
     31631     31629     31625     31633     31631     31629     31625     31637
     31632     31629     31625     31633     31632     31629     31625     31637
     31633     31625     31626     31641     31633     31625     31637     31638
     31633     31625     31637     31639     31633     31625     31637     31640
     31634     31633     31625     31637     31635     31633     31625     31637
     31636     31633     31625     31637     31637     31625     31626     31641
     31641     31647     31644     31645     31641     31647     31644     31646
     31641     31647     31644     31648     31642     31641     31647     31644
     31643     31641     31647     31644     31644     31648     31649     31650
     31644     31648     31649     31651     31644     31648     31649     31652
     31645     31644     31648     31649     31646     31644     31648     31649
     31647     31644     31648     31649     31648     31649     31652     31653
     31648     31649     31652     31654     31648     31649     31652     31660
     31649     31652     31654     31655     31649     31652     31660     31661
     31649     31652     31660     31662     31649     31652     31660     31663
     31650     31649     31652     31653     31650     31649     31652     31654
     31650     31649     31652     31660     31651     31649     31652     31653
     31651     31649     31652     31654     31651     31649     31652     31660
     31652     31654     31655     31656     31652     31654     31655     31657
     31652     31660     31663     31664     31653     31652     31654     31655
     31653     31652     31660     31661     31653     31652     31660     31662
     31653     31652     31660     31663     31654     31652     31660     31661
     31654     31652     31660     31662     31654     31652     31660     31663
     31654     31655     31657     31658     31654     31655     31657     31659
     31654     31655     31657     31669     31655     31654     31652     31660
     31655     31657     31669     31670     31655     31657     31669     31671
     31655     31657     31669     31672     31656     31655     31657     31658
     31656     31655     31657     31659     31656     31655     31657     31669
     31657     31669     31672     31673     31657     31669     31672     31674
     31657     31669     31672     31675     31658     31657     31669     31670
     31658     31657     31669     31671     31658     31657     31669     31672
     31659     31657     31669     31670     31659     31657     31669     31671
     31659     31657     31669     31672     31660     31663     31664     31665
     31660     31663     31664     31666     31661     31660     31663     31664
     31662     31660     31663     31664     31663     31664     31666     31667
     31663     31664     31666     31668     31663     31664     31666     31716
     31664     31666     31716     31717     31664     31666     31716     31718
     31664     31666     31716     31719     31665     31664     31666     31667
     31665     31664     31666     31668     31665     31664     31666     31716
     31666     31716     31719     31720     31666     31716     31719     31721
     31666     31716     31719     31722     31667     31666     31716     31717
     31667     31666     31716     31718     31667     31666     31716     31719
     31668     31666     31716     31717     31668     31666     31716     31718
     31668     31666     31716     31719     31669     31672     31675     31676
     31669     31672     31675     31677     31669     31672     31675     31678
     31670     31669     31672     31673     31670     31669     31672     31674
     31670     31669     31672     31675     31671     31669     31672     31673
     31671     31669     31672     31674     31671     31669     31672     31675
     31672     31675     31678     31679     31672     31675     31678     31680
     31672     31675     31678     31681     31673     31672     31675     31676
     31673     31672     31675     31677     31673     31672     31675     31678
     31674     31672     31675     31676     31674     31672     31675     31677
     31674     31672     31675     31678     31675     31678     31681     31682
     31675     31678     31681     31683     31675     31678     31681     31684
     31676     31675     31678     31679     31676     31675     31678     31680
     31676     31675     31678     31681     31677     31675     31678     31679
     31677     31675     31678     31680     31677     31675     31678     31681
     31678     31681     31684     31685     31678     31681     31684     31686
     31678     31681     31684     31687     31679     31678     31681     31682
     31679     31678     31681     31683     31679     31678     31681     31684
     31680     31678     31681     31682     31680     31678     31681     31683
     31680     31678     31681     31684     31681     31684     31687     31688
     31681     31684     31687     31689     31682     31681     31684     31685
     31682     31681     31684     31686     31682     31681     31684     31687
     31683     31681     31684     31685     31683     31681     31684     31686
     31683     31681     31684     31687     31684     31687     31689     31690
     31684     31687     31689     31691     31685     31684     31687     31688
     31685     31684     31687     31689     31686     31684     31687     31688
     31686     31684     31687     31689     31687     31689     31691     31692
     31687     31689     31691     31693     31687     31689     31691     31694
     31688     31687     31689     31690     31688     31687     31689     31691
     31689     31691     31694     31695     31689     31691     31694     31696
     31689     31691     31694     31697     31690     31689     31691     31692
     31690     31689     31691     31693     31690     31689     31691     31694
     31691     31694     31697     31698     31691     31694     31697     31699
     31691     31694     31697     31700     31692     31691     31694     31695
     31692     31691     31694     31696     31692     31691     31694     31697
     31693     31691     31694     31695     31693     31691     31694     31696
     31693     31691     31694     31697     31694     31697     31700     31701
     31694     31697     31700     31702     31694     31697     31700     31703
     31695     31694     31697     31698     31695     31694     31697     31699
     31695     31694     31697     31700     31696     31694     31697     31698
     31696     31694     31697     31699     31696     31694     31697     31700
     31697     31700     31703     31704     31697     31700     31703     31705
     31697     31700     31703     31706     31698     31697     31700     31701
     31698     31697     31700     31702     31698     31697     31700     31703
     31699     31697     31700     31701     31699     31697     31700     31702
     31699     31697     31700     31703     31700     31703     31706     31707
     31700     31703     31706     31708     31700     31703     31706     31709
     31701     31700     31703     31704     31701     31700     31703     31705
     31701     31700     31703     31706     31702     31700     31703     31704
     31702     31700     31703     31705     31702     31700     31703     31706
     31703     31706     31709     31710     31703     31706     31709     31711
     31703     31706     31709     31712     31704     31703     31706     31707
     31704     31703     31706     31708     31704     31703     31706     31709
     31705     31703     31706     31707     31705     31703     31706     31708
     31705     31703     31706     31709     31706     31709     31712     31713
     31706     31709     31712     31714     31706     31709     31712     31715
     31707     31706     31709     31710     31707     31706     31709     31711
     31707     31706     31709     31712     31708     31706     31709     31710
     31708     31706     31709     31711     31708     31706     31709     31712
     31710     31709     31712     31713     31710     31709     31712     31714
     31710     31709     31712     31715     31711     31709     31712     31713
     31711     31709     31712     31714     31711     31709     31712     31715
     31716     31719     31722     31723     31716     31719     31722     31724
     31716     31719     31722     31725     31717     31716     31719     31720
     31717     31716     31719     31721     31717     31716     31719     31722
     31718     31716     31719     31720     31718     31716     31719     31721
     31718     31716     31719     31722     31719     31722     31725     31726
     31719     31722     31725     31727     31719     31722     31725     31728
     31720     31719     31722     31723     31720     31719     31722     31724
     31720     31719     31722     31725     31721     31719     31722     31723
     31721     31719     31722     31724     31721     31719     31722     31725
     31722     31725     31728     31729     31722     31725     31728     31730
     31722     31725     31728     31731     31723     31722     31725     31726
     31723     31722     31725     31727     31723     31722     31725     31728
     31724     31722     31725     31726     31724     31722     31725     31727
     31724     31722     31725     31728     31725     31728     31731     31732
     31725     31728     31731     31733     31725     31728     31731     31734
     31726     31725     31728     31729     31726     31725     31728     31730
     31726     31725     31728     31731     31727     31725     31728     31729
     31727     31725     31728     31730     31727     31725     31728     31731
     31728     31731     31734     31735     31728     31731     31734     31736
     31728     31731     31734     31737     31729     31728     31731     31732
     31729     31728     31731     31733     31729     31728     31731     31734
     31730     31728     31731     31732     31730     31728     31731     31733
     31730     31728     31731     31734     31731     31734     31737     31738
     31731     31734     31737     31739     31731     31734     31737     31740
     31732     31731     31734     31735     31732     31731     31734     31736
     31732     31731     31734     31737     31733     31731     31734     31735
     31733     31731     31734     31736     31733     31731     31734     31737
     31734     31737     31740     31741     31734     31737     31740     31742
     31734     31737     31740     31743     31735     31734     31737     31738
     31735     31734     31737     31739     31735     31734     31737     31740
     31736     31734     31737     31738     31736     31734     31737     31739
     31736     31734     31737     31740     31737     31740     31743     31744
     31737     31740     31743     31745     31737     31740     31743     31746
     31738     31737     31740     31741     31738     31737     31740     31742
     31738     31737     31740     31743     31739     31737     31740     31741
     31739     31737     31740     31742     31739     31737     31740     31743
     31740     31743     31746     31747     31740     31743     31746     31748
     31740     31743     31746     31749     31741     31740     31743     31744
     31741     31740     31743     31745     31741     31740     31743     31746
     31742     31740     31743     31744     31742     31740     31743     31745
     31742     31740     31743     31746     31743     31746     31749     31750
     31743     31746     31749     31751     31743     31746     31749     31752
     31744     31743     31746     31747     31744     31743     31746     31748
     31744     31743     31746     31749     31745     31743     31746     31747
     31745     31743     31746     31748     31745     31743     31746     31749
     31746     31749     31752     31753     31746     31749     31752     31754
     31746     31749     31752     31755     31747     31746     31749     31750
     31747     31746     31749     31751     31747     31746     31749     31752
     31748     31746     31749     31750     31748     31746     31749     31751
     31748     31746     31749     31752     31749     31752     31755     31756
     31749     31752     31755     31757     31749     31752     31755     31758
     31750     31749     31752     31753     31750     31749     31752     31754
     31750     31749     31752     31755     31751     31749     31752     31753
     31751     31749     31752     31754     31751     31749     31752     31755
     31753     31752     31755     31756     31753     31752     31755     31757
     31753     31752     31755     31758     31754     31752     31755     31756
     31754     31752     31755     31757     31754     31752     31755     31758
     31759     31760     31775     31776     31759     31760     31775     31777
     31759     31760     31775     31781     31760     31759     31763     31764
     31760     31759     31763     31765     31760     31759     31763     31766
     31760     31759     31767     31768     31760     31759     31767     31769
     31760     31759     31767     31770     31760     31759     31771     31772
     31760     31759     31771     31773     31760     31759     31771     31774
     31760     31775     31781     31778     31761     31760     31759     31763
     31761     31760     31759     31767     31761     31760     31759     31771
     31761     31760     31775     31776     31761     31760     31775     31777
     31761     31760     31775     31781     31762     31760     31759     31763
     31762     31760     31759     31767     31762     31760     31759     31771
     31762     31760     31775     31776     31762     31760     31775     31777
     31762     31760     31775     31781     31763     31759     31760     31775
     31763     31759     31767     31768     31763     31759     31767     31769
     31763     31759     31767     31770     31763     31759     31771     31772
     31763     31759     31771     31773     31763     31759     31771     31774
     31764     31763     31759     31767     31764     31763     31759     31771
     31765     31763     31759     31767     31765     31763     31759     31771
     31766     31763     31759     31767     31766     31763     31759     31771
     31767     31759     31760     31775     31767     31759     31771     31772
     31767     31759     31771     31773     31767     31759     31771     31774
     31768     31767     31759     31771     31769     31767     31759     31771
     31770     31767     31759     31771     31771     31759     31760     31775
     31775     31781     31778     31779     31775     31781     31778     31780
     31775     31781     31778     31782     31776     31775     31781     31778
     31777     31775     31781     31778     31778     31782     31783     31784
     31778     31782     31783     31785     31778     31782     31783     31786
     31779     31778     31782     31783     31780     31778     31782     31783
     31781     31778     31782     31783     31782     31783     31786     31787
     31782     31783     31786     31788     31782     31783     31786     31794
     31783     31786     31788     31789     31783     31786     31794     31795
     31783     31786     31794     31796     31783     31786     31794     31797
     31784     31783     31786     31787     31784     31783     31786     31788
     31784     31783     31786     31794     31785     31783     31786     31787
     31785     31783     31786     31788     31785     31783     31786     31794
     31786     31788     31789     31790     31786     31788     31789     31791
     31786     31794     31797     31798     31787     31786     31788     31789
     31787     31786     31794     31795     31787     31786     31794     31796
     31787     31786     31794     31797     31788     31786     31794     31795
     31788     31786     31794     31796     31788     31786     31794     31797
     31788     31789     31791     31792     31788     31789     31791     31793
     31788     31789     31791     31803     31789     31788     31786     31794
     31789     31791     31803     31804     31789     31791     31803     31805
     31789     31791     31803     31806     31790     31789     31791     31792
     31790     31789     31791     31793     31790     31789     31791     31803
     31791     31803     31806     31807     31791     31803     31806     31808
     31791     31803     31806     31809     31792     31791     31803     31804
     31792     31791     31803     31805     31792     31791     31803     31806
     31793     31791     31803     31804     31793     31791     31803     31805
     31793     31791     31803     31806     31794     31797     31798     31799
     31794     31797     31798     31800     31795     31794     31797     31798
     31796     31794     31797     31798     31797     31798     31800     31801
     31797     31798     31800     31802     31797     31798     31800     31850
     31798     31800     31850     31851     31798     31800     31850     31852
     31798     31800     31850     31853     31799     31798     31800     31801
     31799     31798     31800     31802     31799     31798     31800     31850
     31800     31850     31853     31854     31800     31850     31853     31855
     31800     31850     31853     31856     31801     31800     31850     31851
     31801     31800     31850     31852     31801     31800     31850     31853
     31802     31800     31850     31851     31802     31800     31850     31852
     31802     31800     31850     31853     31803     31806     31809     31810
     31803     31806     31809     31811     31803     31806     31809     31812
     31804     31803     31806     31807     31804     31803     31806     31808
     31804     31803     31806     31809     31805     31803     31806     31807
     31805     31803     31806     31808     31805     31803     31806     31809
     31806     31809     31812     31813     31806     31809     31812     31814
     31806     31809     31812     31815     31807     31806     31809     31810
     31807     31806     31809     31811     31807     31806     31809     31812
     31808     31806     31809     31810     31808     31806     31809     31811
     31808     31806     31809     31812     31809     31812     31815     31816
     31809     31812     31815     31817     31809     31812     31815     31818
     31810     31809     31812     31813     31810     31809     31812     31814
     31810     31809     31812     31815     31811     31809     31812     31813
     31811     31809     31812     31814     31811     31809     31812     31815
     31812     31815     31818     31819     31812     31815     31818     31820
     31812     31815     31818     31821     31813     31812     31815     31816
     31813     31812     31815     31817     31813     31812     31815     31818
     31814     31812     31815     31816     31814     31812     31815     31817
     31814     31812     31815     31818     31815     31818     31821     31822
     31815     31818     31821     31823     31816     31815     31818     31819
     31816     31815     31818     31820     31816     31815     31818     31821
     31817     31815     31818     31819     31817     31815     31818     31820
     31817     31815     31818     31821     31818     31821     31823     31824
     31818     31821     31823     31825     31819     31818     31821     31822
     31819     31818     31821     31823     31820     31818     31821     31822
     31820     31818     31821     31823     31821     31823     31825     31826
     31821     31823     31825     31827     31821     31823     31825     31828
     31822     31821     31823     31824     31822     31821     31823     31825
     31823     31825     31828     31829     31823     31825     31828     31830
     31823     31825     31828     31831     31824     31823     31825     31826
     31824     31823     31825     31827     31824     31823     31825     31828
     31825     31828     31831     31832     31825     31828     31831     31833
     31825     31828     31831     31834     31826     31825     31828     31829
     31826     31825     31828     31830     31826     31825     31828     31831
     31827     31825     31828     31829     31827     31825     31828     31830
     31827     31825     31828     31831     31828     31831     31834     31835
     31828     31831     31834     31836     31828     31831     31834     31837
     31829     31828     31831     31832     31829     31828     31831     31833
     31829     31828     31831     31834     31830     31828     31831     31832
     31830     31828     31831     31833     31830     31828     31831     31834
     31831     31834     31837     31838     31831     31834     31837     31839
     31831     31834     31837     31840     31832     31831     31834     31835
     31832     31831     31834     31836     31832     31831     31834     31837
     31833     31831     31834     31835     31833     31831     31834     31836
     31833     31831     31834     31837     31834     31837     31840     31841
     31834     31837     31840     31842     31834     31837     31840     31843
     31835     31834     31837     31838     31835     31834     31837     31839
     31835     31834     31837     31840     31836     31834     31837     31838
     31836     31834     31837     31839     31836     31834     31837     31840
     31837     31840     31843     31844     31837     31840     31843     31845
     31837     31840     31843     31846     31838     31837     31840     31841
     31838     31837     31840     31842     31838     31837     31840     31843
     31839     31837     31840     31841     31839     31837     31840     31842
     31839     31837     31840     31843     31840     31843     31846     31847
     31840     31843     31846     31848     31840     31843     31846     31849
     31841     31840     31843     31844     31841     31840     31843     31845
     31841     31840     31843     31846     31842     31840     31843     31844
     31842     31840     31843     31845     31842     31840     31843     31846
     31844     31843     31846     31847     31844     31843     31846     31848
     31844     31843     31846     31849     31845     31843     31846     31847
     31845     31843     31846     31848     31845     31843     31846     31849
     31850     31853     31856     31857     31850     31853     31856     31858
     31850     31853     31856     31859     31851     31850     31853     31854
     31851     31850     31853     31855     31851     31850     31853     31856
     31852     31850     31853     31854     31852     31850     31853     31855
     31852     31850     31853     31856     31853     31856     31859     31860
     31853     31856     31859     31861     31853     31856     31859     31862
     31854     31853     31856     31857     31854     31853     31856     31858
     31854     31853     31856     31859     31855     31853     31856     31857
     31855     31853     31856     31858     31855     31853     31856     31859
     31856     31859     31862     31863     31856     31859     31862     31864
     31856     31859     31862     31865     31857     31856     31859     31860
     31857     31856     31859     31861     31857     31856     31859     31862
     31858     31856     31859     31860     31858     31856     31859     31861
     31858     31856     31859     31862     31859     31862     31865     31866
     31859     31862     31865     31867     31859     31862     31865     31868
     31860     31859     31862     31863     31860     31859     31862     31864
     31860     31859     31862     31865     31861     31859     31862     31863
     31861     31859     31862     31864     31861     31859     31862     31865
     31862     31865     31868     31869     31862     31865     31868     31870
     31862     31865     31868     31871     31863     31862     31865     31866
     31863     31862     31865     31867     31863     31862     31865     31868
     31864     31862     31865     31866     31864     31862     31865     31867
     31864     31862     31865     31868     31865     31868     31871     31872
     31865     31868     31871     31873     31865     31868     31871     31874
     31866     31865     31868     31869     31866     31865     31868     31870
     31866     31865     31868     31871     31867     31865     31868     31869
     31867     31865     31868     31870     31867     31865     31868     31871
     31868     31871     31874     31875     31868     31871     31874     31876
     31868     31871     31874     31877     31869     31868     31871     31872
     31869     31868     31871     31873     31869     31868     31871     31874
     31870     31868     31871     31872     31870     31868     31871     31873
     31870     31868     31871     31874     31871     31874     31877     31878
     31871     31874     31877     31879     31871     31874     31877     31880
     31872     31871     31874     31875     31872     31871     31874     31876
     31872     31871     31874     31877     31873     31871     31874     31875
     31873     31871     31874     31876     31873     31871     31874     31877
     31874     31877     31880     31881     31874     31877     31880     31882
     31874     31877     31880     31883     31875     31874     31877     31878
     31875     31874     31877     31879     31875     31874     31877     31880
     31876     31874     31877     31878     31876     31874     31877     31879
     31876     31874     31877     31880     31877     31880     31883     31884
     31877     31880     31883     31885     31877     31880     31883     31886
     31878     31877     31880     31881     31878     31877     31880     31882
     31878     31877     31880     31883     31879     31877     31880     31881
     31879     31877     31880     31882     31879     31877     31880     31883
     31880     31883     31886     31887     31880     31883     31886     31888
     31880     31883     31886     31889     31881     31880     31883     31884
     31881     31880     31883     31885     31881     31880     31883     31886
     31882     31880     31883     31884     31882     31880     31883     31885
     31882     31880     31883     31886     31883     31886     31889     31890
     31883     31886     31889     31891     31883     31886     31889     31892
     31884     31883     31886     31887     31884     31883     31886     31888
     31884     31883     31886     31889     31885     31883     31886     31887
     31885     31883     31886     31888     31885     31883     31886     31889
     31887     31886     31889     31890     31887     31886     31889     31891
     31887     31886     31889     31892     31888     31886     31889     31890
     31888     31886     31889     31891     31888     31886     31889     31892
     31893     31894     31909     31910     31893     31894     31909     31911
     31893     31894     31909     31915     31894     31893     31897     31898
     31894     31893     31897     31899     31894     31893     31897     31900
     31894     31893     31901     31902     31894     31893     31901     31903
     31894     31893     31901     31904     31894     31893     31905     31906
     31894     31893     31905     31907     31894     31893     31905     31908
     31894     31909     31915     31912     31895     31894     31893     31897
     31895     31894     31893     31901     31895     31894     31893     31905
     31895     31894     31909     31910     31895     31894     31909     31911
     31895     31894     31909     31915     31896     31894     31893     31897
     31896     31894     31893     31901     31896     31894     31893     31905
     31896     31894     31909     31910     31896     31894     31909     31911
     31896     31894     31909     31915     31897     31893     31894     31909
     31897     31893     31901     31902     31897     31893     31901     31903
     31897     31893     31901     31904     31897     31893     31905     31906
     31897     31893     31905     31907     31897     31893     31905     31908
     31898     31897     31893     31901     31898     31897     31893     31905
     31899     31897     31893     31901     31899     31897     31893     31905
     31900     31897     31893     31901     31900     31897     31893     31905
     31901     31893     31894     31909     31901     31893     31905     31906
     31901     31893     31905     31907     31901     31893     31905     31908
     31902     31901     31893     31905     31903     31901     31893     31905
     31904     31901     31893     31905     31905     31893     31894     31909
     31909     31915     31912     31913     31909     31915     31912     31914
     31909     31915     31912     31916     31910     31909     31915     31912
     31911     31909     31915     31912     31912     31916     31917     31918
     31912     31916     31917     31919     31912     31916     31917     31920
     31913     31912     31916     31917     31914     31912     31916     31917
     31915     31912     31916     31917     31916     31917     31920     31921
     31916     31917     31920     31922     31916     31917     31920     31928
     31917     31920     31922     31923     31917     31920     31928     31929
     31917     31920     31928     31930     31917     31920     31928     31931
     31918     31917     31920     31921     31918     31917     31920     31922
     31918     31917     31920     31928     31919     31917     31920     31921
     31919     31917     31920     31922     31919     31917     31920     31928
     31920     31922     31923     31924     31920     31922     31923     31925
     31920     31928     31931     31932     31921     31920     31922     31923
     31921     31920     31928     31929     31921     31920     31928     31930
     31921     31920     31928     31931     31922     31920     31928     31929
     31922     31920     31928     31930     31922     31920     31928     31931
     31922     31923     31925     31926     31922     31923     31925     31927
     31922     31923     31925     31937     31923     31922     31920     31928
     31923     31925     31937     31938     31923     31925     31937     31939
     31923     31925     31937     31940     31924     31923     31925     31926
     31924     31923     31925     31927     31924     31923     31925     31937
     31925     31937     31940     31941     31925     31937     31940     31942
     31925     31937     31940     31943     31926     31925     31937     31938
     31926     31925     31937     31939     31926     31925     31937     31940
     31927     31925     31937     31938     31927     31925     31937     31939
     31927     31925     31937     31940     31928     31931     31932     31933
     31928     31931     31932     31934     31929     31928     31931     31932
     31930     31928     31931     31932     31931     31932     31934     31935
     31931     31932     31934     31936     31931     31932     31934     31984
     31932     31934     31984     31985     31932     31934     31984     31986
     31932     31934     31984     31987     31933     31932     31934     31935
     31933     31932     31934     31936     31933     31932     31934     31984
     31934     31984     31987     31988     31934     31984     31987     31989
     31934     31984     31987     31990     31935     31934     31984     31985
     31935     31934     31984     31986     31935     31934     31984     31987
     31936     31934     31984     31985     31936     31934     31984     31986
     31936     31934     31984     31987     31937     31940     31943     31944
     31937     31940     31943     31945     31937     31940     31943     31946
     31938     31937     31940     31941     31938     31937     31940     31942
     31938     31937     31940     31943     31939     31937     31940     31941
     31939     31937     31940     31942     31939     31937     31940     31943
     31940     31943     31946     31947     31940     31943     31946     31948
     31940     31943     31946     31949     31941     31940     31943     31944
     31941     31940     31943     31945     31941     31940     31943     31946
     31942     31940     31943     31944     31942     31940     31943     31945
     31942     31940     31943     31946     31943     31946     31949     31950
     31943     31946     31949     31951     31943     31946     31949     31952
     31944     31943     31946     31947     31944     31943     31946     31948
     31944     31943     31946     31949     31945     31943     31946     31947
     31945     31943     31946     31948     31945     31943     31946     31949
     31946     31949     31952     31953     31946     31949     31952     31954
     31946     31949     31952     31955     31947     31946     31949     31950
     31947     31946     31949     31951     31947     31946     31949     31952
     31948     31946     31949     31950     31948     31946     31949     31951
     31948     31946     31949     31952     31949     31952     31955     31956
     31949     31952     31955     31957     31950     31949     31952     31953
     31950     31949     31952     31954     31950     31949     31952     31955
     31951     31949     31952     31953     31951     31949     31952     31954
     31951     31949     31952     31955     31952     31955     31957     31958
     31952     31955     31957     31959     31953     31952     31955     31956
     31953     31952     31955     31957     31954     31952     31955     31956
     31954     31952     31955     31957     31955     31957     31959     31960
     31955     31957     31959     31961     31955     31957     31959     31962
     31956     31955     31957     31958     31956     31955     31957     31959
     31957     31959     31962     31963     31957     31959     31962     31964
     31957     31959     31962     31965     31958     31957     31959     31960
     31958     31957     31959     31961     31958     31957     31959     31962
     31959     31962     31965     31966     31959     31962     31965     31967
     31959     31962     31965     31968     31960     31959     31962     31963
     31960     31959     31962     31964     31960     31959     31962     31965
     31961     31959     31962     31963     31961     31959     31962     31964
     31961     31959     31962     31965     31962     31965     31968     31969
     31962     31965     31968     31970     31962     31965     31968     31971
     31963     31962     31965     31966     31963     31962     31965     31967
     31963     31962     31965     31968     31964     31962     31965     31966
     31964     31962     31965     31967     31964     31962     31965     31968
     31965     31968     31971     31972     31965     31968     31971     31973
     31965     31968     31971     31974     31966     31965     31968     31969
     31966     31965     31968     31970     31966     31965     31968     31971
     31967     31965     31968     31969     31967     31965     31968     31970
     31967     31965     31968     31971     31968     31971     31974     31975
     31968     31971     31974     31976     31968     31971     31974     31977
     31969     31968     31971     31972     31969     31968     31971     31973
     31969     31968     31971     31974     31970     31968     31971     31972
     31970     31968     31971     31973     31970     31968     31971     31974
     31971     31974     31977     31978     31971     31974     31977     31979
     31971     31974     31977     31980     31972     31971     31974     31975
     31972     31971     31974     31976     31972     31971     31974     31977
     31973     31971     31974     31975     31973     31971     31974     31976
     31973     31971     31974     31977     31974     31977     31980     31981
     31974     31977     31980     31982     31974     31977     31980     31983
     31975     31974     31977     31978     31975     31974     31977     31979
     31975     31974     31977     31980     31976     31974     31977     31978
     31976     31974     31977     31979     31976     31974     31977     31980
     31978     31977     31980     31981     31978     31977     31980     31982
     31978     31977     31980     31983     31979     31977     31980     31981
     31979     31977     31980     31982     31979     31977     31980     31983
     31984     31987     31990     31991     31984     31987     31990     31992
     31984     31987     31990     31993     31985     31984     31987     31988
     31985     31984     31987     31989     31985     31984     31987     31990
     31986     31984     31987     31988     31986     31984     31987     31989
     31986     31984     31987     31990     31987     31990     31993     31994
     31987     31990     31993     31995     31987     31990     31993     31996
     31988     31987     31990     31991     31988     31987     31990     31992
     31988     31987     31990     31993     31989     31987     31990     31991
     31989     31987     31990     31992     31989     31987     31990     31993
     31990     31993     31996     31997     31990     31993     31996     31998
     31990     31993     31996     31999     31991     31990     31993     31994
     31991     31990     31993     31995     31991     31990     31993     31996
     31992     31990     31993     31994     31992     31990     31993     31995
     31992     31990     31993     31996     31993     31996     31999     32000
     31993     31996     31999     32001     31993     31996     31999     32002
     31994     31993     31996     31997     31994     31993     31996     31998
     31994     31993     31996     31999     31995     31993     31996     31997
     31995     31993     31996     31998     31995     31993     31996     31999
     31996     31999     32002     32003     31996     31999     32002     32004
     31996     31999     32002     32005     31997     31996     31999     32000
     31997     31996     31999     32001     31997     31996     31999     32002
     31998     31996     31999     32000     31998     31996     31999     32001
     31998     31996     31999     32002     31999     32002     32005     32006
     31999     32002     32005     32007     31999     32002     32005     32008
     32000     31999     32002     32003     32000     31999     32002     32004
     32000     31999     32002     32005     32001     31999     32002     32003
     32001     31999     32002     32004     32001     31999     32002     32005
     32002     32005     32008     32009     32002     32005     32008     32010
     32002     32005     32008     32011     32003     32002     32005     32006
     32003     32002     32005     32007     32003     32002     32005     32008
     32004     32002     32005     32006     32004     32002     32005     32007
     32004     32002     32005     32008     32005     32008     32011     32012
     32005     32008     32011     32013     32005     32008     32011     32014
     32006     32005     32008     32009     32006     32005     32008     32010
     32006     32005     32008     32011     32007     32005     32008     32009
     32007     32005     32008     32010     32007     32005     32008     32011
     32008     32011     32014     32015     32008     32011     32014     32016
     32008     32011     32014     32017     32009     32008     32011     32012
     32009     32008     32011     32013     32009     32008     32011     32014
     32010     32008     32011     32012     32010     32008     32011     32013
     32010     32008     32011     32014     32011     32014     32017     32018
     32011     32014     32017     32019     32011     32014     32017     32020
     32012     32011     32014     32015     32012     32011     32014     32016
     32012     32011     32014     32017     32013     32011     32014     32015
     32013     32011     32014     32016     32013     32011     32014     32017
     32014     32017     32020     32021     32014     32017     32020     32022
     32014     32017     32020     32023     32015     32014     32017     32018
     32015     32014     32017     32019     32015     32014     32017     32020
     32016     32014     32017     32018     32016     32014     32017     32019
     32016     32014     32017     32020     32017     32020     32023     32024
     32017     32020     32023     32025     32017     32020     32023     32026
     32018     32017     32020     32021     32018     32017     32020     32022
     32018     32017     32020     32023     32019     32017     32020     32021
     32019     32017     32020     32022     32019     32017     32020     32023
     32021     32020     32023     32024     32021     32020     32023     32025
     32021     32020     32023     32026     32022     32020     32023     32024
     32022     32020     32023     32025     32022     32020     32023     32026
     32027     32028     32043     32044     32027     32028     32043     32045
     32027     32028     32043     32049     32028     32027     32031     32032
     32028     32027     32031     32033     32028     32027     32031     32034
     32028     32027     32035     32036     32028     32027     32035     32037
     32028     32027     32035     32038     32028     32027     32039     32040
     32028     32027     32039     32041     32028     32027     32039     32042
     32028     32043     32049     32046     32029     32028     32027     32031
     32029     32028     32027     32035     32029     32028     32027     32039
     32029     32028     32043     32044     32029     32028     32043     32045
     32029     32028     32043     32049     32030     32028     32027     32031
     32030     32028     32027     32035     32030     32028     32027     32039
     32030     32028     32043     32044     32030     32028     32043     32045
     32030     32028     32043     32049     32031     32027     32028     32043
     32031     32027     32035     32036     32031     32027     32035     32037
     32031     32027     32035     32038     32031     32027     32039     32040
     32031     32027     32039     32041     32031     32027     32039     32042
     32032     32031     32027     32035     32032     32031     32027     32039
     32033     32031     32027     32035     32033     32031     32027     32039
     32034     32031     32027     32035     32034     32031     32027     32039
     32035     32027     32028     32043     32035     32027     32039     32040
     32035     32027     32039     32041     32035     32027     32039     32042
     32036     32035     32027     32039     32037     32035     32027     32039
     32038     32035     32027     32039     32039     32027     32028     32043
     32043     32049     32046     32047     32043     32049     32046     32048
     32043     32049     32046     32050     32044     32043     32049     32046
     32045     32043     32049     32046     32046     32050     32051     32052
     32046     32050     32051     32053     32046     32050     32051     32054
     32047     32046     32050     32051     32048     32046     32050     32051
     32049     32046     32050     32051     32050     32051     32054     32055
     32050     32051     32054     32056     32050     32051     32054     32062
     32051     32054     32056     32057     32051     32054     32062     32063
     32051     32054     32062     32064     32051     32054     32062     32065
     32052     32051     32054     32055     32052     32051     32054     32056
     32052     32051     32054     32062     32053     32051     32054     32055
     32053     32051     32054     32056     32053     32051     32054     32062
     32054     32056     32057     32058     32054     32056     32057     32059
     32054     32062     32065     32066     32055     32054     32056     32057
     32055     32054     32062     32063     32055     32054     32062     32064
     32055     32054     32062     32065     32056     32054     32062     32063
     32056     32054     32062     32064     32056     32054     32062     32065
     32056     32057     32059     32060     32056     32057     32059     32061
     32056     32057     32059     32071     32057     32056     32054     32062
     32057     32059     32071     32072     32057     32059     32071     32073
     32057     32059     32071     32074     32058     32057     32059     32060
     32058     32057     32059     32061     32058     32057     32059     32071
     32059     32071     32074     32075     32059     32071     32074     32076
     32059     32071     32074     32077     32060     32059     32071     32072
     32060     32059     32071     32073     32060     32059     32071     32074
     32061     32059     32071     32072     32061     32059     32071     32073
     32061     32059     32071     32074     32062     32065     32066     32067
     32062     32065     32066     32068     32063     32062     32065     32066
     32064     32062     32065     32066     32065     32066     32068     32069
     32065     32066     32068     32070     32065     32066     32068     32118
     32066     32068     32118     32119     32066     32068     32118     32120
     32066     32068     32118     32121     32067     32066     32068     32069
     32067     32066     32068     32070     32067     32066     32068     32118
     32068     32118     32121     32122     32068     32118     32121     32123
     32068     32118     32121     32124     32069     32068     32118     32119
     32069     32068     32118     32120     32069     32068     32118     32121
     32070     32068     32118     32119     32070     32068     32118     32120
     32070     32068     32118     32121     32071     32074     32077     32078
     32071     32074     32077     32079     32071     32074     32077     32080
     32072     32071     32074     32075     32072     32071     32074     32076
     32072     32071     32074     32077     32073     32071     32074     32075
     32073     32071     32074     32076     32073     32071     32074     32077
     32074     32077     32080     32081     32074     32077     32080     32082
     32074     32077     32080     32083     32075     32074     32077     32078
     32075     32074     32077     32079     32075     32074     32077     32080
     32076     32074     32077     32078     32076     32074     32077     32079
     32076     32074     32077     32080     32077     32080     32083     32084
     32077     32080     32083     32085     32077     32080     32083     32086
     32078     32077     32080     32081     32078     32077     32080     32082
     32078     32077     32080     32083     32079     32077     32080     32081
     32079     32077     32080     32082     32079     32077     32080     32083
     32080     32083     32086     32087     32080     32083     32086     32088
     32080     32083     32086     32089     32081     32080     32083     32084
     32081     32080     32083     32085     32081     32080     32083     32086
     32082     32080     32083     32084     32082     32080     32083     32085
     32082     32080     32083     32086     32083     32086     32089     32090
     32083     32086     32089     32091     32084     32083     32086     32087
     32084     32083     32086     32088     32084     32083     32086     32089
     32085     32083     32086     32087     32085     32083     32086     32088
     32085     32083     32086     32089     32086     32089     32091     32092
     32086     32089     32091     32093     32087     32086     32089     32090
     32087     32086     32089     32091     32088     32086     32089     32090
     32088     32086     32089     32091     32089     32091     32093     32094
     32089     32091     32093     32095     32089     32091     32093     32096
     32090     32089     32091     32092     32090     32089     32091     32093
     32091     32093     32096     32097     32091     32093     32096     32098
     32091     32093     32096     32099     32092     32091     32093     32094
     32092     32091     32093     32095     32092     32091     32093     32096
     32093     32096     32099     32100     32093     32096     32099     32101
     32093     32096     32099     32102     32094     32093     32096     32097
     32094     32093     32096     32098     32094     32093     32096     32099
     32095     32093     32096     32097     32095     32093     32096     32098
     32095     32093     32096     32099     32096     32099     32102     32103
     32096     32099     32102     32104     32096     32099     32102     32105
     32097     32096     32099     32100     32097     32096     32099     32101
     32097     32096     32099     32102     32098     32096     32099     32100
     32098     32096     32099     32101     32098     32096     32099     32102
     32099     32102     32105     32106     32099     32102     32105     32107
     32099     32102     32105     32108     32100     32099     32102     32103
     32100     32099     32102     32104     32100     32099     32102     32105
     32101     32099     32102     32103     32101     32099     32102     32104
     32101     32099     32102     32105     32102     32105     32108     32109
     32102     32105     32108     32110     32102     32105     32108     32111
     32103     32102     32105     32106     32103     32102     32105     32107
     32103     32102     32105     32108     32104     32102     32105     32106
     32104     32102     32105     32107     32104     32102     32105     32108
     32105     32108     32111     32112     32105     32108     32111     32113
     32105     32108     32111     32114     32106     32105     32108     32109
     32106     32105     32108     32110     32106     32105     32108     32111
     32107     32105     32108     32109     32107     32105     32108     32110
     32107     32105     32108     32111     32108     32111     32114     32115
     32108     32111     32114     32116     32108     32111     32114     32117
     32109     32108     32111     32112     32109     32108     32111     32113
     32109     32108     32111     32114     32110     32108     32111     32112
     32110     32108     32111     32113     32110     32108     32111     32114
     32112     32111     32114     32115     32112     32111     32114     32116
     32112     32111     32114     32117     32113     32111     32114     32115
     32113     32111     32114     32116     32113     32111     32114     32117
     32118     32121     32124     32125     32118     32121     32124     32126
     32118     32121     32124     32127     32119     32118     32121     32122
     32119     32118     32121     32123     32119     32118     32121     32124
     32120     32118     32121     32122     32120     32118     32121     32123
     32120     32118     32121     32124     32121     32124     32127     32128
     32121     32124     32127     32129     32121     32124     32127     32130
     32122     32121     32124     32125     32122     32121     32124     32126
     32122     32121     32124     32127     32123     32121     32124     32125
     32123     32121     32124     32126     32123     32121     32124     32127
     32124     32127     32130     32131     32124     32127     32130     32132
     32124     32127     32130     32133     32125     32124     32127     32128
     32125     32124     32127     32129     32125     32124     32127     32130
     32126     32124     32127     32128     32126     32124     32127     32129
     32126     32124     32127     32130     32127     32130     32133     32134
     32127     32130     32133     32135     32127     32130     32133     32136
     32128     32127     32130     32131     32128     32127     32130     32132
     32128     32127     32130     32133     32129     32127     32130     32131
     32129     32127     32130     32132     32129     32127     32130     32133
     32130     32133     32136     32137     32130     32133     32136     32138
     32130     32133     32136     32139     32131     32130     32133     32134
     32131     32130     32133     32135     32131     32130     32133     32136
     32132     32130     32133     32134     32132     32130     32133     32135
     32132     32130     32133     32136     32133     32136     32139     32140
     32133     32136     32139     32141     32133     32136     32139     32142
     32134     32133     32136     32137     32134     32133     32136     32138
     32134     32133     32136     32139     32135     32133     32136     32137
     32135     32133     32136     32138     32135     32133     32136     32139
     32136     32139     32142     32143     32136     32139     32142     32144
     32136     32139     32142     32145     32137     32136     32139     32140
     32137     32136     32139     32141     32137     32136     32139     32142
     32138     32136     32139     32140     32138     32136     32139     32141
     32138     32136     32139     32142     32139     32142     32145     32146
     32139     32142     32145     32147     32139     32142     32145     32148
     32140     32139     32142     32143     32140     32139     32142     32144
     32140     32139     32142     32145     32141     32139     32142     32143
     32141     32139     32142     32144     32141     32139     32142     32145
     32142     32145     32148     32149     32142     32145     32148     32150
     32142     32145     32148     32151     32143     32142     32145     32146
     32143     32142     32145     32147     32143     32142     32145     32148
     32144     32142     32145     32146     32144     32142     32145     32147
     32144     32142     32145     32148     32145     32148     32151     32152
     32145     32148     32151     32153     32145     32148     32151     32154
     32146     32145     32148     32149     32146     32145     32148     32150
     32146     32145     32148     32151     32147     32145     32148     32149
     32147     32145     32148     32150     32147     32145     32148     32151
     32148     32151     32154     32155     32148     32151     32154     32156
     32148     32151     32154     32157     32149     32148     32151     32152
     32149     32148     32151     32153     32149     32148     32151     32154
     32150     32148     32151     32152     32150     32148     32151     32153
     32150     32148     32151     32154     32151     32154     32157     32158
     32151     32154     32157     32159     32151     32154     32157     32160
     32152     32151     32154     32155     32152     32151     32154     32156
     32152     32151     32154     32157     32153     32151     32154     32155
     32153     32151     32154     32156     32153     32151     32154     32157
     32155     32154     32157     32158     32155     32154     32157     32159
     32155     32154     32157     32160     32156     32154     32157     32158
     32156     32154     32157     32159     32156     32154     32157     32160
     32161     32162     32177     32178     32161     32162     32177     32179
     32161     32162     32177     32183     32162     32161     32165     32166
     32162     32161     32165     32167     32162     32161     32165     32168
     32162     32161     32169     32170     32162     32161     32169     32171
     32162     32161     32169     32172     32162     32161     32173     32174
     32162     32161     32173     32175     32162     32161     32173     32176
     32162     32177     32183     32180     32163     32162     32161     32165
     32163     32162     32161     32169     32163     32162     32161     32173
     32163     32162     32177     32178     32163     32162     32177     32179
     32163     32162     32177     32183     32164     32162     32161     32165
     32164     32162     32161     32169     32164     32162     32161     32173
     32164     32162     32177     32178     32164     32162     32177     32179
     32164     32162     32177     32183     32165     32161     32162     32177
     32165     32161     32169     32170     32165     32161     32169     32171
     32165     32161     32169     32172     32165     32161     32173     32174
     32165     32161     32173     32175     32165     32161     32173     32176
     32166     32165     32161     32169     32166     32165     32161     32173
     32167     32165     32161     32169     32167     32165     32161     32173
     32168     32165     32161     32169     32168     32165     32161     32173
     32169     32161     32162     32177     32169     32161     32173     32174
     32169     32161     32173     32175     32169     32161     32173     32176
     32170     32169     32161     32173     32171     32169     32161     32173
     32172     32169     32161     32173     32173     32161     32162     32177
     32177     32183     32180     32181     32177     32183     32180     32182
     32177     32183     32180     32184     32178     32177     32183     32180
     32179     32177     32183     32180     32180     32184     32185     32186
     32180     32184     32185     32187     32180     32184     32185     32188
     32181     32180     32184     32185     32182     32180     32184     32185
     32183     32180     32184     32185     32184     32185     32188     32189
     32184     32185     32188     32190     32184     32185     32188     32196
     32185     32188     32190     32191     32185     32188     32196     32197
     32185     32188     32196     32198     32185     32188     32196     32199
     32186     32185     32188     32189     32186     32185     32188     32190
     32186     32185     32188     32196     32187     32185     32188     32189
     32187     32185     32188     32190     32187     32185     32188     32196
     32188     32190     32191     32192     32188     32190     32191     32193
     32188     32196     32199     32200     32189     32188     32190     32191
     32189     32188     32196     32197     32189     32188     32196     32198
     32189     32188     32196     32199     32190     32188     32196     32197
     32190     32188     32196     32198     32190     32188     32196     32199
     32190     32191     32193     32194     32190     32191     32193     32195
     32190     32191     32193     32205     32191     32190     32188     32196
     32191     32193     32205     32206     32191     32193     32205     32207
     32191     32193     32205     32208     32192     32191     32193     32194
     32192     32191     32193     32195     32192     32191     32193     32205
     32193     32205     32208     32209     32193     32205     32208     32210
     32193     32205     32208     32211     32194     32193     32205     32206
     32194     32193     32205     32207     32194     32193     32205     32208
     32195     32193     32205     32206     32195     32193     32205     32207
     32195     32193     32205     32208     32196     32199     32200     32201
     32196     32199     32200     32202     32197     32196     32199     32200
     32198     32196     32199     32200     32199     32200     32202     32203
     32199     32200     32202     32204     32199     32200     32202     32252
     32200     32202     32252     32253     32200     32202     32252     32254
     32200     32202     32252     32255     32201     32200     32202     32203
     32201     32200     32202     32204     32201     32200     32202     32252
     32202     32252     32255     32256     32202     32252     32255     32257
     32202     32252     32255     32258     32203     32202     32252     32253
     32203     32202     32252     32254     32203     32202     32252     32255
     32204     32202     32252     32253     32204     32202     32252     32254
     32204     32202     32252     32255     32205     32208     32211     32212
     32205     32208     32211     32213     32205     32208     32211     32214
     32206     32205     32208     32209     32206     32205     32208     32210
     32206     32205     32208     32211     32207     32205     32208     32209
     32207     32205     32208     32210     32207     32205     32208     32211
     32208     32211     32214     32215     32208     32211     32214     32216
     32208     32211     32214     32217     32209     32208     32211     32212
     32209     32208     32211     32213     32209     32208     32211     32214
     32210     32208     32211     32212     32210     32208     32211     32213
     32210     32208     32211     32214     32211     32214     32217     32218
     32211     32214     32217     32219     32211     32214     32217     32220
     32212     32211     32214     32215     32212     32211     32214     32216
     32212     32211     32214     32217     32213     32211     32214     32215
     32213     32211     32214     32216     32213     32211     32214     32217
     32214     32217     32220     32221     32214     32217     32220     32222
     32214     32217     32220     32223     32215     32214     32217     32218
     32215     32214     32217     32219     32215     32214     32217     32220
     32216     32214     32217     32218     32216     32214     32217     32219
     32216     32214     32217     32220     32217     32220     32223     32224
     32217     32220     32223     32225     32218     32217     32220     32221
     32218     32217     32220     32222     32218     32217     32220     32223
     32219     32217     32220     32221     32219     32217     32220     32222
     32219     32217     32220     32223     32220     32223     32225     32226
     32220     32223     32225     32227     32221     32220     32223     32224
     32221     32220     32223     32225     32222     32220     32223     32224
     32222     32220     32223     32225     32223     32225     32227     32228
     32223     32225     32227     32229     32223     32225     32227     32230
     32224     32223     32225     32226     32224     32223     32225     32227
     32225     32227     32230     32231     32225     32227     32230     32232
     32225     32227     32230     32233     32226     32225     32227     32228
     32226     32225     32227     32229     32226     32225     32227     32230
     32227     32230     32233     32234     32227     32230     32233     32235
     32227     32230     32233     32236     32228     32227     32230     32231
     32228     32227     32230     32232     32228     32227     32230     32233
     32229     32227     32230     32231     32229     32227     32230     32232
     32229     32227     32230     32233     32230     32233     32236     32237
     32230     32233     32236     32238     32230     32233     32236     32239
     32231     32230     32233     32234     32231     32230     32233     32235
     32231     32230     32233     32236     32232     32230     32233     32234
     32232     32230     32233     32235     32232     32230     32233     32236
     32233     32236     32239     32240     32233     32236     32239     32241
     32233     32236     32239     32242     32234     32233     32236     32237
     32234     32233     32236     32238     32234     32233     32236     32239
     32235     32233     32236     32237     32235     32233     32236     32238
     32235     32233     32236     32239     32236     32239     32242     32243
     32236     32239     32242     32244     32236     32239     32242     32245
     32237     32236     32239     32240     32237     32236     32239     32241
     32237     32236     32239     32242     32238     32236     32239     32240
     32238     32236     32239     32241     32238     32236     32239     32242
     32239     32242     32245     32246     32239     32242     32245     32247
     32239     32242     32245     32248     32240     32239     32242     32243
     32240     32239     32242     32244     32240     32239     32242     32245
     32241     32239     32242     32243     32241     32239     32242     32244
     32241     32239     32242     32245     32242     32245     32248     32249
     32242     32245     32248     32250     32242     32245     32248     32251
     32243     32242     32245     32246     32243     32242     32245     32247
     32243     32242     32245     32248     32244     32242     32245     32246
     32244     32242     32245     32247     32244     32242     32245     32248
     32246     32245     32248     32249     32246     32245     32248     32250
     32246     32245     32248     32251     32247     32245     32248     32249
     32247     32245     32248     32250     32247     32245     32248     32251
     32252     32255     32258     32259     32252     32255     32258     32260
     32252     32255     32258     32261     32253     32252     32255     32256
     32253     32252     32255     32257     32253     32252     32255     32258
     32254     32252     32255     32256     32254     32252     32255     32257
     32254     32252     32255     32258     32255     32258     32261     32262
     32255     32258     32261     32263     32255     32258     32261     32264
     32256     32255     32258     32259     32256     32255     32258     32260
     32256     32255     32258     32261     32257     32255     32258     32259
     32257     32255     32258     32260     32257     32255     32258     32261
     32258     32261     32264     32265     32258     32261     32264     32266
     32258     32261     32264     32267     32259     32258     32261     32262
     32259     32258     32261     32263     32259     32258     32261     32264
     32260     32258     32261     32262     32260     32258     32261     32263
     32260     32258     32261     32264     32261     32264     32267     32268
     32261     32264     32267     32269     32261     32264     32267     32270
     32262     32261     32264     32265     32262     32261     32264     32266
     32262     32261     32264     32267     32263     32261     32264     32265
     32263     32261     32264     32266     32263     32261     32264     32267
     32264     32267     32270     32271     32264     32267     32270     32272
     32264     32267     32270     32273     32265     32264     32267     32268
     32265     32264     32267     32269     32265     32264     32267     32270
     32266     32264     32267     32268     32266     32264     32267     32269
     32266     32264     32267     32270     32267     32270     32273     32274
     32267     32270     32273     32275     32267     32270     32273     32276
     32268     32267     32270     32271     32268     32267     32270     32272
     32268     32267     32270     32273     32269     32267     32270     32271
     32269     32267     32270     32272     32269     32267     32270     32273
     32270     32273     32276     32277     32270     32273     32276     32278
     32270     32273     32276     32279     32271     32270     32273     32274
     32271     32270     32273     32275     32271     32270     32273     32276
     32272     32270     32273     32274     32272     32270     32273     32275
     32272     32270     32273     32276     32273     32276     32279     32280
     32273     32276     32279     32281     32273     32276     32279     32282
     32274     32273     32276     32277     32274     32273     32276     32278
     32274     32273     32276     32279     32275     32273     32276     32277
     32275     32273     32276     32278     32275     32273     32276     32279
     32276     32279     32282     32283     32276     32279     32282     32284
     32276     32279     32282     32285     32277     32276     32279     32280
     32277     32276     32279     32281     32277     32276     32279     32282
     32278     32276     32279     32280     32278     32276     32279     32281
     32278     32276     32279     32282     32279     32282     32285     32286
     32279     32282     32285     32287     32279     32282     32285     32288
     32280     32279     32282     32283     32280     32279     32282     32284
     32280     32279     32282     32285     32281     32279     32282     32283
     32281     32279     32282     32284     32281     32279     32282     32285
     32282     32285     32288     32289     32282     32285     32288     32290
     32282     32285     32288     32291     32283     32282     32285     32286
     32283     32282     32285     32287     32283     32282     32285     32288
     32284     32282     32285     32286     32284     32282     32285     32287
     32284     32282     32285     32288     32285     32288     32291     32292
     32285     32288     32291     32293     32285     32288     32291     32294
     32286     32285     32288     32289     32286     32285     32288     32290
     32286     32285     32288     32291     32287     32285     32288     32289
     32287     32285     32288     32290     32287     32285     32288     32291
     32289     32288     32291     32292     32289     32288     32291     32293
     32289     32288     32291     32294     32290     32288     32291     32292
     32290     32288     32291     32293     32290     32288     32291     32294
     32295     32296     32311     32312     32295     32296     32311     32313
     32295     32296     32311     32317     32296     32295     32299     32300
     32296     32295     32299     32301     32296     32295     32299     32302
     32296     32295     32303     32304     32296     32295     32303     32305
     32296     32295     32303     32306     32296     32295     32307     32308
     32296     32295     32307     32309     32296     32295     32307     32310
     32296     32311     32317     32314     32297     32296     32295     32299
     32297     32296     32295     32303     32297     32296     32295     32307
     32297     32296     32311     32312     32297     32296     32311     32313
     32297     32296     32311     32317     32298     32296     32295     32299
     32298     32296     32295     32303     32298     32296     32295     32307
     32298     32296     32311     32312     32298     32296     32311     32313
     32298     32296     32311     32317     32299     32295     32296     32311
     32299     32295     32303     32304     32299     32295     32303     32305
     32299     32295     32303     32306     32299     32295     32307     32308
     32299     32295     32307     32309     32299     32295     32307     32310
     32300     32299     32295     32303     32300     32299     32295     32307
     32301     32299     32295     32303     32301     32299     32295     32307
     32302     32299     32295     32303     32302     32299     32295     32307
     32303     32295     32296     32311     32303     32295     32307     32308
     32303     32295     32307     32309     32303     32295     32307     32310
     32304     32303     32295     32307     32305     32303     32295     32307
     32306     32303     32295     32307     32307     32295     32296     32311
     32311     32317     32314     32315     32311     32317     32314     32316
     32311     32317     32314     32318     32312     32311     32317     32314
     32313     32311     32317     32314     32314     32318     32319     32320
     32314     32318     32319     32321     32314     32318     32319     32322
     32315     32314     32318     32319     32316     32314     32318     32319
     32317     32314     32318     32319     32318     32319     32322     32323
     32318     32319     32322     32324     32318     32319     32322     32330
     32319     32322     32324     32325     32319     32322     32330     32331
     32319     32322     32330     32332     32319     32322     32330     32333
     32320     32319     32322     32323     32320     32319     32322     32324
     32320     32319     32322     32330     32321     32319     32322     32323
     32321     32319     32322     32324     32321     32319     32322     32330
     32322     32324     32325     32326     32322     32324     32325     32327
     32322     32330     32333     32334     32323     32322     32324     32325
     32323     32322     32330     32331     32323     32322     32330     32332
     32323     32322     32330     32333     32324     32322     32330     32331
     32324     32322     32330     32332     32324     32322     32330     32333
     32324     32325     32327     32328     32324     32325     32327     32329
     32324     32325     32327     32339     32325     32324     32322     32330
     32325     32327     32339     32340     32325     32327     32339     32341
     32325     32327     32339     32342     32326     32325     32327     32328
     32326     32325     32327     32329     32326     32325     32327     32339
     32327     32339     32342     32343     32327     32339     32342     32344
     32327     32339     32342     32345     32328     32327     32339     32340
     32328     32327     32339     32341     32328     32327     32339     32342
     32329     32327     32339     32340     32329     32327     32339     32341
     32329     32327     32339     32342     32330     32333     32334     32335
     32330     32333     32334     32336     32331     32330     32333     32334
     32332     32330     32333     32334     32333     32334     32336     32337
     32333     32334     32336     32338     32333     32334     32336     32386
     32334     32336     32386     32387     32334     32336     32386     32388
     32334     32336     32386     32389     32335     32334     32336     32337
     32335     32334     32336     32338     32335     32334     32336     32386
     32336     32386     32389     32390     32336     32386     32389     32391
     32336     32386     32389     32392     32337     32336     32386     32387
     32337     32336     32386     32388     32337     32336     32386     32389
     32338     32336     32386     32387     32338     32336     32386     32388
     32338     32336     32386     32389     32339     32342     32345     32346
     32339     32342     32345     32347     32339     32342     32345     32348
     32340     32339     32342     32343     32340     32339     32342     32344
     32340     32339     32342     32345     32341     32339     32342     32343
     32341     32339     32342     32344     32341     32339     32342     32345
     32342     32345     32348     32349     32342     32345     32348     32350
     32342     32345     32348     32351     32343     32342     32345     32346
     32343     32342     32345     32347     32343     32342     32345     32348
     32344     32342     32345     32346     32344     32342     32345     32347
     32344     32342     32345     32348     32345     32348     32351     32352
     32345     32348     32351     32353     32345     32348     32351     32354
     32346     32345     32348     32349     32346     32345     32348     32350
     32346     32345     32348     32351     32347     32345     32348     32349
     32347     32345     32348     32350     32347     32345     32348     32351
     32348     32351     32354     32355     32348     32351     32354     32356
     32348     32351     32354     32357     32349     32348     32351     32352
     32349     32348     32351     32353     32349     32348     32351     32354
     32350     32348     32351     32352     32350     32348     32351     32353
     32350     32348     32351     32354     32351     32354     32357     32358
     32351     32354     32357     32359     32352     32351     32354     32355
     32352     32351     32354     32356     32352     32351     32354     32357
     32353     32351     32354     32355     32353     32351     32354     32356
     32353     32351     32354     32357     32354     32357     32359     32360
     32354     32357     32359     32361     32355     32354     32357     32358
     32355     32354     32357     32359     32356     32354     32357     32358
     32356     32354     32357     32359     32357     32359     32361     32362
     32357     32359     32361     32363     32357     32359     32361     32364
     32358     32357     32359     32360     32358     32357     32359     32361
     32359     32361     32364     32365     32359     32361     32364     32366
     32359     32361     32364     32367     32360     32359     32361     32362
     32360     32359     32361     32363     32360     32359     32361     32364
     32361     32364     32367     32368     32361     32364     32367     32369
     32361     32364     32367     32370     32362     32361     32364     32365
     32362     32361     32364     32366     32362     32361     32364     32367
     32363     32361     32364     32365     32363     32361     32364     32366
     32363     32361     32364     32367     32364     32367     32370     32371
     32364     32367     32370     32372     32364     32367     32370     32373
     32365     32364     32367     32368     32365     32364     32367     32369
     32365     32364     32367     32370     32366     32364     32367     32368
     32366     32364     32367     32369     32366     32364     32367     32370
     32367     32370     32373     32374     32367     32370     32373     32375
     32367     32370     32373     32376     32368     32367     32370     32371
     32368     32367     32370     32372     32368     32367     32370     32373
     32369     32367     32370     32371     32369     32367     32370     32372
     32369     32367     32370     32373     32370     32373     32376     32377
     32370     32373     32376     32378     32370     32373     32376     32379
     32371     32370     32373     32374     32371     32370     32373     32375
     32371     32370     32373     32376     32372     32370     32373     32374
     32372     32370     32373     32375     32372     32370     32373     32376
     32373     32376     32379     32380     32373     32376     32379     32381
     32373     32376     32379     32382     32374     32373     32376     32377
     32374     32373     32376     32378     32374     32373     32376     32379
     32375     32373     32376     32377     32375     32373     32376     32378
     32375     32373     32376     32379     32376     32379     32382     32383
     32376     32379     32382     32384     32376     32379     32382     32385
     32377     32376     32379     32380     32377     32376     32379     32381
     32377     32376     32379     32382     32378     32376     32379     32380
     32378     32376     32379     32381     32378     32376     32379     32382
     32380     32379     32382     32383     32380     32379     32382     32384
     32380     32379     32382     32385     32381     32379     32382     32383
     32381     32379     32382     32384     32381     32379     32382     32385
     32386     32389     32392     32393     32386     32389     32392     32394
     32386     32389     32392     32395     32387     32386     32389     32390
     32387     32386     32389     32391     32387     32386     32389     32392
     32388     32386     32389     32390     32388     32386     32389     32391
     32388     32386     32389     32392     32389     32392     32395     32396
     32389     32392     32395     32397     32389     32392     32395     32398
     32390     32389     32392     32393     32390     32389     32392     32394
     32390     32389     32392     32395     32391     32389     32392     32393
     32391     32389     32392     32394     32391     32389     32392     32395
     32392     32395     32398     32399     32392     32395     32398     32400
     32392     32395     32398     32401     32393     32392     32395     32396
     32393     32392     32395     32397     32393     32392     32395     32398
     32394     32392     32395     32396     32394     32392     32395     32397
     32394     32392     32395     32398     32395     32398     32401     32402
     32395     32398     32401     32403     32395     32398     32401     32404
     32396     32395     32398     32399     32396     32395     32398     32400
     32396     32395     32398     32401     32397     32395     32398     32399
     32397     32395     32398     32400     32397     32395     32398     32401
     32398     32401     32404     32405     32398     32401     32404     32406
     32398     32401     32404     32407     32399     32398     32401     32402
     32399     32398     32401     32403     32399     32398     32401     32404
     32400     32398     32401     32402     32400     32398     32401     32403
     32400     32398     32401     32404     32401     32404     32407     32408
     32401     32404     32407     32409     32401     32404     32407     32410
     32402     32401     32404     32405     32402     32401     32404     32406
     32402     32401     32404     32407     32403     32401     32404     32405
     32403     32401     32404     32406     32403     32401     32404     32407
     32404     32407     32410     32411     32404     32407     32410     32412
     32404     32407     32410     32413     32405     32404     32407     32408
     32405     32404     32407     32409     32405     32404     32407     32410
     32406     32404     32407     32408     32406     32404     32407     32409
     32406     32404     32407     32410     32407     32410     32413     32414
     32407     32410     32413     32415     32407     32410     32413     32416
     32408     32407     32410     32411     32408     32407     32410     32412
     32408     32407     32410     32413     32409     32407     32410     32411
     32409     32407     32410     32412     32409     32407     32410     32413
     32410     32413     32416     32417     32410     32413     32416     32418
     32410     32413     32416     32419     32411     32410     32413     32414
     32411     32410     32413     32415     32411     32410     32413     32416
     32412     32410     32413     32414     32412     32410     32413     32415
     32412     32410     32413     32416     32413     32416     32419     32420
     32413     32416     32419     32421     32413     32416     32419     32422
     32414     32413     32416     32417     32414     32413     32416     32418
     32414     32413     32416     32419     32415     32413     32416     32417
     32415     32413     32416     32418     32415     32413     32416     32419
     32416     32419     32422     32423     32416     32419     32422     32424
     32416     32419     32422     32425     32417     32416     32419     32420
     32417     32416     32419     32421     32417     32416     32419     32422
     32418     32416     32419     32420     32418     32416     32419     32421
     32418     32416     32419     32422     32419     32422     32425     32426
     32419     32422     32425     32427     32419     32422     32425     32428
     32420     32419     32422     32423     32420     32419     32422     32424
     32420     32419     32422     32425     32421     32419     32422     32423
     32421     32419     32422     32424     32421     32419     32422     32425
     32423     32422     32425     32426     32423     32422     32425     32427
     32423     32422     32425     32428     32424     32422     32425     32426
     32424     32422     32425     32427     32424     32422     32425     32428
     32429     32430     32445     32446     32429     32430     32445     32447
     32429     32430     32445     32451     32430     32429     32433     32434
     32430     32429     32433     32435     32430     32429     32433     32436
     32430     32429     32437     32438     32430     32429     32437     32439
     32430     32429     32437     32440     32430     32429     32441     32442
     32430     32429     32441     32443     32430     32429     32441     32444
     32430     32445     32451     32448     32431     32430     32429     32433
     32431     32430     32429     32437     32431     32430     32429     32441
     32431     32430     32445     32446     32431     32430     32445     32447
     32431     32430     32445     32451     32432     32430     32429     32433
     32432     32430     32429     32437     32432     32430     32429     32441
     32432     32430     32445     32446     32432     32430     32445     32447
     32432     32430     32445     32451     32433     32429     32430     32445
     32433     32429     32437     32438     32433     32429     32437     32439
     32433     32429     32437     32440     32433     32429     32441     32442
     32433     32429     32441     32443     32433     32429     32441     32444
     32434     32433     32429     32437     32434     32433     32429     32441
     32435     32433     32429     32437     32435     32433     32429     32441
     32436     32433     32429     32437     32436     32433     32429     32441
     32437     32429     32430     32445     32437     32429     32441     32442
     32437     32429     32441     32443     32437     32429     32441     32444
     32438     32437     32429     32441     32439     32437     32429     32441
     32440     32437     32429     32441     32441     32429     32430     32445
     32445     32451     32448     32449     32445     32451     32448     32450
     32445     32451     32448     32452     32446     32445     32451     32448
     32447     32445     32451     32448     32448     32452     32453     32454
     32448     32452     32453     32455     32448     32452     32453     32456
     32449     32448     32452     32453     32450     32448     32452     32453
     32451     32448     32452     32453     32452     32453     32456     32457
     32452     32453     32456     32458     32452     32453     32456     32464
     32453     32456     32458     32459     32453     32456     32464     32465
     32453     32456     32464     32466     32453     32456     32464     32467
     32454     32453     32456     32457     32454     32453     32456     32458
     32454     32453     32456     32464     32455     32453     32456     32457
     32455     32453     32456     32458     32455     32453     32456     32464
     32456     32458     32459     32460     32456     32458     32459     32461
     32456     32464     32467     32468     32457     32456     32458     32459
     32457     32456     32464     32465     32457     32456     32464     32466
     32457     32456     32464     32467     32458     32456     32464     32465
     32458     32456     32464     32466     32458     32456     32464     32467
     32458     32459     32461     32462     32458     32459     32461     32463
     32458     32459     32461     32473     32459     32458     32456     32464
     32459     32461     32473     32474     32459     32461     32473     32475
     32459     32461     32473     32476     32460     32459     32461     32462
     32460     32459     32461     32463     32460     32459     32461     32473
     32461     32473     32476     32477     32461     32473     32476     32478
     32461     32473     32476     32479     32462     32461     32473     32474
     32462     32461     32473     32475     32462     32461     32473     32476
     32463     32461     32473     32474     32463     32461     32473     32475
     32463     32461     32473     32476     32464     32467     32468     32469
     32464     32467     32468     32470     32465     32464     32467     32468
     32466     32464     32467     32468     32467     32468     32470     32471
     32467     32468     32470     32472     32467     32468     32470     32520
     32468     32470     32520     32521     32468     32470     32520     32522
     32468     32470     32520     32523     32469     32468     32470     32471
     32469     32468     32470     32472     32469     32468     32470     32520
     32470     32520     32523     32524     32470     32520     32523     32525
     32470     32520     32523     32526     32471     32470     32520     32521
     32471     32470     32520     32522     32471     32470     32520     32523
     32472     32470     32520     32521     32472     32470     32520     32522
     32472     32470     32520     32523     32473     32476     32479     32480
     32473     32476     32479     32481     32473     32476     32479     32482
     32474     32473     32476     32477     32474     32473     32476     32478
     32474     32473     32476     32479     32475     32473     32476     32477
     32475     32473     32476     32478     32475     32473     32476     32479
     32476     32479     32482     32483     32476     32479     32482     32484
     32476     32479     32482     32485     32477     32476     32479     32480
     32477     32476     32479     32481     32477     32476     32479     32482
     32478     32476     32479     32480     32478     32476     32479     32481
     32478     32476     32479     32482     32479     32482     32485     32486
     32479     32482     32485     32487     32479     32482     32485     32488
     32480     32479     32482     32483     32480     32479     32482     32484
     32480     32479     32482     32485     32481     32479     32482     32483
     32481     32479     32482     32484     32481     32479     32482     32485
     32482     32485     32488     32489     32482     32485     32488     32490
     32482     32485     32488     32491     32483     32482     32485     32486
     32483     32482     32485     32487     32483     32482     32485     32488
     32484     32482     32485     32486     32484     32482     32485     32487
     32484     32482     32485     32488     32485     32488     32491     32492
     32485     32488     32491     32493     32486     32485     32488     32489
     32486     32485     32488     32490     32486     32485     32488     32491
     32487     32485     32488     32489     32487     32485     32488     32490
     32487     32485     32488     32491     32488     32491     32493     32494
     32488     32491     32493     32495     32489     32488     32491     32492
     32489     32488     32491     32493     32490     32488     32491     32492
     32490     32488     32491     32493     32491     32493     32495     32496
     32491     32493     32495     32497     32491     32493     32495     32498
     32492     32491     32493     32494     32492     32491     32493     32495
     32493     32495     32498     32499     32493     32495     32498     32500
     32493     32495     32498     32501     32494     32493     32495     32496
     32494     32493     32495     32497     32494     32493     32495     32498
     32495     32498     32501     32502     32495     32498     32501     32503
     32495     32498     32501     32504     32496     32495     32498     32499
     32496     32495     32498     32500     32496     32495     32498     32501
     32497     32495     32498     32499     32497     32495     32498     32500
     32497     32495     32498     32501     32498     32501     32504     32505
     32498     32501     32504     32506     32498     32501     32504     32507
     32499     32498     32501     32502     32499     32498     32501     32503
     32499     32498     32501     32504     32500     32498     32501     32502
     32500     32498     32501     32503     32500     32498     32501     32504
     32501     32504     32507     32508     32501     32504     32507     32509
     32501     32504     32507     32510     32502     32501     32504     32505
     32502     32501     32504     32506     32502     32501     32504     32507
     32503     32501     32504     32505     32503     32501     32504     32506
     32503     32501     32504     32507     32504     32507     32510     32511
     32504     32507     32510     32512     32504     32507     32510     32513
     32505     32504     32507     32508     32505     32504     32507     32509
     32505     32504     32507     32510     32506     32504     32507     32508
     32506     32504     32507     32509     32506     32504     32507     32510
     32507     32510     32513     32514     32507     32510     32513     32515
     32507     32510     32513     32516     32508     32507     32510     32511
     32508     32507     32510     32512     32508     32507     32510     32513
     32509     32507     32510     32511     32509     32507     32510     32512
     32509     32507     32510     32513     32510     32513     32516     32517
     32510     32513     32516     32518     32510     32513     32516     32519
     32511     32510     32513     32514     32511     32510     32513     32515
     32511     32510     32513     32516     32512     32510     32513     32514
     32512     32510     32513     32515     32512     32510     32513     32516
     32514     32513     32516     32517     32514     32513     32516     32518
     32514     32513     32516     32519     32515     32513     32516     32517
     32515     32513     32516     32518     32515     32513     32516     32519
     32520     32523     32526     32527     32520     32523     32526     32528
     32520     32523     32526     32529     32521     32520     32523     32524
     32521     32520     32523     32525     32521     32520     32523     32526
     32522     32520     32523     32524     32522     32520     32523     32525
     32522     32520     32523     32526     32523     32526     32529     32530
     32523     32526     32529     32531     32523     32526     32529     32532
     32524     32523     32526     32527     32524     32523     32526     32528
     32524     32523     32526     32529     32525     32523     32526     32527
     32525     32523     32526     32528     32525     32523     32526     32529
     32526     32529     32532     32533     32526     32529     32532     32534
     32526     32529     32532     32535     32527     32526     32529     32530
     32527     32526     32529     32531     32527     32526     32529     32532
     32528     32526     32529     32530     32528     32526     32529     32531
     32528     32526     32529     32532     32529     32532     32535     32536
     32529     32532     32535     32537     32529     32532     32535     32538
     32530     32529     32532     32533     32530     32529     32532     32534
     32530     32529     32532     32535     32531     32529     32532     32533
     32531     32529     32532     32534     32531     32529     32532     32535
     32532     32535     32538     32539     32532     32535     32538     32540
     32532     32535     32538     32541     32533     32532     32535     32536
     32533     32532     32535     32537     32533     32532     32535     32538
     32534     32532     32535     32536     32534     32532     32535     32537
     32534     32532     32535     32538     32535     32538     32541     32542
     32535     32538     32541     32543     32535     32538     32541     32544
     32536     32535     32538     32539     32536     32535     32538     32540
     32536     32535     32538     32541     32537     32535     32538     32539
     32537     32535     32538     32540     32537     32535     32538     32541
     32538     32541     32544     32545     32538     32541     32544     32546
     32538     32541     32544     32547     32539     32538     32541     32542
     32539     32538     32541     32543     32539     32538     32541     32544
     32540     32538     32541     32542     32540     32538     32541     32543
     32540     32538     32541     32544     32541     32544     32547     32548
     32541     32544     32547     32549     32541     32544     32547     32550
     32542     32541     32544     32545     32542     32541     32544     32546
     32542     32541     32544     32547     32543     32541     32544     32545
     32543     32541     32544     32546     32543     32541     32544     32547
     32544     32547     32550     32551     32544     32547     32550     32552
     32544     32547     32550     32553     32545     32544     32547     32548
     32545     32544     32547     32549     32545     32544     32547     32550
     32546     32544     32547     32548     32546     32544     32547     32549
     32546     32544     32547     32550     32547     32550     32553     32554
     32547     32550     32553     32555     32547     32550     32553     32556
     32548     32547     32550     32551     32548     32547     32550     32552
     32548     32547     32550     32553     32549     32547     32550     32551
     32549     32547     32550     32552     32549     32547     32550     32553
     32550     32553     32556     32557     32550     32553     32556     32558
     32550     32553     32556     32559     32551     32550     32553     32554
     32551     32550     32553     32555     32551     32550     32553     32556
     32552     32550     32553     32554     32552     32550     32553     32555
     32552     32550     32553     32556     32553     32556     32559     32560
     32553     32556     32559     32561     32553     32556     32559     32562
     32554     32553     32556     32557     32554     32553     32556     32558
     32554     32553     32556     32559     32555     32553     32556     32557
     32555     32553     32556     32558     32555     32553     32556     32559
     32557     32556     32559     32560     32557     32556     32559     32561
     32557     32556     32559     32562     32558     32556     32559     32560
     32558     32556     32559     32561     32558     32556     32559     32562
     32563     32564     32579     32580     32563     32564     32579     32581
     32563     32564     32579     32585     32564     32563     32567     32568
     32564     32563     32567     32569     32564     32563     32567     32570
     32564     32563     32571     32572     32564     32563     32571     32573
     32564     32563     32571     32574     32564     32563     32575     32576
     32564     32563     32575     32577     32564     32563     32575     32578
     32564     32579     32585     32582     32565     32564     32563     32567
     32565     32564     32563     32571     32565     32564     32563     32575
     32565     32564     32579     32580     32565     32564     32579     32581
     32565     32564     32579     32585     32566     32564     32563     32567
     32566     32564     32563     32571     32566     32564     32563     32575
     32566     32564     32579     32580     32566     32564     32579     32581
     32566     32564     32579     32585     32567     32563     32564     32579
     32567     32563     32571     32572     32567     32563     32571     32573
     32567     32563     32571     32574     32567     32563     32575     32576
     32567     32563     32575     32577     32567     32563     32575     32578
     32568     32567     32563     32571     32568     32567     32563     32575
     32569     32567     32563     32571     32569     32567     32563     32575
     32570     32567     32563     32571     32570     32567     32563     32575
     32571     32563     32564     32579     32571     32563     32575     32576
     32571     32563     32575     32577     32571     32563     32575     32578
     32572     32571     32563     32575     32573     32571     32563     32575
     32574     32571     32563     32575     32575     32563     32564     32579
     32579     32585     32582     32583     32579     32585     32582     32584
     32579     32585     32582     32586     32580     32579     32585     32582
     32581     32579     32585     32582     32582     32586     32587     32588
     32582     32586     32587     32589     32582     32586     32587     32590
     32583     32582     32586     32587     32584     32582     32586     32587
     32585     32582     32586     32587     32586     32587     32590     32591
     32586     32587     32590     32592     32586     32587     32590     32598
     32587     32590     32592     32593     32587     32590     32598     32599
     32587     32590     32598     32600     32587     32590     32598     32601
     32588     32587     32590     32591     32588     32587     32590     32592
     32588     32587     32590     32598     32589     32587     32590     32591
     32589     32587     32590     32592     32589     32587     32590     32598
     32590     32592     32593     32594     32590     32592     32593     32595
     32590     32598     32601     32602     32591     32590     32592     32593
     32591     32590     32598     32599     32591     32590     32598     32600
     32591     32590     32598     32601     32592     32590     32598     32599
     32592     32590     32598     32600     32592     32590     32598     32601
     32592     32593     32595     32596     32592     32593     32595     32597
     32592     32593     32595     32607     32593     32592     32590     32598
     32593     32595     32607     32608     32593     32595     32607     32609
     32593     32595     32607     32610     32594     32593     32595     32596
     32594     32593     32595     32597     32594     32593     32595     32607
     32595     32607     32610     32611     32595     32607     32610     32612
     32595     32607     32610     32613     32596     32595     32607     32608
     32596     32595     32607     32609     32596     32595     32607     32610
     32597     32595     32607     32608     32597     32595     32607     32609
     32597     32595     32607     32610     32598     32601     32602     32603
     32598     32601     32602     32604     32599     32598     32601     32602
     32600     32598     32601     32602     32601     32602     32604     32605
     32601     32602     32604     32606     32601     32602     32604     32654
     32602     32604     32654     32655     32602     32604     32654     32656
     32602     32604     32654     32657     32603     32602     32604     32605
     32603     32602     32604     32606     32603     32602     32604     32654
     32604     32654     32657     32658     32604     32654     32657     32659
     32604     32654     32657     32660     32605     32604     32654     32655
     32605     32604     32654     32656     32605     32604     32654     32657
     32606     32604     32654     32655     32606     32604     32654     32656
     32606     32604     32654     32657     32607     32610     32613     32614
     32607     32610     32613     32615     32607     32610     32613     32616
     32608     32607     32610     32611     32608     32607     32610     32612
     32608     32607     32610     32613     32609     32607     32610     32611
     32609     32607     32610     32612     32609     32607     32610     32613
     32610     32613     32616     32617     32610     32613     32616     32618
     32610     32613     32616     32619     32611     32610     32613     32614
     32611     32610     32613     32615     32611     32610     32613     32616
     32612     32610     32613     32614     32612     32610     32613     32615
     32612     32610     32613     32616     32613     32616     32619     32620
     32613     32616     32619     32621     32613     32616     32619     32622
     32614     32613     32616     32617     32614     32613     32616     32618
     32614     32613     32616     32619     32615     32613     32616     32617
     32615     32613     32616     32618     32615     32613     32616     32619
     32616     32619     32622     32623     32616     32619     32622     32624
     32616     32619     32622     32625     32617     32616     32619     32620
     32617     32616     32619     32621     32617     32616     32619     32622
     32618     32616     32619     32620     32618     32616     32619     32621
     32618     32616     32619     32622     32619     32622     32625     32626
     32619     32622     32625     32627     32620     32619     32622     32623
     32620     32619     32622     32624     32620     32619     32622     32625
     32621     32619     32622     32623     32621     32619     32622     32624
     32621     32619     32622     32625     32622     32625     32627     32628
     32622     32625     32627     32629     32623     32622     32625     32626
     32623     32622     32625     32627     32624     32622     32625     32626
     32624     32622     32625     32627     32625     32627     32629     32630
     32625     32627     32629     32631     32625     32627     32629     32632
     32626     32625     32627     32628     32626     32625     32627     32629
     32627     32629     32632     32633     32627     32629     32632     32634
     32627     32629     32632     32635     32628     32627     32629     32630
     32628     32627     32629     32631     32628     32627     32629     32632
     32629     32632     32635     32636     32629     32632     32635     32637
     32629     32632     32635     32638     32630     32629     32632     32633
     32630     32629     32632     32634     32630     32629     32632     32635
     32631     32629     32632     32633     32631     32629     32632     32634
     32631     32629     32632     32635     32632     32635     32638     32639
     32632     32635     32638     32640     32632     32635     32638     32641
     32633     32632     32635     32636     32633     32632     32635     32637
     32633     32632     32635     32638     32634     32632     32635     32636
     32634     32632     32635     32637     32634     32632     32635     32638
     32635     32638     32641     32642     32635     32638     32641     32643
     32635     32638     32641     32644     32636     32635     32638     32639
     32636     32635     32638     32640     32636     32635     32638     32641
     32637     32635     32638     32639     32637     32635     32638     32640
     32637     32635     32638     32641     32638     32641     32644     32645
     32638     32641     32644     32646     32638     32641     32644     32647
     32639     32638     32641     32642     32639     32638     32641     32643
     32639     32638     32641     32644     32640     32638     32641     32642
     32640     32638     32641     32643     32640     32638     32641     32644
     32641     32644     32647     32648     32641     32644     32647     32649
     32641     32644     32647     32650     32642     32641     32644     32645
     32642     32641     32644     32646     32642     32641     32644     32647
     32643     32641     32644     32645     32643     32641     32644     32646
     32643     32641     32644     32647     32644     32647     32650     32651
     32644     32647     32650     32652     32644     32647     32650     32653
     32645     32644     32647     32648     32645     32644     32647     32649
     32645     32644     32647     32650     32646     32644     32647     32648
     32646     32644     32647     32649     32646     32644     32647     32650
     32648     32647     32650     32651     32648     32647     32650     32652
     32648     32647     32650     32653     32649     32647     32650     32651
     32649     32647     32650     32652     32649     32647     32650     32653
     32654     32657     32660     32661     32654     32657     32660     32662
     32654     32657     32660     32663     32655     32654     32657     32658
     32655     32654     32657     32659     32655     32654     32657     32660
     32656     32654     32657     32658     32656     32654     32657     32659
     32656     32654     32657     32660     32657     32660     32663     32664
     32657     32660     32663     32665     32657     32660     32663     32666
     32658     32657     32660     32661     32658     32657     32660     32662
     32658     32657     32660     32663     32659     32657     32660     32661
     32659     32657     32660     32662     32659     32657     32660     32663
     32660     32663     32666     32667     32660     32663     32666     32668
     32660     32663     32666     32669     32661     32660     32663     32664
     32661     32660     32663     32665     32661     32660     32663     32666
     32662     32660     32663     32664     32662     32660     32663     32665
     32662     32660     32663     32666     32663     32666     32669     32670
     32663     32666     32669     32671     32663     32666     32669     32672
     32664     32663     32666     32667     32664     32663     32666     32668
     32664     32663     32666     32669     32665     32663     32666     32667
     32665     32663     32666     32668     32665     32663     32666     32669
     32666     32669     32672     32673     32666     32669     32672     32674
     32666     32669     32672     32675     32667     32666     32669     32670
     32667     32666     32669     32671     32667     32666     32669     32672
     32668     32666     32669     32670     32668     32666     32669     32671
     32668     32666     32669     32672     32669     32672     32675     32676
     32669     32672     32675     32677     32669     32672     32675     32678
     32670     32669     32672     32673     32670     32669     32672     32674
     32670     32669     32672     32675     32671     32669     32672     32673
     32671     32669     32672     32674     32671     32669     32672     32675
     32672     32675     32678     32679     32672     32675     32678     32680
     32672     32675     32678     32681     32673     32672     32675     32676
     32673     32672     32675     32677     32673     32672     32675     32678
     32674     32672     32675     32676     32674     32672     32675     32677
     32674     32672     32675     32678     32675     32678     32681     32682
     32675     32678     32681     32683     32675     32678     32681     32684
     32676     32675     32678     32679     32676     32675     32678     32680
     32676     32675     32678     32681     32677     32675     32678     32679
     32677     32675     32678     32680     32677     32675     32678     32681
     32678     32681     32684     32685     32678     32681     32684     32686
     32678     32681     32684     32687     32679     32678     32681     32682
     32679     32678     32681     32683     32679     32678     32681     32684
     32680     32678     32681     32682     32680     32678     32681     32683
     32680     32678     32681     32684     32681     32684     32687     32688
     32681     32684     32687     32689     32681     32684     32687     32690
     32682     32681     32684     32685     32682     32681     32684     32686
     32682     32681     32684     32687     32683     32681     32684     32685
     32683     32681     32684     32686     32683     32681     32684     32687
     32684     32687     32690     32691     32684     32687     32690     32692
     32684     32687     32690     32693     32685     32684     32687     32688
     32685     32684     32687     32689     32685     32684     32687     32690
     32686     32684     32687     32688     32686     32684     32687     32689
     32686     32684     32687     32690     32687     32690     32693     32694
     32687     32690     32693     32695     32687     32690     32693     32696
     32688     32687     32690     32691     32688     32687     32690     32692
     32688     32687     32690     32693     32689     32687     32690     32691
     32689     32687     32690     32692     32689     32687     32690     32693
     32691     32690     32693     32694     32691     32690     32693     32695
     32691     32690     32693     32696     32692     32690     32693     32694
     32692     32690     32693     32695     32692     32690     32693     32696
     32697     32698     32713     32714     32697     32698     32713     32715
     32697     32698     32713     32719     32698     32697     32701     32702
     32698     32697     32701     32703     32698     32697     32701     32704
     32698     32697     32705     32706     32698     32697     32705     32707
     32698     32697     32705     32708     32698     32697     32709     32710
     32698     32697     32709     32711     32698     32697     32709     32712
     32698     32713     32719     32716     32699     32698     32697     32701
     32699     32698     32697     32705     32699     32698     32697     32709
     32699     32698     32713     32714     32699     32698     32713     32715
     32699     32698     32713     32719     32700     32698     32697     32701
     32700     32698     32697     32705     32700     32698     32697     32709
     32700     32698     32713     32714     32700     32698     32713     32715
     32700     32698     32713     32719     32701     32697     32698     32713
     32701     32697     32705     32706     32701     32697     32705     32707
     32701     32697     32705     32708     32701     32697     32709     32710
     32701     32697     32709     32711     32701     32697     32709     32712
     32702     32701     32697     32705     32702     32701     32697     32709
     32703     32701     32697     32705     32703     32701     32697     32709
     32704     32701     32697     32705     32704     32701     32697     32709
     32705     32697     32698     32713     32705     32697     32709     32710
     32705     32697     32709     32711     32705     32697     32709     32712
     32706     32705     32697     32709     32707     32705     32697     32709
     32708     32705     32697     32709     32709     32697     32698     32713
     32713     32719     32716     32717     32713     32719     32716     32718
     32713     32719     32716     32720     32714     32713     32719     32716
     32715     32713     32719     32716     32716     32720     32721     32722
     32716     32720     32721     32723     32716     32720     32721     32724
     32717     32716     32720     32721     32718     32716     32720     32721
     32719     32716     32720     32721     32720     32721     32724     32725
     32720     32721     32724     32726     32720     32721     32724     32732
     32721     32724     32726     32727     32721     32724     32732     32733
     32721     32724     32732     32734     32721     32724     32732     32735
     32722     32721     32724     32725     32722     32721     32724     32726
     32722     32721     32724     32732     32723     32721     32724     32725
     32723     32721     32724     32726     32723     32721     32724     32732
     32724     32726     32727     32728     32724     32726     32727     32729
     32724     32732     32735     32736     32725     32724     32726     32727
     32725     32724     32732     32733     32725     32724     32732     32734
     32725     32724     32732     32735     32726     32724     32732     32733
     32726     32724     32732     32734     32726     32724     32732     32735
     32726     32727     32729     32730     32726     32727     32729     32731
     32726     32727     32729     32741     32727     32726     32724     32732
     32727     32729     32741     32742     32727     32729     32741     32743
     32727     32729     32741     32744     32728     32727     32729     32730
     32728     32727     32729     32731     32728     32727     32729     32741
     32729     32741     32744     32745     32729     32741     32744     32746
     32729     32741     32744     32747     32730     32729     32741     32742
     32730     32729     32741     32743     32730     32729     32741     32744
     32731     32729     32741     32742     32731     32729     32741     32743
     32731     32729     32741     32744     32732     32735     32736     32737
     32732     32735     32736     32738     32733     32732     32735     32736
     32734     32732     32735     32736     32735     32736     32738     32739
     32735     32736     32738     32740     32735     32736     32738     32788
     32736     32738     32788     32789     32736     32738     32788     32790
     32736     32738     32788     32791     32737     32736     32738     32739
     32737     32736     32738     32740     32737     32736     32738     32788
     32738     32788     32791     32792     32738     32788     32791     32793
     32738     32788     32791     32794     32739     32738     32788     32789
     32739     32738     32788     32790     32739     32738     32788     32791
     32740     32738     32788     32789     32740     32738     32788     32790
     32740     32738     32788     32791     32741     32744     32747     32748
     32741     32744     32747     32749     32741     32744     32747     32750
     32742     32741     32744     32745     32742     32741     32744     32746
     32742     32741     32744     32747     32743     32741     32744     32745
     32743     32741     32744     32746     32743     32741     32744     32747
     32744     32747     32750     32751     32744     32747     32750     32752
     32744     32747     32750     32753     32745     32744     32747     32748
     32745     32744     32747     32749     32745     32744     32747     32750
     32746     32744     32747     32748     32746     32744     32747     32749
     32746     32744     32747     32750     32747     32750     32753     32754
     32747     32750     32753     32755     32747     32750     32753     32756
     32748     32747     32750     32751     32748     32747     32750     32752
     32748     32747     32750     32753     32749     32747     32750     32751
     32749     32747     32750     32752     32749     32747     32750     32753
     32750     32753     32756     32757     32750     32753     32756     32758
     32750     32753     32756     32759     32751     32750     32753     32754
     32751     32750     32753     32755     32751     32750     32753     32756
     32752     32750     32753     32754     32752     32750     32753     32755
     32752     32750     32753     32756     32753     32756     32759     32760
     32753     32756     32759     32761     32754     32753     32756     32757
     32754     32753     32756     32758     32754     32753     32756     32759
     32755     32753     32756     32757     32755     32753     32756     32758
     32755     32753     32756     32759     32756     32759     32761     32762
     32756     32759     32761     32763     32757     32756     32759     32760
     32757     32756     32759     32761     32758     32756     32759     32760
     32758     32756     32759     32761     32759     32761     32763     32764
     32759     32761     32763     32765     32759     32761     32763     32766
     32760     32759     32761     32762     32760     32759     32761     32763
     32761     32763     32766     32767     32761     32763     32766     32768
     32761     32763     32766     32769     32762     32761     32763     32764
     32762     32761     32763     32765     32762     32761     32763     32766
     32763     32766     32769     32770     32763     32766     32769     32771
     32763     32766     32769     32772     32764     32763     32766     32767
     32764     32763     32766     32768     32764     32763     32766     32769
     32765     32763     32766     32767     32765     32763     32766     32768
     32765     32763     32766     32769     32766     32769     32772     32773
     32766     32769     32772     32774     32766     32769     32772     32775
     32767     32766     32769     32770     32767     32766     32769     32771
     32767     32766     32769     32772     32768     32766     32769     32770
     32768     32766     32769     32771     32768     32766     32769     32772
     32769     32772     32775     32776     32769     32772     32775     32777
     32769     32772     32775     32778     32770     32769     32772     32773
     32770     32769     32772     32774     32770     32769     32772     32775
     32771     32769     32772     32773     32771     32769     32772     32774
     32771     32769     32772     32775     32772     32775     32778     32779
     32772     32775     32778     32780     32772     32775     32778     32781
     32773     32772     32775     32776     32773     32772     32775     32777
     32773     32772     32775     32778     32774     32772     32775     32776
     32774     32772     32775     32777     32774     32772     32775     32778
     32775     32778     32781     32782     32775     32778     32781     32783
     32775     32778     32781     32784     32776     32775     32778     32779
     32776     32775     32778     32780     32776     32775     32778     32781
     32777     32775     32778     32779     32777     32775     32778     32780
     32777     32775     32778     32781     32778     32781     32784     32785
     32778     32781     32784     32786     32778     32781     32784     32787
     32779     32778     32781     32782     32779     32778     32781     32783
     32779     32778     32781     32784     32780     32778     32781     32782
     32780     32778     32781     32783     32780     32778     32781     32784
     32782     32781     32784     32785     32782     32781     32784     32786
     32782     32781     32784     32787     32783     32781     32784     32785
     32783     32781     32784     32786     32783     32781     32784     32787
     32788     32791     32794     32795     32788     32791     32794     32796
     32788     32791     32794     32797     32789     32788     32791     32792
     32789     32788     32791     32793     32789     32788     32791     32794
     32790     32788     32791     32792     32790     32788     32791     32793
     32790     32788     32791     32794     32791     32794     32797     32798
     32791     32794     32797     32799     32791     32794     32797     32800
     32792     32791     32794     32795     32792     32791     32794     32796
     32792     32791     32794     32797     32793     32791     32794     32795
     32793     32791     32794     32796     32793     32791     32794     32797
     32794     32797     32800     32801     32794     32797     32800     32802
     32794     32797     32800     32803     32795     32794     32797     32798
     32795     32794     32797     32799     32795     32794     32797     32800
     32796     32794     32797     32798     32796     32794     32797     32799
     32796     32794     32797     32800     32797     32800     32803     32804
     32797     32800     32803     32805     32797     32800     32803     32806
     32798     32797     32800     32801     32798     32797     32800     32802
     32798     32797     32800     32803     32799     32797     32800     32801
     32799     32797     32800     32802     32799     32797     32800     32803
     32800     32803     32806     32807     32800     32803     32806     32808
     32800     32803     32806     32809     32801     32800     32803     32804
     32801     32800     32803     32805     32801     32800     32803     32806
     32802     32800     32803     32804     32802     32800     32803     32805
     32802     32800     32803     32806     32803     32806     32809     32810
     32803     32806     32809     32811     32803     32806     32809     32812
     32804     32803     32806     32807     32804     32803     32806     32808
     32804     32803     32806     32809     32805     32803     32806     32807
     32805     32803     32806     32808     32805     32803     32806     32809
     32806     32809     32812     32813     32806     32809     32812     32814
     32806     32809     32812     32815     32807     32806     32809     32810
     32807     32806     32809     32811     32807     32806     32809     32812
     32808     32806     32809     32810     32808     32806     32809     32811
     32808     32806     32809     32812     32809     32812     32815     32816
     32809     32812     32815     32817     32809     32812     32815     32818
     32810     32809     32812     32813     32810     32809     32812     32814
     32810     32809     32812     32815     32811     32809     32812     32813
     32811     32809     32812     32814     32811     32809     32812     32815
     32812     32815     32818     32819     32812     32815     32818     32820
     32812     32815     32818     32821     32813     32812     32815     32816
     32813     32812     32815     32817     32813     32812     32815     32818
     32814     32812     32815     32816     32814     32812     32815     32817
     32814     32812     32815     32818     32815     32818     32821     32822
     32815     32818     32821     32823     32815     32818     32821     32824
     32816     32815     32818     32819     32816     32815     32818     32820
     32816     32815     32818     32821     32817     32815     32818     32819
     32817     32815     32818     32820     32817     32815     32818     32821
     32818     32821     32824     32825     32818     32821     32824     32826
     32818     32821     32824     32827     32819     32818     32821     32822
     32819     32818     32821     32823     32819     32818     32821     32824
     32820     32818     32821     32822     32820     32818     32821     32823
     32820     32818     32821     32824     32821     32824     32827     32828
     32821     32824     32827     32829     32821     32824     32827     32830
     32822     32821     32824     32825     32822     32821     32824     32826
     32822     32821     32824     32827     32823     32821     32824     32825
     32823     32821     32824     32826     32823     32821     32824     32827
     32825     32824     32827     32828     32825     32824     32827     32829
     32825     32824     32827     32830     32826     32824     32827     32828
     32826     32824     32827     32829     32826     32824     32827     32830
     32831     32832     32847     32848     32831     32832     32847     32849
     32831     32832     32847     32853     32832     32831     32835     32836
     32832     32831     32835     32837     32832     32831     32835     32838
     32832     32831     32839     32840     32832     32831     32839     32841
     32832     32831     32839     32842     32832     32831     32843     32844
     32832     32831     32843     32845     32832     32831     32843     32846
     32832     32847     32853     32850     32833     32832     32831     32835
     32833     32832     32831     32839     32833     32832     32831     32843
     32833     32832     32847     32848     32833     32832     32847     32849
     32833     32832     32847     32853     32834     32832     32831     32835
     32834     32832     32831     32839     32834     32832     32831     32843
     32834     32832     32847     32848     32834     32832     32847     32849
     32834     32832     32847     32853     32835     32831     32832     32847
     32835     32831     32839     32840     32835     32831     32839     32841
     32835     32831     32839     32842     32835     32831     32843     32844
     32835     32831     32843     32845     32835     32831     32843     32846
     32836     32835     32831     32839     32836     32835     32831     32843
     32837     32835     32831     32839     32837     32835     32831     32843
     32838     32835     32831     32839     32838     32835     32831     32843
     32839     32831     32832     32847     32839     32831     32843     32844
     32839     32831     32843     32845     32839     32831     32843     32846
     32840     32839     32831     32843     32841     32839     32831     32843
     32842     32839     32831     32843     32843     32831     32832     32847
     32847     32853     32850     32851     32847     32853     32850     32852
     32847     32853     32850     32854     32848     32847     32853     32850
     32849     32847     32853     32850     32850     32854     32855     32856
     32850     32854     32855     32857     32850     32854     32855     32858
     32851     32850     32854     32855     32852     32850     32854     32855
     32853     32850     32854     32855     32854     32855     32858     32859
     32854     32855     32858     32860     32854     32855     32858     32866
     32855     32858     32860     32861     32855     32858     32866     32867
     32855     32858     32866     32868     32855     32858     32866     32869
     32856     32855     32858     32859     32856     32855     32858     32860
     32856     32855     32858     32866     32857     32855     32858     32859
     32857     32855     32858     32860     32857     32855     32858     32866
     32858     32860     32861     32862     32858     32860     32861     32863
     32858     32866     32869     32870     32859     32858     32860     32861
     32859     32858     32866     32867     32859     32858     32866     32868
     32859     32858     32866     32869     32860     32858     32866     32867
     32860     32858     32866     32868     32860     32858     32866     32869
     32860     32861     32863     32864     32860     32861     32863     32865
     32860     32861     32863     32875     32861     32860     32858     32866
     32861     32863     32875     32876     32861     32863     32875     32877
     32861     32863     32875     32878     32862     32861     32863     32864
     32862     32861     32863     32865     32862     32861     32863     32875
     32863     32875     32878     32879     32863     32875     32878     32880
     32863     32875     32878     32881     32864     32863     32875     32876
     32864     32863     32875     32877     32864     32863     32875     32878
     32865     32863     32875     32876     32865     32863     32875     32877
     32865     32863     32875     32878     32866     32869     32870     32871
     32866     32869     32870     32872     32867     32866     32869     32870
     32868     32866     32869     32870     32869     32870     32872     32873
     32869     32870     32872     32874     32869     32870     32872     32922
     32870     32872     32922     32923     32870     32872     32922     32924
     32870     32872     32922     32925     32871     32870     32872     32873
     32871     32870     32872     32874     32871     32870     32872     32922
     32872     32922     32925     32926     32872     32922     32925     32927
     32872     32922     32925     32928     32873     32872     32922     32923
     32873     32872     32922     32924     32873     32872     32922     32925
     32874     32872     32922     32923     32874     32872     32922     32924
     32874     32872     32922     32925     32875     32878     32881     32882
     32875     32878     32881     32883     32875     32878     32881     32884
     32876     32875     32878     32879     32876     32875     32878     32880
     32876     32875     32878     32881     32877     32875     32878     32879
     32877     32875     32878     32880     32877     32875     32878     32881
     32878     32881     32884     32885     32878     32881     32884     32886
     32878     32881     32884     32887     32879     32878     32881     32882
     32879     32878     32881     32883     32879     32878     32881     32884
     32880     32878     32881     32882     32880     32878     32881     32883
     32880     32878     32881     32884     32881     32884     32887     32888
     32881     32884     32887     32889     32881     32884     32887     32890
     32882     32881     32884     32885     32882     32881     32884     32886
     32882     32881     32884     32887     32883     32881     32884     32885
     32883     32881     32884     32886     32883     32881     32884     32887
     32884     32887     32890     32891     32884     32887     32890     32892
     32884     32887     32890     32893     32885     32884     32887     32888
     32885     32884     32887     32889     32885     32884     32887     32890
     32886     32884     32887     32888     32886     32884     32887     32889
     32886     32884     32887     32890     32887     32890     32893     32894
     32887     32890     32893     32895     32888     32887     32890     32891
     32888     32887     32890     32892     32888     32887     32890     32893
     32889     32887     32890     32891     32889     32887     32890     32892
     32889     32887     32890     32893     32890     32893     32895     32896
     32890     32893     32895     32897     32891     32890     32893     32894
     32891     32890     32893     32895     32892     32890     32893     32894
     32892     32890     32893     32895     32893     32895     32897     32898
     32893     32895     32897     32899     32893     32895     32897     32900
     32894     32893     32895     32896     32894     32893     32895     32897
     32895     32897     32900     32901     32895     32897     32900     32902
     32895     32897     32900     32903     32896     32895     32897     32898
     32896     32895     32897     32899     32896     32895     32897     32900
     32897     32900     32903     32904     32897     32900     32903     32905
     32897     32900     32903     32906     32898     32897     32900     32901
     32898     32897     32900     32902     32898     32897     32900     32903
     32899     32897     32900     32901     32899     32897     32900     32902
     32899     32897     32900     32903     32900     32903     32906     32907
     32900     32903     32906     32908     32900     32903     32906     32909
     32901     32900     32903     32904     32901     32900     32903     32905
     32901     32900     32903     32906     32902     32900     32903     32904
     32902     32900     32903     32905     32902     32900     32903     32906
     32903     32906     32909     32910     32903     32906     32909     32911
     32903     32906     32909     32912     32904     32903     32906     32907
     32904     32903     32906     32908     32904     32903     32906     32909
     32905     32903     32906     32907     32905     32903     32906     32908
     32905     32903     32906     32909     32906     32909     32912     32913
     32906     32909     32912     32914     32906     32909     32912     32915
     32907     32906     32909     32910     32907     32906     32909     32911
     32907     32906     32909     32912     32908     32906     32909     32910
     32908     32906     32909     32911     32908     32906     32909     32912
     32909     32912     32915     32916     32909     32912     32915     32917
     32909     32912     32915     32918     32910     32909     32912     32913
     32910     32909     32912     32914     32910     32909     32912     32915
     32911     32909     32912     32913     32911     32909     32912     32914
     32911     32909     32912     32915     32912     32915     32918     32919
     32912     32915     32918     32920     32912     32915     32918     32921
     32913     32912     32915     32916     32913     32912     32915     32917
     32913     32912     32915     32918     32914     32912     32915     32916
     32914     32912     32915     32917     32914     32912     32915     32918
     32916     32915     32918     32919     32916     32915     32918     32920
     32916     32915     32918     32921     32917     32915     32918     32919
     32917     32915     32918     32920     32917     32915     32918     32921
     32922     32925     32928     32929     32922     32925     32928     32930
     32922     32925     32928     32931     32923     32922     32925     32926
     32923     32922     32925     32927     32923     32922     32925     32928
     32924     32922     32925     32926     32924     32922     32925     32927
     32924     32922     32925     32928     32925     32928     32931     32932
     32925     32928     32931     32933     32925     32928     32931     32934
     32926     32925     32928     32929     32926     32925     32928     32930
     32926     32925     32928     32931     32927     32925     32928     32929
     32927     32925     32928     32930     32927     32925     32928     32931
     32928     32931     32934     32935     32928     32931     32934     32936
     32928     32931     32934     32937     32929     32928     32931     32932
     32929     32928     32931     32933     32929     32928     32931     32934
     32930     32928     32931     32932     32930     32928     32931     32933
     32930     32928     32931     32934     32931     32934     32937     32938
     32931     32934     32937     32939     32931     32934     32937     32940
     32932     32931     32934     32935     32932     32931     32934     32936
     32932     32931     32934     32937     32933     32931     32934     32935
     32933     32931     32934     32936     32933     32931     32934     32937
     32934     32937     32940     32941     32934     32937     32940     32942
     32934     32937     32940     32943     32935     32934     32937     32938
     32935     32934     32937     32939     32935     32934     32937     32940
     32936     32934     32937     32938     32936     32934     32937     32939
     32936     32934     32937     32940     32937     32940     32943     32944
     32937     32940     32943     32945     32937     32940     32943     32946
     32938     32937     32940     32941     32938     32937     32940     32942
     32938     32937     32940     32943     32939     32937     32940     32941
     32939     32937     32940     32942     32939     32937     32940     32943
     32940     32943     32946     32947     32940     32943     32946     32948
     32940     32943     32946     32949     32941     32940     32943     32944
     32941     32940     32943     32945     32941     32940     32943     32946
     32942     32940     32943     32944     32942     32940     32943     32945
     32942     32940     32943     32946     32943     32946     32949     32950
     32943     32946     32949     32951     32943     32946     32949     32952
     32944     32943     32946     32947     32944     32943     32946     32948
     32944     32943     32946     32949     32945     32943     32946     32947
     32945     32943     32946     32948     32945     32943     32946     32949
     32946     32949     32952     32953     32946     32949     32952     32954
     32946     32949     32952     32955     32947     32946     32949     32950
     32947     32946     32949     32951     32947     32946     32949     32952
     32948     32946     32949     32950     32948     32946     32949     32951
     32948     32946     32949     32952     32949     32952     32955     32956
     32949     32952     32955     32957     32949     32952     32955     32958
     32950     32949     32952     32953     32950     32949     32952     32954
     32950     32949     32952     32955     32951     32949     32952     32953
     32951     32949     32952     32954     32951     32949     32952     32955
     32952     32955     32958     32959     32952     32955     32958     32960
     32952     32955     32958     32961     32953     32952     32955     32956
     32953     32952     32955     32957     32953     32952     32955     32958
     32954     32952     32955     32956     32954     32952     32955     32957
     32954     32952     32955     32958     32955     32958     32961     32962
     32955     32958     32961     32963     32955     32958     32961     32964
     32956     32955     32958     32959     32956     32955     32958     32960
     32956     32955     32958     32961     32957     32955     32958     32959
     32957     32955     32958     32960     32957     32955     32958     32961
     32959     32958     32961     32962     32959     32958     32961     32963
     32959     32958     32961     32964     32960     32958     32961     32962
     32960     32958     32961     32963     32960     32958     32961     32964
     32965     32966     32981     32982     32965     32966     32981     32983
     32965     32966     32981     32987     32966     32965     32969     32970
     32966     32965     32969     32971     32966     32965     32969     32972
     32966     32965     32973     32974     32966     32965     32973     32975
     32966     32965     32973     32976     32966     32965     32977     32978
     32966     32965     32977     32979     32966     32965     32977     32980
     32966     32981     32987     32984     32967     32966     32965     32969
     32967     32966     32965     32973     32967     32966     32965     32977
     32967     32966     32981     32982     32967     32966     32981     32983
     32967     32966     32981     32987     32968     32966     32965     32969
     32968     32966     32965     32973     32968     32966     32965     32977
     32968     32966     32981     32982     32968     32966     32981     32983
     32968     32966     32981     32987     32969     32965     32966     32981
     32969     32965     32973     32974     32969     32965     32973     32975
     32969     32965     32973     32976     32969     32965     32977     32978
     32969     32965     32977     32979     32969     32965     32977     32980
     32970     32969     32965     32973     32970     32969     32965     32977
     32971     32969     32965     32973     32971     32969     32965     32977
     32972     32969     32965     32973     32972     32969     32965     32977
     32973     32965     32966     32981     32973     32965     32977     32978
     32973     32965     32977     32979     32973     32965     32977     32980
     32974     32973     32965     32977     32975     32973     32965     32977
     32976     32973     32965     32977     32977     32965     32966     32981
     32981     32987     32984     32985     32981     32987     32984     32986
     32981     32987     32984     32988     32982     32981     32987     32984
     32983     32981     32987     32984     32984     32988     32989     32990
     32984     32988     32989     32991     32984     32988     32989     32992
     32985     32984     32988     32989     32986     32984     32988     32989
     32987     32984     32988     32989     32988     32989     32992     32993
     32988     32989     32992     32994     32988     32989     32992     33000
     32989     32992     32994     32995     32989     32992     33000     33001
     32989     32992     33000     33002     32989     32992     33000     33003
     32990     32989     32992     32993     32990     32989     32992     32994
     32990     32989     32992     33000     32991     32989     32992     32993
     32991     32989     32992     32994     32991     32989     32992     33000
     32992     32994     32995     32996     32992     32994     32995     32997
     32992     33000     33003     33004     32993     32992     32994     32995
     32993     32992     33000     33001     32993     32992     33000     33002
     32993     32992     33000     33003     32994     32992     33000     33001
     32994     32992     33000     33002     32994     32992     33000     33003
     32994     32995     32997     32998     32994     32995     32997     32999
     32994     32995     32997     33009     32995     32994     32992     33000
     32995     32997     33009     33010     32995     32997     33009     33011
     32995     32997     33009     33012     32996     32995     32997     32998
     32996     32995     32997     32999     32996     32995     32997     33009
     32997     33009     33012     33013     32997     33009     33012     33014
     32997     33009     33012     33015     32998     32997     33009     33010
     32998     32997     33009     33011     32998     32997     33009     33012
     32999     32997     33009     33010     32999     32997     33009     33011
     32999     32997     33009     33012     33000     33003     33004     33005
     33000     33003     33004     33006     33001     33000     33003     33004
     33002     33000     33003     33004     33003     33004     33006     33007
     33003     33004     33006     33008     33003     33004     33006     33056
     33004     33006     33056     33057     33004     33006     33056     33058
     33004     33006     33056     33059     33005     33004     33006     33007
     33005     33004     33006     33008     33005     33004     33006     33056
     33006     33056     33059     33060     33006     33056     33059     33061
     33006     33056     33059     33062     33007     33006     33056     33057
     33007     33006     33056     33058     33007     33006     33056     33059
     33008     33006     33056     33057     33008     33006     33056     33058
     33008     33006     33056     33059     33009     33012     33015     33016
     33009     33012     33015     33017     33009     33012     33015     33018
     33010     33009     33012     33013     33010     33009     33012     33014
     33010     33009     33012     33015     33011     33009     33012     33013
     33011     33009     33012     33014     33011     33009     33012     33015
     33012     33015     33018     33019     33012     33015     33018     33020
     33012     33015     33018     33021     33013     33012     33015     33016
     33013     33012     33015     33017     33013     33012     33015     33018
     33014     33012     33015     33016     33014     33012     33015     33017
     33014     33012     33015     33018     33015     33018     33021     33022
     33015     33018     33021     33023     33015     33018     33021     33024
     33016     33015     33018     33019     33016     33015     33018     33020
     33016     33015     33018     33021     33017     33015     33018     33019
     33017     33015     33018     33020     33017     33015     33018     33021
     33018     33021     33024     33025     33018     33021     33024     33026
     33018     33021     33024     33027     33019     33018     33021     33022
     33019     33018     33021     33023     33019     33018     33021     33024
     33020     33018     33021     33022     33020     33018     33021     33023
     33020     33018     33021     33024     33021     33024     33027     33028
     33021     33024     33027     33029     33022     33021     33024     33025
     33022     33021     33024     33026     33022     33021     33024     33027
     33023     33021     33024     33025     33023     33021     33024     33026
     33023     33021     33024     33027     33024     33027     33029     33030
     33024     33027     33029     33031     33025     33024     33027     33028
     33025     33024     33027     33029     33026     33024     33027     33028
     33026     33024     33027     33029     33027     33029     33031     33032
     33027     33029     33031     33033     33027     33029     33031     33034
     33028     33027     33029     33030     33028     33027     33029     33031
     33029     33031     33034     33035     33029     33031     33034     33036
     33029     33031     33034     33037     33030     33029     33031     33032
     33030     33029     33031     33033     33030     33029     33031     33034
     33031     33034     33037     33038     33031     33034     33037     33039
     33031     33034     33037     33040     33032     33031     33034     33035
     33032     33031     33034     33036     33032     33031     33034     33037
     33033     33031     33034     33035     33033     33031     33034     33036
     33033     33031     33034     33037     33034     33037     33040     33041
     33034     33037     33040     33042     33034     33037     33040     33043
     33035     33034     33037     33038     33035     33034     33037     33039
     33035     33034     33037     33040     33036     33034     33037     33038
     33036     33034     33037     33039     33036     33034     33037     33040
     33037     33040     33043     33044     33037     33040     33043     33045
     33037     33040     33043     33046     33038     33037     33040     33041
     33038     33037     33040     33042     33038     33037     33040     33043
     33039     33037     33040     33041     33039     33037     33040     33042
     33039     33037     33040     33043     33040     33043     33046     33047
     33040     33043     33046     33048     33040     33043     33046     33049
     33041     33040     33043     33044     33041     33040     33043     33045
     33041     33040     33043     33046     33042     33040     33043     33044
     33042     33040     33043     33045     33042     33040     33043     33046
     33043     33046     33049     33050     33043     33046     33049     33051
     33043     33046     33049     33052     33044     33043     33046     33047
     33044     33043     33046     33048     33044     33043     33046     33049
     33045     33043     33046     33047     33045     33043     33046     33048
     33045     33043     33046     33049     33046     33049     33052     33053
     33046     33049     33052     33054     33046     33049     33052     33055
     33047     33046     33049     33050     33047     33046     33049     33051
     33047     33046     33049     33052     33048     33046     33049     33050
     33048     33046     33049     33051     33048     33046     33049     33052
     33050     33049     33052     33053     33050     33049     33052     33054
     33050     33049     33052     33055     33051     33049     33052     33053
     33051     33049     33052     33054     33051     33049     33052     33055
     33056     33059     33062     33063     33056     33059     33062     33064
     33056     33059     33062     33065     33057     33056     33059     33060
     33057     33056     33059     33061     33057     33056     33059     33062
     33058     33056     33059     33060     33058     33056     33059     33061
     33058     33056     33059     33062     33059     33062     33065     33066
     33059     33062     33065     33067     33059     33062     33065     33068
     33060     33059     33062     33063     33060     33059     33062     33064
     33060     33059     33062     33065     33061     33059     33062     33063
     33061     33059     33062     33064     33061     33059     33062     33065
     33062     33065     33068     33069     33062     33065     33068     33070
     33062     33065     33068     33071     33063     33062     33065     33066
     33063     33062     33065     33067     33063     33062     33065     33068
     33064     33062     33065     33066     33064     33062     33065     33067
     33064     33062     33065     33068     33065     33068     33071     33072
     33065     33068     33071     33073     33065     33068     33071     33074
     33066     33065     33068     33069     33066     33065     33068     33070
     33066     33065     33068     33071     33067     33065     33068     33069
     33067     33065     33068     33070     33067     33065     33068     33071
     33068     33071     33074     33075     33068     33071     33074     33076
     33068     33071     33074     33077     33069     33068     33071     33072
     33069     33068     33071     33073     33069     33068     33071     33074
     33070     33068     33071     33072     33070     33068     33071     33073
     33070     33068     33071     33074     33071     33074     33077     33078
     33071     33074     33077     33079     33071     33074     33077     33080
     33072     33071     33074     33075     33072     33071     33074     33076
     33072     33071     33074     33077     33073     33071     33074     33075
     33073     33071     33074     33076     33073     33071     33074     33077
     33074     33077     33080     33081     33074     33077     33080     33082
     33074     33077     33080     33083     33075     33074     33077     33078
     33075     33074     33077     33079     33075     33074     33077     33080
     33076     33074     33077     33078     33076     33074     33077     33079
     33076     33074     33077     33080     33077     33080     33083     33084
     33077     33080     33083     33085     33077     33080     33083     33086
     33078     33077     33080     33081     33078     33077     33080     33082
     33078     33077     33080     33083     33079     33077     33080     33081
     33079     33077     33080     33082     33079     33077     33080     33083
     33080     33083     33086     33087     33080     33083     33086     33088
     33080     33083     33086     33089     33081     33080     33083     33084
     33081     33080     33083     33085     33081     33080     33083     33086
     33082     33080     33083     33084     33082     33080     33083     33085
     33082     33080     33083     33086     33083     33086     33089     33090
     33083     33086     33089     33091     33083     33086     33089     33092
     33084     33083     33086     33087     33084     33083     33086     33088
     33084     33083     33086     33089     33085     33083     33086     33087
     33085     33083     33086     33088     33085     33083     33086     33089
     33086     33089     33092     33093     33086     33089     33092     33094
     33086     33089     33092     33095     33087     33086     33089     33090
     33087     33086     33089     33091     33087     33086     33089     33092
     33088     33086     33089     33090     33088     33086     33089     33091
     33088     33086     33089     33092     33089     33092     33095     33096
     33089     33092     33095     33097     33089     33092     33095     33098
     33090     33089     33092     33093     33090     33089     33092     33094
     33090     33089     33092     33095     33091     33089     33092     33093
     33091     33089     33092     33094     33091     33089     33092     33095
     33093     33092     33095     33096     33093     33092     33095     33097
     33093     33092     33095     33098     33094     33092     33095     33096
     33094     33092     33095     33097     33094     33092     33095     33098
     33099     33100     33115     33116     33099     33100     33115     33117
     33099     33100     33115     33121     33100     33099     33103     33104
     33100     33099     33103     33105     33100     33099     33103     33106
     33100     33099     33107     33108     33100     33099     33107     33109
     33100     33099     33107     33110     33100     33099     33111     33112
     33100     33099     33111     33113     33100     33099     33111     33114
     33100     33115     33121     33118     33101     33100     33099     33103
     33101     33100     33099     33107     33101     33100     33099     33111
     33101     33100     33115     33116     33101     33100     33115     33117
     33101     33100     33115     33121     33102     33100     33099     33103
     33102     33100     33099     33107     33102     33100     33099     33111
     33102     33100     33115     33116     33102     33100     33115     33117
     33102     33100     33115     33121     33103     33099     33100     33115
     33103     33099     33107     33108     33103     33099     33107     33109
     33103     33099     33107     33110     33103     33099     33111     33112
     33103     33099     33111     33113     33103     33099     33111     33114
     33104     33103     33099     33107     33104     33103     33099     33111
     33105     33103     33099     33107     33105     33103     33099     33111
     33106     33103     33099     33107     33106     33103     33099     33111
     33107     33099     33100     33115     33107     33099     33111     33112
     33107     33099     33111     33113     33107     33099     33111     33114
     33108     33107     33099     33111     33109     33107     33099     33111
     33110     33107     33099     33111     33111     33099     33100     33115
     33115     33121     33118     33119     33115     33121     33118     33120
     33115     33121     33118     33122     33116     33115     33121     33118
     33117     33115     33121     33118     33118     33122     33123     33124
     33118     33122     33123     33125     33118     33122     33123     33126
     33119     33118     33122     33123     33120     33118     33122     33123
     33121     33118     33122     33123     33122     33123     33126     33127
     33122     33123     33126     33128     33122     33123     33126     33134
     33123     33126     33128     33129     33123     33126     33134     33135
     33123     33126     33134     33136     33123     33126     33134     33137
     33124     33123     33126     33127     33124     33123     33126     33128
     33124     33123     33126     33134     33125     33123     33126     33127
     33125     33123     33126     33128     33125     33123     33126     33134
     33126     33128     33129     33130     33126     33128     33129     33131
     33126     33134     33137     33138     33127     33126     33128     33129
     33127     33126     33134     33135     33127     33126     33134     33136
     33127     33126     33134     33137     33128     33126     33134     33135
     33128     33126     33134     33136     33128     33126     33134     33137
     33128     33129     33131     33132     33128     33129     33131     33133
     33128     33129     33131     33143     33129     33128     33126     33134
     33129     33131     33143     33144     33129     33131     33143     33145
     33129     33131     33143     33146     33130     33129     33131     33132
     33130     33129     33131     33133     33130     33129     33131     33143
     33131     33143     33146     33147     33131     33143     33146     33148
     33131     33143     33146     33149     33132     33131     33143     33144
     33132     33131     33143     33145     33132     33131     33143     33146
     33133     33131     33143     33144     33133     33131     33143     33145
     33133     33131     33143     33146     33134     33137     33138     33139
     33134     33137     33138     33140     33135     33134     33137     33138
     33136     33134     33137     33138     33137     33138     33140     33141
     33137     33138     33140     33142     33137     33138     33140     33190
     33138     33140     33190     33191     33138     33140     33190     33192
     33138     33140     33190     33193     33139     33138     33140     33141
     33139     33138     33140     33142     33139     33138     33140     33190
     33140     33190     33193     33194     33140     33190     33193     33195
     33140     33190     33193     33196     33141     33140     33190     33191
     33141     33140     33190     33192     33141     33140     33190     33193
     33142     33140     33190     33191     33142     33140     33190     33192
     33142     33140     33190     33193     33143     33146     33149     33150
     33143     33146     33149     33151     33143     33146     33149     33152
     33144     33143     33146     33147     33144     33143     33146     33148
     33144     33143     33146     33149     33145     33143     33146     33147
     33145     33143     33146     33148     33145     33143     33146     33149
     33146     33149     33152     33153     33146     33149     33152     33154
     33146     33149     33152     33155     33147     33146     33149     33150
     33147     33146     33149     33151     33147     33146     33149     33152
     33148     33146     33149     33150     33148     33146     33149     33151
     33148     33146     33149     33152     33149     33152     33155     33156
     33149     33152     33155     33157     33149     33152     33155     33158
     33150     33149     33152     33153     33150     33149     33152     33154
     33150     33149     33152     33155     33151     33149     33152     33153
     33151     33149     33152     33154     33151     33149     33152     33155
     33152     33155     33158     33159     33152     33155     33158     33160
     33152     33155     33158     33161     33153     33152     33155     33156
     33153     33152     33155     33157     33153     33152     33155     33158
     33154     33152     33155     33156     33154     33152     33155     33157
     33154     33152     33155     33158     33155     33158     33161     33162
     33155     33158     33161     33163     33156     33155     33158     33159
     33156     33155     33158     33160     33156     33155     33158     33161
     33157     33155     33158     33159     33157     33155     33158     33160
     33157     33155     33158     33161     33158     33161     33163     33164
     33158     33161     33163     33165     33159     33158     33161     33162
     33159     33158     33161     33163     33160     33158     33161     33162
     33160     33158     33161     33163     33161     33163     33165     33166
     33161     33163     33165     33167     33161     33163     33165     33168
     33162     33161     33163     33164     33162     33161     33163     33165
     33163     33165     33168     33169     33163     33165     33168     33170
     33163     33165     33168     33171     33164     33163     33165     33166
     33164     33163     33165     33167     33164     33163     33165     33168
     33165     33168     33171     33172     33165     33168     33171     33173
     33165     33168     33171     33174     33166     33165     33168     33169
     33166     33165     33168     33170     33166     33165     33168     33171
     33167     33165     33168     33169     33167     33165     33168     33170
     33167     33165     33168     33171     33168     33171     33174     33175
     33168     33171     33174     33176     33168     33171     33174     33177
     33169     33168     33171     33172     33169     33168     33171     33173
     33169     33168     33171     33174     33170     33168     33171     33172
     33170     33168     33171     33173     33170     33168     33171     33174
     33171     33174     33177     33178     33171     33174     33177     33179
     33171     33174     33177     33180     33172     33171     33174     33175
     33172     33171     33174     33176     33172     33171     33174     33177
     33173     33171     33174     33175     33173     33171     33174     33176
     33173     33171     33174     33177     33174     33177     33180     33181
     33174     33177     33180     33182     33174     33177     33180     33183
     33175     33174     33177     33178     33175     33174     33177     33179
     33175     33174     33177     33180     33176     33174     33177     33178
     33176     33174     33177     33179     33176     33174     33177     33180
     33177     33180     33183     33184     33177     33180     33183     33185
     33177     33180     33183     33186     33178     33177     33180     33181
     33178     33177     33180     33182     33178     33177     33180     33183
     33179     33177     33180     33181     33179     33177     33180     33182
     33179     33177     33180     33183     33180     33183     33186     33187
     33180     33183     33186     33188     33180     33183     33186     33189
     33181     33180     33183     33184     33181     33180     33183     33185
     33181     33180     33183     33186     33182     33180     33183     33184
     33182     33180     33183     33185     33182     33180     33183     33186
     33184     33183     33186     33187     33184     33183     33186     33188
     33184     33183     33186     33189     33185     33183     33186     33187
     33185     33183     33186     33188     33185     33183     33186     33189
     33190     33193     33196     33197     33190     33193     33196     33198
     33190     33193     33196     33199     33191     33190     33193     33194
     33191     33190     33193     33195     33191     33190     33193     33196
     33192     33190     33193     33194     33192     33190     33193     33195
     33192     33190     33193     33196     33193     33196     33199     33200
     33193     33196     33199     33201     33193     33196     33199     33202
     33194     33193     33196     33197     33194     33193     33196     33198
     33194     33193     33196     33199     33195     33193     33196     33197
     33195     33193     33196     33198     33195     33193     33196     33199
     33196     33199     33202     33203     33196     33199     33202     33204
     33196     33199     33202     33205     33197     33196     33199     33200
     33197     33196     33199     33201     33197     33196     33199     33202
     33198     33196     33199     33200     33198     33196     33199     33201
     33198     33196     33199     33202     33199     33202     33205     33206
     33199     33202     33205     33207     33199     33202     33205     33208
     33200     33199     33202     33203     33200     33199     33202     33204
     33200     33199     33202     33205     33201     33199     33202     33203
     33201     33199     33202     33204     33201     33199     33202     33205
     33202     33205     33208     33209     33202     33205     33208     33210
     33202     33205     33208     33211     33203     33202     33205     33206
     33203     33202     33205     33207     33203     33202     33205     33208
     33204     33202     33205     33206     33204     33202     33205     33207
     33204     33202     33205     33208     33205     33208     33211     33212
     33205     33208     33211     33213     33205     33208     33211     33214
     33206     33205     33208     33209     33206     33205     33208     33210
     33206     33205     33208     33211     33207     33205     33208     33209
     33207     33205     33208     33210     33207     33205     33208     33211
     33208     33211     33214     33215     33208     33211     33214     33216
     33208     33211     33214     33217     33209     33208     33211     33212
     33209     33208     33211     33213     33209     33208     33211     33214
     33210     33208     33211     33212     33210     33208     33211     33213
     33210     33208     33211     33214     33211     33214     33217     33218
     33211     33214     33217     33219     33211     33214     33217     33220
     33212     33211     33214     33215     33212     33211     33214     33216
     33212     33211     33214     33217     33213     33211     33214     33215
     33213     33211     33214     33216     33213     33211     33214     33217
     33214     33217     33220     33221     33214     33217     33220     33222
     33214     33217     33220     33223     33215     33214     33217     33218
     33215     33214     33217     33219     33215     33214     33217     33220
     33216     33214     33217     33218     33216     33214     33217     33219
     33216     33214     33217     33220     33217     33220     33223     33224
     33217     33220     33223     33225     33217     33220     33223     33226
     33218     33217     33220     33221     33218     33217     33220     33222
     33218     33217     33220     33223     33219     33217     33220     33221
     33219     33217     33220     33222     33219     33217     33220     33223
     33220     33223     33226     33227     33220     33223     33226     33228
     33220     33223     33226     33229     33221     33220     33223     33224
     33221     33220     33223     33225     33221     33220     33223     33226
     33222     33220     33223     33224     33222     33220     33223     33225
     33222     33220     33223     33226     33223     33226     33229     33230
     33223     33226     33229     33231     33223     33226     33229     33232
     33224     33223     33226     33227     33224     33223     33226     33228
     33224     33223     33226     33229     33225     33223     33226     33227
     33225     33223     33226     33228     33225     33223     33226     33229
     33227     33226     33229     33230     33227     33226     33229     33231
     33227     33226     33229     33232     33228     33226     33229     33230
     33228     33226     33229     33231     33228     33226     33229     33232
     33233     33234     33249     33250     33233     33234     33249     33251
     33233     33234     33249     33255     33234     33233     33237     33238
     33234     33233     33237     33239     33234     33233     33237     33240
     33234     33233     33241     33242     33234     33233     33241     33243
     33234     33233     33241     33244     33234     33233     33245     33246
     33234     33233     33245     33247     33234     33233     33245     33248
     33234     33249     33255     33252     33235     33234     33233     33237
     33235     33234     33233     33241     33235     33234     33233     33245
     33235     33234     33249     33250     33235     33234     33249     33251
     33235     33234     33249     33255     33236     33234     33233     33237
     33236     33234     33233     33241     33236     33234     33233     33245
     33236     33234     33249     33250     33236     33234     33249     33251
     33236     33234     33249     33255     33237     33233     33234     33249
     33237     33233     33241     33242     33237     33233     33241     33243
     33237     33233     33241     33244     33237     33233     33245     33246
     33237     33233     33245     33247     33237     33233     33245     33248
     33238     33237     33233     33241     33238     33237     33233     33245
     33239     33237     33233     33241     33239     33237     33233     33245
     33240     33237     33233     33241     33240     33237     33233     33245
     33241     33233     33234     33249     33241     33233     33245     33246
     33241     33233     33245     33247     33241     33233     33245     33248
     33242     33241     33233     33245     33243     33241     33233     33245
     33244     33241     33233     33245     33245     33233     33234     33249
     33249     33255     33252     33253     33249     33255     33252     33254
     33249     33255     33252     33256     33250     33249     33255     33252
     33251     33249     33255     33252     33252     33256     33257     33258
     33252     33256     33257     33259     33252     33256     33257     33260
     33253     33252     33256     33257     33254     33252     33256     33257
     33255     33252     33256     33257     33256     33257     33260     33261
     33256     33257     33260     33262     33256     33257     33260     33268
     33257     33260     33262     33263     33257     33260     33268     33269
     33257     33260     33268     33270     33257     33260     33268     33271
     33258     33257     33260     33261     33258     33257     33260     33262
     33258     33257     33260     33268     33259     33257     33260     33261
     33259     33257     33260     33262     33259     33257     33260     33268
     33260     33262     33263     33264     33260     33262     33263     33265
     33260     33268     33271     33272     33261     33260     33262     33263
     33261     33260     33268     33269     33261     33260     33268     33270
     33261     33260     33268     33271     33262     33260     33268     33269
     33262     33260     33268     33270     33262     33260     33268     33271
     33262     33263     33265     33266     33262     33263     33265     33267
     33262     33263     33265     33277     33263     33262     33260     33268
     33263     33265     33277     33278     33263     33265     33277     33279
     33263     33265     33277     33280     33264     33263     33265     33266
     33264     33263     33265     33267     33264     33263     33265     33277
     33265     33277     33280     33281     33265     33277     33280     33282
     33265     33277     33280     33283     33266     33265     33277     33278
     33266     33265     33277     33279     33266     33265     33277     33280
     33267     33265     33277     33278     33267     33265     33277     33279
     33267     33265     33277     33280     33268     33271     33272     33273
     33268     33271     33272     33274     33269     33268     33271     33272
     33270     33268     33271     33272     33271     33272     33274     33275
     33271     33272     33274     33276     33271     33272     33274     33324
     33272     33274     33324     33325     33272     33274     33324     33326
     33272     33274     33324     33327     33273     33272     33274     33275
     33273     33272     33274     33276     33273     33272     33274     33324
     33274     33324     33327     33328     33274     33324     33327     33329
     33274     33324     33327     33330     33275     33274     33324     33325
     33275     33274     33324     33326     33275     33274     33324     33327
     33276     33274     33324     33325     33276     33274     33324     33326
     33276     33274     33324     33327     33277     33280     33283     33284
     33277     33280     33283     33285     33277     33280     33283     33286
     33278     33277     33280     33281     33278     33277     33280     33282
     33278     33277     33280     33283     33279     33277     33280     33281
     33279     33277     33280     33282     33279     33277     33280     33283
     33280     33283     33286     33287     33280     33283     33286     33288
     33280     33283     33286     33289     33281     33280     33283     33284
     33281     33280     33283     33285     33281     33280     33283     33286
     33282     33280     33283     33284     33282     33280     33283     33285
     33282     33280     33283     33286     33283     33286     33289     33290
     33283     33286     33289     33291     33283     33286     33289     33292
     33284     33283     33286     33287     33284     33283     33286     33288
     33284     33283     33286     33289     33285     33283     33286     33287
     33285     33283     33286     33288     33285     33283     33286     33289
     33286     33289     33292     33293     33286     33289     33292     33294
     33286     33289     33292     33295     33287     33286     33289     33290
     33287     33286     33289     33291     33287     33286     33289     33292
     33288     33286     33289     33290     33288     33286     33289     33291
     33288     33286     33289     33292     33289     33292     33295     33296
     33289     33292     33295     33297     33290     33289     33292     33293
     33290     33289     33292     33294     33290     33289     33292     33295
     33291     33289     33292     33293     33291     33289     33292     33294
     33291     33289     33292     33295     33292     33295     33297     33298
     33292     33295     33297     33299     33293     33292     33295     33296
     33293     33292     33295     33297     33294     33292     33295     33296
     33294     33292     33295     33297     33295     33297     33299     33300
     33295     33297     33299     33301     33295     33297     33299     33302
     33296     33295     33297     33298     33296     33295     33297     33299
     33297     33299     33302     33303     33297     33299     33302     33304
     33297     33299     33302     33305     33298     33297     33299     33300
     33298     33297     33299     33301     33298     33297     33299     33302
     33299     33302     33305     33306     33299     33302     33305     33307
     33299     33302     33305     33308     33300     33299     33302     33303
     33300     33299     33302     33304     33300     33299     33302     33305
     33301     33299     33302     33303     33301     33299     33302     33304
     33301     33299     33302     33305     33302     33305     33308     33309
     33302     33305     33308     33310     33302     33305     33308     33311
     33303     33302     33305     33306     33303     33302     33305     33307
     33303     33302     33305     33308     33304     33302     33305     33306
     33304     33302     33305     33307     33304     33302     33305     33308
     33305     33308     33311     33312     33305     33308     33311     33313
     33305     33308     33311     33314     33306     33305     33308     33309
     33306     33305     33308     33310     33306     33305     33308     33311
     33307     33305     33308     33309     33307     33305     33308     33310
     33307     33305     33308     33311     33308     33311     33314     33315
     33308     33311     33314     33316     33308     33311     33314     33317
     33309     33308     33311     33312     33309     33308     33311     33313
     33309     33308     33311     33314     33310     33308     33311     33312
     33310     33308     33311     33313     33310     33308     33311     33314
     33311     33314     33317     33318     33311     33314     33317     33319
     33311     33314     33317     33320     33312     33311     33314     33315
     33312     33311     33314     33316     33312     33311     33314     33317
     33313     33311     33314     33315     33313     33311     33314     33316
     33313     33311     33314     33317     33314     33317     33320     33321
     33314     33317     33320     33322     33314     33317     33320     33323
     33315     33314     33317     33318     33315     33314     33317     33319
     33315     33314     33317     33320     33316     33314     33317     33318
     33316     33314     33317     33319     33316     33314     33317     33320
     33318     33317     33320     33321     33318     33317     33320     33322
     33318     33317     33320     33323     33319     33317     33320     33321
     33319     33317     33320     33322     33319     33317     33320     33323
     33324     33327     33330     33331     33324     33327     33330     33332
     33324     33327     33330     33333     33325     33324     33327     33328
     33325     33324     33327     33329     33325     33324     33327     33330
     33326     33324     33327     33328     33326     33324     33327     33329
     33326     33324     33327     33330     33327     33330     33333     33334
     33327     33330     33333     33335     33327     33330     33333     33336
     33328     33327     33330     33331     33328     33327     33330     33332
     33328     33327     33330     33333     33329     33327     33330     33331
     33329     33327     33330     33332     33329     33327     33330     33333
     33330     33333     33336     33337     33330     33333     33336     33338
     33330     33333     33336     33339     33331     33330     33333     33334
     33331     33330     33333     33335     33331     33330     33333     33336
     33332     33330     33333     33334     33332     33330     33333     33335
     33332     33330     33333     33336     33333     33336     33339     33340
     33333     33336     33339     33341     33333     33336     33339     33342
     33334     33333     33336     33337     33334     33333     33336     33338
     33334     33333     33336     33339     33335     33333     33336     33337
     33335     33333     33336     33338     33335     33333     33336     33339
     33336     33339     33342     33343     33336     33339     33342     33344
     33336     33339     33342     33345     33337     33336     33339     33340
     33337     33336     33339     33341     33337     33336     33339     33342
     33338     33336     33339     33340     33338     33336     33339     33341
     33338     33336     33339     33342     33339     33342     33345     33346
     33339     33342     33345     33347     33339     33342     33345     33348
     33340     33339     33342     33343     33340     33339     33342     33344
     33340     33339     33342     33345     33341     33339     33342     33343
     33341     33339     33342     33344     33341     33339     33342     33345
     33342     33345     33348     33349     33342     33345     33348     33350
     33342     33345     33348     33351     33343     33342     33345     33346
     33343     33342     33345     33347     33343     33342     33345     33348
     33344     33342     33345     33346     33344     33342     33345     33347
     33344     33342     33345     33348     33345     33348     33351     33352
     33345     33348     33351     33353     33345     33348     33351     33354
     33346     33345     33348     33349     33346     33345     33348     33350
     33346     33345     33348     33351     33347     33345     33348     33349
     33347     33345     33348     33350     33347     33345     33348     33351
     33348     33351     33354     33355     33348     33351     33354     33356
     33348     33351     33354     33357     33349     33348     33351     33352
     33349     33348     33351     33353     33349     33348     33351     33354
     33350     33348     33351     33352     33350     33348     33351     33353
     33350     33348     33351     33354     33351     33354     33357     33358
     33351     33354     33357     33359     33351     33354     33357     33360
     33352     33351     33354     33355     33352     33351     33354     33356
     33352     33351     33354     33357     33353     33351     33354     33355
     33353     33351     33354     33356     33353     33351     33354     33357
     33354     33357     33360     33361     33354     33357     33360     33362
     33354     33357     33360     33363     33355     33354     33357     33358
     33355     33354     33357     33359     33355     33354     33357     33360
     33356     33354     33357     33358     33356     33354     33357     33359
     33356     33354     33357     33360     33357     33360     33363     33364
     33357     33360     33363     33365     33357     33360     33363     33366
     33358     33357     33360     33361     33358     33357     33360     33362
     33358     33357     33360     33363     33359     33357     33360     33361
     33359     33357     33360     33362     33359     33357     33360     33363
     33361     33360     33363     33364     33361     33360     33363     33365
     33361     33360     33363     33366     33362     33360     33363     33364
     33362     33360     33363     33365     33362     33360     33363     33366
     33367     33368     33383     33384     33367     33368     33383     33385
     33367     33368     33383     33389     33368     33367     33371     33372
     33368     33367     33371     33373     33368     33367     33371     33374
     33368     33367     33375     33376     33368     33367     33375     33377
     33368     33367     33375     33378     33368     33367     33379     33380
     33368     33367     33379     33381     33368     33367     33379     33382
     33368     33383     33389     33386     33369     33368     33367     33371
     33369     33368     33367     33375     33369     33368     33367     33379
     33369     33368     33383     33384     33369     33368     33383     33385
     33369     33368     33383     33389     33370     33368     33367     33371
     33370     33368     33367     33375     33370     33368     33367     33379
     33370     33368     33383     33384     33370     33368     33383     33385
     33370     33368     33383     33389     33371     33367     33368     33383
     33371     33367     33375     33376     33371     33367     33375     33377
     33371     33367     33375     33378     33371     33367     33379     33380
     33371     33367     33379     33381     33371     33367     33379     33382
     33372     33371     33367     33375     33372     33371     33367     33379
     33373     33371     33367     33375     33373     33371     33367     33379
     33374     33371     33367     33375     33374     33371     33367     33379
     33375     33367     33368     33383     33375     33367     33379     33380
     33375     33367     33379     33381     33375     33367     33379     33382
     33376     33375     33367     33379     33377     33375     33367     33379
     33378     33375     33367     33379     33379     33367     33368     33383
     33383     33389     33386     33387     33383     33389     33386     33388
     33383     33389     33386     33390     33384     33383     33389     33386
     33385     33383     33389     33386     33386     33390     33391     33392
     33386     33390     33391     33393     33386     33390     33391     33394
     33387     33386     33390     33391     33388     33386     33390     33391
     33389     33386     33390     33391     33390     33391     33394     33395
     33390     33391     33394     33396     33390     33391     33394     33402
     33391     33394     33396     33397     33391     33394     33402     33403
     33391     33394     33402     33404     33391     33394     33402     33405
     33392     33391     33394     33395     33392     33391     33394     33396
     33392     33391     33394     33402     33393     33391     33394     33395
     33393     33391     33394     33396     33393     33391     33394     33402
     33394     33396     33397     33398     33394     33396     33397     33399
     33394     33402     33405     33406     33395     33394     33396     33397
     33395     33394     33402     33403     33395     33394     33402     33404
     33395     33394     33402     33405     33396     33394     33402     33403
     33396     33394     33402     33404     33396     33394     33402     33405
     33396     33397     33399     33400     33396     33397     33399     33401
     33396     33397     33399     33411     33397     33396     33394     33402
     33397     33399     33411     33412     33397     33399     33411     33413
     33397     33399     33411     33414     33398     33397     33399     33400
     33398     33397     33399     33401     33398     33397     33399     33411
     33399     33411     33414     33415     33399     33411     33414     33416
     33399     33411     33414     33417     33400     33399     33411     33412
     33400     33399     33411     33413     33400     33399     33411     33414
     33401     33399     33411     33412     33401     33399     33411     33413
     33401     33399     33411     33414     33402     33405     33406     33407
     33402     33405     33406     33408     33403     33402     33405     33406
     33404     33402     33405     33406     33405     33406     33408     33409
     33405     33406     33408     33410     33405     33406     33408     33458
     33406     33408     33458     33459     33406     33408     33458     33460
     33406     33408     33458     33461     33407     33406     33408     33409
     33407     33406     33408     33410     33407     33406     33408     33458
     33408     33458     33461     33462     33408     33458     33461     33463
     33408     33458     33461     33464     33409     33408     33458     33459
     33409     33408     33458     33460     33409     33408     33458     33461
     33410     33408     33458     33459     33410     33408     33458     33460
     33410     33408     33458     33461     33411     33414     33417     33418
     33411     33414     33417     33419     33411     33414     33417     33420
     33412     33411     33414     33415     33412     33411     33414     33416
     33412     33411     33414     33417     33413     33411     33414     33415
     33413     33411     33414     33416     33413     33411     33414     33417
     33414     33417     33420     33421     33414     33417     33420     33422
     33414     33417     33420     33423     33415     33414     33417     33418
     33415     33414     33417     33419     33415     33414     33417     33420
     33416     33414     33417     33418     33416     33414     33417     33419
     33416     33414     33417     33420     33417     33420     33423     33424
     33417     33420     33423     33425     33417     33420     33423     33426
     33418     33417     33420     33421     33418     33417     33420     33422
     33418     33417     33420     33423     33419     33417     33420     33421
     33419     33417     33420     33422     33419     33417     33420     33423
     33420     33423     33426     33427     33420     33423     33426     33428
     33420     33423     33426     33429     33421     33420     33423     33424
     33421     33420     33423     33425     33421     33420     33423     33426
     33422     33420     33423     33424     33422     33420     33423     33425
     33422     33420     33423     33426     33423     33426     33429     33430
     33423     33426     33429     33431     33424     33423     33426     33427
     33424     33423     33426     33428     33424     33423     33426     33429
     33425     33423     33426     33427     33425     33423     33426     33428
     33425     33423     33426     33429     33426     33429     33431     33432
     33426     33429     33431     33433     33427     33426     33429     33430
     33427     33426     33429     33431     33428     33426     33429     33430
     33428     33426     33429     33431     33429     33431     33433     33434
     33429     33431     33433     33435     33429     33431     33433     33436
     33430     33429     33431     33432     33430     33429     33431     33433
     33431     33433     33436     33437     33431     33433     33436     33438
     33431     33433     33436     33439     33432     33431     33433     33434
     33432     33431     33433     33435     33432     33431     33433     33436
     33433     33436     33439     33440     33433     33436     33439     33441
     33433     33436     33439     33442     33434     33433     33436     33437
     33434     33433     33436     33438     33434     33433     33436     33439
     33435     33433     33436     33437     33435     33433     33436     33438
     33435     33433     33436     33439     33436     33439     33442     33443
     33436     33439     33442     33444     33436     33439     33442     33445
     33437     33436     33439     33440     33437     33436     33439     33441
     33437     33436     33439     33442     33438     33436     33439     33440
     33438     33436     33439     33441     33438     33436     33439     33442
     33439     33442     33445     33446     33439     33442     33445     33447
     33439     33442     33445     33448     33440     33439     33442     33443
     33440     33439     33442     33444     33440     33439     33442     33445
     33441     33439     33442     33443     33441     33439     33442     33444
     33441     33439     33442     33445     33442     33445     33448     33449
     33442     33445     33448     33450     33442     33445     33448     33451
     33443     33442     33445     33446     33443     33442     33445     33447
     33443     33442     33445     33448     33444     33442     33445     33446
     33444     33442     33445     33447     33444     33442     33445     33448
     33445     33448     33451     33452     33445     33448     33451     33453
     33445     33448     33451     33454     33446     33445     33448     33449
     33446     33445     33448     33450     33446     33445     33448     33451
     33447     33445     33448     33449     33447     33445     33448     33450
     33447     33445     33448     33451     33448     33451     33454     33455
     33448     33451     33454     33456     33448     33451     33454     33457
     33449     33448     33451     33452     33449     33448     33451     33453
     33449     33448     33451     33454     33450     33448     33451     33452
     33450     33448     33451     33453     33450     33448     33451     33454
     33452     33451     33454     33455     33452     33451     33454     33456
     33452     33451     33454     33457     33453     33451     33454     33455
     33453     33451     33454     33456     33453     33451     33454     33457
     33458     33461     33464     33465     33458     33461     33464     33466
     33458     33461     33464     33467     33459     33458     33461     33462
     33459     33458     33461     33463     33459     33458     33461     33464
     33460     33458     33461     33462     33460     33458     33461     33463
     33460     33458     33461     33464     33461     33464     33467     33468
     33461     33464     33467     33469     33461     33464     33467     33470
     33462     33461     33464     33465     33462     33461     33464     33466
     33462     33461     33464     33467     33463     33461     33464     33465
     33463     33461     33464     33466     33463     33461     33464     33467
     33464     33467     33470     33471     33464     33467     33470     33472
     33464     33467     33470     33473     33465     33464     33467     33468
     33465     33464     33467     33469     33465     33464     33467     33470
     33466     33464     33467     33468     33466     33464     33467     33469
     33466     33464     33467     33470     33467     33470     33473     33474
     33467     33470     33473     33475     33467     33470     33473     33476
     33468     33467     33470     33471     33468     33467     33470     33472
     33468     33467     33470     33473     33469     33467     33470     33471
     33469     33467     33470     33472     33469     33467     33470     33473
     33470     33473     33476     33477     33470     33473     33476     33478
     33470     33473     33476     33479     33471     33470     33473     33474
     33471     33470     33473     33475     33471     33470     33473     33476
     33472     33470     33473     33474     33472     33470     33473     33475
     33472     33470     33473     33476     33473     33476     33479     33480
     33473     33476     33479     33481     33473     33476     33479     33482
     33474     33473     33476     33477     33474     33473     33476     33478
     33474     33473     33476     33479     33475     33473     33476     33477
     33475     33473     33476     33478     33475     33473     33476     33479
     33476     33479     33482     33483     33476     33479     33482     33484
     33476     33479     33482     33485     33477     33476     33479     33480
     33477     33476     33479     33481     33477     33476     33479     33482
     33478     33476     33479     33480     33478     33476     33479     33481
     33478     33476     33479     33482     33479     33482     33485     33486
     33479     33482     33485     33487     33479     33482     33485     33488
     33480     33479     33482     33483     33480     33479     33482     33484
     33480     33479     33482     33485     33481     33479     33482     33483
     33481     33479     33482     33484     33481     33479     33482     33485
     33482     33485     33488     33489     33482     33485     33488     33490
     33482     33485     33488     33491     33483     33482     33485     33486
     33483     33482     33485     33487     33483     33482     33485     33488
     33484     33482     33485     33486     33484     33482     33485     33487
     33484     33482     33485     33488     33485     33488     33491     33492
     33485     33488     33491     33493     33485     33488     33491     33494
     33486     33485     33488     33489     33486     33485     33488     33490
     33486     33485     33488     33491     33487     33485     33488     33489
     33487     33485     33488     33490     33487     33485     33488     33491
     33488     33491     33494     33495     33488     33491     33494     33496
     33488     33491     33494     33497     33489     33488     33491     33492
     33489     33488     33491     33493     33489     33488     33491     33494
     33490     33488     33491     33492     33490     33488     33491     33493
     33490     33488     33491     33494     33491     33494     33497     33498
     33491     33494     33497     33499     33491     33494     33497     33500
     33492     33491     33494     33495     33492     33491     33494     33496
     33492     33491     33494     33497     33493     33491     33494     33495
     33493     33491     33494     33496     33493     33491     33494     33497
     33495     33494     33497     33498     33495     33494     33497     33499
     33495     33494     33497     33500     33496     33494     33497     33498
     33496     33494     33497     33499     33496     33494     33497     33500
     33501     33502     33517     33518     33501     33502     33517     33519
     33501     33502     33517     33523     33502     33501     33505     33506
     33502     33501     33505     33507     33502     33501     33505     33508
     33502     33501     33509     33510     33502     33501     33509     33511
     33502     33501     33509     33512     33502     33501     33513     33514
     33502     33501     33513     33515     33502     33501     33513     33516
     33502     33517     33523     33520     33503     33502     33501     33505
     33503     33502     33501     33509     33503     33502     33501     33513
     33503     33502     33517     33518     33503     33502     33517     33519
     33503     33502     33517     33523     33504     33502     33501     33505
     33504     33502     33501     33509     33504     33502     33501     33513
     33504     33502     33517     33518     33504     33502     33517     33519
     33504     33502     33517     33523     33505     33501     33502     33517
     33505     33501     33509     33510     33505     33501     33509     33511
     33505     33501     33509     33512     33505     33501     33513     33514
     33505     33501     33513     33515     33505     33501     33513     33516
     33506     33505     33501     33509     33506     33505     33501     33513
     33507     33505     33501     33509     33507     33505     33501     33513
     33508     33505     33501     33509     33508     33505     33501     33513
     33509     33501     33502     33517     33509     33501     33513     33514
     33509     33501     33513     33515     33509     33501     33513     33516
     33510     33509     33501     33513     33511     33509     33501     33513
     33512     33509     33501     33513     33513     33501     33502     33517
     33517     33523     33520     33521     33517     33523     33520     33522
     33517     33523     33520     33524     33518     33517     33523     33520
     33519     33517     33523     33520     33520     33524     33525     33526
     33520     33524     33525     33527     33520     33524     33525     33528
     33521     33520     33524     33525     33522     33520     33524     33525
     33523     33520     33524     33525     33524     33525     33528     33529
     33524     33525     33528     33530     33524     33525     33528     33536
     33525     33528     33530     33531     33525     33528     33536     33537
     33525     33528     33536     33538     33525     33528     33536     33539
     33526     33525     33528     33529     33526     33525     33528     33530
     33526     33525     33528     33536     33527     33525     33528     33529
     33527     33525     33528     33530     33527     33525     33528     33536
     33528     33530     33531     33532     33528     33530     33531     33533
     33528     33536     33539     33540     33529     33528     33530     33531
     33529     33528     33536     33537     33529     33528     33536     33538
     33529     33528     33536     33539     33530     33528     33536     33537
     33530     33528     33536     33538     33530     33528     33536     33539
     33530     33531     33533     33534     33530     33531     33533     33535
     33530     33531     33533     33545     33531     33530     33528     33536
     33531     33533     33545     33546     33531     33533     33545     33547
     33531     33533     33545     33548     33532     33531     33533     33534
     33532     33531     33533     33535     33532     33531     33533     33545
     33533     33545     33548     33549     33533     33545     33548     33550
     33533     33545     33548     33551     33534     33533     33545     33546
     33534     33533     33545     33547     33534     33533     33545     33548
     33535     33533     33545     33546     33535     33533     33545     33547
     33535     33533     33545     33548     33536     33539     33540     33541
     33536     33539     33540     33542     33537     33536     33539     33540
     33538     33536     33539     33540     33539     33540     33542     33543
     33539     33540     33542     33544     33539     33540     33542     33592
     33540     33542     33592     33593     33540     33542     33592     33594
     33540     33542     33592     33595     33541     33540     33542     33543
     33541     33540     33542     33544     33541     33540     33542     33592
     33542     33592     33595     33596     33542     33592     33595     33597
     33542     33592     33595     33598     33543     33542     33592     33593
     33543     33542     33592     33594     33543     33542     33592     33595
     33544     33542     33592     33593     33544     33542     33592     33594
     33544     33542     33592     33595     33545     33548     33551     33552
     33545     33548     33551     33553     33545     33548     33551     33554
     33546     33545     33548     33549     33546     33545     33548     33550
     33546     33545     33548     33551     33547     33545     33548     33549
     33547     33545     33548     33550     33547     33545     33548     33551
     33548     33551     33554     33555     33548     33551     33554     33556
     33548     33551     33554     33557     33549     33548     33551     33552
     33549     33548     33551     33553     33549     33548     33551     33554
     33550     33548     33551     33552     33550     33548     33551     33553
     33550     33548     33551     33554     33551     33554     33557     33558
     33551     33554     33557     33559     33551     33554     33557     33560
     33552     33551     33554     33555     33552     33551     33554     33556
     33552     33551     33554     33557     33553     33551     33554     33555
     33553     33551     33554     33556     33553     33551     33554     33557
     33554     33557     33560     33561     33554     33557     33560     33562
     33554     33557     33560     33563     33555     33554     33557     33558
     33555     33554     33557     33559     33555     33554     33557     33560
     33556     33554     33557     33558     33556     33554     33557     33559
     33556     33554     33557     33560     33557     33560     33563     33564
     33557     33560     33563     33565     33558     33557     33560     33561
     33558     33557     33560     33562     33558     33557     33560     33563
     33559     33557     33560     33561     33559     33557     33560     33562
     33559     33557     33560     33563     33560     33563     33565     33566
     33560     33563     33565     33567     33561     33560     33563     33564
     33561     33560     33563     33565     33562     33560     33563     33564
     33562     33560     33563     33565     33563     33565     33567     33568
     33563     33565     33567     33569     33563     33565     33567     33570
     33564     33563     33565     33566     33564     33563     33565     33567
     33565     33567     33570     33571     33565     33567     33570     33572
     33565     33567     33570     33573     33566     33565     33567     33568
     33566     33565     33567     33569     33566     33565     33567     33570
     33567     33570     33573     33574     33567     33570     33573     33575
     33567     33570     33573     33576     33568     33567     33570     33571
     33568     33567     33570     33572     33568     33567     33570     33573
     33569     33567     33570     33571     33569     33567     33570     33572
     33569     33567     33570     33573     33570     33573     33576     33577
     33570     33573     33576     33578     33570     33573     33576     33579
     33571     33570     33573     33574     33571     33570     33573     33575
     33571     33570     33573     33576     33572     33570     33573     33574
     33572     33570     33573     33575     33572     33570     33573     33576
     33573     33576     33579     33580     33573     33576     33579     33581
     33573     33576     33579     33582     33574     33573     33576     33577
     33574     33573     33576     33578     33574     33573     33576     33579
     33575     33573     33576     33577     33575     33573     33576     33578
     33575     33573     33576     33579     33576     33579     33582     33583
     33576     33579     33582     33584     33576     33579     33582     33585
     33577     33576     33579     33580     33577     33576     33579     33581
     33577     33576     33579     33582     33578     33576     33579     33580
     33578     33576     33579     33581     33578     33576     33579     33582
     33579     33582     33585     33586     33579     33582     33585     33587
     33579     33582     33585     33588     33580     33579     33582     33583
     33580     33579     33582     33584     33580     33579     33582     33585
     33581     33579     33582     33583     33581     33579     33582     33584
     33581     33579     33582     33585     33582     33585     33588     33589
     33582     33585     33588     33590     33582     33585     33588     33591
     33583     33582     33585     33586     33583     33582     33585     33587
     33583     33582     33585     33588     33584     33582     33585     33586
     33584     33582     33585     33587     33584     33582     33585     33588
     33586     33585     33588     33589     33586     33585     33588     33590
     33586     33585     33588     33591     33587     33585     33588     33589
     33587     33585     33588     33590     33587     33585     33588     33591
     33592     33595     33598     33599     33592     33595     33598     33600
     33592     33595     33598     33601     33593     33592     33595     33596
     33593     33592     33595     33597     33593     33592     33595     33598
     33594     33592     33595     33596     33594     33592     33595     33597
     33594     33592     33595     33598     33595     33598     33601     33602
     33595     33598     33601     33603     33595     33598     33601     33604
     33596     33595     33598     33599     33596     33595     33598     33600
     33596     33595     33598     33601     33597     33595     33598     33599
     33597     33595     33598     33600     33597     33595     33598     33601
     33598     33601     33604     33605     33598     33601     33604     33606
     33598     33601     33604     33607     33599     33598     33601     33602
     33599     33598     33601     33603     33599     33598     33601     33604
     33600     33598     33601     33602     33600     33598     33601     33603
     33600     33598     33601     33604     33601     33604     33607     33608
     33601     33604     33607     33609     33601     33604     33607     33610
     33602     33601     33604     33605     33602     33601     33604     33606
     33602     33601     33604     33607     33603     33601     33604     33605
     33603     33601     33604     33606     33603     33601     33604     33607
     33604     33607     33610     33611     33604     33607     33610     33612
     33604     33607     33610     33613     33605     33604     33607     33608
     33605     33604     33607     33609     33605     33604     33607     33610
     33606     33604     33607     33608     33606     33604     33607     33609
     33606     33604     33607     33610     33607     33610     33613     33614
     33607     33610     33613     33615     33607     33610     33613     33616
     33608     33607     33610     33611     33608     33607     33610     33612
     33608     33607     33610     33613     33609     33607     33610     33611
     33609     33607     33610     33612     33609     33607     33610     33613
     33610     33613     33616     33617     33610     33613     33616     33618
     33610     33613     33616     33619     33611     33610     33613     33614
     33611     33610     33613     33615     33611     33610     33613     33616
     33612     33610     33613     33614     33612     33610     33613     33615
     33612     33610     33613     33616     33613     33616     33619     33620
     33613     33616     33619     33621     33613     33616     33619     33622
     33614     33613     33616     33617     33614     33613     33616     33618
     33614     33613     33616     33619     33615     33613     33616     33617
     33615     33613     33616     33618     33615     33613     33616     33619
     33616     33619     33622     33623     33616     33619     33622     33624
     33616     33619     33622     33625     33617     33616     33619     33620
     33617     33616     33619     33621     33617     33616     33619     33622
     33618     33616     33619     33620     33618     33616     33619     33621
     33618     33616     33619     33622     33619     33622     33625     33626
     33619     33622     33625     33627     33619     33622     33625     33628
     33620     33619     33622     33623     33620     33619     33622     33624
     33620     33619     33622     33625     33621     33619     33622     33623
     33621     33619     33622     33624     33621     33619     33622     33625
     33622     33625     33628     33629     33622     33625     33628     33630
     33622     33625     33628     33631     33623     33622     33625     33626
     33623     33622     33625     33627     33623     33622     33625     33628
     33624     33622     33625     33626     33624     33622     33625     33627
     33624     33622     33625     33628     33625     33628     33631     33632
     33625     33628     33631     33633     33625     33628     33631     33634
     33626     33625     33628     33629     33626     33625     33628     33630
     33626     33625     33628     33631     33627     33625     33628     33629
     33627     33625     33628     33630     33627     33625     33628     33631
     33629     33628     33631     33632     33629     33628     33631     33633
     33629     33628     33631     33634     33630     33628     33631     33632
     33630     33628     33631     33633     33630     33628     33631     33634
     33635     33636     33651     33652     33635     33636     33651     33653
     33635     33636     33651     33657     33636     33635     33639     33640
     33636     33635     33639     33641     33636     33635     33639     33642
     33636     33635     33643     33644     33636     33635     33643     33645
     33636     33635     33643     33646     33636     33635     33647     33648
     33636     33635     33647     33649     33636     33635     33647     33650
     33636     33651     33657     33654     33637     33636     33635     33639
     33637     33636     33635     33643     33637     33636     33635     33647
     33637     33636     33651     33652     33637     33636     33651     33653
     33637     33636     33651     33657     33638     33636     33635     33639
     33638     33636     33635     33643     33638     33636     33635     33647
     33638     33636     33651     33652     33638     33636     33651     33653
     33638     33636     33651     33657     33639     33635     33636     33651
     33639     33635     33643     33644     33639     33635     33643     33645
     33639     33635     33643     33646     33639     33635     33647     33648
     33639     33635     33647     33649     33639     33635     33647     33650
     33640     33639     33635     33643     33640     33639     33635     33647
     33641     33639     33635     33643     33641     33639     33635     33647
     33642     33639     33635     33643     33642     33639     33635     33647
     33643     33635     33636     33651     33643     33635     33647     33648
     33643     33635     33647     33649     33643     33635     33647     33650
     33644     33643     33635     33647     33645     33643     33635     33647
     33646     33643     33635     33647     33647     33635     33636     33651
     33651     33657     33654     33655     33651     33657     33654     33656
     33651     33657     33654     33658     33652     33651     33657     33654
     33653     33651     33657     33654     33654     33658     33659     33660
     33654     33658     33659     33661     33654     33658     33659     33662
     33655     33654     33658     33659     33656     33654     33658     33659
     33657     33654     33658     33659     33658     33659     33662     33663
     33658     33659     33662     33664     33658     33659     33662     33670
     33659     33662     33664     33665     33659     33662     33670     33671
     33659     33662     33670     33672     33659     33662     33670     33673
     33660     33659     33662     33663     33660     33659     33662     33664
     33660     33659     33662     33670     33661     33659     33662     33663
     33661     33659     33662     33664     33661     33659     33662     33670
     33662     33664     33665     33666     33662     33664     33665     33667
     33662     33670     33673     33674     33663     33662     33664     33665
     33663     33662     33670     33671     33663     33662     33670     33672
     33663     33662     33670     33673     33664     33662     33670     33671
     33664     33662     33670     33672     33664     33662     33670     33673
     33664     33665     33667     33668     33664     33665     33667     33669
     33664     33665     33667     33679     33665     33664     33662     33670
     33665     33667     33679     33680     33665     33667     33679     33681
     33665     33667     33679     33682     33666     33665     33667     33668
     33666     33665     33667     33669     33666     33665     33667     33679
     33667     33679     33682     33683     33667     33679     33682     33684
     33667     33679     33682     33685     33668     33667     33679     33680
     33668     33667     33679     33681     33668     33667     33679     33682
     33669     33667     33679     33680     33669     33667     33679     33681
     33669     33667     33679     33682     33670     33673     33674     33675
     33670     33673     33674     33676     33671     33670     33673     33674
     33672     33670     33673     33674     33673     33674     33676     33677
     33673     33674     33676     33678     33673     33674     33676     33726
     33674     33676     33726     33727     33674     33676     33726     33728
     33674     33676     33726     33729     33675     33674     33676     33677
     33675     33674     33676     33678     33675     33674     33676     33726
     33676     33726     33729     33730     33676     33726     33729     33731
     33676     33726     33729     33732     33677     33676     33726     33727
     33677     33676     33726     33728     33677     33676     33726     33729
     33678     33676     33726     33727     33678     33676     33726     33728
     33678     33676     33726     33729     33679     33682     33685     33686
     33679     33682     33685     33687     33679     33682     33685     33688
     33680     33679     33682     33683     33680     33679     33682     33684
     33680     33679     33682     33685     33681     33679     33682     33683
     33681     33679     33682     33684     33681     33679     33682     33685
     33682     33685     33688     33689     33682     33685     33688     33690
     33682     33685     33688     33691     33683     33682     33685     33686
     33683     33682     33685     33687     33683     33682     33685     33688
     33684     33682     33685     33686     33684     33682     33685     33687
     33684     33682     33685     33688     33685     33688     33691     33692
     33685     33688     33691     33693     33685     33688     33691     33694
     33686     33685     33688     33689     33686     33685     33688     33690
     33686     33685     33688     33691     33687     33685     33688     33689
     33687     33685     33688     33690     33687     33685     33688     33691
     33688     33691     33694     33695     33688     33691     33694     33696
     33688     33691     33694     33697     33689     33688     33691     33692
     33689     33688     33691     33693     33689     33688     33691     33694
     33690     33688     33691     33692     33690     33688     33691     33693
     33690     33688     33691     33694     33691     33694     33697     33698
     33691     33694     33697     33699     33692     33691     33694     33695
     33692     33691     33694     33696     33692     33691     33694     33697
     33693     33691     33694     33695     33693     33691     33694     33696
     33693     33691     33694     33697     33694     33697     33699     33700
     33694     33697     33699     33701     33695     33694     33697     33698
     33695     33694     33697     33699     33696     33694     33697     33698
     33696     33694     33697     33699     33697     33699     33701     33702
     33697     33699     33701     33703     33697     33699     33701     33704
     33698     33697     33699     33700     33698     33697     33699     33701
     33699     33701     33704     33705     33699     33701     33704     33706
     33699     33701     33704     33707     33700     33699     33701     33702
     33700     33699     33701     33703     33700     33699     33701     33704
     33701     33704     33707     33708     33701     33704     33707     33709
     33701     33704     33707     33710     33702     33701     33704     33705
     33702     33701     33704     33706     33702     33701     33704     33707
     33703     33701     33704     33705     33703     33701     33704     33706
     33703     33701     33704     33707     33704     33707     33710     33711
     33704     33707     33710     33712     33704     33707     33710     33713
     33705     33704     33707     33708     33705     33704     33707     33709
     33705     33704     33707     33710     33706     33704     33707     33708
     33706     33704     33707     33709     33706     33704     33707     33710
     33707     33710     33713     33714     33707     33710     33713     33715
     33707     33710     33713     33716     33708     33707     33710     33711
     33708     33707     33710     33712     33708     33707     33710     33713
     33709     33707     33710     33711     33709     33707     33710     33712
     33709     33707     33710     33713     33710     33713     33716     33717
     33710     33713     33716     33718     33710     33713     33716     33719
     33711     33710     33713     33714     33711     33710     33713     33715
     33711     33710     33713     33716     33712     33710     33713     33714
     33712     33710     33713     33715     33712     33710     33713     33716
     33713     33716     33719     33720     33713     33716     33719     33721
     33713     33716     33719     33722     33714     33713     33716     33717
     33714     33713     33716     33718     33714     33713     33716     33719
     33715     33713     33716     33717     33715     33713     33716     33718
     33715     33713     33716     33719     33716     33719     33722     33723
     33716     33719     33722     33724     33716     33719     33722     33725
     33717     33716     33719     33720     33717     33716     33719     33721
     33717     33716     33719     33722     33718     33716     33719     33720
     33718     33716     33719     33721     33718     33716     33719     33722
     33720     33719     33722     33723     33720     33719     33722     33724
     33720     33719     33722     33725     33721     33719     33722     33723
     33721     33719     33722     33724     33721     33719     33722     33725
     33726     33729     33732     33733     33726     33729     33732     33734
     33726     33729     33732     33735     33727     33726     33729     33730
     33727     33726     33729     33731     33727     33726     33729     33732
     33728     33726     33729     33730     33728     33726     33729     33731
     33728     33726     33729     33732     33729     33732     33735     33736
     33729     33732     33735     33737     33729     33732     33735     33738
     33730     33729     33732     33733     33730     33729     33732     33734
     33730     33729     33732     33735     33731     33729     33732     33733
     33731     33729     33732     33734     33731     33729     33732     33735
     33732     33735     33738     33739     33732     33735     33738     33740
     33732     33735     33738     33741     33733     33732     33735     33736
     33733     33732     33735     33737     33733     33732     33735     33738
     33734     33732     33735     33736     33734     33732     33735     33737
     33734     33732     33735     33738     33735     33738     33741     33742
     33735     33738     33741     33743     33735     33738     33741     33744
     33736     33735     33738     33739     33736     33735     33738     33740
     33736     33735     33738     33741     33737     33735     33738     33739
     33737     33735     33738     33740     33737     33735     33738     33741
     33738     33741     33744     33745     33738     33741     33744     33746
     33738     33741     33744     33747     33739     33738     33741     33742
     33739     33738     33741     33743     33739     33738     33741     33744
     33740     33738     33741     33742     33740     33738     33741     33743
     33740     33738     33741     33744     33741     33744     33747     33748
     33741     33744     33747     33749     33741     33744     33747     33750
     33742     33741     33744     33745     33742     33741     33744     33746
     33742     33741     33744     33747     33743     33741     33744     33745
     33743     33741     33744     33746     33743     33741     33744     33747
     33744     33747     33750     33751     33744     33747     33750     33752
     33744     33747     33750     33753     33745     33744     33747     33748
     33745     33744     33747     33749     33745     33744     33747     33750
     33746     33744     33747     33748     33746     33744     33747     33749
     33746     33744     33747     33750     33747     33750     33753     33754
     33747     33750     33753     33755     33747     33750     33753     33756
     33748     33747     33750     33751     33748     33747     33750     33752
     33748     33747     33750     33753     33749     33747     33750     33751
     33749     33747     33750     33752     33749     33747     33750     33753
     33750     33753     33756     33757     33750     33753     33756     33758
     33750     33753     33756     33759     33751     33750     33753     33754
     33751     33750     33753     33755     33751     33750     33753     33756
     33752     33750     33753     33754     33752     33750     33753     33755
     33752     33750     33753     33756     33753     33756     33759     33760
     33753     33756     33759     33761     33753     33756     33759     33762
     33754     33753     33756     33757     33754     33753     33756     33758
     33754     33753     33756     33759     33755     33753     33756     33757
     33755     33753     33756     33758     33755     33753     33756     33759
     33756     33759     33762     33763     33756     33759     33762     33764
     33756     33759     33762     33765     33757     33756     33759     33760
     33757     33756     33759     33761     33757     33756     33759     33762
     33758     33756     33759     33760     33758     33756     33759     33761
     33758     33756     33759     33762     33759     33762     33765     33766
     33759     33762     33765     33767     33759     33762     33765     33768
     33760     33759     33762     33763     33760     33759     33762     33764
     33760     33759     33762     33765     33761     33759     33762     33763
     33761     33759     33762     33764     33761     33759     33762     33765
     33763     33762     33765     33766     33763     33762     33765     33767
     33763     33762     33765     33768     33764     33762     33765     33766
     33764     33762     33765     33767     33764     33762     33765     33768
     33769     33770     33785     33786     33769     33770     33785     33787
     33769     33770     33785     33791     33770     33769     33773     33774
     33770     33769     33773     33775     33770     33769     33773     33776
     33770     33769     33777     33778     33770     33769     33777     33779
     33770     33769     33777     33780     33770     33769     33781     33782
     33770     33769     33781     33783     33770     33769     33781     33784
     33770     33785     33791     33788     33771     33770     33769     33773
     33771     33770     33769     33777     33771     33770     33769     33781
     33771     33770     33785     33786     33771     33770     33785     33787
     33771     33770     33785     33791     33772     33770     33769     33773
     33772     33770     33769     33777     33772     33770     33769     33781
     33772     33770     33785     33786     33772     33770     33785     33787
     33772     33770     33785     33791     33773     33769     33770     33785
     33773     33769     33777     33778     33773     33769     33777     33779
     33773     33769     33777     33780     33773     33769     33781     33782
     33773     33769     33781     33783     33773     33769     33781     33784
     33774     33773     33769     33777     33774     33773     33769     33781
     33775     33773     33769     33777     33775     33773     33769     33781
     33776     33773     33769     33777     33776     33773     33769     33781
     33777     33769     33770     33785     33777     33769     33781     33782
     33777     33769     33781     33783     33777     33769     33781     33784
     33778     33777     33769     33781     33779     33777     33769     33781
     33780     33777     33769     33781     33781     33769     33770     33785
     33785     33791     33788     33789     33785     33791     33788     33790
     33785     33791     33788     33792     33786     33785     33791     33788
     33787     33785     33791     33788     33788     33792     33793     33794
     33788     33792     33793     33795     33788     33792     33793     33796
     33789     33788     33792     33793     33790     33788     33792     33793
     33791     33788     33792     33793     33792     33793     33796     33797
     33792     33793     33796     33798     33792     33793     33796     33804
     33793     33796     33798     33799     33793     33796     33804     33805
     33793     33796     33804     33806     33793     33796     33804     33807
     33794     33793     33796     33797     33794     33793     33796     33798
     33794     33793     33796     33804     33795     33793     33796     33797
     33795     33793     33796     33798     33795     33793     33796     33804
     33796     33798     33799     33800     33796     33798     33799     33801
     33796     33804     33807     33808     33797     33796     33798     33799
     33797     33796     33804     33805     33797     33796     33804     33806
     33797     33796     33804     33807     33798     33796     33804     33805
     33798     33796     33804     33806     33798     33796     33804     33807
     33798     33799     33801     33802     33798     33799     33801     33803
     33798     33799     33801     33813     33799     33798     33796     33804
     33799     33801     33813     33814     33799     33801     33813     33815
     33799     33801     33813     33816     33800     33799     33801     33802
     33800     33799     33801     33803     33800     33799     33801     33813
     33801     33813     33816     33817     33801     33813     33816     33818
     33801     33813     33816     33819     33802     33801     33813     33814
     33802     33801     33813     33815     33802     33801     33813     33816
     33803     33801     33813     33814     33803     33801     33813     33815
     33803     33801     33813     33816     33804     33807     33808     33809
     33804     33807     33808     33810     33805     33804     33807     33808
     33806     33804     33807     33808     33807     33808     33810     33811
     33807     33808     33810     33812     33807     33808     33810     33860
     33808     33810     33860     33861     33808     33810     33860     33862
     33808     33810     33860     33863     33809     33808     33810     33811
     33809     33808     33810     33812     33809     33808     33810     33860
     33810     33860     33863     33864     33810     33860     33863     33865
     33810     33860     33863     33866     33811     33810     33860     33861
     33811     33810     33860     33862     33811     33810     33860     33863
     33812     33810     33860     33861     33812     33810     33860     33862
     33812     33810     33860     33863     33813     33816     33819     33820
     33813     33816     33819     33821     33813     33816     33819     33822
     33814     33813     33816     33817     33814     33813     33816     33818
     33814     33813     33816     33819     33815     33813     33816     33817
     33815     33813     33816     33818     33815     33813     33816     33819
     33816     33819     33822     33823     33816     33819     33822     33824
     33816     33819     33822     33825     33817     33816     33819     33820
     33817     33816     33819     33821     33817     33816     33819     33822
     33818     33816     33819     33820     33818     33816     33819     33821
     33818     33816     33819     33822     33819     33822     33825     33826
     33819     33822     33825     33827     33819     33822     33825     33828
     33820     33819     33822     33823     33820     33819     33822     33824
     33820     33819     33822     33825     33821     33819     33822     33823
     33821     33819     33822     33824     33821     33819     33822     33825
     33822     33825     33828     33829     33822     33825     33828     33830
     33822     33825     33828     33831     33823     33822     33825     33826
     33823     33822     33825     33827     33823     33822     33825     33828
     33824     33822     33825     33826     33824     33822     33825     33827
     33824     33822     33825     33828     33825     33828     33831     33832
     33825     33828     33831     33833     33826     33825     33828     33829
     33826     33825     33828     33830     33826     33825     33828     33831
     33827     33825     33828     33829     33827     33825     33828     33830
     33827     33825     33828     33831     33828     33831     33833     33834
     33828     33831     33833     33835     33829     33828     33831     33832
     33829     33828     33831     33833     33830     33828     33831     33832
     33830     33828     33831     33833     33831     33833     33835     33836
     33831     33833     33835     33837     33831     33833     33835     33838
     33832     33831     33833     33834     33832     33831     33833     33835
     33833     33835     33838     33839     33833     33835     33838     33840
     33833     33835     33838     33841     33834     33833     33835     33836
     33834     33833     33835     33837     33834     33833     33835     33838
     33835     33838     33841     33842     33835     33838     33841     33843
     33835     33838     33841     33844     33836     33835     33838     33839
     33836     33835     33838     33840     33836     33835     33838     33841
     33837     33835     33838     33839     33837     33835     33838     33840
     33837     33835     33838     33841     33838     33841     33844     33845
     33838     33841     33844     33846     33838     33841     33844     33847
     33839     33838     33841     33842     33839     33838     33841     33843
     33839     33838     33841     33844     33840     33838     33841     33842
     33840     33838     33841     33843     33840     33838     33841     33844
     33841     33844     33847     33848     33841     33844     33847     33849
     33841     33844     33847     33850     33842     33841     33844     33845
     33842     33841     33844     33846     33842     33841     33844     33847
     33843     33841     33844     33845     33843     33841     33844     33846
     33843     33841     33844     33847     33844     33847     33850     33851
     33844     33847     33850     33852     33844     33847     33850     33853
     33845     33844     33847     33848     33845     33844     33847     33849
     33845     33844     33847     33850     33846     33844     33847     33848
     33846     33844     33847     33849     33846     33844     33847     33850
     33847     33850     33853     33854     33847     33850     33853     33855
     33847     33850     33853     33856     33848     33847     33850     33851
     33848     33847     33850     33852     33848     33847     33850     33853
     33849     33847     33850     33851     33849     33847     33850     33852
     33849     33847     33850     33853     33850     33853     33856     33857
     33850     33853     33856     33858     33850     33853     33856     33859
     33851     33850     33853     33854     33851     33850     33853     33855
     33851     33850     33853     33856     33852     33850     33853     33854
     33852     33850     33853     33855     33852     33850     33853     33856
     33854     33853     33856     33857     33854     33853     33856     33858
     33854     33853     33856     33859     33855     33853     33856     33857
     33855     33853     33856     33858     33855     33853     33856     33859
     33860     33863     33866     33867     33860     33863     33866     33868
     33860     33863     33866     33869     33861     33860     33863     33864
     33861     33860     33863     33865     33861     33860     33863     33866
     33862     33860     33863     33864     33862     33860     33863     33865
     33862     33860     33863     33866     33863     33866     33869     33870
     33863     33866     33869     33871     33863     33866     33869     33872
     33864     33863     33866     33867     33864     33863     33866     33868
     33864     33863     33866     33869     33865     33863     33866     33867
     33865     33863     33866     33868     33865     33863     33866     33869
     33866     33869     33872     33873     33866     33869     33872     33874
     33866     33869     33872     33875     33867     33866     33869     33870
     33867     33866     33869     33871     33867     33866     33869     33872
     33868     33866     33869     33870     33868     33866     33869     33871
     33868     33866     33869     33872     33869     33872     33875     33876
     33869     33872     33875     33877     33869     33872     33875     33878
     33870     33869     33872     33873     33870     33869     33872     33874
     33870     33869     33872     33875     33871     33869     33872     33873
     33871     33869     33872     33874     33871     33869     33872     33875
     33872     33875     33878     33879     33872     33875     33878     33880
     33872     33875     33878     33881     33873     33872     33875     33876
     33873     33872     33875     33877     33873     33872     33875     33878
     33874     33872     33875     33876     33874     33872     33875     33877
     33874     33872     33875     33878     33875     33878     33881     33882
     33875     33878     33881     33883     33875     33878     33881     33884
     33876     33875     33878     33879     33876     33875     33878     33880
     33876     33875     33878     33881     33877     33875     33878     33879
     33877     33875     33878     33880     33877     33875     33878     33881
     33878     33881     33884     33885     33878     33881     33884     33886
     33878     33881     33884     33887     33879     33878     33881     33882
     33879     33878     33881     33883     33879     33878     33881     33884
     33880     33878     33881     33882     33880     33878     33881     33883
     33880     33878     33881     33884     33881     33884     33887     33888
     33881     33884     33887     33889     33881     33884     33887     33890
     33882     33881     33884     33885     33882     33881     33884     33886
     33882     33881     33884     33887     33883     33881     33884     33885
     33883     33881     33884     33886     33883     33881     33884     33887
     33884     33887     33890     33891     33884     33887     33890     33892
     33884     33887     33890     33893     33885     33884     33887     33888
     33885     33884     33887     33889     33885     33884     33887     33890
     33886     33884     33887     33888     33886     33884     33887     33889
     33886     33884     33887     33890     33887     33890     33893     33894
     33887     33890     33893     33895     33887     33890     33893     33896
     33888     33887     33890     33891     33888     33887     33890     33892
     33888     33887     33890     33893     33889     33887     33890     33891
     33889     33887     33890     33892     33889     33887     33890     33893
     33890     33893     33896     33897     33890     33893     33896     33898
     33890     33893     33896     33899     33891     33890     33893     33894
     33891     33890     33893     33895     33891     33890     33893     33896
     33892     33890     33893     33894     33892     33890     33893     33895
     33892     33890     33893     33896     33893     33896     33899     33900
     33893     33896     33899     33901     33893     33896     33899     33902
     33894     33893     33896     33897     33894     33893     33896     33898
     33894     33893     33896     33899     33895     33893     33896     33897
     33895     33893     33896     33898     33895     33893     33896     33899
     33897     33896     33899     33900     33897     33896     33899     33901
     33897     33896     33899     33902     33898     33896     33899     33900
     33898     33896     33899     33901     33898     33896     33899     33902
     33903     33904     33919     33920     33903     33904     33919     33921
     33903     33904     33919     33925     33904     33903     33907     33908
     33904     33903     33907     33909     33904     33903     33907     33910
     33904     33903     33911     33912     33904     33903     33911     33913
     33904     33903     33911     33914     33904     33903     33915     33916
     33904     33903     33915     33917     33904     33903     33915     33918
     33904     33919     33925     33922     33905     33904     33903     33907
     33905     33904     33903     33911     33905     33904     33903     33915
     33905     33904     33919     33920     33905     33904     33919     33921
     33905     33904     33919     33925     33906     33904     33903     33907
     33906     33904     33903     33911     33906     33904     33903     33915
     33906     33904     33919     33920     33906     33904     33919     33921
     33906     33904     33919     33925     33907     33903     33904     33919
     33907     33903     33911     33912     33907     33903     33911     33913
     33907     33903     33911     33914     33907     33903     33915     33916
     33907     33903     33915     33917     33907     33903     33915     33918
     33908     33907     33903     33911     33908     33907     33903     33915
     33909     33907     33903     33911     33909     33907     33903     33915
     33910     33907     33903     33911     33910     33907     33903     33915
     33911     33903     33904     33919     33911     33903     33915     33916
     33911     33903     33915     33917     33911     33903     33915     33918
     33912     33911     33903     33915     33913     33911     33903     33915
     33914     33911     33903     33915     33915     33903     33904     33919
     33919     33925     33922     33923     33919     33925     33922     33924
     33919     33925     33922     33926     33920     33919     33925     33922
     33921     33919     33925     33922     33922     33926     33927     33928
     33922     33926     33927     33929     33922     33926     33927     33930
     33923     33922     33926     33927     33924     33922     33926     33927
     33925     33922     33926     33927     33926     33927     33930     33931
     33926     33927     33930     33932     33926     33927     33930     33938
     33927     33930     33932     33933     33927     33930     33938     33939
     33927     33930     33938     33940     33927     33930     33938     33941
     33928     33927     33930     33931     33928     33927     33930     33932
     33928     33927     33930     33938     33929     33927     33930     33931
     33929     33927     33930     33932     33929     33927     33930     33938
     33930     33932     33933     33934     33930     33932     33933     33935
     33930     33938     33941     33942     33931     33930     33932     33933
     33931     33930     33938     33939     33931     33930     33938     33940
     33931     33930     33938     33941     33932     33930     33938     33939
     33932     33930     33938     33940     33932     33930     33938     33941
     33932     33933     33935     33936     33932     33933     33935     33937
     33932     33933     33935     33947     33933     33932     33930     33938
     33933     33935     33947     33948     33933     33935     33947     33949
     33933     33935     33947     33950     33934     33933     33935     33936
     33934     33933     33935     33937     33934     33933     33935     33947
     33935     33947     33950     33951     33935     33947     33950     33952
     33935     33947     33950     33953     33936     33935     33947     33948
     33936     33935     33947     33949     33936     33935     33947     33950
     33937     33935     33947     33948     33937     33935     33947     33949
     33937     33935     33947     33950     33938     33941     33942     33943
     33938     33941     33942     33944     33939     33938     33941     33942
     33940     33938     33941     33942     33941     33942     33944     33945
     33941     33942     33944     33946     33941     33942     33944     33994
     33942     33944     33994     33995     33942     33944     33994     33996
     33942     33944     33994     33997     33943     33942     33944     33945
     33943     33942     33944     33946     33943     33942     33944     33994
     33944     33994     33997     33998     33944     33994     33997     33999
     33944     33994     33997     34000     33945     33944     33994     33995
     33945     33944     33994     33996     33945     33944     33994     33997
     33946     33944     33994     33995     33946     33944     33994     33996
     33946     33944     33994     33997     33947     33950     33953     33954
     33947     33950     33953     33955     33947     33950     33953     33956
     33948     33947     33950     33951     33948     33947     33950     33952
     33948     33947     33950     33953     33949     33947     33950     33951
     33949     33947     33950     33952     33949     33947     33950     33953
     33950     33953     33956     33957     33950     33953     33956     33958
     33950     33953     33956     33959     33951     33950     33953     33954
     33951     33950     33953     33955     33951     33950     33953     33956
     33952     33950     33953     33954     33952     33950     33953     33955
     33952     33950     33953     33956     33953     33956     33959     33960
     33953     33956     33959     33961     33953     33956     33959     33962
     33954     33953     33956     33957     33954     33953     33956     33958
     33954     33953     33956     33959     33955     33953     33956     33957
     33955     33953     33956     33958     33955     33953     33956     33959
     33956     33959     33962     33963     33956     33959     33962     33964
     33956     33959     33962     33965     33957     33956     33959     33960
     33957     33956     33959     33961     33957     33956     33959     33962
     33958     33956     33959     33960     33958     33956     33959     33961
     33958     33956     33959     33962     33959     33962     33965     33966
     33959     33962     33965     33967     33960     33959     33962     33963
     33960     33959     33962     33964     33960     33959     33962     33965
     33961     33959     33962     33963     33961     33959     33962     33964
     33961     33959     33962     33965     33962     33965     33967     33968
     33962     33965     33967     33969     33963     33962     33965     33966
     33963     33962     33965     33967     33964     33962     33965     33966
     33964     33962     33965     33967     33965     33967     33969     33970
     33965     33967     33969     33971     33965     33967     33969     33972
     33966     33965     33967     33968     33966     33965     33967     33969
     33967     33969     33972     33973     33967     33969     33972     33974
     33967     33969     33972     33975     33968     33967     33969     33970
     33968     33967     33969     33971     33968     33967     33969     33972
     33969     33972     33975     33976     33969     33972     33975     33977
     33969     33972     33975     33978     33970     33969     33972     33973
     33970     33969     33972     33974     33970     33969     33972     33975
     33971     33969     33972     33973     33971     33969     33972     33974
     33971     33969     33972     33975     33972     33975     33978     33979
     33972     33975     33978     33980     33972     33975     33978     33981
     33973     33972     33975     33976     33973     33972     33975     33977
     33973     33972     33975     33978     33974     33972     33975     33976
     33974     33972     33975     33977     33974     33972     33975     33978
     33975     33978     33981     33982     33975     33978     33981     33983
     33975     33978     33981     33984     33976     33975     33978     33979
     33976     33975     33978     33980     33976     33975     33978     33981
     33977     33975     33978     33979     33977     33975     33978     33980
     33977     33975     33978     33981     33978     33981     33984     33985
     33978     33981     33984     33986     33978     33981     33984     33987
     33979     33978     33981     33982     33979     33978     33981     33983
     33979     33978     33981     33984     33980     33978     33981     33982
     33980     33978     33981     33983     33980     33978     33981     33984
     33981     33984     33987     33988     33981     33984     33987     33989
     33981     33984     33987     33990     33982     33981     33984     33985
     33982     33981     33984     33986     33982     33981     33984     33987
     33983     33981     33984     33985     33983     33981     33984     33986
     33983     33981     33984     33987     33984     33987     33990     33991
     33984     33987     33990     33992     33984     33987     33990     33993
     33985     33984     33987     33988     33985     33984     33987     33989
     33985     33984     33987     33990     33986     33984     33987     33988
     33986     33984     33987     33989     33986     33984     33987     33990
     33988     33987     33990     33991     33988     33987     33990     33992
     33988     33987     33990     33993     33989     33987     33990     33991
     33989     33987     33990     33992     33989     33987     33990     33993
     33994     33997     34000     34001     33994     33997     34000     34002
     33994     33997     34000     34003     33995     33994     33997     33998
     33995     33994     33997     33999     33995     33994     33997     34000
     33996     33994     33997     33998     33996     33994     33997     33999
     33996     33994     33997     34000     33997     34000     34003     34004
     33997     34000     34003     34005     33997     34000     34003     34006
     33998     33997     34000     34001     33998     33997     34000     34002
     33998     33997     34000     34003     33999     33997     34000     34001
     33999     33997     34000     34002     33999     33997     34000     34003
     34000     34003     34006     34007     34000     34003     34006     34008
     34000     34003     34006     34009     34001     34000     34003     34004
     34001     34000     34003     34005     34001     34000     34003     34006
     34002     34000     34003     34004     34002     34000     34003     34005
     34002     34000     34003     34006     34003     34006     34009     34010
     34003     34006     34009     34011     34003     34006     34009     34012
     34004     34003     34006     34007     34004     34003     34006     34008
     34004     34003     34006     34009     34005     34003     34006     34007
     34005     34003     34006     34008     34005     34003     34006     34009
     34006     34009     34012     34013     34006     34009     34012     34014
     34006     34009     34012     34015     34007     34006     34009     34010
     34007     34006     34009     34011     34007     34006     34009     34012
     34008     34006     34009     34010     34008     34006     34009     34011
     34008     34006     34009     34012     34009     34012     34015     34016
     34009     34012     34015     34017     34009     34012     34015     34018
     34010     34009     34012     34013     34010     34009     34012     34014
     34010     34009     34012     34015     34011     34009     34012     34013
     34011     34009     34012     34014     34011     34009     34012     34015
     34012     34015     34018     34019     34012     34015     34018     34020
     34012     34015     34018     34021     34013     34012     34015     34016
     34013     34012     34015     34017     34013     34012     34015     34018
     34014     34012     34015     34016     34014     34012     34015     34017
     34014     34012     34015     34018     34015     34018     34021     34022
     34015     34018     34021     34023     34015     34018     34021     34024
     34016     34015     34018     34019     34016     34015     34018     34020
     34016     34015     34018     34021     34017     34015     34018     34019
     34017     34015     34018     34020     34017     34015     34018     34021
     34018     34021     34024     34025     34018     34021     34024     34026
     34018     34021     34024     34027     34019     34018     34021     34022
     34019     34018     34021     34023     34019     34018     34021     34024
     34020     34018     34021     34022     34020     34018     34021     34023
     34020     34018     34021     34024     34021     34024     34027     34028
     34021     34024     34027     34029     34021     34024     34027     34030
     34022     34021     34024     34025     34022     34021     34024     34026
     34022     34021     34024     34027     34023     34021     34024     34025
     34023     34021     34024     34026     34023     34021     34024     34027
     34024     34027     34030     34031     34024     34027     34030     34032
     34024     34027     34030     34033     34025     34024     34027     34028
     34025     34024     34027     34029     34025     34024     34027     34030
     34026     34024     34027     34028     34026     34024     34027     34029
     34026     34024     34027     34030     34027     34030     34033     34034
     34027     34030     34033     34035     34027     34030     34033     34036
     34028     34027     34030     34031     34028     34027     34030     34032
     34028     34027     34030     34033     34029     34027     34030     34031
     34029     34027     34030     34032     34029     34027     34030     34033
     34031     34030     34033     34034     34031     34030     34033     34035
     34031     34030     34033     34036     34032     34030     34033     34034
     34032     34030     34033     34035     34032     34030     34033     34036
     34037     34038     34053     34054     34037     34038     34053     34055
     34037     34038     34053     34059     34038     34037     34041     34042
     34038     34037     34041     34043     34038     34037     34041     34044
     34038     34037     34045     34046     34038     34037     34045     34047
     34038     34037     34045     34048     34038     34037     34049     34050
     34038     34037     34049     34051     34038     34037     34049     34052
     34038     34053     34059     34056     34039     34038     34037     34041
     34039     34038     34037     34045     34039     34038     34037     34049
     34039     34038     34053     34054     34039     34038     34053     34055
     34039     34038     34053     34059     34040     34038     34037     34041
     34040     34038     34037     34045     34040     34038     34037     34049
     34040     34038     34053     34054     34040     34038     34053     34055
     34040     34038     34053     34059     34041     34037     34038     34053
     34041     34037     34045     34046     34041     34037     34045     34047
     34041     34037     34045     34048     34041     34037     34049     34050
     34041     34037     34049     34051     34041     34037     34049     34052
     34042     34041     34037     34045     34042     34041     34037     34049
     34043     34041     34037     34045     34043     34041     34037     34049
     34044     34041     34037     34045     34044     34041     34037     34049
     34045     34037     34038     34053     34045     34037     34049     34050
     34045     34037     34049     34051     34045     34037     34049     34052
     34046     34045     34037     34049     34047     34045     34037     34049
     34048     34045     34037     34049     34049     34037     34038     34053
     34053     34059     34056     34057     34053     34059     34056     34058
     34053     34059     34056     34060     34054     34053     34059     34056
     34055     34053     34059     34056     34056     34060     34061     34062
     34056     34060     34061     34063     34056     34060     34061     34064
     34057     34056     34060     34061     34058     34056     34060     34061
     34059     34056     34060     34061     34060     34061     34064     34065
     34060     34061     34064     34066     34060     34061     34064     34072
     34061     34064     34066     34067     34061     34064     34072     34073
     34061     34064     34072     34074     34061     34064     34072     34075
     34062     34061     34064     34065     34062     34061     34064     34066
     34062     34061     34064     34072     34063     34061     34064     34065
     34063     34061     34064     34066     34063     34061     34064     34072
     34064     34066     34067     34068     34064     34066     34067     34069
     34064     34072     34075     34076     34065     34064     34066     34067
     34065     34064     34072     34073     34065     34064     34072     34074
     34065     34064     34072     34075     34066     34064     34072     34073
     34066     34064     34072     34074     34066     34064     34072     34075
     34066     34067     34069     34070     34066     34067     34069     34071
     34066     34067     34069     34081     34067     34066     34064     34072
     34067     34069     34081     34082     34067     34069     34081     34083
     34067     34069     34081     34084     34068     34067     34069     34070
     34068     34067     34069     34071     34068     34067     34069     34081
     34069     34081     34084     34085     34069     34081     34084     34086
     34069     34081     34084     34087     34070     34069     34081     34082
     34070     34069     34081     34083     34070     34069     34081     34084
     34071     34069     34081     34082     34071     34069     34081     34083
     34071     34069     34081     34084     34072     34075     34076     34077
     34072     34075     34076     34078     34073     34072     34075     34076
     34074     34072     34075     34076     34075     34076     34078     34079
     34075     34076     34078     34080     34075     34076     34078     34128
     34076     34078     34128     34129     34076     34078     34128     34130
     34076     34078     34128     34131     34077     34076     34078     34079
     34077     34076     34078     34080     34077     34076     34078     34128
     34078     34128     34131     34132     34078     34128     34131     34133
     34078     34128     34131     34134     34079     34078     34128     34129
     34079     34078     34128     34130     34079     34078     34128     34131
     34080     34078     34128     34129     34080     34078     34128     34130
     34080     34078     34128     34131     34081     34084     34087     34088
     34081     34084     34087     34089     34081     34084     34087     34090
     34082     34081     34084     34085     34082     34081     34084     34086
     34082     34081     34084     34087     34083     34081     34084     34085
     34083     34081     34084     34086     34083     34081     34084     34087
     34084     34087     34090     34091     34084     34087     34090     34092
     34084     34087     34090     34093     34085     34084     34087     34088
     34085     34084     34087     34089     34085     34084     34087     34090
     34086     34084     34087     34088     34086     34084     34087     34089
     34086     34084     34087     34090     34087     34090     34093     34094
     34087     34090     34093     34095     34087     34090     34093     34096
     34088     34087     34090     34091     34088     34087     34090     34092
     34088     34087     34090     34093     34089     34087     34090     34091
     34089     34087     34090     34092     34089     34087     34090     34093
     34090     34093     34096     34097     34090     34093     34096     34098
     34090     34093     34096     34099     34091     34090     34093     34094
     34091     34090     34093     34095     34091     34090     34093     34096
     34092     34090     34093     34094     34092     34090     34093     34095
     34092     34090     34093     34096     34093     34096     34099     34100
     34093     34096     34099     34101     34094     34093     34096     34097
     34094     34093     34096     34098     34094     34093     34096     34099
     34095     34093     34096     34097     34095     34093     34096     34098
     34095     34093     34096     34099     34096     34099     34101     34102
     34096     34099     34101     34103     34097     34096     34099     34100
     34097     34096     34099     34101     34098     34096     34099     34100
     34098     34096     34099     34101     34099     34101     34103     34104
     34099     34101     34103     34105     34099     34101     34103     34106
     34100     34099     34101     34102     34100     34099     34101     34103
     34101     34103     34106     34107     34101     34103     34106     34108
     34101     34103     34106     34109     34102     34101     34103     34104
     34102     34101     34103     34105     34102     34101     34103     34106
     34103     34106     34109     34110     34103     34106     34109     34111
     34103     34106     34109     34112     34104     34103     34106     34107
     34104     34103     34106     34108     34104     34103     34106     34109
     34105     34103     34106     34107     34105     34103     34106     34108
     34105     34103     34106     34109     34106     34109     34112     34113
     34106     34109     34112     34114     34106     34109     34112     34115
     34107     34106     34109     34110     34107     34106     34109     34111
     34107     34106     34109     34112     34108     34106     34109     34110
     34108     34106     34109     34111     34108     34106     34109     34112
     34109     34112     34115     34116     34109     34112     34115     34117
     34109     34112     34115     34118     34110     34109     34112     34113
     34110     34109     34112     34114     34110     34109     34112     34115
     34111     34109     34112     34113     34111     34109     34112     34114
     34111     34109     34112     34115     34112     34115     34118     34119
     34112     34115     34118     34120     34112     34115     34118     34121
     34113     34112     34115     34116     34113     34112     34115     34117
     34113     34112     34115     34118     34114     34112     34115     34116
     34114     34112     34115     34117     34114     34112     34115     34118
     34115     34118     34121     34122     34115     34118     34121     34123
     34115     34118     34121     34124     34116     34115     34118     34119
     34116     34115     34118     34120     34116     34115     34118     34121
     34117     34115     34118     34119     34117     34115     34118     34120
     34117     34115     34118     34121     34118     34121     34124     34125
     34118     34121     34124     34126     34118     34121     34124     34127
     34119     34118     34121     34122     34119     34118     34121     34123
     34119     34118     34121     34124     34120     34118     34121     34122
     34120     34118     34121     34123     34120     34118     34121     34124
     34122     34121     34124     34125     34122     34121     34124     34126
     34122     34121     34124     34127     34123     34121     34124     34125
     34123     34121     34124     34126     34123     34121     34124     34127
     34128     34131     34134     34135     34128     34131     34134     34136
     34128     34131     34134     34137     34129     34128     34131     34132
     34129     34128     34131     34133     34129     34128     34131     34134
     34130     34128     34131     34132     34130     34128     34131     34133
     34130     34128     34131     34134     34131     34134     34137     34138
     34131     34134     34137     34139     34131     34134     34137     34140
     34132     34131     34134     34135     34132     34131     34134     34136
     34132     34131     34134     34137     34133     34131     34134     34135
     34133     34131     34134     34136     34133     34131     34134     34137
     34134     34137     34140     34141     34134     34137     34140     34142
     34134     34137     34140     34143     34135     34134     34137     34138
     34135     34134     34137     34139     34135     34134     34137     34140
     34136     34134     34137     34138     34136     34134     34137     34139
     34136     34134     34137     34140     34137     34140     34143     34144
     34137     34140     34143     34145     34137     34140     34143     34146
     34138     34137     34140     34141     34138     34137     34140     34142
     34138     34137     34140     34143     34139     34137     34140     34141
     34139     34137     34140     34142     34139     34137     34140     34143
     34140     34143     34146     34147     34140     34143     34146     34148
     34140     34143     34146     34149     34141     34140     34143     34144
     34141     34140     34143     34145     34141     34140     34143     34146
     34142     34140     34143     34144     34142     34140     34143     34145
     34142     34140     34143     34146     34143     34146     34149     34150
     34143     34146     34149     34151     34143     34146     34149     34152
     34144     34143     34146     34147     34144     34143     34146     34148
     34144     34143     34146     34149     34145     34143     34146     34147
     34145     34143     34146     34148     34145     34143     34146     34149
     34146     34149     34152     34153     34146     34149     34152     34154
     34146     34149     34152     34155     34147     34146     34149     34150
     34147     34146     34149     34151     34147     34146     34149     34152
     34148     34146     34149     34150     34148     34146     34149     34151
     34148     34146     34149     34152     34149     34152     34155     34156
     34149     34152     34155     34157     34149     34152     34155     34158
     34150     34149     34152     34153     34150     34149     34152     34154
     34150     34149     34152     34155     34151     34149     34152     34153
     34151     34149     34152     34154     34151     34149     34152     34155
     34152     34155     34158     34159     34152     34155     34158     34160
     34152     34155     34158     34161     34153     34152     34155     34156
     34153     34152     34155     34157     34153     34152     34155     34158
     34154     34152     34155     34156     34154     34152     34155     34157
     34154     34152     34155     34158     34155     34158     34161     34162
     34155     34158     34161     34163     34155     34158     34161     34164
     34156     34155     34158     34159     34156     34155     34158     34160
     34156     34155     34158     34161     34157     34155     34158     34159
     34157     34155     34158     34160     34157     34155     34158     34161
     34158     34161     34164     34165     34158     34161     34164     34166
     34158     34161     34164     34167     34159     34158     34161     34162
     34159     34158     34161     34163     34159     34158     34161     34164
     34160     34158     34161     34162     34160     34158     34161     34163
     34160     34158     34161     34164     34161     34164     34167     34168
     34161     34164     34167     34169     34161     34164     34167     34170
     34162     34161     34164     34165     34162     34161     34164     34166
     34162     34161     34164     34167     34163     34161     34164     34165
     34163     34161     34164     34166     34163     34161     34164     34167
     34165     34164     34167     34168     34165     34164     34167     34169
     34165     34164     34167     34170     34166     34164     34167     34168
     34166     34164     34167     34169     34166     34164     34167     34170
     34171     34172     34187     34188     34171     34172     34187     34189
     34171     34172     34187     34193     34172     34171     34175     34176
     34172     34171     34175     34177     34172     34171     34175     34178
     34172     34171     34179     34180     34172     34171     34179     34181
     34172     34171     34179     34182     34172     34171     34183     34184
     34172     34171     34183     34185     34172     34171     34183     34186
     34172     34187     34193     34190     34173     34172     34171     34175
     34173     34172     34171     34179     34173     34172     34171     34183
     34173     34172     34187     34188     34173     34172     34187     34189
     34173     34172     34187     34193     34174     34172     34171     34175
     34174     34172     34171     34179     34174     34172     34171     34183
     34174     34172     34187     34188     34174     34172     34187     34189
     34174     34172     34187     34193     34175     34171     34172     34187
     34175     34171     34179     34180     34175     34171     34179     34181
     34175     34171     34179     34182     34175     34171     34183     34184
     34175     34171     34183     34185     34175     34171     34183     34186
     34176     34175     34171     34179     34176     34175     34171     34183
     34177     34175     34171     34179     34177     34175     34171     34183
     34178     34175     34171     34179     34178     34175     34171     34183
     34179     34171     34172     34187     34179     34171     34183     34184
     34179     34171     34183     34185     34179     34171     34183     34186
     34180     34179     34171     34183     34181     34179     34171     34183
     34182     34179     34171     34183     34183     34171     34172     34187
     34187     34193     34190     34191     34187     34193     34190     34192
     34187     34193     34190     34194     34188     34187     34193     34190
     34189     34187     34193     34190     34190     34194     34195     34196
     34190     34194     34195     34197     34190     34194     34195     34198
     34191     34190     34194     34195     34192     34190     34194     34195
     34193     34190     34194     34195     34194     34195     34198     34199
     34194     34195     34198     34200     34194     34195     34198     34206
     34195     34198     34200     34201     34195     34198     34206     34207
     34195     34198     34206     34208     34195     34198     34206     34209
     34196     34195     34198     34199     34196     34195     34198     34200
     34196     34195     34198     34206     34197     34195     34198     34199
     34197     34195     34198     34200     34197     34195     34198     34206
     34198     34200     34201     34202     34198     34200     34201     34203
     34198     34206     34209     34210     34199     34198     34200     34201
     34199     34198     34206     34207     34199     34198     34206     34208
     34199     34198     34206     34209     34200     34198     34206     34207
     34200     34198     34206     34208     34200     34198     34206     34209
     34200     34201     34203     34204     34200     34201     34203     34205
     34200     34201     34203     34215     34201     34200     34198     34206
     34201     34203     34215     34216     34201     34203     34215     34217
     34201     34203     34215     34218     34202     34201     34203     34204
     34202     34201     34203     34205     34202     34201     34203     34215
     34203     34215     34218     34219     34203     34215     34218     34220
     34203     34215     34218     34221     34204     34203     34215     34216
     34204     34203     34215     34217     34204     34203     34215     34218
     34205     34203     34215     34216     34205     34203     34215     34217
     34205     34203     34215     34218     34206     34209     34210     34211
     34206     34209     34210     34212     34207     34206     34209     34210
     34208     34206     34209     34210     34209     34210     34212     34213
     34209     34210     34212     34214     34209     34210     34212     34262
     34210     34212     34262     34263     34210     34212     34262     34264
     34210     34212     34262     34265     34211     34210     34212     34213
     34211     34210     34212     34214     34211     34210     34212     34262
     34212     34262     34265     34266     34212     34262     34265     34267
     34212     34262     34265     34268     34213     34212     34262     34263
     34213     34212     34262     34264     34213     34212     34262     34265
     34214     34212     34262     34263     34214     34212     34262     34264
     34214     34212     34262     34265     34215     34218     34221     34222
     34215     34218     34221     34223     34215     34218     34221     34224
     34216     34215     34218     34219     34216     34215     34218     34220
     34216     34215     34218     34221     34217     34215     34218     34219
     34217     34215     34218     34220     34217     34215     34218     34221
     34218     34221     34224     34225     34218     34221     34224     34226
     34218     34221     34224     34227     34219     34218     34221     34222
     34219     34218     34221     34223     34219     34218     34221     34224
     34220     34218     34221     34222     34220     34218     34221     34223
     34220     34218     34221     34224     34221     34224     34227     34228
     34221     34224     34227     34229     34221     34224     34227     34230
     34222     34221     34224     34225     34222     34221     34224     34226
     34222     34221     34224     34227     34223     34221     34224     34225
     34223     34221     34224     34226     34223     34221     34224     34227
     34224     34227     34230     34231     34224     34227     34230     34232
     34224     34227     34230     34233     34225     34224     34227     34228
     34225     34224     34227     34229     34225     34224     34227     34230
     34226     34224     34227     34228     34226     34224     34227     34229
     34226     34224     34227     34230     34227     34230     34233     34234
     34227     34230     34233     34235     34228     34227     34230     34231
     34228     34227     34230     34232     34228     34227     34230     34233
     34229     34227     34230     34231     34229     34227     34230     34232
     34229     34227     34230     34233     34230     34233     34235     34236
     34230     34233     34235     34237     34231     34230     34233     34234
     34231     34230     34233     34235     34232     34230     34233     34234
     34232     34230     34233     34235     34233     34235     34237     34238
     34233     34235     34237     34239     34233     34235     34237     34240
     34234     34233     34235     34236     34234     34233     34235     34237
     34235     34237     34240     34241     34235     34237     34240     34242
     34235     34237     34240     34243     34236     34235     34237     34238
     34236     34235     34237     34239     34236     34235     34237     34240
     34237     34240     34243     34244     34237     34240     34243     34245
     34237     34240     34243     34246     34238     34237     34240     34241
     34238     34237     34240     34242     34238     34237     34240     34243
     34239     34237     34240     34241     34239     34237     34240     34242
     34239     34237     34240     34243     34240     34243     34246     34247
     34240     34243     34246     34248     34240     34243     34246     34249
     34241     34240     34243     34244     34241     34240     34243     34245
     34241     34240     34243     34246     34242     34240     34243     34244
     34242     34240     34243     34245     34242     34240     34243     34246
     34243     34246     34249     34250     34243     34246     34249     34251
     34243     34246     34249     34252     34244     34243     34246     34247
     34244     34243     34246     34248     34244     34243     34246     34249
     34245     34243     34246     34247     34245     34243     34246     34248
     34245     34243     34246     34249     34246     34249     34252     34253
     34246     34249     34252     34254     34246     34249     34252     34255
     34247     34246     34249     34250     34247     34246     34249     34251
     34247     34246     34249     34252     34248     34246     34249     34250
     34248     34246     34249     34251     34248     34246     34249     34252
     34249     34252     34255     34256     34249     34252     34255     34257
     34249     34252     34255     34258     34250     34249     34252     34253
     34250     34249     34252     34254     34250     34249     34252     34255
     34251     34249     34252     34253     34251     34249     34252     34254
     34251     34249     34252     34255     34252     34255     34258     34259
     34252     34255     34258     34260     34252     34255     34258     34261
     34253     34252     34255     34256     34253     34252     34255     34257
     34253     34252     34255     34258     34254     34252     34255     34256
     34254     34252     34255     34257     34254     34252     34255     34258
     34256     34255     34258     34259     34256     34255     34258     34260
     34256     34255     34258     34261     34257     34255     34258     34259
     34257     34255     34258     34260     34257     34255     34258     34261
     34262     34265     34268     34269     34262     34265     34268     34270
     34262     34265     34268     34271     34263     34262     34265     34266
     34263     34262     34265     34267     34263     34262     34265     34268
     34264     34262     34265     34266     34264     34262     34265     34267
     34264     34262     34265     34268     34265     34268     34271     34272
     34265     34268     34271     34273     34265     34268     34271     34274
     34266     34265     34268     34269     34266     34265     34268     34270
     34266     34265     34268     34271     34267     34265     34268     34269
     34267     34265     34268     34270     34267     34265     34268     34271
     34268     34271     34274     34275     34268     34271     34274     34276
     34268     34271     34274     34277     34269     34268     34271     34272
     34269     34268     34271     34273     34269     34268     34271     34274
     34270     34268     34271     34272     34270     34268     34271     34273
     34270     34268     34271     34274     34271     34274     34277     34278
     34271     34274     34277     34279     34271     34274     34277     34280
     34272     34271     34274     34275     34272     34271     34274     34276
     34272     34271     34274     34277     34273     34271     34274     34275
     34273     34271     34274     34276     34273     34271     34274     34277
     34274     34277     34280     34281     34274     34277     34280     34282
     34274     34277     34280     34283     34275     34274     34277     34278
     34275     34274     34277     34279     34275     34274     34277     34280
     34276     34274     34277     34278     34276     34274     34277     34279
     34276     34274     34277     34280     34277     34280     34283     34284
     34277     34280     34283     34285     34277     34280     34283     34286
     34278     34277     34280     34281     34278     34277     34280     34282
     34278     34277     34280     34283     34279     34277     34280     34281
     34279     34277     34280     34282     34279     34277     34280     34283
     34280     34283     34286     34287     34280     34283     34286     34288
     34280     34283     34286     34289     34281     34280     34283     34284
     34281     34280     34283     34285     34281     34280     34283     34286
     34282     34280     34283     34284     34282     34280     34283     34285
     34282     34280     34283     34286     34283     34286     34289     34290
     34283     34286     34289     34291     34283     34286     34289     34292
     34284     34283     34286     34287     34284     34283     34286     34288
     34284     34283     34286     34289     34285     34283     34286     34287
     34285     34283     34286     34288     34285     34283     34286     34289
     34286     34289     34292     34293     34286     34289     34292     34294
     34286     34289     34292     34295     34287     34286     34289     34290
     34287     34286     34289     34291     34287     34286     34289     34292
     34288     34286     34289     34290     34288     34286     34289     34291
     34288     34286     34289     34292     34289     34292     34295     34296
     34289     34292     34295     34297     34289     34292     34295     34298
     34290     34289     34292     34293     34290     34289     34292     34294
     34290     34289     34292     34295     34291     34289     34292     34293
     34291     34289     34292     34294     34291     34289     34292     34295
     34292     34295     34298     34299     34292     34295     34298     34300
     34292     34295     34298     34301     34293     34292     34295     34296
     34293     34292     34295     34297     34293     34292     34295     34298
     34294     34292     34295     34296     34294     34292     34295     34297
     34294     34292     34295     34298     34295     34298     34301     34302
     34295     34298     34301     34303     34295     34298     34301     34304
     34296     34295     34298     34299     34296     34295     34298     34300
     34296     34295     34298     34301     34297     34295     34298     34299
     34297     34295     34298     34300     34297     34295     34298     34301
     34299     34298     34301     34302     34299     34298     34301     34303
     34299     34298     34301     34304     34300     34298     34301     34302
     34300     34298     34301     34303     34300     34298     34301     34304
     34305     34306     34321     34322     34305     34306     34321     34323
     34305     34306     34321     34327     34306     34305     34309     34310
     34306     34305     34309     34311     34306     34305     34309     34312
     34306     34305     34313     34314     34306     34305     34313     34315
     34306     34305     34313     34316     34306     34305     34317     34318
     34306     34305     34317     34319     34306     34305     34317     34320
     34306     34321     34327     34324     34307     34306     34305     34309
     34307     34306     34305     34313     34307     34306     34305     34317
     34307     34306     34321     34322     34307     34306     34321     34323
     34307     34306     34321     34327     34308     34306     34305     34309
     34308     34306     34305     34313     34308     34306     34305     34317
     34308     34306     34321     34322     34308     34306     34321     34323
     34308     34306     34321     34327     34309     34305     34306     34321
     34309     34305     34313     34314     34309     34305     34313     34315
     34309     34305     34313     34316     34309     34305     34317     34318
     34309     34305     34317     34319     34309     34305     34317     34320
     34310     34309     34305     34313     34310     34309     34305     34317
     34311     34309     34305     34313     34311     34309     34305     34317
     34312     34309     34305     34313     34312     34309     34305     34317
     34313     34305     34306     34321     34313     34305     34317     34318
     34313     34305     34317     34319     34313     34305     34317     34320
     34314     34313     34305     34317     34315     34313     34305     34317
     34316     34313     34305     34317     34317     34305     34306     34321
     34321     34327     34324     34325     34321     34327     34324     34326
     34321     34327     34324     34328     34322     34321     34327     34324
     34323     34321     34327     34324     34324     34328     34329     34330
     34324     34328     34329     34331     34324     34328     34329     34332
     34325     34324     34328     34329     34326     34324     34328     34329
     34327     34324     34328     34329     34328     34329     34332     34333
     34328     34329     34332     34334     34328     34329     34332     34340
     34329     34332     34334     34335     34329     34332     34340     34341
     34329     34332     34340     34342     34329     34332     34340     34343
     34330     34329     34332     34333     34330     34329     34332     34334
     34330     34329     34332     34340     34331     34329     34332     34333
     34331     34329     34332     34334     34331     34329     34332     34340
     34332     34334     34335     34336     34332     34334     34335     34337
     34332     34340     34343     34344     34333     34332     34334     34335
     34333     34332     34340     34341     34333     34332     34340     34342
     34333     34332     34340     34343     34334     34332     34340     34341
     34334     34332     34340     34342     34334     34332     34340     34343
     34334     34335     34337     34338     34334     34335     34337     34339
     34334     34335     34337     34349     34335     34334     34332     34340
     34335     34337     34349     34350     34335     34337     34349     34351
     34335     34337     34349     34352     34336     34335     34337     34338
     34336     34335     34337     34339     34336     34335     34337     34349
     34337     34349     34352     34353     34337     34349     34352     34354
     34337     34349     34352     34355     34338     34337     34349     34350
     34338     34337     34349     34351     34338     34337     34349     34352
     34339     34337     34349     34350     34339     34337     34349     34351
     34339     34337     34349     34352     34340     34343     34344     34345
     34340     34343     34344     34346     34341     34340     34343     34344
     34342     34340     34343     34344     34343     34344     34346     34347
     34343     34344     34346     34348     34343     34344     34346     34396
     34344     34346     34396     34397     34344     34346     34396     34398
     34344     34346     34396     34399     34345     34344     34346     34347
     34345     34344     34346     34348     34345     34344     34346     34396
     34346     34396     34399     34400     34346     34396     34399     34401
     34346     34396     34399     34402     34347     34346     34396     34397
     34347     34346     34396     34398     34347     34346     34396     34399
     34348     34346     34396     34397     34348     34346     34396     34398
     34348     34346     34396     34399     34349     34352     34355     34356
     34349     34352     34355     34357     34349     34352     34355     34358
     34350     34349     34352     34353     34350     34349     34352     34354
     34350     34349     34352     34355     34351     34349     34352     34353
     34351     34349     34352     34354     34351     34349     34352     34355
     34352     34355     34358     34359     34352     34355     34358     34360
     34352     34355     34358     34361     34353     34352     34355     34356
     34353     34352     34355     34357     34353     34352     34355     34358
     34354     34352     34355     34356     34354     34352     34355     34357
     34354     34352     34355     34358     34355     34358     34361     34362
     34355     34358     34361     34363     34355     34358     34361     34364
     34356     34355     34358     34359     34356     34355     34358     34360
     34356     34355     34358     34361     34357     34355     34358     34359
     34357     34355     34358     34360     34357     34355     34358     34361
     34358     34361     34364     34365     34358     34361     34364     34366
     34358     34361     34364     34367     34359     34358     34361     34362
     34359     34358     34361     34363     34359     34358     34361     34364
     34360     34358     34361     34362     34360     34358     34361     34363
     34360     34358     34361     34364     34361     34364     34367     34368
     34361     34364     34367     34369     34362     34361     34364     34365
     34362     34361     34364     34366     34362     34361     34364     34367
     34363     34361     34364     34365     34363     34361     34364     34366
     34363     34361     34364     34367     34364     34367     34369     34370
     34364     34367     34369     34371     34365     34364     34367     34368
     34365     34364     34367     34369     34366     34364     34367     34368
     34366     34364     34367     34369     34367     34369     34371     34372
     34367     34369     34371     34373     34367     34369     34371     34374
     34368     34367     34369     34370     34368     34367     34369     34371
     34369     34371     34374     34375     34369     34371     34374     34376
     34369     34371     34374     34377     34370     34369     34371     34372
     34370     34369     34371     34373     34370     34369     34371     34374
     34371     34374     34377     34378     34371     34374     34377     34379
     34371     34374     34377     34380     34372     34371     34374     34375
     34372     34371     34374     34376     34372     34371     34374     34377
     34373     34371     34374     34375     34373     34371     34374     34376
     34373     34371     34374     34377     34374     34377     34380     34381
     34374     34377     34380     34382     34374     34377     34380     34383
     34375     34374     34377     34378     34375     34374     34377     34379
     34375     34374     34377     34380     34376     34374     34377     34378
     34376     34374     34377     34379     34376     34374     34377     34380
     34377     34380     34383     34384     34377     34380     34383     34385
     34377     34380     34383     34386     34378     34377     34380     34381
     34378     34377     34380     34382     34378     34377     34380     34383
     34379     34377     34380     34381     34379     34377     34380     34382
     34379     34377     34380     34383     34380     34383     34386     34387
     34380     34383     34386     34388     34380     34383     34386     34389
     34381     34380     34383     34384     34381     34380     34383     34385
     34381     34380     34383     34386     34382     34380     34383     34384
     34382     34380     34383     34385     34382     34380     34383     34386
     34383     34386     34389     34390     34383     34386     34389     34391
     34383     34386     34389     34392     34384     34383     34386     34387
     34384     34383     34386     34388     34384     34383     34386     34389
     34385     34383     34386     34387     34385     34383     34386     34388
     34385     34383     34386     34389     34386     34389     34392     34393
     34386     34389     34392     34394     34386     34389     34392     34395
     34387     34386     34389     34390     34387     34386     34389     34391
     34387     34386     34389     34392     34388     34386     34389     34390
     34388     34386     34389     34391     34388     34386     34389     34392
     34390     34389     34392     34393     34390     34389     34392     34394
     34390     34389     34392     34395     34391     34389     34392     34393
     34391     34389     34392     34394     34391     34389     34392     34395
     34396     34399     34402     34403     34396     34399     34402     34404
     34396     34399     34402     34405     34397     34396     34399     34400
     34397     34396     34399     34401     34397     34396     34399     34402
     34398     34396     34399     34400     34398     34396     34399     34401
     34398     34396     34399     34402     34399     34402     34405     34406
     34399     34402     34405     34407     34399     34402     34405     34408
     34400     34399     34402     34403     34400     34399     34402     34404
     34400     34399     34402     34405     34401     34399     34402     34403
     34401     34399     34402     34404     34401     34399     34402     34405
     34402     34405     34408     34409     34402     34405     34408     34410
     34402     34405     34408     34411     34403     34402     34405     34406
     34403     34402     34405     34407     34403     34402     34405     34408
     34404     34402     34405     34406     34404     34402     34405     34407
     34404     34402     34405     34408     34405     34408     34411     34412
     34405     34408     34411     34413     34405     34408     34411     34414
     34406     34405     34408     34409     34406     34405     34408     34410
     34406     34405     34408     34411     34407     34405     34408     34409
     34407     34405     34408     34410     34407     34405     34408     34411
     34408     34411     34414     34415     34408     34411     34414     34416
     34408     34411     34414     34417     34409     34408     34411     34412
     34409     34408     34411     34413     34409     34408     34411     34414
     34410     34408     34411     34412     34410     34408     34411     34413
     34410     34408     34411     34414     34411     34414     34417     34418
     34411     34414     34417     34419     34411     34414     34417     34420
     34412     34411     34414     34415     34412     34411     34414     34416
     34412     34411     34414     34417     34413     34411     34414     34415
     34413     34411     34414     34416     34413     34411     34414     34417
     34414     34417     34420     34421     34414     34417     34420     34422
     34414     34417     34420     34423     34415     34414     34417     34418
     34415     34414     34417     34419     34415     34414     34417     34420
     34416     34414     34417     34418     34416     34414     34417     34419
     34416     34414     34417     34420     34417     34420     34423     34424
     34417     34420     34423     34425     34417     34420     34423     34426
     34418     34417     34420     34421     34418     34417     34420     34422
     34418     34417     34420     34423     34419     34417     34420     34421
     34419     34417     34420     34422     34419     34417     34420     34423
     34420     34423     34426     34427     34420     34423     34426     34428
     34420     34423     34426     34429     34421     34420     34423     34424
     34421     34420     34423     34425     34421     34420     34423     34426
     34422     34420     34423     34424     34422     34420     34423     34425
     34422     34420     34423     34426     34423     34426     34429     34430
     34423     34426     34429     34431     34423     34426     34429     34432
     34424     34423     34426     34427     34424     34423     34426     34428
     34424     34423     34426     34429     34425     34423     34426     34427
     34425     34423     34426     34428     34425     34423     34426     34429
     34426     34429     34432     34433     34426     34429     34432     34434
     34426     34429     34432     34435     34427     34426     34429     34430
     34427     34426     34429     34431     34427     34426     34429     34432
     34428     34426     34429     34430     34428     34426     34429     34431
     34428     34426     34429     34432     34429     34432     34435     34436
     34429     34432     34435     34437     34429     34432     34435     34438
     34430     34429     34432     34433     34430     34429     34432     34434
     34430     34429     34432     34435     34431     34429     34432     34433
     34431     34429     34432     34434     34431     34429     34432     34435
     34433     34432     34435     34436     34433     34432     34435     34437
     34433     34432     34435     34438     34434     34432     34435     34436
     34434     34432     34435     34437     34434     34432     34435     34438
     34439     34440     34455     34456     34439     34440     34455     34457
     34439     34440     34455     34461     34440     34439     34443     34444
     34440     34439     34443     34445     34440     34439     34443     34446
     34440     34439     34447     34448     34440     34439     34447     34449
     34440     34439     34447     34450     34440     34439     34451     34452
     34440     34439     34451     34453     34440     34439     34451     34454
     34440     34455     34461     34458     34441     34440     34439     34443
     34441     34440     34439     34447     34441     34440     34439     34451
     34441     34440     34455     34456     34441     34440     34455     34457
     34441     34440     34455     34461     34442     34440     34439     34443
     34442     34440     34439     34447     34442     34440     34439     34451
     34442     34440     34455     34456     34442     34440     34455     34457
     34442     34440     34455     34461     34443     34439     34440     34455
     34443     34439     34447     34448     34443     34439     34447     34449
     34443     34439     34447     34450     34443     34439     34451     34452
     34443     34439     34451     34453     34443     34439     34451     34454
     34444     34443     34439     34447     34444     34443     34439     34451
     34445     34443     34439     34447     34445     34443     34439     34451
     34446     34443     34439     34447     34446     34443     34439     34451
     34447     34439     34440     34455     34447     34439     34451     34452
     34447     34439     34451     34453     34447     34439     34451     34454
     34448     34447     34439     34451     34449     34447     34439     34451
     34450     34447     34439     34451     34451     34439     34440     34455
     34455     34461     34458     34459     34455     34461     34458     34460
     34455     34461     34458     34462     34456     34455     34461     34458
     34457     34455     34461     34458     34458     34462     34463     34464
     34458     34462     34463     34465     34458     34462     34463     34466
     34459     34458     34462     34463     34460     34458     34462     34463
     34461     34458     34462     34463     34462     34463     34466     34467
     34462     34463     34466     34468     34462     34463     34466     34474
     34463     34466     34468     34469     34463     34466     34474     34475
     34463     34466     34474     34476     34463     34466     34474     34477
     34464     34463     34466     34467     34464     34463     34466     34468
     34464     34463     34466     34474     34465     34463     34466     34467
     34465     34463     34466     34468     34465     34463     34466     34474
     34466     34468     34469     34470     34466     34468     34469     34471
     34466     34474     34477     34478     34467     34466     34468     34469
     34467     34466     34474     34475     34467     34466     34474     34476
     34467     34466     34474     34477     34468     34466     34474     34475
     34468     34466     34474     34476     34468     34466     34474     34477
     34468     34469     34471     34472     34468     34469     34471     34473
     34468     34469     34471     34483     34469     34468     34466     34474
     34469     34471     34483     34484     34469     34471     34483     34485
     34469     34471     34483     34486     34470     34469     34471     34472
     34470     34469     34471     34473     34470     34469     34471     34483
     34471     34483     34486     34487     34471     34483     34486     34488
     34471     34483     34486     34489     34472     34471     34483     34484
     34472     34471     34483     34485     34472     34471     34483     34486
     34473     34471     34483     34484     34473     34471     34483     34485
     34473     34471     34483     34486     34474     34477     34478     34479
     34474     34477     34478     34480     34475     34474     34477     34478
     34476     34474     34477     34478     34477     34478     34480     34481
     34477     34478     34480     34482     34477     34478     34480     34530
     34478     34480     34530     34531     34478     34480     34530     34532
     34478     34480     34530     34533     34479     34478     34480     34481
     34479     34478     34480     34482     34479     34478     34480     34530
     34480     34530     34533     34534     34480     34530     34533     34535
     34480     34530     34533     34536     34481     34480     34530     34531
     34481     34480     34530     34532     34481     34480     34530     34533
     34482     34480     34530     34531     34482     34480     34530     34532
     34482     34480     34530     34533     34483     34486     34489     34490
     34483     34486     34489     34491     34483     34486     34489     34492
     34484     34483     34486     34487     34484     34483     34486     34488
     34484     34483     34486     34489     34485     34483     34486     34487
     34485     34483     34486     34488     34485     34483     34486     34489
     34486     34489     34492     34493     34486     34489     34492     34494
     34486     34489     34492     34495     34487     34486     34489     34490
     34487     34486     34489     34491     34487     34486     34489     34492
     34488     34486     34489     34490     34488     34486     34489     34491
     34488     34486     34489     34492     34489     34492     34495     34496
     34489     34492     34495     34497     34489     34492     34495     34498
     34490     34489     34492     34493     34490     34489     34492     34494
     34490     34489     34492     34495     34491     34489     34492     34493
     34491     34489     34492     34494     34491     34489     34492     34495
     34492     34495     34498     34499     34492     34495     34498     34500
     34492     34495     34498     34501     34493     34492     34495     34496
     34493     34492     34495     34497     34493     34492     34495     34498
     34494     34492     34495     34496     34494     34492     34495     34497
     34494     34492     34495     34498     34495     34498     34501     34502
     34495     34498     34501     34503     34496     34495     34498     34499
     34496     34495     34498     34500     34496     34495     34498     34501
     34497     34495     34498     34499     34497     34495     34498     34500
     34497     34495     34498     34501     34498     34501     34503     34504
     34498     34501     34503     34505     34499     34498     34501     34502
     34499     34498     34501     34503     34500     34498     34501     34502
     34500     34498     34501     34503     34501     34503     34505     34506
     34501     34503     34505     34507     34501     34503     34505     34508
     34502     34501     34503     34504     34502     34501     34503     34505
     34503     34505     34508     34509     34503     34505     34508     34510
     34503     34505     34508     34511     34504     34503     34505     34506
     34504     34503     34505     34507     34504     34503     34505     34508
     34505     34508     34511     34512     34505     34508     34511     34513
     34505     34508     34511     34514     34506     34505     34508     34509
     34506     34505     34508     34510     34506     34505     34508     34511
     34507     34505     34508     34509     34507     34505     34508     34510
     34507     34505     34508     34511     34508     34511     34514     34515
     34508     34511     34514     34516     34508     34511     34514     34517
     34509     34508     34511     34512     34509     34508     34511     34513
     34509     34508     34511     34514     34510     34508     34511     34512
     34510     34508     34511     34513     34510     34508     34511     34514
     34511     34514     34517     34518     34511     34514     34517     34519
     34511     34514     34517     34520     34512     34511     34514     34515
     34512     34511     34514     34516     34512     34511     34514     34517
     34513     34511     34514     34515     34513     34511     34514     34516
     34513     34511     34514     34517     34514     34517     34520     34521
     34514     34517     34520     34522     34514     34517     34520     34523
     34515     34514     34517     34518     34515     34514     34517     34519
     34515     34514     34517     34520     34516     34514     34517     34518
     34516     34514     34517     34519     34516     34514     34517     34520
     34517     34520     34523     34524     34517     34520     34523     34525
     34517     34520     34523     34526     34518     34517     34520     34521
     34518     34517     34520     34522     34518     34517     34520     34523
     34519     34517     34520     34521     34519     34517     34520     34522
     34519     34517     34520     34523     34520     34523     34526     34527
     34520     34523     34526     34528     34520     34523     34526     34529
     34521     34520     34523     34524     34521     34520     34523     34525
     34521     34520     34523     34526     34522     34520     34523     34524
     34522     34520     34523     34525     34522     34520     34523     34526
     34524     34523     34526     34527     34524     34523     34526     34528
     34524     34523     34526     34529     34525     34523     34526     34527
     34525     34523     34526     34528     34525     34523     34526     34529
     34530     34533     34536     34537     34530     34533     34536     34538
     34530     34533     34536     34539     34531     34530     34533     34534
     34531     34530     34533     34535     34531     34530     34533     34536
     34532     34530     34533     34534     34532     34530     34533     34535
     34532     34530     34533     34536     34533     34536     34539     34540
     34533     34536     34539     34541     34533     34536     34539     34542
     34534     34533     34536     34537     34534     34533     34536     34538
     34534     34533     34536     34539     34535     34533     34536     34537
     34535     34533     34536     34538     34535     34533     34536     34539
     34536     34539     34542     34543     34536     34539     34542     34544
     34536     34539     34542     34545     34537     34536     34539     34540
     34537     34536     34539     34541     34537     34536     34539     34542
     34538     34536     34539     34540     34538     34536     34539     34541
     34538     34536     34539     34542     34539     34542     34545     34546
     34539     34542     34545     34547     34539     34542     34545     34548
     34540     34539     34542     34543     34540     34539     34542     34544
     34540     34539     34542     34545     34541     34539     34542     34543
     34541     34539     34542     34544     34541     34539     34542     34545
     34542     34545     34548     34549     34542     34545     34548     34550
     34542     34545     34548     34551     34543     34542     34545     34546
     34543     34542     34545     34547     34543     34542     34545     34548
     34544     34542     34545     34546     34544     34542     34545     34547
     34544     34542     34545     34548     34545     34548     34551     34552
     34545     34548     34551     34553     34545     34548     34551     34554
     34546     34545     34548     34549     34546     34545     34548     34550
     34546     34545     34548     34551     34547     34545     34548     34549
     34547     34545     34548     34550     34547     34545     34548     34551
     34548     34551     34554     34555     34548     34551     34554     34556
     34548     34551     34554     34557     34549     34548     34551     34552
     34549     34548     34551     34553     34549     34548     34551     34554
     34550     34548     34551     34552     34550     34548     34551     34553
     34550     34548     34551     34554     34551     34554     34557     34558
     34551     34554     34557     34559     34551     34554     34557     34560
     34552     34551     34554     34555     34552     34551     34554     34556
     34552     34551     34554     34557     34553     34551     34554     34555
     34553     34551     34554     34556     34553     34551     34554     34557
     34554     34557     34560     34561     34554     34557     34560     34562
     34554     34557     34560     34563     34555     34554     34557     34558
     34555     34554     34557     34559     34555     34554     34557     34560
     34556     34554     34557     34558     34556     34554     34557     34559
     34556     34554     34557     34560     34557     34560     34563     34564
     34557     34560     34563     34565     34557     34560     34563     34566
     34558     34557     34560     34561     34558     34557     34560     34562
     34558     34557     34560     34563     34559     34557     34560     34561
     34559     34557     34560     34562     34559     34557     34560     34563
     34560     34563     34566     34567     34560     34563     34566     34568
     34560     34563     34566     34569     34561     34560     34563     34564
     34561     34560     34563     34565     34561     34560     34563     34566
     34562     34560     34563     34564     34562     34560     34563     34565
     34562     34560     34563     34566     34563     34566     34569     34570
     34563     34566     34569     34571     34563     34566     34569     34572
     34564     34563     34566     34567     34564     34563     34566     34568
     34564     34563     34566     34569     34565     34563     34566     34567
     34565     34563     34566     34568     34565     34563     34566     34569
     34567     34566     34569     34570     34567     34566     34569     34571
     34567     34566     34569     34572     34568     34566     34569     34570
     34568     34566     34569     34571     34568     34566     34569     34572
     34573     34574     34589     34590     34573     34574     34589     34591
     34573     34574     34589     34595     34574     34573     34577     34578
     34574     34573     34577     34579     34574     34573     34577     34580
     34574     34573     34581     34582     34574     34573     34581     34583
     34574     34573     34581     34584     34574     34573     34585     34586
     34574     34573     34585     34587     34574     34573     34585     34588
     34574     34589     34595     34592     34575     34574     34573     34577
     34575     34574     34573     34581     34575     34574     34573     34585
     34575     34574     34589     34590     34575     34574     34589     34591
     34575     34574     34589     34595     34576     34574     34573     34577
     34576     34574     34573     34581     34576     34574     34573     34585
     34576     34574     34589     34590     34576     34574     34589     34591
     34576     34574     34589     34595     34577     34573     34574     34589
     34577     34573     34581     34582     34577     34573     34581     34583
     34577     34573     34581     34584     34577     34573     34585     34586
     34577     34573     34585     34587     34577     34573     34585     34588
     34578     34577     34573     34581     34578     34577     34573     34585
     34579     34577     34573     34581     34579     34577     34573     34585
     34580     34577     34573     34581     34580     34577     34573     34585
     34581     34573     34574     34589     34581     34573     34585     34586
     34581     34573     34585     34587     34581     34573     34585     34588
     34582     34581     34573     34585     34583     34581     34573     34585
     34584     34581     34573     34585     34585     34573     34574     34589
     34589     34595     34592     34593     34589     34595     34592     34594
     34589     34595     34592     34596     34590     34589     34595     34592
     34591     34589     34595     34592     34592     34596     34597     34598
     34592     34596     34597     34599     34592     34596     34597     34600
     34593     34592     34596     34597     34594     34592     34596     34597
     34595     34592     34596     34597     34596     34597     34600     34601
     34596     34597     34600     34602     34596     34597     34600     34608
     34597     34600     34602     34603     34597     34600     34608     34609
     34597     34600     34608     34610     34597     34600     34608     34611
     34598     34597     34600     34601     34598     34597     34600     34602
     34598     34597     34600     34608     34599     34597     34600     34601
     34599     34597     34600     34602     34599     34597     34600     34608
     34600     34602     34603     34604     34600     34602     34603     34605
     34600     34608     34611     34612     34601     34600     34602     34603
     34601     34600     34608     34609     34601     34600     34608     34610
     34601     34600     34608     34611     34602     34600     34608     34609
     34602     34600     34608     34610     34602     34600     34608     34611
     34602     34603     34605     34606     34602     34603     34605     34607
     34602     34603     34605     34617     34603     34602     34600     34608
     34603     34605     34617     34618     34603     34605     34617     34619
     34603     34605     34617     34620     34604     34603     34605     34606
     34604     34603     34605     34607     34604     34603     34605     34617
     34605     34617     34620     34621     34605     34617     34620     34622
     34605     34617     34620     34623     34606     34605     34617     34618
     34606     34605     34617     34619     34606     34605     34617     34620
     34607     34605     34617     34618     34607     34605     34617     34619
     34607     34605     34617     34620     34608     34611     34612     34613
     34608     34611     34612     34614     34609     34608     34611     34612
     34610     34608     34611     34612     34611     34612     34614     34615
     34611     34612     34614     34616     34611     34612     34614     34664
     34612     34614     34664     34665     34612     34614     34664     34666
     34612     34614     34664     34667     34613     34612     34614     34615
     34613     34612     34614     34616     34613     34612     34614     34664
     34614     34664     34667     34668     34614     34664     34667     34669
     34614     34664     34667     34670     34615     34614     34664     34665
     34615     34614     34664     34666     34615     34614     34664     34667
     34616     34614     34664     34665     34616     34614     34664     34666
     34616     34614     34664     34667     34617     34620     34623     34624
     34617     34620     34623     34625     34617     34620     34623     34626
     34618     34617     34620     34621     34618     34617     34620     34622
     34618     34617     34620     34623     34619     34617     34620     34621
     34619     34617     34620     34622     34619     34617     34620     34623
     34620     34623     34626     34627     34620     34623     34626     34628
     34620     34623     34626     34629     34621     34620     34623     34624
     34621     34620     34623     34625     34621     34620     34623     34626
     34622     34620     34623     34624     34622     34620     34623     34625
     34622     34620     34623     34626     34623     34626     34629     34630
     34623     34626     34629     34631     34623     34626     34629     34632
     34624     34623     34626     34627     34624     34623     34626     34628
     34624     34623     34626     34629     34625     34623     34626     34627
     34625     34623     34626     34628     34625     34623     34626     34629
     34626     34629     34632     34633     34626     34629     34632     34634
     34626     34629     34632     34635     34627     34626     34629     34630
     34627     34626     34629     34631     34627     34626     34629     34632
     34628     34626     34629     34630     34628     34626     34629     34631
     34628     34626     34629     34632     34629     34632     34635     34636
     34629     34632     34635     34637     34630     34629     34632     34633
     34630     34629     34632     34634     34630     34629     34632     34635
     34631     34629     34632     34633     34631     34629     34632     34634
     34631     34629     34632     34635     34632     34635     34637     34638
     34632     34635     34637     34639     34633     34632     34635     34636
     34633     34632     34635     34637     34634     34632     34635     34636
     34634     34632     34635     34637     34635     34637     34639     34640
     34635     34637     34639     34641     34635     34637     34639     34642
     34636     34635     34637     34638     34636     34635     34637     34639
     34637     34639     34642     34643     34637     34639     34642     34644
     34637     34639     34642     34645     34638     34637     34639     34640
     34638     34637     34639     34641     34638     34637     34639     34642
     34639     34642     34645     34646     34639     34642     34645     34647
     34639     34642     34645     34648     34640     34639     34642     34643
     34640     34639     34642     34644     34640     34639     34642     34645
     34641     34639     34642     34643     34641     34639     34642     34644
     34641     34639     34642     34645     34642     34645     34648     34649
     34642     34645     34648     34650     34642     34645     34648     34651
     34643     34642     34645     34646     34643     34642     34645     34647
     34643     34642     34645     34648     34644     34642     34645     34646
     34644     34642     34645     34647     34644     34642     34645     34648
     34645     34648     34651     34652     34645     34648     34651     34653
     34645     34648     34651     34654     34646     34645     34648     34649
     34646     34645     34648     34650     34646     34645     34648     34651
     34647     34645     34648     34649     34647     34645     34648     34650
     34647     34645     34648     34651     34648     34651     34654     34655
     34648     34651     34654     34656     34648     34651     34654     34657
     34649     34648     34651     34652     34649     34648     34651     34653
     34649     34648     34651     34654     34650     34648     34651     34652
     34650     34648     34651     34653     34650     34648     34651     34654
     34651     34654     34657     34658     34651     34654     34657     34659
     34651     34654     34657     34660     34652     34651     34654     34655
     34652     34651     34654     34656     34652     34651     34654     34657
     34653     34651     34654     34655     34653     34651     34654     34656
     34653     34651     34654     34657     34654     34657     34660     34661
     34654     34657     34660     34662     34654     34657     34660     34663
     34655     34654     34657     34658     34655     34654     34657     34659
     34655     34654     34657     34660     34656     34654     34657     34658
     34656     34654     34657     34659     34656     34654     34657     34660
     34658     34657     34660     34661     34658     34657     34660     34662
     34658     34657     34660     34663     34659     34657     34660     34661
     34659     34657     34660     34662     34659     34657     34660     34663
     34664     34667     34670     34671     34664     34667     34670     34672
     34664     34667     34670     34673     34665     34664     34667     34668
     34665     34664     34667     34669     34665     34664     34667     34670
     34666     34664     34667     34668     34666     34664     34667     34669
     34666     34664     34667     34670     34667     34670     34673     34674
     34667     34670     34673     34675     34667     34670     34673     34676
     34668     34667     34670     34671     34668     34667     34670     34672
     34668     34667     34670     34673     34669     34667     34670     34671
     34669     34667     34670     34672     34669     34667     34670     34673
     34670     34673     34676     34677     34670     34673     34676     34678
     34670     34673     34676     34679     34671     34670     34673     34674
     34671     34670     34673     34675     34671     34670     34673     34676
     34672     34670     34673     34674     34672     34670     34673     34675
     34672     34670     34673     34676     34673     34676     34679     34680
     34673     34676     34679     34681     34673     34676     34679     34682
     34674     34673     34676     34677     34674     34673     34676     34678
     34674     34673     34676     34679     34675     34673     34676     34677
     34675     34673     34676     34678     34675     34673     34676     34679
     34676     34679     34682     34683     34676     34679     34682     34684
     34676     34679     34682     34685     34677     34676     34679     34680
     34677     34676     34679     34681     34677     34676     34679     34682
     34678     34676     34679     34680     34678     34676     34679     34681
     34678     34676     34679     34682     34679     34682     34685     34686
     34679     34682     34685     34687     34679     34682     34685     34688
     34680     34679     34682     34683     34680     34679     34682     34684
     34680     34679     34682     34685     34681     34679     34682     34683
     34681     34679     34682     34684     34681     34679     34682     34685
     34682     34685     34688     34689     34682     34685     34688     34690
     34682     34685     34688     34691     34683     34682     34685     34686
     34683     34682     34685     34687     34683     34682     34685     34688
     34684     34682     34685     34686     34684     34682     34685     34687
     34684     34682     34685     34688     34685     34688     34691     34692
     34685     34688     34691     34693     34685     34688     34691     34694
     34686     34685     34688     34689     34686     34685     34688     34690
     34686     34685     34688     34691     34687     34685     34688     34689
     34687     34685     34688     34690     34687     34685     34688     34691
     34688     34691     34694     34695     34688     34691     34694     34696
     34688     34691     34694     34697     34689     34688     34691     34692
     34689     34688     34691     34693     34689     34688     34691     34694
     34690     34688     34691     34692     34690     34688     34691     34693
     34690     34688     34691     34694     34691     34694     34697     34698
     34691     34694     34697     34699     34691     34694     34697     34700
     34692     34691     34694     34695     34692     34691     34694     34696
     34692     34691     34694     34697     34693     34691     34694     34695
     34693     34691     34694     34696     34693     34691     34694     34697
     34694     34697     34700     34701     34694     34697     34700     34702
     34694     34697     34700     34703     34695     34694     34697     34698
     34695     34694     34697     34699     34695     34694     34697     34700
     34696     34694     34697     34698     34696     34694     34697     34699
     34696     34694     34697     34700     34697     34700     34703     34704
     34697     34700     34703     34705     34697     34700     34703     34706
     34698     34697     34700     34701     34698     34697     34700     34702
     34698     34697     34700     34703     34699     34697     34700     34701
     34699     34697     34700     34702     34699     34697     34700     34703
     34701     34700     34703     34704     34701     34700     34703     34705
     34701     34700     34703     34706     34702     34700     34703     34704
     34702     34700     34703     34705     34702     34700     34703     34706
     34707     34708     34723     34724     34707     34708     34723     34725
     34707     34708     34723     34729     34708     34707     34711     34712
     34708     34707     34711     34713     34708     34707     34711     34714
     34708     34707     34715     34716     34708     34707     34715     34717
     34708     34707     34715     34718     34708     34707     34719     34720
     34708     34707     34719     34721     34708     34707     34719     34722
     34708     34723     34729     34726     34709     34708     34707     34711
     34709     34708     34707     34715     34709     34708     34707     34719
     34709     34708     34723     34724     34709     34708     34723     34725
     34709     34708     34723     34729     34710     34708     34707     34711
     34710     34708     34707     34715     34710     34708     34707     34719
     34710     34708     34723     34724     34710     34708     34723     34725
     34710     34708     34723     34729     34711     34707     34708     34723
     34711     34707     34715     34716     34711     34707     34715     34717
     34711     34707     34715     34718     34711     34707     34719     34720
     34711     34707     34719     34721     34711     34707     34719     34722
     34712     34711     34707     34715     34712     34711     34707     34719
     34713     34711     34707     34715     34713     34711     34707     34719
     34714     34711     34707     34715     34714     34711     34707     34719
     34715     34707     34708     34723     34715     34707     34719     34720
     34715     34707     34719     34721     34715     34707     34719     34722
     34716     34715     34707     34719     34717     34715     34707     34719
     34718     34715     34707     34719     34719     34707     34708     34723
     34723     34729     34726     34727     34723     34729     34726     34728
     34723     34729     34726     34730     34724     34723     34729     34726
     34725     34723     34729     34726     34726     34730     34731     34732
     34726     34730     34731     34733     34726     34730     34731     34734
     34727     34726     34730     34731     34728     34726     34730     34731
     34729     34726     34730     34731     34730     34731     34734     34735
     34730     34731     34734     34736     34730     34731     34734     34742
     34731     34734     34736     34737     34731     34734     34742     34743
     34731     34734     34742     34744     34731     34734     34742     34745
     34732     34731     34734     34735     34732     34731     34734     34736
     34732     34731     34734     34742     34733     34731     34734     34735
     34733     34731     34734     34736     34733     34731     34734     34742
     34734     34736     34737     34738     34734     34736     34737     34739
     34734     34742     34745     34746     34735     34734     34736     34737
     34735     34734     34742     34743     34735     34734     34742     34744
     34735     34734     34742     34745     34736     34734     34742     34743
     34736     34734     34742     34744     34736     34734     34742     34745
     34736     34737     34739     34740     34736     34737     34739     34741
     34736     34737     34739     34751     34737     34736     34734     34742
     34737     34739     34751     34752     34737     34739     34751     34753
     34737     34739     34751     34754     34738     34737     34739     34740
     34738     34737     34739     34741     34738     34737     34739     34751
     34739     34751     34754     34755     34739     34751     34754     34756
     34739     34751     34754     34757     34740     34739     34751     34752
     34740     34739     34751     34753     34740     34739     34751     34754
     34741     34739     34751     34752     34741     34739     34751     34753
     34741     34739     34751     34754     34742     34745     34746     34747
     34742     34745     34746     34748     34743     34742     34745     34746
     34744     34742     34745     34746     34745     34746     34748     34749
     34745     34746     34748     34750     34745     34746     34748     34798
     34746     34748     34798     34799     34746     34748     34798     34800
     34746     34748     34798     34801     34747     34746     34748     34749
     34747     34746     34748     34750     34747     34746     34748     34798
     34748     34798     34801     34802     34748     34798     34801     34803
     34748     34798     34801     34804     34749     34748     34798     34799
     34749     34748     34798     34800     34749     34748     34798     34801
     34750     34748     34798     34799     34750     34748     34798     34800
     34750     34748     34798     34801     34751     34754     34757     34758
     34751     34754     34757     34759     34751     34754     34757     34760
     34752     34751     34754     34755     34752     34751     34754     34756
     34752     34751     34754     34757     34753     34751     34754     34755
     34753     34751     34754     34756     34753     34751     34754     34757
     34754     34757     34760     34761     34754     34757     34760     34762
     34754     34757     34760     34763     34755     34754     34757     34758
     34755     34754     34757     34759     34755     34754     34757     34760
     34756     34754     34757     34758     34756     34754     34757     34759
     34756     34754     34757     34760     34757     34760     34763     34764
     34757     34760     34763     34765     34757     34760     34763     34766
     34758     34757     34760     34761     34758     34757     34760     34762
     34758     34757     34760     34763     34759     34757     34760     34761
     34759     34757     34760     34762     34759     34757     34760     34763
     34760     34763     34766     34767     34760     34763     34766     34768
     34760     34763     34766     34769     34761     34760     34763     34764
     34761     34760     34763     34765     34761     34760     34763     34766
     34762     34760     34763     34764     34762     34760     34763     34765
     34762     34760     34763     34766     34763     34766     34769     34770
     34763     34766     34769     34771     34764     34763     34766     34767
     34764     34763     34766     34768     34764     34763     34766     34769
     34765     34763     34766     34767     34765     34763     34766     34768
     34765     34763     34766     34769     34766     34769     34771     34772
     34766     34769     34771     34773     34767     34766     34769     34770
     34767     34766     34769     34771     34768     34766     34769     34770
     34768     34766     34769     34771     34769     34771     34773     34774
     34769     34771     34773     34775     34769     34771     34773     34776
     34770     34769     34771     34772     34770     34769     34771     34773
     34771     34773     34776     34777     34771     34773     34776     34778
     34771     34773     34776     34779     34772     34771     34773     34774
     34772     34771     34773     34775     34772     34771     34773     34776
     34773     34776     34779     34780     34773     34776     34779     34781
     34773     34776     34779     34782     34774     34773     34776     34777
     34774     34773     34776     34778     34774     34773     34776     34779
     34775     34773     34776     34777     34775     34773     34776     34778
     34775     34773     34776     34779     34776     34779     34782     34783
     34776     34779     34782     34784     34776     34779     34782     34785
     34777     34776     34779     34780     34777     34776     34779     34781
     34777     34776     34779     34782     34778     34776     34779     34780
     34778     34776     34779     34781     34778     34776     34779     34782
     34779     34782     34785     34786     34779     34782     34785     34787
     34779     34782     34785     34788     34780     34779     34782     34783
     34780     34779     34782     34784     34780     34779     34782     34785
     34781     34779     34782     34783     34781     34779     34782     34784
     34781     34779     34782     34785     34782     34785     34788     34789
     34782     34785     34788     34790     34782     34785     34788     34791
     34783     34782     34785     34786     34783     34782     34785     34787
     34783     34782     34785     34788     34784     34782     34785     34786
     34784     34782     34785     34787     34784     34782     34785     34788
     34785     34788     34791     34792     34785     34788     34791     34793
     34785     34788     34791     34794     34786     34785     34788     34789
     34786     34785     34788     34790     34786     34785     34788     34791
     34787     34785     34788     34789     34787     34785     34788     34790
     34787     34785     34788     34791     34788     34791     34794     34795
     34788     34791     34794     34796     34788     34791     34794     34797
     34789     34788     34791     34792     34789     34788     34791     34793
     34789     34788     34791     34794     34790     34788     34791     34792
     34790     34788     34791     34793     34790     34788     34791     34794
     34792     34791     34794     34795     34792     34791     34794     34796
     34792     34791     34794     34797     34793     34791     34794     34795
     34793     34791     34794     34796     34793     34791     34794     34797
     34798     34801     34804     34805     34798     34801     34804     34806
     34798     34801     34804     34807     34799     34798     34801     34802
     34799     34798     34801     34803     34799     34798     34801     34804
     34800     34798     34801     34802     34800     34798     34801     34803
     34800     34798     34801     34804     34801     34804     34807     34808
     34801     34804     34807     34809     34801     34804     34807     34810
     34802     34801     34804     34805     34802     34801     34804     34806
     34802     34801     34804     34807     34803     34801     34804     34805
     34803     34801     34804     34806     34803     34801     34804     34807
     34804     34807     34810     34811     34804     34807     34810     34812
     34804     34807     34810     34813     34805     34804     34807     34808
     34805     34804     34807     34809     34805     34804     34807     34810
     34806     34804     34807     34808     34806     34804     34807     34809
     34806     34804     34807     34810     34807     34810     34813     34814
     34807     34810     34813     34815     34807     34810     34813     34816
     34808     34807     34810     34811     34808     34807     34810     34812
     34808     34807     34810     34813     34809     34807     34810     34811
     34809     34807     34810     34812     34809     34807     34810     34813
     34810     34813     34816     34817     34810     34813     34816     34818
     34810     34813     34816     34819     34811     34810     34813     34814
     34811     34810     34813     34815     34811     34810     34813     34816
     34812     34810     34813     34814     34812     34810     34813     34815
     34812     34810     34813     34816     34813     34816     34819     34820
     34813     34816     34819     34821     34813     34816     34819     34822
     34814     34813     34816     34817     34814     34813     34816     34818
     34814     34813     34816     34819     34815     34813     34816     34817
     34815     34813     34816     34818     34815     34813     34816     34819
     34816     34819     34822     34823     34816     34819     34822     34824
     34816     34819     34822     34825     34817     34816     34819     34820
     34817     34816     34819     34821     34817     34816     34819     34822
     34818     34816     34819     34820     34818     34816     34819     34821
     34818     34816     34819     34822     34819     34822     34825     34826
     34819     34822     34825     34827     34819     34822     34825     34828
     34820     34819     34822     34823     34820     34819     34822     34824
     34820     34819     34822     34825     34821     34819     34822     34823
     34821     34819     34822     34824     34821     34819     34822     34825
     34822     34825     34828     34829     34822     34825     34828     34830
     34822     34825     34828     34831     34823     34822     34825     34826
     34823     34822     34825     34827     34823     34822     34825     34828
     34824     34822     34825     34826     34824     34822     34825     34827
     34824     34822     34825     34828     34825     34828     34831     34832
     34825     34828     34831     34833     34825     34828     34831     34834
     34826     34825     34828     34829     34826     34825     34828     34830
     34826     34825     34828     34831     34827     34825     34828     34829
     34827     34825     34828     34830     34827     34825     34828     34831
     34828     34831     34834     34835     34828     34831     34834     34836
     34828     34831     34834     34837     34829     34828     34831     34832
     34829     34828     34831     34833     34829     34828     34831     34834
     34830     34828     34831     34832     34830     34828     34831     34833
     34830     34828     34831     34834     34831     34834     34837     34838
     34831     34834     34837     34839     34831     34834     34837     34840
     34832     34831     34834     34835     34832     34831     34834     34836
     34832     34831     34834     34837     34833     34831     34834     34835
     34833     34831     34834     34836     34833     34831     34834     34837
     34835     34834     34837     34838     34835     34834     34837     34839
     34835     34834     34837     34840     34836     34834     34837     34838
     34836     34834     34837     34839     34836     34834     34837     34840
     34841     34842     34857     34858     34841     34842     34857     34859
     34841     34842     34857     34863     34842     34841     34845     34846
     34842     34841     34845     34847     34842     34841     34845     34848
     34842     34841     34849     34850     34842     34841     34849     34851
     34842     34841     34849     34852     34842     34841     34853     34854
     34842     34841     34853     34855     34842     34841     34853     34856
     34842     34857     34863     34860     34843     34842     34841     34845
     34843     34842     34841     34849     34843     34842     34841     34853
     34843     34842     34857     34858     34843     34842     34857     34859
     34843     34842     34857     34863     34844     34842     34841     34845
     34844     34842     34841     34849     34844     34842     34841     34853
     34844     34842     34857     34858     34844     34842     34857     34859
     34844     34842     34857     34863     34845     34841     34842     34857
     34845     34841     34849     34850     34845     34841     34849     34851
     34845     34841     34849     34852     34845     34841     34853     34854
     34845     34841     34853     34855     34845     34841     34853     34856
     34846     34845     34841     34849     34846     34845     34841     34853
     34847     34845     34841     34849     34847     34845     34841     34853
     34848     34845     34841     34849     34848     34845     34841     34853
     34849     34841     34842     34857     34849     34841     34853     34854
     34849     34841     34853     34855     34849     34841     34853     34856
     34850     34849     34841     34853     34851     34849     34841     34853
     34852     34849     34841     34853     34853     34841     34842     34857
     34857     34863     34860     34861     34857     34863     34860     34862
     34857     34863     34860     34864     34858     34857     34863     34860
     34859     34857     34863     34860     34860     34864     34865     34866
     34860     34864     34865     34867     34860     34864     34865     34868
     34861     34860     34864     34865     34862     34860     34864     34865
     34863     34860     34864     34865     34864     34865     34868     34869
     34864     34865     34868     34870     34864     34865     34868     34876
     34865     34868     34870     34871     34865     34868     34876     34877
     34865     34868     34876     34878     34865     34868     34876     34879
     34866     34865     34868     34869     34866     34865     34868     34870
     34866     34865     34868     34876     34867     34865     34868     34869
     34867     34865     34868     34870     34867     34865     34868     34876
     34868     34870     34871     34872     34868     34870     34871     34873
     34868     34876     34879     34880     34869     34868     34870     34871
     34869     34868     34876     34877     34869     34868     34876     34878
     34869     34868     34876     34879     34870     34868     34876     34877
     34870     34868     34876     34878     34870     34868     34876     34879
     34870     34871     34873     34874     34870     34871     34873     34875
     34870     34871     34873     34885     34871     34870     34868     34876
     34871     34873     34885     34886     34871     34873     34885     34887
     34871     34873     34885     34888     34872     34871     34873     34874
     34872     34871     34873     34875     34872     34871     34873     34885
     34873     34885     34888     34889     34873     34885     34888     34890
     34873     34885     34888     34891     34874     34873     34885     34886
     34874     34873     34885     34887     34874     34873     34885     34888
     34875     34873     34885     34886     34875     34873     34885     34887
     34875     34873     34885     34888     34876     34879     34880     34881
     34876     34879     34880     34882     34877     34876     34879     34880
     34878     34876     34879     34880     34879     34880     34882     34883
     34879     34880     34882     34884     34879     34880     34882     34932
     34880     34882     34932     34933     34880     34882     34932     34934
     34880     34882     34932     34935     34881     34880     34882     34883
     34881     34880     34882     34884     34881     34880     34882     34932
     34882     34932     34935     34936     34882     34932     34935     34937
     34882     34932     34935     34938     34883     34882     34932     34933
     34883     34882     34932     34934     34883     34882     34932     34935
     34884     34882     34932     34933     34884     34882     34932     34934
     34884     34882     34932     34935     34885     34888     34891     34892
     34885     34888     34891     34893     34885     34888     34891     34894
     34886     34885     34888     34889     34886     34885     34888     34890
     34886     34885     34888     34891     34887     34885     34888     34889
     34887     34885     34888     34890     34887     34885     34888     34891
     34888     34891     34894     34895     34888     34891     34894     34896
     34888     34891     34894     34897     34889     34888     34891     34892
     34889     34888     34891     34893     34889     34888     34891     34894
     34890     34888     34891     34892     34890     34888     34891     34893
     34890     34888     34891     34894     34891     34894     34897     34898
     34891     34894     34897     34899     34891     34894     34897     34900
     34892     34891     34894     34895     34892     34891     34894     34896
     34892     34891     34894     34897     34893     34891     34894     34895
     34893     34891     34894     34896     34893     34891     34894     34897
     34894     34897     34900     34901     34894     34897     34900     34902
     34894     34897     34900     34903     34895     34894     34897     34898
     34895     34894     34897     34899     34895     34894     34897     34900
     34896     34894     34897     34898     34896     34894     34897     34899
     34896     34894     34897     34900     34897     34900     34903     34904
     34897     34900     34903     34905     34898     34897     34900     34901
     34898     34897     34900     34902     34898     34897     34900     34903
     34899     34897     34900     34901     34899     34897     34900     34902
     34899     34897     34900     34903     34900     34903     34905     34906
     34900     34903     34905     34907     34901     34900     34903     34904
     34901     34900     34903     34905     34902     34900     34903     34904
     34902     34900     34903     34905     34903     34905     34907     34908
     34903     34905     34907     34909     34903     34905     34907     34910
     34904     34903     34905     34906     34904     34903     34905     34907
     34905     34907     34910     34911     34905     34907     34910     34912
     34905     34907     34910     34913     34906     34905     34907     34908
     34906     34905     34907     34909     34906     34905     34907     34910
     34907     34910     34913     34914     34907     34910     34913     34915
     34907     34910     34913     34916     34908     34907     34910     34911
     34908     34907     34910     34912     34908     34907     34910     34913
     34909     34907     34910     34911     34909     34907     34910     34912
     34909     34907     34910     34913     34910     34913     34916     34917
     34910     34913     34916     34918     34910     34913     34916     34919
     34911     34910     34913     34914     34911     34910     34913     34915
     34911     34910     34913     34916     34912     34910     34913     34914
     34912     34910     34913     34915     34912     34910     34913     34916
     34913     34916     34919     34920     34913     34916     34919     34921
     34913     34916     34919     34922     34914     34913     34916     34917
     34914     34913     34916     34918     34914     34913     34916     34919
     34915     34913     34916     34917     34915     34913     34916     34918
     34915     34913     34916     34919     34916     34919     34922     34923
     34916     34919     34922     34924     34916     34919     34922     34925
     34917     34916     34919     34920     34917     34916     34919     34921
     34917     34916     34919     34922     34918     34916     34919     34920
     34918     34916     34919     34921     34918     34916     34919     34922
     34919     34922     34925     34926     34919     34922     34925     34927
     34919     34922     34925     34928     34920     34919     34922     34923
     34920     34919     34922     34924     34920     34919     34922     34925
     34921     34919     34922     34923     34921     34919     34922     34924
     34921     34919     34922     34925     34922     34925     34928     34929
     34922     34925     34928     34930     34922     34925     34928     34931
     34923     34922     34925     34926     34923     34922     34925     34927
     34923     34922     34925     34928     34924     34922     34925     34926
     34924     34922     34925     34927     34924     34922     34925     34928
     34926     34925     34928     34929     34926     34925     34928     34930
     34926     34925     34928     34931     34927     34925     34928     34929
     34927     34925     34928     34930     34927     34925     34928     34931
     34932     34935     34938     34939     34932     34935     34938     34940
     34932     34935     34938     34941     34933     34932     34935     34936
     34933     34932     34935     34937     34933     34932     34935     34938
     34934     34932     34935     34936     34934     34932     34935     34937
     34934     34932     34935     34938     34935     34938     34941     34942
     34935     34938     34941     34943     34935     34938     34941     34944
     34936     34935     34938     34939     34936     34935     34938     34940
     34936     34935     34938     34941     34937     34935     34938     34939
     34937     34935     34938     34940     34937     34935     34938     34941
     34938     34941     34944     34945     34938     34941     34944     34946
     34938     34941     34944     34947     34939     34938     34941     34942
     34939     34938     34941     34943     34939     34938     34941     34944
     34940     34938     34941     34942     34940     34938     34941     34943
     34940     34938     34941     34944     34941     34944     34947     34948
     34941     34944     34947     34949     34941     34944     34947     34950
     34942     34941     34944     34945     34942     34941     34944     34946
     34942     34941     34944     34947     34943     34941     34944     34945
     34943     34941     34944     34946     34943     34941     34944     34947
     34944     34947     34950     34951     34944     34947     34950     34952
     34944     34947     34950     34953     34945     34944     34947     34948
     34945     34944     34947     34949     34945     34944     34947     34950
     34946     34944     34947     34948     34946     34944     34947     34949
     34946     34944     34947     34950     34947     34950     34953     34954
     34947     34950     34953     34955     34947     34950     34953     34956
     34948     34947     34950     34951     34948     34947     34950     34952
     34948     34947     34950     34953     34949     34947     34950     34951
     34949     34947     34950     34952     34949     34947     34950     34953
     34950     34953     34956     34957     34950     34953     34956     34958
     34950     34953     34956     34959     34951     34950     34953     34954
     34951     34950     34953     34955     34951     34950     34953     34956
     34952     34950     34953     34954     34952     34950     34953     34955
     34952     34950     34953     34956     34953     34956     34959     34960
     34953     34956     34959     34961     34953     34956     34959     34962
     34954     34953     34956     34957     34954     34953     34956     34958
     34954     34953     34956     34959     34955     34953     34956     34957
     34955     34953     34956     34958     34955     34953     34956     34959
     34956     34959     34962     34963     34956     34959     34962     34964
     34956     34959     34962     34965     34957     34956     34959     34960
     34957     34956     34959     34961     34957     34956     34959     34962
     34958     34956     34959     34960     34958     34956     34959     34961
     34958     34956     34959     34962     34959     34962     34965     34966
     34959     34962     34965     34967     34959     34962     34965     34968
     34960     34959     34962     34963     34960     34959     34962     34964
     34960     34959     34962     34965     34961     34959     34962     34963
     34961     34959     34962     34964     34961     34959     34962     34965
     34962     34965     34968     34969     34962     34965     34968     34970
     34962     34965     34968     34971     34963     34962     34965     34966
     34963     34962     34965     34967     34963     34962     34965     34968
     34964     34962     34965     34966     34964     34962     34965     34967
     34964     34962     34965     34968     34965     34968     34971     34972
     34965     34968     34971     34973     34965     34968     34971     34974
     34966     34965     34968     34969     34966     34965     34968     34970
     34966     34965     34968     34971     34967     34965     34968     34969
     34967     34965     34968     34970     34967     34965     34968     34971
     34969     34968     34971     34972     34969     34968     34971     34973
     34969     34968     34971     34974     34970     34968     34971     34972
     34970     34968     34971     34973     34970     34968     34971     34974
     34975     34976     34991     34992     34975     34976     34991     34993
     34975     34976     34991     34997     34976     34975     34979     34980
     34976     34975     34979     34981     34976     34975     34979     34982
     34976     34975     34983     34984     34976     34975     34983     34985
     34976     34975     34983     34986     34976     34975     34987     34988
     34976     34975     34987     34989     34976     34975     34987     34990
     34976     34991     34997     34994     34977     34976     34975     34979
     34977     34976     34975     34983     34977     34976     34975     34987
     34977     34976     34991     34992     34977     34976     34991     34993
     34977     34976     34991     34997     34978     34976     34975     34979
     34978     34976     34975     34983     34978     34976     34975     34987
     34978     34976     34991     34992     34978     34976     34991     34993
     34978     34976     34991     34997     34979     34975     34976     34991
     34979     34975     34983     34984     34979     34975     34983     34985
     34979     34975     34983     34986     34979     34975     34987     34988
     34979     34975     34987     34989     34979     34975     34987     34990
     34980     34979     34975     34983     34980     34979     34975     34987
     34981     34979     34975     34983     34981     34979     34975     34987
     34982     34979     34975     34983     34982     34979     34975     34987
     34983     34975     34976     34991     34983     34975     34987     34988
     34983     34975     34987     34989     34983     34975     34987     34990
     34984     34983     34975     34987     34985     34983     34975     34987
     34986     34983     34975     34987     34987     34975     34976     34991
     34991     34997     34994     34995     34991     34997     34994     34996
     34991     34997     34994     34998     34992     34991     34997     34994
     34993     34991     34997     34994     34994     34998     34999     35000
     34994     34998     34999     35001     34994     34998     34999     35002
     34995     34994     34998     34999     34996     34994     34998     34999
     34997     34994     34998     34999     34998     34999     35002     35003
     34998     34999     35002     35004     34998     34999     35002     35010
     34999     35002     35004     35005     34999     35002     35010     35011
     34999     35002     35010     35012     34999     35002     35010     35013
     35000     34999     35002     35003     35000     34999     35002     35004
     35000     34999     35002     35010     35001     34999     35002     35003
     35001     34999     35002     35004     35001     34999     35002     35010
     35002     35004     35005     35006     35002     35004     35005     35007
     35002     35010     35013     35014     35003     35002     35004     35005
     35003     35002     35010     35011     35003     35002     35010     35012
     35003     35002     35010     35013     35004     35002     35010     35011
     35004     35002     35010     35012     35004     35002     35010     35013
     35004     35005     35007     35008     35004     35005     35007     35009
     35004     35005     35007     35019     35005     35004     35002     35010
     35005     35007     35019     35020     35005     35007     35019     35021
     35005     35007     35019     35022     35006     35005     35007     35008
     35006     35005     35007     35009     35006     35005     35007     35019
     35007     35019     35022     35023     35007     35019     35022     35024
     35007     35019     35022     35025     35008     35007     35019     35020
     35008     35007     35019     35021     35008     35007     35019     35022
     35009     35007     35019     35020     35009     35007     35019     35021
     35009     35007     35019     35022     35010     35013     35014     35015
     35010     35013     35014     35016     35011     35010     35013     35014
     35012     35010     35013     35014     35013     35014     35016     35017
     35013     35014     35016     35018     35013     35014     35016     35066
     35014     35016     35066     35067     35014     35016     35066     35068
     35014     35016     35066     35069     35015     35014     35016     35017
     35015     35014     35016     35018     35015     35014     35016     35066
     35016     35066     35069     35070     35016     35066     35069     35071
     35016     35066     35069     35072     35017     35016     35066     35067
     35017     35016     35066     35068     35017     35016     35066     35069
     35018     35016     35066     35067     35018     35016     35066     35068
     35018     35016     35066     35069     35019     35022     35025     35026
     35019     35022     35025     35027     35019     35022     35025     35028
     35020     35019     35022     35023     35020     35019     35022     35024
     35020     35019     35022     35025     35021     35019     35022     35023
     35021     35019     35022     35024     35021     35019     35022     35025
     35022     35025     35028     35029     35022     35025     35028     35030
     35022     35025     35028     35031     35023     35022     35025     35026
     35023     35022     35025     35027     35023     35022     35025     35028
     35024     35022     35025     35026     35024     35022     35025     35027
     35024     35022     35025     35028     35025     35028     35031     35032
     35025     35028     35031     35033     35025     35028     35031     35034
     35026     35025     35028     35029     35026     35025     35028     35030
     35026     35025     35028     35031     35027     35025     35028     35029
     35027     35025     35028     35030     35027     35025     35028     35031
     35028     35031     35034     35035     35028     35031     35034     35036
     35028     35031     35034     35037     35029     35028     35031     35032
     35029     35028     35031     35033     35029     35028     35031     35034
     35030     35028     35031     35032     35030     35028     35031     35033
     35030     35028     35031     35034     35031     35034     35037     35038
     35031     35034     35037     35039     35032     35031     35034     35035
     35032     35031     35034     35036     35032     35031     35034     35037
     35033     35031     35034     35035     35033     35031     35034     35036
     35033     35031     35034     35037     35034     35037     35039     35040
     35034     35037     35039     35041     35035     35034     35037     35038
     35035     35034     35037     35039     35036     35034     35037     35038
     35036     35034     35037     35039     35037     35039     35041     35042
     35037     35039     35041     35043     35037     35039     35041     35044
     35038     35037     35039     35040     35038     35037     35039     35041
     35039     35041     35044     35045     35039     35041     35044     35046
     35039     35041     35044     35047     35040     35039     35041     35042
     35040     35039     35041     35043     35040     35039     35041     35044
     35041     35044     35047     35048     35041     35044     35047     35049
     35041     35044     35047     35050     35042     35041     35044     35045
     35042     35041     35044     35046     35042     35041     35044     35047
     35043     35041     35044     35045     35043     35041     35044     35046
     35043     35041     35044     35047     35044     35047     35050     35051
     35044     35047     35050     35052     35044     35047     35050     35053
     35045     35044     35047     35048     35045     35044     35047     35049
     35045     35044     35047     35050     35046     35044     35047     35048
     35046     35044     35047     35049     35046     35044     35047     35050
     35047     35050     35053     35054     35047     35050     35053     35055
     35047     35050     35053     35056     35048     35047     35050     35051
     35048     35047     35050     35052     35048     35047     35050     35053
     35049     35047     35050     35051     35049     35047     35050     35052
     35049     35047     35050     35053     35050     35053     35056     35057
     35050     35053     35056     35058     35050     35053     35056     35059
     35051     35050     35053     35054     35051     35050     35053     35055
     35051     35050     35053     35056     35052     35050     35053     35054
     35052     35050     35053     35055     35052     35050     35053     35056
     35053     35056     35059     35060     35053     35056     35059     35061
     35053     35056     35059     35062     35054     35053     35056     35057
     35054     35053     35056     35058     35054     35053     35056     35059
     35055     35053     35056     35057     35055     35053     35056     35058
     35055     35053     35056     35059     35056     35059     35062     35063
     35056     35059     35062     35064     35056     35059     35062     35065
     35057     35056     35059     35060     35057     35056     35059     35061
     35057     35056     35059     35062     35058     35056     35059     35060
     35058     35056     35059     35061     35058     35056     35059     35062
     35060     35059     35062     35063     35060     35059     35062     35064
     35060     35059     35062     35065     35061     35059     35062     35063
     35061     35059     35062     35064     35061     35059     35062     35065
     35066     35069     35072     35073     35066     35069     35072     35074
     35066     35069     35072     35075     35067     35066     35069     35070
     35067     35066     35069     35071     35067     35066     35069     35072
     35068     35066     35069     35070     35068     35066     35069     35071
     35068     35066     35069     35072     35069     35072     35075     35076
     35069     35072     35075     35077     35069     35072     35075     35078
     35070     35069     35072     35073     35070     35069     35072     35074
     35070     35069     35072     35075     35071     35069     35072     35073
     35071     35069     35072     35074     35071     35069     35072     35075
     35072     35075     35078     35079     35072     35075     35078     35080
     35072     35075     35078     35081     35073     35072     35075     35076
     35073     35072     35075     35077     35073     35072     35075     35078
     35074     35072     35075     35076     35074     35072     35075     35077
     35074     35072     35075     35078     35075     35078     35081     35082
     35075     35078     35081     35083     35075     35078     35081     35084
     35076     35075     35078     35079     35076     35075     35078     35080
     35076     35075     35078     35081     35077     35075     35078     35079
     35077     35075     35078     35080     35077     35075     35078     35081
     35078     35081     35084     35085     35078     35081     35084     35086
     35078     35081     35084     35087     35079     35078     35081     35082
     35079     35078     35081     35083     35079     35078     35081     35084
     35080     35078     35081     35082     35080     35078     35081     35083
     35080     35078     35081     35084     35081     35084     35087     35088
     35081     35084     35087     35089     35081     35084     35087     35090
     35082     35081     35084     35085     35082     35081     35084     35086
     35082     35081     35084     35087     35083     35081     35084     35085
     35083     35081     35084     35086     35083     35081     35084     35087
     35084     35087     35090     35091     35084     35087     35090     35092
     35084     35087     35090     35093     35085     35084     35087     35088
     35085     35084     35087     35089     35085     35084     35087     35090
     35086     35084     35087     35088     35086     35084     35087     35089
     35086     35084     35087     35090     35087     35090     35093     35094
     35087     35090     35093     35095     35087     35090     35093     35096
     35088     35087     35090     35091     35088     35087     35090     35092
     35088     35087     35090     35093     35089     35087     35090     35091
     35089     35087     35090     35092     35089     35087     35090     35093
     35090     35093     35096     35097     35090     35093     35096     35098
     35090     35093     35096     35099     35091     35090     35093     35094
     35091     35090     35093     35095     35091     35090     35093     35096
     35092     35090     35093     35094     35092     35090     35093     35095
     35092     35090     35093     35096     35093     35096     35099     35100
     35093     35096     35099     35101     35093     35096     35099     35102
     35094     35093     35096     35097     35094     35093     35096     35098
     35094     35093     35096     35099     35095     35093     35096     35097
     35095     35093     35096     35098     35095     35093     35096     35099
     35096     35099     35102     35103     35096     35099     35102     35104
     35096     35099     35102     35105     35097     35096     35099     35100
     35097     35096     35099     35101     35097     35096     35099     35102
     35098     35096     35099     35100     35098     35096     35099     35101
     35098     35096     35099     35102     35099     35102     35105     35106
     35099     35102     35105     35107     35099     35102     35105     35108
     35100     35099     35102     35103     35100     35099     35102     35104
     35100     35099     35102     35105     35101     35099     35102     35103
     35101     35099     35102     35104     35101     35099     35102     35105
     35103     35102     35105     35106     35103     35102     35105     35107
     35103     35102     35105     35108     35104     35102     35105     35106
     35104     35102     35105     35107     35104     35102     35105     35108
     35109     35110     35125     35126     35109     35110     35125     35127
     35109     35110     35125     35131     35110     35109     35113     35114
     35110     35109     35113     35115     35110     35109     35113     35116
     35110     35109     35117     35118     35110     35109     35117     35119
     35110     35109     35117     35120     35110     35109     35121     35122
     35110     35109     35121     35123     35110     35109     35121     35124
     35110     35125     35131     35128     35111     35110     35109     35113
     35111     35110     35109     35117     35111     35110     35109     35121
     35111     35110     35125     35126     35111     35110     35125     35127
     35111     35110     35125     35131     35112     35110     35109     35113
     35112     35110     35109     35117     35112     35110     35109     35121
     35112     35110     35125     35126     35112     35110     35125     35127
     35112     35110     35125     35131     35113     35109     35110     35125
     35113     35109     35117     35118     35113     35109     35117     35119
     35113     35109     35117     35120     35113     35109     35121     35122
     35113     35109     35121     35123     35113     35109     35121     35124
     35114     35113     35109     35117     35114     35113     35109     35121
     35115     35113     35109     35117     35115     35113     35109     35121
     35116     35113     35109     35117     35116     35113     35109     35121
     35117     35109     35110     35125     35117     35109     35121     35122
     35117     35109     35121     35123     35117     35109     35121     35124
     35118     35117     35109     35121     35119     35117     35109     35121
     35120     35117     35109     35121     35121     35109     35110     35125
     35125     35131     35128     35129     35125     35131     35128     35130
     35125     35131     35128     35132     35126     35125     35131     35128
     35127     35125     35131     35128     35128     35132     35133     35134
     35128     35132     35133     35135     35128     35132     35133     35136
     35129     35128     35132     35133     35130     35128     35132     35133
     35131     35128     35132     35133     35132     35133     35136     35137
     35132     35133     35136     35138     35132     35133     35136     35144
     35133     35136     35138     35139     35133     35136     35144     35145
     35133     35136     35144     35146     35133     35136     35144     35147
     35134     35133     35136     35137     35134     35133     35136     35138
     35134     35133     35136     35144     35135     35133     35136     35137
     35135     35133     35136     35138     35135     35133     35136     35144
     35136     35138     35139     35140     35136     35138     35139     35141
     35136     35144     35147     35148     35137     35136     35138     35139
     35137     35136     35144     35145     35137     35136     35144     35146
     35137     35136     35144     35147     35138     35136     35144     35145
     35138     35136     35144     35146     35138     35136     35144     35147
     35138     35139     35141     35142     35138     35139     35141     35143
     35138     35139     35141     35153     35139     35138     35136     35144
     35139     35141     35153     35154     35139     35141     35153     35155
     35139     35141     35153     35156     35140     35139     35141     35142
     35140     35139     35141     35143     35140     35139     35141     35153
     35141     35153     35156     35157     35141     35153     35156     35158
     35141     35153     35156     35159     35142     35141     35153     35154
     35142     35141     35153     35155     35142     35141     35153     35156
     35143     35141     35153     35154     35143     35141     35153     35155
     35143     35141     35153     35156     35144     35147     35148     35149
     35144     35147     35148     35150     35145     35144     35147     35148
     35146     35144     35147     35148     35147     35148     35150     35151
     35147     35148     35150     35152     35147     35148     35150     35200
     35148     35150     35200     35201     35148     35150     35200     35202
     35148     35150     35200     35203     35149     35148     35150     35151
     35149     35148     35150     35152     35149     35148     35150     35200
     35150     35200     35203     35204     35150     35200     35203     35205
     35150     35200     35203     35206     35151     35150     35200     35201
     35151     35150     35200     35202     35151     35150     35200     35203
     35152     35150     35200     35201     35152     35150     35200     35202
     35152     35150     35200     35203     35153     35156     35159     35160
     35153     35156     35159     35161     35153     35156     35159     35162
     35154     35153     35156     35157     35154     35153     35156     35158
     35154     35153     35156     35159     35155     35153     35156     35157
     35155     35153     35156     35158     35155     35153     35156     35159
     35156     35159     35162     35163     35156     35159     35162     35164
     35156     35159     35162     35165     35157     35156     35159     35160
     35157     35156     35159     35161     35157     35156     35159     35162
     35158     35156     35159     35160     35158     35156     35159     35161
     35158     35156     35159     35162     35159     35162     35165     35166
     35159     35162     35165     35167     35159     35162     35165     35168
     35160     35159     35162     35163     35160     35159     35162     35164
     35160     35159     35162     35165     35161     35159     35162     35163
     35161     35159     35162     35164     35161     35159     35162     35165
     35162     35165     35168     35169     35162     35165     35168     35170
     35162     35165     35168     35171     35163     35162     35165     35166
     35163     35162     35165     35167     35163     35162     35165     35168
     35164     35162     35165     35166     35164     35162     35165     35167
     35164     35162     35165     35168     35165     35168     35171     35172
     35165     35168     35171     35173     35166     35165     35168     35169
     35166     35165     35168     35170     35166     35165     35168     35171
     35167     35165     35168     35169     35167     35165     35168     35170
     35167     35165     35168     35171     35168     35171     35173     35174
     35168     35171     35173     35175     35169     35168     35171     35172
     35169     35168     35171     35173     35170     35168     35171     35172
     35170     35168     35171     35173     35171     35173     35175     35176
     35171     35173     35175     35177     35171     35173     35175     35178
     35172     35171     35173     35174     35172     35171     35173     35175
     35173     35175     35178     35179     35173     35175     35178     35180
     35173     35175     35178     35181     35174     35173     35175     35176
     35174     35173     35175     35177     35174     35173     35175     35178
     35175     35178     35181     35182     35175     35178     35181     35183
     35175     35178     35181     35184     35176     35175     35178     35179
     35176     35175     35178     35180     35176     35175     35178     35181
     35177     35175     35178     35179     35177     35175     35178     35180
     35177     35175     35178     35181     35178     35181     35184     35185
     35178     35181     35184     35186     35178     35181     35184     35187
     35179     35178     35181     35182     35179     35178     35181     35183
     35179     35178     35181     35184     35180     35178     35181     35182
     35180     35178     35181     35183     35180     35178     35181     35184
     35181     35184     35187     35188     35181     35184     35187     35189
     35181     35184     35187     35190     35182     35181     35184     35185
     35182     35181     35184     35186     35182     35181     35184     35187
     35183     35181     35184     35185     35183     35181     35184     35186
     35183     35181     35184     35187     35184     35187     35190     35191
     35184     35187     35190     35192     35184     35187     35190     35193
     35185     35184     35187     35188     35185     35184     35187     35189
     35185     35184     35187     35190     35186     35184     35187     35188
     35186     35184     35187     35189     35186     35184     35187     35190
     35187     35190     35193     35194     35187     35190     35193     35195
     35187     35190     35193     35196     35188     35187     35190     35191
     35188     35187     35190     35192     35188     35187     35190     35193
     35189     35187     35190     35191     35189     35187     35190     35192
     35189     35187     35190     35193     35190     35193     35196     35197
     35190     35193     35196     35198     35190     35193     35196     35199
     35191     35190     35193     35194     35191     35190     35193     35195
     35191     35190     35193     35196     35192     35190     35193     35194
     35192     35190     35193     35195     35192     35190     35193     35196
     35194     35193     35196     35197     35194     35193     35196     35198
     35194     35193     35196     35199     35195     35193     35196     35197
     35195     35193     35196     35198     35195     35193     35196     35199
     35200     35203     35206     35207     35200     35203     35206     35208
     35200     35203     35206     35209     35201     35200     35203     35204
     35201     35200     35203     35205     35201     35200     35203     35206
     35202     35200     35203     35204     35202     35200     35203     35205
     35202     35200     35203     35206     35203     35206     35209     35210
     35203     35206     35209     35211     35203     35206     35209     35212
     35204     35203     35206     35207     35204     35203     35206     35208
     35204     35203     35206     35209     35205     35203     35206     35207
     35205     35203     35206     35208     35205     35203     35206     35209
     35206     35209     35212     35213     35206     35209     35212     35214
     35206     35209     35212     35215     35207     35206     35209     35210
     35207     35206     35209     35211     35207     35206     35209     35212
     35208     35206     35209     35210     35208     35206     35209     35211
     35208     35206     35209     35212     35209     35212     35215     35216
     35209     35212     35215     35217     35209     35212     35215     35218
     35210     35209     35212     35213     35210     35209     35212     35214
     35210     35209     35212     35215     35211     35209     35212     35213
     35211     35209     35212     35214     35211     35209     35212     35215
     35212     35215     35218     35219     35212     35215     35218     35220
     35212     35215     35218     35221     35213     35212     35215     35216
     35213     35212     35215     35217     35213     35212     35215     35218
     35214     35212     35215     35216     35214     35212     35215     35217
     35214     35212     35215     35218     35215     35218     35221     35222
     35215     35218     35221     35223     35215     35218     35221     35224
     35216     35215     35218     35219     35216     35215     35218     35220
     35216     35215     35218     35221     35217     35215     35218     35219
     35217     35215     35218     35220     35217     35215     35218     35221
     35218     35221     35224     35225     35218     35221     35224     35226
     35218     35221     35224     35227     35219     35218     35221     35222
     35219     35218     35221     35223     35219     35218     35221     35224
     35220     35218     35221     35222     35220     35218     35221     35223
     35220     35218     35221     35224     35221     35224     35227     35228
     35221     35224     35227     35229     35221     35224     35227     35230
     35222     35221     35224     35225     35222     35221     35224     35226
     35222     35221     35224     35227     35223     35221     35224     35225
     35223     35221     35224     35226     35223     35221     35224     35227
     35224     35227     35230     35231     35224     35227     35230     35232
     35224     35227     35230     35233     35225     35224     35227     35228
     35225     35224     35227     35229     35225     35224     35227     35230
     35226     35224     35227     35228     35226     35224     35227     35229
     35226     35224     35227     35230     35227     35230     35233     35234
     35227     35230     35233     35235     35227     35230     35233     35236
     35228     35227     35230     35231     35228     35227     35230     35232
     35228     35227     35230     35233     35229     35227     35230     35231
     35229     35227     35230     35232     35229     35227     35230     35233
     35230     35233     35236     35237     35230     35233     35236     35238
     35230     35233     35236     35239     35231     35230     35233     35234
     35231     35230     35233     35235     35231     35230     35233     35236
     35232     35230     35233     35234     35232     35230     35233     35235
     35232     35230     35233     35236     35233     35236     35239     35240
     35233     35236     35239     35241     35233     35236     35239     35242
     35234     35233     35236     35237     35234     35233     35236     35238
     35234     35233     35236     35239     35235     35233     35236     35237
     35235     35233     35236     35238     35235     35233     35236     35239
     35237     35236     35239     35240     35237     35236     35239     35241
     35237     35236     35239     35242     35238     35236     35239     35240
     35238     35236     35239     35241     35238     35236     35239     35242
     35243     35244     35259     35260     35243     35244     35259     35261
     35243     35244     35259     35265     35244     35243     35247     35248
     35244     35243     35247     35249     35244     35243     35247     35250
     35244     35243     35251     35252     35244     35243     35251     35253
     35244     35243     35251     35254     35244     35243     35255     35256
     35244     35243     35255     35257     35244     35243     35255     35258
     35244     35259     35265     35262     35245     35244     35243     35247
     35245     35244     35243     35251     35245     35244     35243     35255
     35245     35244     35259     35260     35245     35244     35259     35261
     35245     35244     35259     35265     35246     35244     35243     35247
     35246     35244     35243     35251     35246     35244     35243     35255
     35246     35244     35259     35260     35246     35244     35259     35261
     35246     35244     35259     35265     35247     35243     35244     35259
     35247     35243     35251     35252     35247     35243     35251     35253
     35247     35243     35251     35254     35247     35243     35255     35256
     35247     35243     35255     35257     35247     35243     35255     35258
     35248     35247     35243     35251     35248     35247     35243     35255
     35249     35247     35243     35251     35249     35247     35243     35255
     35250     35247     35243     35251     35250     35247     35243     35255
     35251     35243     35244     35259     35251     35243     35255     35256
     35251     35243     35255     35257     35251     35243     35255     35258
     35252     35251     35243     35255     35253     35251     35243     35255
     35254     35251     35243     35255     35255     35243     35244     35259
     35259     35265     35262     35263     35259     35265     35262     35264
     35259     35265     35262     35266     35260     35259     35265     35262
     35261     35259     35265     35262     35262     35266     35267     35268
     35262     35266     35267     35269     35262     35266     35267     35270
     35263     35262     35266     35267     35264     35262     35266     35267
     35265     35262     35266     35267     35266     35267     35270     35271
     35266     35267     35270     35272     35266     35267     35270     35278
     35267     35270     35272     35273     35267     35270     35278     35279
     35267     35270     35278     35280     35267     35270     35278     35281
     35268     35267     35270     35271     35268     35267     35270     35272
     35268     35267     35270     35278     35269     35267     35270     35271
     35269     35267     35270     35272     35269     35267     35270     35278
     35270     35272     35273     35274     35270     35272     35273     35275
     35270     35278     35281     35282     35271     35270     35272     35273
     35271     35270     35278     35279     35271     35270     35278     35280
     35271     35270     35278     35281     35272     35270     35278     35279
     35272     35270     35278     35280     35272     35270     35278     35281
     35272     35273     35275     35276     35272     35273     35275     35277
     35272     35273     35275     35287     35273     35272     35270     35278
     35273     35275     35287     35288     35273     35275     35287     35289
     35273     35275     35287     35290     35274     35273     35275     35276
     35274     35273     35275     35277     35274     35273     35275     35287
     35275     35287     35290     35291     35275     35287     35290     35292
     35275     35287     35290     35293     35276     35275     35287     35288
     35276     35275     35287     35289     35276     35275     35287     35290
     35277     35275     35287     35288     35277     35275     35287     35289
     35277     35275     35287     35290     35278     35281     35282     35283
     35278     35281     35282     35284     35279     35278     35281     35282
     35280     35278     35281     35282     35281     35282     35284     35285
     35281     35282     35284     35286     35281     35282     35284     35334
     35282     35284     35334     35335     35282     35284     35334     35336
     35282     35284     35334     35337     35283     35282     35284     35285
     35283     35282     35284     35286     35283     35282     35284     35334
     35284     35334     35337     35338     35284     35334     35337     35339
     35284     35334     35337     35340     35285     35284     35334     35335
     35285     35284     35334     35336     35285     35284     35334     35337
     35286     35284     35334     35335     35286     35284     35334     35336
     35286     35284     35334     35337     35287     35290     35293     35294
     35287     35290     35293     35295     35287     35290     35293     35296
     35288     35287     35290     35291     35288     35287     35290     35292
     35288     35287     35290     35293     35289     35287     35290     35291
     35289     35287     35290     35292     35289     35287     35290     35293
     35290     35293     35296     35297     35290     35293     35296     35298
     35290     35293     35296     35299     35291     35290     35293     35294
     35291     35290     35293     35295     35291     35290     35293     35296
     35292     35290     35293     35294     35292     35290     35293     35295
     35292     35290     35293     35296     35293     35296     35299     35300
     35293     35296     35299     35301     35293     35296     35299     35302
     35294     35293     35296     35297     35294     35293     35296     35298
     35294     35293     35296     35299     35295     35293     35296     35297
     35295     35293     35296     35298     35295     35293     35296     35299
     35296     35299     35302     35303     35296     35299     35302     35304
     35296     35299     35302     35305     35297     35296     35299     35300
     35297     35296     35299     35301     35297     35296     35299     35302
     35298     35296     35299     35300     35298     35296     35299     35301
     35298     35296     35299     35302     35299     35302     35305     35306
     35299     35302     35305     35307     35300     35299     35302     35303
     35300     35299     35302     35304     35300     35299     35302     35305
     35301     35299     35302     35303     35301     35299     35302     35304
     35301     35299     35302     35305     35302     35305     35307     35308
     35302     35305     35307     35309     35303     35302     35305     35306
     35303     35302     35305     35307     35304     35302     35305     35306
     35304     35302     35305     35307     35305     35307     35309     35310
     35305     35307     35309     35311     35305     35307     35309     35312
     35306     35305     35307     35308     35306     35305     35307     35309
     35307     35309     35312     35313     35307     35309     35312     35314
     35307     35309     35312     35315     35308     35307     35309     35310
     35308     35307     35309     35311     35308     35307     35309     35312
     35309     35312     35315     35316     35309     35312     35315     35317
     35309     35312     35315     35318     35310     35309     35312     35313
     35310     35309     35312     35314     35310     35309     35312     35315
     35311     35309     35312     35313     35311     35309     35312     35314
     35311     35309     35312     35315     35312     35315     35318     35319
     35312     35315     35318     35320     35312     35315     35318     35321
     35313     35312     35315     35316     35313     35312     35315     35317
     35313     35312     35315     35318     35314     35312     35315     35316
     35314     35312     35315     35317     35314     35312     35315     35318
     35315     35318     35321     35322     35315     35318     35321     35323
     35315     35318     35321     35324     35316     35315     35318     35319
     35316     35315     35318     35320     35316     35315     35318     35321
     35317     35315     35318     35319     35317     35315     35318     35320
     35317     35315     35318     35321     35318     35321     35324     35325
     35318     35321     35324     35326     35318     35321     35324     35327
     35319     35318     35321     35322     35319     35318     35321     35323
     35319     35318     35321     35324     35320     35318     35321     35322
     35320     35318     35321     35323     35320     35318     35321     35324
     35321     35324     35327     35328     35321     35324     35327     35329
     35321     35324     35327     35330     35322     35321     35324     35325
     35322     35321     35324     35326     35322     35321     35324     35327
     35323     35321     35324     35325     35323     35321     35324     35326
     35323     35321     35324     35327     35324     35327     35330     35331
     35324     35327     35330     35332     35324     35327     35330     35333
     35325     35324     35327     35328     35325     35324     35327     35329
     35325     35324     35327     35330     35326     35324     35327     35328
     35326     35324     35327     35329     35326     35324     35327     35330
     35328     35327     35330     35331     35328     35327     35330     35332
     35328     35327     35330     35333     35329     35327     35330     35331
     35329     35327     35330     35332     35329     35327     35330     35333
     35334     35337     35340     35341     35334     35337     35340     35342
     35334     35337     35340     35343     35335     35334     35337     35338
     35335     35334     35337     35339     35335     35334     35337     35340
     35336     35334     35337     35338     35336     35334     35337     35339
     35336     35334     35337     35340     35337     35340     35343     35344
     35337     35340     35343     35345     35337     35340     35343     35346
     35338     35337     35340     35341     35338     35337     35340     35342
     35338     35337     35340     35343     35339     35337     35340     35341
     35339     35337     35340     35342     35339     35337     35340     35343
     35340     35343     35346     35347     35340     35343     35346     35348
     35340     35343     35346     35349     35341     35340     35343     35344
     35341     35340     35343     35345     35341     35340     35343     35346
     35342     35340     35343     35344     35342     35340     35343     35345
     35342     35340     35343     35346     35343     35346     35349     35350
     35343     35346     35349     35351     35343     35346     35349     35352
     35344     35343     35346     35347     35344     35343     35346     35348
     35344     35343     35346     35349     35345     35343     35346     35347
     35345     35343     35346     35348     35345     35343     35346     35349
     35346     35349     35352     35353     35346     35349     35352     35354
     35346     35349     35352     35355     35347     35346     35349     35350
     35347     35346     35349     35351     35347     35346     35349     35352
     35348     35346     35349     35350     35348     35346     35349     35351
     35348     35346     35349     35352     35349     35352     35355     35356
     35349     35352     35355     35357     35349     35352     35355     35358
     35350     35349     35352     35353     35350     35349     35352     35354
     35350     35349     35352     35355     35351     35349     35352     35353
     35351     35349     35352     35354     35351     35349     35352     35355
     35352     35355     35358     35359     35352     35355     35358     35360
     35352     35355     35358     35361     35353     35352     35355     35356
     35353     35352     35355     35357     35353     35352     35355     35358
     35354     35352     35355     35356     35354     35352     35355     35357
     35354     35352     35355     35358     35355     35358     35361     35362
     35355     35358     35361     35363     35355     35358     35361     35364
     35356     35355     35358     35359     35356     35355     35358     35360
     35356     35355     35358     35361     35357     35355     35358     35359
     35357     35355     35358     35360     35357     35355     35358     35361
     35358     35361     35364     35365     35358     35361     35364     35366
     35358     35361     35364     35367     35359     35358     35361     35362
     35359     35358     35361     35363     35359     35358     35361     35364
     35360     35358     35361     35362     35360     35358     35361     35363
     35360     35358     35361     35364     35361     35364     35367     35368
     35361     35364     35367     35369     35361     35364     35367     35370
     35362     35361     35364     35365     35362     35361     35364     35366
     35362     35361     35364     35367     35363     35361     35364     35365
     35363     35361     35364     35366     35363     35361     35364     35367
     35364     35367     35370     35371     35364     35367     35370     35372
     35364     35367     35370     35373     35365     35364     35367     35368
     35365     35364     35367     35369     35365     35364     35367     35370
     35366     35364     35367     35368     35366     35364     35367     35369
     35366     35364     35367     35370     35367     35370     35373     35374
     35367     35370     35373     35375     35367     35370     35373     35376
     35368     35367     35370     35371     35368     35367     35370     35372
     35368     35367     35370     35373     35369     35367     35370     35371
     35369     35367     35370     35372     35369     35367     35370     35373
     35371     35370     35373     35374     35371     35370     35373     35375
     35371     35370     35373     35376     35372     35370     35373     35374
     35372     35370     35373     35375     35372     35370     35373     35376
     35377     35378     35393     35394     35377     35378     35393     35395
     35377     35378     35393     35399     35378     35377     35381     35382
     35378     35377     35381     35383     35378     35377     35381     35384
     35378     35377     35385     35386     35378     35377     35385     35387
     35378     35377     35385     35388     35378     35377     35389     35390
     35378     35377     35389     35391     35378     35377     35389     35392
     35378     35393     35399     35396     35379     35378     35377     35381
     35379     35378     35377     35385     35379     35378     35377     35389
     35379     35378     35393     35394     35379     35378     35393     35395
     35379     35378     35393     35399     35380     35378     35377     35381
     35380     35378     35377     35385     35380     35378     35377     35389
     35380     35378     35393     35394     35380     35378     35393     35395
     35380     35378     35393     35399     35381     35377     35378     35393
     35381     35377     35385     35386     35381     35377     35385     35387
     35381     35377     35385     35388     35381     35377     35389     35390
     35381     35377     35389     35391     35381     35377     35389     35392
     35382     35381     35377     35385     35382     35381     35377     35389
     35383     35381     35377     35385     35383     35381     35377     35389
     35384     35381     35377     35385     35384     35381     35377     35389
     35385     35377     35378     35393     35385     35377     35389     35390
     35385     35377     35389     35391     35385     35377     35389     35392
     35386     35385     35377     35389     35387     35385     35377     35389
     35388     35385     35377     35389     35389     35377     35378     35393
     35393     35399     35396     35397     35393     35399     35396     35398
     35393     35399     35396     35400     35394     35393     35399     35396
     35395     35393     35399     35396     35396     35400     35401     35402
     35396     35400     35401     35403     35396     35400     35401     35404
     35397     35396     35400     35401     35398     35396     35400     35401
     35399     35396     35400     35401     35400     35401     35404     35405
     35400     35401     35404     35406     35400     35401     35404     35412
     35401     35404     35406     35407     35401     35404     35412     35413
     35401     35404     35412     35414     35401     35404     35412     35415
     35402     35401     35404     35405     35402     35401     35404     35406
     35402     35401     35404     35412     35403     35401     35404     35405
     35403     35401     35404     35406     35403     35401     35404     35412
     35404     35406     35407     35408     35404     35406     35407     35409
     35404     35412     35415     35416     35405     35404     35406     35407
     35405     35404     35412     35413     35405     35404     35412     35414
     35405     35404     35412     35415     35406     35404     35412     35413
     35406     35404     35412     35414     35406     35404     35412     35415
     35406     35407     35409     35410     35406     35407     35409     35411
     35406     35407     35409     35421     35407     35406     35404     35412
     35407     35409     35421     35422     35407     35409     35421     35423
     35407     35409     35421     35424     35408     35407     35409     35410
     35408     35407     35409     35411     35408     35407     35409     35421
     35409     35421     35424     35425     35409     35421     35424     35426
     35409     35421     35424     35427     35410     35409     35421     35422
     35410     35409     35421     35423     35410     35409     35421     35424
     35411     35409     35421     35422     35411     35409     35421     35423
     35411     35409     35421     35424     35412     35415     35416     35417
     35412     35415     35416     35418     35413     35412     35415     35416
     35414     35412     35415     35416     35415     35416     35418     35419
     35415     35416     35418     35420     35415     35416     35418     35468
     35416     35418     35468     35469     35416     35418     35468     35470
     35416     35418     35468     35471     35417     35416     35418     35419
     35417     35416     35418     35420     35417     35416     35418     35468
     35418     35468     35471     35472     35418     35468     35471     35473
     35418     35468     35471     35474     35419     35418     35468     35469
     35419     35418     35468     35470     35419     35418     35468     35471
     35420     35418     35468     35469     35420     35418     35468     35470
     35420     35418     35468     35471     35421     35424     35427     35428
     35421     35424     35427     35429     35421     35424     35427     35430
     35422     35421     35424     35425     35422     35421     35424     35426
     35422     35421     35424     35427     35423     35421     35424     35425
     35423     35421     35424     35426     35423     35421     35424     35427
     35424     35427     35430     35431     35424     35427     35430     35432
     35424     35427     35430     35433     35425     35424     35427     35428
     35425     35424     35427     35429     35425     35424     35427     35430
     35426     35424     35427     35428     35426     35424     35427     35429
     35426     35424     35427     35430     35427     35430     35433     35434
     35427     35430     35433     35435     35427     35430     35433     35436
     35428     35427     35430     35431     35428     35427     35430     35432
     35428     35427     35430     35433     35429     35427     35430     35431
     35429     35427     35430     35432     35429     35427     35430     35433
     35430     35433     35436     35437     35430     35433     35436     35438
     35430     35433     35436     35439     35431     35430     35433     35434
     35431     35430     35433     35435     35431     35430     35433     35436
     35432     35430     35433     35434     35432     35430     35433     35435
     35432     35430     35433     35436     35433     35436     35439     35440
     35433     35436     35439     35441     35434     35433     35436     35437
     35434     35433     35436     35438     35434     35433     35436     35439
     35435     35433     35436     35437     35435     35433     35436     35438
     35435     35433     35436     35439     35436     35439     35441     35442
     35436     35439     35441     35443     35437     35436     35439     35440
     35437     35436     35439     35441     35438     35436     35439     35440
     35438     35436     35439     35441     35439     35441     35443     35444
     35439     35441     35443     35445     35439     35441     35443     35446
     35440     35439     35441     35442     35440     35439     35441     35443
     35441     35443     35446     35447     35441     35443     35446     35448
     35441     35443     35446     35449     35442     35441     35443     35444
     35442     35441     35443     35445     35442     35441     35443     35446
     35443     35446     35449     35450     35443     35446     35449     35451
     35443     35446     35449     35452     35444     35443     35446     35447
     35444     35443     35446     35448     35444     35443     35446     35449
     35445     35443     35446     35447     35445     35443     35446     35448
     35445     35443     35446     35449     35446     35449     35452     35453
     35446     35449     35452     35454     35446     35449     35452     35455
     35447     35446     35449     35450     35447     35446     35449     35451
     35447     35446     35449     35452     35448     35446     35449     35450
     35448     35446     35449     35451     35448     35446     35449     35452
     35449     35452     35455     35456     35449     35452     35455     35457
     35449     35452     35455     35458     35450     35449     35452     35453
     35450     35449     35452     35454     35450     35449     35452     35455
     35451     35449     35452     35453     35451     35449     35452     35454
     35451     35449     35452     35455     35452     35455     35458     35459
     35452     35455     35458     35460     35452     35455     35458     35461
     35453     35452     35455     35456     35453     35452     35455     35457
     35453     35452     35455     35458     35454     35452     35455     35456
     35454     35452     35455     35457     35454     35452     35455     35458
     35455     35458     35461     35462     35455     35458     35461     35463
     35455     35458     35461     35464     35456     35455     35458     35459
     35456     35455     35458     35460     35456     35455     35458     35461
     35457     35455     35458     35459     35457     35455     35458     35460
     35457     35455     35458     35461     35458     35461     35464     35465
     35458     35461     35464     35466     35458     35461     35464     35467
     35459     35458     35461     35462     35459     35458     35461     35463
     35459     35458     35461     35464     35460     35458     35461     35462
     35460     35458     35461     35463     35460     35458     35461     35464
     35462     35461     35464     35465     35462     35461     35464     35466
     35462     35461     35464     35467     35463     35461     35464     35465
     35463     35461     35464     35466     35463     35461     35464     35467
     35468     35471     35474     35475     35468     35471     35474     35476
     35468     35471     35474     35477     35469     35468     35471     35472
     35469     35468     35471     35473     35469     35468     35471     35474
     35470     35468     35471     35472     35470     35468     35471     35473
     35470     35468     35471     35474     35471     35474     35477     35478
     35471     35474     35477     35479     35471     35474     35477     35480
     35472     35471     35474     35475     35472     35471     35474     35476
     35472     35471     35474     35477     35473     35471     35474     35475
     35473     35471     35474     35476     35473     35471     35474     35477
     35474     35477     35480     35481     35474     35477     35480     35482
     35474     35477     35480     35483     35475     35474     35477     35478
     35475     35474     35477     35479     35475     35474     35477     35480
     35476     35474     35477     35478     35476     35474     35477     35479
     35476     35474     35477     35480     35477     35480     35483     35484
     35477     35480     35483     35485     35477     35480     35483     35486
     35478     35477     35480     35481     35478     35477     35480     35482
     35478     35477     35480     35483     35479     35477     35480     35481
     35479     35477     35480     35482     35479     35477     35480     35483
     35480     35483     35486     35487     35480     35483     35486     35488
     35480     35483     35486     35489     35481     35480     35483     35484
     35481     35480     35483     35485     35481     35480     35483     35486
     35482     35480     35483     35484     35482     35480     35483     35485
     35482     35480     35483     35486     35483     35486     35489     35490
     35483     35486     35489     35491     35483     35486     35489     35492
     35484     35483     35486     35487     35484     35483     35486     35488
     35484     35483     35486     35489     35485     35483     35486     35487
     35485     35483     35486     35488     35485     35483     35486     35489
     35486     35489     35492     35493     35486     35489     35492     35494
     35486     35489     35492     35495     35487     35486     35489     35490
     35487     35486     35489     35491     35487     35486     35489     35492
     35488     35486     35489     35490     35488     35486     35489     35491
     35488     35486     35489     35492     35489     35492     35495     35496
     35489     35492     35495     35497     35489     35492     35495     35498
     35490     35489     35492     35493     35490     35489     35492     35494
     35490     35489     35492     35495     35491     35489     35492     35493
     35491     35489     35492     35494     35491     35489     35492     35495
     35492     35495     35498     35499     35492     35495     35498     35500
     35492     35495     35498     35501     35493     35492     35495     35496
     35493     35492     35495     35497     35493     35492     35495     35498
     35494     35492     35495     35496     35494     35492     35495     35497
     35494     35492     35495     35498     35495     35498     35501     35502
     35495     35498     35501     35503     35495     35498     35501     35504
     35496     35495     35498     35499     35496     35495     35498     35500
     35496     35495     35498     35501     35497     35495     35498     35499
     35497     35495     35498     35500     35497     35495     35498     35501
     35498     35501     35504     35505     35498     35501     35504     35506
     35498     35501     35504     35507     35499     35498     35501     35502
     35499     35498     35501     35503     35499     35498     35501     35504
     35500     35498     35501     35502     35500     35498     35501     35503
     35500     35498     35501     35504     35501     35504     35507     35508
     35501     35504     35507     35509     35501     35504     35507     35510
     35502     35501     35504     35505     35502     35501     35504     35506
     35502     35501     35504     35507     35503     35501     35504     35505
     35503     35501     35504     35506     35503     35501     35504     35507
     35505     35504     35507     35508     35505     35504     35507     35509
     35505     35504     35507     35510     35506     35504     35507     35508
     35506     35504     35507     35509     35506     35504     35507     35510
     35511     35512     35527     35528     35511     35512     35527     35529
     35511     35512     35527     35533     35512     35511     35515     35516
     35512     35511     35515     35517     35512     35511     35515     35518
     35512     35511     35519     35520     35512     35511     35519     35521
     35512     35511     35519     35522     35512     35511     35523     35524
     35512     35511     35523     35525     35512     35511     35523     35526
     35512     35527     35533     35530     35513     35512     35511     35515
     35513     35512     35511     35519     35513     35512     35511     35523
     35513     35512     35527     35528     35513     35512     35527     35529
     35513     35512     35527     35533     35514     35512     35511     35515
     35514     35512     35511     35519     35514     35512     35511     35523
     35514     35512     35527     35528     35514     35512     35527     35529
     35514     35512     35527     35533     35515     35511     35512     35527
     35515     35511     35519     35520     35515     35511     35519     35521
     35515     35511     35519     35522     35515     35511     35523     35524
     35515     35511     35523     35525     35515     35511     35523     35526
     35516     35515     35511     35519     35516     35515     35511     35523
     35517     35515     35511     35519     35517     35515     35511     35523
     35518     35515     35511     35519     35518     35515     35511     35523
     35519     35511     35512     35527     35519     35511     35523     35524
     35519     35511     35523     35525     35519     35511     35523     35526
     35520     35519     35511     35523     35521     35519     35511     35523
     35522     35519     35511     35523     35523     35511     35512     35527
     35527     35533     35530     35531     35527     35533     35530     35532
     35527     35533     35530     35534     35528     35527     35533     35530
     35529     35527     35533     35530     35530     35534     35535     35536
     35530     35534     35535     35537     35530     35534     35535     35538
     35531     35530     35534     35535     35532     35530     35534     35535
     35533     35530     35534     35535     35534     35535     35538     35539
     35534     35535     35538     35540     35534     35535     35538     35546
     35535     35538     35540     35541     35535     35538     35546     35547
     35535     35538     35546     35548     35535     35538     35546     35549
     35536     35535     35538     35539     35536     35535     35538     35540
     35536     35535     35538     35546     35537     35535     35538     35539
     35537     35535     35538     35540     35537     35535     35538     35546
     35538     35540     35541     35542     35538     35540     35541     35543
     35538     35546     35549     35550     35539     35538     35540     35541
     35539     35538     35546     35547     35539     35538     35546     35548
     35539     35538     35546     35549     35540     35538     35546     35547
     35540     35538     35546     35548     35540     35538     35546     35549
     35540     35541     35543     35544     35540     35541     35543     35545
     35540     35541     35543     35555     35541     35540     35538     35546
     35541     35543     35555     35556     35541     35543     35555     35557
     35541     35543     35555     35558     35542     35541     35543     35544
     35542     35541     35543     35545     35542     35541     35543     35555
     35543     35555     35558     35559     35543     35555     35558     35560
     35543     35555     35558     35561     35544     35543     35555     35556
     35544     35543     35555     35557     35544     35543     35555     35558
     35545     35543     35555     35556     35545     35543     35555     35557
     35545     35543     35555     35558     35546     35549     35550     35551
     35546     35549     35550     35552     35547     35546     35549     35550
     35548     35546     35549     35550     35549     35550     35552     35553
     35549     35550     35552     35554     35549     35550     35552     35602
     35550     35552     35602     35603     35550     35552     35602     35604
     35550     35552     35602     35605     35551     35550     35552     35553
     35551     35550     35552     35554     35551     35550     35552     35602
     35552     35602     35605     35606     35552     35602     35605     35607
     35552     35602     35605     35608     35553     35552     35602     35603
     35553     35552     35602     35604     35553     35552     35602     35605
     35554     35552     35602     35603     35554     35552     35602     35604
     35554     35552     35602     35605     35555     35558     35561     35562
     35555     35558     35561     35563     35555     35558     35561     35564
     35556     35555     35558     35559     35556     35555     35558     35560
     35556     35555     35558     35561     35557     35555     35558     35559
     35557     35555     35558     35560     35557     35555     35558     35561
     35558     35561     35564     35565     35558     35561     35564     35566
     35558     35561     35564     35567     35559     35558     35561     35562
     35559     35558     35561     35563     35559     35558     35561     35564
     35560     35558     35561     35562     35560     35558     35561     35563
     35560     35558     35561     35564     35561     35564     35567     35568
     35561     35564     35567     35569     35561     35564     35567     35570
     35562     35561     35564     35565     35562     35561     35564     35566
     35562     35561     35564     35567     35563     35561     35564     35565
     35563     35561     35564     35566     35563     35561     35564     35567
     35564     35567     35570     35571     35564     35567     35570     35572
     35564     35567     35570     35573     35565     35564     35567     35568
     35565     35564     35567     35569     35565     35564     35567     35570
     35566     35564     35567     35568     35566     35564     35567     35569
     35566     35564     35567     35570     35567     35570     35573     35574
     35567     35570     35573     35575     35568     35567     35570     35571
     35568     35567     35570     35572     35568     35567     35570     35573
     35569     35567     35570     35571     35569     35567     35570     35572
     35569     35567     35570     35573     35570     35573     35575     35576
     35570     35573     35575     35577     35571     35570     35573     35574
     35571     35570     35573     35575     35572     35570     35573     35574
     35572     35570     35573     35575     35573     35575     35577     35578
     35573     35575     35577     35579     35573     35575     35577     35580
     35574     35573     35575     35576     35574     35573     35575     35577
     35575     35577     35580     35581     35575     35577     35580     35582
     35575     35577     35580     35583     35576     35575     35577     35578
     35576     35575     35577     35579     35576     35575     35577     35580
     35577     35580     35583     35584     35577     35580     35583     35585
     35577     35580     35583     35586     35578     35577     35580     35581
     35578     35577     35580     35582     35578     35577     35580     35583
     35579     35577     35580     35581     35579     35577     35580     35582
     35579     35577     35580     35583     35580     35583     35586     35587
     35580     35583     35586     35588     35580     35583     35586     35589
     35581     35580     35583     35584     35581     35580     35583     35585
     35581     35580     35583     35586     35582     35580     35583     35584
     35582     35580     35583     35585     35582     35580     35583     35586
     35583     35586     35589     35590     35583     35586     35589     35591
     35583     35586     35589     35592     35584     35583     35586     35587
     35584     35583     35586     35588     35584     35583     35586     35589
     35585     35583     35586     35587     35585     35583     35586     35588
     35585     35583     35586     35589     35586     35589     35592     35593
     35586     35589     35592     35594     35586     35589     35592     35595
     35587     35586     35589     35590     35587     35586     35589     35591
     35587     35586     35589     35592     35588     35586     35589     35590
     35588     35586     35589     35591     35588     35586     35589     35592
     35589     35592     35595     35596     35589     35592     35595     35597
     35589     35592     35595     35598     35590     35589     35592     35593
     35590     35589     35592     35594     35590     35589     35592     35595
     35591     35589     35592     35593     35591     35589     35592     35594
     35591     35589     35592     35595     35592     35595     35598     35599
     35592     35595     35598     35600     35592     35595     35598     35601
     35593     35592     35595     35596     35593     35592     35595     35597
     35593     35592     35595     35598     35594     35592     35595     35596
     35594     35592     35595     35597     35594     35592     35595     35598
     35596     35595     35598     35599     35596     35595     35598     35600
     35596     35595     35598     35601     35597     35595     35598     35599
     35597     35595     35598     35600     35597     35595     35598     35601
     35602     35605     35608     35609     35602     35605     35608     35610
     35602     35605     35608     35611     35603     35602     35605     35606
     35603     35602     35605     35607     35603     35602     35605     35608
     35604     35602     35605     35606     35604     35602     35605     35607
     35604     35602     35605     35608     35605     35608     35611     35612
     35605     35608     35611     35613     35605     35608     35611     35614
     35606     35605     35608     35609     35606     35605     35608     35610
     35606     35605     35608     35611     35607     35605     35608     35609
     35607     35605     35608     35610     35607     35605     35608     35611
     35608     35611     35614     35615     35608     35611     35614     35616
     35608     35611     35614     35617     35609     35608     35611     35612
     35609     35608     35611     35613     35609     35608     35611     35614
     35610     35608     35611     35612     35610     35608     35611     35613
     35610     35608     35611     35614     35611     35614     35617     35618
     35611     35614     35617     35619     35611     35614     35617     35620
     35612     35611     35614     35615     35612     35611     35614     35616
     35612     35611     35614     35617     35613     35611     35614     35615
     35613     35611     35614     35616     35613     35611     35614     35617
     35614     35617     35620     35621     35614     35617     35620     35622
     35614     35617     35620     35623     35615     35614     35617     35618
     35615     35614     35617     35619     35615     35614     35617     35620
     35616     35614     35617     35618     35616     35614     35617     35619
     35616     35614     35617     35620     35617     35620     35623     35624
     35617     35620     35623     35625     35617     35620     35623     35626
     35618     35617     35620     35621     35618     35617     35620     35622
     35618     35617     35620     35623     35619     35617     35620     35621
     35619     35617     35620     35622     35619     35617     35620     35623
     35620     35623     35626     35627     35620     35623     35626     35628
     35620     35623     35626     35629     35621     35620     35623     35624
     35621     35620     35623     35625     35621     35620     35623     35626
     35622     35620     35623     35624     35622     35620     35623     35625
     35622     35620     35623     35626     35623     35626     35629     35630
     35623     35626     35629     35631     35623     35626     35629     35632
     35624     35623     35626     35627     35624     35623     35626     35628
     35624     35623     35626     35629     35625     35623     35626     35627
     35625     35623     35626     35628     35625     35623     35626     35629
     35626     35629     35632     35633     35626     35629     35632     35634
     35626     35629     35632     35635     35627     35626     35629     35630
     35627     35626     35629     35631     35627     35626     35629     35632
     35628     35626     35629     35630     35628     35626     35629     35631
     35628     35626     35629     35632     35629     35632     35635     35636
     35629     35632     35635     35637     35629     35632     35635     35638
     35630     35629     35632     35633     35630     35629     35632     35634
     35630     35629     35632     35635     35631     35629     35632     35633
     35631     35629     35632     35634     35631     35629     35632     35635
     35632     35635     35638     35639     35632     35635     35638     35640
     35632     35635     35638     35641     35633     35632     35635     35636
     35633     35632     35635     35637     35633     35632     35635     35638
     35634     35632     35635     35636     35634     35632     35635     35637
     35634     35632     35635     35638     35635     35638     35641     35642
     35635     35638     35641     35643     35635     35638     35641     35644
     35636     35635     35638     35639     35636     35635     35638     35640
     35636     35635     35638     35641     35637     35635     35638     35639
     35637     35635     35638     35640     35637     35635     35638     35641
     35639     35638     35641     35642     35639     35638     35641     35643
     35639     35638     35641     35644     35640     35638     35641     35642
     35640     35638     35641     35643     35640     35638     35641     35644
     35645     35646     35661     35662     35645     35646     35661     35663
     35645     35646     35661     35667     35646     35645     35649     35650
     35646     35645     35649     35651     35646     35645     35649     35652
     35646     35645     35653     35654     35646     35645     35653     35655
     35646     35645     35653     35656     35646     35645     35657     35658
     35646     35645     35657     35659     35646     35645     35657     35660
     35646     35661     35667     35664     35647     35646     35645     35649
     35647     35646     35645     35653     35647     35646     35645     35657
     35647     35646     35661     35662     35647     35646     35661     35663
     35647     35646     35661     35667     35648     35646     35645     35649
     35648     35646     35645     35653     35648     35646     35645     35657
     35648     35646     35661     35662     35648     35646     35661     35663
     35648     35646     35661     35667     35649     35645     35646     35661
     35649     35645     35653     35654     35649     35645     35653     35655
     35649     35645     35653     35656     35649     35645     35657     35658
     35649     35645     35657     35659     35649     35645     35657     35660
     35650     35649     35645     35653     35650     35649     35645     35657
     35651     35649     35645     35653     35651     35649     35645     35657
     35652     35649     35645     35653     35652     35649     35645     35657
     35653     35645     35646     35661     35653     35645     35657     35658
     35653     35645     35657     35659     35653     35645     35657     35660
     35654     35653     35645     35657     35655     35653     35645     35657
     35656     35653     35645     35657     35657     35645     35646     35661
     35661     35667     35664     35665     35661     35667     35664     35666
     35661     35667     35664     35668     35662     35661     35667     35664
     35663     35661     35667     35664     35664     35668     35669     35670
     35664     35668     35669     35671     35664     35668     35669     35672
     35665     35664     35668     35669     35666     35664     35668     35669
     35667     35664     35668     35669     35668     35669     35672     35673
     35668     35669     35672     35674     35668     35669     35672     35680
     35669     35672     35674     35675     35669     35672     35680     35681
     35669     35672     35680     35682     35669     35672     35680     35683
     35670     35669     35672     35673     35670     35669     35672     35674
     35670     35669     35672     35680     35671     35669     35672     35673
     35671     35669     35672     35674     35671     35669     35672     35680
     35672     35674     35675     35676     35672     35674     35675     35677
     35672     35680     35683     35684     35673     35672     35674     35675
     35673     35672     35680     35681     35673     35672     35680     35682
     35673     35672     35680     35683     35674     35672     35680     35681
     35674     35672     35680     35682     35674     35672     35680     35683
     35674     35675     35677     35678     35674     35675     35677     35679
     35674     35675     35677     35689     35675     35674     35672     35680
     35675     35677     35689     35690     35675     35677     35689     35691
     35675     35677     35689     35692     35676     35675     35677     35678
     35676     35675     35677     35679     35676     35675     35677     35689
     35677     35689     35692     35693     35677     35689     35692     35694
     35677     35689     35692     35695     35678     35677     35689     35690
     35678     35677     35689     35691     35678     35677     35689     35692
     35679     35677     35689     35690     35679     35677     35689     35691
     35679     35677     35689     35692     35680     35683     35684     35685
     35680     35683     35684     35686     35681     35680     35683     35684
     35682     35680     35683     35684     35683     35684     35686     35687
     35683     35684     35686     35688     35683     35684     35686     35736
     35684     35686     35736     35737     35684     35686     35736     35738
     35684     35686     35736     35739     35685     35684     35686     35687
     35685     35684     35686     35688     35685     35684     35686     35736
     35686     35736     35739     35740     35686     35736     35739     35741
     35686     35736     35739     35742     35687     35686     35736     35737
     35687     35686     35736     35738     35687     35686     35736     35739
     35688     35686     35736     35737     35688     35686     35736     35738
     35688     35686     35736     35739     35689     35692     35695     35696
     35689     35692     35695     35697     35689     35692     35695     35698
     35690     35689     35692     35693     35690     35689     35692     35694
     35690     35689     35692     35695     35691     35689     35692     35693
     35691     35689     35692     35694     35691     35689     35692     35695
     35692     35695     35698     35699     35692     35695     35698     35700
     35692     35695     35698     35701     35693     35692     35695     35696
     35693     35692     35695     35697     35693     35692     35695     35698
     35694     35692     35695     35696     35694     35692     35695     35697
     35694     35692     35695     35698     35695     35698     35701     35702
     35695     35698     35701     35703     35695     35698     35701     35704
     35696     35695     35698     35699     35696     35695     35698     35700
     35696     35695     35698     35701     35697     35695     35698     35699
     35697     35695     35698     35700     35697     35695     35698     35701
     35698     35701     35704     35705     35698     35701     35704     35706
     35698     35701     35704     35707     35699     35698     35701     35702
     35699     35698     35701     35703     35699     35698     35701     35704
     35700     35698     35701     35702     35700     35698     35701     35703
     35700     35698     35701     35704     35701     35704     35707     35708
     35701     35704     35707     35709     35702     35701     35704     35705
     35702     35701     35704     35706     35702     35701     35704     35707
     35703     35701     35704     35705     35703     35701     35704     35706
     35703     35701     35704     35707     35704     35707     35709     35710
     35704     35707     35709     35711     35705     35704     35707     35708
     35705     35704     35707     35709     35706     35704     35707     35708
     35706     35704     35707     35709     35707     35709     35711     35712
     35707     35709     35711     35713     35707     35709     35711     35714
     35708     35707     35709     35710     35708     35707     35709     35711
     35709     35711     35714     35715     35709     35711     35714     35716
     35709     35711     35714     35717     35710     35709     35711     35712
     35710     35709     35711     35713     35710     35709     35711     35714
     35711     35714     35717     35718     35711     35714     35717     35719
     35711     35714     35717     35720     35712     35711     35714     35715
     35712     35711     35714     35716     35712     35711     35714     35717
     35713     35711     35714     35715     35713     35711     35714     35716
     35713     35711     35714     35717     35714     35717     35720     35721
     35714     35717     35720     35722     35714     35717     35720     35723
     35715     35714     35717     35718     35715     35714     35717     35719
     35715     35714     35717     35720     35716     35714     35717     35718
     35716     35714     35717     35719     35716     35714     35717     35720
     35717     35720     35723     35724     35717     35720     35723     35725
     35717     35720     35723     35726     35718     35717     35720     35721
     35718     35717     35720     35722     35718     35717     35720     35723
     35719     35717     35720     35721     35719     35717     35720     35722
     35719     35717     35720     35723     35720     35723     35726     35727
     35720     35723     35726     35728     35720     35723     35726     35729
     35721     35720     35723     35724     35721     35720     35723     35725
     35721     35720     35723     35726     35722     35720     35723     35724
     35722     35720     35723     35725     35722     35720     35723     35726
     35723     35726     35729     35730     35723     35726     35729     35731
     35723     35726     35729     35732     35724     35723     35726     35727
     35724     35723     35726     35728     35724     35723     35726     35729
     35725     35723     35726     35727     35725     35723     35726     35728
     35725     35723     35726     35729     35726     35729     35732     35733
     35726     35729     35732     35734     35726     35729     35732     35735
     35727     35726     35729     35730     35727     35726     35729     35731
     35727     35726     35729     35732     35728     35726     35729     35730
     35728     35726     35729     35731     35728     35726     35729     35732
     35730     35729     35732     35733     35730     35729     35732     35734
     35730     35729     35732     35735     35731     35729     35732     35733
     35731     35729     35732     35734     35731     35729     35732     35735
     35736     35739     35742     35743     35736     35739     35742     35744
     35736     35739     35742     35745     35737     35736     35739     35740
     35737     35736     35739     35741     35737     35736     35739     35742
     35738     35736     35739     35740     35738     35736     35739     35741
     35738     35736     35739     35742     35739     35742     35745     35746
     35739     35742     35745     35747     35739     35742     35745     35748
     35740     35739     35742     35743     35740     35739     35742     35744
     35740     35739     35742     35745     35741     35739     35742     35743
     35741     35739     35742     35744     35741     35739     35742     35745
     35742     35745     35748     35749     35742     35745     35748     35750
     35742     35745     35748     35751     35743     35742     35745     35746
     35743     35742     35745     35747     35743     35742     35745     35748
     35744     35742     35745     35746     35744     35742     35745     35747
     35744     35742     35745     35748     35745     35748     35751     35752
     35745     35748     35751     35753     35745     35748     35751     35754
     35746     35745     35748     35749     35746     35745     35748     35750
     35746     35745     35748     35751     35747     35745     35748     35749
     35747     35745     35748     35750     35747     35745     35748     35751
     35748     35751     35754     35755     35748     35751     35754     35756
     35748     35751     35754     35757     35749     35748     35751     35752
     35749     35748     35751     35753     35749     35748     35751     35754
     35750     35748     35751     35752     35750     35748     35751     35753
     35750     35748     35751     35754     35751     35754     35757     35758
     35751     35754     35757     35759     35751     35754     35757     35760
     35752     35751     35754     35755     35752     35751     35754     35756
     35752     35751     35754     35757     35753     35751     35754     35755
     35753     35751     35754     35756     35753     35751     35754     35757
     35754     35757     35760     35761     35754     35757     35760     35762
     35754     35757     35760     35763     35755     35754     35757     35758
     35755     35754     35757     35759     35755     35754     35757     35760
     35756     35754     35757     35758     35756     35754     35757     35759
     35756     35754     35757     35760     35757     35760     35763     35764
     35757     35760     35763     35765     35757     35760     35763     35766
     35758     35757     35760     35761     35758     35757     35760     35762
     35758     35757     35760     35763     35759     35757     35760     35761
     35759     35757     35760     35762     35759     35757     35760     35763
     35760     35763     35766     35767     35760     35763     35766     35768
     35760     35763     35766     35769     35761     35760     35763     35764
     35761     35760     35763     35765     35761     35760     35763     35766
     35762     35760     35763     35764     35762     35760     35763     35765
     35762     35760     35763     35766     35763     35766     35769     35770
     35763     35766     35769     35771     35763     35766     35769     35772
     35764     35763     35766     35767     35764     35763     35766     35768
     35764     35763     35766     35769     35765     35763     35766     35767
     35765     35763     35766     35768     35765     35763     35766     35769
     35766     35769     35772     35773     35766     35769     35772     35774
     35766     35769     35772     35775     35767     35766     35769     35770
     35767     35766     35769     35771     35767     35766     35769     35772
     35768     35766     35769     35770     35768     35766     35769     35771
     35768     35766     35769     35772     35769     35772     35775     35776
     35769     35772     35775     35777     35769     35772     35775     35778
     35770     35769     35772     35773     35770     35769     35772     35774
     35770     35769     35772     35775     35771     35769     35772     35773
     35771     35769     35772     35774     35771     35769     35772     35775
     35773     35772     35775     35776     35773     35772     35775     35777
     35773     35772     35775     35778     35774     35772     35775     35776
     35774     35772     35775     35777     35774     35772     35775     35778
     35779     35780     35795     35796     35779     35780     35795     35797
     35779     35780     35795     35801     35780     35779     35783     35784
     35780     35779     35783     35785     35780     35779     35783     35786
     35780     35779     35787     35788     35780     35779     35787     35789
     35780     35779     35787     35790     35780     35779     35791     35792
     35780     35779     35791     35793     35780     35779     35791     35794
     35780     35795     35801     35798     35781     35780     35779     35783
     35781     35780     35779     35787     35781     35780     35779     35791
     35781     35780     35795     35796     35781     35780     35795     35797
     35781     35780     35795     35801     35782     35780     35779     35783
     35782     35780     35779     35787     35782     35780     35779     35791
     35782     35780     35795     35796     35782     35780     35795     35797
     35782     35780     35795     35801     35783     35779     35780     35795
     35783     35779     35787     35788     35783     35779     35787     35789
     35783     35779     35787     35790     35783     35779     35791     35792
     35783     35779     35791     35793     35783     35779     35791     35794
     35784     35783     35779     35787     35784     35783     35779     35791
     35785     35783     35779     35787     35785     35783     35779     35791
     35786     35783     35779     35787     35786     35783     35779     35791
     35787     35779     35780     35795     35787     35779     35791     35792
     35787     35779     35791     35793     35787     35779     35791     35794
     35788     35787     35779     35791     35789     35787     35779     35791
     35790     35787     35779     35791     35791     35779     35780     35795
     35795     35801     35798     35799     35795     35801     35798     35800
     35795     35801     35798     35802     35796     35795     35801     35798
     35797     35795     35801     35798     35798     35802     35803     35804
     35798     35802     35803     35805     35798     35802     35803     35806
     35799     35798     35802     35803     35800     35798     35802     35803
     35801     35798     35802     35803     35802     35803     35806     35807
     35802     35803     35806     35808     35802     35803     35806     35814
     35803     35806     35808     35809     35803     35806     35814     35815
     35803     35806     35814     35816     35803     35806     35814     35817
     35804     35803     35806     35807     35804     35803     35806     35808
     35804     35803     35806     35814     35805     35803     35806     35807
     35805     35803     35806     35808     35805     35803     35806     35814
     35806     35808     35809     35810     35806     35808     35809     35811
     35806     35814     35817     35818     35807     35806     35808     35809
     35807     35806     35814     35815     35807     35806     35814     35816
     35807     35806     35814     35817     35808     35806     35814     35815
     35808     35806     35814     35816     35808     35806     35814     35817
     35808     35809     35811     35812     35808     35809     35811     35813
     35808     35809     35811     35823     35809     35808     35806     35814
     35809     35811     35823     35824     35809     35811     35823     35825
     35809     35811     35823     35826     35810     35809     35811     35812
     35810     35809     35811     35813     35810     35809     35811     35823
     35811     35823     35826     35827     35811     35823     35826     35828
     35811     35823     35826     35829     35812     35811     35823     35824
     35812     35811     35823     35825     35812     35811     35823     35826
     35813     35811     35823     35824     35813     35811     35823     35825
     35813     35811     35823     35826     35814     35817     35818     35819
     35814     35817     35818     35820     35815     35814     35817     35818
     35816     35814     35817     35818     35817     35818     35820     35821
     35817     35818     35820     35822     35817     35818     35820     35870
     35818     35820     35870     35871     35818     35820     35870     35872
     35818     35820     35870     35873     35819     35818     35820     35821
     35819     35818     35820     35822     35819     35818     35820     35870
     35820     35870     35873     35874     35820     35870     35873     35875
     35820     35870     35873     35876     35821     35820     35870     35871
     35821     35820     35870     35872     35821     35820     35870     35873
     35822     35820     35870     35871     35822     35820     35870     35872
     35822     35820     35870     35873     35823     35826     35829     35830
     35823     35826     35829     35831     35823     35826     35829     35832
     35824     35823     35826     35827     35824     35823     35826     35828
     35824     35823     35826     35829     35825     35823     35826     35827
     35825     35823     35826     35828     35825     35823     35826     35829
     35826     35829     35832     35833     35826     35829     35832     35834
     35826     35829     35832     35835     35827     35826     35829     35830
     35827     35826     35829     35831     35827     35826     35829     35832
     35828     35826     35829     35830     35828     35826     35829     35831
     35828     35826     35829     35832     35829     35832     35835     35836
     35829     35832     35835     35837     35829     35832     35835     35838
     35830     35829     35832     35833     35830     35829     35832     35834
     35830     35829     35832     35835     35831     35829     35832     35833
     35831     35829     35832     35834     35831     35829     35832     35835
     35832     35835     35838     35839     35832     35835     35838     35840
     35832     35835     35838     35841     35833     35832     35835     35836
     35833     35832     35835     35837     35833     35832     35835     35838
     35834     35832     35835     35836     35834     35832     35835     35837
     35834     35832     35835     35838     35835     35838     35841     35842
     35835     35838     35841     35843     35836     35835     35838     35839
     35836     35835     35838     35840     35836     35835     35838     35841
     35837     35835     35838     35839     35837     35835     35838     35840
     35837     35835     35838     35841     35838     35841     35843     35844
     35838     35841     35843     35845     35839     35838     35841     35842
     35839     35838     35841     35843     35840     35838     35841     35842
     35840     35838     35841     35843     35841     35843     35845     35846
     35841     35843     35845     35847     35841     35843     35845     35848
     35842     35841     35843     35844     35842     35841     35843     35845
     35843     35845     35848     35849     35843     35845     35848     35850
     35843     35845     35848     35851     35844     35843     35845     35846
     35844     35843     35845     35847     35844     35843     35845     35848
     35845     35848     35851     35852     35845     35848     35851     35853
     35845     35848     35851     35854     35846     35845     35848     35849
     35846     35845     35848     35850     35846     35845     35848     35851
     35847     35845     35848     35849     35847     35845     35848     35850
     35847     35845     35848     35851     35848     35851     35854     35855
     35848     35851     35854     35856     35848     35851     35854     35857
     35849     35848     35851     35852     35849     35848     35851     35853
     35849     35848     35851     35854     35850     35848     35851     35852
     35850     35848     35851     35853     35850     35848     35851     35854
     35851     35854     35857     35858     35851     35854     35857     35859
     35851     35854     35857     35860     35852     35851     35854     35855
     35852     35851     35854     35856     35852     35851     35854     35857
     35853     35851     35854     35855     35853     35851     35854     35856
     35853     35851     35854     35857     35854     35857     35860     35861
     35854     35857     35860     35862     35854     35857     35860     35863
     35855     35854     35857     35858     35855     35854     35857     35859
     35855     35854     35857     35860     35856     35854     35857     35858
     35856     35854     35857     35859     35856     35854     35857     35860
     35857     35860     35863     35864     35857     35860     35863     35865
     35857     35860     35863     35866     35858     35857     35860     35861
     35858     35857     35860     35862     35858     35857     35860     35863
     35859     35857     35860     35861     35859     35857     35860     35862
     35859     35857     35860     35863     35860     35863     35866     35867
     35860     35863     35866     35868     35860     35863     35866     35869
     35861     35860     35863     35864     35861     35860     35863     35865
     35861     35860     35863     35866     35862     35860     35863     35864
     35862     35860     35863     35865     35862     35860     35863     35866
     35864     35863     35866     35867     35864     35863     35866     35868
     35864     35863     35866     35869     35865     35863     35866     35867
     35865     35863     35866     35868     35865     35863     35866     35869
     35870     35873     35876     35877     35870     35873     35876     35878
     35870     35873     35876     35879     35871     35870     35873     35874
     35871     35870     35873     35875     35871     35870     35873     35876
     35872     35870     35873     35874     35872     35870     35873     35875
     35872     35870     35873     35876     35873     35876     35879     35880
     35873     35876     35879     35881     35873     35876     35879     35882
     35874     35873     35876     35877     35874     35873     35876     35878
     35874     35873     35876     35879     35875     35873     35876     35877
     35875     35873     35876     35878     35875     35873     35876     35879
     35876     35879     35882     35883     35876     35879     35882     35884
     35876     35879     35882     35885     35877     35876     35879     35880
     35877     35876     35879     35881     35877     35876     35879     35882
     35878     35876     35879     35880     35878     35876     35879     35881
     35878     35876     35879     35882     35879     35882     35885     35886
     35879     35882     35885     35887     35879     35882     35885     35888
     35880     35879     35882     35883     35880     35879     35882     35884
     35880     35879     35882     35885     35881     35879     35882     35883
     35881     35879     35882     35884     35881     35879     35882     35885
     35882     35885     35888     35889     35882     35885     35888     35890
     35882     35885     35888     35891     35883     35882     35885     35886
     35883     35882     35885     35887     35883     35882     35885     35888
     35884     35882     35885     35886     35884     35882     35885     35887
     35884     35882     35885     35888     35885     35888     35891     35892
     35885     35888     35891     35893     35885     35888     35891     35894
     35886     35885     35888     35889     35886     35885     35888     35890
     35886     35885     35888     35891     35887     35885     35888     35889
     35887     35885     35888     35890     35887     35885     35888     35891
     35888     35891     35894     35895     35888     35891     35894     35896
     35888     35891     35894     35897     35889     35888     35891     35892
     35889     35888     35891     35893     35889     35888     35891     35894
     35890     35888     35891     35892     35890     35888     35891     35893
     35890     35888     35891     35894     35891     35894     35897     35898
     35891     35894     35897     35899     35891     35894     35897     35900
     35892     35891     35894     35895     35892     35891     35894     35896
     35892     35891     35894     35897     35893     35891     35894     35895
     35893     35891     35894     35896     35893     35891     35894     35897
     35894     35897     35900     35901     35894     35897     35900     35902
     35894     35897     35900     35903     35895     35894     35897     35898
     35895     35894     35897     35899     35895     35894     35897     35900
     35896     35894     35897     35898     35896     35894     35897     35899
     35896     35894     35897     35900     35897     35900     35903     35904
     35897     35900     35903     35905     35897     35900     35903     35906
     35898     35897     35900     35901     35898     35897     35900     35902
     35898     35897     35900     35903     35899     35897     35900     35901
     35899     35897     35900     35902     35899     35897     35900     35903
     35900     35903     35906     35907     35900     35903     35906     35908
     35900     35903     35906     35909     35901     35900     35903     35904
     35901     35900     35903     35905     35901     35900     35903     35906
     35902     35900     35903     35904     35902     35900     35903     35905
     35902     35900     35903     35906     35903     35906     35909     35910
     35903     35906     35909     35911     35903     35906     35909     35912
     35904     35903     35906     35907     35904     35903     35906     35908
     35904     35903     35906     35909     35905     35903     35906     35907
     35905     35903     35906     35908     35905     35903     35906     35909
     35907     35906     35909     35910     35907     35906     35909     35911
     35907     35906     35909     35912     35908     35906     35909     35910
     35908     35906     35909     35911     35908     35906     35909     35912
     35913     35914     35929     35930     35913     35914     35929     35931
     35913     35914     35929     35935     35914     35913     35917     35918
     35914     35913     35917     35919     35914     35913     35917     35920
     35914     35913     35921     35922     35914     35913     35921     35923
     35914     35913     35921     35924     35914     35913     35925     35926
     35914     35913     35925     35927     35914     35913     35925     35928
     35914     35929     35935     35932     35915     35914     35913     35917
     35915     35914     35913     35921     35915     35914     35913     35925
     35915     35914     35929     35930     35915     35914     35929     35931
     35915     35914     35929     35935     35916     35914     35913     35917
     35916     35914     35913     35921     35916     35914     35913     35925
     35916     35914     35929     35930     35916     35914     35929     35931
     35916     35914     35929     35935     35917     35913     35914     35929
     35917     35913     35921     35922     35917     35913     35921     35923
     35917     35913     35921     35924     35917     35913     35925     35926
     35917     35913     35925     35927     35917     35913     35925     35928
     35918     35917     35913     35921     35918     35917     35913     35925
     35919     35917     35913     35921     35919     35917     35913     35925
     35920     35917     35913     35921     35920     35917     35913     35925
     35921     35913     35914     35929     35921     35913     35925     35926
     35921     35913     35925     35927     35921     35913     35925     35928
     35922     35921     35913     35925     35923     35921     35913     35925
     35924     35921     35913     35925     35925     35913     35914     35929
     35929     35935     35932     35933     35929     35935     35932     35934
     35929     35935     35932     35936     35930     35929     35935     35932
     35931     35929     35935     35932     35932     35936     35937     35938
     35932     35936     35937     35939     35932     35936     35937     35940
     35933     35932     35936     35937     35934     35932     35936     35937
     35935     35932     35936     35937     35936     35937     35940     35941
     35936     35937     35940     35942     35936     35937     35940     35948
     35937     35940     35942     35943     35937     35940     35948     35949
     35937     35940     35948     35950     35937     35940     35948     35951
     35938     35937     35940     35941     35938     35937     35940     35942
     35938     35937     35940     35948     35939     35937     35940     35941
     35939     35937     35940     35942     35939     35937     35940     35948
     35940     35942     35943     35944     35940     35942     35943     35945
     35940     35948     35951     35952     35941     35940     35942     35943
     35941     35940     35948     35949     35941     35940     35948     35950
     35941     35940     35948     35951     35942     35940     35948     35949
     35942     35940     35948     35950     35942     35940     35948     35951
     35942     35943     35945     35946     35942     35943     35945     35947
     35942     35943     35945     35957     35943     35942     35940     35948
     35943     35945     35957     35958     35943     35945     35957     35959
     35943     35945     35957     35960     35944     35943     35945     35946
     35944     35943     35945     35947     35944     35943     35945     35957
     35945     35957     35960     35961     35945     35957     35960     35962
     35945     35957     35960     35963     35946     35945     35957     35958
     35946     35945     35957     35959     35946     35945     35957     35960
     35947     35945     35957     35958     35947     35945     35957     35959
     35947     35945     35957     35960     35948     35951     35952     35953
     35948     35951     35952     35954     35949     35948     35951     35952
     35950     35948     35951     35952     35951     35952     35954     35955
     35951     35952     35954     35956     35951     35952     35954     36004
     35952     35954     36004     36005     35952     35954     36004     36006
     35952     35954     36004     36007     35953     35952     35954     35955
     35953     35952     35954     35956     35953     35952     35954     36004
     35954     36004     36007     36008     35954     36004     36007     36009
     35954     36004     36007     36010     35955     35954     36004     36005
     35955     35954     36004     36006     35955     35954     36004     36007
     35956     35954     36004     36005     35956     35954     36004     36006
     35956     35954     36004     36007     35957     35960     35963     35964
     35957     35960     35963     35965     35957     35960     35963     35966
     35958     35957     35960     35961     35958     35957     35960     35962
     35958     35957     35960     35963     35959     35957     35960     35961
     35959     35957     35960     35962     35959     35957     35960     35963
     35960     35963     35966     35967     35960     35963     35966     35968
     35960     35963     35966     35969     35961     35960     35963     35964
     35961     35960     35963     35965     35961     35960     35963     35966
     35962     35960     35963     35964     35962     35960     35963     35965
     35962     35960     35963     35966     35963     35966     35969     35970
     35963     35966     35969     35971     35963     35966     35969     35972
     35964     35963     35966     35967     35964     35963     35966     35968
     35964     35963     35966     35969     35965     35963     35966     35967
     35965     35963     35966     35968     35965     35963     35966     35969
     35966     35969     35972     35973     35966     35969     35972     35974
     35966     35969     35972     35975     35967     35966     35969     35970
     35967     35966     35969     35971     35967     35966     35969     35972
     35968     35966     35969     35970     35968     35966     35969     35971
     35968     35966     35969     35972     35969     35972     35975     35976
     35969     35972     35975     35977     35970     35969     35972     35973
     35970     35969     35972     35974     35970     35969     35972     35975
     35971     35969     35972     35973     35971     35969     35972     35974
     35971     35969     35972     35975     35972     35975     35977     35978
     35972     35975     35977     35979     35973     35972     35975     35976
     35973     35972     35975     35977     35974     35972     35975     35976
     35974     35972     35975     35977     35975     35977     35979     35980
     35975     35977     35979     35981     35975     35977     35979     35982
     35976     35975     35977     35978     35976     35975     35977     35979
     35977     35979     35982     35983     35977     35979     35982     35984
     35977     35979     35982     35985     35978     35977     35979     35980
     35978     35977     35979     35981     35978     35977     35979     35982
     35979     35982     35985     35986     35979     35982     35985     35987
     35979     35982     35985     35988     35980     35979     35982     35983
     35980     35979     35982     35984     35980     35979     35982     35985
     35981     35979     35982     35983     35981     35979     35982     35984
     35981     35979     35982     35985     35982     35985     35988     35989
     35982     35985     35988     35990     35982     35985     35988     35991
     35983     35982     35985     35986     35983     35982     35985     35987
     35983     35982     35985     35988     35984     35982     35985     35986
     35984     35982     35985     35987     35984     35982     35985     35988
     35985     35988     35991     35992     35985     35988     35991     35993
     35985     35988     35991     35994     35986     35985     35988     35989
     35986     35985     35988     35990     35986     35985     35988     35991
     35987     35985     35988     35989     35987     35985     35988     35990
     35987     35985     35988     35991     35988     35991     35994     35995
     35988     35991     35994     35996     35988     35991     35994     35997
     35989     35988     35991     35992     35989     35988     35991     35993
     35989     35988     35991     35994     35990     35988     35991     35992
     35990     35988     35991     35993     35990     35988     35991     35994
     35991     35994     35997     35998     35991     35994     35997     35999
     35991     35994     35997     36000     35992     35991     35994     35995
     35992     35991     35994     35996     35992     35991     35994     35997
     35993     35991     35994     35995     35993     35991     35994     35996
     35993     35991     35994     35997     35994     35997     36000     36001
     35994     35997     36000     36002     35994     35997     36000     36003
     35995     35994     35997     35998     35995     35994     35997     35999
     35995     35994     35997     36000     35996     35994     35997     35998
     35996     35994     35997     35999     35996     35994     35997     36000
     35998     35997     36000     36001     35998     35997     36000     36002
     35998     35997     36000     36003     35999     35997     36000     36001
     35999     35997     36000     36002     35999     35997     36000     36003
     36004     36007     36010     36011     36004     36007     36010     36012
     36004     36007     36010     36013     36005     36004     36007     36008
     36005     36004     36007     36009     36005     36004     36007     36010
     36006     36004     36007     36008     36006     36004     36007     36009
     36006     36004     36007     36010     36007     36010     36013     36014
     36007     36010     36013     36015     36007     36010     36013     36016
     36008     36007     36010     36011     36008     36007     36010     36012
     36008     36007     36010     36013     36009     36007     36010     36011
     36009     36007     36010     36012     36009     36007     36010     36013
     36010     36013     36016     36017     36010     36013     36016     36018
     36010     36013     36016     36019     36011     36010     36013     36014
     36011     36010     36013     36015     36011     36010     36013     36016
     36012     36010     36013     36014     36012     36010     36013     36015
     36012     36010     36013     36016     36013     36016     36019     36020
     36013     36016     36019     36021     36013     36016     36019     36022
     36014     36013     36016     36017     36014     36013     36016     36018
     36014     36013     36016     36019     36015     36013     36016     36017
     36015     36013     36016     36018     36015     36013     36016     36019
     36016     36019     36022     36023     36016     36019     36022     36024
     36016     36019     36022     36025     36017     36016     36019     36020
     36017     36016     36019     36021     36017     36016     36019     36022
     36018     36016     36019     36020     36018     36016     36019     36021
     36018     36016     36019     36022     36019     36022     36025     36026
     36019     36022     36025     36027     36019     36022     36025     36028
     36020     36019     36022     36023     36020     36019     36022     36024
     36020     36019     36022     36025     36021     36019     36022     36023
     36021     36019     36022     36024     36021     36019     36022     36025
     36022     36025     36028     36029     36022     36025     36028     36030
     36022     36025     36028     36031     36023     36022     36025     36026
     36023     36022     36025     36027     36023     36022     36025     36028
     36024     36022     36025     36026     36024     36022     36025     36027
     36024     36022     36025     36028     36025     36028     36031     36032
     36025     36028     36031     36033     36025     36028     36031     36034
     36026     36025     36028     36029     36026     36025     36028     36030
     36026     36025     36028     36031     36027     36025     36028     36029
     36027     36025     36028     36030     36027     36025     36028     36031
     36028     36031     36034     36035     36028     36031     36034     36036
     36028     36031     36034     36037     36029     36028     36031     36032
     36029     36028     36031     36033     36029     36028     36031     36034
     36030     36028     36031     36032     36030     36028     36031     36033
     36030     36028     36031     36034     36031     36034     36037     36038
     36031     36034     36037     36039     36031     36034     36037     36040
     36032     36031     36034     36035     36032     36031     36034     36036
     36032     36031     36034     36037     36033     36031     36034     36035
     36033     36031     36034     36036     36033     36031     36034     36037
     36034     36037     36040     36041     36034     36037     36040     36042
     36034     36037     36040     36043     36035     36034     36037     36038
     36035     36034     36037     36039     36035     36034     36037     36040
     36036     36034     36037     36038     36036     36034     36037     36039
     36036     36034     36037     36040     36037     36040     36043     36044
     36037     36040     36043     36045     36037     36040     36043     36046
     36038     36037     36040     36041     36038     36037     36040     36042
     36038     36037     36040     36043     36039     36037     36040     36041
     36039     36037     36040     36042     36039     36037     36040     36043
     36041     36040     36043     36044     36041     36040     36043     36045
     36041     36040     36043     36046     36042     36040     36043     36044
     36042     36040     36043     36045     36042     36040     36043     36046
     36047     36048     36063     36064     36047     36048     36063     36065
     36047     36048     36063     36069     36048     36047     36051     36052
     36048     36047     36051     36053     36048     36047     36051     36054
     36048     36047     36055     36056     36048     36047     36055     36057
     36048     36047     36055     36058     36048     36047     36059     36060
     36048     36047     36059     36061     36048     36047     36059     36062
     36048     36063     36069     36066     36049     36048     36047     36051
     36049     36048     36047     36055     36049     36048     36047     36059
     36049     36048     36063     36064     36049     36048     36063     36065
     36049     36048     36063     36069     36050     36048     36047     36051
     36050     36048     36047     36055     36050     36048     36047     36059
     36050     36048     36063     36064     36050     36048     36063     36065
     36050     36048     36063     36069     36051     36047     36048     36063
     36051     36047     36055     36056     36051     36047     36055     36057
     36051     36047     36055     36058     36051     36047     36059     36060
     36051     36047     36059     36061     36051     36047     36059     36062
     36052     36051     36047     36055     36052     36051     36047     36059
     36053     36051     36047     36055     36053     36051     36047     36059
     36054     36051     36047     36055     36054     36051     36047     36059
     36055     36047     36048     36063     36055     36047     36059     36060
     36055     36047     36059     36061     36055     36047     36059     36062
     36056     36055     36047     36059     36057     36055     36047     36059
     36058     36055     36047     36059     36059     36047     36048     36063
     36063     36069     36066     36067     36063     36069     36066     36068
     36063     36069     36066     36070     36064     36063     36069     36066
     36065     36063     36069     36066     36066     36070     36071     36072
     36066     36070     36071     36073     36066     36070     36071     36074
     36067     36066     36070     36071     36068     36066     36070     36071
     36069     36066     36070     36071     36070     36071     36074     36075
     36070     36071     36074     36076     36070     36071     36074     36082
     36071     36074     36076     36077     36071     36074     36082     36083
     36071     36074     36082     36084     36071     36074     36082     36085
     36072     36071     36074     36075     36072     36071     36074     36076
     36072     36071     36074     36082     36073     36071     36074     36075
     36073     36071     36074     36076     36073     36071     36074     36082
     36074     36076     36077     36078     36074     36076     36077     36079
     36074     36082     36085     36086     36075     36074     36076     36077
     36075     36074     36082     36083     36075     36074     36082     36084
     36075     36074     36082     36085     36076     36074     36082     36083
     36076     36074     36082     36084     36076     36074     36082     36085
     36076     36077     36079     36080     36076     36077     36079     36081
     36076     36077     36079     36091     36077     36076     36074     36082
     36077     36079     36091     36092     36077     36079     36091     36093
     36077     36079     36091     36094     36078     36077     36079     36080
     36078     36077     36079     36081     36078     36077     36079     36091
     36079     36091     36094     36095     36079     36091     36094     36096
     36079     36091     36094     36097     36080     36079     36091     36092
     36080     36079     36091     36093     36080     36079     36091     36094
     36081     36079     36091     36092     36081     36079     36091     36093
     36081     36079     36091     36094     36082     36085     36086     36087
     36082     36085     36086     36088     36083     36082     36085     36086
     36084     36082     36085     36086     36085     36086     36088     36089
     36085     36086     36088     36090     36085     36086     36088     36138
     36086     36088     36138     36139     36086     36088     36138     36140
     36086     36088     36138     36141     36087     36086     36088     36089
     36087     36086     36088     36090     36087     36086     36088     36138
     36088     36138     36141     36142     36088     36138     36141     36143
     36088     36138     36141     36144     36089     36088     36138     36139
     36089     36088     36138     36140     36089     36088     36138     36141
     36090     36088     36138     36139     36090     36088     36138     36140
     36090     36088     36138     36141     36091     36094     36097     36098
     36091     36094     36097     36099     36091     36094     36097     36100
     36092     36091     36094     36095     36092     36091     36094     36096
     36092     36091     36094     36097     36093     36091     36094     36095
     36093     36091     36094     36096     36093     36091     36094     36097
     36094     36097     36100     36101     36094     36097     36100     36102
     36094     36097     36100     36103     36095     36094     36097     36098
     36095     36094     36097     36099     36095     36094     36097     36100
     36096     36094     36097     36098     36096     36094     36097     36099
     36096     36094     36097     36100     36097     36100     36103     36104
     36097     36100     36103     36105     36097     36100     36103     36106
     36098     36097     36100     36101     36098     36097     36100     36102
     36098     36097     36100     36103     36099     36097     36100     36101
     36099     36097     36100     36102     36099     36097     36100     36103
     36100     36103     36106     36107     36100     36103     36106     36108
     36100     36103     36106     36109     36101     36100     36103     36104
     36101     36100     36103     36105     36101     36100     36103     36106
     36102     36100     36103     36104     36102     36100     36103     36105
     36102     36100     36103     36106     36103     36106     36109     36110
     36103     36106     36109     36111     36104     36103     36106     36107
     36104     36103     36106     36108     36104     36103     36106     36109
     36105     36103     36106     36107     36105     36103     36106     36108
     36105     36103     36106     36109     36106     36109     36111     36112
     36106     36109     36111     36113     36107     36106     36109     36110
     36107     36106     36109     36111     36108     36106     36109     36110
     36108     36106     36109     36111     36109     36111     36113     36114
     36109     36111     36113     36115     36109     36111     36113     36116
     36110     36109     36111     36112     36110     36109     36111     36113
     36111     36113     36116     36117     36111     36113     36116     36118
     36111     36113     36116     36119     36112     36111     36113     36114
     36112     36111     36113     36115     36112     36111     36113     36116
     36113     36116     36119     36120     36113     36116     36119     36121
     36113     36116     36119     36122     36114     36113     36116     36117
     36114     36113     36116     36118     36114     36113     36116     36119
     36115     36113     36116     36117     36115     36113     36116     36118
     36115     36113     36116     36119     36116     36119     36122     36123
     36116     36119     36122     36124     36116     36119     36122     36125
     36117     36116     36119     36120     36117     36116     36119     36121
     36117     36116     36119     36122     36118     36116     36119     36120
     36118     36116     36119     36121     36118     36116     36119     36122
     36119     36122     36125     36126     36119     36122     36125     36127
     36119     36122     36125     36128     36120     36119     36122     36123
     36120     36119     36122     36124     36120     36119     36122     36125
     36121     36119     36122     36123     36121     36119     36122     36124
     36121     36119     36122     36125     36122     36125     36128     36129
     36122     36125     36128     36130     36122     36125     36128     36131
     36123     36122     36125     36126     36123     36122     36125     36127
     36123     36122     36125     36128     36124     36122     36125     36126
     36124     36122     36125     36127     36124     36122     36125     36128
     36125     36128     36131     36132     36125     36128     36131     36133
     36125     36128     36131     36134     36126     36125     36128     36129
     36126     36125     36128     36130     36126     36125     36128     36131
     36127     36125     36128     36129     36127     36125     36128     36130
     36127     36125     36128     36131     36128     36131     36134     36135
     36128     36131     36134     36136     36128     36131     36134     36137
     36129     36128     36131     36132     36129     36128     36131     36133
     36129     36128     36131     36134     36130     36128     36131     36132
     36130     36128     36131     36133     36130     36128     36131     36134
     36132     36131     36134     36135     36132     36131     36134     36136
     36132     36131     36134     36137     36133     36131     36134     36135
     36133     36131     36134     36136     36133     36131     36134     36137
     36138     36141     36144     36145     36138     36141     36144     36146
     36138     36141     36144     36147     36139     36138     36141     36142
     36139     36138     36141     36143     36139     36138     36141     36144
     36140     36138     36141     36142     36140     36138     36141     36143
     36140     36138     36141     36144     36141     36144     36147     36148
     36141     36144     36147     36149     36141     36144     36147     36150
     36142     36141     36144     36145     36142     36141     36144     36146
     36142     36141     36144     36147     36143     36141     36144     36145
     36143     36141     36144     36146     36143     36141     36144     36147
     36144     36147     36150     36151     36144     36147     36150     36152
     36144     36147     36150     36153     36145     36144     36147     36148
     36145     36144     36147     36149     36145     36144     36147     36150
     36146     36144     36147     36148     36146     36144     36147     36149
     36146     36144     36147     36150     36147     36150     36153     36154
     36147     36150     36153     36155     36147     36150     36153     36156
     36148     36147     36150     36151     36148     36147     36150     36152
     36148     36147     36150     36153     36149     36147     36150     36151
     36149     36147     36150     36152     36149     36147     36150     36153
     36150     36153     36156     36157     36150     36153     36156     36158
     36150     36153     36156     36159     36151     36150     36153     36154
     36151     36150     36153     36155     36151     36150     36153     36156
     36152     36150     36153     36154     36152     36150     36153     36155
     36152     36150     36153     36156     36153     36156     36159     36160
     36153     36156     36159     36161     36153     36156     36159     36162
     36154     36153     36156     36157     36154     36153     36156     36158
     36154     36153     36156     36159     36155     36153     36156     36157
     36155     36153     36156     36158     36155     36153     36156     36159
     36156     36159     36162     36163     36156     36159     36162     36164
     36156     36159     36162     36165     36157     36156     36159     36160
     36157     36156     36159     36161     36157     36156     36159     36162
     36158     36156     36159     36160     36158     36156     36159     36161
     36158     36156     36159     36162     36159     36162     36165     36166
     36159     36162     36165     36167     36159     36162     36165     36168
     36160     36159     36162     36163     36160     36159     36162     36164
     36160     36159     36162     36165     36161     36159     36162     36163
     36161     36159     36162     36164     36161     36159     36162     36165
     36162     36165     36168     36169     36162     36165     36168     36170
     36162     36165     36168     36171     36163     36162     36165     36166
     36163     36162     36165     36167     36163     36162     36165     36168
     36164     36162     36165     36166     36164     36162     36165     36167
     36164     36162     36165     36168     36165     36168     36171     36172
     36165     36168     36171     36173     36165     36168     36171     36174
     36166     36165     36168     36169     36166     36165     36168     36170
     36166     36165     36168     36171     36167     36165     36168     36169
     36167     36165     36168     36170     36167     36165     36168     36171
     36168     36171     36174     36175     36168     36171     36174     36176
     36168     36171     36174     36177     36169     36168     36171     36172
     36169     36168     36171     36173     36169     36168     36171     36174
     36170     36168     36171     36172     36170     36168     36171     36173
     36170     36168     36171     36174     36171     36174     36177     36178
     36171     36174     36177     36179     36171     36174     36177     36180
     36172     36171     36174     36175     36172     36171     36174     36176
     36172     36171     36174     36177     36173     36171     36174     36175
     36173     36171     36174     36176     36173     36171     36174     36177
     36175     36174     36177     36178     36175     36174     36177     36179
     36175     36174     36177     36180     36176     36174     36177     36178
     36176     36174     36177     36179     36176     36174     36177     36180
     36181     36182     36197     36198     36181     36182     36197     36199
     36181     36182     36197     36203     36182     36181     36185     36186
     36182     36181     36185     36187     36182     36181     36185     36188
     36182     36181     36189     36190     36182     36181     36189     36191
     36182     36181     36189     36192     36182     36181     36193     36194
     36182     36181     36193     36195     36182     36181     36193     36196
     36182     36197     36203     36200     36183     36182     36181     36185
     36183     36182     36181     36189     36183     36182     36181     36193
     36183     36182     36197     36198     36183     36182     36197     36199
     36183     36182     36197     36203     36184     36182     36181     36185
     36184     36182     36181     36189     36184     36182     36181     36193
     36184     36182     36197     36198     36184     36182     36197     36199
     36184     36182     36197     36203     36185     36181     36182     36197
     36185     36181     36189     36190     36185     36181     36189     36191
     36185     36181     36189     36192     36185     36181     36193     36194
     36185     36181     36193     36195     36185     36181     36193     36196
     36186     36185     36181     36189     36186     36185     36181     36193
     36187     36185     36181     36189     36187     36185     36181     36193
     36188     36185     36181     36189     36188     36185     36181     36193
     36189     36181     36182     36197     36189     36181     36193     36194
     36189     36181     36193     36195     36189     36181     36193     36196
     36190     36189     36181     36193     36191     36189     36181     36193
     36192     36189     36181     36193     36193     36181     36182     36197
     36197     36203     36200     36201     36197     36203     36200     36202
     36197     36203     36200     36204     36198     36197     36203     36200
     36199     36197     36203     36200     36200     36204     36205     36206
     36200     36204     36205     36207     36200     36204     36205     36208
     36201     36200     36204     36205     36202     36200     36204     36205
     36203     36200     36204     36205     36204     36205     36208     36209
     36204     36205     36208     36210     36204     36205     36208     36216
     36205     36208     36210     36211     36205     36208     36216     36217
     36205     36208     36216     36218     36205     36208     36216     36219
     36206     36205     36208     36209     36206     36205     36208     36210
     36206     36205     36208     36216     36207     36205     36208     36209
     36207     36205     36208     36210     36207     36205     36208     36216
     36208     36210     36211     36212     36208     36210     36211     36213
     36208     36216     36219     36220     36209     36208     36210     36211
     36209     36208     36216     36217     36209     36208     36216     36218
     36209     36208     36216     36219     36210     36208     36216     36217
     36210     36208     36216     36218     36210     36208     36216     36219
     36210     36211     36213     36214     36210     36211     36213     36215
     36210     36211     36213     36225     36211     36210     36208     36216
     36211     36213     36225     36226     36211     36213     36225     36227
     36211     36213     36225     36228     36212     36211     36213     36214
     36212     36211     36213     36215     36212     36211     36213     36225
     36213     36225     36228     36229     36213     36225     36228     36230
     36213     36225     36228     36231     36214     36213     36225     36226
     36214     36213     36225     36227     36214     36213     36225     36228
     36215     36213     36225     36226     36215     36213     36225     36227
     36215     36213     36225     36228     36216     36219     36220     36221
     36216     36219     36220     36222     36217     36216     36219     36220
     36218     36216     36219     36220     36219     36220     36222     36223
     36219     36220     36222     36224     36219     36220     36222     36272
     36220     36222     36272     36273     36220     36222     36272     36274
     36220     36222     36272     36275     36221     36220     36222     36223
     36221     36220     36222     36224     36221     36220     36222     36272
     36222     36272     36275     36276     36222     36272     36275     36277
     36222     36272     36275     36278     36223     36222     36272     36273
     36223     36222     36272     36274     36223     36222     36272     36275
     36224     36222     36272     36273     36224     36222     36272     36274
     36224     36222     36272     36275     36225     36228     36231     36232
     36225     36228     36231     36233     36225     36228     36231     36234
     36226     36225     36228     36229     36226     36225     36228     36230
     36226     36225     36228     36231     36227     36225     36228     36229
     36227     36225     36228     36230     36227     36225     36228     36231
     36228     36231     36234     36235     36228     36231     36234     36236
     36228     36231     36234     36237     36229     36228     36231     36232
     36229     36228     36231     36233     36229     36228     36231     36234
     36230     36228     36231     36232     36230     36228     36231     36233
     36230     36228     36231     36234     36231     36234     36237     36238
     36231     36234     36237     36239     36231     36234     36237     36240
     36232     36231     36234     36235     36232     36231     36234     36236
     36232     36231     36234     36237     36233     36231     36234     36235
     36233     36231     36234     36236     36233     36231     36234     36237
     36234     36237     36240     36241     36234     36237     36240     36242
     36234     36237     36240     36243     36235     36234     36237     36238
     36235     36234     36237     36239     36235     36234     36237     36240
     36236     36234     36237     36238     36236     36234     36237     36239
     36236     36234     36237     36240     36237     36240     36243     36244
     36237     36240     36243     36245     36238     36237     36240     36241
     36238     36237     36240     36242     36238     36237     36240     36243
     36239     36237     36240     36241     36239     36237     36240     36242
     36239     36237     36240     36243     36240     36243     36245     36246
     36240     36243     36245     36247     36241     36240     36243     36244
     36241     36240     36243     36245     36242     36240     36243     36244
     36242     36240     36243     36245     36243     36245     36247     36248
     36243     36245     36247     36249     36243     36245     36247     36250
     36244     36243     36245     36246     36244     36243     36245     36247
     36245     36247     36250     36251     36245     36247     36250     36252
     36245     36247     36250     36253     36246     36245     36247     36248
     36246     36245     36247     36249     36246     36245     36247     36250
     36247     36250     36253     36254     36247     36250     36253     36255
     36247     36250     36253     36256     36248     36247     36250     36251
     36248     36247     36250     36252     36248     36247     36250     36253
     36249     36247     36250     36251     36249     36247     36250     36252
     36249     36247     36250     36253     36250     36253     36256     36257
     36250     36253     36256     36258     36250     36253     36256     36259
     36251     36250     36253     36254     36251     36250     36253     36255
     36251     36250     36253     36256     36252     36250     36253     36254
     36252     36250     36253     36255     36252     36250     36253     36256
     36253     36256     36259     36260     36253     36256     36259     36261
     36253     36256     36259     36262     36254     36253     36256     36257
     36254     36253     36256     36258     36254     36253     36256     36259
     36255     36253     36256     36257     36255     36253     36256     36258
     36255     36253     36256     36259     36256     36259     36262     36263
     36256     36259     36262     36264     36256     36259     36262     36265
     36257     36256     36259     36260     36257     36256     36259     36261
     36257     36256     36259     36262     36258     36256     36259     36260
     36258     36256     36259     36261     36258     36256     36259     36262
     36259     36262     36265     36266     36259     36262     36265     36267
     36259     36262     36265     36268     36260     36259     36262     36263
     36260     36259     36262     36264     36260     36259     36262     36265
     36261     36259     36262     36263     36261     36259     36262     36264
     36261     36259     36262     36265     36262     36265     36268     36269
     36262     36265     36268     36270     36262     36265     36268     36271
     36263     36262     36265     36266     36263     36262     36265     36267
     36263     36262     36265     36268     36264     36262     36265     36266
     36264     36262     36265     36267     36264     36262     36265     36268
     36266     36265     36268     36269     36266     36265     36268     36270
     36266     36265     36268     36271     36267     36265     36268     36269
     36267     36265     36268     36270     36267     36265     36268     36271
     36272     36275     36278     36279     36272     36275     36278     36280
     36272     36275     36278     36281     36273     36272     36275     36276
     36273     36272     36275     36277     36273     36272     36275     36278
     36274     36272     36275     36276     36274     36272     36275     36277
     36274     36272     36275     36278     36275     36278     36281     36282
     36275     36278     36281     36283     36275     36278     36281     36284
     36276     36275     36278     36279     36276     36275     36278     36280
     36276     36275     36278     36281     36277     36275     36278     36279
     36277     36275     36278     36280     36277     36275     36278     36281
     36278     36281     36284     36285     36278     36281     36284     36286
     36278     36281     36284     36287     36279     36278     36281     36282
     36279     36278     36281     36283     36279     36278     36281     36284
     36280     36278     36281     36282     36280     36278     36281     36283
     36280     36278     36281     36284     36281     36284     36287     36288
     36281     36284     36287     36289     36281     36284     36287     36290
     36282     36281     36284     36285     36282     36281     36284     36286
     36282     36281     36284     36287     36283     36281     36284     36285
     36283     36281     36284     36286     36283     36281     36284     36287
     36284     36287     36290     36291     36284     36287     36290     36292
     36284     36287     36290     36293     36285     36284     36287     36288
     36285     36284     36287     36289     36285     36284     36287     36290
     36286     36284     36287     36288     36286     36284     36287     36289
     36286     36284     36287     36290     36287     36290     36293     36294
     36287     36290     36293     36295     36287     36290     36293     36296
     36288     36287     36290     36291     36288     36287     36290     36292
     36288     36287     36290     36293     36289     36287     36290     36291
     36289     36287     36290     36292     36289     36287     36290     36293
     36290     36293     36296     36297     36290     36293     36296     36298
     36290     36293     36296     36299     36291     36290     36293     36294
     36291     36290     36293     36295     36291     36290     36293     36296
     36292     36290     36293     36294     36292     36290     36293     36295
     36292     36290     36293     36296     36293     36296     36299     36300
     36293     36296     36299     36301     36293     36296     36299     36302
     36294     36293     36296     36297     36294     36293     36296     36298
     36294     36293     36296     36299     36295     36293     36296     36297
     36295     36293     36296     36298     36295     36293     36296     36299
     36296     36299     36302     36303     36296     36299     36302     36304
     36296     36299     36302     36305     36297     36296     36299     36300
     36297     36296     36299     36301     36297     36296     36299     36302
     36298     36296     36299     36300     36298     36296     36299     36301
     36298     36296     36299     36302     36299     36302     36305     36306
     36299     36302     36305     36307     36299     36302     36305     36308
     36300     36299     36302     36303     36300     36299     36302     36304
     36300     36299     36302     36305     36301     36299     36302     36303
     36301     36299     36302     36304     36301     36299     36302     36305
     36302     36305     36308     36309     36302     36305     36308     36310
     36302     36305     36308     36311     36303     36302     36305     36306
     36303     36302     36305     36307     36303     36302     36305     36308
     36304     36302     36305     36306     36304     36302     36305     36307
     36304     36302     36305     36308     36305     36308     36311     36312
     36305     36308     36311     36313     36305     36308     36311     36314
     36306     36305     36308     36309     36306     36305     36308     36310
     36306     36305     36308     36311     36307     36305     36308     36309
     36307     36305     36308     36310     36307     36305     36308     36311
     36309     36308     36311     36312     36309     36308     36311     36313
     36309     36308     36311     36314     36310     36308     36311     36312
     36310     36308     36311     36313     36310     36308     36311     36314
     36315     36316     36331     36332     36315     36316     36331     36333
     36315     36316     36331     36337     36316     36315     36319     36320
     36316     36315     36319     36321     36316     36315     36319     36322
     36316     36315     36323     36324     36316     36315     36323     36325
     36316     36315     36323     36326     36316     36315     36327     36328
     36316     36315     36327     36329     36316     36315     36327     36330
     36316     36331     36337     36334     36317     36316     36315     36319
     36317     36316     36315     36323     36317     36316     36315     36327
     36317     36316     36331     36332     36317     36316     36331     36333
     36317     36316     36331     36337     36318     36316     36315     36319
     36318     36316     36315     36323     36318     36316     36315     36327
     36318     36316     36331     36332     36318     36316     36331     36333
     36318     36316     36331     36337     36319     36315     36316     36331
     36319     36315     36323     36324     36319     36315     36323     36325
     36319     36315     36323     36326     36319     36315     36327     36328
     36319     36315     36327     36329     36319     36315     36327     36330
     36320     36319     36315     36323     36320     36319     36315     36327
     36321     36319     36315     36323     36321     36319     36315     36327
     36322     36319     36315     36323     36322     36319     36315     36327
     36323     36315     36316     36331     36323     36315     36327     36328
     36323     36315     36327     36329     36323     36315     36327     36330
     36324     36323     36315     36327     36325     36323     36315     36327
     36326     36323     36315     36327     36327     36315     36316     36331
     36331     36337     36334     36335     36331     36337     36334     36336
     36331     36337     36334     36338     36332     36331     36337     36334
     36333     36331     36337     36334     36334     36338     36339     36340
     36334     36338     36339     36341     36334     36338     36339     36342
     36335     36334     36338     36339     36336     36334     36338     36339
     36337     36334     36338     36339     36338     36339     36342     36343
     36338     36339     36342     36344     36338     36339     36342     36350
     36339     36342     36344     36345     36339     36342     36350     36351
     36339     36342     36350     36352     36339     36342     36350     36353
     36340     36339     36342     36343     36340     36339     36342     36344
     36340     36339     36342     36350     36341     36339     36342     36343
     36341     36339     36342     36344     36341     36339     36342     36350
     36342     36344     36345     36346     36342     36344     36345     36347
     36342     36350     36353     36354     36343     36342     36344     36345
     36343     36342     36350     36351     36343     36342     36350     36352
     36343     36342     36350     36353     36344     36342     36350     36351
     36344     36342     36350     36352     36344     36342     36350     36353
     36344     36345     36347     36348     36344     36345     36347     36349
     36344     36345     36347     36359     36345     36344     36342     36350
     36345     36347     36359     36360     36345     36347     36359     36361
     36345     36347     36359     36362     36346     36345     36347     36348
     36346     36345     36347     36349     36346     36345     36347     36359
     36347     36359     36362     36363     36347     36359     36362     36364
     36347     36359     36362     36365     36348     36347     36359     36360
     36348     36347     36359     36361     36348     36347     36359     36362
     36349     36347     36359     36360     36349     36347     36359     36361
     36349     36347     36359     36362     36350     36353     36354     36355
     36350     36353     36354     36356     36351     36350     36353     36354
     36352     36350     36353     36354     36353     36354     36356     36357
     36353     36354     36356     36358     36353     36354     36356     36406
     36354     36356     36406     36407     36354     36356     36406     36408
     36354     36356     36406     36409     36355     36354     36356     36357
     36355     36354     36356     36358     36355     36354     36356     36406
     36356     36406     36409     36410     36356     36406     36409     36411
     36356     36406     36409     36412     36357     36356     36406     36407
     36357     36356     36406     36408     36357     36356     36406     36409
     36358     36356     36406     36407     36358     36356     36406     36408
     36358     36356     36406     36409     36359     36362     36365     36366
     36359     36362     36365     36367     36359     36362     36365     36368
     36360     36359     36362     36363     36360     36359     36362     36364
     36360     36359     36362     36365     36361     36359     36362     36363
     36361     36359     36362     36364     36361     36359     36362     36365
     36362     36365     36368     36369     36362     36365     36368     36370
     36362     36365     36368     36371     36363     36362     36365     36366
     36363     36362     36365     36367     36363     36362     36365     36368
     36364     36362     36365     36366     36364     36362     36365     36367
     36364     36362     36365     36368     36365     36368     36371     36372
     36365     36368     36371     36373     36365     36368     36371     36374
     36366     36365     36368     36369     36366     36365     36368     36370
     36366     36365     36368     36371     36367     36365     36368     36369
     36367     36365     36368     36370     36367     36365     36368     36371
     36368     36371     36374     36375     36368     36371     36374     36376
     36368     36371     36374     36377     36369     36368     36371     36372
     36369     36368     36371     36373     36369     36368     36371     36374
     36370     36368     36371     36372     36370     36368     36371     36373
     36370     36368     36371     36374     36371     36374     36377     36378
     36371     36374     36377     36379     36372     36371     36374     36375
     36372     36371     36374     36376     36372     36371     36374     36377
     36373     36371     36374     36375     36373     36371     36374     36376
     36373     36371     36374     36377     36374     36377     36379     36380
     36374     36377     36379     36381     36375     36374     36377     36378
     36375     36374     36377     36379     36376     36374     36377     36378
     36376     36374     36377     36379     36377     36379     36381     36382
     36377     36379     36381     36383     36377     36379     36381     36384
     36378     36377     36379     36380     36378     36377     36379     36381
     36379     36381     36384     36385     36379     36381     36384     36386
     36379     36381     36384     36387     36380     36379     36381     36382
     36380     36379     36381     36383     36380     36379     36381     36384
     36381     36384     36387     36388     36381     36384     36387     36389
     36381     36384     36387     36390     36382     36381     36384     36385
     36382     36381     36384     36386     36382     36381     36384     36387
     36383     36381     36384     36385     36383     36381     36384     36386
     36383     36381     36384     36387     36384     36387     36390     36391
     36384     36387     36390     36392     36384     36387     36390     36393
     36385     36384     36387     36388     36385     36384     36387     36389
     36385     36384     36387     36390     36386     36384     36387     36388
     36386     36384     36387     36389     36386     36384     36387     36390
     36387     36390     36393     36394     36387     36390     36393     36395
     36387     36390     36393     36396     36388     36387     36390     36391
     36388     36387     36390     36392     36388     36387     36390     36393
     36389     36387     36390     36391     36389     36387     36390     36392
     36389     36387     36390     36393     36390     36393     36396     36397
     36390     36393     36396     36398     36390     36393     36396     36399
     36391     36390     36393     36394     36391     36390     36393     36395
     36391     36390     36393     36396     36392     36390     36393     36394
     36392     36390     36393     36395     36392     36390     36393     36396
     36393     36396     36399     36400     36393     36396     36399     36401
     36393     36396     36399     36402     36394     36393     36396     36397
     36394     36393     36396     36398     36394     36393     36396     36399
     36395     36393     36396     36397     36395     36393     36396     36398
     36395     36393     36396     36399     36396     36399     36402     36403
     36396     36399     36402     36404     36396     36399     36402     36405
     36397     36396     36399     36400     36397     36396     36399     36401
     36397     36396     36399     36402     36398     36396     36399     36400
     36398     36396     36399     36401     36398     36396     36399     36402
     36400     36399     36402     36403     36400     36399     36402     36404
     36400     36399     36402     36405     36401     36399     36402     36403
     36401     36399     36402     36404     36401     36399     36402     36405
     36406     36409     36412     36413     36406     36409     36412     36414
     36406     36409     36412     36415     36407     36406     36409     36410
     36407     36406     36409     36411     36407     36406     36409     36412
     36408     36406     36409     36410     36408     36406     36409     36411
     36408     36406     36409     36412     36409     36412     36415     36416
     36409     36412     36415     36417     36409     36412     36415     36418
     36410     36409     36412     36413     36410     36409     36412     36414
     36410     36409     36412     36415     36411     36409     36412     36413
     36411     36409     36412     36414     36411     36409     36412     36415
     36412     36415     36418     36419     36412     36415     36418     36420
     36412     36415     36418     36421     36413     36412     36415     36416
     36413     36412     36415     36417     36413     36412     36415     36418
     36414     36412     36415     36416     36414     36412     36415     36417
     36414     36412     36415     36418     36415     36418     36421     36422
     36415     36418     36421     36423     36415     36418     36421     36424
     36416     36415     36418     36419     36416     36415     36418     36420
     36416     36415     36418     36421     36417     36415     36418     36419
     36417     36415     36418     36420     36417     36415     36418     36421
     36418     36421     36424     36425     36418     36421     36424     36426
     36418     36421     36424     36427     36419     36418     36421     36422
     36419     36418     36421     36423     36419     36418     36421     36424
     36420     36418     36421     36422     36420     36418     36421     36423
     36420     36418     36421     36424     36421     36424     36427     36428
     36421     36424     36427     36429     36421     36424     36427     36430
     36422     36421     36424     36425     36422     36421     36424     36426
     36422     36421     36424     36427     36423     36421     36424     36425
     36423     36421     36424     36426     36423     36421     36424     36427
     36424     36427     36430     36431     36424     36427     36430     36432
     36424     36427     36430     36433     36425     36424     36427     36428
     36425     36424     36427     36429     36425     36424     36427     36430
     36426     36424     36427     36428     36426     36424     36427     36429
     36426     36424     36427     36430     36427     36430     36433     36434
     36427     36430     36433     36435     36427     36430     36433     36436
     36428     36427     36430     36431     36428     36427     36430     36432
     36428     36427     36430     36433     36429     36427     36430     36431
     36429     36427     36430     36432     36429     36427     36430     36433
     36430     36433     36436     36437     36430     36433     36436     36438
     36430     36433     36436     36439     36431     36430     36433     36434
     36431     36430     36433     36435     36431     36430     36433     36436
     36432     36430     36433     36434     36432     36430     36433     36435
     36432     36430     36433     36436     36433     36436     36439     36440
     36433     36436     36439     36441     36433     36436     36439     36442
     36434     36433     36436     36437     36434     36433     36436     36438
     36434     36433     36436     36439     36435     36433     36436     36437
     36435     36433     36436     36438     36435     36433     36436     36439
     36436     36439     36442     36443     36436     36439     36442     36444
     36436     36439     36442     36445     36437     36436     36439     36440
     36437     36436     36439     36441     36437     36436     36439     36442
     36438     36436     36439     36440     36438     36436     36439     36441
     36438     36436     36439     36442     36439     36442     36445     36446
     36439     36442     36445     36447     36439     36442     36445     36448
     36440     36439     36442     36443     36440     36439     36442     36444
     36440     36439     36442     36445     36441     36439     36442     36443
     36441     36439     36442     36444     36441     36439     36442     36445
     36443     36442     36445     36446     36443     36442     36445     36447
     36443     36442     36445     36448     36444     36442     36445     36446
     36444     36442     36445     36447     36444     36442     36445     36448
     36449     36450     36465     36466     36449     36450     36465     36467
     36449     36450     36465     36471     36450     36449     36453     36454
     36450     36449     36453     36455     36450     36449     36453     36456
     36450     36449     36457     36458     36450     36449     36457     36459
     36450     36449     36457     36460     36450     36449     36461     36462
     36450     36449     36461     36463     36450     36449     36461     36464
     36450     36465     36471     36468     36451     36450     36449     36453
     36451     36450     36449     36457     36451     36450     36449     36461
     36451     36450     36465     36466     36451     36450     36465     36467
     36451     36450     36465     36471     36452     36450     36449     36453
     36452     36450     36449     36457     36452     36450     36449     36461
     36452     36450     36465     36466     36452     36450     36465     36467
     36452     36450     36465     36471     36453     36449     36450     36465
     36453     36449     36457     36458     36453     36449     36457     36459
     36453     36449     36457     36460     36453     36449     36461     36462
     36453     36449     36461     36463     36453     36449     36461     36464
     36454     36453     36449     36457     36454     36453     36449     36461
     36455     36453     36449     36457     36455     36453     36449     36461
     36456     36453     36449     36457     36456     36453     36449     36461
     36457     36449     36450     36465     36457     36449     36461     36462
     36457     36449     36461     36463     36457     36449     36461     36464
     36458     36457     36449     36461     36459     36457     36449     36461
     36460     36457     36449     36461     36461     36449     36450     36465
     36465     36471     36468     36469     36465     36471     36468     36470
     36465     36471     36468     36472     36466     36465     36471     36468
     36467     36465     36471     36468     36468     36472     36473     36474
     36468     36472     36473     36475     36468     36472     36473     36476
     36469     36468     36472     36473     36470     36468     36472     36473
     36471     36468     36472     36473     36472     36473     36476     36477
     36472     36473     36476     36478     36472     36473     36476     36484
     36473     36476     36478     36479     36473     36476     36484     36485
     36473     36476     36484     36486     36473     36476     36484     36487
     36474     36473     36476     36477     36474     36473     36476     36478
     36474     36473     36476     36484     36475     36473     36476     36477
     36475     36473     36476     36478     36475     36473     36476     36484
     36476     36478     36479     36480     36476     36478     36479     36481
     36476     36484     36487     36488     36477     36476     36478     36479
     36477     36476     36484     36485     36477     36476     36484     36486
     36477     36476     36484     36487     36478     36476     36484     36485
     36478     36476     36484     36486     36478     36476     36484     36487
     36478     36479     36481     36482     36478     36479     36481     36483
     36478     36479     36481     36493     36479     36478     36476     36484
     36479     36481     36493     36494     36479     36481     36493     36495
     36479     36481     36493     36496     36480     36479     36481     36482
     36480     36479     36481     36483     36480     36479     36481     36493
     36481     36493     36496     36497     36481     36493     36496     36498
     36481     36493     36496     36499     36482     36481     36493     36494
     36482     36481     36493     36495     36482     36481     36493     36496
     36483     36481     36493     36494     36483     36481     36493     36495
     36483     36481     36493     36496     36484     36487     36488     36489
     36484     36487     36488     36490     36485     36484     36487     36488
     36486     36484     36487     36488     36487     36488     36490     36491
     36487     36488     36490     36492     36487     36488     36490     36540
     36488     36490     36540     36541     36488     36490     36540     36542
     36488     36490     36540     36543     36489     36488     36490     36491
     36489     36488     36490     36492     36489     36488     36490     36540
     36490     36540     36543     36544     36490     36540     36543     36545
     36490     36540     36543     36546     36491     36490     36540     36541
     36491     36490     36540     36542     36491     36490     36540     36543
     36492     36490     36540     36541     36492     36490     36540     36542
     36492     36490     36540     36543     36493     36496     36499     36500
     36493     36496     36499     36501     36493     36496     36499     36502
     36494     36493     36496     36497     36494     36493     36496     36498
     36494     36493     36496     36499     36495     36493     36496     36497
     36495     36493     36496     36498     36495     36493     36496     36499
     36496     36499     36502     36503     36496     36499     36502     36504
     36496     36499     36502     36505     36497     36496     36499     36500
     36497     36496     36499     36501     36497     36496     36499     36502
     36498     36496     36499     36500     36498     36496     36499     36501
     36498     36496     36499     36502     36499     36502     36505     36506
     36499     36502     36505     36507     36499     36502     36505     36508
     36500     36499     36502     36503     36500     36499     36502     36504
     36500     36499     36502     36505     36501     36499     36502     36503
     36501     36499     36502     36504     36501     36499     36502     36505
     36502     36505     36508     36509     36502     36505     36508     36510
     36502     36505     36508     36511     36503     36502     36505     36506
     36503     36502     36505     36507     36503     36502     36505     36508
     36504     36502     36505     36506     36504     36502     36505     36507
     36504     36502     36505     36508     36505     36508     36511     36512
     36505     36508     36511     36513     36506     36505     36508     36509
     36506     36505     36508     36510     36506     36505     36508     36511
     36507     36505     36508     36509     36507     36505     36508     36510
     36507     36505     36508     36511     36508     36511     36513     36514
     36508     36511     36513     36515     36509     36508     36511     36512
     36509     36508     36511     36513     36510     36508     36511     36512
     36510     36508     36511     36513     36511     36513     36515     36516
     36511     36513     36515     36517     36511     36513     36515     36518
     36512     36511     36513     36514     36512     36511     36513     36515
     36513     36515     36518     36519     36513     36515     36518     36520
     36513     36515     36518     36521     36514     36513     36515     36516
     36514     36513     36515     36517     36514     36513     36515     36518
     36515     36518     36521     36522     36515     36518     36521     36523
     36515     36518     36521     36524     36516     36515     36518     36519
     36516     36515     36518     36520     36516     36515     36518     36521
     36517     36515     36518     36519     36517     36515     36518     36520
     36517     36515     36518     36521     36518     36521     36524     36525
     36518     36521     36524     36526     36518     36521     36524     36527
     36519     36518     36521     36522     36519     36518     36521     36523
     36519     36518     36521     36524     36520     36518     36521     36522
     36520     36518     36521     36523     36520     36518     36521     36524
     36521     36524     36527     36528     36521     36524     36527     36529
     36521     36524     36527     36530     36522     36521     36524     36525
     36522     36521     36524     36526     36522     36521     36524     36527
     36523     36521     36524     36525     36523     36521     36524     36526
     36523     36521     36524     36527     36524     36527     36530     36531
     36524     36527     36530     36532     36524     36527     36530     36533
     36525     36524     36527     36528     36525     36524     36527     36529
     36525     36524     36527     36530     36526     36524     36527     36528
     36526     36524     36527     36529     36526     36524     36527     36530
     36527     36530     36533     36534     36527     36530     36533     36535
     36527     36530     36533     36536     36528     36527     36530     36531
     36528     36527     36530     36532     36528     36527     36530     36533
     36529     36527     36530     36531     36529     36527     36530     36532
     36529     36527     36530     36533     36530     36533     36536     36537
     36530     36533     36536     36538     36530     36533     36536     36539
     36531     36530     36533     36534     36531     36530     36533     36535
     36531     36530     36533     36536     36532     36530     36533     36534
     36532     36530     36533     36535     36532     36530     36533     36536
     36534     36533     36536     36537     36534     36533     36536     36538
     36534     36533     36536     36539     36535     36533     36536     36537
     36535     36533     36536     36538     36535     36533     36536     36539
     36540     36543     36546     36547     36540     36543     36546     36548
     36540     36543     36546     36549     36541     36540     36543     36544
     36541     36540     36543     36545     36541     36540     36543     36546
     36542     36540     36543     36544     36542     36540     36543     36545
     36542     36540     36543     36546     36543     36546     36549     36550
     36543     36546     36549     36551     36543     36546     36549     36552
     36544     36543     36546     36547     36544     36543     36546     36548
     36544     36543     36546     36549     36545     36543     36546     36547
     36545     36543     36546     36548     36545     36543     36546     36549
     36546     36549     36552     36553     36546     36549     36552     36554
     36546     36549     36552     36555     36547     36546     36549     36550
     36547     36546     36549     36551     36547     36546     36549     36552
     36548     36546     36549     36550     36548     36546     36549     36551
     36548     36546     36549     36552     36549     36552     36555     36556
     36549     36552     36555     36557     36549     36552     36555     36558
     36550     36549     36552     36553     36550     36549     36552     36554
     36550     36549     36552     36555     36551     36549     36552     36553
     36551     36549     36552     36554     36551     36549     36552     36555
     36552     36555     36558     36559     36552     36555     36558     36560
     36552     36555     36558     36561     36553     36552     36555     36556
     36553     36552     36555     36557     36553     36552     36555     36558
     36554     36552     36555     36556     36554     36552     36555     36557
     36554     36552     36555     36558     36555     36558     36561     36562
     36555     36558     36561     36563     36555     36558     36561     36564
     36556     36555     36558     36559     36556     36555     36558     36560
     36556     36555     36558     36561     36557     36555     36558     36559
     36557     36555     36558     36560     36557     36555     36558     36561
     36558     36561     36564     36565     36558     36561     36564     36566
     36558     36561     36564     36567     36559     36558     36561     36562
     36559     36558     36561     36563     36559     36558     36561     36564
     36560     36558     36561     36562     36560     36558     36561     36563
     36560     36558     36561     36564     36561     36564     36567     36568
     36561     36564     36567     36569     36561     36564     36567     36570
     36562     36561     36564     36565     36562     36561     36564     36566
     36562     36561     36564     36567     36563     36561     36564     36565
     36563     36561     36564     36566     36563     36561     36564     36567
     36564     36567     36570     36571     36564     36567     36570     36572
     36564     36567     36570     36573     36565     36564     36567     36568
     36565     36564     36567     36569     36565     36564     36567     36570
     36566     36564     36567     36568     36566     36564     36567     36569
     36566     36564     36567     36570     36567     36570     36573     36574
     36567     36570     36573     36575     36567     36570     36573     36576
     36568     36567     36570     36571     36568     36567     36570     36572
     36568     36567     36570     36573     36569     36567     36570     36571
     36569     36567     36570     36572     36569     36567     36570     36573
     36570     36573     36576     36577     36570     36573     36576     36578
     36570     36573     36576     36579     36571     36570     36573     36574
     36571     36570     36573     36575     36571     36570     36573     36576
     36572     36570     36573     36574     36572     36570     36573     36575
     36572     36570     36573     36576     36573     36576     36579     36580
     36573     36576     36579     36581     36573     36576     36579     36582
     36574     36573     36576     36577     36574     36573     36576     36578
     36574     36573     36576     36579     36575     36573     36576     36577
     36575     36573     36576     36578     36575     36573     36576     36579
     36577     36576     36579     36580     36577     36576     36579     36581
     36577     36576     36579     36582     36578     36576     36579     36580
     36578     36576     36579     36581     36578     36576     36579     36582
     36583     36584     36599     36600     36583     36584     36599     36601
     36583     36584     36599     36605     36584     36583     36587     36588
     36584     36583     36587     36589     36584     36583     36587     36590
     36584     36583     36591     36592     36584     36583     36591     36593
     36584     36583     36591     36594     36584     36583     36595     36596
     36584     36583     36595     36597     36584     36583     36595     36598
     36584     36599     36605     36602     36585     36584     36583     36587
     36585     36584     36583     36591     36585     36584     36583     36595
     36585     36584     36599     36600     36585     36584     36599     36601
     36585     36584     36599     36605     36586     36584     36583     36587
     36586     36584     36583     36591     36586     36584     36583     36595
     36586     36584     36599     36600     36586     36584     36599     36601
     36586     36584     36599     36605     36587     36583     36584     36599
     36587     36583     36591     36592     36587     36583     36591     36593
     36587     36583     36591     36594     36587     36583     36595     36596
     36587     36583     36595     36597     36587     36583     36595     36598
     36588     36587     36583     36591     36588     36587     36583     36595
     36589     36587     36583     36591     36589     36587     36583     36595
     36590     36587     36583     36591     36590     36587     36583     36595
     36591     36583     36584     36599     36591     36583     36595     36596
     36591     36583     36595     36597     36591     36583     36595     36598
     36592     36591     36583     36595     36593     36591     36583     36595
     36594     36591     36583     36595     36595     36583     36584     36599
     36599     36605     36602     36603     36599     36605     36602     36604
     36599     36605     36602     36606     36600     36599     36605     36602
     36601     36599     36605     36602     36602     36606     36607     36608
     36602     36606     36607     36609     36602     36606     36607     36610
     36603     36602     36606     36607     36604     36602     36606     36607
     36605     36602     36606     36607     36606     36607     36610     36611
     36606     36607     36610     36612     36606     36607     36610     36618
     36607     36610     36612     36613     36607     36610     36618     36619
     36607     36610     36618     36620     36607     36610     36618     36621
     36608     36607     36610     36611     36608     36607     36610     36612
     36608     36607     36610     36618     36609     36607     36610     36611
     36609     36607     36610     36612     36609     36607     36610     36618
     36610     36612     36613     36614     36610     36612     36613     36615
     36610     36618     36621     36622     36611     36610     36612     36613
     36611     36610     36618     36619     36611     36610     36618     36620
     36611     36610     36618     36621     36612     36610     36618     36619
     36612     36610     36618     36620     36612     36610     36618     36621
     36612     36613     36615     36616     36612     36613     36615     36617
     36612     36613     36615     36627     36613     36612     36610     36618
     36613     36615     36627     36628     36613     36615     36627     36629
     36613     36615     36627     36630     36614     36613     36615     36616
     36614     36613     36615     36617     36614     36613     36615     36627
     36615     36627     36630     36631     36615     36627     36630     36632
     36615     36627     36630     36633     36616     36615     36627     36628
     36616     36615     36627     36629     36616     36615     36627     36630
     36617     36615     36627     36628     36617     36615     36627     36629
     36617     36615     36627     36630     36618     36621     36622     36623
     36618     36621     36622     36624     36619     36618     36621     36622
     36620     36618     36621     36622     36621     36622     36624     36625
     36621     36622     36624     36626     36621     36622     36624     36674
     36622     36624     36674     36675     36622     36624     36674     36676
     36622     36624     36674     36677     36623     36622     36624     36625
     36623     36622     36624     36626     36623     36622     36624     36674
     36624     36674     36677     36678     36624     36674     36677     36679
     36624     36674     36677     36680     36625     36624     36674     36675
     36625     36624     36674     36676     36625     36624     36674     36677
     36626     36624     36674     36675     36626     36624     36674     36676
     36626     36624     36674     36677     36627     36630     36633     36634
     36627     36630     36633     36635     36627     36630     36633     36636
     36628     36627     36630     36631     36628     36627     36630     36632
     36628     36627     36630     36633     36629     36627     36630     36631
     36629     36627     36630     36632     36629     36627     36630     36633
     36630     36633     36636     36637     36630     36633     36636     36638
     36630     36633     36636     36639     36631     36630     36633     36634
     36631     36630     36633     36635     36631     36630     36633     36636
     36632     36630     36633     36634     36632     36630     36633     36635
     36632     36630     36633     36636     36633     36636     36639     36640
     36633     36636     36639     36641     36633     36636     36639     36642
     36634     36633     36636     36637     36634     36633     36636     36638
     36634     36633     36636     36639     36635     36633     36636     36637
     36635     36633     36636     36638     36635     36633     36636     36639
     36636     36639     36642     36643     36636     36639     36642     36644
     36636     36639     36642     36645     36637     36636     36639     36640
     36637     36636     36639     36641     36637     36636     36639     36642
     36638     36636     36639     36640     36638     36636     36639     36641
     36638     36636     36639     36642     36639     36642     36645     36646
     36639     36642     36645     36647     36640     36639     36642     36643
     36640     36639     36642     36644     36640     36639     36642     36645
     36641     36639     36642     36643     36641     36639     36642     36644
     36641     36639     36642     36645     36642     36645     36647     36648
     36642     36645     36647     36649     36643     36642     36645     36646
     36643     36642     36645     36647     36644     36642     36645     36646
     36644     36642     36645     36647     36645     36647     36649     36650
     36645     36647     36649     36651     36645     36647     36649     36652
     36646     36645     36647     36648     36646     36645     36647     36649
     36647     36649     36652     36653     36647     36649     36652     36654
     36647     36649     36652     36655     36648     36647     36649     36650
     36648     36647     36649     36651     36648     36647     36649     36652
     36649     36652     36655     36656     36649     36652     36655     36657
     36649     36652     36655     36658     36650     36649     36652     36653
     36650     36649     36652     36654     36650     36649     36652     36655
     36651     36649     36652     36653     36651     36649     36652     36654
     36651     36649     36652     36655     36652     36655     36658     36659
     36652     36655     36658     36660     36652     36655     36658     36661
     36653     36652     36655     36656     36653     36652     36655     36657
     36653     36652     36655     36658     36654     36652     36655     36656
     36654     36652     36655     36657     36654     36652     36655     36658
     36655     36658     36661     36662     36655     36658     36661     36663
     36655     36658     36661     36664     36656     36655     36658     36659
     36656     36655     36658     36660     36656     36655     36658     36661
     36657     36655     36658     36659     36657     36655     36658     36660
     36657     36655     36658     36661     36658     36661     36664     36665
     36658     36661     36664     36666     36658     36661     36664     36667
     36659     36658     36661     36662     36659     36658     36661     36663
     36659     36658     36661     36664     36660     36658     36661     36662
     36660     36658     36661     36663     36660     36658     36661     36664
     36661     36664     36667     36668     36661     36664     36667     36669
     36661     36664     36667     36670     36662     36661     36664     36665
     36662     36661     36664     36666     36662     36661     36664     36667
     36663     36661     36664     36665     36663     36661     36664     36666
     36663     36661     36664     36667     36664     36667     36670     36671
     36664     36667     36670     36672     36664     36667     36670     36673
     36665     36664     36667     36668     36665     36664     36667     36669
     36665     36664     36667     36670     36666     36664     36667     36668
     36666     36664     36667     36669     36666     36664     36667     36670
     36668     36667     36670     36671     36668     36667     36670     36672
     36668     36667     36670     36673     36669     36667     36670     36671
     36669     36667     36670     36672     36669     36667     36670     36673
     36674     36677     36680     36681     36674     36677     36680     36682
     36674     36677     36680     36683     36675     36674     36677     36678
     36675     36674     36677     36679     36675     36674     36677     36680
     36676     36674     36677     36678     36676     36674     36677     36679
     36676     36674     36677     36680     36677     36680     36683     36684
     36677     36680     36683     36685     36677     36680     36683     36686
     36678     36677     36680     36681     36678     36677     36680     36682
     36678     36677     36680     36683     36679     36677     36680     36681
     36679     36677     36680     36682     36679     36677     36680     36683
     36680     36683     36686     36687     36680     36683     36686     36688
     36680     36683     36686     36689     36681     36680     36683     36684
     36681     36680     36683     36685     36681     36680     36683     36686
     36682     36680     36683     36684     36682     36680     36683     36685
     36682     36680     36683     36686     36683     36686     36689     36690
     36683     36686     36689     36691     36683     36686     36689     36692
     36684     36683     36686     36687     36684     36683     36686     36688
     36684     36683     36686     36689     36685     36683     36686     36687
     36685     36683     36686     36688     36685     36683     36686     36689
     36686     36689     36692     36693     36686     36689     36692     36694
     36686     36689     36692     36695     36687     36686     36689     36690
     36687     36686     36689     36691     36687     36686     36689     36692
     36688     36686     36689     36690     36688     36686     36689     36691
     36688     36686     36689     36692     36689     36692     36695     36696
     36689     36692     36695     36697     36689     36692     36695     36698
     36690     36689     36692     36693     36690     36689     36692     36694
     36690     36689     36692     36695     36691     36689     36692     36693
     36691     36689     36692     36694     36691     36689     36692     36695
     36692     36695     36698     36699     36692     36695     36698     36700
     36692     36695     36698     36701     36693     36692     36695     36696
     36693     36692     36695     36697     36693     36692     36695     36698
     36694     36692     36695     36696     36694     36692     36695     36697
     36694     36692     36695     36698     36695     36698     36701     36702
     36695     36698     36701     36703     36695     36698     36701     36704
     36696     36695     36698     36699     36696     36695     36698     36700
     36696     36695     36698     36701     36697     36695     36698     36699
     36697     36695     36698     36700     36697     36695     36698     36701
     36698     36701     36704     36705     36698     36701     36704     36706
     36698     36701     36704     36707     36699     36698     36701     36702
     36699     36698     36701     36703     36699     36698     36701     36704
     36700     36698     36701     36702     36700     36698     36701     36703
     36700     36698     36701     36704     36701     36704     36707     36708
     36701     36704     36707     36709     36701     36704     36707     36710
     36702     36701     36704     36705     36702     36701     36704     36706
     36702     36701     36704     36707     36703     36701     36704     36705
     36703     36701     36704     36706     36703     36701     36704     36707
     36704     36707     36710     36711     36704     36707     36710     36712
     36704     36707     36710     36713     36705     36704     36707     36708
     36705     36704     36707     36709     36705     36704     36707     36710
     36706     36704     36707     36708     36706     36704     36707     36709
     36706     36704     36707     36710     36707     36710     36713     36714
     36707     36710     36713     36715     36707     36710     36713     36716
     36708     36707     36710     36711     36708     36707     36710     36712
     36708     36707     36710     36713     36709     36707     36710     36711
     36709     36707     36710     36712     36709     36707     36710     36713
     36711     36710     36713     36714     36711     36710     36713     36715
     36711     36710     36713     36716     36712     36710     36713     36714
     36712     36710     36713     36715     36712     36710     36713     36716
     36717     36718     36733     36734     36717     36718     36733     36735
     36717     36718     36733     36739     36718     36717     36721     36722
     36718     36717     36721     36723     36718     36717     36721     36724
     36718     36717     36725     36726     36718     36717     36725     36727
     36718     36717     36725     36728     36718     36717     36729     36730
     36718     36717     36729     36731     36718     36717     36729     36732
     36718     36733     36739     36736     36719     36718     36717     36721
     36719     36718     36717     36725     36719     36718     36717     36729
     36719     36718     36733     36734     36719     36718     36733     36735
     36719     36718     36733     36739     36720     36718     36717     36721
     36720     36718     36717     36725     36720     36718     36717     36729
     36720     36718     36733     36734     36720     36718     36733     36735
     36720     36718     36733     36739     36721     36717     36718     36733
     36721     36717     36725     36726     36721     36717     36725     36727
     36721     36717     36725     36728     36721     36717     36729     36730
     36721     36717     36729     36731     36721     36717     36729     36732
     36722     36721     36717     36725     36722     36721     36717     36729
     36723     36721     36717     36725     36723     36721     36717     36729
     36724     36721     36717     36725     36724     36721     36717     36729
     36725     36717     36718     36733     36725     36717     36729     36730
     36725     36717     36729     36731     36725     36717     36729     36732
     36726     36725     36717     36729     36727     36725     36717     36729
     36728     36725     36717     36729     36729     36717     36718     36733
     36733     36739     36736     36737     36733     36739     36736     36738
     36733     36739     36736     36740     36734     36733     36739     36736
     36735     36733     36739     36736     36736     36740     36741     36742
     36736     36740     36741     36743     36736     36740     36741     36744
     36737     36736     36740     36741     36738     36736     36740     36741
     36739     36736     36740     36741     36740     36741     36744     36745
     36740     36741     36744     36746     36740     36741     36744     36752
     36741     36744     36746     36747     36741     36744     36752     36753
     36741     36744     36752     36754     36741     36744     36752     36755
     36742     36741     36744     36745     36742     36741     36744     36746
     36742     36741     36744     36752     36743     36741     36744     36745
     36743     36741     36744     36746     36743     36741     36744     36752
     36744     36746     36747     36748     36744     36746     36747     36749
     36744     36752     36755     36756     36745     36744     36746     36747
     36745     36744     36752     36753     36745     36744     36752     36754
     36745     36744     36752     36755     36746     36744     36752     36753
     36746     36744     36752     36754     36746     36744     36752     36755
     36746     36747     36749     36750     36746     36747     36749     36751
     36746     36747     36749     36761     36747     36746     36744     36752
     36747     36749     36761     36762     36747     36749     36761     36763
     36747     36749     36761     36764     36748     36747     36749     36750
     36748     36747     36749     36751     36748     36747     36749     36761
     36749     36761     36764     36765     36749     36761     36764     36766
     36749     36761     36764     36767     36750     36749     36761     36762
     36750     36749     36761     36763     36750     36749     36761     36764
     36751     36749     36761     36762     36751     36749     36761     36763
     36751     36749     36761     36764     36752     36755     36756     36757
     36752     36755     36756     36758     36753     36752     36755     36756
     36754     36752     36755     36756     36755     36756     36758     36759
     36755     36756     36758     36760     36755     36756     36758     36808
     36756     36758     36808     36809     36756     36758     36808     36810
     36756     36758     36808     36811     36757     36756     36758     36759
     36757     36756     36758     36760     36757     36756     36758     36808
     36758     36808     36811     36812     36758     36808     36811     36813
     36758     36808     36811     36814     36759     36758     36808     36809
     36759     36758     36808     36810     36759     36758     36808     36811
     36760     36758     36808     36809     36760     36758     36808     36810
     36760     36758     36808     36811     36761     36764     36767     36768
     36761     36764     36767     36769     36761     36764     36767     36770
     36762     36761     36764     36765     36762     36761     36764     36766
     36762     36761     36764     36767     36763     36761     36764     36765
     36763     36761     36764     36766     36763     36761     36764     36767
     36764     36767     36770     36771     36764     36767     36770     36772
     36764     36767     36770     36773     36765     36764     36767     36768
     36765     36764     36767     36769     36765     36764     36767     36770
     36766     36764     36767     36768     36766     36764     36767     36769
     36766     36764     36767     36770     36767     36770     36773     36774
     36767     36770     36773     36775     36767     36770     36773     36776
     36768     36767     36770     36771     36768     36767     36770     36772
     36768     36767     36770     36773     36769     36767     36770     36771
     36769     36767     36770     36772     36769     36767     36770     36773
     36770     36773     36776     36777     36770     36773     36776     36778
     36770     36773     36776     36779     36771     36770     36773     36774
     36771     36770     36773     36775     36771     36770     36773     36776
     36772     36770     36773     36774     36772     36770     36773     36775
     36772     36770     36773     36776     36773     36776     36779     36780
     36773     36776     36779     36781     36774     36773     36776     36777
     36774     36773     36776     36778     36774     36773     36776     36779
     36775     36773     36776     36777     36775     36773     36776     36778
     36775     36773     36776     36779     36776     36779     36781     36782
     36776     36779     36781     36783     36777     36776     36779     36780
     36777     36776     36779     36781     36778     36776     36779     36780
     36778     36776     36779     36781     36779     36781     36783     36784
     36779     36781     36783     36785     36779     36781     36783     36786
     36780     36779     36781     36782     36780     36779     36781     36783
     36781     36783     36786     36787     36781     36783     36786     36788
     36781     36783     36786     36789     36782     36781     36783     36784
     36782     36781     36783     36785     36782     36781     36783     36786
     36783     36786     36789     36790     36783     36786     36789     36791
     36783     36786     36789     36792     36784     36783     36786     36787
     36784     36783     36786     36788     36784     36783     36786     36789
     36785     36783     36786     36787     36785     36783     36786     36788
     36785     36783     36786     36789     36786     36789     36792     36793
     36786     36789     36792     36794     36786     36789     36792     36795
     36787     36786     36789     36790     36787     36786     36789     36791
     36787     36786     36789     36792     36788     36786     36789     36790
     36788     36786     36789     36791     36788     36786     36789     36792
     36789     36792     36795     36796     36789     36792     36795     36797
     36789     36792     36795     36798     36790     36789     36792     36793
     36790     36789     36792     36794     36790     36789     36792     36795
     36791     36789     36792     36793     36791     36789     36792     36794
     36791     36789     36792     36795     36792     36795     36798     36799
     36792     36795     36798     36800     36792     36795     36798     36801
     36793     36792     36795     36796     36793     36792     36795     36797
     36793     36792     36795     36798     36794     36792     36795     36796
     36794     36792     36795     36797     36794     36792     36795     36798
     36795     36798     36801     36802     36795     36798     36801     36803
     36795     36798     36801     36804     36796     36795     36798     36799
     36796     36795     36798     36800     36796     36795     36798     36801
     36797     36795     36798     36799     36797     36795     36798     36800
     36797     36795     36798     36801     36798     36801     36804     36805
     36798     36801     36804     36806     36798     36801     36804     36807
     36799     36798     36801     36802     36799     36798     36801     36803
     36799     36798     36801     36804     36800     36798     36801     36802
     36800     36798     36801     36803     36800     36798     36801     36804
     36802     36801     36804     36805     36802     36801     36804     36806
     36802     36801     36804     36807     36803     36801     36804     36805
     36803     36801     36804     36806     36803     36801     36804     36807
     36808     36811     36814     36815     36808     36811     36814     36816
     36808     36811     36814     36817     36809     36808     36811     36812
     36809     36808     36811     36813     36809     36808     36811     36814
     36810     36808     36811     36812     36810     36808     36811     36813
     36810     36808     36811     36814     36811     36814     36817     36818
     36811     36814     36817     36819     36811     36814     36817     36820
     36812     36811     36814     36815     36812     36811     36814     36816
     36812     36811     36814     36817     36813     36811     36814     36815
     36813     36811     36814     36816     36813     36811     36814     36817
     36814     36817     36820     36821     36814     36817     36820     36822
     36814     36817     36820     36823     36815     36814     36817     36818
     36815     36814     36817     36819     36815     36814     36817     36820
     36816     36814     36817     36818     36816     36814     36817     36819
     36816     36814     36817     36820     36817     36820     36823     36824
     36817     36820     36823     36825     36817     36820     36823     36826
     36818     36817     36820     36821     36818     36817     36820     36822
     36818     36817     36820     36823     36819     36817     36820     36821
     36819     36817     36820     36822     36819     36817     36820     36823
     36820     36823     36826     36827     36820     36823     36826     36828
     36820     36823     36826     36829     36821     36820     36823     36824
     36821     36820     36823     36825     36821     36820     36823     36826
     36822     36820     36823     36824     36822     36820     36823     36825
     36822     36820     36823     36826     36823     36826     36829     36830
     36823     36826     36829     36831     36823     36826     36829     36832
     36824     36823     36826     36827     36824     36823     36826     36828
     36824     36823     36826     36829     36825     36823     36826     36827
     36825     36823     36826     36828     36825     36823     36826     36829
     36826     36829     36832     36833     36826     36829     36832     36834
     36826     36829     36832     36835     36827     36826     36829     36830
     36827     36826     36829     36831     36827     36826     36829     36832
     36828     36826     36829     36830     36828     36826     36829     36831
     36828     36826     36829     36832     36829     36832     36835     36836
     36829     36832     36835     36837     36829     36832     36835     36838
     36830     36829     36832     36833     36830     36829     36832     36834
     36830     36829     36832     36835     36831     36829     36832     36833
     36831     36829     36832     36834     36831     36829     36832     36835
     36832     36835     36838     36839     36832     36835     36838     36840
     36832     36835     36838     36841     36833     36832     36835     36836
     36833     36832     36835     36837     36833     36832     36835     36838
     36834     36832     36835     36836     36834     36832     36835     36837
     36834     36832     36835     36838     36835     36838     36841     36842
     36835     36838     36841     36843     36835     36838     36841     36844
     36836     36835     36838     36839     36836     36835     36838     36840
     36836     36835     36838     36841     36837     36835     36838     36839
     36837     36835     36838     36840     36837     36835     36838     36841
     36838     36841     36844     36845     36838     36841     36844     36846
     36838     36841     36844     36847     36839     36838     36841     36842
     36839     36838     36841     36843     36839     36838     36841     36844
     36840     36838     36841     36842     36840     36838     36841     36843
     36840     36838     36841     36844     36841     36844     36847     36848
     36841     36844     36847     36849     36841     36844     36847     36850
     36842     36841     36844     36845     36842     36841     36844     36846
     36842     36841     36844     36847     36843     36841     36844     36845
     36843     36841     36844     36846     36843     36841     36844     36847
     36845     36844     36847     36848     36845     36844     36847     36849
     36845     36844     36847     36850     36846     36844     36847     36848
     36846     36844     36847     36849     36846     36844     36847     36850
     36851     36852     36867     36868     36851     36852     36867     36869
     36851     36852     36867     36873     36852     36851     36855     36856
     36852     36851     36855     36857     36852     36851     36855     36858
     36852     36851     36859     36860     36852     36851     36859     36861
     36852     36851     36859     36862     36852     36851     36863     36864
     36852     36851     36863     36865     36852     36851     36863     36866
     36852     36867     36873     36870     36853     36852     36851     36855
     36853     36852     36851     36859     36853     36852     36851     36863
     36853     36852     36867     36868     36853     36852     36867     36869
     36853     36852     36867     36873     36854     36852     36851     36855
     36854     36852     36851     36859     36854     36852     36851     36863
     36854     36852     36867     36868     36854     36852     36867     36869
     36854     36852     36867     36873     36855     36851     36852     36867
     36855     36851     36859     36860     36855     36851     36859     36861
     36855     36851     36859     36862     36855     36851     36863     36864
     36855     36851     36863     36865     36855     36851     36863     36866
     36856     36855     36851     36859     36856     36855     36851     36863
     36857     36855     36851     36859     36857     36855     36851     36863
     36858     36855     36851     36859     36858     36855     36851     36863
     36859     36851     36852     36867     36859     36851     36863     36864
     36859     36851     36863     36865     36859     36851     36863     36866
     36860     36859     36851     36863     36861     36859     36851     36863
     36862     36859     36851     36863     36863     36851     36852     36867
     36867     36873     36870     36871     36867     36873     36870     36872
     36867     36873     36870     36874     36868     36867     36873     36870
     36869     36867     36873     36870     36870     36874     36875     36876
     36870     36874     36875     36877     36870     36874     36875     36878
     36871     36870     36874     36875     36872     36870     36874     36875
     36873     36870     36874     36875     36874     36875     36878     36879
     36874     36875     36878     36880     36874     36875     36878     36886
     36875     36878     36880     36881     36875     36878     36886     36887
     36875     36878     36886     36888     36875     36878     36886     36889
     36876     36875     36878     36879     36876     36875     36878     36880
     36876     36875     36878     36886     36877     36875     36878     36879
     36877     36875     36878     36880     36877     36875     36878     36886
     36878     36880     36881     36882     36878     36880     36881     36883
     36878     36886     36889     36890     36879     36878     36880     36881
     36879     36878     36886     36887     36879     36878     36886     36888
     36879     36878     36886     36889     36880     36878     36886     36887
     36880     36878     36886     36888     36880     36878     36886     36889
     36880     36881     36883     36884     36880     36881     36883     36885
     36880     36881     36883     36895     36881     36880     36878     36886
     36881     36883     36895     36896     36881     36883     36895     36897
     36881     36883     36895     36898     36882     36881     36883     36884
     36882     36881     36883     36885     36882     36881     36883     36895
     36883     36895     36898     36899     36883     36895     36898     36900
     36883     36895     36898     36901     36884     36883     36895     36896
     36884     36883     36895     36897     36884     36883     36895     36898
     36885     36883     36895     36896     36885     36883     36895     36897
     36885     36883     36895     36898     36886     36889     36890     36891
     36886     36889     36890     36892     36887     36886     36889     36890
     36888     36886     36889     36890     36889     36890     36892     36893
     36889     36890     36892     36894     36889     36890     36892     36942
     36890     36892     36942     36943     36890     36892     36942     36944
     36890     36892     36942     36945     36891     36890     36892     36893
     36891     36890     36892     36894     36891     36890     36892     36942
     36892     36942     36945     36946     36892     36942     36945     36947
     36892     36942     36945     36948     36893     36892     36942     36943
     36893     36892     36942     36944     36893     36892     36942     36945
     36894     36892     36942     36943     36894     36892     36942     36944
     36894     36892     36942     36945     36895     36898     36901     36902
     36895     36898     36901     36903     36895     36898     36901     36904
     36896     36895     36898     36899     36896     36895     36898     36900
     36896     36895     36898     36901     36897     36895     36898     36899
     36897     36895     36898     36900     36897     36895     36898     36901
     36898     36901     36904     36905     36898     36901     36904     36906
     36898     36901     36904     36907     36899     36898     36901     36902
     36899     36898     36901     36903     36899     36898     36901     36904
     36900     36898     36901     36902     36900     36898     36901     36903
     36900     36898     36901     36904     36901     36904     36907     36908
     36901     36904     36907     36909     36901     36904     36907     36910
     36902     36901     36904     36905     36902     36901     36904     36906
     36902     36901     36904     36907     36903     36901     36904     36905
     36903     36901     36904     36906     36903     36901     36904     36907
     36904     36907     36910     36911     36904     36907     36910     36912
     36904     36907     36910     36913     36905     36904     36907     36908
     36905     36904     36907     36909     36905     36904     36907     36910
     36906     36904     36907     36908     36906     36904     36907     36909
     36906     36904     36907     36910     36907     36910     36913     36914
     36907     36910     36913     36915     36908     36907     36910     36911
     36908     36907     36910     36912     36908     36907     36910     36913
     36909     36907     36910     36911     36909     36907     36910     36912
     36909     36907     36910     36913     36910     36913     36915     36916
     36910     36913     36915     36917     36911     36910     36913     36914
     36911     36910     36913     36915     36912     36910     36913     36914
     36912     36910     36913     36915     36913     36915     36917     36918
     36913     36915     36917     36919     36913     36915     36917     36920
     36914     36913     36915     36916     36914     36913     36915     36917
     36915     36917     36920     36921     36915     36917     36920     36922
     36915     36917     36920     36923     36916     36915     36917     36918
     36916     36915     36917     36919     36916     36915     36917     36920
     36917     36920     36923     36924     36917     36920     36923     36925
     36917     36920     36923     36926     36918     36917     36920     36921
     36918     36917     36920     36922     36918     36917     36920     36923
     36919     36917     36920     36921     36919     36917     36920     36922
     36919     36917     36920     36923     36920     36923     36926     36927
     36920     36923     36926     36928     36920     36923     36926     36929
     36921     36920     36923     36924     36921     36920     36923     36925
     36921     36920     36923     36926     36922     36920     36923     36924
     36922     36920     36923     36925     36922     36920     36923     36926
     36923     36926     36929     36930     36923     36926     36929     36931
     36923     36926     36929     36932     36924     36923     36926     36927
     36924     36923     36926     36928     36924     36923     36926     36929
     36925     36923     36926     36927     36925     36923     36926     36928
     36925     36923     36926     36929     36926     36929     36932     36933
     36926     36929     36932     36934     36926     36929     36932     36935
     36927     36926     36929     36930     36927     36926     36929     36931
     36927     36926     36929     36932     36928     36926     36929     36930
     36928     36926     36929     36931     36928     36926     36929     36932
     36929     36932     36935     36936     36929     36932     36935     36937
     36929     36932     36935     36938     36930     36929     36932     36933
     36930     36929     36932     36934     36930     36929     36932     36935
     36931     36929     36932     36933     36931     36929     36932     36934
     36931     36929     36932     36935     36932     36935     36938     36939
     36932     36935     36938     36940     36932     36935     36938     36941
     36933     36932     36935     36936     36933     36932     36935     36937
     36933     36932     36935     36938     36934     36932     36935     36936
     36934     36932     36935     36937     36934     36932     36935     36938
     36936     36935     36938     36939     36936     36935     36938     36940
     36936     36935     36938     36941     36937     36935     36938     36939
     36937     36935     36938     36940     36937     36935     36938     36941
     36942     36945     36948     36949     36942     36945     36948     36950
     36942     36945     36948     36951     36943     36942     36945     36946
     36943     36942     36945     36947     36943     36942     36945     36948
     36944     36942     36945     36946     36944     36942     36945     36947
     36944     36942     36945     36948     36945     36948     36951     36952
     36945     36948     36951     36953     36945     36948     36951     36954
     36946     36945     36948     36949     36946     36945     36948     36950
     36946     36945     36948     36951     36947     36945     36948     36949
     36947     36945     36948     36950     36947     36945     36948     36951
     36948     36951     36954     36955     36948     36951     36954     36956
     36948     36951     36954     36957     36949     36948     36951     36952
     36949     36948     36951     36953     36949     36948     36951     36954
     36950     36948     36951     36952     36950     36948     36951     36953
     36950     36948     36951     36954     36951     36954     36957     36958
     36951     36954     36957     36959     36951     36954     36957     36960
     36952     36951     36954     36955     36952     36951     36954     36956
     36952     36951     36954     36957     36953     36951     36954     36955
     36953     36951     36954     36956     36953     36951     36954     36957
     36954     36957     36960     36961     36954     36957     36960     36962
     36954     36957     36960     36963     36955     36954     36957     36958
     36955     36954     36957     36959     36955     36954     36957     36960
     36956     36954     36957     36958     36956     36954     36957     36959
     36956     36954     36957     36960     36957     36960     36963     36964
     36957     36960     36963     36965     36957     36960     36963     36966
     36958     36957     36960     36961     36958     36957     36960     36962
     36958     36957     36960     36963     36959     36957     36960     36961
     36959     36957     36960     36962     36959     36957     36960     36963
     36960     36963     36966     36967     36960     36963     36966     36968
     36960     36963     36966     36969     36961     36960     36963     36964
     36961     36960     36963     36965     36961     36960     36963     36966
     36962     36960     36963     36964     36962     36960     36963     36965
     36962     36960     36963     36966     36963     36966     36969     36970
     36963     36966     36969     36971     36963     36966     36969     36972
     36964     36963     36966     36967     36964     36963     36966     36968
     36964     36963     36966     36969     36965     36963     36966     36967
     36965     36963     36966     36968     36965     36963     36966     36969
     36966     36969     36972     36973     36966     36969     36972     36974
     36966     36969     36972     36975     36967     36966     36969     36970
     36967     36966     36969     36971     36967     36966     36969     36972
     36968     36966     36969     36970     36968     36966     36969     36971
     36968     36966     36969     36972     36969     36972     36975     36976
     36969     36972     36975     36977     36969     36972     36975     36978
     36970     36969     36972     36973     36970     36969     36972     36974
     36970     36969     36972     36975     36971     36969     36972     36973
     36971     36969     36972     36974     36971     36969     36972     36975
     36972     36975     36978     36979     36972     36975     36978     36980
     36972     36975     36978     36981     36973     36972     36975     36976
     36973     36972     36975     36977     36973     36972     36975     36978
     36974     36972     36975     36976     36974     36972     36975     36977
     36974     36972     36975     36978     36975     36978     36981     36982
     36975     36978     36981     36983     36975     36978     36981     36984
     36976     36975     36978     36979     36976     36975     36978     36980
     36976     36975     36978     36981     36977     36975     36978     36979
     36977     36975     36978     36980     36977     36975     36978     36981
     36979     36978     36981     36982     36979     36978     36981     36983
     36979     36978     36981     36984     36980     36978     36981     36982
     36980     36978     36981     36983     36980     36978     36981     36984
     36985     36986     37001     37002     36985     36986     37001     37003
     36985     36986     37001     37007     36986     36985     36989     36990
     36986     36985     36989     36991     36986     36985     36989     36992
     36986     36985     36993     36994     36986     36985     36993     36995
     36986     36985     36993     36996     36986     36985     36997     36998
     36986     36985     36997     36999     36986     36985     36997     37000
     36986     37001     37007     37004     36987     36986     36985     36989
     36987     36986     36985     36993     36987     36986     36985     36997
     36987     36986     37001     37002     36987     36986     37001     37003
     36987     36986     37001     37007     36988     36986     36985     36989
     36988     36986     36985     36993     36988     36986     36985     36997
     36988     36986     37001     37002     36988     36986     37001     37003
     36988     36986     37001     37007     36989     36985     36986     37001
     36989     36985     36993     36994     36989     36985     36993     36995
     36989     36985     36993     36996     36989     36985     36997     36998
     36989     36985     36997     36999     36989     36985     36997     37000
     36990     36989     36985     36993     36990     36989     36985     36997
     36991     36989     36985     36993     36991     36989     36985     36997
     36992     36989     36985     36993     36992     36989     36985     36997
     36993     36985     36986     37001     36993     36985     36997     36998
     36993     36985     36997     36999     36993     36985     36997     37000
     36994     36993     36985     36997     36995     36993     36985     36997
     36996     36993     36985     36997     36997     36985     36986     37001
     37001     37007     37004     37005     37001     37007     37004     37006
     37001     37007     37004     37008     37002     37001     37007     37004
     37003     37001     37007     37004     37004     37008     37009     37010
     37004     37008     37009     37011     37004     37008     37009     37012
     37005     37004     37008     37009     37006     37004     37008     37009
     37007     37004     37008     37009     37008     37009     37012     37013
     37008     37009     37012     37014     37008     37009     37012     37020
     37009     37012     37014     37015     37009     37012     37020     37021
     37009     37012     37020     37022     37009     37012     37020     37023
     37010     37009     37012     37013     37010     37009     37012     37014
     37010     37009     37012     37020     37011     37009     37012     37013
     37011     37009     37012     37014     37011     37009     37012     37020
     37012     37014     37015     37016     37012     37014     37015     37017
     37012     37020     37023     37024     37013     37012     37014     37015
     37013     37012     37020     37021     37013     37012     37020     37022
     37013     37012     37020     37023     37014     37012     37020     37021
     37014     37012     37020     37022     37014     37012     37020     37023
     37014     37015     37017     37018     37014     37015     37017     37019
     37014     37015     37017     37029     37015     37014     37012     37020
     37015     37017     37029     37030     37015     37017     37029     37031
     37015     37017     37029     37032     37016     37015     37017     37018
     37016     37015     37017     37019     37016     37015     37017     37029
     37017     37029     37032     37033     37017     37029     37032     37034
     37017     37029     37032     37035     37018     37017     37029     37030
     37018     37017     37029     37031     37018     37017     37029     37032
     37019     37017     37029     37030     37019     37017     37029     37031
     37019     37017     37029     37032     37020     37023     37024     37025
     37020     37023     37024     37026     37021     37020     37023     37024
     37022     37020     37023     37024     37023     37024     37026     37027
     37023     37024     37026     37028     37023     37024     37026     37076
     37024     37026     37076     37077     37024     37026     37076     37078
     37024     37026     37076     37079     37025     37024     37026     37027
     37025     37024     37026     37028     37025     37024     37026     37076
     37026     37076     37079     37080     37026     37076     37079     37081
     37026     37076     37079     37082     37027     37026     37076     37077
     37027     37026     37076     37078     37027     37026     37076     37079
     37028     37026     37076     37077     37028     37026     37076     37078
     37028     37026     37076     37079     37029     37032     37035     37036
     37029     37032     37035     37037     37029     37032     37035     37038
     37030     37029     37032     37033     37030     37029     37032     37034
     37030     37029     37032     37035     37031     37029     37032     37033
     37031     37029     37032     37034     37031     37029     37032     37035
     37032     37035     37038     37039     37032     37035     37038     37040
     37032     37035     37038     37041     37033     37032     37035     37036
     37033     37032     37035     37037     37033     37032     37035     37038
     37034     37032     37035     37036     37034     37032     37035     37037
     37034     37032     37035     37038     37035     37038     37041     37042
     37035     37038     37041     37043     37035     37038     37041     37044
     37036     37035     37038     37039     37036     37035     37038     37040
     37036     37035     37038     37041     37037     37035     37038     37039
     37037     37035     37038     37040     37037     37035     37038     37041
     37038     37041     37044     37045     37038     37041     37044     37046
     37038     37041     37044     37047     37039     37038     37041     37042
     37039     37038     37041     37043     37039     37038     37041     37044
     37040     37038     37041     37042     37040     37038     37041     37043
     37040     37038     37041     37044     37041     37044     37047     37048
     37041     37044     37047     37049     37042     37041     37044     37045
     37042     37041     37044     37046     37042     37041     37044     37047
     37043     37041     37044     37045     37043     37041     37044     37046
     37043     37041     37044     37047     37044     37047     37049     37050
     37044     37047     37049     37051     37045     37044     37047     37048
     37045     37044     37047     37049     37046     37044     37047     37048
     37046     37044     37047     37049     37047     37049     37051     37052
     37047     37049     37051     37053     37047     37049     37051     37054
     37048     37047     37049     37050     37048     37047     37049     37051
     37049     37051     37054     37055     37049     37051     37054     37056
     37049     37051     37054     37057     37050     37049     37051     37052
     37050     37049     37051     37053     37050     37049     37051     37054
     37051     37054     37057     37058     37051     37054     37057     37059
     37051     37054     37057     37060     37052     37051     37054     37055
     37052     37051     37054     37056     37052     37051     37054     37057
     37053     37051     37054     37055     37053     37051     37054     37056
     37053     37051     37054     37057     37054     37057     37060     37061
     37054     37057     37060     37062     37054     37057     37060     37063
     37055     37054     37057     37058     37055     37054     37057     37059
     37055     37054     37057     37060     37056     37054     37057     37058
     37056     37054     37057     37059     37056     37054     37057     37060
     37057     37060     37063     37064     37057     37060     37063     37065
     37057     37060     37063     37066     37058     37057     37060     37061
     37058     37057     37060     37062     37058     37057     37060     37063
     37059     37057     37060     37061     37059     37057     37060     37062
     37059     37057     37060     37063     37060     37063     37066     37067
     37060     37063     37066     37068     37060     37063     37066     37069
     37061     37060     37063     37064     37061     37060     37063     37065
     37061     37060     37063     37066     37062     37060     37063     37064
     37062     37060     37063     37065     37062     37060     37063     37066
     37063     37066     37069     37070     37063     37066     37069     37071
     37063     37066     37069     37072     37064     37063     37066     37067
     37064     37063     37066     37068     37064     37063     37066     37069
     37065     37063     37066     37067     37065     37063     37066     37068
     37065     37063     37066     37069     37066     37069     37072     37073
     37066     37069     37072     37074     37066     37069     37072     37075
     37067     37066     37069     37070     37067     37066     37069     37071
     37067     37066     37069     37072     37068     37066     37069     37070
     37068     37066     37069     37071     37068     37066     37069     37072
     37070     37069     37072     37073     37070     37069     37072     37074
     37070     37069     37072     37075     37071     37069     37072     37073
     37071     37069     37072     37074     37071     37069     37072     37075
     37076     37079     37082     37083     37076     37079     37082     37084
     37076     37079     37082     37085     37077     37076     37079     37080
     37077     37076     37079     37081     37077     37076     37079     37082
     37078     37076     37079     37080     37078     37076     37079     37081
     37078     37076     37079     37082     37079     37082     37085     37086
     37079     37082     37085     37087     37079     37082     37085     37088
     37080     37079     37082     37083     37080     37079     37082     37084
     37080     37079     37082     37085     37081     37079     37082     37083
     37081     37079     37082     37084     37081     37079     37082     37085
     37082     37085     37088     37089     37082     37085     37088     37090
     37082     37085     37088     37091     37083     37082     37085     37086
     37083     37082     37085     37087     37083     37082     37085     37088
     37084     37082     37085     37086     37084     37082     37085     37087
     37084     37082     37085     37088     37085     37088     37091     37092
     37085     37088     37091     37093     37085     37088     37091     37094
     37086     37085     37088     37089     37086     37085     37088     37090
     37086     37085     37088     37091     37087     37085     37088     37089
     37087     37085     37088     37090     37087     37085     37088     37091
     37088     37091     37094     37095     37088     37091     37094     37096
     37088     37091     37094     37097     37089     37088     37091     37092
     37089     37088     37091     37093     37089     37088     37091     37094
     37090     37088     37091     37092     37090     37088     37091     37093
     37090     37088     37091     37094     37091     37094     37097     37098
     37091     37094     37097     37099     37091     37094     37097     37100
     37092     37091     37094     37095     37092     37091     37094     37096
     37092     37091     37094     37097     37093     37091     37094     37095
     37093     37091     37094     37096     37093     37091     37094     37097
     37094     37097     37100     37101     37094     37097     37100     37102
     37094     37097     37100     37103     37095     37094     37097     37098
     37095     37094     37097     37099     37095     37094     37097     37100
     37096     37094     37097     37098     37096     37094     37097     37099
     37096     37094     37097     37100     37097     37100     37103     37104
     37097     37100     37103     37105     37097     37100     37103     37106
     37098     37097     37100     37101     37098     37097     37100     37102
     37098     37097     37100     37103     37099     37097     37100     37101
     37099     37097     37100     37102     37099     37097     37100     37103
     37100     37103     37106     37107     37100     37103     37106     37108
     37100     37103     37106     37109     37101     37100     37103     37104
     37101     37100     37103     37105     37101     37100     37103     37106
     37102     37100     37103     37104     37102     37100     37103     37105
     37102     37100     37103     37106     37103     37106     37109     37110
     37103     37106     37109     37111     37103     37106     37109     37112
     37104     37103     37106     37107     37104     37103     37106     37108
     37104     37103     37106     37109     37105     37103     37106     37107
     37105     37103     37106     37108     37105     37103     37106     37109
     37106     37109     37112     37113     37106     37109     37112     37114
     37106     37109     37112     37115     37107     37106     37109     37110
     37107     37106     37109     37111     37107     37106     37109     37112
     37108     37106     37109     37110     37108     37106     37109     37111
     37108     37106     37109     37112     37109     37112     37115     37116
     37109     37112     37115     37117     37109     37112     37115     37118
     37110     37109     37112     37113     37110     37109     37112     37114
     37110     37109     37112     37115     37111     37109     37112     37113
     37111     37109     37112     37114     37111     37109     37112     37115
     37113     37112     37115     37116     37113     37112     37115     37117
     37113     37112     37115     37118     37114     37112     37115     37116
     37114     37112     37115     37117     37114     37112     37115     37118
     37119     37120     37135     37136     37119     37120     37135     37137
     37119     37120     37135     37141     37120     37119     37123     37124
     37120     37119     37123     37125     37120     37119     37123     37126
     37120     37119     37127     37128     37120     37119     37127     37129
     37120     37119     37127     37130     37120     37119     37131     37132
     37120     37119     37131     37133     37120     37119     37131     37134
     37120     37135     37141     37138     37121     37120     37119     37123
     37121     37120     37119     37127     37121     37120     37119     37131
     37121     37120     37135     37136     37121     37120     37135     37137
     37121     37120     37135     37141     37122     37120     37119     37123
     37122     37120     37119     37127     37122     37120     37119     37131
     37122     37120     37135     37136     37122     37120     37135     37137
     37122     37120     37135     37141     37123     37119     37120     37135
     37123     37119     37127     37128     37123     37119     37127     37129
     37123     37119     37127     37130     37123     37119     37131     37132
     37123     37119     37131     37133     37123     37119     37131     37134
     37124     37123     37119     37127     37124     37123     37119     37131
     37125     37123     37119     37127     37125     37123     37119     37131
     37126     37123     37119     37127     37126     37123     37119     37131
     37127     37119     37120     37135     37127     37119     37131     37132
     37127     37119     37131     37133     37127     37119     37131     37134
     37128     37127     37119     37131     37129     37127     37119     37131
     37130     37127     37119     37131     37131     37119     37120     37135
     37135     37141     37138     37139     37135     37141     37138     37140
     37135     37141     37138     37142     37136     37135     37141     37138
     37137     37135     37141     37138     37138     37142     37143     37144
     37138     37142     37143     37145     37138     37142     37143     37146
     37139     37138     37142     37143     37140     37138     37142     37143
     37141     37138     37142     37143     37142     37143     37146     37147
     37142     37143     37146     37148     37142     37143     37146     37154
     37143     37146     37148     37149     37143     37146     37154     37155
     37143     37146     37154     37156     37143     37146     37154     37157
     37144     37143     37146     37147     37144     37143     37146     37148
     37144     37143     37146     37154     37145     37143     37146     37147
     37145     37143     37146     37148     37145     37143     37146     37154
     37146     37148     37149     37150     37146     37148     37149     37151
     37146     37154     37157     37158     37147     37146     37148     37149
     37147     37146     37154     37155     37147     37146     37154     37156
     37147     37146     37154     37157     37148     37146     37154     37155
     37148     37146     37154     37156     37148     37146     37154     37157
     37148     37149     37151     37152     37148     37149     37151     37153
     37148     37149     37151     37163     37149     37148     37146     37154
     37149     37151     37163     37164     37149     37151     37163     37165
     37149     37151     37163     37166     37150     37149     37151     37152
     37150     37149     37151     37153     37150     37149     37151     37163
     37151     37163     37166     37167     37151     37163     37166     37168
     37151     37163     37166     37169     37152     37151     37163     37164
     37152     37151     37163     37165     37152     37151     37163     37166
     37153     37151     37163     37164     37153     37151     37163     37165
     37153     37151     37163     37166     37154     37157     37158     37159
     37154     37157     37158     37160     37155     37154     37157     37158
     37156     37154     37157     37158     37157     37158     37160     37161
     37157     37158     37160     37162     37157     37158     37160     37210
     37158     37160     37210     37211     37158     37160     37210     37212
     37158     37160     37210     37213     37159     37158     37160     37161
     37159     37158     37160     37162     37159     37158     37160     37210
     37160     37210     37213     37214     37160     37210     37213     37215
     37160     37210     37213     37216     37161     37160     37210     37211
     37161     37160     37210     37212     37161     37160     37210     37213
     37162     37160     37210     37211     37162     37160     37210     37212
     37162     37160     37210     37213     37163     37166     37169     37170
     37163     37166     37169     37171     37163     37166     37169     37172
     37164     37163     37166     37167     37164     37163     37166     37168
     37164     37163     37166     37169     37165     37163     37166     37167
     37165     37163     37166     37168     37165     37163     37166     37169
     37166     37169     37172     37173     37166     37169     37172     37174
     37166     37169     37172     37175     37167     37166     37169     37170
     37167     37166     37169     37171     37167     37166     37169     37172
     37168     37166     37169     37170     37168     37166     37169     37171
     37168     37166     37169     37172     37169     37172     37175     37176
     37169     37172     37175     37177     37169     37172     37175     37178
     37170     37169     37172     37173     37170     37169     37172     37174
     37170     37169     37172     37175     37171     37169     37172     37173
     37171     37169     37172     37174     37171     37169     37172     37175
     37172     37175     37178     37179     37172     37175     37178     37180
     37172     37175     37178     37181     37173     37172     37175     37176
     37173     37172     37175     37177     37173     37172     37175     37178
     37174     37172     37175     37176     37174     37172     37175     37177
     37174     37172     37175     37178     37175     37178     37181     37182
     37175     37178     37181     37183     37176     37175     37178     37179
     37176     37175     37178     37180     37176     37175     37178     37181
     37177     37175     37178     37179     37177     37175     37178     37180
     37177     37175     37178     37181     37178     37181     37183     37184
     37178     37181     37183     37185     37179     37178     37181     37182
     37179     37178     37181     37183     37180     37178     37181     37182
     37180     37178     37181     37183     37181     37183     37185     37186
     37181     37183     37185     37187     37181     37183     37185     37188
     37182     37181     37183     37184     37182     37181     37183     37185
     37183     37185     37188     37189     37183     37185     37188     37190
     37183     37185     37188     37191     37184     37183     37185     37186
     37184     37183     37185     37187     37184     37183     37185     37188
     37185     37188     37191     37192     37185     37188     37191     37193
     37185     37188     37191     37194     37186     37185     37188     37189
     37186     37185     37188     37190     37186     37185     37188     37191
     37187     37185     37188     37189     37187     37185     37188     37190
     37187     37185     37188     37191     37188     37191     37194     37195
     37188     37191     37194     37196     37188     37191     37194     37197
     37189     37188     37191     37192     37189     37188     37191     37193
     37189     37188     37191     37194     37190     37188     37191     37192
     37190     37188     37191     37193     37190     37188     37191     37194
     37191     37194     37197     37198     37191     37194     37197     37199
     37191     37194     37197     37200     37192     37191     37194     37195
     37192     37191     37194     37196     37192     37191     37194     37197
     37193     37191     37194     37195     37193     37191     37194     37196
     37193     37191     37194     37197     37194     37197     37200     37201
     37194     37197     37200     37202     37194     37197     37200     37203
     37195     37194     37197     37198     37195     37194     37197     37199
     37195     37194     37197     37200     37196     37194     37197     37198
     37196     37194     37197     37199     37196     37194     37197     37200
     37197     37200     37203     37204     37197     37200     37203     37205
     37197     37200     37203     37206     37198     37197     37200     37201
     37198     37197     37200     37202     37198     37197     37200     37203
     37199     37197     37200     37201     37199     37197     37200     37202
     37199     37197     37200     37203     37200     37203     37206     37207
     37200     37203     37206     37208     37200     37203     37206     37209
     37201     37200     37203     37204     37201     37200     37203     37205
     37201     37200     37203     37206     37202     37200     37203     37204
     37202     37200     37203     37205     37202     37200     37203     37206
     37204     37203     37206     37207     37204     37203     37206     37208
     37204     37203     37206     37209     37205     37203     37206     37207
     37205     37203     37206     37208     37205     37203     37206     37209
     37210     37213     37216     37217     37210     37213     37216     37218
     37210     37213     37216     37219     37211     37210     37213     37214
     37211     37210     37213     37215     37211     37210     37213     37216
     37212     37210     37213     37214     37212     37210     37213     37215
     37212     37210     37213     37216     37213     37216     37219     37220
     37213     37216     37219     37221     37213     37216     37219     37222
     37214     37213     37216     37217     37214     37213     37216     37218
     37214     37213     37216     37219     37215     37213     37216     37217
     37215     37213     37216     37218     37215     37213     37216     37219
     37216     37219     37222     37223     37216     37219     37222     37224
     37216     37219     37222     37225     37217     37216     37219     37220
     37217     37216     37219     37221     37217     37216     37219     37222
     37218     37216     37219     37220     37218     37216     37219     37221
     37218     37216     37219     37222     37219     37222     37225     37226
     37219     37222     37225     37227     37219     37222     37225     37228
     37220     37219     37222     37223     37220     37219     37222     37224
     37220     37219     37222     37225     37221     37219     37222     37223
     37221     37219     37222     37224     37221     37219     37222     37225
     37222     37225     37228     37229     37222     37225     37228     37230
     37222     37225     37228     37231     37223     37222     37225     37226
     37223     37222     37225     37227     37223     37222     37225     37228
     37224     37222     37225     37226     37224     37222     37225     37227
     37224     37222     37225     37228     37225     37228     37231     37232
     37225     37228     37231     37233     37225     37228     37231     37234
     37226     37225     37228     37229     37226     37225     37228     37230
     37226     37225     37228     37231     37227     37225     37228     37229
     37227     37225     37228     37230     37227     37225     37228     37231
     37228     37231     37234     37235     37228     37231     37234     37236
     37228     37231     37234     37237     37229     37228     37231     37232
     37229     37228     37231     37233     37229     37228     37231     37234
     37230     37228     37231     37232     37230     37228     37231     37233
     37230     37228     37231     37234     37231     37234     37237     37238
     37231     37234     37237     37239     37231     37234     37237     37240
     37232     37231     37234     37235     37232     37231     37234     37236
     37232     37231     37234     37237     37233     37231     37234     37235
     37233     37231     37234     37236     37233     37231     37234     37237
     37234     37237     37240     37241     37234     37237     37240     37242
     37234     37237     37240     37243     37235     37234     37237     37238
     37235     37234     37237     37239     37235     37234     37237     37240
     37236     37234     37237     37238     37236     37234     37237     37239
     37236     37234     37237     37240     37237     37240     37243     37244
     37237     37240     37243     37245     37237     37240     37243     37246
     37238     37237     37240     37241     37238     37237     37240     37242
     37238     37237     37240     37243     37239     37237     37240     37241
     37239     37237     37240     37242     37239     37237     37240     37243
     37240     37243     37246     37247     37240     37243     37246     37248
     37240     37243     37246     37249     37241     37240     37243     37244
     37241     37240     37243     37245     37241     37240     37243     37246
     37242     37240     37243     37244     37242     37240     37243     37245
     37242     37240     37243     37246     37243     37246     37249     37250
     37243     37246     37249     37251     37243     37246     37249     37252
     37244     37243     37246     37247     37244     37243     37246     37248
     37244     37243     37246     37249     37245     37243     37246     37247
     37245     37243     37246     37248     37245     37243     37246     37249
     37247     37246     37249     37250     37247     37246     37249     37251
     37247     37246     37249     37252     37248     37246     37249     37250
     37248     37246     37249     37251     37248     37246     37249     37252
     37253     37254     37269     37270     37253     37254     37269     37271
     37253     37254     37269     37275     37254     37253     37257     37258
     37254     37253     37257     37259     37254     37253     37257     37260
     37254     37253     37261     37262     37254     37253     37261     37263
     37254     37253     37261     37264     37254     37253     37265     37266
     37254     37253     37265     37267     37254     37253     37265     37268
     37254     37269     37275     37272     37255     37254     37253     37257
     37255     37254     37253     37261     37255     37254     37253     37265
     37255     37254     37269     37270     37255     37254     37269     37271
     37255     37254     37269     37275     37256     37254     37253     37257
     37256     37254     37253     37261     37256     37254     37253     37265
     37256     37254     37269     37270     37256     37254     37269     37271
     37256     37254     37269     37275     37257     37253     37254     37269
     37257     37253     37261     37262     37257     37253     37261     37263
     37257     37253     37261     37264     37257     37253     37265     37266
     37257     37253     37265     37267     37257     37253     37265     37268
     37258     37257     37253     37261     37258     37257     37253     37265
     37259     37257     37253     37261     37259     37257     37253     37265
     37260     37257     37253     37261     37260     37257     37253     37265
     37261     37253     37254     37269     37261     37253     37265     37266
     37261     37253     37265     37267     37261     37253     37265     37268
     37262     37261     37253     37265     37263     37261     37253     37265
     37264     37261     37253     37265     37265     37253     37254     37269
     37269     37275     37272     37273     37269     37275     37272     37274
     37269     37275     37272     37276     37270     37269     37275     37272
     37271     37269     37275     37272     37272     37276     37277     37278
     37272     37276     37277     37279     37272     37276     37277     37280
     37273     37272     37276     37277     37274     37272     37276     37277
     37275     37272     37276     37277     37276     37277     37280     37281
     37276     37277     37280     37282     37276     37277     37280     37288
     37277     37280     37282     37283     37277     37280     37288     37289
     37277     37280     37288     37290     37277     37280     37288     37291
     37278     37277     37280     37281     37278     37277     37280     37282
     37278     37277     37280     37288     37279     37277     37280     37281
     37279     37277     37280     37282     37279     37277     37280     37288
     37280     37282     37283     37284     37280     37282     37283     37285
     37280     37288     37291     37292     37281     37280     37282     37283
     37281     37280     37288     37289     37281     37280     37288     37290
     37281     37280     37288     37291     37282     37280     37288     37289
     37282     37280     37288     37290     37282     37280     37288     37291
     37282     37283     37285     37286     37282     37283     37285     37287
     37282     37283     37285     37297     37283     37282     37280     37288
     37283     37285     37297     37298     37283     37285     37297     37299
     37283     37285     37297     37300     37284     37283     37285     37286
     37284     37283     37285     37287     37284     37283     37285     37297
     37285     37297     37300     37301     37285     37297     37300     37302
     37285     37297     37300     37303     37286     37285     37297     37298
     37286     37285     37297     37299     37286     37285     37297     37300
     37287     37285     37297     37298     37287     37285     37297     37299
     37287     37285     37297     37300     37288     37291     37292     37293
     37288     37291     37292     37294     37289     37288     37291     37292
     37290     37288     37291     37292     37291     37292     37294     37295
     37291     37292     37294     37296     37291     37292     37294     37344
     37292     37294     37344     37345     37292     37294     37344     37346
     37292     37294     37344     37347     37293     37292     37294     37295
     37293     37292     37294     37296     37293     37292     37294     37344
     37294     37344     37347     37348     37294     37344     37347     37349
     37294     37344     37347     37350     37295     37294     37344     37345
     37295     37294     37344     37346     37295     37294     37344     37347
     37296     37294     37344     37345     37296     37294     37344     37346
     37296     37294     37344     37347     37297     37300     37303     37304
     37297     37300     37303     37305     37297     37300     37303     37306
     37298     37297     37300     37301     37298     37297     37300     37302
     37298     37297     37300     37303     37299     37297     37300     37301
     37299     37297     37300     37302     37299     37297     37300     37303
     37300     37303     37306     37307     37300     37303     37306     37308
     37300     37303     37306     37309     37301     37300     37303     37304
     37301     37300     37303     37305     37301     37300     37303     37306
     37302     37300     37303     37304     37302     37300     37303     37305
     37302     37300     37303     37306     37303     37306     37309     37310
     37303     37306     37309     37311     37303     37306     37309     37312
     37304     37303     37306     37307     37304     37303     37306     37308
     37304     37303     37306     37309     37305     37303     37306     37307
     37305     37303     37306     37308     37305     37303     37306     37309
     37306     37309     37312     37313     37306     37309     37312     37314
     37306     37309     37312     37315     37307     37306     37309     37310
     37307     37306     37309     37311     37307     37306     37309     37312
     37308     37306     37309     37310     37308     37306     37309     37311
     37308     37306     37309     37312     37309     37312     37315     37316
     37309     37312     37315     37317     37310     37309     37312     37313
     37310     37309     37312     37314     37310     37309     37312     37315
     37311     37309     37312     37313     37311     37309     37312     37314
     37311     37309     37312     37315     37312     37315     37317     37318
     37312     37315     37317     37319     37313     37312     37315     37316
     37313     37312     37315     37317     37314     37312     37315     37316
     37314     37312     37315     37317     37315     37317     37319     37320
     37315     37317     37319     37321     37315     37317     37319     37322
     37316     37315     37317     37318     37316     37315     37317     37319
     37317     37319     37322     37323     37317     37319     37322     37324
     37317     37319     37322     37325     37318     37317     37319     37320
     37318     37317     37319     37321     37318     37317     37319     37322
     37319     37322     37325     37326     37319     37322     37325     37327
     37319     37322     37325     37328     37320     37319     37322     37323
     37320     37319     37322     37324     37320     37319     37322     37325
     37321     37319     37322     37323     37321     37319     37322     37324
     37321     37319     37322     37325     37322     37325     37328     37329
     37322     37325     37328     37330     37322     37325     37328     37331
     37323     37322     37325     37326     37323     37322     37325     37327
     37323     37322     37325     37328     37324     37322     37325     37326
     37324     37322     37325     37327     37324     37322     37325     37328
     37325     37328     37331     37332     37325     37328     37331     37333
     37325     37328     37331     37334     37326     37325     37328     37329
     37326     37325     37328     37330     37326     37325     37328     37331
     37327     37325     37328     37329     37327     37325     37328     37330
     37327     37325     37328     37331     37328     37331     37334     37335
     37328     37331     37334     37336     37328     37331     37334     37337
     37329     37328     37331     37332     37329     37328     37331     37333
     37329     37328     37331     37334     37330     37328     37331     37332
     37330     37328     37331     37333     37330     37328     37331     37334
     37331     37334     37337     37338     37331     37334     37337     37339
     37331     37334     37337     37340     37332     37331     37334     37335
     37332     37331     37334     37336     37332     37331     37334     37337
     37333     37331     37334     37335     37333     37331     37334     37336
     37333     37331     37334     37337     37334     37337     37340     37341
     37334     37337     37340     37342     37334     37337     37340     37343
     37335     37334     37337     37338     37335     37334     37337     37339
     37335     37334     37337     37340     37336     37334     37337     37338
     37336     37334     37337     37339     37336     37334     37337     37340
     37338     37337     37340     37341     37338     37337     37340     37342
     37338     37337     37340     37343     37339     37337     37340     37341
     37339     37337     37340     37342     37339     37337     37340     37343
     37344     37347     37350     37351     37344     37347     37350     37352
     37344     37347     37350     37353     37345     37344     37347     37348
     37345     37344     37347     37349     37345     37344     37347     37350
     37346     37344     37347     37348     37346     37344     37347     37349
     37346     37344     37347     37350     37347     37350     37353     37354
     37347     37350     37353     37355     37347     37350     37353     37356
     37348     37347     37350     37351     37348     37347     37350     37352
     37348     37347     37350     37353     37349     37347     37350     37351
     37349     37347     37350     37352     37349     37347     37350     37353
     37350     37353     37356     37357     37350     37353     37356     37358
     37350     37353     37356     37359     37351     37350     37353     37354
     37351     37350     37353     37355     37351     37350     37353     37356
     37352     37350     37353     37354     37352     37350     37353     37355
     37352     37350     37353     37356     37353     37356     37359     37360
     37353     37356     37359     37361     37353     37356     37359     37362
     37354     37353     37356     37357     37354     37353     37356     37358
     37354     37353     37356     37359     37355     37353     37356     37357
     37355     37353     37356     37358     37355     37353     37356     37359
     37356     37359     37362     37363     37356     37359     37362     37364
     37356     37359     37362     37365     37357     37356     37359     37360
     37357     37356     37359     37361     37357     37356     37359     37362
     37358     37356     37359     37360     37358     37356     37359     37361
     37358     37356     37359     37362     37359     37362     37365     37366
     37359     37362     37365     37367     37359     37362     37365     37368
     37360     37359     37362     37363     37360     37359     37362     37364
     37360     37359     37362     37365     37361     37359     37362     37363
     37361     37359     37362     37364     37361     37359     37362     37365
     37362     37365     37368     37369     37362     37365     37368     37370
     37362     37365     37368     37371     37363     37362     37365     37366
     37363     37362     37365     37367     37363     37362     37365     37368
     37364     37362     37365     37366     37364     37362     37365     37367
     37364     37362     37365     37368     37365     37368     37371     37372
     37365     37368     37371     37373     37365     37368     37371     37374
     37366     37365     37368     37369     37366     37365     37368     37370
     37366     37365     37368     37371     37367     37365     37368     37369
     37367     37365     37368     37370     37367     37365     37368     37371
     37368     37371     37374     37375     37368     37371     37374     37376
     37368     37371     37374     37377     37369     37368     37371     37372
     37369     37368     37371     37373     37369     37368     37371     37374
     37370     37368     37371     37372     37370     37368     37371     37373
     37370     37368     37371     37374     37371     37374     37377     37378
     37371     37374     37377     37379     37371     37374     37377     37380
     37372     37371     37374     37375     37372     37371     37374     37376
     37372     37371     37374     37377     37373     37371     37374     37375
     37373     37371     37374     37376     37373     37371     37374     37377
     37374     37377     37380     37381     37374     37377     37380     37382
     37374     37377     37380     37383     37375     37374     37377     37378
     37375     37374     37377     37379     37375     37374     37377     37380
     37376     37374     37377     37378     37376     37374     37377     37379
     37376     37374     37377     37380     37377     37380     37383     37384
     37377     37380     37383     37385     37377     37380     37383     37386
     37378     37377     37380     37381     37378     37377     37380     37382
     37378     37377     37380     37383     37379     37377     37380     37381
     37379     37377     37380     37382     37379     37377     37380     37383
     37381     37380     37383     37384     37381     37380     37383     37385
     37381     37380     37383     37386     37382     37380     37383     37384
     37382     37380     37383     37385     37382     37380     37383     37386
     37387     37388     37403     37404     37387     37388     37403     37405
     37387     37388     37403     37409     37388     37387     37391     37392
     37388     37387     37391     37393     37388     37387     37391     37394
     37388     37387     37395     37396     37388     37387     37395     37397
     37388     37387     37395     37398     37388     37387     37399     37400
     37388     37387     37399     37401     37388     37387     37399     37402
     37388     37403     37409     37406     37389     37388     37387     37391
     37389     37388     37387     37395     37389     37388     37387     37399
     37389     37388     37403     37404     37389     37388     37403     37405
     37389     37388     37403     37409     37390     37388     37387     37391
     37390     37388     37387     37395     37390     37388     37387     37399
     37390     37388     37403     37404     37390     37388     37403     37405
     37390     37388     37403     37409     37391     37387     37388     37403
     37391     37387     37395     37396     37391     37387     37395     37397
     37391     37387     37395     37398     37391     37387     37399     37400
     37391     37387     37399     37401     37391     37387     37399     37402
     37392     37391     37387     37395     37392     37391     37387     37399
     37393     37391     37387     37395     37393     37391     37387     37399
     37394     37391     37387     37395     37394     37391     37387     37399
     37395     37387     37388     37403     37395     37387     37399     37400
     37395     37387     37399     37401     37395     37387     37399     37402
     37396     37395     37387     37399     37397     37395     37387     37399
     37398     37395     37387     37399     37399     37387     37388     37403
     37403     37409     37406     37407     37403     37409     37406     37408
     37403     37409     37406     37410     37404     37403     37409     37406
     37405     37403     37409     37406     37406     37410     37411     37412
     37406     37410     37411     37413     37406     37410     37411     37414
     37407     37406     37410     37411     37408     37406     37410     37411
     37409     37406     37410     37411     37410     37411     37414     37415
     37410     37411     37414     37416     37410     37411     37414     37422
     37411     37414     37416     37417     37411     37414     37422     37423
     37411     37414     37422     37424     37411     37414     37422     37425
     37412     37411     37414     37415     37412     37411     37414     37416
     37412     37411     37414     37422     37413     37411     37414     37415
     37413     37411     37414     37416     37413     37411     37414     37422
     37414     37416     37417     37418     37414     37416     37417     37419
     37414     37422     37425     37426     37415     37414     37416     37417
     37415     37414     37422     37423     37415     37414     37422     37424
     37415     37414     37422     37425     37416     37414     37422     37423
     37416     37414     37422     37424     37416     37414     37422     37425
     37416     37417     37419     37420     37416     37417     37419     37421
     37416     37417     37419     37431     37417     37416     37414     37422
     37417     37419     37431     37432     37417     37419     37431     37433
     37417     37419     37431     37434     37418     37417     37419     37420
     37418     37417     37419     37421     37418     37417     37419     37431
     37419     37431     37434     37435     37419     37431     37434     37436
     37419     37431     37434     37437     37420     37419     37431     37432
     37420     37419     37431     37433     37420     37419     37431     37434
     37421     37419     37431     37432     37421     37419     37431     37433
     37421     37419     37431     37434     37422     37425     37426     37427
     37422     37425     37426     37428     37423     37422     37425     37426
     37424     37422     37425     37426     37425     37426     37428     37429
     37425     37426     37428     37430     37425     37426     37428     37478
     37426     37428     37478     37479     37426     37428     37478     37480
     37426     37428     37478     37481     37427     37426     37428     37429
     37427     37426     37428     37430     37427     37426     37428     37478
     37428     37478     37481     37482     37428     37478     37481     37483
     37428     37478     37481     37484     37429     37428     37478     37479
     37429     37428     37478     37480     37429     37428     37478     37481
     37430     37428     37478     37479     37430     37428     37478     37480
     37430     37428     37478     37481     37431     37434     37437     37438
     37431     37434     37437     37439     37431     37434     37437     37440
     37432     37431     37434     37435     37432     37431     37434     37436
     37432     37431     37434     37437     37433     37431     37434     37435
     37433     37431     37434     37436     37433     37431     37434     37437
     37434     37437     37440     37441     37434     37437     37440     37442
     37434     37437     37440     37443     37435     37434     37437     37438
     37435     37434     37437     37439     37435     37434     37437     37440
     37436     37434     37437     37438     37436     37434     37437     37439
     37436     37434     37437     37440     37437     37440     37443     37444
     37437     37440     37443     37445     37437     37440     37443     37446
     37438     37437     37440     37441     37438     37437     37440     37442
     37438     37437     37440     37443     37439     37437     37440     37441
     37439     37437     37440     37442     37439     37437     37440     37443
     37440     37443     37446     37447     37440     37443     37446     37448
     37440     37443     37446     37449     37441     37440     37443     37444
     37441     37440     37443     37445     37441     37440     37443     37446
     37442     37440     37443     37444     37442     37440     37443     37445
     37442     37440     37443     37446     37443     37446     37449     37450
     37443     37446     37449     37451     37444     37443     37446     37447
     37444     37443     37446     37448     37444     37443     37446     37449
     37445     37443     37446     37447     37445     37443     37446     37448
     37445     37443     37446     37449     37446     37449     37451     37452
     37446     37449     37451     37453     37447     37446     37449     37450
     37447     37446     37449     37451     37448     37446     37449     37450
     37448     37446     37449     37451     37449     37451     37453     37454
     37449     37451     37453     37455     37449     37451     37453     37456
     37450     37449     37451     37452     37450     37449     37451     37453
     37451     37453     37456     37457     37451     37453     37456     37458
     37451     37453     37456     37459     37452     37451     37453     37454
     37452     37451     37453     37455     37452     37451     37453     37456
     37453     37456     37459     37460     37453     37456     37459     37461
     37453     37456     37459     37462     37454     37453     37456     37457
     37454     37453     37456     37458     37454     37453     37456     37459
     37455     37453     37456     37457     37455     37453     37456     37458
     37455     37453     37456     37459     37456     37459     37462     37463
     37456     37459     37462     37464     37456     37459     37462     37465
     37457     37456     37459     37460     37457     37456     37459     37461
     37457     37456     37459     37462     37458     37456     37459     37460
     37458     37456     37459     37461     37458     37456     37459     37462
     37459     37462     37465     37466     37459     37462     37465     37467
     37459     37462     37465     37468     37460     37459     37462     37463
     37460     37459     37462     37464     37460     37459     37462     37465
     37461     37459     37462     37463     37461     37459     37462     37464
     37461     37459     37462     37465     37462     37465     37468     37469
     37462     37465     37468     37470     37462     37465     37468     37471
     37463     37462     37465     37466     37463     37462     37465     37467
     37463     37462     37465     37468     37464     37462     37465     37466
     37464     37462     37465     37467     37464     37462     37465     37468
     37465     37468     37471     37472     37465     37468     37471     37473
     37465     37468     37471     37474     37466     37465     37468     37469
     37466     37465     37468     37470     37466     37465     37468     37471
     37467     37465     37468     37469     37467     37465     37468     37470
     37467     37465     37468     37471     37468     37471     37474     37475
     37468     37471     37474     37476     37468     37471     37474     37477
     37469     37468     37471     37472     37469     37468     37471     37473
     37469     37468     37471     37474     37470     37468     37471     37472
     37470     37468     37471     37473     37470     37468     37471     37474
     37472     37471     37474     37475     37472     37471     37474     37476
     37472     37471     37474     37477     37473     37471     37474     37475
     37473     37471     37474     37476     37473     37471     37474     37477
     37478     37481     37484     37485     37478     37481     37484     37486
     37478     37481     37484     37487     37479     37478     37481     37482
     37479     37478     37481     37483     37479     37478     37481     37484
     37480     37478     37481     37482     37480     37478     37481     37483
     37480     37478     37481     37484     37481     37484     37487     37488
     37481     37484     37487     37489     37481     37484     37487     37490
     37482     37481     37484     37485     37482     37481     37484     37486
     37482     37481     37484     37487     37483     37481     37484     37485
     37483     37481     37484     37486     37483     37481     37484     37487
     37484     37487     37490     37491     37484     37487     37490     37492
     37484     37487     37490     37493     37485     37484     37487     37488
     37485     37484     37487     37489     37485     37484     37487     37490
     37486     37484     37487     37488     37486     37484     37487     37489
     37486     37484     37487     37490     37487     37490     37493     37494
     37487     37490     37493     37495     37487     37490     37493     37496
     37488     37487     37490     37491     37488     37487     37490     37492
     37488     37487     37490     37493     37489     37487     37490     37491
     37489     37487     37490     37492     37489     37487     37490     37493
     37490     37493     37496     37497     37490     37493     37496     37498
     37490     37493     37496     37499     37491     37490     37493     37494
     37491     37490     37493     37495     37491     37490     37493     37496
     37492     37490     37493     37494     37492     37490     37493     37495
     37492     37490     37493     37496     37493     37496     37499     37500
     37493     37496     37499     37501     37493     37496     37499     37502
     37494     37493     37496     37497     37494     37493     37496     37498
     37494     37493     37496     37499     37495     37493     37496     37497
     37495     37493     37496     37498     37495     37493     37496     37499
     37496     37499     37502     37503     37496     37499     37502     37504
     37496     37499     37502     37505     37497     37496     37499     37500
     37497     37496     37499     37501     37497     37496     37499     37502
     37498     37496     37499     37500     37498     37496     37499     37501
     37498     37496     37499     37502     37499     37502     37505     37506
     37499     37502     37505     37507     37499     37502     37505     37508
     37500     37499     37502     37503     37500     37499     37502     37504
     37500     37499     37502     37505     37501     37499     37502     37503
     37501     37499     37502     37504     37501     37499     37502     37505
     37502     37505     37508     37509     37502     37505     37508     37510
     37502     37505     37508     37511     37503     37502     37505     37506
     37503     37502     37505     37507     37503     37502     37505     37508
     37504     37502     37505     37506     37504     37502     37505     37507
     37504     37502     37505     37508     37505     37508     37511     37512
     37505     37508     37511     37513     37505     37508     37511     37514
     37506     37505     37508     37509     37506     37505     37508     37510
     37506     37505     37508     37511     37507     37505     37508     37509
     37507     37505     37508     37510     37507     37505     37508     37511
     37508     37511     37514     37515     37508     37511     37514     37516
     37508     37511     37514     37517     37509     37508     37511     37512
     37509     37508     37511     37513     37509     37508     37511     37514
     37510     37508     37511     37512     37510     37508     37511     37513
     37510     37508     37511     37514     37511     37514     37517     37518
     37511     37514     37517     37519     37511     37514     37517     37520
     37512     37511     37514     37515     37512     37511     37514     37516
     37512     37511     37514     37517     37513     37511     37514     37515
     37513     37511     37514     37516     37513     37511     37514     37517
     37515     37514     37517     37518     37515     37514     37517     37519
     37515     37514     37517     37520     37516     37514     37517     37518
     37516     37514     37517     37519     37516     37514     37517     37520
     37521     37522     37537     37538     37521     37522     37537     37539
     37521     37522     37537     37543     37522     37521     37525     37526
     37522     37521     37525     37527     37522     37521     37525     37528
     37522     37521     37529     37530     37522     37521     37529     37531
     37522     37521     37529     37532     37522     37521     37533     37534
     37522     37521     37533     37535     37522     37521     37533     37536
     37522     37537     37543     37540     37523     37522     37521     37525
     37523     37522     37521     37529     37523     37522     37521     37533
     37523     37522     37537     37538     37523     37522     37537     37539
     37523     37522     37537     37543     37524     37522     37521     37525
     37524     37522     37521     37529     37524     37522     37521     37533
     37524     37522     37537     37538     37524     37522     37537     37539
     37524     37522     37537     37543     37525     37521     37522     37537
     37525     37521     37529     37530     37525     37521     37529     37531
     37525     37521     37529     37532     37525     37521     37533     37534
     37525     37521     37533     37535     37525     37521     37533     37536
     37526     37525     37521     37529     37526     37525     37521     37533
     37527     37525     37521     37529     37527     37525     37521     37533
     37528     37525     37521     37529     37528     37525     37521     37533
     37529     37521     37522     37537     37529     37521     37533     37534
     37529     37521     37533     37535     37529     37521     37533     37536
     37530     37529     37521     37533     37531     37529     37521     37533
     37532     37529     37521     37533     37533     37521     37522     37537
     37537     37543     37540     37541     37537     37543     37540     37542
     37537     37543     37540     37544     37538     37537     37543     37540
     37539     37537     37543     37540     37540     37544     37545     37546
     37540     37544     37545     37547     37540     37544     37545     37548
     37541     37540     37544     37545     37542     37540     37544     37545
     37543     37540     37544     37545     37544     37545     37548     37549
     37544     37545     37548     37550     37544     37545     37548     37556
     37545     37548     37550     37551     37545     37548     37556     37557
     37545     37548     37556     37558     37545     37548     37556     37559
     37546     37545     37548     37549     37546     37545     37548     37550
     37546     37545     37548     37556     37547     37545     37548     37549
     37547     37545     37548     37550     37547     37545     37548     37556
     37548     37550     37551     37552     37548     37550     37551     37553
     37548     37556     37559     37560     37549     37548     37550     37551
     37549     37548     37556     37557     37549     37548     37556     37558
     37549     37548     37556     37559     37550     37548     37556     37557
     37550     37548     37556     37558     37550     37548     37556     37559
     37550     37551     37553     37554     37550     37551     37553     37555
     37550     37551     37553     37565     37551     37550     37548     37556
     37551     37553     37565     37566     37551     37553     37565     37567
     37551     37553     37565     37568     37552     37551     37553     37554
     37552     37551     37553     37555     37552     37551     37553     37565
     37553     37565     37568     37569     37553     37565     37568     37570
     37553     37565     37568     37571     37554     37553     37565     37566
     37554     37553     37565     37567     37554     37553     37565     37568
     37555     37553     37565     37566     37555     37553     37565     37567
     37555     37553     37565     37568     37556     37559     37560     37561
     37556     37559     37560     37562     37557     37556     37559     37560
     37558     37556     37559     37560     37559     37560     37562     37563
     37559     37560     37562     37564     37559     37560     37562     37612
     37560     37562     37612     37613     37560     37562     37612     37614
     37560     37562     37612     37615     37561     37560     37562     37563
     37561     37560     37562     37564     37561     37560     37562     37612
     37562     37612     37615     37616     37562     37612     37615     37617
     37562     37612     37615     37618     37563     37562     37612     37613
     37563     37562     37612     37614     37563     37562     37612     37615
     37564     37562     37612     37613     37564     37562     37612     37614
     37564     37562     37612     37615     37565     37568     37571     37572
     37565     37568     37571     37573     37565     37568     37571     37574
     37566     37565     37568     37569     37566     37565     37568     37570
     37566     37565     37568     37571     37567     37565     37568     37569
     37567     37565     37568     37570     37567     37565     37568     37571
     37568     37571     37574     37575     37568     37571     37574     37576
     37568     37571     37574     37577     37569     37568     37571     37572
     37569     37568     37571     37573     37569     37568     37571     37574
     37570     37568     37571     37572     37570     37568     37571     37573
     37570     37568     37571     37574     37571     37574     37577     37578
     37571     37574     37577     37579     37571     37574     37577     37580
     37572     37571     37574     37575     37572     37571     37574     37576
     37572     37571     37574     37577     37573     37571     37574     37575
     37573     37571     37574     37576     37573     37571     37574     37577
     37574     37577     37580     37581     37574     37577     37580     37582
     37574     37577     37580     37583     37575     37574     37577     37578
     37575     37574     37577     37579     37575     37574     37577     37580
     37576     37574     37577     37578     37576     37574     37577     37579
     37576     37574     37577     37580     37577     37580     37583     37584
     37577     37580     37583     37585     37578     37577     37580     37581
     37578     37577     37580     37582     37578     37577     37580     37583
     37579     37577     37580     37581     37579     37577     37580     37582
     37579     37577     37580     37583     37580     37583     37585     37586
     37580     37583     37585     37587     37581     37580     37583     37584
     37581     37580     37583     37585     37582     37580     37583     37584
     37582     37580     37583     37585     37583     37585     37587     37588
     37583     37585     37587     37589     37583     37585     37587     37590
     37584     37583     37585     37586     37584     37583     37585     37587
     37585     37587     37590     37591     37585     37587     37590     37592
     37585     37587     37590     37593     37586     37585     37587     37588
     37586     37585     37587     37589     37586     37585     37587     37590
     37587     37590     37593     37594     37587     37590     37593     37595
     37587     37590     37593     37596     37588     37587     37590     37591
     37588     37587     37590     37592     37588     37587     37590     37593
     37589     37587     37590     37591     37589     37587     37590     37592
     37589     37587     37590     37593     37590     37593     37596     37597
     37590     37593     37596     37598     37590     37593     37596     37599
     37591     37590     37593     37594     37591     37590     37593     37595
     37591     37590     37593     37596     37592     37590     37593     37594
     37592     37590     37593     37595     37592     37590     37593     37596
     37593     37596     37599     37600     37593     37596     37599     37601
     37593     37596     37599     37602     37594     37593     37596     37597
     37594     37593     37596     37598     37594     37593     37596     37599
     37595     37593     37596     37597     37595     37593     37596     37598
     37595     37593     37596     37599     37596     37599     37602     37603
     37596     37599     37602     37604     37596     37599     37602     37605
     37597     37596     37599     37600     37597     37596     37599     37601
     37597     37596     37599     37602     37598     37596     37599     37600
     37598     37596     37599     37601     37598     37596     37599     37602
     37599     37602     37605     37606     37599     37602     37605     37607
     37599     37602     37605     37608     37600     37599     37602     37603
     37600     37599     37602     37604     37600     37599     37602     37605
     37601     37599     37602     37603     37601     37599     37602     37604
     37601     37599     37602     37605     37602     37605     37608     37609
     37602     37605     37608     37610     37602     37605     37608     37611
     37603     37602     37605     37606     37603     37602     37605     37607
     37603     37602     37605     37608     37604     37602     37605     37606
     37604     37602     37605     37607     37604     37602     37605     37608
     37606     37605     37608     37609     37606     37605     37608     37610
     37606     37605     37608     37611     37607     37605     37608     37609
     37607     37605     37608     37610     37607     37605     37608     37611
     37612     37615     37618     37619     37612     37615     37618     37620
     37612     37615     37618     37621     37613     37612     37615     37616
     37613     37612     37615     37617     37613     37612     37615     37618
     37614     37612     37615     37616     37614     37612     37615     37617
     37614     37612     37615     37618     37615     37618     37621     37622
     37615     37618     37621     37623     37615     37618     37621     37624
     37616     37615     37618     37619     37616     37615     37618     37620
     37616     37615     37618     37621     37617     37615     37618     37619
     37617     37615     37618     37620     37617     37615     37618     37621
     37618     37621     37624     37625     37618     37621     37624     37626
     37618     37621     37624     37627     37619     37618     37621     37622
     37619     37618     37621     37623     37619     37618     37621     37624
     37620     37618     37621     37622     37620     37618     37621     37623
     37620     37618     37621     37624     37621     37624     37627     37628
     37621     37624     37627     37629     37621     37624     37627     37630
     37622     37621     37624     37625     37622     37621     37624     37626
     37622     37621     37624     37627     37623     37621     37624     37625
     37623     37621     37624     37626     37623     37621     37624     37627
     37624     37627     37630     37631     37624     37627     37630     37632
     37624     37627     37630     37633     37625     37624     37627     37628
     37625     37624     37627     37629     37625     37624     37627     37630
     37626     37624     37627     37628     37626     37624     37627     37629
     37626     37624     37627     37630     37627     37630     37633     37634
     37627     37630     37633     37635     37627     37630     37633     37636
     37628     37627     37630     37631     37628     37627     37630     37632
     37628     37627     37630     37633     37629     37627     37630     37631
     37629     37627     37630     37632     37629     37627     37630     37633
     37630     37633     37636     37637     37630     37633     37636     37638
     37630     37633     37636     37639     37631     37630     37633     37634
     37631     37630     37633     37635     37631     37630     37633     37636
     37632     37630     37633     37634     37632     37630     37633     37635
     37632     37630     37633     37636     37633     37636     37639     37640
     37633     37636     37639     37641     37633     37636     37639     37642
     37634     37633     37636     37637     37634     37633     37636     37638
     37634     37633     37636     37639     37635     37633     37636     37637
     37635     37633     37636     37638     37635     37633     37636     37639
     37636     37639     37642     37643     37636     37639     37642     37644
     37636     37639     37642     37645     37637     37636     37639     37640
     37637     37636     37639     37641     37637     37636     37639     37642
     37638     37636     37639     37640     37638     37636     37639     37641
     37638     37636     37639     37642     37639     37642     37645     37646
     37639     37642     37645     37647     37639     37642     37645     37648
     37640     37639     37642     37643     37640     37639     37642     37644
     37640     37639     37642     37645     37641     37639     37642     37643
     37641     37639     37642     37644     37641     37639     37642     37645
     37642     37645     37648     37649     37642     37645     37648     37650
     37642     37645     37648     37651     37643     37642     37645     37646
     37643     37642     37645     37647     37643     37642     37645     37648
     37644     37642     37645     37646     37644     37642     37645     37647
     37644     37642     37645     37648     37645     37648     37651     37652
     37645     37648     37651     37653     37645     37648     37651     37654
     37646     37645     37648     37649     37646     37645     37648     37650
     37646     37645     37648     37651     37647     37645     37648     37649
     37647     37645     37648     37650     37647     37645     37648     37651
     37649     37648     37651     37652     37649     37648     37651     37653
     37649     37648     37651     37654     37650     37648     37651     37652
     37650     37648     37651     37653     37650     37648     37651     37654
     37655     37656     37671     37672     37655     37656     37671     37673
     37655     37656     37671     37677     37656     37655     37659     37660
     37656     37655     37659     37661     37656     37655     37659     37662
     37656     37655     37663     37664     37656     37655     37663     37665
     37656     37655     37663     37666     37656     37655     37667     37668
     37656     37655     37667     37669     37656     37655     37667     37670
     37656     37671     37677     37674     37657     37656     37655     37659
     37657     37656     37655     37663     37657     37656     37655     37667
     37657     37656     37671     37672     37657     37656     37671     37673
     37657     37656     37671     37677     37658     37656     37655     37659
     37658     37656     37655     37663     37658     37656     37655     37667
     37658     37656     37671     37672     37658     37656     37671     37673
     37658     37656     37671     37677     37659     37655     37656     37671
     37659     37655     37663     37664     37659     37655     37663     37665
     37659     37655     37663     37666     37659     37655     37667     37668
     37659     37655     37667     37669     37659     37655     37667     37670
     37660     37659     37655     37663     37660     37659     37655     37667
     37661     37659     37655     37663     37661     37659     37655     37667
     37662     37659     37655     37663     37662     37659     37655     37667
     37663     37655     37656     37671     37663     37655     37667     37668
     37663     37655     37667     37669     37663     37655     37667     37670
     37664     37663     37655     37667     37665     37663     37655     37667
     37666     37663     37655     37667     37667     37655     37656     37671
     37671     37677     37674     37675     37671     37677     37674     37676
     37671     37677     37674     37678     37672     37671     37677     37674
     37673     37671     37677     37674     37674     37678     37679     37680
     37674     37678     37679     37681     37674     37678     37679     37682
     37675     37674     37678     37679     37676     37674     37678     37679
     37677     37674     37678     37679     37678     37679     37682     37683
     37678     37679     37682     37684     37678     37679     37682     37690
     37679     37682     37684     37685     37679     37682     37690     37691
     37679     37682     37690     37692     37679     37682     37690     37693
     37680     37679     37682     37683     37680     37679     37682     37684
     37680     37679     37682     37690     37681     37679     37682     37683
     37681     37679     37682     37684     37681     37679     37682     37690
     37682     37684     37685     37686     37682     37684     37685     37687
     37682     37690     37693     37694     37683     37682     37684     37685
     37683     37682     37690     37691     37683     37682     37690     37692
     37683     37682     37690     37693     37684     37682     37690     37691
     37684     37682     37690     37692     37684     37682     37690     37693
     37684     37685     37687     37688     37684     37685     37687     37689
     37684     37685     37687     37699     37685     37684     37682     37690
     37685     37687     37699     37700     37685     37687     37699     37701
     37685     37687     37699     37702     37686     37685     37687     37688
     37686     37685     37687     37689     37686     37685     37687     37699
     37687     37699     37702     37703     37687     37699     37702     37704
     37687     37699     37702     37705     37688     37687     37699     37700
     37688     37687     37699     37701     37688     37687     37699     37702
     37689     37687     37699     37700     37689     37687     37699     37701
     37689     37687     37699     37702     37690     37693     37694     37695
     37690     37693     37694     37696     37691     37690     37693     37694
     37692     37690     37693     37694     37693     37694     37696     37697
     37693     37694     37696     37698     37693     37694     37696     37746
     37694     37696     37746     37747     37694     37696     37746     37748
     37694     37696     37746     37749     37695     37694     37696     37697
     37695     37694     37696     37698     37695     37694     37696     37746
     37696     37746     37749     37750     37696     37746     37749     37751
     37696     37746     37749     37752     37697     37696     37746     37747
     37697     37696     37746     37748     37697     37696     37746     37749
     37698     37696     37746     37747     37698     37696     37746     37748
     37698     37696     37746     37749     37699     37702     37705     37706
     37699     37702     37705     37707     37699     37702     37705     37708
     37700     37699     37702     37703     37700     37699     37702     37704
     37700     37699     37702     37705     37701     37699     37702     37703
     37701     37699     37702     37704     37701     37699     37702     37705
     37702     37705     37708     37709     37702     37705     37708     37710
     37702     37705     37708     37711     37703     37702     37705     37706
     37703     37702     37705     37707     37703     37702     37705     37708
     37704     37702     37705     37706     37704     37702     37705     37707
     37704     37702     37705     37708     37705     37708     37711     37712
     37705     37708     37711     37713     37705     37708     37711     37714
     37706     37705     37708     37709     37706     37705     37708     37710
     37706     37705     37708     37711     37707     37705     37708     37709
     37707     37705     37708     37710     37707     37705     37708     37711
     37708     37711     37714     37715     37708     37711     37714     37716
     37708     37711     37714     37717     37709     37708     37711     37712
     37709     37708     37711     37713     37709     37708     37711     37714
     37710     37708     37711     37712     37710     37708     37711     37713
     37710     37708     37711     37714     37711     37714     37717     37718
     37711     37714     37717     37719     37712     37711     37714     37715
     37712     37711     37714     37716     37712     37711     37714     37717
     37713     37711     37714     37715     37713     37711     37714     37716
     37713     37711     37714     37717     37714     37717     37719     37720
     37714     37717     37719     37721     37715     37714     37717     37718
     37715     37714     37717     37719     37716     37714     37717     37718
     37716     37714     37717     37719     37717     37719     37721     37722
     37717     37719     37721     37723     37717     37719     37721     37724
     37718     37717     37719     37720     37718     37717     37719     37721
     37719     37721     37724     37725     37719     37721     37724     37726
     37719     37721     37724     37727     37720     37719     37721     37722
     37720     37719     37721     37723     37720     37719     37721     37724
     37721     37724     37727     37728     37721     37724     37727     37729
     37721     37724     37727     37730     37722     37721     37724     37725
     37722     37721     37724     37726     37722     37721     37724     37727
     37723     37721     37724     37725     37723     37721     37724     37726
     37723     37721     37724     37727     37724     37727     37730     37731
     37724     37727     37730     37732     37724     37727     37730     37733
     37725     37724     37727     37728     37725     37724     37727     37729
     37725     37724     37727     37730     37726     37724     37727     37728
     37726     37724     37727     37729     37726     37724     37727     37730
     37727     37730     37733     37734     37727     37730     37733     37735
     37727     37730     37733     37736     37728     37727     37730     37731
     37728     37727     37730     37732     37728     37727     37730     37733
     37729     37727     37730     37731     37729     37727     37730     37732
     37729     37727     37730     37733     37730     37733     37736     37737
     37730     37733     37736     37738     37730     37733     37736     37739
     37731     37730     37733     37734     37731     37730     37733     37735
     37731     37730     37733     37736     37732     37730     37733     37734
     37732     37730     37733     37735     37732     37730     37733     37736
     37733     37736     37739     37740     37733     37736     37739     37741
     37733     37736     37739     37742     37734     37733     37736     37737
     37734     37733     37736     37738     37734     37733     37736     37739
     37735     37733     37736     37737     37735     37733     37736     37738
     37735     37733     37736     37739     37736     37739     37742     37743
     37736     37739     37742     37744     37736     37739     37742     37745
     37737     37736     37739     37740     37737     37736     37739     37741
     37737     37736     37739     37742     37738     37736     37739     37740
     37738     37736     37739     37741     37738     37736     37739     37742
     37740     37739     37742     37743     37740     37739     37742     37744
     37740     37739     37742     37745     37741     37739     37742     37743
     37741     37739     37742     37744     37741     37739     37742     37745
     37746     37749     37752     37753     37746     37749     37752     37754
     37746     37749     37752     37755     37747     37746     37749     37750
     37747     37746     37749     37751     37747     37746     37749     37752
     37748     37746     37749     37750     37748     37746     37749     37751
     37748     37746     37749     37752     37749     37752     37755     37756
     37749     37752     37755     37757     37749     37752     37755     37758
     37750     37749     37752     37753     37750     37749     37752     37754
     37750     37749     37752     37755     37751     37749     37752     37753
     37751     37749     37752     37754     37751     37749     37752     37755
     37752     37755     37758     37759     37752     37755     37758     37760
     37752     37755     37758     37761     37753     37752     37755     37756
     37753     37752     37755     37757     37753     37752     37755     37758
     37754     37752     37755     37756     37754     37752     37755     37757
     37754     37752     37755     37758     37755     37758     37761     37762
     37755     37758     37761     37763     37755     37758     37761     37764
     37756     37755     37758     37759     37756     37755     37758     37760
     37756     37755     37758     37761     37757     37755     37758     37759
     37757     37755     37758     37760     37757     37755     37758     37761
     37758     37761     37764     37765     37758     37761     37764     37766
     37758     37761     37764     37767     37759     37758     37761     37762
     37759     37758     37761     37763     37759     37758     37761     37764
     37760     37758     37761     37762     37760     37758     37761     37763
     37760     37758     37761     37764     37761     37764     37767     37768
     37761     37764     37767     37769     37761     37764     37767     37770
     37762     37761     37764     37765     37762     37761     37764     37766
     37762     37761     37764     37767     37763     37761     37764     37765
     37763     37761     37764     37766     37763     37761     37764     37767
     37764     37767     37770     37771     37764     37767     37770     37772
     37764     37767     37770     37773     37765     37764     37767     37768
     37765     37764     37767     37769     37765     37764     37767     37770
     37766     37764     37767     37768     37766     37764     37767     37769
     37766     37764     37767     37770     37767     37770     37773     37774
     37767     37770     37773     37775     37767     37770     37773     37776
     37768     37767     37770     37771     37768     37767     37770     37772
     37768     37767     37770     37773     37769     37767     37770     37771
     37769     37767     37770     37772     37769     37767     37770     37773
     37770     37773     37776     37777     37770     37773     37776     37778
     37770     37773     37776     37779     37771     37770     37773     37774
     37771     37770     37773     37775     37771     37770     37773     37776
     37772     37770     37773     37774     37772     37770     37773     37775
     37772     37770     37773     37776     37773     37776     37779     37780
     37773     37776     37779     37781     37773     37776     37779     37782
     37774     37773     37776     37777     37774     37773     37776     37778
     37774     37773     37776     37779     37775     37773     37776     37777
     37775     37773     37776     37778     37775     37773     37776     37779
     37776     37779     37782     37783     37776     37779     37782     37784
     37776     37779     37782     37785     37777     37776     37779     37780
     37777     37776     37779     37781     37777     37776     37779     37782
     37778     37776     37779     37780     37778     37776     37779     37781
     37778     37776     37779     37782     37779     37782     37785     37786
     37779     37782     37785     37787     37779     37782     37785     37788
     37780     37779     37782     37783     37780     37779     37782     37784
     37780     37779     37782     37785     37781     37779     37782     37783
     37781     37779     37782     37784     37781     37779     37782     37785
     37783     37782     37785     37786     37783     37782     37785     37787
     37783     37782     37785     37788     37784     37782     37785     37786
     37784     37782     37785     37787     37784     37782     37785     37788
     37789     37790     37805     37806     37789     37790     37805     37807
     37789     37790     37805     37811     37790     37789     37793     37794
     37790     37789     37793     37795     37790     37789     37793     37796
     37790     37789     37797     37798     37790     37789     37797     37799
     37790     37789     37797     37800     37790     37789     37801     37802
     37790     37789     37801     37803     37790     37789     37801     37804
     37790     37805     37811     37808     37791     37790     37789     37793
     37791     37790     37789     37797     37791     37790     37789     37801
     37791     37790     37805     37806     37791     37790     37805     37807
     37791     37790     37805     37811     37792     37790     37789     37793
     37792     37790     37789     37797     37792     37790     37789     37801
     37792     37790     37805     37806     37792     37790     37805     37807
     37792     37790     37805     37811     37793     37789     37790     37805
     37793     37789     37797     37798     37793     37789     37797     37799
     37793     37789     37797     37800     37793     37789     37801     37802
     37793     37789     37801     37803     37793     37789     37801     37804
     37794     37793     37789     37797     37794     37793     37789     37801
     37795     37793     37789     37797     37795     37793     37789     37801
     37796     37793     37789     37797     37796     37793     37789     37801
     37797     37789     37790     37805     37797     37789     37801     37802
     37797     37789     37801     37803     37797     37789     37801     37804
     37798     37797     37789     37801     37799     37797     37789     37801
     37800     37797     37789     37801     37801     37789     37790     37805
     37805     37811     37808     37809     37805     37811     37808     37810
     37805     37811     37808     37812     37806     37805     37811     37808
     37807     37805     37811     37808     37808     37812     37813     37814
     37808     37812     37813     37815     37808     37812     37813     37816
     37809     37808     37812     37813     37810     37808     37812     37813
     37811     37808     37812     37813     37812     37813     37816     37817
     37812     37813     37816     37818     37812     37813     37816     37824
     37813     37816     37818     37819     37813     37816     37824     37825
     37813     37816     37824     37826     37813     37816     37824     37827
     37814     37813     37816     37817     37814     37813     37816     37818
     37814     37813     37816     37824     37815     37813     37816     37817
     37815     37813     37816     37818     37815     37813     37816     37824
     37816     37818     37819     37820     37816     37818     37819     37821
     37816     37824     37827     37828     37817     37816     37818     37819
     37817     37816     37824     37825     37817     37816     37824     37826
     37817     37816     37824     37827     37818     37816     37824     37825
     37818     37816     37824     37826     37818     37816     37824     37827
     37818     37819     37821     37822     37818     37819     37821     37823
     37818     37819     37821     37833     37819     37818     37816     37824
     37819     37821     37833     37834     37819     37821     37833     37835
     37819     37821     37833     37836     37820     37819     37821     37822
     37820     37819     37821     37823     37820     37819     37821     37833
     37821     37833     37836     37837     37821     37833     37836     37838
     37821     37833     37836     37839     37822     37821     37833     37834
     37822     37821     37833     37835     37822     37821     37833     37836
     37823     37821     37833     37834     37823     37821     37833     37835
     37823     37821     37833     37836     37824     37827     37828     37829
     37824     37827     37828     37830     37825     37824     37827     37828
     37826     37824     37827     37828     37827     37828     37830     37831
     37827     37828     37830     37832     37827     37828     37830     37880
     37828     37830     37880     37881     37828     37830     37880     37882
     37828     37830     37880     37883     37829     37828     37830     37831
     37829     37828     37830     37832     37829     37828     37830     37880
     37830     37880     37883     37884     37830     37880     37883     37885
     37830     37880     37883     37886     37831     37830     37880     37881
     37831     37830     37880     37882     37831     37830     37880     37883
     37832     37830     37880     37881     37832     37830     37880     37882
     37832     37830     37880     37883     37833     37836     37839     37840
     37833     37836     37839     37841     37833     37836     37839     37842
     37834     37833     37836     37837     37834     37833     37836     37838
     37834     37833     37836     37839     37835     37833     37836     37837
     37835     37833     37836     37838     37835     37833     37836     37839
     37836     37839     37842     37843     37836     37839     37842     37844
     37836     37839     37842     37845     37837     37836     37839     37840
     37837     37836     37839     37841     37837     37836     37839     37842
     37838     37836     37839     37840     37838     37836     37839     37841
     37838     37836     37839     37842     37839     37842     37845     37846
     37839     37842     37845     37847     37839     37842     37845     37848
     37840     37839     37842     37843     37840     37839     37842     37844
     37840     37839     37842     37845     37841     37839     37842     37843
     37841     37839     37842     37844     37841     37839     37842     37845
     37842     37845     37848     37849     37842     37845     37848     37850
     37842     37845     37848     37851     37843     37842     37845     37846
     37843     37842     37845     37847     37843     37842     37845     37848
     37844     37842     37845     37846     37844     37842     37845     37847
     37844     37842     37845     37848     37845     37848     37851     37852
     37845     37848     37851     37853     37846     37845     37848     37849
     37846     37845     37848     37850     37846     37845     37848     37851
     37847     37845     37848     37849     37847     37845     37848     37850
     37847     37845     37848     37851     37848     37851     37853     37854
     37848     37851     37853     37855     37849     37848     37851     37852
     37849     37848     37851     37853     37850     37848     37851     37852
     37850     37848     37851     37853     37851     37853     37855     37856
     37851     37853     37855     37857     37851     37853     37855     37858
     37852     37851     37853     37854     37852     37851     37853     37855
     37853     37855     37858     37859     37853     37855     37858     37860
     37853     37855     37858     37861     37854     37853     37855     37856
     37854     37853     37855     37857     37854     37853     37855     37858
     37855     37858     37861     37862     37855     37858     37861     37863
     37855     37858     37861     37864     37856     37855     37858     37859
     37856     37855     37858     37860     37856     37855     37858     37861
     37857     37855     37858     37859     37857     37855     37858     37860
     37857     37855     37858     37861     37858     37861     37864     37865
     37858     37861     37864     37866     37858     37861     37864     37867
     37859     37858     37861     37862     37859     37858     37861     37863
     37859     37858     37861     37864     37860     37858     37861     37862
     37860     37858     37861     37863     37860     37858     37861     37864
     37861     37864     37867     37868     37861     37864     37867     37869
     37861     37864     37867     37870     37862     37861     37864     37865
     37862     37861     37864     37866     37862     37861     37864     37867
     37863     37861     37864     37865     37863     37861     37864     37866
     37863     37861     37864     37867     37864     37867     37870     37871
     37864     37867     37870     37872     37864     37867     37870     37873
     37865     37864     37867     37868     37865     37864     37867     37869
     37865     37864     37867     37870     37866     37864     37867     37868
     37866     37864     37867     37869     37866     37864     37867     37870
     37867     37870     37873     37874     37867     37870     37873     37875
     37867     37870     37873     37876     37868     37867     37870     37871
     37868     37867     37870     37872     37868     37867     37870     37873
     37869     37867     37870     37871     37869     37867     37870     37872
     37869     37867     37870     37873     37870     37873     37876     37877
     37870     37873     37876     37878     37870     37873     37876     37879
     37871     37870     37873     37874     37871     37870     37873     37875
     37871     37870     37873     37876     37872     37870     37873     37874
     37872     37870     37873     37875     37872     37870     37873     37876
     37874     37873     37876     37877     37874     37873     37876     37878
     37874     37873     37876     37879     37875     37873     37876     37877
     37875     37873     37876     37878     37875     37873     37876     37879
     37880     37883     37886     37887     37880     37883     37886     37888
     37880     37883     37886     37889     37881     37880     37883     37884
     37881     37880     37883     37885     37881     37880     37883     37886
     37882     37880     37883     37884     37882     37880     37883     37885
     37882     37880     37883     37886     37883     37886     37889     37890
     37883     37886     37889     37891     37883     37886     37889     37892
     37884     37883     37886     37887     37884     37883     37886     37888
     37884     37883     37886     37889     37885     37883     37886     37887
     37885     37883     37886     37888     37885     37883     37886     37889
     37886     37889     37892     37893     37886     37889     37892     37894
     37886     37889     37892     37895     37887     37886     37889     37890
     37887     37886     37889     37891     37887     37886     37889     37892
     37888     37886     37889     37890     37888     37886     37889     37891
     37888     37886     37889     37892     37889     37892     37895     37896
     37889     37892     37895     37897     37889     37892     37895     37898
     37890     37889     37892     37893     37890     37889     37892     37894
     37890     37889     37892     37895     37891     37889     37892     37893
     37891     37889     37892     37894     37891     37889     37892     37895
     37892     37895     37898     37899     37892     37895     37898     37900
     37892     37895     37898     37901     37893     37892     37895     37896
     37893     37892     37895     37897     37893     37892     37895     37898
     37894     37892     37895     37896     37894     37892     37895     37897
     37894     37892     37895     37898     37895     37898     37901     37902
     37895     37898     37901     37903     37895     37898     37901     37904
     37896     37895     37898     37899     37896     37895     37898     37900
     37896     37895     37898     37901     37897     37895     37898     37899
     37897     37895     37898     37900     37897     37895     37898     37901
     37898     37901     37904     37905     37898     37901     37904     37906
     37898     37901     37904     37907     37899     37898     37901     37902
     37899     37898     37901     37903     37899     37898     37901     37904
     37900     37898     37901     37902     37900     37898     37901     37903
     37900     37898     37901     37904     37901     37904     37907     37908
     37901     37904     37907     37909     37901     37904     37907     37910
     37902     37901     37904     37905     37902     37901     37904     37906
     37902     37901     37904     37907     37903     37901     37904     37905
     37903     37901     37904     37906     37903     37901     37904     37907
     37904     37907     37910     37911     37904     37907     37910     37912
     37904     37907     37910     37913     37905     37904     37907     37908
     37905     37904     37907     37909     37905     37904     37907     37910
     37906     37904     37907     37908     37906     37904     37907     37909
     37906     37904     37907     37910     37907     37910     37913     37914
     37907     37910     37913     37915     37907     37910     37913     37916
     37908     37907     37910     37911     37908     37907     37910     37912
     37908     37907     37910     37913     37909     37907     37910     37911
     37909     37907     37910     37912     37909     37907     37910     37913
     37910     37913     37916     37917     37910     37913     37916     37918
     37910     37913     37916     37919     37911     37910     37913     37914
     37911     37910     37913     37915     37911     37910     37913     37916
     37912     37910     37913     37914     37912     37910     37913     37915
     37912     37910     37913     37916     37913     37916     37919     37920
     37913     37916     37919     37921     37913     37916     37919     37922
     37914     37913     37916     37917     37914     37913     37916     37918
     37914     37913     37916     37919     37915     37913     37916     37917
     37915     37913     37916     37918     37915     37913     37916     37919
     37917     37916     37919     37920     37917     37916     37919     37921
     37917     37916     37919     37922     37918     37916     37919     37920
     37918     37916     37919     37921     37918     37916     37919     37922
     37923     37924     37939     37940     37923     37924     37939     37941
     37923     37924     37939     37945     37924     37923     37927     37928
     37924     37923     37927     37929     37924     37923     37927     37930
     37924     37923     37931     37932     37924     37923     37931     37933
     37924     37923     37931     37934     37924     37923     37935     37936
     37924     37923     37935     37937     37924     37923     37935     37938
     37924     37939     37945     37942     37925     37924     37923     37927
     37925     37924     37923     37931     37925     37924     37923     37935
     37925     37924     37939     37940     37925     37924     37939     37941
     37925     37924     37939     37945     37926     37924     37923     37927
     37926     37924     37923     37931     37926     37924     37923     37935
     37926     37924     37939     37940     37926     37924     37939     37941
     37926     37924     37939     37945     37927     37923     37924     37939
     37927     37923     37931     37932     37927     37923     37931     37933
     37927     37923     37931     37934     37927     37923     37935     37936
     37927     37923     37935     37937     37927     37923     37935     37938
     37928     37927     37923     37931     37928     37927     37923     37935
     37929     37927     37923     37931     37929     37927     37923     37935
     37930     37927     37923     37931     37930     37927     37923     37935
     37931     37923     37924     37939     37931     37923     37935     37936
     37931     37923     37935     37937     37931     37923     37935     37938
     37932     37931     37923     37935     37933     37931     37923     37935
     37934     37931     37923     37935     37935     37923     37924     37939
     37939     37945     37942     37943     37939     37945     37942     37944
     37939     37945     37942     37946     37940     37939     37945     37942
     37941     37939     37945     37942     37942     37946     37947     37948
     37942     37946     37947     37949     37942     37946     37947     37950
     37943     37942     37946     37947     37944     37942     37946     37947
     37945     37942     37946     37947     37946     37947     37950     37951
     37946     37947     37950     37952     37946     37947     37950     37958
     37947     37950     37952     37953     37947     37950     37958     37959
     37947     37950     37958     37960     37947     37950     37958     37961
     37948     37947     37950     37951     37948     37947     37950     37952
     37948     37947     37950     37958     37949     37947     37950     37951
     37949     37947     37950     37952     37949     37947     37950     37958
     37950     37952     37953     37954     37950     37952     37953     37955
     37950     37958     37961     37962     37951     37950     37952     37953
     37951     37950     37958     37959     37951     37950     37958     37960
     37951     37950     37958     37961     37952     37950     37958     37959
     37952     37950     37958     37960     37952     37950     37958     37961
     37952     37953     37955     37956     37952     37953     37955     37957
     37952     37953     37955     37967     37953     37952     37950     37958
     37953     37955     37967     37968     37953     37955     37967     37969
     37953     37955     37967     37970     37954     37953     37955     37956
     37954     37953     37955     37957     37954     37953     37955     37967
     37955     37967     37970     37971     37955     37967     37970     37972
     37955     37967     37970     37973     37956     37955     37967     37968
     37956     37955     37967     37969     37956     37955     37967     37970
     37957     37955     37967     37968     37957     37955     37967     37969
     37957     37955     37967     37970     37958     37961     37962     37963
     37958     37961     37962     37964     37959     37958     37961     37962
     37960     37958     37961     37962     37961     37962     37964     37965
     37961     37962     37964     37966     37961     37962     37964     38014
     37962     37964     38014     38015     37962     37964     38014     38016
     37962     37964     38014     38017     37963     37962     37964     37965
     37963     37962     37964     37966     37963     37962     37964     38014
     37964     38014     38017     38018     37964     38014     38017     38019
     37964     38014     38017     38020     37965     37964     38014     38015
     37965     37964     38014     38016     37965     37964     38014     38017
     37966     37964     38014     38015     37966     37964     38014     38016
     37966     37964     38014     38017     37967     37970     37973     37974
     37967     37970     37973     37975     37967     37970     37973     37976
     37968     37967     37970     37971     37968     37967     37970     37972
     37968     37967     37970     37973     37969     37967     37970     37971
     37969     37967     37970     37972     37969     37967     37970     37973
     37970     37973     37976     37977     37970     37973     37976     37978
     37970     37973     37976     37979     37971     37970     37973     37974
     37971     37970     37973     37975     37971     37970     37973     37976
     37972     37970     37973     37974     37972     37970     37973     37975
     37972     37970     37973     37976     37973     37976     37979     37980
     37973     37976     37979     37981     37973     37976     37979     37982
     37974     37973     37976     37977     37974     37973     37976     37978
     37974     37973     37976     37979     37975     37973     37976     37977
     37975     37973     37976     37978     37975     37973     37976     37979
     37976     37979     37982     37983     37976     37979     37982     37984
     37976     37979     37982     37985     37977     37976     37979     37980
     37977     37976     37979     37981     37977     37976     37979     37982
     37978     37976     37979     37980     37978     37976     37979     37981
     37978     37976     37979     37982     37979     37982     37985     37986
     37979     37982     37985     37987     37980     37979     37982     37983
     37980     37979     37982     37984     37980     37979     37982     37985
     37981     37979     37982     37983     37981     37979     37982     37984
     37981     37979     37982     37985     37982     37985     37987     37988
     37982     37985     37987     37989     37983     37982     37985     37986
     37983     37982     37985     37987     37984     37982     37985     37986
     37984     37982     37985     37987     37985     37987     37989     37990
     37985     37987     37989     37991     37985     37987     37989     37992
     37986     37985     37987     37988     37986     37985     37987     37989
     37987     37989     37992     37993     37987     37989     37992     37994
     37987     37989     37992     37995     37988     37987     37989     37990
     37988     37987     37989     37991     37988     37987     37989     37992
     37989     37992     37995     37996     37989     37992     37995     37997
     37989     37992     37995     37998     37990     37989     37992     37993
     37990     37989     37992     37994     37990     37989     37992     37995
     37991     37989     37992     37993     37991     37989     37992     37994
     37991     37989     37992     37995     37992     37995     37998     37999
     37992     37995     37998     38000     37992     37995     37998     38001
     37993     37992     37995     37996     37993     37992     37995     37997
     37993     37992     37995     37998     37994     37992     37995     37996
     37994     37992     37995     37997     37994     37992     37995     37998
     37995     37998     38001     38002     37995     37998     38001     38003
     37995     37998     38001     38004     37996     37995     37998     37999
     37996     37995     37998     38000     37996     37995     37998     38001
     37997     37995     37998     37999     37997     37995     37998     38000
     37997     37995     37998     38001     37998     38001     38004     38005
     37998     38001     38004     38006     37998     38001     38004     38007
     37999     37998     38001     38002     37999     37998     38001     38003
     37999     37998     38001     38004     38000     37998     38001     38002
     38000     37998     38001     38003     38000     37998     38001     38004
     38001     38004     38007     38008     38001     38004     38007     38009
     38001     38004     38007     38010     38002     38001     38004     38005
     38002     38001     38004     38006     38002     38001     38004     38007
     38003     38001     38004     38005     38003     38001     38004     38006
     38003     38001     38004     38007     38004     38007     38010     38011
     38004     38007     38010     38012     38004     38007     38010     38013
     38005     38004     38007     38008     38005     38004     38007     38009
     38005     38004     38007     38010     38006     38004     38007     38008
     38006     38004     38007     38009     38006     38004     38007     38010
     38008     38007     38010     38011     38008     38007     38010     38012
     38008     38007     38010     38013     38009     38007     38010     38011
     38009     38007     38010     38012     38009     38007     38010     38013
     38014     38017     38020     38021     38014     38017     38020     38022
     38014     38017     38020     38023     38015     38014     38017     38018
     38015     38014     38017     38019     38015     38014     38017     38020
     38016     38014     38017     38018     38016     38014     38017     38019
     38016     38014     38017     38020     38017     38020     38023     38024
     38017     38020     38023     38025     38017     38020     38023     38026
     38018     38017     38020     38021     38018     38017     38020     38022
     38018     38017     38020     38023     38019     38017     38020     38021
     38019     38017     38020     38022     38019     38017     38020     38023
     38020     38023     38026     38027     38020     38023     38026     38028
     38020     38023     38026     38029     38021     38020     38023     38024
     38021     38020     38023     38025     38021     38020     38023     38026
     38022     38020     38023     38024     38022     38020     38023     38025
     38022     38020     38023     38026     38023     38026     38029     38030
     38023     38026     38029     38031     38023     38026     38029     38032
     38024     38023     38026     38027     38024     38023     38026     38028
     38024     38023     38026     38029     38025     38023     38026     38027
     38025     38023     38026     38028     38025     38023     38026     38029
     38026     38029     38032     38033     38026     38029     38032     38034
     38026     38029     38032     38035     38027     38026     38029     38030
     38027     38026     38029     38031     38027     38026     38029     38032
     38028     38026     38029     38030     38028     38026     38029     38031
     38028     38026     38029     38032     38029     38032     38035     38036
     38029     38032     38035     38037     38029     38032     38035     38038
     38030     38029     38032     38033     38030     38029     38032     38034
     38030     38029     38032     38035     38031     38029     38032     38033
     38031     38029     38032     38034     38031     38029     38032     38035
     38032     38035     38038     38039     38032     38035     38038     38040
     38032     38035     38038     38041     38033     38032     38035     38036
     38033     38032     38035     38037     38033     38032     38035     38038
     38034     38032     38035     38036     38034     38032     38035     38037
     38034     38032     38035     38038     38035     38038     38041     38042
     38035     38038     38041     38043     38035     38038     38041     38044
     38036     38035     38038     38039     38036     38035     38038     38040
     38036     38035     38038     38041     38037     38035     38038     38039
     38037     38035     38038     38040     38037     38035     38038     38041
     38038     38041     38044     38045     38038     38041     38044     38046
     38038     38041     38044     38047     38039     38038     38041     38042
     38039     38038     38041     38043     38039     38038     38041     38044
     38040     38038     38041     38042     38040     38038     38041     38043
     38040     38038     38041     38044     38041     38044     38047     38048
     38041     38044     38047     38049     38041     38044     38047     38050
     38042     38041     38044     38045     38042     38041     38044     38046
     38042     38041     38044     38047     38043     38041     38044     38045
     38043     38041     38044     38046     38043     38041     38044     38047
     38044     38047     38050     38051     38044     38047     38050     38052
     38044     38047     38050     38053     38045     38044     38047     38048
     38045     38044     38047     38049     38045     38044     38047     38050
     38046     38044     38047     38048     38046     38044     38047     38049
     38046     38044     38047     38050     38047     38050     38053     38054
     38047     38050     38053     38055     38047     38050     38053     38056
     38048     38047     38050     38051     38048     38047     38050     38052
     38048     38047     38050     38053     38049     38047     38050     38051
     38049     38047     38050     38052     38049     38047     38050     38053
     38051     38050     38053     38054     38051     38050     38053     38055
     38051     38050     38053     38056     38052     38050     38053     38054
     38052     38050     38053     38055     38052     38050     38053     38056
     38057     38058     38073     38074     38057     38058     38073     38075
     38057     38058     38073     38079     38058     38057     38061     38062
     38058     38057     38061     38063     38058     38057     38061     38064
     38058     38057     38065     38066     38058     38057     38065     38067
     38058     38057     38065     38068     38058     38057     38069     38070
     38058     38057     38069     38071     38058     38057     38069     38072
     38058     38073     38079     38076     38059     38058     38057     38061
     38059     38058     38057     38065     38059     38058     38057     38069
     38059     38058     38073     38074     38059     38058     38073     38075
     38059     38058     38073     38079     38060     38058     38057     38061
     38060     38058     38057     38065     38060     38058     38057     38069
     38060     38058     38073     38074     38060     38058     38073     38075
     38060     38058     38073     38079     38061     38057     38058     38073
     38061     38057     38065     38066     38061     38057     38065     38067
     38061     38057     38065     38068     38061     38057     38069     38070
     38061     38057     38069     38071     38061     38057     38069     38072
     38062     38061     38057     38065     38062     38061     38057     38069
     38063     38061     38057     38065     38063     38061     38057     38069
     38064     38061     38057     38065     38064     38061     38057     38069
     38065     38057     38058     38073     38065     38057     38069     38070
     38065     38057     38069     38071     38065     38057     38069     38072
     38066     38065     38057     38069     38067     38065     38057     38069
     38068     38065     38057     38069     38069     38057     38058     38073
     38073     38079     38076     38077     38073     38079     38076     38078
     38073     38079     38076     38080     38074     38073     38079     38076
     38075     38073     38079     38076     38076     38080     38081     38082
     38076     38080     38081     38083     38076     38080     38081     38084
     38077     38076     38080     38081     38078     38076     38080     38081
     38079     38076     38080     38081     38080     38081     38084     38085
     38080     38081     38084     38086     38080     38081     38084     38092
     38081     38084     38086     38087     38081     38084     38092     38093
     38081     38084     38092     38094     38081     38084     38092     38095
     38082     38081     38084     38085     38082     38081     38084     38086
     38082     38081     38084     38092     38083     38081     38084     38085
     38083     38081     38084     38086     38083     38081     38084     38092
     38084     38086     38087     38088     38084     38086     38087     38089
     38084     38092     38095     38096     38085     38084     38086     38087
     38085     38084     38092     38093     38085     38084     38092     38094
     38085     38084     38092     38095     38086     38084     38092     38093
     38086     38084     38092     38094     38086     38084     38092     38095
     38086     38087     38089     38090     38086     38087     38089     38091
     38086     38087     38089     38101     38087     38086     38084     38092
     38087     38089     38101     38102     38087     38089     38101     38103
     38087     38089     38101     38104     38088     38087     38089     38090
     38088     38087     38089     38091     38088     38087     38089     38101
     38089     38101     38104     38105     38089     38101     38104     38106
     38089     38101     38104     38107     38090     38089     38101     38102
     38090     38089     38101     38103     38090     38089     38101     38104
     38091     38089     38101     38102     38091     38089     38101     38103
     38091     38089     38101     38104     38092     38095     38096     38097
     38092     38095     38096     38098     38093     38092     38095     38096
     38094     38092     38095     38096     38095     38096     38098     38099
     38095     38096     38098     38100     38095     38096     38098     38148
     38096     38098     38148     38149     38096     38098     38148     38150
     38096     38098     38148     38151     38097     38096     38098     38099
     38097     38096     38098     38100     38097     38096     38098     38148
     38098     38148     38151     38152     38098     38148     38151     38153
     38098     38148     38151     38154     38099     38098     38148     38149
     38099     38098     38148     38150     38099     38098     38148     38151
     38100     38098     38148     38149     38100     38098     38148     38150
     38100     38098     38148     38151     38101     38104     38107     38108
     38101     38104     38107     38109     38101     38104     38107     38110
     38102     38101     38104     38105     38102     38101     38104     38106
     38102     38101     38104     38107     38103     38101     38104     38105
     38103     38101     38104     38106     38103     38101     38104     38107
     38104     38107     38110     38111     38104     38107     38110     38112
     38104     38107     38110     38113     38105     38104     38107     38108
     38105     38104     38107     38109     38105     38104     38107     38110
     38106     38104     38107     38108     38106     38104     38107     38109
     38106     38104     38107     38110     38107     38110     38113     38114
     38107     38110     38113     38115     38107     38110     38113     38116
     38108     38107     38110     38111     38108     38107     38110     38112
     38108     38107     38110     38113     38109     38107     38110     38111
     38109     38107     38110     38112     38109     38107     38110     38113
     38110     38113     38116     38117     38110     38113     38116     38118
     38110     38113     38116     38119     38111     38110     38113     38114
     38111     38110     38113     38115     38111     38110     38113     38116
     38112     38110     38113     38114     38112     38110     38113     38115
     38112     38110     38113     38116     38113     38116     38119     38120
     38113     38116     38119     38121     38114     38113     38116     38117
     38114     38113     38116     38118     38114     38113     38116     38119
     38115     38113     38116     38117     38115     38113     38116     38118
     38115     38113     38116     38119     38116     38119     38121     38122
     38116     38119     38121     38123     38117     38116     38119     38120
     38117     38116     38119     38121     38118     38116     38119     38120
     38118     38116     38119     38121     38119     38121     38123     38124
     38119     38121     38123     38125     38119     38121     38123     38126
     38120     38119     38121     38122     38120     38119     38121     38123
     38121     38123     38126     38127     38121     38123     38126     38128
     38121     38123     38126     38129     38122     38121     38123     38124
     38122     38121     38123     38125     38122     38121     38123     38126
     38123     38126     38129     38130     38123     38126     38129     38131
     38123     38126     38129     38132     38124     38123     38126     38127
     38124     38123     38126     38128     38124     38123     38126     38129
     38125     38123     38126     38127     38125     38123     38126     38128
     38125     38123     38126     38129     38126     38129     38132     38133
     38126     38129     38132     38134     38126     38129     38132     38135
     38127     38126     38129     38130     38127     38126     38129     38131
     38127     38126     38129     38132     38128     38126     38129     38130
     38128     38126     38129     38131     38128     38126     38129     38132
     38129     38132     38135     38136     38129     38132     38135     38137
     38129     38132     38135     38138     38130     38129     38132     38133
     38130     38129     38132     38134     38130     38129     38132     38135
     38131     38129     38132     38133     38131     38129     38132     38134
     38131     38129     38132     38135     38132     38135     38138     38139
     38132     38135     38138     38140     38132     38135     38138     38141
     38133     38132     38135     38136     38133     38132     38135     38137
     38133     38132     38135     38138     38134     38132     38135     38136
     38134     38132     38135     38137     38134     38132     38135     38138
     38135     38138     38141     38142     38135     38138     38141     38143
     38135     38138     38141     38144     38136     38135     38138     38139
     38136     38135     38138     38140     38136     38135     38138     38141
     38137     38135     38138     38139     38137     38135     38138     38140
     38137     38135     38138     38141     38138     38141     38144     38145
     38138     38141     38144     38146     38138     38141     38144     38147
     38139     38138     38141     38142     38139     38138     38141     38143
     38139     38138     38141     38144     38140     38138     38141     38142
     38140     38138     38141     38143     38140     38138     38141     38144
     38142     38141     38144     38145     38142     38141     38144     38146
     38142     38141     38144     38147     38143     38141     38144     38145
     38143     38141     38144     38146     38143     38141     38144     38147
     38148     38151     38154     38155     38148     38151     38154     38156
     38148     38151     38154     38157     38149     38148     38151     38152
     38149     38148     38151     38153     38149     38148     38151     38154
     38150     38148     38151     38152     38150     38148     38151     38153
     38150     38148     38151     38154     38151     38154     38157     38158
     38151     38154     38157     38159     38151     38154     38157     38160
     38152     38151     38154     38155     38152     38151     38154     38156
     38152     38151     38154     38157     38153     38151     38154     38155
     38153     38151     38154     38156     38153     38151     38154     38157
     38154     38157     38160     38161     38154     38157     38160     38162
     38154     38157     38160     38163     38155     38154     38157     38158
     38155     38154     38157     38159     38155     38154     38157     38160
     38156     38154     38157     38158     38156     38154     38157     38159
     38156     38154     38157     38160     38157     38160     38163     38164
     38157     38160     38163     38165     38157     38160     38163     38166
     38158     38157     38160     38161     38158     38157     38160     38162
     38158     38157     38160     38163     38159     38157     38160     38161
     38159     38157     38160     38162     38159     38157     38160     38163
     38160     38163     38166     38167     38160     38163     38166     38168
     38160     38163     38166     38169     38161     38160     38163     38164
     38161     38160     38163     38165     38161     38160     38163     38166
     38162     38160     38163     38164     38162     38160     38163     38165
     38162     38160     38163     38166     38163     38166     38169     38170
     38163     38166     38169     38171     38163     38166     38169     38172
     38164     38163     38166     38167     38164     38163     38166     38168
     38164     38163     38166     38169     38165     38163     38166     38167
     38165     38163     38166     38168     38165     38163     38166     38169
     38166     38169     38172     38173     38166     38169     38172     38174
     38166     38169     38172     38175     38167     38166     38169     38170
     38167     38166     38169     38171     38167     38166     38169     38172
     38168     38166     38169     38170     38168     38166     38169     38171
     38168     38166     38169     38172     38169     38172     38175     38176
     38169     38172     38175     38177     38169     38172     38175     38178
     38170     38169     38172     38173     38170     38169     38172     38174
     38170     38169     38172     38175     38171     38169     38172     38173
     38171     38169     38172     38174     38171     38169     38172     38175
     38172     38175     38178     38179     38172     38175     38178     38180
     38172     38175     38178     38181     38173     38172     38175     38176
     38173     38172     38175     38177     38173     38172     38175     38178
     38174     38172     38175     38176     38174     38172     38175     38177
     38174     38172     38175     38178     38175     38178     38181     38182
     38175     38178     38181     38183     38175     38178     38181     38184
     38176     38175     38178     38179     38176     38175     38178     38180
     38176     38175     38178     38181     38177     38175     38178     38179
     38177     38175     38178     38180     38177     38175     38178     38181
     38178     38181     38184     38185     38178     38181     38184     38186
     38178     38181     38184     38187     38179     38178     38181     38182
     38179     38178     38181     38183     38179     38178     38181     38184
     38180     38178     38181     38182     38180     38178     38181     38183
     38180     38178     38181     38184     38181     38184     38187     38188
     38181     38184     38187     38189     38181     38184     38187     38190
     38182     38181     38184     38185     38182     38181     38184     38186
     38182     38181     38184     38187     38183     38181     38184     38185
     38183     38181     38184     38186     38183     38181     38184     38187
     38185     38184     38187     38188     38185     38184     38187     38189
     38185     38184     38187     38190     38186     38184     38187     38188
     38186     38184     38187     38189     38186     38184     38187     38190
     38191     38192     38207     38208     38191     38192     38207     38209
     38191     38192     38207     38213     38192     38191     38195     38196
     38192     38191     38195     38197     38192     38191     38195     38198
     38192     38191     38199     38200     38192     38191     38199     38201
     38192     38191     38199     38202     38192     38191     38203     38204
     38192     38191     38203     38205     38192     38191     38203     38206
     38192     38207     38213     38210     38193     38192     38191     38195
     38193     38192     38191     38199     38193     38192     38191     38203
     38193     38192     38207     38208     38193     38192     38207     38209
     38193     38192     38207     38213     38194     38192     38191     38195
     38194     38192     38191     38199     38194     38192     38191     38203
     38194     38192     38207     38208     38194     38192     38207     38209
     38194     38192     38207     38213     38195     38191     38192     38207
     38195     38191     38199     38200     38195     38191     38199     38201
     38195     38191     38199     38202     38195     38191     38203     38204
     38195     38191     38203     38205     38195     38191     38203     38206
     38196     38195     38191     38199     38196     38195     38191     38203
     38197     38195     38191     38199     38197     38195     38191     38203
     38198     38195     38191     38199     38198     38195     38191     38203
     38199     38191     38192     38207     38199     38191     38203     38204
     38199     38191     38203     38205     38199     38191     38203     38206
     38200     38199     38191     38203     38201     38199     38191     38203
     38202     38199     38191     38203     38203     38191     38192     38207
     38207     38213     38210     38211     38207     38213     38210     38212
     38207     38213     38210     38214     38208     38207     38213     38210
     38209     38207     38213     38210     38210     38214     38215     38216
     38210     38214     38215     38217     38210     38214     38215     38218
     38211     38210     38214     38215     38212     38210     38214     38215
     38213     38210     38214     38215     38214     38215     38218     38219
     38214     38215     38218     38220     38214     38215     38218     38226
     38215     38218     38220     38221     38215     38218     38226     38227
     38215     38218     38226     38228     38215     38218     38226     38229
     38216     38215     38218     38219     38216     38215     38218     38220
     38216     38215     38218     38226     38217     38215     38218     38219
     38217     38215     38218     38220     38217     38215     38218     38226
     38218     38220     38221     38222     38218     38220     38221     38223
     38218     38226     38229     38230     38219     38218     38220     38221
     38219     38218     38226     38227     38219     38218     38226     38228
     38219     38218     38226     38229     38220     38218     38226     38227
     38220     38218     38226     38228     38220     38218     38226     38229
     38220     38221     38223     38224     38220     38221     38223     38225
     38220     38221     38223     38235     38221     38220     38218     38226
     38221     38223     38235     38236     38221     38223     38235     38237
     38221     38223     38235     38238     38222     38221     38223     38224
     38222     38221     38223     38225     38222     38221     38223     38235
     38223     38235     38238     38239     38223     38235     38238     38240
     38223     38235     38238     38241     38224     38223     38235     38236
     38224     38223     38235     38237     38224     38223     38235     38238
     38225     38223     38235     38236     38225     38223     38235     38237
     38225     38223     38235     38238     38226     38229     38230     38231
     38226     38229     38230     38232     38227     38226     38229     38230
     38228     38226     38229     38230     38229     38230     38232     38233
     38229     38230     38232     38234     38229     38230     38232     38282
     38230     38232     38282     38283     38230     38232     38282     38284
     38230     38232     38282     38285     38231     38230     38232     38233
     38231     38230     38232     38234     38231     38230     38232     38282
     38232     38282     38285     38286     38232     38282     38285     38287
     38232     38282     38285     38288     38233     38232     38282     38283
     38233     38232     38282     38284     38233     38232     38282     38285
     38234     38232     38282     38283     38234     38232     38282     38284
     38234     38232     38282     38285     38235     38238     38241     38242
     38235     38238     38241     38243     38235     38238     38241     38244
     38236     38235     38238     38239     38236     38235     38238     38240
     38236     38235     38238     38241     38237     38235     38238     38239
     38237     38235     38238     38240     38237     38235     38238     38241
     38238     38241     38244     38245     38238     38241     38244     38246
     38238     38241     38244     38247     38239     38238     38241     38242
     38239     38238     38241     38243     38239     38238     38241     38244
     38240     38238     38241     38242     38240     38238     38241     38243
     38240     38238     38241     38244     38241     38244     38247     38248
     38241     38244     38247     38249     38241     38244     38247     38250
     38242     38241     38244     38245     38242     38241     38244     38246
     38242     38241     38244     38247     38243     38241     38244     38245
     38243     38241     38244     38246     38243     38241     38244     38247
     38244     38247     38250     38251     38244     38247     38250     38252
     38244     38247     38250     38253     38245     38244     38247     38248
     38245     38244     38247     38249     38245     38244     38247     38250
     38246     38244     38247     38248     38246     38244     38247     38249
     38246     38244     38247     38250     38247     38250     38253     38254
     38247     38250     38253     38255     38248     38247     38250     38251
     38248     38247     38250     38252     38248     38247     38250     38253
     38249     38247     38250     38251     38249     38247     38250     38252
     38249     38247     38250     38253     38250     38253     38255     38256
     38250     38253     38255     38257     38251     38250     38253     38254
     38251     38250     38253     38255     38252     38250     38253     38254
     38252     38250     38253     38255     38253     38255     38257     38258
     38253     38255     38257     38259     38253     38255     38257     38260
     38254     38253     38255     38256     38254     38253     38255     38257
     38255     38257     38260     38261     38255     38257     38260     38262
     38255     38257     38260     38263     38256     38255     38257     38258
     38256     38255     38257     38259     38256     38255     38257     38260
     38257     38260     38263     38264     38257     38260     38263     38265
     38257     38260     38263     38266     38258     38257     38260     38261
     38258     38257     38260     38262     38258     38257     38260     38263
     38259     38257     38260     38261     38259     38257     38260     38262
     38259     38257     38260     38263     38260     38263     38266     38267
     38260     38263     38266     38268     38260     38263     38266     38269
     38261     38260     38263     38264     38261     38260     38263     38265
     38261     38260     38263     38266     38262     38260     38263     38264
     38262     38260     38263     38265     38262     38260     38263     38266
     38263     38266     38269     38270     38263     38266     38269     38271
     38263     38266     38269     38272     38264     38263     38266     38267
     38264     38263     38266     38268     38264     38263     38266     38269
     38265     38263     38266     38267     38265     38263     38266     38268
     38265     38263     38266     38269     38266     38269     38272     38273
     38266     38269     38272     38274     38266     38269     38272     38275
     38267     38266     38269     38270     38267     38266     38269     38271
     38267     38266     38269     38272     38268     38266     38269     38270
     38268     38266     38269     38271     38268     38266     38269     38272
     38269     38272     38275     38276     38269     38272     38275     38277
     38269     38272     38275     38278     38270     38269     38272     38273
     38270     38269     38272     38274     38270     38269     38272     38275
     38271     38269     38272     38273     38271     38269     38272     38274
     38271     38269     38272     38275     38272     38275     38278     38279
     38272     38275     38278     38280     38272     38275     38278     38281
     38273     38272     38275     38276     38273     38272     38275     38277
     38273     38272     38275     38278     38274     38272     38275     38276
     38274     38272     38275     38277     38274     38272     38275     38278
     38276     38275     38278     38279     38276     38275     38278     38280
     38276     38275     38278     38281     38277     38275     38278     38279
     38277     38275     38278     38280     38277     38275     38278     38281
     38282     38285     38288     38289     38282     38285     38288     38290
     38282     38285     38288     38291     38283     38282     38285     38286
     38283     38282     38285     38287     38283     38282     38285     38288
     38284     38282     38285     38286     38284     38282     38285     38287
     38284     38282     38285     38288     38285     38288     38291     38292
     38285     38288     38291     38293     38285     38288     38291     38294
     38286     38285     38288     38289     38286     38285     38288     38290
     38286     38285     38288     38291     38287     38285     38288     38289
     38287     38285     38288     38290     38287     38285     38288     38291
     38288     38291     38294     38295     38288     38291     38294     38296
     38288     38291     38294     38297     38289     38288     38291     38292
     38289     38288     38291     38293     38289     38288     38291     38294
     38290     38288     38291     38292     38290     38288     38291     38293
     38290     38288     38291     38294     38291     38294     38297     38298
     38291     38294     38297     38299     38291     38294     38297     38300
     38292     38291     38294     38295     38292     38291     38294     38296
     38292     38291     38294     38297     38293     38291     38294     38295
     38293     38291     38294     38296     38293     38291     38294     38297
     38294     38297     38300     38301     38294     38297     38300     38302
     38294     38297     38300     38303     38295     38294     38297     38298
     38295     38294     38297     38299     38295     38294     38297     38300
     38296     38294     38297     38298     38296     38294     38297     38299
     38296     38294     38297     38300     38297     38300     38303     38304
     38297     38300     38303     38305     38297     38300     38303     38306
     38298     38297     38300     38301     38298     38297     38300     38302
     38298     38297     38300     38303     38299     38297     38300     38301
     38299     38297     38300     38302     38299     38297     38300     38303
     38300     38303     38306     38307     38300     38303     38306     38308
     38300     38303     38306     38309     38301     38300     38303     38304
     38301     38300     38303     38305     38301     38300     38303     38306
     38302     38300     38303     38304     38302     38300     38303     38305
     38302     38300     38303     38306     38303     38306     38309     38310
     38303     38306     38309     38311     38303     38306     38309     38312
     38304     38303     38306     38307     38304     38303     38306     38308
     38304     38303     38306     38309     38305     38303     38306     38307
     38305     38303     38306     38308     38305     38303     38306     38309
     38306     38309     38312     38313     38306     38309     38312     38314
     38306     38309     38312     38315     38307     38306     38309     38310
     38307     38306     38309     38311     38307     38306     38309     38312
     38308     38306     38309     38310     38308     38306     38309     38311
     38308     38306     38309     38312     38309     38312     38315     38316
     38309     38312     38315     38317     38309     38312     38315     38318
     38310     38309     38312     38313     38310     38309     38312     38314
     38310     38309     38312     38315     38311     38309     38312     38313
     38311     38309     38312     38314     38311     38309     38312     38315
     38312     38315     38318     38319     38312     38315     38318     38320
     38312     38315     38318     38321     38313     38312     38315     38316
     38313     38312     38315     38317     38313     38312     38315     38318
     38314     38312     38315     38316     38314     38312     38315     38317
     38314     38312     38315     38318     38315     38318     38321     38322
     38315     38318     38321     38323     38315     38318     38321     38324
     38316     38315     38318     38319     38316     38315     38318     38320
     38316     38315     38318     38321     38317     38315     38318     38319
     38317     38315     38318     38320     38317     38315     38318     38321
     38319     38318     38321     38322     38319     38318     38321     38323
     38319     38318     38321     38324     38320     38318     38321     38322
     38320     38318     38321     38323     38320     38318     38321     38324
     38325     38326     38341     38342     38325     38326     38341     38343
     38325     38326     38341     38347     38326     38325     38329     38330
     38326     38325     38329     38331     38326     38325     38329     38332
     38326     38325     38333     38334     38326     38325     38333     38335
     38326     38325     38333     38336     38326     38325     38337     38338
     38326     38325     38337     38339     38326     38325     38337     38340
     38326     38341     38347     38344     38327     38326     38325     38329
     38327     38326     38325     38333     38327     38326     38325     38337
     38327     38326     38341     38342     38327     38326     38341     38343
     38327     38326     38341     38347     38328     38326     38325     38329
     38328     38326     38325     38333     38328     38326     38325     38337
     38328     38326     38341     38342     38328     38326     38341     38343
     38328     38326     38341     38347     38329     38325     38326     38341
     38329     38325     38333     38334     38329     38325     38333     38335
     38329     38325     38333     38336     38329     38325     38337     38338
     38329     38325     38337     38339     38329     38325     38337     38340
     38330     38329     38325     38333     38330     38329     38325     38337
     38331     38329     38325     38333     38331     38329     38325     38337
     38332     38329     38325     38333     38332     38329     38325     38337
     38333     38325     38326     38341     38333     38325     38337     38338
     38333     38325     38337     38339     38333     38325     38337     38340
     38334     38333     38325     38337     38335     38333     38325     38337
     38336     38333     38325     38337     38337     38325     38326     38341
     38341     38347     38344     38345     38341     38347     38344     38346
     38341     38347     38344     38348     38342     38341     38347     38344
     38343     38341     38347     38344     38344     38348     38349     38350
     38344     38348     38349     38351     38344     38348     38349     38352
     38345     38344     38348     38349     38346     38344     38348     38349
     38347     38344     38348     38349     38348     38349     38352     38353
     38348     38349     38352     38354     38348     38349     38352     38360
     38349     38352     38354     38355     38349     38352     38360     38361
     38349     38352     38360     38362     38349     38352     38360     38363
     38350     38349     38352     38353     38350     38349     38352     38354
     38350     38349     38352     38360     38351     38349     38352     38353
     38351     38349     38352     38354     38351     38349     38352     38360
     38352     38354     38355     38356     38352     38354     38355     38357
     38352     38360     38363     38364     38353     38352     38354     38355
     38353     38352     38360     38361     38353     38352     38360     38362
     38353     38352     38360     38363     38354     38352     38360     38361
     38354     38352     38360     38362     38354     38352     38360     38363
     38354     38355     38357     38358     38354     38355     38357     38359
     38354     38355     38357     38369     38355     38354     38352     38360
     38355     38357     38369     38370     38355     38357     38369     38371
     38355     38357     38369     38372     38356     38355     38357     38358
     38356     38355     38357     38359     38356     38355     38357     38369
     38357     38369     38372     38373     38357     38369     38372     38374
     38357     38369     38372     38375     38358     38357     38369     38370
     38358     38357     38369     38371     38358     38357     38369     38372
     38359     38357     38369     38370     38359     38357     38369     38371
     38359     38357     38369     38372     38360     38363     38364     38365
     38360     38363     38364     38366     38361     38360     38363     38364
     38362     38360     38363     38364     38363     38364     38366     38367
     38363     38364     38366     38368     38363     38364     38366     38416
     38364     38366     38416     38417     38364     38366     38416     38418
     38364     38366     38416     38419     38365     38364     38366     38367
     38365     38364     38366     38368     38365     38364     38366     38416
     38366     38416     38419     38420     38366     38416     38419     38421
     38366     38416     38419     38422     38367     38366     38416     38417
     38367     38366     38416     38418     38367     38366     38416     38419
     38368     38366     38416     38417     38368     38366     38416     38418
     38368     38366     38416     38419     38369     38372     38375     38376
     38369     38372     38375     38377     38369     38372     38375     38378
     38370     38369     38372     38373     38370     38369     38372     38374
     38370     38369     38372     38375     38371     38369     38372     38373
     38371     38369     38372     38374     38371     38369     38372     38375
     38372     38375     38378     38379     38372     38375     38378     38380
     38372     38375     38378     38381     38373     38372     38375     38376
     38373     38372     38375     38377     38373     38372     38375     38378
     38374     38372     38375     38376     38374     38372     38375     38377
     38374     38372     38375     38378     38375     38378     38381     38382
     38375     38378     38381     38383     38375     38378     38381     38384
     38376     38375     38378     38379     38376     38375     38378     38380
     38376     38375     38378     38381     38377     38375     38378     38379
     38377     38375     38378     38380     38377     38375     38378     38381
     38378     38381     38384     38385     38378     38381     38384     38386
     38378     38381     38384     38387     38379     38378     38381     38382
     38379     38378     38381     38383     38379     38378     38381     38384
     38380     38378     38381     38382     38380     38378     38381     38383
     38380     38378     38381     38384     38381     38384     38387     38388
     38381     38384     38387     38389     38382     38381     38384     38385
     38382     38381     38384     38386     38382     38381     38384     38387
     38383     38381     38384     38385     38383     38381     38384     38386
     38383     38381     38384     38387     38384     38387     38389     38390
     38384     38387     38389     38391     38385     38384     38387     38388
     38385     38384     38387     38389     38386     38384     38387     38388
     38386     38384     38387     38389     38387     38389     38391     38392
     38387     38389     38391     38393     38387     38389     38391     38394
     38388     38387     38389     38390     38388     38387     38389     38391
     38389     38391     38394     38395     38389     38391     38394     38396
     38389     38391     38394     38397     38390     38389     38391     38392
     38390     38389     38391     38393     38390     38389     38391     38394
     38391     38394     38397     38398     38391     38394     38397     38399
     38391     38394     38397     38400     38392     38391     38394     38395
     38392     38391     38394     38396     38392     38391     38394     38397
     38393     38391     38394     38395     38393     38391     38394     38396
     38393     38391     38394     38397     38394     38397     38400     38401
     38394     38397     38400     38402     38394     38397     38400     38403
     38395     38394     38397     38398     38395     38394     38397     38399
     38395     38394     38397     38400     38396     38394     38397     38398
     38396     38394     38397     38399     38396     38394     38397     38400
     38397     38400     38403     38404     38397     38400     38403     38405
     38397     38400     38403     38406     38398     38397     38400     38401
     38398     38397     38400     38402     38398     38397     38400     38403
     38399     38397     38400     38401     38399     38397     38400     38402
     38399     38397     38400     38403     38400     38403     38406     38407
     38400     38403     38406     38408     38400     38403     38406     38409
     38401     38400     38403     38404     38401     38400     38403     38405
     38401     38400     38403     38406     38402     38400     38403     38404
     38402     38400     38403     38405     38402     38400     38403     38406
     38403     38406     38409     38410     38403     38406     38409     38411
     38403     38406     38409     38412     38404     38403     38406     38407
     38404     38403     38406     38408     38404     38403     38406     38409
     38405     38403     38406     38407     38405     38403     38406     38408
     38405     38403     38406     38409     38406     38409     38412     38413
     38406     38409     38412     38414     38406     38409     38412     38415
     38407     38406     38409     38410     38407     38406     38409     38411
     38407     38406     38409     38412     38408     38406     38409     38410
     38408     38406     38409     38411     38408     38406     38409     38412
     38410     38409     38412     38413     38410     38409     38412     38414
     38410     38409     38412     38415     38411     38409     38412     38413
     38411     38409     38412     38414     38411     38409     38412     38415
     38416     38419     38422     38423     38416     38419     38422     38424
     38416     38419     38422     38425     38417     38416     38419     38420
     38417     38416     38419     38421     38417     38416     38419     38422
     38418     38416     38419     38420     38418     38416     38419     38421
     38418     38416     38419     38422     38419     38422     38425     38426
     38419     38422     38425     38427     38419     38422     38425     38428
     38420     38419     38422     38423     38420     38419     38422     38424
     38420     38419     38422     38425     38421     38419     38422     38423
     38421     38419     38422     38424     38421     38419     38422     38425
     38422     38425     38428     38429     38422     38425     38428     38430
     38422     38425     38428     38431     38423     38422     38425     38426
     38423     38422     38425     38427     38423     38422     38425     38428
     38424     38422     38425     38426     38424     38422     38425     38427
     38424     38422     38425     38428     38425     38428     38431     38432
     38425     38428     38431     38433     38425     38428     38431     38434
     38426     38425     38428     38429     38426     38425     38428     38430
     38426     38425     38428     38431     38427     38425     38428     38429
     38427     38425     38428     38430     38427     38425     38428     38431
     38428     38431     38434     38435     38428     38431     38434     38436
     38428     38431     38434     38437     38429     38428     38431     38432
     38429     38428     38431     38433     38429     38428     38431     38434
     38430     38428     38431     38432     38430     38428     38431     38433
     38430     38428     38431     38434     38431     38434     38437     38438
     38431     38434     38437     38439     38431     38434     38437     38440
     38432     38431     38434     38435     38432     38431     38434     38436
     38432     38431     38434     38437     38433     38431     38434     38435
     38433     38431     38434     38436     38433     38431     38434     38437
     38434     38437     38440     38441     38434     38437     38440     38442
     38434     38437     38440     38443     38435     38434     38437     38438
     38435     38434     38437     38439     38435     38434     38437     38440
     38436     38434     38437     38438     38436     38434     38437     38439
     38436     38434     38437     38440     38437     38440     38443     38444
     38437     38440     38443     38445     38437     38440     38443     38446
     38438     38437     38440     38441     38438     38437     38440     38442
     38438     38437     38440     38443     38439     38437     38440     38441
     38439     38437     38440     38442     38439     38437     38440     38443
     38440     38443     38446     38447     38440     38443     38446     38448
     38440     38443     38446     38449     38441     38440     38443     38444
     38441     38440     38443     38445     38441     38440     38443     38446
     38442     38440     38443     38444     38442     38440     38443     38445
     38442     38440     38443     38446     38443     38446     38449     38450
     38443     38446     38449     38451     38443     38446     38449     38452
     38444     38443     38446     38447     38444     38443     38446     38448
     38444     38443     38446     38449     38445     38443     38446     38447
     38445     38443     38446     38448     38445     38443     38446     38449
     38446     38449     38452     38453     38446     38449     38452     38454
     38446     38449     38452     38455     38447     38446     38449     38450
     38447     38446     38449     38451     38447     38446     38449     38452
     38448     38446     38449     38450     38448     38446     38449     38451
     38448     38446     38449     38452     38449     38452     38455     38456
     38449     38452     38455     38457     38449     38452     38455     38458
     38450     38449     38452     38453     38450     38449     38452     38454
     38450     38449     38452     38455     38451     38449     38452     38453
     38451     38449     38452     38454     38451     38449     38452     38455
     38453     38452     38455     38456     38453     38452     38455     38457
     38453     38452     38455     38458     38454     38452     38455     38456
     38454     38452     38455     38457     38454     38452     38455     38458
     38459     38460     38475     38476     38459     38460     38475     38477
     38459     38460     38475     38481     38460     38459     38463     38464
     38460     38459     38463     38465     38460     38459     38463     38466
     38460     38459     38467     38468     38460     38459     38467     38469
     38460     38459     38467     38470     38460     38459     38471     38472
     38460     38459     38471     38473     38460     38459     38471     38474
     38460     38475     38481     38478     38461     38460     38459     38463
     38461     38460     38459     38467     38461     38460     38459     38471
     38461     38460     38475     38476     38461     38460     38475     38477
     38461     38460     38475     38481     38462     38460     38459     38463
     38462     38460     38459     38467     38462     38460     38459     38471
     38462     38460     38475     38476     38462     38460     38475     38477
     38462     38460     38475     38481     38463     38459     38460     38475
     38463     38459     38467     38468     38463     38459     38467     38469
     38463     38459     38467     38470     38463     38459     38471     38472
     38463     38459     38471     38473     38463     38459     38471     38474
     38464     38463     38459     38467     38464     38463     38459     38471
     38465     38463     38459     38467     38465     38463     38459     38471
     38466     38463     38459     38467     38466     38463     38459     38471
     38467     38459     38460     38475     38467     38459     38471     38472
     38467     38459     38471     38473     38467     38459     38471     38474
     38468     38467     38459     38471     38469     38467     38459     38471
     38470     38467     38459     38471     38471     38459     38460     38475
     38475     38481     38478     38479     38475     38481     38478     38480
     38475     38481     38478     38482     38476     38475     38481     38478
     38477     38475     38481     38478     38478     38482     38483     38484
     38478     38482     38483     38485     38478     38482     38483     38486
     38479     38478     38482     38483     38480     38478     38482     38483
     38481     38478     38482     38483     38482     38483     38486     38487
     38482     38483     38486     38488     38482     38483     38486     38494
     38483     38486     38488     38489     38483     38486     38494     38495
     38483     38486     38494     38496     38483     38486     38494     38497
     38484     38483     38486     38487     38484     38483     38486     38488
     38484     38483     38486     38494     38485     38483     38486     38487
     38485     38483     38486     38488     38485     38483     38486     38494
     38486     38488     38489     38490     38486     38488     38489     38491
     38486     38494     38497     38498     38487     38486     38488     38489
     38487     38486     38494     38495     38487     38486     38494     38496
     38487     38486     38494     38497     38488     38486     38494     38495
     38488     38486     38494     38496     38488     38486     38494     38497
     38488     38489     38491     38492     38488     38489     38491     38493
     38488     38489     38491     38503     38489     38488     38486     38494
     38489     38491     38503     38504     38489     38491     38503     38505
     38489     38491     38503     38506     38490     38489     38491     38492
     38490     38489     38491     38493     38490     38489     38491     38503
     38491     38503     38506     38507     38491     38503     38506     38508
     38491     38503     38506     38509     38492     38491     38503     38504
     38492     38491     38503     38505     38492     38491     38503     38506
     38493     38491     38503     38504     38493     38491     38503     38505
     38493     38491     38503     38506     38494     38497     38498     38499
     38494     38497     38498     38500     38495     38494     38497     38498
     38496     38494     38497     38498     38497     38498     38500     38501
     38497     38498     38500     38502     38497     38498     38500     38550
     38498     38500     38550     38551     38498     38500     38550     38552
     38498     38500     38550     38553     38499     38498     38500     38501
     38499     38498     38500     38502     38499     38498     38500     38550
     38500     38550     38553     38554     38500     38550     38553     38555
     38500     38550     38553     38556     38501     38500     38550     38551
     38501     38500     38550     38552     38501     38500     38550     38553
     38502     38500     38550     38551     38502     38500     38550     38552
     38502     38500     38550     38553     38503     38506     38509     38510
     38503     38506     38509     38511     38503     38506     38509     38512
     38504     38503     38506     38507     38504     38503     38506     38508
     38504     38503     38506     38509     38505     38503     38506     38507
     38505     38503     38506     38508     38505     38503     38506     38509
     38506     38509     38512     38513     38506     38509     38512     38514
     38506     38509     38512     38515     38507     38506     38509     38510
     38507     38506     38509     38511     38507     38506     38509     38512
     38508     38506     38509     38510     38508     38506     38509     38511
     38508     38506     38509     38512     38509     38512     38515     38516
     38509     38512     38515     38517     38509     38512     38515     38518
     38510     38509     38512     38513     38510     38509     38512     38514
     38510     38509     38512     38515     38511     38509     38512     38513
     38511     38509     38512     38514     38511     38509     38512     38515
     38512     38515     38518     38519     38512     38515     38518     38520
     38512     38515     38518     38521     38513     38512     38515     38516
     38513     38512     38515     38517     38513     38512     38515     38518
     38514     38512     38515     38516     38514     38512     38515     38517
     38514     38512     38515     38518     38515     38518     38521     38522
     38515     38518     38521     38523     38516     38515     38518     38519
     38516     38515     38518     38520     38516     38515     38518     38521
     38517     38515     38518     38519     38517     38515     38518     38520
     38517     38515     38518     38521     38518     38521     38523     38524
     38518     38521     38523     38525     38519     38518     38521     38522
     38519     38518     38521     38523     38520     38518     38521     38522
     38520     38518     38521     38523     38521     38523     38525     38526
     38521     38523     38525     38527     38521     38523     38525     38528
     38522     38521     38523     38524     38522     38521     38523     38525
     38523     38525     38528     38529     38523     38525     38528     38530
     38523     38525     38528     38531     38524     38523     38525     38526
     38524     38523     38525     38527     38524     38523     38525     38528
     38525     38528     38531     38532     38525     38528     38531     38533
     38525     38528     38531     38534     38526     38525     38528     38529
     38526     38525     38528     38530     38526     38525     38528     38531
     38527     38525     38528     38529     38527     38525     38528     38530
     38527     38525     38528     38531     38528     38531     38534     38535
     38528     38531     38534     38536     38528     38531     38534     38537
     38529     38528     38531     38532     38529     38528     38531     38533
     38529     38528     38531     38534     38530     38528     38531     38532
     38530     38528     38531     38533     38530     38528     38531     38534
     38531     38534     38537     38538     38531     38534     38537     38539
     38531     38534     38537     38540     38532     38531     38534     38535
     38532     38531     38534     38536     38532     38531     38534     38537
     38533     38531     38534     38535     38533     38531     38534     38536
     38533     38531     38534     38537     38534     38537     38540     38541
     38534     38537     38540     38542     38534     38537     38540     38543
     38535     38534     38537     38538     38535     38534     38537     38539
     38535     38534     38537     38540     38536     38534     38537     38538
     38536     38534     38537     38539     38536     38534     38537     38540
     38537     38540     38543     38544     38537     38540     38543     38545
     38537     38540     38543     38546     38538     38537     38540     38541
     38538     38537     38540     38542     38538     38537     38540     38543
     38539     38537     38540     38541     38539     38537     38540     38542
     38539     38537     38540     38543     38540     38543     38546     38547
     38540     38543     38546     38548     38540     38543     38546     38549
     38541     38540     38543     38544     38541     38540     38543     38545
     38541     38540     38543     38546     38542     38540     38543     38544
     38542     38540     38543     38545     38542     38540     38543     38546
     38544     38543     38546     38547     38544     38543     38546     38548
     38544     38543     38546     38549     38545     38543     38546     38547
     38545     38543     38546     38548     38545     38543     38546     38549
     38550     38553     38556     38557     38550     38553     38556     38558
     38550     38553     38556     38559     38551     38550     38553     38554
     38551     38550     38553     38555     38551     38550     38553     38556
     38552     38550     38553     38554     38552     38550     38553     38555
     38552     38550     38553     38556     38553     38556     38559     38560
     38553     38556     38559     38561     38553     38556     38559     38562
     38554     38553     38556     38557     38554     38553     38556     38558
     38554     38553     38556     38559     38555     38553     38556     38557
     38555     38553     38556     38558     38555     38553     38556     38559
     38556     38559     38562     38563     38556     38559     38562     38564
     38556     38559     38562     38565     38557     38556     38559     38560
     38557     38556     38559     38561     38557     38556     38559     38562
     38558     38556     38559     38560     38558     38556     38559     38561
     38558     38556     38559     38562     38559     38562     38565     38566
     38559     38562     38565     38567     38559     38562     38565     38568
     38560     38559     38562     38563     38560     38559     38562     38564
     38560     38559     38562     38565     38561     38559     38562     38563
     38561     38559     38562     38564     38561     38559     38562     38565
     38562     38565     38568     38569     38562     38565     38568     38570
     38562     38565     38568     38571     38563     38562     38565     38566
     38563     38562     38565     38567     38563     38562     38565     38568
     38564     38562     38565     38566     38564     38562     38565     38567
     38564     38562     38565     38568     38565     38568     38571     38572
     38565     38568     38571     38573     38565     38568     38571     38574
     38566     38565     38568     38569     38566     38565     38568     38570
     38566     38565     38568     38571     38567     38565     38568     38569
     38567     38565     38568     38570     38567     38565     38568     38571
     38568     38571     38574     38575     38568     38571     38574     38576
     38568     38571     38574     38577     38569     38568     38571     38572
     38569     38568     38571     38573     38569     38568     38571     38574
     38570     38568     38571     38572     38570     38568     38571     38573
     38570     38568     38571     38574     38571     38574     38577     38578
     38571     38574     38577     38579     38571     38574     38577     38580
     38572     38571     38574     38575     38572     38571     38574     38576
     38572     38571     38574     38577     38573     38571     38574     38575
     38573     38571     38574     38576     38573     38571     38574     38577
     38574     38577     38580     38581     38574     38577     38580     38582
     38574     38577     38580     38583     38575     38574     38577     38578
     38575     38574     38577     38579     38575     38574     38577     38580
     38576     38574     38577     38578     38576     38574     38577     38579
     38576     38574     38577     38580     38577     38580     38583     38584
     38577     38580     38583     38585     38577     38580     38583     38586
     38578     38577     38580     38581     38578     38577     38580     38582
     38578     38577     38580     38583     38579     38577     38580     38581
     38579     38577     38580     38582     38579     38577     38580     38583
     38580     38583     38586     38587     38580     38583     38586     38588
     38580     38583     38586     38589     38581     38580     38583     38584
     38581     38580     38583     38585     38581     38580     38583     38586
     38582     38580     38583     38584     38582     38580     38583     38585
     38582     38580     38583     38586     38583     38586     38589     38590
     38583     38586     38589     38591     38583     38586     38589     38592
     38584     38583     38586     38587     38584     38583     38586     38588
     38584     38583     38586     38589     38585     38583     38586     38587
     38585     38583     38586     38588     38585     38583     38586     38589
     38587     38586     38589     38590     38587     38586     38589     38591
     38587     38586     38589     38592     38588     38586     38589     38590
     38588     38586     38589     38591     38588     38586     38589     38592
     38593     38594     38609     38610     38593     38594     38609     38611
     38593     38594     38609     38615     38594     38593     38597     38598
     38594     38593     38597     38599     38594     38593     38597     38600
     38594     38593     38601     38602     38594     38593     38601     38603
     38594     38593     38601     38604     38594     38593     38605     38606
     38594     38593     38605     38607     38594     38593     38605     38608
     38594     38609     38615     38612     38595     38594     38593     38597
     38595     38594     38593     38601     38595     38594     38593     38605
     38595     38594     38609     38610     38595     38594     38609     38611
     38595     38594     38609     38615     38596     38594     38593     38597
     38596     38594     38593     38601     38596     38594     38593     38605
     38596     38594     38609     38610     38596     38594     38609     38611
     38596     38594     38609     38615     38597     38593     38594     38609
     38597     38593     38601     38602     38597     38593     38601     38603
     38597     38593     38601     38604     38597     38593     38605     38606
     38597     38593     38605     38607     38597     38593     38605     38608
     38598     38597     38593     38601     38598     38597     38593     38605
     38599     38597     38593     38601     38599     38597     38593     38605
     38600     38597     38593     38601     38600     38597     38593     38605
     38601     38593     38594     38609     38601     38593     38605     38606
     38601     38593     38605     38607     38601     38593     38605     38608
     38602     38601     38593     38605     38603     38601     38593     38605
     38604     38601     38593     38605     38605     38593     38594     38609
     38609     38615     38612     38613     38609     38615     38612     38614
     38609     38615     38612     38616     38610     38609     38615     38612
     38611     38609     38615     38612     38612     38616     38617     38618
     38612     38616     38617     38619     38612     38616     38617     38620
     38613     38612     38616     38617     38614     38612     38616     38617
     38615     38612     38616     38617     38616     38617     38620     38621
     38616     38617     38620     38622     38616     38617     38620     38628
     38617     38620     38622     38623     38617     38620     38628     38629
     38617     38620     38628     38630     38617     38620     38628     38631
     38618     38617     38620     38621     38618     38617     38620     38622
     38618     38617     38620     38628     38619     38617     38620     38621
     38619     38617     38620     38622     38619     38617     38620     38628
     38620     38622     38623     38624     38620     38622     38623     38625
     38620     38628     38631     38632     38621     38620     38622     38623
     38621     38620     38628     38629     38621     38620     38628     38630
     38621     38620     38628     38631     38622     38620     38628     38629
     38622     38620     38628     38630     38622     38620     38628     38631
     38622     38623     38625     38626     38622     38623     38625     38627
     38622     38623     38625     38637     38623     38622     38620     38628
     38623     38625     38637     38638     38623     38625     38637     38639
     38623     38625     38637     38640     38624     38623     38625     38626
     38624     38623     38625     38627     38624     38623     38625     38637
     38625     38637     38640     38641     38625     38637     38640     38642
     38625     38637     38640     38643     38626     38625     38637     38638
     38626     38625     38637     38639     38626     38625     38637     38640
     38627     38625     38637     38638     38627     38625     38637     38639
     38627     38625     38637     38640     38628     38631     38632     38633
     38628     38631     38632     38634     38629     38628     38631     38632
     38630     38628     38631     38632     38631     38632     38634     38635
     38631     38632     38634     38636     38631     38632     38634     38684
     38632     38634     38684     38685     38632     38634     38684     38686
     38632     38634     38684     38687     38633     38632     38634     38635
     38633     38632     38634     38636     38633     38632     38634     38684
     38634     38684     38687     38688     38634     38684     38687     38689
     38634     38684     38687     38690     38635     38634     38684     38685
     38635     38634     38684     38686     38635     38634     38684     38687
     38636     38634     38684     38685     38636     38634     38684     38686
     38636     38634     38684     38687     38637     38640     38643     38644
     38637     38640     38643     38645     38637     38640     38643     38646
     38638     38637     38640     38641     38638     38637     38640     38642
     38638     38637     38640     38643     38639     38637     38640     38641
     38639     38637     38640     38642     38639     38637     38640     38643
     38640     38643     38646     38647     38640     38643     38646     38648
     38640     38643     38646     38649     38641     38640     38643     38644
     38641     38640     38643     38645     38641     38640     38643     38646
     38642     38640     38643     38644     38642     38640     38643     38645
     38642     38640     38643     38646     38643     38646     38649     38650
     38643     38646     38649     38651     38643     38646     38649     38652
     38644     38643     38646     38647     38644     38643     38646     38648
     38644     38643     38646     38649     38645     38643     38646     38647
     38645     38643     38646     38648     38645     38643     38646     38649
     38646     38649     38652     38653     38646     38649     38652     38654
     38646     38649     38652     38655     38647     38646     38649     38650
     38647     38646     38649     38651     38647     38646     38649     38652
     38648     38646     38649     38650     38648     38646     38649     38651
     38648     38646     38649     38652     38649     38652     38655     38656
     38649     38652     38655     38657     38650     38649     38652     38653
     38650     38649     38652     38654     38650     38649     38652     38655
     38651     38649     38652     38653     38651     38649     38652     38654
     38651     38649     38652     38655     38652     38655     38657     38658
     38652     38655     38657     38659     38653     38652     38655     38656
     38653     38652     38655     38657     38654     38652     38655     38656
     38654     38652     38655     38657     38655     38657     38659     38660
     38655     38657     38659     38661     38655     38657     38659     38662
     38656     38655     38657     38658     38656     38655     38657     38659
     38657     38659     38662     38663     38657     38659     38662     38664
     38657     38659     38662     38665     38658     38657     38659     38660
     38658     38657     38659     38661     38658     38657     38659     38662
     38659     38662     38665     38666     38659     38662     38665     38667
     38659     38662     38665     38668     38660     38659     38662     38663
     38660     38659     38662     38664     38660     38659     38662     38665
     38661     38659     38662     38663     38661     38659     38662     38664
     38661     38659     38662     38665     38662     38665     38668     38669
     38662     38665     38668     38670     38662     38665     38668     38671
     38663     38662     38665     38666     38663     38662     38665     38667
     38663     38662     38665     38668     38664     38662     38665     38666
     38664     38662     38665     38667     38664     38662     38665     38668
     38665     38668     38671     38672     38665     38668     38671     38673
     38665     38668     38671     38674     38666     38665     38668     38669
     38666     38665     38668     38670     38666     38665     38668     38671
     38667     38665     38668     38669     38667     38665     38668     38670
     38667     38665     38668     38671     38668     38671     38674     38675
     38668     38671     38674     38676     38668     38671     38674     38677
     38669     38668     38671     38672     38669     38668     38671     38673
     38669     38668     38671     38674     38670     38668     38671     38672
     38670     38668     38671     38673     38670     38668     38671     38674
     38671     38674     38677     38678     38671     38674     38677     38679
     38671     38674     38677     38680     38672     38671     38674     38675
     38672     38671     38674     38676     38672     38671     38674     38677
     38673     38671     38674     38675     38673     38671     38674     38676
     38673     38671     38674     38677     38674     38677     38680     38681
     38674     38677     38680     38682     38674     38677     38680     38683
     38675     38674     38677     38678     38675     38674     38677     38679
     38675     38674     38677     38680     38676     38674     38677     38678
     38676     38674     38677     38679     38676     38674     38677     38680
     38678     38677     38680     38681     38678     38677     38680     38682
     38678     38677     38680     38683     38679     38677     38680     38681
     38679     38677     38680     38682     38679     38677     38680     38683
     38684     38687     38690     38691     38684     38687     38690     38692
     38684     38687     38690     38693     38685     38684     38687     38688
     38685     38684     38687     38689     38685     38684     38687     38690
     38686     38684     38687     38688     38686     38684     38687     38689
     38686     38684     38687     38690     38687     38690     38693     38694
     38687     38690     38693     38695     38687     38690     38693     38696
     38688     38687     38690     38691     38688     38687     38690     38692
     38688     38687     38690     38693     38689     38687     38690     38691
     38689     38687     38690     38692     38689     38687     38690     38693
     38690     38693     38696     38697     38690     38693     38696     38698
     38690     38693     38696     38699     38691     38690     38693     38694
     38691     38690     38693     38695     38691     38690     38693     38696
     38692     38690     38693     38694     38692     38690     38693     38695
     38692     38690     38693     38696     38693     38696     38699     38700
     38693     38696     38699     38701     38693     38696     38699     38702
     38694     38693     38696     38697     38694     38693     38696     38698
     38694     38693     38696     38699     38695     38693     38696     38697
     38695     38693     38696     38698     38695     38693     38696     38699
     38696     38699     38702     38703     38696     38699     38702     38704
     38696     38699     38702     38705     38697     38696     38699     38700
     38697     38696     38699     38701     38697     38696     38699     38702
     38698     38696     38699     38700     38698     38696     38699     38701
     38698     38696     38699     38702     38699     38702     38705     38706
     38699     38702     38705     38707     38699     38702     38705     38708
     38700     38699     38702     38703     38700     38699     38702     38704
     38700     38699     38702     38705     38701     38699     38702     38703
     38701     38699     38702     38704     38701     38699     38702     38705
     38702     38705     38708     38709     38702     38705     38708     38710
     38702     38705     38708     38711     38703     38702     38705     38706
     38703     38702     38705     38707     38703     38702     38705     38708
     38704     38702     38705     38706     38704     38702     38705     38707
     38704     38702     38705     38708     38705     38708     38711     38712
     38705     38708     38711     38713     38705     38708     38711     38714
     38706     38705     38708     38709     38706     38705     38708     38710
     38706     38705     38708     38711     38707     38705     38708     38709
     38707     38705     38708     38710     38707     38705     38708     38711
     38708     38711     38714     38715     38708     38711     38714     38716
     38708     38711     38714     38717     38709     38708     38711     38712
     38709     38708     38711     38713     38709     38708     38711     38714
     38710     38708     38711     38712     38710     38708     38711     38713
     38710     38708     38711     38714     38711     38714     38717     38718
     38711     38714     38717     38719     38711     38714     38717     38720
     38712     38711     38714     38715     38712     38711     38714     38716
     38712     38711     38714     38717     38713     38711     38714     38715
     38713     38711     38714     38716     38713     38711     38714     38717
     38714     38717     38720     38721     38714     38717     38720     38722
     38714     38717     38720     38723     38715     38714     38717     38718
     38715     38714     38717     38719     38715     38714     38717     38720
     38716     38714     38717     38718     38716     38714     38717     38719
     38716     38714     38717     38720     38717     38720     38723     38724
     38717     38720     38723     38725     38717     38720     38723     38726
     38718     38717     38720     38721     38718     38717     38720     38722
     38718     38717     38720     38723     38719     38717     38720     38721
     38719     38717     38720     38722     38719     38717     38720     38723
     38721     38720     38723     38724     38721     38720     38723     38725
     38721     38720     38723     38726     38722     38720     38723     38724
     38722     38720     38723     38725     38722     38720     38723     38726
     38727     38728     38743     38744     38727     38728     38743     38745
     38727     38728     38743     38749     38728     38727     38731     38732
     38728     38727     38731     38733     38728     38727     38731     38734
     38728     38727     38735     38736     38728     38727     38735     38737
     38728     38727     38735     38738     38728     38727     38739     38740
     38728     38727     38739     38741     38728     38727     38739     38742
     38728     38743     38749     38746     38729     38728     38727     38731
     38729     38728     38727     38735     38729     38728     38727     38739
     38729     38728     38743     38744     38729     38728     38743     38745
     38729     38728     38743     38749     38730     38728     38727     38731
     38730     38728     38727     38735     38730     38728     38727     38739
     38730     38728     38743     38744     38730     38728     38743     38745
     38730     38728     38743     38749     38731     38727     38728     38743
     38731     38727     38735     38736     38731     38727     38735     38737
     38731     38727     38735     38738     38731     38727     38739     38740
     38731     38727     38739     38741     38731     38727     38739     38742
     38732     38731     38727     38735     38732     38731     38727     38739
     38733     38731     38727     38735     38733     38731     38727     38739
     38734     38731     38727     38735     38734     38731     38727     38739
     38735     38727     38728     38743     38735     38727     38739     38740
     38735     38727     38739     38741     38735     38727     38739     38742
     38736     38735     38727     38739     38737     38735     38727     38739
     38738     38735     38727     38739     38739     38727     38728     38743
     38743     38749     38746     38747     38743     38749     38746     38748
     38743     38749     38746     38750     38744     38743     38749     38746
     38745     38743     38749     38746     38746     38750     38751     38752
     38746     38750     38751     38753     38746     38750     38751     38754
     38747     38746     38750     38751     38748     38746     38750     38751
     38749     38746     38750     38751     38750     38751     38754     38755
     38750     38751     38754     38756     38750     38751     38754     38762
     38751     38754     38756     38757     38751     38754     38762     38763
     38751     38754     38762     38764     38751     38754     38762     38765
     38752     38751     38754     38755     38752     38751     38754     38756
     38752     38751     38754     38762     38753     38751     38754     38755
     38753     38751     38754     38756     38753     38751     38754     38762
     38754     38756     38757     38758     38754     38756     38757     38759
     38754     38762     38765     38766     38755     38754     38756     38757
     38755     38754     38762     38763     38755     38754     38762     38764
     38755     38754     38762     38765     38756     38754     38762     38763
     38756     38754     38762     38764     38756     38754     38762     38765
     38756     38757     38759     38760     38756     38757     38759     38761
     38756     38757     38759     38771     38757     38756     38754     38762
     38757     38759     38771     38772     38757     38759     38771     38773
     38757     38759     38771     38774     38758     38757     38759     38760
     38758     38757     38759     38761     38758     38757     38759     38771
     38759     38771     38774     38775     38759     38771     38774     38776
     38759     38771     38774     38777     38760     38759     38771     38772
     38760     38759     38771     38773     38760     38759     38771     38774
     38761     38759     38771     38772     38761     38759     38771     38773
     38761     38759     38771     38774     38762     38765     38766     38767
     38762     38765     38766     38768     38763     38762     38765     38766
     38764     38762     38765     38766     38765     38766     38768     38769
     38765     38766     38768     38770     38765     38766     38768     38818
     38766     38768     38818     38819     38766     38768     38818     38820
     38766     38768     38818     38821     38767     38766     38768     38769
     38767     38766     38768     38770     38767     38766     38768     38818
     38768     38818     38821     38822     38768     38818     38821     38823
     38768     38818     38821     38824     38769     38768     38818     38819
     38769     38768     38818     38820     38769     38768     38818     38821
     38770     38768     38818     38819     38770     38768     38818     38820
     38770     38768     38818     38821     38771     38774     38777     38778
     38771     38774     38777     38779     38771     38774     38777     38780
     38772     38771     38774     38775     38772     38771     38774     38776
     38772     38771     38774     38777     38773     38771     38774     38775
     38773     38771     38774     38776     38773     38771     38774     38777
     38774     38777     38780     38781     38774     38777     38780     38782
     38774     38777     38780     38783     38775     38774     38777     38778
     38775     38774     38777     38779     38775     38774     38777     38780
     38776     38774     38777     38778     38776     38774     38777     38779
     38776     38774     38777     38780     38777     38780     38783     38784
     38777     38780     38783     38785     38777     38780     38783     38786
     38778     38777     38780     38781     38778     38777     38780     38782
     38778     38777     38780     38783     38779     38777     38780     38781
     38779     38777     38780     38782     38779     38777     38780     38783
     38780     38783     38786     38787     38780     38783     38786     38788
     38780     38783     38786     38789     38781     38780     38783     38784
     38781     38780     38783     38785     38781     38780     38783     38786
     38782     38780     38783     38784     38782     38780     38783     38785
     38782     38780     38783     38786     38783     38786     38789     38790
     38783     38786     38789     38791     38784     38783     38786     38787
     38784     38783     38786     38788     38784     38783     38786     38789
     38785     38783     38786     38787     38785     38783     38786     38788
     38785     38783     38786     38789     38786     38789     38791     38792
     38786     38789     38791     38793     38787     38786     38789     38790
     38787     38786     38789     38791     38788     38786     38789     38790
     38788     38786     38789     38791     38789     38791     38793     38794
     38789     38791     38793     38795     38789     38791     38793     38796
     38790     38789     38791     38792     38790     38789     38791     38793
     38791     38793     38796     38797     38791     38793     38796     38798
     38791     38793     38796     38799     38792     38791     38793     38794
     38792     38791     38793     38795     38792     38791     38793     38796
     38793     38796     38799     38800     38793     38796     38799     38801
     38793     38796     38799     38802     38794     38793     38796     38797
     38794     38793     38796     38798     38794     38793     38796     38799
     38795     38793     38796     38797     38795     38793     38796     38798
     38795     38793     38796     38799     38796     38799     38802     38803
     38796     38799     38802     38804     38796     38799     38802     38805
     38797     38796     38799     38800     38797     38796     38799     38801
     38797     38796     38799     38802     38798     38796     38799     38800
     38798     38796     38799     38801     38798     38796     38799     38802
     38799     38802     38805     38806     38799     38802     38805     38807
     38799     38802     38805     38808     38800     38799     38802     38803
     38800     38799     38802     38804     38800     38799     38802     38805
     38801     38799     38802     38803     38801     38799     38802     38804
     38801     38799     38802     38805     38802     38805     38808     38809
     38802     38805     38808     38810     38802     38805     38808     38811
     38803     38802     38805     38806     38803     38802     38805     38807
     38803     38802     38805     38808     38804     38802     38805     38806
     38804     38802     38805     38807     38804     38802     38805     38808
     38805     38808     38811     38812     38805     38808     38811     38813
     38805     38808     38811     38814     38806     38805     38808     38809
     38806     38805     38808     38810     38806     38805     38808     38811
     38807     38805     38808     38809     38807     38805     38808     38810
     38807     38805     38808     38811     38808     38811     38814     38815
     38808     38811     38814     38816     38808     38811     38814     38817
     38809     38808     38811     38812     38809     38808     38811     38813
     38809     38808     38811     38814     38810     38808     38811     38812
     38810     38808     38811     38813     38810     38808     38811     38814
     38812     38811     38814     38815     38812     38811     38814     38816
     38812     38811     38814     38817     38813     38811     38814     38815
     38813     38811     38814     38816     38813     38811     38814     38817
     38818     38821     38824     38825     38818     38821     38824     38826
     38818     38821     38824     38827     38819     38818     38821     38822
     38819     38818     38821     38823     38819     38818     38821     38824
     38820     38818     38821     38822     38820     38818     38821     38823
     38820     38818     38821     38824     38821     38824     38827     38828
     38821     38824     38827     38829     38821     38824     38827     38830
     38822     38821     38824     38825     38822     38821     38824     38826
     38822     38821     38824     38827     38823     38821     38824     38825
     38823     38821     38824     38826     38823     38821     38824     38827
     38824     38827     38830     38831     38824     38827     38830     38832
     38824     38827     38830     38833     38825     38824     38827     38828
     38825     38824     38827     38829     38825     38824     38827     38830
     38826     38824     38827     38828     38826     38824     38827     38829
     38826     38824     38827     38830     38827     38830     38833     38834
     38827     38830     38833     38835     38827     38830     38833     38836
     38828     38827     38830     38831     38828     38827     38830     38832
     38828     38827     38830     38833     38829     38827     38830     38831
     38829     38827     38830     38832     38829     38827     38830     38833
     38830     38833     38836     38837     38830     38833     38836     38838
     38830     38833     38836     38839     38831     38830     38833     38834
     38831     38830     38833     38835     38831     38830     38833     38836
     38832     38830     38833     38834     38832     38830     38833     38835
     38832     38830     38833     38836     38833     38836     38839     38840
     38833     38836     38839     38841     38833     38836     38839     38842
     38834     38833     38836     38837     38834     38833     38836     38838
     38834     38833     38836     38839     38835     38833     38836     38837
     38835     38833     38836     38838     38835     38833     38836     38839
     38836     38839     38842     38843     38836     38839     38842     38844
     38836     38839     38842     38845     38837     38836     38839     38840
     38837     38836     38839     38841     38837     38836     38839     38842
     38838     38836     38839     38840     38838     38836     38839     38841
     38838     38836     38839     38842     38839     38842     38845     38846
     38839     38842     38845     38847     38839     38842     38845     38848
     38840     38839     38842     38843     38840     38839     38842     38844
     38840     38839     38842     38845     38841     38839     38842     38843
     38841     38839     38842     38844     38841     38839     38842     38845
     38842     38845     38848     38849     38842     38845     38848     38850
     38842     38845     38848     38851     38843     38842     38845     38846
     38843     38842     38845     38847     38843     38842     38845     38848
     38844     38842     38845     38846     38844     38842     38845     38847
     38844     38842     38845     38848     38845     38848     38851     38852
     38845     38848     38851     38853     38845     38848     38851     38854
     38846     38845     38848     38849     38846     38845     38848     38850
     38846     38845     38848     38851     38847     38845     38848     38849
     38847     38845     38848     38850     38847     38845     38848     38851
     38848     38851     38854     38855     38848     38851     38854     38856
     38848     38851     38854     38857     38849     38848     38851     38852
     38849     38848     38851     38853     38849     38848     38851     38854
     38850     38848     38851     38852     38850     38848     38851     38853
     38850     38848     38851     38854     38851     38854     38857     38858
     38851     38854     38857     38859     38851     38854     38857     38860
     38852     38851     38854     38855     38852     38851     38854     38856
     38852     38851     38854     38857     38853     38851     38854     38855
     38853     38851     38854     38856     38853     38851     38854     38857
     38855     38854     38857     38858     38855     38854     38857     38859
     38855     38854     38857     38860     38856     38854     38857     38858
     38856     38854     38857     38859     38856     38854     38857     38860
     38861     38862     38877     38878     38861     38862     38877     38879
     38861     38862     38877     38883     38862     38861     38865     38866
     38862     38861     38865     38867     38862     38861     38865     38868
     38862     38861     38869     38870     38862     38861     38869     38871
     38862     38861     38869     38872     38862     38861     38873     38874
     38862     38861     38873     38875     38862     38861     38873     38876
     38862     38877     38883     38880     38863     38862     38861     38865
     38863     38862     38861     38869     38863     38862     38861     38873
     38863     38862     38877     38878     38863     38862     38877     38879
     38863     38862     38877     38883     38864     38862     38861     38865
     38864     38862     38861     38869     38864     38862     38861     38873
     38864     38862     38877     38878     38864     38862     38877     38879
     38864     38862     38877     38883     38865     38861     38862     38877
     38865     38861     38869     38870     38865     38861     38869     38871
     38865     38861     38869     38872     38865     38861     38873     38874
     38865     38861     38873     38875     38865     38861     38873     38876
     38866     38865     38861     38869     38866     38865     38861     38873
     38867     38865     38861     38869     38867     38865     38861     38873
     38868     38865     38861     38869     38868     38865     38861     38873
     38869     38861     38862     38877     38869     38861     38873     38874
     38869     38861     38873     38875     38869     38861     38873     38876
     38870     38869     38861     38873     38871     38869     38861     38873
     38872     38869     38861     38873     38873     38861     38862     38877
     38877     38883     38880     38881     38877     38883     38880     38882
     38877     38883     38880     38884     38878     38877     38883     38880
     38879     38877     38883     38880     38880     38884     38885     38886
     38880     38884     38885     38887     38880     38884     38885     38888
     38881     38880     38884     38885     38882     38880     38884     38885
     38883     38880     38884     38885     38884     38885     38888     38889
     38884     38885     38888     38890     38884     38885     38888     38896
     38885     38888     38890     38891     38885     38888     38896     38897
     38885     38888     38896     38898     38885     38888     38896     38899
     38886     38885     38888     38889     38886     38885     38888     38890
     38886     38885     38888     38896     38887     38885     38888     38889
     38887     38885     38888     38890     38887     38885     38888     38896
     38888     38890     38891     38892     38888     38890     38891     38893
     38888     38896     38899     38900     38889     38888     38890     38891
     38889     38888     38896     38897     38889     38888     38896     38898
     38889     38888     38896     38899     38890     38888     38896     38897
     38890     38888     38896     38898     38890     38888     38896     38899
     38890     38891     38893     38894     38890     38891     38893     38895
     38890     38891     38893     38905     38891     38890     38888     38896
     38891     38893     38905     38906     38891     38893     38905     38907
     38891     38893     38905     38908     38892     38891     38893     38894
     38892     38891     38893     38895     38892     38891     38893     38905
     38893     38905     38908     38909     38893     38905     38908     38910
     38893     38905     38908     38911     38894     38893     38905     38906
     38894     38893     38905     38907     38894     38893     38905     38908
     38895     38893     38905     38906     38895     38893     38905     38907
     38895     38893     38905     38908     38896     38899     38900     38901
     38896     38899     38900     38902     38897     38896     38899     38900
     38898     38896     38899     38900     38899     38900     38902     38903
     38899     38900     38902     38904     38899     38900     38902     38952
     38900     38902     38952     38953     38900     38902     38952     38954
     38900     38902     38952     38955     38901     38900     38902     38903
     38901     38900     38902     38904     38901     38900     38902     38952
     38902     38952     38955     38956     38902     38952     38955     38957
     38902     38952     38955     38958     38903     38902     38952     38953
     38903     38902     38952     38954     38903     38902     38952     38955
     38904     38902     38952     38953     38904     38902     38952     38954
     38904     38902     38952     38955     38905     38908     38911     38912
     38905     38908     38911     38913     38905     38908     38911     38914
     38906     38905     38908     38909     38906     38905     38908     38910
     38906     38905     38908     38911     38907     38905     38908     38909
     38907     38905     38908     38910     38907     38905     38908     38911
     38908     38911     38914     38915     38908     38911     38914     38916
     38908     38911     38914     38917     38909     38908     38911     38912
     38909     38908     38911     38913     38909     38908     38911     38914
     38910     38908     38911     38912     38910     38908     38911     38913
     38910     38908     38911     38914     38911     38914     38917     38918
     38911     38914     38917     38919     38911     38914     38917     38920
     38912     38911     38914     38915     38912     38911     38914     38916
     38912     38911     38914     38917     38913     38911     38914     38915
     38913     38911     38914     38916     38913     38911     38914     38917
     38914     38917     38920     38921     38914     38917     38920     38922
     38914     38917     38920     38923     38915     38914     38917     38918
     38915     38914     38917     38919     38915     38914     38917     38920
     38916     38914     38917     38918     38916     38914     38917     38919
     38916     38914     38917     38920     38917     38920     38923     38924
     38917     38920     38923     38925     38918     38917     38920     38921
     38918     38917     38920     38922     38918     38917     38920     38923
     38919     38917     38920     38921     38919     38917     38920     38922
     38919     38917     38920     38923     38920     38923     38925     38926
     38920     38923     38925     38927     38921     38920     38923     38924
     38921     38920     38923     38925     38922     38920     38923     38924
     38922     38920     38923     38925     38923     38925     38927     38928
     38923     38925     38927     38929     38923     38925     38927     38930
     38924     38923     38925     38926     38924     38923     38925     38927
     38925     38927     38930     38931     38925     38927     38930     38932
     38925     38927     38930     38933     38926     38925     38927     38928
     38926     38925     38927     38929     38926     38925     38927     38930
     38927     38930     38933     38934     38927     38930     38933     38935
     38927     38930     38933     38936     38928     38927     38930     38931
     38928     38927     38930     38932     38928     38927     38930     38933
     38929     38927     38930     38931     38929     38927     38930     38932
     38929     38927     38930     38933     38930     38933     38936     38937
     38930     38933     38936     38938     38930     38933     38936     38939
     38931     38930     38933     38934     38931     38930     38933     38935
     38931     38930     38933     38936     38932     38930     38933     38934
     38932     38930     38933     38935     38932     38930     38933     38936
     38933     38936     38939     38940     38933     38936     38939     38941
     38933     38936     38939     38942     38934     38933     38936     38937
     38934     38933     38936     38938     38934     38933     38936     38939
     38935     38933     38936     38937     38935     38933     38936     38938
     38935     38933     38936     38939     38936     38939     38942     38943
     38936     38939     38942     38944     38936     38939     38942     38945
     38937     38936     38939     38940     38937     38936     38939     38941
     38937     38936     38939     38942     38938     38936     38939     38940
     38938     38936     38939     38941     38938     38936     38939     38942
     38939     38942     38945     38946     38939     38942     38945     38947
     38939     38942     38945     38948     38940     38939     38942     38943
     38940     38939     38942     38944     38940     38939     38942     38945
     38941     38939     38942     38943     38941     38939     38942     38944
     38941     38939     38942     38945     38942     38945     38948     38949
     38942     38945     38948     38950     38942     38945     38948     38951
     38943     38942     38945     38946     38943     38942     38945     38947
     38943     38942     38945     38948     38944     38942     38945     38946
     38944     38942     38945     38947     38944     38942     38945     38948
     38946     38945     38948     38949     38946     38945     38948     38950
     38946     38945     38948     38951     38947     38945     38948     38949
     38947     38945     38948     38950     38947     38945     38948     38951
     38952     38955     38958     38959     38952     38955     38958     38960
     38952     38955     38958     38961     38953     38952     38955     38956
     38953     38952     38955     38957     38953     38952     38955     38958
     38954     38952     38955     38956     38954     38952     38955     38957
     38954     38952     38955     38958     38955     38958     38961     38962
     38955     38958     38961     38963     38955     38958     38961     38964
     38956     38955     38958     38959     38956     38955     38958     38960
     38956     38955     38958     38961     38957     38955     38958     38959
     38957     38955     38958     38960     38957     38955     38958     38961
     38958     38961     38964     38965     38958     38961     38964     38966
     38958     38961     38964     38967     38959     38958     38961     38962
     38959     38958     38961     38963     38959     38958     38961     38964
     38960     38958     38961     38962     38960     38958     38961     38963
     38960     38958     38961     38964     38961     38964     38967     38968
     38961     38964     38967     38969     38961     38964     38967     38970
     38962     38961     38964     38965     38962     38961     38964     38966
     38962     38961     38964     38967     38963     38961     38964     38965
     38963     38961     38964     38966     38963     38961     38964     38967
     38964     38967     38970     38971     38964     38967     38970     38972
     38964     38967     38970     38973     38965     38964     38967     38968
     38965     38964     38967     38969     38965     38964     38967     38970
     38966     38964     38967     38968     38966     38964     38967     38969
     38966     38964     38967     38970     38967     38970     38973     38974
     38967     38970     38973     38975     38967     38970     38973     38976
     38968     38967     38970     38971     38968     38967     38970     38972
     38968     38967     38970     38973     38969     38967     38970     38971
     38969     38967     38970     38972     38969     38967     38970     38973
     38970     38973     38976     38977     38970     38973     38976     38978
     38970     38973     38976     38979     38971     38970     38973     38974
     38971     38970     38973     38975     38971     38970     38973     38976
     38972     38970     38973     38974     38972     38970     38973     38975
     38972     38970     38973     38976     38973     38976     38979     38980
     38973     38976     38979     38981     38973     38976     38979     38982
     38974     38973     38976     38977     38974     38973     38976     38978
     38974     38973     38976     38979     38975     38973     38976     38977
     38975     38973     38976     38978     38975     38973     38976     38979
     38976     38979     38982     38983     38976     38979     38982     38984
     38976     38979     38982     38985     38977     38976     38979     38980
     38977     38976     38979     38981     38977     38976     38979     38982
     38978     38976     38979     38980     38978     38976     38979     38981
     38978     38976     38979     38982     38979     38982     38985     38986
     38979     38982     38985     38987     38979     38982     38985     38988
     38980     38979     38982     38983     38980     38979     38982     38984
     38980     38979     38982     38985     38981     38979     38982     38983
     38981     38979     38982     38984     38981     38979     38982     38985
     38982     38985     38988     38989     38982     38985     38988     38990
     38982     38985     38988     38991     38983     38982     38985     38986
     38983     38982     38985     38987     38983     38982     38985     38988
     38984     38982     38985     38986     38984     38982     38985     38987
     38984     38982     38985     38988     38985     38988     38991     38992
     38985     38988     38991     38993     38985     38988     38991     38994
     38986     38985     38988     38989     38986     38985     38988     38990
     38986     38985     38988     38991     38987     38985     38988     38989
     38987     38985     38988     38990     38987     38985     38988     38991
     38989     38988     38991     38992     38989     38988     38991     38993
     38989     38988     38991     38994     38990     38988     38991     38992
     38990     38988     38991     38993     38990     38988     38991     38994
     38995     38996     39011     39012     38995     38996     39011     39013
     38995     38996     39011     39017     38996     38995     38999     39000
     38996     38995     38999     39001     38996     38995     38999     39002
     38996     38995     39003     39004     38996     38995     39003     39005
     38996     38995     39003     39006     38996     38995     39007     39008
     38996     38995     39007     39009     38996     38995     39007     39010
     38996     39011     39017     39014     38997     38996     38995     38999
     38997     38996     38995     39003     38997     38996     38995     39007
     38997     38996     39011     39012     38997     38996     39011     39013
     38997     38996     39011     39017     38998     38996     38995     38999
     38998     38996     38995     39003     38998     38996     38995     39007
     38998     38996     39011     39012     38998     38996     39011     39013
     38998     38996     39011     39017     38999     38995     38996     39011
     38999     38995     39003     39004     38999     38995     39003     39005
     38999     38995     39003     39006     38999     38995     39007     39008
     38999     38995     39007     39009     38999     38995     39007     39010
     39000     38999     38995     39003     39000     38999     38995     39007
     39001     38999     38995     39003     39001     38999     38995     39007
     39002     38999     38995     39003     39002     38999     38995     39007
     39003     38995     38996     39011     39003     38995     39007     39008
     39003     38995     39007     39009     39003     38995     39007     39010
     39004     39003     38995     39007     39005     39003     38995     39007
     39006     39003     38995     39007     39007     38995     38996     39011
     39011     39017     39014     39015     39011     39017     39014     39016
     39011     39017     39014     39018     39012     39011     39017     39014
     39013     39011     39017     39014     39014     39018     39019     39020
     39014     39018     39019     39021     39014     39018     39019     39022
     39015     39014     39018     39019     39016     39014     39018     39019
     39017     39014     39018     39019     39018     39019     39022     39023
     39018     39019     39022     39024     39018     39019     39022     39030
     39019     39022     39024     39025     39019     39022     39030     39031
     39019     39022     39030     39032     39019     39022     39030     39033
     39020     39019     39022     39023     39020     39019     39022     39024
     39020     39019     39022     39030     39021     39019     39022     39023
     39021     39019     39022     39024     39021     39019     39022     39030
     39022     39024     39025     39026     39022     39024     39025     39027
     39022     39030     39033     39034     39023     39022     39024     39025
     39023     39022     39030     39031     39023     39022     39030     39032
     39023     39022     39030     39033     39024     39022     39030     39031
     39024     39022     39030     39032     39024     39022     39030     39033
     39024     39025     39027     39028     39024     39025     39027     39029
     39024     39025     39027     39039     39025     39024     39022     39030
     39025     39027     39039     39040     39025     39027     39039     39041
     39025     39027     39039     39042     39026     39025     39027     39028
     39026     39025     39027     39029     39026     39025     39027     39039
     39027     39039     39042     39043     39027     39039     39042     39044
     39027     39039     39042     39045     39028     39027     39039     39040
     39028     39027     39039     39041     39028     39027     39039     39042
     39029     39027     39039     39040     39029     39027     39039     39041
     39029     39027     39039     39042     39030     39033     39034     39035
     39030     39033     39034     39036     39031     39030     39033     39034
     39032     39030     39033     39034     39033     39034     39036     39037
     39033     39034     39036     39038     39033     39034     39036     39086
     39034     39036     39086     39087     39034     39036     39086     39088
     39034     39036     39086     39089     39035     39034     39036     39037
     39035     39034     39036     39038     39035     39034     39036     39086
     39036     39086     39089     39090     39036     39086     39089     39091
     39036     39086     39089     39092     39037     39036     39086     39087
     39037     39036     39086     39088     39037     39036     39086     39089
     39038     39036     39086     39087     39038     39036     39086     39088
     39038     39036     39086     39089     39039     39042     39045     39046
     39039     39042     39045     39047     39039     39042     39045     39048
     39040     39039     39042     39043     39040     39039     39042     39044
     39040     39039     39042     39045     39041     39039     39042     39043
     39041     39039     39042     39044     39041     39039     39042     39045
     39042     39045     39048     39049     39042     39045     39048     39050
     39042     39045     39048     39051     39043     39042     39045     39046
     39043     39042     39045     39047     39043     39042     39045     39048
     39044     39042     39045     39046     39044     39042     39045     39047
     39044     39042     39045     39048     39045     39048     39051     39052
     39045     39048     39051     39053     39045     39048     39051     39054
     39046     39045     39048     39049     39046     39045     39048     39050
     39046     39045     39048     39051     39047     39045     39048     39049
     39047     39045     39048     39050     39047     39045     39048     39051
     39048     39051     39054     39055     39048     39051     39054     39056
     39048     39051     39054     39057     39049     39048     39051     39052
     39049     39048     39051     39053     39049     39048     39051     39054
     39050     39048     39051     39052     39050     39048     39051     39053
     39050     39048     39051     39054     39051     39054     39057     39058
     39051     39054     39057     39059     39052     39051     39054     39055
     39052     39051     39054     39056     39052     39051     39054     39057
     39053     39051     39054     39055     39053     39051     39054     39056
     39053     39051     39054     39057     39054     39057     39059     39060
     39054     39057     39059     39061     39055     39054     39057     39058
     39055     39054     39057     39059     39056     39054     39057     39058
     39056     39054     39057     39059     39057     39059     39061     39062
     39057     39059     39061     39063     39057     39059     39061     39064
     39058     39057     39059     39060     39058     39057     39059     39061
     39059     39061     39064     39065     39059     39061     39064     39066
     39059     39061     39064     39067     39060     39059     39061     39062
     39060     39059     39061     39063     39060     39059     39061     39064
     39061     39064     39067     39068     39061     39064     39067     39069
     39061     39064     39067     39070     39062     39061     39064     39065
     39062     39061     39064     39066     39062     39061     39064     39067
     39063     39061     39064     39065     39063     39061     39064     39066
     39063     39061     39064     39067     39064     39067     39070     39071
     39064     39067     39070     39072     39064     39067     39070     39073
     39065     39064     39067     39068     39065     39064     39067     39069
     39065     39064     39067     39070     39066     39064     39067     39068
     39066     39064     39067     39069     39066     39064     39067     39070
     39067     39070     39073     39074     39067     39070     39073     39075
     39067     39070     39073     39076     39068     39067     39070     39071
     39068     39067     39070     39072     39068     39067     39070     39073
     39069     39067     39070     39071     39069     39067     39070     39072
     39069     39067     39070     39073     39070     39073     39076     39077
     39070     39073     39076     39078     39070     39073     39076     39079
     39071     39070     39073     39074     39071     39070     39073     39075
     39071     39070     39073     39076     39072     39070     39073     39074
     39072     39070     39073     39075     39072     39070     39073     39076
     39073     39076     39079     39080     39073     39076     39079     39081
     39073     39076     39079     39082     39074     39073     39076     39077
     39074     39073     39076     39078     39074     39073     39076     39079
     39075     39073     39076     39077     39075     39073     39076     39078
     39075     39073     39076     39079     39076     39079     39082     39083
     39076     39079     39082     39084     39076     39079     39082     39085
     39077     39076     39079     39080     39077     39076     39079     39081
     39077     39076     39079     39082     39078     39076     39079     39080
     39078     39076     39079     39081     39078     39076     39079     39082
     39080     39079     39082     39083     39080     39079     39082     39084
     39080     39079     39082     39085     39081     39079     39082     39083
     39081     39079     39082     39084     39081     39079     39082     39085
     39086     39089     39092     39093     39086     39089     39092     39094
     39086     39089     39092     39095     39087     39086     39089     39090
     39087     39086     39089     39091     39087     39086     39089     39092
     39088     39086     39089     39090     39088     39086     39089     39091
     39088     39086     39089     39092     39089     39092     39095     39096
     39089     39092     39095     39097     39089     39092     39095     39098
     39090     39089     39092     39093     39090     39089     39092     39094
     39090     39089     39092     39095     39091     39089     39092     39093
     39091     39089     39092     39094     39091     39089     39092     39095
     39092     39095     39098     39099     39092     39095     39098     39100
     39092     39095     39098     39101     39093     39092     39095     39096
     39093     39092     39095     39097     39093     39092     39095     39098
     39094     39092     39095     39096     39094     39092     39095     39097
     39094     39092     39095     39098     39095     39098     39101     39102
     39095     39098     39101     39103     39095     39098     39101     39104
     39096     39095     39098     39099     39096     39095     39098     39100
     39096     39095     39098     39101     39097     39095     39098     39099
     39097     39095     39098     39100     39097     39095     39098     39101
     39098     39101     39104     39105     39098     39101     39104     39106
     39098     39101     39104     39107     39099     39098     39101     39102
     39099     39098     39101     39103     39099     39098     39101     39104
     39100     39098     39101     39102     39100     39098     39101     39103
     39100     39098     39101     39104     39101     39104     39107     39108
     39101     39104     39107     39109     39101     39104     39107     39110
     39102     39101     39104     39105     39102     39101     39104     39106
     39102     39101     39104     39107     39103     39101     39104     39105
     39103     39101     39104     39106     39103     39101     39104     39107
     39104     39107     39110     39111     39104     39107     39110     39112
     39104     39107     39110     39113     39105     39104     39107     39108
     39105     39104     39107     39109     39105     39104     39107     39110
     39106     39104     39107     39108     39106     39104     39107     39109
     39106     39104     39107     39110     39107     39110     39113     39114
     39107     39110     39113     39115     39107     39110     39113     39116
     39108     39107     39110     39111     39108     39107     39110     39112
     39108     39107     39110     39113     39109     39107     39110     39111
     39109     39107     39110     39112     39109     39107     39110     39113
     39110     39113     39116     39117     39110     39113     39116     39118
     39110     39113     39116     39119     39111     39110     39113     39114
     39111     39110     39113     39115     39111     39110     39113     39116
     39112     39110     39113     39114     39112     39110     39113     39115
     39112     39110     39113     39116     39113     39116     39119     39120
     39113     39116     39119     39121     39113     39116     39119     39122
     39114     39113     39116     39117     39114     39113     39116     39118
     39114     39113     39116     39119     39115     39113     39116     39117
     39115     39113     39116     39118     39115     39113     39116     39119
     39116     39119     39122     39123     39116     39119     39122     39124
     39116     39119     39122     39125     39117     39116     39119     39120
     39117     39116     39119     39121     39117     39116     39119     39122
     39118     39116     39119     39120     39118     39116     39119     39121
     39118     39116     39119     39122     39119     39122     39125     39126
     39119     39122     39125     39127     39119     39122     39125     39128
     39120     39119     39122     39123     39120     39119     39122     39124
     39120     39119     39122     39125     39121     39119     39122     39123
     39121     39119     39122     39124     39121     39119     39122     39125
     39123     39122     39125     39126     39123     39122     39125     39127
     39123     39122     39125     39128     39124     39122     39125     39126
     39124     39122     39125     39127     39124     39122     39125     39128
     39129     39130     39145     39146     39129     39130     39145     39147
     39129     39130     39145     39151     39130     39129     39133     39134
     39130     39129     39133     39135     39130     39129     39133     39136
     39130     39129     39137     39138     39130     39129     39137     39139
     39130     39129     39137     39140     39130     39129     39141     39142
     39130     39129     39141     39143     39130     39129     39141     39144
     39130     39145     39151     39148     39131     39130     39129     39133
     39131     39130     39129     39137     39131     39130     39129     39141
     39131     39130     39145     39146     39131     39130     39145     39147
     39131     39130     39145     39151     39132     39130     39129     39133
     39132     39130     39129     39137     39132     39130     39129     39141
     39132     39130     39145     39146     39132     39130     39145     39147
     39132     39130     39145     39151     39133     39129     39130     39145
     39133     39129     39137     39138     39133     39129     39137     39139
     39133     39129     39137     39140     39133     39129     39141     39142
     39133     39129     39141     39143     39133     39129     39141     39144
     39134     39133     39129     39137     39134     39133     39129     39141
     39135     39133     39129     39137     39135     39133     39129     39141
     39136     39133     39129     39137     39136     39133     39129     39141
     39137     39129     39130     39145     39137     39129     39141     39142
     39137     39129     39141     39143     39137     39129     39141     39144
     39138     39137     39129     39141     39139     39137     39129     39141
     39140     39137     39129     39141     39141     39129     39130     39145
     39145     39151     39148     39149     39145     39151     39148     39150
     39145     39151     39148     39152     39146     39145     39151     39148
     39147     39145     39151     39148     39148     39152     39153     39154
     39148     39152     39153     39155     39148     39152     39153     39156
     39149     39148     39152     39153     39150     39148     39152     39153
     39151     39148     39152     39153     39152     39153     39156     39157
     39152     39153     39156     39158     39152     39153     39156     39164
     39153     39156     39158     39159     39153     39156     39164     39165
     39153     39156     39164     39166     39153     39156     39164     39167
     39154     39153     39156     39157     39154     39153     39156     39158
     39154     39153     39156     39164     39155     39153     39156     39157
     39155     39153     39156     39158     39155     39153     39156     39164
     39156     39158     39159     39160     39156     39158     39159     39161
     39156     39164     39167     39168     39157     39156     39158     39159
     39157     39156     39164     39165     39157     39156     39164     39166
     39157     39156     39164     39167     39158     39156     39164     39165
     39158     39156     39164     39166     39158     39156     39164     39167
     39158     39159     39161     39162     39158     39159     39161     39163
     39158     39159     39161     39173     39159     39158     39156     39164
     39159     39161     39173     39174     39159     39161     39173     39175
     39159     39161     39173     39176     39160     39159     39161     39162
     39160     39159     39161     39163     39160     39159     39161     39173
     39161     39173     39176     39177     39161     39173     39176     39178
     39161     39173     39176     39179     39162     39161     39173     39174
     39162     39161     39173     39175     39162     39161     39173     39176
     39163     39161     39173     39174     39163     39161     39173     39175
     39163     39161     39173     39176     39164     39167     39168     39169
     39164     39167     39168     39170     39165     39164     39167     39168
     39166     39164     39167     39168     39167     39168     39170     39171
     39167     39168     39170     39172     39167     39168     39170     39220
     39168     39170     39220     39221     39168     39170     39220     39222
     39168     39170     39220     39223     39169     39168     39170     39171
     39169     39168     39170     39172     39169     39168     39170     39220
     39170     39220     39223     39224     39170     39220     39223     39225
     39170     39220     39223     39226     39171     39170     39220     39221
     39171     39170     39220     39222     39171     39170     39220     39223
     39172     39170     39220     39221     39172     39170     39220     39222
     39172     39170     39220     39223     39173     39176     39179     39180
     39173     39176     39179     39181     39173     39176     39179     39182
     39174     39173     39176     39177     39174     39173     39176     39178
     39174     39173     39176     39179     39175     39173     39176     39177
     39175     39173     39176     39178     39175     39173     39176     39179
     39176     39179     39182     39183     39176     39179     39182     39184
     39176     39179     39182     39185     39177     39176     39179     39180
     39177     39176     39179     39181     39177     39176     39179     39182
     39178     39176     39179     39180     39178     39176     39179     39181
     39178     39176     39179     39182     39179     39182     39185     39186
     39179     39182     39185     39187     39179     39182     39185     39188
     39180     39179     39182     39183     39180     39179     39182     39184
     39180     39179     39182     39185     39181     39179     39182     39183
     39181     39179     39182     39184     39181     39179     39182     39185
     39182     39185     39188     39189     39182     39185     39188     39190
     39182     39185     39188     39191     39183     39182     39185     39186
     39183     39182     39185     39187     39183     39182     39185     39188
     39184     39182     39185     39186     39184     39182     39185     39187
     39184     39182     39185     39188     39185     39188     39191     39192
     39185     39188     39191     39193     39186     39185     39188     39189
     39186     39185     39188     39190     39186     39185     39188     39191
     39187     39185     39188     39189     39187     39185     39188     39190
     39187     39185     39188     39191     39188     39191     39193     39194
     39188     39191     39193     39195     39189     39188     39191     39192
     39189     39188     39191     39193     39190     39188     39191     39192
     39190     39188     39191     39193     39191     39193     39195     39196
     39191     39193     39195     39197     39191     39193     39195     39198
     39192     39191     39193     39194     39192     39191     39193     39195
     39193     39195     39198     39199     39193     39195     39198     39200
     39193     39195     39198     39201     39194     39193     39195     39196
     39194     39193     39195     39197     39194     39193     39195     39198
     39195     39198     39201     39202     39195     39198     39201     39203
     39195     39198     39201     39204     39196     39195     39198     39199
     39196     39195     39198     39200     39196     39195     39198     39201
     39197     39195     39198     39199     39197     39195     39198     39200
     39197     39195     39198     39201     39198     39201     39204     39205
     39198     39201     39204     39206     39198     39201     39204     39207
     39199     39198     39201     39202     39199     39198     39201     39203
     39199     39198     39201     39204     39200     39198     39201     39202
     39200     39198     39201     39203     39200     39198     39201     39204
     39201     39204     39207     39208     39201     39204     39207     39209
     39201     39204     39207     39210     39202     39201     39204     39205
     39202     39201     39204     39206     39202     39201     39204     39207
     39203     39201     39204     39205     39203     39201     39204     39206
     39203     39201     39204     39207     39204     39207     39210     39211
     39204     39207     39210     39212     39204     39207     39210     39213
     39205     39204     39207     39208     39205     39204     39207     39209
     39205     39204     39207     39210     39206     39204     39207     39208
     39206     39204     39207     39209     39206     39204     39207     39210
     39207     39210     39213     39214     39207     39210     39213     39215
     39207     39210     39213     39216     39208     39207     39210     39211
     39208     39207     39210     39212     39208     39207     39210     39213
     39209     39207     39210     39211     39209     39207     39210     39212
     39209     39207     39210     39213     39210     39213     39216     39217
     39210     39213     39216     39218     39210     39213     39216     39219
     39211     39210     39213     39214     39211     39210     39213     39215
     39211     39210     39213     39216     39212     39210     39213     39214
     39212     39210     39213     39215     39212     39210     39213     39216
     39214     39213     39216     39217     39214     39213     39216     39218
     39214     39213     39216     39219     39215     39213     39216     39217
     39215     39213     39216     39218     39215     39213     39216     39219
     39220     39223     39226     39227     39220     39223     39226     39228
     39220     39223     39226     39229     39221     39220     39223     39224
     39221     39220     39223     39225     39221     39220     39223     39226
     39222     39220     39223     39224     39222     39220     39223     39225
     39222     39220     39223     39226     39223     39226     39229     39230
     39223     39226     39229     39231     39223     39226     39229     39232
     39224     39223     39226     39227     39224     39223     39226     39228
     39224     39223     39226     39229     39225     39223     39226     39227
     39225     39223     39226     39228     39225     39223     39226     39229
     39226     39229     39232     39233     39226     39229     39232     39234
     39226     39229     39232     39235     39227     39226     39229     39230
     39227     39226     39229     39231     39227     39226     39229     39232
     39228     39226     39229     39230     39228     39226     39229     39231
     39228     39226     39229     39232     39229     39232     39235     39236
     39229     39232     39235     39237     39229     39232     39235     39238
     39230     39229     39232     39233     39230     39229     39232     39234
     39230     39229     39232     39235     39231     39229     39232     39233
     39231     39229     39232     39234     39231     39229     39232     39235
     39232     39235     39238     39239     39232     39235     39238     39240
     39232     39235     39238     39241     39233     39232     39235     39236
     39233     39232     39235     39237     39233     39232     39235     39238
     39234     39232     39235     39236     39234     39232     39235     39237
     39234     39232     39235     39238     39235     39238     39241     39242
     39235     39238     39241     39243     39235     39238     39241     39244
     39236     39235     39238     39239     39236     39235     39238     39240
     39236     39235     39238     39241     39237     39235     39238     39239
     39237     39235     39238     39240     39237     39235     39238     39241
     39238     39241     39244     39245     39238     39241     39244     39246
     39238     39241     39244     39247     39239     39238     39241     39242
     39239     39238     39241     39243     39239     39238     39241     39244
     39240     39238     39241     39242     39240     39238     39241     39243
     39240     39238     39241     39244     39241     39244     39247     39248
     39241     39244     39247     39249     39241     39244     39247     39250
     39242     39241     39244     39245     39242     39241     39244     39246
     39242     39241     39244     39247     39243     39241     39244     39245
     39243     39241     39244     39246     39243     39241     39244     39247
     39244     39247     39250     39251     39244     39247     39250     39252
     39244     39247     39250     39253     39245     39244     39247     39248
     39245     39244     39247     39249     39245     39244     39247     39250
     39246     39244     39247     39248     39246     39244     39247     39249
     39246     39244     39247     39250     39247     39250     39253     39254
     39247     39250     39253     39255     39247     39250     39253     39256
     39248     39247     39250     39251     39248     39247     39250     39252
     39248     39247     39250     39253     39249     39247     39250     39251
     39249     39247     39250     39252     39249     39247     39250     39253
     39250     39253     39256     39257     39250     39253     39256     39258
     39250     39253     39256     39259     39251     39250     39253     39254
     39251     39250     39253     39255     39251     39250     39253     39256
     39252     39250     39253     39254     39252     39250     39253     39255
     39252     39250     39253     39256     39253     39256     39259     39260
     39253     39256     39259     39261     39253     39256     39259     39262
     39254     39253     39256     39257     39254     39253     39256     39258
     39254     39253     39256     39259     39255     39253     39256     39257
     39255     39253     39256     39258     39255     39253     39256     39259
     39257     39256     39259     39260     39257     39256     39259     39261
     39257     39256     39259     39262     39258     39256     39259     39260
     39258     39256     39259     39261     39258     39256     39259     39262
     39263     39264     39279     39280     39263     39264     39279     39281
     39263     39264     39279     39285     39264     39263     39267     39268
     39264     39263     39267     39269     39264     39263     39267     39270
     39264     39263     39271     39272     39264     39263     39271     39273
     39264     39263     39271     39274     39264     39263     39275     39276
     39264     39263     39275     39277     39264     39263     39275     39278
     39264     39279     39285     39282     39265     39264     39263     39267
     39265     39264     39263     39271     39265     39264     39263     39275
     39265     39264     39279     39280     39265     39264     39279     39281
     39265     39264     39279     39285     39266     39264     39263     39267
     39266     39264     39263     39271     39266     39264     39263     39275
     39266     39264     39279     39280     39266     39264     39279     39281
     39266     39264     39279     39285     39267     39263     39264     39279
     39267     39263     39271     39272     39267     39263     39271     39273
     39267     39263     39271     39274     39267     39263     39275     39276
     39267     39263     39275     39277     39267     39263     39275     39278
     39268     39267     39263     39271     39268     39267     39263     39275
     39269     39267     39263     39271     39269     39267     39263     39275
     39270     39267     39263     39271     39270     39267     39263     39275
     39271     39263     39264     39279     39271     39263     39275     39276
     39271     39263     39275     39277     39271     39263     39275     39278
     39272     39271     39263     39275     39273     39271     39263     39275
     39274     39271     39263     39275     39275     39263     39264     39279
     39279     39285     39282     39283     39279     39285     39282     39284
     39279     39285     39282     39286     39280     39279     39285     39282
     39281     39279     39285     39282     39282     39286     39287     39288
     39282     39286     39287     39289     39282     39286     39287     39290
     39283     39282     39286     39287     39284     39282     39286     39287
     39285     39282     39286     39287     39286     39287     39290     39291
     39286     39287     39290     39292     39286     39287     39290     39298
     39287     39290     39292     39293     39287     39290     39298     39299
     39287     39290     39298     39300     39287     39290     39298     39301
     39288     39287     39290     39291     39288     39287     39290     39292
     39288     39287     39290     39298     39289     39287     39290     39291
     39289     39287     39290     39292     39289     39287     39290     39298
     39290     39292     39293     39294     39290     39292     39293     39295
     39290     39298     39301     39302     39291     39290     39292     39293
     39291     39290     39298     39299     39291     39290     39298     39300
     39291     39290     39298     39301     39292     39290     39298     39299
     39292     39290     39298     39300     39292     39290     39298     39301
     39292     39293     39295     39296     39292     39293     39295     39297
     39292     39293     39295     39307     39293     39292     39290     39298
     39293     39295     39307     39308     39293     39295     39307     39309
     39293     39295     39307     39310     39294     39293     39295     39296
     39294     39293     39295     39297     39294     39293     39295     39307
     39295     39307     39310     39311     39295     39307     39310     39312
     39295     39307     39310     39313     39296     39295     39307     39308
     39296     39295     39307     39309     39296     39295     39307     39310
     39297     39295     39307     39308     39297     39295     39307     39309
     39297     39295     39307     39310     39298     39301     39302     39303
     39298     39301     39302     39304     39299     39298     39301     39302
     39300     39298     39301     39302     39301     39302     39304     39305
     39301     39302     39304     39306     39301     39302     39304     39354
     39302     39304     39354     39355     39302     39304     39354     39356
     39302     39304     39354     39357     39303     39302     39304     39305
     39303     39302     39304     39306     39303     39302     39304     39354
     39304     39354     39357     39358     39304     39354     39357     39359
     39304     39354     39357     39360     39305     39304     39354     39355
     39305     39304     39354     39356     39305     39304     39354     39357
     39306     39304     39354     39355     39306     39304     39354     39356
     39306     39304     39354     39357     39307     39310     39313     39314
     39307     39310     39313     39315     39307     39310     39313     39316
     39308     39307     39310     39311     39308     39307     39310     39312
     39308     39307     39310     39313     39309     39307     39310     39311
     39309     39307     39310     39312     39309     39307     39310     39313
     39310     39313     39316     39317     39310     39313     39316     39318
     39310     39313     39316     39319     39311     39310     39313     39314
     39311     39310     39313     39315     39311     39310     39313     39316
     39312     39310     39313     39314     39312     39310     39313     39315
     39312     39310     39313     39316     39313     39316     39319     39320
     39313     39316     39319     39321     39313     39316     39319     39322
     39314     39313     39316     39317     39314     39313     39316     39318
     39314     39313     39316     39319     39315     39313     39316     39317
     39315     39313     39316     39318     39315     39313     39316     39319
     39316     39319     39322     39323     39316     39319     39322     39324
     39316     39319     39322     39325     39317     39316     39319     39320
     39317     39316     39319     39321     39317     39316     39319     39322
     39318     39316     39319     39320     39318     39316     39319     39321
     39318     39316     39319     39322     39319     39322     39325     39326
     39319     39322     39325     39327     39320     39319     39322     39323
     39320     39319     39322     39324     39320     39319     39322     39325
     39321     39319     39322     39323     39321     39319     39322     39324
     39321     39319     39322     39325     39322     39325     39327     39328
     39322     39325     39327     39329     39323     39322     39325     39326
     39323     39322     39325     39327     39324     39322     39325     39326
     39324     39322     39325     39327     39325     39327     39329     39330
     39325     39327     39329     39331     39325     39327     39329     39332
     39326     39325     39327     39328     39326     39325     39327     39329
     39327     39329     39332     39333     39327     39329     39332     39334
     39327     39329     39332     39335     39328     39327     39329     39330
     39328     39327     39329     39331     39328     39327     39329     39332
     39329     39332     39335     39336     39329     39332     39335     39337
     39329     39332     39335     39338     39330     39329     39332     39333
     39330     39329     39332     39334     39330     39329     39332     39335
     39331     39329     39332     39333     39331     39329     39332     39334
     39331     39329     39332     39335     39332     39335     39338     39339
     39332     39335     39338     39340     39332     39335     39338     39341
     39333     39332     39335     39336     39333     39332     39335     39337
     39333     39332     39335     39338     39334     39332     39335     39336
     39334     39332     39335     39337     39334     39332     39335     39338
     39335     39338     39341     39342     39335     39338     39341     39343
     39335     39338     39341     39344     39336     39335     39338     39339
     39336     39335     39338     39340     39336     39335     39338     39341
     39337     39335     39338     39339     39337     39335     39338     39340
     39337     39335     39338     39341     39338     39341     39344     39345
     39338     39341     39344     39346     39338     39341     39344     39347
     39339     39338     39341     39342     39339     39338     39341     39343
     39339     39338     39341     39344     39340     39338     39341     39342
     39340     39338     39341     39343     39340     39338     39341     39344
     39341     39344     39347     39348     39341     39344     39347     39349
     39341     39344     39347     39350     39342     39341     39344     39345
     39342     39341     39344     39346     39342     39341     39344     39347
     39343     39341     39344     39345     39343     39341     39344     39346
     39343     39341     39344     39347     39344     39347     39350     39351
     39344     39347     39350     39352     39344     39347     39350     39353
     39345     39344     39347     39348     39345     39344     39347     39349
     39345     39344     39347     39350     39346     39344     39347     39348
     39346     39344     39347     39349     39346     39344     39347     39350
     39348     39347     39350     39351     39348     39347     39350     39352
     39348     39347     39350     39353     39349     39347     39350     39351
     39349     39347     39350     39352     39349     39347     39350     39353
     39354     39357     39360     39361     39354     39357     39360     39362
     39354     39357     39360     39363     39355     39354     39357     39358
     39355     39354     39357     39359     39355     39354     39357     39360
     39356     39354     39357     39358     39356     39354     39357     39359
     39356     39354     39357     39360     39357     39360     39363     39364
     39357     39360     39363     39365     39357     39360     39363     39366
     39358     39357     39360     39361     39358     39357     39360     39362
     39358     39357     39360     39363     39359     39357     39360     39361
     39359     39357     39360     39362     39359     39357     39360     39363
     39360     39363     39366     39367     39360     39363     39366     39368
     39360     39363     39366     39369     39361     39360     39363     39364
     39361     39360     39363     39365     39361     39360     39363     39366
     39362     39360     39363     39364     39362     39360     39363     39365
     39362     39360     39363     39366     39363     39366     39369     39370
     39363     39366     39369     39371     39363     39366     39369     39372
     39364     39363     39366     39367     39364     39363     39366     39368
     39364     39363     39366     39369     39365     39363     39366     39367
     39365     39363     39366     39368     39365     39363     39366     39369
     39366     39369     39372     39373     39366     39369     39372     39374
     39366     39369     39372     39375     39367     39366     39369     39370
     39367     39366     39369     39371     39367     39366     39369     39372
     39368     39366     39369     39370     39368     39366     39369     39371
     39368     39366     39369     39372     39369     39372     39375     39376
     39369     39372     39375     39377     39369     39372     39375     39378
     39370     39369     39372     39373     39370     39369     39372     39374
     39370     39369     39372     39375     39371     39369     39372     39373
     39371     39369     39372     39374     39371     39369     39372     39375
     39372     39375     39378     39379     39372     39375     39378     39380
     39372     39375     39378     39381     39373     39372     39375     39376
     39373     39372     39375     39377     39373     39372     39375     39378
     39374     39372     39375     39376     39374     39372     39375     39377
     39374     39372     39375     39378     39375     39378     39381     39382
     39375     39378     39381     39383     39375     39378     39381     39384
     39376     39375     39378     39379     39376     39375     39378     39380
     39376     39375     39378     39381     39377     39375     39378     39379
     39377     39375     39378     39380     39377     39375     39378     39381
     39378     39381     39384     39385     39378     39381     39384     39386
     39378     39381     39384     39387     39379     39378     39381     39382
     39379     39378     39381     39383     39379     39378     39381     39384
     39380     39378     39381     39382     39380     39378     39381     39383
     39380     39378     39381     39384     39381     39384     39387     39388
     39381     39384     39387     39389     39381     39384     39387     39390
     39382     39381     39384     39385     39382     39381     39384     39386
     39382     39381     39384     39387     39383     39381     39384     39385
     39383     39381     39384     39386     39383     39381     39384     39387
     39384     39387     39390     39391     39384     39387     39390     39392
     39384     39387     39390     39393     39385     39384     39387     39388
     39385     39384     39387     39389     39385     39384     39387     39390
     39386     39384     39387     39388     39386     39384     39387     39389
     39386     39384     39387     39390     39387     39390     39393     39394
     39387     39390     39393     39395     39387     39390     39393     39396
     39388     39387     39390     39391     39388     39387     39390     39392
     39388     39387     39390     39393     39389     39387     39390     39391
     39389     39387     39390     39392     39389     39387     39390     39393
     39391     39390     39393     39394     39391     39390     39393     39395
     39391     39390     39393     39396     39392     39390     39393     39394
     39392     39390     39393     39395     39392     39390     39393     39396

       588 !NIMPHI: impropers
        31        30        33        32        40        39        42        41
       165       164       167       166       174       173       176       175
       299       298       301       300       308       307       310       309
       433       432       435       434       442       441       444       443
       567       566       569       568       576       575       578       577
       701       700       703       702       710       709       712       711
       835       834       837       836       844       843       846       845
       969       968       971       970       978       977       980       979
      1103      1102      1105      1104      1112      1111      1114      1113
      1237      1236      1239      1238      1246      1245      1248      1247
      1371      1370      1373      1372      1380      1379      1382      1381
      1505      1504      1507      1506      1514      1513      1516      1515
      1639      1638      1641      1640      1648      1647      1650      1649
      1773      1772      1775      1774      1782      1781      1784      1783
      1907      1906      1909      1908      1916      1915      1918      1917
      2041      2040      2043      2042      2050      2049      2052      2051
      2175      2174      2177      2176      2184      2183      2186      2185
      2309      2308      2311      2310      2318      2317      2320      2319
      2443      2442      2445      2444      2452      2451      2454      2453
      2577      2576      2579      2578      2586      2585      2588      2587
      2711      2710      2713      2712      2720      2719      2722      2721
      2845      2844      2847      2846      2854      2853      2856      2855
      2979      2978      2981      2980      2988      2987      2990      2989
      3113      3112      3115      3114      3122      3121      3124      3123
      3247      3246      3249      3248      3256      3255      3258      3257
      3381      3380      3383      3382      3390      3389      3392      3391
      3515      3514      3517      3516      3524      3523      3526      3525
      3649      3648      3651      3650      3658      3657      3660      3659
      3783      3782      3785      3784      3792      3791      3794      3793
      3917      3916      3919      3918      3926      3925      3928      3927
      4051      4050      4053      4052      4060      4059      4062      4061
      4185      4184      4187      4186      4194      4193      4196      4195
      4319      4318      4321      4320      4328      4327      4330      4329
      4453      4452      4455      4454      4462      4461      4464      4463
      4587      4586      4589      4588      4596      4595      4598      4597
      4721      4720      4723      4722      4730      4729      4732      4731
      4855      4854      4857      4856      4864      4863      4866      4865
      4989      4988      4991      4990      4998      4997      5000      4999
      5123      5122      5125      5124      5132      5131      5134      5133
      5257      5256      5259      5258      5266      5265      5268      5267
      5391      5390      5393      5392      5400      5399      5402      5401
      5525      5524      5527      5526      5534      5533      5536      5535
      5659      5658      5661      5660      5668      5667      5670      5669
      5793      5792      5795      5794      5802      5801      5804      5803
      5927      5926      5929      5928      5936      5935      5938      5937
      6061      6060      6063      6062      6070      6069      6072      6071
      6195      6194      6197      6196      6204      6203      6206      6205
      6329      6328      6331      6330      6338      6337      6340      6339
      6463      6462      6465      6464      6472      6471      6474      6473
      6597      6596      6599      6598      6606      6605      6608      6607
      6731      6730      6733      6732      6740      6739      6742      6741
      6865      6864      6867      6866      6874      6873      6876      6875
      6999      6998      7001      7000      7008      7007      7010      7009
      7133      7132      7135      7134      7142      7141      7144      7143
      7267      7266      7269      7268      7276      7275      7278      7277
      7401      7400      7403      7402      7410      7409      7412      7411
      7535      7534      7537      7536      7544      7543      7546      7545
      7669      7668      7671      7670      7678      7677      7680      7679
      7803      7802      7805      7804      7812      7811      7814      7813
      7937      7936      7939      7938      7946      7945      7948      7947
      8071      8070      8073      8072      8080      8079      8082      8081
      8205      8204      8207      8206      8214      8213      8216      8215
      8339      8338      8341      8340      8348      8347      8350      8349
      8473      8472      8475      8474      8482      8481      8484      8483
      8607      8606      8609      8608      8616      8615      8618      8617
      8741      8740      8743      8742      8750      8749      8752      8751
      8875      8874      8877      8876      8884      8883      8886      8885
      9009      9008      9011      9010      9018      9017      9020      9019
      9143      9142      9145      9144      9152      9151      9154      9153
      9277      9276      9279      9278      9286      9285      9288      9287
      9411      9410      9413      9412      9420      9419      9422      9421
      9545      9544      9547      9546      9554      9553      9556      9555
      9679      9678      9681      9680      9688      9687      9690      9689
      9813      9812      9815      9814      9822      9821      9824      9823
      9947      9946      9949      9948      9956      9955      9958      9957
     10081     10080     10083     10082     10090     10089     10092     10091
     10215     10214     10217     10216     10224     10223     10226     10225
     10349     10348     10351     10350     10358     10357     10360     10359
     10483     10482     10485     10484     10492     10491     10494     10493
     10617     10616     10619     10618     10626     10625     10628     10627
     10751     10750     10753     10752     10760     10759     10762     10761
     10885     10884     10887     10886     10894     10893     10896     10895
     11019     11018     11021     11020     11028     11027     11030     11029
     11153     11152     11155     11154     11162     11161     11164     11163
     11287     11286     11289     11288     11296     11295     11298     11297
     11421     11420     11423     11422     11430     11429     11432     11431
     11555     11554     11557     11556     11564     11563     11566     11565
     11689     11688     11691     11690     11698     11697     11700     11699
     11823     11822     11825     11824     11832     11831     11834     11833
     11957     11956     11959     11958     11966     11965     11968     11967
     12091     12090     12093     12092     12100     12099     12102     12101
     12225     12224     12227     12226     12234     12233     12236     12235
     12359     12358     12361     12360     12368     12367     12370     12369
     12493     12492     12495     12494     12502     12501     12504     12503
     12627     12626     12629     12628     12636     12635     12638     12637
     12761     12760     12763     12762     12770     12769     12772     12771
     12895     12894     12897     12896     12904     12903     12906     12905
     13029     13028     13031     13030     13038     13037     13040     13039
     13163     13162     13165     13164     13172     13171     13174     13173
     13297     13296     13299     13298     13306     13305     13308     13307
     13431     13430     13433     13432     13440     13439     13442     13441
     13565     13564     13567     13566     13574     13573     13576     13575
     13699     13698     13701     13700     13708     13707     13710     13709
     13833     13832     13835     13834     13842     13841     13844     13843
     13967     13966     13969     13968     13976     13975     13978     13977
     14101     14100     14103     14102     14110     14109     14112     14111
     14235     14234     14237     14236     14244     14243     14246     14245
     14369     14368     14371     14370     14378     14377     14380     14379
     14503     14502     14505     14504     14512     14511     14514     14513
     14637     14636     14639     14638     14646     14645     14648     14647
     14771     14770     14773     14772     14780     14779     14782     14781
     14905     14904     14907     14906     14914     14913     14916     14915
     15039     15038     15041     15040     15048     15047     15050     15049
     15173     15172     15175     15174     15182     15181     15184     15183
     15307     15306     15309     15308     15316     15315     15318     15317
     15441     15440     15443     15442     15450     15449     15452     15451
     15575     15574     15577     15576     15584     15583     15586     15585
     15709     15708     15711     15710     15718     15717     15720     15719
     15843     15842     15845     15844     15852     15851     15854     15853
     15977     15976     15979     15978     15986     15985     15988     15987
     16111     16110     16113     16112     16120     16119     16122     16121
     16245     16244     16247     16246     16254     16253     16256     16255
     16379     16378     16381     16380     16388     16387     16390     16389
     16513     16512     16515     16514     16522     16521     16524     16523
     16647     16646     16649     16648     16656     16655     16658     16657
     16781     16780     16783     16782     16790     16789     16792     16791
     16915     16914     16917     16916     16924     16923     16926     16925
     17049     17048     17051     17050     17058     17057     17060     17059
     17183     17182     17185     17184     17192     17191     17194     17193
     17317     17316     17319     17318     17326     17325     17328     17327
     17451     17450     17453     17452     17460     17459     17462     17461
     17585     17584     17587     17586     17594     17593     17596     17595
     17719     17718     17721     17720     17728     17727     17730     17729
     17853     17852     17855     17854     17862     17861     17864     17863
     17987     17986     17989     17988     17996     17995     17998     17997
     18121     18120     18123     18122     18130     18129     18132     18131
     18255     18254     18257     18256     18264     18263     18266     18265
     18389     18388     18391     18390     18398     18397     18400     18399
     18523     18522     18525     18524     18532     18531     18534     18533
     18657     18656     18659     18658     18666     18665     18668     18667
     18791     18790     18793     18792     18800     18799     18802     18801
     18925     18924     18927     18926     18934     18933     18936     18935
     19059     19058     19061     19060     19068     19067     19070     19069
     19193     19192     19195     19194     19202     19201     19204     19203
     19327     19326     19329     19328     19336     19335     19338     19337
     19461     19460     19463     19462     19470     19469     19472     19471
     19595     19594     19597     19596     19604     19603     19606     19605
     19729     19728     19731     19730     19738     19737     19740     19739
     19863     19862     19865     19864     19872     19871     19874     19873
     19997     19996     19999     19998     20006     20005     20008     20007
     20131     20130     20133     20132     20140     20139     20142     20141
     20265     20264     20267     20266     20274     20273     20276     20275
     20399     20398     20401     20400     20408     20407     20410     20409
     20533     20532     20535     20534     20542     20541     20544     20543
     20667     20666     20669     20668     20676     20675     20678     20677
     20801     20800     20803     20802     20810     20809     20812     20811
     20935     20934     20937     20936     20944     20943     20946     20945
     21069     21068     21071     21070     21078     21077     21080     21079
     21203     21202     21205     21204     21212     21211     21214     21213
     21337     21336     21339     21338     21346     21345     21348     21347
     21471     21470     21473     21472     21480     21479     21482     21481
     21605     21604     21607     21606     21614     21613     21616     21615
     21739     21738     21741     21740     21748     21747     21750     21749
     21873     21872     21875     21874     21882     21881     21884     21883
     22007     22006     22009     22008     22016     22015     22018     22017
     22141     22140     22143     22142     22150     22149     22152     22151
     22275     22274     22277     22276     22284     22283     22286     22285
     22409     22408     22411     22410     22418     22417     22420     22419
     22543     22542     22545     22544     22552     22551     22554     22553
     22677     22676     22679     22678     22686     22685     22688     22687
     22811     22810     22813     22812     22820     22819     22822     22821
     22945     22944     22947     22946     22954     22953     22956     22955
     23079     23078     23081     23080     23088     23087     23090     23089
     23213     23212     23215     23214     23222     23221     23224     23223
     23347     23346     23349     23348     23356     23355     23358     23357
     23481     23480     23483     23482     23490     23489     23492     23491
     23615     23614     23617     23616     23624     23623     23626     23625
     23749     23748     23751     23750     23758     23757     23760     23759
     23883     23882     23885     23884     23892     23891     23894     23893
     24017     24016     24019     24018     24026     24025     24028     24027
     24151     24150     24153     24152     24160     24159     24162     24161
     24285     24284     24287     24286     24294     24293     24296     24295
     24419     24418     24421     24420     24428     24427     24430     24429
     24553     24552     24555     24554     24562     24561     24564     24563
     24687     24686     24689     24688     24696     24695     24698     24697
     24821     24820     24823     24822     24830     24829     24832     24831
     24955     24954     24957     24956     24964     24963     24966     24965
     25089     25088     25091     25090     25098     25097     25100     25099
     25223     25222     25225     25224     25232     25231     25234     25233
     25357     25356     25359     25358     25366     25365     25368     25367
     25491     25490     25493     25492     25500     25499     25502     25501
     25625     25624     25627     25626     25634     25633     25636     25635
     25759     25758     25761     25760     25768     25767     25770     25769
     25893     25892     25895     25894     25902     25901     25904     25903
     26027     26026     26029     26028     26036     26035     26038     26037
     26161     26160     26163     26162     26170     26169     26172     26171
     26295     26294     26297     26296     26304     26303     26306     26305
     26429     26428     26431     26430     26438     26437     26440     26439
     26563     26562     26565     26564     26572     26571     26574     26573
     26697     26696     26699     26698     26706     26705     26708     26707
     26831     26830     26833     26832     26840     26839     26842     26841
     26965     26964     26967     26966     26974     26973     26976     26975
     27099     27098     27101     27100     27108     27107     27110     27109
     27233     27232     27235     27234     27242     27241     27244     27243
     27367     27366     27369     27368     27376     27375     27378     27377
     27501     27500     27503     27502     27510     27509     27512     27511
     27635     27634     27637     27636     27644     27643     27646     27645
     27769     27768     27771     27770     27778     27777     27780     27779
     27903     27902     27905     27904     27912     27911     27914     27913
     28037     28036     28039     28038     28046     28045     28048     28047
     28171     28170     28173     28172     28180     28179     28182     28181
     28305     28304     28307     28306     28314     28313     28316     28315
     28439     28438     28441     28440     28448     28447     28450     28449
     28573     28572     28575     28574     28582     28581     28584     28583
     28707     28706     28709     28708     28716     28715     28718     28717
     28841     28840     28843     28842     28850     28849     28852     28851
     28975     28974     28977     28976     28984     28983     28986     28985
     29109     29108     29111     29110     29118     29117     29120     29119
     29243     29242     29245     29244     29252     29251     29254     29253
     29377     29376     29379     29378     29386     29385     29388     29387
     29511     29510     29513     29512     29520     29519     29522     29521
     29645     29644     29647     29646     29654     29653     29656     29655
     29779     29778     29781     29780     29788     29787     29790     29789
     29913     29912     29915     29914     29922     29921     29924     29923
     30047     30046     30049     30048     30056     30055     30058     30057
     30181     30180     30183     30182     30190     30189     30192     30191
     30315     30314     30317     30316     30324     30323     30326     30325
     30449     30448     30451     30450     30458     30457     30460     30459
     30583     30582     30585     30584     30592     30591     30594     30593
     30717     30716     30719     30718     30726     30725     30728     30727
     30851     30850     30853     30852     30860     30859     30862     30861
     30985     30984     30987     30986     30994     30993     30996     30995
     31119     31118     31121     31120     31128     31127     31130     31129
     31253     31252     31255     31254     31262     31261     31264     31263
     31387     31386     31389     31388     31396     31395     31398     31397
     31521     31520     31523     31522     31530     31529     31532     31531
     31655     31654     31657     31656     31664     31663     31666     31665
     31789     31788     31791     31790     31798     31797     31800     31799
     31923     31922     31925     31924     31932     31931     31934     31933
     32057     32056     32059     32058     32066     32065     32068     32067
     32191     32190     32193     32192     32200     32199     32202     32201
     32325     32324     32327     32326     32334     32333     32336     32335
     32459     32458     32461     32460     32468     32467     32470     32469
     32593     32592     32595     32594     32602     32601     32604     32603
     32727     32726     32729     32728     32736     32735     32738     32737
     32861     32860     32863     32862     32870     32869     32872     32871
     32995     32994     32997     32996     33004     33003     33006     33005
     33129     33128     33131     33130     33138     33137     33140     33139
     33263     33262     33265     33264     33272     33271     33274     33273
     33397     33396     33399     33398     33406     33405     33408     33407
     33531     33530     33533     33532     33540     33539     33542     33541
     33665     33664     33667     33666     33674     33673     33676     33675
     33799     33798     33801     33800     33808     33807     33810     33809
     33933     33932     33935     33934     33942     33941     33944     33943
     34067     34066     34069     34068     34076     34075     34078     34077
     34201     34200     34203     34202     34210     34209     34212     34211
     34335     34334     34337     34336     34344     34343     34346     34345
     34469     34468     34471     34470     34478     34477     34480     34479
     34603     34602     34605     34604     34612     34611     34614     34613
     34737     34736     34739     34738     34746     34745     34748     34747
     34871     34870     34873     34872     34880     34879     34882     34881
     35005     35004     35007     35006     35014     35013     35016     35015
     35139     35138     35141     35140     35148     35147     35150     35149
     35273     35272     35275     35274     35282     35281     35284     35283
     35407     35406     35409     35408     35416     35415     35418     35417
     35541     35540     35543     35542     35550     35549     35552     35551
     35675     35674     35677     35676     35684     35683     35686     35685
     35809     35808     35811     35810     35818     35817     35820     35819
     35943     35942     35945     35944     35952     35951     35954     35953
     36077     36076     36079     36078     36086     36085     36088     36087
     36211     36210     36213     36212     36220     36219     36222     36221
     36345     36344     36347     36346     36354     36353     36356     36355
     36479     36478     36481     36480     36488     36487     36490     36489
     36613     36612     36615     36614     36622     36621     36624     36623
     36747     36746     36749     36748     36756     36755     36758     36757
     36881     36880     36883     36882     36890     36889     36892     36891
     37015     37014     37017     37016     37024     37023     37026     37025
     37149     37148     37151     37150     37158     37157     37160     37159
     37283     37282     37285     37284     37292     37291     37294     37293
     37417     37416     37419     37418     37426     37425     37428     37427
     37551     37550     37553     37552     37560     37559     37562     37561
     37685     37684     37687     37686     37694     37693     37696     37695
     37819     37818     37821     37820     37828     37827     37830     37829
     37953     37952     37955     37954     37962     37961     37964     37963
     38087     38086     38089     38088     38096     38095     38098     38097
     38221     38220     38223     38222     38230     38229     38232     38231
     38355     38354     38357     38356     38364     38363     38366     38365
     38489     38488     38491     38490     38498     38497     38500     38499
     38623     38622     38625     38624     38632     38631     38634     38633
     38757     38756     38759     38758     38766     38765     38768     38767
     38891     38890     38893     38892     38900     38899     38902     38901
     39025     39024     39027     39026     39034     39033     39036     39035
     39159     39158     39161     39160     39168     39167     39170     39169
     39293     39292     39295     39294     39302     39301     39304     39303

         0 !NDON: donors


         0 !NACC: acceptors


         0 !NNB

         0         0         0         0         0         0         0         0
         0         0         0         0         0         0         0         0
         0         0         0         0         0         0         0         0
         0         0         0         0         0         0         0         0
         0         0         0         0         0         0         0         0
         0         0         0         0         0         0         0         0
         0         0         0         0         0         0         0         0
         0         0         0         0         0         0         0         0
         0         0         0         0         0         0         0         0
         0         0         0         0         0         0         0         0
         0         0         0         0         0         0         0         0
         0         0         0         0         0         0         0         0
         0         0         0         0         0         0         0         0
         0         0         0         0         0         0         0         0
         0         0         0         0         0         0         0         0
         0         0         0         0         0         0         0         0
         0         0         0         0         0         0         0         0
         0         0         0         0         0         0         0         0
         0         0         0         0         0         0         0         0
         0         0         0         0         0         0         0         0
         0         0         0         0         0         0         0         0
         0         0         0         0         0         0         0         0
         0         0         0         0         0         0         0         0
         0         0         0         0         0         0         0         0
         0         0         0         0         0         0         0         0
         0         0         0         0         0         0         0         0
         0         0         0         0         0         0         0         0
         0         0         0         0         0         0         0         0
         0         0         0         0         0         0         0         0
         0         0         0         0         0         0         0         0
         0         0         0         0         0         0         0         0
         0         0         0         0         0         0         0         0
         0         0         0         0         0         0         0         0
         0         0         0         0         0         0         0         0
         0         0         0         0         0         0         0         0
         0         0         0         0         0         0         0         0
         0         0         0         0         0         0         0         0
         0         0         0         0         0         0         0         0
         0         0         0         0         0         0         0         0
         0         0         0         0         0         0         0         0
         0         0         0         0         0         0         0         0
         0         0         0         0         0         0         0         0
         0         0         0         0         0         0         0         0
         0         0         0         0         0         0         0         0
         0         0         0         0         0         0         0         0
         0         0         0         0         0         0         0         0
         0         0         0         0         0         0         0         0
         0         0         0         0         0         0         0         0
         0         0         0         0         0         0         0         0
         0         0         0         0         0         0         0         0
         0         0         0         0         0         0         0         0
         0         0         0         0         0         0         0         0
         0         0         0         0         0         0         0         0
         0         0         0         0         0         0         0         0
         0         0         0         0         0         0         0         0
         0         0         0         0         0         0         0         0
         0         0         0         0         0         0         0         0
         0         0         0         0         0         0         0         0
         0         0         0         0         0         0         0         0
         0         0         0         0         0         0         0         0
         0         0         0         0         0         0         0         0
         0         0         0         0         0         0         0         0
         0         0         0         0         0         0         0         0
         0         0         0         0         0         0         0         0
         0         0         0         0         0         0         0         0
         0         0         0         0         0         0         0         0
         0         0         0         0         0         0         0         0
         0         0         0         0         0         0         0         0
         0         0         0         0         0         0         0         0
         0         0         0         0         0         0         0         0
         0         0         0         0         0         0         0         0
         0         0         0         0         0         0         0         0
         0         0         0         0         0         0         0         0
         0         0         0         0         0         0         0         0
         0         0         0         0         0         0         0         0
         0         0         0         0         0         0         0         0
         0         0         0         0         0         0         0         0
         0         0         0         0         0         0         0         0
         0         0         0         0         0         0         0         0
         0         0         0         0         0         0         0         0
         0         0         0         0         0         0         0         0
         0         0         0         0         0         0         0         0
         0         0         0         0         0         0         0         0
         0         0         0         0         0         0         0         0
         0         0         0         0         0         0         0         0
         0         0         0         0         0         0         0         0
         0         0         0         0         0         0         0         0
         0         0         0         0         0         0         0         0
         0         0         0         0         0         0         0         0
         0         0         0         0         0         0         0         0
         0         0         0         0         0         0         0         0
         0         0         0         0         0         0         0         0
         0         0         0         0         0         0         0         0
         0         0         0         0         0         0         0         0
         0         0         0         0         0         0         0         0
         0         0         0         0         0         0         0         0
         0         0         0         0         0         0         0         0
         0         0         0         0         0         0         0         0
         0         0         0         0         0         0         0         0
         0         0         0         0         0         0         0         0
         0         0         0         0         0         0         0         0
         0         0         0         0         0         0         0         0
         0         0         0         0         0         0         0         0
         0         0         0         0         0         0         0         0
         0         0         0         0         0         0         0         0
         0         0         0         0         0         0         0         0
         0         0         0         0         0         0         0         0
         0         0         0         0         0         0         0         0
         0         0         0         0         0         0         0         0
         0         0         0         0         0         0         0         0
         0         0         0         0         0         0         0         0
         0         0         0         0         0         0         0         0
         0         0         0         0         0         0         0         0
         0         0         0         0         0         0         0         0
         0         0         0         0         0         0         0         0
         0         0         0         0         0         0         0         0
         0         0         0         0         0         0         0         0
         0         0         0         0         0         0         0         0
         0         0         0         0         0         0         0         0
         0         0         0         0         0         0         0         0
         0         0         0         0         0         0         0         0
         0         0         0         0         0         0         0         0
         0         0         0         0         0         0         0         0
         0         0         0         0         0         0         0         0
         0         0         0         0         0         0         0         0
         0         0         0         0         0         0         0         0
         0         0         0         0         0         0         0         0
         0         0         0         0         0         0         0         0
         0         0         0         0         0         0         0         0
         0         0         0         0         0         0         0         0
         0         0         0         0         0         0         0         0
         0         0         0         0         0         0         0         0
         0         0         0         0         0         0         0         0
         0         0         0         0         0         0         0         0
         0         0         0         0         0         0         0         0
         0         0         0         0         0         0         0         0
         0         0         0         0         0         0         0         0
         0         0         0         0         0         0         0         0
         0         0         0         0         0         0         0         0
         0         0         0         0         0         0         0         0
         0         0         0         0         0         0         0         0
         0         0         0         0         0         0         0         0
         0         0         0         0         0         0         0         0
         0         0         0         0         0         0         0         0
         0         0         0         0         0         0         0         0
         0         0         0         0         0         0         0         0
         0         0         0         0         0         0         0         0
         0         0         0         0         0         0         0         0
         0         0         0         0         0         0         0         0
         0         0         0         0         0         0         0         0
         0         0         0         0         0         0         0         0
         0         0         0         0         0         0         0         0
         0         0         0         0         0         0         0         0
         0         0         0         0         0         0         0         0
         0         0         0         0         0         0         0         0
         0         0         0         0         0         0         0         0
         0         0         0         0         0         0         0         0
         0         0         0         0         0         0         0         0
         0         0         0         0         0         0         0         0
         0         0         0         0         0         0         0         0
         0         0         0         0         0         0         0         0
         0         0         0         0         0         0         0         0
         0         0         0         0         0         0         0         0
         0         0         0         0         0         0         0         0
         0         0         0         0         0         0         0         0
         0         0         0         0         0         0         0         0
         0         0         0         0         0         0         0         0
         0         0         0         0         0         0         0         0
         0         0         0         0         0         0         0         0
         0         0         0         0         0         0         0         0
         0         0         0         0         0         0         0         0
         0         0         0         0         0         0         0         0
         0         0         0         0         0         0         0         0
         0         0         0         0         0         0         0         0
         0         0         0         0         0         0         0         0
         0         0         0         0         0         0         0         0
         0         0         0         0         0         0         0         0
         0         0         0         0         0         0         0         0
         0         0         0         0         0         0         0         0
         0         0         0         0         0         0         0         0
         0         0         0         0         0         0         0         0
         0         0         0         0         0         0         0         0
         0         0         0         0         0         0         0         0
         0         0         0         0         0         0         0         0
         0         0         0         0         0         0         0         0
         0         0         0         0         0         0         0         0
         0         0         0         0         0         0         0         0
         0         0         0         0         0         0         0         0
         0         0         0         0         0         0         0         0
         0         0         0         0         0         0         0         0
         0         0         0         0         0         0         0         0
         0         0         0         0         0         0         0         0
         0         0         0         0         0         0         0         0
         0         0         0         0         0         0         0         0
         0         0         0         0         0         0         0         0
         0         0         0         0         0         0         0         0
         0         0         0         0         0         0         0         0
         0         0         0         0         0         0         0         0
         0         0         0         0         0         0         0         0
         0         0         0         0         0         0         0         0
         0         0         0         0         0         0         0         0
         0         0         0         0         0         0         0         0
         0         0         0         0         0         0         0         0
         0         0         0         0         0         0         0         0
         0         0         0         0         0         0         0         0
         0         0         0         0         0         0         0         0
         0         0         0         0         0         0         0         0
         0         0         0         0         0         0         0         0
         0         0         0         0         0         0         0         0
         0         0         0         0         0         0         0         0
         0         0         0         0         0         0         0         0
         0         0         0         0         0         0         0         0
         0         0         0         0         0         0         0         0
         0         0         0         0         0         0         0         0
         0         0         0         0         0         0         0         0
         0         0         0         0         0         0         0         0
         0         0         0         0         0         0         0         0
         0         0         0         0         0         0         0         0
         0         0         0         0         0         0         0         0
         0         0         0         0         0         0         0         0
         0         0         0         0         0         0         0         0
         0         0         0         0         0         0         0         0
         0         0         0         0         0         0         0         0
         0         0         0         0         0         0         0         0
         0         0         0         0         0         0         0         0
         0         0         0         0         0         0         0         0
         0         0         0         0         0         0         0         0
         0         0         0         0         0         0         0         0
         0         0         0         0         0         0         0         0
         0         0         0         0         0         0         0         0
         0         0         0         0         0         0         0         0
         0         0         0         0         0         0         0         0
         0         0         0         0         0         0         0         0
         0         0         0         0         0         0         0         0
         0         0         0         0         0         0         0         0
         0         0         0         0         0         0         0         0
         0         0         0         0         0         0         0         0
         0         0         0         0         0         0         0         0
         0         0         0         0         0         0         0         0
         0         0         0         0         0         0         0         0
         0         0         0         0         0         0         0         0
         0         0         0         0         0         0         0         0
         0         0         0         0         0         0         0         0
         0         0         0         0         0         0         0         0
         0         0         0         0         0         0         0         0
         0         0         0         0         0         0         0         0
         0         0         0         0         0         0         0         0
         0         0         0         0         0         0         0         0
         0         0         0         0         0         0         0         0
         0         0         0         0         0         0         0         0
         0         0         0         0         0         0         0         0
         0         0         0         0         0         0         0         0
         0         0         0         0         0         0         0         0
         0         0         0         0         0         0         0         0
         0         0         0         0         0         0         0         0
         0         0         0         0         0         0         0         0
         0         0         0         0         0         0         0         0
         0         0         0         0         0         0         0         0
         0         0         0         0         0         0         0         0
         0         0         0         0         0         0         0         0
         0         0         0         0         0         0         0         0
         0         0         0         0         0         0         0         0
         0         0         0         0         0         0         0         0
         0         0         0         0         0         0         0         0
         0         0         0         0         0         0         0         0
         0         0         0         0         0         0         0         0
         0         0         0         0         0         0         0         0
         0         0         0         0         0         0         0         0
         0         0         0         0         0         0         0         0
         0         0         0         0         0         0         0         0
         0         0         0         0         0         0         0         0
         0         0         0         0         0         0         0         0
         0         0         0         0         0         0         0         0
         0         0         0         0         0         0         0         0
         0         0         0         0         0         0         0         0
         0         0         0         0         0         0         0         0
         0         0         0         0         0         0         0         0
         0         0         0         0         0         0         0         0
         0         0         0         0         0         0         0         0
         0         0         0         0         0         0         0         0
         0         0         0         0         0         0         0         0
         0         0         0         0         0         0         0         0
         0         0         0         0         0         0         0         0
         0         0         0         0         0         0         0         0
         0         0         0         0         0         0         0         0
         0         0         0         0         0         0         0         0
         0         0         0         0         0         0         0         0
         0         0         0         0         0         0         0         0
         0         0         0         0         0         0         0         0
         0         0         0         0         0         0         0         0
         0         0         0         0         0         0         0         0
         0         0         0         0         0         0         0         0
         0         0         0         0         0         0         0         0
         0         0         0         0         0         0         0         0
         0         0         0         0         0         0         0         0
         0         0         0         0         0         0         0         0
         0         0         0         0         0         0         0         0
         0         0         0         0         0         0         0         0
         0         0         0         0         0         0         0         0
         0         0         0         0         0         0         0         0
         0         0         0         0         0         0         0         0
         0         0         0         0         0         0         0         0
         0         0         0         0         0         0         0         0
         0         0         0         0         0         0         0         0
         0         0         0         0         0         0         0         0
         0         0         0         0         0         0         0         0
         0         0         0         0         0         0         0         0
         0         0         0         0         0         0         0         0
         0         0         0         0         0         0         0         0
         0         0         0         0         0         0         0         0
         0         0         0         0         0         0         0         0
         0         0         0         0         0         0         0         0
         0         0         0         0         0         0         0         0
         0         0         0         0         0         0         0         0
         0         0         0         0         0         0         0         0
         0         0         0         0         0         0         0         0
         0         0         0         0         0         0         0         0
         0         0         0         0         0         0         0         0
         0         0         0         0         0         0         0         0
         0         0         0         0         0         0         0         0
         0         0         0         0         0         0         0         0
         0         0         0         0         0         0         0         0
         0         0         0         0         0         0         0         0
         0         0         0         0         0         0         0         0
         0         0         0         0         0         0         0         0
         0         0         0         0         0         0         0         0
         0         0         0         0         0         0         0         0
         0         0         0         0         0         0         0         0
         0         0         0         0         0         0         0         0
         0         0         0         0         0         0         0         0
         0         0         0         0         0         0         0         0
         0         0         0         0         0         0         0         0
         0         0         0         0         0         0         0         0
         0         0         0         0         0         0         0         0
         0         0         0         0         0         0         0         0
         0         0         0         0         0         0         0         0
         0         0         0         0         0         0         0         0
         0         0         0         0         0         0         0         0
         0         0         0         0         0         0         0         0
         0         0         0         0         0         0         0         0
         0         0         0         0         0         0         0         0
         0         0         0         0         0         0         0         0
         0         0         0         0         0         0         0         0
         0         0         0         0         0         0         0         0
         0         0         0         0         0         0         0         0
         0         0         0         0         0         0         0         0
         0         0         0         0         0         0         0         0
         0         0         0         0         0         0         0         0
         0         0         0         0         0         0         0         0
         0         0         0         0         0         0         0         0
         0         0         0         0         0         0         0         0
         0         0         0         0         0         0         0         0
         0         0         0         0         0         0         0         0
         0         0         0         0         0         0         0         0
         0         0         0         0         0         0         0         0
         0         0         0         0         0         0         0         0
         0         0         0         0         0         0         0         0
         0         0         0         0         0         0         0         0
         0         0         0         0         0         0         0         0
         0         0         0         0         0         0         0         0
         0         0         0         0         0         0         0         0
         0         0         0         0         0         0         0         0
         0         0         0         0         0         0         0         0
         0         0         0         0         0         0         0         0
         0         0         0         0         0         0         0         0
         0         0         0         0         0         0         0         0
         0         0         0         0         0         0         0         0
         0         0         0         0         0         0         0         0
         0         0         0         0         0         0         0         0
         0         0         0         0         0         0         0         0
         0         0         0         0         0         0         0         0
         0         0         0         0         0         0         0         0
         0         0         0         0         0         0         0         0
         0         0         0         0         0         0         0         0
         0         0         0         0         0         0         0         0
         0         0         0         0         0         0         0         0
         0         0         0         0         0         0         0         0
         0         0         0         0         0         0         0         0
         0         0         0         0         0         0         0         0
         0         0         0         0         0         0         0         0
         0         0         0         0         0         0         0         0
         0         0         0         0         0         0         0         0
         0         0         0         0         0         0         0         0
         0         0         0         0         0         0         0         0
         0         0         0         0         0         0         0         0
         0         0         0         0         0         0         0         0
         0         0         0         0         0         0         0         0
         0         0         0         0         0         0         0         0
         0         0         0         0         0         0         0         0
         0         0         0         0         0         0         0         0
         0         0         0         0         0         0         0         0
         0         0         0         0         0         0         0         0
         0         0         0         0         0         0         0         0
         0         0         0         0         0         0         0         0
         0         0         0         0         0         0         0         0
         0         0         0         0         0         0         0         0
         0         0         0         0         0         0         0         0
         0         0         0         0         0         0         0         0
         0         0         0         0         0         0         0         0
         0         0         0         0         0         0         0         0
         0         0         0         0         0         0         0         0
         0         0         0         0         0         0         0         0
         0         0         0         0         0         0         0         0
         0         0         0         0         0         0         0         0
         0         0         0         0         0         0         0         0
         0         0         0         0         0         0         0         0
         0         0         0         0         0         0         0         0
         0         0         0         0         0         0         0         0
         0         0         0         0         0         0         0         0
         0         0         0         0         0         0         0         0
         0         0         0         0         0         0         0         0
         0         0         0         0         0         0         0         0
         0         0         0         0         0         0         0         0
         0         0         0         0         0         0         0         0
         0         0         0         0         0         0         0         0
         0         0         0         0         0         0         0         0
         0         0         0         0         0         0         0         0
         0         0         0         0         0         0         0         0
         0         0         0         0         0         0         0         0
         0         0         0         0         0         0         0         0
         0         0         0         0         0         0         0         0
         0         0         0         0         0         0         0         0
         0         0         0         0         0         0         0         0
         0         0         0         0         0         0         0         0
         0         0         0         0         0         0         0         0
         0         0         0         0         0         0         0         0
         0         0         0         0         0         0         0         0
         0         0         0         0         0         0         0         0
         0         0         0         0         0         0         0         0
         0         0         0         0         0         0         0         0
         0         0         0         0         0         0         0         0
         0         0         0         0         0         0         0         0
         0         0         0         0         0         0         0         0
         0         0         0         0         0         0         0         0
         0         0         0         0         0         0         0         0
         0         0         0         0         0         0         0         0
         0         0         0         0         0         0         0         0
         0         0         0         0         0         0         0         0
         0         0         0         0         0         0         0         0
         0         0         0         0         0         0         0         0
         0         0         0         0         0         0         0         0
         0         0         0         0         0         0         0         0
         0         0         0         0         0         0         0         0
         0         0         0         0         0         0         0         0
         0         0         0         0         0         0         0         0
         0         0         0         0         0         0         0         0
         0         0         0         0         0         0         0         0
         0         0         0         0         0         0         0         0
         0         0         0         0         0         0         0         0
         0         0         0         0         0         0         0         0
         0         0         0         0         0         0         0         0
         0         0         0         0         0         0         0         0
         0         0         0         0         0         0         0         0
         0         0         0         0         0         0         0         0
         0         0         0         0         0         0         0         0
         0         0         0         0         0         0         0         0
         0         0         0         0         0         0         0         0
         0         0         0         0         0         0         0         0
         0         0         0         0         0         0         0         0
         0         0         0         0         0         0         0         0
         0         0         0         0         0         0         0         0
         0         0         0         0         0         0         0         0
         0         0         0         0         0         0         0         0
         0         0         0         0         0         0         0         0
         0         0         0         0         0         0         0         0
         0         0         0         0         0         0         0         0
         0         0         0         0         0         0         0         0
         0         0         0         0         0         0         0         0
         0         0         0         0         0         0         0         0
         0         0         0         0         0         0         0         0
         0         0         0         0         0         0         0         0
         0         0         0         0         0         0         0         0
         0         0         0         0         0         0         0         0
         0         0         0         0         0         0         0         0
         0         0         0         0         0         0         0         0
         0         0         0         0         0         0         0         0
         0         0         0         0         0         0         0         0
         0         0         0         0         0         0         0         0
         0         0         0         0         0         0         0         0
         0         0         0         0         0         0         0         0
         0         0         0         0         0         0         0         0
         0         0         0         0         0         0         0         0
         0         0         0         0         0         0         0         0
         0         0         0         0         0         0         0         0
         0         0         0         0         0         0         0         0
         0         0         0         0         0         0         0         0
         0         0         0         0         0         0         0         0
         0         0         0         0         0         0         0         0
         0         0         0         0         0         0         0         0
         0         0         0         0         0         0         0         0
         0         0         0         0         0         0         0         0
         0         0         0         0         0         0         0         0
         0         0         0         0         0         0         0         0
         0         0         0         0         0         0         0         0
         0         0         0         0         0         0         0         0
         0         0         0         0         0         0         0         0
         0         0         0         0         0         0         0         0
         0         0         0         0         0         0         0         0
         0         0         0         0         0         0         0         0
         0         0         0         0         0         0         0         0
         0         0         0         0         0         0         0         0
         0         0         0         0         0         0         0         0
         0         0         0         0         0         0         0         0
         0         0         0         0         0         0         0         0
         0         0         0         0         0         0         0         0
         0         0         0         0         0         0         0         0
         0         0         0         0         0         0         0         0
         0         0         0         0         0         0         0         0
         0         0         0         0         0         0         0         0
         0         0         0         0         0         0         0         0
         0         0         0         0         0         0         0         0
         0         0         0         0         0         0         0         0
         0         0         0         0         0         0         0         0
         0         0         0         0         0         0         0         0
         0         0         0         0         0         0         0         0
         0         0         0         0         0         0         0         0
         0         0         0         0         0         0         0         0
         0         0         0         0         0         0         0         0
         0         0         0         0         0         0         0         0
         0         0         0         0         0         0         0         0
         0         0         0         0         0         0         0         0
         0         0         0         0         0         0         0         0
         0         0         0         0         0         0         0         0
         0         0         0         0         0         0         0         0
         0         0         0         0         0         0         0         0
         0         0         0         0         0         0         0         0
         0         0         0         0         0         0         0         0
         0         0         0         0         0         0         0         0
         0         0         0         0         0         0         0         0
         0         0         0         0         0         0         0         0
         0         0         0         0         0         0         0         0
         0         0         0         0         0         0         0         0
         0         0         0         0         0         0         0         0
         0         0         0         0         0         0         0         0
         0         0         0         0         0         0         0         0
         0         0         0         0         0         0         0         0
         0         0         0         0         0         0         0         0
         0         0         0         0         0         0         0         0
         0         0         0         0         0         0         0         0
         0         0         0         0         0         0         0         0
         0         0         0         0         0         0         0         0
         0         0         0         0         0         0         0         0
         0         0         0         0         0         0         0         0
         0         0         0         0         0         0         0         0
         0         0         0         0         0         0         0         0
         0         0         0         0         0         0         0         0
         0         0         0         0         0         0         0         0
         0         0         0         0         0         0         0         0
         0         0         0         0         0         0         0         0
         0         0         0         0         0         0         0         0
         0         0         0         0         0         0         0         0
         0         0         0         0         0         0         0         0
         0         0         0         0         0         0         0         0
         0         0         0         0         0         0         0         0
         0         0         0         0         0         0         0         0
         0         0         0         0         0         0         0         0
         0         0         0         0         0         0         0         0
         0         0         0         0         0         0         0         0
         0         0         0         0         0         0         0         0
         0         0         0         0         0         0         0         0
         0         0         0         0         0         0         0         0
         0         0         0         0         0         0         0         0
         0         0         0         0         0         0         0         0
         0         0         0         0         0         0         0         0
         0         0         0         0         0         0         0         0
         0         0         0         0         0         0         0         0
         0         0         0         0         0         0         0         0
         0         0         0         0         0         0         0         0
         0         0         0         0         0         0         0         0
         0         0         0         0         0         0         0         0
         0         0         0         0         0         0         0         0
         0         0         0         0         0         0         0         0
         0         0         0         0         0         0         0         0
         0         0         0         0         0         0         0         0
         0         0         0         0         0         0         0         0
         0         0         0         0         0         0         0         0
         0         0         0         0         0         0         0         0
         0         0         0         0         0         0         0         0
         0         0         0         0         0         0         0         0
         0         0         0         0         0         0         0         0
         0         0         0         0         0         0         0         0
         0         0         0         0         0         0         0         0
         0         0         0         0         0         0         0         0
         0         0         0         0         0         0         0         0
         0         0         0         0         0         0         0         0
         0         0         0         0         0         0         0         0
         0         0         0         0         0         0         0         0
         0         0         0         0         0         0         0         0
         0         0         0         0         0         0         0         0
         0         0         0         0         0         0         0         0
         0         0         0         0         0         0         0         0
         0         0         0         0         0         0         0         0
         0         0         0         0         0         0         0         0
         0         0         0         0         0         0         0         0
         0         0         0         0         0         0         0         0
         0         0         0         0         0         0         0         0
         0         0         0         0         0         0         0         0
         0         0         0         0         0         0         0         0
         0         0         0         0         0         0         0         0
         0         0         0         0         0         0         0         0
         0         0         0         0         0         0         0         0
         0         0         0         0         0         0         0         0
         0         0         0         0         0         0         0         0
         0         0         0         0         0         0         0         0
         0         0         0         0         0         0         0         0
         0         0         0         0         0         0         0         0
         0         0         0         0         0         0         0         0
         0         0         0         0         0         0         0         0
         0         0         0         0         0         0         0         0
         0         0         0         0         0         0         0         0
         0         0         0         0         0         0         0         0
         0         0         0         0         0         0         0         0
         0         0         0         0         0         0         0         0
         0         0         0         0         0         0         0         0
         0         0         0         0         0         0         0         0
         0         0         0         0         0         0         0         0
         0         0         0         0         0         0         0         0
         0         0         0         0         0         0         0         0
         0         0         0         0         0         0         0         0
         0         0         0         0         0         0         0         0
         0         0         0         0         0         0         0         0
         0         0         0         0         0         0         0         0
         0         0         0         0         0         0         0         0
         0         0         0         0         0         0         0         0
         0         0         0         0         0         0         0         0
         0         0         0         0         0         0         0         0
         0         0         0         0         0         0         0         0
         0         0         0         0         0         0         0         0
         0         0         0         0         0         0         0         0
         0         0         0         0         0         0         0         0
         0         0         0         0         0         0         0         0
         0         0         0         0         0         0         0         0
         0         0         0         0         0         0         0         0
         0         0         0         0         0         0         0         0
         0         0         0         0         0         0         0         0
         0         0         0         0         0         0         0         0
         0         0         0         0         0         0         0         0
         0         0         0         0         0         0         0         0
         0         0         0         0         0         0         0         0
         0         0         0         0         0         0         0         0
         0         0         0         0         0         0         0         0
         0         0         0         0         0         0         0         0
         0         0         0         0         0         0         0         0
         0         0         0         0         0         0         0         0
         0         0         0         0         0         0         0         0
         0         0         0         0         0         0         0         0
         0         0         0         0         0         0         0         0
         0         0         0         0         0         0         0         0
         0         0         0         0         0         0         0         0
         0         0         0         0         0         0         0         0
         0         0         0         0         0         0         0         0
         0         0         0         0         0         0         0         0
         0         0         0         0         0         0         0         0
         0         0         0         0         0         0         0         0
         0         0         0         0         0         0         0         0
         0         0         0         0         0         0         0         0
         0         0         0         0         0         0         0         0
         0         0         0         0         0         0         0         0
         0         0         0         0         0         0         0         0
         0         0         0         0         0         0         0         0
         0         0         0         0         0         0         0         0
         0         0         0         0         0         0         0         0
         0         0         0         0         0         0         0         0
         0         0         0         0         0         0         0         0
         0         0         0         0         0         0         0         0
         0         0         0         0         0         0         0         0
         0         0         0         0         0         0         0         0
         0         0         0         0         0         0         0         0
         0         0         0         0         0         0         0         0
         0         0         0         0         0         0         0         0
         0         0         0         0         0         0         0         0
         0         0         0         0         0         0         0         0
         0         0         0         0         0         0         0         0
         0         0         0         0         0         0         0         0
         0         0         0         0         0         0         0         0
         0         0         0         0         0         0         0         0
         0         0         0         0         0         0         0         0
         0         0         0         0         0         0         0         0
         0         0         0         0         0         0         0         0
         0         0         0         0         0         0         0         0
         0         0         0         0         0         0         0         0
         0         0         0         0         0         0         0         0
         0         0         0         0         0         0         0         0
         0         0         0         0         0         0         0         0
         0         0         0         0         0         0         0         0
         0         0         0         0         0         0         0         0
         0         0         0         0         0         0         0         0
         0         0         0         0         0         0         0         0
         0         0         0         0         0         0         0         0
         0         0         0         0         0         0         0         0
         0         0         0         0         0         0         0         0
         0         0         0         0         0         0         0         0
         0         0         0         0         0         0         0         0
         0         0         0         0         0         0         0         0
         0         0         0         0         0         0         0         0
         0         0         0         0         0         0         0         0
         0         0         0         0         0         0         0         0
         0         0         0         0         0         0         0         0
         0         0         0         0         0         0         0         0
         0         0         0         0         0         0         0         0
         0         0         0         0         0         0         0         0
         0         0         0         0         0         0         0         0
         0         0         0         0         0         0         0         0
         0         0         0         0         0         0         0         0
         0         0         0         0         0         0         0         0
         0         0         0         0         0         0         0         0
         0         0         0         0         0         0         0         0
         0         0         0         0         0         0         0         0
         0         0         0         0         0         0         0         0
         0         0         0         0         0         0         0         0
         0         0         0         0         0         0         0         0
         0         0         0         0         0         0         0         0
         0         0         0         0         0         0         0         0
         0         0         0         0         0         0         0         0
         0         0         0         0         0         0         0         0
         0         0         0         0         0         0         0         0
         0         0         0         0         0         0         0         0
         0         0         0         0         0         0         0         0
         0         0         0         0         0         0         0         0
         0         0         0         0         0         0         0         0
         0         0         0         0         0         0         0         0
         0         0         0         0         0         0         0         0
         0         0         0         0         0         0         0         0
         0         0         0         0         0         0         0         0
         0         0         0         0         0         0         0         0
         0         0         0         0         0         0         0         0
         0         0         0         0         0         0         0         0
         0         0         0         0         0         0         0         0
         0         0         0         0         0         0         0         0
         0         0         0         0         0         0         0         0
         0         0         0         0         0         0         0         0
         0         0         0         0         0         0         0         0
         0         0         0         0         0         0         0         0
         0         0         0         0         0         0         0         0
         0         0         0         0         0         0         0         0
         0         0         0         0         0         0         0         0
         0         0         0         0         0         0         0         0
         0         0         0         0         0         0         0         0
         0         0         0         0         0         0         0         0
         0         0         0         0         0         0         0         0
         0         0         0         0         0         0         0         0
         0         0         0         0         0         0         0         0
         0         0         0         0         0         0         0         0
         0         0         0         0         0         0         0         0
         0         0         0         0         0         0         0         0
         0         0         0         0         0         0         0         0
         0         0         0         0         0         0         0         0
         0         0         0         0         0         0         0         0
         0         0         0         0         0         0         0         0
         0         0         0         0         0         0         0         0
         0         0         0         0         0         0         0         0
         0         0         0         0         0         0         0         0
         0         0         0         0         0         0         0         0
         0         0         0         0         0         0         0         0
         0         0         0         0         0         0         0         0
         0         0         0         0         0         0         0         0
         0         0         0         0         0         0         0         0
         0         0         0         0         0         0         0         0
         0         0         0         0         0         0         0         0
         0         0         0         0         0         0         0         0
         0         0         0         0         0         0         0         0
         0         0         0         0         0         0         0         0
         0         0         0         0         0         0         0         0
         0         0         0         0         0         0         0         0
         0         0         0         0         0         0         0         0
         0         0         0         0         0         0         0         0
         0         0         0         0         0         0         0         0
         0         0         0         0         0         0         0         0
         0         0         0         0         0         0         0         0
         0         0         0         0         0         0         0         0
         0         0         0         0         0         0         0         0
         0         0         0         0         0         0         0         0
         0         0         0         0         0         0         0         0
         0         0         0         0         0         0         0         0
         0         0         0         0         0         0         0         0
         0         0         0         0         0         0         0         0
         0         0         0         0         0         0         0         0
         0         0         0         0         0         0         0         0
         0         0         0         0         0         0         0         0
         0         0         0         0         0         0         0         0
         0         0         0         0         0         0         0         0
         0         0         0         0         0         0         0         0
         0         0         0         0         0         0         0         0
         0         0         0         0         0         0         0         0
         0         0         0         0         0         0         0         0
         0         0         0         0         0         0         0         0
         0         0         0         0         0         0         0         0
         0         0         0         0         0         0         0         0
         0         0         0         0         0         0         0         0
         0         0         0         0         0         0         0         0
         0         0         0         0         0         0         0         0
         0         0         0         0         0         0         0         0
         0         0         0         0         0         0         0         0
         0         0         0         0         0         0         0         0
         0         0         0         0         0         0         0         0
         0         0         0         0         0         0         0         0
         0         0         0         0         0         0         0         0
         0         0         0         0         0         0         0         0
         0         0         0         0         0         0         0         0
         0         0         0         0         0         0         0         0
         0         0         0         0         0         0         0         0
         0         0         0         0         0         0         0         0
         0         0         0         0         0         0         0         0
         0         0         0         0         0         0         0         0
         0         0         0         0         0         0         0         0
         0         0         0         0         0         0         0         0
         0         0         0         0         0         0         0         0
         0         0         0         0         0         0         0         0
         0         0         0         0         0         0         0         0
         0         0         0         0         0         0         0         0
         0         0         0         0         0         0         0         0
         0         0         0         0         0         0         0         0
         0         0         0         0         0         0         0         0
         0         0         0         0         0         0         0         0
         0         0         0         0         0         0         0         0
         0         0         0         0         0         0         0         0
         0         0         0         0         0         0         0         0
         0         0         0         0         0         0         0         0
         0         0         0         0         0         0         0         0
         0         0         0         0         0         0         0         0
         0         0         0         0         0         0         0         0
         0         0         0         0         0         0         0         0
         0         0         0         0         0         0         0         0
         0         0         0         0         0         0         0         0
         0         0         0         0         0         0         0         0
         0         0         0         0         0         0         0         0
         0         0         0         0         0         0         0         0
         0         0         0         0         0         0         0         0
         0         0         0         0         0         0         0         0
         0         0         0         0         0         0         0         0
         0         0         0         0         0         0         0         0
         0         0         0         0         0         0         0         0
         0         0         0         0         0         0         0         0
         0         0         0         0         0         0         0         0
         0         0         0         0         0         0         0         0
         0         0         0         0         0         0         0         0
         0         0         0         0         0         0         0         0
         0         0         0         0         0         0         0         0
         0         0         0         0         0         0         0         0
         0         0         0         0         0         0         0         0
         0         0         0         0         0         0         0         0
         0         0         0         0         0         0         0         0
         0         0         0         0         0         0         0         0
         0         0         0         0         0         0         0         0
         0         0         0         0         0         0         0         0
         0         0         0         0         0         0         0         0
         0         0         0         0         0         0         0         0
         0         0         0         0         0         0         0         0
         0         0         0         0         0         0         0         0
         0         0         0         0         0         0         0         0
         0         0         0         0         0         0         0         0
         0         0         0         0         0         0         0         0
         0         0         0         0         0         0         0         0
         0         0         0         0         0         0         0         0
         0         0         0         0         0         0         0         0
         0         0         0         0         0         0         0         0
         0         0         0         0         0         0         0         0
         0         0         0         0         0         0         0         0
         0         0         0         0         0         0         0         0
         0         0         0         0         0         0         0         0
         0         0         0         0         0         0         0         0
         0         0         0         0         0         0         0         0
         0         0         0         0         0         0         0         0
         0         0         0         0         0         0         0         0
         0         0         0         0         0         0         0         0
         0         0         0         0         0         0         0         0
         0         0         0         0         0         0         0         0
         0         0         0         0         0         0         0         0
         0         0         0         0         0         0         0         0
         0         0         0         0         0         0         0         0
         0         0         0         0         0         0         0         0
         0         0         0         0         0         0         0         0
         0         0         0         0         0         0         0         0
         0         0         0         0         0         0         0         0
         0         0         0         0         0         0         0         0
         0         0         0         0         0         0         0         0
         0         0         0         0         0         0         0         0
         0         0         0         0         0         0         0         0
         0         0         0         0         0         0         0         0
         0         0         0         0         0         0         0         0
         0         0         0         0         0         0         0         0
         0         0         0         0         0         0         0         0
         0         0         0         0         0         0         0         0
         0         0         0         0         0         0         0         0
         0         0         0         0         0         0         0         0
         0         0         0         0         0         0         0         0
         0         0         0         0         0         0         0         0
         0         0         0         0         0         0         0         0
         0         0         0         0         0         0         0         0
         0         0         0         0         0         0         0         0
         0         0         0         0         0         0         0         0
         0         0         0         0         0         0         0         0
         0         0         0         0         0         0         0         0
         0         0         0         0         0         0         0         0
         0         0         0         0         0         0         0         0
         0         0         0         0         0         0         0         0
         0         0         0         0         0         0         0         0
         0         0         0         0         0         0         0         0
         0         0         0         0         0         0         0         0
         0         0         0         0         0         0         0         0
         0         0         0         0         0         0         0         0
         0         0         0         0         0         0         0         0
         0         0         0         0         0         0         0         0
         0         0         0         0         0         0         0         0
         0         0         0         0         0         0         0         0
         0         0         0         0         0         0         0         0
         0         0         0         0         0         0         0         0
         0         0         0         0         0         0         0         0
         0         0         0         0         0         0         0         0
         0         0         0         0         0         0         0         0
         0         0         0         0         0         0         0         0
         0         0         0         0         0         0         0         0
         0         0         0         0         0         0         0         0
         0         0         0         0         0         0         0         0
         0         0         0         0         0         0         0         0
         0         0         0         0         0         0         0         0
         0         0         0         0         0         0         0         0
         0         0         0         0         0         0         0         0
         0         0         0         0         0         0         0         0
         0         0         0         0         0         0         0         0
         0         0         0         0         0         0         0         0
         0         0         0         0         0         0         0         0
         0         0         0         0         0         0         0         0
         0         0         0         0         0         0         0         0
         0         0         0         0         0         0         0         0
         0         0         0         0         0         0         0         0
         0         0         0         0         0         0         0         0
         0         0         0         0         0         0         0         0
         0         0         0         0         0         0         0         0
         0         0         0         0         0         0         0         0
         0         0         0         0         0         0         0         0
         0         0         0         0         0         0         0         0
         0         0         0         0         0         0         0         0
         0         0         0         0         0         0         0         0
         0         0         0         0         0         0         0         0
         0         0         0         0         0         0         0         0
         0         0         0         0         0         0         0         0
         0         0         0         0         0         0         0         0
         0         0         0         0         0         0         0         0
         0         0         0         0         0         0         0         0
         0         0         0         0         0         0         0         0
         0         0         0         0         0         0         0         0
         0         0         0         0         0         0         0         0
         0         0         0         0         0         0         0         0
         0         0         0         0         0         0         0         0
         0         0         0         0         0         0         0         0
         0         0         0         0         0         0         0         0
         0         0         0         0         0         0         0         0
         0         0         0         0         0         0         0         0
         0         0         0         0         0         0         0         0
         0         0         0         0         0         0         0         0
         0         0         0         0         0         0         0         0
         0         0         0         0         0         0         0         0
         0         0         0         0         0         0         0         0
         0         0         0         0         0         0         0         0
         0         0         0         0         0         0         0         0
         0         0         0         0         0         0         0         0
         0         0         0         0         0         0         0         0
         0         0         0         0         0         0         0         0
         0         0         0         0         0         0         0         0
         0         0         0         0         0         0         0         0
         0         0         0         0         0         0         0         0
         0         0         0         0         0         0         0         0
         0         0         0         0         0         0         0         0
         0         0         0         0         0         0         0         0
         0         0         0         0         0         0         0         0
         0         0         0         0         0         0         0         0
         0         0         0         0         0         0         0         0
         0         0         0         0         0         0         0         0
         0         0         0         0         0         0         0         0
         0         0         0         0         0         0         0         0
         0         0         0         0         0         0         0         0
         0         0         0         0         0         0         0         0
         0         0         0         0         0         0         0         0
         0         0         0         0         0         0         0         0
         0         0         0         0         0         0         0         0
         0         0         0         0         0         0         0         0
         0         0         0         0         0         0         0         0
         0         0         0         0         0         0         0         0
         0         0         0         0         0         0         0         0
         0         0         0         0         0         0         0         0
         0         0         0         0         0         0         0         0
         0         0         0         0         0         0         0         0
         0         0         0         0         0         0         0         0
         0         0         0         0         0         0         0         0
         0         0         0         0         0         0         0         0
         0         0         0         0         0         0         0         0
         0         0         0         0         0         0         0         0
         0         0         0         0         0         0         0         0
         0         0         0         0         0         0         0         0
         0         0         0         0         0         0         0         0
         0         0         0         0         0         0         0         0
         0         0         0         0         0         0         0         0
         0         0         0         0         0         0         0         0
         0         0         0         0         0         0         0         0
         0         0         0         0         0         0         0         0
         0         0         0         0         0         0         0         0
         0         0         0         0         0         0         0         0
         0         0         0         0         0         0         0         0
         0         0         0         0         0         0         0         0
         0         0         0         0         0         0         0         0
         0         0         0         0         0         0         0         0
         0         0         0         0         0         0         0         0
         0         0         0         0         0         0         0         0
         0         0         0         0         0         0         0         0
         0         0         0         0         0         0         0         0
         0         0         0         0         0         0         0         0
         0         0         0         0         0         0         0         0
         0         0         0         0         0         0         0         0
         0         0         0         0         0         0         0         0
         0         0         0         0         0         0         0         0
         0         0         0         0         0         0         0         0
         0         0         0         0         0         0         0         0
         0         0         0         0         0         0         0         0
         0         0         0         0         0         0         0         0
         0         0         0         0         0         0         0         0
         0         0         0         0         0         0         0         0
         0         0         0         0         0         0         0         0
         0         0         0         0         0         0         0         0
         0         0         0         0         0         0         0         0
         0         0         0         0         0         0         0         0
         0         0         0         0         0         0         0         0
         0         0         0         0         0         0         0         0
         0         0         0         0         0         0         0         0
         0         0         0         0         0         0         0         0
         0         0         0         0         0         0         0         0
         0         0         0         0         0         0         0         0
         0         0         0         0         0         0         0         0
         0         0         0         0         0         0         0         0
         0         0         0         0         0         0         0         0
         0         0         0         0         0         0         0         0
         0         0         0         0         0         0         0         0
         0         0         0         0         0         0         0         0
         0         0         0         0         0         0         0         0
         0         0         0         0         0         0         0         0
         0         0         0         0         0         0         0         0
         0         0         0         0         0         0         0         0
         0         0         0         0         0         0         0         0
         0         0         0         0         0         0         0         0
         0         0         0         0         0         0         0         0
         0         0         0         0         0         0         0         0
         0         0         0         0         0         0         0         0
         0         0         0         0         0         0         0         0
         0         0         0         0         0         0         0         0
         0         0         0         0         0         0         0         0
         0         0         0         0         0         0         0         0
         0         0         0         0         0         0         0         0
         0         0         0         0         0         0         0         0
         0         0         0         0         0         0         0         0
         0         0         0         0         0         0         0         0
         0         0         0         0         0         0         0         0
         0         0         0         0         0         0         0         0
         0         0         0         0         0         0         0         0
         0         0         0         0         0         0         0         0
         0         0         0         0         0         0         0         0
         0         0         0         0         0         0         0         0
         0         0         0         0         0         0         0         0
         0         0         0         0         0         0         0         0
         0         0         0         0         0         0         0         0
         0         0         0         0         0         0         0         0
         0         0         0         0         0         0         0         0
         0         0         0         0         0         0         0         0
         0         0         0         0         0         0         0         0
         0         0         0         0         0         0         0         0
         0         0         0         0         0         0         0         0
         0         0         0         0         0         0         0         0
         0         0         0         0         0         0         0         0
         0         0         0         0         0         0         0         0
         0         0         0         0         0         0         0         0
         0         0         0         0         0         0         0         0
         0         0         0         0         0         0         0         0
         0         0         0         0         0         0         0         0
         0         0         0         0         0         0         0         0
         0         0         0         0         0         0         0         0
         0         0         0         0         0         0         0         0
         0         0         0         0         0         0         0         0
         0         0         0         0         0         0         0         0
         0         0         0         0         0         0         0         0
         0         0         0         0         0         0         0         0
         0         0         0         0         0         0         0         0
         0         0         0         0         0         0         0         0
         0         0         0         0         0         0         0         0
         0         0         0         0         0         0         0         0
         0         0         0         0         0         0         0         0
         0         0         0         0         0         0         0         0
         0         0         0         0         0         0         0         0
         0         0         0         0         0         0         0         0
         0         0         0         0         0         0         0         0
         0         0         0         0         0         0         0         0
         0         0         0         0         0         0         0         0
         0         0         0         0         0         0         0         0
         0         0         0         0         0         0         0         0
         0         0         0         0         0         0         0         0
         0         0         0         0         0         0         0         0
         0         0         0         0         0         0         0         0
         0         0         0         0         0         0         0         0
         0         0         0         0         0         0         0         0
         0         0         0         0         0         0         0         0
         0         0         0         0         0         0         0         0
         0         0         0         0         0         0         0         0
         0         0         0         0         0         0         0         0
         0         0         0         0         0         0         0         0
         0         0         0         0         0         0         0         0
         0         0         0         0         0         0         0         0
         0         0         0         0         0         0         0         0
         0         0         0         0         0         0         0         0
         0         0         0         0         0         0         0         0
         0         0         0         0         0         0         0         0
         0         0         0         0         0         0         0         0
         0         0         0         0         0         0         0         0
         0         0         0         0         0         0         0         0
         0         0         0         0         0         0         0         0
         0         0         0         0         0         0         0         0
         0         0         0         0         0         0         0         0
         0         0         0         0         0         0         0         0
         0         0         0         0         0         0         0         0
         0         0         0         0         0         0         0         0
         0         0         0         0         0         0         0         0
         0         0         0         0         0         0         0         0
         0         0         0         0         0         0         0         0
         0         0         0         0         0         0         0         0
         0         0         0         0         0         0         0         0
         0         0         0         0         0         0         0         0
         0         0         0         0         0         0         0         0
         0         0         0         0         0         0         0         0
         0         0         0         0         0         0         0         0
         0         0         0         0         0         0         0         0
         0         0         0         0         0         0         0         0
         0         0         0         0         0         0         0         0
         0         0         0         0         0         0         0         0
         0         0         0         0         0         0         0         0
         0         0         0         0         0         0         0         0
         0         0         0         0         0         0         0         0
         0         0         0         0         0         0         0         0
         0         0         0         0         0         0         0         0
         0         0         0         0         0         0         0         0
         0         0         0         0         0         0         0         0
         0         0         0         0         0         0         0         0
         0         0         0         0         0         0         0         0
         0         0         0         0         0         0         0         0
         0         0         0         0         0         0         0         0
         0         0         0         0         0         0         0         0
         0         0         0         0         0         0         0         0
         0         0         0         0         0         0         0         0
         0         0         0         0         0         0         0         0
         0         0         0         0         0         0         0         0
         0         0         0         0         0         0         0         0
         0         0         0         0         0         0         0         0
         0         0         0         0         0         0         0         0
         0         0         0         0         0         0         0         0
         0         0         0         0         0         0         0         0
         0         0         0         0         0         0         0         0
         0         0         0         0         0         0         0         0
         0         0         0         0         0         0         0         0
         0         0         0         0         0         0         0         0
         0         0         0         0         0         0         0         0
         0         0         0         0         0         0         0         0
         0         0         0         0         0         0         0         0
         0         0         0         0         0         0         0         0
         0         0         0         0         0         0         0         0
         0         0         0         0         0         0         0         0
         0         0         0         0         0         0         0         0
         0         0         0         0         0         0         0         0
         0         0         0         0         0         0         0         0
         0         0         0         0         0         0         0         0
         0         0         0         0         0         0         0         0
         0         0         0         0         0         0         0         0
         0         0         0         0         0         0         0         0
         0         0         0         0         0         0         0         0
         0         0         0         0         0         0         0         0
         0         0         0         0         0         0         0         0
         0         0         0         0         0         0         0         0
         0         0         0         0         0         0         0         0
         0         0         0         0         0         0         0         0
         0         0         0         0         0         0         0         0
         0         0         0         0         0         0         0         0
         0         0         0         0         0         0         0         0
         0         0         0         0         0         0         0         0
         0         0         0         0         0         0         0         0
         0         0         0         0         0         0         0         0
         0         0         0         0         0         0         0         0
         0         0         0         0         0         0         0         0
         0         0         0         0         0         0         0         0
         0         0         0         0         0         0         0         0
         0         0         0         0         0         0         0         0
         0         0         0         0         0         0         0         0
         0         0         0         0         0         0         0         0
         0         0         0         0         0         0         0         0
         0         0         0         0         0         0         0         0
         0         0         0         0         0         0         0         0
         0         0         0         0         0         0         0         0
         0         0         0         0         0         0         0         0
         0         0         0         0         0         0         0         0
         0         0         0         0         0         0         0         0
         0         0         0         0         0         0         0         0
         0         0         0         0         0         0         0         0
         0         0         0         0         0         0         0         0
         0         0         0         0         0         0         0         0
         0         0         0         0         0         0         0         0
         0         0         0         0         0         0         0         0
         0         0         0         0         0         0         0         0
         0         0         0         0         0         0         0         0
         0         0         0         0         0         0         0         0
         0         0         0         0         0         0         0         0
         0         0         0         0         0         0         0         0
         0         0         0         0         0         0         0         0
         0         0         0         0         0         0         0         0
         0         0         0         0         0         0         0         0
         0         0         0         0         0         0         0         0
         0         0         0         0         0         0         0         0
         0         0         0         0         0         0         0         0
         0         0         0         0         0         0         0         0
         0         0         0         0         0         0         0         0
         0         0         0         0         0         0         0         0
         0         0         0         0         0         0         0         0
         0         0         0         0         0         0         0         0
         0         0         0         0         0         0         0         0
         0         0         0         0         0         0         0         0
         0         0         0         0         0         0         0         0
         0         0         0         0         0         0         0         0
         0         0         0         0         0         0         0         0
         0         0         0         0         0         0         0         0
         0         0         0         0         0         0         0         0
         0         0         0         0         0         0         0         0
         0         0         0         0         0         0         0         0
         0         0         0         0         0         0         0         0
         0         0         0         0         0         0         0         0
         0         0         0         0         0         0         0         0
         0         0         0         0         0         0         0         0
         0         0         0         0         0         0         0         0
         0         0         0         0         0         0         0         0
         0         0         0         0         0         0         0         0
         0         0         0         0         0         0         0         0
         0         0         0         0         0         0         0         0
         0         0         0         0         0         0         0         0
         0         0         0         0         0         0         0         0
         0         0         0         0         0         0         0         0
         0         0         0         0         0         0         0         0
         0         0         0         0         0         0         0         0
         0         0         0         0         0         0         0         0
         0         0         0         0         0         0         0         0
         0         0         0         0         0         0         0         0
         0         0         0         0         0         0         0         0
         0         0         0         0         0         0         0         0
         0         0         0         0         0         0         0         0
         0         0         0         0         0         0         0         0
         0         0         0         0         0         0         0         0
         0         0         0         0         0         0         0         0
         0         0         0         0         0         0         0         0
         0         0         0         0         0         0         0         0
         0         0         0         0         0         0         0         0
         0         0         0         0         0         0         0         0
         0         0         0         0         0         0         0         0
         0         0         0         0         0         0         0         0
         0         0         0         0         0         0         0         0
         0         0         0         0         0         0         0         0
         0         0         0         0         0         0         0         0
         0         0         0         0         0         0         0         0
         0         0         0         0         0         0         0         0
         0         0         0         0         0         0         0         0
         0         0         0         0         0         0         0         0
         0         0         0         0         0         0         0         0
         0         0         0         0         0         0         0         0
         0         0         0         0         0         0         0         0
         0         0         0         0         0         0         0         0
         0         0         0         0         0         0         0         0
         0         0         0         0         0         0         0         0
         0         0         0         0         0         0         0         0
         0         0         0         0         0         0         0         0
         0         0         0         0         0         0         0         0
         0         0         0         0         0         0         0         0
         0         0         0         0         0         0         0         0
         0         0         0         0         0         0         0         0
         0         0         0         0         0         0         0         0
         0         0         0         0         0         0         0         0
         0         0         0         0         0         0         0         0
         0         0         0         0         0         0         0         0
         0         0         0         0         0         0         0         0
         0         0         0         0         0         0         0         0
         0         0         0         0         0         0         0         0
         0         0         0         0         0         0         0         0
         0         0         0         0         0         0         0         0
         0         0         0         0         0         0         0         0
         0         0         0         0         0         0         0         0
         0         0         0         0         0         0         0         0
         0         0         0         0         0         0         0         0
         0         0         0         0         0         0         0         0
         0         0         0         0         0         0         0         0
         0         0         0         0         0         0         0         0
         0         0         0         0         0         0         0         0
         0         0         0         0         0         0         0         0
         0         0         0         0         0         0         0         0
         0         0         0         0         0         0         0         0
         0         0         0         0         0         0         0         0
         0         0         0         0         0         0         0         0
         0         0         0         0         0         0         0         0
         0         0         0         0         0         0         0         0
         0         0         0         0         0         0         0         0
         0         0         0         0         0         0         0         0
         0         0         0         0         0         0         0         0
         0         0         0         0         0         0         0         0
         0         0         0         0         0         0         0         0
         0         0         0         0         0         0         0         0
         0         0         0         0         0         0         0         0
         0         0         0         0         0         0         0         0
         0         0         0         0         0         0         0         0
         0         0         0         0         0         0         0         0
         0         0         0         0         0         0         0         0
         0         0         0         0         0         0         0         0
         0         0         0         0         0         0         0         0
         0         0         0         0         0         0         0         0
         0         0         0         0         0         0         0         0
         0         0         0         0         0         0         0         0
         0         0         0         0         0         0         0         0
         0         0         0         0         0         0         0         0
         0         0         0         0         0         0         0         0
         0         0         0         0         0         0         0         0
         0         0         0         0         0         0         0         0
         0         0         0         0         0         0         0         0
         0         0         0         0         0         0         0         0
         0         0         0         0         0         0         0         0
         0         0         0         0         0         0         0         0
         0         0         0         0         0         0         0         0
         0         0         0         0         0         0         0         0
         0         0         0         0         0         0         0         0
         0         0         0         0         0         0         0         0
         0         0         0         0         0         0         0         0
         0         0         0         0         0         0         0         0
         0         0         0         0         0         0         0         0
         0         0         0         0         0         0         0         0
         0         0         0         0         0         0         0         0
         0         0         0         0         0         0         0         0
         0         0         0         0         0         0         0         0
         0         0         0         0         0         0         0         0
         0         0         0         0         0         0         0         0
         0         0         0         0         0         0         0         0
         0         0         0         0         0         0         0         0
         0         0         0         0         0         0         0         0
         0         0         0         0         0         0         0         0
         0         0         0         0         0         0         0         0
         0         0         0         0         0         0         0         0
         0         0         0         0         0         0         0         0
         0         0         0         0         0         0         0         0
         0         0         0         0         0         0         0         0
         0         0         0         0         0         0         0         0
         0         0         0         0         0         0         0         0
         0         0         0         0         0         0         0         0
         0         0         0         0         0         0         0         0
         0         0         0         0         0         0         0         0
         0         0         0         0         0         0         0         0
         0         0         0         0         0         0         0         0
         0         0         0         0         0         0         0         0
         0         0         0         0         0         0         0         0
         0         0         0         0         0         0         0         0
         0         0         0         0         0         0         0         0
         0         0         0         0         0         0         0         0
         0         0         0         0         0         0         0         0
         0         0         0         0         0         0         0         0
         0         0         0         0         0         0         0         0
         0         0         0         0         0         0         0         0
         0         0         0         0         0         0         0         0
         0         0         0         0         0         0         0         0
         0         0         0         0         0         0         0         0
         0         0         0         0         0         0         0         0
         0         0         0         0         0         0         0         0
         0         0         0         0         0         0         0         0
         0         0         0         0         0         0         0         0
         0         0         0         0         0         0         0         0
         0         0         0         0         0         0         0         0
         0         0         0         0         0         0         0         0
         0         0         0         0         0         0         0         0
         0         0         0         0         0         0         0         0
         0         0         0         0         0         0         0         0
         0         0         0         0         0         0         0         0
         0         0         0         0         0         0         0         0
         0         0         0         0         0         0         0         0
         0         0         0         0         0         0         0         0
         0         0         0         0         0         0         0         0
         0         0         0         0         0         0         0         0
         0         0         0         0         0         0         0         0
         0         0         0         0         0         0         0         0
         0         0         0         0         0         0         0         0
         0         0         0         0         0         0         0         0
         0         0         0         0         0         0         0         0
         0         0         0         0         0         0         0         0
         0         0         0         0         0         0         0         0
         0         0         0         0         0         0         0         0
         0         0         0         0         0         0         0         0
         0         0         0         0         0         0         0         0
         0         0         0         0         0         0         0         0
         0         0         0         0         0         0         0         0
         0         0         0         0         0         0         0         0
         0         0         0         0         0         0         0         0
         0         0         0         0         0         0         0         0
         0         0         0         0         0         0         0         0
         0         0         0         0         0         0         0         0
         0         0         0         0         0         0         0         0
         0         0         0         0         0         0         0         0
         0         0         0         0         0         0         0         0
         0         0         0         0         0         0         0         0
         0         0         0         0         0         0         0         0
         0         0         0         0         0         0         0         0
         0         0         0         0         0         0         0         0
         0         0         0         0         0         0         0         0
         0         0         0         0         0         0         0         0
         0         0         0         0         0         0         0         0
         0         0         0         0         0         0         0         0
         0         0         0         0         0         0         0         0
         0         0         0         0         0         0         0         0
         0         0         0         0         0         0         0         0
         0         0         0         0         0         0         0         0
         0         0         0         0         0         0         0         0
         0         0         0         0         0         0         0         0
         0         0         0         0         0         0         0         0
         0         0         0         0         0         0         0         0
         0         0         0         0         0         0         0         0
         0         0         0         0         0         0         0         0
         0         0         0         0         0         0         0         0
         0         0         0         0         0         0         0         0
         0         0         0         0         0         0         0         0
         0         0         0         0         0         0         0         0
         0         0         0         0         0         0         0         0
         0         0         0         0         0         0         0         0
         0         0         0         0         0         0         0         0
         0         0         0         0         0         0         0         0
         0         0         0         0         0         0         0         0
         0         0         0         0         0         0         0         0
         0         0         0         0         0         0         0         0
         0         0         0         0         0         0         0         0
         0         0         0         0         0         0         0         0
         0         0         0         0         0         0         0         0
         0         0         0         0         0         0         0         0
         0         0         0         0         0         0         0         0
         0         0         0         0         0         0         0         0
         0         0         0         0         0         0         0         0
         0         0         0         0         0         0         0         0
         0         0         0         0         0         0         0         0
         0         0         0         0         0         0         0         0
         0         0         0         0         0         0         0         0
         0         0         0         0         0         0         0         0
         0         0         0         0         0         0         0         0
         0         0         0         0         0         0         0         0
         0         0         0         0         0         0         0         0
         0         0         0         0         0         0         0         0
         0         0         0         0         0         0         0         0
         0         0         0         0         0         0         0         0
         0         0         0         0         0         0         0         0
         0         0         0         0         0         0         0         0
         0         0         0         0         0         0         0         0
         0         0         0         0         0         0         0         0
         0         0         0         0         0         0         0         0
         0         0         0         0         0         0         0         0
         0         0         0         0         0         0         0         0
         0         0         0         0         0         0         0         0
         0         0         0         0         0         0         0         0
         0         0         0         0         0         0         0         0
         0         0         0         0         0         0         0         0
         0         0         0         0         0         0         0         0
         0         0         0         0         0         0         0         0
         0         0         0         0         0         0         0         0
         0         0         0         0         0         0         0         0
         0         0         0         0         0         0         0         0
         0         0         0         0         0         0         0         0
         0         0         0         0         0         0         0         0
         0         0         0         0         0         0         0         0
         0         0         0         0         0         0         0         0
         0         0         0         0         0         0         0         0
         0         0         0         0         0         0         0         0
         0         0         0         0         0         0         0         0
         0         0         0         0         0         0         0         0
         0         0         0         0         0         0         0         0
         0         0         0         0         0         0         0         0
         0         0         0         0         0         0         0         0
         0         0         0         0         0         0         0         0
         0         0         0         0         0         0         0         0
         0         0         0         0         0         0         0         0
         0         0         0         0         0         0         0         0
         0         0         0         0         0         0         0         0
         0         0         0         0         0         0         0         0
         0         0         0         0         0         0         0         0
         0         0         0         0         0         0         0         0
         0         0         0         0         0         0         0         0
         0         0         0         0         0         0         0         0
         0         0         0         0         0         0         0         0
         0         0         0         0         0         0         0         0
         0         0         0         0         0         0         0         0
         0         0         0         0         0         0         0         0
         0         0         0         0         0         0         0         0
         0         0         0         0         0         0         0         0
         0         0         0         0         0         0         0         0
         0         0         0         0         0         0         0         0
         0         0         0         0         0         0         0         0
         0         0         0         0         0         0         0         0
         0         0         0         0         0         0         0         0
         0         0         0         0         0         0         0         0
         0         0         0         0         0         0         0         0
         0         0         0         0         0         0         0         0
         0         0         0         0         0         0         0         0
         0         0         0         0         0         0         0         0
         0         0         0         0         0         0         0         0
         0         0         0         0         0         0         0         0
         0         0         0         0         0         0         0         0
         0         0         0         0         0         0         0         0
         0         0         0         0         0         0         0         0
         0         0         0         0         0         0         0         0
         0         0         0         0         0         0         0         0
         0         0         0         0         0         0         0         0
         0         0         0         0         0         0         0         0
         0         0         0         0         0         0         0         0
         0         0         0         0         0         0         0         0
         0         0         0         0         0         0         0         0
         0         0         0         0         0         0         0         0
         0         0         0         0         0         0         0         0
         0         0         0         0         0         0         0         0
         0         0         0         0         0         0         0         0
         0         0         0         0         0         0         0         0
         0         0         0         0         0         0         0         0
         0         0         0         0         0         0         0         0
         0         0         0         0         0         0         0         0
         0         0         0         0         0         0         0         0
         0         0         0         0         0         0         0         0
         0         0         0         0         0         0         0         0
         0         0         0         0         0         0         0         0
         0         0         0         0         0         0         0         0
         0         0         0         0         0         0         0         0
         0         0         0         0         0         0         0         0
         0         0         0         0         0         0         0         0
         0         0         0         0         0         0         0         0
         0         0         0         0         0         0         0         0
         0         0         0         0         0         0         0         0
         0         0         0         0         0         0         0         0
         0         0         0         0         0         0         0         0
         0         0         0         0         0         0         0         0
         0         0         0         0         0         0         0         0
         0         0         0         0         0         0         0         0
         0         0         0         0         0         0         0         0
         0         0         0         0         0         0         0         0
         0         0         0         0         0         0         0         0
         0         0         0         0         0         0         0         0
         0         0         0         0         0         0         0         0
         0         0         0         0         0         0         0         0
         0         0         0         0         0         0         0         0
         0         0         0         0         0         0         0         0
         0         0         0         0         0         0         0         0
         0         0         0         0         0         0         0         0
         0         0         0         0         0         0         0         0
         0         0         0         0         0         0         0         0
         0         0         0         0         0         0         0         0
         0         0         0         0         0         0         0         0
         0         0         0         0         0         0         0         0
         0         0         0         0         0         0         0         0
         0         0         0         0         0         0         0         0
         0         0         0         0         0         0         0         0
         0         0         0         0         0         0         0         0
         0         0         0         0         0         0         0         0
         0         0         0         0         0         0         0         0
         0         0         0         0         0         0         0         0
         0         0         0         0         0         0         0         0
         0         0         0         0         0         0         0         0
         0         0         0         0         0         0         0         0
         0         0         0         0         0         0         0         0
         0         0         0         0         0         0         0         0
         0         0         0         0         0         0         0         0
         0         0         0         0         0         0         0         0
         0         0         0         0         0         0         0         0
         0         0         0         0         0         0         0         0
         0         0         0         0         0         0         0         0
         0         0         0         0         0         0         0         0
         0         0         0         0         0         0         0         0
         0         0         0         0         0         0         0         0
         0         0         0         0         0         0         0         0
         0         0         0         0         0         0         0         0
         0         0         0         0         0         0         0         0
         0         0         0         0         0         0         0         0
         0         0         0         0         0         0         0         0
         0         0         0         0         0         0         0         0
         0         0         0         0         0         0         0         0
         0         0         0         0         0         0         0         0
         0         0         0         0         0         0         0         0
         0         0         0         0         0         0         0         0
         0         0         0         0         0         0         0         0
         0         0         0         0         0         0         0         0
         0         0         0         0         0         0         0         0
         0         0         0         0         0         0         0         0
         0         0         0         0         0         0         0         0
         0         0         0         0         0         0         0         0
         0         0         0         0         0         0         0         0
         0         0         0         0         0         0         0         0
         0         0         0         0         0         0         0         0
         0         0         0         0         0         0         0         0
         0         0         0         0         0         0         0         0
         0         0         0         0         0         0         0         0
         0         0         0         0         0         0         0         0
         0         0         0         0         0         0         0         0
         0         0         0         0         0         0         0         0
         0         0         0         0         0         0         0         0
         0         0         0         0         0         0         0         0
         0         0         0         0         0         0         0         0
         0         0         0         0         0         0         0         0
         0         0         0         0         0         0         0         0
         0         0         0         0         0         0         0         0
         0         0         0         0         0         0         0         0
         0         0         0         0         0         0         0         0
         0         0         0         0         0         0         0         0
         0         0         0         0         0         0         0         0
         0         0         0         0         0         0         0         0
         0         0         0         0         0         0         0         0
         0         0         0         0         0         0         0         0
         0         0         0         0         0         0         0         0
         0         0         0         0         0         0         0         0
         0         0         0         0         0         0         0         0
         0         0         0         0         0         0         0         0
         0         0         0         0         0         0         0         0
         0         0         0         0         0         0         0         0
         0         0         0         0         0         0         0         0
         0         0         0         0         0         0         0         0
         0         0         0         0         0         0         0         0
         0         0         0         0         0         0         0         0
         0         0         0         0         0         0         0         0
         0         0         0         0         0         0         0         0
         0         0         0         0         0         0         0         0
         0         0         0         0         0         0         0         0
         0         0         0         0         0         0         0         0
         0         0         0         0         0         0         0         0
         0         0         0         0         0         0         0         0
         0         0         0         0         0         0         0         0
         0         0         0         0         0         0         0         0
         0         0         0         0         0         0         0         0
         0         0         0         0         0         0         0         0
         0         0         0         0         0         0         0         0
         0         0         0         0         0         0         0         0
         0         0         0         0         0         0         0         0
         0         0         0         0         0         0         0         0
         0         0         0         0         0         0         0         0
         0         0         0         0         0         0         0         0
         0         0         0         0         0         0         0         0
         0         0         0         0         0         0         0         0
         0         0         0         0         0         0         0         0
         0         0         0         0         0         0         0         0
         0         0         0         0         0         0         0         0
         0         0         0         0         0         0         0         0
         0         0         0         0         0         0         0         0
         0         0         0         0         0         0         0         0
         0         0         0         0         0         0         0         0
         0         0         0         0         0         0         0         0
         0         0         0         0         0         0         0         0
         0         0         0         0         0         0         0         0
         0         0         0         0         0         0         0         0
         0         0         0         0         0         0         0         0
         0         0         0         0         0         0         0         0
         0         0         0         0         0         0         0         0
         0         0         0         0         0         0         0         0
         0         0         0         0         0         0         0         0
         0         0         0         0         0         0         0         0
         0         0         0         0         0         0         0         0
         0         0         0         0         0         0         0         0
         0         0         0         0         0         0         0         0
         0         0         0         0         0         0         0         0
         0         0         0         0         0         0         0         0
         0         0         0         0         0         0         0         0
         0         0         0         0         0         0         0         0
         0         0         0         0         0         0         0         0
         0         0         0         0         0         0         0         0
         0         0         0         0         0         0         0         0
         0         0         0         0         0         0         0         0
         0         0         0         0         0         0         0         0
         0         0         0         0         0         0         0         0
         0         0         0         0         0         0         0         0
         0         0         0         0         0         0         0         0
         0         0         0         0         0         0         0         0
         0         0         0         0         0         0         0         0
         0         0         0         0         0         0         0         0
         0         0         0         0         0         0         0         0
         0         0         0         0         0         0         0         0
         0         0         0         0         0         0         0         0
         0         0         0         0         0         0         0         0
         0         0         0         0         0         0         0         0
         0         0         0         0         0         0         0         0
         0         0         0         0         0         0         0         0
         0         0         0         0         0         0         0         0
         0         0         0         0         0         0         0         0
         0         0         0         0         0         0         0         0
         0         0         0         0         0         0         0         0
         0         0         0         0         0         0         0         0
         0         0         0         0         0         0         0         0
         0         0         0         0         0         0         0         0
         0         0         0         0         0         0         0         0
         0         0         0         0         0         0         0         0
         0         0         0         0         0         0         0         0
         0         0         0         0         0         0         0         0
         0         0         0         0         0         0         0         0
         0         0         0         0         0         0         0         0
         0         0         0         0         0         0         0         0
         0         0         0         0         0         0         0         0
         0         0         0         0         0         0         0         0
         0         0         0         0         0         0         0         0
         0         0         0         0         0         0         0         0
         0         0         0         0         0         0         0         0
         0         0         0         0         0         0         0         0
         0         0         0         0         0         0         0         0
         0         0         0         0         0         0         0         0
         0         0         0         0         0         0         0         0
         0         0         0         0         0         0         0         0
         0         0         0         0         0         0         0         0
         0         0         0         0         0         0         0         0
         0         0         0         0         0         0         0         0
         0         0         0         0         0         0         0         0
         0         0         0         0         0         0         0         0
         0         0         0         0         0         0         0         0
         0         0         0         0         0         0         0         0
         0         0         0         0         0         0         0         0
         0         0         0         0         0         0         0         0
         0         0         0         0         0         0         0         0
         0         0         0         0         0         0         0         0
         0         0         0         0         0         0         0         0
         0         0         0         0         0         0         0         0
         0         0         0         0         0         0         0         0
         0         0         0         0         0         0         0         0
         0         0         0         0         0         0         0         0
         0         0         0         0         0         0         0         0
         0         0         0         0         0         0         0         0
         0         0         0         0         0         0         0         0
         0         0         0         0         0         0         0         0
         0         0         0         0         0         0         0         0
         0         0         0         0         0         0         0         0
         0         0         0         0         0         0         0         0
         0         0         0         0         0         0         0         0
         0         0         0         0         0         0         0         0
         0         0         0         0         0         0         0         0
         0         0         0         0         0         0         0         0
         0         0         0         0         0         0         0         0
         0         0         0         0         0         0         0         0
         0         0         0         0         0         0         0         0
         0         0         0         0         0         0         0         0
         0         0         0         0         0         0         0         0
         0         0         0         0         0         0         0         0
         0         0         0         0         0         0         0         0
         0         0         0         0         0         0         0         0
         0         0         0         0         0         0         0         0
         0         0         0         0         0         0         0         0
         0         0         0         0         0         0         0         0
         0         0         0         0         0         0         0         0
         0         0         0         0         0         0         0         0
         0         0         0         0         0         0         0         0
         0         0         0         0         0         0         0         0
         0         0         0         0         0         0         0         0
         0         0         0         0         0         0         0         0
         0         0         0         0         0         0         0         0
         0         0         0         0         0         0         0         0
         0         0         0         0         0         0         0         0
         0         0         0         0         0         0         0         0
         0         0         0         0         0         0         0         0
         0         0         0         0         0         0         0         0
         0         0         0         0         0         0         0         0
         0         0         0         0         0         0         0         0
         0         0         0         0         0         0         0         0
         0         0         0         0         0         0         0         0
         0         0         0         0         0         0         0         0
         0         0         0         0         0         0         0         0
         0         0         0         0         0         0         0         0
         0         0         0         0         0         0         0         0
         0         0         0         0         0         0         0         0
         0         0         0         0         0         0         0         0
         0         0         0         0         0         0         0         0
         0         0         0         0         0         0         0         0
         0         0         0         0         0         0         0         0
         0         0         0         0         0         0         0         0
         0         0         0         0         0         0         0         0
         0         0         0         0         0         0         0         0
         0         0         0         0         0         0         0         0
         0         0         0         0         0         0         0         0
         0         0         0         0         0         0         0         0
         0         0         0         0         0         0         0         0
         0         0         0         0         0         0         0         0
         0         0         0         0         0         0         0         0
         0         0         0         0         0         0         0         0
         0         0         0         0         0         0         0         0
         0         0         0         0         0         0         0         0
         0         0         0         0         0         0         0         0
         0         0         0         0         0         0         0         0
         0         0         0         0         0         0         0         0
         0         0         0         0         0         0         0         0
         0         0         0         0         0         0         0         0
         0         0         0         0         0         0         0         0
         0         0         0         0         0         0         0         0
         0         0         0         0         0         0         0         0
         0         0         0         0         0         0         0         0
         0         0         0         0         0         0         0         0
         0         0         0         0         0         0         0         0
         0         0         0         0         0         0         0         0
         0         0         0         0         0         0         0         0
         0         0         0         0         0         0         0         0
         0         0         0         0         0         0         0         0
         0         0         0         0         0         0         0         0
         0         0         0         0         0         0         0         0
         0         0         0         0         0         0         0         0
         0         0         0         0         0         0         0         0
         0         0         0         0         0         0         0         0
         0         0         0         0         0         0         0         0
         0         0         0         0         0         0         0         0
         0         0         0         0         0         0         0         0
         0         0         0         0         0         0         0         0
         0         0         0         0         0         0         0         0
         0         0         0         0         0         0         0         0
         0         0         0         0         0         0         0         0
         0         0         0         0         0         0         0         0
         0         0         0         0         0         0         0         0
         0         0         0         0         0         0         0         0
         0         0         0         0         0         0         0         0
         0         0         0         0         0         0         0         0
         0         0         0         0         0         0         0         0
         0         0         0         0         0         0         0         0
         0         0         0         0         0         0         0         0
         0         0         0         0         0         0         0         0
         0         0         0         0         0         0         0         0
         0         0         0         0         0         0         0         0
         0         0         0         0         0         0         0         0
         0         0         0         0         0         0         0         0
         0         0         0         0         0         0         0         0
         0         0         0         0         0         0         0         0
         0         0         0         0         0         0         0         0
         0         0         0         0         0         0         0         0
         0         0         0         0         0         0         0         0
         0         0         0         0         0         0         0         0
         0         0         0         0         0         0         0         0
         0         0         0         0         0         0         0         0
         0         0         0         0         0         0         0         0
         0         0         0         0         0         0         0         0
         0         0         0         0         0         0         0         0
         0         0         0         0         0         0         0         0
         0         0         0         0         0         0         0         0
         0         0         0         0         0         0         0         0
         0         0         0         0         0         0         0         0
         0         0         0         0         0         0         0         0
         0         0         0         0         0         0         0         0
         0         0         0         0         0         0         0         0
         0         0         0         0         0         0         0         0
         0         0         0         0         0         0         0         0
         0         0         0         0         0         0         0         0
         0         0         0         0         0         0         0         0
         0         0         0         0         0         0         0         0
         0         0         0         0         0         0         0         0
         0         0         0         0         0         0         0         0
         0         0         0         0         0         0         0         0
         0         0         0         0         0         0         0         0
         0         0         0         0         0         0         0         0
         0         0         0         0         0         0         0         0
         0         0         0         0         0         0         0         0
         0         0         0         0         0         0         0         0
         0         0         0         0         0         0         0         0
         0         0         0         0         0         0         0         0
         0         0         0         0         0         0         0         0
         0         0         0         0         0         0         0         0
         0         0         0         0         0         0         0         0
         0         0         0         0         0         0         0         0
         0         0         0         0         0         0         0         0
         0         0         0         0         0         0         0         0
         0         0         0         0         0         0         0         0
         0         0         0         0         0         0         0         0
         0         0         0         0         0         0         0         0
         0         0         0         0         0         0         0         0
         0         0         0         0         0         0         0         0
         0         0         0         0         0         0         0         0
         0         0         0         0         0         0         0         0
         0         0         0         0         0         0         0         0
         0         0         0         0         0         0         0         0
         0         0         0         0         0         0         0         0
         0         0         0         0         0         0         0         0
         0         0         0         0         0         0         0         0
         0         0         0         0         0         0         0         0
         0         0         0         0         0         0         0         0
         0         0         0         0         0         0         0         0
         0         0         0         0         0         0         0         0
         0         0         0         0         0         0         0         0
         0         0         0         0         0         0         0         0
         0         0         0         0         0         0         0         0
         0         0         0         0         0         0         0         0
         0         0         0         0         0         0         0         0
         0         0         0         0         0         0         0         0
         0         0         0         0         0         0         0         0
         0         0         0         0         0         0         0         0
         0         0         0         0         0         0         0         0
         0         0         0         0         0         0         0         0
         0         0         0         0         0         0         0         0
         0         0         0         0         0         0         0         0
         0         0         0         0         0         0         0         0
         0         0         0         0         0         0         0         0
         0         0         0         0         0         0         0         0
         0         0         0         0         0         0         0         0
         0         0         0         0         0         0         0         0
         0         0         0         0         0         0         0         0
         0         0         0         0         0         0         0         0
         0         0         0         0         0         0         0         0
         0         0         0         0         0         0         0         0
         0         0         0         0         0         0         0         0
         0         0         0         0         0         0         0         0
         0         0         0         0         0         0         0         0
         0         0         0         0         0         0         0         0
         0         0         0         0         0         0         0         0
         0         0         0         0         0         0         0         0
         0         0         0         0         0         0         0         0
         0         0         0         0         0         0         0         0
         0         0         0         0         0         0         0         0
         0         0         0         0         0         0         0         0
         0         0         0         0         0         0         0         0
         0         0         0         0         0         0         0         0
         0         0         0         0         0         0         0         0
         0         0         0         0         0         0         0         0
         0         0         0         0         0         0         0         0
         0         0         0         0         0         0         0         0
         0         0         0         0         0         0         0         0
         0         0         0         0         0         0         0         0
         0         0         0         0         0         0         0         0
         0         0         0         0         0         0         0         0
         0         0         0         0         0         0         0         0
         0         0         0         0         0         0         0         0
         0         0         0         0         0         0         0         0
         0         0         0         0         0         0         0         0
         0         0         0         0         0         0         0         0
         0         0         0         0         0         0         0         0
         0         0         0         0         0         0         0         0
         0         0         0         0         0         0         0         0
         0         0         0         0         0         0         0         0
         0         0         0         0         0         0         0         0
         0         0         0         0         0         0         0         0
         0         0         0         0         0         0         0         0
         0         0         0         0         0         0         0         0
         0         0         0         0         0         0         0         0
         0         0         0         0         0         0         0         0
         0         0         0         0         0         0         0         0
         0         0         0         0         0         0         0         0
         0         0         0         0         0         0         0         0
         0         0         0         0         0         0         0         0
         0         0         0         0         0         0         0         0
         0         0         0         0         0         0         0         0
         0         0         0         0         0         0         0         0
         0         0         0         0         0         0         0         0
         0         0         0         0         0         0         0         0
         0         0         0         0         0         0         0         0
         0         0         0         0         0         0         0         0
         0         0         0         0         0         0         0         0
         0         0         0         0         0         0         0         0
         0         0         0         0         0         0         0         0
         0         0         0         0         0         0         0         0
         0         0         0         0         0         0         0         0
         0         0         0         0         0         0         0         0
         0         0         0         0         0         0         0         0
         0         0         0         0         0         0         0         0
         0         0         0         0         0         0         0         0
         0         0         0         0         0         0         0         0
         0         0         0         0         0         0         0         0
         0         0         0         0         0         0         0         0
         0         0         0         0         0         0         0         0
         0         0         0         0         0         0         0         0
         0         0         0         0         0         0         0         0
         0         0         0         0         0         0         0         0
         0         0         0         0         0         0         0         0
         0         0         0         0         0         0         0         0
         0         0         0         0         0         0         0         0
         0         0         0         0         0         0         0         0
         0         0         0         0         0         0         0         0
         0         0         0         0         0         0         0         0
         0         0         0         0         0         0         0         0
         0         0         0         0         0         0         0         0
         0         0         0         0         0         0         0         0
         0         0         0         0         0         0         0         0
         0         0         0         0         0         0         0         0
         0         0         0         0         0         0         0         0
         0         0         0         0         0         0         0         0
         0         0         0         0         0         0         0         0
         0         0         0         0         0         0         0         0
         0         0         0         0         0         0         0         0
         0         0         0         0         0         0         0         0
         0         0         0         0         0         0         0         0
         0         0         0         0         0         0         0         0
         0         0         0         0         0         0         0         0
         0         0         0         0         0         0         0         0
         0         0         0         0         0         0         0         0
         0         0         0         0         0         0         0         0
         0         0         0         0         0         0         0         0
         0         0         0         0         0         0         0         0
         0         0         0         0         0         0         0         0
         0         0         0         0         0         0         0         0
         0         0         0         0         0         0         0         0
         0         0         0         0         0         0         0         0
         0         0         0         0         0         0         0         0
         0         0         0         0         0         0         0         0
         0         0         0         0         0         0         0         0
         0         0         0         0         0         0         0         0
         0         0         0         0         0         0         0         0
         0         0         0         0         0         0         0         0
         0         0         0         0         0         0         0         0
         0         0         0         0         0         0         0         0
         0         0         0         0         0         0         0         0
         0         0         0         0         0         0         0         0
         0         0         0         0         0         0         0         0
         0         0         0         0         0         0         0         0
         0         0         0         0         0         0         0         0
         0         0         0         0         0         0         0         0
         0         0         0         0         0         0         0         0
         0         0         0         0         0         0         0         0
         0         0         0         0         0         0         0         0
         0         0         0         0         0         0         0         0
         0         0         0         0         0         0         0         0
         0         0         0         0         0         0         0         0
         0         0         0         0         0         0         0         0
         0         0         0         0         0         0         0         0
         0         0         0         0         0         0         0         0
         0         0         0         0         0         0         0         0
         0         0         0         0         0         0         0         0
         0         0         0         0         0         0         0         0
         0         0         0         0         0         0         0         0
         0         0         0         0         0         0         0         0
         0         0         0         0         0         0         0         0
         0         0         0         0         0         0         0         0
         0         0         0         0         0         0         0         0
         0         0         0         0         0         0         0         0
         0         0         0         0         0         0         0         0
         0         0         0         0         0         0         0         0
         0         0         0         0         0         0         0         0
         0         0         0         0         0         0         0         0
         0         0         0         0         0         0         0         0
         0         0         0         0         0         0         0         0
         0         0         0         0         0         0         0         0
         0         0         0         0         0         0         0         0
         0         0         0         0         0         0         0         0
         0         0         0         0         0         0         0         0
         0         0         0         0         0         0         0         0
         0         0         0         0         0         0         0         0
         0         0         0         0         0         0         0         0
         0         0         0         0         0         0         0         0
         0         0         0         0         0         0         0         0
         0         0         0         0         0         0         0         0
         0         0         0         0         0         0         0         0
         0         0         0         0         0         0         0         0
         0         0         0         0         0         0         0         0
         0         0         0         0         0         0         0         0
         0         0         0         0         0         0         0         0
         0         0         0         0         0         0         0         0
         0         0         0         0         0         0         0         0
         0         0         0         0         0         0         0         0
         0         0         0         0         0         0         0         0
         0         0         0         0         0         0         0         0
         0         0         0         0         0         0         0         0
         0         0         0         0         0         0         0         0
         0         0         0         0         0         0         0         0
         0         0         0         0         0         0         0         0
         0         0         0         0         0         0         0         0
         0         0         0         0         0         0         0         0
         0         0         0         0         0         0         0         0
         0         0         0         0         0         0         0         0
         0         0         0         0         0         0         0         0
         0         0         0         0         0         0         0         0
         0         0         0         0         0         0         0         0
         0         0         0         0         0         0         0         0
         0         0         0         0         0         0         0         0
         0         0         0         0         0         0         0         0
         0         0         0         0         0         0         0         0
         0         0         0         0         0         0         0         0
         0         0         0         0         0         0         0         0
         0         0         0         0         0         0         0         0
         0         0         0         0         0         0         0         0
         0         0         0         0         0         0         0         0
         0         0         0         0         0         0         0         0
         0         0         0         0         0         0         0         0
         0         0         0         0         0         0         0         0
         0         0         0         0         0         0         0         0
         0         0         0         0         0         0         0         0
         0         0         0         0         0         0         0         0
         0         0         0         0         0         0         0         0
         0         0         0         0         0         0         0         0
         0         0         0         0         0         0         0         0
         0         0         0         0         0         0         0         0
         0         0         0         0         0         0         0         0
         0         0         0         0         0         0         0         0
         0         0         0         0         0         0         0         0
         0         0         0         0         0         0         0         0
         0         0         0         0         0         0         0         0
         0         0         0         0         0         0         0         0
         0         0         0         0         0         0         0         0
         0         0         0         0         0         0         0         0
         0         0         0         0         0         0         0         0
         0         0         0         0         0         0         0         0
         0         0         0         0         0         0         0         0
         0         0         0         0         0         0         0         0
         0         0         0         0         0         0         0         0
         0         0         0         0         0         0         0         0
         0         0         0         0         0         0         0         0
         0         0         0         0         0         0         0         0
         0         0         0         0         0         0         0         0
         0         0         0         0         0         0         0         0
         0         0         0         0         0         0         0         0
         0         0         0         0         0         0         0         0
         0         0         0         0         0         0         0         0
         0         0         0         0         0         0         0         0
         0         0         0         0         0         0         0         0
         0         0         0         0         0         0         0         0
         0         0         0         0         0         0         0         0
         0         0         0         0         0         0         0         0
         0         0         0         0         0         0         0         0
         0         0         0         0         0         0         0         0
         0         0         0         0         0         0         0         0
         0         0         0         0         0         0         0         0
         0         0         0         0         0         0         0         0
         0         0         0         0         0         0         0         0
         0         0         0         0         0         0         0         0
         0         0         0         0         0         0         0         0
         0         0         0         0         0         0         0         0
         0         0         0         0         0         0         0         0
         0         0         0         0         0         0         0         0
         0         0         0         0         0         0         0         0
         0         0         0         0         0         0         0         0
         0         0         0         0         0         0         0         0
         0         0         0         0         0         0         0         0
         0         0         0         0         0         0         0         0
         0         0         0         0         0         0         0         0
         0         0         0         0         0         0         0         0
         0         0         0         0         0         0         0         0
         0         0         0         0         0         0         0         0
         0         0         0         0         0         0         0         0
         0         0         0         0         0         0         0         0
         0         0         0         0         0         0         0         0
         0         0         0         0         0         0         0         0
         0         0         0         0         0         0         0         0
         0         0         0         0         0         0         0         0
         0         0         0         0         0         0         0         0
         0         0         0         0         0         0         0         0
         0         0         0         0         0         0         0         0
         0         0         0         0         0         0         0         0
         0         0         0         0         0         0         0         0
         0         0         0         0         0         0         0         0
         0         0         0         0         0         0         0         0
         0         0         0         0         0         0         0         0
         0         0         0         0         0         0         0         0
         0         0         0         0         0         0         0         0
         0         0         0         0         0         0         0         0
         0         0         0         0         0         0         0         0
         0         0         0         0         0         0         0         0
         0         0         0         0         0         0         0         0
         0         0         0         0         0         0         0         0
         0         0         0         0         0         0         0         0
         0         0         0         0         0         0         0         0
         0         0         0         0         0         0         0         0
         0         0         0         0         0         0         0         0
         0         0         0         0         0         0         0         0
         0         0         0         0         0         0         0         0
         0         0         0         0         0         0         0         0
         0         0         0         0         0         0         0         0
         0         0         0         0         0         0         0         0
         0         0         0         0         0         0         0         0
         0         0         0         0         0         0         0         0
         0         0         0         0         0         0         0         0
         0         0         0         0         0         0         0         0
         0         0         0         0         0         0         0         0
         0         0         0         0         0         0         0         0
         0         0         0         0         0         0         0         0
         0         0         0         0         0         0         0         0
         0         0         0         0         0         0         0         0
         0         0         0         0         0         0         0         0
         0         0         0         0         0         0         0         0
         0         0         0         0         0         0         0         0
         0         0         0         0         0         0         0         0
         0         0         0         0         0         0         0         0
         0         0         0         0         0         0         0         0
         0         0         0         0         0         0         0         0
         0         0         0         0         0         0         0         0
         0         0         0         0         0         0         0         0
         0         0         0         0         0         0         0         0
         0         0         0         0         0         0         0         0
         0         0         0         0         0         0         0         0
         0         0         0         0         0         0         0         0
         0         0         0         0         0         0         0         0
         0         0         0         0         0         0         0         0
         0         0         0         0         0         0         0         0
         0         0         0         0         0         0         0         0
         0         0         0         0         0         0         0         0
         0         0         0         0         0         0         0         0
         0         0         0         0         0         0         0         0
         0         0         0         0         0         0         0         0
         0         0         0         0         0         0         0         0
         0         0         0         0         0         0         0         0
         0         0         0         0         0         0         0         0
         0         0         0         0         0         0         0         0
         0         0         0         0         0         0         0         0
         0         0         0         0         0         0         0         0
         0         0         0         0         0         0         0         0
         0         0         0         0         0         0         0         0
         0         0         0         0         0         0         0         0
         0         0         0         0         0         0         0         0
         0         0         0         0         0         0         0         0
         0         0         0         0         0         0         0         0
         0         0         0         0         0         0         0         0
         0         0         0         0         0         0         0         0
         0         0         0         0         0         0         0         0
         0         0         0         0         0         0         0         0
         0         0         0         0         0         0         0         0
         0         0         0         0         0         0         0         0
         0         0         0         0         0         0         0         0
         0         0         0         0         0         0         0         0
         0         0         0         0         0         0         0         0
         0         0         0         0         0         0         0         0
         0         0         0         0         0         0         0         0
         0         0         0         0         0         0         0         0
         0         0         0         0         0         0         0         0
         0         0         0         0         0         0         0         0
         0         0         0         0         0         0         0         0
         0         0         0         0         0         0         0         0
         0         0         0         0         0         0         0         0
         0         0         0         0         0         0         0         0
         0         0         0         0         0         0         0         0
         0         0         0         0         0         0         0         0
         0         0         0         0         0         0         0         0
         0         0         0         0         0         0         0         0
         0         0         0         0         0         0         0         0
         0         0         0         0         0         0         0         0
         0         0         0         0         0         0         0         0
         0         0         0         0         0         0         0         0
         0         0         0         0         0         0         0         0
         0         0         0         0         0         0         0         0
         0         0         0         0         0         0         0         0
         0         0         0         0         0         0         0         0
         0         0         0         0         0         0         0         0
         0         0         0         0         0         0         0         0
         0         0         0         0         0         0         0         0
         0         0         0         0         0         0         0         0
         0         0         0         0         0         0         0         0
         0         0         0         0         0         0         0         0
         0         0         0         0         0         0         0         0
         0         0         0         0         0         0         0         0
         0         0         0         0         0         0         0         0
         0         0         0         0         0         0         0         0
         0         0         0         0         0         0         0         0
         0         0         0         0         0         0         0         0
         0         0         0         0         0         0         0         0
         0         0         0         0         0         0         0         0
         0         0         0         0         0         0         0         0
         0         0         0         0         0         0         0         0
         0         0         0         0         0         0         0         0
         0         0         0         0         0         0         0         0
         0         0         0         0         0         0         0         0
         0         0         0         0         0         0         0         0
         0         0         0         0         0         0         0         0
         0         0         0         0         0         0         0         0
         0         0         0         0         0         0         0         0
         0         0         0         0         0         0         0         0
         0         0         0         0         0         0         0         0
         0         0         0         0         0         0         0         0
         0         0         0         0         0         0         0         0
         0         0         0         0         0         0         0         0
         0         0         0         0         0         0         0         0
         0         0         0         0         0         0         0         0
         0         0         0         0         0         0         0         0
         0         0         0         0         0         0         0         0
         0         0         0         0         0         0         0         0
         0         0         0         0         0         0         0         0
         0         0         0         0         0         0         0         0
         0         0         0         0         0         0         0         0
         0         0         0         0         0         0         0         0
         0         0         0         0         0         0         0         0
         0         0         0         0         0         0         0         0
         0         0         0         0         0         0         0         0
         0         0         0         0         0         0         0         0
         0         0         0         0         0         0         0         0
         0         0         0         0         0         0         0         0
         0         0         0         0         0         0         0         0
         0         0         0         0         0         0         0         0
         0         0         0         0         0         0         0         0
         0         0         0         0         0         0         0         0
         0         0         0         0         0         0         0         0
         0         0         0         0         0         0         0         0
         0         0         0         0         0         0         0         0
         0         0         0         0         0         0         0         0
         0         0         0         0         0         0         0         0
         0         0         0         0         0         0         0         0
         0         0         0         0         0         0         0         0
         0         0         0         0         0         0         0         0
         0         0         0         0         0         0         0         0
         0         0         0         0         0         0         0         0
         0         0         0         0         0         0         0         0
         0         0         0         0         0         0         0         0
         0         0         0         0         0         0         0         0
         0         0         0         0         0         0         0         0
         0         0         0         0         0         0         0         0
         0         0         0         0         0         0         0         0
         0         0         0         0         0         0         0         0
         0         0         0         0         0         0         0         0
         0         0         0         0         0         0         0         0
         0         0         0         0         0         0         0         0
         0         0         0         0         0         0         0         0
         0         0         0         0         0         0         0         0
         0         0         0         0         0         0         0         0
         0         0         0         0         0         0         0         0
         0         0         0         0         0         0         0         0
         0         0         0         0         0         0         0         0
         0         0         0         0         0         0         0         0
         0         0         0         0         0         0         0         0
         0         0         0         0         0         0         0         0
         0         0         0         0         0         0         0         0
         0         0         0         0         0         0         0         0
         0         0         0         0         0         0         0         0
         0         0         0         0         0         0         0         0
         0         0         0         0         0         0         0         0
         0         0         0         0         0         0         0         0
         0         0         0         0         0         0         0         0
         0         0         0         0         0         0         0         0
         0         0         0         0         0         0         0         0
         0         0         0         0         0         0         0         0
         0         0         0         0         0         0         0         0
         0         0         0         0         0         0         0         0
         0         0         0         0         0         0         0         0
         0         0         0         0         0         0         0         0
         0         0         0         0         0         0         0         0
         0         0         0         0         0         0         0         0
         0         0         0         0         0         0         0         0
         0         0         0         0         0         0         0         0
         0         0         0         0         0         0         0         0
         0         0         0         0         0         0         0         0
         0         0         0         0         0         0         0         0
         0         0         0         0         0         0         0         0
         0         0         0         0         0         0         0         0
         0         0         0         0         0         0         0         0
         0         0         0         0         0         0         0         0
         0         0         0         0         0         0         0         0
         0         0         0         0         0         0         0         0
         0         0         0         0         0         0         0         0
         0         0         0         0         0         0         0         0
         0         0         0         0         0         0         0         0
         0         0         0         0         0         0         0         0
         0         0         0         0         0         0         0         0
         0         0         0         0         0         0         0         0
         0         0         0         0         0         0         0         0
         0         0         0         0         0         0         0         0
         0         0         0         0         0         0         0         0
         0         0         0         0         0         0         0         0
         0         0         0         0         0         0         0         0
         0         0         0         0         0         0         0         0
         0         0         0         0         0         0         0         0
         0         0         0         0         0         0         0         0
         0         0         0         0         0         0         0         0
         0         0         0         0         0         0         0         0
         0         0         0         0         0         0         0         0
         0         0         0         0         0         0         0         0
         0         0         0         0         0         0         0         0
         0         0         0         0         0         0         0         0
         0         0         0         0         0         0         0         0
         0         0         0         0         0         0         0         0
         0         0         0         0         0         0         0         0
         0         0         0         0         0         0         0         0
         0         0         0         0         0         0         0         0
         0         0         0         0         0         0         0         0
         0         0         0         0         0         0         0         0
         0         0         0         0         0         0         0         0
         0         0         0         0         0         0         0         0
         0         0         0         0         0         0         0         0
         0         0         0         0         0         0         0         0
         0         0         0         0         0         0         0         0
         0         0         0         0         0         0         0         0
         0         0         0         0         0         0         0         0
         0         0         0         0         0         0         0         0
         0         0         0         0         0         0         0         0
         0         0         0         0         0         0         0         0
         0         0         0         0         0         0         0         0
         0         0         0         0         0         0         0         0
         0         0         0         0         0         0         0         0
         0         0         0         0         0         0         0         0
         0         0         0         0         0         0         0         0
         0         0         0         0         0         0         0         0
         0         0         0         0         0         0         0         0
         0         0         0         0         0         0         0         0
         0         0         0         0         0         0         0         0
         0         0         0         0         0         0         0         0
         0         0         0         0         0         0         0         0
         0         0         0         0         0         0         0         0
         0         0         0         0         0         0         0         0
         0         0         0         0         0         0         0         0
         0         0         0         0         0         0         0         0
         0         0         0         0         0         0         0         0
         0         0         0         0         0         0         0         0
         0         0         0         0         0         0         0         0
         0         0         0         0         0         0         0         0
         0         0         0         0         0         0         0         0
         0         0         0         0         0         0         0         0
         0         0         0         0         0         0         0         0
         0         0         0         0         0         0         0         0
         0         0         0         0         0         0         0         0
         0         0         0         0         0         0         0         0
         0         0         0         0         0         0         0         0
         0         0         0         0         0         0         0         0
         0         0         0         0         0         0         0         0
         0         0         0         0         0         0         0         0
         0         0         0         0         0         0         0         0
         0         0         0         0         0         0         0         0
         0         0         0         0         0         0         0         0
         0         0         0         0         0         0         0         0
         0         0         0         0         0         0         0         0
         0         0         0         0         0         0         0         0
         0         0         0         0         0         0         0         0
         0         0         0         0         0         0         0         0
         0         0         0         0         0         0         0         0
         0         0         0         0         0         0         0         0
         0         0         0         0         0         0         0         0
         0         0         0         0         0         0         0         0
         0         0         0         0         0         0         0         0
         0         0         0         0         0         0         0         0
         0         0         0         0         0         0         0         0
         0         0         0         0         0         0         0         0
         0         0         0         0         0         0         0         0
         0         0         0         0         0         0         0         0
         0         0         0         0         0         0         0         0
         0         0         0         0         0         0         0         0
         0         0         0         0         0         0         0         0
         0         0         0         0         0         0         0         0
         0         0         0         0         0         0         0         0
         0         0         0         0         0         0         0         0
         0         0         0         0         0         0         0         0
         0         0         0         0         0         0         0         0
         0         0         0         0         0         0         0         0
         0         0         0         0         0         0         0         0
         0         0         0         0         0         0         0         0
         0         0         0         0         0         0         0         0
         0         0         0         0         0         0         0         0
         0         0         0         0         0         0         0         0
         0         0         0         0         0         0         0         0
         0         0         0         0         0         0         0         0
         0         0         0         0         0         0         0         0
         0         0         0         0         0         0         0         0
         0         0         0         0         0         0         0         0
         0         0         0         0         0         0         0         0
         0         0         0         0         0         0         0         0
         0         0         0         0         0         0         0         0
         0         0         0         0         0         0         0         0
         0         0         0         0         0         0         0         0
         0         0         0         0         0         0         0         0
         0         0         0         0         0         0         0         0
         0         0         0         0         0         0         0         0
         0         0         0         0         0         0         0         0
         0         0         0         0         0         0         0         0
         0         0         0         0         0         0         0         0
         0         0         0         0         0         0         0         0
         0         0         0         0         0         0         0         0
         0         0         0         0         0         0         0         0
         0         0         0         0         0         0         0         0
         0         0         0         0         0         0         0         0
         0         0         0         0         0         0         0         0
         0         0         0         0         0         0         0         0
         0         0         0         0         0         0         0         0
         0         0         0         0         0         0         0         0
         0         0         0         0         0         0         0         0
         0         0         0         0         0         0         0         0
         0         0         0         0         0         0         0         0
         0         0         0         0         0         0         0         0
         0         0         0         0         0         0         0         0
         0         0         0         0         0         0         0         0
         0         0         0         0         0         0         0         0
         0         0         0         0         0         0         0         0
         0         0         0         0         0         0         0         0
         0         0         0         0         0         0         0         0
         0         0         0         0         0         0         0         0
         0         0         0         0         0         0         0         0
         0         0         0         0         0         0         0         0
         0         0         0         0         0         0         0         0
         0         0         0         0         0         0         0         0
         0         0         0         0         0         0         0         0
         0         0         0         0         0         0         0         0
         0         0         0         0         0         0         0         0
         0         0         0         0         0         0         0         0
         0         0         0         0         0         0         0         0
         0         0         0         0         0         0         0         0
         0         0         0         0         0         0         0         0
         0         0         0         0         0         0         0         0
         0         0         0         0         0         0         0         0
         0         0         0         0         0         0         0         0
         0         0         0         0         0         0         0         0
         0         0         0         0         0         0         0         0
         0         0         0         0         0         0         0         0
         0         0         0         0         0         0         0         0
         0         0         0         0         0         0         0         0
         0         0         0         0         0         0         0         0
         0         0         0         0         0         0         0         0
         0         0         0         0         0         0         0         0
         0         0         0         0         0         0         0         0
         0         0         0         0         0         0         0         0
         0         0         0         0         0         0         0         0
         0         0         0         0         0         0         0         0
         0         0         0         0         0         0         0         0
         0         0         0         0         0         0         0         0
         0         0         0         0         0         0         0         0
         0         0         0         0         0         0         0         0
         0         0         0         0         0         0         0         0
         0         0         0         0         0         0         0         0
         0         0         0         0         0         0         0         0
         0         0         0         0         0         0         0         0
         0         0         0         0         0         0         0         0
         0         0         0         0         0         0         0         0
         0         0         0         0         0         0         0         0
         0         0         0         0         0         0         0         0
         0         0         0         0         0         0         0         0
         0         0         0         0         0         0         0         0
         0         0         0         0         0         0         0         0
         0         0         0         0         0         0         0         0
         0         0         0         0         0         0         0         0
         0         0         0         0         0         0         0         0
         0         0         0         0         0         0         0         0
         0         0         0         0         0         0         0         0
         0         0         0         0         0         0         0         0
         0         0         0         0         0         0         0         0
         0         0         0         0         0         0         0         0
         0         0         0         0         0         0         0         0
         0         0         0         0         0         0         0         0
         0         0         0         0         0         0         0         0
         0         0         0         0         0         0         0         0
         0         0         0         0         0         0         0         0
         0         0         0         0         0         0         0         0
         0         0         0         0         0         0         0         0
         0         0         0         0         0         0         0         0
         0         0         0         0         0         0         0         0
         0         0         0         0         0         0         0         0
         0         0         0         0         0         0         0         0
         0         0         0         0         0         0         0         0
         0         0         0         0         0         0         0         0
         0         0         0         0         0         0         0         0
         0         0         0         0         0         0         0         0
         0         0         0         0         0         0         0         0
         0         0         0         0         0         0         0         0
         0         0         0         0         0         0         0         0
         0         0         0         0         0         0         0         0
         0         0         0         0         0         0         0         0
         0         0         0         0         0         0         0         0
         0         0         0         0         0         0         0         0
         0         0         0         0         0         0         0         0
         0         0         0         0         0         0         0         0
         0         0         0         0         0         0         0         0
         0         0         0         0         0         0         0         0
         0         0         0         0         0         0         0         0
         0         0         0         0         0         0         0         0
         0         0         0         0         0         0         0         0
         0         0         0         0         0         0         0         0
         0         0         0         0         0         0         0         0
         0         0         0         0         0         0         0         0
         0         0         0         0         0         0         0         0
         0         0         0         0         0         0         0         0
         0         0         0         0         0         0         0         0
         0         0         0         0         0         0         0         0
         0         0         0         0         0         0         0         0
         0         0         0         0         0         0         0         0
         0         0         0         0         0         0         0         0
         0         0         0         0         0         0         0         0
         0         0         0         0         0         0         0         0
         0         0         0         0         0         0         0         0
         0         0         0         0         0         0         0         0
         0         0         0         0         0         0         0         0
         0         0         0         0         0         0         0         0
         0         0         0         0         0         0         0         0
         0         0         0         0         0         0         0         0
         0         0         0         0         0         0         0         0
         0         0         0         0         0         0         0         0
         0         0         0         0         0         0         0         0
         0         0         0         0         0         0         0         0
         0         0         0         0         0         0         0         0
         0         0         0         0         0         0         0         0
         0         0         0         0         0         0         0         0
         0         0         0         0         0         0         0         0
         0         0         0         0         0         0         0         0
         0         0         0         0         0         0         0         0
         0         0         0         0         0         0         0         0
         0         0         0         0         0         0         0         0
         0         0         0         0         0         0         0         0
         0         0         0         0         0         0         0         0
         0         0         0         0         0         0         0         0
         0         0         0         0         0         0         0         0
         0         0         0         0         0         0         0         0
         0         0         0         0         0         0         0         0
         0         0         0         0         0         0         0         0
         0         0         0         0         0         0         0         0
         0         0         0         0         0         0         0         0
         0         0         0         0         0         0         0         0
         0         0         0         0         0         0         0         0
         0         0         0         0         0         0         0         0
         0         0         0         0         0         0         0         0
         0         0         0         0         0         0         0         0
         0         0         0         0         0         0         0         0
         0         0         0         0         0         0         0         0
         0         0         0         0         0         0         0         0
         0         0         0         0         0         0         0         0
         0         0         0         0         0         0         0         0
         0         0         0         0         0         0         0         0
         0         0         0         0         0         0         0         0
         0         0         0         0         0         0         0         0
         0         0         0         0         0         0         0         0
         0         0         0         0         0         0         0         0
         0         0         0         0         0         0         0         0
         0         0         0         0         0         0         0         0
         0         0         0         0         0         0         0         0
         0         0         0         0         0         0         0         0
         0         0         0         0         0         0         0         0
         0         0         0         0         0         0         0         0
         0         0         0         0         0         0         0         0
         0         0         0         0         0         0         0         0
         0         0         0         0         0         0         0         0
         0         0         0         0         0         0         0         0
         0         0         0         0         0         0         0         0
         0         0         0         0         0         0         0         0
         0         0         0         0         0         0         0         0
         0         0         0         0         0         0         0         0
         0         0         0         0         0         0         0         0
         0         0         0         0         0         0         0         0
         0         0         0         0         0         0         0         0
         0         0         0         0         0         0         0         0
         0         0         0         0         0         0         0         0
         0         0         0         0         0         0         0         0
         0         0         0         0         0         0         0         0
         0         0         0         0         0         0         0         0
         0         0         0         0         0         0         0         0
         0         0         0         0         0         0         0         0
         0         0         0         0         0         0         0         0
         0         0         0         0         0         0         0         0
         0         0         0         0         0         0         0         0
         0         0         0         0         0         0         0         0
         0         0         0         0         0         0         0         0
         0         0         0         0         0         0         0         0
         0         0         0         0         0         0         0         0
         0         0         0         0         0         0         0         0
         0         0         0         0         0         0         0         0
         0         0         0         0         0         0         0         0
         0         0         0         0         0         0         0         0
         0         0         0         0         0         0         0         0
         0         0         0         0         0         0         0         0
         0         0         0         0         0         0         0         0
         0         0         0         0         0         0         0         0
         0         0         0         0         0         0         0         0
         0         0         0         0         0         0         0         0
         0         0         0         0         0         0         0         0
         0         0         0         0         0         0         0         0
         0         0         0         0         0         0         0         0
         0         0         0         0         0         0         0         0
         0         0         0         0         0         0         0         0
         0         0         0         0         0         0         0         0
         0         0         0         0         0         0         0         0
         0         0         0         0         0         0         0         0
         0         0         0         0         0         0         0         0
         0         0         0         0         0         0         0         0
         0         0         0         0         0         0         0         0
         0         0         0         0         0         0         0         0
         0         0         0         0         0         0         0         0
         0         0         0         0         0         0         0         0
         0         0         0         0         0         0         0         0
         0         0         0         0         0         0         0         0
         0         0         0         0         0         0         0         0
         0         0         0         0         0         0         0         0
         0         0         0         0         0         0         0         0
         0         0         0         0         0         0         0         0
         0         0         0         0         0         0         0         0
         0         0         0         0         0         0         0         0
         0         0         0         0         0         0         0         0
         0         0         0         0         0         0         0         0
         0         0         0         0         0         0         0         0
         0         0         0         0         0         0         0         0
         0         0         0         0         0         0         0         0
         0         0         0         0         0         0         0         0
         0         0         0         0         0         0         0         0
         0         0         0         0         0         0         0         0
         0         0         0         0         0         0         0         0
         0         0         0         0         0         0         0         0
         0         0         0         0         0         0         0         0
         0         0         0         0         0         0         0         0
         0         0         0         0         0         0         0         0
         0         0         0         0         0         0         0         0
         0         0         0         0         0         0         0         0
         0         0         0         0         0         0         0         0
         0         0         0         0         0         0         0         0
         0         0         0         0         0         0         0         0
         0         0         0         0         0         0         0         0
         0         0         0         0         0         0         0         0
         0         0         0         0         0         0         0         0
         0         0         0         0         0         0         0         0
         0         0         0         0         0         0         0         0
         0         0         0         0         0         0         0         0
         0         0         0         0         0         0         0         0
         0         0         0         0         0         0         0         0
         0         0         0         0         0         0         0         0
         0         0         0         0         0         0         0         0
         0         0         0         0         0         0         0         0
         0         0         0         0         0         0         0         0
         0         0         0         0         0         0         0         0
         0         0         0         0         0         0         0         0
         0         0         0         0         0         0         0         0
         0         0         0         0         0         0         0         0
         0         0         0         0         0         0         0         0
         0         0         0         0         0         0         0         0
         0         0         0         0         0         0         0         0
         0         0         0         0         0         0         0         0
         0         0         0         0         0         0         0         0
         0         0         0         0         0         0         0         0
         0         0         0         0         0         0         0         0
         0         0         0         0         0         0         0         0
         0         0         0         0         0         0         0         0
         0         0         0         0         0         0         0         0
         0         0         0         0         0         0         0         0
         0         0         0         0         0         0         0         0
         0         0         0         0         0         0         0         0
         0         0         0         0         0         0         0         0
         0         0         0         0         0         0         0         0
         0         0         0         0         0         0         0         0
         0         0         0         0         0         0         0         0
         0         0         0         0         0         0         0         0
         0         0         0         0         0         0         0         0
         0         0         0         0         0         0         0         0
         0         0         0         0         0         0         0         0
         0         0         0         0         0         0         0         0
         0         0         0         0         0         0         0         0
         0         0         0         0         0         0         0         0
         0         0         0         0         0         0         0         0
         0         0         0         0         0         0         0         0
         0         0         0         0         0         0         0         0
         0         0         0         0         0         0         0         0
         0         0         0         0         0         0         0         0
         0         0         0         0         0         0         0         0
         0         0         0         0         0         0         0         0
         0         0         0         0         0         0         0         0
         0         0         0         0         0         0         0         0
         0         0         0         0         0         0         0         0
         0         0         0         0         0         0         0         0
         0         0         0         0         0         0         0         0
         0         0         0         0         0         0         0         0
         0         0         0         0         0         0         0         0
         0         0         0         0         0         0         0         0
         0         0         0         0         0         0         0         0
         0         0         0         0         0         0         0         0
         0         0         0         0         0         0         0         0
         0         0         0         0         0         0         0         0
         0         0         0         0         0         0         0         0
         0         0         0         0         0         0         0         0
         0         0         0         0         0         0         0         0
         0         0         0         0         0         0         0         0
         0         0         0         0         0         0         0         0
         0         0         0         0         0         0         0         0
         0         0         0         0         0         0         0         0
         0         0         0         0         0         0         0         0
         0         0         0         0         0         0         0         0
         0         0         0         0         0         0         0         0
         0         0         0         0         0         0         0         0
         0         0         0         0         0         0         0         0
         0         0         0         0         0         0         0         0
         0         0         0         0         0         0         0         0
         0         0         0         0         0         0         0         0
         0         0         0         0         0         0         0         0
         0         0         0         0         0         0         0         0
         0         0         0         0         0         0         0         0
         0         0         0         0         0         0         0         0
         0         0         0         0         0         0         0         0
         0         0         0         0         0         0         0         0
         0         0         0         0         0         0         0         0
         0         0         0         0         0         0         0         0
         0         0         0         0         0         0         0         0
         0         0         0         0         0         0         0         0
         0         0         0         0         0         0         0         0
         0         0         0         0         0         0         0         0
         0         0         0         0         0         0         0         0
         0         0         0         0         0         0         0         0
         0         0         0         0         0         0         0         0
         0         0         0         0         0         0         0         0
         0         0         0         0         0         0         0         0
         0         0         0         0         0         0         0         0
         0         0         0         0         0         0         0         0
         0         0         0         0         0         0         0         0
         0         0         0         0         0         0         0         0
         0         0         0         0         0         0         0         0
         0         0         0         0         0         0         0         0
         0         0         0         0         0         0         0         0
         0         0         0         0         0         0         0         0
         0         0         0         0         0         0         0         0
         0         0         0         0         0         0         0         0
         0         0         0         0         0         0         0         0
         0         0         0         0         0         0         0         0
         0         0         0         0         0         0         0         0
         0         0         0         0         0         0         0         0
         0         0         0         0         0         0         0         0
         0         0         0         0         0         0         0         0
         0         0         0         0         0         0         0         0
         0         0         0         0         0         0         0         0
         0         0         0         0         0         0         0         0
         0         0         0         0         0         0         0         0
         0         0         0         0         0         0         0         0
         0         0         0         0         0         0         0         0
         0         0         0         0         0         0         0         0
         0         0         0         0         0         0         0         0
         0         0         0         0         0         0         0         0
         0         0         0         0         0         0         0         0
         0         0         0         0         0         0         0         0
         0         0         0         0         0         0         0         0
         0         0         0         0         0         0         0         0
         0         0         0         0         0         0         0         0
         0         0         0         0         0         0         0         0
         0         0         0         0         0         0         0         0
         0         0         0         0         0         0         0         0
         0         0         0         0         0         0         0         0
         0         0         0         0         0         0         0         0
         0         0         0         0         0         0         0         0
         0         0         0         0         0         0         0         0
         0         0         0         0         0         0         0         0
         0         0         0         0         0         0         0         0
         0         0         0         0         0         0         0         0
         0         0         0         0         0         0         0         0
         0         0         0         0         0         0         0         0
         0         0         0         0         0         0         0         0
         0         0         0         0         0         0         0         0
         0         0         0         0         0         0         0         0
         0         0         0         0         0         0         0         0
         0         0         0         0         0         0         0         0
         0         0         0         0         0         0         0         0
         0         0         0         0         0         0         0         0
         0         0         0         0         0         0         0         0
         0         0         0         0         0         0         0         0
         0         0         0         0         0         0         0         0
         0         0         0         0         0         0         0         0
         0         0         0         0         0         0         0         0
         0         0         0         0         0         0         0         0
         0         0         0         0         0         0         0         0
         0         0         0         0         0         0         0         0
         0         0         0         0         0         0         0         0
         0         0         0         0         0         0         0         0
         0         0         0         0         0         0         0         0
         0         0         0         0         0         0         0         0
         0         0         0         0         0         0         0         0
         0         0         0         0         0         0         0         0
         0         0         0         0         0         0         0         0
         0         0         0         0         0         0         0         0
         0         0         0         0         0         0         0         0
         0         0         0         0         0         0         0         0
         0         0         0         0         0         0         0         0
         0         0         0         0         0         0         0         0
         0         0         0         0         0         0         0         0
         0         0         0         0         0         0         0         0
         0         0         0         0         0         0         0         0
         0         0         0         0         0         0         0         0
         0         0         0         0         0         0         0         0
         0         0         0         0         0         0         0         0
         0         0         0         0         0         0         0         0
         0         0         0         0         0         0         0         0
         0         0         0         0         0         0         0         0
         0         0         0         0         0         0         0         0
         0         0         0         0         0         0         0         0
         0         0         0         0         0         0         0         0
         0         0         0         0         0         0         0         0
         0         0         0         0         0         0         0         0
         0         0         0         0         0         0         0         0
         0         0         0         0         0         0         0         0
         0         0         0         0         0         0         0         0
         0         0         0         0         0         0         0         0
         0         0         0         0         0         0         0         0
         0         0         0         0         0         0         0         0
         0         0         0         0         0         0         0         0
         0         0         0         0         0         0         0         0
         0         0         0         0         0         0         0         0
         0         0         0         0         0         0         0         0
         0         0         0         0         0         0         0         0
         0         0         0         0         0         0         0         0
         0         0         0         0         0         0         0         0
         0         0         0         0         0         0         0         0
         0         0         0         0         0         0         0         0
         0         0         0         0         0         0         0         0
         0         0         0         0         0         0         0         0
         0         0         0         0         0         0         0         0
         0         0         0         0         0         0         0         0
         0         0         0         0         0         0         0         0
         0         0         0         0         0         0         0         0
         0         0         0         0         0         0         0         0
         0         0         0         0         0         0         0         0
         0         0         0         0         0         0         0         0
         0         0         0         0         0         0         0         0
         0         0         0         0         0         0         0         0
         0         0         0         0         0         0         0         0
         0         0         0         0         0         0         0         0
         0         0         0         0         0         0         0         0
         0         0         0         0         0         0         0         0
         0         0         0         0         0         0         0         0
         0         0         0         0         0         0         0         0
         0         0         0         0         0         0         0         0
         0         0         0         0         0         0         0         0
         0         0         0         0         0         0         0         0
         0         0         0         0         0         0         0         0
         0         0         0         0         0         0         0         0
         0         0         0         0         0         0         0         0
         0         0         0         0         0         0         0         0
         0         0         0         0         0         0         0         0
         0         0         0         0         0         0         0         0
         0         0         0         0         0         0         0         0
         0         0         0         0         0         0         0         0
         0         0         0         0         0         0         0         0
         0         0         0         0         0         0         0         0
         0         0         0         0         0         0         0         0
         0         0         0         0         0         0         0         0
         0         0         0         0         0         0         0         0
         0         0         0         0         0         0         0         0
         0         0         0         0         0         0         0         0
         0         0         0         0         0         0         0         0
         0         0         0         0         0         0         0         0
         0         0         0         0         0         0         0         0
         0         0         0         0         0         0         0         0
         0         0         0         0         0         0         0         0
         0         0         0         0         0         0         0         0
         0         0         0         0         0         0         0         0
         0         0         0         0         0         0         0         0
         0         0         0         0         0         0         0         0
         0         0         0         0         0         0         0         0
         0         0         0         0         0         0         0         0
         0         0         0         0         0         0         0         0
         0         0         0         0         0         0         0         0
         0         0         0         0         0         0         0         0
         0         0         0         0         0         0         0         0
         0         0         0         0         0         0         0         0
         0         0         0         0         0         0         0         0
         0         0         0         0         0         0         0         0
         0         0         0         0         0         0         0         0
         0         0         0         0         0         0         0         0
         0         0         0         0         0         0         0         0
         0         0         0         0         0         0         0         0
         0         0         0         0         0         0         0         0
         0         0         0         0         0         0         0         0
         0         0         0         0         0         0         0         0
         0         0         0         0         0         0         0         0
         0         0         0         0         0         0         0         0
         0         0         0         0         0         0         0         0
         0         0         0         0         0         0         0         0
         0         0         0         0         0         0         0         0
         0         0         0         0         0         0         0         0
         0         0         0         0         0         0         0         0
         0         0         0         0         0         0         0         0
         0         0         0         0         0         0         0         0
         0         0         0         0         0         0         0         0
         0         0         0         0         0         0         0         0
         0         0         0         0         0         0         0         0
         0         0         0         0         0         0         0         0
         0         0         0         0         0         0         0         0
         0         0         0         0         0         0         0         0
         0         0         0         0         0         0         0         0
         0         0         0         0         0         0         0         0
         0         0         0         0         0         0         0         0
         0         0         0         0         0         0         0         0
         0         0         0         0         0         0         0         0
         0         0         0         0         0         0         0         0
         0         0         0         0         0         0         0         0
         0         0         0         0         0         0         0         0
         0         0         0         0         0         0         0         0
         0         0         0         0         0         0         0         0
         0         0         0         0         0         0         0         0
         0         0         0         0         0         0         0         0
         0         0         0         0         0         0         0         0
         0         0         0         0         0         0         0         0
         0         0         0         0         0         0         0         0
         0         0         0         0         0         0         0         0
         0         0         0         0         0         0         0         0
         0         0         0         0         0         0         0         0
         0         0         0         0         0         0         0         0
         0         0         0         0         0         0         0         0
         0         0         0         0         0         0         0         0
         0         0         0         0         0         0         0         0
         0         0         0         0         0         0         0         0
         0         0         0         0         0         0         0         0
         0         0         0         0         0         0         0         0
         0         0         0         0         0         0         0         0
         0         0         0         0         0         0         0         0
         0         0         0         0         0         0         0         0
         0         0         0         0         0         0         0         0
         0         0         0         0         0         0         0         0
         0         0         0         0         0         0         0         0
         0         0         0         0         0         0         0         0
         0         0         0         0         0         0         0         0
         0         0         0         0         0         0         0         0
         0         0         0         0         0         0         0         0
         0         0         0         0         0         0         0         0
         0         0         0         0         0         0         0         0
         0         0         0         0         0         0         0         0
         0         0         0         0         0         0         0         0
         0         0         0         0         0         0         0         0
         0         0         0         0         0         0         0         0
         0         0         0         0         0         0         0         0
         0         0         0         0         0         0         0         0
         0         0         0         0         0         0         0         0
         0         0         0         0         0         0         0         0
         0         0         0         0         0         0         0         0
         0         0         0         0         0         0         0         0
         0         0         0         0         0         0         0         0
         0         0         0         0         0         0         0         0
         0         0         0         0         0         0         0         0
         0         0         0         0         0         0         0         0
         0         0         0         0         0         0         0         0
         0         0         0         0         0         0         0         0
         0         0         0         0         0         0         0         0
         0         0         0         0         0         0         0         0
         0         0         0         0         0         0         0         0
         0         0         0         0         0         0         0         0
         0         0         0         0         0         0         0         0
         0         0         0         0         0         0         0         0
         0         0         0         0         0         0         0         0
         0         0         0         0         0         0         0         0
         0         0         0         0         0         0         0         0
         0         0         0         0         0         0         0         0
         0         0         0         0         0         0         0         0
         0         0         0         0         0         0         0         0
         0         0         0         0         0         0         0         0
         0         0         0         0         0         0         0         0
         0         0         0         0         0         0         0         0
         0         0         0         0         0         0         0         0
         0         0         0         0         0         0         0         0
         0         0         0         0         0         0         0         0
         0         0         0         0         0         0         0         0
         0         0         0         0         0         0         0         0
         0         0         0         0         0         0         0         0
         0         0         0         0         0         0         0         0
         0         0         0         0         0         0         0         0
         0         0         0         0         0         0         0         0
         0         0         0         0         0         0         0         0
         0         0         0         0         0         0         0         0
         0         0         0         0         0         0         0         0
         0         0         0         0         0         0         0         0
         0         0         0         0         0         0         0         0
         0         0         0         0         0         0         0         0
         0         0         0         0         0         0         0         0
         0         0         0         0         0         0         0         0
         0         0         0         0         0         0         0         0
         0         0         0         0         0         0         0         0
         0         0         0         0         0         0         0         0
         0         0         0         0         0         0         0         0
         0         0         0         0         0         0         0         0
         0         0         0         0         0         0         0         0
         0         0         0         0         0         0         0         0
         0         0         0         0         0         0         0         0
         0         0         0         0         0         0         0         0
         0         0         0         0         0         0         0         0
         0         0         0         0         0         0         0         0
         0         0         0         0         0         0         0         0
         0         0         0         0         0         0         0         0
         0         0         0         0         0         0         0         0
         0         0         0         0         0         0         0         0
         0         0         0         0         0         0         0         0
         0         0         0         0         0         0         0         0
         0         0         0         0         0         0         0         0
         0         0         0         0         0         0         0         0
         0         0         0         0         0         0         0         0
         0         0         0         0         0         0         0         0
         0         0         0         0         0         0         0         0
         0         0         0         0         0         0         0         0
         0         0         0         0         0         0         0         0
         0         0         0         0         0         0         0         0
         0         0         0         0         0         0         0         0
         0         0         0         0         0         0         0         0
         0         0         0         0         0         0         0         0
         0         0         0         0         0         0         0         0
         0         0         0         0         0         0         0         0
         0         0         0         0         0         0         0         0
         0         0         0         0         0         0         0         0
         0         0         0         0         0         0         0         0
         0         0         0         0         0         0         0         0
         0         0         0         0         0         0         0         0
         0         0         0         0         0         0         0         0
         0         0         0         0         0         0         0         0
         0         0         0         0         0         0         0         0
         0         0         0         0         0         0         0         0
         0         0         0         0         0         0         0         0
         0         0         0         0         0         0         0         0
         0         0         0         0         0         0         0         0
         0         0         0         0         0         0         0         0
         0         0         0         0         0         0         0         0
         0         0         0         0         0         0         0         0
         0         0         0         0         0         0         0         0
         0         0         0         0         0         0         0         0
         0         0         0         0         0         0         0         0
         0         0         0         0         0         0         0         0
         0         0         0         0         0         0         0         0
         0         0         0         0         0         0         0         0
         0         0         0         0         0         0         0         0
         0         0         0         0         0         0         0         0
         0         0         0         0         0         0         0         0
         0         0         0         0         0         0         0         0
         0         0         0         0         0         0         0         0
         0         0         0         0         0         0         0         0
         0         0         0         0         0         0         0         0
         0         0         0         0         0         0         0         0
         0         0         0         0         0         0         0         0
         0         0         0         0         0         0         0         0
         0         0         0         0         0         0         0         0
         0         0         0         0         0         0         0         0
         0         0         0         0         0         0         0         0
         0         0         0         0         0         0         0         0
         0         0         0         0         0         0         0         0
         0         0         0         0         0         0         0         0
         0         0         0         0         0         0         0         0
         0         0         0         0         0         0         0         0
         0         0         0         0         0         0         0         0
         0         0         0         0         0         0         0         0
         0         0         0         0         0         0         0         0
         0         0         0         0         0         0         0         0
         0         0         0         0         0         0         0         0
         0         0         0         0         0         0         0         0
         0         0         0         0         0         0         0         0
         0         0         0         0         0         0         0         0
         0         0         0         0         0         0         0         0
         0         0         0         0         0         0         0         0
         0         0         0         0         0         0         0         0
         0         0         0         0         0         0         0         0
         0         0         0         0         0         0         0         0
         0         0         0         0         0         0         0         0
         0         0         0         0         0         0         0         0
         0         0         0         0         0         0         0         0
         0         0         0         0         0         0         0         0
         0         0         0         0         0         0         0         0
         0         0         0         0         0         0         0         0
         0         0         0         0         0         0         0         0
         0         0         0         0         0         0         0         0
         0         0         0         0         0         0         0         0
         0         0         0         0         0         0         0         0
         0         0         0         0         0         0         0         0
         0         0         0         0         0         0         0         0
         0         0         0         0         0         0         0         0
         0         0         0         0         0         0         0         0
         0         0         0         0         0         0         0         0
         0         0         0         0         0         0         0         0
         0         0         0         0         0         0         0         0
         0         0         0         0         0         0         0         0
         0         0         0         0         0         0         0         0
         0         0         0         0         0         0         0         0
         0         0         0         0         0         0         0         0
         0         0         0         0         0         0         0         0
         0         0         0         0         0         0         0         0
         0         0         0         0         0         0         0         0
         0         0         0         0         0         0         0         0
         0         0         0         0         0         0         0         0
         0         0         0         0         0         0         0         0
         0         0         0         0         0         0         0         0
         0         0         0         0         0         0         0         0
         0         0         0         0         0         0         0         0
         0         0         0         0         0         0         0         0
         0         0         0         0         0         0         0         0
         0         0         0         0         0         0         0         0
         0         0         0         0         0         0         0         0
         0         0         0         0         0         0         0         0
         0         0         0         0         0         0         0         0
         0         0         0         0         0         0         0         0
         0         0         0         0         0         0         0         0
         0         0         0         0         0         0         0         0
         0         0         0         0         0         0         0         0
         0         0         0         0         0         0         0         0
         0         0         0         0         0         0         0         0
         0         0         0         0         0         0         0         0
         0         0         0         0         0         0         0         0
         0         0         0         0         0         0         0         0
         0         0         0         0         0         0         0         0
         0         0         0         0         0         0         0         0
         0         0         0         0         0         0         0         0
         0         0         0         0         0         0         0         0
         0         0         0         0         0         0         0         0
         0         0         0         0         0         0         0         0
         0         0         0         0         0         0         0         0
         0         0         0         0         0         0         0         0
         0         0         0         0         0         0         0         0
         0         0         0         0         0         0         0         0
         0         0         0         0         0         0         0         0
         0         0         0         0         0         0         0         0
         0         0         0         0         0         0         0         0
         0         0         0         0         0         0         0         0
         0         0         0         0         0         0         0         0
         0         0         0         0         0         0         0         0
         0         0         0         0         0         0         0         0
         0         0         0         0         0         0         0         0
         0         0         0         0         0         0         0         0
         0         0         0         0         0         0         0         0
         0         0         0         0         0         0         0         0
         0         0         0         0         0         0         0         0
         0         0         0         0         0         0         0         0
         0         0         0         0         0         0         0         0
         0         0         0         0         0         0         0         0
         0         0         0         0         0         0         0         0
         0         0         0         0         0         0         0         0
         0         0         0         0         0         0         0         0
         0         0         0         0         0         0         0         0
         0         0         0         0         0         0         0         0
         0         0         0         0         0         0         0         0
         0         0         0         0         0         0         0         0
         0         0         0         0         0         0         0         0
         0         0         0         0         0         0         0         0
         0         0         0         0         0         0         0         0
         0         0         0         0         0         0         0         0
         0         0         0         0         0         0         0         0
         0         0         0         0         0         0         0         0
         0         0         0         0         0         0         0         0
         0         0         0         0         0         0         0         0
         0         0         0         0         0         0         0         0
         0         0         0         0         0         0         0         0
         0         0         0         0         0         0         0         0
         0         0         0         0         0         0         0         0
         0         0         0         0         0         0         0         0
         0         0         0         0         0         0         0         0
         0         0         0         0         0         0         0         0
         0         0         0         0         0         0         0         0
         0         0         0         0         0         0         0         0
         0         0         0         0         0         0         0         0
         0         0         0         0         0         0         0         0
         0         0         0         0         0         0         0         0
         0         0         0         0         0         0         0         0
         0         0         0         0         0         0         0         0
         0         0         0         0         0         0         0         0
         0         0         0         0         0         0         0         0
         0         0         0         0         0         0         0         0
         0         0         0         0         0         0         0         0
         0         0         0         0         0         0         0         0
         0         0         0         0         0         0         0         0
         0         0         0         0         0         0         0         0
         0         0         0         0         0         0         0         0
         0         0         0         0         0         0         0         0
         0         0         0         0         0         0         0         0
         0         0         0         0         0         0         0         0
         0         0         0         0         0         0         0         0
         0         0         0         0         0         0         0         0
         0         0         0         0         0         0         0         0
         0         0         0         0         0         0         0         0
         0         0         0         0         0         0         0         0
         0         0         0         0         0         0         0         0
         0         0         0         0         0         0         0         0
         0         0         0         0         0         0         0         0
         0         0         0         0         0         0         0         0
         0         0         0         0         0         0         0         0
         0         0         0         0         0         0         0         0
         0         0         0         0         0         0         0         0
         0         0         0         0         0         0         0         0
         0         0         0         0         0         0         0         0
         0         0         0         0         0         0         0         0
         0         0         0         0         0         0         0         0
         0         0         0         0         0         0         0         0
         0         0         0         0         0         0         0         0
         0         0         0         0         0         0         0         0
         0         0         0         0         0         0         0         0
         0         0         0         0         0         0         0         0
         0         0         0         0         0         0         0         0
         0         0         0         0         0         0         0         0
         0         0         0         0         0         0         0         0
         0         0         0         0         0         0         0         0
         0         0         0         0         0         0         0         0
         0         0         0         0         0         0         0         0
         0         0         0         0         0         0         0         0
         0         0         0         0         0         0         0         0
         0         0         0         0         0         0         0         0
         0         0         0         0         0         0         0         0
         0         0         0         0         0         0         0         0
         0         0         0         0         0         0         0         0
         0         0         0         0         0         0         0         0
         0         0         0         0         0         0         0         0
         0         0         0         0         0         0         0         0
         0         0         0         0         0         0         0         0
         0         0         0         0         0         0         0         0
         0         0         0         0         0         0         0         0
         0         0         0         0         0         0         0         0
         0         0         0         0         0         0         0         0
         0         0         0         0         0         0         0         0
         0         0         0         0         0         0         0         0
         0         0         0         0         0         0         0         0
         0         0         0         0         0         0         0         0
         0         0         0         0         0         0         0         0
         0         0         0         0         0         0         0         0
         0         0         0         0         0         0         0         0
         0         0         0         0         0         0         0         0
         0         0         0         0         0         0         0         0
         0         0         0         0         0         0         0         0
         0         0         0         0         0         0         0         0
         0         0         0         0         0         0         0         0
         0         0         0         0         0         0         0         0
         0         0         0         0         0         0         0         0
         0         0         0         0         0         0         0         0
         0         0         0         0         0         0         0         0
         0         0         0         0         0         0         0         0
         0         0         0         0         0         0         0         0
         0         0         0         0         0         0         0         0
         0         0         0         0         0         0         0         0
         0         0         0         0         0         0         0         0
         0         0         0         0         0         0         0         0
         0         0         0         0         0         0         0         0
         0         0         0         0         0         0         0         0
         0         0         0         0         0         0         0         0
         0         0         0         0         0         0         0         0
         0         0         0         0         0         0         0         0
         0         0         0         0         0         0         0         0
         0         0         0         0         0         0         0         0
         0         0         0         0         0         0         0         0
         0         0         0         0         0         0         0         0
         0         0         0         0         0         0         0         0
         0         0         0         0         0         0         0         0
         0         0         0         0         0         0         0         0
         0         0         0         0         0         0         0         0
         0         0         0         0         0         0         0         0
         0         0         0         0         0         0         0         0
         0         0         0         0         0         0         0         0
         0         0         0         0         0         0         0         0
         0         0         0         0         0         0         0         0
         0         0         0         0         0         0         0         0
         0         0         0         0         0         0         0         0
         0         0         0         0         0         0         0         0
         0         0         0         0         0         0         0         0
         0         0         0         0         0         0         0         0
         0         0         0         0         0         0         0         0
         0         0         0         0         0         0         0         0
         0         0         0         0         0         0         0         0
         0         0         0         0         0         0         0         0
         0         0         0         0         0         0         0         0
         0         0         0         0         0         0         0         0
         0         0         0         0         0         0         0         0
         0         0         0         0         0         0         0         0
         0         0         0         0         0         0         0         0
         0         0         0         0         0         0         0         0
         0         0         0         0         0         0         0         0
         0         0         0         0         0         0         0         0
         0         0         0         0         0         0         0         0
         0         0         0         0         0         0         0         0
         0         0         0         0         0         0         0         0
         0         0         0         0         0         0         0         0
         0         0         0         0         0         0         0         0
         0         0         0         0         0         0         0         0
         0         0         0         0         0         0         0         0
         0         0         0         0         0         0         0         0
         0         0         0         0         0         0         0         0
         0         0         0         0         0         0         0         0
         0         0         0         0         0         0         0         0
         0         0         0         0         0         0         0         0
         0         0         0         0         0         0         0         0
         0         0         0         0         0         0         0         0
         0         0         0         0         0         0         0         0
         0         0         0         0         0         0         0         0
         0         0         0         0         0         0         0         0
         0         0         0         0         0         0         0         0
         0         0         0         0         0         0         0         0
         0         0         0         0         0         0         0         0
         0         0         0         0         0         0         0         0
         0         0         0         0         0         0         0         0
         0         0         0         0         0         0         0         0
         0         0         0         0         0         0         0         0
         0         0         0         0         0         0         0         0
         0         0         0         0         0         0         0         0
         0         0         0         0         0         0         0         0
         0         0         0         0         0         0         0         0
         0         0         0         0         0         0         0         0
         0         0         0         0         0         0         0         0
         0         0         0         0         0         0         0         0
         0         0         0         0         0         0         0         0
         0         0         0         0         0         0         0         0
         0         0         0         0         0         0         0         0
         0         0         0         0         0         0         0         0
         0         0         0         0         0         0         0         0
         0         0         0         0         0         0         0         0
         0         0         0         0         0         0         0         0
         0         0         0         0         0         0         0         0
         0         0         0         0         0         0         0         0
         0         0         0         0         0         0         0         0
         0         0         0         0         0         0         0         0
         0         0         0         0         0         0         0         0
         0         0         0         0         0         0         0         0
         0         0         0         0         0         0         0         0
         0         0         0         0         0         0         0         0
         0         0         0         0         0         0         0         0
         0         0         0         0         0         0         0         0
         0         0         0         0         0         0         0         0
         0         0         0         0         0         0         0         0
         0         0         0         0         0         0         0         0
         0         0         0         0         0         0         0         0
         0         0         0         0         0         0         0         0
         0         0         0         0         0         0         0         0
         0         0         0         0         0         0         0         0
         0         0         0         0         0         0         0         0
         0         0         0         0         0         0         0         0
         0         0         0         0         0         0         0         0
         0         0         0         0         0         0         0         0
         0         0         0         0         0         0         0         0
         0         0         0         0         0         0         0         0
         0         0         0         0         0         0         0         0
         0         0         0         0         0         0         0         0
         0         0         0         0         0         0         0         0
         0         0         0         0         0         0         0         0
         0         0         0         0         0         0         0         0
         0         0         0         0         0         0         0         0
         0         0         0         0         0         0         0         0
         0         0         0         0         0         0         0         0
         0         0         0         0         0         0         0         0
         0         0         0         0         0         0         0         0
         0         0         0         0         0         0         0         0
         0         0         0         0         0         0         0         0
         0         0         0         0         0         0         0         0
         0         0         0         0         0         0         0         0
         0         0         0         0         0         0         0         0
         0         0         0         0         0         0         0         0
         0         0         0         0         0         0         0         0
         0         0         0         0         0         0         0         0
         0         0         0         0         0         0         0         0
         0         0         0         0         0         0         0         0
         0         0         0         0         0         0         0         0
         0         0         0         0         0         0         0         0
         0         0         0         0         0         0         0         0
         0         0         0         0         0         0         0         0
         0         0         0         0         0         0         0         0
         0         0         0         0         0         0         0         0
         0         0         0         0         0         0         0         0
         0         0         0         0         0         0         0         0
         0         0         0         0         0         0         0         0
         0         0         0         0         0         0         0         0
         0         0         0         0         0         0         0         0
         0         0         0         0         0         0         0         0
         0         0         0         0         0         0         0         0
         0         0         0         0         0         0         0         0
         0         0         0         0         0         0         0         0
         0         0         0         0         0         0         0         0
         0         0         0         0         0         0         0         0
         0         0         0         0         0         0         0         0
         0         0         0         0         0         0         0         0
         0         0         0         0         0         0         0         0
         0         0         0         0         0         0         0         0
         0         0         0         0         0         0         0         0
         0         0         0         0         0         0         0         0
         0         0         0         0         0         0         0         0
         0         0         0         0         0         0         0         0
         0         0         0         0         0         0         0         0
         0         0         0         0         0         0         0         0
         0         0         0         0         0         0         0         0
         0         0         0         0         0         0         0         0
         0         0         0         0         0         0         0         0
         0         0         0         0         0         0         0         0
         0         0         0         0         0         0         0         0
         0         0         0         0         0         0         0         0
         0         0         0         0         0         0         0         0
         0         0         0         0         0         0         0         0
         0         0         0         0         0         0         0         0
         0         0         0         0         0         0         0         0
         0         0         0         0         0         0         0         0
         0         0         0         0         0         0         0         0
         0         0         0         0         0         0         0         0
         0         0         0         0         0         0         0         0
         0         0         0         0         0         0         0         0
         0         0         0         0         0         0         0         0
         0         0         0         0         0         0         0         0
         0         0         0         0         0         0         0         0
         0         0         0         0         0         0         0         0
         0         0         0         0         0         0         0         0
         0         0         0         0         0         0         0         0
         0         0         0         0         0         0         0         0
         0         0         0         0         0         0         0         0
         0         0         0         0         0         0         0         0
         0         0         0         0         0         0         0         0
         0         0         0         0         0         0         0         0
         0         0         0         0         0         0         0         0
         0         0         0         0         0         0         0         0
         0         0         0         0         0         0         0         0
         0         0         0         0         0         0         0         0
         0         0         0         0         0         0         0         0
         0         0         0         0         0         0         0         0
         0         0         0         0         0         0         0         0
         0         0         0         0         0         0         0         0
         0         0         0         0         0         0         0         0
         0         0         0         0         0         0         0         0
         0         0         0         0         0         0         0         0
         0         0         0         0         0         0         0         0
         0         0         0         0         0         0         0         0
         0         0         0         0         0         0         0         0
         0         0         0         0         0         0         0         0
         0         0         0         0         0         0         0         0
         0         0         0         0         0         0         0         0
         0         0         0         0         0         0         0         0
         0         0         0         0         0         0         0         0
         0         0         0         0         0         0         0         0
         0         0         0         0         0         0         0         0
         0         0         0         0         0         0         0         0
         0         0         0         0         0         0         0         0
         0         0         0         0         0         0         0         0
         0         0         0         0         0         0         0         0
         0         0         0         0         0         0         0         0
         0         0         0         0         0         0         0         0
         0         0         0         0         0         0         0         0
         0         0         0         0         0         0         0         0
         0         0         0         0         0         0         0         0
         0         0         0         0         0         0         0         0
         0         0         0         0         0         0         0         0
         0         0         0         0         0         0         0         0
         0         0         0         0         0         0         0         0
         0         0         0         0         0         0         0         0
         0         0         0         0         0         0         0         0
         0         0         0         0         0         0         0         0
         0         0         0         0         0         0         0         0
         0         0         0         0         0         0         0         0
         0         0         0         0         0         0         0         0
         0         0         0         0         0         0         0         0
         0         0         0         0         0         0         0         0
         0         0         0         0         0         0         0         0
         0         0         0         0         0         0         0         0
         0         0         0         0         0         0         0         0
         0         0         0         0         0         0         0         0
         0         0         0         0         0         0         0         0
         0         0         0         0         0         0         0         0
         0         0         0         0         0         0         0         0
         0         0         0         0         0         0         0         0
         0         0         0         0         0         0         0         0
         0         0         0         0         0         0         0         0
         0         0         0         0         0         0         0         0
         0         0         0         0         0         0         0         0
         0         0         0         0         0         0         0         0
         0         0         0         0         0         0         0         0
         0         0         0         0         0         0         0         0
         0         0         0         0         0         0         0         0
         0         0         0         0         0         0         0         0
         0         0         0         0         0         0         0         0
         0         0         0         0         0         0         0         0
         0         0         0         0         0         0         0         0
         0         0         0         0         0         0         0         0
         0         0         0         0         0         0         0         0
         0         0         0         0         0         0         0         0
         0         0         0         0         0         0         0         0
         0         0         0         0         0         0         0         0
         0         0         0         0         0         0         0         0
         0         0         0         0         0         0         0         0
         0         0         0         0         0         0         0         0
         0         0         0         0         0         0         0         0
         0         0         0         0         0         0         0         0
         0         0         0         0         0         0         0         0
         0         0         0         0         0         0         0         0
         0         0         0         0         0         0         0         0
         0         0         0         0         0         0         0         0
         0         0         0         0         0         0         0         0
         0         0         0         0         0         0         0         0
         0         0         0         0         0         0         0         0
         0         0         0         0         0         0         0         0
         0         0         0         0         0         0         0         0
         0         0         0         0         0         0         0         0
         0         0         0         0         0         0         0         0
         0         0         0         0         0         0         0         0
         0         0         0         0         0         0         0         0
         0         0         0         0         0         0         0         0
         0         0         0         0         0         0         0         0
         0         0         0         0         0         0         0         0
         0         0         0         0         0         0         0         0
         0         0         0         0         0         0         0         0
         0         0         0         0         0         0         0         0
         0         0         0         0         0         0         0         0
         0         0         0         0         0         0         0         0
         0         0         0         0         0         0         0         0
         0         0         0         0         0         0         0         0
         0         0         0         0         0         0         0         0
         0         0         0         0         0         0         0         0
         0         0         0         0         0         0         0         0
         0         0         0         0         0         0         0         0
         0         0         0         0         0         0         0         0
         0         0         0         0         0         0         0         0
         0         0         0         0         0         0         0         0
         0         0         0         0         0         0         0         0
         0         0         0         0         0         0         0         0
         0         0         0         0         0         0         0         0
         0         0         0         0         0         0         0         0
         0         0         0         0         0         0         0         0
         0         0         0         0         0         0         0         0
         0         0         0         0         0         0         0         0
         0         0         0         0         0         0         0         0
         0         0         0         0         0         0         0         0
         0         0         0         0         0         0         0         0
         0         0         0         0         0         0         0         0
         0         0         0         0         0         0         0         0
         0         0         0         0         0         0         0         0
         0         0         0         0         0         0         0         0
         0         0         0         0         0         0         0         0
         0         0         0         0         0         0         0         0
         0         0         0         0         0         0         0         0
         0         0         0         0         0         0         0         0
         0         0         0         0         0         0         0         0
         0         0         0         0         0         0         0         0
         0         0         0         0         0         0         0         0
         0         0         0         0         0         0         0         0
         0         0         0         0         0         0         0         0
         0         0         0         0         0         0         0         0
         0         0         0         0         0         0         0         0
         0         0         0         0         0         0         0         0
         0         0         0         0         0         0         0         0
         0         0         0         0         0         0         0         0
         0         0         0         0         0         0         0         0
         0         0         0         0         0         0         0         0
         0         0         0         0         0         0         0         0
         0         0         0         0         0         0         0         0
         0         0         0         0         0         0         0         0
         0         0         0         0         0         0         0         0
         0         0         0         0         0         0         0         0
         0         0         0         0         0         0         0         0
         0         0         0         0         0         0         0         0
         0         0         0         0         0         0         0         0
         0         0         0         0         0         0         0         0
         0         0         0         0         0         0         0         0
         0         0         0         0         0         0         0         0
         0         0         0         0         0         0         0         0
         0         0         0         0         0         0         0         0
         0         0         0         0         0         0         0         0
         0         0         0         0         0         0         0         0
         0         0         0         0         0         0         0         0
         0         0         0         0         0         0         0         0
         0         0         0         0         0         0         0         0
         0         0         0         0         0         0         0         0
         0         0         0         0         0         0         0         0
         0         0         0         0         0         0         0         0
         0         0         0         0         0         0         0         0
         0         0         0         0         0         0         0         0
         0         0         0         0         0         0         0         0
         0         0         0         0         0         0         0         0
         0         0         0         0         0         0         0         0
         0         0         0         0         0         0         0         0
         0         0         0         0         0         0         0         0
         0         0         0         0         0         0         0         0
         0         0         0         0         0         0         0         0
         0         0         0         0         0         0         0         0
         0         0         0         0         0         0         0         0
         0         0         0         0         0         0         0         0
         0         0         0         0         0         0         0         0
         0         0         0         0         0         0         0         0
         0         0         0         0         0         0         0         0
         0         0         0         0         0         0         0         0
         0         0         0         0         0         0         0         0
         0         0         0         0         0         0         0         0
         0         0         0         0         0         0         0         0
         0         0         0         0         0         0         0         0
         0         0         0         0         0         0         0         0
         0         0         0         0         0         0         0         0
         0         0         0         0         0         0         0         0
         0         0         0         0         0         0         0         0
         0         0         0         0         0         0         0         0
         0         0         0         0         0         0         0         0
         0         0         0         0         0         0         0         0
         0         0         0         0         0         0         0         0
         0         0         0         0         0         0         0         0
         0         0         0         0         0         0         0         0
         0         0         0         0         0         0         0         0
         0         0         0         0         0         0         0         0
         0         0         0         0         0         0         0         0
         0         0         0         0         0         0         0         0
         0         0         0         0         0         0         0         0
         0         0         0         0         0         0         0         0
         0         0         0         0         0         0         0         0
         0         0         0         0         0         0         0         0
         0         0         0         0         0         0         0         0
         0         0         0         0         0         0         0         0
         0         0         0         0         0         0         0         0
         0         0         0         0         0         0         0         0
         0         0         0         0         0         0         0         0
         0         0         0         0         0         0         0         0
         0         0         0         0         0         0         0         0
         0         0         0         0         0         0         0         0
         0         0         0         0         0         0         0         0
         0         0         0         0         0         0         0         0
         0         0         0         0         0         0         0         0
         0         0         0         0         0         0         0         0
         0         0         0         0         0         0         0         0
         0         0         0         0         0         0         0         0
         0         0         0         0         0         0         0         0
         0         0         0         0         0         0         0         0
         0         0         0         0         0         0         0         0
         0         0         0         0         0         0         0         0
         0         0         0         0         0         0         0         0
         0         0         0         0         0         0         0         0
         0         0         0         0         0         0         0         0
         0         0         0         0         0         0         0         0
         0         0         0         0         0         0         0         0
         0         0         0         0         0         0         0         0
         0         0         0         0         0         0         0         0
         0         0         0         0         0         0         0         0
         0         0         0         0         0         0         0         0
         0         0         0         0         0         0         0         0
         0         0         0         0         0         0         0         0
         0         0         0         0         0         0         0         0
         0         0         0         0         0         0         0         0
         0         0         0         0         0         0         0         0
         0         0         0         0         0         0         0         0
         0         0         0         0         0         0         0         0
         0         0         0         0         0         0         0         0
         0         0         0         0         0         0         0         0
         0         0         0         0         0         0         0         0
         0         0         0         0         0         0         0         0
         0         0         0         0         0         0         0         0
         0         0         0         0         0         0         0         0
         0         0         0         0         0         0         0         0
         0         0         0         0         0         0         0         0
         0         0         0         0         0         0         0         0
         0         0         0         0         0         0         0         0
         0         0         0         0         0         0         0         0
         0         0         0         0         0         0         0         0
         0         0         0         0         0         0         0         0
         0         0         0         0         0         0         0         0
         0         0         0         0         0         0         0         0
         0         0         0         0         0         0         0         0
         0         0         0         0         0         0         0         0
         0         0         0         0         0         0         0         0
         0         0         0         0         0         0         0         0
         0         0         0         0         0         0         0         0
         0         0         0         0         0         0         0         0
         0         0         0         0         0         0         0         0
         0         0         0         0         0         0         0         0
         0         0         0         0         0         0         0         0
         0         0         0         0         0         0         0         0
         0         0         0         0         0         0         0         0
         0         0         0         0         0         0         0         0
         0         0         0         0         0         0         0         0
         0         0         0         0         0         0         0         0
         0         0         0         0         0         0         0         0
         0         0         0         0         0         0         0         0
         0         0         0         0         0         0         0         0
         0         0         0         0         0         0         0         0
         0         0         0         0         0         0         0         0
         0         0         0         0         0         0         0         0
         0         0         0         0         0         0         0         0
         0         0         0         0         0         0         0         0
         0         0         0         0         0         0         0         0
         0         0         0         0         0         0         0         0
         0         0         0         0         0         0         0         0
         0         0         0         0         0         0         0         0
         0         0         0         0         0         0         0         0
         0         0         0         0         0         0         0         0
         0         0         0         0         0         0         0         0
         0         0         0         0         0         0         0         0
         0         0         0         0         0         0         0         0
         0         0         0         0         0         0         0         0
         0         0         0         0         0         0         0         0
         0         0         0         0         0         0         0         0
         0         0         0         0         0         0         0         0
         0         0         0         0         0         0         0         0
         0         0         0         0         0         0         0         0
         0         0         0         0         0         0         0         0
         0         0         0         0         0         0         0         0
         0         0         0         0         0         0         0         0
         0         0         0         0         0         0         0         0
         0         0         0         0         0         0         0         0
         0         0         0         0         0         0         0         0
         0         0         0         0         0         0         0         0
         0         0         0         0         0         0         0         0
         0         0         0         0         0         0         0         0
         0         0         0         0         0         0         0         0
         0         0         0         0         0         0         0         0
         0         0         0         0         0         0         0         0
         0         0         0         0         0         0         0         0
         0         0         0         0         0         0         0         0
         0         0         0         0         0         0         0         0
         0         0         0         0         0         0         0         0
         0         0         0         0         0         0         0         0
         0         0         0         0         0         0         0         0
         0         0         0         0         0         0         0         0
         0         0         0         0         0         0         0         0
         0         0         0         0         0         0         0         0
         0         0         0         0         0         0         0         0
         0         0         0         0         0         0         0         0
         0         0         0         0         0         0         0         0
         0         0         0         0         0         0         0         0
         0         0         0         0         0         0         0         0
         0         0         0         0         0         0         0         0
         0         0         0         0         0         0         0         0
         0         0         0         0         0         0         0         0
         0         0         0         0         0         0         0         0
         0         0         0         0         0         0         0         0
         0         0         0         0         0         0         0         0
         0         0         0         0         0         0         0         0
         0         0         0         0         0         0         0         0
         0         0         0         0         0         0         0         0
         0         0         0         0         0         0         0         0
         0         0         0         0         0         0         0         0
         0         0         0         0         0         0         0         0
         0         0         0         0         0         0         0         0
         0         0         0         0         0         0         0         0
         0         0         0         0         0         0         0         0
         0         0         0         0         0         0         0         0
         0         0         0         0         0         0         0         0
         0         0         0         0         0         0         0         0
         0         0         0         0         0         0         0         0
         0         0         0         0         0         0         0         0
         0         0         0         0         0         0         0         0
         0         0         0         0         0         0         0         0
         0         0         0         0         0         0         0         0
         0         0         0         0         0         0         0         0
         0         0         0         0         0         0         0         0
         0         0         0         0         0         0         0         0
         0         0         0         0         0         0         0         0
         0         0         0         0         0         0         0         0
         0         0         0         0         0         0         0         0
         0         0         0         0         0         0         0         0
         0         0         0         0         0         0         0         0
         0         0         0         0         0         0         0         0
         0         0         0         0         0         0         0         0
         0         0         0         0         0         0         0         0
         0         0         0         0         0         0         0         0
         0         0         0         0         0         0         0         0
         0         0         0         0         0         0         0         0
         0         0         0         0         0         0         0         0
         0         0         0         0         0         0         0         0
         0         0         0         0         0         0         0         0
         0         0         0         0         0         0         0         0
         0         0         0         0         0         0         0         0
         0         0         0         0         0         0         0         0
         0         0         0         0         0         0         0         0
         0         0         0         0         0         0         0         0
         0         0         0         0         0         0         0         0
         0         0         0         0         0         0         0         0
         0         0         0         0         0         0         0         0
         0         0         0         0         0         0         0         0
         0         0         0         0         0         0         0         0
         0         0         0         0         0         0         0         0
         0         0         0         0         0         0         0         0
         0         0         0         0         0         0         0         0
         0         0         0         0         0         0         0         0
         0         0         0         0         0         0         0         0
         0         0         0         0         0         0         0         0
         0         0         0         0         0         0         0         0
         0         0         0         0         0         0         0         0
         0         0         0         0         0         0         0         0
         0         0         0         0         0         0         0         0
         0         0         0         0         0         0         0         0
         0         0         0         0         0         0         0         0
         0         0         0         0         0         0         0         0
         0         0         0         0         0         0         0         0
         0         0         0         0         0         0         0         0
         0         0         0         0         0         0         0         0
         0         0         0         0         0         0         0         0
         0         0         0         0         0         0         0         0
         0         0         0         0         0         0         0         0
         0         0         0         0         0         0         0         0
         0         0         0         0         0         0         0         0
         0         0         0         0         0         0         0         0
         0         0         0         0         0         0         0         0
         0         0         0         0         0         0         0         0
         0         0         0         0         0         0         0         0
         0         0         0         0         0         0         0         0
         0         0         0         0         0         0         0         0
         0         0         0         0         0         0         0         0
         0         0         0         0         0         0         0         0
         0         0         0         0         0         0         0         0
         0         0         0         0         0         0         0         0
         0         0         0         0         0         0         0         0
         0         0         0         0         0         0         0         0
         0         0         0         0         0         0         0         0
         0         0         0         0         0         0         0         0
         0         0         0         0         0         0         0         0
         0         0         0         0         0         0         0         0
         0         0         0         0         0         0         0         0
         0         0         0         0         0         0         0         0
         0         0         0         0         0         0         0         0
         0         0         0         0         0         0         0         0
         0         0         0         0         0         0         0         0
         0         0         0         0         0         0         0         0
         0         0         0         0         0         0         0         0
         0         0         0         0         0         0         0         0
         0         0         0         0         0         0         0         0
         0         0         0         0         0         0         0         0
         0         0         0         0         0         0         0         0
         0         0         0         0         0         0         0         0
         0         0         0         0         0         0         0         0
         0         0         0         0         0         0         0         0
         0         0         0         0         0         0         0         0
         0         0         0         0         0         0         0         0
         0         0         0         0         0         0         0         0
         0         0         0         0         0         0         0         0
         0         0         0         0         0         0         0         0
         0         0         0         0         0         0         0         0
         0         0         0         0         0         0         0         0
         0         0         0         0         0         0         0         0
         0         0         0         0         0         0         0         0
         0         0         0         0         0         0         0         0
         0         0         0         0         0         0         0         0
         0         0         0         0         0         0         0         0
         0         0         0         0         0         0         0         0
         0         0         0         0         0         0         0         0
         0         0         0         0         0         0         0         0
         0         0         0         0         0         0         0         0
         0         0         0         0         0         0         0         0
         0         0         0         0         0         0         0         0
         0         0         0         0         0         0         0         0
         0         0         0         0         0         0         0         0
         0         0         0         0         0         0         0         0
         0         0         0         0         0         0         0         0
         0         0         0         0         0         0         0         0
         0         0         0         0         0         0         0         0
         0         0         0         0         0         0         0         0
         0         0         0         0         0         0         0         0
         0         0         0         0         0         0         0         0
         0         0         0         0         0         0         0         0
         0         0         0         0         0         0         0         0
         0         0         0         0         0         0         0         0
         0         0         0         0         0         0         0         0
         0         0         0         0         0         0         0         0
         0         0         0         0         0         0         0         0
         0         0         0         0         0         0         0         0
         0         0         0         0         0         0         0         0
         0         0         0         0         0         0         0         0
         0         0         0         0         0         0         0         0
         0         0         0         0         0         0         0         0
         0         0         0         0         0         0         0         0
         0         0         0         0         0         0         0         0
         0         0         0         0         0         0         0         0
         0         0         0         0         0         0         0         0
         0         0         0         0         0         0         0         0
         0         0         0         0         0         0         0         0
         0         0         0         0         0         0         0         0
         0         0         0         0         0         0         0         0
         0         0         0         0         0         0         0         0
         0         0         0         0         0         0         0         0
         0         0         0         0         0         0         0         0
         0         0         0         0         0         0         0         0
         0         0         0         0         0         0         0         0
         0         0         0         0         0         0         0         0
         0         0         0         0         0         0         0         0
         0         0         0         0         0         0         0         0
         0         0         0         0         0         0         0         0
         0         0         0         0         0         0         0         0
         0         0         0         0         0         0         0         0
         0         0         0         0         0         0         0         0
         0         0         0         0         0         0         0         0
         0         0         0         0         0         0         0         0
         0         0         0         0         0         0         0         0
         0         0         0         0         0         0         0         0
         0         0         0         0         0         0         0         0
         0         0         0         0         0         0         0         0
         0         0         0         0         0         0         0         0
         0         0         0         0         0         0         0         0
         0         0         0         0         0         0         0         0
         0         0         0         0         0         0         0         0
         0         0         0         0         0         0         0         0
         0         0         0         0         0         0         0         0
         0         0         0         0         0         0         0         0
         0         0         0         0         0         0         0         0
         0         0         0         0         0         0         0         0
         0         0         0         0         0         0         0         0
         0         0         0         0         0         0         0         0
         0         0         0         0         0         0         0         0
         0         0         0         0         0         0         0         0
         0         0         0         0         0         0         0         0
         0         0         0         0         0         0         0         0
         0         0         0         0         0         0         0         0
         0         0         0         0         0         0         0         0
         0         0         0         0         0         0         0         0
         0         0         0         0         0         0         0         0
         0         0         0         0         0         0         0         0
         0         0         0         0         0         0         0         0
         0         0         0         0         0         0         0         0
         0         0         0         0         0         0         0         0
         0         0         0         0         0         0         0         0
         0         0         0         0         0         0         0         0
         0         0         0         0         0         0         0         0
         0         0         0         0         0         0         0         0
         0         0         0         0         0         0         0         0
         0         0         0         0         0         0         0         0
         0         0         0         0         0         0         0         0
         0         0         0         0         0         0         0         0
         0         0         0         0         0         0         0         0
         0         0         0         0         0         0         0         0
         0         0         0         0         0         0         0         0
         0         0         0         0         0         0         0         0
         0         0         0         0         0         0         0         0
         0         0         0         0         0         0         0         0
         0         0         0         0         0         0         0         0
         0         0         0         0         0         0         0         0
         0         0         0         0         0         0         0         0
         0         0         0         0         0         0         0         0
         0         0         0         0         0         0         0         0
         0         0         0         0         0         0         0         0
         0         0         0         0         0         0         0         0
         0         0         0         0         0         0         0         0
         0         0         0         0         0         0         0         0
         0         0         0         0         0         0         0         0
         0         0         0         0         0         0         0         0
         0         0         0         0         0         0         0         0
         0         0         0         0         0         0         0         0
         0         0         0         0         0         0         0         0
         0         0         0         0         0         0         0         0
         0         0         0         0         0         0         0         0
         0         0         0         0         0         0         0         0
         0         0         0         0         0         0         0         0
         0         0         0         0         0         0         0         0
         0         0         0         0         0         0         0         0
         0         0         0         0         0         0         0         0
         0         0         0         0         0         0         0         0
         0         0         0         0         0         0         0         0
         0         0         0         0         0         0         0         0
         0         0         0         0         0         0         0         0
         0         0         0         0         0         0         0         0
         0         0         0         0         0         0         0         0
         0         0         0         0         0         0         0         0
         0         0         0         0         0         0         0         0
         0         0         0         0         0         0         0         0
         0         0         0         0         0         0         0         0
         0         0         0         0         0         0         0         0
         0         0         0         0         0         0         0         0
         0         0         0         0         0         0         0         0
         0         0         0         0         0         0         0         0
         0         0         0         0         0         0         0         0
         0         0         0         0         0         0         0         0
         0         0         0         0         0         0         0         0
         0         0         0         0         0         0         0         0
         0         0         0         0         0         0         0         0
         0         0         0         0         0         0         0         0
         0         0         0         0         0         0         0         0
         0         0         0         0         0         0         0         0
         0         0         0         0         0         0         0         0
         0         0         0         0         0         0         0         0
         0         0         0         0         0         0         0         0
         0         0         0         0         0         0         0         0
         0         0         0         0         0         0         0         0
         0         0         0         0         0         0         0         0
         0         0         0         0         0         0         0         0
         0         0         0         0         0         0         0         0
         0         0         0         0         0         0         0         0
         0         0         0         0         0         0         0         0
         0         0         0         0         0         0         0         0
         0         0         0         0         0         0         0         0
         0         0         0         0         0         0         0         0
         0         0         0         0         0         0         0         0
         0         0         0         0         0         0         0         0
         0         0         0         0         0         0         0         0
         0         0         0         0         0         0         0         0
         0         0         0         0         0         0         0         0
         0         0         0         0         0         0         0         0
         0         0         0         0         0         0         0         0
         0         0         0         0         0         0         0         0
         0         0         0         0         0         0         0         0
         0         0         0         0         0         0         0         0
         0         0         0         0         0         0         0         0
         0         0         0         0         0         0         0         0
         0         0         0         0         0         0         0         0
         0         0         0         0         0         0         0         0
         0         0         0         0         0         0         0         0
         0         0         0         0         0         0         0         0
         0         0         0         0         0         0         0         0
         0         0         0         0         0         0         0         0
         0         0         0         0         0         0         0         0
         0         0         0         0         0         0         0         0
         0         0         0         0         0         0         0         0
         0         0         0         0         0         0         0         0
         0         0         0         0         0         0         0         0
         0         0         0         0         0         0         0         0
         0         0         0         0         0         0         0         0
         0         0         0         0         0         0         0         0
         0         0         0         0         0         0         0         0
         0         0         0         0         0         0         0         0
         0         0         0         0         0         0         0         0
         0         0         0         0         0         0         0         0
         0         0         0         0         0         0         0         0
         0         0         0         0         0         0         0         0
         0         0         0         0         0         0         0         0
         0         0         0         0         0         0         0         0
         0         0         0         0         0         0         0         0
         0         0         0         0         0         0         0         0
         0         0         0         0         0         0         0         0
         0         0         0         0         0         0         0         0
         0         0         0         0         0         0         0         0
         0         0         0         0         0         0         0         0
         0         0         0         0         0         0         0         0
         0         0         0         0         0         0         0         0
         0         0         0         0         0         0         0         0
         0         0         0         0         0         0         0         0
         0         0         0         0         0         0         0         0
         0         0         0         0         0         0         0         0
         0         0         0         0         0         0         0         0
         0         0         0         0         0         0         0         0
         0         0         0         0         0         0         0         0
         0         0         0         0         0         0         0         0
         0         0         0         0         0         0         0         0
         0         0         0         0         0         0         0         0
         0         0         0         0         0         0         0         0
         0         0         0         0         0         0         0         0
         0         0         0         0         0         0         0         0
         0         0         0         0         0         0         0         0
         0         0         0         0         0         0         0         0
         0         0         0         0         0         0         0         0
         0         0         0         0         0         0         0         0
         0         0         0         0         0         0         0         0
         0         0         0         0         0         0         0         0
         0         0         0         0         0         0         0         0
         0         0         0         0         0         0         0         0
         0         0         0         0         0         0         0         0
         0         0         0         0         0         0         0         0
         0         0         0         0         0         0         0         0
         0         0         0         0         0         0         0         0
         0         0         0         0         0         0         0         0
         0         0         0         0         0         0         0         0
         0         0         0         0         0         0         0         0
         0         0         0         0         0         0         0         0
         0         0         0         0         0         0         0         0
         0         0         0         0         0         0         0         0
         0         0         0         0         0         0         0         0
         0         0         0         0         0         0         0         0
         0         0         0         0         0         0         0         0
         0         0         0         0         0         0         0         0
         0         0         0         0         0         0         0         0
         0         0         0         0         0         0         0         0
         0         0         0         0         0         0         0         0
         0         0         0         0         0         0         0         0
         0         0         0         0         0         0         0         0
         0         0         0         0         0         0         0         0
         0         0         0         0         0         0         0         0
         0         0         0         0         0         0         0         0
         0         0         0         0         0         0         0         0
         0         0         0         0         0         0         0         0
         0         0         0         0         0         0         0         0
         0         0         0         0         0         0         0         0
         0         0         0         0         0         0         0         0
         0         0         0         0         0         0         0         0
         0         0         0         0         0         0         0         0
         0         0         0         0         0         0         0         0
         0         0         0         0         0         0         0         0
         0         0         0         0         0         0         0         0
         0         0         0         0         0         0         0         0
         0         0         0         0         0         0         0         0
         0         0         0         0         0         0         0         0
         0         0         0         0         0         0         0         0
         0         0         0         0         0         0         0         0
         0         0         0         0         0         0         0         0
         0         0         0         0         0         0         0         0
         0         0         0         0         0         0         0         0
         0         0         0         0         0         0         0         0
         0         0         0         0         0         0         0         0
         0         0         0         0         0         0         0         0
         0         0         0         0         0         0         0         0
         0         0         0         0         0         0         0         0
         0         0         0         0         0         0         0         0
         0         0         0         0         0         0         0         0
         0         0         0         0         0         0         0         0
         0         0         0         0         0         0         0         0
         0         0         0         0         0         0         0         0
         0         0         0         0         0         0         0         0
         0         0         0         0         0         0         0         0
         0         0         0         0         0         0         0         0
         0         0         0         0         0         0         0         0
         0         0         0         0         0         0         0         0
         0         0         0         0         0         0         0         0
         0         0         0         0         0         0         0         0
         0         0         0         0         0         0         0         0
         0         0         0         0         0         0         0         0
         0         0         0         0         0         0         0         0
         0         0         0         0         0         0         0         0
         0         0         0         0         0         0         0         0
         0         0         0         0         0         0         0         0
         0         0         0         0         0         0         0         0
         0         0         0         0         0         0         0         0
         0         0         0         0         0         0         0         0
         0         0         0         0         0         0         0         0
         0         0         0         0         0         0         0         0
         0         0         0         0         0         0         0         0
         0         0         0         0         0         0         0         0
         0         0         0         0         0         0         0         0
         0         0         0         0         0         0         0         0
         0         0         0         0         0         0         0         0
         0         0         0         0         0         0         0         0
         0         0         0         0         0         0         0         0
         0         0         0         0         0         0         0         0
         0         0         0         0         0         0         0         0
         0         0         0         0         0         0         0         0
         0         0         0         0         0         0         0         0
         0         0         0         0         0         0         0         0
         0         0         0         0         0         0         0         0
         0         0         0         0         0         0         0         0
         0         0         0         0         0         0         0         0
         0         0         0         0         0         0         0         0
         0         0         0         0         0         0         0         0
         0         0         0         0         0         0         0         0
         0         0         0         0         0         0         0         0
         0         0         0         0         0         0         0         0
         0         0         0         0         0         0         0         0
         0         0         0         0         0         0         0         0
         0         0         0         0         0         0         0         0
         0         0         0         0         0         0         0         0
         0         0         0         0         0         0         0         0
         0         0         0         0         0         0         0         0
         0         0         0         0         0         0         0         0
         0         0         0         0         0         0         0         0
         0         0         0         0         0         0         0         0
         0         0         0         0         0         0         0         0
         0         0         0         0         0         0         0         0
         0         0         0         0         0         0         0         0
         0         0         0         0         0         0         0         0
         0         0         0         0         0         0         0         0
         0         0         0         0         0         0         0         0
         0         0         0         0         0         0         0         0
         0         0         0         0         0         0         0         0
         0         0         0         0         0         0         0         0
         0         0         0         0         0         0         0         0
         0         0         0         0         0         0         0         0
         0         0         0         0         0         0         0         0
         0         0         0         0         0         0         0         0
         0         0         0         0         0         0         0         0
         0         0         0         0         0         0         0         0
         0         0         0         0         0         0         0         0
         0         0         0         0         0         0         0         0
         0         0         0         0         0         0         0         0
         0         0         0         0         0         0         0         0
         0         0         0         0         0         0         0         0
         0         0         0         0         0         0         0         0
         0         0         0         0         0         0         0         0
         0         0         0         0         0         0         0         0
         0         0         0         0         0         0         0         0
         0         0         0         0         0         0         0         0
         0         0         0         0         0         0         0         0
         0         0         0         0         0         0         0         0
         0         0         0         0         0         0         0         0
         0         0         0         0         0         0         0         0
         0         0         0         0         0         0         0         0
         0         0         0         0         0         0         0         0
         0         0         0         0         0         0         0         0
         0         0         0         0         0         0         0         0
         0         0         0         0         0         0         0         0
         0         0         0         0         0         0         0         0
         0         0         0         0         0         0         0         0
         0         0         0         0         0         0         0         0
         0         0         0         0         0         0         0         0
         0         0         0         0         0         0         0         0
         0         0         0         0         0         0         0         0
         0         0         0         0         0         0         0         0
         0         0         0         0         0         0         0         0
         0         0         0         0         0         0         0         0
         0         0         0         0         0         0         0         0
         0         0         0         0         0         0         0         0
         0         0         0         0         0         0         0         0
         0         0         0         0         0         0         0         0
         0         0         0         0         0         0         0         0
         0         0         0         0         0         0         0         0
         0         0         0         0         0         0         0         0
         0         0         0         0         0         0         0         0
         0         0         0         0         0         0         0         0
         0         0         0         0         0         0         0         0
         0         0         0         0         0         0         0         0
         0         0         0         0         0         0         0         0
         0         0         0         0         0         0         0         0
         0         0         0         0         0         0         0         0
         0         0         0         0         0         0         0         0
         0         0         0         0         0         0         0         0
         0         0         0         0         0         0         0         0
         0         0         0         0         0         0         0         0
         0         0         0         0         0         0         0         0
         0         0         0         0         0         0         0         0
         0         0         0         0         0         0         0         0
         0         0         0         0         0         0         0         0
         0         0         0         0         0         0         0         0
         0         0         0         0         0         0         0         0
         0         0         0         0         0         0         0         0
         0         0         0         0         0         0         0         0
         0         0         0         0         0         0         0         0
         0         0         0         0         0         0         0         0
         0         0         0         0         0         0         0         0
         0         0         0         0         0         0         0         0
         0         0         0         0         0         0         0         0
         0         0         0         0         0         0         0         0
         0         0         0         0         0         0         0         0
         0         0         0         0         0         0         0         0
         0         0         0         0         0         0         0         0
         0         0         0         0         0         0         0         0
         0         0         0         0         0         0         0         0
         0         0         0         0         0         0         0         0
         0         0         0         0         0         0         0         0
         0         0         0         0         0         0         0         0
         0         0         0         0         0         0         0         0
         0         0         0         0         0         0         0         0
         0         0         0         0         0         0         0         0
         0         0         0         0         0         0         0         0
         0         0         0         0         0         0         0         0
         0         0         0         0         0         0         0         0
         0         0         0         0         0         0         0         0
         0         0         0         0         0         0         0         0
         0         0         0         0         0         0         0         0
         0         0         0         0         0         0         0         0
         0         0         0         0         0         0         0         0
         0         0         0         0         0         0         0         0
         0         0         0         0         0         0         0         0
         0         0         0         0         0         0         0         0
         0         0         0         0         0         0         0         0
         0         0         0         0         0         0         0         0
         0         0         0         0         0         0         0         0
         0         0         0         0         0         0         0         0
         0         0         0         0         0         0         0         0
         0         0         0         0         0         0         0         0
         0         0         0         0         0         0         0         0
         0         0         0         0         0         0         0         0
         0         0         0         0         0         0         0         0
         0         0         0         0         0         0         0         0
         0         0         0         0         0         0         0         0
         0         0         0         0         0         0         0         0
         0         0         0         0         0         0         0         0
         0         0         0         0         0         0         0         0
         0         0         0         0         0         0         0         0
         0         0         0         0         0         0         0         0
         0         0         0         0         0         0         0         0
         0         0         0         0         0         0         0         0
         0         0         0         0         0         0         0         0
         0         0         0         0         0         0         0         0
         0         0         0         0         0         0         0         0
         0         0         0         0         0         0         0         0
         0         0         0         0         0         0         0         0
         0         0         0         0         0         0         0         0
         0         0         0         0         0         0         0         0
         0         0         0         0         0         0         0         0
         0         0         0         0         0         0         0         0
         0         0         0         0         0         0         0         0
         0         0         0         0         0         0         0         0
         0         0         0         0         0         0         0         0
         0         0         0         0         0         0         0         0
         0         0         0         0         0         0         0         0
         0         0         0         0         0         0         0         0
         0         0         0         0         0         0         0         0
         0         0         0         0         0         0         0         0
         0         0         0         0         0         0         0         0
         0         0         0         0         0         0         0         0
         0         0         0         0         0         0         0         0
         0         0         0         0         0         0         0         0
         0         0         0         0         0         0         0         0
         0         0         0         0         0         0         0         0
         0         0         0         0         0         0         0         0
         0         0         0         0         0         0         0         0
         0         0         0         0         0         0         0         0
         0         0         0         0         0         0         0         0
         0         0         0         0         0         0         0         0
         0         0         0         0         0         0         0         0
         0         0         0         0         0         0         0         0
         0         0         0         0         0         0         0         0
         0         0         0         0         0         0         0         0
         0         0         0         0         0         0         0         0
         0         0         0         0         0         0         0         0
         0         0         0         0         0         0         0         0
         0         0         0         0         0         0         0         0
         0         0         0         0         0         0         0         0
         0         0         0         0         0         0         0         0
         0         0         0         0         0         0         0         0
         0         0         0         0         0         0         0         0
         0         0         0         0         0         0         0         0
         0         0         0         0         0         0         0         0
         0         0         0         0         0         0         0         0
         0         0         0         0         0         0         0         0
         0         0         0         0         0         0         0         0
         0         0         0         0         0         0         0         0
         0         0         0         0         0         0         0         0
         0         0         0         0         0         0         0         0
         0         0         0         0         0         0         0         0
         0         0         0         0         0         0         0         0
         0         0         0         0         0         0         0         0
         0         0         0         0         0         0         0         0
         0         0         0         0         0         0         0         0
         0         0         0         0         0         0         0         0
         0         0         0         0         0         0         0         0
         0         0         0         0         0         0         0         0
         0         0         0         0         0         0         0         0
         0         0         0         0         0         0         0         0
         0         0         0         0         0         0         0         0
         0         0         0         0         0         0         0         0
         0         0         0         0         0         0         0         0
         0         0         0         0         0         0         0         0
         0         0         0         0         0         0         0         0
         0         0         0         0         0         0         0         0
         0         0         0         0         0         0         0         0
         0         0         0         0         0         0         0         0
         0         0         0         0         0         0         0         0
         0         0         0         0         0         0         0         0
         0         0         0         0         0         0         0         0
         0         0         0         0         0         0         0         0
         0         0         0         0         0         0         0         0
         0         0         0         0         0         0         0         0
         0         0         0         0         0         0         0         0
         0         0         0         0         0         0         0         0
         0         0         0         0         0         0         0         0
         0         0         0         0         0         0         0         0
         0         0         0         0         0         0         0         0
         0         0         0         0         0         0         0         0
         0         0         0         0         0         0         0         0
         0         0         0         0         0         0         0         0
         0         0         0         0         0         0         0         0
         0         0         0         0         0         0         0         0
         0         0         0         0         0         0         0         0
         0         0         0         0         0         0         0         0
         0         0         0         0         0         0         0         0
         0         0         0         0         0         0         0         0
         0         0         0         0         0         0         0         0
         0         0         0         0         0         0         0         0
         0         0         0         0         0         0         0         0
         0         0         0         0         0         0         0         0
         0         0         0         0         0         0         0         0
         0         0         0         0         0         0         0         0
         0         0         0         0         0         0         0         0
         0         0         0         0         0         0         0         0
         0         0         0         0         0         0         0         0
         0         0         0         0         0         0         0         0
         0         0         0         0         0         0         0         0
         0         0         0         0         0         0         0         0
         0         0         0         0         0         0         0         0
         0         0         0         0         0         0         0         0
         0         0         0         0         0         0         0         0
         0         0         0         0         0         0         0         0
         0         0         0         0         0         0         0         0
         0         0         0         0         0         0         0         0
         0         0         0         0         0         0         0         0
         0         0         0         0         0         0         0         0
         0         0         0         0         0         0         0         0
         0         0         0         0         0         0         0         0
         0         0         0         0         0         0         0         0
         0         0         0         0         0         0         0         0
         0         0         0         0         0         0         0         0
         0         0         0         0         0         0         0         0
         0         0         0         0         0         0         0         0
         0         0         0         0         0         0         0         0
         0         0         0         0         0         0         0         0
         0         0         0         0         0         0         0         0
         0         0         0         0         0         0         0         0
         0         0         0         0         0         0         0         0
         0         0         0         0         0         0         0         0
         0         0         0         0         0         0         0         0
         0         0         0         0         0         0         0         0
         0         0         0         0         0         0         0         0
         0         0         0         0         0         0         0         0
         0         0         0         0         0         0         0         0
         0         0         0         0         0         0         0         0
         0         0         0         0         0         0         0         0
         0         0         0         0         0         0         0         0
         0         0         0         0         0         0         0         0
         0         0         0         0         0         0         0         0
         0         0         0         0         0         0         0         0
         0         0         0         0         0         0         0         0
         0         0         0         0         0         0         0         0
         0         0         0         0         0         0         0         0
         0         0         0         0         0         0         0         0
         0         0         0         0         0         0         0         0
         0         0         0         0         0         0         0         0
         0         0         0         0         0         0         0         0
         0         0         0         0         0         0         0         0
         0         0         0         0         0         0         0         0
         0         0         0         0         0         0         0         0
         0         0         0         0         0         0         0         0
         0         0         0         0         0         0         0         0
         0         0         0         0         0         0         0         0
         0         0         0         0         0         0         0         0
         0         0         0         0         0         0         0         0
         0         0         0         0         0         0         0         0
         0         0         0         0         0         0         0         0
         0         0         0         0         0         0         0         0
         0         0         0         0         0         0         0         0
         0         0         0         0         0         0         0         0
         0         0         0         0         0         0         0         0
         0         0         0         0         0         0         0         0
         0         0         0         0         0         0         0         0
         0         0         0         0         0         0         0         0
         0         0         0         0         0         0         0         0
         0         0         0         0         0         0         0         0
         0         0         0         0         0         0         0         0
         0         0         0         0         0         0         0         0
         0         0         0         0         0         0         0         0
         0         0         0         0         0         0         0         0
         0         0         0         0         0         0         0         0
         0         0         0         0         0         0         0         0
         0         0         0         0         0         0         0         0
         0         0         0         0         0         0         0         0
         0         0         0         0         0         0         0         0
         0         0         0         0         0         0         0         0
         0         0         0         0         0         0         0         0
         0         0         0         0         0         0         0         0
         0         0         0         0         0         0         0         0
         0         0         0         0         0         0         0         0
         0         0         0         0         0         0         0         0
         0         0         0         0         0         0         0         0
         0         0         0         0         0         0         0         0
         0         0         0         0         0         0         0         0
         0         0         0         0         0         0         0         0
         0         0         0         0         0         0         0         0
         0         0         0         0         0         0         0         0
         0         0         0         0         0         0         0         0
         0         0         0         0         0         0         0         0
         0         0         0         0         0         0         0         0
         0         0         0         0         0         0         0         0
         0         0         0         0         0         0         0         0
         0         0         0         0         0         0         0         0
         0         0         0         0         0         0         0         0
         0         0         0         0         0         0         0         0
         0         0         0         0         0         0         0         0
         0         0         0         0         0         0         0         0
         0         0         0         0         0         0         0         0
         0         0         0         0         0         0         0         0
         0         0         0         0         0         0         0         0
         0         0         0         0         0         0         0         0
         0         0         0         0         0         0         0         0
         0         0         0         0         0         0         0         0
         0         0         0         0         0         0         0         0
         0         0         0         0         0         0         0         0
         0         0         0         0         0         0         0         0
         0         0         0         0         0         0         0         0
         0         0         0         0         0         0         0         0
         0         0         0         0         0         0         0         0
         0         0         0         0         0         0         0         0
         0         0         0         0         0         0         0         0
         0         0         0         0         0         0         0         0
         0         0         0         0         0         0         0         0
         0         0         0         0         0         0         0         0
         0         0         0         0         0         0         0         0
         0         0         0         0         0         0         0         0
         0         0         0         0         0         0         0         0
         0         0         0         0         0         0         0         0
         0         0         0         0         0         0         0         0
         0         0         0         0         0         0         0         0
         0         0         0         0         0         0         0         0
         0         0         0         0         0         0         0         0
         0         0         0         0         0         0         0         0
         0         0         0         0         0         0         0         0
         0         0         0         0         0         0         0         0
         0         0         0         0         0         0         0         0
         0         0         0         0         0         0         0         0
         0         0         0         0         0         0         0         0
         0         0         0         0         0         0         0         0
         0         0         0         0         0         0         0         0
         0         0         0         0         0         0         0         0
         0         0         0         0         0         0         0         0
         0         0         0         0         0         0         0         0
         0         0         0         0         0         0         0         0
         0         0         0         0         0         0         0         0
         0         0         0         0         0         0         0         0
         0         0         0         0         0         0         0         0
         0         0         0         0         0         0         0         0
         0         0         0         0         0         0         0         0
         0         0         0         0         0         0         0         0
         0         0         0         0         0         0         0         0
         0         0         0         0         0         0         0         0
         0         0         0         0         0         0         0         0
         0         0         0         0         0         0         0         0
         0         0         0         0         0         0         0         0
         0         0         0         0         0         0         0         0
         0         0         0         0         0         0         0         0
         0         0         0         0         0         0         0         0
         0         0         0         0         0         0         0         0
         0         0         0         0         0         0         0         0
         0         0         0         0         0         0         0         0
         0         0         0         0         0         0         0         0
         0         0         0         0         0         0         0         0
         0         0         0         0         0         0         0         0
         0         0         0         0         0         0         0         0
         0         0         0         0         0         0         0         0
         0         0         0         0         0         0         0         0
         0         0         0         0         0         0         0         0
         0         0         0         0         0         0         0         0
         0         0         0         0         0         0         0         0
         0         0         0         0         0         0         0         0
         0         0         0         0         0         0         0         0
         0         0         0         0         0         0         0         0
         0         0         0         0         0         0         0         0
         0         0         0         0         0         0         0         0
         0         0         0         0         0         0         0         0
         0         0         0         0         0         0         0         0
         0         0         0         0         0         0         0         0
         0         0         0         0         0         0         0         0
         0         0         0         0         0         0         0         0
         0         0         0         0         0         0         0         0
         0         0         0         0         0         0         0         0
         0         0         0         0         0         0         0         0
         0         0         0         0         0         0         0         0
         0         0         0         0         0         0         0         0
         0         0         0         0         0         0         0         0
         0         0         0         0         0         0         0         0
         0         0         0         0         0         0         0         0
         0         0         0         0         0         0         0         0
         0         0         0         0         0         0         0         0
         0         0         0         0         0         0         0         0
         0         0         0         0         0         0         0         0
         0         0         0         0         0         0         0         0
         0         0         0         0         0         0         0         0
         0         0         0         0         0         0         0         0
         0         0         0         0         0         0         0         0
         0         0         0         0         0         0         0         0
         0         0         0         0         0         0         0         0
         0         0         0         0         0         0         0         0
         0         0         0         0         0         0         0         0
         0         0         0         0         0         0         0         0
         0         0         0         0         0         0         0         0
         0         0         0         0         0         0         0         0
         0         0         0         0         0         0         0         0
         0         0         0         0         0         0         0         0
         0         0         0         0         0         0         0         0
         0         0         0         0         0         0         0         0
         0         0         0         0         0         0         0         0
         0         0         0         0         0         0         0         0
         0         0         0         0         0         0         0         0
         0         0         0         0         0         0         0         0
         0         0         0         0         0         0         0         0
         0         0         0         0         0         0         0         0
         0         0         0         0         0         0         0         0
         0         0         0         0         0         0         0         0
         0         0         0         0         0         0         0         0
         0         0         0         0         0         0         0         0
         0         0         0         0         0         0         0         0
         0         0         0         0         0         0         0         0
         0         0         0         0         0         0         0         0
         0         0         0         0         0         0         0         0
         0         0         0         0         0         0         0         0
         0         0         0         0         0         0         0         0
         0         0         0         0         0         0         0         0
         0         0         0         0         0         0         0         0
         0         0         0         0         0         0         0         0
         0         0         0         0         0         0         0         0
         0         0         0         0         0         0         0         0
         0         0         0         0         0         0         0         0
         0         0         0         0         0         0         0         0
         0         0         0         0         0         0         0         0
         0         0         0         0         0         0         0         0
         0         0         0         0         0         0         0         0
         0         0         0         0         0         0         0         0
         0         0         0         0         0         0         0         0
         0         0         0         0         0         0         0         0
         0         0         0         0         0         0         0         0
         0         0         0         0         0         0         0         0
         0         0         0         0         0         0         0         0
         0         0         0         0         0         0         0         0
         0         0         0         0         0         0         0         0
         0         0         0         0         0         0         0         0
         0         0         0         0         0         0         0         0
         0         0         0         0         0         0         0         0
         0         0         0         0         0         0         0         0
         0         0         0         0         0         0         0         0
         0         0         0         0         0         0         0         0
         0         0         0         0         0         0         0         0
         0         0         0         0         0         0         0         0
         0         0         0         0         0         0         0         0
         0         0         0         0         0         0         0         0
         0         0         0         0         0         0         0         0
         0         0         0         0         0         0         0         0
         0         0         0         0         0         0         0         0
         0         0         0         0         0         0         0         0
         0         0         0         0         0         0         0         0
         0         0         0         0         0         0         0         0
         0         0         0         0         0         0         0         0
         0         0         0         0         0         0         0         0
         0         0         0         0         0         0         0         0
         0         0         0         0         0         0         0         0
         0         0         0         0         0         0         0         0
         0         0         0         0         0         0         0         0
         0         0         0         0         0         0         0         0
         0         0         0         0         0         0         0         0
         0         0         0         0         0         0         0         0
         0         0         0         0         0         0         0         0
         0         0         0         0         0         0         0         0
         0         0         0         0         0         0         0         0
         0         0         0         0         0         0         0         0
         0         0         0         0         0         0         0         0
         0         0         0         0         0         0         0         0
         0         0         0         0         0         0         0         0
         0         0         0         0         0         0         0         0
         0         0         0         0         0         0         0         0
         0         0         0         0         0         0         0         0
         0         0         0         0         0         0         0         0
         0         0         0         0         0         0         0         0
         0         0         0         0         0         0         0         0
         0         0         0         0         0         0         0         0
         0         0         0         0         0         0         0         0
         0         0         0         0         0         0         0         0
         0         0         0         0         0         0         0         0
         0         0         0         0         0         0         0         0
         0         0         0         0         0         0         0         0
         0         0         0         0         0         0         0         0
         0         0         0         0         0         0         0         0
         0         0         0         0         0         0         0         0
         0         0         0         0         0         0         0         0
         0         0         0         0         0         0         0         0
         0         0         0         0         0         0         0         0
         0         0         0         0         0         0         0         0
         0         0         0         0         0         0         0         0
         0         0         0         0         0         0         0         0
         0         0         0         0         0         0         0         0
         0         0         0         0         0         0         0         0
         0         0         0         0         0         0         0         0
         0         0         0         0         0         0         0         0
         0         0         0         0         0         0         0         0
         0         0         0         0         0         0         0         0
         0         0         0         0         0         0         0         0
         0         0         0         0         0         0         0         0
         0         0         0         0         0         0         0         0
         0         0         0         0         0         0         0         0
         0         0         0         0         0         0         0         0
         0         0         0         0         0         0         0         0
         0         0         0         0         0         0         0         0
         0         0         0         0         0         0         0         0
         0         0         0         0         0         0         0         0
         0         0         0         0         0         0         0         0
         0         0         0         0         0         0         0         0
         0         0         0         0         0         0         0         0
         0         0         0         0         0         0         0         0
         0         0         0         0         0         0         0         0
         0         0         0         0         0         0         0         0
         0         0         0         0         0         0         0         0
         0         0         0         0         0         0         0         0
         0         0         0         0         0         0         0         0
         0         0         0         0         0         0         0         0
         0         0         0         0         0         0         0         0
         0         0         0         0         0         0         0         0
         0         0         0         0         0         0         0         0
         0         0         0         0         0         0         0         0
         0         0         0         0         0         0         0         0
         0         0         0         0         0         0         0         0
         0         0         0         0         0         0         0         0
         0         0         0         0         0         0         0         0
         0         0         0         0         0         0         0         0
         0         0         0         0         0         0         0         0
         0         0         0         0         0         0         0         0
         0         0         0         0         0         0         0         0
         0         0         0         0         0         0         0         0
         0         0         0         0         0         0         0         0
         0         0         0         0         0         0         0         0
         0         0         0         0         0         0         0         0
         0         0         0         0         0         0         0         0
         0         0         0         0         0         0         0         0
         0         0         0         0         0         0         0         0
         0         0         0         0         0         0         0         0
         0         0         0         0         0         0         0         0
         0         0         0         0         0         0         0         0
         0         0         0         0         0         0         0         0
         0         0         0         0         0         0         0         0
         0         0         0         0         0         0         0         0
         0         0         0         0         0         0         0         0
         0         0         0         0         0         0         0         0
         0         0         0         0         0         0         0         0
         0         0         0         0         0         0         0         0
         0         0         0         0         0         0         0         0
         0         0         0         0         0         0         0         0
         0         0         0         0         0         0         0         0
         0         0         0         0         0         0         0         0
         0         0         0         0         0         0         0         0
         0         0         0         0         0         0         0         0
         0         0         0         0         0         0         0         0
         0         0         0         0         0         0         0         0
         0         0         0         0         0         0         0         0
         0         0         0         0         0         0         0         0
         0         0         0         0         0         0         0         0
         0         0         0         0         0         0         0         0
         0         0         0         0         0         0         0         0
         0         0         0         0         0         0         0         0
         0         0         0         0         0         0         0         0
         0         0         0         0         0         0         0         0
         0         0         0         0         0         0         0         0
         0         0         0         0         0         0         0         0
         0         0         0         0         0         0         0         0
         0         0         0         0         0         0         0         0
         0         0         0         0         0         0         0         0
         0         0         0         0         0         0         0         0
         0         0         0         0         0         0         0         0
         0         0         0         0         0         0         0         0
         0         0         0         0         0         0         0         0
         0         0         0         0         0         0         0         0
         0         0         0         0         0         0         0         0
         0         0         0         0         0         0         0         0
         0         0         0         0         0         0         0         0
         0         0         0         0         0         0         0         0
         0         0         0         0         0         0         0         0
         0         0         0         0         0         0         0         0
         0         0         0         0         0         0         0         0
         0         0         0         0         0         0         0         0
         0         0         0         0         0         0         0         0
         0         0         0         0         0         0         0         0
         0         0         0         0         0         0         0         0
         0         0         0         0         0         0         0         0
         0         0         0         0         0         0         0         0
         0         0         0         0         0         0         0         0
         0         0         0         0         0         0         0         0
         0         0         0         0         0         0         0         0
         0         0         0         0         0         0         0         0
         0         0         0         0         0         0         0         0
         0         0         0         0         0         0         0         0
         0         0         0         0         0         0         0         0
         0         0         0         0         0         0         0         0
         0         0         0         0         0         0         0         0
         0         0         0         0         0         0         0         0
         0         0         0         0         0         0         0         0
         0         0         0         0         0         0         0         0
         0         0         0         0         0         0         0         0
         0         0         0         0         0         0         0         0
         0         0         0         0         0         0         0         0
         0         0         0         0         0         0         0         0
         0         0         0         0         0         0         0         0
         0         0         0         0         0         0         0         0
         0         0         0         0         0         0         0         0
         0         0         0         0         0         0         0         0
         0         0         0         0         0         0         0         0
         0         0         0         0         0         0         0         0
         0         0         0         0         0         0         0         0
         0         0         0         0         0         0         0         0
         0         0         0         0         0         0         0         0
         0         0         0         0         0         0         0         0
         0         0         0         0         0         0         0         0
         0         0         0         0         0         0         0         0
         0         0         0         0         0         0         0         0
         0         0         0         0         0         0         0         0
         0         0         0         0         0         0         0         0
         0         0         0         0         0         0         0         0
         0         0         0         0         0         0         0         0
         0         0         0         0         0         0         0         0
         0         0         0         0         0         0         0         0
         0         0         0         0         0         0         0         0
         0         0         0         0         0         0         0         0
         0         0         0         0         0         0         0         0
         0         0         0         0         0         0         0         0
         0         0         0         0         0         0         0         0
         0         0         0         0         0         0         0         0
         0         0         0         0         0         0         0         0
         0         0         0         0         0         0         0         0
         0         0         0         0         0         0         0         0
         0         0         0         0         0         0         0         0
         0         0         0         0         0         0         0         0
         0         0         0         0         0         0         0         0
         0         0         0         0         0         0         0         0
         0         0         0         0         0         0         0         0
         0         0         0         0         0         0         0         0
         0         0         0         0         0         0         0         0
         0         0         0         0         0         0         0         0
         0         0         0         0         0         0         0         0
         0         0         0         0         0         0         0         0
         0         0         0         0         0         0         0         0
         0         0         0         0         0         0         0         0
         0         0         0         0         0         0         0         0
         0         0         0         0         0         0         0         0
         0         0         0         0         0         0         0         0
         0         0         0         0         0         0         0         0
         0         0         0         0         0         0         0         0
         0         0         0         0         0         0         0         0
         0         0         0         0         0         0         0         0
         0         0         0         0         0         0         0         0
         0         0         0         0         0         0         0         0
         0         0         0         0         0         0         0         0
         0         0         0         0         0         0         0         0
         0         0         0         0         0         0         0         0
         0         0         0         0         0         0         0         0
         0         0         0         0         0         0         0         0
         0         0         0         0         0         0         0         0
         0         0         0         0         0         0         0         0
         0         0         0         0         0         0         0         0
         0         0         0         0         0         0         0         0
         0         0         0         0         0         0         0         0
         0         0         0         0         0         0         0         0
         0         0         0         0         0         0         0         0
         0         0         0         0         0         0         0         0
         0         0         0         0         0         0         0         0
         0         0         0         0         0         0         0         0
         0         0         0         0         0         0         0         0
         0         0         0         0         0         0         0         0
         0         0         0         0         0         0         0         0
         0         0         0         0         0         0         0         0
         0         0         0         0         0         0         0         0
         0         0         0         0         0         0         0         0
         0         0         0         0         0         0         0         0
         0         0         0         0         0         0         0         0
         0         0         0         0         0         0         0         0
         0         0         0         0         0         0         0         0
         0         0         0         0         0         0         0         0
         0         0         0         0         0         0         0         0
         0         0         0         0         0         0         0         0
         0         0         0         0         0         0         0         0
         0         0         0         0         0         0         0         0
         0         0         0         0         0         0         0         0
         0         0         0         0         0         0         0         0
         0         0         0         0         0         0         0         0
         0         0         0         0         0         0         0         0
         0         0         0         0         0         0         0         0
         0         0         0         0         0         0         0         0
         0         0         0         0         0         0         0         0
         0         0         0         0         0         0         0         0
         0         0         0         0         0         0         0         0
         0         0         0         0         0         0         0         0
         0         0         0         0         0         0         0         0
         0         0         0         0         0         0         0         0
         0         0         0         0         0         0         0         0
         0         0         0         0         0         0         0         0
         0         0         0         0         0         0         0         0
         0         0         0         0         0         0         0         0
         0         0         0         0         0         0         0         0
         0         0         0         0         0         0         0         0
         0         0         0         0         0         0         0         0
         0         0         0         0         0         0         0         0
         0         0         0         0         0         0         0         0
         0         0         0         0         0         0         0         0
         0         0         0         0         0         0         0         0
         0         0         0         0         0         0         0         0
         0         0         0         0         0         0         0         0
         0         0         0         0         0         0         0         0
         0         0         0         0         0         0         0         0
         0         0         0         0         0         0         0         0
         0         0         0         0         0         0         0         0
         0         0         0         0         0         0         0         0
         0         0         0         0         0         0         0         0
         0         0         0         0         0         0         0         0
         0         0         0         0         0         0         0         0
         0         0         0         0         0         0         0         0
         0         0         0         0         0         0         0         0
         0         0         0         0         0         0         0         0
         0         0         0         0         0         0         0         0
         0         0         0         0         0         0         0         0
         0         0         0         0         0         0         0         0
         0         0         0         0         0         0         0         0
         0         0         0         0         0         0         0         0
         0         0         0         0         0         0         0         0
         0         0         0         0         0         0         0         0
         0         0         0         0         0         0         0         0
         0         0         0         0         0         0         0         0
         0         0         0         0         0         0         0         0
         0         0         0         0         0         0         0         0
         0         0         0         0         0         0         0         0
         0         0         0         0         0         0         0         0
         0         0         0         0         0         0         0         0
         0         0         0         0         0         0         0         0
         0         0         0         0         0         0         0         0
         0         0         0         0         0         0         0         0
         0         0         0         0         0         0         0         0
         0         0         0         0         0         0         0         0
         0         0         0         0         0         0         0         0
         0         0         0         0         0         0         0         0
         0         0         0         0         0         0         0         0
         0         0         0         0         0         0         0         0
         0         0         0         0         0         0         0         0
         0         0         0         0         0         0         0         0
         0         0         0         0         0         0         0         0
         0         0         0         0         0         0         0         0
         0         0         0         0         0         0         0         0
         0         0         0         0         0         0         0         0
         0         0         0         0         0         0         0         0
         0         0         0         0         0         0         0         0
         0         0         0         0         0         0         0         0
         0         0         0         0         0         0         0         0
         0         0         0         0         0         0         0         0
         0         0         0         0         0         0         0         0
         0         0         0         0         0         0         0         0
         0         0         0         0         0         0         0         0
         0         0         0         0         0         0         0         0
         0         0         0         0         0         0         0         0
         0         0         0         0         0         0         0         0
         0         0         0         0         0         0         0         0
         0         0         0         0         0         0         0         0
         0         0         0         0         0         0         0         0
         0         0         0         0         0         0         0         0
         0         0         0         0         0         0         0         0
         0         0         0         0         0         0         0         0
         0         0         0         0         0         0         0         0
         0         0         0         0         0         0         0         0
         0         0         0         0         0         0         0         0
         0         0         0         0         0         0         0         0
         0         0         0         0         0         0         0         0
         0         0         0         0         0         0         0         0
         0         0         0         0         0         0         0         0
         0         0         0         0         0         0         0         0
         0         0         0         0         0         0         0         0
         0         0         0         0         0         0         0         0
         0         0         0         0         0         0         0         0
         0         0         0         0         0         0         0         0
         0         0         0         0         0         0         0         0
         0         0         0         0         0         0         0         0
         0         0         0         0         0         0         0         0
         0         0         0         0         0         0         0         0
         0         0         0         0         0         0         0         0
         0         0         0         0         0         0         0         0
         0         0         0         0         0         0         0         0
         0         0         0         0         0         0         0         0
         0         0         0         0         0         0         0         0
         0         0         0         0         0         0         0         0
         0         0         0         0         0         0         0         0
         0         0         0         0         0         0         0         0
         0         0         0         0         0         0         0         0
         0         0         0         0         0         0         0         0
         0         0         0         0         0         0         0         0
         0         0         0         0         0         0         0         0
         0         0         0         0         0         0         0         0
         0         0         0         0         0         0         0         0
         0         0         0         0         0         0         0         0
         0         0         0         0         0         0         0         0
         0         0         0         0         0         0         0         0
         0         0         0         0         0         0         0         0
         0         0         0         0         0         0         0         0
         0         0         0         0         0         0         0         0
         0         0         0         0         0         0         0         0
         0         0         0         0         0         0         0         0
         0         0         0         0         0         0         0         0
         0         0         0         0         0         0         0         0
         0         0         0         0         0         0         0         0
         0         0         0         0         0         0         0         0
         0         0         0         0         0         0         0         0
         0         0         0         0         0         0         0         0
         0         0         0         0         0         0         0         0
         0         0         0         0         0         0         0         0
         0         0         0         0         0         0         0         0
         0         0         0         0         0         0         0         0
         0         0         0         0         0         0         0         0
         0         0         0         0         0         0         0         0
         0         0         0         0         0         0         0         0
         0         0         0         0         0         0         0         0
         0         0         0         0         0         0         0         0
         0         0         0         0         0         0         0         0
         0         0         0         0         0         0         0         0
         0         0         0         0         0         0         0         0
         0         0         0         0         0         0         0         0
         0         0         0         0         0         0         0         0
         0         0         0         0         0         0         0         0
         0         0         0         0         0         0         0         0
         0         0         0         0         0         0         0         0
         0         0         0         0         0         0         0         0
         0         0         0         0         0         0         0         0
         0         0         0         0         0         0         0         0
         0         0         0         0         0         0         0         0
         0         0         0         0         0         0         0         0
         0         0         0         0         0         0         0         0
         0         0         0         0         0         0         0         0
         0         0         0         0         0         0         0         0
         0         0         0         0         0         0         0         0
         0         0         0         0         0         0         0         0
         0         0         0         0         0         0         0         0
         0         0         0         0         0         0         0         0
         0         0         0         0         0         0         0         0
         0         0         0         0         0         0         0         0
         0         0         0         0         0         0         0         0
         0         0         0         0         0         0         0         0
         0         0         0         0         0         0         0         0
         0         0         0         0         0         0         0         0
         0         0         0         0         0         0         0         0
         0         0         0         0         0         0         0         0
         0         0         0         0         0         0         0         0
         0         0         0         0         0         0         0         0
         0         0         0         0         0         0         0         0
         0         0         0         0         0         0         0         0
         0         0         0         0         0         0         0         0
         0         0         0         0         0         0         0         0
         0         0         0         0         0         0         0         0
         0         0         0         0         0         0         0         0
         0         0         0         0         0         0         0         0
         0         0         0         0         0         0         0         0
         0         0         0         0         0         0         0         0
         0         0         0         0         0         0         0         0
         0         0         0         0         0         0         0         0
         0         0         0         0         0         0         0         0
         0         0         0         0         0         0         0         0
         0         0         0         0         0         0         0         0
         0         0         0         0         0         0         0         0
         0         0         0         0         0         0         0         0
         0         0         0         0         0         0         0         0
         0         0         0         0         0         0         0         0
         0         0         0         0         0         0         0         0
         0         0         0         0         0         0         0         0
         0         0         0         0         0         0         0         0
         0         0         0         0         0         0         0         0
         0         0         0         0         0         0         0         0
         0         0         0         0         0         0         0         0
         0         0         0         0         0         0         0         0
         0         0         0         0         0         0         0         0
         0         0         0         0         0         0         0         0
         0         0         0         0         0         0         0         0
         0         0         0         0         0         0         0         0
         0         0         0         0         0         0         0         0
         0         0         0         0         0         0         0         0
         0         0         0         0         0         0         0         0
         0         0         0         0         0         0         0         0
         0         0         0         0         0         0         0         0
         0         0         0         0         0         0         0         0
         0         0         0         0         0         0         0         0
         0         0         0         0         0         0         0         0
         0         0         0         0         0         0         0         0
         0         0         0         0         0         0         0         0
         0         0         0         0         0         0         0         0
         0         0         0         0         0         0         0         0
         0         0         0         0         0         0         0         0
         0         0         0         0         0         0         0         0
         0         0         0         0         0         0         0         0
         0         0         0         0         0         0         0         0
         0         0         0         0         0         0         0         0
         0         0         0         0         0         0         0         0
         0         0         0         0         0         0         0         0
         0         0         0         0         0         0         0         0
         0         0         0         0         0         0         0         0
         0         0         0         0         0         0         0         0
         0         0         0         0         0         0         0         0
         0         0         0         0         0         0         0         0
         0         0         0         0         0         0         0         0
         0         0         0         0         0         0         0         0
         0         0         0         0         0         0         0         0
         0         0         0         0         0         0         0         0
         0         0         0         0         0         0         0         0
         0         0         0         0         0         0         0         0
         0         0         0         0         0         0         0         0
         0         0         0         0         0         0         0         0
         0         0         0         0         0         0         0         0
         0         0         0         0         0         0         0         0
         0         0         0         0         0         0         0         0
         0         0         0         0         0         0         0         0
         0         0         0         0         0         0         0         0
         0         0         0         0         0         0         0         0
         0         0         0         0         0         0         0         0
         0         0         0         0         0         0         0         0
         0         0         0         0         0         0         0         0
         0         0         0         0         0         0         0         0
         0         0         0         0         0         0         0         0
         0         0         0         0         0         0         0         0
         0         0         0         0         0         0         0         0
         0         0         0         0         0         0         0         0
         0         0         0         0         0         0         0         0
         0         0         0         0         0         0         0         0
         0         0         0         0         0         0         0         0
         0         0         0         0         0         0         0         0
         0         0         0         0         0         0         0         0
         0         0         0         0         0         0         0         0
         0         0         0         0         0         0         0         0
         0         0         0         0         0         0         0         0
         0         0         0         0         0         0         0         0
         0         0         0         0         0         0         0         0
         0         0         0         0         0         0         0         0
         0         0         0         0         0         0         0         0
         0         0         0         0         0         0         0         0
         0         0         0         0         0         0         0         0
         0         0         0         0         0         0         0         0
         0         0         0         0         0         0         0         0
         0         0         0         0         0         0         0         0
         0         0         0         0         0         0         0         0
         0         0         0         0         0         0         0         0
         0         0         0         0         0         0         0         0
         0         0         0         0         0         0         0         0
         0         0         0         0         0         0         0         0
         0         0         0         0         0         0         0         0
         0         0         0         0         0         0         0         0
         0         0         0         0         0         0         0         0
         0         0         0         0         0         0         0         0
         0         0         0         0         0         0         0         0
         0         0         0         0         0         0         0         0
         0         0         0         0         0         0         0         0
         0         0         0         0         0         0         0         0
         0         0         0         0         0         0         0         0
         0         0         0         0         0         0         0         0
         0         0         0         0         0         0         0         0
         0         0         0         0         0         0         0         0
         0         0         0         0         0         0         0         0
         0         0         0         0         0         0         0         0
         0         0         0         0         0         0         0         0
         0         0         0         0         0         0         0         0
         0         0         0         0         0         0         0         0
         0         0         0         0         0         0         0         0
         0         0         0         0         0         0         0         0
         0         0         0         0         0         0         0         0
         0         0         0         0         0         0         0         0
         0         0         0         0         0         0         0         0
         0         0         0         0         0         0         0         0
         0         0         0         0         0         0         0         0
         0         0         0         0         0         0         0         0
         0         0         0         0         0         0         0         0
         0         0         0         0         0         0         0         0
         0         0         0         0         0         0         0         0
         0         0         0         0         0         0         0         0
         0         0         0         0         0         0         0         0
         0         0         0         0         0         0         0         0
         0         0         0         0         0         0         0         0
         0         0         0         0         0         0         0         0
         0         0         0         0         0         0         0         0
         0         0         0         0         0         0         0         0
         0         0         0         0         0         0         0         0
         0         0         0         0         0         0         0         0
         0         0         0         0         0         0         0         0
         0         0         0         0         0         0         0         0
         0         0         0         0         0         0         0         0
         0         0         0         0         0         0         0         0
         0         0         0         0         0         0         0         0
         0         0         0         0         0         0         0         0
         0         0         0         0         0         0         0         0
         0         0         0         0         0         0         0         0
         0         0         0         0         0         0         0         0
         0         0         0         0         0         0         0         0
         0         0         0         0         0         0         0         0
         0         0         0         0         0         0         0         0
         0         0         0         0         0         0         0         0
         0         0         0         0         0         0         0         0
         0         0         0         0         0         0         0         0
         0         0         0         0         0         0         0         0
         0         0         0         0         0         0         0         0
         0         0         0         0         0         0         0         0
         0         0         0         0         0         0         0         0
         0         0         0         0         0         0         0         0
         0         0         0         0         0         0         0         0
         0         0         0         0         0         0         0         0
         0         0         0         0         0         0         0         0
         0         0         0         0         0         0         0         0
         0         0         0         0         0         0         0         0
         0         0         0         0         0         0         0         0
         0         0         0         0         0         0         0         0
         0         0         0         0         0         0         0         0
         0         0         0         0         0         0         0         0
         0         0         0         0         0         0         0         0
         0         0         0         0         0         0         0         0
         0         0         0         0         0         0         0         0
         0         0         0         0         0         0         0         0
         0         0         0         0         0         0         0         0
         0         0         0         0         0         0         0         0
         0         0         0         0         0         0         0         0
         0         0         0         0         0         0         0         0
         0         0         0         0         0         0         0         0
         0         0         0         0         0         0         0         0
         0         0         0         0         0         0         0         0
         0         0         0         0         0         0         0         0
         0         0         0         0         0         0         0         0
         0         0         0         0         0         0         0         0
         0         0         0         0         0         0         0         0
         0         0         0         0         0         0         0         0
         0         0         0         0         0         0         0         0
         0         0         0         0         0         0         0         0
         0         0         0         0         0         0         0         0
         0         0         0         0         0         0         0         0
         0         0         0         0         0         0         0         0
         0         0         0         0         0         0         0         0
         0         0         0         0         0         0         0         0
         0         0         0         0         0         0         0         0
         0         0         0         0         0         0         0         0
         0         0         0         0         0         0         0         0
         0         0         0         0         0         0         0         0
         0         0         0         0         0         0         0         0
         0         0         0         0         0         0         0         0
         0         0         0         0         0         0         0         0
         0         0         0         0         0         0         0         0
         0         0         0         0         0         0         0         0
         0         0         0         0         0         0         0         0
         0         0         0         0         0         0         0         0
         0         0         0         0         0         0         0         0
         0         0         0         0         0         0         0         0
         0         0         0         0         0         0         0         0
         0         0         0         0         0         0         0         0
         0         0         0         0         0         0         0         0
         0         0         0         0         0         0         0         0
         0         0         0         0         0         0         0         0
         0         0         0         0         0         0         0         0
         0         0         0         0         0         0         0         0
         0         0         0         0         0         0         0         0
         0         0         0         0         0         0         0         0
         0         0         0         0         0         0         0         0
         0         0         0         0         0         0         0         0
         0         0         0         0         0         0         0         0
         0         0         0         0         0         0         0         0
         0         0         0         0         0         0         0         0
         0         0         0         0         0         0         0         0
         0         0         0         0         0         0         0         0
         0         0         0         0         0         0         0         0
         0         0         0         0         0         0         0         0
         0         0         0         0         0         0         0         0
         0         0         0         0         0         0         0         0
         0         0         0         0         0         0         0         0
         0         0         0         0         0         0         0         0
         0         0         0         0         0         0         0         0
         0         0         0         0         0         0         0         0
         0         0         0         0         0         0         0         0
         0         0         0         0         0         0         0         0
         0         0         0         0         0         0         0         0
         0         0         0         0         0         0         0         0
         0         0         0         0         0         0         0         0
         0         0         0         0         0         0         0         0
         0         0         0         0         0         0         0         0
         0         0         0         0         0         0         0         0
         0         0         0         0         0         0         0         0
         0         0         0         0         0         0         0         0
         0         0         0         0         0         0         0         0
         0         0         0         0         0         0         0         0
         0         0         0         0         0         0         0         0
         0         0         0         0         0         0         0         0
         0         0         0         0         0         0         0         0
         0         0         0         0         0         0         0         0
         0         0         0         0         0         0         0         0
         0         0         0         0         0         0         0         0
         0         0         0         0         0         0         0         0
         0         0         0         0         0         0         0         0
         0         0         0         0         0         0         0         0
         0         0         0         0         0         0         0         0
         0         0         0         0         0         0         0         0
         0         0         0         0         0         0         0         0
         0         0         0         0         0         0         0         0
         0         0         0         0         0         0         0         0
         0         0         0         0         0         0         0         0
         0         0         0         0         0         0         0         0
         0         0         0         0         0         0         0         0
         0         0         0         0         0         0         0         0
         0         0         0         0         0         0         0         0
         0         0         0         0         0         0         0         0
         0         0         0         0         0         0         0         0
         0         0         0         0         0         0         0         0
         0         0         0         0         0         0         0         0
         0         0         0         0         0         0         0         0
         0         0         0         0         0         0         0         0
         0         0         0         0         0         0         0         0
         0         0         0         0         0         0         0         0
         0         0         0         0         0         0         0         0
         0         0         0         0         0         0         0         0
         0         0         0         0         0         0         0         0
         0         0         0         0         0         0         0         0
         0         0         0         0         0         0         0         0
         0         0         0         0         0         0         0         0
         0         0         0         0         0         0         0         0
         0         0         0         0         0         0         0         0
         0         0         0         0         0         0         0         0
         0         0         0         0         0         0         0         0
         0         0         0         0         0         0         0         0
         0         0         0         0         0         0         0         0
         0         0         0         0         0         0         0         0
         0         0         0         0         0         0         0         0
         0         0         0         0         0         0         0         0
         0         0         0         0         0         0         0         0
         0         0         0         0         0         0         0         0
         0         0         0         0         0         0         0         0
         0         0         0         0         0         0         0         0
         0         0         0         0         0         0         0         0
         0         0         0         0         0         0         0         0
         0         0         0         0         0         0         0         0
         0         0         0         0         0         0         0         0
         0         0         0         0         0         0         0         0
         0         0         0         0         0         0         0         0
         0         0         0         0         0         0         0         0
         0         0         0         0         0         0         0         0
         0         0         0         0         0         0         0         0
         0         0         0         0         0         0         0         0
         0         0         0         0         0         0         0         0
         0         0         0         0         0         0         0         0
         0         0         0         0         0         0         0         0
         0         0         0         0         0         0         0         0
         0         0         0         0         0         0         0         0
         0         0         0         0         0         0         0         0
         0         0         0         0         0         0         0         0
         0         0         0         0         0         0         0         0
         0         0         0         0         0         0         0         0
         0         0         0         0         0         0         0         0
         0         0         0         0         0         0         0         0
         0         0         0         0         0         0         0         0
         0         0         0         0         0         0         0         0
         0         0         0         0         0         0         0         0
         0         0         0         0         0         0         0         0
         0         0         0         0         0         0         0         0
         0         0         0         0         0         0         0         0
         0         0         0         0         0         0         0         0
         0         0         0         0         0         0         0         0
         0         0         0         0         0         0         0         0
         0         0         0         0         0         0         0         0
         0         0         0         0         0         0         0         0
         0         0         0         0         0         0         0         0
         0         0         0         0         0         0         0         0
         0         0         0         0         0         0         0         0
         0         0         0         0         0         0         0         0
         0         0         0         0         0         0         0         0
         0         0         0         0         0         0         0         0
         0         0         0         0         0         0         0         0
         0         0         0         0         0         0         0         0
         0         0         0         0         0         0         0         0
         0         0         0         0         0         0         0         0
         0         0         0         0         0         0         0         0
         0         0         0         0         0         0         0         0
         0         0         0         0         0         0         0         0
         0         0         0         0         0         0         0         0
         0         0         0         0         0         0         0         0
         0         0         0         0         0         0         0         0
         0         0         0         0         0         0         0         0
         0         0         0         0         0         0         0         0
         0         0         0         0         0         0         0         0
         0         0         0         0         0         0         0         0
         0         0         0         0         0         0         0         0
         0         0         0         0         0         0         0         0
         0         0         0         0         0         0         0         0
         0         0         0         0         0         0         0         0
         0         0         0         0         0         0         0         0
         0         0         0         0         0         0         0         0
         0         0         0         0         0         0         0         0
         0         0         0         0         0         0         0         0
         0         0         0         0         0         0         0         0
         0         0         0         0         0         0         0         0
         0         0         0         0         0         0         0         0
         0         0         0         0         0         0         0         0
         0         0         0         0         0         0         0         0
         0         0         0         0         0         0         0         0
         0         0         0         0         0         0         0         0
         0         0         0         0         0         0         0         0
         0         0         0         0         0         0         0         0
         0         0         0         0         0         0         0         0
         0         0         0         0         0         0         0         0
         0         0         0         0         0         0         0         0
         0         0         0         0         0         0         0         0
         0         0         0         0         0         0         0         0
         0         0         0         0         0         0         0         0
         0         0         0         0         0         0         0         0
         0         0         0         0         0         0         0         0
         0         0         0         0         0         0         0         0
         0         0         0         0         0         0         0         0
         0         0         0         0         0         0         0         0
         0         0         0         0         0         0         0         0
         0         0         0         0         0         0         0         0
         0         0         0         0         0         0         0         0
         0         0         0         0         0         0         0         0
         0         0         0         0         0         0         0         0
         0         0         0         0         0         0         0         0
         0         0         0         0         0         0         0         0
         0         0         0         0         0         0         0         0
         0         0         0         0         0         0         0         0
         0         0         0         0         0         0         0         0
         0         0         0         0         0         0         0         0
         0         0         0         0         0         0         0         0
         0         0         0         0         0         0         0         0
         0         0         0         0         0         0         0         0
         0         0         0         0         0         0         0         0
         0         0         0         0         0         0         0         0
         0         0         0         0         0         0         0         0
         0         0         0         0         0         0         0         0
         0         0         0         0         0         0         0         0
         0         0         0         0         0         0         0         0
         0         0         0         0         0         0         0         0
         0         0         0         0         0         0         0         0
         0         0         0         0         0         0         0         0
         0         0         0         0         0         0         0         0
         0         0         0         0         0         0         0         0
         0         0         0         0         0         0         0         0
         0         0         0         0         0         0         0         0
         0         0         0         0         0         0         0         0
         0         0         0         0         0         0         0         0
         0         0         0         0         0         0         0         0
         0         0         0         0         0         0         0         0
         0         0         0         0         0         0         0         0
         0         0         0         0         0         0         0         0
         0         0         0         0         0         0         0         0
         0         0         0         0         0         0         0         0
         0         0         0         0         0         0         0         0
         0         0         0         0         0         0         0         0
         0         0         0         0         0         0         0         0
         0         0         0         0         0         0         0         0
         0         0         0         0         0         0         0         0
         0         0         0         0         0         0         0         0
         0         0         0         0         0         0         0         0
         0         0         0         0         0         0         0         0
         0         0         0         0         0         0         0         0
         0         0         0         0         0         0         0         0
         0         0         0         0         0         0         0         0
         0         0         0         0         0         0         0         0
         0         0         0         0         0         0         0         0
         0         0         0         0         0         0         0         0
         0         0         0         0         0         0         0         0
         0         0         0         0         0         0         0         0
         0         0         0         0         0         0         0         0
         0         0         0         0         0         0         0         0
         0         0         0         0         0         0         0         0
         0         0         0         0         0         0         0         0
         0         0         0         0         0         0         0         0
         0         0         0         0         0         0         0         0
         0         0         0         0         0         0         0         0
         0         0         0         0         0         0         0         0
         0         0         0         0         0         0         0         0
         0         0         0         0         0         0         0         0
         0         0         0         0         0         0         0         0
         0         0         0         0         0         0         0         0
         0         0         0         0         0         0         0         0
         0         0         0         0         0         0         0         0
         0         0         0         0         0         0         0         0
         0         0         0         0         0         0         0         0
         0         0         0         0         0         0         0         0
         0         0         0         0         0         0         0         0
         0         0         0         0         0         0         0         0
         0         0         0         0         0         0         0         0
         0         0         0         0         0         0         0         0
         0         0         0         0         0         0         0         0
         0         0         0         0         0         0         0         0
         0         0         0         0         0         0         0         0
         0         0         0         0         0         0         0         0
         0         0         0         0         0         0         0         0
         0         0         0         0         0         0         0         0
         0         0         0         0         0         0         0         0
         0         0         0         0         0         0         0         0
         0         0         0         0         0         0         0         0
         0         0         0         0         0         0         0         0
         0         0         0         0         0         0         0         0
         0         0         0         0         0         0         0         0
         0         0         0         0         0         0         0         0
         0         0         0         0         0         0         0         0
         0         0         0         0         0         0         0         0
         0         0         0         0         0         0         0         0
         0         0         0         0         0         0         0         0
         0         0         0         0         0         0         0         0
         0         0         0         0         0         0         0         0
         0         0         0         0         0         0         0         0
         0         0         0         0         0         0         0         0
         0         0         0         0         0         0         0         0
         0         0         0         0         0         0         0         0
         0         0         0         0         0         0         0         0
         0         0         0         0         0         0         0         0
         0         0         0         0         0         0         0         0
         0         0         0         0         0         0         0         0
         0         0         0         0         0         0         0         0
         0         0         0         0         0         0         0         0
         0         0         0         0         0         0         0         0
         0         0         0         0         0         0         0         0
         0         0         0         0         0         0         0         0
         0         0         0         0         0         0         0         0
         0         0         0         0         0         0         0         0
         0         0         0         0         0         0         0         0
         0         0         0         0         0         0         0         0
         0         0         0         0         0         0         0         0
         0         0         0         0         0         0         0         0
         0         0         0         0         0         0         0         0
         0         0         0         0         0         0         0         0
         0         0         0         0         0         0         0         0
         0         0         0         0         0         0         0         0
         0         0         0         0         0         0         0         0
         0         0         0         0         0         0         0         0
         0         0         0         0         0         0         0         0
         0         0         0         0         0         0         0         0
         0         0         0         0         0         0         0         0
         0         0         0         0         0         0         0         0
         0         0         0         0         0         0         0         0
         0         0         0         0         0         0         0         0
         0         0         0         0         0         0         0         0
         0         0         0         0         0         0         0         0
         0         0         0         0         0         0         0         0
         0         0         0         0         0         0         0         0
         0         0         0         0         0         0         0         0
         0         0         0         0         0         0         0         0
         0         0         0         0         0         0         0         0
         0         0         0         0         0         0         0         0
         0         0         0         0         0         0         0         0
         0         0         0         0         0         0         0         0
         0         0         0         0         0         0         0         0
         0         0         0         0         0         0         0         0
         0         0         0         0         0         0         0         0
         0         0         0         0         0         0         0         0
         0         0         0         0         0         0         0         0
         0         0         0         0         0         0         0         0
         0         0         0         0         0         0         0         0
         0         0         0         0         0         0         0         0
         0         0         0         0         0         0         0         0
         0         0         0         0         0         0         0         0
         0         0         0         0         0         0         0         0
         0         0         0         0         0         0         0         0
         0         0         0         0         0         0         0         0
         0         0         0         0         0         0         0         0
         0         0         0         0         0         0         0         0
         0         0         0         0         0         0         0         0
         0         0         0         0         0         0         0         0
         0         0         0         0         0         0         0         0
         0         0         0         0         0         0         0         0
         0         0         0         0         0         0         0         0
         0         0         0         0         0         0         0         0
         0         0         0         0         0         0         0         0
         0         0         0         0         0         0         0         0
         0         0         0         0         0         0         0         0
         0         0         0         0         0         0         0         0
         0         0         0         0         0         0         0         0
         0         0         0         0         0         0         0         0
         0         0         0         0         0         0         0         0
         0         0         0         0         0         0         0         0
         0         0         0         0         0         0         0         0
         0         0         0         0         0         0         0         0
         0         0         0         0         0         0         0         0
         0         0         0         0         0         0         0         0
         0         0         0         0         0         0         0         0
         0         0         0         0         0         0         0         0
         0         0         0         0         0         0         0         0
         0         0         0         0         0         0         0         0
         0         0         0         0         0         0         0         0
         0         0         0         0         0         0         0         0
         0         0         0         0         0         0         0         0
         0         0         0         0         0         0         0         0
         0         0         0         0         0         0         0         0
         0         0         0         0         0         0         0         0
         0         0         0         0         0         0         0         0
         0         0         0         0         0         0         0         0
         0         0         0         0         0         0         0         0
         0         0         0         0         0         0         0         0
         0         0         0         0         0         0         0         0
         0         0         0         0         0         0         0         0
         0         0         0         0         0         0         0         0
         0         0         0         0         0         0         0         0
         0         0         0         0         0         0         0         0
         0         0         0         0         0         0         0         0
         0         0         0         0         0         0         0         0
         0         0         0         0         0         0         0         0
         0         0         0         0         0         0         0         0
         0         0         0         0         0         0         0         0
         0         0         0         0         0         0         0         0
         0         0         0         0         0         0         0         0
         0         0         0         0         0         0         0         0
         0         0         0         0         0         0         0         0
         0         0         0         0         0         0         0         0
         0         0         0         0         0         0         0         0
         0         0         0         0         0         0         0         0
         0         0         0         0         0         0         0         0
         0         0         0         0         0         0         0         0
         0         0         0         0         0         0         0         0
         0         0         0         0         0         0         0         0
         0         0         0         0         0         0         0         0
         0         0         0         0         0         0         0         0
         0         0         0         0         0         0         0         0
         0         0         0         0         0         0         0         0
         0         0         0         0         0         0         0         0
         0         0         0         0         0         0         0         0
         0         0         0         0         0         0         0         0
         0         0         0         0         0         0         0         0
         0         0         0         0         0         0         0         0
         0         0         0         0         0         0         0         0
         0         0         0         0         0         0         0         0
         0         0         0         0         0         0         0         0
         0         0         0         0         0         0         0         0
         0         0         0         0         0         0         0         0
         0         0         0         0         0         0         0         0
         0         0         0         0         0         0         0         0
         0         0         0         0         0         0         0         0
         0         0         0         0         0         0         0         0
         0         0         0         0         0         0         0         0
         0         0         0         0         0         0         0         0
         0         0         0         0         0         0         0         0
         0         0         0         0         0         0         0         0
         0         0         0         0         0         0         0         0
         0         0         0         0         0         0         0         0
         0         0         0         0         0         0         0         0
         0         0         0         0         0         0         0         0
         0         0         0         0         0         0         0         0
         0         0         0         0         0         0         0         0
         0         0         0         0         0         0         0         0
         0         0         0         0         0         0         0         0
         0         0         0         0         0         0         0         0
         0         0         0         0         0         0         0         0
         0         0         0         0         0         0         0         0
         0         0         0         0         0         0         0         0
         0         0         0         0         0         0         0         0
         0         0         0         0         0         0         0         0
         0         0         0         0         0         0         0         0
         0         0         0         0         0         0         0         0
         0         0         0         0         0         0         0         0
         0         0         0         0         0         0         0         0
         0         0         0         0         0         0         0         0
         0         0         0         0         0         0         0         0
         0         0         0         0         0         0         0         0
         0         0         0         0         0         0         0         0
         0         0         0         0         0         0         0         0
         0         0         0         0         0         0         0         0
         0         0         0         0         0         0         0         0
         0         0         0         0         0         0         0         0
         0         0         0         0         0         0         0         0
         0         0         0         0         0         0         0         0
         0         0         0         0         0         0         0         0
         0         0         0         0         0         0         0         0
         0         0         0         0         0         0         0         0
         0         0         0         0         0         0         0         0
         0         0         0         0         0         0         0         0
         0         0         0         0         0         0         0         0
         0         0         0         0         0         0         0         0
         0         0         0         0         0         0         0         0
         0         0         0         0         0         0         0         0
         0         0         0         0         0         0         0         0
         0         0         0         0         0         0         0         0
         0         0         0         0         0         0         0         0
         0         0         0         0         0         0         0         0
         0         0         0         0         0         0         0         0
         0         0         0         0         0         0         0         0
         0         0         0         0         0         0         0         0
         0         0         0         0         0         0         0         0
         0         0         0         0         0         0         0         0
         0         0         0         0         0         0         0         0
         0         0         0         0         0         0         0         0
         0         0         0         0         0         0         0         0
         0         0         0         0         0         0         0         0
         0         0         0         0         0         0         0         0
         0         0         0         0         0         0         0         0
         0         0         0         0         0         0         0         0
         0         0         0         0         0         0         0         0
         0         0         0         0         0         0         0         0
         0         0         0         0         0         0         0         0
         0         0         0         0         0         0         0         0
         0         0         0         0         0         0         0         0
         0         0         0         0         0         0         0         0
         0         0         0         0         0         0         0         0
         0         0         0         0         0         0         0         0
         0         0         0         0         0         0         0         0
         0         0         0         0         0         0         0         0
         0         0         0         0         0         0         0         0
         0         0         0         0         0         0         0         0
         0         0         0         0         0         0         0         0
         0         0         0         0         0         0         0         0
         0         0         0         0         0         0         0         0
         0         0         0         0         0         0         0         0
         0         0         0         0         0         0         0         0
         0         0         0         0         0         0         0         0
         0         0         0         0         0         0         0         0
         0         0         0         0         0         0         0         0
         0         0         0         0         0         0         0         0
         0         0         0         0         0         0         0         0
         0         0         0         0         0         0         0         0
         0         0         0         0         0         0         0         0
         0         0         0         0         0         0         0         0
         0         0         0         0         0         0         0         0
         0         0         0         0         0         0         0         0
         0         0         0         0         0         0         0         0
         0         0         0         0         0         0         0         0
         0         0         0         0         0         0         0         0
         0         0         0         0         0         0         0         0
         0         0         0         0         0         0         0         0
         0         0         0         0         0         0         0         0
         0         0         0         0         0         0         0         0
         0         0         0         0         0         0         0         0
         0         0         0         0         0         0         0         0
         0         0         0         0         0         0         0         0
         0         0         0         0         0         0         0         0
         0         0         0         0         0         0         0         0
         0         0         0         0         0         0         0         0
         0         0         0         0         0         0         0         0
         0         0         0         0         0         0         0         0
         0         0         0         0         0         0         0         0
         0         0         0         0         0         0         0         0
         0         0         0         0         0         0         0         0
         0         0         0         0         0         0         0         0
         0         0         0         0         0         0         0         0
         0         0         0         0         0         0         0         0
         0         0         0         0         0         0         0         0
         0         0         0         0         0         0         0         0
         0         0         0         0         0         0         0         0
         0         0         0         0         0         0         0         0
         0         0         0         0         0         0         0         0
         0         0         0         0         0         0         0         0
         0         0         0         0         0         0         0         0
         0         0         0         0         0         0         0         0
         0         0         0         0         0         0         0         0
         0         0         0         0         0         0         0         0
         0         0         0         0         0         0         0         0
         0         0         0         0         0         0         0         0
         0         0         0         0         0         0         0         0
         0         0         0         0         0         0         0         0
         0         0         0         0         0         0         0         0
         0         0         0         0         0         0         0         0
         0         0         0         0         0         0         0         0
         0         0         0         0         0         0         0         0
         0         0         0         0         0         0         0         0
         0         0         0         0         0         0         0         0
         0         0         0         0         0         0         0         0
         0         0         0         0         0         0         0         0
         0         0         0         0         0         0         0         0
         0         0         0         0         0         0         0         0
         0         0         0         0         0         0         0         0
         0         0         0         0         0         0         0         0
         0         0         0         0         0         0         0         0
         0         0         0         0         0         0         0         0
         0         0         0         0         0         0         0         0
         0         0         0         0         0         0         0         0
         0         0         0         0         0         0         0         0
         0         0         0         0         0         0         0         0
         0         0         0         0         0         0         0         0
         0         0         0         0         0         0         0         0
         0         0         0         0         0         0         0         0
         0         0         0         0         0         0         0         0
         0         0         0         0         0         0         0         0
         0         0         0         0         0         0         0         0
         0         0         0         0         0         0         0         0
         0         0         0         0         0         0         0         0
         0         0         0         0         0         0         0         0
         0         0         0         0         0         0         0         0
         0         0         0         0         0         0         0         0
         0         0         0         0         0         0         0         0
         0         0         0         0         0         0         0         0
         0         0         0         0         0         0         0         0
         0         0         0         0         0         0         0         0
         0         0         0         0         0         0         0         0
         0         0         0         0         0         0         0         0
         0         0         0         0         0         0         0         0
         0         0         0         0         0         0         0         0
         0         0         0         0         0         0         0         0
         0         0         0         0         0         0         0         0
         0         0         0         0         0         0         0         0
         0         0         0         0         0         0         0         0
         0         0         0         0         0         0         0         0
         0         0         0         0         0         0         0         0
         0         0         0         0         0         0         0         0
         0         0         0         0         0         0         0         0
         0         0         0         0         0         0         0         0
         0         0         0         0         0         0         0         0
         0         0         0         0         0         0         0         0
         0         0         0         0         0         0         0         0
         0         0         0         0         0         0         0         0
         0         0         0         0         0         0         0         0
         0         0         0         0         0         0         0         0
         0         0         0         0         0         0         0         0
         0         0         0         0         0         0         0         0
         0         0         0         0         0         0         0         0
         0         0         0         0         0         0         0         0
         0         0         0         0         0         0         0         0
         0         0         0         0         0         0         0         0
         0         0         0         0         0         0         0         0
         0         0         0         0         0         0         0         0
         0         0         0         0         0         0         0         0
         0         0         0         0         0         0         0         0
         0         0         0         0         0         0         0         0
         0         0         0         0         0         0         0         0
         0         0         0         0         0         0         0         0
         0         0         0         0         0         0         0         0
         0         0         0         0         0         0         0         0
         0         0         0         0         0         0         0         0
         0         0         0         0         0         0         0         0
         0         0         0         0         0         0         0         0
         0         0         0         0         0         0         0         0
         0         0         0         0         0         0         0         0
         0         0         0         0         0         0         0         0
         0         0         0         0         0         0         0         0
         0         0         0         0         0         0         0         0
         0         0         0         0         0         0         0         0
         0         0         0         0         0         0         0         0
         0         0         0         0         0         0         0         0
         0         0         0         0         0         0         0         0
         0         0         0         0         0         0         0         0
         0         0         0         0         0         0         0         0
         0         0         0         0         0         0         0         0
         0         0         0         0         0         0         0         0
         0         0         0         0         0         0         0         0
         0         0         0         0         0         0         0         0
         0         0         0         0         0         0         0         0
         0         0         0         0         0         0         0         0
         0         0         0         0         0         0         0         0
         0         0         0         0         0         0         0         0
         0         0         0         0         0         0         0         0
         0         0         0         0         0         0         0         0
         0         0         0         0         0         0         0         0
         0         0         0         0         0         0         0         0
         0         0         0         0         0         0         0         0
         0         0         0         0         0         0         0         0
         0         0         0         0         0         0         0         0
         0         0         0         0         0         0         0         0
         0         0         0         0         0         0         0         0
         0         0         0         0         0         0         0         0
         0         0         0         0         0         0         0         0
         0         0         0         0         0         0         0         0
         0         0         0         0         0         0         0         0
         0         0         0         0         0         0         0         0
         0         0         0         0         0         0         0         0
         0         0         0         0         0         0         0         0
         0         0         0         0         0         0         0         0
         0         0         0         0         0         0         0         0
         0         0         0         0         0         0         0         0
         0         0         0         0         0         0         0         0
         0         0         0         0         0         0         0         0
         0         0         0         0         0         0         0         0
         0         0         0         0         0         0         0         0
         0         0         0         0         0         0         0         0
         0         0         0         0         0         0         0         0
         0         0         0         0         0         0         0         0
         0         0         0         0         0         0         0         0
         0         0         0         0         0         0         0         0
         0         0         0         0         0         0         0         0
         0         0         0         0         0         0         0         0
         0         0         0         0         0         0         0         0
         0         0         0         0         0         0         0         0
         0         0         0         0         0         0         0         0
         0         0         0         0         0         0         0         0
         0         0         0         0         0         0         0         0
         0         0         0         0         0         0         0         0
         0         0         0         0         0         0         0         0
         0         0         0         0         0         0         0         0
         0         0         0         0         0         0         0         0
         0         0         0         0         0         0         0         0
         0         0         0         0         0         0         0         0
         0         0         0         0         0         0         0         0
         0         0         0         0         0         0         0         0
         0         0         0         0         0         0         0         0
         0         0         0         0         0         0         0         0
         0         0         0         0         0         0         0         0
         0         0         0         0         0         0         0         0
         0         0         0         0         0         0         0         0
         0         0         0         0         0         0         0         0
         0         0         0         0         0         0         0         0
         0         0         0         0         0         0         0         0
         0         0         0         0         0         0         0         0
         0         0         0         0         0         0         0         0
         0         0         0         0         0         0         0         0
         0         0         0         0         0         0         0         0
         0         0         0         0         0         0         0         0
         0         0         0         0         0         0         0         0
         0         0         0         0         0         0         0         0
         0         0         0         0         0         0         0         0
         0         0         0         0         0         0         0         0
         0         0         0         0         0         0         0         0
         0         0         0         0         0         0         0         0
         0         0         0         0         0         0         0         0
         0         0         0         0         0         0         0         0
         0         0         0         0         0         0         0         0
         0         0         0         0         0         0         0         0
         0         0         0         0         0         0         0         0
         0         0         0         0         0         0         0         0
         0         0         0         0         0         0         0         0
         0         0         0         0         0         0         0         0
         0         0         0         0         0         0         0         0
         0         0         0         0         0         0         0         0
         0         0         0         0         0         0         0         0
         0         0         0         0         0         0         0         0
         0         0         0         0         0         0         0         0
         0         0         0         0         0         0         0         0
         0         0         0         0         0         0         0         0
         0         0         0         0         0         0         0         0
         0         0         0         0         0         0         0         0
         0         0         0         0         0         0         0         0
         0         0         0         0         0         0         0         0
         0         0         0         0         0         0         0         0
         0         0         0         0         0         0         0         0
         0         0         0         0         0         0         0         0
         0         0         0         0         0         0         0         0
         0         0         0         0         0         0         0         0
         0         0         0         0         0         0         0         0
         0         0         0         0         0         0         0         0
         0         0         0         0         0         0         0         0
         0         0         0         0         0         0         0         0
         0         0         0         0         0         0         0         0
         0         0         0         0         0         0         0         0
         0         0         0         0         0         0         0         0
         0         0         0         0         0         0         0         0
         0         0         0         0         0         0         0         0
         0         0         0         0         0         0         0         0
         0         0         0         0         0         0         0         0
         0         0         0         0         0         0         0         0
         0         0         0         0         0         0         0         0
         0         0         0         0         0         0         0         0
         0         0         0         0         0         0         0         0
         0         0         0         0         0         0         0         0
         0         0         0         0         0         0         0         0
         0         0         0         0         0         0         0         0
         0         0         0         0         0         0         0         0
         0         0         0         0         0         0         0         0
         0         0         0         0         0         0         0         0
         0         0         0         0         0         0         0         0
         0         0         0         0         0         0         0         0
         0         0         0         0         0         0         0         0
         0         0         0         0         0         0         0         0
         0         0         0         0         0         0         0         0
         0         0         0         0         0         0         0         0
         0         0         0         0         0         0         0         0
         0         0         0         0         0         0         0         0
         0         0         0         0         0         0         0         0
         0         0         0         0         0         0         0         0
         0         0         0         0         0         0         0         0
         0         0         0         0         0         0         0         0
         0         0         0         0         0         0         0         0
         0         0         0         0         0         0         0         0
         0         0         0         0         0         0         0         0
         0         0         0         0         0         0         0         0
         0         0         0         0         0         0         0         0
         0         0         0         0         0         0         0         0
         0         0         0         0         0         0         0         0
         0         0         0         0         0         0         0         0
         0         0         0         0         0         0         0         0
         0         0         0         0         0         0         0         0
         0         0         0         0         0         0         0         0
         0         0         0         0         0         0         0         0
         0         0         0         0         0         0         0         0
         0         0         0         0         0         0         0         0
         0         0         0         0         0         0         0         0
         0         0         0         0         0         0         0         0
         0         0         0         0         0         0         0         0
         0         0         0         0         0         0         0         0
         0         0         0         0         0         0         0         0
         0         0         0         0         0         0         0         0
         0         0         0         0         0         0         0         0
         0         0         0         0         0         0         0         0
         0         0         0         0         0         0         0         0
         0         0         0         0         0         0         0         0
         0         0         0         0         0         0         0         0
         0         0         0         0         0         0         0         0
         0         0         0         0         0         0         0         0
         0         0         0         0         0         0         0         0
         0         0         0         0         0         0         0         0
         0         0         0         0         0         0         0         0
         0         0         0         0         0         0         0         0
         0         0         0         0         0         0         0         0
         0         0         0         0         0         0         0         0
         0         0         0         0         0         0         0         0
         0         0         0         0         0         0         0         0
         0         0         0         0         0         0         0         0
         0         0         0         0         0         0         0         0
         0         0         0         0         0         0         0         0
         0         0         0         0         0         0         0         0
         0         0         0         0         0         0         0         0
         0         0         0         0         0         0         0         0
         0         0         0         0         0         0         0         0
         0         0         0         0         0         0         0         0
         0         0         0         0         0         0         0         0
         0         0         0         0         0         0         0         0
         0         0         0         0         0         0         0         0
         0         0         0         0         0         0         0         0
         0         0         0         0         0         0         0         0
         0         0         0         0         0         0         0         0
         0         0         0         0         0         0         0         0
         0         0         0         0         0         0         0         0
         0         0         0         0         0         0         0         0
         0         0         0         0         0         0         0         0
         0         0         0         0         0         0         0         0
         0         0         0         0         0         0         0         0
         0         0         0         0         0         0         0         0
         0         0         0         0         0         0         0         0
         0         0         0         0         0         0         0         0
         0         0         0         0         0         0         0         0
         0         0         0         0         0         0         0         0
         0         0         0         0         0         0         0         0
         0         0         0         0         0         0         0         0
         0         0         0         0         0         0         0         0
         0         0         0         0         0         0         0         0
         0         0         0         0         0         0         0         0
         0         0         0         0         0         0         0         0
         0         0         0         0         0         0         0         0
         0         0         0         0         0         0         0         0
         0         0         0         0         0         0         0         0
         0         0         0         0         0         0         0         0
         0         0         0         0         0         0         0         0
         0         0         0         0         0         0         0         0
         0         0         0         0         0         0         0         0
         0         0         0         0         0         0         0         0
         0         0         0         0         0         0         0         0
         0         0         0         0         0         0         0         0
         0         0         0         0         0         0         0         0
         0         0         0         0         0         0         0         0
         0         0         0         0         0         0         0         0
         0         0         0         0         0         0         0         0
         0         0         0         0         0         0         0         0
         0         0         0         0         0         0         0         0
         0         0         0         0         0         0         0         0
         0         0         0         0         0         0         0         0
         0         0         0         0         0         0         0         0
         0         0         0         0         0         0         0         0
         0         0         0         0         0         0         0         0
         0         0         0         0         0         0         0         0
         0         0         0         0         0         0         0         0
         0         0         0         0         0         0         0         0
         0         0         0         0         0         0         0         0
         0         0         0         0         0         0         0         0
         0         0         0         0         0         0         0         0
         0         0         0         0         0         0         0         0
         0         0         0         0         0         0         0         0
         0         0         0         0         0         0         0         0
         0         0         0         0         0         0         0         0
         0         0         0         0         0         0         0         0
         0         0         0         0         0         0         0         0
         0         0         0         0         0         0         0         0
         0         0         0         0         0         0         0         0
         0         0         0         0         0         0         0         0
         0         0         0         0         0         0         0         0
         0         0         0         0         0         0         0         0
         0         0         0         0         0         0         0         0
         0         0         0         0         0         0         0         0
         0         0         0         0         0         0         0         0
         0         0         0         0         0         0         0         0
         0         0         0         0         0         0         0         0
         0         0         0         0         0         0         0         0
         0         0         0         0         0         0         0         0
         0         0         0         0         0         0         0         0
         0         0         0         0         0         0         0         0
         0         0         0         0         0         0         0         0
         0         0         0         0         0         0         0         0
         0         0         0         0         0         0         0         0
         0         0         0         0         0         0         0         0
         0         0         0         0         0         0         0         0
         0         0         0         0         0         0         0         0
         0         0         0         0         0         0         0         0
         0         0         0         0         0         0         0         0
         0         0         0         0         0         0         0         0
         0         0         0         0         0         0         0         0
         0         0         0         0         0         0         0         0
         0         0         0         0         0         0         0         0
         0         0         0         0         0         0         0         0
         0         0         0         0         0         0         0         0
         0         0         0         0         0         0         0         0
         0         0         0         0         0         0         0         0
         0         0         0         0         0         0         0         0
         0         0         0         0         0         0         0         0
         0         0         0         0         0         0         0         0
         0         0         0         0         0         0         0         0
         0         0         0         0         0         0         0         0
         0         0         0         0         0         0         0         0
         0         0         0         0         0         0         0         0
         0         0         0         0         0         0         0         0
         0         0         0         0         0         0         0         0
         0         0         0         0         0         0         0         0
         0         0         0         0         0         0         0         0
         0         0         0         0         0         0         0         0
         0         0         0         0         0         0         0         0
         0         0         0         0         0         0         0         0
         0         0         0         0         0         0         0         0
         0         0         0         0         0         0         0         0
         0         0         0         0         0         0         0         0
         0         0         0         0         0         0         0         0
         0         0         0         0         0         0         0         0
         0         0         0         0         0         0         0         0
         0         0         0         0         0         0         0         0
         0         0         0         0         0         0         0         0
         0         0         0         0         0         0         0         0
         0         0         0         0         0         0         0         0
         0         0         0         0         0         0         0         0
         0         0         0         0         0         0         0         0
         0         0         0         0         0         0         0         0
         0         0         0         0         0         0         0         0
         0         0         0         0         0         0         0         0
         0         0         0         0         0         0         0         0
         0         0         0         0         0         0         0         0
         0         0         0         0         0         0         0         0
         0         0         0         0         0         0         0         0
         0         0         0         0         0         0         0         0
         0         0         0         0         0         0         0         0
         0         0         0         0         0         0         0         0
         0         0         0         0         0         0         0         0
         0         0         0         0         0         0         0         0
         0         0         0         0         0         0         0         0
         0         0         0         0         0         0         0         0
         0         0         0         0         0         0         0         0
         0         0         0         0         0         0         0         0
         0         0         0         0         0         0         0         0
         0         0         0         0         0         0         0         0
         0         0         0         0         0         0         0         0
         0         0         0         0         0         0         0         0
         0         0         0         0         0         0         0         0
         0         0         0         0         0         0         0         0
         0         0         0         0         0         0         0         0
         0         0         0         0         0         0         0         0
         0         0         0         0         0         0         0         0
         0         0         0         0         0         0         0         0
         0         0         0         0         0         0         0         0
         0         0         0         0         0         0         0         0
         0         0         0         0         0         0         0         0
         0         0         0         0         0         0         0         0
         0         0         0         0         0         0         0         0
         0         0         0         0         0         0         0         0
         0         0         0         0         0         0         0         0
         0         0         0         0         0         0         0         0
         0         0         0         0         0         0         0         0
         0         0         0         0         0         0         0         0
         0         0         0         0         0         0         0         0
         0         0         0         0         0         0         0         0
         0         0         0         0         0         0         0         0
         0         0         0         0         0         0         0         0
         0         0         0         0         0         0         0         0
         0         0         0         0         0         0         0         0
         0         0         0         0         0         0         0         0
         0         0         0         0         0         0         0         0
         0         0         0         0         0         0         0         0
         0         0         0         0         0         0         0         0
         0         0         0         0         0         0         0         0
         0         0         0         0         0         0         0         0
         0         0         0         0         0         0         0         0
         0         0         0         0         0         0         0         0
         0         0         0         0         0         0         0         0
         0         0         0         0         0         0         0         0
         0         0         0         0         0         0         0         0
         0         0         0         0         0         0         0         0
         0         0         0         0         0         0         0         0
         0         0         0         0         0         0         0         0
         0         0         0         0         0         0         0         0
         0         0         0         0         0         0         0         0
         0         0         0         0         0         0         0         0
         0         0         0         0         0         0         0         0
         0         0         0         0         0         0         0         0
         0         0         0         0         0         0         0         0
         0         0         0         0         0         0         0         0
         0         0         0         0         0         0         0         0
         0         0         0         0         0         0         0         0
         0         0         0         0         0         0         0         0
         0         0         0         0         0         0         0         0
         0         0         0         0         0         0         0         0
         0         0         0         0         0         0         0         0
         0         0         0         0         0         0         0         0
         0         0         0         0         0         0         0         0
         0         0         0         0         0         0         0         0
         0         0         0         0         0         0         0         0
         0         0         0         0         0         0         0         0
         0         0         0         0         0         0         0         0
         0         0         0         0         0         0         0         0
         0         0         0         0         0         0         0         0
         0         0         0         0         0         0         0         0
         0         0         0         0         0         0         0         0
         0         0         0         0         0         0         0         0
         0         0         0         0         0         0         0         0
         0         0         0         0         0         0         0         0
         0         0         0         0         0         0         0         0
         0         0         0         0         0         0         0         0
         0         0         0         0         0         0         0         0
         0         0         0         0         0         0         0         0
         0         0         0         0         0         0         0         0
         0         0         0         0         0         0         0         0
         0         0         0         0         0         0         0         0
         0         0         0         0         0         0         0         0
         0         0         0         0         0         0         0         0
         0         0         0         0         0         0         0         0
         0         0         0         0         0         0         0         0
         0         0         0         0         0         0         0         0
         0         0         0         0         0         0         0         0
         0         0         0         0         0         0         0         0
         0         0         0         0         0         0         0         0
         0         0         0         0         0         0         0         0
         0         0         0         0         0         0         0         0
         0         0         0         0         0         0         0         0
         0         0         0         0         0         0         0         0
         0         0         0         0         0         0         0         0
         0         0         0         0         0         0         0         0
         0         0         0         0         0         0         0         0
         0         0         0         0         0         0         0         0
         0         0         0         0         0         0         0         0
         0         0         0         0         0         0         0         0
         0         0         0         0         0         0         0         0
         0         0         0         0         0         0         0         0
         0         0         0         0         0         0         0         0
         0         0         0         0         0         0         0         0
         0         0         0         0         0         0         0         0
         0         0         0         0         0         0         0         0
         0         0         0         0         0         0         0         0
         0         0         0         0         0         0         0         0
         0         0         0         0         0         0         0         0
         0         0         0         0         0         0         0         0
         0         0         0         0         0         0         0         0
         0         0         0         0         0         0         0         0
         0         0         0         0         0         0         0         0
         0         0         0         0         0         0         0         0
         0         0         0         0         0         0         0         0
         0         0         0         0         0         0         0         0
         0         0         0         0         0         0         0         0
         0         0         0         0         0         0         0         0
         0         0         0         0         0         0         0         0
         0         0         0         0         0         0         0         0
         0         0         0         0         0         0         0         0
         0         0         0         0         0         0         0         0
         0         0         0         0         0         0         0         0
         0         0         0         0         0         0         0         0
         0         0         0         0         0         0         0         0
         0         0         0         0         0         0         0         0
         0         0         0         0         0         0         0         0
         0         0         0         0         0         0         0         0
         0         0         0         0         0         0         0         0
         0         0         0         0         0         0         0         0
         0         0         0         0         0         0         0         0
         0         0         0         0         0         0         0         0
         0         0         0         0         0         0         0         0
         0         0         0         0         0         0         0         0
         0         0         0         0         0         0         0         0
         0         0         0         0         0         0         0         0
         0         0         0         0         0         0         0         0
         0         0         0         0         0         0         0         0
         0         0         0         0         0         0         0         0
         0         0         0         0         0         0         0         0
         0         0         0         0         0         0         0         0
         0         0         0         0         0         0         0         0
         0         0         0         0         0         0         0         0
         0         0         0         0         0         0         0         0
         0         0         0         0         0         0         0         0
         0         0         0         0         0         0         0         0
         0         0         0         0         0         0         0         0
         0         0         0         0         0         0         0         0
         0         0         0         0         0         0         0         0
         0         0         0         0         0         0         0         0
         0         0         0         0         0         0         0         0
         0         0         0         0         0         0         0         0
         0         0         0         0         0         0         0         0
         0         0         0         0         0         0         0         0
         0         0         0         0         0         0         0         0
         0         0         0         0         0         0         0         0
         0         0         0         0         0         0         0         0
         0         0         0         0         0         0         0         0
         0         0         0         0         0         0         0         0
         0         0         0         0         0         0         0         0
         0         0         0         0         0         0         0         0
         0         0         0         0         0         0         0         0
         0         0         0         0         0         0         0         0
         0         0         0         0         0         0         0         0
         0         0         0         0         0         0         0         0
         0         0         0         0         0         0         0         0
         0         0         0         0         0         0         0         0
         0         0         0         0         0         0         0         0
         0         0         0         0         0         0         0         0
         0         0         0         0         0         0         0         0
         0         0         0         0         0         0         0         0
         0         0         0         0         0         0         0         0
         0         0         0         0         0         0         0         0
         0         0         0         0         0         0         0         0
         0         0         0         0         0         0         0         0
         0         0         0         0         0         0         0         0
         0         0         0         0         0         0         0         0
         0         0         0         0         0         0         0         0
         0         0         0         0         0         0         0         0
         0         0         0         0         0         0         0         0
         0         0         0         0         0         0         0         0
         0         0         0         0         0         0         0         0
         0         0         0         0         0         0         0         0
         0         0         0         0         0         0         0         0
         0         0         0         0         0         0         0         0
         0         0         0         0         0         0         0         0
         0         0         0         0         0         0         0         0
         0         0         0         0         0         0         0         0
         0         0         0         0         0         0         0         0
         0         0         0         0         0         0         0         0
         0         0         0         0         0         0         0         0
         0         0         0         0         0         0         0         0
         0         0         0         0         0         0         0         0
         0         0         0         0         0         0         0         0
         0         0         0         0         0         0         0         0
         0         0         0         0         0         0         0         0
         0         0         0         0         0         0         0         0
         0         0         0         0         0         0         0         0
         0         0         0         0         0         0         0         0
         0         0         0         0         0         0         0         0
         0         0         0         0         0         0         0         0
         0         0         0         0         0         0         0         0
         0         0         0         0         0         0         0         0
         0         0         0         0         0         0         0         0
         0         0         0         0         0         0         0         0
         0         0         0         0         0         0         0         0
         0         0         0         0         0         0         0         0
         0         0         0         0         0         0         0         0
         0         0         0         0         0         0         0         0
         0         0         0         0         0         0         0         0
         0         0         0         0         0         0         0         0
         0         0         0         0         0         0         0         0
         0         0         0         0         0         0         0         0
         0         0         0         0         0         0         0         0
         0         0         0         0         0         0         0         0
         0         0         0         0         0         0         0         0
         0         0         0         0         0         0         0         0
         0         0         0         0         0         0         0         0
         0         0         0         0         0         0         0         0
         0         0         0         0         0         0         0         0
         0         0         0         0         0         0         0         0
         0         0         0         0         0         0         0         0
         0         0         0         0         0         0         0         0
         0         0         0         0         0         0         0         0
         0         0         0         0         0         0         0         0
         0         0         0         0         0         0         0         0
         0         0         0         0         0         0         0         0
         0         0         0         0         0         0         0         0
         0         0         0         0         0         0         0         0
         0         0         0         0         0         0         0         0
         0         0         0         0         0         0         0         0
         0         0         0         0         0         0         0         0
         0         0         0         0         0         0         0         0
         0         0         0         0         0         0         0         0
         0         0         0         0         0         0         0         0
         0         0         0         0         0         0         0         0
         0         0         0         0         0         0         0         0
         0         0         0         0         0         0         0         0
         0         0         0         0         0         0         0         0
         0         0         0         0         0         0         0         0
         0         0         0         0         0         0         0         0
         0         0         0         0         0         0         0         0
         0         0         0         0         0         0         0         0
         0         0         0         0         0         0         0         0
         0         0         0         0         0         0         0         0
         0         0         0         0         0         0         0         0
         0         0         0         0         0         0         0         0
         0         0         0         0         0         0         0         0
         0         0         0         0         0         0         0         0
         0         0         0         0         0         0         0         0
         0         0         0         0         0         0         0         0
         0         0         0         0         0         0         0         0
         0         0         0         0         0         0         0         0
         0         0         0         0         0         0         0         0
         0         0         0         0         0         0         0         0
         0         0         0         0         0         0         0         0
         0         0         0         0         0         0         0         0
         0         0         0         0         0         0         0         0
         0         0         0         0         0         0         0         0
         0         0         0         0         0         0         0         0
         0         0         0         0         0         0         0         0
         0         0         0         0         0         0         0         0
         0         0         0         0         0         0         0         0
         0         0         0         0         0         0         0         0
         0         0         0         0         0         0         0         0
         0         0         0         0         0         0         0         0
         0         0         0         0         0         0         0         0
         0         0         0         0         0         0         0         0
         0         0         0         0         0         0         0         0
         0         0         0         0         0         0         0         0
         0         0         0         0         0         0         0         0
         0         0         0         0         0         0         0         0
         0         0         0         0         0         0         0         0
         0         0         0         0         0         0         0         0
         0         0         0         0         0         0         0         0
         0         0         0         0         0         0         0         0
         0         0         0         0         0         0         0         0
         0         0         0         0         0         0         0         0
         0         0         0         0         0         0         0         0
         0         0         0         0         0         0         0         0
         0         0         0         0         0         0         0         0
         0         0         0         0         0         0         0         0
         0         0         0         0         0         0         0         0
         0         0         0         0         0         0         0         0
         0         0         0         0         0         0         0         0
         0         0         0         0         0         0         0         0
         0         0         0         0         0         0         0         0
         0         0         0         0         0         0         0         0
         0         0         0         0         0         0         0         0
         0         0         0         0         0         0         0         0
         0         0         0         0         0         0         0         0
         0         0         0         0         0         0         0         0
         0         0         0         0         0         0         0         0
         0         0         0         0         0         0         0         0
         0         0         0         0         0         0         0         0
         0         0         0         0         0         0         0         0
         0         0         0         0         0         0         0         0
         0         0         0         0         0         0         0         0
         0         0         0         0         0         0         0         0
         0         0         0         0         0         0         0         0
         0         0         0         0         0         0         0         0
         0         0         0         0         0         0         0         0
         0         0         0         0         0         0         0         0
         0         0         0         0         0         0         0         0
         0         0         0         0         0         0         0         0
         0         0         0         0         0         0         0         0
         0         0         0         0         0         0         0         0
         0         0         0         0         0         0         0         0
         0         0         0         0         0         0         0         0
         0         0         0         0         0         0         0         0
         0         0         0         0         0         0         0         0
         0         0         0         0         0         0         0         0
         0         0         0         0         0         0         0         0
         0         0         0         0         0         0         0         0
         0         0         0         0         0         0         0         0
         0         0         0         0         0         0         0         0
         0         0         0         0         0         0         0         0
         0         0         0         0         0         0         0         0
         0         0         0         0         0         0         0         0
         0         0         0         0         0         0         0         0
         0         0         0         0         0         0         0         0
         0         0         0         0         0         0         0         0
         0         0         0         0         0         0         0         0
         0         0         0         0         0         0         0         0
         0         0         0         0         0         0         0         0
         0         0         0         0         0         0         0         0
         0         0         0         0         0         0         0         0
         0         0         0         0         0         0         0         0
         0         0         0         0         0         0         0         0
         0         0         0         0         0         0         0         0
         0         0         0         0         0         0         0         0
         0         0         0         0         0         0         0         0
         0         0         0         0         0         0         0         0
         0         0         0         0         0         0         0         0
         0         0         0         0         0         0         0         0
         0         0         0         0         0         0         0         0
         0         0         0         0         0         0         0         0
         0         0         0         0         0         0         0         0
         0         0         0         0         0         0         0         0
         0         0         0         0         0         0         0         0
         0         0         0         0         0         0         0         0
         0         0         0         0         0         0         0         0
         0         0         0         0         0         0         0         0
         0         0         0         0         0         0         0         0
         0         0         0         0         0         0         0         0
         0         0         0         0         0         0         0         0
         0         0         0         0         0         0         0         0
         0         0         0         0         0         0         0         0
         0         0         0         0         0         0         0         0
         0         0         0         0         0         0         0         0
         0         0         0         0         0         0         0         0
         0         0         0         0         0         0         0         0
         0         0         0         0         0         0         0         0
         0         0         0         0         0         0         0         0
         0         0         0         0         0         0         0         0
         0         0         0         0         0         0         0         0
         0         0         0         0         0         0         0         0
         0         0         0         0         0         0         0         0
         0         0         0         0         0         0         0         0
         0         0         0         0         0         0         0         0
         0         0         0         0         0         0         0         0
         0         0         0         0         0         0         0         0
         0         0         0         0         0         0         0         0
         0         0         0         0         0         0         0         0
         0         0         0         0         0         0         0         0
         0         0         0         0         0         0         0         0
         0         0         0         0         0         0         0         0
         0         0         0         0         0         0         0         0
         0         0         0         0         0         0         0         0
         0         0         0         0         0         0         0         0
         0         0         0         0         0         0         0         0
         0         0         0         0         0         0         0         0
         0         0         0         0         0         0         0         0
         0         0         0         0         0         0         0         0
         0         0         0         0         0         0         0         0
         0         0         0         0         0         0         0         0
         0         0         0         0         0         0         0         0
         0         0         0         0         0         0         0         0
         0         0         0         0         0         0         0         0
         0         0         0         0         0         0         0         0
         0         0         0         0         0         0         0         0
         0         0         0         0         0         0         0         0
         0         0         0         0         0         0         0         0
         0         0         0         0         0         0         0         0
         0         0         0         0         0         0         0         0
         0         0         0         0         0         0         0         0
         0         0         0         0         0         0         0         0
         0         0         0         0         0         0         0         0
         0         0         0         0         0         0         0         0
         0         0         0         0         0         0         0         0
         0         0         0         0         0         0         0         0
         0         0         0         0         0         0         0         0
         0         0         0         0         0         0         0         0
         0         0         0         0         0         0         0         0
         0         0         0         0         0         0         0         0
         0         0         0         0         0         0         0         0
         0         0         0         0         0         0         0         0
         0         0         0         0         0         0         0         0
         0         0         0         0         0         0         0         0
         0         0         0         0         0         0         0         0
         0         0         0         0         0         0         0         0
         0         0         0         0         0         0         0         0
         0         0         0         0         0         0         0         0
         0         0         0         0         0         0         0         0
         0         0         0         0         0         0         0         0
         0         0         0         0         0         0         0         0
         0         0         0         0         0         0         0         0
         0         0         0         0         0         0         0         0
         0         0         0         0         0         0         0         0
         0         0         0         0         0         0         0         0
         0         0         0         0         0         0         0         0
         0         0         0         0         0         0         0         0
         0         0         0         0         0         0         0         0
         0         0         0         0         0         0         0         0
         0         0         0         0         0         0         0         0
         0         0         0         0         0         0         0         0
         0         0         0         0         0         0         0         0
         0         0         0         0         0         0         0         0
         0         0         0         0         0         0         0         0
         0         0         0         0         0         0         0         0
         0         0         0         0         0         0         0         0
         0         0         0         0         0         0         0         0
         0         0         0         0         0         0         0         0
         0         0         0         0         0         0         0         0
         0         0         0         0         0         0         0         0
         0         0         0         0         0         0         0         0
         0         0         0         0         0         0         0         0
         0         0         0         0         0         0         0         0
         0         0         0         0         0         0         0         0
         0         0         0         0         0         0         0         0
         0         0         0         0         0         0         0         0
         0         0         0         0         0         0         0         0
         0         0         0         0         0         0         0         0
         0         0         0         0         0         0         0         0
         0         0         0         0         0         0         0         0
         0         0         0         0         0         0         0         0
         0         0         0         0         0         0         0         0
         0         0         0         0         0         0         0         0
         0         0         0         0         0         0         0         0
         0         0         0         0         0         0         0         0
         0         0         0         0         0         0         0         0
         0         0         0         0         0         0         0         0
         0         0         0         0         0         0         0         0
         0         0         0         0         0         0         0         0
         0         0         0         0         0         0         0         0
         0         0         0         0         0         0         0         0
         0         0         0         0         0         0         0         0
         0         0         0         0         0         0         0         0
         0         0         0         0         0         0         0         0
         0         0         0         0         0         0         0         0
         0         0         0         0         0         0         0         0
         0         0         0         0         0         0         0         0
         0         0         0         0         0         0         0         0
         0         0         0         0         0         0         0         0
         0         0         0         0         0         0         0         0
         0         0         0         0         0         0         0         0
         0         0         0         0         0         0         0         0
         0         0         0         0         0         0         0         0
         0         0         0         0         0         0         0         0
         0         0         0         0         0         0         0         0
         0         0         0         0         0         0         0         0
         0         0         0         0         0         0         0         0
         0         0         0         0         0         0         0         0
         0         0         0         0         0         0         0         0
         0         0         0         0         0         0         0         0
         0         0         0         0         0         0         0         0
         0         0         0         0         0         0         0         0
         0         0         0         0         0         0         0         0
         0         0         0         0         0         0         0         0
         0         0         0         0         0         0         0         0
         0         0         0         0         0         0         0         0
         0         0         0         0         0         0         0         0
         0         0         0         0         0         0         0         0
         0         0         0         0         0         0         0         0
         0         0         0         0         0         0         0         0
         0         0         0         0         0         0         0         0
         0         0         0         0         0         0         0         0
         0         0         0         0         0         0         0         0
         0         0         0         0         0         0         0         0
         0         0         0         0         0         0         0         0
         0         0         0         0         0         0         0         0
         0         0         0         0         0         0         0         0
         0         0         0         0         0         0         0         0
         0         0         0         0         0         0         0         0
         0         0         0         0         0         0         0         0
         0         0         0         0         0         0         0         0
         0         0         0         0         0         0         0         0
         0         0         0         0         0         0         0         0
         0         0         0         0         0         0         0         0
         0         0         0         0         0         0         0         0
         0         0         0         0         0         0         0         0
         0         0         0         0         0         0         0         0
         0         0         0         0         0         0         0         0
         0         0         0         0         0         0         0         0
         0         0         0         0         0         0         0         0
         0         0         0         0         0         0         0         0
         0         0         0         0         0         0         0         0
         0         0         0         0         0         0         0         0
         0         0         0         0         0         0         0         0
         0         0         0         0         0         0         0         0
         0         0         0         0         0         0         0         0
         0         0         0         0         0         0         0         0
         0         0         0         0         0         0         0         0
         0         0         0         0         0         0         0         0
         0         0         0         0         0         0         0         0
         0         0         0         0         0         0         0         0
         0         0         0         0         0         0         0         0
         0         0         0         0         0         0         0         0
         0         0         0         0         0         0         0         0
         0         0         0         0         0         0         0         0
         0         0         0         0         0         0         0         0
         0         0         0         0         0         0         0         0
         0         0         0         0         0         0         0         0
         0         0         0         0         0         0         0         0
         0         0         0         0         0         0         0         0
         0         0         0         0         0         0         0         0
         0         0         0         0         0         0         0         0
         0         0         0         0         0         0         0         0
         0         0         0         0         0         0         0         0
         0         0         0         0         0         0         0         0
         0         0         0         0         0         0         0         0
         0         0         0         0         0         0         0         0
         0         0         0         0         0         0         0         0
         0         0         0         0         0         0         0         0
         0         0         0         0         0         0         0         0
         0         0         0         0         0         0         0         0
         0         0         0         0         0         0         0         0
         0         0         0         0         0         0         0         0
         0         0         0         0         0         0         0         0
         0         0         0         0         0         0         0         0
         0         0         0         0         0         0         0         0
         0         0         0         0         0         0         0         0
         0         0         0         0         0         0         0         0
         0         0         0         0         0         0         0         0
         0         0         0         0         0         0         0         0
         0         0         0         0         0         0         0         0
         0         0         0         0         0         0         0         0
         0         0         0         0         0         0         0         0
         0         0         0         0         0         0         0         0
         0         0         0         0         0         0         0         0
         0         0         0         0         0         0         0         0
         0         0         0         0         0         0         0         0
         0         0         0         0         0         0         0         0
         0         0         0         0         0         0         0         0
         0         0         0         0         0         0         0         0
         0         0         0         0         0         0         0         0
         0         0         0         0         0         0         0         0
         0         0         0         0         0         0         0         0
         0         0         0         0         0         0         0         0
         0         0         0         0         0         0         0         0
         0         0         0         0         0         0         0         0
         0         0         0         0         0         0         0         0
         0         0         0         0         0         0         0         0
         0         0         0         0         0         0         0         0
         0         0         0         0         0         0         0         0
         0         0         0         0         0         0         0         0
         0         0         0         0         0         0         0         0
         0         0         0         0         0         0         0         0
         0         0         0         0         0         0         0         0
         0         0         0         0         0         0         0         0
         0         0         0         0         0         0         0         0
         0         0         0         0         0         0         0         0
         0         0         0         0         0         0         0         0
         0         0         0         0         0         0         0         0
         0         0         0         0         0         0         0         0
         0         0         0         0         0         0         0         0
         0         0         0         0         0         0         0         0
         0         0         0         0         0         0         0         0
         0         0         0         0         0         0         0         0
         0         0         0         0         0         0         0         0
         0         0         0         0         0         0         0         0
         0         0         0         0         0         0         0         0
         0         0         0         0         0         0         0         0
         0         0         0         0         0         0         0         0
         0         0         0         0         0         0         0         0
         0         0         0         0         0         0         0         0
         0         0         0         0         0         0         0         0
         0         0         0         0         0         0         0         0
         0         0         0         0         0         0         0         0
         0         0         0         0         0         0         0         0
         0         0         0         0         0         0         0         0
         0         0         0         0         0         0         0         0
         0         0         0         0         0         0         0         0
         0         0         0         0         0         0         0         0
         0         0         0         0         0         0         0         0
         0         0         0         0         0         0         0         0
         0         0         0         0         0         0         0         0
         0         0         0         0         0         0         0         0
         0         0         0         0         0         0         0         0
         0         0         0         0         0         0         0         0
         0         0         0         0         0         0         0         0
         0         0         0         0         0         0         0         0
         0         0         0         0         0         0         0         0
         0         0         0         0         0         0         0         0
         0         0         0         0         0         0         0         0
         0         0         0         0         0         0         0         0
         0         0         0         0         0         0         0         0
         0         0         0         0         0         0         0         0
         0         0         0         0         0         0         0         0
         0         0         0         0         0         0         0         0
         0         0         0         0         0         0         0         0
         0         0         0         0         0         0         0         0
         0         0         0         0         0         0         0         0
         0         0         0         0         0         0         0         0
         0         0         0         0         0         0         0         0
         0         0         0         0         0         0         0         0
         0         0         0         0         0         0         0         0
         0         0         0         0         0         0         0         0
         0         0         0         0         0         0         0         0
         0         0         0         0         0         0         0         0
         0         0         0         0         0         0         0         0
         0         0         0         0         0         0         0         0
         0         0         0         0         0         0         0         0
         0         0         0         0         0         0         0         0
         0         0         0         0         0         0         0         0
         0         0         0         0         0         0         0         0
         0         0         0         0         0         0         0         0
         0         0         0         0         0         0         0         0
         0         0         0         0         0         0         0         0
         0         0         0         0         0         0         0         0
         0         0         0         0         0         0         0         0
         0         0         0         0         0         0         0         0
         0         0         0         0         0         0         0         0
         0         0         0         0         0         0         0         0
         0         0         0         0         0         0         0         0
         0         0         0         0         0         0         0         0
         0         0         0         0         0         0         0         0
         0         0         0         0         0         0         0         0
         0         0         0         0         0         0         0         0
         0         0         0         0         0         0         0         0
         0         0         0         0         0         0         0         0
         0         0         0         0         0         0         0         0
         0         0         0         0         0         0         0         0
         0         0         0         0         0         0         0         0
         0         0         0         0         0         0         0         0
         0         0         0         0         0         0         0         0
         0         0         0         0         0         0         0         0
         0         0         0         0         0         0         0         0
         0         0         0         0         0         0         0         0
         0         0         0         0         0         0         0         0
         0         0         0         0         0         0         0         0
         0         0         0         0         0         0         0         0
         0         0         0         0         0         0         0         0
         0         0         0         0         0         0         0         0
         0         0         0         0         0         0         0         0
         0         0         0         0         0         0         0         0
         0         0         0         0         0         0         0         0
         0         0         0         0         0         0         0         0
         0         0         0         0         0         0         0         0
         0         0         0         0         0         0         0         0
         0         0         0         0         0         0         0         0
         0         0         0         0         0         0         0         0
         0         0         0         0         0         0         0         0
         0         0         0         0         0         0         0         0
         0         0         0         0         0         0         0         0
         0         0         0         0         0         0         0         0
         0         0         0         0         0         0         0         0
         0         0         0         0         0         0         0         0
         0         0         0         0         0         0         0         0
         0         0         0         0         0         0         0         0
         0         0         0         0         0         0         0         0
         0         0         0         0         0         0         0         0
         0         0         0         0         0         0         0         0
         0         0         0         0         0         0         0         0
         0         0         0         0         0         0         0         0
         0         0         0         0         0         0         0         0
         0         0         0         0         0         0         0         0
         0         0         0         0         0         0         0         0
         0         0         0         0         0         0         0         0
         0         0         0         0         0         0         0         0
         0         0         0         0         0         0         0         0
         0         0         0         0         0         0         0         0
         0         0         0         0         0         0         0         0
         0         0         0         0         0         0         0         0
         0         0         0         0         0         0         0         0
         0         0         0         0         0         0         0         0
         0         0         0         0         0         0         0         0
         0         0         0         0         0         0         0         0
         0         0         0         0         0         0         0         0
         0         0         0         0         0         0         0         0
         0         0         0         0         0         0         0         0
         0         0         0         0         0         0         0         0
         0         0         0         0         0         0         0         0
         0         0         0         0         0         0         0         0
         0         0         0         0         0         0         0         0
         0         0         0         0         0         0         0         0
         0         0         0         0         0         0         0         0
         0         0         0         0         0         0         0         0
         0         0         0         0         0         0         0         0
         0         0         0         0         0         0         0         0
         0         0         0         0         0         0         0         0
         0         0         0         0         0         0         0         0
         0         0         0         0         0         0         0         0
         0         0         0         0         0         0         0         0
         0         0         0         0         0         0         0         0
         0         0         0         0         0         0         0         0
         0         0         0         0         0         0         0         0
         0         0         0         0         0         0         0         0
         0         0         0         0         0         0         0         0
         0         0         0         0         0         0         0         0
         0         0         0         0         0         0         0         0
         0         0         0         0         0         0         0         0
         0         0         0         0         0         0         0         0
         0         0         0         0         0         0         0         0
         0         0         0         0         0         0         0         0
         0         0         0         0         0         0         0         0
         0         0         0         0         0         0         0         0
         0         0         0         0         0         0         0         0
         0         0         0         0         0         0         0         0
         0         0         0         0         0         0         0         0
         0         0         0         0         0         0         0         0
         0         0         0         0         0         0         0         0
         0         0         0         0         0         0         0         0
         0         0         0         0         0         0         0         0
         0         0         0         0         0         0         0         0
         0         0         0         0         0         0         0         0
         0         0         0         0         0         0         0         0
         0         0         0         0         0         0         0         0
         0         0         0         0         0         0         0         0
         0         0         0         0         0         0         0         0
         0         0         0         0         0         0         0         0
         0         0         0         0         0         0         0         0
         0         0         0         0         0         0         0         0
         0         0         0         0         0         0         0         0
         0         0         0         0         0         0         0         0
         0         0         0         0         0         0         0         0
         0         0         0         0         0         0         0         0
         0         0         0         0         0         0         0         0
         0         0         0         0         0         0         0         0
         0         0         0         0         0         0         0         0
         0         0         0         0         0         0         0         0
         0         0         0         0         0         0         0         0
         0         0         0         0         0         0         0         0
         0         0         0         0         0         0         0         0
         0         0         0         0         0         0         0         0
         0         0         0         0         0         0         0         0
         0         0         0         0         0         0         0         0
         0         0         0         0         0         0         0         0
         0         0         0         0         0         0         0         0
         0         0         0         0         0         0         0         0
         0         0         0         0         0         0         0         0
         0         0         0         0         0         0         0         0
         0         0         0         0         0         0         0         0
         0         0         0         0         0         0         0         0
         0         0         0         0         0         0         0         0
         0         0         0         0         0         0         0         0
         0         0         0         0         0         0         0         0
         0         0         0         0         0         0         0         0
         0         0         0         0         0         0         0         0
         0         0         0         0         0         0         0         0
         0         0         0         0         0         0         0         0
         0         0         0         0         0         0         0         0
         0         0         0         0         0         0         0         0
         0         0         0         0         0         0         0         0
         0         0         0         0         0         0         0         0
         0         0         0         0         0         0         0         0
         0         0         0         0         0         0         0         0
         0         0         0         0         0         0         0         0
         0         0         0         0         0         0         0         0
         0         0         0         0         0         0         0         0
         0         0         0         0         0         0         0         0
         0         0         0         0         0         0         0         0
         0         0         0         0         0         0         0         0
         0         0         0         0         0         0         0         0
         0         0         0         0         0         0         0         0
         0         0         0         0         0         0         0         0
         0         0         0         0         0         0         0         0
         0         0         0         0         0         0         0         0
         0         0         0         0         0         0         0         0
         0         0         0         0         0         0         0         0
         0         0         0         0         0         0         0         0
         0         0         0         0         0         0         0         0
         0         0         0         0         0         0         0         0
         0         0         0         0         0         0         0         0
         0         0         0         0         0         0         0         0
         0         0         0         0         0         0         0         0
         0         0         0         0         0         0         0         0
         0         0         0         0         0         0         0         0
         0         0         0         0         0         0         0         0
         0         0         0         0         0         0         0         0
         0         0         0         0         0         0         0         0
         0         0         0         0         0         0         0         0
         0         0         0         0         0         0         0         0
         0         0         0         0         0         0         0         0
         0         0         0         0         0         0         0         0
         0         0         0         0         0         0         0         0
         0         0         0         0         0         0         0         0
         0         0         0         0         0         0         0         0
         0         0         0         0         0         0         0         0
         0         0         0         0         0         0         0         0
         0         0         0         0         0         0         0         0
         0         0         0         0         0         0         0         0
         0         0         0         0         0         0         0         0
         0         0         0         0         0         0         0         0
         0         0         0         0         0         0         0         0
         0         0         0         0         0         0         0         0
         0         0         0         0         0         0         0         0
         0         0         0         0         0         0         0         0
         0         0         0         0         0         0         0         0
         0         0         0         0         0         0         0         0
         0         0         0         0         0         0         0         0
         0         0         0         0         0         0         0         0
         0         0         0         0         0         0         0         0
         0         0         0         0         0         0         0         0
         0         0         0         0         0         0         0         0
         0         0         0         0         0         0         0         0
         0         0         0         0         0         0         0         0
         0         0         0         0         0         0         0         0
         0         0         0         0         0         0         0         0
         0         0         0         0         0         0         0         0
         0         0         0         0         0         0         0         0
         0         0         0         0         0         0         0         0
         0         0         0         0         0         0         0         0
         0         0         0         0         0         0         0         0
         0         0         0         0         0         0         0         0
         0         0         0         0         0         0         0         0
         0         0         0         0         0         0         0         0
         0         0         0         0         0         0         0         0
         0         0         0         0         0         0         0         0
         0         0         0         0         0         0         0         0
         0         0         0         0         0         0         0         0
         0         0         0         0         0         0         0         0
         0         0         0         0         0         0         0         0
         0         0         0         0         0         0         0         0
         0         0         0         0         0         0         0         0
         0         0         0         0         0         0         0         0
         0         0         0         0         0         0         0         0
         0         0         0         0         0         0         0         0
         0         0         0         0         0         0         0         0
         0         0         0         0         0         0         0         0
         0         0         0         0         0         0         0         0
         0         0         0         0         0         0         0         0
         0         0         0         0         0         0         0         0
         0         0         0         0         0         0         0         0
         0         0         0         0         0         0         0         0
         0         0         0         0         0         0         0         0
         0         0         0         0         0         0         0         0
         0         0         0         0         0         0         0         0
         0         0         0         0         0         0         0         0
         0         0         0         0         0         0         0         0
         0         0         0         0         0         0         0         0
         0         0         0         0         0         0         0         0
         0         0         0         0         0         0         0         0
         0         0         0         0         0         0         0         0
         0         0         0         0         0         0         0         0
         0         0         0         0         0         0         0         0
         0         0         0         0         0         0         0         0
         0         0         0         0         0         0         0         0
         0         0         0         0         0         0         0         0
         0         0         0         0         0         0         0         0
         0         0         0         0         0         0         0         0
         0         0         0         0         0         0         0         0
         0         0         0         0         0         0         0         0
         0         0         0         0         0         0         0         0
         0         0         0         0         0         0         0         0
         0         0         0         0         0         0         0         0
         0         0         0         0         0         0         0         0
         0         0         0         0         0         0         0         0
         0         0         0         0         0         0         0         0
         0         0         0         0         0         0         0         0
         0         0         0         0         0         0         0         0
         0         0         0         0         0         0         0         0
         0         0         0         0         0         0         0         0
         0         0         0         0         0         0         0         0
         0         0         0         0         0         0         0         0
         0         0         0         0         0         0         0         0
         0         0         0         0         0         0         0         0
         0         0         0         0         0         0         0         0
         0         0         0         0         0         0         0         0
         0         0         0         0         0         0         0         0
         0         0         0         0         0         0         0         0
         0         0         0         0         0         0         0         0
         0         0         0         0         0         0         0         0
         0         0         0         0         0         0         0         0
         0         0         0         0         0         0         0         0
         0         0         0         0         0         0         0         0
         0         0         0         0         0         0         0         0
         0         0         0         0         0         0         0         0
         0         0         0         0         0         0         0         0
         0         0         0         0         0         0         0         0
         0         0         0         0         0         0         0         0
         0         0         0         0         0         0         0         0
         0         0         0         0         0         0         0         0
         0         0         0         0         0         0         0         0
         0         0         0         0         0         0         0         0
         0         0         0         0         0         0         0         0
         0         0         0         0         0         0         0         0
         0         0         0         0         0         0         0         0
         0         0         0         0         0         0         0         0
         0         0         0         0         0         0         0         0
         0         0         0         0         0         0         0         0
         0         0         0         0         0         0         0         0
         0         0         0         0         0         0         0         0
         0         0         0         0         0         0         0         0
         0         0         0         0         0         0         0         0
         0         0         0         0         0         0         0         0
         0         0         0         0         0         0         0         0
         0         0         0         0         0         0         0         0
         0         0         0         0         0         0         0         0
         0         0         0         0         0         0         0         0
         0         0         0         0         0         0         0         0
         0         0         0         0         0         0         0         0
         0         0         0         0         0         0         0         0
         0         0         0         0         0         0         0         0
         0         0         0         0         0         0         0         0
         0         0         0         0         0         0         0         0
         0         0         0         0         0         0         0         0
         0         0         0         0         0         0         0         0
         0         0         0         0         0         0         0         0
         0         0         0         0         0         0         0         0
         0         0         0         0         0         0         0         0
         0         0         0         0         0         0         0         0
         0         0         0         0         0         0         0         0
         0         0         0         0         0         0         0         0
         0         0         0         0         0         0         0         0
         0         0         0         0         0         0         0         0
         0         0         0         0         0         0         0         0
         0         0         0         0         0         0         0         0
         0         0         0         0         0         0         0         0
         0         0         0         0         0         0         0         0
         0         0         0         0         0         0         0         0
         0         0         0         0         0         0         0         0
         0         0         0         0         0         0         0         0
         0         0         0         0         0         0         0         0
         0         0         0         0         0         0         0         0
         0         0         0         0         0         0         0         0
         0         0         0         0         0         0         0         0
         0         0         0         0         0         0         0         0
         0         0         0         0         0         0         0         0
         0         0         0         0         0         0         0         0
         0         0         0         0         0         0         0         0
         0         0         0         0         0         0         0         0
         0         0         0         0         0         0         0         0
         0         0         0         0         0         0         0         0
         0         0         0         0         0         0         0         0
         0         0         0         0         0         0         0         0
         0         0         0         0         0         0         0         0
         0         0         0         0         0         0         0         0
         0         0         0         0         0         0         0         0
         0         0         0         0         0         0         0         0
         0         0         0         0         0         0         0         0
         0         0         0         0         0         0         0         0
         0         0         0         0         0         0         0         0
         0         0         0         0         0         0         0         0
         0         0         0         0         0         0         0         0
         0         0         0         0         0         0         0         0
         0         0         0         0         0         0         0         0
         0         0         0         0         0         0         0         0
         0         0         0         0         0         0         0         0
         0         0         0         0         0         0         0         0
         0         0         0         0         0         0         0         0
         0         0         0         0         0         0         0         0
         0         0         0         0         0         0         0         0
         0         0         0         0         0         0         0         0
         0         0         0         0         0         0         0         0
         0         0         0         0         0         0         0         0
         0         0         0         0         0         0         0         0
         0         0         0         0         0         0         0         0
         0         0         0         0         0         0         0         0
         0         0         0         0         0         0         0         0
         0         0         0         0         0         0         0         0
         0         0         0         0         0         0         0         0
         0         0         0         0         0         0         0         0
         0         0         0         0         0         0         0         0
         0         0         0         0         0         0         0         0
         0         0         0         0         0         0         0         0
         0         0         0         0         0         0         0         0
         0         0         0         0         0         0         0         0
         0         0         0         0         0         0         0         0
         0         0         0         0         0         0         0         0
         0         0         0         0         0         0         0         0
         0         0         0         0         0         0         0         0
         0         0         0         0         0         0         0         0
         0         0         0         0         0         0         0         0
         0         0         0         0         0         0         0         0
         0         0         0         0         0         0         0         0
         0         0         0         0         0         0         0         0
         0         0         0         0         0         0         0         0
         0         0         0         0         0         0         0         0
         0         0         0         0         0         0         0         0
         0         0         0         0         0         0         0         0
         0         0         0         0         0         0         0         0
         0         0         0         0         0         0         0         0
         0         0         0         0         0         0         0         0
         0         0         0         0         0         0         0         0
         0         0         0         0         0         0         0         0
         0         0         0         0         0         0         0         0
         0         0         0         0         0         0         0         0
         0         0         0         0         0         0         0         0
         0         0         0         0         0         0         0         0
         0         0         0         0         0         0         0         0
         0         0         0         0         0         0         0         0
         0         0         0         0         0         0         0         0
         0         0         0         0         0         0         0         0
         0         0         0         0         0         0         0         0
         0         0         0         0         0         0         0         0
         0         0         0         0         0         0         0         0
         0         0         0         0         0         0         0         0
         0         0         0         0         0         0         0         0
         0         0         0         0         0         0         0         0
         0         0         0         0         0         0         0         0
         0         0         0         0         0         0         0         0
         0         0         0         0         0         0         0         0
         0         0         0         0         0         0         0         0
         0         0         0         0         0         0         0         0
         0         0         0         0         0         0         0         0
         0         0         0         0         0         0         0         0
         0         0         0         0         0         0         0         0
         0         0         0         0         0         0         0         0
         0         0         0         0         0         0         0         0
         0         0         0         0         0         0         0         0
         0         0         0         0         0         0         0         0
         0         0         0         0         0         0         0         0
         0         0         0         0         0         0         0         0
         0         0         0         0         0         0         0         0
         0         0         0         0         0         0         0         0
         0         0         0         0         0         0         0         0
         0         0         0         0         0         0         0         0
         0         0         0         0         0         0         0         0
         0         0         0         0         0         0         0         0
         0         0         0         0         0         0         0         0
         0         0         0         0         0         0         0         0
         0         0         0         0         0         0         0         0
         0         0         0         0         0         0         0         0
         0         0         0         0         0         0         0         0
         0         0         0         0         0         0         0         0
         0         0         0         0         0         0         0         0
         0         0         0         0         0         0         0         0
         0         0         0         0         0         0         0         0
         0         0         0         0         0         0         0         0
         0         0         0         0         0         0         0         0
         0         0         0         0         0         0         0         0
         0         0         0         0         0         0         0         0
         0         0         0         0         0         0         0         0
         0         0         0         0         0         0         0         0
         0         0         0         0         0         0         0         0
         0         0         0         0         0         0         0         0
         0         0         0         0         0         0         0         0
         0         0         0         0         0         0         0         0
         0         0         0         0         0         0         0         0
         0         0         0         0         0         0         0         0
         0         0         0         0         0         0         0         0
         0         0         0         0         0         0         0         0
         0         0         0         0         0         0         0         0
         0         0         0         0         0         0         0         0
         0         0         0         0         0         0         0         0
         0         0         0         0         0         0         0         0
         0         0         0         0         0         0         0         0
         0         0         0         0         0         0         0         0
         0         0         0         0         0         0         0         0
         0         0         0         0         0         0         0         0
         0         0         0         0         0         0         0         0
         0         0         0         0         0         0         0         0
         0         0         0         0         0         0         0         0
         0         0         0         0         0         0         0         0
         0         0         0         0         0         0         0         0
         0         0         0         0         0         0         0         0
         0         0         0         0         0         0         0         0
         0         0         0         0         0         0         0         0
         0         0         0         0         0         0         0         0
         0         0         0         0         0         0         0         0
         0         0         0         0         0         0         0         0
         0         0         0         0         0         0         0         0
         0         0         0         0         0         0         0         0
         0         0         0         0         0         0         0         0
         0         0         0         0         0         0         0         0
         0         0         0         0         0         0         0         0
         0         0         0         0         0         0         0         0
         0         0         0         0         0         0         0         0
         0         0         0         0         0         0         0         0
         0         0         0         0         0         0         0         0
         0         0         0         0         0         0         0         0
         0         0         0         0         0         0         0         0
         0         0         0         0         0         0         0         0
         0         0         0         0         0         0         0         0
         0         0         0         0         0         0         0         0
         0         0         0         0         0         0         0         0
         0         0         0         0         0         0         0         0
         0         0         0         0         0         0         0         0
         0         0         0         0         0         0         0         0
         0         0         0         0         0         0         0         0
         0         0         0         0         0         0         0         0
         0         0         0         0         0         0         0         0
         0         0         0         0         0         0         0         0
         0         0         0         0         0         0         0         0
         0         0         0         0         0         0         0         0
         0         0         0         0         0         0         0         0
         0         0         0         0         0         0         0         0
         0         0         0         0         0         0         0         0
         0         0         0         0         0         0         0         0
         0         0         0         0         0         0         0         0
         0         0         0         0         0         0         0         0
         0         0         0         0         0         0         0         0
         0         0         0         0         0         0         0         0
         0         0         0         0         0         0         0         0
         0         0         0         0         0         0         0         0
         0         0         0         0         0         0         0         0
         0         0         0         0         0         0         0         0
         0         0         0         0         0         0         0         0
         0         0         0         0         0         0         0         0
         0         0         0         0         0         0         0         0
         0         0         0         0         0         0         0         0
         0         0         0         0         0         0         0         0
         0         0         0         0         0         0         0         0
         0         0         0         0         0         0         0         0
         0         0         0         0         0         0         0         0
         0         0         0         0         0         0         0         0
         0         0         0         0         0         0         0         0
         0         0         0         0         0         0         0         0
         0         0         0         0         0         0         0         0
         0         0         0         0         0         0         0         0
         0         0         0         0         0         0         0         0
         0         0         0         0         0         0         0         0
         0         0         0         0         0         0         0         0
         0         0         0         0         0         0         0         0
         0         0         0         0         0         0         0         0
         0         0         0         0         0         0         0         0
         0         0         0         0         0         0         0         0
         0         0         0         0         0         0         0         0
         0         0         0         0         0         0         0         0
         0         0         0         0         0         0         0         0
         0         0         0         0         0         0         0         0
         0         0         0         0         0         0         0         0
         0         0         0         0         0         0         0         0
         0         0         0         0         0         0         0         0
         0         0         0         0         0         0         0         0
         0         0         0         0         0         0         0         0
         0         0         0         0         0         0         0         0
         0         0         0         0         0         0         0         0
         0         0         0         0         0         0         0         0
         0         0         0         0         0         0         0         0
         0         0         0         0         0         0         0         0
         0         0         0         0         0         0         0         0
         0         0         0         0         0         0         0         0
         0         0         0         0         0         0         0         0
         0         0         0         0         0         0         0         0
         0         0         0         0         0         0         0         0
         0         0         0         0         0         0         0         0
         0         0         0         0         0         0         0         0
         0         0         0         0         0         0         0         0
         0         0         0         0         0         0         0         0
         0         0         0         0         0         0         0         0
         0         0         0         0         0         0         0         0
         0         0         0         0         0         0         0         0
         0         0         0         0         0         0         0         0
         0         0         0         0         0         0         0         0
         0         0         0         0         0         0         0         0
         0         0         0         0         0         0         0         0
         0         0         0         0         0         0         0         0
         0         0         0         0         0         0         0         0
         0         0         0         0         0         0         0         0
         0         0         0         0         0         0         0         0
         0         0         0         0         0         0         0         0
         0         0         0         0         0         0         0         0
         0         0         0         0         0         0         0         0
         0         0         0         0         0         0         0         0
         0         0         0         0         0         0         0         0
         0         0         0         0         0         0         0         0
         0         0         0         0         0         0         0         0
         0         0         0         0         0         0         0         0
         0         0         0         0         0         0         0         0
         0         0         0         0         0         0         0         0
         0         0         0         0         0         0         0         0
         0         0         0         0         0         0         0         0
         0         0         0         0         0         0         0         0
         0         0         0         0         0         0         0         0
         0         0         0         0         0         0         0         0
         0         0         0         0         0         0         0         0
         0         0         0         0         0         0         0         0
         0         0         0         0         0         0         0         0
         0         0         0         0         0         0         0         0
         0         0         0         0         0         0         0         0
         0         0         0         0         0         0         0         0
         0         0         0         0         0         0         0         0
         0         0         0         0         0         0         0         0
         0         0         0         0         0         0         0         0
         0         0         0         0         0         0         0         0
         0         0         0         0         0         0         0         0
         0         0         0         0         0         0         0         0
         0         0         0         0         0         0         0         0
         0         0         0         0         0         0         0         0
         0         0         0         0         0         0         0         0
         0         0         0         0         0         0         0         0
         0         0         0         0         0         0         0         0
         0         0         0         0         0         0         0         0
         0         0         0         0         0         0         0         0
         0         0         0         0         0         0         0         0
         0         0         0         0         0         0         0         0
         0         0         0         0         0         0         0         0
         0         0         0         0         0         0         0         0
         0         0         0         0         0         0         0         0
         0         0         0         0         0         0         0         0
         0         0         0         0         0         0         0         0
         0         0         0         0         0         0         0         0
         0         0         0         0         0         0         0         0
         0         0         0         0         0         0         0         0
         0         0         0         0         0         0         0         0
         0         0         0         0         0         0         0         0
         0         0         0         0         0         0         0         0
         0         0         0         0         0         0         0         0
         0         0         0         0         0         0         0         0
         0         0         0         0         0         0         0         0
         0         0         0         0         0         0         0         0
         0         0         0         0         0         0         0         0
         0         0         0         0         0         0         0         0
         0         0         0         0         0         0         0         0
         0         0         0         0         0         0         0         0
         0         0         0         0         0         0         0         0
         0         0         0         0         0         0         0         0
         0         0         0         0         0         0         0         0
         0         0         0         0         0         0         0         0
         0         0         0         0         0         0         0         0
         0         0         0         0         0         0         0         0
         0         0         0         0         0         0         0         0
         0         0         0         0         0         0         0         0
         0         0         0         0         0         0         0         0
         0         0         0         0         0         0         0         0
         0         0         0         0         0         0         0         0
         0         0         0         0         0         0         0         0
         0         0         0         0         0         0         0         0
         0         0         0         0         0         0         0         0
         0         0         0         0         0         0         0         0
         0         0         0         0         0         0         0         0
         0         0         0         0         0         0         0         0
         0         0         0         0         0         0         0         0
         0         0         0         0         0         0         0         0
         0         0         0         0         0         0         0         0
         0         0         0         0         0         0         0         0
         0         0         0         0         0         0         0         0
         0         0         0         0         0         0         0         0
         0         0         0         0         0         0         0         0
         0         0         0         0         0         0         0         0
         0         0         0         0         0         0         0         0
         0         0         0         0         0         0         0         0
         0         0         0         0         0         0         0         0
         0         0         0         0         0         0         0         0
         0         0         0         0         0         0         0         0
         0         0         0         0         0         0         0         0
         0         0         0         0         0         0         0         0
         0         0         0         0         0         0         0         0
         0         0         0         0         0         0         0         0
         0         0         0         0         0         0         0         0
         0         0         0         0         0         0         0         0
         0         0         0         0         0         0         0         0
         0         0         0         0         0         0         0         0
         0         0         0         0         0         0         0         0
         0         0         0         0         0         0         0         0
         0         0         0         0         0         0         0         0
         0         0         0         0         0         0         0         0
         0         0         0         0         0         0         0         0
         0         0         0         0         0         0         0         0
         0         0         0         0         0         0         0         0
         0         0         0         0         0         0         0         0
         0         0         0         0         0         0         0         0
         0         0         0         0         0         0         0         0
         0         0         0         0         0         0         0         0
         0         0         0         0         0         0         0         0
         0         0         0         0         0         0         0         0
         0         0         0         0         0         0         0         0
         0         0         0         0         0         0         0         0
         0         0         0         0         0         0         0         0
         0         0         0         0         0         0         0         0
         0         0         0         0         0         0         0         0
         0         0         0         0         0         0         0         0
         0         0         0         0         0         0         0         0
         0         0         0         0         0         0         0         0
         0         0         0         0         0         0         0         0
         0         0         0         0         0         0         0         0
         0         0         0         0         0         0         0         0
         0         0         0         0         0         0         0         0
         0         0         0         0         0         0         0         0
         0         0         0         0         0         0         0         0
         0         0         0         0         0         0         0         0
         0         0         0         0         0         0         0         0
         0         0         0         0         0         0         0         0
         0         0         0         0         0         0         0         0
         0         0         0         0         0         0         0         0
         0         0         0         0         0         0         0         0
         0         0         0         0         0         0         0         0
         0         0         0         0         0         0         0         0
         0         0         0         0         0         0         0         0
         0         0         0         0         0         0         0         0
         0         0         0         0         0         0         0         0
         0         0         0         0         0         0         0         0
         0         0         0         0         0         0         0         0
         0         0         0         0         0         0         0         0
         0         0         0         0         0         0         0         0
         0         0         0         0         0         0         0         0
         0         0         0         0         0         0         0         0
         0         0         0         0         0         0         0         0
         0         0         0         0         0         0         0         0
         0         0         0         0         0         0         0         0
         0         0         0         0         0         0         0         0
         0         0         0         0         0         0         0         0
         0         0         0         0         0         0         0         0
         0         0         0         0         0         0         0         0
         0         0         0         0         0         0         0         0
         0         0         0         0         0         0         0         0
         0         0         0         0         0         0         0         0
         0         0         0         0         0         0         0         0
         0         0         0         0         0         0         0         0
         0         0         0         0         0         0         0         0
         0         0         0         0         0         0         0         0
         0         0         0         0         0         0         0         0
         0         0         0         0         0         0         0         0
         0         0         0         0         0         0         0         0
         0         0         0         0         0         0         0         0
         0         0         0         0         0         0         0         0
         0         0         0         0         0         0         0         0
         0         0         0         0         0         0         0         0
         0         0         0         0         0         0         0         0
         0         0         0         0         0         0         0         0
         0         0         0         0         0         0         0         0
         0         0         0         0         0         0         0         0
         0         0         0         0         0         0         0         0
         0         0         0         0         0         0         0         0
         0         0         0         0         0         0         0         0
         0         0         0         0         0         0         0         0
         0         0         0         0         0         0         0         0
         0         0         0         0         0         0         0         0
         0         0         0         0         0         0         0         0
         0         0         0         0         0         0         0         0
         0         0         0         0         0         0         0         0
         0         0         0         0         0         0         0         0
         0         0         0         0         0         0         0         0
         0         0         0         0         0         0         0         0
         0         0         0         0         0         0         0         0
         0         0         0         0         0         0         0         0
         0         0         0         0         0         0         0         0
         0         0         0         0         0         0         0         0
         0         0         0         0         0         0         0         0
         0         0         0         0         0         0         0         0
         0         0         0         0         0         0         0         0
         0         0         0         0         0         0         0         0
         0         0         0         0         0         0         0         0
         0         0         0         0         0         0         0         0
         0         0         0         0         0         0         0         0
         0         0         0         0         0         0         0         0
         0         0         0         0         0         0         0         0
         0         0         0         0         0         0         0         0
         0         0         0         0         0         0         0         0
         0         0         0         0         0         0         0         0
         0         0         0         0         0         0         0         0
         0         0         0         0         0         0         0         0
         0         0         0         0         0         0         0         0
         0         0         0         0         0         0         0         0
         0         0         0         0         0         0         0         0
         0         0         0         0         0         0         0         0
         0         0         0         0         0         0         0         0
         0         0         0         0         0         0         0         0
         0         0         0         0         0         0         0         0
         0         0         0         0         0         0         0         0
         0         0         0         0         0         0         0         0
         0         0         0         0         0         0         0         0
         0         0         0         0         0         0         0         0
         0         0         0         0         0         0         0         0
         0         0         0         0         0         0         0         0
         0         0         0         0         0         0         0         0
         0         0         0         0         0         0         0         0
         0         0         0         0         0         0         0         0
         0         0         0         0         0         0         0         0
         0         0         0         0         0         0         0         0
         0         0         0         0         0         0         0         0
         0         0         0         0         0         0         0         0
         0         0         0         0         0         0         0         0
         0         0         0         0         0         0         0         0
         0         0         0         0         0         0         0         0
         0         0         0         0         0         0         0         0
         0         0         0         0         0         0         0         0
         0         0         0         0         0         0         0         0
         0         0         0         0         0         0         0         0
         0         0         0         0         0         0         0         0
         0         0         0         0         0         0         0         0
         0         0         0         0         0         0         0         0
         0         0         0         0         0         0         0         0
         0         0         0         0         0         0         0         0
         0         0         0         0         0         0         0         0
         0         0         0         0         0         0         0         0
         0         0         0         0         0         0         0         0
         0         0         0         0         0         0         0         0
         0         0         0         0         0         0         0         0
         0         0         0         0         0         0         0         0
         0         0         0         0         0         0         0         0
         0         0         0         0         0         0         0         0
         0         0         0         0         0         0         0         0
         0         0         0         0         0         0         0         0
         0         0         0         0         0         0         0         0
         0         0         0         0         0         0         0         0
         0         0         0         0         0         0         0         0
         0         0         0         0         0         0         0         0
         0         0         0         0         0         0         0         0
         0         0         0         0         0         0         0         0
         0         0         0         0         0         0         0         0
         0         0         0         0         0         0         0         0
         0         0         0         0         0         0         0         0
         0         0         0         0         0         0         0         0
         0         0         0         0         0         0         0         0
         0         0         0         0         0         0         0         0
         0         0         0         0         0         0         0         0
         0         0         0         0         0         0         0         0
         0         0         0         0         0         0         0         0
         0         0         0         0         0         0         0         0
         0         0         0         0         0         0         0         0
         0         0         0         0         0         0         0         0
         0         0         0         0         0         0         0         0
         0         0         0         0         0         0         0         0
         0         0         0         0         0         0         0         0
         0         0         0         0         0         0         0         0
         0         0         0         0         0         0         0         0
         0         0         0         0         0         0         0         0
         0         0         0         0         0         0         0         0
         0         0         0         0         0         0         0         0
         0         0         0         0         0         0         0         0
         0         0         0         0         0         0         0         0
         0         0         0         0         0         0         0         0
         0         0         0         0         0         0         0         0
         0         0         0         0         0         0         0         0
         0         0         0         0         0         0         0         0
         0         0         0         0         0         0         0         0
         0         0         0         0         0         0         0         0
         0         0         0         0         0         0         0         0
         0         0         0         0         0         0         0         0
         0         0         0         0         0         0         0         0
         0         0         0         0         0         0         0         0
         0         0         0         0         0         0         0         0
         0         0         0         0         0         0         0         0
         0         0         0         0         0         0         0         0
         0         0         0         0         0         0         0         0
         0         0         0         0         0         0         0         0
         0         0         0         0         0         0         0         0
         0         0         0         0         0         0         0         0
         0         0         0         0         0         0         0         0
         0         0         0         0         0         0         0         0
         0         0         0         0         0         0         0         0
         0         0         0         0         0         0         0         0
         0         0         0         0         0         0         0         0
         0         0         0         0         0         0         0         0
         0         0         0         0         0         0         0         0
         0         0         0         0         0         0         0         0
         0         0         0         0         0         0         0         0
         0         0         0         0         0         0         0         0
         0         0         0         0         0         0         0         0
         0         0         0         0         0         0         0         0
         0         0         0         0         0         0         0         0
         0         0         0         0         0         0         0         0
         0         0         0         0         0         0         0         0
         0         0         0         0         0         0         0         0
         0         0         0         0         0         0         0         0
         0         0         0         0         0         0         0         0
         0         0         0         0         0         0         0         0
         0         0         0         0         0         0         0         0
         0         0         0         0         0         0         0         0
         0         0         0         0         0         0         0         0
         0         0         0         0         0         0         0         0
         0         0         0         0         0         0         0         0
         0         0         0         0         0         0         0         0
         0         0         0         0         0         0         0         0
         0         0         0         0         0         0         0         0
         0         0         0         0         0         0         0         0
         0         0         0         0         0         0         0         0
         0         0         0         0         0         0         0         0
         0         0         0         0         0         0         0         0
         0         0         0         0         0         0         0         0
         0         0         0         0         0         0         0         0
         0         0         0         0         0         0         0         0
         0         0         0         0         0         0         0         0
         0         0         0         0         0         0         0         0
         0         0         0         0         0         0         0         0
         0         0         0         0         0         0         0         0
         0         0         0         0         0         0         0         0
         0         0         0         0         0         0         0         0
         0         0         0         0         0         0         0         0
         0         0         0         0         0         0         0         0
         0         0         0         0         0         0         0         0
         0         0         0         0         0         0         0         0
         0         0         0         0         0         0         0         0
         0         0         0         0         0         0         0         0
         0         0         0         0         0         0         0         0
         0         0         0         0         0         0         0         0
         0         0         0         0         0         0         0         0
         0         0         0         0         0         0         0         0
         0         0         0         0         0         0         0         0
         0         0         0         0         0         0         0         0
         0         0         0         0         0         0         0         0
         0         0         0         0         0         0         0         0
         0         0         0         0         0         0         0         0
         0         0         0         0         0         0         0         0
         0         0         0         0         0         0         0         0
         0         0         0         0         0         0         0         0
         0         0         0         0         0         0         0         0
         0         0         0         0         0         0         0         0
         0         0         0         0         0         0         0         0
         0         0         0         0         0         0         0         0
         0         0         0         0         0         0         0         0
         0         0         0         0         0         0         0         0
         0         0         0         0         0         0         0         0
         0         0         0         0         0         0         0         0
         0         0         0         0         0         0         0         0
         0         0         0         0         0         0         0         0
         0         0         0         0         0         0         0         0
         0         0         0         0         0         0         0         0
         0         0         0         0         0         0         0         0
         0         0         0         0         0         0         0         0
         0         0         0         0         0         0         0         0
         0         0         0         0         0         0         0         0
         0         0         0         0         0         0         0         0
         0         0         0         0         0         0         0         0
         0         0         0         0         0         0         0         0
         0         0         0         0         0         0         0         0
         0         0         0         0         0         0         0         0
         0         0         0         0         0         0         0         0
         0         0         0         0         0         0         0         0
         0         0         0         0         0         0         0         0
         0         0         0         0         0         0         0         0
         0         0         0         0         0         0         0         0
         0         0         0         0         0         0         0         0
         0         0         0         0         0         0         0         0
         0         0         0         0         0         0         0         0
         0         0         0         0         0         0         0         0
         0         0         0         0         0         0         0         0
         0         0         0         0         0         0         0         0
         0         0         0         0         0         0         0         0
         0         0         0         0         0         0         0         0
         0         0         0         0         0         0         0         0
         0         0         0         0         0         0         0         0
         0         0         0         0         0         0         0         0
         0         0         0         0         0         0         0         0
         0         0         0         0         0         0         0         0
         0         0         0         0         0         0         0         0
         0         0         0         0         0         0         0         0
         0         0         0         0         0         0         0         0
         0         0         0         0         0         0         0         0
         0         0         0         0         0         0         0         0
         0         0         0         0         0         0         0         0
         0         0         0         0         0         0         0         0
         0         0         0         0         0         0         0         0
         0         0         0         0         0         0         0         0
         0         0         0         0         0         0         0         0
         0         0         0         0         0         0         0         0
         0         0         0         0         0         0         0         0
         0         0         0         0         0         0         0         0
         0         0         0         0         0         0         0         0
         0         0         0         0         0         0         0         0
         0         0         0         0         0         0         0         0
         0         0         0         0         0         0         0         0
         0         0         0         0         0         0         0         0
         0         0         0         0         0         0         0         0
         0         0         0         0         0         0         0         0
         0         0         0         0         0         0         0         0
         0         0         0         0         0         0         0         0
         0         0         0         0         0         0         0         0
         0         0         0         0         0         0         0         0
         0         0         0         0         0         0         0         0
         0         0         0         0         0         0         0         0
         0         0         0         0         0         0         0         0
         0         0         0         0         0         0         0         0
         0         0         0         0         0         0         0         0
         0         0         0         0         0         0         0         0
         0         0         0         0         0         0         0         0
         0         0         0         0         0         0         0         0
         0         0         0         0         0         0         0         0
         0         0         0         0         0         0         0         0
         0         0         0         0         0         0         0         0
         0         0         0         0         0         0         0         0
         0         0         0         0         0         0         0         0
         0         0         0         0         0         0         0         0
         0         0         0         0         0         0         0         0
         0         0         0         0         0         0         0         0
         0         0         0         0         0         0         0         0
         0         0         0         0         0         0         0         0
         0         0         0         0         0         0         0         0
         0         0         0         0         0         0         0         0
         0         0         0         0         0         0         0         0
         0         0         0         0         0         0         0         0
         0         0         0         0         0         0         0         0
         0         0         0         0         0         0         0         0
         0         0         0         0         0         0         0         0
         0         0         0         0         0         0         0         0
         0         0         0         0         0         0         0         0
         0         0         0         0         0         0         0         0
         0         0         0         0         0         0         0         0
         0         0         0         0         0         0         0         0
         0         0         0         0         0         0         0         0
         0         0         0         0         0         0         0         0
         0         0         0         0         0         0         0         0
         0         0         0         0         0         0         0         0
         0         0         0         0         0         0         0         0
         0         0         0         0         0         0         0         0
         0         0         0         0         0         0         0         0
         0         0         0         0         0         0         0         0
         0         0         0         0         0         0         0         0
         0         0         0         0         0         0         0         0
         0         0         0         0         0         0         0         0
         0         0         0         0         0         0         0         0
         0         0         0         0         0         0         0         0
         0         0         0         0         0         0         0         0
         0         0         0         0         0         0         0         0
         0         0         0         0         0         0         0         0
         0         0         0         0         0         0         0         0
         0         0         0         0         0         0         0         0
         0         0         0         0         0         0         0         0
         0         0         0         0         0         0         0         0
         0         0         0         0         0         0         0         0
         0         0         0         0         0         0         0         0
         0         0         0         0         0         0         0         0
         0         0         0         0         0         0         0         0
         0         0         0         0         0         0         0         0
         0         0         0         0         0         0         0         0
         0         0         0         0         0         0         0         0
         0         0         0         0         0         0         0         0
         0         0         0         0         0         0         0         0
         0         0         0         0         0         0         0         0
         0         0         0         0         0         0         0         0
         0         0         0         0         0         0         0         0
         0         0         0         0         0         0         0         0
         0         0         0         0         0         0         0         0
         0         0         0         0         0         0         0         0
         0         0         0         0         0         0         0         0
         0         0         0         0         0         0         0         0
         0         0         0         0         0         0         0         0
         0         0         0         0         0         0         0         0
         0         0         0         0         0         0         0         0
         0         0         0         0         0         0         0         0
         0         0         0         0         0         0         0         0
         0         0         0         0         0         0         0         0
         0         0         0         0         0         0         0         0
         0         0         0         0         0         0         0         0
         0         0         0         0         0         0         0         0
         0         0         0         0         0         0         0         0
         0         0         0         0         0         0         0         0
         0         0         0         0         0         0         0         0
         0         0         0         0         0         0         0         0
         0         0         0         0         0         0         0         0
         0         0         0         0         0         0         0         0
         0         0         0         0         0         0         0         0
         0         0         0         0         0         0         0         0
         0         0         0         0         0         0         0         0
         0         0         0         0         0         0         0         0
         0         0         0         0         0         0         0         0
         0         0         0         0         0         0         0         0
         0         0         0         0         0         0         0         0
         0         0         0         0         0         0         0         0
         0         0         0         0         0         0         0         0
         0         0         0         0         0         0         0         0
         0         0         0         0         0         0         0         0
         0         0         0         0         0         0         0         0
         0         0         0         0         0         0         0         0
         0         0         0         0         0         0         0         0
         0         0         0         0         0         0         0         0
         0         0         0         0         0         0         0         0
         0         0         0         0         0         0         0         0
         0         0         0         0         0         0         0         0
         0         0         0         0         0         0         0         0
         0         0         0         0         0         0         0         0
         0         0         0         0         0         0         0         0
         0         0         0         0         0         0         0         0
         0         0         0         0         0         0         0         0
         0         0         0         0         0         0         0         0
         0         0         0         0         0         0         0         0
         0         0         0         0         0         0         0         0
         0         0         0         0         0         0         0         0
         0         0         0         0         0         0         0         0
         0         0         0         0         0         0         0         0
         0         0         0         0         0         0         0         0
         0         0         0         0         0         0         0         0
         0         0         0         0         0         0         0         0
         0         0         0         0         0         0         0         0
         0         0         0         0         0         0         0         0
         0         0         0         0         0         0         0         0
         0         0         0         0         0         0         0         0
         0         0         0         0         0         0         0         0
         0         0         0         0         0         0         0         0
         0         0         0         0         0         0         0         0
         0         0         0         0         0         0         0         0
         0         0         0         0         0         0         0         0
         0         0         0         0         0         0         0         0
         0         0         0         0         0         0         0         0
         0         0         0         0         0         0         0         0
         0         0         0         0         0         0         0         0
         0         0         0         0         0         0         0         0
         0         0         0         0         0         0         0         0
         0         0         0         0         0         0         0         0
         0         0         0         0         0         0         0         0
         0         0         0         0         0         0         0         0
         0         0         0         0         0         0         0         0
         0         0         0         0         0         0         0         0
         0         0         0         0         0         0         0         0
         0         0         0         0         0         0         0         0
         0         0         0         0         0         0         0         0
         0         0         0         0         0         0         0         0
         0         0         0         0         0         0         0         0
         0         0         0         0         0         0         0         0
         0         0         0         0         0         0         0         0
         0         0         0         0         0         0         0         0
         0         0         0         0         0         0         0         0
         0         0         0         0         0         0         0         0
         0         0         0         0         0         0         0         0
         0         0         0         0         0         0         0         0
         0         0         0         0         0         0         0         0
         0         0         0         0         0         0         0         0
         0         0         0         0         0         0         0         0
         0         0         0         0         0         0         0         0
         0         0         0         0         0         0         0         0
         0         0         0         0         0         0         0         0
         0         0         0         0         0         0         0         0
         0         0         0         0         0         0         0         0
         0         0         0         0         0         0         0         0
         0         0         0         0         0         0         0         0
         0         0         0         0         0         0         0         0
         0         0         0         0         0         0         0         0
         0         0         0         0         0         0         0         0
         0         0         0         0         0         0         0         0
         0         0         0         0         0         0         0         0
         0         0         0         0         0         0         0         0
         0         0         0         0         0         0         0         0
         0         0         0         0         0         0         0         0
         0         0         0         0         0         0         0         0
         0         0         0         0         0         0         0         0
         0         0         0         0         0         0         0         0
         0         0         0         0         0         0         0         0
         0         0         0         0         0         0         0         0
         0         0         0         0         0         0         0         0
         0         0         0         0         0         0         0         0
         0         0         0         0         0         0         0         0
         0         0         0         0         0         0         0         0
         0         0         0         0         0         0         0         0
         0         0         0         0         0         0         0         0
         0         0         0         0         0         0         0         0
         0         0         0         0         0         0         0         0
         0         0         0         0         0         0         0         0
         0         0         0         0         0         0         0         0
         0         0         0         0         0         0         0         0
         0         0         0         0         0         0         0         0
         0         0         0         0         0         0         0         0
         0         0         0         0         0         0         0         0
         0         0         0         0         0         0         0         0
         0         0         0         0         0         0         0         0
         0         0         0         0         0         0         0         0
         0         0         0         0         0         0         0         0
         0         0         0         0         0         0         0         0
         0         0         0         0         0         0         0         0
         0         0         0         0         0         0         0         0
         0         0         0         0         0         0         0         0
         0         0         0         0         0         0         0         0
         0         0         0         0         0         0         0         0
         0         0         0         0         0         0         0         0
         0         0         0         0         0         0         0         0
         0         0         0         0         0         0         0         0
         0         0         0         0         0         0         0         0
         0         0         0         0         0         0         0         0
         0         0         0         0         0         0         0         0
         0         0         0         0         0         0         0         0
         0         0         0         0         0         0         0         0
         0         0         0         0         0         0         0         0
         0         0         0         0         0         0         0         0
         0         0         0         0         0         0         0         0
         0         0         0         0         0         0         0         0
         0         0         0         0         0         0         0         0
         0         0         0         0         0         0         0         0
         0         0         0         0         0         0         0         0
         0         0         0         0         0         0         0         0
         0         0         0         0         0         0         0         0
         0         0         0         0         0         0         0         0
         0         0         0         0         0         0         0         0
         0         0         0         0         0         0         0         0
         0         0         0         0         0         0         0         0
         0         0         0         0         0         0         0         0
         0         0         0         0         0         0         0         0
         0         0         0         0         0         0         0         0
         0         0         0         0         0         0         0         0
         0         0         0         0         0         0         0         0
         0         0         0         0         0         0         0         0
         0         0         0         0         0         0         0         0
         0         0         0         0         0         0         0         0
         0         0         0         0         0         0         0         0
         0         0         0         0         0         0         0         0
         0         0         0         0         0         0         0         0
         0         0         0         0         0         0         0         0
         0         0         0         0         0         0         0         0
         0         0         0         0         0         0         0         0
         0         0         0         0         0         0         0         0
         0         0         0         0         0         0         0         0
         0         0         0         0         0         0         0         0
         0         0         0         0         0         0         0         0
         0         0         0         0         0         0         0         0
         0         0         0         0         0         0         0         0
         0         0         0         0         0         0         0         0
         0         0         0         0         0         0         0         0
         0         0         0         0         0         0         0         0
         0         0         0         0         0         0         0         0
         0         0         0         0         0         0         0         0
         0         0         0         0         0         0         0         0
         0         0         0         0         0         0         0         0
         0         0         0         0         0         0         0         0
         0         0         0         0         0         0         0         0
         0         0         0         0         0         0         0         0
         0         0         0         0         0         0         0         0
         0         0         0         0         0         0         0         0
         0         0         0         0         0         0         0         0
         0         0         0         0         0         0         0         0
         0         0         0         0         0         0         0         0
         0         0         0         0         0         0         0         0
         0         0         0         0         0         0         0         0
         0         0         0         0         0         0         0         0
         0         0         0         0         0         0         0         0
         0         0         0         0         0         0         0         0
         0         0         0         0         0         0         0         0
         0         0         0         0         0         0         0         0
         0         0         0         0         0         0         0         0
         0         0         0         0         0         0         0         0
         0         0         0         0         0         0         0         0
         0         0         0         0         0         0         0         0
         0         0         0         0         0         0         0         0
         0         0         0         0         0         0         0         0
         0         0         0         0         0         0         0         0
         0         0         0         0         0         0         0         0
         0         0         0         0         0         0         0         0
         0         0         0         0         0         0         0         0
         0         0         0         0         0         0         0         0
         0         0         0         0         0         0         0         0
         0         0         0         0         0         0         0         0
         0         0         0         0         0         0         0         0
         0         0         0         0         0         0         0         0
         0         0         0         0         0         0         0         0
         0         0         0         0         0         0         0         0
         0         0         0         0         0         0         0         0
         0         0         0         0         0         0         0         0
         0         0         0         0         0         0         0         0
         0         0         0         0         0         0         0         0
         0         0         0         0         0         0         0         0
         0         0         0         0         0         0         0         0
         0         0         0         0         0         0         0         0
         0         0         0         0         0         0         0         0
         0         0         0         0         0         0         0         0
         0         0         0         0         0         0         0         0
         0         0         0         0         0         0         0         0
         0         0         0         0         0         0         0         0
         0         0         0         0         0         0         0         0
         0         0         0         0         0         0         0         0
         0         0         0         0         0         0         0         0
         0         0         0         0         0         0         0         0
         0         0         0         0         0         0         0         0
         0         0         0         0         0         0         0         0
         0         0         0         0         0         0         0         0
         0         0         0         0         0         0         0         0
         0         0         0         0         0         0         0         0
         0         0         0         0         0         0         0         0
         0         0         0         0         0         0         0         0
         0         0         0         0         0         0         0         0
         0         0         0         0         0         0         0         0
         0         0         0         0         0         0         0         0
         0         0         0         0         0         0         0         0
         0         0         0         0         0         0         0         0
         0         0         0         0         0         0         0         0
         0         0         0         0         0         0         0         0
         0         0         0         0         0         0         0         0
         0         0         0         0         0         0         0         0
         0         0         0         0         0         0         0         0
         0         0         0         0         0         0         0         0
         0         0         0         0         0         0         0         0
         0         0         0         0         0         0         0         0
         0         0         0         0         0         0         0         0
         0         0         0         0         0         0         0         0
         0         0         0         0         0         0         0         0
         0         0         0         0         0         0         0         0
         0         0         0         0         0         0         0         0
         0         0         0         0         0         0         0         0
         0         0         0         0         0         0         0         0
         0         0         0         0         0         0         0         0
         0         0         0         0         0         0         0         0
         0         0         0         0         0         0         0         0
         0         0         0         0         0         0         0         0
         0         0         0         0         0         0         0         0
         0         0         0         0         0         0         0         0
         0         0         0         0         0         0         0         0
         0         0         0         0         0         0         0         0
         0         0         0         0         0         0         0         0
         0         0         0         0         0         0         0         0
         0         0         0         0         0         0         0         0
         0         0         0         0         0         0         0         0
         0         0         0         0         0         0         0         0
         0         0         0         0         0         0         0         0
         0         0         0         0         0         0         0         0
         0         0         0         0         0         0         0         0
         0         0         0         0         0         0         0         0
         0         0         0         0         0         0         0         0
         0         0         0         0         0         0         0         0
         0         0         0         0         0         0         0         0
         0         0         0         0         0         0         0         0
         0         0         0         0         0         0         0         0
         0         0         0         0         0         0         0         0
         0         0         0         0         0         0         0         0
         0         0         0         0         0         0         0         0
         0         0         0         0         0         0         0         0
         0         0         0         0         0         0         0         0
         0         0         0         0         0         0         0         0
         0         0         0         0         0         0         0         0
         0         0         0         0         0         0         0         0
         0         0         0         0         0         0         0         0
         0         0         0         0         0         0         0         0
         0         0         0         0         0         0         0         0
         0         0         0         0         0         0         0         0
         0         0         0         0         0         0         0         0
         0         0         0         0         0         0         0         0
         0         0         0         0         0         0         0         0
         0         0         0         0         0         0         0         0
         0         0         0         0         0         0         0         0
         0         0         0         0         0         0         0         0
         0         0         0         0         0         0         0         0
         0         0         0         0         0         0         0         0
         0         0         0         0         0         0         0         0
         0         0         0         0         0         0         0         0
         0         0         0         0         0         0         0         0
         0         0         0         0         0         0         0         0
         0         0         0         0         0         0         0         0
         0         0         0         0         0         0         0         0
         0         0         0         0         0         0         0         0
         0         0         0         0         0         0         0         0
         0         0         0         0         0         0         0         0
         0         0         0         0         0         0         0         0
         0         0         0         0         0         0         0         0
         0         0         0         0         0         0         0         0
         0         0         0         0         0         0         0         0
         0         0         0         0         0         0         0         0
         0         0         0         0         0         0         0         0
         0         0         0         0         0         0         0         0
         0         0         0         0         0         0         0         0
         0         0         0         0         0         0         0         0
         0         0         0         0         0         0         0         0
         0         0         0         0         0         0         0         0
         0         0         0         0         0         0         0         0
         0         0         0         0         0         0         0         0
         0         0         0         0         0         0         0         0
         0         0         0         0         0         0         0         0
         0         0         0         0         0         0         0         0
         0         0         0         0         0         0         0         0
         0         0         0         0         0         0         0         0
         0         0         0         0         0         0         0         0
         0         0         0         0         0         0         0         0
         0         0         0         0         0         0         0         0
         0         0         0         0         0         0         0         0
         0         0         0         0         0         0         0         0
         0         0         0         0         0         0         0         0
         0         0         0         0         0         0         0         0
         0         0         0         0         0         0         0         0
         0         0         0         0         0         0         0         0
         0         0         0         0         0         0         0         0
         0         0         0         0         0         0         0         0
         0         0         0         0         0         0         0         0
         0         0         0         0         0         0         0         0
         0         0         0         0         0         0         0         0
         0         0         0         0         0         0         0         0
         0         0         0         0         0         0         0         0
         0         0         0         0         0         0         0         0
         0         0         0         0         0         0         0         0
         0         0         0         0         0         0         0         0
         0         0         0         0         0         0         0         0
         0         0         0         0         0         0         0         0
         0         0         0         0         0         0         0         0
         0         0         0         0         0         0         0         0
         0         0         0         0         0         0         0         0
         0         0         0         0         0         0         0         0
         0         0         0         0         0         0         0         0
         0         0         0         0         0         0         0         0
         0         0         0         0         0         0         0         0
         0         0         0         0         0         0         0         0
         0         0         0         0         0         0         0         0
         0         0         0         0         0         0         0         0
         0         0         0         0         0         0         0         0
         0         0         0         0         0         0         0         0
         0         0         0         0         0         0         0         0
         0         0         0         0         0         0         0         0
         0         0         0         0         0         0         0         0
         0         0         0         0         0         0         0         0
         0         0         0         0         0         0         0         0
         0         0         0         0         0         0         0         0
         0         0         0         0         0         0         0         0
         0         0         0         0         0         0         0         0
         0         0         0         0         0         0         0         0
         0         0         0         0         0         0         0         0
         0         0         0         0         0         0         0         0
         0         0         0         0         0         0         0         0
         0         0         0         0         0         0         0         0
         0         0         0         0         0         0         0         0
         0         0         0         0         0         0         0         0
         0         0         0         0         0         0         0         0
         0         0         0         0         0         0         0         0
         0         0         0         0         0         0         0         0
         0         0         0         0         0         0         0         0
         0         0         0         0         0         0         0         0
         0         0         0         0         0         0         0         0
         0         0         0         0         0         0         0         0
         0         0         0         0         0         0         0         0
         0         0         0         0         0         0         0         0
         0         0         0         0         0         0         0         0
         0         0         0         0         0         0         0         0
         0         0         0         0         0         0         0         0
         0         0         0         0         0         0         0         0
         0         0         0         0         0         0         0         0
         0         0         0         0         0         0         0         0
         0         0         0         0         0         0         0         0
         0         0         0         0         0         0         0         0
         0         0         0         0         0         0         0         0
         0         0         0         0         0         0         0         0
         0         0         0         0         0         0         0         0
         0         0         0         0         0         0         0         0
         0         0         0         0         0         0         0         0
         0         0         0         0         0         0         0         0
         0         0         0         0         0         0         0         0
         0         0         0         0         0         0         0         0
         0         0         0         0         0         0         0         0
         0         0         0         0         0         0         0         0
         0         0         0         0         0         0         0         0
         0         0         0         0         0         0         0         0
         0         0         0         0         0         0         0         0
         0         0         0         0         0         0         0         0
         0         0         0         0         0         0         0         0
         0         0         0         0         0         0         0         0
         0         0         0         0         0         0         0         0
         0         0         0         0         0         0         0         0
         0         0         0         0         0         0         0         0
         0         0         0         0         0         0         0         0
         0         0         0         0         0         0         0         0
         0         0         0         0         0         0         0         0
         0         0         0         0         0         0         0         0
         0         0         0         0         0         0         0         0
         0         0         0         0         0         0         0         0
         0         0         0         0         0         0         0         0
         0         0         0         0         0         0         0         0
         0         0         0         0         0         0         0         0
         0         0         0         0         0         0         0         0
         0         0         0         0         0         0         0         0
         0         0         0         0         0         0         0         0
         0         0         0         0         0         0         0         0
         0         0         0         0         0         0         0         0
         0         0         0         0         0         0         0         0
         0         0         0         0         0         0         0         0
         0         0         0         0         0         0         0         0
         0         0         0         0         0         0         0         0
         0         0         0         0         0         0         0         0
         0         0         0         0         0         0         0         0
         0         0         0         0         0         0         0         0
         0         0         0         0         0         0         0         0
         0         0         0         0         0         0         0         0
         0         0         0         0         0         0         0         0
         0         0         0         0         0         0         0         0
         0         0         0         0         0         0         0         0
         0         0         0         0         0         0         0         0
         0         0         0         0         0         0         0         0
         0         0         0         0         0         0         0         0
         0         0         0         0         0         0         0         0
         0         0         0         0         0         0         0         0
         0         0         0         0         0         0         0         0
         0         0         0         0         0         0         0         0
         0         0         0         0         0         0         0         0
         0         0         0         0         0         0         0         0
         0         0         0         0         0         0         0         0
         0         0         0         0         0         0         0         0
         0         0         0         0         0         0         0         0
         0         0         0         0         0         0         0         0
         0         0         0         0         0         0         0         0
         0         0         0         0         0         0         0         0
         0         0         0         0         0         0         0         0
         0         0         0         0         0         0         0         0
         0         0         0         0         0         0         0         0
         0         0         0         0         0         0         0         0
         0         0         0         0         0         0         0         0
         0         0         0         0         0         0         0         0
         0         0         0         0         0         0         0         0
         0         0         0         0         0         0         0         0
         0         0         0         0         0         0         0         0
         0         0         0         0         0         0         0         0
         0         0         0         0         0         0         0         0
         0         0         0         0         0         0         0         0
         0         0         0         0         0         0         0         0
         0         0         0         0         0         0         0         0
         0         0         0         0         0         0         0         0
         0         0         0         0         0         0         0         0
         0         0         0         0         0         0         0         0
         0         0         0         0         0         0         0         0
         0         0         0         0         0         0         0         0
         0         0         0         0         0         0         0         0
         0         0         0         0         0         0         0         0
         0         0         0         0         0         0         0         0
         0         0         0         0         0         0         0         0
         0         0         0         0         0         0         0         0
         0         0         0         0         0         0         0         0
         0         0         0         0         0         0         0         0
         0         0         0         0         0         0         0         0
         0         0         0         0         0         0         0         0
         0         0         0         0         0         0         0         0
         0         0         0         0         0         0         0         0
         0         0         0         0         0         0         0         0
         0         0         0         0         0         0         0         0
         0         0         0         0         0         0         0         0
         0         0         0         0         0         0         0         0
         0         0         0         0         0         0         0         0
         0         0         0         0         0         0         0         0
         0         0         0         0         0         0         0         0
         0         0         0         0         0         0         0         0
         0         0         0         0         0         0         0         0
         0         0         0         0         0         0         0         0
         0         0         0         0         0         0         0         0
         0         0         0         0         0         0         0         0
         0         0         0         0         0         0         0         0
         0         0         0         0         0         0         0         0
         0         0         0         0         0         0         0         0
         0         0         0         0         0         0         0         0
         0         0         0         0         0         0         0         0
         0         0         0         0         0         0         0         0
         0         0         0         0         0         0         0         0
         0         0         0         0         0         0         0         0
         0         0         0         0         0         0         0         0
         0         0         0         0         0         0         0         0
         0         0         0         0         0         0         0         0
         0         0         0         0         0         0         0         0
         0         0         0         0         0         0         0         0
         0         0         0         0         0         0         0         0
         0         0         0         0         0         0         0         0
         0         0         0         0         0         0         0         0
         0         0         0         0         0         0         0         0
         0         0         0         0         0         0         0         0
         0         0         0         0         0         0         0         0
         0         0         0         0         0         0         0         0
         0         0         0         0         0         0         0         0
         0         0         0         0         0         0         0         0
         0         0         0         0         0         0         0         0
         0         0         0         0         0         0         0         0
         0         0         0         0         0         0         0         0
         0         0         0         0         0         0         0         0
         0         0         0         0         0         0         0         0
         0         0         0         0         0         0         0         0
         0         0         0         0         0         0         0         0
         0         0         0         0         0         0         0         0
         0         0         0         0         0         0         0         0
         0         0         0         0         0         0         0         0
         0         0         0         0         0         0         0         0
         0         0         0         0         0         0         0         0
         0         0         0         0         0         0         0         0
         0         0         0         0         0         0         0         0
         0         0         0         0         0         0         0         0
         0         0         0         0         0         0         0         0
         0         0         0         0         0         0         0         0
         0         0         0         0         0         0         0         0
         0         0         0         0         0         0         0         0
         0         0         0         0         0         0         0         0
         0         0         0         0         0         0         0         0
         0         0         0         0         0         0         0         0
         0         0         0         0         0         0         0         0
         0         0         0         0         0         0         0         0
         0         0         0         0         0         0         0         0
         0         0         0         0         0         0         0         0
         0         0         0         0         0         0         0         0
         0         0         0         0         0         0         0         0
         0         0         0         0         0         0         0         0
         0         0         0         0         0         0         0         0
         0         0         0         0         0         0         0         0
         0         0         0         0         0         0         0         0
         0         0         0         0         0         0         0         0
         0         0         0         0         0         0         0         0
         0         0         0         0         0         0         0         0
         0         0         0         0         0         0         0         0
         0         0         0         0         0         0         0         0
         0         0         0         0         0         0         0         0
         0         0         0         0         0         0         0         0
         0         0         0         0         0         0         0         0
         0         0         0         0         0         0         0         0
         0         0         0         0         0         0         0         0
         0         0         0         0         0         0         0         0
         0         0         0         0         0         0         0         0
         0         0         0         0         0         0         0         0
         0         0         0         0         0         0         0         0
         0         0         0         0         0         0         0         0
         0         0         0         0         0         0         0         0
         0         0         0         0         0         0         0         0
         0         0         0         0         0         0         0         0
         0         0         0         0         0         0         0         0
         0         0         0         0         0         0         0         0
         0         0         0         0         0         0         0         0
         0         0         0         0         0         0         0         0
         0         0         0         0         0         0         0         0
         0         0         0         0         0         0         0         0
         0         0         0         0         0         0         0         0
         0         0         0         0         0         0         0         0
         0         0         0         0         0         0         0         0
         0         0         0         0         0         0         0         0
         0         0         0         0         0         0         0         0
         0         0         0         0         0         0         0         0
         0         0         0         0         0         0         0         0
         0         0         0         0         0         0         0         0
         0         0         0         0         0         0         0         0
         0         0         0         0         0         0         0         0
         0         0         0         0         0         0         0         0
         0         0         0         0         0         0         0         0
         0         0         0         0         0         0         0         0
         0         0         0         0         0         0         0         0
         0         0         0         0         0         0         0         0
         0         0         0         0         0         0         0         0
         0         0         0         0         0         0         0         0
         0         0         0         0         0         0         0         0
         0         0         0         0         0         0         0         0
         0         0         0         0         0         0         0         0
         0         0         0         0         0         0         0         0
         0         0         0         0         0         0         0         0
         0         0         0         0         0         0         0         0
         0         0         0         0         0         0         0         0
         0         0         0         0         0         0         0         0
         0         0         0         0         0         0         0         0
         0         0         0         0         0         0         0         0
         0         0         0         0         0         0         0         0
         0         0         0         0         0         0         0         0
         0         0         0         0         0         0         0         0
         0         0         0         0         0         0         0         0
         0         0         0         0         0         0         0         0
         0         0         0         0         0         0         0         0
         0         0         0         0         0         0         0         0
         0         0         0         0         0         0         0         0
         0         0         0         0         0         0         0         0
         0         0         0         0         0         0         0         0
         0         0         0         0         0         0         0         0
         0         0         0         0         0         0         0         0
         0         0         0         0         0         0         0         0
         0         0         0         0         0         0         0         0
         0         0         0         0         0         0         0         0
         0         0         0         0         0         0         0         0
         0         0         0         0         0         0         0         0
         0         0         0         0         0         0         0         0
         0         0         0         0         0         0         0         0
         0         0         0         0         0         0         0         0
         0         0         0         0         0         0         0         0
         0         0         0         0         0         0         0         0
         0         0         0         0         0         0         0         0
         0         0         0         0         0         0         0         0
         0         0         0         0         0         0         0         0
         0         0         0         0         0         0         0         0
         0         0         0         0         0         0         0         0
         0         0         0         0         0         0         0         0
         0         0         0         0         0         0         0         0
         0         0         0         0         0         0         0         0
         0         0         0         0         0         0         0         0
         0         0         0         0         0         0         0         0
         0         0         0         0         0         0         0         0
         0         0         0         0         0         0         0         0
         0         0         0         0         0         0         0         0
         0         0         0         0         0         0         0         0
         0         0         0         0         0         0         0         0
         0         0         0         0         0         0         0         0
         0         0         0         0         0         0         0         0
         0         0         0         0         0         0         0         0
         0         0         0         0         0         0         0         0
         0         0         0         0         0         0         0         0
         0         0         0         0         0         0         0         0
         0         0         0         0         0         0         0         0
         0         0         0         0         0         0         0         0
         0         0         0         0         0         0         0         0
         0         0         0         0         0         0         0         0
         0         0         0         0         0         0         0         0
         0         0         0         0         0         0         0         0
         0         0         0         0         0         0         0         0
         0         0         0         0         0         0         0         0
         0         0         0         0         0         0         0         0
         0         0         0         0         0         0         0         0
         0         0         0         0         0         0         0         0
         0         0         0         0         0         0         0         0
         0         0         0         0         0         0         0         0
         0         0         0         0         0         0         0         0
         0         0         0         0         0         0         0         0
         0         0         0         0         0         0         0         0
         0         0         0         0         0         0         0         0
         0         0         0         0         0         0         0         0
         0         0         0         0         0         0         0         0
         0         0         0         0         0         0         0         0
         0         0         0         0         0         0         0         0
         0         0         0         0         0         0         0         0
         0         0         0         0         0         0         0         0
         0         0         0         0         0         0         0         0
         0         0         0         0         0         0         0         0
         0         0         0         0         0         0         0         0
         0         0         0         0         0         0         0         0
         0         0         0         0         0         0         0         0
         0         0         0         0         0         0         0         0
         0         0         0         0         0         0         0         0
         0         0         0         0         0         0         0         0
         0         0         0         0         0         0         0         0
         0         0         0         0         0         0         0         0
         0         0         0         0         0         0         0         0
         0         0         0         0         0         0         0         0
         0         0         0         0         0         0         0         0
         0         0         0         0         0         0         0         0
         0         0         0         0         0         0         0         0
         0         0         0         0         0         0         0         0
         0         0         0         0         0         0         0         0
         0         0         0         0         0         0         0         0
         0         0         0         0         0         0         0         0
         0         0         0         0         0         0         0         0
         0         0         0         0         0         0         0         0
         0         0         0         0         0         0         0         0
         0         0         0         0         0         0         0         0
         0         0         0         0         0         0         0         0
         0         0         0         0         0         0         0         0
         0         0         0         0         0         0         0         0
         0         0         0         0         0         0         0         0
         0         0         0         0         0         0         0         0
         0         0         0         0         0         0         0         0
         0         0         0         0         0         0         0         0
         0         0         0         0         0         0         0         0
         0         0         0         0         0         0         0         0
         0         0         0         0         0         0         0         0
         0         0         0         0         0         0         0         0
         0         0         0         0         0         0         0         0
         0         0         0         0         0         0         0         0
         0         0         0         0         0         0         0         0
         0         0         0         0         0         0         0         0
         0         0         0         0         0         0         0         0
         0         0         0         0         0         0         0         0
         0         0         0         0         0         0         0         0
         0         0         0         0         0         0         0         0
         0         0         0         0         0         0         0         0
         0         0         0         0         0         0         0         0
         0         0         0         0         0         0         0         0
         0         0         0         0         0         0         0         0
         0         0         0         0         0         0         0         0
         0         0         0         0         0         0         0         0
         0         0         0         0         0         0         0         0
         0         0         0         0         0         0         0         0
         0         0         0         0         0         0         0         0
         0         0         0         0         0         0         0         0
         0         0         0         0         0         0         0         0
         0         0         0         0         0         0         0         0
         0         0         0         0         0         0         0         0
         0         0         0         0         0         0         0         0
         0         0         0         0         0         0         0         0
         0         0         0         0         0         0         0         0
         0         0         0         0         0         0         0         0
         0         0         0         0         0         0         0         0
         0         0         0         0         0         0         0         0
         0         0         0         0         0         0         0         0
         0         0         0         0         0         0         0         0
         0         0         0         0         0         0         0         0
         0         0         0         0         0         0         0         0
         0         0         0         0         0         0         0         0
         0         0         0         0         0         0         0         0
         0         0         0         0         0         0         0         0
         0         0         0         0         0         0         0         0
         0         0         0         0         0         0         0         0
         0         0         0         0         0         0         0         0
         0         0         0         0         0         0         0         0
         0         0         0         0         0         0         0         0
         0         0         0         0         0         0         0         0
         0         0         0         0         0         0         0         0
         0         0         0         0         0         0         0         0
         0         0         0         0         0         0         0         0
         0         0         0         0         0         0         0         0
         0         0         0         0         0         0         0         0
         0         0         0         0         0         0         0         0
         0         0         0         0         0         0         0         0
         0         0         0         0         0         0         0         0
         0         0         0         0         0         0         0         0
         0         0         0         0         0         0         0         0
         0         0         0         0         0         0         0         0
         0         0         0         0         0         0         0         0
         0         0         0         0         0         0         0         0
         0         0         0         0         0         0         0         0
         0         0         0         0         0         0         0         0
         0         0         0         0         0         0         0         0
         0         0         0         0         0         0         0         0
         0         0         0         0         0         0         0         0
         0         0         0         0         0         0         0         0
         0         0         0         0         0         0         0         0
         0         0         0         0         0         0         0         0
         0         0         0         0         0         0         0         0
         0         0         0         0         0         0         0         0
         0         0         0         0         0         0         0         0
         0         0         0         0         0         0         0         0
         0         0         0         0         0         0         0         0
         0         0         0         0         0         0         0         0
         0         0         0         0         0         0         0         0
         0         0         0         0         0         0         0         0
         0         0         0         0         0         0         0         0
         0         0         0         0         0         0         0         0
         0         0         0         0         0         0         0         0
         0         0         0         0         0         0         0         0
         0         0         0         0         0         0         0         0
         0         0         0         0         0         0         0         0
         0         0         0         0         0         0         0         0
         0         0         0         0         0         0         0         0
         0         0         0         0         0         0         0         0
         0         0         0         0         0         0         0         0
         0         0         0         0         0         0         0         0
         0         0         0         0         0         0         0         0
         0         0         0         0         0         0         0         0
         0         0         0         0         0         0         0         0
         0         0         0         0         0         0         0         0
         0         0         0         0         0         0         0         0
         0         0         0         0         0         0         0         0
         0         0         0         0         0         0         0         0
         0         0         0         0         0         0         0         0
         0         0         0         0         0         0         0         0
         0         0         0         0         0         0         0         0
         0         0         0         0         0         0         0         0
         0         0         0         0         0         0         0         0
         0         0         0         0         0         0         0         0
         0         0         0         0         0         0         0         0
         0         0         0         0         0         0         0         0
         0         0         0         0         0         0         0         0
         0         0         0         0         0         0         0         0
         0         0         0         0         0         0         0         0
         0         0         0         0         0         0         0         0
         0         0         0         0         0         0         0         0
         0         0         0         0         0         0         0         0
         0         0         0         0         0         0         0         0
         0         0         0         0         0         0         0         0
         0         0         0         0         0         0         0         0
         0         0         0         0         0         0         0         0
         0         0         0         0         0         0         0         0
         0         0         0         0         0         0         0         0
         0         0         0         0         0         0         0         0
         0         0         0         0         0         0         0         0
         0         0         0         0         0         0         0         0
         0         0         0         0         0         0         0         0
         0         0         0         0         0         0         0         0
         0         0         0         0         0         0         0         0
         0         0         0         0         0         0         0         0
         0         0         0         0         0         0         0         0
         0         0         0         0         0         0         0         0
         0         0         0         0         0         0         0         0
         0         0         0         0         0         0         0         0
         0         0         0         0         0         0         0         0
         0         0         0         0         0         0         0         0
         0         0         0         0         0         0         0         0
         0         0         0         0         0         0         0         0
         0         0         0         0         0         0         0         0
         0         0         0         0         0         0         0         0
         0         0         0         0         0         0         0         0
         0         0         0         0         0         0         0         0
         0         0         0         0         0         0         0         0
         0         0         0         0         0         0         0         0
         0         0         0         0         0         0         0         0
         0         0         0         0         0         0         0         0
         0         0         0         0         0         0         0         0
         0         0         0         0         0         0         0         0
         0         0         0         0         0         0         0         0
         0         0         0         0         0         0         0         0
         0         0         0         0         0         0         0         0
         0         0         0         0         0         0         0         0
         0         0         0         0         0         0         0         0
         0         0         0         0         0         0         0         0
         0         0         0         0         0         0         0         0
         0         0         0         0         0         0         0         0
         0         0         0         0         0         0         0         0
         0         0         0         0         0         0         0         0
         0         0         0         0         0         0         0         0
         0         0         0         0         0         0         0         0
         0         0         0         0         0         0         0         0
         0         0         0         0         0         0         0         0
         0         0         0         0         0         0         0         0
         0         0         0         0         0         0         0         0
         0         0         0         0         0         0         0         0
         0         0         0         0         0         0         0         0
         0         0         0         0         0         0         0         0
         0         0         0         0         0         0         0         0
         0         0         0         0         0         0         0         0
         0         0         0         0         0         0         0         0
         0         0         0         0         0         0         0         0
         0         0         0         0         0         0         0         0
         0         0         0         0         0         0         0         0
         0         0         0         0         0         0         0         0
         0         0         0         0         0         0         0         0
         0         0         0         0         0         0         0         0
         0         0         0         0         0         0         0         0
         0         0         0         0         0         0         0         0
         0         0         0         0         0         0         0         0
         0         0         0         0         0         0         0         0
         0         0         0         0         0         0         0         0
         0         0         0         0         0         0         0         0
         0         0         0         0         0         0         0         0
         0         0         0         0         0         0         0         0
         0         0         0         0         0         0         0         0
         0         0         0         0         0         0         0         0
         0         0         0         0         0         0         0         0
         0         0         0         0         0         0         0         0
         0         0         0         0         0         0         0         0
         0         0         0         0         0         0         0         0
         0         0         0         0         0         0         0         0
         0         0         0         0         0         0         0         0
         0         0         0         0         0         0         0         0
         0         0         0         0         0         0         0         0
         0         0         0         0         0         0         0         0
         0         0         0         0         0         0         0         0
         0         0         0         0         0         0         0         0
         0         0         0         0         0         0         0         0
         0         0         0         0         0         0         0         0
         0         0         0         0         0         0         0         0
         0         0         0         0         0         0         0         0
         0         0         0         0         0         0         0         0
         0         0         0         0         0         0         0         0
         0         0         0         0         0         0         0         0
         0         0         0         0         0         0         0         0
         0         0         0         0         0         0         0         0
         0         0         0         0         0         0         0         0
         0         0         0         0         0         0         0         0
         0         0         0         0         0         0         0         0
         0         0         0         0         0         0         0         0
         0         0         0         0         0         0         0         0
         0         0         0         0         0         0         0         0
         0         0         0         0         0         0         0         0
         0         0         0         0         0         0         0         0
         0         0         0         0         0         0         0         0
         0         0         0         0         0         0         0         0
         0         0         0         0         0         0         0         0
         0         0         0         0         0         0         0         0
         0         0         0         0         0         0         0         0
         0         0         0         0         0         0         0         0
         0         0         0         0         0         0         0         0
         0         0         0         0         0         0         0         0
         0         0         0         0         0         0         0         0
         0         0         0         0         0         0         0         0
         0         0         0         0         0         0         0         0
         0         0         0         0         0         0         0         0
         0         0         0         0         0         0         0         0
         0         0         0         0         0         0         0         0
         0         0         0         0         0         0         0         0
         0         0         0         0         0         0         0         0
         0         0         0         0         0         0         0         0
         0         0         0         0         0         0         0         0
         0         0         0         0         0         0         0         0
         0         0         0         0         0         0         0         0
         0         0         0         0         0         0         0         0
         0         0         0         0         0         0         0         0
         0         0         0         0         0         0         0         0
         0         0         0         0         0         0         0         0
         0         0         0         0         0         0         0         0
         0         0         0         0         0         0         0         0
         0         0         0         0         0         0         0         0
         0         0         0         0         0         0         0         0
         0         0         0         0         0         0         0         0
         0         0         0         0         0         0         0         0
         0         0         0         0         0         0         0         0
         0         0         0         0         0         0         0         0
         0         0         0         0         0         0         0         0
         0         0         0         0         0         0         0         0
         0         0         0         0         0         0         0         0
         0         0         0         0         0         0         0         0
         0         0         0         0         0         0         0         0
         0         0         0         0         0         0         0         0
         0         0         0         0         0         0         0         0
         0         0         0         0         0         0         0         0
         0         0         0         0         0         0         0         0
         0         0         0         0         0         0         0         0
         0         0         0         0         0         0         0         0
         0         0         0         0         0         0         0         0
         0         0         0         0         0         0         0         0
         0         0         0         0         0         0         0         0
         0         0         0         0         0         0         0         0
         0         0         0         0         0         0         0         0
         0         0         0         0         0         0         0         0
         0         0         0         0         0         0         0         0
         0         0         0         0         0         0         0         0
         0         0         0         0         0         0         0         0
         0         0         0         0         0         0         0         0
         0         0         0         0         0         0         0         0
         0         0         0         0         0         0         0         0
         0         0         0         0         0         0         0         0
         0         0         0         0         0         0         0         0
         0         0         0         0         0         0         0         0
         0         0         0         0         0         0         0         0
         0         0         0         0         0         0         0         0
         0         0         0         0         0         0         0         0
         0         0         0         0         0         0         0         0
         0         0         0         0         0         0         0         0
         0         0         0         0         0         0         0         0
         0         0         0         0         0         0         0         0
         0         0         0         0         0         0         0         0
         0         0         0         0         0         0         0         0
         0         0         0         0         0         0         0         0
         0         0         0         0         0         0         0         0
         0         0         0         0         0         0         0         0
         0         0         0         0         0         0         0         0
         0         0         0         0         0         0         0         0
         0         0         0         0         0         0         0         0
         0         0         0         0         0         0         0         0
         0         0         0         0         0         0         0         0
         0         0         0         0         0         0         0         0
         0         0         0         0         0         0         0         0
         0         0         0         0         0         0         0         0
         0         0         0         0         0         0         0         0
         0         0         0         0         0         0         0         0
         0         0         0         0         0         0         0         0
         0         0         0         0         0         0         0         0
         0         0         0         0         0         0         0         0
         0         0         0         0         0         0         0         0
         0         0         0         0         0         0         0         0
         0         0         0         0         0         0         0         0
         0         0         0         0         0         0         0         0
         0         0         0         0         0         0         0         0
         0         0         0         0         0         0         0         0
         0         0         0         0         0         0         0         0
         0         0         0         0         0         0         0         0
         0         0         0         0         0         0         0         0
         0         0         0         0         0         0         0         0
         0         0         0         0         0         0         0         0
         0         0         0         0         0         0         0         0
         0         0         0         0         0         0         0         0
         0         0         0         0         0         0         0         0
         0         0         0         0         0         0         0         0
         0         0         0         0         0         0         0         0
         0         0         0         0         0         0         0         0
         0         0         0         0         0         0         0         0
         0         0         0         0         0         0         0         0
         0         0         0         0         0         0         0         0
         0         0         0         0         0         0         0         0
         0         0         0         0         0         0         0         0
         0         0         0         0         0         0         0         0
         0         0         0         0         0         0         0         0
         0         0         0         0         0         0         0         0
         0         0         0         0         0         0         0         0
         0         0         0         0         0         0         0         0
         0         0         0         0         0         0         0         0
         0         0         0         0         0         0         0         0
         0         0         0         0         0         0         0         0
         0         0         0         0         0         0         0         0
         0         0         0         0         0         0         0         0
         0         0         0         0         0         0         0         0
         0         0         0         0         0         0         0         0
         0         0         0         0         0         0         0         0
         0         0         0         0         0         0         0         0
         0         0         0         0         0         0         0         0
         0         0         0         0         0         0         0         0
         0         0         0         0         0         0         0         0
         0         0         0         0         0         0         0         0
         0         0         0         0         0         0         0         0
         0         0         0         0         0         0         0         0
         0         0         0         0         0         0         0         0
         0         0         0         0         0         0         0         0
         0         0         0         0         0         0         0         0
         0         0         0         0         0         0         0         0
         0         0         0         0         0         0         0         0
         0         0         0         0         0         0         0         0
         0         0         0         0         0         0         0         0
         0         0         0         0         0         0         0         0
         0         0         0         0         0         0         0         0
         0         0         0         0         0         0         0         0
         0         0         0         0         0         0         0         0
         0         0         0         0         0         0         0         0
         0         0         0         0         0         0         0         0
         0         0         0         0         0         0         0         0
         0         0         0         0         0         0         0         0
         0         0         0         0         0         0         0         0
         0         0         0         0         0         0         0         0
         0         0         0         0         0         0         0         0
         0         0         0         0         0         0         0         0
         0         0         0         0         0         0         0         0
         0         0         0         0         0         0         0         0
         0         0         0         0         0         0         0         0
         0         0         0         0         0         0         0         0
         0         0         0         0         0         0         0         0
         0         0         0         0         0         0         0         0
         0         0         0         0         0         0         0         0
         0         0         0         0         0         0         0         0
         0         0         0         0         0         0         0         0
         0         0         0         0         0         0         0         0
         0         0         0         0         0         0         0         0
         0         0         0         0         0         0         0         0
         0         0         0         0         0         0         0         0
         0         0         0         0         0         0         0         0
         0         0         0         0         0         0         0         0
         0         0         0         0         0         0         0         0
         0         0         0         0         0         0         0         0
         0         0         0         0         0         0         0         0
         0         0         0         0         0         0         0         0
         0         0         0         0         0         0         0         0
         0         0         0         0         0         0         0         0
         0         0         0         0         0         0         0         0
         0         0         0         0         0         0         0         0
         0         0         0         0         0         0         0         0
         0         0         0         0         0         0         0         0
         0         0         0         0         0         0         0         0
         0         0         0         0         0         0         0         0
         0         0         0         0         0         0         0         0
         0         0         0         0         0         0         0         0
         0         0         0         0         0         0         0         0
         0         0         0         0         0         0         0         0
         0         0         0         0         0         0         0         0
         0         0         0         0         0         0         0         0
         0         0         0         0         0         0         0         0
         0         0         0         0         0         0         0         0
         0         0         0         0         0         0         0         0
         0         0         0         0         0         0         0         0
         0         0         0         0         0         0         0         0
         0         0         0         0         0         0         0         0
         0         0         0         0         0         0         0         0
         0         0         0         0         0         0         0         0
         0         0         0         0         0         0         0         0
         0         0         0         0         0         0         0         0
         0         0         0         0         0         0         0         0
         0         0         0         0         0         0         0         0
         0         0         0         0         0         0         0         0
         0         0         0         0         0         0         0         0
         0         0         0         0         0         0         0         0
         0         0         0         0         0         0         0         0
         0         0         0         0         0         0         0         0
         0         0         0         0         0         0         0         0
         0         0         0         0         0         0         0         0
         0         0         0         0         0         0         0         0
         0         0         0         0         0         0         0         0
         0         0         0         0         0         0         0         0
         0         0         0         0         0         0         0         0
         0         0         0         0         0         0         0         0
         0         0         0         0         0         0         0         0
         0         0         0         0         0         0         0         0
         0         0         0         0         0         0         0         0
         0         0         0         0         0         0         0         0
         0         0         0         0         0         0         0         0
         0         0         0         0         0         0         0         0
         0         0         0         0         0         0         0         0
         0         0         0         0         0         0         0         0
         0         0         0         0         0         0         0         0
         0         0         0         0         0         0         0         0
         0         0         0         0         0         0         0         0
         0         0         0         0         0         0         0         0
         0         0         0         0         0         0         0         0
         0         0         0         0         0         0         0         0
         0         0         0         0         0         0         0         0
         0         0         0         0         0         0         0         0
         0         0         0         0         0         0         0         0
         0         0         0         0         0         0         0         0
         0         0         0         0         0         0         0         0
         0         0         0         0         0         0         0         0
         0         0         0         0         0         0         0         0
         0         0         0         0         0         0         0         0
         0         0         0         0         0         0         0         0
         0         0         0         0         0         0         0         0
         0         0         0         0         0         0         0         0
         0         0         0         0         0         0         0         0
         0         0         0         0         0         0         0         0
         0         0         0         0         0         0         0         0
         0         0         0         0         0         0         0         0
         0         0         0         0         0         0         0         0
         0         0         0         0         0         0         0         0
         0         0         0         0         0         0         0         0
         0         0         0         0         0         0         0         0
         0         0         0         0         0         0         0         0
         0         0         0         0         0         0         0         0
         0         0         0         0         0         0         0         0
         0         0         0         0         0         0         0         0
         0         0         0         0         0         0         0         0
         0         0         0         0         0         0         0         0
         0         0         0         0         0         0         0         0
         0         0         0         0         0         0         0         0
         0         0         0         0         0         0         0         0
         0         0         0         0         0         0         0         0
         0         0         0         0         0         0         0         0
         0         0         0         0         0         0         0         0
         0         0         0         0         0         0         0         0
         0         0         0         0         0         0         0         0
         0         0         0         0         0         0         0         0
         0         0         0         0         0         0         0         0
         0         0         0         0         0         0         0         0
         0         0         0         0         0         0         0         0
         0         0         0         0         0         0         0         0
         0         0         0         0         0         0         0         0
         0         0         0         0         0         0         0         0
         0         0         0         0         0         0         0         0
         0         0         0         0         0         0         0         0
         0         0         0         0         0         0         0         0
         0         0         0         0         0         0         0         0
         0         0         0         0         0         0         0         0
         0         0         0         0         0         0         0         0
         0         0         0         0         0         0         0         0
         0         0         0         0         0         0         0         0
         0         0         0         0         0         0         0         0
         0         0         0         0         0         0         0         0
         0         0         0         0         0         0         0         0
         0         0         0         0         0         0         0         0
         0         0         0         0         0         0         0         0
         0         0         0         0         0         0         0         0
         0         0         0         0         0         0         0         0
         0         0         0         0         0         0         0         0
         0         0         0         0         0         0         0         0
         0         0         0         0         0         0         0         0
         0         0         0         0         0         0         0         0
         0         0         0         0         0         0         0         0
         0         0         0         0         0         0         0         0
         0         0         0         0         0         0         0         0
         0         0         0         0         0         0         0         0
         0         0         0         0         0         0         0         0
         0         0         0         0         0         0         0         0
         0         0         0         0         0         0         0         0
         0         0         0         0         0         0         0         0
         0         0         0         0         0         0         0         0
         0         0         0         0         0         0         0         0
         0         0         0         0         0         0         0         0
         0         0         0         0         0         0         0         0
         0         0         0         0         0         0         0         0
         0         0         0         0         0         0         0         0
         0         0         0         0         0         0         0         0
         0         0         0         0         0         0         0         0
         0         0         0         0         0         0         0         0
         0         0         0         0         0         0         0         0
         0         0         0         0         0         0         0         0
         0         0         0         0         0         0         0         0
         0         0         0         0         0         0         0         0
         0         0         0         0         0         0         0         0
         0         0         0         0         0         0         0         0
         0         0         0         0         0         0         0         0
         0         0         0         0         0         0         0         0
         0         0         0         0         0         0         0         0
         0         0         0         0         0         0         0         0
         0         0         0         0         0         0         0         0
         0         0         0         0         0         0         0         0
         0         0         0         0         0         0         0         0
         0         0         0         0         0         0         0         0
         0         0         0         0         0         0         0         0
         0         0         0         0         0         0         0         0
         0         0         0         0         0         0         0         0
         0         0         0         0         0         0         0         0
         0         0         0         0         0         0         0         0
         0         0         0         0         0         0         0         0
         0         0         0         0         0         0         0         0
         0         0         0         0         0         0         0         0
         0         0         0         0         0         0         0         0
         0         0         0         0         0         0         0         0
         0         0         0         0         0         0         0         0
         0         0         0         0         0         0         0         0
         0         0         0         0         0         0         0         0
         0         0         0         0         0         0         0         0
         0         0         0         0         0         0         0         0
         0         0         0         0         0         0         0         0
         0         0         0         0         0         0         0         0
         0         0         0         0         0         0         0         0
         0         0         0         0         0         0         0         0
         0         0         0         0         0         0         0         0
         0         0         0         0         0         0         0         0
         0         0         0         0         0         0         0         0
         0         0         0         0         0         0         0         0
         0         0         0         0         0         0         0         0
         0         0         0         0         0         0         0         0
         0         0         0         0         0         0         0         0
         0         0         0         0         0         0         0         0
         0         0         0         0         0         0         0         0
         0         0         0         0         0         0         0         0
         0         0         0         0         0         0         0         0
         0         0         0         0         0         0         0         0
         0         0         0         0         0         0         0         0
         0         0         0         0         0         0         0         0
         0         0         0         0         0         0         0         0
         0         0         0         0         0         0         0         0
         0         0         0         0         0         0         0         0
         0         0         0         0         0         0         0         0
         0         0         0         0         0         0         0         0
         0         0         0         0         0         0         0         0
         0         0         0         0         0         0         0         0
         0         0         0         0         0         0         0         0
         0         0         0         0         0         0         0         0
         0         0         0         0         0         0         0         0
         0         0         0         0         0         0         0         0
         0         0         0         0         0         0         0         0
         0         0         0         0         0         0         0         0
         0         0         0         0         0         0         0         0
         0         0         0         0         0         0         0         0
         0         0         0         0         0         0         0         0
         0         0         0         0         0         0         0         0
         0         0         0         0         0         0         0         0
         0         0         0         0         0         0         0         0
         0         0         0         0         0         0         0         0
         0         0         0         0         0         0         0         0
         0         0         0         0         0         0         0         0
         0         0         0         0         0         0         0         0
         0         0         0         0         0         0         0         0
         0         0         0         0         0         0         0         0
         0         0         0         0         0         0         0         0
         0         0         0         0         0         0         0         0
         0         0         0         0         0         0         0         0
         0         0         0         0         0         0         0         0
         0         0         0         0         0         0         0         0
         0         0         0         0         0         0         0         0
         0         0         0         0         0         0         0         0
         0         0         0         0         0         0         0         0
         0         0         0         0         0         0         0         0
         0         0         0         0         0         0         0         0
         0         0         0         0         0         0         0         0
         0         0         0         0         0         0         0         0
         0         0         0         0         0         0         0         0
         0         0         0         0         0         0         0         0
         0         0         0         0         0         0         0         0
         0         0         0         0         0         0         0         0
         0         0         0         0         0         0         0         0
         0         0         0         0         0         0         0         0
         0         0         0         0         0         0         0         0
         0         0         0         0         0         0         0         0
         0         0         0         0         0         0         0         0
         0         0         0         0         0         0         0         0
         0         0         0         0         0         0         0         0
         0         0         0         0         0         0         0         0
         0         0         0         0         0         0         0         0
         0         0         0         0         0         0         0         0
         0         0         0         0         0         0         0         0
         0         0         0         0         0         0         0         0
         0         0         0         0         0         0         0         0
         0         0         0         0         0         0         0         0
         0         0         0         0         0         0         0         0
         0         0         0         0         0         0         0         0
         0         0         0         0         0         0         0         0
         0         0         0         0         0         0         0         0
         0         0         0         0         0         0         0         0
         0         0         0         0         0         0         0         0
         0         0         0         0         0         0         0         0
         0         0         0         0         0         0         0         0
         0         0         0         0         0         0         0         0
         0         0         0         0         0         0         0         0
         0         0         0         0         0         0         0         0
         0         0         0         0         0         0         0         0
         0         0         0         0         0         0         0         0
         0         0         0         0         0         0         0         0
         0         0         0         0         0         0         0         0
         0         0         0         0         0         0         0         0
         0         0         0         0         0         0         0         0
         0         0         0         0         0         0         0         0
         0         0         0         0         0         0         0         0
         0         0         0         0         0         0         0         0
         0         0         0         0         0         0         0         0
         0         0         0         0         0         0         0         0
         0         0         0         0         0         0         0         0
         0         0         0         0         0         0         0         0
         0         0         0         0         0         0         0         0
         0         0         0         0         0         0         0         0
         0         0         0         0         0         0         0         0
         0         0         0         0         0         0         0         0
         0         0         0         0         0         0         0         0
         0         0         0         0         0         0         0         0
         0         0         0         0         0         0         0         0
         0         0         0         0         0         0         0         0
         0         0         0         0         0         0         0         0
         0         0         0         0         0         0         0         0
         0         0         0         0         0         0         0         0
         0         0         0         0         0         0         0         0
         0         0         0         0         0         0         0         0
         0         0         0         0         0         0         0         0
         0         0         0         0         0         0         0         0
         0         0         0         0         0         0         0         0
         0         0         0         0         0         0         0         0
         0         0         0         0         0         0         0         0
         0         0         0         0         0         0         0         0
         0         0         0         0         0         0         0         0
         0         0         0         0         0         0         0         0
         0         0         0         0         0         0         0         0
         0         0         0         0         0         0         0         0
         0         0         0         0         0         0         0         0
         0         0         0         0         0         0         0         0
         0         0         0         0         0         0         0         0
         0         0         0         0         0         0         0         0
         0         0         0         0         0         0         0         0
         0         0         0         0         0         0         0         0
         0         0         0         0         0         0         0         0
         0         0         0         0         0         0         0         0
         0         0         0         0         0         0         0         0
         0         0         0         0         0         0         0         0
         0         0         0         0         0         0         0         0
         0         0         0         0         0         0         0         0
         0         0         0         0         0         0         0         0
         0         0         0         0         0         0         0         0
         0         0         0         0         0         0         0         0
         0         0         0         0         0         0         0         0
         0         0         0         0         0         0         0         0
         0         0         0         0         0         0         0         0
         0         0         0         0         0         0         0         0
         0         0         0         0         0         0         0         0
         0         0         0         0         0         0         0         0
         0         0         0         0         0         0         0         0
         0         0         0         0         0         0         0         0
         0         0         0         0         0         0         0         0
         0         0         0         0         0         0         0         0
         0         0         0         0         0         0         0         0
         0         0         0         0         0         0         0         0
         0         0         0         0         0         0         0         0
         0         0         0         0         0         0         0         0
         0         0         0         0         0         0         0         0
         0         0         0         0         0         0         0         0
         0         0         0         0         0         0         0         0
         0         0         0         0         0         0         0         0
         0         0         0         0         0         0         0         0
         0         0         0         0         0         0         0         0
         0         0         0         0         0         0         0         0
         0         0         0         0         0         0         0         0
         0         0         0         0         0         0         0         0
         0         0         0         0         0         0         0         0
         0         0         0         0         0         0         0         0
         0         0         0         0         0         0         0         0
         0         0         0         0         0         0         0         0
         0         0         0         0         0         0         0         0
         0         0         0         0         0         0         0         0
         0         0         0         0         0         0         0         0
         0         0         0         0         0         0         0         0
         0         0         0         0         0         0         0         0
         0         0         0         0         0         0         0         0
         0         0         0         0         0         0         0         0
         0         0         0         0         0         0         0         0
         0         0         0         0         0         0         0         0
         0         0         0         0         0         0         0         0
         0         0         0         0         0         0         0         0
         0         0         0         0         0         0         0         0
         0         0         0         0         0         0         0         0
         0         0         0         0         0         0         0         0
         0         0         0         0         0         0         0         0
         0         0         0         0         0         0         0         0
         0         0         0         0         0         0         0         0
         0         0         0         0         0         0         0         0
         0         0         0         0         0         0         0         0
         0         0         0         0         0         0         0         0
         0         0         0         0         0         0         0         0
         0         0         0         0         0         0         0         0
         0         0         0         0         0         0         0         0
         0         0         0         0         0         0         0         0
         0         0         0         0         0         0         0         0
         0         0         0         0         0         0         0         0
         0         0         0         0         0         0         0         0
         0         0         0         0         0         0         0         0
         0         0         0         0         0         0         0         0
         0         0         0         0         0         0         0         0
         0         0         0         0         0         0         0         0
         0         0         0         0         0         0         0         0
         0         0         0         0         0         0         0         0
         0         0         0         0         0         0         0         0
         0         0         0         0         0         0         0         0
         0         0         0         0         0         0         0         0
         0         0         0         0         0         0         0         0
         0         0         0         0         0         0         0         0
         0         0         0         0         0         0         0         0
         0         0         0         0         0         0         0         0
         0         0         0         0         0         0         0         0
         0         0         0         0         0         0         0         0
         0         0         0         0         0         0         0         0
         0         0         0         0         0         0         0         0
         0         0         0         0         0         0         0         0
         0         0         0         0         0         0         0         0
         0         0         0         0         0         0         0         0
         0         0         0         0         0         0         0         0
         0         0         0         0         0         0         0         0
         0         0         0         0         0         0         0         0
         0         0         0         0         0         0         0         0
         0         0         0         0         0         0         0         0
         0         0         0         0         0         0         0         0
         0         0         0         0         0         0         0         0
         0         0         0         0         0         0         0         0
         0         0         0         0         0         0         0         0
         0         0         0         0         0         0         0         0
         0         0         0         0         0         0         0         0
         0         0         0         0         0         0         0         0
         0         0         0         0         0         0         0         0
         0         0         0         0         0         0         0         0
         0         0         0         0         0         0         0         0
         0         0         0         0         0         0         0         0
         0         0         0         0         0         0         0         0
         0         0         0         0         0         0         0         0
         0         0         0         0         0         0         0         0
         0         0         0         0         0         0         0         0
         0         0         0         0         0         0         0         0
         0         0         0         0         0         0         0         0
         0         0         0         0         0         0         0         0
         0         0         0         0         0         0         0         0
         0         0         0         0         0         0         0         0
         0         0         0         0         0         0         0         0
         0         0         0         0         0         0         0         0
         0         0         0         0         0         0         0         0
         0         0         0         0         0         0         0         0
         0         0         0         0         0         0         0         0
         0         0         0         0         0         0         0         0
         0         0         0         0         0         0         0         0
         0         0         0         0         0         0         0         0
         0         0         0         0         0         0         0         0
         0         0         0         0         0         0         0         0
         0         0         0         0         0         0         0         0
         0         0         0         0         0         0         0         0
         0         0         0         0         0         0         0         0
         0         0         0         0         0         0         0         0
         0         0         0         0         0         0         0         0
         0         0         0         0         0         0         0         0
         0         0         0         0         0         0         0         0
         0         0         0         0         0         0         0         0
         0         0         0         0         0         0         0         0
         0         0         0         0         0         0         0         0
         0         0         0         0         0         0         0         0
         0         0         0         0         0         0         0         0
         0         0         0         0         0         0         0         0
         0         0         0         0         0         0         0         0
         0         0         0         0         0         0         0         0
         0         0         0         0         0         0         0         0
         0         0         0         0         0         0         0         0
         0         0         0         0         0         0         0         0
         0         0         0         0         0         0         0         0
         0         0         0         0         0         0         0         0
         0         0         0         0         0         0         0         0
         0         0         0         0         0         0         0         0
         0         0         0         0         0         0         0         0
         0         0         0         0         0         0         0         0
         0         0         0         0         0         0         0         0
         0         0         0         0         0         0         0         0
         0         0         0         0         0         0         0         0
         0         0         0         0         0         0         0         0
         0         0         0         0         0         0         0         0
         0         0         0         0         0         0         0         0
         0         0         0         0         0         0         0         0
         0         0         0         0         0         0         0         0
         0         0         0         0         0         0         0         0
         0         0         0         0         0         0         0         0
         0         0         0         0         0         0         0         0
         0         0         0         0         0         0         0         0
         0         0         0         0         0         0         0         0
         0         0         0         0         0         0         0         0
         0         0         0         0         0         0         0         0
         0         0         0         0         0         0         0         0
         0         0         0         0         0         0         0         0
         0         0         0         0         0         0         0         0
         0         0         0         0         0         0         0         0
         0         0         0         0         0         0         0         0
         0         0         0         0         0         0         0         0
         0         0         0         0         0         0         0         0
         0         0         0         0         0         0         0         0
         0         0         0         0         0         0         0         0
         0         0         0         0         0         0         0         0
         0         0         0         0         0         0         0         0
         0         0         0         0         0         0         0         0
         0         0         0         0         0         0         0         0
         0         0         0         0         0         0         0         0
         0         0         0         0         0         0         0         0
         0         0         0         0         0         0         0         0
         0         0         0         0         0         0         0         0
         0         0         0         0         0         0         0         0
         0         0         0         0         0         0         0         0
         0         0         0         0         0         0         0         0
         0         0         0         0         0         0         0         0
         0         0         0         0         0         0         0         0
         0         0         0         0         0         0         0         0
         0         0         0         0         0         0         0         0
         0         0         0         0         0         0         0         0
         0         0         0         0         0         0         0         0
         0         0         0         0         0         0         0         0
         0         0         0         0         0         0         0         0
         0         0         0         0         0         0         0         0
         0         0         0         0         0         0         0         0
         0         0         0         0         0         0         0         0
         0         0         0         0         0         0         0         0
         0         0         0         0         0         0         0         0
         0         0         0         0         0         0         0         0
         0         0         0         0         0         0         0         0
         0         0         0         0         0         0         0         0
         0         0         0         0         0         0         0         0
         0         0         0         0         0         0         0         0
         0         0         0         0         0         0         0         0
         0         0         0         0         0         0         0         0
         0         0         0         0         0         0         0         0
         0         0         0         0         0         0         0         0
         0         0         0         0         0         0         0         0
         0         0         0         0         0         0         0         0
         0         0         0         0         0         0         0         0
         0         0         0         0         0         0         0         0
         0         0         0         0         0         0         0         0
         0         0         0         0         0         0         0         0
         0         0         0         0         0         0         0         0
         0         0         0         0         0         0         0         0
         0         0         0         0         0         0         0         0
         0         0         0         0         0         0         0         0
         0         0         0         0         0         0         0         0
         0         0         0         0         0         0         0         0
         0         0         0         0         0         0         0         0
         0         0         0         0         0         0         0         0
         0         0         0         0         0         0         0         0
         0         0         0         0         0         0         0         0
         0         0         0         0         0         0         0         0
         0         0         0         0         0         0         0         0
         0         0         0         0         0         0         0         0
         0         0         0         0         0         0         0         0
         0         0         0         0         0         0         0         0
         0         0         0         0         0         0         0         0
         0         0         0         0         0         0         0         0
         0         0         0         0         0         0         0         0
         0         0         0         0         0         0         0         0
         0         0         0         0         0         0         0         0
         0         0         0         0         0         0         0         0
         0         0         0         0         0         0         0         0
         0         0         0         0         0         0         0         0
         0         0         0         0         0         0         0         0
         0         0         0         0         0         0         0         0
         0         0         0         0         0         0         0         0
         0         0         0         0         0         0         0         0
         0         0         0         0         0         0         0         0
         0         0         0         0         0         0         0         0
         0         0         0         0         0         0         0         0
         0         0         0         0         0         0         0         0
         0         0         0         0         0         0         0         0
         0         0         0         0         0         0         0         0
         0         0         0         0         0         0         0         0
         0         0         0         0         0         0         0         0
         0         0         0         0         0         0         0         0
         0         0         0         0         0         0         0         0
         0         0         0         0         0         0         0         0
         0         0         0         0         0         0         0         0
         0         0         0         0         0         0         0         0
         0         0         0         0         0         0         0         0
         0         0         0         0         0         0         0         0
         0         0         0         0         0         0         0         0
         0         0         0         0         0         0         0         0
         0         0         0         0         0         0         0         0
         0         0         0         0         0         0         0         0
         0         0         0         0         0         0         0         0
         0         0         0         0         0         0         0         0
         0         0         0         0         0         0         0         0
         0         0         0         0         0         0         0         0
         0         0         0         0         0         0         0         0
         0         0         0         0         0         0         0         0
         0         0         0         0         0         0         0         0
         0         0         0         0         0         0         0         0
         0         0         0         0         0         0         0         0
         0         0         0         0         0         0         0         0
         0         0         0         0         0         0         0         0
         0         0         0         0         0         0         0         0
         0         0         0         0         0         0         0         0
         0         0         0         0         0         0         0         0
         0         0         0         0         0         0         0         0
         0         0         0         0         0         0         0         0
         0         0         0         0         0         0         0         0
         0         0         0         0         0         0         0         0
         0         0         0         0         0         0         0         0
         0         0         0         0         0         0         0         0
         0         0         0         0         0         0         0         0
         0         0         0         0         0         0         0         0
         0         0         0         0         0         0         0         0
         0         0         0         0         0         0         0         0
         0         0         0         0         0         0         0         0
         0         0         0         0         0         0         0         0
         0         0         0         0         0         0         0         0
         0         0         0         0         0         0         0         0
         0         0         0         0         0         0         0         0
         0         0         0         0         0         0         0         0
         0         0         0         0         0         0         0         0
         0         0         0         0         0         0         0         0
         0         0         0         0         0         0         0         0
         0         0         0         0         0         0         0         0
         0         0         0         0         0         0         0         0
         0         0         0         0         0         0         0         0
         0         0         0         0         0         0         0         0
         0         0         0         0         0         0         0         0
         0         0         0         0         0         0         0         0
         0         0         0         0         0         0         0         0
         0         0         0         0         0         0         0         0
         0         0         0         0         0         0         0         0
         0         0         0         0         0         0         0         0
         0         0         0         0         0         0         0         0
         0         0         0         0         0         0         0         0
         0         0         0         0         0         0         0         0
         0         0         0         0         0         0         0         0
         0         0         0         0         0         0         0         0
         0         0         0         0         0         0         0         0
         0         0         0         0         0         0         0         0
         0         0         0         0         0         0         0         0
         0         0         0         0         0         0         0         0
         0         0         0         0         0         0         0         0
         0         0         0         0         0         0         0         0
         0         0         0         0         0         0         0         0
         0         0         0         0         0         0         0         0
         0         0         0         0         0         0         0         0
         0         0         0         0         0         0         0         0
         0         0         0         0         0         0         0         0
         0         0         0         0         0         0         0         0
         0         0         0         0         0         0         0         0
         0         0         0         0         0         0         0         0
         0         0         0         0         0         0         0         0
         0         0         0         0         0         0         0         0
         0         0         0         0         0         0         0         0
         0         0         0         0         0         0         0         0
         0         0         0         0         0         0         0         0
         0         0         0         0         0         0         0         0
         0         0         0         0         0         0         0         0
         0         0         0         0         0         0         0         0
         0         0         0         0         0         0         0         0
         0         0         0         0         0         0         0         0
         0         0         0         0         0         0         0         0
         0         0         0         0         0         0         0         0
         0         0         0         0         0         0         0         0
         0         0         0         0         0         0         0         0
         0         0         0         0         0         0         0         0
         0         0         0         0         0         0         0         0
         0         0         0         0         0         0         0         0
         0         0         0         0         0         0         0         0
         0         0         0         0         0         0         0         0
         0         0         0         0         0         0         0         0
         0         0         0         0         0         0         0         0
         0         0         0         0         0         0         0         0
         0         0         0         0         0         0         0         0
         0         0         0         0         0         0         0         0
         0         0         0         0         0         0         0         0
         0         0         0         0         0         0         0         0
         0         0         0         0         0         0         0         0
         0         0         0         0         0         0         0         0
         0         0         0         0         0         0         0         0
         0         0         0         0         0         0         0         0
         0         0         0         0         0         0         0         0
         0         0         0         0         0         0         0         0
         0         0         0         0         0         0         0         0
         0         0         0         0         0         0         0         0
         0         0         0         0         0         0         0         0
         0         0         0         0         0         0         0         0
         0         0         0         0         0         0         0         0
         0         0         0         0         0         0         0         0
         0         0         0         0         0         0         0         0
         0         0         0         0         0         0         0         0
         0         0         0         0         0         0         0         0
         0         0         0         0         0         0         0         0
         0         0         0         0         0         0         0         0
         0         0         0         0         0         0         0         0
         0         0         0         0         0         0         0         0
         0         0         0         0         0         0         0         0
         0         0         0         0         0         0         0         0
         0         0         0         0         0         0         0         0
         0         0         0         0         0         0         0         0
         0         0         0         0         0         0         0         0
         0         0         0         0         0         0         0         0
         0         0         0         0         0         0         0         0
         0         0         0         0         0         0         0         0
         0         0         0         0         0         0         0         0
         0         0         0         0         0         0         0         0
         0         0         0         0         0         0         0         0
         0         0         0         0         0         0         0         0
         0         0         0         0         0         0         0         0
         0         0         0         0         0         0         0         0
         0         0         0         0         0         0         0         0
         0         0         0         0         0         0         0         0
         0         0         0         0         0         0         0         0
         0         0         0         0         0         0         0         0
         0         0         0         0         0         0         0         0
         0         0         0         0         0         0         0         0
         0         0         0         0         0         0         0         0
         0         0         0         0         0         0         0         0
         0         0         0         0         0         0         0         0
         0         0         0         0         0         0         0         0
         0         0         0         0         0         0         0         0
         0         0         0         0         0         0         0         0
         0         0         0         0         0         0         0         0
         0         0         0         0         0         0         0         0
         0         0         0         0         0         0         0         0
         0         0         0         0         0         0         0         0
         0         0         0         0         0         0         0         0
         0         0         0         0         0         0         0         0
         0         0         0         0         0         0         0         0
         0         0         0         0         0         0         0         0
         0         0         0         0         0         0         0         0
         0         0         0         0         0         0         0         0
         0         0         0         0         0         0         0         0
         0         0         0         0         0         0         0         0
         0         0         0         0         0         0         0         0
         0         0         0         0         0         0         0         0
         0         0         0         0         0         0         0         0
         0         0         0         0         0         0         0         0
         0         0         0         0         0         0         0         0
         0         0         0         0         0         0         0         0
         0         0         0         0         0         0         0         0
         0         0         0         0         0         0         0         0
         0         0         0         0         0         0         0         0
         0         0         0         0         0         0         0         0
         0         0         0         0         0         0         0         0
         0         0         0         0         0         0         0         0
         0         0         0         0         0         0         0         0
         0         0         0         0         0         0         0         0
         0         0         0         0         0         0         0         0
         0         0         0         0         0         0         0         0
         0         0         0         0         0         0         0         0
         0         0         0         0         0         0         0         0
         0         0         0         0         0         0         0         0
         0         0         0         0         0         0         0         0
         0         0         0         0         0         0         0         0
         0         0         0         0         0         0         0         0
         0         0         0         0         0         0         0         0
         0         0         0         0         0         0         0         0
         0         0         0         0         0         0         0         0
         0         0         0         0         0         0         0         0
         0         0         0         0         0         0         0         0
         0         0         0         0         0         0         0         0
         0         0         0         0         0         0         0         0
         0         0         0         0         0         0         0         0
         0         0         0         0         0         0         0         0
         0         0         0         0         0         0         0         0
         0         0         0         0         0         0         0         0
         0         0         0         0         0         0         0         0
         0         0         0         0         0         0         0         0
         0         0         0         0         0         0         0         0
         0         0         0         0         0         0         0         0
         0         0         0         0         0         0         0         0
         0         0         0         0         0         0         0         0
         0         0         0         0         0         0         0         0
         0         0         0         0         0         0         0         0
         0         0         0         0         0         0         0         0
         0         0         0         0         0         0         0         0
         0         0         0         0         0         0         0         0
         0         0         0         0         0         0         0         0
         0         0         0         0         0         0         0         0
         0         0         0         0         0         0         0         0
         0         0         0         0         0         0         0         0
         0         0         0         0         0         0         0         0
         0         0         0         0         0         0         0         0
         0         0         0         0         0         0         0         0
         0         0         0         0         0         0         0         0
         0         0         0         0         0         0         0         0
         0         0         0         0         0         0         0         0
         0         0         0         0         0         0         0         0
         0         0         0         0         0         0         0         0
         0         0         0         0         0         0         0         0
         0         0         0         0         0         0         0         0
         0         0         0         0         0         0         0         0
         0         0         0         0         0         0         0         0
         0         0         0         0         0         0         0         0
         0         0         0         0         0         0         0         0
         0         0         0         0         0         0         0         0
         0         0         0         0         0         0         0         0
         0         0         0         0         0         0         0         0
         0         0         0         0         0         0         0         0
         0         0         0         0         0         0         0         0
         0         0         0         0         0         0         0         0
         0         0         0         0         0         0         0         0
         0         0         0         0         0         0         0         0
         0         0         0         0         0         0         0         0
         0         0         0         0         0         0         0         0
         0         0         0         0         0         0         0         0
         0         0         0         0         0         0         0         0
         0         0         0         0         0         0         0         0
         0         0         0         0         0         0         0         0
         0         0         0         0         0         0         0         0
         0         0         0         0         0         0         0         0
         0         0         0         0         0         0         0         0
         0         0         0         0         0         0         0         0
         0         0         0         0         0         0         0         0
         0         0         0         0         0         0         0         0
         0         0         0         0         0         0         0         0
         0         0         0         0         0         0         0         0
         0         0         0         0         0         0         0         0
         0         0         0         0         0         0         0         0
         0         0         0         0         0         0         0         0
         0         0         0         0         0         0         0         0
         0         0         0         0         0         0         0         0
         0         0         0         0         0         0         0         0
         0         0         0         0         0         0         0         0
         0         0         0         0         0         0         0         0
         0         0         0         0         0         0         0         0
         0         0         0         0         0         0         0         0
         0         0         0         0         0         0         0         0
         0         0         0         0         0         0         0         0
         0         0         0         0         0         0         0         0
         0         0         0         0         0         0         0         0
         0         0         0         0         0         0         0         0
         0         0         0         0         0         0         0         0
         0         0         0         0         0         0         0         0
         0         0         0         0         0         0         0         0
         0         0         0         0         0         0         0         0
         0         0         0         0         0         0         0         0
         0         0         0         0         0         0         0         0
         0         0         0         0         0         0         0         0
         0         0         0         0         0         0         0         0
         0         0         0         0         0         0         0         0
         0         0         0         0         0         0         0         0
         0         0         0         0         0         0         0         0
         0         0         0         0         0         0         0         0
         0         0         0         0         0         0         0         0
         0         0         0         0         0         0         0         0
         0         0         0         0         0         0         0         0
         0         0         0         0         0         0         0         0
         0         0         0         0         0         0         0         0
         0         0         0         0         0         0         0         0
         0         0         0         0         0         0         0         0
         0         0         0         0         0         0         0         0
         0         0         0         0         0         0         0         0
         0         0         0         0         0         0         0         0
         0         0         0         0         0         0         0         0
         0         0         0         0         0         0         0         0
         0         0         0         0         0         0         0         0
         0         0         0         0         0         0         0         0
         0         0         0         0         0         0         0         0
         0         0         0         0         0         0         0         0
         0         0         0         0         0         0         0         0
         0         0         0         0         0         0         0         0
         0         0         0         0         0         0         0         0
         0         0         0         0         0         0         0         0
         0         0         0         0         0         0         0         0
         0         0         0         0         0         0         0         0
         0         0         0         0         0         0         0         0
         0         0         0         0         0         0         0         0
         0         0         0         0         0         0         0         0
         0         0         0         0         0         0         0         0
         0         0         0         0         0         0         0         0
         0         0         0         0         0         0         0         0
         0         0         0         0         0         0         0         0
         0         0         0         0         0         0         0         0
         0         0         0         0         0         0         0         0
         0         0         0         0         0         0         0         0
         0         0         0         0         0         0         0         0
         0         0         0         0         0         0         0         0
         0         0         0         0         0         0         0         0
         0         0         0         0         0         0         0         0
         0         0         0         0         0         0         0         0
         0         0         0         0         0         0         0         0
         0         0         0         0         0         0         0         0
         0         0         0         0         0         0         0         0
         0         0         0         0         0         0         0         0
         0         0         0         0         0         0         0         0
         0         0         0         0         0         0         0         0
         0         0         0         0         0         0         0         0
         0         0         0         0         0         0         0         0
         0         0         0         0         0         0         0         0
         0         0         0         0         0         0         0         0
         0         0         0         0         0         0         0         0
         0         0         0         0         0         0         0         0
         0         0         0         0         0         0         0         0
         0         0         0         0         0         0         0         0
         0         0         0         0         0         0         0         0
         0         0         0         0         0         0         0         0
         0         0         0         0         0         0         0         0
         0         0         0         0         0         0         0         0
         0         0         0         0         0         0         0         0
         0         0         0         0         0         0         0         0
         0         0         0         0         0         0         0         0
         0         0         0         0         0         0         0         0
         0         0         0         0         0         0         0         0
         0         0         0         0         0         0         0         0
         0         0         0         0         0         0         0         0
         0         0         0         0         0         0         0         0
         0         0         0         0         0         0         0         0
         0         0         0         0         0         0         0         0
         0         0         0         0         0         0         0         0
         0         0         0         0         0         0         0         0
         0         0         0         0         0         0         0         0
         0         0         0         0         0         0         0         0
         0         0         0         0         0         0         0         0
         0         0         0         0         0         0         0         0
         0         0         0         0         0         0         0         0
         0         0         0         0         0         0         0         0
         0         0         0         0         0         0         0         0
         0         0         0         0         0         0         0         0
         0         0         0         0         0         0         0         0
         0         0         0         0         0         0         0         0
         0         0         0         0         0         0         0         0
         0         0         0         0         0         0         0         0
         0         0         0         0         0         0         0         0
         0         0         0         0         0         0         0         0
         0         0         0         0         0         0         0         0
         0         0         0         0         0         0         0         0
         0         0         0         0         0         0         0         0
         0         0         0         0         0         0         0         0
         0         0         0         0         0         0         0         0
         0         0         0         0         0         0         0         0
         0         0         0         0         0         0         0         0
         0         0         0         0         0         0         0         0
         0         0         0         0         0         0         0         0
         0         0         0         0         0         0         0         0
         0         0         0         0         0         0         0         0
         0         0         0         0         0         0         0         0
         0         0         0         0         0         0         0         0
         0         0         0         0         0         0         0         0
         0         0         0         0         0         0         0         0
         0         0         0         0         0         0         0         0
         0         0         0         0         0         0         0         0
         0         0         0         0         0         0         0         0
         0         0         0         0         0         0         0         0
         0         0         0         0         0         0         0         0
         0         0         0         0         0         0         0         0
         0         0         0         0         0         0         0         0
         0         0         0         0         0         0         0         0
         0         0         0         0         0         0         0         0
         0         0         0         0         0         0         0         0
         0         0         0         0         0         0         0         0
         0         0         0         0         0         0         0         0
         0         0         0         0         0         0         0         0
         0         0         0         0         0         0         0         0
         0         0         0         0         0         0         0         0
         0         0         0         0         0         0         0         0
         0         0         0         0         0         0         0         0
         0         0         0         0         0         0         0         0
         0         0         0         0         0         0         0         0
         0         0         0         0         0         0         0         0
         0         0         0         0         0         0         0         0
         0         0         0         0         0         0         0         0
         0         0         0         0         0         0         0         0
         0         0         0         0         0         0         0         0
         0         0         0         0         0         0         0         0
         0         0         0         0         0         0         0         0
         0         0         0         0         0         0         0         0
         0         0         0         0         0         0         0         0
         0         0         0         0         0         0         0         0
         0         0         0         0         0         0         0         0
         0         0         0         0         0         0         0         0
         0         0         0         0         0         0         0         0
         0         0         0         0         0         0         0         0
         0         0         0         0         0         0         0         0
         0         0         0         0         0         0         0         0
         0         0         0         0         0         0         0         0
         0         0         0         0         0         0         0         0
         0         0         0         0         0         0         0         0
         0         0         0         0         0         0         0         0
         0         0         0         0         0         0         0         0
         0         0         0         0         0         0         0         0
         0         0         0         0         0         0         0         0
         0         0         0         0         0         0         0         0
         0         0         0         0         0         0         0         0
         0         0         0         0         0         0         0         0
         0         0         0         0         0         0         0         0
         0         0         0         0         0         0         0         0
         0         0         0         0         0         0         0         0
         0         0         0         0         0         0         0         0
         0         0         0         0         0         0         0         0
         0         0         0         0         0         0         0         0
         0         0         0         0         0         0         0         0
         0         0         0         0         0         0         0         0
         0         0         0         0         0         0         0         0
         0         0         0         0         0         0         0         0
         0         0         0         0         0         0         0         0
         0         0         0         0         0         0         0         0
         0         0         0         0         0         0         0         0
         0         0         0         0         0         0         0         0
         0         0         0         0         0         0         0         0
         0         0         0         0         0         0         0         0
         0         0         0         0         0         0         0         0
         0         0         0         0         0         0         0         0
         0         0         0         0         0         0         0         0
         0         0         0         0         0         0         0         0
         0         0         0         0         0         0         0         0
         0         0         0         0         0         0         0         0
         0         0         0         0         0         0         0         0
         0         0         0         0         0         0         0         0
         0         0         0         0         0         0         0         0
         0         0         0         0         0         0         0         0
         0         0         0         0         0         0         0         0
         0         0         0         0         0         0         0         0
         0         0         0         0         0         0         0         0
         0         0         0         0         0         0         0         0
         0         0         0         0         0         0         0         0
         0         0         0         0         0         0         0         0
         0         0         0         0         0         0         0         0
         0         0         0         0         0         0         0         0
         0         0         0         0         0         0         0         0
         0         0         0         0         0         0         0         0
         0         0         0         0         0         0         0         0
         0         0         0         0         0         0         0         0
         0         0         0         0         0         0         0         0
         0         0         0         0         0         0         0         0
         0         0         0         0         0         0         0         0
         0         0         0         0         0         0         0         0
         0         0         0         0         0         0         0         0
         0         0         0         0         0         0         0         0
         0         0         0         0         0         0         0         0
         0         0         0         0         0         0         0         0
         0         0         0         0         0         0         0         0
         0         0         0         0         0         0         0         0
         0         0         0         0         0         0         0         0
         0         0         0         0         0         0         0         0
         0         0         0         0         0         0         0         0
         0         0         0         0         0         0         0         0
         0         0         0         0         0         0         0         0
         0         0         0         0         0         0         0         0
         0         0         0         0         0         0         0         0
         0         0         0         0         0         0         0         0
         0         0         0         0         0         0         0         0
         0         0         0         0         0         0         0         0
         0         0         0         0         0         0         0         0
         0         0         0         0         0         0         0         0
         0         0         0         0         0         0         0         0
         0         0         0         0         0         0         0         0
         0         0         0         0         0         0         0         0
         0         0         0         0         0         0         0         0
         0         0         0         0         0         0         0         0
         0         0         0         0         0         0         0         0
         0         0         0         0         0         0         0         0
         0         0         0         0         0         0         0         0
         0         0         0         0         0         0         0         0
         0         0         0         0         0         0         0         0
         0         0         0         0         0         0         0         0
         0         0         0         0         0         0         0         0
         0         0         0         0         0         0         0         0
         0         0         0         0         0         0         0         0
         0         0         0         0         0         0         0         0
         0         0         0         0         0         0         0         0
         0         0         0         0         0         0         0         0
         0         0         0         0         0         0         0         0
         0         0         0         0         0         0         0         0
         0         0         0         0         0         0         0         0
         0         0         0         0         0         0         0         0
         0         0         0         0         0         0         0         0
         0         0         0         0         0         0         0         0
         0         0         0         0         0         0         0         0
         0         0         0         0         0         0         0         0
         0         0         0         0         0         0         0         0
         0         0         0         0         0         0         0         0
         0         0         0         0         0         0         0         0
         0         0         0         0         0         0         0         0
         0         0         0         0         0         0         0         0
         0         0         0         0         0         0         0         0
         0         0         0         0         0         0         0         0
         0         0         0         0         0         0         0         0
         0         0         0         0         0         0         0         0
         0         0         0         0         0         0         0         0
         0         0         0         0         0         0         0         0
         0         0         0         0         0         0         0         0
         0         0         0         0         0         0         0         0
         0         0         0         0         0         0         0         0
         0         0         0         0         0         0         0         0
         0         0         0         0         0         0         0         0
         0         0         0         0         0         0         0         0
         0         0         0         0         0         0         0         0
         0         0         0         0         0         0         0         0
         0         0         0         0         0         0         0         0
         0         0         0         0         0         0         0         0
         0         0         0         0         0         0         0         0
         0         0         0         0         0         0         0         0
         0         0         0         0         0         0         0         0
         0         0         0         0         0         0         0         0
         0         0         0         0         0         0         0         0
         0         0         0         0         0         0         0         0
         0         0         0         0         0         0         0         0
         0         0         0         0         0         0         0         0
         0         0         0         0         0         0         0         0
         0         0         0         0         0         0         0         0
         0         0         0         0         0         0         0         0
         0         0         0         0         0         0         0         0
         0         0         0         0         0         0         0         0
         0         0         0         0         0         0         0         0
         0         0         0         0         0         0         0         0
         0         0         0         0         0         0         0         0
         0         0         0         0         0         0         0         0
         0         0         0         0         0         0         0         0
         0         0         0         0         0         0         0         0
         0         0         0         0         0         0         0         0
         0         0         0         0         0         0         0         0
         0         0         0         0         0         0         0         0
         0         0         0         0         0         0         0         0
         0         0         0         0         0         0         0         0
         0         0         0         0         0         0         0         0
         0         0         0         0         0         0         0         0
         0         0         0         0         0         0         0         0
         0         0         0         0         0         0         0         0
         0         0         0         0         0         0         0         0
         0         0         0         0         0         0         0         0
         0         0         0         0         0         0         0         0
         0         0         0         0         0         0         0         0
         0         0         0         0         0         0         0         0
         0         0         0         0         0         0         0         0
         0         0         0         0         0         0         0         0
         0         0         0         0         0         0         0         0
         0         0         0         0         0         0         0         0
         0         0         0         0         0         0         0         0
         0         0         0         0         0         0         0         0
         0         0         0         0         0         0         0         0
         0         0         0         0         0         0         0         0
         0         0         0         0         0         0         0         0
         0         0         0         0         0         0         0         0
         0         0         0         0         0         0         0         0
         0         0         0         0         0         0         0         0
         0         0         0         0         0         0         0         0
         0         0         0         0         0         0         0         0
         0         0         0         0         0         0         0         0
         0         0         0         0         0         0         0         0
         0         0         0         0         0         0         0         0
         0         0         0         0         0         0         0         0
         0         0         0         0         0         0         0         0
         0         0         0         0         0         0         0         0
         0         0         0         0         0         0         0         0
         0         0         0         0         0         0         0         0
         0         0         0         0         0         0         0         0
         0         0         0         0         0         0         0         0
         0         0         0         0         0         0         0         0
         0         0         0         0         0         0         0         0
         0         0         0         0         0         0         0         0
         0         0         0         0         0         0         0         0
         0         0         0         0         0         0         0         0
         0         0         0         0         0         0         0         0
         0         0         0         0         0         0         0         0
         0         0         0         0         0         0         0         0
         0         0         0         0         0         0         0         0
         0         0         0         0         0         0         0         0
         0         0         0         0         0         0         0         0
         0         0         0         0         0         0         0         0
         0         0         0         0         0         0         0         0
         0         0         0         0         0         0         0         0
         0         0         0         0         0         0         0         0
         0         0         0         0         0         0         0         0
         0         0         0         0         0         0         0         0
         0         0         0         0         0         0         0         0
         0         0         0         0         0         0         0         0
         0         0         0         0         0         0         0         0
         0         0         0         0         0         0         0         0
         0         0         0         0         0         0         0         0
         0         0         0         0         0         0         0         0
         0         0         0         0         0         0         0         0
         0         0         0         0         0         0         0         0
         0         0         0         0         0         0         0         0
         0         0         0         0         0         0         0         0
         0         0         0         0         0         0         0         0
         0         0         0         0         0         0         0         0
         0         0         0         0         0         0         0         0
         0         0         0         0         0         0         0         0
         0         0         0         0         0         0         0         0
         0         0         0         0         0         0

         0         0 !NGRP NST2


         0         0 !NUMLP NUMLPH

         0 !NCRTERM: cross-terms

